1000 SPC/Fw water molecules t= 292.00000 step= 292000
 3000
    1SOL     OW    1   2.600   2.861   1.018  0.5224 -0.1461  0.1293
    1SOL    HW1    2   2.618   2.853   0.916 -1.8693 -0.0778 -1.7296
    1SOL    HW2    3   2.637   2.943   1.062 -1.8443 -1.1578 -0.8935
    2SOL     OW    4   2.682   1.966   0.875  0.0137  0.0511  0.2571
    2SOL    HW1    5   2.739   1.952   0.794 -1.2691  1.4878  0.9424
    2SOL    HW2    6   2.707   1.900   0.950  2.0894 -1.9066  0.7120
    3SOL     OW    7   0.704   2.829   2.697 -0.2520 -0.0399 -0.3584
    3SOL    HW1    8   0.609   2.853   2.727  1.4799 -1.3396 -0.2629
    3SOL    HW2    9   0.729   2.730   2.717  2.6888 -2.6101 -1.5158
    4SOL     OW   10   2.123   2.310   1.385  0.0378 -0.2123  0.4900
    4SOL    HW1   11   2.140   2.361   1.470  1.9083 -1.7530 -3.3893
    4SOL    HW2   12   2.169   2.220   1.376 -1.4081  0.3609 -1.6349
    5SOL     OW   13   1.593   0.968   1.197  0.0820 -0.0037  0.1950
    5SOL    HW1   14   1.552   0.873   1.187  0.7182 -0.4474 -0.6414
    5SOL    HW2   15   1.582   0.989   1.295 -0.8711  1.1617 -1.5670
    6SOL     OW   16   2.133   0.001   0.014 -0.0113  0.6983 -0.5229
    6SOL    HW1   17   2.210   0.015   0.087  0.5277  1.6178  2.7921
    6SOL    HW2   18   2.038   0.012   0.055  1.0054 -1.8752  1.3932
    7SOL     OW   19   2.725   1.153   1.361 -0.3595  0.0328 -0.2539
    7SOL    HW1   20   2.807   1.118   1.415  2.4856  1.3396 -0.2005
    7SOL    HW2   21   2.766   1.216   1.293  0.2834 -0.3274 -1.7540
    8SOL     OW   22   1.446   2.390   1.228  0.1420  0.2241 -0.0530
    8SOL    HW1   23   1.512   2.373   1.299  1.2178 -2.0042 -1.2671
    8SOL    HW2   24   1.451   2.320   1.153 -1.5542 -0.4238  0.2043
    9SOL     OW   25   1.374   2.883   2.332 -0.1889  0.2774 -0.2783
    9SOL    HW1   26   1.295   2.838   2.289  1.0304 -0.7287  0.7659
    9SOL    HW2   27   1.454   2.884   2.265 -0.0927  0.8740  0.2918
   10SOL     OW   28   0.507   2.008   0.931  0.5037 -0.3926  0.1329
   10SOL    HW1   29   0.492   1.926   0.878 -1.4790 -1.4322  2.3731
   10SOL    HW2   30   0.599   2.002   0.978 -0.3544  0.6104 -1.8057
   11SOL     OW   31   1.807   1.466   1.027  0.2791  0.3364  0.4353
   11SOL    HW1   32   1.893   1.502   1.067 -0.1215  0.2410 -2.8983
   11SOL    HW2   33   1.750   1.432   1.109 -3.7066 -0.2587  3.9113
   12SOL     OW   34   2.687   2.525   1.898  0.1533 -0.0992 -0.1646
   12SOL    HW1   35   2.643   2.583   1.830  1.8013 -2.2778  2.1884
   12SOL    HW2   36   2.780   2.498   1.868 -2.3861 -1.0226 -4.6976
   13SOL     OW   37   2.309   0.005   0.415  0.1596 -0.4094 -0.1486
   13SOL    HW1   38   2.213   3.080   0.446  1.2495  1.6622 -1.5434
   13SOL    HW2   39   2.341   0.097   0.435  0.7195 -0.1912 -3.0366
   14SOL     OW   40   1.834   2.307   0.851  0.4646 -0.4629 -0.0592
   14SOL    HW1   41   1.910   2.259   0.804  1.7139  1.5114  0.0664
   14SOL    HW2   42   1.771   2.356   0.791  1.1591 -0.7795  2.4895
   15SOL     OW   43   3.047   2.060   2.063  0.4496  0.3621  0.2645
   15SOL    HW1   44   0.009   1.993   2.002 -1.4660 -0.1825  2.7009
   15SOL    HW2   45   3.080   2.054   2.156  0.4353  0.5280 -1.4135
   16SOL     OW   46   2.136   2.535   0.573 -0.2530  0.3489  0.1756
   16SOL    HW1   47   2.187   2.581   0.496  1.5922  1.5447  0.9383
   16SOL    HW2   48   2.199   2.535   0.659 -0.2313 -1.3990 -0.5812
   17SOL     OW   49   0.736   0.045   1.153 -0.4825 -0.9628  0.2382
   17SOL    HW1   50   0.733   3.034   1.128  1.0489 -1.3302  0.2092
   17SOL    HW2   51   0.751   0.057   1.249 -2.2550  0.8759 -1.1917
   18SOL     OW   52   1.406   1.033   0.112 -0.1928 -0.3853 -0.1454
   18SOL    HW1   53   1.305   1.046   0.100 -0.7168 -0.3702 -1.7373
   18SOL    HW2   54   1.447   0.964   0.055  0.3097  2.8042 -0.5808
   19SOL     OW   55   1.799   1.917   0.284  0.0806 -0.3185  0.4262
   19SOL    HW1   56   1.814   2.004   0.230 -1.2017 -0.4659 -0.3255
   19SOL    HW2   57   1.814   1.830   0.223 -0.3312 -1.6592 -2.7315
   20SOL     OW   58   2.427   1.730   2.073  0.0549 -0.2059 -0.2517
   20SOL    HW1   59   2.373   1.809   2.109 -0.9975  2.1793 -0.1444
   20SOL    HW2   60   2.423   1.651   2.135  1.9013  2.0780 -1.7867
   21SOL     OW   61   1.039   1.217   0.560 -0.2980 -0.3954  0.4893
   21SOL    HW1   62   1.097   1.188   0.479  0.0454 -0.9625 -0.4327
   21SOL    HW2   63   0.947   1.170   0.555 -0.9246  1.7742 -3.1717
   22SOL     OW   64   2.091   2.928   1.488  0.4975  0.9703  0.7011
   22SOL    HW1   65   2.145   2.954   1.572  1.5805 -1.2966  0.5410
   22SOL    HW2   66   2.069   3.012   1.439 -0.9715 -3.3783  2.8884
   23SOL     OW   67   2.960   0.815   1.792  0.1781  0.5192  0.3650
   23SOL    HW1   68   2.926   0.792   1.887 -0.4920  0.3712 -3.0734
   23SOL    HW2   69   3.056   0.845   1.800 -1.2872 -0.4227  0.8753
   24SOL     OW   70   2.447   2.858   0.227 -0.0036 -0.0292  0.2711
   24SOL    HW1   71   2.414   2.952   0.221 -0.4464 -1.4666  2.3162
   24SOL    HW2   72   2.456   2.816   0.132 -0.7816  0.6712  0.3787
   25SOL     OW   73   0.981   0.030   2.275  0.0997 -0.3060 -0.0273
   25SOL    HW1   74   1.081   0.026   2.268 -0.0883  1.5693  2.5322
   25SOL    HW2   75   0.955   0.130   2.280 -3.4655  0.3978 -1.9247
   26SOL     OW   76   1.726   2.412   0.432  0.0628  0.4990  0.2489
   26SOL    HW1   77   1.804   2.353   0.463  3.4148 -1.5295  2.5837
   26SOL    HW2   78   1.705   2.422   0.333  0.1435 -0.8570  2.0846
   27SOL     OW   79   2.351   1.576   0.060 -0.7308  0.5038  0.0028
   27SOL    HW1   80   2.263   1.570   0.011  2.7812 -0.5028 -0.4092
   27SOL    HW2   81   2.419   1.522   0.003  0.1604  1.4082  0.9417
   28SOL     OW   82   0.549   1.465   1.594  0.3572  0.1699  0.0048
   28SOL    HW1   83   0.593   1.480   1.685  2.4364 -0.0303 -0.1401
   28SOL    HW2   84   0.580   1.531   1.529 -2.1942  1.6403 -0.7540
   29SOL     OW   85   2.267   2.465   1.557  0.1582 -0.3513  0.0750
   29SOL    HW1   86   2.248   2.549   1.499 -1.2064  0.6065  0.7777
   29SOL    HW2   87   2.363   2.434   1.561  1.4200  1.0972  2.2766
   30SOL     OW   88   1.711   0.384   0.653 -0.2018  0.6495  0.1843
   30SOL    HW1   89   1.707   0.417   0.746 -0.7169  0.5963 -4.5865
   30SOL    HW2   90   1.615   0.348   0.628 -4.9600  2.8839 -1.1504
   31SOL     OW   91   2.038   2.400   1.777  0.2339 -0.1853 -0.2695
   31SOL    HW1   92   1.962   2.450   1.723 -1.9093 -0.4502  0.7008
   31SOL    HW2   93   2.113   2.360   1.719 -1.9164  0.8759 -1.2298
   32SOL     OW   94   0.882   1.564   0.854 -0.5282 -0.2642 -0.6404
   32SOL    HW1   95   0.852   1.544   0.758  0.0401  2.0862 -1.7170
   32SOL    HW2   96   0.926   1.662   0.862 -0.0797  3.3197  0.3303
   33SOL     OW   97   0.301   0.150   2.465 -0.3108  0.2057 -0.5737
   33SOL    HW1   98   0.391   0.170   2.506 -1.4420  0.2442 -0.4904
   33SOL    HW2   99   0.283   0.209   2.384  1.2047 -0.8908  0.8675
   34SOL     OW  100   1.812   2.978   0.534  0.4053  0.0571  0.4081
   34SOL    HW1  101   1.795   3.077   0.543  2.2911 -3.1582 -2.0174
   34SOL    HW2  102   1.757   2.942   0.456  0.1786 -1.1727 -1.1496
   35SOL     OW  103   2.222   2.693   1.420 -0.4449 -0.6090  0.0965
   35SOL    HW1  104   2.315   2.726   1.403 -1.3486  1.8523 -0.8619
   35SOL    HW2  105   2.154   2.767   1.440 -2.7560 -0.2911  2.6545
   36SOL     OW  106   1.844   2.562   2.304  0.1969 -0.4185  0.3099
   36SOL    HW1  107   1.855   2.469   2.346 -1.4952  1.7580 -3.5384
   36SOL    HW2  108   1.750   2.604   2.318 -4.5960  1.2848  0.3189
   37SOL     OW  109   0.847   0.010   1.790  0.4583  0.2054 -0.1952
   37SOL    HW1  110   0.784   3.031   1.744 -0.3627 -0.1409 -1.2915
   37SOL    HW2  111   0.866   3.068   1.888 -3.1110  1.7707  0.9833
   38SOL     OW  112   0.061   0.171   2.641  0.4191  0.0919  0.0938
   38SOL    HW1  113   0.038   0.106   2.715 -1.9677  1.0232 -0.6306
   38SOL    HW2  114   0.159   0.165   2.614  0.3346 -1.9859  1.4382
   39SOL     OW  115   2.276   0.829   1.548  0.3673  0.1903  0.4599
   39SOL    HW1  116   2.198   0.883   1.590 -1.5366  0.8160  2.9417
   39SOL    HW2  117   2.256   0.805   1.449  0.1467  1.2910 -0.9779
   40SOL     OW  118   1.071   2.817   0.122 -0.6630 -0.0370 -0.1051
   40SOL    HW1  119   1.010   2.889   0.076 -2.3758 -0.9043 -1.8239
   40SOL    HW2  120   1.152   2.862   0.164  0.7470 -0.1083 -1.8075
   41SOL     OW  121   2.378   1.246   0.953  0.0732 -0.8105  0.4932
   41SOL    HW1  122   2.465   1.293   0.918  0.5992 -0.4986  0.1729
   41SOL    HW2  123   2.331   1.195   0.875 -1.7000 -0.4667 -1.3891
   42SOL     OW  124   0.266   0.307   1.042 -0.2662 -0.2113  0.1179
   42SOL    HW1  125   0.300   0.393   0.992 -0.2600  2.5267  0.7711
   42SOL    HW2  126   0.252   0.233   0.975 -0.0473  2.3566 -0.9234
   43SOL     OW  127   2.776   1.734   2.609  0.0582 -0.0390 -0.3971
   43SOL    HW1  128   2.717   1.745   2.693  1.0257  1.4062  1.1574
   43SOL    HW2  129   2.762   1.645   2.563  0.2717 -3.3560 -1.1551
   44SOL     OW  130   2.715   0.154   1.746  0.3997 -0.6155 -0.2586
   44SOL    HW1  131   2.791   0.200   1.705 -2.7261 -0.5598 -1.1195
   44SOL    HW2  132   2.707   0.185   1.840 -0.4781 -1.0815 -2.4548
   45SOL     OW  133   0.544   3.060   1.596 -0.3614  0.7181  0.1006
   45SOL    HW1  134   0.582   3.018   1.678 -1.5127  0.2309 -2.0925
   45SOL    HW2  135   0.451   0.012   1.611 -0.2622 -2.7007 -2.3180
   46SOL     OW  136   1.321   2.737   2.663 -0.2714  0.2546 -0.3804
   46SOL    HW1  137   1.231   2.715   2.624  0.5206 -4.7316 -1.0663
   46SOL    HW2  138   1.351   2.833   2.638  0.0234  0.7012 -0.9852
   47SOL     OW  139   1.816   1.882   0.760 -0.5864  0.1423  0.3115
   47SOL    HW1  140   1.777   1.904   0.854 -0.1286  0.0467  2.0810
   47SOL    HW2  141   1.904   1.825   0.768  1.5206 -3.3240 -4.5547
   48SOL     OW  142   0.926   2.200   0.510 -0.3246  0.0117  0.4697
   48SOL    HW1  143   0.915   2.277   0.446 -2.9048 -0.1794  0.6517
   48SOL    HW2  144   0.840   2.186   0.566  0.5851  1.0245 -0.5313
   49SOL     OW  145   2.190   0.041   2.418  0.1952  0.2452 -0.1571
   49SOL    HW1  146   2.293   0.033   2.419 -1.2626  0.0806 -0.4506
   49SOL    HW2  147   2.142   0.019   2.508  1.3696  2.3384  1.9404
   50SOL     OW  148   1.913   0.387   0.060  0.0943 -0.2922  0.3690
   50SOL    HW1  149   1.948   0.464   0.115  0.5535 -3.8395 -2.2391
   50SOL    HW2  150   1.815   0.373   0.080 -0.7909  0.8816  1.0146
   51SOL     OW  151   1.973   0.846   0.578  0.0537  0.4583  0.0759
   51SOL    HW1  152   2.060   0.895   0.583 -1.5378 -2.8887  0.3705
   51SOL    HW2  153   1.945   0.807   0.667 -0.8576 -0.7072 -2.7485
   52SOL     OW  154   1.054   1.458   1.256  0.2172 -0.3706 -0.1073
   52SOL    HW1  155   1.110   1.369   1.261  2.1739 -4.5433 -1.3492
   52SOL    HW2  156   0.978   1.439   1.189 -1.4922 -1.4111  1.6812
   53SOL     OW  157   1.097   1.690   2.201 -0.7235 -0.2523  0.3839
   53SOL    HW1  158   1.005   1.661   2.179 -0.2412  1.1688 -1.4019
   53SOL    HW2  159   1.105   1.774   2.259  0.6456 -1.3358 -1.9168
   54SOL     OW  160   2.525   0.265   1.573 -0.7218 -0.2564  0.0692
   54SOL    HW1  161   2.603   0.234   1.634  1.6215  0.5220 -0.4671
   54SOL    HW2  162   2.538   0.273   1.470  1.4263  2.0856 -0.9054
   55SOL     OW  163   2.835   1.920   0.659 -0.2667 -0.1142 -0.0129
   55SOL    HW1  164   2.852   1.820   0.670 -0.7683 -1.0050 -3.1207
   55SOL    HW2  165   2.749   1.928   0.604  1.8397 -0.9700 -1.1089
   56SOL     OW  166   1.310   0.606   2.078  0.6690 -0.1067 -0.0480
   56SOL    HW1  167   1.240   0.624   2.151 -0.5591 -0.6777  1.1532
   56SOL    HW2  168   1.395   0.660   2.098  0.7721 -0.2118  1.4015
   57SOL     OW  169   1.509   1.312   0.034  0.1833 -0.7815  0.0694
   57SOL    HW1  170   1.500   1.220   0.069 -1.6124 -0.0105 -3.0876
   57SOL    HW2  171   1.599   1.355   0.032 -2.6470 -1.9547 -0.1058
   58SOL     OW  172   0.235   1.007   1.563  0.2091 -0.1932  0.3023
   58SOL    HW1  173   0.234   1.097   1.611 -0.5089  0.7803  0.0774
   58SOL    HW2  174   0.196   0.938   1.633 -0.4663 -1.8255  0.2845
   59SOL     OW  175   1.316   2.938   0.166  0.5820 -0.3503 -1.2100
   59SOL    HW1  176   1.320   2.955   0.067  1.1030 -0.7598  0.3684
   59SOL    HW2  177   1.354   3.027   0.206 -0.7101  0.3126  1.4572
   60SOL     OW  178   2.819   2.047   0.256 -0.0880  0.2631 -0.2878
   60SOL    HW1  179   2.717   2.027   0.243 -2.5983  1.2906 -1.2964
   60SOL    HW2  180   2.846   2.142   0.228 -2.5721 -0.9710  0.1038
   61SOL     OW  181   1.221   2.791   0.633  0.1847  0.5268 -0.3138
   61SOL    HW1  182   1.268   2.702   0.646  1.6595  2.1684 -1.3254
   61SOL    HW2  183   1.284   2.865   0.622 -0.2373 -2.6635  4.4989
   62SOL     OW  184   2.072   2.040   2.692  0.0201  0.0108  0.2007
   62SOL    HW1  185   2.018   1.977   2.633 -0.1008 -1.5679 -1.1890
   62SOL    HW2  186   2.125   2.106   2.633 -1.0059  1.9562 -4.7104
   63SOL     OW  187   2.492   2.432   0.442  0.3970 -0.4520  0.5275
   63SOL    HW1  188   2.428   2.509   0.432  1.3726 -2.8321 -1.5218
   63SOL    HW2  189   2.479   2.379   0.527 -0.5577  0.6233 -1.3309
   64SOL     OW  190   1.772   1.190   2.648 -0.0090  0.1850 -0.0584
   64SOL    HW1  191   1.706   1.255   2.690  0.6907 -0.2053 -1.5528
   64SOL    HW2  192   1.766   1.100   2.697 -0.8497 -0.0792 -0.8195
   65SOL     OW  193   1.526   1.788   2.781  0.4377 -0.5039  0.2321
   65SOL    HW1  194   1.501   1.775   2.877  2.3266 -0.2879 -4.2556
   65SOL    HW2  195   1.450   1.758   2.723  2.6816  1.6734  1.4797
   66SOL     OW  196   0.307   1.102   1.939 -0.3410  0.3849 -0.4500
   66SOL    HW1  197   0.390   1.057   1.982 -0.8490 -0.8491  1.3736
   66SOL    HW2  198   0.334   1.173   1.873  0.2697 -1.1883  1.7677
   67SOL     OW  199   2.286   2.974   2.735 -0.0177 -0.0232 -0.1878
   67SOL    HW1  200   2.281   2.948   2.831 -1.1947 -0.4588 -0.3986
   67SOL    HW2  201   2.364   3.039   2.711  0.8090 -0.1779  0.2368
   68SOL     OW  202   1.027   2.576   1.362 -0.5670  0.0018 -0.3783
   68SOL    HW1  203   1.011   2.479   1.376  3.8333 -3.7060 -1.6101
   68SOL    HW2  204   1.118   2.589   1.321  1.7747 -0.4160 -0.8605
   69SOL     OW  205   0.661   2.521   0.407  0.8317 -0.3147  0.0747
   69SOL    HW1  206   0.610   2.511   0.320  0.8990 -1.3357 -2.8625
   69SOL    HW2  207   0.631   2.610   0.451 -2.0957  2.5250 -0.4793
   70SOL     OW  208   2.499   0.377   2.570  0.0556 -0.1203  0.6146
   70SOL    HW1  209   2.427   0.438   2.609  0.2762  0.8826 -1.3026
   70SOL    HW2  210   2.505   0.390   2.468 -2.5526  3.0309  0.5062
   71SOL     OW  211   0.807   1.366   2.501 -0.2251  0.3178 -0.7576
   71SOL    HW1  212   0.811   1.464   2.467  1.4833 -0.0428 -0.5131
   71SOL    HW2  213   0.710   1.330   2.501 -1.5898 -0.8401 -0.3909
   72SOL     OW  214   3.006   1.908   0.113  0.2678 -0.5699 -0.6565
   72SOL    HW1  215   3.029   1.995   0.063  0.1985 -0.7231  1.4058
   72SOL    HW2  216   2.929   1.929   0.181 -0.7933  0.0474  0.4164
   73SOL     OW  217   1.253   1.210   0.399 -0.3090  0.3912 -0.3330
   73SOL    HW1  218   1.302   1.263   0.472  2.2836 -0.2718  0.6570
   73SOL    HW2  219   1.264   1.257   0.311  0.8150 -0.2659  0.2049
   74SOL     OW  220   2.228   2.708   2.626  0.3537 -0.3604  0.2045
   74SOL    HW1  221   2.168   2.653   2.688 -1.7329 -1.3241 -0.4837
   74SOL    HW2  222   2.254   2.796   2.665  3.4519  1.1417 -0.7703
   75SOL     OW  223   2.281   1.690   0.882 -0.2765 -0.3026  0.2703
   75SOL    HW1  224   2.314   1.674   0.980 -0.7813 -2.4209 -0.0534
   75SOL    HW2  225   2.361   1.708   0.817 -0.3507 -1.8246 -1.0194
   76SOL     OW  226   1.926   2.660   1.458 -0.1454  0.2550  0.4241
   76SOL    HW1  227   1.976   2.745   1.477 -0.6702  1.0001 -1.9943
   76SOL    HW2  228   1.904   2.612   1.541 -1.1039  3.6095 -2.8165
   77SOL     OW  229   2.374   0.231   1.975  0.2137 -0.2522 -0.0504
   77SOL    HW1  230   2.355   0.309   2.031  0.7546 -0.4903  0.4671
   77SOL    HW2  231   2.433   0.260   1.896 -0.5921 -0.1225  1.6326
   78SOL     OW  232   1.506   0.875   2.959  0.9385 -0.4767  0.0507
   78SOL    HW1  233   1.405   0.877   2.932  0.3857 -0.0928  2.1952
   78SOL    HW2  234   1.548   0.784   2.946  0.1209  0.2047  2.0102
   79SOL     OW  235   2.406   1.490   2.248 -0.4173 -0.0399 -0.2575
   79SOL    HW1  236   2.380   1.558   2.315 -0.1354  0.1066 -0.3374
   79SOL    HW2  237   2.487   1.438   2.273  0.0102 -0.8714  1.5699
   80SOL     OW  238   1.887   1.638   1.701  0.1339  0.1845  0.2911
   80SOL    HW1  239   1.893   1.567   1.776 -1.0120 -2.5518  2.8883
   80SOL    HW2  240   1.975   1.647   1.653 -1.0145 -0.2116 -1.4654
   81SOL     OW  241   1.415   0.533   1.391 -0.1910  0.2360 -0.8165
   81SOL    HW1  242   1.347   0.526   1.467 -0.7760 -0.8535 -0.0594
   81SOL    HW2  243   1.418   0.448   1.332 -0.3972 -2.0520 -2.0450
   82SOL     OW  244   1.600   2.442   1.682 -0.0870  0.0338 -0.2713
   82SOL    HW1  245   1.616   2.404   1.778  0.6545 -2.5856  1.9782
   82SOL    HW2  246   1.509   2.487   1.667  0.5931 -1.6697  1.8149
   83SOL     OW  247   0.187   0.248   0.642 -0.1350 -0.1523  0.1361
   83SOL    HW1  248   0.224   0.203   0.726 -1.7006 -0.6050  1.2651
   83SOL    HW2  249   0.090   0.278   0.659  1.3145 -0.0540  2.2633
   84SOL     OW  250   0.855   1.191   3.085  0.0205  0.4075  0.0805
   84SOL    HW1  251   0.829   1.178   0.097 -0.6544  1.5765  1.5874
   84SOL    HW2  252   0.936   1.253   3.073  2.1153 -0.3689 -0.4791
   85SOL     OW  253   2.685   1.879   1.635 -0.5079 -0.2199 -0.0048
   85SOL    HW1  254   2.624   1.799   1.619  1.9057  2.2074  0.4453
   85SOL    HW2  255   2.702   1.882   1.735 -0.3039  1.0897 -2.1806
   86SOL     OW  256   3.077   2.623   1.599 -0.0586  0.1806 -0.4906
   86SOL    HW1  257   0.086   2.627   1.562 -1.0170  0.2485  0.8616
   86SOL    HW2  258   3.024   2.555   1.547  1.1435 -1.3953  0.1290
   87SOL     OW  259   0.582   0.434   2.471  0.2984 -0.5269 -0.5490
   87SOL    HW1  260   0.611   0.409   2.378 -1.7802  0.7806  0.2599
   87SOL    HW2  261   0.567   0.349   2.526  1.5980  3.2969  0.8337
   88SOL     OW  262   0.561   2.312   0.971  0.0267  0.0879  0.0469
   88SOL    HW1  263   0.511   2.232   0.928 -2.1630 -0.9591 -1.2239
   88SOL    HW2  264   0.556   2.311   1.076 -2.0808 -2.7580  1.2762
   89SOL     OW  265   1.053   0.724   1.524  0.0766 -0.3577  0.0976
   89SOL    HW1  266   1.126   0.654   1.530  0.0277  3.0163  3.4300
   89SOL    HW2  267   0.961   0.695   1.563  1.7937  0.3289 -0.7694
   90SOL     OW  268   2.958   1.572   1.778  0.3558 -0.3130 -0.6977
   90SOL    HW1  269   2.896   1.641   1.824 -3.1442 -0.8322  0.0715
   90SOL    HW2  270   3.059   1.577   1.815  1.2746  0.0017  3.2556
   91SOL     OW  271   1.191   0.918   1.004 -0.1056  0.8958 -0.4785
   91SOL    HW1  272   1.161   0.825   1.046 -3.5704 -1.5950  0.1120
   91SOL    HW2  273   1.143   0.943   0.917  0.9003 -3.3081  1.3791
   92SOL     OW  274   2.466   0.710   0.851  0.2238 -0.1277  0.0205
   92SOL    HW1  275   2.410   0.664   0.921  1.1639  4.1967 -3.2990
   92SOL    HW2  276   2.417   0.784   0.802  0.8643 -1.2471 -0.6669
   93SOL     OW  277   2.014   0.927   2.685 -0.2546  0.3205  0.6489
   93SOL    HW1  278   1.982   0.829   2.691 -0.6853 -3.6908 -0.9625
   93SOL    HW2  279   2.002   0.968   2.591 -0.5622  2.1340 -0.1618
   94SOL     OW  280   2.292   1.713   2.373  0.1720 -0.5479 -0.2320
   94SOL    HW1  281   2.290   1.796   2.310 -0.9516  3.0327 -2.8866
   94SOL    HW2  282   2.354   1.727   2.453 -1.4730  2.4828 -3.0511
   95SOL     OW  283   2.053   0.475   1.062  1.1122 -0.1551  0.4117
   95SOL    HW1  284   2.007   0.554   1.110 -1.3593  3.1572  1.7954
   95SOL    HW2  285   2.054   0.394   1.128  2.6603 -1.9457  0.3157
   96SOL     OW  286   2.413   0.005   2.130 -0.4090 -0.2024  0.1158
   96SOL    HW1  287   2.383   3.011   2.082 -0.2717 -0.9820  1.5081
   96SOL    HW2  288   2.401   0.086   2.068 -0.5007  0.6990 -0.0715
   97SOL     OW  289   2.510   0.648   1.293  0.6059  0.0696 -0.2905
   97SOL    HW1  290   2.510   0.748   1.292  0.1331 -0.0769  0.9369
   97SOL    HW2  291   2.430   0.613   1.341  0.8298 -0.8861  1.0012
   98SOL     OW  292   1.403   2.211   1.568  0.3541 -0.1694 -0.0941
   98SOL    HW1  293   1.446   2.118   1.567  2.7565 -1.5011  0.4599
   98SOL    HW2  294   1.475   2.273   1.528 -0.9741  0.2647  2.5341
   99SOL     OW  295   2.318   2.116   1.695  0.7657  0.1386  0.4499
   99SOL    HW1  296   2.420   2.131   1.689  0.9303 -2.0069  2.2096
   99SOL    HW2  297   2.292   2.080   1.604  2.4646 -0.4698  2.2281
  100SOL     OW  298   0.780   0.698   2.983 -0.7280  0.7050  0.3739
  100SOL    HW1  299   0.681   0.687   2.999  0.2568 -0.9890 -1.3907
  100SOL    HW2  300   0.809   0.785   3.025  0.1285  0.0828 -0.5178
  101SOL     OW  301   2.230   0.404   2.939  0.0403  0.5500  0.1622
  101SOL    HW1  302   2.144   0.348   2.918 -1.7263  0.7574 -0.3559
  101SOL    HW2  303   2.231   0.465   3.020 -1.9278 -0.9704 -2.5341
  102SOL     OW  304   0.484   0.797   1.689  0.3914 -0.5825 -0.0804
  102SOL    HW1  305   0.480   0.816   1.791  2.4993 -0.1326 -1.7634
  102SOL    HW2  306   0.465   0.888   1.647 -0.0653 -0.7313 -1.0842
  103SOL     OW  307   3.084   0.530   2.998 -0.5702 -0.5354 -0.2909
  103SOL    HW1  308   0.096   0.535   3.028 -1.9342  1.1992 -2.3794
  103SOL    HW2  309   0.002   0.516   2.899  1.6135 -1.9229  0.5272
  104SOL     OW  310   0.626   0.569   2.724  0.0279  0.2594  0.1356
  104SOL    HW1  311   0.720   0.592   2.754 -0.5511 -1.1693  2.5777
  104SOL    HW2  312   0.630   0.531   2.631 -1.0910  0.6622 -0.4632
  105SOL     OW  313   2.171   1.888   1.796 -0.0822 -0.0085  0.1502
  105SOL    HW1  314   2.071   1.911   1.812  0.5995 -2.2262 -0.7755
  105SOL    HW2  315   2.233   1.966   1.784 -1.3144 -4.4516 -0.1884
  106SOL     OW  316   1.959   0.599   0.228  0.1699 -0.2352  0.4356
  106SOL    HW1  317   1.956   0.599   0.330  2.4500 -0.8336 -1.4816
  106SOL    HW2  318   1.902   0.678   0.197 -2.5341  1.8544 -0.4868
  107SOL     OW  319   0.064   1.716   0.797 -0.1914  0.0616 -0.2230
  107SOL    HW1  320   0.024   1.742   0.893 -0.2075  1.5452  4.7953
  107SOL    HW2  321   0.128   1.788   0.766  1.2440 -1.3838  0.8586
  108SOL     OW  322   2.692   2.726   1.707 -0.0343  0.2535 -0.0732
  108SOL    HW1  323   2.675   2.826   1.693 -1.2047 -0.2380 -1.9441
  108SOL    HW2  324   2.786   2.708   1.737 -2.5925  2.2491  1.0905
  109SOL     OW  325   1.901   2.973   1.037  0.5578  0.2732  0.3682
  109SOL    HW1  326   1.832   2.925   0.978  1.9351 -0.2264 -0.7830
  109SOL    HW2  327   1.997   2.978   0.997  0.6072 -0.6813  1.4356
  110SOL     OW  328   0.689   2.154   2.665 -0.0012 -0.8392 -0.4007
  110SOL    HW1  329   0.655   2.072   2.614  1.4452 -1.6381 -0.1233
  110SOL    HW2  330   0.733   2.231   2.614  0.1024 -1.7008  0.4258
  111SOL     OW  331   1.520   2.440   2.121  0.5630  0.3319  0.1559
  111SOL    HW1  332   1.447   2.505   2.085  2.1776  0.7655 -0.7169
  111SOL    HW2  333   1.608   2.485   2.122 -2.3400  1.3978  0.7801
  112SOL     OW  334   2.132   2.361   3.024 -0.2724  0.0599  0.0305
  112SOL    HW1  335   2.163   2.449   3.059 -0.2402 -0.9500  1.0748
  112SOL    HW2  336   2.087   2.302   0.005 -2.0560  1.9971 -0.2943
  113SOL     OW  337   1.511   1.999   1.239 -0.5020 -0.0549 -0.3167
  113SOL    HW1  338   1.602   2.008   1.277 -0.9953 -1.1430  0.6510
  113SOL    HW2  339   1.468   1.912   1.270  2.2474  2.1943 -0.6441
  114SOL     OW  340   2.922   1.103   0.676  0.9942  0.0636  0.1338
  114SOL    HW1  341   2.828   1.098   0.635 -1.9894  0.6921  0.8640
  114SOL    HW2  342   2.904   1.080   0.771 -0.5605  3.5822  0.9212
  115SOL     OW  343   0.811   0.902   0.061  0.0134  0.0528  0.1144
  115SOL    HW1  344   0.838   0.997   0.080 -1.1851 -1.5156 -2.9523
  115SOL    HW2  345   0.732   0.871   0.120  0.7922 -1.1681  2.0437
  116SOL     OW  346   2.568   1.308   2.400 -0.2387  0.2723 -0.2379
  116SOL    HW1  347   2.567   1.288   2.503  0.2199  0.1018  0.2462
  116SOL    HW2  348   2.576   1.216   2.355 -2.8299  0.5317 -0.3066
  117SOL     OW  349   0.170   2.918   0.847 -0.0811 -0.1163  0.6900
  117SOL    HW1  350   0.164   2.842   0.912 -0.3998  2.6104 -1.6706
  117SOL    HW2  351   0.160   2.882   0.751 -0.9565  0.8693  1.3633
  118SOL     OW  352   1.134   1.902   2.405  0.2331 -0.1414  0.1901
  118SOL    HW1  353   1.189   1.980   2.364 -1.2983  1.3145  1.3418
  118SOL    HW2  354   1.117   1.912   2.506 -1.8269  0.7744 -0.7467
  119SOL     OW  355   0.345   2.455   2.799  0.1270  0.0256  0.3658
  119SOL    HW1  356   0.342   2.357   2.826 -1.3316 -0.5828  0.6999
  119SOL    HW2  357   0.272   2.513   2.845  0.8431  0.6916 -0.0173
  120SOL     OW  358   1.293   0.606   3.027 -0.3464  0.1310 -0.4657
  120SOL    HW1  359   1.269   0.689   2.973 -1.0396  2.2368  0.7607
  120SOL    HW2  360   1.213   0.545   3.036  0.9046 -0.9431 -0.0936
  121SOL     OW  361   1.342   2.775   1.078 -0.0187  0.0365 -0.0784
  121SOL    HW1  362   1.426   2.716   1.067  0.5003 -0.7523 -1.7337
  121SOL    HW2  363   1.353   2.855   1.138  0.0256 -1.6732 -2.1905
  122SOL     OW  364   2.569   2.554   1.549 -0.2518 -0.2830  0.1151
  122SOL    HW1  365   2.634   2.622   1.598  2.1380 -0.9779  0.6013
  122SOL    HW2  366   2.507   2.605   1.484  1.7433  0.3372  1.2820
  123SOL     OW  367   0.556   2.351   0.572 -0.4516  0.3030 -0.0496
  123SOL    HW1  368   0.589   2.419   0.504 -0.0182  0.6787  0.8219
  123SOL    HW2  369   0.504   2.406   0.643  0.1495 -0.6862  1.0211
  124SOL     OW  370   2.395   0.627   0.229  0.2121  0.2830  0.1451
  124SOL    HW1  371   2.328   0.591   0.160 -1.7959  0.4234 -3.0786
  124SOL    HW2  372   2.488   0.628   0.183  0.4145 -0.4406 -0.5205
  125SOL     OW  373   0.435   1.109   0.304  0.1042 -0.6837  0.1081
  125SOL    HW1  374   0.441   1.069   0.399 -1.4693  1.8900 -0.7185
  125SOL    HW2  375   0.532   1.127   0.274 -1.3901  1.5599 -1.5244
  126SOL     OW  376   0.222   1.475   0.831  0.6448 -0.4108 -0.4302
  126SOL    HW1  377   0.163   1.394   0.857 -0.2903  0.5818 -0.6831
  126SOL    HW2  378   0.165   1.558   0.813  0.4217  1.4470  0.8046
  127SOL     OW  379   0.871   1.939   2.244  0.4196  0.4090 -0.1768
  127SOL    HW1  380   0.935   1.961   2.169  0.1038  0.5334  1.5638
  127SOL    HW2  381   0.933   1.926   2.327  0.1544  1.9281  0.3777
  128SOL     OW  382   0.985   0.948   2.939 -0.0415  0.3468 -0.2176
  128SOL    HW1  383   0.959   0.995   2.850  0.3121 -0.7846  0.2755
  128SOL    HW2  384   0.921   0.943   3.020  0.7885 -0.3637  2.3294
  129SOL     OW  385   2.479   1.451   0.657 -0.0685  0.1625  0.1318
  129SOL    HW1  386   2.380   1.439   0.656  1.2476  0.1440  0.1569
  129SOL    HW2  387   2.491   1.546   0.622 -0.0085 -0.5544  1.1375
  130SOL     OW  388   2.309   1.428   1.450  0.6933 -0.4891  0.1834
  130SOL    HW1  389   2.346   1.523   1.436  0.6442  2.3159 -0.1314
  130SOL    HW2  390   2.385   1.372   1.485 -0.9662  0.9756  1.7230
  131SOL     OW  391   0.105   2.815   0.018 -0.3761  0.4197  0.5657
  131SOL    HW1  392   0.038   2.852   3.036 -0.3645 -2.5912  0.0690
  131SOL    HW2  393   0.085   2.848   0.110 -0.3221  0.1214 -1.8878
  132SOL     OW  394   0.472   1.769   0.772 -0.1254 -0.0130 -0.4302
  132SOL    HW1  395   0.567   1.757   0.737 -1.4052 -0.8044  1.4954
  132SOL    HW2  396   0.415   1.811   0.699 -0.0632  0.0330 -0.1462
  133SOL     OW  397   0.980   0.347   1.322 -0.0702  0.3040  0.6357
  133SOL    HW1  398   1.019   0.353   1.419  0.0666  2.4928 -0.0128
  133SOL    HW2  399   1.064   0.346   1.261  0.5362 -1.1925  0.4960
  134SOL     OW  400   0.100   1.721   0.110 -0.3474 -0.5353  0.5941
  134SOL    HW1  401   0.075   1.649   0.044 -2.9523 -1.0300 -0.0850
  134SOL    HW2  402   0.026   1.789   0.115  2.4796 -3.0442  1.2787
  135SOL     OW  403   1.832   0.678   1.561 -0.5446  0.5641  0.0337
  135SOL    HW1  404   1.866   0.747   1.494  0.9939 -1.2664  0.2441
  135SOL    HW2  405   1.786   0.600   1.510  0.8598 -1.3084 -4.1439
  136SOL     OW  406   0.015   1.287   0.266  0.1720  0.4717  0.1683
  136SOL    HW1  407   3.052   1.347   0.332 -0.2382 -4.4778  0.4041
  136SOL    HW2  408   0.080   1.230   0.323 -1.2397 -0.9336 -0.7684
  137SOL     OW  409   0.090   1.260   0.968  0.2967 -0.3182  0.1036
  137SOL    HW1  410   0.122   1.170   0.931 -2.0377  1.4919 -0.9568
  137SOL    HW2  411   3.077   1.255   0.985 -0.3457  2.0074 -2.5203
  138SOL     OW  412   1.861   0.697   0.798 -0.1624  0.2820  0.1065
  138SOL    HW1  413   1.838   0.601   0.830 -0.5987 -1.1691  2.1720
  138SOL    HW2  414   1.935   0.735   0.856  0.8165  2.7363 -0.5933
  139SOL     OW  415   1.749   2.810   0.269  0.1939  0.5079  0.2381
  139SOL    HW1  416   1.646   2.814   0.263  0.6032 -0.0652  1.2603
  139SOL    HW2  417   1.778   2.748   0.346  0.4370 -1.3867 -0.1825
  140SOL     OW  418   1.165   1.715   1.572  0.5422 -0.1546  0.8064
  140SOL    HW1  419   1.115   1.752   1.651 -1.6518  0.6003 -1.1489
  140SOL    HW2  420   1.221   1.635   1.590 -2.5341  2.9638  0.6046
  141SOL     OW  421   1.688   1.973   0.513  0.1674  0.0037 -0.2152
  141SOL    HW1  422   1.736   1.958   0.426  1.3132  0.5818  2.1085
  141SOL    HW2  423   1.741   1.926   0.590  2.5143  0.1211  2.7158
  142SOL     OW  424   1.121   0.396   3.075 -0.3661 -0.4822 -0.0803
  142SOL    HW1  425   1.155   0.301   0.010  0.5311 -0.5437 -0.5085
  142SOL    HW2  426   1.029   0.412   0.033  1.1749 -0.0065 -1.1713
  143SOL     OW  427   0.312   2.136   0.055 -0.0506  0.8762  0.4403
  143SOL    HW1  428   0.272   2.127   3.046 -1.8972  1.8176 -3.0808
  143SOL    HW2  429   0.389   2.205   0.060  0.2582 -1.8905 -0.5594
  144SOL     OW  430   1.421   2.962   1.251 -0.1830  0.5344 -0.3749
  144SOL    HW1  431   1.415   3.012   1.339  1.0759  0.1037  0.2954
  144SOL    HW2  432   1.522   2.950   1.232  3.3894 -2.2373  2.5948
  145SOL     OW  433   2.069   1.287   0.108 -0.1487 -0.7235  0.2131
  145SOL    HW1  434   2.075   1.192   0.146 -1.8224  0.7023  1.1261
  145SOL    HW2  435   1.970   1.323   0.125 -1.2347  2.1018  2.7790
  146SOL     OW  436   0.107   2.276   0.843 -0.0761  0.2992  0.2846
  146SOL    HW1  437   0.057   2.280   0.756 -0.2831 -0.4017  2.1246
  146SOL    HW2  438   0.049   2.289   0.923  2.5741  1.0106 -1.6956
  147SOL     OW  439   2.336   2.947   1.701  0.6821 -0.0407  0.6236
  147SOL    HW1  440   2.321   2.844   1.684 -0.9929 -4.7994  1.2530
  147SOL    HW2  441   2.434   2.967   1.727 -1.3306 -0.4948  4.0313
  148SOL     OW  442   1.273   2.851   1.912 -0.2625  0.1996  0.1414
  148SOL    HW1  443   1.257   2.920   1.838 -2.3909 -0.0184 -0.9914
  148SOL    HW2  444   1.184   2.823   1.954 -0.6568 -1.8174  2.7217
  149SOL     OW  445   1.826   0.254   2.312  0.0797 -0.3584  0.3767
  149SOL    HW1  446   1.731   0.291   2.318  1.5877 -0.2244 -0.8891
  149SOL    HW2  447   1.895   0.325   2.286  1.3118  4.1726  1.6969
  150SOL     OW  448   0.060   2.900   0.269  0.0251 -0.0358  0.4733
  150SOL    HW1  449   0.011   2.990   0.244 -2.9291  1.5451  0.3499
  150SOL    HW2  450   0.039   2.879   0.367 -1.1301 -1.1077 -0.2699
  151SOL     OW  451   0.526   2.284   0.083 -0.2625 -0.1221 -0.5519
  151SOL    HW1  452   0.520   2.355   0.153 -2.3431 -3.0489 -0.7612
  151SOL    HW2  453   0.573   2.200   0.111 -1.6641  0.5984 -2.1332
  152SOL     OW  454   2.967   3.003   0.666 -0.1611 -0.5048 -0.3966
  152SOL    HW1  455   3.009   0.004   0.704  0.4248  1.3937  0.8813
  152SOL    HW2  456   2.923   2.954   0.741  1.2552  1.4761  1.7501
  153SOL     OW  457   2.465   0.269   1.110 -0.1758  0.1584 -0.6048
  153SOL    HW1  458   2.413   0.180   1.102 -1.5504  2.6330 -0.8791
  153SOL    HW2  459   2.440   0.330   1.033  0.0210 -1.8843  1.8832
  154SOL     OW  460   0.733   0.279   2.240 -0.5459 -0.1183 -0.2067
  154SOL    HW1  461   0.807   0.261   2.313  1.4944  1.6577  1.2144
  154SOL    HW2  462   0.769   0.352   2.176 -0.1058  2.3360 -0.0596
  155SOL     OW  463   0.179   1.343   1.252  0.5955  0.4968 -0.5987
  155SOL    HW1  464   0.262   1.400   1.265 -0.8672  1.9933 -0.3065
  155SOL    HW2  465   0.142   1.342   1.158 -0.4916 -0.2594 -2.7552
  156SOL     OW  466   2.479   2.041   2.974 -0.0874 -0.7285  0.3701
  156SOL    HW1  467   2.467   2.009   3.068  1.3415 -2.4029  0.1273
  156SOL    HW2  468   2.388   2.044   2.927 -3.3241  0.4712  1.3226
  157SOL     OW  469   0.879   0.489   0.067 -0.2056 -0.0430  0.7186
  157SOL    HW1  470   0.826   0.508   0.153 -1.7476 -1.9704  1.3487
  157SOL    HW2  471   0.866   0.562   3.085  1.7233 -2.2616  0.9384
  158SOL     OW  472   2.483   0.087   2.662 -0.6410 -0.0054 -0.7345
  158SOL    HW1  473   2.485   0.049   2.567  1.7795  3.4105  2.4392
  158SOL    HW2  474   2.459   0.181   2.660 -1.1197 -3.4131 -1.2309
  159SOL     OW  475   0.599   0.243   0.645 -0.0418 -0.6454  0.9122
  159SOL    HW1  476   0.507   0.283   0.616 -0.4596 -0.2054  1.4713
  159SOL    HW2  477   0.593   0.181   0.728 -0.2012 -1.8932  0.4464
  160SOL     OW  478   1.326   1.721   2.617  0.5231 -0.3401  0.3863
  160SOL    HW1  479   1.231   1.756   2.650 -0.5562 -1.4780  4.0827
  160SOL    HW2  480   1.327   1.669   2.528  0.9598 -1.7667 -0.3144
  161SOL     OW  481   0.047   1.274   2.678  0.0642 -0.3103  0.0180
  161SOL    HW1  482   3.086   1.320   2.600  1.1012  0.2897 -3.4657
  161SOL    HW2  483   0.008   1.298   2.770  0.3166  2.5641  2.3853
  162SOL     OW  484   0.598   2.430   1.429  0.6792  0.0576  0.2044
  162SOL    HW1  485   0.584   2.423   1.529 -4.0813  1.3333  0.5272
  162SOL    HW2  486   0.530   2.371   1.379  0.3819  1.4145  0.0565
  163SOL     OW  487   2.260   0.280   2.300 -0.2424 -0.5168 -0.0170
  163SOL    HW1  488   2.233   0.190   2.333  1.6319  1.3897  0.1901
  163SOL    HW2  489   2.185   0.332   2.257 -1.5497 -2.4884 -0.5961
  164SOL     OW  490   2.311   1.366   0.303 -0.0709  0.1215 -0.7058
  164SOL    HW1  491   2.217   1.376   0.261 -1.9817  0.3364  0.4589
  164SOL    HW2  492   2.353   1.455   0.331 -0.2194 -0.7593  0.2935
  165SOL     OW  493   0.220   0.341   1.482 -0.2485 -0.0759 -0.3278
  165SOL    HW1  494   0.242   0.326   1.582  0.1871  1.3466 -2.3134
  165SOL    HW2  495   0.298   0.320   1.418  0.9101  1.3711  0.5872
  166SOL     OW  496   2.077   1.049   0.281 -0.2231  0.6410  0.5770
  166SOL    HW1  497   1.984   1.002   0.287 -0.0992 -0.9892  1.2828
  166SOL    HW2  498   2.156   0.991   0.283 -2.9312  4.3863  1.7841
  167SOL     OW  499   2.780   0.682   0.527 -0.5702 -0.1191 -0.5330
  167SOL    HW1  500   2.776   0.584   0.503 -1.9132 -0.1358  1.7141
  167SOL    HW2  501   2.839   0.702   0.608 -1.1985  1.5246 -2.1637
  168SOL     OW  502   1.628   2.663   2.416 -0.3901  0.2186  0.5725
  168SOL    HW1  503   1.571   2.740   2.377 -0.6012  1.7069  1.0307
  168SOL    HW2  504   1.570   2.605   2.480  1.3068 -0.8652  1.8653
  169SOL     OW  505   0.892   1.460   0.576  0.1561  0.0209  0.2443
  169SOL    HW1  506   0.967   1.389   0.573  1.0272 -1.0066 -2.5077
  169SOL    HW2  507   0.813   1.414   0.529 -0.4662  0.9160 -2.9955
  170SOL     OW  508   0.009   0.468   1.098  0.0156 -0.5237  0.3826
  170SOL    HW1  509   0.101   0.433   1.077 -2.2506 -1.1331  1.1877
  170SOL    HW2  510   3.046   0.498   1.010  2.9730 -1.4179 -1.7901
  171SOL     OW  511   1.328   2.210   2.777 -0.4172  0.2728  0.5923
  171SOL    HW1  512   1.254   2.149   2.818  1.6877  1.3360 -0.7728
  171SOL    HW2  513   1.357   2.281   2.845  0.2634  1.2206  0.8838
  172SOL     OW  514   2.966   2.800   1.385 -0.7515  0.2406  0.6273
  172SOL    HW1  515   2.979   2.902   1.396 -2.8278 -0.2158  0.9104
  172SOL    HW2  516   3.019   2.756   1.463 -0.6390  1.1980  1.0001
  173SOL     OW  517   1.585   0.733   2.642 -0.4459 -0.1373 -0.0298
  173SOL    HW1  518   1.631   0.692   2.725 -0.0949 -0.6730  0.3814
  173SOL    HW2  519   1.626   0.698   2.553  0.3215 -1.8498 -0.2037
  174SOL     OW  520   1.567   2.927   2.801  0.4103 -0.1091  0.6520
  174SOL    HW1  521   1.570   2.900   2.704  0.0080 -0.2112  1.0950
  174SOL    HW2  522   1.496   2.997   2.806  0.4668 -0.6475  0.3339
  175SOL     OW  523   1.988   2.329   0.512 -0.2601  0.1966  0.0780
  175SOL    HW1  524   2.013   2.249   0.573  3.0682 -1.7097  0.9567
  175SOL    HW2  525   2.040   2.413   0.549 -2.8186  3.4251 -1.7715
  176SOL     OW  526   1.535   0.155   2.870  0.4213 -0.4579 -0.2644
  176SOL    HW1  527   1.511   0.255   2.890 -0.9775  0.6610  0.3331
  176SOL    HW2  528   1.628   0.141   2.842 -0.1364  0.5617  0.3308
  177SOL     OW  529   1.094   1.753   0.500 -0.1298 -0.0136 -0.4015
  177SOL    HW1  530   1.124   1.830   0.440 -0.5906  0.4314  2.1422
  177SOL    HW2  531   1.033   1.690   0.446 -0.4355  0.3394  0.3470
  178SOL     OW  532   2.478   2.293   3.044  0.5879  0.1364  0.5744
  178SOL    HW1  533   2.514   2.210   3.000 -2.1014  0.7717 -1.4660
  178SOL    HW2  534   2.491   2.286   0.060  1.4579 -0.5641 -0.8416
  179SOL     OW  535   0.120   2.787   2.706 -0.3291  0.5792 -0.0206
  179SOL    HW1  536   0.024   2.782   2.662  0.4837  0.7252 -0.5396
  179SOL    HW2  537   0.169   2.856   2.647 -0.3120  0.7721 -1.4101
  180SOL     OW  538   1.748   1.279   0.829 -0.0721  0.1925 -0.8724
  180SOL    HW1  539   1.792   1.347   0.896 -0.2076 -1.8523 -0.2641
  180SOL    HW2  540   1.655   1.300   0.815  2.7951 -2.5444  4.7036
  181SOL     OW  541   1.850   0.938   1.977 -0.4816 -0.1559  0.5440
  181SOL    HW1  542   1.819   0.974   2.067  2.6819 -0.8270 -1.8835
  181SOL    HW2  543   1.770   0.904   1.925  1.6989  0.7358 -0.3484
  182SOL     OW  544   2.753   3.004   2.405  0.0591  0.0128  0.0238
  182SOL    HW1  545   2.811   3.036   2.485  0.1261  0.9839 -0.4022
  182SOL    HW2  546   2.759   2.905   2.377  1.4525 -2.4340 -0.6714
  183SOL     OW  547   1.566   0.711   2.069 -0.8061  0.0628  0.0279
  183SOL    HW1  548   1.577   0.780   1.995 -2.1296 -0.9204 -0.9669
  183SOL    HW2  549   1.620   0.625   2.049 -1.2885 -2.9188  1.4924
  184SOL     OW  550   0.190   1.055   1.310 -0.4267 -0.3460 -0.0068
  184SOL    HW1  551   0.196   1.153   1.286 -0.2942 -1.5041 -0.7559
  184SOL    HW2  552   0.217   1.029   1.408 -0.0236 -2.1003  1.4134
  185SOL     OW  553   1.843   0.561   0.512 -0.0412  0.0203  0.0339
  185SOL    HW1  554   1.789   0.484   0.555 -2.1891 -3.1127  0.7950
  185SOL    HW2  555   1.786   0.636   0.474  0.0486  1.4709  0.5618
  186SOL     OW  556   0.546   2.617   3.021  0.3367 -0.2314  0.1292
  186SOL    HW1  557   0.475   2.693   3.029  0.6836 -0.6120  0.3877
  186SOL    HW2  558   0.559   2.597   2.923  0.3194  1.4104  1.7472
  187SOL     OW  559   2.484   0.831   2.902  0.5752  0.1037  0.3789
  187SOL    HW1  560   2.391   0.864   2.934 -4.0557  2.4038  0.9401
  187SOL    HW2  561   2.541   0.819   2.983  1.1476  1.7966  3.2074
  188SOL     OW  562   2.935   1.520   1.515 -0.3156 -0.0930  0.4098
  188SOL    HW1  563   3.000   1.442   1.492  1.8475 -1.1342  0.8143
  188SOL    HW2  564   2.949   1.553   1.612 -0.3764 -0.9624 -0.6665
  189SOL     OW  565   2.562   0.244   0.155 -0.2699  0.6117  0.1105
  189SOL    HW1  566   2.645   0.193   0.181 -1.2254  1.2018  2.3673
  189SOL    HW2  567   2.585   0.333   0.108  1.2794 -0.2769  0.4848
  190SOL     OW  568   1.290   1.258   1.954 -0.5444  0.0922 -0.0194
  190SOL    HW1  569   1.377   1.310   1.974  2.7264  0.9654 -0.6755
  190SOL    HW2  570   1.259   1.213   2.041  0.6907 -1.8605 -1.8954
  191SOL     OW  571   2.841   0.576   1.643 -0.2733  0.3513 -0.6672
  191SOL    HW1  572   2.743   0.560   1.664 -0.1949 -0.6413 -0.9193
  191SOL    HW2  573   2.865   0.670   1.668 -0.7520 -0.1875  2.0183
  192SOL     OW  574   2.086   1.362   1.302  0.3919  0.3806 -0.7629
  192SOL    HW1  575   2.005   1.343   1.354  0.8942 -1.7766  0.1881
  192SOL    HW2  576   2.166   1.380   1.367  0.9684  0.7696  2.1566
  193SOL     OW  577   1.159   0.699   1.150 -0.1731 -0.1431 -0.5304
  193SOL    HW1  578   1.114   0.749   1.228 -1.5385 -0.0498 -1.7523
  193SOL    HW2  579   1.183   0.604   1.171 -1.2456  0.9788  1.5453
  194SOL     OW  580   1.140   2.504   1.740  0.5736 -0.0521  0.2078
  194SOL    HW1  581   1.207   2.565   1.694 -3.5047 -0.6638 -1.1956
  194SOL    HW2  582   1.044   2.526   1.715 -2.1135  0.0296  1.2203
  195SOL     OW  583   1.801   0.194   2.789 -0.1373 -0.1656 -0.1756
  195SOL    HW1  584   1.833   0.241   2.702 -1.6041 -0.6675  0.3204
  195SOL    HW2  585   1.874   0.190   2.865 -0.8351 -1.4031 -1.1447
  196SOL     OW  586   1.060   2.314   1.904  0.6418  0.1737 -0.2041
  196SOL    HW1  587   0.964   2.324   1.878  2.3911  0.7223 -0.2379
  196SOL    HW2  588   1.112   2.396   1.880  0.0108 -0.8726  0.8824
  197SOL     OW  589   1.093   2.836   1.007 -0.0621  0.0406 -0.3510
  197SOL    HW1  590   1.085   2.866   0.906  2.5906  3.1780 -3.1587
  197SOL    HW2  591   1.185   2.800   1.022 -1.3254  1.4073  2.5842
  198SOL     OW  592   0.966   0.780   0.756 -0.4900 -0.2227  0.2844
  198SOL    HW1  593   0.956   0.727   0.842  0.5515  0.2854 -0.0299
  198SOL    HW2  594   0.881   0.794   0.707  4.9541  1.5391  1.2918
  199SOL     OW  595   2.957   2.684   1.840  0.5316 -0.2255  0.2504
  199SOL    HW1  596   2.990   2.654   1.750  0.5708  0.4200 -1.0237
  199SOL    HW2  597   2.945   2.784   1.832 -1.0357 -2.1134  2.1211
  200SOL     OW  598   2.018   2.110   2.314  0.3118  0.7523  0.0401
  200SOL    HW1  599   2.021   2.016   2.349 -0.6671  1.9212  3.6032
  200SOL    HW2  600   2.000   2.109   2.210  0.4982 -0.5441 -3.7934
  201SOL     OW  601   0.087   1.913   1.859  0.1155  0.0038 -0.9707
  201SOL    HW1  602   0.121   1.816   1.859 -1.9610 -1.5090 -0.7647
  201SOL    HW2  603   0.065   1.927   1.763  2.1631  0.2032  0.5059
  202SOL     OW  604   2.614   0.201   0.465 -0.5506  0.3219 -0.0173
  202SOL    HW1  605   2.519   0.234   0.451  2.2684 -0.5875  0.0664
  202SOL    HW2  606   2.611   0.106   0.500  0.2624 -2.0809  0.6359
  203SOL     OW  607   1.209   2.271   2.121  0.4245 -0.4108 -0.3820
  203SOL    HW1  608   1.256   2.353   2.162  0.8937 -1.5824 -2.1374
  203SOL    HW2  609   1.153   2.310   2.046  1.4941  1.0449 -0.3991
  204SOL     OW  610   1.214   2.128   1.768  0.2775 -0.0492 -0.1682
  204SOL    HW1  611   1.245   2.128   1.670 -0.8161  0.9336 -0.3822
  204SOL    HW2  612   1.160   2.207   1.794 -0.8053 -0.3076  0.9257
  205SOL     OW  613   1.365   1.551   1.692  0.0440  0.2926 -0.1229
  205SOL    HW1  614   1.386   1.499   1.604  1.6164 -1.3542  0.4052
  205SOL    HW2  615   1.452   1.594   1.723  0.5724  2.3474  2.2133
  206SOL     OW  616   0.289   0.944   2.465  0.4652 -0.2524  0.4000
  206SOL    HW1  617   0.328   0.995   2.539 -0.4356 -2.7808 -0.6810
  206SOL    HW2  618   0.291   0.992   2.377  3.7294  0.3757  1.6677
  207SOL     OW  619   1.169   2.992   1.688  0.3440 -0.4243 -0.0181
  207SOL    HW1  620   1.152   3.075   1.743 -3.1320  0.5185 -1.5997
  207SOL    HW2  621   1.114   2.983   1.604  0.6469  0.6929 -0.0359
  208SOL     OW  622   0.468   2.704   1.764  0.2290  0.5873 -0.2730
  208SOL    HW1  623   0.522   2.788   1.794  0.2494  2.0420 -0.4483
  208SOL    HW2  624   0.399   2.668   1.833 -4.1776 -1.5357 -1.2401
  209SOL     OW  625   1.366   0.587   0.193  0.1924 -0.5199  0.1742
  209SOL    HW1  626   1.466   0.605   0.190 -0.0854 -0.2080 -2.0186
  209SOL    HW2  627   1.333   0.600   0.099 -0.7340  1.2836  0.8458
  210SOL     OW  628   2.834   0.275   0.646  0.1439  0.3367  0.6761
  210SOL    HW1  629   2.883   0.217   0.580 -0.0761  3.2539  0.7899
  210SOL    HW2  630   2.790   0.354   0.594 -1.4735 -0.3218  0.0041
  211SOL     OW  631   0.544   0.546   1.294 -0.4320 -0.5538  0.2805
  211SOL    HW1  632   0.463   0.586   1.249  0.5431 -1.1239  2.0618
  211SOL    HW2  633   0.608   0.617   1.333 -0.8390 -1.1373 -1.4045
  212SOL     OW  634   1.155   1.863   1.119  0.4320  0.0816 -0.0143
  212SOL    HW1  635   1.205   1.776   1.090 -1.2153  0.8212  1.6366
  212SOL    HW2  636   1.135   1.857   1.218  1.5551 -1.4168 -2.1161
  213SOL     OW  637   2.118   0.184   1.889 -0.5979 -0.3861 -0.3273
  213SOL    HW1  638   2.108   0.084   1.857 -2.2646 -3.0408 -1.5914
  213SOL    HW2  639   2.211   0.185   1.940  0.3734 -1.2482 -0.0148
  214SOL     OW  640   0.900   2.417   2.260 -0.1819  0.1918  0.1596
  214SOL    HW1  641   0.838   2.491   2.292 -0.6467 -0.7615  0.6300
  214SOL    HW2  642   0.843   2.332   2.240 -0.0006 -2.4467  1.3074
  215SOL     OW  643   2.501   1.657   1.637 -0.2524  0.6150 -0.0610
  215SOL    HW1  644   2.426   1.655   1.709 -0.8056  0.6341  0.2484
  215SOL    HW2  645   2.552   1.564   1.634  0.1569 -2.1788 -1.2379
  216SOL     OW  646   0.490   0.997   1.374 -0.2678 -0.1773  0.7031
  216SOL    HW1  647   0.518   1.086   1.411  1.9165 -1.7730  0.2279
  216SOL    HW2  648   0.396   0.967   1.395  1.9595  0.2378  0.4994
  217SOL     OW  649   3.047   0.336   0.456  0.1202 -0.7233  0.2898
  217SOL    HW1  650   3.001   0.376   0.376  2.6244  1.0962  1.3382
  217SOL    HW2  651   0.041   0.279   0.430 -2.9638  0.8514  1.3251
  218SOL     OW  652   2.020   1.796   1.092  0.0701 -0.7199 -1.1278
  218SOL    HW1  653   1.991   1.829   1.002  2.6949 -0.8546  0.0285
  218SOL    HW2  654   2.062   1.704   1.078  2.1990 -0.7089  0.1410
  219SOL     OW  655   1.607   0.402   0.036  0.1585  0.4516 -0.0563
  219SOL    HW1  656   1.537   0.422   3.053  0.3745 -0.5162 -0.5061
  219SOL    HW2  657   1.613   0.300   0.054 -0.6775 -1.8360 -0.6646
  220SOL     OW  658   1.754   1.931   1.021 -0.0602  0.3052  0.0135
  220SOL    HW1  659   1.758   2.018   1.069 -0.6088  0.6297 -0.7733
  220SOL    HW2  660   1.664   1.888   1.028  0.4668 -0.2872 -0.8919
  221SOL     OW  661   2.712   0.939   0.543 -0.8205  0.1128 -0.3715
  221SOL    HW1  662   2.734   0.843   0.514  0.0482  0.2134  1.3049
  221SOL    HW2  663   2.670   0.939   0.637  0.6172 -0.2044 -0.6634
  222SOL     OW  664   0.794   2.607   1.530  0.1578  0.0676 -0.4109
  222SOL    HW1  665   0.873   2.624   1.466  2.6272 -1.7294  2.0492
  222SOL    HW2  666   0.738   2.532   1.487  0.8822 -1.4844 -3.3897
  223SOL     OW  667   1.462   0.433   2.893  0.0344 -0.1373 -0.0487
  223SOL    HW1  668   1.446   0.421   2.794 -1.0151  1.3736 -0.2750
  223SOL    HW2  669   1.391   0.493   2.935 -0.2511  1.9861  0.0679
  224SOL     OW  670   2.719   0.494   1.218 -0.9006  0.1030  0.0586
  224SOL    HW1  671   2.635   0.542   1.242 -1.3842 -0.4230 -1.3197
  224SOL    HW2  672   2.806   0.539   1.248  0.0718  1.4837 -0.5033
  225SOL     OW  673   0.654   1.667   1.455  0.2726 -0.4505  0.1584
  225SOL    HW1  674   0.749   1.676   1.417 -2.7419 -1.4517 -1.6635
  225SOL    HW2  675   0.578   1.681   1.391  0.4878  0.8804 -0.4249
  226SOL     OW  676   1.005   2.921   0.758  0.3359  0.0324  0.0352
  226SOL    HW1  677   0.926   2.951   0.696 -1.3535 -0.1186 -1.3394
  226SOL    HW2  678   1.081   2.882   0.698  1.8566  0.8401 -0.0003
  227SOL     OW  679   1.020   1.907   1.730  0.4587 -0.9314 -0.3924
  227SOL    HW1  680   0.940   1.943   1.678  0.8124  2.4861 -0.8420
  227SOL    HW2  681   1.091   1.982   1.737  2.3960 -0.6564 -1.0354
  228SOL     OW  682   0.536   0.215   2.039  0.4253  0.0286  0.2167
  228SOL    HW1  683   0.616   0.222   2.101 -0.7090  0.2413  0.0044
  228SOL    HW2  684   0.557   0.140   1.969  3.9922 -1.5827 -0.2045
  229SOL     OW  685   2.681   0.727   0.167 -0.0780 -0.3757  0.4838
  229SOL    HW1  686   2.667   0.820   0.124  0.0183 -3.1089 -0.5856
  229SOL    HW2  687   2.761   0.726   0.231 -1.8632  1.1445 -1.0105
  230SOL     OW  688   0.171   1.269   1.706 -0.1169  0.5889 -0.7218
  230SOL    HW1  689   0.262   1.305   1.741 -0.7407 -2.0832  2.0940
  230SOL    HW2  690   0.099   1.276   1.775  0.6215 -1.9942 -1.3249
  231SOL     OW  691   0.960   2.815   1.226  0.2736 -0.4729  0.0059
  231SOL    HW1  692   0.988   2.729   1.271 -0.1523  1.6521 -3.7512
  231SOL    HW2  693   1.006   2.813   1.132 -0.8603 -0.1070 -1.7271
  232SOL     OW  694   2.690   2.525   3.071  0.4539 -0.4300 -0.4110
  232SOL    HW1  695   2.692   2.430   3.042  0.0624  3.2829  0.0542
  232SOL    HW2  696   2.598   2.569   3.061 -0.4785  1.6746 -0.4124
  233SOL     OW  697   1.169   2.665   3.015  0.6427  0.0892  0.6284
  233SOL    HW1  698   1.139   2.572   2.992  3.2909  1.2717  1.5758
  233SOL    HW2  699   1.115   2.710   0.006 -2.6224 -0.1144  0.8576
  234SOL     OW  700   0.786   1.141   2.031  0.3970 -0.1082 -0.4287
  234SOL    HW1  701   0.710   1.213   2.040 -1.4590  0.1313 -3.3320
  234SOL    HW2  702   0.832   1.111   2.120  1.1624  0.6967  0.3073
  235SOL     OW  703   0.029   2.161   0.024  0.1982  0.1849  0.2686
  235SOL    HW1  704   0.122   2.136   0.057 -0.9919 -0.8988  0.3707
  235SOL    HW2  705   0.028   2.259   3.075  0.2334  0.8969  1.1666
  236SOL     OW  706   1.993   2.460   2.637 -0.1894 -0.1356  0.0377
  236SOL    HW1  707   2.086   2.442   2.679  0.6325  1.7871 -0.7478
  236SOL    HW2  708   1.966   2.403   2.555  0.2959 -2.0118 -1.3069
  237SOL     OW  709   2.328   1.041   1.124 -0.0073  0.1255 -0.3723
  237SOL    HW1  710   2.243   1.068   1.172  1.1748 -2.6357 -0.0136
  237SOL    HW2  711   2.363   1.118   1.067  0.5341  0.5139 -0.0967
  238SOL     OW  712   1.133   2.786   2.229 -0.0142 -0.2308  0.3674
  238SOL    HW1  713   1.121   2.688   2.260  2.5035 -4.1116 -0.3774
  238SOL    HW2  714   1.072   2.815   2.149  0.4548  3.5783  0.7867
  239SOL     OW  715   0.782   2.031   1.874 -0.1351  0.2529  0.0815
  239SOL    HW1  716   0.863   2.020   1.934 -5.1998  0.2892  1.8657
  239SOL    HW2  717   0.791   2.123   1.829 -0.7372 -0.5716  1.3083
  240SOL     OW  718   0.058   2.851   0.564 -0.1321 -0.3273  0.0471
  240SOL    HW1  719   0.008   2.767   0.587 -0.4150  3.7835  1.4003
  240SOL    HW2  720   3.086   2.927   0.596  1.3051 -1.3551  0.9724
  241SOL     OW  721   1.297   1.621   3.066  0.2053  0.0866  0.3420
  241SOL    HW1  722   1.277   1.535   0.029  0.3006  1.6659 -0.8593
  241SOL    HW2  723   1.397   1.637   3.053  0.7558  0.9945  0.7481
  242SOL     OW  724   2.225   1.027   3.046 -0.1763 -0.3315  0.0213
  242SOL    HW1  725   2.237   1.122   3.030  0.3145 -3.1665  1.4790
  242SOL    HW2  726   2.288   0.996   0.035 -3.1383  0.8246 -0.7044
  243SOL     OW  727   0.903   0.411   2.053 -0.0327 -0.0397  0.6042
  243SOL    HW1  728   0.949   0.507   2.062 -1.9745  2.3934  0.1751
  243SOL    HW2  729   0.917   0.365   1.956  3.1593 -1.7623 -4.0485
  244SOL     OW  730   1.412   2.396   2.954 -0.5665 -0.0195  0.5383
  244SOL    HW1  731   1.479   2.458   2.910  1.9152 -2.4673  3.2838
  244SOL    HW2  732   1.402   2.431   3.050  0.7249  1.1337  1.0748
  245SOL     OW  733   1.798   2.636   0.051 -0.4805 -0.0695 -0.1565
  245SOL    HW1  734   1.739   2.560   0.085  0.6191  1.5293  1.4186
  245SOL    HW2  735   1.844   2.694   0.125  2.3407 -0.1841 -1.0876
  246SOL     OW  736   1.274   1.047   2.493  0.0907  0.2584 -0.0105
  246SOL    HW1  737   1.344   1.078   2.422  2.3577  0.8000  0.0716
  246SOL    HW2  738   1.196   1.114   2.499  0.6468  0.4421  1.2362
  247SOL     OW  739   2.735   1.020   2.564  0.0194 -0.0179 -0.5195
  247SOL    HW1  740   2.677   1.024   2.650 -2.2091  0.4337 -0.4536
  247SOL    HW2  741   2.836   1.033   2.590  1.2013  0.6115 -0.1025
  248SOL     OW  742   3.082   1.269   1.906  0.0899  0.0119  0.4334
  248SOL    HW1  743   3.011   1.210   1.861 -1.6113  0.2074 -1.7292
  248SOL    HW2  744   0.038   1.218   1.983  0.2293 -0.0958 -1.1042
  249SOL     OW  745   2.917   0.415   0.235 -0.4771  0.8065 -0.2097
  249SOL    HW1  746   2.947   0.508   0.205  0.9990 -2.1923  0.2064
  249SOL    HW2  747   2.898   0.364   0.149 -0.3612  2.3983  2.3396
  250SOL     OW  748   2.767   0.071   0.203 -0.3371 -0.6247  0.4715
  250SOL    HW1  749   2.868   0.056   0.214  0.8716  2.3605 -0.7194
  250SOL    HW2  750   2.723   0.050   0.288  3.8179  0.3043 -3.7778
  251SOL     OW  751   0.749   1.462   1.826 -0.8686 -0.1069 -0.1396
  251SOL    HW1  752   0.820   1.533   1.836  1.2919 -1.8070 -1.4972
  251SOL    HW2  753   0.787   1.384   1.777  0.3801  1.8196  4.8544
  252SOL     OW  754   1.930   1.778   1.356  0.1761  0.3952 -0.0441
  252SOL    HW1  755   1.997   1.796   1.429 -3.2378  0.2168 -0.1795
  252SOL    HW2  756   1.965   1.771   1.260 -1.0166  1.9032 -1.1179
  253SOL     OW  757   1.699   2.282   1.893 -0.1882  0.1429 -0.4513
  253SOL    HW1  758   1.647   2.231   1.967  0.4470 -1.9251  2.2071
  253SOL    HW2  759   1.751   2.354   1.941  1.8679 -3.4463 -0.9164
  254SOL     OW  760   0.726   2.195   2.265 -0.1357  0.5387  0.5146
  254SOL    HW1  761   0.785   2.115   2.257  2.8743  4.7067  1.6739
  254SOL    HW2  762   0.688   2.203   2.357  0.5326 -0.7969 -1.8631
  255SOL     OW  763   1.508   0.199   0.709  0.0010  0.1882 -0.2215
  255SOL    HW1  764   1.587   0.136   0.734  0.1694 -1.4975 -1.4498
  255SOL    HW2  765   1.438   0.218   0.781  1.8180  0.2096  0.1724
  256SOL     OW  766   1.862   2.270   1.347 -0.0171 -0.2934 -0.0835
  256SOL    HW1  767   1.965   2.277   1.364 -0.3714  0.6404  1.1422
  256SOL    HW2  768   1.846   2.254   1.249 -1.4820  1.6151  1.8808
  257SOL     OW  769   0.343   2.483   2.543  0.3803  0.0719  0.2199
  257SOL    HW1  770   0.439   2.467   2.525 -4.0805  0.9987 -2.5567
  257SOL    HW2  771   0.319   2.468   2.645 -0.2482 -0.4813  4.9798
  258SOL     OW  772   0.520   0.988   2.059 -0.6534 -0.4244 -0.1960
  258SOL    HW1  773   0.535   0.995   2.160 -1.3810  1.4814  0.4067
  258SOL    HW2  774   0.604   1.022   2.007  2.3277  0.7670 -0.7454
  259SOL     OW  775   1.348   0.799   2.531  0.7727 -0.0226  0.7858
  259SOL    HW1  776   1.435   0.773   2.577 -3.9674  0.0409 -1.1193
  259SOL    HW2  777   1.340   0.901   2.524 -0.3355 -0.3207  0.2430
  260SOL     OW  778   2.081   0.551   0.632 -0.3222  0.1191  0.1793
  260SOL    HW1  779   2.087   0.490   0.712  1.6277  2.1392  1.2720
  260SOL    HW2  780   1.984   0.575   0.610  0.1095 -0.1044 -0.7444
  261SOL     OW  781   0.987   0.401   0.389 -0.3552 -0.4746  0.3030
  261SOL    HW1  782   0.926   0.346   0.442  0.9759  1.8874  1.1766
  261SOL    HW2  783   0.984   0.489   0.433  0.2739 -1.2169  0.2017
  262SOL     OW  784   1.838   2.678   2.610  0.8700  0.5828 -0.2766
  262SOL    HW1  785   1.891   2.595   2.633 -1.5823  1.4318 -0.3846
  262SOL    HW2  786   1.783   2.668   2.523  2.3604  1.4556  0.8960
  263SOL     OW  787   0.668   1.664   2.790 -0.0042 -0.5466 -0.3092
  263SOL    HW1  788   0.655   1.564   2.777  0.5019  0.3307  1.0095
  263SOL    HW2  789   0.573   1.702   2.786 -1.6654  0.2177 -0.9714
  264SOL     OW  790   0.172   1.659   1.844 -0.0752  0.2119  0.2820
  264SOL    HW1  791   0.269   1.679   1.867 -2.3734 -0.3717  0.9053
  264SOL    HW2  792   0.177   1.631   1.747  0.2909 -2.1879 -1.8847
  265SOL     OW  793   0.769   1.139   0.233 -0.2273  0.8193 -0.1278
  265SOL    HW1  794   0.722   1.188   0.310  1.4070 -0.7590  1.8417
  265SOL    HW2  795   0.827   1.066   0.276  0.5563 -4.5321  2.5240
  266SOL     OW  796   1.568   1.769   0.185 -0.1115  1.0061  0.0363
  266SOL    HW1  797   1.518   1.704   0.245 -0.8041  0.4096  0.9276
  266SOL    HW2  798   1.588   1.862   0.226  2.3243  2.0129 -1.2588
  267SOL     OW  799   0.002   0.198   3.066  0.0445 -0.1609  0.1005
  267SOL    HW1  800   3.001   0.251   3.061 -3.0775 -0.6815 -1.1467
  267SOL    HW2  801   0.081   0.257   0.004 -2.6500  1.6329 -1.9243
  268SOL     OW  802   0.993   0.312   2.824 -0.0014  0.0172  0.2857
  268SOL    HW1  803   0.908   0.339   2.873 -0.3785 -0.7129 -1.3331
  268SOL    HW2  804   1.077   0.341   2.875  1.3783 -1.1876 -2.5747
  269SOL     OW  805   1.615   0.414   2.394 -0.1111 -0.0139  0.0167
  269SOL    HW1  806   1.556   0.370   2.318  1.9583 -2.2051 -3.6487
  269SOL    HW2  807   1.607   0.353   2.476 -0.3547  1.4783 -0.2508
  270SOL     OW  808   0.634   1.024   2.613 -0.3464  0.6982  0.0057
  270SOL    HW1  809   0.731   0.995   2.607  1.5405 -1.6518 -0.4000
  270SOL    HW2  810   0.580   0.955   2.670 -3.1564 -1.7084  0.1044
  271SOL     OW  811   0.324   0.921   0.135  0.2388 -0.1529 -0.3971
  271SOL    HW1  812   0.362   0.981   0.207  1.5703 -1.9498 -1.5717
  271SOL    HW2  813   0.284   0.978   0.063  2.2981 -1.3964 -1.7542
  272SOL     OW  814   2.264   1.408   2.758 -0.8896  0.1975  0.0725
  272SOL    HW1  815   2.290   1.497   2.723 -3.3372 -2.6170  1.6363
  272SOL    HW2  816   2.199   1.366   2.698 -0.8138  0.1830 -0.0111
  273SOL     OW  817   2.983   0.258   2.406 -0.1815  0.4857  0.6564
  273SOL    HW1  818   2.970   0.356   2.385 -0.7655 -1.1540 -2.1364
  273SOL    HW2  819   3.044   0.248   2.482 -3.7422  1.3671 -3.2473
  274SOL     OW  820   2.920   2.937   1.791  0.5136  0.2077  0.2895
  274SOL    HW1  821   2.918   2.996   1.872  0.8159 -2.2014 -2.8399
  274SOL    HW2  822   2.998   2.967   1.734 -0.3730  0.1132  1.6588
  275SOL     OW  823   2.094   1.180   0.529  0.0647  1.0604 -0.3485
  275SOL    HW1  824   2.098   1.134   0.434  1.0792  1.1591  0.7936
  275SOL    HW2  825   2.002   1.220   0.540  0.4201 -0.8689  1.9672
  276SOL     OW  826   0.285   1.360   2.779 -0.0716  0.1192 -0.6563
  276SOL    HW1  827   0.197   1.326   2.737 -0.3312 -1.5268 -0.5803
  276SOL    HW2  828   0.336   1.277   2.806  0.6943 -0.8424  0.8226
  277SOL     OW  829   1.771   2.526   2.024  0.0986  1.0820 -0.0711
  277SOL    HW1  830   1.813   2.546   2.115  1.3465 -0.2643 -1.3010
  277SOL    HW2  831   1.769   2.608   1.966  0.0040 -0.1276  2.5318
  278SOL     OW  832   2.070   0.101   1.404  0.0984  0.0611  0.2178
  278SOL    HW1  833   2.144   0.125   1.470  0.0817 -1.4802  2.1537
  278SOL    HW2  834   2.093   0.133   1.309  1.9116  0.0413 -1.2619
  279SOL     OW  835   1.341   1.289   2.928 -0.1327  0.0758 -0.1540
  279SOL    HW1  836   1.356   1.193   2.903  0.0511  1.3695  0.3451
  279SOL    HW2  837   1.398   1.313   3.009  1.0153 -0.1851 -1.1716
  280SOL     OW  838   0.473   1.895   0.521  0.0798  0.5412 -0.5871
  280SOL    HW1  839   0.446   1.986   0.481 -0.7875 -1.2485 -0.1360
  280SOL    HW2  840   0.538   1.900   0.597  0.0803 -0.9781 -0.1427
  281SOL     OW  841   0.276   0.272   2.183 -0.0446 -0.1308  0.3754
  281SOL    HW1  842   0.370   0.237   2.154  4.0087  0.7420  1.4513
  281SOL    HW2  843   0.206   0.232   2.119  1.8981  1.9397  0.4533
  282SOL     OW  844   0.258   1.699   1.310  0.0035  0.2668  0.3666
  282SOL    HW1  845   0.251   1.739   1.220  1.2071 -1.8444  0.9546
  282SOL    HW2  846   0.314   1.613   1.303 -0.8426  0.6411  0.6277
  283SOL     OW  847   1.673   2.242   2.594 -0.0698  0.4103 -0.1842
  283SOL    HW1  848   1.723   2.243   2.688  2.9845 -0.6462  0.2208
  283SOL    HW2  849   1.603   2.163   2.596 -2.1101 -0.1499 -0.2130
  284SOL     OW  850   1.903   0.832   0.076 -0.4651  0.0389  0.1178
  284SOL    HW1  851   1.872   0.890   0.153 -0.2703 -0.6375 -1.3390
  284SOL    HW2  852   1.946   0.887   3.085  1.3569 -0.5769 -0.6211
  285SOL     OW  853   2.987   2.807   2.584  0.0228 -0.0875 -0.5237
  285SOL    HW1  854   2.965   2.903   2.616  1.6530  0.2347  0.3195
  285SOL    HW2  855   2.908   2.766   2.541 -0.1286 -1.2695  1.2682
  286SOL     OW  856   2.078   2.562   1.222  0.6772  0.5392  0.7228
  286SOL    HW1  857   2.136   2.583   1.303  0.3552  0.2100  0.4194
  286SOL    HW2  858   1.977   2.581   1.243 -3.0827  0.2588 -1.3073
  287SOL     OW  859   0.780   0.883   1.072 -0.0141 -0.1830  0.1781
  287SOL    HW1  860   0.769   0.820   1.153  4.1395  1.0287 -2.0913
  287SOL    HW2  861   0.843   0.960   1.094 -2.8717  1.6093  0.2888
  288SOL     OW  862   1.369   2.531   0.099  0.0563  0.4408 -0.0589
  288SOL    HW1  863   1.347   2.550   0.196  0.4294 -0.9952 -1.6673
  288SOL    HW2  864   1.330   2.601   0.036  0.8104  3.4589 -1.4804
  289SOL     OW  865   3.073   2.142   2.851 -0.5631  0.5580 -0.0284
  289SOL    HW1  866   3.076   2.105   2.947  1.7421 -0.6347 -0.2380
  289SOL    HW2  867   2.998   2.099   2.792 -1.1437 -0.3600  2.0430
  290SOL     OW  868   1.024   2.447   0.639 -0.0226 -0.2056  0.0023
  290SOL    HW1  869   0.994   2.372   0.708 -2.3085 -0.1767  0.9627
  290SOL    HW2  870   0.974   2.436   0.552 -1.0302  1.0647 -2.0839
  291SOL     OW  871   1.983   1.675   0.162 -0.1408  0.0982  0.1433
  291SOL    HW1  872   2.030   1.613   0.095 -0.0864  1.1685  0.9485
  291SOL    HW2  873   2.004   1.774   0.142  0.6744  0.3523 -0.1791
  292SOL     OW  874   0.975   1.428   1.551  0.0715 -0.0023 -0.2188
  292SOL    HW1  875   1.047   1.409   1.620 -2.6115  0.5634  1.4711
  292SOL    HW2  876   1.024   1.450   1.465  1.8555 -1.0955  4.2130
  293SOL     OW  877   2.232   2.651   1.009  0.1466 -0.5768  0.0714
  293SOL    HW1  878   2.237   2.592   0.926  0.2565 -1.7230 -1.7916
  293SOL    HW2  879   2.185   2.604   1.091  0.1891 -2.7220  2.2442
  294SOL     OW  880   3.011   1.028   2.579 -0.2747  0.4505 -0.0105
  294SOL    HW1  881   3.074   1.098   2.613 -1.2254  0.0122 -0.4195
  294SOL    HW2  882   3.019   1.029   2.478 -0.4920  2.0873  1.4388
  295SOL     OW  883   1.132   1.836   0.042  0.1602 -0.3622  0.2677
  295SOL    HW1  884   1.171   1.920   0.004 -0.2085  1.5357 -0.1391
  295SOL    HW2  885   1.180   1.760   3.078 -0.3362 -1.8633  2.2056
  296SOL     OW  886   1.970   1.873   2.486  0.2049 -0.2149 -0.5792
  296SOL    HW1  887   2.019   1.784   2.492  0.1034  0.6364 -0.7432
  296SOL    HW2  888   1.873   1.858   2.463  1.5855  0.5151  3.5040
  297SOL     OW  889   2.552   0.571   2.885  0.5162 -0.1465 -0.0341
  297SOL    HW1  890   2.592   0.518   2.809 -2.6856  2.3866  2.3444
  297SOL    HW2  891   2.522   0.665   2.858 -1.2506  1.9692  2.0846
  298SOL     OW  892   0.820   2.076   2.892 -0.1617  0.4449  0.0304
  298SOL    HW1  893   0.795   1.975   2.909 -2.3286 -1.2972 -2.5958
  298SOL    HW2  894   0.780   2.101   2.805  1.6218 -0.8951 -0.4007
  299SOL     OW  895   1.085   2.723   2.540  0.0135  0.1503  0.8387
  299SOL    HW1  896   1.017   2.789   2.503  1.5400 -1.1748  1.9410
  299SOL    HW2  897   1.107   2.645   2.476 -3.1821 -0.6158  1.7998
  300SOL     OW  898   2.746   0.442   0.450  0.2305  0.4900 -0.4949
  300SOL    HW1  899   2.696   0.357   0.444  0.5082 -0.1313 -1.4536
  300SOL    HW2  900   2.811   0.443   0.370  0.9150  0.9822 -0.7002
  301SOL     OW  901   1.108   0.903   1.331 -0.0323 -0.0916  0.7180
  301SOL    HW1  902   1.082   0.860   1.422 -2.0167  0.0278  0.3584
  301SOL    HW2  903   1.107   1.002   1.334 -0.3092 -5.6152 -1.0711
  302SOL     OW  904   0.030   2.327   2.682 -0.0932  0.3899 -0.6342
  302SOL    HW1  905   0.041   2.257   2.757  1.6740 -0.0712  0.2092
  302SOL    HW2  906   0.100   2.318   2.611  1.8553  2.4436 -2.7552
  303SOL     OW  907   3.040   0.024   2.230  0.8596 -0.0313  0.2685
  303SOL    HW1  908   3.006   0.090   2.300  0.2458 -1.2856 -1.8540
  303SOL    HW2  909   3.053   3.018   2.271  1.9393  3.1444  2.6941
  304SOL     OW  910   2.602   0.517   1.699  0.3316 -0.4704 -0.2593
  304SOL    HW1  911   2.540   0.447   1.654  1.8555 -0.0164  1.8335
  304SOL    HW2  912   2.578   0.521   1.794 -0.3154 -0.2233 -2.1740
  305SOL     OW  913   0.246   2.850   2.251 -0.1529  0.0542  0.1165
  305SOL    HW1  914   0.291   2.787   2.189  0.3578  1.5910  1.3385
  305SOL    HW2  915   0.154   2.875   2.221  0.7529  0.3076  0.7962
  306SOL     OW  916   2.530   1.267   1.515 -0.4723  0.2156  0.3438
  306SOL    HW1  917   2.476   1.210   1.579 -0.4145  0.5651 -1.4003
  306SOL    HW2  918   2.583   1.203   1.451  0.8404  2.5735  0.7806
  307SOL     OW  919   1.682   0.625   1.171  0.7240 -0.0136 -0.6629
  307SOL    HW1  920   1.681   0.555   1.245  1.1822 -1.6576  1.0708
  307SOL    HW2  921   1.596   0.677   1.146  1.2355  3.4545 -1.5146
  308SOL     OW  922   0.257   2.164   1.292  0.4057 -0.8040  0.0630
  308SOL    HW1  923   0.223   2.241   1.352  2.1758  2.9975 -1.5470
  308SOL    HW2  924   0.184   2.138   1.226 -0.4413  1.6445  1.7050
  309SOL     OW  925   2.391   1.742   1.391 -0.0094 -0.5216  0.8415
  309SOL    HW1  926   2.403   1.840   1.355  1.2383 -0.0951 -3.1351
  309SOL    HW2  927   2.448   1.734   1.471  1.2702  0.8688 -3.5488
  310SOL     OW  928   2.706   1.730   3.062 -0.9244  0.5628 -0.1064
  310SOL    HW1  929   2.793   1.727   3.005  0.1761  0.6848 -4.3197
  310SOL    HW2  930   2.708   1.677   0.062  0.6841 -0.1191 -1.4905
  311SOL     OW  931   2.232   1.802   2.919  0.1336 -0.5127  0.1617
  311SOL    HW1  932   2.228   1.904   2.923  0.0059 -3.0580  1.3110
  311SOL    HW2  933   2.214   1.766   2.821  0.0728 -1.6949 -2.0422
  312SOL     OW  934   2.490   1.756   0.727 -0.1829  0.2080 -0.1135
  312SOL    HW1  935   2.568   1.803   0.775 -2.7732  1.0840 -1.7382
  312SOL    HW2  936   2.508   1.755   0.625  1.7996 -2.1619 -0.6895
  313SOL     OW  937   2.694   2.406   1.336  0.4243 -0.4235  0.1894
  313SOL    HW1  938   2.625   2.449   1.397  2.7398  0.8011 -0.5126
  313SOL    HW2  939   2.725   2.477   1.266  0.5917 -1.1439 -0.3557
  314SOL     OW  940   0.752   1.985   1.043 -0.0827 -0.1734 -0.3781
  314SOL    HW1  941   0.827   2.021   0.982 -1.0774  1.4483 -0.8320
  314SOL    HW2  942   0.748   1.880   1.050  1.4842 -3.0590  1.6095
  315SOL     OW  943   0.545   2.792   2.409 -0.2339  0.3069  0.2815
  315SOL    HW1  944   0.466   2.855   2.413  0.7731  0.3583  0.3159
  315SOL    HW2  945   0.605   2.812   2.492  1.2031 -2.6760  2.3346
  316SOL     OW  946   0.249   1.168   0.672 -0.1265  0.4590  0.4036
  316SOL    HW1  947   0.217   1.105   0.747  0.1124  0.1340 -0.0510
  316SOL    HW2  948   0.329   1.230   0.698  0.0490 -0.6550 -0.3240
  317SOL     OW  949   1.850   0.175   0.558 -0.4493 -0.7085 -0.2204
  317SOL    HW1  950   1.802   0.257   0.602 -1.8282  0.6384  1.6445
  317SOL    HW2  951   1.925   0.148   0.620 -0.7391  3.5081 -2.2005
  318SOL     OW  952   2.802   2.487   0.489  0.2881  0.2796 -1.0362
  318SOL    HW1  953   2.753   2.487   0.401  0.0067 -0.8129  1.1115
  318SOL    HW2  954   2.855   2.402   0.503 -1.9761 -1.8086 -1.2008
  319SOL     OW  955   0.961   1.575   0.006  0.3049 -0.7148 -0.3322
  319SOL    HW1  956   1.004   1.596   3.001  1.0970 -0.3386  1.4862
  319SOL    HW2  957   0.861   1.553   3.078 -1.3945 -1.3902 -2.3781
  320SOL     OW  958   0.780   2.663   2.327 -0.9113 -0.1623 -0.0807
  320SOL    HW1  959   0.857   2.731   2.312 -0.5639  1.6506 -2.4470
  320SOL    HW2  960   0.696   2.711   2.350 -0.3763  2.7871 -2.4611
  321SOL     OW  961   1.246   2.933   2.988  0.4929 -0.1373  0.5023
  321SOL    HW1  962   1.237   2.833   2.992 -0.8656  1.7848 -1.0421
  321SOL    HW2  963   1.164   2.971   2.940 -0.1497  2.4463 -0.2057
  322SOL     OW  964   2.376   1.269   1.951 -0.1390  0.5376 -0.5677
  322SOL    HW1  965   2.382   1.187   2.009 -0.8120  2.1657 -2.3298
  322SOL    HW2  966   2.468   1.319   1.953  2.6044  1.9763 -3.4074
  323SOL     OW  967   2.476   0.602   0.490 -0.1777 -0.7444 -0.3304
  323SOL    HW1  968   2.440   0.604   0.393 -1.6118  1.7150 -1.4847
  323SOL    HW2  969   2.567   0.561   0.497 -0.1164 -2.3319 -1.4789
  324SOL     OW  970   0.047   0.454   2.744 -0.1429  0.2604  0.4654
  324SOL    HW1  971   0.133   0.486   2.700  1.7790  0.4900 -1.5888
  324SOL    HW2  972   0.024   0.360   2.726 -0.7435  1.2292  1.8952
  325SOL     OW  973   1.600   0.112   2.006  0.3879 -0.1858  0.6676
  325SOL    HW1  974   1.688   0.126   1.956 -0.0996  1.0246  1.4205
  325SOL    HW2  975   1.555   0.021   1.992 -1.9871  0.4049 -0.1246
  326SOL     OW  976   2.472   3.033   1.349  0.6629  0.0410  0.0071
  326SOL    HW1  977   2.427   0.012   1.416  1.1564 -0.2031  0.3155
  326SOL    HW2  978   2.413   3.010   1.267 -0.8587  1.1077  0.8358
  327SOL     OW  979   1.642   0.642   2.902 -0.7990  0.2516 -0.3125
  327SOL    HW1  980   1.582   0.563   2.910  3.6930  1.9534 -0.2384
  327SOL    HW2  981   1.736   0.630   2.939 -2.1577 -0.3176 -2.5312
  328SOL     OW  982   2.991   1.342   2.441 -0.4185  0.6332 -0.0064
  328SOL    HW1  983   2.973   1.255   2.390  0.9284 -0.3100  1.3052
  328SOL    HW2  984   2.905   1.394   2.446  1.9407 -0.8364  0.6945
  329SOL     OW  985   1.847   2.574   1.697 -0.0658  0.2907 -0.5017
  329SOL    HW1  986   1.779   2.504   1.686  3.1170 -1.1908 -2.3404
  329SOL    HW2  987   1.836   2.632   1.783 -0.1863 -0.8560 -0.7554
  330SOL     OW  988   2.327   1.684   1.824 -0.0319 -0.3616 -0.0386
  330SOL    HW1  989   2.273   1.766   1.819  3.3385 -2.2709  0.1466
  330SOL    HW2  990   2.368   1.683   1.919  0.2227  2.9963  3.7774
  331SOL     OW  991   0.271   1.848   1.057  0.3614  0.1582  0.5151
  331SOL    HW1  992   0.322   1.857   0.972 -0.7075  1.3573  2.5737
  331SOL    HW2  993   0.174   1.827   1.039  0.0712  0.1962 -2.4196
  332SOL     OW  994   0.776   0.417   1.141 -0.5344 -0.2689  0.3886
  332SOL    HW1  995   0.698   0.468   1.182 -1.3298 -0.9593 -0.1399
  332SOL    HW2  996   0.844   0.377   1.206 -0.1046  0.3982 -0.1423
  333SOL     OW  997   2.105   2.645   2.388 -0.1852 -0.3084 -0.2164
  333SOL    HW1  998   2.000   2.644   2.392  0.7985  0.4228  2.8139
  333SOL    HW2  999   2.144   2.682   2.476  0.4107 -3.0654 -0.8877
  334SOL     OW 1000   1.156   1.202   1.266 -0.1682  0.1883 -0.2971
  334SOL    HW1 1001   1.242   1.227   1.217 -0.4131 -1.5473  2.1252
  334SOL    HW2 1002   1.174   1.206   1.368  0.4852 -0.5183  3.0974
  335SOL     OW 1003   0.435   2.930   2.704  0.2036 -0.5766  0.3116
  335SOL    HW1 1004   0.386   2.973   2.783 -0.0575  2.2105  1.7981
  335SOL    HW2 1005   0.371   2.943   2.620 -1.3292 -1.1424 -5.2470
  336SOL     OW 1006   2.467   2.356   1.960 -0.4452 -0.0707 -0.2393
  336SOL    HW1 1007   2.563   2.382   1.941 -1.0149 -1.2906 -0.0861
  336SOL    HW2 1008   2.468   2.278   2.026  1.9255 -0.7338  0.2986
  337SOL     OW 1009   2.368   1.621   0.336  0.4031  0.0939  0.6948
  337SOL    HW1 1010   2.363   1.608   0.233  0.4820  0.9179 -0.4576
  337SOL    HW2 1011   2.443   1.679   0.366 -1.1954 -0.9031 -3.7034
  338SOL     OW 1012   1.087   1.880   1.372  0.8290  0.0932  1.1600
  338SOL    HW1 1013   1.117   1.821   1.449 -1.8842 -1.6102 -0.9760
  338SOL    HW2 1014   1.132   1.974   1.372  2.1816 -0.0224  0.0641
  339SOL     OW 1015   0.133   0.922   1.818  0.1440 -0.1746 -0.1788
  339SOL    HW1 1016   0.178   0.843   1.868 -2.2084  0.4900  0.4333
  339SOL    HW2 1017   0.189   1.008   1.840  2.7265 -0.7364  1.6118
  340SOL     OW 1018   1.673   2.906   1.712  0.1316  0.2778 -0.3543
  340SOL    HW1 1019   1.687   2.879   1.614 -0.7202 -1.2702  1.6903
  340SOL    HW2 1020   1.657   3.006   1.723 -2.8260  1.0984  0.6741
  341SOL     OW 1021   2.147   1.397   0.882 -0.0326  0.6358  0.1700
  341SOL    HW1 1022   2.201   1.329   0.939  1.4292 -3.3424 -0.1457
  341SOL    HW2 1023   2.171   1.395   0.783 -3.7069  0.0809  0.7223
  342SOL     OW 1024   0.398   1.603   0.987 -0.2058 -0.1274  0.1233
  342SOL    HW1 1025   0.316   1.559   0.948  2.2482 -1.6521  1.5454
  342SOL    HW2 1026   0.445   1.649   0.910 -1.5108 -0.5529  1.3551
  343SOL     OW 1027   2.312   0.540   1.505 -0.4876 -0.1350  0.3861
  343SOL    HW1 1028   2.270   0.486   1.579 -0.3285 -1.7720 -1.2407
  343SOL    HW2 1029   2.306   0.638   1.527  0.1579 -3.8477 -0.2620
  344SOL     OW 1030   2.142   2.871   0.859 -0.7442 -0.6497 -0.0359
  344SOL    HW1 1031   2.160   2.784   0.912 -1.0644  0.3257  0.1945
  344SOL    HW2 1032   2.220   2.895   0.797 -0.0579  0.5427 -1.2646
  345SOL     OW 1033   2.935   3.073   2.599  0.6733 -0.5841  0.3651
  345SOL    HW1 1034   2.846   0.029   2.639 -3.6053  1.7623  1.2610
  345SOL    HW2 1035   3.009   0.056   2.585 -1.6246 -1.1760  1.6100
  346SOL     OW 1036   3.031   0.949   0.447 -0.2682 -0.0508  0.7096
  346SOL    HW1 1037   2.976   0.990   0.373  0.1968 -0.0770 -1.2103
  346SOL    HW2 1038   2.992   0.966   0.537  2.2943 -1.6627 -0.0425
  347SOL     OW 1039   1.680   2.758   1.463  0.1018 -0.0430  0.2420
  347SOL    HW1 1040   1.774   2.721   1.438  2.1250  1.1344  2.1502
  347SOL    HW2 1041   1.610   2.684   1.473  0.7673 -2.0906  2.6994
  348SOL     OW 1042   1.175   1.115   1.755  0.2166 -0.1892  0.1751
  348SOL    HW1 1043   1.237   1.159   1.825  0.0402  2.9646  0.8497
  348SOL    HW2 1044   1.082   1.117   1.793  1.9592 -0.9716  2.9193
  349SOL     OW 1045   2.132   1.411   2.220  0.0981  0.4648  0.1918
  349SOL    HW1 1046   2.118   1.312   2.220 -1.4137  0.2577 -1.1498
  349SOL    HW2 1047   2.227   1.440   2.192 -0.4377  2.3166 -1.5284
  350SOL     OW 1048   0.226   1.915   0.704  0.0521  0.0759 -0.4320
  350SOL    HW1 1049   0.255   2.000   0.757  1.5988  0.7314  1.3770
  350SOL    HW2 1050   0.188   1.940   0.612 -0.5227 -0.7789  1.6265
  351SOL     OW 1051   0.830   0.721   2.308 -0.4514 -0.4745  0.4300
  351SOL    HW1 1052   0.899   0.673   2.372  0.4246  0.9463  2.3133
  351SOL    HW2 1053   0.881   0.794   2.255 -0.0625  1.3193 -2.8876
  352SOL     OW 1054   0.790   2.866   1.636  0.6107  0.5339 -0.3964
  352SOL    HW1 1055   0.841   2.921   1.566  1.1600  1.0427  1.5669
  352SOL    HW2 1056   0.790   2.768   1.614 -1.1924  0.9833 -0.2426
  353SOL     OW 1057   0.822   1.597   2.387 -0.6960 -0.1197 -0.1451
  353SOL    HW1 1058   0.812   1.689   2.430 -0.0329  1.3646 -0.9740
  353SOL    HW2 1059   0.839   1.608   2.285 -2.2334  0.1541  1.8363
  354SOL     OW 1060   1.853   1.303   0.566 -0.0035  0.4806  0.0159
  354SOL    HW1 1061   1.789   1.296   0.487  1.3949  1.9372 -0.6617
  354SOL    HW2 1062   1.806   1.283   0.656 -0.0772 -1.4840  0.4264
  355SOL     OW 1063   2.071   0.115   0.727  0.1799 -0.6422 -0.1117
  355SOL    HW1 1064   2.087   0.201   0.784 -0.3146  0.1359  1.3772
  355SOL    HW2 1065   2.139   0.043   0.750 -0.5716  2.3449  0.1481
  356SOL     OW 1066   0.225   1.069   3.008 -0.0172  0.2818  0.1397
  356SOL    HW1 1067   0.206   1.139   3.077 -1.5736 -0.5846 -1.9314
  356SOL    HW2 1068   0.308   1.093   2.947  0.2937 -0.7798  1.8557
  357SOL     OW 1069   2.850   3.082   2.025 -0.2204 -0.3534  0.2232
  357SOL    HW1 1070   2.790   0.080   2.012 -3.1832  1.2945 -2.0684
  357SOL    HW2 1071   2.913   0.013   2.103 -1.2604  0.9381 -0.7422
  358SOL     OW 1072   0.338   1.408   2.522 -0.0402  0.2553 -0.0601
  358SOL    HW1 1073   0.314   1.501   2.485  2.6962 -0.0248 -1.6457
  358SOL    HW2 1074   0.316   1.395   2.627 -2.8124 -1.0709  3.4257
  359SOL     OW 1075   2.293   2.472   2.498 -0.2723  0.5304 -0.5684
  359SOL    HW1 1076   2.251   2.544   2.553 -1.5464 -0.9116 -4.0595
  359SOL    HW2 1077   2.337   2.507   2.413  0.4405 -0.8077 -2.7935
  360SOL     OW 1078   1.430   1.248   0.791  0.2031  0.6174 -0.3375
  360SOL    HW1 1079   1.341   1.290   0.760 -1.7566 -1.1691 -0.4873
  360SOL    HW2 1080   1.411   1.197   0.881 -0.6442  0.2873 -0.7522
  361SOL     OW 1081   2.281   2.324   1.109  0.0161  0.7511  0.1929
  361SOL    HW1 1082   2.294   2.362   1.206 -0.9257  0.5172 -0.4228
  361SOL    HW2 1083   2.181   2.324   1.088 -1.5792 -1.5670 -0.8193
  362SOL     OW 1084   1.943   1.092   0.905 -0.8006 -0.3175 -0.3410
  362SOL    HW1 1085   2.024   1.107   0.851 -2.9632 -3.0892  3.1025
  362SOL    HW2 1086   1.873   1.163   0.883 -0.2960  1.5331  1.8491
  363SOL     OW 1087   2.620   1.962   0.514 -0.1366  0.0664  0.2816
  363SOL    HW1 1088   2.628   1.989   0.413  1.0236 -0.7155  1.1899
  363SOL    HW2 1089   2.540   1.997   0.558 -0.1086 -0.3902  2.1331
  364SOL     OW 1090   2.312   0.121   1.547  0.0641 -0.4316  0.0790
  364SOL    HW1 1091   2.343   0.039   1.593  0.0030 -0.4510 -2.8606
  364SOL    HW2 1092   2.382   0.188   1.558  0.1538 -2.7359 -2.1615
  365SOL     OW 1093   0.218   2.715   1.011 -0.0474  0.1339 -0.6718
  365SOL    HW1 1094   0.231   2.639   0.945 -0.3969 -0.3417  0.8205
  365SOL    HW2 1095   0.138   2.688   1.075 -0.6218 -1.0325 -0.1648
  366SOL     OW 1096   0.160   1.139   0.417  0.0046  0.0660  0.3046
  366SOL    HW1 1097   0.092   1.064   0.411 -2.7237 -2.6041 -0.8252
  366SOL    HW2 1098   0.201   1.143   0.514 -0.3161  0.1664 -0.0650
  367SOL     OW 1099   2.465   2.508   2.872  0.3374  0.1668  0.4270
  367SOL    HW1 1100   2.461   2.435   2.942  1.3690  0.0642 -1.1516
  367SOL    HW2 1101   2.520   2.485   2.786 -1.0707 -0.5778 -1.2562
  368SOL     OW 1102   2.748   1.800   1.082 -0.3621  0.5568 -0.3022
  368SOL    HW1 1103   2.688   1.713   1.091 -1.2525 -0.4609  1.9035
  368SOL    HW2 1104   2.779   1.835   1.168 -1.7881 -0.8351 -1.7780
  369SOL     OW 1105   0.834   0.899   0.473 -0.0830 -0.6818  0.6258
  369SOL    HW1 1106   0.743   0.858   0.445 -1.5022 -0.7029 -1.7032
  369SOL    HW2 1107   0.890   0.925   0.387  0.0456  1.3952  2.4440
  370SOL     OW 1108   0.655   3.057   0.815  0.2950 -0.4503  0.2663
  370SOL    HW1 1109   0.588   3.040   0.889  1.0661 -1.3674  1.0157
  370SOL    HW2 1110   0.725   0.038   0.847  3.7234  1.0217  1.4817
  371SOL     OW 1111   2.266   1.292   3.011  1.1495 -0.1547  0.3729
  371SOL    HW1 1112   2.180   1.317   3.054 -1.3059 -2.3361 -2.5908
  371SOL    HW2 1113   2.284   1.347   2.924  2.6386  0.0636 -1.7571
  372SOL     OW 1114   0.434   0.879   2.730 -0.4136 -0.2969 -0.1080
  372SOL    HW1 1115   0.450   0.833   2.819 -1.1836 -0.7972 -0.4480
  372SOL    HW2 1116   0.396   0.814   2.660  2.9815  3.6692 -1.6136
  373SOL     OW 1117   0.296   0.578   3.060  0.4905  0.5627 -0.3489
  373SOL    HW1 1118   0.381   0.540   0.010  0.4570  1.7778 -0.5391
  373SOL    HW2 1119   0.330   0.652   2.998  1.9763  1.3013  0.6466
  374SOL     OW 1120   1.124   2.324   0.103 -0.4692 -0.3066 -0.3603
  374SOL    HW1 1121   1.078   2.373   0.025  0.4272  1.2795 -0.4761
  374SOL    HW2 1122   1.155   2.390   0.179  0.1863  0.4481 -0.3259
  375SOL     OW 1123   1.095   0.083   0.546 -0.1808  0.8242  0.2509
  375SOL    HW1 1124   1.037   0.160   0.574  1.4429 -3.4347  0.7904
  375SOL    HW2 1125   1.187   0.111   0.509 -0.6258  0.8394  0.1135
  376SOL     OW 1126   0.199   2.375   2.175 -0.2399 -0.1150  0.3240
  376SOL    HW1 1127   0.246   2.350   2.085 -1.9270 -0.9495  0.6657
  376SOL    HW2 1128   0.151   2.467   2.168 -1.1329  3.4032 -0.7899
  377SOL     OW 1129   2.742   2.017   2.908  0.1538 -0.0071  0.3424
  377SOL    HW1 1130   2.642   2.027   2.925  1.2738  2.8289 -0.2485
  377SOL    HW2 1131   2.781   1.928   2.930 -1.7476  1.9329 -0.2317
  378SOL     OW 1132   1.644   0.688   0.407  0.0133  0.7732 -0.0437
  378SOL    HW1 1133   1.655   0.677   0.308 -1.0880 -0.5986 -0.4681
  378SOL    HW2 1134   1.554   0.651   0.441 -1.3204 -1.3178  0.3524
  379SOL     OW 1135   1.174   1.344   0.763  0.8685 -0.3883  0.2094
  379SOL    HW1 1136   1.127   1.310   0.679 -2.0647 -2.8043  0.2577
  379SOL    HW2 1137   1.151   1.443   0.773 -0.1390 -0.7246  1.8843
  380SOL     OW 1138   2.254   2.144   1.965 -0.1208 -0.1275  0.2182
  380SOL    HW1 1139   2.274   2.157   1.865  0.2030 -0.0035 -2.0294
  380SOL    HW2 1140   2.158   2.172   1.988 -0.5238 -0.5257  3.2572
  381SOL     OW 1141   2.988   1.076   2.305  0.0794 -1.2324 -0.5342
  381SOL    HW1 1142   3.062   1.094   2.233  1.8866 -0.0791 -1.6165
  381SOL    HW2 1143   2.900   1.054   2.255  1.3245  1.4097  2.3455
  382SOL     OW 1144   2.855   2.299   0.167 -0.1013  0.1246  0.2639
  382SOL    HW1 1145   2.925   2.368   0.183 -0.0004 -3.5373  1.6186
  382SOL    HW2 1146   2.834   2.284   0.069 -0.7384  2.9071  0.6106
  383SOL     OW 1147   1.461   1.035   2.081 -1.1194  0.1293  0.2160
  383SOL    HW1 1148   1.427   1.135   2.077  0.0578  2.3323 -2.1327
  383SOL    HW2 1149   1.498   1.002   1.992  0.7693 -1.0781  0.5312
  384SOL     OW 1150   0.861   2.312   2.519 -0.2952 -0.0500  0.2779
  384SOL    HW1 1151   0.911   2.307   2.431 -2.1032  1.7647  1.4792
  384SOL    HW2 1152   0.912   2.378   2.581  1.1526  1.4390  0.6099
  385SOL     OW 1153   2.204   2.564   0.129  0.4501  0.5233  0.1667
  385SOL    HW1 1154   2.273   2.616   0.073 -0.2001 -0.7125  2.7352
  385SOL    HW2 1155   2.129   2.628   0.148  0.8811  0.0827 -1.7065
  386SOL     OW 1156   1.441   1.363   0.529  0.2781  0.7666  0.3881
  386SOL    HW1 1157   1.448   1.460   0.551 -1.1204 -0.0867 -0.9365
  386SOL    HW2 1158   1.485   1.299   0.598  2.3465  0.5085 -0.2712
  387SOL     OW 1159   2.766   0.873   1.304 -0.0444 -0.0343  0.0669
  387SOL    HW1 1160   2.674   0.832   1.280  1.8340 -2.1312  2.0564
  387SOL    HW2 1161   2.749   0.972   1.330 -0.2258  3.4016  1.0215
  388SOL     OW 1162   3.062   0.783   0.888 -0.1850  0.2034  0.0715
  388SOL    HW1 1163   3.021   0.806   0.980  0.4709  0.6211 -0.0650
  388SOL    HW2 1164   3.019   0.697   0.852  0.2290  1.7023 -1.6524
  389SOL     OW 1165   1.842   1.244   2.369  0.1014 -0.3191  0.0980
  389SOL    HW1 1166   1.784   1.240   2.456 -3.7014 -0.7544  1.1111
  389SOL    HW2 1167   1.862   1.338   2.338  1.2874  0.9481  1.6778
  390SOL     OW 1168   1.554   2.184   0.419  0.0054  0.0219  0.0452
  390SOL    HW1 1169   1.599   2.278   0.438  1.3727  4.9035 -0.3988
  390SOL    HW2 1170   1.579   2.107   0.479 -0.3199 -0.9026 -2.4445
  391SOL     OW 1171   1.102   2.073   0.957  0.2695 -0.3215  0.3079
  391SOL    HW1 1172   1.106   2.002   1.028  1.4210  0.9561 -1.9368
  391SOL    HW2 1173   1.178   2.065   0.889  2.1419 -1.6770 -0.6242
  392SOL     OW 1174   2.218   2.511   1.925 -0.4231 -0.0928 -0.0368
  392SOL    HW1 1175   2.138   2.472   1.871 -3.1828  1.3350 -0.4761
  392SOL    HW2 1176   2.284   2.440   1.949 -0.7447  2.0829 -1.1688
  393SOL     OW 1177   1.634   2.250   0.002  0.2470 -0.2183 -0.0217
  393SOL    HW1 1178   1.600   2.229   2.998  0.4313  0.0649  3.3964
  393SOL    HW2 1179   1.730   2.217   0.021 -0.9566  1.3665  0.6448
  394SOL     OW 1180   0.206   0.475   2.327 -0.1595 -0.1515 -0.1942
  394SOL    HW1 1181   0.106   0.468   2.325 -0.1195  1.8997 -0.8248
  394SOL    HW2 1182   0.250   0.406   2.268 -1.8980  0.2549 -0.2384
  395SOL     OW 1183   0.437   0.909   0.836 -0.3594 -0.2752  0.4051
  395SOL    HW1 1184   0.489   0.997   0.852 -2.1678  0.1351  3.1715
  395SOL    HW2 1185   0.507   0.833   0.824  2.4507 -1.4360  0.1643
  396SOL     OW 1186   2.279   0.998   2.675 -0.2441 -0.0580 -0.2994
  396SOL    HW1 1187   2.179   0.980   2.685 -0.1210 -1.2950  1.1267
  396SOL    HW2 1188   2.296   1.077   2.610 -0.8535  0.6008 -2.3994
  397SOL     OW 1189   0.013   0.780   2.663  0.1690  0.3211  0.0429
  397SOL    HW1 1190   0.086   0.722   2.623  1.9547 -3.0184  0.5848
  397SOL    HW2 1191   3.076   0.859   2.603  0.8424 -0.1905 -1.9882
  398SOL     OW 1192   1.481   2.801   0.342 -0.1874 -0.6479 -0.5377
  398SOL    HW1 1193   1.477   2.851   0.434 -0.1386  0.6010  0.8337
  398SOL    HW2 1194   1.403   2.838   0.283 -2.6506  1.9403  0.9046
  399SOL     OW 1195   2.010   2.272   2.017  0.2598 -0.0262 -0.2331
  399SOL    HW1 1196   2.024   2.342   2.089 -0.1296 -0.4526  0.0402
  399SOL    HW2 1197   1.997   2.316   1.926  1.5848  1.1126  0.5315
  400SOL     OW 1198   0.033   1.674   2.201  0.3249 -0.4050 -0.8134
  400SOL    HW1 1199   0.056   1.591   2.153 -0.6325 -0.0193  0.0416
  400SOL    HW2 1200   0.110   1.741   2.201  0.2841  0.6402  2.4954
  401SOL     OW 1201   0.522   0.984   0.541 -0.0930 -0.2948 -0.0204
  401SOL    HW1 1202   0.527   0.884   0.519  1.6883  1.0635 -0.8019
  401SOL    HW2 1203   0.442   0.998   0.600  0.2674  1.7989  0.4787
  402SOL     OW 1204   0.600   2.957   2.148  0.1236  0.0046 -0.8490
  402SOL    HW1 1205   0.600   3.024   2.228  3.8391 -1.4113 -0.1623
  402SOL    HW2 1206   0.546   2.876   2.173  2.4012  1.8246 -2.3185
  403SOL     OW 1207   2.846   1.689   2.272 -0.2309  0.6116 -0.0852
  403SOL    HW1 1208   2.817   1.781   2.308  2.1971 -1.3392  0.0522
  403SOL    HW2 1209   2.935   1.696   2.225 -0.8123 -0.4453 -2.4501
  404SOL     OW 1210   2.780   2.211   2.089 -0.2280 -0.5028 -0.5371
  404SOL    HW1 1211   2.873   2.180   2.118  1.0626 -0.0904  3.4340
  404SOL    HW2 1212   2.787   2.283   2.017 -2.7456  0.9485 -0.7846
  405SOL     OW 1213   1.944   0.235   2.561  0.1178 -0.4978  0.2984
  405SOL    HW1 1214   1.965   0.145   2.602 -2.7567  4.0248  3.4954
  405SOL    HW2 1215   1.892   0.231   2.475  0.6565  0.4320  3.3592
  406SOL     OW 1216   1.288   1.869   0.266 -0.4349  0.2700 -0.0934
  406SOL    HW1 1217   1.357   1.929   0.225  2.2518  0.3823 -3.3122
  406SOL    HW2 1218   1.223   1.838   0.189 -2.1831  0.3758 -1.2794
  407SOL     OW 1219   1.664   1.328   0.367  0.5218 -0.1908  0.8062
  407SOL    HW1 1220   1.627   1.239   0.333 -1.8778  2.3205 -0.2797
  407SOL    HW2 1221   1.587   1.372   0.418 -3.4828  0.0802  0.4815
  408SOL     OW 1222   0.244   0.689   1.555 -0.5948  0.0995 -0.1889
  408SOL    HW1 1223   0.337   0.679   1.595 -1.1228  0.0609  1.1207
  408SOL    HW2 1224   0.236   0.625   1.473  0.6284 -1.4307 -2.1978
  409SOL     OW 1225   2.958   1.317   2.912  0.1420  0.1263 -0.6256
  409SOL    HW1 1226   2.865   1.342   2.889 -0.3272  1.0435  0.5886
  409SOL    HW2 1227   2.992   1.353   2.999 -0.4322  0.5390  1.0078
  410SOL     OW 1228   2.487   2.254   0.641  0.0934  0.2896 -0.6696
  410SOL    HW1 1229   2.452   2.288   0.736  0.6954 -1.8173  1.0486
  410SOL    HW2 1230   2.436   2.175   0.611  3.6379  0.4765  2.2173
  411SOL     OW 1231   0.031   0.690   0.410  0.2562 -0.4554  0.0575
  411SOL    HW1 1232   0.009   0.790   0.415 -0.2442  2.0394 -0.1707
  411SOL    HW2 1233   3.069   0.653   0.325 -2.2646 -1.7422 -3.5011
  412SOL     OW 1234   1.629   0.155   0.088  0.3072 -0.4244  0.2809
  412SOL    HW1 1235   1.676   0.142   0.180 -2.4350 -0.9214  2.0183
  412SOL    HW2 1236   1.675   0.096   0.021  0.2713 -0.4143 -1.3324
  413SOL     OW 1237   1.075   0.315   1.621 -0.0873 -0.0177 -0.0630
  413SOL    HW1 1238   1.157   0.263   1.650  2.6232  4.2834  1.0596
  413SOL    HW2 1239   0.994   0.295   1.687 -2.3557  1.3662  0.8859
  414SOL     OW 1240   0.273   1.243   0.161 -0.5988  0.0917  0.0298
  414SOL    HW1 1241   0.183   1.241   0.201 -0.8200 -2.1648  2.4544
  414SOL    HW2 1242   0.339   1.190   0.223 -0.0473 -0.2952  2.7086
  415SOL     OW 1243   2.821   1.531   0.148 -0.4285 -0.3248  0.8340
  415SOL    HW1 1244   2.914   1.524   0.109  0.2710 -1.8097  0.7654
  415SOL    HW2 1245   2.822   1.517   0.249  1.6337  1.4564  1.9529
  416SOL     OW 1246   2.619   0.509   0.045  0.3224  0.0655  0.1289
  416SOL    HW1 1247   2.590   0.545   3.037 -1.4527 -0.0528 -1.6609
  416SOL    HW2 1248   2.657   0.578   0.105 -2.3806 -5.4260  0.4105
  417SOL     OW 1249   2.600   2.806   0.447  0.9738 -0.2363  0.3283
  417SOL    HW1 1250   2.656   2.723   0.419  1.7654  2.4169 -1.0828
  417SOL    HW2 1251   2.529   2.832   0.377 -1.9619  1.5253  0.4777
  418SOL     OW 1252   0.210   0.312   0.118 -0.2396  0.3959  0.0738
  418SOL    HW1 1253   0.259   0.278   0.199  0.0024  1.6601 -0.9492
  418SOL    HW2 1254   0.217   0.412   0.102 -0.3327  1.7514  0.7158
  419SOL     OW 1255   0.686   0.751   0.837 -0.4597  0.1738 -0.3868
  419SOL    HW1 1256   0.737   0.806   0.906  1.2819  1.1288 -0.4728
  419SOL    HW2 1257   0.686   0.653   0.862 -1.4184  1.0983  1.2250
  420SOL     OW 1258   0.381   0.510   0.918 -0.3628 -0.0007  0.3033
  420SOL    HW1 1259   0.383   0.562   1.004 -0.3090  2.3085 -0.2910
  420SOL    HW2 1260   0.326   0.563   0.854 -0.1462 -1.2020  1.5781
  421SOL     OW 1261   0.673   2.053   0.151  0.0328 -0.1027 -0.1976
  421SOL    HW1 1262   0.653   1.962   0.109 -2.2261 -2.9139 -1.7978
  421SOL    HW2 1263   0.766   2.076   0.132 -1.5328 -1.6742 -0.0876
  422SOL     OW 1264   2.533   0.547   1.967 -0.5393 -0.4562 -0.2992
  422SOL    HW1 1265   2.580   0.534   2.057 -0.5944  3.0800 -1.2563
  422SOL    HW2 1266   2.434   0.530   1.972  2.7922  0.2623 -3.6203
  423SOL     OW 1267   1.873   2.189   0.092 -0.3625 -0.0997  0.3579
  423SOL    HW1 1268   1.932   2.111   0.055  2.4517  0.2009 -1.5431
  423SOL    HW2 1269   1.922   2.250   0.154 -3.2016 -2.0654 -0.3185
  424SOL     OW 1270   1.711   1.546   2.441 -0.1147  0.3241 -0.2981
  424SOL    HW1 1271   1.798   1.542   2.384  0.9675 -0.3349  0.3242
  424SOL    HW2 1272   1.674   1.457   2.469  0.1678 -0.6333 -0.1731
  425SOL     OW 1273   3.058   2.849   2.288 -0.5375 -0.0409 -0.1333
  425SOL    HW1 1274   2.960   2.834   2.310  1.5923  4.3441 -0.1110
  425SOL    HW2 1275   0.027   2.796   2.357  2.6278  0.2874 -1.5183
  426SOL     OW 1276   2.310   2.640   0.375 -0.1683 -0.3258  0.6143
  426SOL    HW1 1277   2.271   2.594   0.292 -1.7138 -0.6039 -2.2141
  426SOL    HW2 1278   2.344   2.736   0.351  2.8193 -1.4067  0.4105
  427SOL     OW 1279   0.573   1.261   2.518  0.1591  0.2448 -0.1102
  427SOL    HW1 1280   0.486   1.308   2.539 -0.3967 -1.3051 -4.4848
  427SOL    HW2 1281   0.587   1.176   2.571 -3.3686  0.7733 -2.0534
  428SOL     OW 1282   2.504   1.262   2.658 -0.1239 -0.1911  0.4619
  428SOL    HW1 1283   2.538   1.173   2.697 -0.0293 -1.2450 -0.8180
  428SOL    HW2 1284   2.412   1.284   2.694  0.5949  0.3665  0.4547
  429SOL     OW 1285   2.333   2.966   0.683 -0.1483  0.0930 -0.8451
  429SOL    HW1 1286   2.421   2.909   0.689  0.4677 -0.6416  0.2343
  429SOL    HW2 1287   2.324   2.997   0.588 -1.2071  0.9939  0.3875
  430SOL     OW 1288   1.475   1.907   2.421  0.3272  0.0798 -0.2640
  430SOL    HW1 1289   1.411   1.964   2.361  2.2256  2.3287 -0.6047
  430SOL    HW2 1290   1.483   1.948   2.510 -0.3157  0.5542 -1.3672
  431SOL     OW 1291   0.006   1.978   1.580 -0.4915  0.0649  0.3759
  431SOL    HW1 1292   3.025   1.905   1.565 -0.4843  1.7356  1.1679
  431SOL    HW2 1293   0.097   1.958   1.534  1.8903  1.5180 -0.5428
  432SOL     OW 1294   1.187   2.271   2.531  0.2627 -0.7249  0.3792
  432SOL    HW1 1295   1.241   2.244   2.612  0.8414  0.5547  0.5921
  432SOL    HW2 1296   1.250   2.282   2.454 -0.7213  0.8316  0.2682
  433SOL     OW 1297   0.894   2.662   0.777  0.2631 -0.2956 -0.0379
  433SOL    HW1 1298   0.950   2.593   0.722 -2.4486 -2.6148 -1.5302
  433SOL    HW2 1299   0.932   2.756   0.765  0.6068 -2.7141 -0.8916
  434SOL     OW 1300   0.332   2.083   2.368 -0.3991  0.2791  0.2034
  434SOL    HW1 1301   0.298   2.169   2.407  1.0830  2.3309  1.4570
  434SOL    HW2 1302   0.340   2.079   2.268 -0.1059  1.3183 -1.9733
  435SOL     OW 1303   0.443   1.345   0.740  0.0698 -0.1181 -0.9783
  435SOL    HW1 1304   0.500   1.405   0.680  0.3788  2.9695  2.1454
  435SOL    HW2 1305   0.367   1.390   0.794 -0.7796  0.7931 -0.1244
  436SOL     OW 1306   0.314   2.319   1.675 -0.4883  0.5169 -0.0670
  436SOL    HW1 1307   0.248   2.349   1.601  0.4039 -3.2457 -0.3949
  436SOL    HW2 1308   0.345   2.223   1.658 -3.2311  3.7795  3.1764
  437SOL     OW 1309   1.020   0.670   0.465 -0.2279  0.3467  0.3123
  437SOL    HW1 1310   0.950   0.746   0.473 -1.4008 -0.1254  0.2089
  437SOL    HW2 1311   1.088   0.687   0.390  0.1772  0.8861 -0.2597
  438SOL     OW 1312   0.337   2.157   0.808 -0.0677  0.0250 -0.6361
  438SOL    HW1 1313   0.253   2.189   0.853  1.5911 -3.0379  0.4467
  438SOL    HW2 1314   0.403   2.112   0.876  2.4404  1.6099 -0.6366
  439SOL     OW 1315   0.878   2.575   1.778  0.5877  0.3036 -0.0594
  439SOL    HW1 1316   0.805   2.550   1.844  0.9067 -3.0520  0.0660
  439SOL    HW2 1317   0.838   2.588   1.685  2.8057  2.1064  0.0488
  440SOL     OW 1318   1.549   0.146   1.631  0.6738  0.4035 -0.3139
  440SOL    HW1 1319   1.613   0.145   1.707 -0.8507  2.1164 -0.2906
  440SOL    HW2 1320   1.592   0.188   1.551 -1.3286 -3.8101  2.0580
  441SOL     OW 1321   0.565   0.234   1.492  0.4463  0.1330 -0.1548
  441SOL    HW1 1322   0.565   0.136   1.520  0.9472 -1.2113  1.6009
  441SOL    HW2 1323   0.507   0.252   1.413  1.0446 -0.4993 -0.6450
  442SOL     OW 1324   2.056   1.934   0.453  0.0821  0.2285  0.3547
  442SOL    HW1 1325   2.078   1.838   0.463 -0.5520  1.1264 -0.4480
  442SOL    HW2 1326   1.966   1.943   0.402 -1.9257 -2.1929 -1.3787
  443SOL     OW 1327   2.531   0.397   2.271  0.1530  0.1128  0.0727
  443SOL    HW1 1328   2.588   0.315   2.264 -1.1160  1.1041 -0.9154
  443SOL    HW2 1329   2.428   0.379   2.279 -2.0331  0.5808 -0.4323
  444SOL     OW 1330   2.167   1.074   1.681 -0.3334  0.2146  0.0779
  444SOL    HW1 1331   2.266   1.098   1.702  0.3158 -0.5489  1.3694
  444SOL    HW2 1332   2.134   1.003   1.746  0.4307  2.8696  0.0516
  445SOL     OW 1333   2.661   2.132   1.640  0.4975 -0.2278 -0.3823
  445SOL    HW1 1334   2.657   2.028   1.630  2.5959  1.5994 -1.1566
  445SOL    HW2 1335   2.756   2.166   1.646  1.0736  0.2543 -1.7143
  446SOL     OW 1336   2.874   1.394   0.767  0.5521  0.2129  0.8175
  446SOL    HW1 1337   2.973   1.377   0.736  0.9386  0.0056 -0.5369
  446SOL    HW2 1338   2.812   1.358   0.696 -0.5115  0.4650 -0.0851
  447SOL     OW 1339   1.171   1.623   0.734  0.0593  0.0988 -0.2525
  447SOL    HW1 1340   1.130   1.674   0.809  1.8690 -0.0133 -0.7712
  447SOL    HW2 1341   1.140   1.671   0.652  1.0070  3.6010 -0.9502
  448SOL     OW 1342   1.414   1.437   1.465 -0.0318 -0.1183 -0.2086
  448SOL    HW1 1343   1.508   1.460   1.486  1.1452 -1.1659 -2.6947
  448SOL    HW2 1344   1.401   1.451   1.367 -0.3574 -1.3101  0.2047
  449SOL     OW 1345   0.712   1.503   0.096  0.0547  0.2507 -0.3354
  449SOL    HW1 1346   0.693   1.520   0.197  2.5678 -0.3253  0.4531
  449SOL    HW2 1347   0.630   1.460   0.049  2.8102 -0.8250 -2.3338
  450SOL     OW 1348   2.334   2.199   2.202  0.2053  0.1023  0.2057
  450SOL    HW1 1349   2.311   2.171   2.107  3.6694 -0.7320  1.8270
  450SOL    HW2 1350   2.283   2.286   2.223 -0.3647 -1.9159 -0.4854
  451SOL     OW 1351   1.945   0.027   2.271 -0.5640 -0.2867  0.1299
  451SOL    HW1 1352   2.037   0.024   2.312 -5.1987  0.3145 -2.7758
  451SOL    HW2 1353   1.903   0.121   2.289 -0.2238  1.5257  0.5161
  452SOL     OW 1354   0.930   2.988   1.459  0.0901  0.0504 -0.5016
  452SOL    HW1 1355   0.941   2.935   1.374  0.2542  0.8949  0.7273
  452SOL    HW2 1356   0.883   3.083   1.446  0.1215  1.2524  2.5676
  453SOL     OW 1357   1.045   1.070   0.829  0.1985 -1.1509  0.0026
  453SOL    HW1 1358   0.958   1.058   0.776  0.1569 -1.3548  1.4187
  453SOL    HW2 1359   1.081   1.158   0.793 -2.5338 -0.0478  0.9588
  454SOL     OW 1360   0.597   1.125   0.856  0.2298 -0.8739  0.2272
  454SOL    HW1 1361   0.549   1.210   0.830 -1.6338  0.7086  1.8149
  454SOL    HW2 1362   0.623   1.126   0.956 -0.6210  0.2777  0.2391
  455SOL     OW 1363   2.967   2.895   2.982  0.4781  0.4846 -0.1766
  455SOL    HW1 1364   2.964   2.809   3.044  2.3346  1.1659  0.4734
  455SOL    HW2 1365   2.884   2.953   3.004 -2.3853 -0.7192  1.5870
  456SOL     OW 1366   2.403   2.014   0.990  0.5095  0.1277 -0.3022
  456SOL    HW1 1367   2.378   2.106   1.007 -1.5792 -4.1359 -0.0807
  456SOL    HW2 1368   2.480   2.009   0.923 -0.0170  0.2126  2.6380
  457SOL     OW 1369   1.400   0.104   0.217 -0.4670 -0.3905 -0.3852
  457SOL    HW1 1370   1.484   0.150   0.182 -0.2819 -2.5686  0.6376
  457SOL    HW2 1371   1.393   0.124   0.318  1.0732 -0.2349  2.7215
  458SOL     OW 1372   2.761   3.035   0.470 -0.2479 -0.3218 -0.3827
  458SOL    HW1 1373   2.821   3.051   0.546 -1.1124  3.5295 -0.8130
  458SOL    HW2 1374   2.714   2.945   0.467 -1.5487 -0.5975  2.3033
  459SOL     OW 1375   2.070   0.475   2.520 -0.7531  0.1325 -0.6071
  459SOL    HW1 1376   2.157   0.481   2.573 -2.4235  1.5659  0.5999
  459SOL    HW2 1377   2.023   0.383   2.540 -1.3267 -0.7920 -2.9428
  460SOL     OW 1378   2.741   3.024   3.049  0.0974 -0.2313  0.0531
  460SOL    HW1 1379   2.645   3.006   3.022  0.8048 -1.2038 -1.1454
  460SOL    HW2 1380   2.751   3.083   0.050 -2.1856  4.2814  1.0929
  461SOL     OW 1381   0.732   1.728   1.065 -0.4889 -0.2616 -0.2111
  461SOL    HW1 1382   0.786   1.715   1.151  1.4300 -0.5397 -0.0918
  461SOL    HW2 1383   0.757   1.656   0.995  0.8493 -1.0854  1.0883
  462SOL     OW 1384   2.585   2.997   1.761 -0.0105 -0.1486  0.7543
  462SOL    HW1 1385   2.592   2.971   1.859 -1.9832 -0.0282  0.0483
  462SOL    HW2 1386   2.629   0.001   1.750 -0.6339  0.8761  0.5437
  463SOL     OW 1387   2.910   1.110   0.262 -0.3776  0.0269 -0.2290
  463SOL    HW1 1388   2.816   1.130   0.294 -1.3359 -0.9519  0.1367
  463SOL    HW2 1389   2.966   1.192   0.254 -0.3583 -0.0070  1.9770
  464SOL     OW 1390   0.017   2.685   1.155  0.1239 -0.2090  0.5541
  464SOL    HW1 1391   3.039   2.651   1.077 -2.8337 -0.0159 -0.8974
  464SOL    HW2 1392   3.056   2.753   1.213 -0.4374 -1.9092 -0.7689
  465SOL     OW 1393   0.558   1.477   0.512  0.5434  0.0909 -0.2467
  465SOL    HW1 1394   0.467   1.484   0.465 -1.8933 -0.5696 -0.1010
  465SOL    HW2 1395   0.614   1.559   0.500  3.9023 -1.2346  2.1276
  466SOL     OW 1396   0.897   0.274   2.445 -0.5982  0.4376  0.0107
  466SOL    HW1 1397   0.942   0.225   2.520  1.2673  1.1214  0.7576
  466SOL    HW2 1398   0.918   0.372   2.448 -2.4504  0.6560  1.0170
  467SOL     OW 1399   1.064   0.851   2.513  0.2879 -0.2897 -0.5935
  467SOL    HW1 1400   1.019   0.887   2.430  0.5565 -0.3377 -1.0825
  467SOL    HW2 1401   1.158   0.811   2.493  3.2559 -1.4263 -3.9891
  468SOL     OW 1402   0.613   0.954   2.321  0.4687  0.4089  0.4469
  468SOL    HW1 1403   0.603   0.851   2.321  0.8388 -2.0721 -0.0926
  468SOL    HW2 1404   0.608   0.993   2.412  1.3157  1.6136 -2.8732
  469SOL     OW 1405   0.269   2.125   0.315  0.2946  0.2105 -0.1643
  469SOL    HW1 1406   0.367   2.131   0.344  0.4917  2.2789 -1.4625
  469SOL    HW2 1407   0.262   2.134   0.214 -1.3815 -1.1334  1.3480
  470SOL     OW 1408   2.882   2.019   2.677  0.8638 -0.4121 -0.7191
  470SOL    HW1 1409   2.835   1.988   2.762 -1.9314 -0.8784 -0.9233
  470SOL    HW2 1410   2.814   2.065   2.617  3.6800 -0.9014 -0.4102
  471SOL     OW 1411   1.886   0.689   2.135 -0.2916 -0.4579 -0.4366
  471SOL    HW1 1412   1.883   0.751   2.056 -0.0121  1.3204  1.6765
  471SOL    HW2 1413   1.802   0.630   2.152 -1.5677 -0.6006  2.0110
  472SOL     OW 1414   0.612   2.676   1.300  0.1266  0.2974  0.1260
  472SOL    HW1 1415   0.590   2.589   1.354  0.9407  1.7299  0.9532
  472SOL    HW2 1416   0.685   2.665   1.233 -2.4541 -1.8044  3.0148
  473SOL     OW 1417   0.727   0.012   2.621  0.2919 -0.5987  0.1456
  473SOL    HW1 1418   0.812   0.056   2.651 -2.1432  0.3047 -0.9538
  473SOL    HW2 1419   0.705   3.010   2.666 -0.8451  2.1409 -0.1463
  474SOL     OW 1420   1.994   3.034   1.829  0.0221 -0.5942  0.2346
  474SOL    HW1 1421   2.027   2.954   1.777  2.3401 -0.7202  0.1142
  474SOL    HW2 1422   1.970   3.003   1.920  0.8516 -0.2132  0.4794
  475SOL     OW 1423   1.894   0.215   1.000 -0.0599  0.3417  0.8164
  475SOL    HW1 1424   1.898   0.169   0.911 -0.1715  2.4319  0.1278
  475SOL    HW2 1425   1.973   0.188   1.056 -1.8588  3.7340  1.0692
  476SOL     OW 1426   0.659   0.496   0.921 -0.0023 -0.5647 -0.0581
  476SOL    HW1 1427   0.562   0.488   0.887  1.4712  2.5507 -2.2303
  476SOL    HW2 1428   0.684   0.439   1.003  0.1343  0.4416 -1.0241
  477SOL     OW 1429   1.283   2.501   0.631 -1.0614  0.3871  0.0467
  477SOL    HW1 1430   1.336   2.505   0.718 -0.2197 -0.4724  0.9753
  477SOL    HW2 1431   1.181   2.484   0.648  2.8081  2.9582 -0.5564
  478SOL     OW 1432   0.185   2.295   2.444 -0.0039  0.1441  0.4214
  478SOL    HW1 1433   0.147   2.284   2.351  1.9356 -1.6968  1.8383
  478SOL    HW2 1434   0.227   2.388   2.462  0.7643 -2.0894 -0.0111
  479SOL     OW 1435   2.822   0.255   1.098 -0.3486 -0.0549 -0.4679
  479SOL    HW1 1436   2.769   0.343   1.107 -0.2383 -0.7048  1.8400
  479SOL    HW2 1437   2.887   0.243   1.174 -0.3800 -1.8427 -1.0889
  480SOL     OW 1438   0.270   2.712   0.317  0.0875 -0.3278  0.2941
  480SOL    HW1 1439   0.356   2.729   0.373  2.7320  0.1112 -0.9849
  480SOL    HW2 1440   0.223   2.798   0.286  0.6618 -0.7236  1.3264
  481SOL     OW 1441   2.248   2.053   1.412 -0.4166  0.3923  0.2879
  481SOL    HW1 1442   2.322   2.041   1.343 -1.2889  0.7709 -0.6288
  481SOL    HW2 1443   2.164   2.011   1.372 -0.6693 -0.2370 -1.3612
  482SOL     OW 1444   1.005   2.415   2.949  0.5491 -0.3682 -0.0891
  482SOL    HW1 1445   1.011   2.412   2.852  0.2331  0.9876  2.3378
  482SOL    HW2 1446   0.920   2.463   2.978  0.2491 -2.2784  2.2818
  483SOL     OW 1447   0.483   2.438   2.253 -0.4412 -0.5182 -0.2790
  483SOL    HW1 1448   0.391   2.399   2.248 -2.0309  0.1971  2.9164
  483SOL    HW2 1449   0.531   2.407   2.167  1.2728  0.3281  1.1562
  484SOL     OW 1450   1.225   0.532   1.589  0.6190  0.4389 -0.2474
  484SOL    HW1 1451   1.255   0.579   1.672 -0.2691 -0.9376  1.8156
  484SOL    HW2 1452   1.158   0.457   1.604 -1.2298  1.6024  1.8477
  485SOL     OW 1453   2.023   1.064   2.449  0.1680  0.5792 -0.5685
  485SOL    HW1 1454   2.030   0.992   2.376 -0.0890 -1.1429  0.1634
  485SOL    HW2 1455   1.948   1.128   2.429 -3.4101 -2.9424  2.2620
  486SOL     OW 1456   2.349   2.853   1.137  0.3509  0.2121  0.0188
  486SOL    HW1 1457   2.296   2.776   1.088 -2.1208 -1.5561 -1.2137
  486SOL    HW2 1458   2.445   2.854   1.101 -0.7159  0.4474  0.2976
  487SOL     OW 1459   0.802   2.286   1.748 -0.3963  0.2312  0.1693
  487SOL    HW1 1460   0.709   2.323   1.718 -4.7687  1.2155 -1.2525
  487SOL    HW2 1461   0.875   2.277   1.676  0.3427  2.4523  0.5723
  488SOL     OW 1462   2.694   1.367   2.863  0.0108 -0.4176  0.1842
  488SOL    HW1 1463   2.632   1.341   2.786  1.3548  3.4395 -0.0969
  488SOL    HW2 1464   2.658   1.343   2.951  3.1623  2.1150  0.7299
  489SOL     OW 1465   2.312   0.023   1.072 -0.4060 -0.2721 -0.3326
  489SOL    HW1 1466   2.353   0.035   0.982 -0.6953  2.2945 -0.0541
  489SOL    HW2 1467   2.309   3.011   1.100 -0.3888 -0.0145  2.4432
  490SOL     OW 1468   1.067   1.338   0.101  0.2898 -0.0530  0.1102
  490SOL    HW1 1469   1.141   1.350   0.166  0.9424  0.1543 -0.8323
  490SOL    HW2 1470   1.018   1.424   0.083  0.7702 -0.9258 -1.2316
  491SOL     OW 1471   0.506   2.246   1.239 -0.7166 -0.4387  0.3399
  491SOL    HW1 1472   0.405   2.229   1.250 -1.2232 -1.6389  0.9877
  491SOL    HW2 1473   0.558   2.163   1.261 -0.9136 -0.3606  0.9687
  492SOL     OW 1474   0.944   1.665   1.844  0.5322  0.0376  0.0096
  492SOL    HW1 1475   1.017   1.595   1.838  2.5051  1.1543 -1.0638
  492SOL    HW2 1476   0.981   1.752   1.806 -0.5763 -3.9568  0.0591
  493SOL     OW 1477   2.659   2.274   0.927 -0.3305  0.2540  0.4256
  493SOL    HW1 1478   2.727   2.319   0.985 -1.4965  0.3661 -1.6132
  493SOL    HW2 1479   2.672   2.177   0.902  0.3877  0.2847  0.1091
  494SOL     OW 1480   2.950   2.104   0.494 -0.1977  0.7811 -0.2799
  494SOL    HW1 1481   2.907   2.032   0.554  1.8010 -0.0647  0.6622
  494SOL    HW2 1482   2.907   2.109   0.398  0.3481  2.3982 -0.2485
  495SOL     OW 1483   2.902   2.666   0.053 -0.0993  0.2853  0.1548
  495SOL    HW1 1484   2.818   2.611   0.023  2.2287  0.7759 -1.2394
  495SOL    HW2 1485   2.961   2.618   0.126 -1.3661 -2.3804  0.7419
  496SOL     OW 1486   2.628   0.250   1.337  0.6740  1.0937  0.4062
  496SOL    HW1 1487   2.565   0.222   1.261  0.2790 -1.9297  0.1127
  496SOL    HW2 1488   2.678   0.331   1.308 -3.5700 -1.1952 -2.5166
  497SOL     OW 1489   2.849   1.058   2.950 -0.1051 -0.1910 -0.4875
  497SOL    HW1 1490   2.920   0.986   2.943 -2.3646 -1.1201  0.7059
  497SOL    HW2 1491   2.887   1.145   2.911  1.3910  0.8536 -0.7438
  498SOL     OW 1492   2.853   1.832   1.862 -0.0296 -0.1073  0.0506
  498SOL    HW1 1493   2.803   1.791   1.937 -2.1648  1.5888 -1.0647
  498SOL    HW2 1494   2.939   1.876   1.895  0.1834 -0.3698 -0.1525
  499SOL     OW 1495   0.697   2.553   2.755  0.4028 -0.0259 -0.7122
  499SOL    HW1 1496   0.646   2.534   2.672  0.6561  0.2676 -0.1647
  499SOL    HW2 1497   0.705   2.473   2.813  1.3096  2.7086 -3.0018
  500SOL     OW 1498   1.932   0.578   2.961  0.0883 -0.1123 -1.1040
  500SOL    HW1 1499   1.963   0.649   3.028 -2.3431  3.2264 -1.6234
  500SOL    HW2 1500   1.933   0.485   3.008  1.8387 -1.0528 -1.7103
  501SOL     OW 1501   1.299   0.220   1.743  0.2575 -0.0427 -0.0636
  501SOL    HW1 1502   1.322   0.265   1.829 -1.8489 -1.2094 -2.2273
  501SOL    HW2 1503   1.377   0.214   1.676 -1.2388 -0.5104 -0.9699
  502SOL     OW 1504   2.496   0.781   1.693  0.2899  0.1224 -0.2256
  502SOL    HW1 1505   2.555   0.699   1.678  3.8706 -2.0462  2.1865
  502SOL    HW2 1506   2.413   0.788   1.633 -1.1833 -0.4157  2.0984
  503SOL     OW 1507   2.256   1.932   2.210 -0.0614 -0.1322 -0.3634
  503SOL    HW1 1508   2.286   2.030   2.209 -1.5606 -1.1285 -0.2053
  503SOL    HW2 1509   2.157   1.936   2.198  3.1936 -0.4389  2.1495
  504SOL     OW 1510   1.572   0.985   1.463  0.0881  0.4021 -0.0806
  504SOL    HW1 1511   1.573   1.049   1.542 -0.6773 -0.2367 -1.7545
  504SOL    HW2 1512   1.491   0.920   1.470  0.3067  0.7609  0.4256
  505SOL     OW 1513   0.782   0.673   1.586 -0.0015 -0.4983  0.6190
  505SOL    HW1 1514   0.751   0.576   1.608  0.9395 -2.4263 -0.4158
  505SOL    HW2 1515   0.762   0.736   1.664 -2.7799 -1.4557  0.7141
  506SOL     OW 1516   0.398   0.209   2.846  0.1308  0.0451 -0.0474
  506SOL    HW1 1517   0.351   0.133   2.895 -0.0474 -1.2917 -0.6024
  506SOL    HW2 1518   0.440   0.281   2.907 -1.9046  0.3678 -1.7239
  507SOL     OW 1519   0.174   0.094   0.404 -0.4131  0.3856 -0.3144
  507SOL    HW1 1520   0.168   0.137   0.501  3.7673  0.2670  1.3717
  507SOL    HW2 1521   0.249   0.023   0.404 -0.4642  0.9399  0.4784
  508SOL     OW 1522   0.813   0.805   1.862  0.2686  0.3849 -0.1588
  508SOL    HW1 1523   0.846   0.880   1.801 -1.1524 -0.7984 -1.0046
  508SOL    HW2 1524   0.895   0.755   1.899  1.8074  0.0212 -1.4890
  509SOL     OW 1525   1.476   2.179   1.046 -0.3312 -0.0845  0.1040
  509SOL    HW1 1526   1.460   2.104   1.112 -2.0110 -1.4140  0.6467
  509SOL    HW2 1527   1.482   2.141   0.949  3.7382  0.6856 -0.5488
  510SOL     OW 1528   2.642   1.449   1.900 -0.5086  0.0549 -0.1850
  510SOL    HW1 1529   2.659   1.463   1.799  0.4092 -1.1472  0.7141
  510SOL    HW2 1530   2.675   1.525   1.961 -4.1738  1.2083 -1.4857
  511SOL     OW 1531   0.950   2.210   1.529  1.0449  0.6452  0.0285
  511SOL    HW1 1532   1.044   2.186   1.504  0.4172  0.2742  0.7465
  511SOL    HW2 1533   0.893   2.120   1.546 -1.6539 -1.7488 -0.2137
  512SOL     OW 1534   2.896   1.668   0.723  0.1194  0.0506  0.6419
  512SOL    HW1 1535   2.874   1.569   0.746 -3.2010 -0.5139 -3.2620
  512SOL    HW2 1536   2.993   1.693   0.715  1.2984 -1.8069  0.4448
  513SOL     OW 1537   0.082   1.722   2.845 -0.2021  0.4627 -0.0564
  513SOL    HW1 1538   0.105   1.812   2.892  1.1145 -0.5478  1.6289
  513SOL    HW2 1539   0.127   1.642   2.889 -1.4309 -2.5091 -1.8321
  514SOL     OW 1540   2.711   2.209   2.528  0.5758  0.4912  0.5972
  514SOL    HW1 1541   2.812   2.240   2.528  2.6412  4.0757 -0.5509
  514SOL    HW2 1542   2.674   2.235   2.435 -1.1178  2.6367  2.0984
  515SOL     OW 1543   2.397   0.983   0.677  0.3506  0.0108  0.1999
  515SOL    HW1 1544   2.354   0.900   0.639 -0.1571  1.7515 -2.4991
  515SOL    HW2 1545   2.492   0.967   0.712 -0.9001  0.1616 -1.2725
  516SOL     OW 1546   2.471   1.836   0.071  0.1463  0.3529  0.2823
  516SOL    HW1 1547   2.412   1.761   0.043  1.1893  2.6817 -1.1709
  516SOL    HW2 1548   2.566   1.810   0.032  0.5254  0.3806  0.2586
  517SOL     OW 1549   0.632   1.318   2.920 -0.4844 -0.3078 -0.4295
  517SOL    HW1 1550   0.697   1.344   2.841 -0.2912  0.5531 -2.0930
  517SOL    HW2 1551   0.687   1.262   2.987  0.4586  0.3981  1.3946
  518SOL     OW 1552   2.727   0.204   2.288  0.4415 -0.7119  0.5709
  518SOL    HW1 1553   2.816   0.249   2.306 -0.6218  3.1024  1.1924
  518SOL    HW2 1554   2.726   0.113   2.324 -1.5573  1.8840  2.2143
  519SOL     OW 1555   1.581   1.348   2.774  0.2137 -0.4259 -0.1263
  519SOL    HW1 1556   1.491   1.317   2.806 -1.9512 -1.9905 -0.3011
  519SOL    HW2 1557   1.622   1.417   2.840 -1.3541  1.0064  0.0085
  520SOL     OW 1558   2.806   2.751   2.327 -0.0614  0.0318 -0.4054
  520SOL    HW1 1559   2.767   2.709   2.242 -0.5895  0.7761 -0.4396
  520SOL    HW2 1560   2.779   2.693   2.406 -0.8080  2.3527  0.0684
  521SOL     OW 1561   0.564   1.653   2.135 -0.5681 -0.5283  0.2335
  521SOL    HW1 1562   0.569   1.742   2.181  0.2809 -2.4131 -2.0913
  521SOL    HW2 1563   0.478   1.600   2.164 -3.0592 -1.8295  2.3698
  522SOL     OW 1564   1.002   2.761   1.966  0.3353 -0.5646 -0.1259
  522SOL    HW1 1565   0.965   2.705   1.892  0.8217  2.6526  1.7051
  522SOL    HW2 1566   0.950   2.846   1.980  1.2622  1.6002 -1.7229
  523SOL     OW 1567   2.661   2.142   1.354  0.2536 -0.1222 -0.2087
  523SOL    HW1 1568   2.667   2.235   1.318  0.4115  1.5038  0.2014
  523SOL    HW2 1569   2.680   2.152   1.454 -0.1316 -0.9515 -0.8553
  524SOL     OW 1570   1.656   2.440   0.699  0.7826 -0.1389  0.4913
  524SOL    HW1 1571   1.554   2.435   0.715 -3.4291 -0.8195  1.5656
  524SOL    HW2 1572   1.672   2.426   0.598 -0.2091 -0.7900  0.3277
  525SOL     OW 1573   2.664   0.502   0.819 -0.5612  0.0081 -0.4665
  525SOL    HW1 1574   2.620   0.594   0.823 -0.4762  0.3261  0.8877
  525SOL    HW2 1575   2.598   0.433   0.837 -2.5123  2.4724  2.2184
  526SOL     OW 1576   1.544   2.600   1.084 -0.6142 -0.0078  0.3711
  526SOL    HW1 1577   1.504   2.524   1.137 -0.8500  0.4937 -0.6075
  526SOL    HW2 1578   1.646   2.611   1.096  3.2413  1.7009 -1.4532
  527SOL     OW 1579   2.193   1.972   0.807  0.4038  0.4399  0.7669
  527SOL    HW1 1580   2.257   2.000   0.877 -0.1568 -0.2822 -0.8090
  527SOL    HW2 1581   2.169   1.876   0.822 -1.2646  0.1825  1.3237
  528SOL     OW 1582   2.041   3.049   2.642  0.1656 -0.0012  0.2927
  528SOL    HW1 1583   1.964   2.981   2.672 -1.1082 -0.9227 -0.0277
  528SOL    HW2 1584   2.133   3.034   2.687  0.3500  1.4401  0.6490
  529SOL     OW 1585   1.518   1.552   2.193  0.0666 -0.9949  0.3251
  529SOL    HW1 1586   1.546   1.531   2.286  0.6231  1.4717 -0.8720
  529SOL    HW2 1587   1.599   1.591   2.140  1.6085  1.7912 -3.5928
  530SOL     OW 1588   2.196   1.155   2.261 -0.1875 -0.5596 -0.0963
  530SOL    HW1 1589   2.266   1.135   2.188 -0.2700  0.5067 -1.3634
  530SOL    HW2 1590   2.139   1.074   2.280 -1.5930  1.9066  2.4814
  531SOL     OW 1591   0.459   0.811   3.000 -0.3614 -0.1318  0.2795
  531SOL    HW1 1592   0.527   0.810   3.075 -2.5289 -0.0295 -0.7408
  531SOL    HW2 1593   0.383   0.871   3.032  0.8194 -1.2170  0.2993
  532SOL     OW 1594   1.467   1.599   0.640 -0.3344  0.0003  0.2172
  532SOL    HW1 1595   1.540   1.624   0.702 -1.2552  2.7652 -1.6221
  532SOL    HW2 1596   1.378   1.608   0.686  4.4114 -1.1530  1.2692
  533SOL     OW 1597   0.239   0.723   1.957  0.0572  0.3326 -0.1525
  533SOL    HW1 1598   0.276   0.635   1.918 -0.8260 -1.2284 -1.4034
  533SOL    HW2 1599   0.290   0.742   2.046 -0.8003 -1.6743  2.0355
  534SOL     OW 1600   1.269   0.572   2.406 -0.1749  0.0221  0.2629
  534SOL    HW1 1601   1.312   0.488   2.442 -0.4513 -0.8670 -1.4533
  534SOL    HW2 1602   1.299   0.655   2.455  0.4096 -1.2121 -1.4336
  535SOL     OW 1603   0.460   0.510   0.186  0.7192  0.3887 -0.0805
  535SOL    HW1 1604   0.444   0.409   0.204 -0.7453 -0.4929  2.0043
  535SOL    HW2 1605   0.403   0.571   0.245 -0.2998 -2.9383 -1.9055
  536SOL     OW 1606   0.757   0.307   3.013  1.0664  0.6004  0.1124
  536SOL    HW1 1607   0.811   0.377   3.063  2.2171  1.4844  0.4482
  536SOL    HW2 1608   0.745   0.218   3.063 -1.3852 -1.3402  2.5431
  537SOL     OW 1609   1.362   3.064   1.505  0.0643 -0.5461  0.4328
  537SOL    HW1 1610   1.302   3.006   1.562 -0.8941 -1.3481  0.8972
  537SOL    HW2 1611   1.409   0.051   1.557  2.7952  0.0971  0.0155
  538SOL     OW 1612   0.398   2.837   3.070 -0.1187 -0.5870  0.8179
  538SOL    HW1 1613   0.383   2.888   2.975 -1.6718 -0.2120 -1.0476
  538SOL    HW2 1614   0.306   2.834   0.025  0.4587 -0.7780  2.0358
  539SOL     OW 1615   2.698   1.151   1.905 -0.5126 -0.2411  0.2522
  539SOL    HW1 1616   2.775   1.125   1.838 -0.2802  2.4030 -1.8405
  539SOL    HW2 1617   2.676   1.251   1.896 -0.3777  0.9992  0.0822
  540SOL     OW 1618   2.113   1.792   1.538 -0.3797 -0.6206 -0.2900
  540SOL    HW1 1619   2.191   1.754   1.484  0.7735  1.8465  1.2331
  540SOL    HW2 1620   2.153   1.815   1.627 -1.1538  1.7888  1.3522
  541SOL     OW 1621   0.562   2.405   1.702  0.4016  0.0321 -0.2243
  541SOL    HW1 1622   0.479   2.353   1.718  1.5146  0.6713 -2.2156
  541SOL    HW2 1623   0.551   2.501   1.737  0.0694 -1.7188 -2.7778
  542SOL     OW 1624   2.341   0.831   1.921 -0.0491 -0.3521 -0.1391
  542SOL    HW1 1625   2.394   0.793   1.844 -0.6729  0.2514  0.1355
  542SOL    HW2 1626   2.246   0.868   1.902 -1.0020  0.9959 -2.4831
  543SOL     OW 1627   1.080   0.510   0.713 -0.3306  0.1639 -0.0507
  543SOL    HW1 1628   1.068   0.582   0.642  0.2787 -3.1056 -0.2417
  543SOL    HW2 1629   1.058   0.549   0.805 -2.7440 -0.2685  0.1545
  544SOL     OW 1630   2.046   2.090   1.198  0.0285 -0.2291 -0.2433
  544SOL    HW1 1631   2.046   1.997   1.151  2.7457 -1.8227 -0.6036
  544SOL    HW2 1632   2.027   2.172   1.140  1.2764 -0.5523 -0.6351
  545SOL     OW 1633   1.403   1.323   1.179  0.7160 -0.0136  0.2182
  545SOL    HW1 1634   1.420   1.243   1.115 -1.0810 -1.6285 -1.5764
  545SOL    HW2 1635   1.489   1.366   1.218  0.6323 -0.8962 -0.8162
  546SOL     OW 1636   0.057   0.010   2.889  0.0301 -0.2543 -0.3721
  546SOL    HW1 1637   3.072   3.029   2.916  1.9565  1.5278 -1.7230
  546SOL    HW2 1638   0.039   0.094   2.943  2.2644 -3.7004 -5.4652
  547SOL     OW 1639   2.282   0.525   2.683 -0.4682 -0.4228 -0.0273
  547SOL    HW1 1640   2.291   0.500   2.785 -1.2271 -1.1108  3.7024
  547SOL    HW2 1641   2.328   0.612   2.656 -1.5074 -1.2346 -0.7417
  548SOL     OW 1642   2.495   2.060   2.628 -0.1834 -0.2691  0.7475
  548SOL    HW1 1643   2.404   2.107   2.619  0.4625 -0.1729 -2.2058
  548SOL    HW2 1644   2.567   2.130   2.605  0.1303 -0.7194 -2.1679
  549SOL     OW 1645   2.424   0.092   0.843 -0.4702  0.4260  0.1855
  549SOL    HW1 1646   2.528   0.105   0.857 -0.2280  1.1664  0.5255
  549SOL    HW2 1647   2.404   0.013   0.775  2.3270 -2.0573  0.3495
  550SOL     OW 1648   2.647   0.963   0.055  0.1131 -0.4085 -0.4600
  550SOL    HW1 1649   2.718   1.009   3.078  1.6501  1.0389 -2.1414
  550SOL    HW2 1650   2.587   1.035   0.102 -1.6021  3.5089 -0.1189
  551SOL     OW 1651   1.309   2.624   1.320  0.1974  0.0426  0.0628
  551SOL    HW1 1652   1.345   2.537   1.279 -1.5874 -1.6857 -0.1101
  551SOL    HW2 1653   1.300   2.697   1.245 -1.1377  0.8446 -3.7051
  552SOL     OW 1654   2.804   2.718   2.824 -0.2915  0.2682 -0.0934
  552SOL    HW1 1655   2.889   2.769   2.840  1.5348 -0.5961  1.9457
  552SOL    HW2 1656   2.741   2.729   2.902 -1.9255 -2.9284  1.8592
  553SOL     OW 1657   0.637   2.977   0.566  0.0494 -0.3618 -0.2288
  553SOL    HW1 1658   0.634   3.020   0.664  0.0863  0.5206 -0.8435
  553SOL    HW2 1659   0.735   2.975   0.541 -3.3860  1.1596 -0.7072
  554SOL     OW 1660   1.790   2.168   1.646  0.3243  0.1442 -0.3397
  554SOL    HW1 1661   1.768   2.224   1.730 -0.0072  1.3672 -0.3738
  554SOL    HW2 1662   1.768   2.219   1.560 -0.2718  1.9419  1.6350
  555SOL     OW 1663   1.290   2.606   2.034 -0.4714 -0.0437  0.4771
  555SOL    HW1 1664   1.265   2.624   1.933  0.6593 -0.1341  0.0213
  555SOL    HW2 1665   1.302   2.691   2.087 -0.3409  0.4357 -2.1485
  556SOL     OW 1666   1.691   1.624   0.799  0.1635  0.3880  0.2710
  556SOL    HW1 1667   1.714   1.592   0.895  1.1414 -0.7054 -0.8121
  556SOL    HW2 1668   1.767   1.681   0.766  1.8984  0.0385 -2.0054
  557SOL     OW 1669   1.447   1.978   1.861  0.0424  0.0174  0.2803
  557SOL    HW1 1670   1.377   2.037   1.824  1.3070 -2.3603  0.4656
  557SOL    HW2 1671   1.490   2.004   1.946  0.9870  1.6779 -0.0385
  558SOL     OW 1672   3.082   0.803   2.256  0.0990  0.4764 -0.1621
  558SOL    HW1 1673   0.074   0.807   2.192  1.6316  1.1895  0.6762
  558SOL    HW2 1674   3.051   0.890   2.292  3.1651  1.5460 -1.0562
  559SOL     OW 1675   2.149   2.722   2.099  0.1144 -0.2884  1.3598
  559SOL    HW1 1676   2.164   2.630   2.058 -0.7257 -0.5989  0.8381
  559SOL    HW2 1677   2.158   2.717   2.197 -1.8600  0.7687  1.4868
  560SOL     OW 1678   0.308   3.040   2.907 -0.7142 -0.0447  0.1336
  560SOL    HW1 1679   0.329   3.084   2.996  0.2584  2.8407 -1.3285
  560SOL    HW2 1680   0.204   3.052   2.896 -4.3179  1.1835  1.9235
  561SOL     OW 1681   1.594   1.068   0.334 -0.0176  0.0541 -0.0903
  561SOL    HW1 1682   1.517   1.031   0.275 -1.8794 -0.4628  0.8611
  561SOL    HW2 1683   1.570   1.062   0.432 -1.3981  0.8449 -1.8386
  562SOL     OW 1684   0.828   1.122   2.306 -0.3795 -0.3640  0.4634
  562SOL    HW1 1685   0.743   1.064   2.298  1.2801  1.6395  2.2363
  562SOL    HW2 1686   0.813   1.215   2.341 -0.2105 -2.3573 -0.7779
  563SOL     OW 1687   1.642   2.436   0.181 -0.2678  0.2976 -0.1089
  563SOL    HW1 1688   1.649   2.364   0.106 -0.8667  0.8219  0.8726
  563SOL    HW2 1689   1.544   2.461   0.181  2.8137  2.7719  1.7877
  564SOL     OW 1690   0.101   1.995   0.460  0.0297  0.1529  0.0790
  564SOL    HW1 1691   0.164   2.035   0.388  0.5045 -0.6602 -1.1422
  564SOL    HW2 1692   0.023   2.061   0.471  1.0851 -0.3631  1.3573
  565SOL     OW 1693   0.826   2.634   3.039  0.5854 -0.0254 -0.1727
  565SOL    HW1 1694   0.726   2.613   3.044 -1.7187 -2.2580 -1.0209
  565SOL    HW2 1695   0.834   2.718   2.986 -1.1717  2.2666  0.0093
  566SOL     OW 1696   2.020   2.692   2.919  0.1576  0.1037 -0.2138
  566SOL    HW1 1697   2.036   2.615   2.855 -2.4291 -0.3011  1.1879
  566SOL    HW2 1698   1.930   2.683   2.961 -1.8020 -1.2432  0.1945
  567SOL     OW 1699   2.598   1.371   0.878 -0.0869  0.2016  0.2334
  567SOL    HW1 1700   2.692   1.336   0.859  0.0702  1.4905 -3.2014
  567SOL    HW2 1701   2.553   1.419   0.794  3.0525  2.1954 -1.8982
  568SOL     OW 1702   2.025   1.270   2.659 -0.0708 -0.1601  0.1129
  568SOL    HW1 1703   2.077   1.246   2.571 -1.4905  1.0527 -2.7904
  568SOL    HW2 1704   1.926   1.244   2.647 -0.9066 -1.2953 -1.5786
  569SOL     OW 1705   2.086   1.594   2.471  0.2457  0.1562 -0.5986
  569SOL    HW1 1706   2.167   1.635   2.428 -2.3676 -0.5973 -0.2205
  569SOL    HW2 1707   2.054   1.525   2.408  1.1393  0.9333  1.0206
  570SOL     OW 1708   2.957   2.481   2.046  0.1395 -0.4497  0.7339
  570SOL    HW1 1709   2.975   2.499   2.147 -1.9126  0.4587  0.3986
  570SOL    HW2 1710   2.921   2.562   1.996 -1.5731 -0.7998 -1.1058
  571SOL     OW 1711   0.387   0.091   1.803 -0.4144  0.1852 -0.4114
  571SOL    HW1 1712   0.368   0.188   1.780  0.8851  1.4287 -0.2318
  571SOL    HW2 1713   0.311   0.032   1.842  0.7577 -3.7960  1.3795
  572SOL     OW 1714   0.990   1.799   0.896  0.4381 -0.0888 -0.6560
  572SOL    HW1 1715   0.956   1.858   0.822  3.4943 -0.5479  1.1601
  572SOL    HW2 1716   1.004   1.836   0.989 -1.0420 -0.1734  1.7378
  573SOL     OW 1717   1.260   0.393   0.364  0.0037  0.6797 -0.0788
  573SOL    HW1 1718   1.159   0.390   0.360  1.4700  2.5293 -0.4880
  573SOL    HW2 1719   1.293   0.440   0.281 -2.5440 -1.7028  2.4030
  574SOL     OW 1720   0.387   3.021   0.418  0.3787  0.3013  0.9401
  574SOL    HW1 1721   0.420   3.013   0.322 -0.5721  0.0849  1.8447
  574SOL    HW2 1722   0.458   2.985   0.486 -0.9989 -0.7638  0.2801
  575SOL     OW 1723   0.411   1.481   1.229  0.1052  0.2896 -0.0020
  575SOL    HW1 1724   0.402   1.523   1.137 -0.5913  0.7067 -1.4635
  575SOL    HW2 1725   0.505   1.442   1.236 -2.2988  1.1671  2.0144
  576SOL     OW 1726   2.691   0.231   2.010 -0.6116 -0.3429  0.2885
  576SOL    HW1 1727   2.694   0.240   2.110 -2.2341  0.5293 -0.0970
  576SOL    HW2 1728   2.726   0.319   1.975  0.0544  0.9074  1.5166
  577SOL     OW 1729   2.697   1.679   2.052  0.0579 -1.0737  0.1341
  577SOL    HW1 1730   2.593   1.698   2.051 -1.8702 -0.6410  2.1397
  577SOL    HW2 1731   2.734   1.689   2.149  1.9445  0.9525  3.1786
  578SOL     OW 1732   0.879   2.985   2.045  0.4217 -0.2763 -0.3284
  578SOL    HW1 1733   0.935   3.028   2.118 -1.5077 -4.6849  0.2692
  578SOL    HW2 1734   0.780   2.990   2.070  0.7241  0.8036 -0.9344
  579SOL     OW 1735   1.996   2.000   2.072 -0.3394  0.5239 -0.0491
  579SOL    HW1 1736   1.898   1.968   2.067 -2.8633  0.6573  2.0493
  579SOL    HW2 1737   2.019   2.067   2.000  0.3818 -0.3211  0.3008
  580SOL     OW 1738   1.781   1.245   2.034 -0.2875 -0.1111 -0.0918
  580SOL    HW1 1739   1.769   1.237   1.933 -2.1382 -0.3414  0.0311
  580SOL    HW2 1740   1.813   1.159   2.081  0.4673 -2.3834  2.4121
  581SOL     OW 1741   1.492   1.120   2.371 -0.1902  0.4192 -0.0758
  581SOL    HW1 1742   1.472   1.184   2.294 -0.8221  1.0176 -1.7024
  581SOL    HW2 1743   1.511   1.018   2.345 -0.2416  1.7688 -0.0526
  582SOL     OW 1744   2.938   2.207   1.614  0.0607  0.2309  0.3326
  582SOL    HW1 1745   3.012   2.146   1.591 -5.1252 -0.7591  2.1432
  582SOL    HW2 1746   2.934   2.226   1.712 -0.6757  0.9211 -1.6477
  583SOL     OW 1747   1.629   0.815   0.672  0.2461 -0.0081 -0.1720
  583SOL    HW1 1748   1.710   0.770   0.713  0.1425  0.5182 -0.0079
  583SOL    HW2 1749   1.604   0.769   0.583 -0.4503 -0.1320  1.5153
  584SOL     OW 1750   0.900   2.434   0.369 -0.3016 -0.4361  0.2054
  584SOL    HW1 1751   0.807   2.476   0.373  0.4197 -0.4099 -1.4331
  584SOL    HW2 1752   0.942   2.456   0.279 -1.6103 -0.8125  2.7845
  585SOL     OW 1753   0.040   2.427   3.006 -0.4104  0.1372 -0.3809
  585SOL    HW1 1754   3.044   2.417   2.948 -2.0318 -1.0574  1.6129
  585SOL    HW2 1755   0.116   2.478   2.958  1.6751 -0.0354  1.2358
  586SOL     OW 1756   2.380   1.095   0.374  0.5453 -0.2605  0.0720
  586SOL    HW1 1757   2.368   1.073   0.467  3.2707  0.3174 -4.3296
  586SOL    HW2 1758   2.360   1.197   0.368 -1.6929  0.3644  1.0766
  587SOL     OW 1759   3.045   1.471   0.444  0.2845  0.1377  0.7641
  587SOL    HW1 1760   0.013   1.556   0.452  0.6445  0.8260 -0.4156
  587SOL    HW2 1761   0.004   1.401   0.495 -3.3451 -1.6478  0.3060
  588SOL     OW 1762   3.063   0.551   0.625 -0.3602  0.0361  0.0083
  588SOL    HW1 1763   3.082   0.614   0.546  2.0686 -3.3879 -1.2774
  588SOL    HW2 1764   3.058   0.456   0.586 -0.4216 -1.3516  0.7173
  589SOL     OW 1765   1.399   2.930   0.864  0.7160  0.1541 -0.2898
  589SOL    HW1 1766   1.368   2.861   0.935 -0.3773 -1.8692  2.5144
  589SOL    HW2 1767   1.344   3.017   0.877 -1.4360  1.5507 -0.6918
  590SOL     OW 1768   2.448   2.231   0.237 -0.2356  0.1787 -0.1163
  590SOL    HW1 1769   2.361   2.184   0.268 -1.4944  0.4526  1.9435
  590SOL    HW2 1770   2.477   2.305   0.303  2.8514 -0.9527 -0.2806
  591SOL     OW 1771   0.338   2.339   1.943 -0.5833 -0.0522  0.5683
  591SOL    HW1 1772   0.431   2.312   1.972 -1.0235  0.4645 -1.0797
  591SOL    HW2 1773   0.321   2.334   1.844  0.4633  2.6620  1.7928
  592SOL     OW 1774   0.342   1.520   2.179  0.8280 -0.2340 -0.1082
  592SOL    HW1 1775   0.309   1.554   2.269  2.4050 -1.8838 -2.0626
  592SOL    HW2 1776   0.262   1.476   2.135 -1.6761  1.0071  0.3075
  593SOL     OW 1777   1.418   1.785   1.438  0.0426 -0.8550  1.1294
  593SOL    HW1 1778   1.321   1.763   1.449  1.3982 -0.3217  0.3172
  593SOL    HW2 1779   1.448   1.857   1.503 -2.1480  1.7569  0.2981
  594SOL     OW 1780   0.427   1.138   2.839 -0.0316 -0.7185 -0.0416
  594SOL    HW1 1781   0.463   1.045   2.819 -0.0823  1.2865  1.1466
  594SOL    HW2 1782   0.501   1.203   2.873 -1.8461  0.5648  0.0463
  595SOL     OW 1783   1.765   0.443   0.922 -0.2128  0.2090  0.7229
  595SOL    HW1 1784   1.739   0.487   1.010 -0.7314  0.5106 -0.8893
  595SOL    HW2 1785   1.820   0.360   0.941 -1.2898  0.0509 -0.8079
  596SOL     OW 1786   0.306   0.932   1.107  0.2260 -0.1850 -0.7272
  596SOL    HW1 1787   0.394   0.980   1.082 -1.3035  0.0623 -1.3439
  596SOL    HW2 1788   0.263   0.967   1.190 -0.0685 -3.1200 -0.7602
  597SOL     OW 1789   0.120   2.666   2.435 -0.2030 -0.3725  0.1572
  597SOL    HW1 1790   0.120   2.671   2.539  0.5440 -0.2051  0.0541
  597SOL    HW2 1791   0.216   2.663   2.400  1.4466 -0.0500  0.1585
  598SOL     OW 1792   2.196   2.201   2.545  0.0584 -0.0269 -0.4193
  598SOL    HW1 1793   2.146   2.172   2.461 -1.3644  0.2338  0.1594
  598SOL    HW2 1794   2.245   2.290   2.531  0.2656  2.8967  0.2926
  599SOL     OW 1795   1.315   0.962   0.453 -0.2295 -0.4949 -0.3900
  599SOL    HW1 1796   1.271   1.048   0.409 -2.9240  1.4461 -0.5604
  599SOL    HW2 1797   1.374   0.992   0.530 -2.3315  0.0576 -1.0265
  600SOL     OW 1798   1.377   0.163   0.479  0.1165 -0.2432 -0.1294
  600SOL    HW1 1799   1.334   0.252   0.445 -0.0446 -0.2744 -0.1171
  600SOL    HW2 1800   1.435   0.178   0.565 -2.7079 -3.0775 -0.5535
  601SOL     OW 1801   0.719   0.420   1.672 -0.6795  0.2311 -0.1382
  601SOL    HW1 1802   0.681   0.457   1.760  0.2831  2.6108 -2.5946
  601SOL    HW2 1803   0.645   0.372   1.623  0.0728  2.5937 -0.7809
  602SOL     OW 1804   0.209   2.545   0.556  0.0651  0.1760 -0.1272
  602SOL    HW1 1805   0.229   2.449   0.533  4.1646  3.3134  4.1998
  602SOL    HW2 1806   0.208   2.606   0.481  0.3643 -0.3235  3.0095
  603SOL     OW 1807   0.906   2.905   2.429 -0.0931 -0.7513  0.2022
  603SOL    HW1 1808   0.818   2.915   2.482 -1.1337 -1.1991 -0.5248
  603SOL    HW2 1809   0.919   2.990   2.372  1.5872 -0.1126 -1.5365
  604SOL     OW 1810   1.079   2.568   0.234 -0.2452 -0.3399  0.1540
  604SOL    HW1 1811   1.162   2.587   0.297  2.6145 -1.3835  0.7933
  604SOL    HW2 1812   1.054   2.656   0.189  4.5004 -1.7711  1.9427
  605SOL     OW 1813   1.712   1.159   1.713 -0.0373  0.3860  0.3842
  605SOL    HW1 1814   1.685   1.238   1.654  0.6048 -2.4149 -0.4451
  605SOL    HW2 1815   1.795   1.115   1.662  2.9105 -1.1478  0.3539
  606SOL     OW 1816   0.960   1.020   2.673  0.8585 -0.2986  0.2684
  606SOL    HW1 1817   1.003   0.937   2.628  0.4166 -0.9765  1.3464
  606SOL    HW2 1818   0.981   1.102   2.615 -1.5328  0.7930 -0.2012
  607SOL     OW 1819   0.570   1.047   1.120 -0.6938  1.0269  0.0044
  607SOL    HW1 1820   0.550   1.013   1.211 -0.8184  2.0829  0.7028
  607SOL    HW2 1821   0.637   0.979   1.074 -1.5447  0.8388 -0.8129
  608SOL     OW 1822   2.587   2.273   2.285 -0.5878  0.1010  0.3937
  608SOL    HW1 1823   2.489   2.250   2.257  0.7814 -1.0450  0.1089
  608SOL    HW2 1824   2.655   2.260   2.207 -0.6662  0.9315 -0.3205
  609SOL     OW 1825   2.020   0.213   2.970 -0.4558 -1.0779  0.4946
  609SOL    HW1 1826   1.997   0.273   3.051  1.2283  1.7112  1.7839
  609SOL    HW2 1827   2.091   0.147   3.001  1.8033 -1.0911  0.7863
  610SOL     OW 1828   0.289   2.806   1.587  0.2948 -0.7563  0.4734
  610SOL    HW1 1829   0.349   2.753   1.653 -1.1862 -2.0417  0.6953
  610SOL    HW2 1830   0.354   2.847   1.525 -1.9904  0.7209 -1.7675
  611SOL     OW 1831   1.271   1.618   1.113 -0.1669  0.3609  0.6955
  611SOL    HW1 1832   1.180   1.593   1.149  2.6874  2.1821 -3.1168
  611SOL    HW2 1833   1.322   1.530   1.097  1.0915 -0.5948  0.2247
  612SOL     OW 1834   0.648   0.041   2.360  0.1772  0.7823  0.4349
  612SOL    HW1 1835   0.661   0.138   2.325 -0.6870  2.7960 -1.2934
  612SOL    HW2 1836   0.689   0.020   2.448  0.8878 -1.9606 -1.6166
  613SOL     OW 1837   2.781   1.520   0.416 -0.2354 -0.2747 -0.1861
  613SOL    HW1 1838   2.732   1.454   0.473  1.2605  1.2728  2.6925
  613SOL    HW2 1839   2.881   1.530   0.441  0.1330  1.1104  0.6531
  614SOL     OW 1840   1.778   0.133   1.779 -0.1533 -1.2210 -0.0676
  614SOL    HW1 1841   1.858   0.069   1.777  1.0497 -0.1901  0.5121
  614SOL    HW2 1842   1.804   0.225   1.744 -1.8209 -0.6317 -1.0250
  615SOL     OW 1843   0.887   1.697   1.297  0.2695 -0.2134 -0.2273
  615SOL    HW1 1844   0.929   1.607   1.321 -1.1928 -3.0640  1.6568
  615SOL    HW2 1845   0.947   1.773   1.328 -0.4543  0.2154 -1.0084
  616SOL     OW 1846   1.581   1.661   3.029  0.0128 -0.6790  0.3797
  616SOL    HW1 1847   1.668   1.603   3.025 -1.7499  1.0103  0.7475
  616SOL    HW2 1848   1.583   1.709   0.031  0.3256  0.2395  0.0735
  617SOL     OW 1849   1.897   3.005   0.156 -0.2777 -0.3369 -0.2654
  617SOL    HW1 1850   1.852   3.015   0.067  1.3380  0.4862  2.6853
  617SOL    HW2 1851   1.870   2.917   0.203 -1.2254  2.2744  1.7459
  618SOL     OW 1852   0.877   0.671   2.742 -0.3580  0.6451 -0.0497
  618SOL    HW1 1853   0.839   0.691   2.836  0.5281 -0.7504 -0.4130
  618SOL    HW2 1854   0.921   0.747   2.695 -0.9658 -0.3529  1.1212
  619SOL     OW 1855   2.695   1.305   0.571 -0.1071  0.8653  0.6027
  619SOL    HW1 1856   2.679   1.251   0.481 -0.9628 -3.8284 -0.2940
  619SOL    HW2 1857   2.609   1.347   0.602  0.5975 -0.9104  0.5179
  620SOL     OW 1858   2.435   2.687   3.075  0.2786  0.1213  0.5353
  620SOL    HW1 1859   2.364   2.763   3.053 -2.6519 -1.0127  1.1139
  620SOL    HW2 1860   2.456   2.621   2.995  0.4538 -0.8375  2.5159
  621SOL     OW 1861   2.466   1.170   0.100  0.6541 -0.1084  0.5236
  621SOL    HW1 1862   2.408   1.144   0.179  0.1296  2.5565 -1.3346
  621SOL    HW2 1863   2.415   1.221   0.027 -0.0566 -0.7815 -1.4628
  622SOL     OW 1864   1.384   2.365   2.357 -0.2423  0.2325 -0.4554
  622SOL    HW1 1865   1.456   2.377   2.283  2.3330  3.0725 -0.1442
  622SOL    HW2 1866   1.424   2.392   2.449 -1.9625  2.2181  1.9810
  623SOL     OW 1867   0.944   1.702   0.248 -0.1731  0.2177  0.1054
  623SOL    HW1 1868   0.958   1.658   0.155 -0.8769 -2.1205 -0.6540
  623SOL    HW2 1869   0.957   1.804   0.252 -0.8256  1.2302 -0.7690
  624SOL     OW 1870   0.372   0.092   0.033  0.1672 -0.3204 -0.0226
  624SOL    HW1 1871   0.331   0.177   0.064  3.8165  0.6366 -0.1527
  624SOL    HW2 1872   0.471   0.100   0.038 -2.6310  1.9469 -0.6278
  625SOL     OW 1873   0.917   1.929   0.693  0.3519 -0.5657 -0.7644
  625SOL    HW1 1874   1.000   1.908   0.638  0.4270  0.5225 -0.9613
  625SOL    HW2 1875   0.885   2.028   0.682 -0.0388  2.0679  1.9443
  626SOL     OW 1876   2.732   0.100   2.755  0.6958 -0.5379  0.0396
  626SOL    HW1 1877   2.643   0.069   2.728  4.6945  2.4521  0.0030
  626SOL    HW2 1878   2.746   0.093   2.855 -2.4614 -0.7019  0.5066
  627SOL     OW 1879   1.553   1.347   2.503  0.3823 -0.4566  0.3583
  627SOL    HW1 1880   1.541   1.343   2.600  0.0537 -0.3946 -5.0030
  627SOL    HW2 1881   1.539   1.257   2.462  0.7898  0.2667  2.8137
  628SOL     OW 1882   0.325   0.702   2.225  0.1342  0.4961 -0.2089
  628SOL    HW1 1883   0.267   0.630   2.266  0.9145  0.0290  1.2419
  628SOL    HW2 1884   0.414   0.716   2.268  0.0619 -2.0847 -2.1120
  629SOL     OW 1885   0.077   2.736   2.040 -0.1648 -0.0585 -0.2012
  629SOL    HW1 1886   0.009   2.703   1.968 -2.9545  0.0631  3.1783
  629SOL    HW2 1887   0.028   2.793   2.114 -1.7766  1.1966  0.0685
  630SOL     OW 1888   1.582   0.956   1.847  0.1040 -0.3093 -0.5089
  630SOL    HW1 1889   1.504   0.923   1.794 -2.0294 -1.0155 -0.1583
  630SOL    HW2 1890   1.630   1.025   1.792  0.8993 -0.7522 -1.0164
  631SOL     OW 1891   2.326   0.901   0.211  0.1250  0.1093 -0.3327
  631SOL    HW1 1892   2.326   0.798   0.234  0.3463 -1.6128  1.8675
  631SOL    HW2 1893   2.365   0.956   0.292  0.0183 -0.8781  1.8385
  632SOL     OW 1894   1.957   0.391   1.958  0.2005  0.0661 -0.6988
  632SOL    HW1 1895   2.001   0.416   2.049  0.2798  0.2364  1.1510
  632SOL    HW2 1896   2.000   0.310   1.925  0.1287  1.1587  1.7291
  633SOL     OW 1897   0.767   2.771   0.234 -0.0164  0.0641  0.2196
  633SOL    HW1 1898   0.831   2.796   0.305  1.7311  0.7225 -1.4043
  633SOL    HW2 1899   0.820   2.757   0.147  1.9115  1.9892  0.7671
  634SOL     OW 1900   1.042   2.445   2.669  0.1717  0.1744  0.2359
  634SOL    HW1 1901   1.084   2.538   2.674  0.1250 -0.3440  1.1408
  634SOL    HW2 1902   1.100   2.383   2.613 -1.7537 -0.0620  0.5966
  635SOL     OW 1903   2.460   0.250   2.932  0.1567 -0.2375 -0.2120
  635SOL    HW1 1904   2.546   0.313   2.941  1.8621  2.5336 -0.8512
  635SOL    HW2 1905   2.372   0.302   2.922  0.4286  0.7447 -4.4556
  636SOL     OW 1906   0.779   1.100   0.653  0.3839  0.0502  0.0246
  636SOL    HW1 1907   0.698   1.109   0.716 -1.3911 -0.2848  0.6709
  636SOL    HW2 1908   0.786   1.008   0.610 -0.4385 -0.3447 -0.6231
  637SOL     OW 1909   0.232   2.281   0.547 -0.1557 -0.1643  0.4301
  637SOL    HW1 1910   0.258   2.222   0.623  0.7671  2.6552  1.5264
  637SOL    HW2 1911   0.235   2.235   0.457 -1.7817  1.8349  3.3159
  638SOL     OW 1912   0.587   2.957   0.166 -0.7980  0.6683  0.0377
  638SOL    HW1 1913   0.648   2.878   0.199 -2.4860 -2.8846  2.1512
  638SOL    HW2 1914   0.524   2.920   0.097  1.4692  0.5238  1.9807
  639SOL     OW 1915   1.373   1.609   0.342 -0.0242  0.1005  0.1907
  639SOL    HW1 1916   1.419   1.613   0.430 -3.2257 -0.4526 -0.1329
  639SOL    HW2 1917   1.326   1.699   0.324  1.6723  1.5412 -0.8953
  640SOL     OW 1918   1.805   2.672   1.101 -0.5168 -0.5865 -0.1210
  640SOL    HW1 1919   1.778   2.647   1.006 -0.5734 -1.9121 -0.3043
  640SOL    HW2 1920   1.853   2.760   1.114  0.9802 -1.8984 -1.6667
  641SOL     OW 1921   3.026   2.621   0.645 -0.1645  0.1335 -0.7926
  641SOL    HW1 1922   3.084   2.540   0.624 -0.8271  2.0374 -0.2842
  641SOL    HW2 1923   2.931   2.594   0.628  1.5737  1.3782 -0.9366
  642SOL     OW 1924   0.885   0.276   1.820  0.0530 -0.0465 -1.0560
  642SOL    HW1 1925   0.883   0.174   1.817  1.3002  0.5777 -0.6060
  642SOL    HW2 1926   0.833   0.319   1.740 -2.2267  0.5972 -1.2816
  643SOL     OW 1927   0.599   1.902   2.238  0.8676 -0.2456 -0.2180
  643SOL    HW1 1928   0.557   1.970   2.175 -0.7243  1.4665 -0.5175
  643SOL    HW2 1929   0.700   1.912   2.234 -3.1669  1.1685  2.9597
  644SOL     OW 1930   0.894   2.996   0.494  0.1585 -0.7425  1.0288
  644SOL    HW1 1931   0.937   2.904   0.467 -0.3882 -2.5006  0.9933
  644SOL    HW2 1932   0.960   3.074   0.486 -0.2609 -1.4580  0.2896
  645SOL     OW 1933   1.080   1.619   2.863 -0.4943 -0.2854 -0.0461
  645SOL    HW1 1934   1.087   1.688   2.783 -2.5759  1.9870 -0.6587
  645SOL    HW2 1935   1.165   1.624   2.916 -2.2571  1.6806  1.2413
  646SOL     OW 1936   0.340   1.514   0.120 -0.1039 -0.0835 -0.2594
  646SOL    HW1 1937   0.350   1.559   0.213 -1.0301  0.5244  2.2645
  646SOL    HW2 1938   0.324   1.414   0.131 -1.8175 -2.1958  2.2467
  647SOL     OW 1939   1.088   0.051   1.075  0.1599 -0.2418  0.4815
  647SOL    HW1 1940   1.141   0.063   1.161 -1.0009 -0.3658 -2.8066
  647SOL    HW2 1941   1.052   3.042   1.055  0.6741 -4.3002  0.6146
  648SOL     OW 1942   2.624   2.946   2.029  0.0333  0.0510 -0.4376
  648SOL    HW1 1943   2.569   2.994   2.104  1.2948 -1.3892  0.3939
  648SOL    HW2 1944   2.711   3.000   2.014  0.8790  5.0938 -1.7481
  649SOL     OW 1945   0.693   2.346   2.941  0.3218  0.7411  0.5205
  649SOL    HW1 1946   0.718   2.249   2.946  1.1638 -0.2553 -1.1041
  649SOL    HW2 1947   0.599   2.362   2.981 -0.7509 -0.3361  1.1799
  650SOL     OW 1948   0.238   1.953   1.474 -0.2753  0.1389 -0.2633
  650SOL    HW1 1949   0.234   1.857   1.438 -3.5028 -0.7920  1.0221
  650SOL    HW2 1950   0.241   2.027   1.406 -2.2087  2.1763  2.1091
  651SOL     OW 1951   0.753   0.098   0.138  0.2154  0.1246  0.1994
  651SOL    HW1 1952   0.743   0.130   0.239 -1.0899  2.8899  1.3278
  651SOL    HW2 1953   0.698   0.011   0.126  2.4635  2.4967  3.1567
  652SOL     OW 1954   2.562   1.988   0.254 -0.5359  0.5661  0.4397
  652SOL    HW1 1955   2.519   1.924   0.185 -0.0094 -0.6682  0.5416
  652SOL    HW2 1956   2.521   2.080   0.232 -0.9722 -0.0743  1.8807
  653SOL     OW 1957   3.029   0.139   0.800 -0.2996 -0.1611 -0.1864
  653SOL    HW1 1958   2.950   0.198   0.768  0.1049 -0.1623  0.0639
  653SOL    HW2 1959   3.006   0.114   0.898 -1.1473 -0.4884  0.5548
  654SOL     OW 1960   1.607   0.206   2.566  0.1447  0.1590 -0.2842
  654SOL    HW1 1961   1.646   0.229   2.661  3.3541 -0.3356  0.8868
  654SOL    HW2 1962   1.587   0.107   2.557 -0.6358  1.3443 -1.0173
  655SOL     OW 1963   0.838   2.350   1.320  0.2839 -0.2957  0.2038
  655SOL    HW1 1964   0.876   2.282   1.385 -0.4468  0.8092 -0.1975
  655SOL    HW2 1965   0.741   2.363   1.328 -0.8659 -0.1064 -0.7753
  656SOL     OW 1966   0.309   0.359   1.747 -0.1743 -0.4208  0.3425
  656SOL    HW1 1967   0.396   0.396   1.789  0.2472 -0.8848  0.7444
  656SOL    HW2 1968   0.235   0.429   1.744 -4.3381 -0.8330 -0.4199
  657SOL     OW 1969   2.088   0.884   1.852  0.0079 -0.1795 -0.4852
  657SOL    HW1 1970   2.007   0.921   1.907 -1.6229  0.2976 -0.6590
  657SOL    HW2 1971   2.068   0.786   1.830  0.5760  0.1052  0.2988
  658SOL     OW 1972   2.348   1.641   1.134  0.0993  0.0340 -0.7512
  658SOL    HW1 1973   2.387   1.666   1.229  1.9854 -0.0887 -0.6903
  658SOL    HW2 1974   2.256   1.596   1.146 -0.1218 -0.0203 -0.9841
  659SOL     OW 1975   2.489   3.075   3.000 -0.1702 -0.2100 -0.6714
  659SOL    HW1 1976   2.456   0.071   2.949 -0.0486  0.8343 -1.2371
  659SOL    HW2 1977   2.449   3.081   0.001  0.3414  0.3522 -4.6425
  660SOL     OW 1978   1.112   1.353   2.783  0.3649  0.2088 -0.3095
  660SOL    HW1 1979   1.084   1.451   2.788  0.5995 -1.7711 -1.3107
  660SOL    HW2 1980   1.200   1.339   2.827 -2.2040  0.4504  1.4375
  661SOL     OW 1981   2.410   2.344   0.868  0.0384 -0.3706 -0.5068
  661SOL    HW1 1982   2.512   2.344   0.875 -1.1297 -1.4925 -0.4949
  661SOL    HW2 1983   2.359   2.355   0.960 -2.8863  5.6408 -0.6450
  662SOL     OW 1984   0.582   0.801   0.184 -0.2282  0.7561 -0.3727
  662SOL    HW1 1985   0.576   0.715   0.239 -0.7781  0.1498 -0.9196
  662SOL    HW2 1986   0.496   0.853   0.190  0.4005 -2.8308 -2.1255
  663SOL     OW 1987   1.274   2.095   3.070 -0.3123  0.1002 -0.0331
  663SOL    HW1 1988   1.351   2.061   0.044 -1.2709  1.1891 -2.7003
  663SOL    HW2 1989   1.243   2.190   0.020 -2.3855 -0.4136  2.1846
  664SOL     OW 1990   0.475   2.891   1.402 -0.0329 -0.2816 -0.4161
  664SOL    HW1 1991   0.529   2.812   1.361 -0.5183 -0.4473 -1.9212
  664SOL    HW2 1992   0.534   2.960   1.454  1.1567  0.5283  2.1449
  665SOL     OW 1993   1.894   1.942   1.791 -0.3554  0.1359  0.1023
  665SOL    HW1 1994   1.854   2.017   1.736  0.5279 -0.3844  1.7426
  665SOL    HW2 1995   1.885   1.855   1.746 -0.2864 -0.4694  0.1651
  666SOL     OW 1996   0.474   2.534   0.206 -0.8035  0.4322 -0.3789
  666SOL    HW1 1997   0.414   2.616   0.215 -0.7605  1.2218 -0.6501
  666SOL    HW2 1998   0.519   2.544   0.114  2.4977  0.5781 -1.4958
  667SOL     OW 1999   1.595   1.695   1.266  0.4971 -0.3045 -0.4783
  667SOL    HW1 2000   1.678   1.749   1.257 -1.9400 -0.8599 -0.9115
  667SOL    HW2 2001   1.541   1.722   1.349  1.6060 -2.7490 -0.1115
  668SOL     OW 2002   0.577   0.680   2.343 -0.0123 -0.1325  0.4655
  668SOL    HW1 2003   0.578   0.602   2.412 -0.2819 -1.0154  1.4071
  668SOL    HW2 2004   0.675   0.694   2.308 -2.0262 -0.9222  1.8800
  669SOL     OW 2005   1.865   2.318   2.422  0.3581  0.1552 -0.2493
  669SOL    HW1 2006   1.912   2.244   2.372 -1.5715  0.5343 -1.8367
  669SOL    HW2 2007   1.799   2.276   2.488 -0.8849 -0.3129  1.1884
  670SOL     OW 2008   2.222   2.128   0.338  0.2271 -0.6022  0.0390
  670SOL    HW1 2009   2.175   2.044   0.370 -0.0706  1.3910 -1.4019
  670SOL    HW2 2010   2.164   2.212   0.318 -0.3032  1.7584  0.1688
  671SOL     OW 2011   0.645   1.288   1.209 -0.4141  0.1188 -0.1643
  671SOL    HW1 2012   0.725   1.315   1.158 -2.3090 -0.2466  1.7605
  671SOL    HW2 2013   0.604   1.202   1.167 -0.7087 -1.6352 -0.6320
  672SOL     OW 2014   2.629   1.057   2.320 -0.2012  0.0517  0.0438
  672SOL    HW1 2015   2.695   1.065   2.239  3.7466 -0.9713  1.5851
  672SOL    HW2 2016   2.677   1.026   2.405 -2.3877 -0.7543 -0.5165
  673SOL     OW 2017   0.054   1.901   2.593  0.5167 -0.8583  0.0701
  673SOL    HW1 2018   3.061   1.942   2.645 -1.8570  0.6070  1.5377
  673SOL    HW2 2019   0.065   1.803   2.610  1.6919 -0.9331  0.0977
  674SOL     OW 2020   0.733   2.579   2.040 -0.1172 -0.7156  0.2950
  674SOL    HW1 2021   0.808   2.640   2.075 -1.9600 -1.8973  0.5412
  674SOL    HW2 2022   0.641   2.616   2.072  0.8333  0.8450 -0.1094
  675SOL     OW 2023   0.670   0.777   1.346  0.1073 -0.5963  0.2223
  675SOL    HW1 2024   0.711   0.755   1.436  0.1246 -1.7010 -0.2818
  675SOL    HW2 2025   0.592   0.841   1.350 -0.5567 -0.6650  1.7773
  676SOL     OW 2026   1.854   0.923   0.334  0.2299 -0.3844 -0.3085
  676SOL    HW1 2027   1.766   0.973   0.354 -2.7626  1.5597  0.0319
  676SOL    HW2 2028   1.876   0.862   0.416  3.6025  0.2579  2.0629
  677SOL     OW 2029   2.894   1.755   2.850 -0.8725  0.6119  0.0164
  677SOL    HW1 2030   2.871   1.773   2.753 -2.2184  1.5392  1.9748
  677SOL    HW2 2031   2.989   1.712   2.867  0.5640  2.0379  0.5654
  678SOL     OW 2032   3.073   2.368   1.115  0.0398 -0.8191  0.0511
  678SOL    HW1 2033   0.046   2.434   1.161  0.0302 -0.8801 -1.7282
  678SOL    HW2 2034   2.979   2.409   1.101 -0.4840 -1.2315  1.8841
  679SOL     OW 2035   1.941   2.805   0.708 -0.9441 -0.6838  0.0107
  679SOL    HW1 2036   1.892   2.883   0.663 -2.0688 -2.0868  1.9009
  679SOL    HW2 2037   2.020   2.831   0.767  0.7278 -1.2091  2.2831
  680SOL     OW 2038   3.018   2.486   2.312 -0.0606 -0.4067 -0.6172
  680SOL    HW1 2039   2.974   2.412   2.363  2.3159  0.8254  2.5691
  680SOL    HW2 2040   3.068   2.549   2.371 -1.8193  1.9706  0.2184
  681SOL     OW 2041   0.036   1.310   1.479  0.0427  0.1901 -0.3644
  681SOL    HW1 2042   0.085   1.329   1.391  0.2002 -1.8135  0.0322
  681SOL    HW2 2043   0.094   1.313   1.562  0.6080 -0.9192 -1.6871
  682SOL     OW 2044   0.507   1.805   1.204  0.6513 -0.0009  0.0621
  682SOL    HW1 2045   0.577   1.774   1.141  0.6571  2.3700 -1.5802
  682SOL    HW2 2046   0.422   1.832   1.157  1.6386 -1.1997  2.2361
  683SOL     OW 2047   2.895   1.767   1.461 -0.1123 -0.3956  0.9010
  683SOL    HW1 2048   2.929   1.676   1.485  0.0904 -1.8138 -0.9590
  683SOL    HW2 2049   2.818   1.789   1.524 -1.3223  1.7496  1.8160
  684SOL     OW 2050   3.082   1.464   0.041 -0.2629  0.3012 -0.5706
  684SOL    HW1 2051   0.010   1.392   0.116  0.2800  1.5493  0.7032
  684SOL    HW2 2052   0.086   1.480   3.075 -0.7991  0.0614  1.4776
  685SOL     OW 2053   1.000   0.963   0.273  0.0547 -0.4979 -0.3287
  685SOL    HW1 2054   1.046   1.014   0.197 -0.2648  3.0674  1.8887
  685SOL    HW2 2055   1.063   0.885   0.290 -2.3744  0.2166  0.9560
  686SOL     OW 2056   0.004   0.046   1.119 -0.1744  0.4950  0.2154
  686SOL    HW1 2057   3.077   0.130   1.180  0.8578  2.0250  2.0600
  686SOL    HW2 2058   0.096   0.006   1.139 -1.5784  0.2936  1.9646
  687SOL     OW 2059   1.174   1.223   2.240  0.0334 -0.7466 -0.3875
  687SOL    HW1 2060   1.142   1.229   2.337  0.5360  1.6083 -3.3361
  687SOL    HW2 2061   1.176   1.316   2.195 -3.3806  2.8461 -2.7947
  688SOL     OW 2062   0.781   2.003   1.565  0.1704  0.1990  0.0140
  688SOL    HW1 2063   0.723   2.014   1.480  1.9548 -0.4037 -0.6600
  688SOL    HW2 2064   0.722   1.986   1.642 -1.3880  0.8431 -1.5058
  689SOL     OW 2065   1.948   0.709   1.184 -0.0987  0.0500  0.5323
  689SOL    HW1 2066   1.849   0.694   1.196  1.2494  2.3656  1.6467
  689SOL    HW2 2067   1.970   0.758   1.096 -0.7697 -0.2568 -0.3572
  690SOL     OW 2068   2.855   1.030   0.925  1.0454  0.5273  0.7897
  690SOL    HW1 2069   2.840   1.120   0.965  2.7655  1.0583 -0.5658
  690SOL    HW2 2070   2.904   0.970   0.988  0.5916 -1.0843 -2.0723
  691SOL     OW 2071   0.154   2.385   1.463 -0.3371  0.3432  0.2142
  691SOL    HW1 2072   0.057   2.363   1.461  0.4635  0.8146  1.8607
  691SOL    HW2 2073   0.174   2.482   1.427 -1.4765 -0.6389  2.4769
  692SOL     OW 2074   1.698   2.972   1.254 -0.0216 -0.4925 -0.1807
  692SOL    HW1 2075   1.791   2.972   1.213 -0.5953 -1.4530  0.8677
  692SOL    HW2 2076   1.694   2.892   1.314 -0.0412  1.8961 -0.8110
  693SOL     OW 2077   0.256   1.634   2.422 -0.3326 -0.4304 -0.3790
  693SOL    HW1 2078   0.166   1.615   2.472 -1.5379  0.8234  0.0306
  693SOL    HW2 2079   0.255   1.717   2.366  0.9298 -2.0322 -0.5025
  694SOL     OW 2080   2.047   0.810   0.931  0.2863 -0.4296 -0.0871
  694SOL    HW1 2081   2.018   0.909   0.918 -1.7880 -0.6139 -1.3078
  694SOL    HW2 2082   2.142   0.799   0.971  1.1572 -0.4591  0.2489
  695SOL     OW 2083   0.814   1.216   1.613  0.7115  0.3541 -0.3132
  695SOL    HW1 2084   0.771   1.154   1.543  0.3257 -1.4564 -1.9197
  695SOL    HW2 2085   0.862   1.292   1.562 -0.2522  0.1392 -0.2865
  696SOL     OW 2086   1.658   2.881   0.931  0.6864 -0.0592 -0.0628
  696SOL    HW1 2087   1.697   2.792   0.905  0.9546 -0.3440 -1.0703
  696SOL    HW2 2088   1.564   2.893   0.891 -0.0374 -1.4796 -1.1046
  697SOL     OW 2089   0.836   0.163   0.914 -0.0692 -0.0625 -0.2279
  697SOL    HW1 2090   0.937   0.157   0.942  1.5054  1.9694 -0.4913
  697SOL    HW2 2091   0.779   0.159   0.997  1.5787 -2.0245 -2.2405
  698SOL     OW 2092   1.535   1.306   2.067 -0.2173 -0.0510 -0.0212
  698SOL    HW1 2093   1.628   1.267   2.066 -1.3652 -2.3288 -1.0898
  698SOL    HW2 2094   1.532   1.399   2.115  1.1359  3.3593 -1.3606
  699SOL     OW 2095   1.447   0.734   0.849  0.2277  0.0471 -0.8682
  699SOL    HW1 2096   1.522   0.786   0.803 -2.1850  0.6114  0.4617
  699SOL    HW2 2097   1.362   0.755   0.804  0.0065  1.5871 -0.8663
  700SOL     OW 2098   1.296   2.601   0.372 -0.2168  1.0489 -0.3028
  700SOL    HW1 2099   1.363   2.676   0.381  0.2888  0.0521 -0.2826
  700SOL    HW2 2100   1.304   2.538   0.457 -1.1505  0.3006 -0.8602
  701SOL     OW 2101   2.204   2.499   2.803 -0.4932  0.4062  1.0603
  701SOL    HW1 2102   2.171   2.435   2.873 -0.0764 -1.3875 -2.7334
  701SOL    HW2 2103   2.308   2.505   2.810  0.4989  3.0526  1.2667
  702SOL     OW 2104   0.911   0.281   0.668 -0.1512 -0.1756  0.0501
  702SOL    HW1 2105   0.951   0.371   0.688 -1.5201 -2.3164  1.6372
  702SOL    HW2 2106   0.863   0.244   0.756 -1.6478  1.5929  3.4070
  703SOL     OW 2107   2.043   0.486   2.235 -0.3182  0.4937  0.3586
  703SOL    HW1 2108   2.061   0.487   2.335 -0.3939 -3.4330  0.6414
  703SOL    HW2 2109   2.008   0.579   2.205 -1.4322  0.9834 -0.2065
  704SOL     OW 2110   3.050   2.340   0.594  0.0605  0.2938 -0.6603
  704SOL    HW1 2111   3.012   2.249   0.552  0.2089 -2.5672 -1.6960
  704SOL    HW2 2112   0.058   2.357   0.553  1.1485 -0.3356 -3.1449
  705SOL     OW 2113   2.644   2.693   2.115 -0.3034 -0.1664 -0.3520
  705SOL    HW1 2114   2.663   2.636   2.029 -2.5692 -2.1321 -3.9755
  705SOL    HW2 2115   2.615   2.786   2.092  3.0067  0.2264 -1.2480
  706SOL     OW 2116   2.332   2.579   0.745  0.0074  0.6896 -0.2791
  706SOL    HW1 2117   2.381   2.488   0.768  0.4507 -1.0643  1.4233
  706SOL    HW2 2118   2.394   2.658   0.749  0.5402 -0.1624 -0.1805
  707SOL     OW 2119   0.598   2.317   2.018 -0.5549  0.0418  0.0519
  707SOL    HW1 2120   0.641   2.228   2.057  0.6148 -1.1706  0.7786
  707SOL    HW2 2121   0.660   2.399   2.015 -0.3479  0.1877 -1.0471
  708SOL     OW 2122   2.963   2.257   2.463 -0.8455 -0.0095 -0.3599
  708SOL    HW1 2123   3.030   2.261   2.537 -0.4262 -1.1452 -2.7241
  708SOL    HW2 2124   2.968   2.174   2.403  0.3111  1.0732 -1.6673
  709SOL     OW 2125   1.930   2.927   2.062 -0.3979  0.0518 -0.3184
  709SOL    HW1 2126   1.997   2.850   2.064 -1.8692 -0.5591 -1.0595
  709SOL    HW2 2127   1.933   2.989   2.143  0.4117 -0.1636  0.5357
  710SOL     OW 2128   1.588   0.869   2.312  0.1062  0.2366  0.2328
  710SOL    HW1 2129   1.634   0.819   2.390 -2.7325 -0.7915  1.6561
  710SOL    HW2 2130   1.562   0.803   2.238  2.3881  0.5255 -0.1496
  711SOL     OW 2131   0.813   1.809   2.950 -0.3671  0.2769 -0.7071
  711SOL    HW1 2132   0.914   1.785   2.961  5.0071  0.8394 -0.5422
  711SOL    HW2 2133   0.770   1.738   2.885 -1.0019 -1.3805  0.3769
  712SOL     OW 2134   0.610   2.452   2.494  0.0828 -0.2313  0.3275
  712SOL    HW1 2135   0.569   2.468   2.403  0.5505 -3.0982  2.1395
  712SOL    HW2 2136   0.712   2.436   2.490  1.3246 -1.1078  2.1751
  713SOL     OW 2137   1.749   1.419   3.031  0.2152  0.6503  0.2664
  713SOL    HW1 2138   1.820   1.435   2.961  0.9211 -0.1633  1.4460
  713SOL    HW2 2139   1.783   1.414   0.042 -1.7782  1.2466 -0.9721
  714SOL     OW 2140   1.143   1.480   1.853  0.1850 -0.6623  0.6433
  714SOL    HW1 2141   1.227   1.526   1.822 -1.1445 -1.3284  0.4837
  714SOL    HW2 2142   1.164   1.409   1.921 -1.8795  1.9041 -2.0337
  715SOL     OW 2143   1.982   0.664   2.713  0.0564 -0.4152 -0.4038
  715SOL    HW1 2144   1.979   0.601   2.793  1.3690  1.8841  1.2291
  715SOL    HW2 2145   2.048   0.634   2.638 -0.5465  0.3280 -0.8759
  716SOL     OW 2146   2.984   2.266   1.872  0.0290  0.2950  0.4720
  716SOL    HW1 2147   3.000   2.355   1.920 -1.1686  0.0980  1.4867
  716SOL    HW2 2148   2.987   2.185   1.929 -0.1325  4.1242 -2.6039
  717SOL     OW 2149   2.629   0.911   0.809 -0.2754  0.1995  0.2506
  717SOL    HW1 2150   2.712   0.930   0.872 -0.5886  1.0766 -1.5065
  717SOL    HW2 2151   2.570   0.836   0.839  2.1257  2.4488 -0.3352
  718SOL     OW 2152   0.835   1.658   2.134 -0.2179 -0.2220 -0.3709
  718SOL    HW1 2153   0.734   1.641   2.128 -2.3048  0.7767  1.6038
  718SOL    HW2 2154   0.876   1.668   2.041  0.4403  0.6730 -1.2789
  719SOL     OW 2155   1.972   1.036   2.927 -0.0408 -0.2651  0.2827
  719SOL    HW1 2156   1.977   1.004   2.830 -0.0249 -2.9759 -1.2748
  719SOL    HW2 2157   2.062   1.080   2.958  2.3721  3.8216 -0.0065
  720SOL     OW 2158   0.710   0.477   0.561  0.4729 -0.5787  0.1385
  720SOL    HW1 2159   0.758   0.532   0.631 -1.3362 -0.6030 -1.5785
  720SOL    HW2 2160   0.675   0.387   0.604  1.1837 -1.7640  1.9241
  721SOL     OW 2161   2.397   0.364   0.808  0.0859  0.1645 -0.5308
  721SOL    HW1 2162   2.434   0.393   0.715 -0.4482  0.2530 -0.2099
  721SOL    HW2 2163   2.413   0.261   0.814  2.5200 -0.0519 -0.1494
  722SOL     OW 2164   2.694   0.761   2.518  0.3118  0.6364  0.8395
  722SOL    HW1 2165   2.767   0.700   2.548 -2.1541  2.8594  0.3331
  722SOL    HW2 2166   2.724   0.857   2.530 -0.0482 -0.4321 -2.1132
  723SOL     OW 2167   2.376   0.261   0.367 -0.0627  0.8098 -0.1244
  723SOL    HW1 2168   2.413   0.264   0.275  0.3443  0.9795  1.4656
  723SOL    HW2 2169   2.284   0.307   0.378 -0.9793  0.8196  1.2936
  724SOL     OW 2170   0.449   1.710   1.890  0.6873  0.1385  0.2100
  724SOL    HW1 2171   0.480   1.679   1.982 -1.3961  2.5146  1.1281
  724SOL    HW2 2172   0.530   1.729   1.829  0.4203 -0.0364 -0.2060
  725SOL     OW 2173   1.659   0.120   1.139 -0.3009 -0.2463  0.4066
  725SOL    HW1 2174   1.747   0.154   1.093  2.6594  0.6980 -1.1323
  725SOL    HW2 2175   1.659   0.027   1.180  1.4198  3.8262  0.9236
  726SOL     OW 2176   2.062   2.755   0.252 -0.2100 -0.1532 -0.0418
  726SOL    HW1 2177   2.071   2.860   0.247 -0.7512  1.9536 -0.5958
  726SOL    HW2 2178   2.003   2.729   0.333  0.7861  1.9040  2.0125
  727SOL     OW 2179   1.632   1.439   1.244  0.0522 -0.0638 -0.0835
  727SOL    HW1 2180   1.684   1.404   1.328  2.0461 -0.3630  1.8031
  727SOL    HW2 2181   1.622   1.543   1.243 -0.6037  3.1645 -0.8755
  728SOL     OW 2182   2.238   2.704   1.725  0.1555  0.4038 -0.1505
  728SOL    HW1 2183   2.214   2.639   1.651  0.6544  0.1864 -0.6597
  728SOL    HW2 2184   2.261   2.650   1.811 -0.4411 -0.9604  2.4524
  729SOL     OW 2185   2.023   1.689   0.807  0.1405 -0.1278 -0.0036
  729SOL    HW1 2186   2.000   1.617   0.736 -1.6711 -1.4162 -0.8389
  729SOL    HW2 2187   2.122   1.685   0.834  0.4307 -0.8940  1.1946
  730SOL     OW 2188   1.142   0.598   2.765  0.5249 -0.3412 -0.1671
  730SOL    HW1 2189   1.049   0.619   2.737  1.8570  0.0646  0.2539
  730SOL    HW2 2190   1.186   0.685   2.785  2.2495 -0.6690 -3.9275
  731SOL     OW 2191   0.481   0.026   1.030 -0.1000 -0.0438 -0.0237
  731SOL    HW1 2192   0.556   0.057   1.091  2.9661  1.5495  0.2029
  731SOL    HW2 2193   0.431   3.034   1.075  1.3359 -2.1840 -0.2420
  732SOL     OW 2194   1.423   0.570   0.509 -0.3621 -0.3450 -0.4189
  732SOL    HW1 2195   1.353   0.503   0.482  0.5229  2.3498  1.4790
  732SOL    HW2 2196   1.398   0.611   0.599 -1.4020 -0.2220  0.4034
  733SOL     OW 2197   0.658   2.020   1.306  0.7664  0.3603 -0.3484
  733SOL    HW1 2198   0.723   2.032   1.231  0.7425  2.3813  1.1008
  733SOL    HW2 2199   0.605   1.932   1.303 -0.7194 -1.2085  0.7417
  734SOL     OW 2200   3.054   2.500   0.192  0.1485 -0.1063  0.8391
  734SOL    HW1 2201   0.032   2.566   0.236  3.2129 -1.5103 -0.8431
  734SOL    HW2 2202   3.083   2.475   0.097  1.8451  2.9792 -1.8168
  735SOL     OW 2203   1.228   0.161   1.292  0.8719  0.4072 -0.2764
  735SOL    HW1 2204   1.197   0.116   1.374  0.8748  0.2703 -2.8562
  735SOL    HW2 2205   1.325   0.160   1.287  1.1358 -0.2314 -0.3844
  736SOL     OW 2206   2.074   2.351   0.242  0.4857 -0.2151 -0.2953
  736SOL    HW1 2207   2.048   2.335   0.343  0.2686  1.4509  0.4897
  736SOL    HW2 2208   2.105   2.446   0.235 -2.0878  2.0675  0.3176
  737SOL     OW 2209   2.899   1.282   1.035 -0.1504  0.4815  0.1211
  737SOL    HW1 2210   2.899   1.342   0.953 -1.8345  0.7383  3.2341
  737SOL    HW2 2211   2.880   1.339   1.121 -0.0221 -0.5730  1.4599
  738SOL     OW 2212   2.185   2.417   2.221  0.2725  0.6395 -0.1141
  738SOL    HW1 2213   2.145   2.448   2.311 -0.4020 -0.6481  2.1620
  738SOL    HW2 2214   2.264   2.475   2.186  1.9484  1.6689 -0.6990
  739SOL     OW 2215   1.109   2.021   2.857 -0.2551 -0.3311 -0.7780
  739SOL    HW1 2216   1.161   2.048   2.943  1.3449  0.3498  1.6939
  739SOL    HW2 2217   1.016   2.058   2.857  2.3042 -0.8975  0.1960
  740SOL     OW 2218   1.477   0.339   1.201 -0.1265  0.5820 -0.3462
  740SOL    HW1 2219   1.550   0.266   1.173  0.7268 -2.5209 -2.6765
  740SOL    HW2 2220   1.457   0.393   1.113  0.0450 -0.6458 -1.3705
  741SOL     OW 2221   0.146   1.009   0.867 -0.3612  0.1800 -0.2907
  741SOL    HW1 2222   0.210   0.958   0.928  0.9993 -1.5463 -1.1135
  741SOL    HW2 2223   0.065   0.950   0.847  1.5084 -0.8300 -2.5126
  742SOL     OW 2224   1.052   1.250   2.514  0.1260  0.6458 -0.3788
  742SOL    HW1 2225   1.097   1.308   2.586  1.8766  1.6278  1.8066
  742SOL    HW2 2226   0.966   1.289   2.478 -1.2048 -0.4037  0.3277
  743SOL     OW 2227   1.005   0.909   2.212 -0.0166  0.5337  0.0964
  743SOL    HW1 2228   0.980   0.996   2.256 -0.6488 -2.1603 -0.6973
  743SOL    HW2 2229   1.071   0.923   2.138 -0.2820 -2.0744  2.0388
  744SOL     OW 2230   1.732   0.210   1.430 -0.2838 -0.1804 -0.1770
  744SOL    HW1 2231   1.724   0.143   1.351  1.2715  0.5150  1.5496
  744SOL    HW2 2232   1.828   0.211   1.461 -0.2880 -0.6465 -2.0981
  745SOL     OW 2233   2.107   1.097   1.248 -0.3376 -0.1155 -0.2910
  745SOL    HW1 2234   2.008   1.086   1.228  2.3006  2.1942  0.9097
  745SOL    HW2 2235   2.123   1.192   1.271  0.1469  1.1171  0.6603
  746SOL     OW 2236   2.164   1.094   0.772  0.2644 -0.0373 -0.3402
  746SOL    HW1 2237   2.144   1.120   0.675  1.2693 -1.2154  1.4088
  746SOL    HW2 2238   2.245   1.031   0.774  0.9433  1.8624 -0.0100
  747SOL     OW 2239   2.597   1.529   1.118  0.2177 -0.1777  0.8326
  747SOL    HW1 2240   2.629   1.467   1.041  2.2646 -1.6756 -1.1524
  747SOL    HW2 2241   2.507   1.571   1.102 -0.3098 -2.4593  0.3442
  748SOL     OW 2242   0.524   2.141   0.388  0.5635  0.3440 -0.3627
  748SOL    HW1 2243   0.560   2.221   0.436 -0.7497  1.4853 -1.0798
  748SOL    HW2 2244   0.588   2.106   0.319 -0.8407  0.2745  1.8337
  749SOL     OW 2245   2.755   2.647   2.556 -0.0960  0.0502 -0.0160
  749SOL    HW1 2246   2.783   2.674   2.652  0.8077 -1.0255  0.4660
  749SOL    HW2 2247   2.682   2.577   2.557  1.5450  0.6760  0.8084
  750SOL     OW 2248   2.288   0.752   0.617  0.3874 -0.9833 -0.3585
  750SOL    HW1 2249   2.353   0.706   0.561 -2.7519  1.9124 -0.1327
  750SOL    HW2 2250   2.205   0.697   0.624  1.7789  0.7433 -3.0050
  751SOL     OW 2251   2.377   0.051   0.153  0.2598 -0.2671 -0.4466
  751SOL    HW1 2252   2.448   0.126   0.142  0.0396  2.4512  0.7404
  751SOL    HW2 2253   2.349   0.045   0.250 -0.3102 -0.3855  0.7667
  752SOL     OW 2254   2.969   2.676   0.909  0.0038  0.0415  0.4522
  752SOL    HW1 2255   2.963   2.777   0.927  1.1871 -2.1506  0.1533
  752SOL    HW2 2256   2.989   2.661   0.812 -1.2879  1.4288 -1.0406
  753SOL     OW 2257   1.776   1.033   2.215  0.2154  0.2251 -0.0784
  753SOL    HW1 2258   1.817   1.100   2.284  0.4779  4.9033 -1.0932
  753SOL    HW2 2259   1.685   1.002   2.250 -0.2668  1.3208 -0.5779
  754SOL     OW 2260   1.766   1.990   1.379 -0.1145  0.1404  0.2100
  754SOL    HW1 2261   1.825   2.073   1.376 -0.4521  1.0619  2.4060
  754SOL    HW2 2262   1.822   1.905   1.385  1.0671 -0.6932 -0.7382
  755SOL     OW 2263   2.661   1.134   0.374  0.1016  0.0095 -0.0145
  755SOL    HW1 2264   2.678   1.060   0.439  1.5123  0.7469 -1.9967
  755SOL    HW2 2265   2.569   1.124   0.337  1.4283  0.2858 -1.0119
  756SOL     OW 2266   0.834   1.348   2.768 -0.5036 -0.4235 -0.0117
  756SOL    HW1 2267   0.831   1.359   2.667 -0.9866  1.0897 -3.2802
  756SOL    HW2 2268   0.930   1.330   2.796  1.2704 -0.4889 -1.4804
  757SOL     OW 2269   1.414   2.377   0.839  0.3699 -0.4365 -0.1351
  757SOL    HW1 2270   1.400   2.398   0.938  1.4697  2.6285  1.1201
  757SOL    HW2 2271   1.380   2.284   0.825 -1.1531 -0.7436  1.8279
  758SOL     OW 2272   1.345   2.640   1.579 -0.2482  0.2306 -0.1382
  758SOL    HW1 2273   1.315   2.737   1.594 -1.2663  0.3766  2.4255
  758SOL    HW2 2274   1.328   2.611   1.482 -0.4087 -0.5262 -1.3531
  759SOL     OW 2275   0.227   0.719   0.800  0.7936  0.2827  0.4269
  759SOL    HW1 2276   0.295   0.795   0.808  0.5447  0.2747  1.5416
  759SOL    HW2 2277   0.135   0.741   0.843 -1.1540 -0.6416  0.8459
  760SOL     OW 2278   2.501   0.936   1.314 -0.4388 -0.1479  0.0980
  760SOL    HW1 2279   2.434   0.961   1.243  2.1285  2.5492  1.0975
  760SOL    HW2 2280   2.541   1.026   1.340 -0.3588  0.3053 -0.1052
  761SOL     OW 2281   1.741   0.078   0.299 -0.1796  0.3749 -0.4075
  761SOL    HW1 2282   1.803   0.014   0.253  1.7416  1.2555  0.6871
  761SOL    HW2 2283   1.790   0.121   0.377  1.6152 -0.5535  0.4394
  762SOL     OW 2284   2.120   1.597   3.018  0.6045  0.2901 -0.1478
  762SOL    HW1 2285   2.059   1.539   2.959  0.3470  0.1151 -0.8031
  762SOL    HW2 2286   2.171   1.673   2.966  0.3842  0.0055 -0.2972
  763SOL     OW 2287   0.416   2.078   1.647 -0.0189  0.0441  0.2662
  763SOL    HW1 2288   0.473   2.021   1.708  1.2252 -1.0063 -0.3134
  763SOL    HW2 2289   0.355   2.015   1.591  1.6918 -0.6562 -3.0770
  764SOL     OW 2290   2.826   2.263   2.985  0.0166  0.6399 -0.1321
  764SOL    HW1 2291   2.801   2.170   2.951  2.3542  0.0715  1.4291
  764SOL    HW2 2292   2.851   2.321   2.904 -1.3957  0.5249 -3.7614
  765SOL     OW 2293   0.351   2.895   1.147 -0.1940  0.0827  0.2602
  765SOL    HW1 2294   0.392   2.853   1.228  0.3958  1.8569 -1.2963
  765SOL    HW2 2295   0.337   2.819   1.077  1.3134 -0.3005 -1.0827
  766SOL     OW 2296   3.029   2.002   2.329 -0.0337 -0.1016  0.1162
  766SOL    HW1 2297   3.066   1.955   2.413  0.0049 -3.6113  1.0257
  766SOL    HW2 2298   2.934   1.970   2.312  3.2421 -1.2993 -0.9831
  767SOL     OW 2299   2.334   0.720   2.198  0.1476 -0.0193 -0.6081
  767SOL    HW1 2300   2.335   0.777   2.114  0.9701  1.1241 -1.7915
  767SOL    HW2 2301   2.425   0.720   2.240  0.3484  2.1003  1.5681
  768SOL     OW 2302   1.334   3.083   2.773  0.0050 -0.3551  0.9103
  768SOL    HW1 2303   1.290   3.035   2.847  1.4141 -0.0205 -2.1717
  768SOL    HW2 2304   1.402   0.066   2.806 -2.0252 -0.6335 -2.3954
  769SOL     OW 2305   2.815   2.503   1.075  0.0820  0.5042 -0.1063
  769SOL    HW1 2306   2.832   2.551   0.986  0.0470  0.2292 -0.3040
  769SOL    HW2 2307   2.796   2.573   1.144  3.5213  0.5175  0.0311
  770SOL     OW 2308   0.546   0.206   2.611 -0.0981  0.3100 -0.3538
  770SOL    HW1 2309   0.614   0.132   2.605 -0.3676 -1.2145 -1.5697
  770SOL    HW2 2310   0.511   0.215   2.710  0.3657 -1.8253  1.7977
  771SOL     OW 2311   1.254   1.859   2.054  0.5722  0.5986 -0.0279
  771SOL    HW1 2312   1.328   1.841   1.983 -1.1279 -0.5958 -2.5541
  771SOL    HW2 2313   1.200   1.770   2.075 -2.0583  1.6612  0.3960
  772SOL     OW 2314   1.538   2.612   2.788 -0.1282  0.1453  0.6501
  772SOL    HW1 2315   1.451   2.658   2.753 -1.0747  0.6074  1.1503
  772SOL    HW2 2316   1.592   2.682   2.843 -1.5164  0.4986 -1.9359
  773SOL     OW 2317   1.834   0.908   1.400  0.1738 -0.3431 -0.2896
  773SOL    HW1 2318   1.855   0.942   1.308  2.0953  0.3602  1.0682
  773SOL    HW2 2319   1.738   0.930   1.425  2.2725 -1.4982  0.8414
  774SOL     OW 2320   0.946   0.617   0.974 -0.1285  0.3917  0.2287
  774SOL    HW1 2321   1.008   0.663   1.039  1.5377 -0.5568 -0.3468
  774SOL    HW2 2322   0.884   0.548   1.011  2.3168  0.7364 -3.8332
  775SOL     OW 2323   1.843   2.903   2.745  0.5160  0.1448  0.0145
  775SOL    HW1 2324   1.768   2.915   2.809 -0.9557  0.7123  1.2834
  775SOL    HW2 2325   1.833   2.815   2.700 -1.4938  1.5896  0.8996
  776SOL     OW 2326   2.157   0.826   1.300  0.2174  0.0686 -0.7676
  776SOL    HW1 2327   2.157   0.928   1.289 -1.3644  1.9677 -0.4681
  776SOL    HW2 2328   2.067   0.783   1.282  1.8579  2.3891  3.1006
  777SOL     OW 2329   0.115   1.160   2.108 -0.0326  0.0052 -0.4341
  777SOL    HW1 2330   0.194   1.113   2.060  2.2621  0.8177 -0.3577
  777SOL    HW2 2331   0.145   1.212   2.191 -2.4541  0.3607 -0.2187
  778SOL     OW 2332   3.082   0.932   2.907 -0.1009  0.1481 -0.1694
  778SOL    HW1 2333   0.003   0.885   2.817  0.4858  3.6774  0.7670
  778SOL    HW2 2334   0.080   0.983   2.932  2.0282  0.5145 -0.8321
  779SOL     OW 2335   0.529   0.418   2.934  0.1793  0.2233 -0.0951
  779SOL    HW1 2336   0.607   0.381   2.990 -3.9754 -2.6068  0.5134
  779SOL    HW2 2337   0.564   0.487   2.870 -0.0670 -1.0071  1.6955
  780SOL     OW 2338   2.208   1.713   2.670  0.3435 -0.1602 -0.5182
  780SOL    HW1 2339   2.166   1.647   2.609  1.0857  1.1458  2.7894
  780SOL    HW2 2340   2.287   1.766   2.634 -0.3061 -1.1115  0.9168
  781SOL     OW 2341   2.801   1.003   2.117 -0.3738  0.1929 -0.2110
  781SOL    HW1 2342   2.746   1.041   2.040 -1.6976 -0.5658 -2.9225
  781SOL    HW2 2343   2.802   0.904   2.105  3.4368  1.7915 -0.0832
  782SOL     OW 2344   1.081   1.824   2.682  0.4472 -0.2721  0.2528
  782SOL    HW1 2345   0.987   1.830   2.641 -0.5045 -2.0192 -0.2054
  782SOL    HW2 2346   1.097   1.901   2.748 -0.6174 -2.3932  1.7034
  783SOL     OW 2347   1.125   2.267   1.159  0.4061 -0.1945  0.8425
  783SOL    HW1 2348   1.137   2.203   1.082  0.3979 -0.1095 -2.1617
  783SOL    HW2 2349   1.063   2.340   1.124 -0.7182  0.6121  0.9058
  784SOL     OW 2350   1.740   0.651   2.421 -0.0425  0.1790  0.1610
  784SOL    HW1 2351   1.835   0.618   2.412 -1.5935  1.1905 -1.1414
  784SOL    HW2 2352   1.677   0.570   2.415 -0.6349  3.5480 -2.7896
  785SOL     OW 2353   0.101   0.147   2.012  0.3575 -0.4638 -0.1817
  785SOL    HW1 2354   0.048   0.119   2.094  2.3537 -0.5994 -1.5859
  785SOL    HW2 2355   0.155   0.071   1.978 -1.5109  2.0156  2.2560
  786SOL     OW 2356   0.949   1.984   0.320 -0.0699  0.0677  0.1131
  786SOL    HW1 2357   0.972   2.038   0.239 -0.1327  0.5715  1.4402
  786SOL    HW2 2358   0.909   2.040   0.389 -1.2960 -2.5641 -2.2262
  787SOL     OW 2359   1.199   0.037   0.824 -0.0749  0.0376  0.2329
  787SOL    HW1 2360   1.127   3.079   0.769  1.4373  2.7582 -1.3456
  787SOL    HW2 2361   1.173   0.040   0.922  0.0161 -2.2161 -2.6847
  788SOL     OW 2362   2.814   1.433   1.267 -0.2250  0.3556 -0.3176
  788SOL    HW1 2363   2.723   1.460   1.233  1.4615 -0.6008  2.9042
  788SOL    HW2 2364   2.854   1.487   1.342 -0.1586  1.0168 -2.1575
  789SOL     OW 2365   2.378   1.044   2.096 -0.0754  0.2050 -0.1083
  789SOL    HW1 2366   2.366   0.988   2.010 -0.2680 -1.5269 -0.3327
  789SOL    HW2 2367   2.418   0.989   2.169 -0.2937 -0.9229  1.1424
  790SOL     OW 2368   0.984   0.242   0.178  0.4045 -0.0565 -0.3067
  790SOL    HW1 2369   0.990   0.307   0.254  0.8045 -4.3925 -2.7885
  790SOL    HW2 2370   0.888   0.217   0.159 -0.1398 -0.7506 -0.5862
  791SOL     OW 2371   3.046   0.066   0.213  0.7822 -0.2537  0.1868
  791SOL    HW1 2372   3.076   0.126   0.136  0.2424  0.4724 -1.4806
  791SOL    HW2 2373   0.022   0.079   0.296  4.2442  0.5355  1.1789
  792SOL     OW 2374   1.384   0.366   1.968 -0.4482 -0.2460 -0.2528
  792SOL    HW1 2375   1.415   0.311   2.044  2.8502 -0.0032 -0.5802
  792SOL    HW2 2376   1.346   0.454   2.003  0.3750  0.8789  3.4897
  793SOL     OW 2377   3.031   0.277   1.263 -0.0166 -0.0357  0.2587
  793SOL    HW1 2378   3.052   0.336   1.185  0.8912 -1.0232 -0.7192
  793SOL    HW2 2379   3.023   0.331   1.348 -3.3418 -1.9415  0.5527
  794SOL     OW 2380   0.014   0.403   1.983 -0.2034 -0.0778  0.3618
  794SOL    HW1 2381   0.090   0.468   1.969  0.8161  0.4542  1.7275
  794SOL    HW2 2382   0.038   0.308   1.952 -1.7446 -1.1392 -0.8095
  795SOL     OW 2383   0.669   1.257   0.437  0.0914 -0.1708 -0.3746
  795SOL    HW1 2384   0.700   1.187   0.506  1.1584  0.8457 -0.8377
  795SOL    HW2 2385   0.620   1.338   0.480 -1.6255 -0.3417 -1.6388
  796SOL     OW 2386   3.012   0.894   0.106 -0.2615  0.2137  0.2517
  796SOL    HW1 2387   3.007   0.978   0.159 -0.5627 -0.5643 -2.5851
  796SOL    HW2 2388   2.997   0.919   0.010 -0.6988  2.4512  1.1389
  797SOL     OW 2389   1.534   3.020   2.517 -0.5032  0.2463 -0.2722
  797SOL    HW1 2390   1.624   2.994   2.473  0.4317  2.3744  0.8775
  797SOL    HW2 2391   1.469   2.970   2.457 -1.0956 -2.7065  3.7451
  798SOL     OW 2392   3.074   3.048   1.412  0.1316  0.0366  0.1425
  798SOL    HW1 2393   0.089   3.038   1.393  2.2774  0.1652 -1.5882
  798SOL    HW2 2394   3.046   0.055   1.384  1.8148  1.7358 -0.7051
  799SOL     OW 2395   2.919   1.095   1.768  0.1655 -0.4031 -0.1472
  799SOL    HW1 2396   2.932   1.116   1.668  1.0622 -0.1816 -0.8652
  799SOL    HW2 2397   2.934   0.992   1.788  0.3796 -0.8331  1.7868
  800SOL     OW 2398   0.086   1.716   0.386 -0.8835  0.4112  0.8944
  800SOL    HW1 2399   0.050   1.804   0.418  0.8169 -3.8516  0.8652
  800SOL    HW2 2400   0.093   1.717   0.284  1.2432  0.7657  3.7632
  801SOL     OW 2401   1.948   1.555   0.589 -0.2302  0.3930  0.0960
  801SOL    HW1 2402   1.967   1.602   0.499 -0.2785 -1.1290  1.3608
  801SOL    HW2 2403   1.913   1.460   0.582  0.1256 -1.2775  0.3444
  802SOL     OW 2404   1.395   1.069   2.750  0.1679  1.2780 -0.3265
  802SOL    HW1 2405   1.336   1.067   2.671 -0.1024 -0.9953  1.6520
  802SOL    HW2 2406   1.491   1.050   2.722 -0.5241  0.4422  0.5404
  803SOL     OW 2407   0.526   1.981   1.921 -0.4878  0.3163  0.0956
  803SOL    HW1 2408   0.627   1.995   1.897  0.4135 -2.3634 -1.1383
  803SOL    HW2 2409   0.503   1.882   1.925  1.8929  1.4461 -1.0867
  804SOL     OW 2410   1.323   2.130   0.780 -0.3834  0.1433 -0.5792
  804SOL    HW1 2411   1.404   2.062   0.779  0.9593 -4.2643  1.7146
  804SOL    HW2 2412   1.273   2.123   0.687 -2.6079  2.1015 -3.4238
  805SOL     OW 2413   2.625   2.414   2.690  0.3855 -0.3388  0.5548
  805SOL    HW1 2414   2.715   2.420   2.735  0.7112 -1.4260 -0.4176
  805SOL    HW2 2415   2.630   2.344   2.620  0.2605  1.1183  3.3490
  806SOL     OW 2416   0.386   0.393   0.543  0.6938  0.6851  0.8277
  806SOL    HW1 2417   0.309   0.343   0.580 -1.6553 -0.0565 -2.9509
  806SOL    HW2 2418   0.365   0.490   0.533  0.3817  0.8328  0.3408
  807SOL     OW 2419   2.900   0.582   2.606  0.3868  0.2996  0.1352
  807SOL    HW1 2420   2.975   0.615   2.665 -0.1020  0.1475 -2.3880
  807SOL    HW2 2421   2.840   0.511   2.650 -0.4984 -1.6923 -1.0144
  808SOL     OW 2422   0.724   2.162   0.656 -0.1735 -0.2384 -0.3442
  808SOL    HW1 2423   0.764   2.186   0.749  1.6892 -0.1720  4.3839
  808SOL    HW2 2424   0.651   2.227   0.632 -0.2831  0.0514 -0.7664
  809SOL     OW 2425   2.708   0.389   2.744  0.0727  0.3693 -0.6383
  809SOL    HW1 2426   2.744   0.301   2.778 -1.2810 -2.1233 -0.0231
  809SOL    HW2 2427   2.630   0.371   2.683  3.8713  1.1292  2.2991
  810SOL     OW 2428   1.516   1.054   0.600 -0.3899 -0.2112  0.2373
  810SOL    HW1 2429   1.478   1.120   0.671 -2.8401  0.6684  1.2510
  810SOL    HW2 2430   1.592   0.998   0.645  1.5538  0.6143  2.1574
  811SOL     OW 2431   1.809   2.749   1.894 -0.3076 -0.0675  0.1070
  811SOL    HW1 2432   1.770   2.812   1.823 -0.0527 -0.8509 -0.9421
  811SOL    HW2 2433   1.849   2.795   1.976  2.3608 -1.2372  1.9475
  812SOL     OW 2434   1.878   2.667   0.453 -0.1386 -0.0456  0.1144
  812SOL    HW1 2435   1.844   2.569   0.449 -0.6663 -0.1178 -0.9844
  812SOL    HW2 2436   1.892   2.685   0.553 -1.0127 -1.2531 -0.1996
  813SOL     OW 2437   1.042   0.649   2.041  0.3345 -0.1762 -0.0702
  813SOL    HW1 2438   1.111   0.619   1.978 -1.8833  0.4772  0.4035
  813SOL    HW2 2439   1.054   0.750   2.070  0.6348  0.9912  0.1809
  814SOL     OW 2440   0.271   0.010   1.398  0.2987  0.0577  0.3245
  814SOL    HW1 2441   0.294   0.104   1.360  1.8508  0.3838  0.6422
  814SOL    HW2 2442   0.338   3.019   1.371 -1.8346  0.9767 -0.4789
  815SOL     OW 2443   0.262   0.087   0.878 -0.4595 -0.2349  0.0100
  815SOL    HW1 2444   0.348   0.049   0.917 -1.3488  1.2892  0.2534
  815SOL    HW2 2445   0.189   0.017   0.860 -2.2599 -0.1714  0.8825
  816SOL     OW 2446   2.766   1.500   2.462  0.1641 -0.0587  0.0357
  816SOL    HW1 2447   2.687   1.443   2.433 -1.2362  0.4462  1.0129
  816SOL    HW2 2448   2.784   1.574   2.392 -2.6021 -1.9934  0.7637
  817SOL     OW 2449   1.174   0.134   0.021  0.2721 -0.1276 -1.0409
  817SOL    HW1 2450   1.255   0.102   0.072 -0.9593 -0.4367  0.5191
  817SOL    HW2 2451   1.108   0.163   0.098  0.8067  2.9499  2.0962
  818SOL     OW 2452   1.634   0.644   0.126 -0.8332 -0.4206  0.2460
  818SOL    HW1 2453   1.625   0.728   0.066 -0.7278 -0.2293  2.0244
  818SOL    HW2 2454   1.620   0.553   0.079 -1.6810 -0.3170 -3.1941
  819SOL     OW 2455   2.243   2.845   3.019  0.2067  0.4509 -0.2282
  819SOL    HW1 2456   2.169   2.789   2.976  1.2643 -2.7234 -0.0556
  819SOL    HW2 2457   2.210   2.933   3.057 -1.1511  0.1889 -0.0746
  820SOL     OW 2458   1.706   0.998   2.808 -0.2618 -0.2177 -0.3624
  820SOL    HW1 2459   1.630   0.941   2.847  1.3436 -3.1881  1.8395
  820SOL    HW2 2460   1.788   0.998   2.873  3.3032 -0.6838  1.5600
  821SOL     OW 2461   0.153   0.555   1.316 -0.4141 -0.6971 -0.2552
  821SOL    HW1 2462   0.151   0.483   1.395 -0.4404 -1.6647  2.4634
  821SOL    HW2 2463   0.078   0.543   1.252  1.2380  0.9451  2.4885
  822SOL     OW 2464   1.134   2.536   2.341 -0.5807  0.5552  0.0738
  822SOL    HW1 2465   1.205   2.467   2.362  0.0363  1.7501  0.4373
  822SOL    HW2 2466   1.057   2.493   2.294  0.9771 -0.4329  0.6553
  823SOL     OW 2467   0.439   1.329   1.801 -0.7152  0.4333 -0.5699
  823SOL    HW1 2468   0.487   1.372   1.878  1.0474 -0.1344 -1.7420
  823SOL    HW2 2469   0.460   1.374   1.713  1.9083  1.1071  0.5920
  824SOL     OW 2470   1.594   2.831   2.190  0.3058 -0.3504 -0.0158
  824SOL    HW1 2471   1.686   2.863   2.223  0.6415 -0.0601 -2.4190
  824SOL    HW2 2472   1.590   2.860   2.089  3.2397 -0.4813  0.6208
  825SOL     OW 2473   1.132   1.078   0.077 -0.0585  0.7308  0.8121
  825SOL    HW1 2474   1.117   1.177   0.087  0.7280 -1.3509 -1.1173
  825SOL    HW2 2475   1.107   1.050   3.065 -0.1734 -2.9890 -0.6661
  826SOL     OW 2476   2.179   0.767   2.941 -0.8985  0.8048  0.2533
  826SOL    HW1 2477   2.119   0.755   2.859  1.4096  1.3580 -1.6001
  826SOL    HW2 2478   2.180   0.869   2.969 -0.7493  0.9980  1.1578
  827SOL     OW 2479   0.350   2.166   2.852 -0.0210  0.1859 -0.1357
  827SOL    HW1 2480   0.444   2.137   2.872 -1.4429  2.4134 -2.1439
  827SOL    HW2 2481   0.320   2.155   2.752  1.4956  0.3516 -0.4600
  828SOL     OW 2482   2.993   0.384   1.522  0.0031 -0.1247 -0.4688
  828SOL    HW1 2483   3.084   0.354   1.558  0.6815 -1.4424  0.3403
  828SOL    HW2 2484   2.945   0.440   1.588 -1.5422  1.0018 -3.1510
  829SOL     OW 2485   0.863   1.404   1.072 -0.3270  0.1850  0.4507
  829SOL    HW1 2486   0.867   1.455   0.984 -0.0494 -1.6474 -0.4883
  829SOL    HW2 2487   0.913   1.319   1.069 -1.1680  2.5504  0.7497
  830SOL     OW 2488   0.576   1.220   1.451  0.0444 -0.3768 -0.8868
  830SOL    HW1 2489   0.600   1.245   1.355  0.2449 -0.5262 -2.1611
  830SOL    HW2 2490   0.560   1.304   1.508  2.5229 -0.5752  0.3558
  831SOL     OW 2491   0.631   1.801   0.061 -0.2311  0.4702  0.1270
  831SOL    HW1 2492   0.697   1.811   3.066  0.5225 -1.0608 -1.0361
  831SOL    HW2 2493   0.552   1.739   0.035 -0.8385  0.6484 -0.6131
  832SOL     OW 2494   0.959   3.037   0.044 -0.6450  0.4403 -0.3389
  832SOL    HW1 2495   1.034   3.079   3.078 -1.5089 -2.3039 -0.6959
  832SOL    HW2 2496   0.898   0.021   0.083 -0.3269 -1.4377  1.2235
  833SOL     OW 2497   0.090   0.529   1.731 -0.0601 -0.3592 -0.1376
  833SOL    HW1 2498   3.079   0.552   1.756 -1.8803 -0.5755 -0.5658
  833SOL    HW2 2499   0.129   0.607   1.673  0.3149  1.1428  0.8356
  834SOL     OW 2500   2.944   0.545   0.867  0.4606  0.3405 -0.3081
  834SOL    HW1 2501   2.849   0.510   0.849 -0.7605 -0.5949 -1.8836
  834SOL    HW2 2502   2.986   0.540   0.773 -0.4656 -0.9441 -1.4409
  835SOL     OW 2503   2.714   3.068   1.186  0.0832  0.0883 -0.4162
  835SOL    HW1 2504   2.767   0.066   1.164  1.5126  0.1115  1.1996
  835SOL    HW2 2505   2.666   3.080   1.274  0.2238  0.4224  0.8468
  836SOL     OW 2506   0.310   1.861   3.060 -0.2821  0.4123 -0.4101
  836SOL    HW1 2507   0.255   1.798   0.038 -2.5486 -1.9544 -2.9449
  836SOL    HW2 2508   0.320   1.957   3.086  0.7163  3.4705 -0.2414
  837SOL     OW 2509   1.894   1.872   2.907 -0.3455  0.9845  0.1826
  837SOL    HW1 2510   1.823   1.799   2.899 -0.9291  3.2221  0.6938
  837SOL    HW2 2511   1.961   1.860   2.830 -0.3504 -2.2989  1.6988
  838SOL     OW 2512   2.466   1.092   1.703  0.5449  0.5650  0.0287
  838SOL    HW1 2513   2.468   0.991   1.674 -1.7016  0.5123  1.7926
  838SOL    HW2 2514   2.530   1.108   1.780 -2.4157  2.1567 -3.8536
  839SOL     OW 2515   1.229   0.790   0.661 -0.3280 -0.1799 -0.0461
  839SOL    HW1 2516   1.128   0.809   0.687 -2.8437  2.4622 -0.5623
  839SOL    HW2 2517   1.245   0.823   0.567 -4.9867  1.1730  1.6899
  840SOL     OW 2518   1.438   0.442   0.948  0.2105 -0.2687 -0.0845
  840SOL    HW1 2519   1.361   0.398   0.901  0.7520  0.5842  0.4622
  840SOL    HW2 2520   1.474   0.518   0.893 -0.2220  1.1488 -0.7076
  841SOL     OW 2521   0.570   2.722   0.573 -0.5141  0.5309 -0.3873
  841SOL    HW1 2522   0.570   2.676   0.662 -1.3677  3.4742 -0.0639
  841SOL    HW2 2523   0.599   2.817   0.579  0.1613 -1.7102  0.9302
  842SOL     OW 2524   0.546   0.725   0.454 -0.1188 -0.3422  0.1214
  842SOL    HW1 2525   0.619   0.657   0.475 -1.1112 -1.3688 -0.1848
  842SOL    HW2 2526   0.452   0.690   0.487 -0.9537  0.3325 -2.0062
  843SOL     OW 2527   0.917   1.055   1.809  0.6857 -0.1404  0.2707
  843SOL    HW1 2528   0.868   1.086   1.890  1.3045  2.2186  0.7283
  843SOL    HW2 2529   0.893   1.106   1.724 -0.5037 -4.3825  3.5270
  844SOL     OW 2530   1.498   2.096   0.172 -0.0524  0.8133  0.0458
  844SOL    HW1 2531   1.550   2.153   0.109  2.1266 -0.3244  0.2358
  844SOL    HW2 2532   1.507   2.131   0.268  0.6582 -2.3777  0.6580
  845SOL     OW 2533   2.426   2.533   2.160  0.7522 -0.6849  0.7942
  845SOL    HW1 2534   2.506   2.588   2.182 -2.1395 -2.8570 -2.2917
  845SOL    HW2 2535   2.442   2.497   2.067  1.1290 -2.3698  2.1445
  846SOL     OW 2536   1.812   2.218   2.807  0.1801  0.1882  0.2729
  846SOL    HW1 2537   1.879   2.152   2.839 -2.3385  0.6183 -1.5350
  846SOL    HW2 2538   1.832   2.316   2.834 -3.8300  1.1394  0.5946
  847SOL     OW 2539   1.762   2.949   2.420  0.0472  0.1863 -0.3840
  847SOL    HW1 2540   1.814   3.034   2.408 -1.7825 -3.8394  1.3486
  847SOL    HW2 2541   1.802   2.907   2.503 -0.0373 -0.4479  0.6595
  848SOL     OW 2542   0.710   0.504   0.287 -0.8097  0.2731  0.0264
  848SOL    HW1 2543   0.622   0.490   0.244  2.2539  0.3969  2.4099
  848SOL    HW2 2544   0.699   0.493   0.384  0.8088 -0.6044  0.5373
  849SOL     OW 2545   0.714   2.867   1.089  0.5592  0.8201 -0.2351
  849SOL    HW1 2546   0.688   2.782   1.042  1.6063 -2.1112 -1.8638
  849SOL    HW2 2547   0.786   2.850   1.157  0.1823 -1.7178 -2.4073
  850SOL     OW 2548   0.376   1.651   0.370 -0.6091  0.1905 -0.2047
  850SOL    HW1 2549   0.426   1.732   0.406  0.4066  1.4274 -1.5807
  850SOL    HW2 2550   0.279   1.681   0.373  1.2873  4.8562  2.8139
  851SOL     OW 2551   0.265   0.684   0.262  0.1116 -0.4582 -0.4386
  851SOL    HW1 2552   0.283   0.771   0.208 -1.6124 -0.6202  1.8360
  851SOL    HW2 2553   0.165   0.689   0.291  0.0582 -0.8660  3.3475
  852SOL     OW 2554   1.562   1.987   1.585 -0.0582 -0.3666  0.2440
  852SOL    HW1 2555   1.570   2.004   1.689  1.9761  0.1098  2.3305
  852SOL    HW2 2556   1.651   1.993   1.537 -2.1525  0.6846  0.7652
  853SOL     OW 2557   0.691   1.671   0.349  0.2768  0.0600  0.4078
  853SOL    HW1 2558   0.639   1.743   0.303  2.0523  3.0211  0.5568
  853SOL    HW2 2559   0.784   1.665   0.306 -0.8584  0.1377 -1.9970
  854SOL     OW 2560   1.865   1.345   1.470  0.0016 -0.1814 -0.5706
  854SOL    HW1 2561   1.942   1.400   1.505 -0.1175 -0.1302 -0.9514
  854SOL    HW2 2562   1.875   1.249   1.506  0.5350 -0.7632 -0.4901
  855SOL     OW 2563   0.941   2.132   0.070 -0.5447  0.4933 -0.3414
  855SOL    HW1 2564   1.018   2.198   0.064  1.0097 -0.9961 -1.2046
  855SOL    HW2 2565   0.905   2.112   3.064 -1.4100  0.4161  0.8085
  856SOL     OW 2566   2.826   0.461   1.955 -0.3503  0.0484 -0.3852
  856SOL    HW1 2567   2.809   0.554   1.976 -1.9532 -2.4489 -0.5349
  856SOL    HW2 2568   2.926   0.437   1.943  3.8111  0.4522 -3.1071
  857SOL     OW 2569   0.538   0.446   1.874  0.2737  0.1632  0.1024
  857SOL    HW1 2570   0.542   0.367   1.940 -1.0229  2.1611  1.5775
  857SOL    HW2 2571   0.529   0.540   1.917  0.1297  0.7487  0.3142
  858SOL     OW 2572   0.157   1.311   2.326  0.7066 -0.2993  0.1309
  858SOL    HW1 2573   0.057   1.335   2.341 -2.9205 -0.8390  0.4139
  858SOL    HW2 2574   0.217   1.345   2.399  0.6774 -2.2839 -1.3304
  859SOL     OW 2575   2.077   3.029   0.521 -0.4001  0.5853  0.3125
  859SOL    HW1 2576   2.065   0.018   0.585  1.3579 -0.8852  1.6631
  859SOL    HW2 2577   1.987   2.996   0.489  0.3380  0.0914 -0.8599
  860SOL     OW 2578   1.729   3.038   3.024 -0.1165 -0.2143 -0.2394
  860SOL    HW1 2579   1.656   2.973   2.994  0.9464 -0.0901 -0.5216
  860SOL    HW2 2580   1.771   3.085   2.944  0.8082 -0.6572  0.3420
  861SOL     OW 2581   0.302   0.662   0.559  0.6171  0.0347  0.2716
  861SOL    HW1 2582   0.226   0.648   0.493 -0.3140  1.4892  1.5757
  861SOL    HW2 2583   0.263   0.666   0.656  2.1757 -1.2077  0.0947
  862SOL     OW 2584   1.697   0.493   2.026  0.4281  0.3329  0.0229
  862SOL    HW1 2585   1.782   0.448   1.998  1.0949  1.6206  0.1585
  862SOL    HW2 2586   1.619   0.433   1.993 -1.5844 -0.4544 -0.1187
  863SOL     OW 2587   3.056   1.823   1.025  0.7965 -0.4680  0.0020
  863SOL    HW1 2588   2.957   1.804   1.018  0.7168  1.8757  1.0298
  863SOL    HW2 2589   3.070   1.905   1.089 -0.7826  0.2848  3.1119
  864SOL     OW 2590   2.348   2.860   1.976 -0.4751 -0.4428  0.7265
  864SOL    HW1 2591   2.338   2.854   1.874  0.0858 -0.2248 -3.3802
  864SOL    HW2 2592   2.270   2.813   2.027 -0.3118 -1.0530 -1.7034
  865SOL     OW 2593   1.191   0.386   1.138  0.2413  0.0231  0.2621
  865SOL    HW1 2594   1.246   0.313   1.186  0.1463 -2.3175  0.1854
  865SOL    HW2 2595   1.172   0.356   1.046  2.0760 -0.0627 -0.7952
  866SOL     OW 2596   2.535   2.763   0.714  0.0377  0.4443  0.2577
  866SOL    HW1 2597   2.558   2.776   0.616  1.1485 -1.8352 -2.3071
  866SOL    HW2 2598   2.584   2.682   0.755  1.0430 -2.0631  1.6848
  867SOL     OW 2599   2.714   2.516   0.742  0.0430 -0.5000 -0.1701
  867SOL    HW1 2600   2.690   2.422   0.773 -0.2866 -1.0533  1.4839
  867SOL    HW2 2601   2.751   2.525   0.648 -1.0208 -1.1040  1.7559
  868SOL     OW 2602   1.305   2.039   2.238 -0.5568  0.0213  0.0595
  868SOL    HW1 2603   1.299   1.963   2.166  0.3804 -0.2291 -1.4408
  868SOL    HW2 2604   1.260   2.125   2.202  0.8826 -1.1963 -0.9009
  869SOL     OW 2605   2.110   1.670   0.397  0.2287  0.7685  0.5017
  869SOL    HW1 2606   2.048   1.674   0.311  0.4138 -0.8648  1.0571
  869SOL    HW2 2607   2.210   1.665   0.373 -4.1170  0.0942 -0.2312
  870SOL     OW 2608   2.356   2.028   0.580 -0.4337  0.0624  0.0668
  870SOL    HW1 2609   2.311   2.028   0.492  1.0297  3.0312  1.0330
  870SOL    HW2 2610   2.293   1.992   0.652 -0.0648 -1.5601 -0.2467
  871SOL     OW 2611   2.963   1.096   1.452  0.3801 -0.1034 -0.0549
  871SOL    HW1 2612   3.020   1.179   1.468  1.7099  0.8723  1.2060
  871SOL    HW2 2613   3.019   1.012   1.444 -1.5370  0.1784 -1.8168
  872SOL     OW 2614   0.583   1.953   2.523  0.2806 -0.1106 -0.0407
  872SOL    HW1 2615   0.551   1.953   2.424 -0.5894  1.2480 -1.4869
  872SOL    HW2 2616   0.506   1.938   2.591  0.3153  0.7203  0.7160
  873SOL     OW 2617   0.295   2.615   1.927  0.5940 -0.2556 -0.9473
  873SOL    HW1 2618   0.285   2.514   1.924  1.8770  0.5943 -0.9012
  873SOL    HW2 2619   0.216   2.663   1.969  0.7819  0.6384  1.3778
  874SOL     OW 2620   1.206   0.922   2.008  0.6012 -0.1668 -0.6096
  874SOL    HW1 2621   1.300   0.944   2.033 -0.7631 -0.8507 -0.6325
  874SOL    HW2 2622   1.203   0.916   1.907  3.5826  1.5631  0.7363
  875SOL     OW 2623   2.749   2.730   1.209  0.2579  0.0256 -0.5125
  875SOL    HW1 2624   2.796   2.792   1.268 -3.1359 -4.4996 -2.3488
  875SOL    HW2 2625   2.692   2.781   1.144 -2.6468  0.4537 -1.0582
  876SOL     OW 2626   0.963   1.111   1.095  0.3476  0.0275  0.0687
  876SOL    HW1 2627   1.029   1.150   1.162 -2.1986 -1.8368  1.8539
  876SOL    HW2 2628   1.009   1.071   1.016  0.8962  0.4170  1.3727
  877SOL     OW 2629   0.410   0.296   1.277 -0.3643  0.8977  0.2375
  877SOL    HW1 2630   0.468   0.374   1.265  0.2338 -3.7309  0.7570
  877SOL    HW2 2631   0.355   0.286   1.190 -0.4743 -0.3420 -1.0168
  878SOL     OW 2632   2.592   1.680   2.827 -0.1600  0.1157 -0.2352
  878SOL    HW1 2633   2.626   1.706   2.920  3.0560 -0.4301 -2.0267
  878SOL    HW2 2634   2.586   1.582   2.816  0.4674  2.3774  1.4789
  879SOL     OW 2635   2.462   1.980   1.254  0.7484  0.2252  0.4153
  879SOL    HW1 2636   2.437   1.981   1.153  2.2887 -1.7933  0.5440
  879SOL    HW2 2637   2.541   2.043   1.278 -1.5368  0.5028 -1.5351
  880SOL     OW 2638   0.933   2.249   0.832  0.4596 -0.4145 -0.3179
  880SOL    HW1 2639   0.908   2.310   0.910 -1.4131  2.9175 -2.5862
  880SOL    HW2 2640   0.987   2.174   0.867 -2.1896 -0.0695  1.8208
  881SOL     OW 2641   1.521   1.758   1.014  0.2789 -0.1649 -0.3202
  881SOL    HW1 2642   1.424   1.728   0.996 -2.6082 -2.3711 -1.9231
  881SOL    HW2 2643   1.554   1.713   1.094  3.0286 -1.3410 -1.2848
  882SOL     OW 2644   2.277   1.252   2.504  0.1231  0.2401 -0.8856
  882SOL    HW1 2645   2.379   1.257   2.502 -0.2461 -0.0515 -0.2489
  882SOL    HW2 2646   2.243   1.226   2.411  1.4540  0.6577 -1.3517
  883SOL     OW 2647   1.251   0.302   0.828  0.3167  0.0633 -0.6393
  883SOL    HW1 2648   1.194   0.379   0.784 -0.7804  2.7744 -0.1756
  883SOL    HW2 2649   1.213   0.207   0.816 -3.3876 -0.9433  0.5656
  884SOL     OW 2650   2.999   2.947   0.930 -0.4680 -0.1738  0.2097
  884SOL    HW1 2651   3.086   2.956   0.877  2.1043 -2.3299 -1.2509
  884SOL    HW2 2652   3.007   3.001   1.016  1.4238 -0.5126  0.1533
  885SOL     OW 2653   1.207   1.240   1.520 -0.1392  0.2125  0.6775
  885SOL    HW1 2654   1.203   1.197   1.612 -0.5795  1.5503 -0.0759
  885SOL    HW2 2655   1.286   1.301   1.521 -0.6547 -0.5732 -1.0309
  886SOL     OW 2656   1.229   0.859   2.878  0.1805  0.0093  0.5258
  886SOL    HW1 2657   1.131   0.876   2.917 -3.8582  1.1194  2.4257
  886SOL    HW2 2658   1.249   0.924   2.798  1.6145  2.2201 -1.5977
  887SOL     OW 2659   1.679   0.049   0.845  0.1441 -0.6246 -0.2353
  887SOL    HW1 2660   1.656   0.101   0.929 -0.8747 -1.4731 -0.2156
  887SOL    HW2 2661   1.675   3.040   0.867 -0.4663  1.2118  0.5822
  888SOL     OW 2662   2.184   1.448   1.874  0.7172  0.1379  0.3994
  888SOL    HW1 2663   2.233   1.531   1.867 -0.4449 -6.1447 -0.4334
  888SOL    HW2 2664   2.241   1.375   1.912  1.1922  3.0979 -1.1642
  889SOL     OW 2665   3.085   2.090   1.177 -0.0613 -0.2378 -0.4130
  889SOL    HW1 2666   3.066   2.189   1.156 -1.2986 -3.2562 -1.9271
  889SOL    HW2 2667   2.999   2.051   1.216 -1.0822 -1.4047 -0.1095
  890SOL     OW 2668   1.200   2.122   0.558  0.0838  0.3617 -0.2432
  890SOL    HW1 2669   1.224   2.118   0.459  2.5952 -1.0232  0.6219
  890SOL    HW2 2670   1.105   2.163   0.572 -1.9889  3.7911 -2.2399
  891SOL     OW 2671   2.615   0.650   2.281 -1.0803 -0.0745  0.0986
  891SOL    HW1 2672   2.661   0.680   2.371  0.1815  2.6606  1.2330
  891SOL    HW2 2673   2.599   0.546   2.281 -1.4058 -0.6115  4.3141
  892SOL     OW 2674   0.158   2.652   1.384 -0.4912  0.3815 -0.0849
  892SOL    HW1 2675   0.136   2.686   1.292 -1.8648  1.8840 -0.0873
  892SOL    HW2 2676   0.220   2.713   1.437 -0.0092 -1.1914 -0.3232
  893SOL     OW 2677   1.006   0.530   2.446  0.0042  0.6159 -0.1353
  893SOL    HW1 2678   1.005   0.534   2.550 -1.4313  1.6481  2.7205
  893SOL    HW2 2679   1.106   0.546   2.413  0.8212  0.1024  0.2756
  894SOL     OW 2680   2.693   0.171   0.861 -0.2873 -0.0519 -0.0423
  894SOL    HW1 2681   2.743   0.209   0.942 -1.4087  0.7618 -2.2012
  894SOL    HW2 2682   2.721   0.220   0.776 -0.6810 -2.5388  4.2969
  895SOL     OW 2683   1.715   1.803   2.356 -0.5697 -0.1256  1.1060
  895SOL    HW1 2684   1.723   1.709   2.395 -0.3003 -1.7639  0.7575
  895SOL    HW2 2685   1.624   1.835   2.377  1.8864 -0.5601 -0.7783
  896SOL     OW 2686   1.702   0.493   1.430 -0.2881 -0.2902  0.4735
  896SOL    HW1 2687   1.718   0.398   1.402  2.6514  0.8777  0.4237
  896SOL    HW2 2688   1.602   0.512   1.438  0.7211  1.7491  3.5451
  897SOL     OW 2689   0.674   1.751   1.708 -0.1518 -0.1478  0.7085
  897SOL    HW1 2690   0.775   1.750   1.732  3.0813  1.9047  0.2154
  897SOL    HW2 2691   0.669   1.733   1.605 -0.1008 -2.1709 -2.8613
  898SOL     OW 2692   1.719   1.903   2.113  0.4339 -0.1915 -0.2793
  898SOL    HW1 2693   1.663   1.989   2.128 -3.3691 -0.4276  0.9711
  898SOL    HW2 2694   1.719   1.850   2.200 -0.9052  1.3466 -0.4046
  899SOL     OW 2695   1.989   2.144   0.690  0.7942  0.9392 -0.6795
  899SOL    HW1 2696   2.072   2.087   0.711  2.4346  2.7641 -1.1890
  899SOL    HW2 2697   1.910   2.086   0.663 -1.5830  0.9027  1.4144
  900SOL     OW 2698   0.980   0.124   2.650  0.5746  0.6620 -0.1619
  900SOL    HW1 2699   1.001   0.031   2.684 -3.6353 -1.2834  0.4080
  900SOL    HW2 2700   0.987   0.199   2.720  1.0523  0.6677 -0.6012
  901SOL     OW 2701   1.253   1.466   2.162  0.1951  0.2915 -0.4053
  901SOL    HW1 2702   1.191   1.545   2.163  2.4105  1.7749  3.2217
  901SOL    HW2 2703   1.354   1.489   2.172  0.5060 -0.5674 -1.5730
  902SOL     OW 2704   2.181   0.589   0.050  0.5845  0.3669 -0.3455
  902SOL    HW1 2705   2.163   0.658   3.057 -0.7804  0.9369 -1.1259
  902SOL    HW2 2706   2.106   0.598   0.123  1.0680  0.4145 -0.9788
  903SOL     OW 2707   2.047   0.853   2.256 -0.6224  0.0394 -0.4746
  903SOL    HW1 2708   1.978   0.792   2.208 -1.6256 -0.4323  2.4533
  903SOL    HW2 2709   2.137   0.807   2.270 -1.2263  0.7027  1.7194
  904SOL     OW 2710   1.925   1.110   1.557  0.3026  0.4700 -0.2659
  904SOL    HW1 2711   1.907   1.037   1.490 -0.7610  3.8685  1.1805
  904SOL    HW2 2712   2.027   1.111   1.582  0.5724  0.1049 -1.0986
  905SOL     OW 2713   2.143   0.366   0.828 -0.0891  0.1631  0.0360
  905SOL    HW1 2714   2.247   0.358   0.835  0.3045 -0.9233  3.0568
  905SOL    HW2 2715   2.114   0.402   0.917 -1.7740 -1.2233  0.0164
  906SOL     OW 2716   2.592   1.696   0.481  0.6600  0.2115 -0.4016
  906SOL    HW1 2717   2.676   1.644   0.449 -0.1203 -3.3395  1.1404
  906SOL    HW2 2718   2.604   1.794   0.479  1.7267  0.2422 -0.2543
  907SOL     OW 2719   1.419   2.988   0.601  1.2760 -0.2994 -0.0560
  907SOL    HW1 2720   1.425   2.983   0.704  0.2882  1.1254  0.0096
  907SOL    HW2 2721   1.386   3.079   0.565 -2.4941 -1.7267 -0.8935
  908SOL     OW 2722   1.530   2.167   2.109  0.4292  0.0793 -0.2554
  908SOL    HW1 2723   1.520   2.270   2.110  1.9092  0.3454 -0.6679
  908SOL    HW2 2724   1.453   2.129   2.166 -2.2675 -0.2302  2.2067
  909SOL     OW 2725   2.274   0.500   2.041 -0.5625  0.2819  0.3174
  909SOL    HW1 2726   2.196   0.541   1.991 -0.3803 -1.2719  2.1667
  909SOL    HW2 2727   2.272   0.531   2.140  0.2043 -0.8365 -0.0535
  910SOL     OW 2728   1.232   0.134   2.560 -0.5353  0.0962  0.3392
  910SOL    HW1 2729   1.134   0.128   2.569 -0.4538 -0.3120 -1.1278
  910SOL    HW2 2730   1.274   0.068   2.627  0.7063 -0.8517 -0.7117
  911SOL     OW 2731   2.594   1.056   2.813 -0.1386 -0.9970  0.0702
  911SOL    HW1 2732   2.536   0.973   2.825  0.4957 -0.1817 -0.9625
  911SOL    HW2 2733   2.676   1.055   2.873  1.9606  0.1946 -2.2250
  912SOL     OW 2734   2.936   2.406   1.460  0.2080  0.3079 -0.3926
  912SOL    HW1 2735   2.844   2.405   1.417  0.9104 -1.0388 -0.8689
  912SOL    HW2 2736   2.939   2.336   1.533 -2.2770 -0.3348 -3.3767
  913SOL     OW 2737   2.771   1.913   2.396 -0.1171  0.2073  0.2249
  913SOL    HW1 2738   2.792   1.869   2.482 -1.8403 -0.4255 -2.4521
  913SOL    HW2 2739   2.679   1.957   2.391 -0.7305  0.8483  1.1394
  914SOL     OW 2740   2.206   1.420   0.612  0.0892 -0.1326  0.9052
  914SOL    HW1 2741   2.133   1.494   0.593  0.2867  2.8697 -0.9232
  914SOL    HW2 2742   2.182   1.329   0.575 -0.3953  0.7984 -0.5723
  915SOL     OW 2743   0.493   2.683   2.109  0.0909  0.2627  0.1054
  915SOL    HW1 2744   0.493   2.614   2.188 -0.9037 -1.2780  0.0188
  915SOL    HW2 2745   0.418   2.664   2.043 -0.6750 -1.6677 -0.3188
  916SOL     OW 2746   0.506   2.504   0.805 -0.9438  0.3890  0.7913
  916SOL    HW1 2747   0.539   2.434   0.869 -1.9818 -0.4804  1.7196
  916SOL    HW2 2748   0.407   2.507   0.805  1.5953 -1.7618  1.2492
  917SOL     OW 2749   2.420   0.742   2.615  0.2892  0.3162 -0.1369
  917SOL    HW1 2750   2.381   0.816   2.671  1.5125  3.4171  0.0016
  917SOL    HW2 2751   2.511   0.764   2.580 -0.0777  1.9803 -0.9415
  918SOL     OW 2752   1.500   2.449   2.573 -0.5879 -0.5049 -0.1243
  918SOL    HW1 2753   1.509   2.514   2.652 -0.7317 -1.4994 -0.1480
  918SOL    HW2 2754   1.565   2.374   2.583  0.5245  3.5599  1.4508
  919SOL     OW 2755   1.761   2.203   1.099 -0.2250 -0.3532 -0.0890
  919SOL    HW1 2756   1.804   2.235   1.008  0.3788 -0.5027 -0.7185
  919SOL    HW2 2757   1.660   2.207   1.076  2.1368  0.2014 -0.8363
  920SOL     OW 2758   1.248   0.056   2.288 -0.0333 -0.1571 -0.2724
  920SOL    HW1 2759   1.252   0.109   2.378  1.4119 -0.6296  3.5709
  920SOL    HW2 2760   1.275   3.044   2.303  4.1316  0.5502 -0.0111
  921SOL     OW 2761   0.220   0.652   2.541 -0.2019  0.3814 -0.0411
  921SOL    HW1 2762   0.250   0.748   2.510  0.4458  0.1519  0.3995
  921SOL    HW2 2763   0.233   0.577   2.470 -2.9692  0.2037 -0.7702
  922SOL     OW 2764   2.875   1.994   1.297 -1.2060 -0.3571  0.4067
  922SOL    HW1 2765   2.869   1.925   1.372  0.6933 -0.7853 -0.6883
  922SOL    HW2 2766   2.792   2.049   1.297  2.0044 -2.6189  0.4260
  923SOL     OW 2767   3.082   1.616   2.484  0.8895 -0.2491 -0.1439
  923SOL    HW1 2768   0.003   1.622   2.383  3.3003 -0.8976 -1.0155
  923SOL    HW2 2769   3.016   1.545   2.516  4.5938 -2.6642 -1.6326
  924SOL     OW 2770   1.471   0.236   2.209  0.2693 -0.0032 -0.3850
  924SOL    HW1 2771   1.529   0.192   2.142 -0.3682  0.5487  3.5228
  924SOL    HW2 2772   1.388   0.184   2.235 -1.9129  2.7839  3.1567
  925SOL     OW 2773   0.018   1.311   0.669  0.4701 -0.3835  0.0922
  925SOL    HW1 2774   0.111   1.310   0.634 -0.5105 -2.1612  1.7746
  925SOL    HW2 2775   3.058   1.223   0.655 -0.9335  0.5751 -0.4320
  926SOL     OW 2776   2.279   0.392   1.263  0.4784  0.0965 -0.0920
  926SOL    HW1 2777   2.363   0.373   1.212 -0.8118 -1.4756  0.3014
  926SOL    HW2 2778   2.289   0.447   1.346  0.2757 -1.7986 -0.7719
  927SOL     OW 2779   1.463   0.750   1.107  0.3818  0.0809  0.3725
  927SOL    HW1 2780   1.456   0.721   1.003 -0.2076 -3.4067 -0.5621
  927SOL    HW2 2781   1.371   0.759   1.158 -1.4691 -0.8005  2.4113
  928SOL     OW 2782   2.996   0.543   2.360  0.0644 -0.2528 -0.2048
  928SOL    HW1 2783   2.972   0.559   2.458  0.0112 -1.3959  1.2862
  928SOL    HW2 2784   3.033   0.634   2.318  1.2673  0.1064 -1.4377
  929SOL     OW 2785   2.266   0.695   1.066  0.6681 -0.4240 -0.1176
  929SOL    HW1 2786   2.208   0.611   1.065  1.0937 -0.1601 -0.3191
  929SOL    HW2 2787   2.259   0.750   1.154  1.0940 -2.1336  1.4177
  930SOL     OW 2788   2.010   2.332   1.054 -0.3136 -0.9010 -0.2587
  930SOL    HW1 2789   1.952   2.352   0.973  1.3419  0.7302 -1.3869
  930SOL    HW2 2790   2.012   2.411   1.118 -0.0432  0.1726  0.4558
  931SOL     OW 2791   1.848   1.044   1.159 -0.4679  0.4268 -0.1322
  931SOL    HW1 2792   1.750   1.015   1.148  2.4110 -0.6431 -0.2954
  931SOL    HW2 2793   1.880   1.066   1.063  0.8561  0.7350 -1.6540
  932SOL     OW 2794   3.080   0.848   1.462 -0.5836 -0.2101 -0.0970
  932SOL    HW1 2795   3.054   0.754   1.447  0.0438  0.5305  1.9928
  932SOL    HW2 2796   0.091   0.853   1.478  1.2774 -0.5266  1.7197
  933SOL     OW 2797   1.758   1.630   2.072 -0.0845  0.2405  0.3291
  933SOL    HW1 2798   1.838   1.576   2.039 -1.3799 -1.0708 -0.2136
  933SOL    HW2 2799   1.775   1.727   2.056 -0.8030 -0.5467  2.1245
  934SOL     OW 2800   1.545   2.916   1.941  0.2302  0.1250 -0.4582
  934SOL    HW1 2801   1.573   2.915   1.844 -2.3366  1.1633 -1.5577
  934SOL    HW2 2802   1.446   2.899   1.939 -2.8233  0.8469 -0.8557
  935SOL     OW 2803   2.971   0.883   1.129 -0.1228 -0.1980 -0.3574
  935SOL    HW1 2804   3.049   0.900   1.196  0.6390 -0.6559 -0.5700
  935SOL    HW2 2805   2.884   0.860   1.183  0.2304 -0.4640 -0.9241
  936SOL     OW 2806   2.889   0.645   1.365  0.0759 -0.1267  0.7783
  936SOL    HW1 2807   2.862   0.609   1.457  0.6997  0.0242 -0.4614
  936SOL    HW2 2808   2.844   0.732   1.345  0.0343 -0.0762 -1.3497
  937SOL     OW 2809   0.819   0.148   1.387  0.7705  0.1116  0.0617
  937SOL    HW1 2810   0.881   0.227   1.354 -1.7326  0.7770  0.3115
  937SOL    HW2 2811   0.744   0.191   1.449 -2.5768 -1.9685 -0.6038
  938SOL     OW 2812   0.234   2.507   0.826 -0.1324 -0.4627  0.5873
  938SOL    HW1 2813   0.179   2.423   0.859  1.3888 -2.2677  0.7002
  938SOL    HW2 2814   0.214   2.530   0.730 -1.2758 -0.7473  1.9701
  939SOL     OW 2815   2.879   2.446   2.774  0.6945 -0.4981 -0.1305
  939SOL    HW1 2816   2.966   2.412   2.731  1.7556 -2.5170 -1.7017
  939SOL    HW2 2817   2.883   2.545   2.807  1.3327  2.3598  0.8025
  940SOL     OW 2818   2.023   1.966   0.039  0.0347 -0.1505 -0.5675
  940SOL    HW1 2819   2.115   2.002   0.019 -0.5218 -1.0016 -0.7656
  940SOL    HW2 2820   1.964   1.951   3.047 -2.2088 -0.1855 -0.8423
  941SOL     OW 2821   1.757   2.664   0.845  1.0188  0.1380 -0.3429
  941SOL    HW1 2822   1.731   2.577   0.798  0.3220 -0.3641 -0.4150
  941SOL    HW2 2823   1.826   2.717   0.791  0.1663 -0.0175  1.1861
  942SOL     OW 2824   2.091   1.527   1.101 -0.4186 -0.1669 -0.4174
  942SOL    HW1 2825   2.128   1.490   1.017  0.7093 -1.2499  3.3153
  942SOL    HW2 2826   2.089   1.454   1.169  0.3095  0.4055 -2.3376
  943SOL     OW 2827   2.042   0.646   1.741 -0.3938 -0.0631  0.4412
  943SOL    HW1 2828   1.960   0.665   1.677 -2.9372  1.2083 -0.1862
  943SOL    HW2 2829   2.085   0.554   1.732 -1.2371 -0.1031 -2.0053
  944SOL     OW 2830   1.358   0.886   1.715 -0.1352 -0.0080  0.0682
  944SOL    HW1 2831   1.283   0.949   1.727  1.5080  1.6068  3.6590
  944SOL    HW2 2832   1.360   0.866   1.617 -1.2845 -0.7605  1.6735
  945SOL     OW 2833   2.521   2.742   1.368  0.1098  0.7401 -0.2278
  945SOL    HW1 2834   2.499   2.843   1.356 -0.9064  1.9982 -1.0156
  945SOL    HW2 2835   2.607   2.717   1.321  0.2037  1.5285 -1.5609
  946SOL     OW 2836   0.723   1.740   0.670 -0.3664  0.3481  0.2220
  946SOL    HW1 2837   0.726   1.684   0.589 -0.9474  0.5809 -0.2072
  946SOL    HW2 2838   0.806   1.798   0.672  1.8194 -1.7989  0.8635
  947SOL     OW 2839   0.940   2.460   1.081 -0.3117  0.2135 -0.0931
  947SOL    HW1 2840   0.899   2.542   1.037 -0.4840  0.5610  0.3317
  947SOL    HW2 2841   0.878   2.426   1.151  1.3387  1.7782 -1.2869
  948SOL     OW 2842   0.245   1.571   1.572  0.1701 -0.8588  0.1539
  948SOL    HW1 2843   0.343   1.542   1.578 -0.3803 -0.4918  2.4747
  948SOL    HW2 2844   0.236   1.627   1.489  1.9373 -2.8019  2.9460
  949SOL     OW 2845   0.551   0.728   1.946 -0.5138 -0.6102 -0.1022
  949SOL    HW1 2846   0.636   0.753   1.889  1.0673 -0.1102 -1.3262
  949SOL    HW2 2847   0.556   0.762   2.038  0.6063 -3.8419  0.4608
  950SOL     OW 2848   0.338   0.661   1.169 -0.1364  0.2371  0.6520
  950SOL    HW1 2849   0.266   0.619   1.233  0.8748 -2.2990  1.7823
  950SOL    HW2 2850   0.311   0.753   1.133  0.0274 -0.8490  1.1143
  951SOL     OW 2851   1.031   2.029   2.024  0.2323  0.8051  0.1603
  951SOL    HW1 2852   1.109   1.961   2.038  1.9045  4.5673  0.3357
  951SOL    HW2 2853   1.067   2.123   2.007  1.0632 -1.5793  2.1675
  952SOL     OW 2854   1.305   1.399   0.196  0.1489 -0.5535  0.4308
  952SOL    HW1 2855   1.330   1.478   0.261 -3.2178  0.2609  1.9672
  952SOL    HW2 2856   1.371   1.385   0.120 -0.3107 -1.6856  0.2331
  953SOL     OW 2857   1.014   2.940   2.743 -0.0007 -0.6938  0.0519
  953SOL    HW1 2858   0.915   2.923   2.764 -2.2469 -0.2970  1.8912
  953SOL    HW2 2859   1.054   2.869   2.686 -1.5684 -1.6268 -0.8721
  954SOL     OW 2860   1.833   1.427   0.201 -0.4928  0.1561  0.3990
  954SOL    HW1 2861   1.760   1.396   0.269  0.2798 -0.4933 -0.1485
  954SOL    HW2 2862   1.887   1.508   0.224 -0.1985 -1.6580 -0.4055
  955SOL     OW 2863   0.181   2.631   2.903  0.0279 -0.2337 -0.1521
  955SOL    HW1 2864   0.181   2.695   2.985  2.0200  3.4659  1.4580
  955SOL    HW2 2865   0.165   2.699   2.826 -0.8257 -0.1431  0.9389
  956SOL     OW 2866   1.353   0.813   1.454  0.1248 -0.1821 -0.3814
  956SOL    HW1 2867   1.392   0.721   1.430  1.2398  0.0388 -1.3165
  956SOL    HW2 2868   1.282   0.845   1.384 -1.3304 -1.1021 -2.5582
  957SOL     OW 2869   1.563   1.719   1.782 -0.4631  0.6921  0.1954
  957SOL    HW1 2870   1.666   1.726   1.773 -0.4191  1.2614  0.8742
  957SOL    HW2 2871   1.519   1.806   1.798  2.1722  0.1254  0.0602
  958SOL     OW 2872   1.200   2.125   1.390 -0.8669  0.2095 -0.6602
  958SOL    HW1 2873   1.287   2.140   1.441  0.1662  0.4947 -1.7598
  958SOL    HW2 2874   1.191   2.186   1.306  0.2101  0.1044 -1.7883
  959SOL     OW 2875   1.405   1.085   1.027  0.1557  0.2351 -0.3905
  959SOL    HW1 2876   1.481   1.036   1.073 -0.4142 -0.2004 -0.0868
  959SOL    HW2 2877   1.330   1.017   1.004 -0.4084 -0.7505 -2.4427
  960SOL     OW 2878   0.212   1.520   2.973  0.0250 -0.1325  0.2886
  960SOL    HW1 2879   0.275   1.522   3.057  2.3791 -0.5913  3.0085
  960SOL    HW2 2880   0.257   1.458   2.904 -0.6241 -1.0202  2.2502
  961SOL     OW 2881   0.604   1.335   2.043 -0.0366 -0.4884 -0.4423
  961SOL    HW1 2882   0.542   1.390   2.106 -1.6867  0.6125  1.2779
  961SOL    HW2 2883   0.657   1.401   1.983 -0.6057 -1.4764 -0.9908
  962SOL     OW 2884   1.495   1.941   0.820 -0.2010 -0.1266 -0.2328
  962SOL    HW1 2885   1.523   1.908   0.728 -2.8664  0.1785  2.8257
  962SOL    HW2 2886   1.513   1.871   0.895 -0.2366 -0.1886 -2.9302
  963SOL     OW 2887   1.495   2.033   2.663  0.4112 -0.2500  0.6093
  963SOL    HW1 2888   1.418   2.088   2.696  1.5218 -2.0613 -2.1117
  963SOL    HW2 2889   1.508   1.942   2.714  1.7745 -3.6213  0.7906
  964SOL     OW 2890   0.741   0.152   0.422  0.7206  0.7556 -0.1489
  964SOL    HW1 2891   0.700   0.196   0.507  0.8046 -0.2362  1.5488
  964SOL    HW2 2892   0.743   0.052   0.443  0.7807  0.1581  1.2042
  965SOL     OW 2893   0.707   2.599   0.965  0.0040 -0.6693  0.1484
  965SOL    HW1 2894   0.628   2.569   0.911  1.1395  2.1840  0.9840
  965SOL    HW2 2895   0.771   2.647   0.900  1.5246  1.4058 -1.8920
  966SOL     OW 2896   0.427   1.788   2.798 -0.3190 -0.4969 -0.7059
  966SOL    HW1 2897   0.371   1.836   2.735  1.4491  1.3546  2.8143
  966SOL    HW2 2898   0.386   1.797   2.889  0.4451 -0.3834 -0.2945
  967SOL     OW 2899   0.246   2.973   2.505 -0.2395 -0.6409 -0.1160
  967SOL    HW1 2900   0.277   3.068   2.477 -1.7110  1.9932  0.2288
  967SOL    HW2 2901   0.241   2.916   2.424 -0.4447 -0.7338  0.7793
  968SOL     OW 2902   2.157   0.396   0.402 -0.2689  0.0041  0.0940
  968SOL    HW1 2903   2.155   0.441   0.493  1.7962 -2.7251 -2.3488
  968SOL    HW2 2904   2.065   0.405   0.364 -0.2793 -2.7472 -0.8368
  969SOL     OW 2905   0.099   1.483   2.029 -0.6593  0.8194 -0.3570
  969SOL    HW1 2906   0.052   1.403   1.986  3.5383 -0.5643  0.9201
  969SOL    HW2 2907   0.126   1.555   1.963  0.2808 -0.6930  0.2728
  970SOL     OW 2908   2.656   1.438   1.636  0.5418 -0.4942  0.5383
  970SOL    HW1 2909   2.756   1.423   1.616  1.2783  1.9424 -0.6274
  970SOL    HW2 2910   2.595   1.368   1.583 -0.6006  1.6904 -1.7629
  971SOL     OW 2911   2.124   0.208   1.156  0.4385  0.9623 -0.2666
  971SOL    HW1 2912   2.175   0.281   1.201 -1.8218 -0.7448  1.2982
  971SOL    HW2 2913   2.193   0.146   1.111 -2.5734 -0.5215 -1.4578
  972SOL     OW 2914   0.184   2.975   1.913 -0.5572  0.0131 -0.1931
  972SOL    HW1 2915   0.178   2.887   1.957  3.4287  1.4058 -0.7925
  972SOL    HW2 2916   0.129   2.975   1.828  0.6279 -0.4420 -0.0477
  973SOL     OW 2917   3.028   0.634   0.146 -0.1289 -0.1565  0.0284
  973SOL    HW1 2918   3.008   0.736   0.135 -2.4813 -0.3655  1.2247
  973SOL    HW2 2919   3.058   0.593   0.054  1.0996  0.8045 -0.5185
  974SOL     OW 2920   1.883   1.487   2.268 -0.1413  0.5024  0.0791
  974SOL    HW1 2921   1.980   1.476   2.231 -1.0486  0.0023 -0.8741
  974SOL    HW2 2922   1.819   1.534   2.204 -0.7623  0.4084 -0.8118
  975SOL     OW 2923   0.080   2.982   1.651  0.3511 -0.3164 -0.7438
  975SOL    HW1 2924   0.045   3.002   1.561 -1.3645  0.1420  2.5220
  975SOL    HW2 2925   0.168   2.943   1.643 -1.6950  2.4896  3.0137
  976SOL     OW 2926   0.345   2.079   2.100  0.5215  0.0612 -0.1606
  976SOL    HW1 2927   0.292   2.160   2.074  1.3837  2.5005 -1.7756
  976SOL    HW2 2928   0.413   2.055   2.027 -0.3471  0.3933  2.6270
  977SOL     OW 2929   0.980   2.749   0.451  0.4495  0.6933 -0.0447
  977SOL    HW1 2930   1.070   2.737   0.498  1.2387 -0.3191 -2.0666
  977SOL    HW2 2931   0.955   2.667   0.390 -0.3187 -1.7636 -0.1056
  978SOL     OW 2932   0.330   1.984   2.632  0.0618 -0.5296  0.4913
  978SOL    HW1 2933   0.347   2.030   2.542  2.0391 -1.4600 -1.8851
  978SOL    HW2 2934   0.237   1.944   2.626  1.6202  1.2813 -3.2421
  979SOL     OW 2935   1.633   2.349   1.426 -0.1308 -0.3287 -0.0179
  979SOL    HW1 2936   1.648   2.375   1.527  2.7110 -1.9566  4.4164
  979SOL    HW2 2937   1.724   2.326   1.381 -1.6015 -1.6267  2.2134
  980SOL     OW 2938   0.815   1.820   2.617 -0.1432 -0.3750 -0.3521
  980SOL    HW1 2939   0.768   1.905   2.597 -1.6284  0.5655 -0.4900
  980SOL    HW2 2940   0.762   1.758   2.682 -1.2738 -0.9721 -0.6002
  981SOL     OW 2941   2.485   3.057   2.418  0.2608 -0.0118 -0.4235
  981SOL    HW1 2942   2.468   3.063   2.316  1.0016 -0.6341 -0.4311
  981SOL    HW2 2943   2.583   3.050   2.418 -1.7057 -1.7652 -1.5059
  982SOL     OW 2944   2.879   0.358   3.050  0.3337  0.0197  0.4565
  982SOL    HW1 2945   2.776   0.385   3.052 -1.1780  0.3137  1.3603
  982SOL    HW2 2946   2.927   0.442   3.012  1.5341 -0.3352 -0.9259
  983SOL     OW 2947   1.917   1.464   1.932 -0.0774 -0.1060 -0.6217
  983SOL    HW1 2948   2.016   1.452   1.921 -0.6311  1.1855 -0.5341
  983SOL    HW2 2949   1.871   1.393   1.990 -4.1889  0.6049 -0.5956
  984SOL     OW 2950   1.305   0.643   1.809  0.2843 -0.1018  0.4265
  984SOL    HW1 2951   1.312   0.615   1.905 -2.3359  0.7370 -1.4279
  984SOL    HW2 2952   1.329   0.737   1.786  1.1928 -0.0212 -0.3134
  985SOL     OW 2953   1.670   1.498   1.569  0.5360 -0.1157  0.0274
  985SOL    HW1 2954   1.708   1.579   1.619 -2.2430 -1.4642  0.1747
  985SOL    HW2 2955   1.750   1.445   1.537  1.2483  1.7175 -2.1829
  986SOL     OW 2956   1.794   0.407   1.750  0.2002 -0.8109 -0.9588
  986SOL    HW1 2957   1.866   0.410   1.821  1.5552 -0.6815 -2.5877
  986SOL    HW2 2958   1.771   0.500   1.714  2.7709  0.4015  1.5867
  987SOL     OW 2959   2.205   0.356   1.707 -0.5121  0.4187 -0.2328
  987SOL    HW1 2960   2.233   0.282   1.638  0.2820 -1.9714  0.1158
  987SOL    HW2 2961   2.150   0.311   1.780  1.8012  1.2539 -3.5905
  988SOL     OW 2962   2.832   0.719   2.091  0.9256 -0.0575  0.2173
  988SOL    HW1 2963   2.751   0.693   2.146 -1.3697  0.6414  1.7175
  988SOL    HW2 2964   2.916   0.690   2.140 -3.3769 -1.4228 -0.1024
  989SOL     OW 2965   2.217   2.080   2.933 -0.6664 -0.2177 -0.2463
  989SOL    HW1 2966   2.167   2.071   2.845  3.5761  1.5916  2.4866
  989SOL    HW2 2967   2.235   2.176   2.965  0.9967 -2.5067  1.5980
  990SOL     OW 2968   1.328   0.429   2.651  0.3116 -0.0345  0.2016
  990SOL    HW1 2969   1.299   0.340   2.613 -0.8059 -0.1149  2.2691
  990SOL    HW2 2970   1.244   0.470   2.695 -0.0969 -0.7005  1.1435
  991SOL     OW 2971   1.191   0.763   0.295  0.3556  0.5547  0.2949
  991SOL    HW1 2972   1.241   0.828   0.353  0.4856  0.3006 -0.0632
  991SOL    HW2 2973   1.259   0.691   0.264  4.0997 -2.0802  0.3261
  992SOL     OW 2974   2.452   1.802   2.609  0.2530  0.2963 -0.3908
  992SOL    HW1 2975   2.491   1.774   2.697 -0.8269  0.6000 -0.7366
  992SOL    HW2 2976   2.464   1.901   2.590 -0.5000 -3.9429 -1.4775
  993SOL     OW 2977   0.419   0.250   0.298  0.3305 -0.3729 -0.0327
  993SOL    HW1 2978   0.457   0.157   0.313 -0.8623  1.0736 -2.3991
  993SOL    HW2 2979   0.414   0.298   0.390 -1.5345  1.1972  0.4741
  994SOL     OW 2980   0.214   1.861   2.241 -0.0049  0.2885  0.7956
  994SOL    HW1 2981   0.197   1.926   2.312  1.8679 -0.1322 -0.2828
  994SOL    HW2 2982   0.279   1.905   2.171 -0.9800 -0.6338 -1.0218
  995SOL     OW 2983   1.914   1.492   2.848 -0.7202  0.0244 -0.7029
  995SOL    HW1 2984   1.850   1.552   2.795  0.4306 -1.3163 -0.3003
  995SOL    HW2 2985   1.966   1.426   2.791 -1.4370  1.4945  2.3329
  996SOL     OW 2986   1.759   1.665   2.715  0.3298  0.0813  0.1365
  996SOL    HW1 2987   1.725   1.605   2.637 -1.6626 -2.4603  0.3344
  996SOL    HW2 2988   1.680   1.720   2.740  1.8601 -0.4250 -1.5382
  997SOL     OW 2989   2.074   1.392   1.615 -0.0264 -0.4290 -0.5659
  997SOL    HW1 2990   2.068   1.366   1.710 -0.8404 -0.6020 -2.9994
  997SOL    HW2 2991   2.172   1.408   1.589  2.2884 -1.4276 -0.3063
  998SOL     OW 2992   2.613   1.398   0.035 -0.6407  0.3661 -0.4581
  998SOL    HW1 2993   2.570   1.336   0.103 -0.7964 -0.5040  3.2664
  998SOL    HW2 2994   2.697   1.446   0.076 -0.0640  1.8250  1.3453
  999SOL     OW 2995   2.648   2.584   0.245 -0.4681  0.3978 -0.3674
  999SOL    HW1 2996   2.581   2.523   0.295 -2.9345  0.1590  0.6418
  999SOL    HW2 2997   2.679   2.557   0.147  0.1458 -3.0354 -1.6921
 1000SOL     OW 2998   0.582   2.964   1.884  0.1852 -0.7166  0.2065
 1000SOL    HW1 2999   0.546   3.056   1.861  2.2317  1.2831  1.9794
 1000SOL    HW2 3000   0.591   2.956   1.985  0.2732 -0.6016 -0.3924
   3.08651   3.08651   3.08651
