1000 SPC/Fw water molecules t= 367.00000 step= 367000
 3000
    1SOL     OW    1   2.554   2.714   1.725  0.4597 -0.2916 -0.2245
    1SOL    HW1    2   2.496   2.752   1.798  0.5003 -1.6791  0.3487
    1SOL    HW2    3   2.566   2.777   1.642 -0.4696 -1.3161 -0.5483
    2SOL     OW    4   2.422   2.535   0.715  0.3341  0.1745  0.1298
    2SOL    HW1    5   2.505   2.589   0.701 -0.2958  0.2932  0.2419
    2SOL    HW2    6   2.362   2.535   0.635 -0.6540 -0.3867 -0.3025
    3SOL     OW    7   1.259   0.044   0.086  0.1710 -0.2507  0.0066
    3SOL    HW1    8   1.237   0.136   0.049 -0.9023 -2.2074  0.4097
    3SOL    HW2    9   1.287   3.066   0.024 -0.9168 -0.4070  0.0336
    4SOL     OW   10   1.301   2.804   2.137  0.4806 -0.8777  0.2389
    4SOL    HW1   11   1.374   2.739   2.152  0.8634  0.9800  0.5622
    4SOL    HW2   12   1.230   2.766   2.077  1.1832  2.2553 -0.2385
    5SOL     OW   13   2.246   0.429   1.743  0.1321 -0.1409 -1.0821
    5SOL    HW1   14   2.293   0.448   1.830  3.2992 -0.6933 -0.7990
    5SOL    HW2   15   2.147   0.413   1.765  1.9291 -1.7313  2.1601
    6SOL     OW   16   2.089   2.269   0.412 -0.1064  0.5778 -0.0057
    6SOL    HW1   17   2.137   2.355   0.440 -0.8057  3.6130 -0.3960
    6SOL    HW2   18   1.992   2.298   0.387 -1.4782  0.1031 -2.9398
    7SOL     OW   19   1.850   1.142   1.072 -0.2180 -0.2609  0.3108
    7SOL    HW1   20   1.778   1.075   1.037  0.1271  0.4854  0.7711
    7SOL    HW2   21   1.835   1.148   1.172  2.0124 -2.9151 -3.0493
    8SOL     OW   22   1.084   1.367   1.162  0.1369 -0.3665 -0.4750
    8SOL    HW1   23   1.001   1.402   1.116 -0.7181  0.0685  0.8378
    8SOL    HW2   24   1.150   1.347   1.086 -1.4287 -0.1420 -1.5131
    9SOL     OW   25   0.978   2.454   1.926 -0.2443 -0.4046  0.0727
    9SOL    HW1   26   0.888   2.503   1.907  0.2040  1.3434  0.4666
    9SOL    HW2   27   0.968   2.360   1.887  0.3382 -2.1170  0.8255
   10SOL     OW   28   1.051   2.289   0.774  0.0807 -0.2956  0.2654
   10SOL    HW1   29   1.151   2.307   0.766 -0.5869 -0.5494 -2.1617
   10SOL    HW2   30   1.019   2.269   0.678  0.0800 -0.6466 -0.5569
   11SOL     OW   31   1.574   1.833   1.346 -0.3310 -0.1120 -0.7459
   11SOL    HW1   32   1.503   1.884   1.400  1.5696  0.0404 -1.2131
   11SOL    HW2   33   1.611   1.874   1.261 -1.5342 -0.8714  2.4797
   12SOL     OW   34   2.684   0.391   2.265  0.1808 -0.6108  0.1599
   12SOL    HW1   35   2.630   0.356   2.186 -2.3589 -2.0074 -2.9015
   12SOL    HW2   36   2.787   0.374   2.251  0.4750  1.3647  0.4312
   13SOL     OW   37   2.760   3.022   0.602  0.5224  0.1822  0.3921
   13SOL    HW1   38   2.792   3.091   0.672 -1.4596 -0.7337 -1.9088
   13SOL    HW2   39   2.801   2.931   0.621 -2.3543  1.1197  0.0101
   14SOL     OW   40   1.630   1.611   2.863 -0.3018  0.0593 -0.3751
   14SOL    HW1   41   1.730   1.588   2.871 -1.9607 -2.5700  0.5589
   14SOL    HW2   42   1.600   1.676   2.937 -1.2743 -0.0100  1.2105
   15SOL     OW   43   2.416   2.545   1.579  0.0543 -0.3246  0.0897
   15SOL    HW1   44   2.429   2.449   1.598  1.4115 -0.4724  0.3157
   15SOL    HW2   45   2.479   2.604   1.637 -0.1530  0.3339 -0.4010
   16SOL     OW   46   2.265   2.858   0.721  0.0308 -0.5003  0.2171
   16SOL    HW1   47   2.208   2.925   0.679  2.4149 -0.9667  0.7433
   16SOL    HW2   48   2.363   2.880   0.698 -2.3400  0.5377  0.9070
   17SOL     OW   49   0.758   0.272   1.453  0.0602 -0.3228 -0.1410
   17SOL    HW1   50   0.680   0.324   1.492  0.3545 -0.8817 -2.2452
   17SOL    HW2   51   0.744   0.240   1.359 -0.3949  0.1268 -0.6244
   18SOL     OW   52   2.061   0.346   0.432 -0.3139 -0.2254  0.3855
   18SOL    HW1   53   2.024   0.292   0.508  0.5943  2.8482 -1.1563
   18SOL    HW2   54   2.079   0.286   0.349 -0.2710 -2.4494  0.6524
   19SOL     OW   55   2.098   1.574   0.259 -0.7977  0.0315  0.3828
   19SOL    HW1   56   2.145   1.613   0.176 -0.6569  2.5314 -0.2588
   19SOL    HW2   57   1.996   1.597   0.249 -2.8233 -0.0676  1.2070
   20SOL     OW   58   2.312   1.737   2.375  0.0607 -0.1323  0.1321
   20SOL    HW1   59   2.254   1.783   2.306 -0.6062 -2.4008 -1.3137
   20SOL    HW2   60   2.359   1.655   2.336 -0.2393 -0.0904  0.6078
   21SOL     OW   61   1.407   0.299   0.566  0.0283 -0.2008  0.1137
   21SOL    HW1   62   1.424   0.338   0.661  1.5695 -0.6641 -1.8444
   21SOL    HW2   63   1.350   0.361   0.509  1.1297  1.4453  3.1420
   22SOL     OW   64   2.751   0.568   1.541  0.7722 -0.3413  0.3143
   22SOL    HW1   65   2.743   0.670   1.545 -2.5116  1.0270 -1.7806
   22SOL    HW2   66   2.714   0.517   1.622 -0.6006 -0.5605 -0.3684
   23SOL     OW   67   0.356   0.425   1.982  0.3242 -0.1404  0.5555
   23SOL    HW1   68   0.330   0.368   1.902 -0.3938  0.1546 -1.9693
   23SOL    HW2   69   0.273   0.474   2.014 -1.2801 -1.5876 -2.0466
   24SOL     OW   70   2.499   2.756   0.400 -0.2954  0.1941 -0.5543
   24SOL    HW1   71   2.593   2.732   0.371  2.8688 -1.9838 -2.1640
   24SOL    HW2   72   2.497   2.796   0.493  1.1200 -0.8306  1.1831
   25SOL     OW   73   0.947   2.776   2.634 -0.1765  0.5872 -0.1648
   25SOL    HW1   74   0.912   2.694   2.585 -2.3571  0.0466 -0.7147
   25SOL    HW2   75   0.930   2.773   2.734 -2.6375  0.8919  2.2389
   26SOL     OW   76   1.411   2.585   0.302 -0.1087  0.0822 -0.1134
   26SOL    HW1   77   1.339   2.518   0.275 -0.8489 -0.7418  0.5363
   26SOL    HW2   78   1.403   2.609   0.403  1.3982 -1.3239 -2.2750
   27SOL     OW   79   2.164   0.863   0.960  0.4503 -0.3368 -0.0449
   27SOL    HW1   80   2.156   0.934   1.035 -0.7282  2.4999  0.2777
   27SOL    HW2   81   2.252   0.816   0.969 -1.8173  0.7172 -0.8585
   28SOL     OW   82   1.195   1.403   0.899 -0.2995 -0.0850 -0.0370
   28SOL    HW1   83   1.114   1.407   0.836 -1.3037  1.2253  2.2083
   28SOL    HW2   84   1.268   1.344   0.868 -3.1663 -0.3948  1.6889
   29SOL     OW   85   3.073   0.137   1.937 -0.4491 -0.4175  0.0939
   29SOL    HW1   86   3.080   0.236   1.913 -2.0965 -0.5864 -1.0285
   29SOL    HW2   87   3.026   0.090   1.860  2.2177 -1.0321 -1.2860
   30SOL     OW   88   1.270   0.143   1.326  0.1333 -0.3848  0.1815
   30SOL    HW1   89   1.231   0.057   1.285  0.4692 -0.3598 -1.0557
   30SOL    HW2   90   1.264   0.140   1.428  1.8032  1.5604  0.7066
   31SOL     OW   91   1.832   2.785   1.951 -0.4556 -0.0212  0.0845
   31SOL    HW1   92   1.779   2.847   2.015  0.4568 -2.9958  2.7030
   31SOL    HW2   93   1.932   2.790   1.965 -1.4634  1.2416 -0.8508
   32SOL     OW   94   0.904   1.321   0.017 -1.0257  0.0131  0.4175
   32SOL    HW1   95   1.004   1.295   0.025  0.4500 -0.1250 -1.9144
   32SOL    HW2   96   0.875   1.377   0.095 -1.9142 -1.1659  0.5019
   33SOL     OW   97   0.059   1.021   2.402  0.0796  0.0625 -0.0018
   33SOL    HW1   98   3.081   0.949   2.390 -1.0143  0.2121 -0.7479
   33SOL    HW2   99   0.151   0.977   2.433  2.1545 -0.3926 -1.5784
   34SOL     OW  100   2.132   0.001   0.610 -0.6457  0.1863  0.2321
   34SOL    HW1  101   2.203   0.072   0.623 -1.3240  0.3390  0.1072
   34SOL    HW2  102   2.060   0.011   0.683  0.6244 -1.3707  2.0850
   35SOL     OW  103   2.569   2.311   1.858  0.5349 -0.0999 -0.2115
   35SOL    HW1  104   2.659   2.272   1.895  0.6036 -1.6126  2.8163
   35SOL    HW2  105   2.552   2.410   1.891 -0.5996  1.3451  0.5920
   36SOL     OW  106   2.335   2.186   2.872  0.4814 -0.2538  0.3686
   36SOL    HW1  107   2.340   2.282   2.902 -1.4381 -1.0317  2.3251
   36SOL    HW2  108   2.424   2.146   2.844 -0.6907 -2.6165  1.0557
   37SOL     OW  109   1.996   0.425   1.798 -0.3077 -0.2946  0.1821
   37SOL    HW1  110   1.979   0.355   1.723 -0.1154  0.2211  1.2974
   37SOL    HW2  111   1.907   0.482   1.812  0.8700  0.4648 -0.2099
   38SOL     OW  112   2.993   0.359   2.783 -0.3796  0.1448  0.4877
   38SOL    HW1  113   2.948   0.410   2.708 -0.4018  0.8724  0.6425
   38SOL    HW2  114   2.959   0.258   2.785  0.2547 -2.2519  1.3555
   39SOL     OW  115   1.930   1.141   1.873 -0.1660 -0.0707  0.5594
   39SOL    HW1  116   1.933   1.096   1.965 -1.2129 -0.0963  1.8906
   39SOL    HW2  117   1.953   1.244   1.877  1.3242 -2.2636  0.5174
   40SOL     OW  118   1.175   2.040   0.613  0.1569 -0.5950  0.2803
   40SOL    HW1  119   1.168   1.991   0.700  1.0238  0.1634 -0.3940
   40SOL    HW2  120   1.088   2.063   0.563 -0.3841  0.6811 -0.2098
   41SOL     OW  121   1.904   1.816   0.980  0.1381  0.1898  0.2915
   41SOL    HW1  122   1.981   1.883   0.974  0.7967  0.2962  1.7649
   41SOL    HW2  123   1.855   1.805   0.892  1.4972  2.5249 -1.2382
   42SOL     OW  124   0.431   0.414   1.303 -0.1357 -0.3099  0.6766
   42SOL    HW1  125   0.346   0.466   1.333  0.4350  2.9099  1.1443
   42SOL    HW2  126   0.509   0.463   1.345  0.9848 -1.7008  2.3830
   43SOL     OW  127   0.073   1.517   2.504 -0.4540 -0.6271 -0.1770
   43SOL    HW1  128   0.022   1.536   2.594  0.1198  0.4414  0.8373
   43SOL    HW2  129   0.084   1.418   2.482 -0.1629  2.9025 -0.2506
   44SOL     OW  130   2.099   2.825   1.463  0.1956 -0.5530  0.0276
   44SOL    HW1  131   2.159   2.744   1.444 -1.7929  0.1308  0.7803
   44SOL    HW2  132   2.031   2.803   1.532 -0.8795  0.4177 -0.3988
   45SOL     OW  133   1.036   3.089   2.604 -0.3174 -0.0864 -0.8021
   45SOL    HW1  134   1.007   3.041   2.692 -1.1275 -2.0444 -0.5232
   45SOL    HW2  135   1.057   3.024   2.529  0.3657  0.6426  0.4903
   46SOL     OW  136   0.799   2.569   2.517  0.2609 -0.3088  0.1245
   46SOL    HW1  137   0.700   2.595   2.503  0.2757  0.5612 -0.3008
   46SOL    HW2  138   0.808   2.479   2.555 -1.7305  1.4246  1.5471
   47SOL     OW  139   0.763   2.311   0.855 -0.1375 -0.8121 -0.4749
   47SOL    HW1  140   0.846   2.335   0.806  0.4056 -2.3116  0.0351
   47SOL    HW2  141   0.739   2.386   0.922  0.1793  1.2041  0.0267
   48SOL     OW  142   1.093   2.623   1.151 -0.1703 -0.2552 -0.1822
   48SOL    HW1  143   1.155   2.546   1.136 -3.4328  2.1434 -0.1020
   48SOL    HW2  144   1.145   2.700   1.199  1.9386 -2.2489 -0.1405
   49SOL     OW  145   2.238   0.162   0.033  0.0099  0.1564  0.4089
   49SOL    HW1  146   2.214   0.072   0.084 -1.9921 -0.9424  2.0710
   49SOL    HW2  147   2.309   0.147   3.061  0.3343  0.4149 -0.6365
   50SOL     OW  148   1.708   0.176   0.299  0.4485  0.0139  0.3512
   50SOL    HW1  149   1.804   0.149   0.292 -2.4596 -1.6010 -2.4464
   50SOL    HW2  150   1.681   0.255   0.245  1.6147  0.0489  0.8291
   51SOL     OW  151   2.352   0.742   1.237  0.3739  0.1603 -1.0903
   51SOL    HW1  152   2.273   0.786   1.289 -0.2249 -0.0535  2.6355
   51SOL    HW2  153   2.427   0.721   1.304  2.7017 -0.3490  2.6005
   52SOL     OW  154   0.505   1.520   0.261 -0.4218 -0.1749 -0.0742
   52SOL    HW1  155   0.531   1.569   0.176 -1.4454  0.0313  1.7609
   52SOL    HW2  156   0.423   1.563   0.297 -0.2252  1.9442 -0.2404
   53SOL     OW  157   0.380   1.481   2.694 -0.3185 -0.1600 -0.2287
   53SOL    HW1  158   0.307   1.407   2.693 -0.2803 -1.4109 -3.9023
   53SOL    HW2  159   0.446   1.459   2.771 -0.9390 -2.1977  2.0130
   54SOL     OW  160   2.690   1.233   1.949 -0.6786 -0.0033  0.4255
   54SOL    HW1  161   2.624   1.159   1.931  0.6424 -0.7492 -1.0800
   54SOL    HW2  162   2.788   1.214   1.929  3.0556  0.3411 -1.5267
   55SOL     OW  163   2.380   1.904   0.344  0.1941  0.2718  0.1485
   55SOL    HW1  164   2.469   1.943   0.322  0.9102 -2.2282  2.1029
   55SOL    HW2  165   2.395   1.817   0.403  2.3750 -3.0617  1.7600
   56SOL     OW  166   1.854   0.031   1.436  0.0127 -0.2871 -0.1428
   56SOL    HW1  167   1.783   0.069   1.377 -1.3610  1.6528 -3.1167
   56SOL    HW2  168   1.935   0.003   1.385 -1.0122  0.0682 -0.6577
   57SOL     OW  169   1.613   1.241   2.797  0.4653 -0.1448  0.1646
   57SOL    HW1  170   1.687   1.182   2.753 -0.2705 -0.5705 -2.4286
   57SOL    HW2  171   1.556   1.288   2.726  1.3745 -2.2745  0.0873
   58SOL     OW  172   0.203   0.548   1.354 -0.4441 -0.6466 -0.5849
   58SOL    HW1  173   0.156   0.559   1.443 -0.7338 -1.3387 -1.9199
   58SOL    HW2  174   0.147   0.520   1.279  0.8400 -0.0000 -2.4403
   59SOL     OW  175   1.270   2.783   0.156  0.1569 -0.1854 -0.0042
   59SOL    HW1  176   1.329   2.706   0.193  2.2717  1.7960  0.4935
   59SOL    HW2  177   1.178   2.751   0.124 -1.7244  1.6007  0.9027
   60SOL     OW  178   0.024   2.179   2.929 -0.2079  0.3036 -0.8545
   60SOL    HW1  179   0.098   2.110   2.944 -0.9705 -1.2953  0.9577
   60SOL    HW2  180   0.040   2.233   2.846 -1.1810 -1.0020  3.2399
   61SOL     OW  181   0.540   2.499   1.037  0.1967  0.2526  0.6664
   61SOL    HW1  182   0.634   2.488   1.073  0.5764 -1.8241  0.3635
   61SOL    HW2  183   0.533   2.583   0.982 -2.1066 -2.0585 -1.1207
   62SOL     OW  184   1.714   1.805   2.667 -0.2983  0.2448 -0.2736
   62SOL    HW1  185   1.686   1.724   2.718 -0.1172  1.3654  2.4832
   62SOL    HW2  186   1.728   1.878   2.734  1.1679 -0.5919 -0.4258
   63SOL     OW  187   1.802   1.783   0.042 -0.0883 -0.1882 -0.5191
   63SOL    HW1  188   1.745   1.842   0.105  0.8510  0.1545 -0.4266
   63SOL    HW2  189   1.880   1.842   0.008  1.0028  1.1872 -2.4034
   64SOL     OW  190   2.109   1.166   0.318  0.1091 -0.2856 -0.3061
   64SOL    HW1  191   2.099   1.264   0.313  1.3687 -0.3696 -0.2494
   64SOL    HW2  192   2.201   1.126   0.326 -2.1018 -0.0436 -0.2375
   65SOL     OW  193   2.016   1.782   2.105  0.6433  0.3766 -0.6931
   65SOL    HW1  194   1.945   1.834   2.157  0.8228 -0.7093  0.1476
   65SOL    HW2  195   2.109   1.828   2.100 -2.6030  1.0896  0.7319
   66SOL     OW  196   0.427   1.022   1.451 -0.2919 -0.5366 -0.0178
   66SOL    HW1  197   0.399   1.073   1.537 -1.0361 -0.4370  0.4120
   66SOL    HW2  198   0.473   1.079   1.380  0.1173 -0.1989 -1.8187
   67SOL     OW  199   2.001   0.014   2.875  0.0115 -0.4611 -0.2140
   67SOL    HW1  200   2.011   0.111   2.836  0.8918  0.3666  0.0999
   67SOL    HW2  201   2.096   3.070   2.873  3.4992  1.2937 -1.8785
   68SOL     OW  202   1.406   2.004   1.478 -0.1585  0.3206  0.1882
   68SOL    HW1  203   1.369   2.064   1.399  1.5720 -0.2136 -1.9706
   68SOL    HW2  204   1.487   2.050   1.517 -2.1226 -3.3547 -1.2015
   69SOL     OW  205   0.078   2.768   0.207 -0.3152  0.4521 -0.5400
   69SOL    HW1  206   0.021   2.777   0.124  0.5840  0.5154  4.6775
   69SOL    HW2  207   0.034   2.721   0.280  3.6517  1.1947 -1.0911
   70SOL     OW  208   0.260   0.659   2.271  0.2279 -0.2782  0.4194
   70SOL    HW1  209   0.165   0.659   2.232  0.7910  1.7700 -0.9604
   70SOL    HW2  210   0.322   0.703   2.204 -1.3194 -0.3921 -1.8561
   71SOL     OW  211   0.879   1.179   2.574  0.1251 -0.4723 -0.3895
   71SOL    HW1  212   0.918   1.266   2.605 -0.9350 -2.2574 -1.7687
   71SOL    HW2  213   0.947   1.105   2.574 -1.2116  0.0708 -0.0980
   72SOL     OW  214   2.980   1.765   1.969 -0.3677  0.3227 -0.4578
   72SOL    HW1  215   2.891   1.774   1.919  1.0768  1.9685 -3.0845
   72SOL    HW2  216   3.056   1.744   1.903  0.0825 -4.9428 -1.4369
   73SOL     OW  217   1.425   1.634   0.154  0.2883 -0.0288 -0.2013
   73SOL    HW1  218   1.434   1.674   0.060 -5.6352 -3.3319  0.0907
   73SOL    HW2  219   1.333   1.590   0.161  1.8566 -0.2645  0.1397
   74SOL     OW  220   2.297   2.978   2.784  0.2486 -0.2593 -0.1021
   74SOL    HW1  221   2.348   3.057   2.822  0.3344  3.9316  1.5269
   74SOL    HW2  222   2.279   2.997   2.681 -2.8821 -0.0887  0.0533
   75SOL     OW  223   1.685   1.940   1.136  0.3580  0.0797 -0.3564
   75SOL    HW1  224   1.671   2.031   1.098 -2.6918 -1.3752  0.8153
   75SOL    HW2  225   1.760   1.892   1.085 -1.2453 -0.6004  0.3562
   76SOL     OW  226   2.964   2.136   1.587  0.2902 -0.0627 -0.0930
   76SOL    HW1  227   2.874   2.104   1.550  3.1364 -0.1071  1.2312
   76SOL    HW2  228   3.032   2.067   1.572 -0.9834 -0.8503  0.8636
   77SOL     OW  229   0.371   2.939   1.905 -0.7800 -0.2753  0.0879
   77SOL    HW1  230   0.444   2.977   1.842  1.2489 -0.8795 -2.0947
   77SOL    HW2  231   0.324   3.021   1.948 -0.9551 -0.8234 -0.6900
   78SOL     OW  232   2.381   1.078   0.362 -0.8350  0.1815  0.3201
   78SOL    HW1  233   2.401   1.141   0.285 -0.6876 -1.3928  1.1623
   78SOL    HW2  234   2.468   1.032   0.395  1.0574 -0.0418 -1.6347
   79SOL     OW  235   2.890   1.554   2.402  0.3125  0.9582  0.2593
   79SOL    HW1  236   2.855   1.560   2.499 -0.2474 -1.2613  3.6706
   79SOL    HW2  237   2.987   1.524   2.405  3.0815  0.6581  1.1100
   80SOL     OW  238   1.826   1.430   1.593  0.8305 -0.1471 -0.6465
   80SOL    HW1  239   1.784   1.443   1.685  1.7407  0.2416  1.5340
   80SOL    HW2  240   1.810   1.513   1.534 -0.9457  1.4600 -1.2142
   81SOL     OW  241   2.211   1.156   2.089  0.1054 -0.2497  0.0393
   81SOL    HW1  242   2.119   1.119   2.097  0.5773 -1.0374 -1.9396
   81SOL    HW2  243   2.229   1.196   1.996 -1.6593 -0.0584  1.7472
   82SOL     OW  244   1.726   1.486   1.822  0.8917 -0.0510 -0.0308
   82SOL    HW1  245   1.750   1.585   1.823 -0.7829  2.5245 -0.4913
   82SOL    HW2  246   1.627   1.462   1.808 -0.2620  1.3082 -1.4161
   83SOL     OW  247   0.237   0.509   0.246  0.3439  0.3859 -0.6728
   83SOL    HW1  248   0.241   0.577   0.319  3.5466 -2.3334 -1.5328
   83SOL    HW2  249   0.219   0.417   0.291 -0.3311  0.0574  1.2021
   84SOL     OW  250   0.003   0.714   3.091 -0.0915  0.1442 -0.3682
   84SOL    HW1  251   3.082   0.638   0.060 -0.6386 -2.1936  0.7300
   84SOL    HW2  252   0.048   0.795   0.040  0.1083  1.1598 -1.4605
   85SOL     OW  253   2.467   2.488   1.124  0.5454  0.1753  0.1769
   85SOL    HW1  254   2.483   2.429   1.039 -0.0074  1.5521 -2.3489
   85SOL    HW2  255   2.539   2.483   1.196  2.7161  0.1154 -2.1783
   86SOL     OW  256   0.574   3.009   1.443 -0.3555  0.0292  0.5423
   86SOL    HW1  257   0.647   2.969   1.387  0.0063  1.8569 -0.4887
   86SOL    HW2  258   0.546   3.097   1.405  2.0323  0.2865 -0.0016
   87SOL     OW  259   0.476   2.555   1.895 -0.1214 -0.5392  0.1190
   87SOL    HW1  260   0.517   2.628   1.950  1.2347 -1.3081 -0.5019
   87SOL    HW2  261   0.496   2.463   1.935 -1.0248  1.6868 -0.2427
   88SOL     OW  262   0.255   2.045   3.031  0.8252 -0.7235 -0.0335
   88SOL    HW1  263   0.243   2.004   0.023 -2.1700  1.8551  0.1618
   88SOL    HW2  264   0.305   1.988   2.965  1.6696 -2.8378  0.2273
   89SOL     OW  265   0.896   0.857   0.693 -0.1646  0.4107 -0.3587
   89SOL    HW1  266   0.820   0.923   0.677 -2.8641  0.2066  0.9935
   89SOL    HW2  267   0.951   0.840   0.606  2.9514 -1.7877 -1.1153
   90SOL     OW  268   0.152   1.416   2.048 -0.3454  0.1501 -0.8329
   90SOL    HW1  269   0.156   1.522   2.036 -3.0633  0.7753 -0.9596
   90SOL    HW2  270   0.060   1.376   2.031  1.4995  0.7380  0.3459
   91SOL     OW  271   1.762   0.964   0.712 -0.6306 -0.1987  1.0102
   91SOL    HW1  272   1.700   0.979   0.635 -0.6706  0.8825 -1.0317
   91SOL    HW2  273   1.723   0.979   0.800  3.3092  1.5906 -5.0741
   92SOL     OW  274   2.183   1.340   0.846 -0.3178  0.4583  0.7499
   92SOL    HW1  275   2.098   1.346   0.903  4.6737  1.4641 -0.0603
   92SOL    HW2  276   2.167   1.314   0.750  0.7750 -1.1728  0.8873
   93SOL     OW  277   2.908   1.017   2.650 -0.2221  0.5231  0.5133
   93SOL    HW1  278   2.820   0.967   2.670  0.0127  2.8405 -1.3270
   93SOL    HW2  279   2.928   1.008   2.548  1.1668 -0.6572 -0.9238
   94SOL     OW  280   2.197   2.233   2.642 -0.0364  0.2614  0.5631
   94SOL    HW1  281   2.127   2.309   2.645 -0.1193  0.5784  0.0307
   94SOL    HW2  282   2.268   2.239   2.716  1.9844  1.4303 -1.3977
   95SOL     OW  283   0.001   0.204   1.074  0.5415 -0.3791  0.4670
   95SOL    HW1  284   3.032   0.210   0.999 -0.4782 -0.5754  1.1994
   95SOL    HW2  285   0.079   0.270   1.054  0.8294  0.2200  2.4250
   96SOL     OW  286   3.049   2.590   1.347  0.0793 -0.2881  0.2215
   96SOL    HW1  287   2.949   2.611   1.353 -2.0158  0.5368 -0.5422
   96SOL    HW2  288   3.069   2.510   1.410  0.7848  2.8500 -1.2161
   97SOL     OW  289   2.651   1.031   1.681  0.0111  0.1262 -0.4407
   97SOL    HW1  290   2.738   1.051   1.732 -0.2771 -0.6187  1.2981
   97SOL    HW2  291   2.582   1.028   1.752 -0.0227 -1.3969 -2.1382
   98SOL     OW  292   1.728   2.428   1.773  0.4151 -0.5337  0.0647
   98SOL    HW1  293   1.674   2.342   1.790 -0.9619  1.0228 -2.8971
   98SOL    HW2  294   1.682   2.502   1.720  0.9585 -0.6880  0.1414
   99SOL     OW  295   0.334   2.863   1.501 -0.3896 -0.0802  0.1287
   99SOL    HW1  296   0.388   2.781   1.537  1.0227 -2.4120  1.9984
   99SOL    HW2  297   0.398   2.913   1.444  1.8747 -1.5673  0.8618
  100SOL     OW  298   1.527   0.450   2.611  0.6092 -0.2461  0.1507
  100SOL    HW1  299   1.628   0.467   2.598 -0.8954 -3.1003 -0.2265
  100SOL    HW2  300   1.517   0.391   2.690 -1.0790  1.3172 -3.9162
  101SOL     OW  301   2.459   0.258   2.673 -0.3817 -0.2545  0.4848
  101SOL    HW1  302   2.383   0.319   2.686  0.5061 -2.3519 -1.2478
  101SOL    HW2  303   2.514   0.304   2.597 -0.1239  1.5426 -3.4006
  102SOL     OW  304   0.394   0.781   1.333  0.3355 -0.1838 -0.2910
  102SOL    HW1  305   0.297   0.751   1.329 -2.6500  0.5019  0.8754
  102SOL    HW2  306   0.402   0.875   1.383  0.2486  3.3077  1.6647
  103SOL     OW  307   0.974   0.622   2.539 -1.1241 -0.7556 -0.2496
  103SOL    HW1  308   0.989   0.541   2.479  1.7162 -0.5736 -1.9249
  103SOL    HW2  309   0.988   0.598   2.636 -0.8837 -0.7991  0.1755
  104SOL     OW  310   0.309   0.898   2.430  0.7704  0.5192  0.1246
  104SOL    HW1  311   0.336   0.884   2.530  1.5357 -0.6610  0.0784
  104SOL    HW2  312   0.318   0.809   2.378  2.3461  1.0945  0.8997
  105SOL     OW  313   2.368   1.920   1.392 -0.5645 -0.2449  0.3680
  105SOL    HW1  314   2.430   1.998   1.373 -0.1005 -0.4718 -1.7922
  105SOL    HW2  315   2.277   1.936   1.357 -1.1377 -1.6315  2.1260
  106SOL     OW  316   1.626   2.960   0.662 -0.1460  0.3624 -0.5649
  106SOL    HW1  317   1.583   3.037   0.615 -0.4427 -4.7231  1.3114
  106SOL    HW2  318   1.661   2.895   0.593 -0.7227 -2.5135 -0.3484
  107SOL     OW  319   1.951   2.366   1.129  0.1410  0.0117 -0.3826
  107SOL    HW1  320   1.906   2.398   1.217  0.2157 -0.0152  2.9582
  107SOL    HW2  321   2.053   2.355   1.145  1.5234 -0.4672  1.4286
  108SOL     OW  322   3.090   2.385   1.095 -0.0322 -0.1178 -0.1412
  108SOL    HW1  323   3.093   2.457   1.024 -0.6253 -2.2186 -0.7780
  108SOL    HW2  324   0.012   2.429   1.184 -0.6064  0.0382 -0.0557
  109SOL     OW  325   2.138   2.273   0.857  0.4085  0.0080 -0.3665
  109SOL    HW1  326   2.228   2.279   0.900 -3.2930 -0.4253  0.2460
  109SOL    HW2  327   2.090   2.358   0.846  1.7452 -0.7002  0.9250
  110SOL     OW  328   1.098   1.727   2.053  0.4117  0.3042  0.3250
  110SOL    HW1  329   1.164   1.652   2.032 -0.9839  1.5882 -0.0383
  110SOL    HW2  330   1.033   1.736   1.975 -1.8000 -0.4714  0.1691
  111SOL     OW  331   1.575   2.256   2.076 -0.3759  0.3802 -0.1709
  111SOL    HW1  332   1.656   2.256   2.019  0.3655  0.4841  1.2269
  111SOL    HW2  333   1.512   2.329   2.042 -1.6120 -1.3757 -0.5517
  112SOL     OW  334   1.482   1.954   2.640 -0.3897 -0.0040  0.0015
  112SOL    HW1  335   1.449   1.941   2.544  0.1988 -0.8038  0.2053
  112SOL    HW2  336   1.562   1.901   2.655 -2.7529  2.6070  0.9599
  113SOL     OW  337   1.832   2.047   1.877 -0.2492 -0.3612 -0.3978
  113SOL    HW1  338   1.742   2.081   1.844  1.2397  0.6617 -1.5867
  113SOL    HW2  339   1.838   1.947   1.890 -0.2745 -0.8414 -0.9085
  114SOL     OW  340   3.034   1.164   1.470 -0.5397 -0.3882 -0.2283
  114SOL    HW1  341   3.073   1.094   1.410 -1.6572  1.8879 -0.9751
  114SOL    HW2  342   2.932   1.163   1.472 -0.5337  0.0198 -1.0464
  115SOL     OW  343   0.615   0.550   0.179 -0.0577 -0.0706  0.2872
  115SOL    HW1  344   0.712   0.533   0.195  1.9579 -0.2966  0.4958
  115SOL    HW2  345   0.604   0.550   0.077  1.7804  2.2925  2.8880
  116SOL     OW  346   2.717   2.136   2.295 -0.6310  0.2520 -0.4549
  116SOL    HW1  347   2.698   2.146   2.198  0.3531 -0.3646  1.9244
  116SOL    HW2  348   2.653   2.070   2.338 -1.0567  0.3198 -0.4280
  117SOL     OW  349   3.065   2.567   0.524 -0.4983  0.5012  0.1550
  117SOL    HW1  350   0.020   2.518   0.451  1.6634 -1.3852  0.8318
  117SOL    HW2  351   3.085   2.538   0.619 -2.1818  0.5347  0.4705
  118SOL     OW  352   0.689   1.923   2.688  0.2128  0.3680  0.1678
  118SOL    HW1  353   0.668   1.896   2.785  0.2233 -0.9574 -0.7972
  118SOL    HW2  354   0.614   1.976   2.645 -0.9731  1.4428  0.5095
  119SOL     OW  355   0.514   1.929   0.654  0.6734  0.4126  0.0114
  119SOL    HW1  356   0.530   1.996   0.732  0.6180 -0.2359 -0.5552
  119SOL    HW2  357   0.480   1.980   0.573  0.9102 -1.4367  0.5241
  120SOL     OW  358   1.266   0.742   0.141  0.2344 -0.9571 -0.2897
  120SOL    HW1  359   1.275   0.749   0.245 -0.2028 -2.3373  2.7332
  120SOL    HW2  360   1.200   0.666   0.114 -0.4386 -0.6315 -2.5587
  121SOL     OW  361   1.317   2.285   0.740 -0.6422 -0.8959  0.0664
  121SOL    HW1  362   1.408   2.273   0.785 -1.0117  0.5210  1.9681
  121SOL    HW2  363   1.313   2.225   0.657 -0.2602 -1.3300  1.0828
  122SOL     OW  364   3.000   2.461   1.858  0.4912 -0.2997 -0.1577
  122SOL    HW1  365   3.011   2.356   1.865 -1.5152 -2.9921  0.6813
  122SOL    HW2  366   2.903   2.493   1.859 -2.4069  2.5831 -2.9866
  123SOL     OW  367   0.818   1.721   0.834 -0.5640 -0.3650 -0.2979
  123SOL    HW1  368   0.850   1.789   0.907  1.3619 -0.7612  2.0996
  123SOL    HW2  369   0.724   1.688   0.852  0.4357 -0.6305  0.7247
  124SOL     OW  370   2.898   0.851   0.384 -0.7735  0.1645  0.2065
  124SOL    HW1  371   2.921   0.758   0.344 -2.0505 -1.8033 -2.2212
  124SOL    HW2  372   2.932   0.933   0.329 -0.5908 -1.4618 -1.6421
  125SOL     OW  373   0.054   0.537   2.907  0.7316  0.4438  0.3846
  125SOL    HW1  374   0.010   0.615   2.957 -1.0354  0.1722  0.2101
  125SOL    HW2  375   3.077   0.474   2.875 -0.9324 -1.0241  1.4739
  126SOL     OW  376   0.189   1.781   0.633 -0.5772  0.4767 -0.3372
  126SOL    HW1  377   0.151   1.862   0.589  3.3008  0.3028  2.2348
  126SOL    HW2  378   0.182   1.787   0.737 -1.3197 -1.2078  1.7307
  127SOL     OW  379   1.208   2.487   1.775 -0.7118  0.1790  0.2150
  127SOL    HW1  380   1.121   2.474   1.825  0.2029  1.7437  0.1017
  127SOL    HW2  381   1.293   2.481   1.833  0.0355  1.3686  0.2881
  128SOL     OW  382   1.174   1.286   0.060  0.2274  0.4939  0.4270
  128SOL    HW1  383   1.170   1.380   0.101 -0.0694  0.8900  1.7806
  128SOL    HW2  384   1.249   1.275   3.090 -0.1203 -0.0932  1.8313
  129SOL     OW  385   2.022   2.002   1.524 -0.1205 -0.3924 -0.0790
  129SOL    HW1  386   1.962   2.041   1.452 -0.2834  0.5523  1.8470
  129SOL    HW2  387   2.079   2.078   1.564  0.4661  1.7729 -1.1377
  130SOL     OW  388   2.023   1.823   1.708  0.3389 -0.3203 -0.5109
  130SOL    HW1  389   1.941   1.815   1.774 -1.8580  1.8697  1.3958
  130SOL    HW2  390   1.999   1.868   1.621 -0.3079  2.9948 -1.3209
  131SOL     OW  391   2.715   2.750   2.813  0.2794 -0.3754  0.0033
  131SOL    HW1  392   2.752   2.818   2.745 -0.3739 -2.0007 -1.1431
  131SOL    HW2  393   2.785   2.737   2.882 -4.4218 -0.3263 -2.6970
  132SOL     OW  394   2.708   1.931   0.618  0.2721 -0.2171  0.4385
  132SOL    HW1  395   2.729   1.935   0.718  0.2019  0.7438  1.8026
  132SOL    HW2  396   2.693   1.833   0.591  3.9832  0.2177  0.9862
  133SOL     OW  397   0.677   0.102   2.425 -0.3803  0.5105 -0.0661
  133SOL    HW1  398   0.621   0.126   2.507  0.8348  1.9076 -0.0577
  133SOL    HW2  399   0.633   0.026   2.370 -2.8485 -1.6379  0.8316
  134SOL     OW  400   2.724   2.137   0.083  0.0708 -0.3412  0.2507
  134SOL    HW1  401   2.707   2.231   0.106  0.5983 -3.5728 -1.1102
  134SOL    HW2  402   2.795   2.132   0.014 -4.0847  0.3293 -1.7015
  135SOL     OW  403   1.589   0.799   2.350  0.8834  0.1475 -0.4461
  135SOL    HW1  404   1.500   0.839   2.387  0.1338 -3.2472  1.1205
  135SOL    HW2  405   1.602   0.828   2.255 -1.5289  2.1321 -0.0605
  136SOL     OW  406   2.472   1.754   0.761 -0.0119 -0.0996  0.5490
  136SOL    HW1  407   2.567   1.728   0.780 -0.1996  1.9550  2.1746
  136SOL    HW2  408   2.410   1.680   0.788  2.2963 -0.4071  0.9009
  137SOL     OW  409   2.682   1.598   0.848  1.3508  0.3962  0.1189
  137SOL    HW1  410   2.664   1.528   0.918  1.2744 -0.4264  2.1388
  137SOL    HW2  411   2.776   1.639   0.853 -1.6354 -1.1787  0.1625
  138SOL     OW  412   2.804   0.734   1.123 -0.3926 -0.1150 -0.1259
  138SOL    HW1  413   2.814   0.806   1.200  0.6859  0.2892  0.6288
  138SOL    HW2  414   2.764   0.768   1.036 -0.3433  0.9091  2.8976
  139SOL     OW  415   0.002   2.584   2.976  0.9022 -0.1226 -0.3036
  139SOL    HW1  416   0.023   2.509   3.041 -2.6270  1.2481  1.8497
  139SOL    HW2  417   3.062   2.551   2.889  2.8217  0.5483 -0.5477
  140SOL     OW  418   0.694   1.838   1.450  0.5378  0.5164 -0.4564
  140SOL    HW1  419   0.757   1.904   1.495 -0.8768 -0.9803  0.5554
  140SOL    HW2  420   0.738   1.798   1.368  1.7760 -0.8077  0.7447
  141SOL     OW  421   1.118   1.970   0.864  0.4937 -0.2935  0.0339
  141SOL    HW1  422   1.046   1.919   0.908 -0.3095  1.6221 -2.0253
  141SOL    HW2  423   1.131   2.068   0.891  2.4026  0.7806 -2.1236
  142SOL     OW  424   1.082   0.610   1.083  0.1853  0.2463 -0.2833
  142SOL    HW1  425   1.050   0.685   1.016  0.2927  3.3229 -0.9695
  142SOL    HW2  426   1.085   0.636   1.181  0.8206 -0.3647  1.1113
  143SOL     OW  427   0.721   1.061   2.749 -0.3305  0.4842 -0.5718
  143SOL    HW1  428   0.756   1.094   2.837  1.3997  0.5854 -2.3750
  143SOL    HW2  429   0.757   1.112   2.670  1.1604 -0.2527 -0.2010
  144SOL     OW  430   1.985   2.492   0.889 -0.9687 -0.0122 -1.0387
  144SOL    HW1  431   1.889   2.470   0.851 -2.1438  1.2267 -0.7790
  144SOL    HW2  432   1.996   2.465   0.989  0.9701  1.2891  0.3972
  145SOL     OW  433   2.030   0.792   2.694 -0.0085 -0.1649 -0.1716
  145SOL    HW1  434   2.101   0.764   2.628  1.8062  0.2274 -0.7297
  145SOL    HW2  435   2.044   0.750   2.784 -0.6733  1.4031  3.9302
  146SOL     OW  436   2.827   2.828   0.753 -0.2902  0.1915 -0.2117
  146SOL    HW1  437   2.763   2.868   0.824  0.8708  1.5100  0.8421
  146SOL    HW2  438   2.923   2.842   0.785 -1.1834  1.3674  0.1923
  147SOL     OW  439   1.195   1.064   2.025  0.1696 -0.8399 -0.2520
  147SOL    HW1  440   1.186   1.096   2.126 -1.3582  1.4310  2.2897
  147SOL    HW2  441   1.295   1.082   2.006  0.2246  3.7083 -0.7976
  148SOL     OW  442   1.311   0.618   2.101  0.2397 -0.2898  0.2933
  148SOL    HW1  443   1.391   0.572   2.148  0.0113 -2.2361 -0.2119
  148SOL    HW2  444   1.226   0.573   2.125  2.5227  1.6930 -0.1161
  149SOL     OW  445   1.704   2.971   2.106 -0.0177  0.4821  0.2053
  149SOL    HW1  446   1.762   3.049   2.068  2.1404  0.3305 -1.2622
  149SOL    HW2  447   1.609   2.990   2.077  2.1471 -0.3084  0.2368
  150SOL     OW  448   2.480   2.989   0.086  0.4760  0.5437 -0.2284
  150SOL    HW1  449   2.518   2.896   0.060 -0.2209 -1.1736 -2.9050
  150SOL    HW2  450   2.544   3.042   0.140 -4.0264 -3.0932 -3.8353
  151SOL     OW  451   0.493   1.446   2.940  0.0798 -0.7096 -0.0386
  151SOL    HW1  452   0.433   1.373   2.980 -0.1828  1.6455  0.1073
  151SOL    HW2  453   0.588   1.412   2.945 -0.7322 -0.3702 -1.3621
  152SOL     OW  454   0.061   0.142   0.659 -0.6695  0.1503  0.3965
  152SOL    HW1  455   0.137   0.085   0.701  0.0307 -1.7442 -1.3116
  152SOL    HW2  456   0.099   0.227   0.618  1.3684  3.2877  1.5669
  153SOL     OW  457   2.397   0.473   1.531 -0.3496 -0.1855 -0.5926
  153SOL    HW1  458   2.338   0.442   1.455 -1.8733 -0.2833  0.0668
  153SOL    HW2  459   2.341   0.459   1.615  0.8636  0.5240  2.4079
  154SOL     OW  460   1.698   0.227   2.128  0.0305  0.4905 -0.0005
  154SOL    HW1  461   1.728   0.327   2.123 -1.9968  0.2235 -0.9124
  154SOL    HW2  462   1.606   0.212   2.085  1.7015 -3.1686  0.8757
  155SOL     OW  463   3.087   1.650   0.309  0.4861  0.2184  0.2021
  155SOL    HW1  464   3.089   1.587   0.230  1.0748  0.2159 -1.3447
  155SOL    HW2  465   0.088   1.667   0.330  0.7267 -2.2789  2.2215
  156SOL     OW  466   2.876   1.698   2.949  0.4078  0.4267  0.1005
  156SOL    HW1  467   2.906   1.797   2.959 -1.1637 -0.0406  1.2622
  156SOL    HW2  468   2.815   1.671   3.027 -0.9913 -0.6001 -1.1211
  157SOL     OW  469   0.786   0.405   0.816 -0.7299 -0.3343 -0.4751
  157SOL    HW1  470   0.709   0.342   0.801 -1.8025 -1.9547 -3.2252
  157SOL    HW2  471   0.763   0.500   0.798 -1.6837 -1.7819  1.5240
  158SOL     OW  472   2.346   0.786   1.586  0.2876 -0.3183  0.2451
  158SOL    HW1  473   2.375   0.746   1.678  1.6447 -0.4182  0.4465
  158SOL    HW2  474   2.422   0.762   1.522  1.5293 -1.5170  0.6153
  159SOL     OW  475   3.058   0.420   0.392 -0.7789  0.0790 -0.2314
  159SOL    HW1  476   2.999   0.342   0.419 -0.3432  0.0052 -2.6605
  159SOL    HW2  477   0.020   0.391   0.311 -0.2774 -1.8986 -0.0244
  160SOL     OW  478   2.041   2.206   1.879  0.3101 -0.2746  0.1031
  160SOL    HW1  479   2.064   2.256   1.965  0.0226  0.8333 -1.5929
  160SOL    HW2  480   1.962   2.145   1.886  0.0015  1.6503 -1.4891
  161SOL     OW  481   0.018   0.687   2.523  0.2881 -0.0908 -0.2473
  161SOL    HW1  482   0.042   0.725   2.612  0.2047 -2.9223 -2.0345
  161SOL    HW2  483   0.097   0.649   2.463  1.6600 -4.0559 -1.7433
  162SOL     OW  484   0.933   2.459   1.362  0.2246  0.2115  0.3865
  162SOL    HW1  485   0.988   2.373   1.351 -0.1127 -1.8447 -1.5508
  162SOL    HW2  486   0.982   2.535   1.405  1.4794 -1.0598 -0.6458
  163SOL     OW  487   2.570   0.167   2.344  0.0916 -0.0451 -0.3803
  163SOL    HW1  488   2.602   0.111   2.263  2.8420  0.3365  0.4854
  163SOL    HW2  489   2.612   0.259   2.341  5.1418  3.5368  0.9867
  164SOL     OW  490   2.257   1.912   0.094  0.5728 -0.0375  0.2049
  164SOL    HW1  491   2.319   1.900   0.179  3.5169 -0.2219  0.5290
  164SOL    HW2  492   2.222   1.820   0.062  2.1811  3.0543 -0.4673
  165SOL     OW  493   0.020   0.548   1.112 -0.8846 -0.1507  0.6190
  165SOL    HW1  494   0.085   0.480   1.067  1.2255 -1.0269  2.2821
  165SOL    HW2  495   3.037   0.560   1.058 -0.2376 -1.4406  0.0831
  166SOL     OW  496   2.233   0.807   0.514  0.2704 -0.2819  0.1391
  166SOL    HW1  497   2.295   0.878   0.559 -0.6129  1.5590 -0.8645
  166SOL    HW2  498   2.140   0.838   0.505  0.7389  0.5410 -1.9924
  167SOL     OW  499   2.669   1.071   3.033 -0.4619  0.2992  0.4046
  167SOL    HW1  500   2.614   0.987   3.016 -0.1915  1.0596 -1.7721
  167SOL    HW2  501   2.737   1.059   0.011 -2.0563  0.3028 -0.6185
  168SOL     OW  502   1.409   0.242   2.765 -0.7075 -0.4031  0.3458
  168SOL    HW1  503   1.438   0.203   2.853 -1.5387  1.0274  1.4331
  168SOL    HW2  504   1.356   0.173   2.709 -1.2425  1.0135  0.3170
  169SOL     OW  505   0.373   1.432   0.889 -0.1896  0.0916 -0.2825
  169SOL    HW1  506   0.301   1.473   0.829 -0.8669 -0.8646 -0.3013
  169SOL    HW2  507   0.379   1.331   0.868 -1.8043 -0.3676 -0.6300
  170SOL     OW  508   3.050   0.893   1.376 -0.7398 -0.6730  0.3609
  170SOL    HW1  509   0.027   0.889   1.305  1.3246 -0.5766 -0.7816
  170SOL    HW2  510   2.963   0.903   1.324 -2.3048  2.2508  0.4677
  171SOL     OW  511   2.402   2.112   1.982  0.5994 -0.3254 -0.4038
  171SOL    HW1  512   2.460   2.178   1.929  0.8854  0.0134  1.6750
  171SOL    HW2  513   2.342   2.062   1.914 -1.5690 -1.6254 -0.9417
  172SOL     OW  514   0.341   2.262   1.362  0.3207  0.1201 -0.2036
  172SOL    HW1  515   0.326   2.177   1.310  0.0613 -0.5204  1.0288
  172SOL    HW2  516   0.343   2.342   1.299 -0.2297 -0.3167 -0.8434
  173SOL     OW  517   1.693   1.352   3.020 -0.5206 -0.4184  0.4445
  173SOL    HW1  518   1.661   1.296   2.937 -1.1701  0.1052 -0.2570
  173SOL    HW2  519   1.721   1.442   2.980 -1.5415 -1.9627  0.3995
  174SOL     OW  520   1.311   0.620   2.915 -0.4375 -0.5941  0.3309
  174SOL    HW1  521   1.376   0.672   2.857  2.5335  1.9838 -0.0221
  174SOL    HW2  522   1.357   0.587   3.000  0.3145 -1.4199 -1.0783
  175SOL     OW  523   1.393   1.418   1.186 -0.1908  0.0474 -0.3718
  175SOL    HW1  524   1.412   1.459   1.275 -0.3811 -0.5212  0.4892
  175SOL    HW2  525   1.327   1.474   1.134  0.9786 -0.5910  0.8268
  176SOL     OW  526   1.462   0.040   0.274 -0.1977  0.2697  0.0259
  176SOL    HW1  527   1.410   0.047   0.186  0.5830 -1.2844 -0.4161
  176SOL    HW2  528   1.527   0.115   0.276 -0.7103 -2.3996  2.5386
  177SOL     OW  529   0.268   1.029   0.057 -0.1226 -0.5332  0.4403
  177SOL    HW1  530   0.207   0.976   0.120  0.7069 -0.2558 -2.5555
  177SOL    HW2  531   0.349   0.976   0.025  0.4039  3.0108 -0.0110
  178SOL     OW  532   2.286   2.430   2.251 -0.2168  0.3997  0.1667
  178SOL    HW1  533   2.259   2.486   2.331 -2.8426 -2.5300  2.0626
  178SOL    HW2  534   2.334   2.486   2.177 -0.1109 -0.3568 -1.2874
  179SOL     OW  535   3.012   0.164   2.450 -0.2338  0.6745  0.2326
  179SOL    HW1  536   2.943   0.125   2.512  3.2829 -1.7791 -0.8092
  179SOL    HW2  537   2.997   0.136   2.351  0.7446 -0.1420 -2.2358
  180SOL     OW  538   2.083   0.562   0.912 -0.4398 -0.0562 -0.3103
  180SOL    HW1  539   2.170   0.525   0.874  2.8893 -0.4583 -0.5047
  180SOL    HW2  540   2.089   0.659   0.946 -0.2124  1.7267 -1.4501
  181SOL     OW  541   2.234   1.003   2.488 -0.0757  0.3077 -0.4417
  181SOL    HW1  542   2.231   0.905   2.514 -2.0326 -0.0418  1.9067
  181SOL    HW2  543   2.151   1.052   2.530 -1.7766 -0.5667 -0.6176
  182SOL     OW  544   2.601   2.459   2.135  0.4183  0.4901 -0.1009
  182SOL    HW1  545   2.597   2.496   2.229  0.1165 -0.3302 -0.7679
  182SOL    HW2  546   2.683   2.488   2.083  0.2994 -0.5974 -1.8680
  183SOL     OW  547   2.104   0.807   1.735 -0.2947  0.3586  0.2528
  183SOL    HW1  548   2.198   0.787   1.687  2.6309  2.1589 -0.4423
  183SOL    HW2  549   2.100   0.762   1.827 -1.1134 -1.0547  0.2523
  184SOL     OW  550   0.124   1.684   1.150  0.6769  0.3008  0.2089
  184SOL    HW1  551   0.073   1.592   1.157 -2.2805 -0.1652 -1.0989
  184SOL    HW2  552   0.219   1.670   1.177 -3.4672  0.2749  0.2916
  185SOL     OW  553   2.517   0.001   0.862  0.3891  0.1509  0.6512
  185SOL    HW1  554   2.443   0.051   0.811  1.7807 -1.0946  0.0225
  185SOL    HW2  555   2.603   0.050   0.847 -0.3168 -1.7952  3.2833
  186SOL     OW  556   2.942   2.529   2.757 -0.1869 -0.5418 -0.2394
  186SOL    HW1  557   3.000   2.460   2.712  2.4008  0.7779  3.9043
  186SOL    HW2  558   2.862   2.487   2.803  1.0007  3.5901 -1.4256
  187SOL     OW  559   0.258   1.639   0.387  0.5301 -0.2889 -0.2683
  187SOL    HW1  560   0.234   1.680   0.479  4.2304 -1.7822  0.3181
  187SOL    HW2  561   0.231   1.540   0.386  3.8042 -0.2258 -1.0431
  188SOL     OW  562   2.469   1.123   1.235 -0.6000 -0.1261 -0.1786
  188SOL    HW1  563   2.407   1.167   1.166 -1.2066 -0.8240 -1.3781
  188SOL    HW2  564   2.414   1.091   1.315 -1.0733 -1.2007 -1.4151
  189SOL     OW  565   0.055   0.406   2.394 -0.1027  0.0660 -0.1711
  189SOL    HW1  566   0.010   0.332   2.455 -2.5477 -2.9595  1.6131
  189SOL    HW2  567   0.155   0.388   2.385  1.5542 -2.1336 -2.3267
  190SOL     OW  568   1.816   0.821   1.869  0.4989  0.1621 -0.2334
  190SOL    HW1  569   1.772   0.864   1.788  1.5569  0.4904  1.7496
  190SOL    HW2  570   1.907   0.856   1.885 -0.9698 -0.2527  1.1479
  191SOL     OW  571   0.981   0.226   2.145 -0.6983  0.1674 -0.4341
  191SOL    HW1  572   1.036   0.141   2.145  0.9176  0.3589  2.0788
  191SOL    HW2  573   1.035   0.304   2.174  1.3208 -3.4305  0.2164
  192SOL     OW  574   1.273   2.119   1.805 -0.0070  0.1074 -0.1550
  192SOL    HW1  575   1.212   2.142   1.889  0.3305 -1.6816 -0.7591
  192SOL    HW2  576   1.250   2.026   1.768 -0.4681 -1.4423 -1.0482
  193SOL     OW  577   1.453   0.361   0.811 -0.3066  0.0643  0.1066
  193SOL    HW1  578   1.374   0.382   0.874 -0.3979  1.3542  0.5174
  193SOL    HW2  579   1.501   0.276   0.847 -0.6896 -0.4566 -3.2829
  194SOL     OW  580   0.843   2.079   1.495  0.0417 -0.7444  0.4765
  194SOL    HW1  581   0.913   2.132   1.447 -1.8965  0.6340  2.1614
  194SOL    HW2  582   0.895   2.009   1.548  0.4729  2.0104 -0.9319
  195SOL     OW  583   1.486   0.593   0.384 -0.4496  0.5186 -0.3530
  195SOL    HW1  584   1.573   0.648   0.385  0.3166  0.8168 -0.4280
  195SOL    HW2  585   1.507   0.509   0.337 -2.6923 -1.4766  2.0886
  196SOL     OW  586   0.814   1.456   1.829 -0.0368 -0.8073  0.0518
  196SOL    HW1  587   0.909   1.425   1.834  1.8651  0.5784 -0.2225
  196SOL    HW2  588   0.775   1.445   1.739  0.7740  0.7388  1.1617
  197SOL     OW  589   0.995   0.440   1.507 -0.5452  0.3961  0.1966
  197SOL    HW1  590   0.921   0.384   1.464  0.9243 -1.4713  1.0068
  197SOL    HW2  591   1.083   0.457   1.456 -1.7861  0.4080  0.5608
  198SOL     OW  592   0.834   1.068   0.997  0.7761  0.0892  0.3320
  198SOL    HW1  593   0.903   0.997   0.987 -2.2772  1.2988 -0.2848
  198SOL    HW2  594   0.847   1.114   1.090 -0.4788 -2.3037  0.0730
  199SOL     OW  595   0.249   2.449   1.595 -0.3145 -0.3294 -0.1851
  199SOL    HW1  596   0.270   2.407   1.502 -0.3454  4.8331 -2.3612
  199SOL    HW2  597   0.313   2.526   1.610 -0.6195 -2.7086 -0.2592
  200SOL     OW  598   1.466   1.081   1.967 -0.1427 -0.3157 -0.2926
  200SOL    HW1  599   1.459   1.168   2.017 -4.0511 -1.4143  0.0351
  200SOL    HW2  600   1.528   1.096   1.885  1.1022  2.6701  0.5615
  201SOL     OW  601   0.596   2.085   1.984 -0.4245  0.8949  0.2553
  201SOL    HW1  602   0.692   2.057   1.952  1.5745  0.6849 -1.6286
  201SOL    HW2  603   0.525   2.014   1.964 -0.4430 -0.7373 -1.3828
  202SOL     OW  604   1.133   0.027   0.318  0.3850 -0.6314 -0.2725
  202SOL    HW1  605   1.194   0.011   0.242 -0.5233 -0.2789  3.4693
  202SOL    HW2  606   1.146   3.041   0.376  0.9267  1.1948 -0.1025
  203SOL     OW  607   1.546   3.050   2.407 -0.0883  0.6392 -0.1532
  203SOL    HW1  608   1.504   3.036   2.498  0.2566 -3.8987 -1.4600
  203SOL    HW2  609   1.630   0.009   2.413  1.4176 -0.9100  0.2727
  204SOL     OW  610   0.615   1.714   1.839 -0.4244 -0.4643  0.3358
  204SOL    HW1  611   0.714   1.729   1.862 -1.4052  1.1544  0.2816
  204SOL    HW2  612   0.595   1.665   1.748 -0.6291 -0.5323  2.3810
  205SOL     OW  613   1.833   1.470   2.363 -0.0366  0.2696  0.6805
  205SOL    HW1  614   1.928   1.450   2.390 -0.1835 -1.3843  1.6117
  205SOL    HW2  615   1.814   1.573   2.363 -0.9129  1.2283 -0.0582
  206SOL     OW  616   0.161   1.719   2.327 -0.5235 -0.6162 -0.1324
  206SOL    HW1  617   0.237   1.768   2.375  0.9665 -0.0254  0.4252
  206SOL    HW2  618   0.125   1.645   2.385 -0.0323 -1.6120 -0.1297
  207SOL     OW  619   1.304   2.929   1.535 -0.1046 -0.1514 -0.2437
  207SOL    HW1  620   1.328   2.922   1.632  0.9081 -0.2065  0.5461
  207SOL    HW2  621   1.235   3.005   1.526 -2.7957 -0.2196  0.1730
  208SOL     OW  622   0.459   2.631   1.599 -0.1388  0.3453 -0.0312
  208SOL    HW1  623   0.472   2.626   1.698 -1.4239  0.4616  0.3969
  208SOL    HW2  624   0.539   2.576   1.553  2.6649 -2.4877 -0.6926
  209SOL     OW  625   1.417   2.702   0.532  0.3152  0.1958 -0.0325
  209SOL    HW1  626   1.360   2.668   0.610  1.1728  0.2361  0.4387
  209SOL    HW2  627   1.393   2.799   0.503 -0.1195  3.5108 -1.7122
  210SOL     OW  628   2.856   1.217   0.866 -0.5027 -0.4868 -0.0053
  210SOL    HW1  629   2.821   1.153   0.794  2.7889 -1.9647 -1.5950
  210SOL    HW2  630   2.912   1.287   0.820 -0.7772  0.8152 -0.3008
  211SOL     OW  631   0.557   0.290   2.088  0.1752 -0.2757  0.5640
  211SOL    HW1  632   0.613   0.283   2.005  1.1015 -0.7972  0.9258
  211SOL    HW2  633   0.490   0.364   2.067  1.2304 -2.4818 -3.0505
  212SOL     OW  634   1.245   2.278   1.604  0.0259 -0.1561  0.0622
  212SOL    HW1  635   1.243   2.363   1.661 -3.9379 -0.3283 -0.6822
  212SOL    HW2  636   1.275   2.201   1.667 -0.4266 -1.4633  1.5604
  213SOL     OW  637   3.019   0.461   1.619  0.0862  0.0084  0.0437
  213SOL    HW1  638   3.010   0.371   1.568 -1.6403 -1.7744 -0.6954
  213SOL    HW2  639   2.930   0.505   1.614  0.0982 -2.4874  0.4019
  214SOL     OW  640   0.823   2.659   1.863 -0.2513 -0.3721  0.3990
  214SOL    HW1  641   0.730   2.665   1.900 -0.5810  1.2680  1.2670
  214SOL    HW2  642   0.825   2.700   1.767  1.1359  0.7424  1.4836
  215SOL     OW  643   2.569   1.734   1.464 -0.2943 -0.0107 -0.2422
  215SOL    HW1  644   2.503   1.814   1.480 -1.3168 -0.8630 -0.2979
  215SOL    HW2  645   2.521   1.647   1.486  1.5100 -1.2881 -1.7978
  216SOL     OW  646   0.388   0.823   2.083  0.1800  0.3769 -0.2285
  216SOL    HW1  647   0.360   0.915   2.116 -0.9750  2.1975  0.0514
  216SOL    HW2  648   0.424   0.832   1.986  0.5103 -0.0981 -2.9160
  217SOL     OW  649   2.683   0.006   1.335 -0.2639  0.4248  0.7725
  217SOL    HW1  650   2.612   3.095   1.263  0.0141  1.1625 -4.0275
  217SOL    HW2  651   2.764   0.050   1.294 -0.6984  0.9248  0.2993
  218SOL     OW  652   1.474   2.231   1.062 -0.7139 -0.2609 -0.1707
  218SOL    HW1  653   1.434   2.151   1.020  2.8629  0.3295  0.3145
  218SOL    HW2  654   1.581   2.237   1.057  1.2782  2.2457 -2.0844
  219SOL     OW  655   1.688   2.740   0.480 -0.2841 -0.1612 -0.4938
  219SOL    HW1  656   1.599   2.700   0.505 -0.5285  0.9061 -1.2379
  219SOL    HW2  657   1.680   2.822   0.417 -1.0483  1.0200  1.2257
  220SOL     OW  658   1.645   2.513   0.188  0.5225  0.0622 -0.2472
  220SOL    HW1  659   1.563   2.531   0.246  1.1830  2.0101 -2.2056
  220SOL    HW2  660   1.683   2.603   0.166 -2.0905 -1.7465 -0.4226
  221SOL     OW  661   2.491   2.104   0.727 -0.1909 -0.1563 -0.7435
  221SOL    HW1  662   2.559   2.067   0.661  1.6737  1.1080 -2.7178
  221SOL    HW2  663   2.406   2.048   0.736 -0.9173 -0.9368 -2.0808
  222SOL     OW  664   1.085   2.227   1.054 -0.3141 -0.1162 -0.0803
  222SOL    HW1  665   1.050   2.243   0.958 -0.8463  1.5936  1.3654
  222SOL    HW2  666   1.017   2.173   1.111  2.2613 -1.4052  1.1142
  223SOL     OW  667   0.857   2.769   2.893 -0.4348 -0.3265 -0.0094
  223SOL    HW1  668   0.778   2.738   2.835 -1.2246 -1.4236 -1.3577
  223SOL    HW2  669   0.858   2.730   2.991 -1.0604 -0.7404  0.2291
  224SOL     OW  670   3.009   1.136   1.099  0.3137  0.6631  0.1728
  224SOL    HW1  671   2.964   1.174   1.019  1.8318 -1.5259  4.3869
  224SOL    HW2  672   2.946   1.061   1.138 -0.3627  1.1294  2.1781
  225SOL     OW  673   2.940   1.742   0.799 -0.4299  0.2086 -0.6636
  225SOL    HW1  674   2.966   1.840   0.798  1.2315 -0.4112 -0.4538
  225SOL    HW2  675   3.002   1.681   0.748  2.2832  1.2800  0.1267
  226SOL     OW  676   0.938   2.643   0.942  0.2839  0.1960 -0.5094
  226SOL    HW1  677   0.992   2.660   0.859  0.2461  0.3988  0.4463
  226SOL    HW2  678   1.007   2.626   1.016  1.1028  1.9421  0.2212
  227SOL     OW  679   1.128   1.214   1.392 -0.1639 -0.9397 -0.1212
  227SOL    HW1  680   1.096   1.125   1.365 -2.3544  3.3546  0.6195
  227SOL    HW2  681   1.118   1.278   1.313 -2.8144 -0.5775  1.6047
  228SOL     OW  682   1.459   0.148   2.013  0.0235 -0.1843 -0.2979
  228SOL    HW1  683   1.451   0.058   2.044 -0.4535  3.9185 -2.5445
  228SOL    HW2  684   1.393   0.210   2.064 -1.5627  3.2479  0.3801
  229SOL     OW  685   2.938   0.855   2.411 -0.4081 -0.3717  0.4327
  229SOL    HW1  686   2.899   0.815   2.329  1.3732 -1.2334  1.8631
  229SOL    HW2  687   2.977   0.780   2.471  0.1960 -0.8434  1.6928
  230SOL     OW  688   0.123   1.121   0.872 -0.3094  0.3587  0.0025
  230SOL    HW1  689   0.065   1.127   0.791 -0.8309  0.2708  3.3657
  230SOL    HW2  690   0.071   1.143   0.957 -0.9356 -0.6953  0.4014
  231SOL     OW  691   1.798   0.122   2.355 -0.1865  0.2917  0.1160
  231SOL    HW1  692   1.742   0.156   2.281 -0.6263 -2.1254  1.4675
  231SOL    HW2  693   1.877   0.066   2.320  0.7764 -0.1737  2.0119
  232SOL     OW  694   0.565   1.652   0.028  0.5770 -1.0158 -0.3944
  232SOL    HW1  695   0.569   1.747   3.085 -1.0720  4.1777 -0.2906
  232SOL    HW2  696   0.566   1.579   3.060  1.0162  1.1316 -1.5759
  233SOL     OW  697   1.267   2.483   3.045 -0.0918  0.3513 -0.0530
  233SOL    HW1  698   1.357   2.431   3.047  1.0726 -1.4987 -1.9362
  233SOL    HW2  699   1.269   2.530   2.952  0.4785 -2.0582  0.7146
  234SOL     OW  700   1.267   1.511   1.991 -0.2421 -0.1345  0.1746
  234SOL    HW1  701   1.322   1.440   2.040  0.1169 -0.4051 -1.4379
  234SOL    HW2  702   1.190   1.467   1.947  2.6096 -2.5678 -0.1554
  235SOL     OW  703   0.105   2.031   1.914 -0.1188 -0.4809 -0.4813
  235SOL    HW1  704   0.158   1.943   1.902  1.9818  0.7339 -0.8494
  235SOL    HW2  705   0.162   2.106   1.885  1.9696 -0.3199  0.0477
  236SOL     OW  706   1.700   2.244   2.737 -0.4384 -0.2886 -0.2390
  236SOL    HW1  707   1.610   2.241   2.785 -0.6884  0.7378 -0.6100
  236SOL    HW2  708   1.764   2.305   2.789  0.0565  3.2838 -0.3163
  237SOL     OW  709   1.626   0.590   0.799 -0.1586  0.3258  0.2742
  237SOL    HW1  710   1.720   0.574   0.766  0.6734 -0.9572 -1.5123
  237SOL    HW2  711   1.563   0.518   0.763 -1.5007 -2.5844 -0.7733
  238SOL     OW  712   0.868   0.200   2.618  0.1765  0.0490  0.1901
  238SOL    HW1  713   0.783   0.163   2.574 -1.0196 -2.1861 -2.1770
  238SOL    HW2  714   0.950   0.140   2.597  2.8835 -1.9558 -1.5459
  239SOL     OW  715   0.848   2.995   1.745  0.2225  0.4267 -0.6448
  239SOL    HW1  716   0.878   3.050   1.665  2.3349 -0.7031  3.7071
  239SOL    HW2  717   0.837   3.061   1.823  1.1625  2.4353 -1.0246
  240SOL     OW  718   2.388   2.730   0.983  0.0187 -0.4557 -0.0987
  240SOL    HW1  719   2.372   2.730   0.880  0.7958  1.7851 -2.5286
  240SOL    HW2  720   2.415   2.638   1.022  2.3584  0.5823  3.4272
  241SOL     OW  721   1.472   1.398   1.746  0.1054  0.0171  0.2037
  241SOL    HW1  722   1.539   1.320   1.753  0.2761 -1.0571  1.2846
  241SOL    HW2  723   1.374   1.365   1.747 -0.9717 -0.3986  0.1956
  242SOL     OW  724   2.634   0.719   0.352 -0.3156  0.2963 -0.5339
  242SOL    HW1  725   2.727   0.722   0.316  0.9071 -0.3308  0.0459
  242SOL    HW2  726   2.583   0.635   0.323  1.1582 -1.8531 -0.2737
  243SOL     OW  727   0.789   0.748   1.243 -0.4629  0.1461  0.5872
  243SOL    HW1  728   0.837   0.813   1.301 -0.1710  0.6485  0.2860
  243SOL    HW2  729   0.848   0.740   1.162 -3.0715 -2.0405 -1.8062
  244SOL     OW  730   1.186   0.280   3.086 -0.0673 -0.4986 -0.4376
  244SOL    HW1  731   1.118   0.343   0.042 -1.1191  2.0142  0.4141
  244SOL    HW2  732   1.179   0.307   2.988 -2.1553 -1.5560  0.7245
  245SOL     OW  733   2.046   0.329   3.058  0.4359  0.1110  0.4148
  245SOL    HW1  734   1.983   0.338   0.039 -0.7388  0.8847  0.1314
  245SOL    HW2  735   2.129   0.270   3.077 -1.4561  1.6800  0.3840
  246SOL     OW  736   0.963   0.938   1.390  0.1649  0.1363 -0.0538
  246SOL    HW1  737   0.914   0.877   1.458 -0.3737 -0.9061  1.4678
  246SOL    HW2  738   1.047   0.889   1.348  2.1278  0.2128 -1.4903
  247SOL     OW  739   0.525   3.091   2.204 -0.0455 -0.4927 -0.6055
  247SOL    HW1  740   0.438   3.077   2.256  0.9400 -0.1418  1.9133
  247SOL    HW2  741   0.527   0.082   2.166 -1.2918 -0.6618  3.1998
  248SOL     OW  742   0.073   1.660   1.812 -0.3975  0.6988  0.0629
  248SOL    HW1  743   3.093   1.671   1.746  1.9516 -0.2138  1.6367
  248SOL    HW2  744   0.163   1.680   1.769  0.6763 -0.7452  0.2616
  249SOL     OW  745   3.011   0.088   2.821 -0.3285 -0.1290 -0.0430
  249SOL    HW1  746   3.090   0.064   2.759 -0.0565 -0.4404 -0.5801
  249SOL    HW2  747   3.043   0.119   2.915 -0.4570  1.1420  0.7479
  250SOL     OW  748   2.894   3.040   0.320 -0.1925  0.1048 -0.3991
  250SOL    HW1  749   2.913   3.041   0.220 -1.9388 -0.5802 -1.0876
  250SOL    HW2  750   2.932   2.960   0.374 -1.6709 -1.1442 -1.9550
  251SOL     OW  751   0.873   1.448   0.988  0.4151  0.1998  0.4018
  251SOL    HW1  752   0.878   1.387   0.906  0.7981  0.3725 -1.6867
  251SOL    HW2  753   0.783   1.439   1.035  1.9439 -2.7066 -0.4619
  252SOL     OW  754   1.588   2.897   1.484 -0.3782 -0.0470  0.2420
  252SOL    HW1  755   1.630   2.967   1.424 -1.2357  0.3006  1.0550
  252SOL    HW2  756   1.498   2.925   1.526  0.8651 -0.4269 -1.8285
  253SOL     OW  757   2.377   1.879   2.751 -0.6702 -0.1840  1.0657
  253SOL    HW1  758   2.434   1.945   2.805 -1.9634 -0.4342 -1.7962
  253SOL    HW2  759   2.432   1.801   2.718  1.0128  0.4119  0.5068
  254SOL     OW  760   0.396   1.838   1.919  0.2588  0.4069 -0.6315
  254SOL    HW1  761   0.474   1.786   1.882  1.5350 -0.5096  1.0940
  254SOL    HW2  762   0.330   1.769   1.956 -0.6598 -1.0427  0.6940
  255SOL     OW  763   0.881   0.014   1.509  0.0109  0.0993 -0.2717
  255SOL    HW1  764   0.845   0.110   1.493 -3.3473 -0.9649 -0.8066
  255SOL    HW2  765   0.820   3.043   1.474 -2.3929  0.1101  0.8131
  256SOL     OW  766   2.408   2.159   1.100 -0.2875  0.3848  0.0945
  256SOL    HW1  767   2.426   2.061   1.080  1.3633  0.6730  0.3037
  256SOL    HW2  768   2.450   2.218   1.023  2.6962  2.3963 -0.1123
  257SOL     OW  769   0.446   2.457   2.937 -0.2692 -0.2074 -0.3664
  257SOL    HW1  770   0.386   2.387   2.989 -2.2419  1.2766  0.6739
  257SOL    HW2  771   0.480   2.529   2.998  0.2942 -1.8104 -0.6055
  258SOL     OW  772   0.738   1.676   2.582 -0.1565 -0.0050 -0.1200
  258SOL    HW1  773   0.709   1.768   2.624 -0.9527  0.0571  2.1392
  258SOL    HW2  774   0.675   1.651   2.502 -2.7617 -1.1930  0.1983
  259SOL     OW  775   0.649   1.614   2.330 -0.2925 -0.0227  0.3868
  259SOL    HW1  776   0.747   1.588   2.322 -0.6843 -1.1358 -0.6629
  259SOL    HW2  777   0.590   1.532   2.342  2.1695  2.5377 -0.7683
  260SOL     OW  778   2.312   1.329   1.890  0.0443 -0.2587 -0.4135
  260SOL    HW1  779   2.355   1.415   1.918  2.4936 -0.0085 -0.8285
  260SOL    HW2  780   2.217   1.340   1.861  0.2665 -1.5797  1.4996
  261SOL     OW  781   1.474   0.797   0.837  0.1986  0.0321 -0.2189
  261SOL    HW1  782   1.545   0.725   0.818  1.1768  0.2481 -1.1789
  261SOL    HW2  783   1.424   0.766   0.923 -0.7441 -0.2714 -0.2045
  262SOL     OW  784   1.659   2.251   2.467 -0.1789 -0.3804 -0.7400
  262SOL    HW1  785   1.737   2.307   2.420  1.7810  1.3672  4.8567
  262SOL    HW2  786   1.671   2.228   2.565 -3.0480 -0.9509  1.3311
  263SOL     OW  787   0.140   1.744   3.070 -0.0321 -0.0015 -0.2318
  263SOL    HW1  788   0.128   1.644   3.080 -1.2178  2.9450  0.0468
  263SOL    HW2  789   0.167   1.763   2.975 -0.4696  2.9695 -2.9197
  264SOL     OW  790   0.544   1.914   1.217 -0.2434  0.5315  0.4724
  264SOL    HW1  791   0.578   1.993   1.272 -1.4794  0.1385  0.6435
  264SOL    HW2  792   0.620   1.846   1.212 -1.6867  0.3221 -0.1447
  265SOL     OW  793   0.751   0.965   0.122 -0.0675  0.0670 -0.4192
  265SOL    HW1  794   0.768   0.964   0.227 -0.7671  0.4182  4.0290
  265SOL    HW2  795   0.788   1.051   0.079 -1.3573  1.0075 -2.0340
  266SOL     OW  796   1.156   1.641   2.878  0.1598  0.2311  0.0659
  266SOL    HW1  797   1.248   1.616   2.848 -0.4187  0.3940  0.4639
  266SOL    HW2  798   1.094   1.640   2.797  0.8113  2.3704 -0.3293
  267SOL     OW  799   0.895   0.619   2.079 -0.5939 -0.2557  0.2925
  267SOL    HW1  800   0.855   0.530   2.043  0.2669 -0.1208  1.5119
  267SOL    HW2  801   0.825   0.696   2.072 -2.9232  0.0276 -0.3119
  268SOL     OW  802   0.410   0.763   2.649 -0.7683  0.2135  0.3841
  268SOL    HW1  803   0.500   0.719   2.617  1.0576 -1.9486  0.7293
  268SOL    HW2  804   0.360   0.709   2.715  1.7608  1.9509 -1.3053
  269SOL     OW  805   1.766   2.815   2.620 -0.0722  0.2710  0.5817
  269SOL    HW1  806   1.754   2.822   2.521  2.0457 -1.7505  2.3756
  269SOL    HW2  807   1.733   2.721   2.653 -0.2697  0.4458  0.4921
  270SOL     OW  808   0.965   1.320   2.282  0.5379 -0.3841  0.7240
  270SOL    HW1  809   0.886   1.293   2.338  1.1038 -1.3943 -0.9589
  270SOL    HW2  810   0.957   1.421   2.261  0.6103  0.8255  0.4580
  271SOL     OW  811   0.052   0.120   3.068  0.0348 -0.3780  0.2870
  271SOL    HW1  812   0.110   0.195   3.038  0.2880 -0.7778  0.9788
  271SOL    HW2  813   0.103   0.053   0.029  1.8460 -0.6257 -1.9129
  272SOL     OW  814   2.242   0.728   0.243  0.0442  0.3051  0.1554
  272SOL    HW1  815   2.248   0.738   0.343  5.0890 -0.6149  2.2406
  272SOL    HW2  816   2.276   0.812   0.199 -0.0093 -0.1904  2.1939
  273SOL     OW  817   0.235   0.043   2.036  0.6357  0.5323  0.0428
  273SOL    HW1  818   0.164   0.107   2.014  3.1992  2.1481  0.2906
  273SOL    HW2  819   0.237   0.031   2.138 -1.0834 -1.2100  1.6507
  274SOL     OW  820   3.090   0.395   1.876 -0.3541  0.3540 -0.2123
  274SOL    HW1  821   0.048   0.460   1.929 -1.5138 -0.3504  1.4789
  274SOL    HW2  822   3.076   0.420   1.777 -0.7683  0.0564  0.7719
  275SOL     OW  823   1.409   1.644   0.615  0.5636 -0.4974  0.1606
  275SOL    HW1  824   1.334   1.581   0.584 -0.4082 -0.7963  1.1437
  275SOL    HW2  825   1.493   1.599   0.652 -1.3503  1.1064 -1.2644
  276SOL     OW  826   0.676   0.799   2.156  0.1139  0.1888 -0.0995
  276SOL    HW1  827   0.720   0.871   2.210 -1.7643 -0.9659 -1.5667
  276SOL    HW2  828   0.575   0.811   2.162 -0.1671  1.4922  0.8764
  277SOL     OW  829   1.810   2.566   2.217 -0.3126 -0.4201  0.3869
  277SOL    HW1  830   1.720   2.566   2.165 -0.5860  0.5696  0.8987
  277SOL    HW2  831   1.824   2.655   2.265 -1.8190  1.5405  0.2127
  278SOL     OW  832   1.787   2.826   2.331 -0.0167  0.5215  0.4262
  278SOL    HW1  833   1.883   2.817   2.306 -1.6477 -2.7171  1.0114
  278SOL    HW2  834   1.746   2.880   2.251 -0.7657 -1.5976 -0.2601
  279SOL     OW  835   1.874   1.123   0.007 -0.1737  0.1961  0.2293
  279SOL    HW1  836   1.820   1.207   3.082 -0.3115  1.1287  1.0089
  279SOL    HW2  837   1.976   1.136   0.013  0.0448  0.6023  0.0193
  280SOL     OW  838   0.827   1.097   2.998 -0.0349  0.1062  0.5732
  280SOL    HW1  839   0.831   1.188   3.037  1.2899 -1.3787  0.8496
  280SOL    HW2  840   0.921   1.079   2.957  0.5578 -1.0748  1.3833
  281SOL     OW  841   2.977   0.190   1.482  0.0019 -0.4275 -0.3226
  281SOL    HW1  842   3.074   0.202   1.491 -3.1310  4.0015 -1.3404
  281SOL    HW2  843   2.944   0.126   1.406 -1.3038 -2.8550  0.1292
  282SOL     OW  844   2.920   2.212   0.718  0.0656 -0.1052  0.0912
  282SOL    HW1  845   2.943   2.311   0.725 -1.4724 -2.2519  2.0858
  282SOL    HW2  846   2.857   2.190   0.794 -0.5461  1.5107 -1.3550
  283SOL     OW  847   1.422   1.884   2.375  0.2276  0.1570  0.8825
  283SOL    HW1  848   1.494   1.947   2.333 -1.6285 -0.9122 -0.0066
  283SOL    HW2  849   1.336   1.884   2.313 -2.5026 -2.8325 -3.4441
  284SOL     OW  850   1.677   0.214   0.558  0.3967  0.3368 -0.5002
  284SOL    HW1  851   1.694   0.191   0.459  0.4408 -2.4287 -1.8977
  284SOL    HW2  852   1.579   0.222   0.578  1.2397  0.4261 -1.3799
  285SOL     OW  853   3.005   2.783   2.701 -0.2728  0.1876 -0.2744
  285SOL    HW1  854   2.929   2.844   2.667 -0.3948 -2.9380  2.3826
  285SOL    HW2  855   2.966   2.689   2.714 -0.0628  0.3036  0.9643
  286SOL     OW  856   2.721   2.656   1.391  0.3861 -0.8041 -0.6543
  286SOL    HW1  857   2.675   2.717   1.456 -0.7953  1.2750  0.9473
  286SOL    HW2  858   2.741   2.567   1.439 -0.9586 -1.7414 -2.3698
  287SOL     OW  859   0.541   1.233   0.634  0.5282  0.3650 -0.0246
  287SOL    HW1  860   0.482   1.194   0.711  1.7200  1.6533  1.5302
  287SOL    HW2  861   0.534   1.335   0.625  1.3772 -1.3181  3.7205
  288SOL     OW  862   2.150   1.762   2.815 -0.7984 -0.1468  0.4928
  288SOL    HW1  863   2.095   1.810   2.884  0.4349  0.1444 -1.4428
  288SOL    HW2  864   2.241   1.801   2.801 -0.8114  0.8003  0.7722
  289SOL     OW  865   0.211   1.682   2.796 -0.1588 -0.0693 -0.4916
  289SOL    HW1  866   0.118   1.641   2.778 -1.4007 -2.7557  3.8486
  289SOL    HW2  867   0.288   1.619   2.761  2.5422 -0.9466 -1.3119
  290SOL     OW  868   1.123   1.795   1.191 -0.2200  0.3774 -0.0130
  290SOL    HW1  869   1.194   1.730   1.154 -0.9953  1.4321  1.5338
  290SOL    HW2  870   1.053   1.816   1.120  0.4707 -1.4815  2.5082
  291SOL     OW  871   1.815   1.026   2.829 -0.7186  0.1545 -0.0120
  291SOL    HW1  872   1.748   0.948   2.818 -0.1504 -1.0962  0.7828
  291SOL    HW2  873   1.808   1.065   2.925 -0.0085  0.2506  0.6950
  292SOL     OW  874   1.196   1.482   0.526  0.3522  0.2626  0.3646
  292SOL    HW1  875   1.131   1.513   0.595  1.2241 -0.0648 -0.2041
  292SOL    HW2  876   1.203   1.382   0.535 -2.2446  2.2624 -0.5185
  293SOL     OW  877   1.665   2.613   1.123  0.7466 -0.4359 -0.6486
  293SOL    HW1  878   1.736   2.686   1.108  1.8280  3.6484 -1.8350
  293SOL    HW2  879   1.635   2.571   1.034  1.6500  2.7951 -2.4343
  294SOL     OW  880   2.503   1.285   2.970  0.0904  0.2710 -0.0232
  294SOL    HW1  881   2.417   1.247   2.927  0.6724 -1.4309 -1.8632
  294SOL    HW2  882   2.584   1.222   2.966  3.2071  0.3961  0.1903
  295SOL     OW  883   1.583   2.099   2.276  0.0214  0.2526 -0.1914
  295SOL    HW1  884   1.623   2.157   2.349 -0.2017 -1.2680 -0.3392
  295SOL    HW2  885   1.586   2.154   2.188 -0.0181  2.9377 -0.6115
  296SOL     OW  886   1.758   0.541   1.885 -0.1090  0.0450  0.2082
  296SOL    HW1  887   1.780   0.643   1.877 -0.5536  0.6554  1.2991
  296SOL    HW2  888   1.746   0.511   1.983  1.7640 -1.3316 -0.9722
  297SOL     OW  889   3.086   0.718   2.168 -0.0174 -0.3210  0.0254
  297SOL    HW1  890   2.996   0.666   2.185 -1.4615 -0.6543 -1.5483
  297SOL    HW2  891   3.070   0.817   2.140  0.6727  1.2675 -1.7236
  298SOL     OW  892   1.043   2.699   2.061 -0.2260 -0.6712 -0.1633
  298SOL    HW1  893   1.020   2.616   2.008 -2.6710 -0.8957 -0.4070
  298SOL    HW2  894   0.969   2.710   2.131 -1.3355 -0.3321  1.1875
  299SOL     OW  895   1.218   2.609   2.811  0.3182  0.3067 -0.2453
  299SOL    HW1  896   1.250   2.708   2.809 -0.5863  0.1710 -1.3607
  299SOL    HW2  897   1.140   2.598   2.748 -0.6580 -0.9055  1.1756
  300SOL     OW  898   2.868   1.227   2.831 -0.4228  0.4629  0.0673
  300SOL    HW1  899   2.787   1.206   2.886  0.2373 -1.8748  0.7367
  300SOL    HW2  900   2.895   1.150   2.767  0.7934  0.3368  1.7838
  301SOL     OW  901   2.116   1.094   1.666  0.0861 -0.3447 -0.7159
  301SOL    HW1  902   2.141   1.000   1.683 -0.5951 -1.1426  1.9563
  301SOL    HW2  903   2.045   1.121   1.733 -0.6708 -0.0300 -1.2328
  302SOL     OW  904   2.541   1.949   2.414 -0.4807  0.3251 -0.7963
  302SOL    HW1  905   2.494   1.858   2.417  1.3976 -0.3172  0.6330
  302SOL    HW2  906   2.469   2.020   2.435  1.6563  0.5732  1.5945
  303SOL     OW  907   0.261   2.693   2.233 -0.4160 -0.3935 -0.2697
  303SOL    HW1  908   0.218   2.779   2.267 -2.2759 -1.8578 -1.8297
  303SOL    HW2  909   0.252   2.687   2.131 -1.4710 -0.6366 -2.5551
  304SOL     OW  910   0.127   0.803   1.187 -0.1403 -0.3794 -0.3736
  304SOL    HW1  911   0.171   0.829   1.099  0.0043 -1.5169 -0.3079
  304SOL    HW2  912   0.071   0.723   1.167  0.9561  1.0476 -0.2421
  305SOL     OW  913   2.826   0.481   1.929  0.8193 -0.1051  0.1001
  305SOL    HW1  914   2.923   0.454   1.912 -1.2268 -0.3546 -1.0207
  305SOL    HW2  915   2.758   0.423   1.879 -0.8894  1.1426 -0.5579
  306SOL     OW  916   2.331   1.080   1.482 -0.0991 -0.0917  0.1810
  306SOL    HW1  917   2.377   1.011   1.548  0.9674 -1.4741 -0.7026
  306SOL    HW2  918   2.256   1.131   1.531 -0.3984  0.9570 -2.1240
  307SOL     OW  919   2.777   0.087   0.816  0.3829  0.0766 -0.5100
  307SOL    HW1  920   2.826   0.177   0.800  0.4202 -0.4108  1.6100
  307SOL    HW2  921   2.819   0.040   0.897  0.4135 -1.0515 -1.0739
  308SOL     OW  922   2.839   1.811   1.345  0.2787  0.0987 -0.4223
  308SOL    HW1  923   2.849   1.790   1.248  2.2489  1.1989  1.5064
  308SOL    HW2  924   2.894   1.755   1.411 -1.9937 -0.7577 -0.3365
  309SOL     OW  925   2.167   2.234   1.647 -0.2541 -0.1108 -0.2307
  309SOL    HW1  926   2.120   2.312   1.601  1.1551 -2.1080 -0.0408
  309SOL    HW2  927   2.124   2.214   1.737  0.1855 -0.4555  0.6532
  310SOL     OW  928   2.076   1.391   2.706  0.1206 -0.3067  0.5040
  310SOL    HW1  929   2.063   1.477   2.652  0.2566 -0.1807  2.2432
  310SOL    HW2  930   2.041   1.309   2.656  1.7920  0.4603 -2.4011
  311SOL     OW  931   2.137   1.162   3.082 -0.1742  0.1616 -0.0794
  311SOL    HW1  932   2.145   1.077   3.022  2.5511  0.5731 -0.1989
  311SOL    HW2  933   2.224   1.174   0.042  1.4242  2.5063 -1.8934
  312SOL     OW  934   1.280   2.477   2.174  0.2795  0.4822 -0.6105
  312SOL    HW1  935   1.332   2.446   2.256 -0.3374  3.2924 -0.8790
  312SOL    HW2  936   1.183   2.510   2.196 -0.6122 -1.8850 -0.2570
  313SOL     OW  937   0.553   0.252   0.799 -0.1832 -0.1166 -0.5801
  313SOL    HW1  938   0.548   0.216   0.896 -0.5652  1.2247 -1.2290
  313SOL    HW2  939   0.592   0.181   0.737  1.8827 -2.4893  0.2657
  314SOL     OW  940   0.754   1.710   1.167  0.3945  0.1733  0.1221
  314SOL    HW1  941   0.814   1.638   1.200  0.5113  1.3645  0.3624
  314SOL    HW2  942   0.681   1.663   1.108 -1.9669 -0.9192 -0.8611
  315SOL     OW  943   0.755   2.487   2.158 -0.5032  0.4649 -0.2210
  315SOL    HW1  944   0.753   2.441   2.068  1.8250  0.9103  0.3510
  315SOL    HW2  945   0.767   2.586   2.142 -0.2833  0.4523  1.7760
  316SOL     OW  946   0.155   2.072   0.991  0.6578 -0.2414  0.0883
  316SOL    HW1  947   0.074   2.110   1.045 -3.2060  2.2063 -1.4061
  316SOL    HW2  948   0.210   2.014   1.057 -2.1924  1.8156  0.7783
  317SOL     OW  949   1.948   0.613   0.471  0.2950  1.1360  0.2020
  317SOL    HW1  950   1.899   0.574   0.554 -1.8308 -0.0773 -0.5997
  317SOL    HW2  951   2.002   0.535   0.438  1.1664 -0.4628 -1.7104
  318SOL     OW  952   2.372   2.619   0.095 -0.6273  0.1770 -0.0274
  318SOL    HW1  953   2.474   2.633   0.103  0.9632 -1.6672  0.6994
  318SOL    HW2  954   2.329   2.701   0.053  0.1665 -0.9402 -0.9600
  319SOL     OW  955   1.281   1.878   2.949 -0.1848  0.0865  0.3097
  319SOL    HW1  956   1.262   1.957   2.893 -0.5939 -1.6282  0.3905
  319SOL    HW2  957   1.227   1.791   2.923  2.7576 -1.8715  3.2976
  320SOL     OW  958   0.623   2.448   2.746  0.1289  0.2406  0.7533
  320SOL    HW1  959   0.560   2.444   2.824 -1.5500 -3.1660 -2.6403
  320SOL    HW2  960   0.721   2.427   2.757 -2.2538  0.8870  1.9207
  321SOL     OW  961   0.832   2.659   0.055 -0.0154  0.2419  0.5532
  321SOL    HW1  962   0.909   2.596   0.057 -1.6356  2.6091 -0.3436
  321SOL    HW2  963   0.835   2.731   0.135  0.1973 -0.8509 -0.1131
  322SOL     OW  964   2.028   0.302   2.297 -0.6973 -0.4101 -0.4071
  322SOL    HW1  965   2.030   0.335   2.199 -1.5782  2.4196 -1.1555
  322SOL    HW2  966   1.960   0.232   2.322  0.5782  1.9778  2.4304
  323SOL     OW  967   2.969   0.832   0.663 -0.1243  0.0107 -0.0492
  323SOL    HW1  968   3.021   0.751   0.701  0.4634  0.8172 -0.7660
  323SOL    HW2  969   2.962   0.813   0.560 -0.0277  0.7920  2.1770
  324SOL     OW  970   0.381   0.418   2.373  0.2702  0.1016 -0.0817
  324SOL    HW1  971   0.350   0.506   2.329 -0.2046  2.2063 -1.2266
  324SOL    HW2  972   0.484   0.417   2.383  0.9799 -0.2163  0.7038
  325SOL     OW  973   0.296   3.093   2.321 -0.2843  0.0486 -0.4874
  325SOL    HW1  974   0.297   0.083   2.373 -0.2687 -3.1484 -0.2429
  325SOL    HW2  975   0.249   3.023   2.376  0.7787  3.5502 -0.8416
  326SOL     OW  976   2.638   2.392   0.218 -0.2414  0.5681  0.0926
  326SOL    HW1  977   2.537   2.372   0.217 -0.5356 -1.5765 -0.8454
  326SOL    HW2  978   2.680   2.398   0.314 -1.1848 -0.2010 -0.8981
  327SOL     OW  979   2.457   1.314   0.686 -0.4771  0.4041 -0.0390
  327SOL    HW1  980   2.425   1.217   0.688  1.1781  0.7623 -0.0501
  327SOL    HW2  981   2.401   1.368   0.752  1.7438  0.6221  1.3315
  328SOL     OW  982   3.030   1.834   2.261 -0.2173  0.4306 -0.5267
  328SOL    HW1  983   0.025   1.797   2.289  0.4494  1.6688  1.5913
  328SOL    HW2  984   3.014   1.802   2.169  0.4805  1.8732  1.3021
  329SOL     OW  985   3.045   2.386   1.537  0.4085 -0.5016 -0.0404
  329SOL    HW1  986   3.043   2.437   1.627 -2.3403  1.6967 -0.8122
  329SOL    HW2  987   3.027   2.286   1.553 -0.0902  1.0843 -2.3085
  330SOL     OW  988   2.451   1.487   2.295 -0.4590  0.3122 -0.0361
  330SOL    HW1  989   2.392   1.408   2.276  2.7312  2.3869  0.9829
  330SOL    HW2  990   2.532   1.480   2.233 -2.3524 -0.1470 -0.7198
  331SOL     OW  991   2.732   2.076   0.886 -0.1820  0.5785 -0.1019
  331SOL    HW1  992   2.773   2.099   0.976 -0.6168  1.6912  0.0725
  331SOL    HW2  993   2.630   2.079   0.892  1.2096  1.1879 -2.2955
  332SOL     OW  994   0.506   2.729   0.905  0.0446 -0.2615 -0.3183
  332SOL    HW1  995   0.560   2.771   0.828 -1.9606 -0.0067 -1.1599
  332SOL    HW2  996   0.518   2.786   0.992 -0.3960  1.7788  0.6877
  333SOL     OW  997   2.003   3.082   2.259 -0.0227  0.2467  0.1947
  333SOL    HW1  998   2.060   0.051   2.206 -0.7537 -0.8479 -0.5520
  333SOL    HW2  999   2.040   2.984   2.241 -0.1479 -3.0337  1.0864
  334SOL     OW 1000   0.911   1.028   0.380  0.1750 -0.2196  0.1221
  334SOL    HW1 1001   0.997   1.080   0.345  2.0589 -1.0853 -1.1449
  334SOL    HW2 1002   0.945   0.944   0.427  0.6149 -1.1603  1.4815
  335SOL     OW 1003   0.251   2.334   2.083 -0.3729 -0.1866 -0.6914
  335SOL    HW1 1004   0.297   2.247   2.099 -1.1734  0.5582  1.3861
  335SOL    HW2 1005   0.215   2.380   2.167 -0.7274 -1.1855 -2.7449
  336SOL     OW 1006   2.816   2.958   2.603 -0.2921 -0.2454 -0.8596
  336SOL    HW1 1007   2.853   3.053   2.612 -0.0108 -0.5058 -1.5386
  336SOL    HW2 1008   2.760   2.940   2.520  4.2442  1.0717  0.8396
  337SOL     OW 1009   1.223   1.007   0.954 -0.2783  0.0126  0.6550
  337SOL    HW1 1010   1.292   1.072   0.988 -2.2182 -0.8213  2.5446
  337SOL    HW2 1011   1.183   1.045   0.866 -3.4803  0.1475 -1.0967
  338SOL     OW 1012   0.906   1.900   1.053  0.0379  0.1210  0.2226
  338SOL    HW1 1013   0.859   1.989   1.072  2.1579  2.1116  2.3967
  338SOL    HW2 1014   0.865   1.825   1.113 -0.0648 -3.5564 -0.4392
  339SOL     OW 1015   0.076   1.219   1.687 -1.1247 -0.5550  0.0212
  339SOL    HW1 1016   0.028   1.189   1.604 -0.0575  0.6792  1.8947
  339SOL    HW2 1017   0.019   1.295   1.729  1.0421 -0.2418  1.2680
  340SOL     OW 1018   1.424   3.037   2.184  0.1907 -0.1359 -0.5696
  340SOL    HW1 1019   1.472   3.046   2.275  1.0934  0.4118 -0.7547
  340SOL    HW2 1020   1.388   2.942   2.164 -0.8062  1.2787  0.7922
  341SOL     OW 1021   1.676   1.484   1.081 -0.0316  0.3355  0.0991
  341SOL    HW1 1022   1.593   1.451   1.132 -0.9831 -1.8591 -1.8735
  341SOL    HW2 1023   1.750   1.530   1.133 -1.9529  0.6343 -1.0704
  342SOL     OW 1024   3.046   1.423   0.839 -0.1953  0.2314 -0.3337
  342SOL    HW1 1025   0.033   1.470   0.805  1.0032 -0.8571 -0.2090
  342SOL    HW2 1026   3.033   1.423   0.940  1.6870 -0.9085  1.1155
  343SOL     OW 1027   3.067   0.873   1.647 -0.0015 -0.1339 -0.2041
  343SOL    HW1 1028   0.052   0.819   1.674  0.9253 -0.5574 -0.0657
  343SOL    HW2 1029   3.052   0.883   1.543 -2.4827  0.2747 -3.0113
  344SOL     OW 1030   1.830   0.265   1.092 -0.2137 -0.0278  0.2380
  344SOL    HW1 1031   1.928   0.296   1.091 -0.1934 -1.3964 -1.6154
  344SOL    HW2 1032   1.767   0.349   1.098 -1.3719 -0.4160  1.6859
  345SOL     OW 1033   0.535   2.852   2.511  0.2250 -0.3183  0.1916
  345SOL    HW1 1034   0.522   2.761   2.461 -0.1323 -1.7633 -1.0305
  345SOL    HW2 1035   0.626   2.889   2.486 -0.4427  0.4050 -2.1882
  346SOL     OW 1036   2.549   1.669   0.271 -0.3231  0.7588  0.1290
  346SOL    HW1 1037   2.600   1.754   0.253 -0.3086 -1.9148 -1.5979
  346SOL    HW2 1038   2.502   1.668   0.366  0.5554 -1.8548  1.5296
  347SOL     OW 1039   2.399   0.079   1.832  0.3205 -0.1767 -0.1053
  347SOL    HW1 1040   2.496   0.082   1.796  2.0085  2.4052 -2.5574
  347SOL    HW2 1041   2.331   0.095   1.756 -1.8725 -1.9584 -1.0278
  348SOL     OW 1042   1.400   1.151   1.426 -0.0269 -0.0156 -0.1437
  348SOL    HW1 1043   1.302   1.179   1.407 -0.1971  1.6043  0.2824
  348SOL    HW2 1044   1.453   1.236   1.440  2.3581  2.3977  1.5637
  349SOL     OW 1045   2.710   0.738   1.874  0.0546  0.4809  0.3065
  349SOL    HW1 1046   2.771   0.658   1.889  1.2494 -0.6158 -0.4384
  349SOL    HW2 1047   2.767   0.823   1.851  0.4186 -0.6265 -1.5016
  350SOL     OW 1048   2.168   2.140   3.080 -0.3517  0.5540  0.2068
  350SOL    HW1 1049   2.207   2.139   2.988 -1.1401  2.0529  1.4581
  350SOL    HW2 1050   2.208   2.061   0.033  1.9141  0.0181 -0.7156
  351SOL     OW 1051   0.844   0.085   1.950 -0.1809  0.0700  0.0569
  351SOL    HW1 1052   0.877   0.132   2.032 -0.2445  0.4065 -0.9174
  351SOL    HW2 1053   0.776   0.142   1.902  0.1490  0.1444 -0.5211
  352SOL     OW 1054   1.986   2.498   1.853  0.1468 -0.8124  0.6602
  352SOL    HW1 1055   2.022   2.429   1.921  1.9267  0.5817  1.3711
  352SOL    HW2 1056   1.891   2.471   1.812 -1.6325 -3.3972 -2.8031
  353SOL     OW 1057   0.675   0.956   2.400  0.0641 -0.3128 -0.3669
  353SOL    HW1 1058   0.762   0.904   2.402  4.5291  0.5675 -1.2652
  353SOL    HW2 1059   0.633   0.958   2.490 -0.2979  0.3797 -0.4355
  354SOL     OW 1060   0.981   1.916   2.796  0.3729  0.3483  0.0527
  354SOL    HW1 1061   1.011   1.868   2.716  0.0373  2.2865  1.5914
  354SOL    HW2 1062   0.880   1.923   2.794  0.1657  1.5249 -2.1364
  355SOL     OW 1063   1.847   2.838   1.056  0.1416 -0.4501 -0.1553
  355SOL    HW1 1064   1.923   2.797   1.004 -0.8754  1.2561 -1.4647
  355SOL    HW2 1065   1.876   2.938   1.081  1.6139  1.0387  2.5512
  356SOL     OW 1066   2.364   1.229   0.104 -0.3415  0.3515  0.4972
  356SOL    HW1 1067   2.438   1.212   0.039  0.5861  1.1311  1.5186
  356SOL    HW2 1068   2.359   1.327   0.125 -0.4750 -0.3689 -2.7523
  357SOL     OW 1069   2.969   0.089   2.169  0.5927  0.1160  0.0746
  357SOL    HW1 1070   2.880   0.041   2.151 -0.4263  1.1040  0.0712
  357SOL    HW2 1071   3.013   0.100   2.077  1.9707 -1.1058 -2.9406
  358SOL     OW 1072   0.183   1.492   0.688 -0.3386 -0.0288 -0.1886
  358SOL    HW1 1073   0.171   1.436   0.602  2.5903 -1.1083 -2.1049
  358SOL    HW2 1074   0.192   1.588   0.668 -0.6765 -0.5245 -1.4951
  359SOL     OW 1075   2.456   0.106   2.891  0.5147  0.3266 -0.9574
  359SOL    HW1 1076   2.444   0.147   2.799 -0.5106  0.0407  3.7013
  359SOL    HW2 1077   2.558   0.097   2.898  0.1948 -1.0679 -3.3490
  360SOL     OW 1078   1.500   0.932   1.293 -0.0395 -0.7576 -0.1654
  360SOL    HW1 1079   1.577   0.875   1.333 -0.6008  1.9285 -0.6513
  360SOL    HW2 1080   1.478   1.010   1.358  1.2678 -0.2772  0.9190
  361SOL     OW 1081   2.743   2.382   1.228  0.3657 -0.0345  0.2106
  361SOL    HW1 1082   2.742   2.400   1.327  2.9029  0.4850 -1.4104
  361SOL    HW2 1083   2.788   2.460   1.176 -0.2960 -1.7120  1.0491
  362SOL     OW 1084   1.228   0.424   0.944 -0.0542 -0.0093  0.4017
  362SOL    HW1 1085   1.158   0.382   0.879  0.6784 -0.3341 -0.3127
  362SOL    HW2 1086   1.184   0.491   1.007 -1.7848 -0.3399 -0.0055
  363SOL     OW 1087   1.761   1.824   0.463 -0.6941 -0.9559 -0.3025
  363SOL    HW1 1088   1.817   1.773   0.393  0.1216 -0.8012 -1.3071
  363SOL    HW2 1089   1.668   1.835   0.421 -3.3522  2.1239 -0.4023
  364SOL     OW 1090   0.623   0.606   1.407  0.5933 -0.0558  0.4204
  364SOL    HW1 1091   0.541   0.667   1.409  0.4192  0.5723 -0.2417
  364SOL    HW2 1092   0.688   0.636   1.335  0.5777 -0.1846  1.7385
  365SOL     OW 1093   0.324   0.052   0.987 -0.1599  0.0516  0.1818
  365SOL    HW1 1094   0.351   3.081   1.060  1.7063 -1.0330  1.4810
  365SOL    HW2 1095   0.376   0.140   1.007  1.1892 -0.8506  1.2738
  366SOL     OW 1096   2.898   1.428   0.065 -0.0552 -0.7347 -0.0148
  366SOL    HW1 1097   2.992   1.451   0.033  1.3200  0.2521 -0.5916
  366SOL    HW2 1098   2.828   1.496   0.031 -0.8163  1.2943 -3.6503
  367SOL     OW 1099   2.260   2.606   2.458 -0.3287 -0.7478  0.6134
  367SOL    HW1 1100   2.226   2.659   2.541 -1.1521 -1.2062  3.4321
  367SOL    HW2 1101   2.349   2.565   2.478 -2.3032 -2.1295 -0.3607
  368SOL     OW 1102   2.414   1.692   0.502  1.1054 -0.5406  0.0803
  368SOL    HW1 1103   2.455   1.707   0.592 -3.6331 -0.3521 -1.4905
  368SOL    HW2 1104   2.319   1.655   0.521  0.1402 -0.2935  0.1169
  369SOL     OW 1105   1.776   0.594   2.903  0.3562 -0.0314  0.0478
  369SOL    HW1 1106   1.876   0.613   2.909 -1.4464 -0.2682 -1.7160
  369SOL    HW2 1107   1.722   0.667   2.862  0.4971 -0.4875 -0.8274
  370SOL     OW 1108   0.457   0.283   1.069  0.1798  0.1361 -0.2577
  370SOL    HW1 1109   0.440   0.339   1.151  1.9776 -1.0581 -0.2062
  370SOL    HW2 1110   0.555   0.253   1.069 -2.3932 -1.6136 -0.3099
  371SOL     OW 1111   2.857   1.440   2.668 -0.3961 -0.1780 -0.3391
  371SOL    HW1 1112   2.931   1.492   2.714 -0.0141  0.2422  1.6047
  371SOL    HW2 1113   2.844   1.348   2.714 -0.8107 -1.1707 -1.7977
  372SOL     OW 1114   0.632   0.592   2.314 -0.3002  0.2435  0.1274
  372SOL    HW1 1115   0.677   0.505   2.285 -0.6437  1.4615  0.9716
  372SOL    HW2 1116   0.663   0.663   2.253 -0.9858 -0.1891  1.4532
  373SOL     OW 1117   0.472   0.081   3.014 -0.5945 -0.1969  0.8197
  373SOL    HW1 1118   0.398   0.065   2.943 -0.1838 -1.4043 -4.3321
  373SOL    HW2 1119   0.556   0.024   2.986  1.8002 -0.7639  0.4392
  374SOL     OW 1120   0.891   1.452   2.696 -0.2552 -0.6894 -0.3515
  374SOL    HW1 1121   0.983   1.496   2.695 -0.1301  0.2796 -1.2685
  374SOL    HW2 1122   0.820   1.514   2.655  0.1828  2.1640 -3.9753
  375SOL     OW 1123   0.818   0.392   1.966  0.3101  0.0284  0.4517
  375SOL    HW1 1124   0.882   0.416   1.892 -2.6157 -1.1079  1.2618
  375SOL    HW2 1125   0.869   0.328   2.025 -0.1302  0.3212 -0.9137
  376SOL     OW 1126   0.256   2.696   1.951  0.7459  0.3887  0.3573
  376SOL    HW1 1127   0.292   2.792   1.934 -0.8628  0.6262  0.4222
  376SOL    HW2 1128   0.321   2.623   1.935 -1.4440 -2.4714 -0.6726
  377SOL     OW 1129   2.732   2.407   2.876  0.2146 -0.0224 -0.4205
  377SOL    HW1 1130   2.655   2.454   2.834  3.5568 -0.7742  0.5383
  377SOL    HW2 1131   2.747   2.315   2.827  0.2915 -5.0426  1.4691
  378SOL     OW 1132   2.012   0.132   0.254 -0.1391 -0.2370 -0.0892
  378SOL    HW1 1133   2.001   0.041   0.300  2.7562  1.8169  3.5154
  378SOL    HW2 1134   2.018   0.114   0.156 -0.3711  0.6332  3.3476
  379SOL     OW 1135   1.722   0.735   0.306 -0.2069 -0.3363 -0.1839
  379SOL    HW1 1136   1.807   0.713   0.357  1.1231 -1.2644 -2.8469
  379SOL    HW2 1137   1.734   0.796   0.224 -1.3560  0.9894 -0.1930
  380SOL     OW 1138   2.645   1.982   1.769 -0.3483 -0.5515  0.2289
  380SOL    HW1 1139   2.701   2.006   1.689  0.3368 -1.7949  3.6976
  380SOL    HW2 1140   2.548   1.962   1.736 -0.9799 -1.8876  3.2226
  381SOL     OW 1141   2.620   1.459   2.097  0.3258 -0.0945  0.1271
  381SOL    HW1 1142   2.711   1.489   2.123  1.9224 -3.9799  0.8003
  381SOL    HW2 1143   2.633   1.370   2.044  2.1448 -0.5595  0.0541
  382SOL     OW 1144   2.846   2.221   2.712 -0.2026  0.7679 -0.0392
  382SOL    HW1 1145   2.817   2.125   2.688 -0.3179 -0.1782  1.2369
  382SOL    HW2 1146   2.938   2.219   2.741 -0.0397  0.6340 -2.4032
  383SOL     OW 1147   1.119   0.997   2.700  0.7680 -0.0657 -0.3904
  383SOL    HW1 1148   1.105   0.900   2.682  1.1933 -1.0236  0.7934
  383SOL    HW2 1149   1.096   1.013   2.799 -0.2114  3.5147 -2.3570
  384SOL     OW 1150   1.805   1.949   2.228 -0.0194 -0.5054 -0.5670
  384SOL    HW1 1151   1.712   1.990   2.236  2.5574  0.7555  0.8069
  384SOL    HW2 1152   1.880   2.023   2.231  3.8359  3.6343 -3.1834
  385SOL     OW 1153   2.083   2.606   0.380 -0.1375  0.6382  0.1674
  385SOL    HW1 1154   1.997   2.595   0.446 -0.9538  2.5180  0.4223
  385SOL    HW2 1155   2.166   2.583   0.438  1.5723 -1.8190  3.1112
  386SOL     OW 1156   1.914   1.353   0.420 -0.2821 -0.4279 -0.1665
  386SOL    HW1 1157   1.887   1.260   0.387  0.4443 -0.4028  0.6909
  386SOL    HW2 1158   1.883   1.424   0.358  3.8578  0.0903  0.9042
  387SOL     OW 1159   2.593   1.714   1.173 -0.2414 -0.1556 -0.3834
  387SOL    HW1 1160   2.580   1.743   1.276  1.2729  0.6474  3.3756
  387SOL    HW2 1161   2.690   1.723   1.142 -2.4969 -2.3424  1.1997
  388SOL     OW 1162   0.355   1.219   1.605  0.4225  0.2716  0.2630
  388SOL    HW1 1163   0.406   1.247   1.688  0.2066 -1.8874  0.5511
  388SOL    HW2 1164   0.251   1.214   1.617  0.0568 -0.8813  0.6001
  389SOL     OW 1165   2.179   0.978   2.866  0.1683  0.2049  0.4215
  389SOL    HW1 1166   2.128   0.932   2.791 -0.9572 -3.1345 -1.6293
  389SOL    HW2 1167   2.238   1.051   2.834  0.1238  1.7430 -0.4841
  390SOL     OW 1168   0.745   1.347   2.896 -0.2140  0.5823  0.0561
  390SOL    HW1 1169   0.784   1.380   2.810  0.5634 -1.5059 -2.3536
  390SOL    HW2 1170   0.812   1.363   2.973  2.0604  0.2821 -1.4944
  391SOL     OW 1171   0.866   1.942   0.166  0.0567 -0.2104 -0.3628
  391SOL    HW1 1172   0.920   1.953   0.076 -1.2576  0.1204  0.3450
  391SOL    HW2 1173   0.770   1.964   0.159 -0.4054 -1.3688  0.9615
  392SOL     OW 1174   2.780   2.620   2.346 -0.2266 -0.4975  0.0803
  392SOL    HW1 1175   2.786   2.546   2.412  0.9637  2.0892 -0.2122
  392SOL    HW2 1176   2.848   2.602   2.271 -1.1110 -2.7959  1.1366
  393SOL     OW 1177   1.313   2.192   0.243  0.3116 -0.3620 -0.2358
  393SOL    HW1 1178   1.361   2.178   0.334 -1.6601  0.9511 -0.2183
  393SOL    HW2 1179   1.289   2.102   0.201  1.2191 -0.6393 -0.4147
  394SOL     OW 1180   0.536   0.138   2.670  0.4027  0.5360  0.7524
  394SOL    HW1 1181   0.531   0.242   2.690  0.3399 -0.0395  2.2405
  394SOL    HW2 1182   0.461   0.087   2.715 -0.3040  0.2551  3.8608
  395SOL     OW 1183   0.564   1.418   1.116  0.2149  0.3117  0.0747
  395SOL    HW1 1184   0.521   1.383   1.034  0.9206  2.0558 -1.2879
  395SOL    HW2 1185   0.515   1.498   1.154  1.7647  1.4148 -1.2483
  396SOL     OW 1186   2.111   1.421   2.964 -0.2885 -0.7329  0.1480
  396SOL    HW1 1187   2.109   1.332   3.003 -0.8419  2.1987  1.6252
  396SOL    HW2 1188   2.103   1.417   2.861 -0.6352 -1.0877 -1.3197
  397SOL     OW 1189   0.298   0.609   2.862  0.5327  0.1955 -0.0806
  397SOL    HW1 1190   0.204   0.578   2.871 -0.4515 -0.9740 -3.1490
  397SOL    HW2 1191   0.344   0.622   2.955  1.9999 -1.7209  2.0987
  398SOL     OW 1192   1.006   2.645   0.460 -0.1715  0.3493 -0.0694
  398SOL    HW1 1193   1.058   2.585   0.391 -0.5906  0.6866  0.1554
  398SOL    HW2 1194   0.910   2.613   0.467  1.0678 -1.1111 -0.0364
  399SOL     OW 1195   1.909   2.380   2.398 -0.2805 -0.4897  0.0316
  399SOL    HW1 1196   1.875   2.436   2.324 -1.6723  2.9942 -2.8727
  399SOL    HW2 1197   1.963   2.296   2.356  0.3292 -0.4989 -0.1379
  400SOL     OW 1198   2.467   1.485   1.485  0.2750 -0.0357  0.4297
  400SOL    HW1 1199   2.364   1.488   1.470 -1.6070 -0.5294 -1.5500
  400SOL    HW2 1200   2.491   1.455   1.579  2.7897 -0.2265 -1.7286
  401SOL     OW 1201   1.633   1.043   0.935  0.3358 -0.0628  0.3790
  401SOL    HW1 1202   1.578   0.967   0.896  2.0946 -0.4082 -2.1751
  401SOL    HW2 1203   1.572   1.110   0.981 -3.1204  1.9782  0.1780
  402SOL     OW 1204   0.221   2.857   2.494 -0.3796  0.0340  0.3442
  402SOL    HW1 1205   0.323   2.845   2.484 -1.8326 -0.7282 -1.2556
  402SOL    HW2 1206   0.189   2.831   2.588 -0.3836  0.6824  1.6096
  403SOL     OW 1207   2.756   1.652   1.621 -0.0192  0.8154  0.2716
  403SOL    HW1 1208   2.737   1.551   1.635 -1.4744  0.1528  1.9648
  403SOL    HW2 1209   2.686   1.698   1.568  0.2588 -0.2446  1.2537
  404SOL     OW 1210   2.375   1.943   1.673 -0.0723  0.5006  0.0434
  404SOL    HW1 1211   2.293   1.961   1.726  0.8326  0.0866  0.4872
  404SOL    HW2 1212   2.352   1.916   1.577 -0.7196 -0.7886 -0.1133
  405SOL     OW 1213   2.182   0.505   2.411 -0.0668 -0.9584 -1.3013
  405SOL    HW1 1214   2.131   0.427   2.372  2.1540 -0.2362  0.1167
  405SOL    HW2 1215   2.219   0.488   2.507  2.6148 -1.1813  0.3312
  406SOL     OW 1216   0.716   1.294   2.392 -0.1870  0.1265 -0.3389
  406SOL    HW1 1217   0.775   1.242   2.461  0.3156 -0.9643  0.6039
  406SOL    HW2 1218   0.636   1.338   2.435 -0.6875  0.3673  0.0015
  407SOL     OW 1219   1.921   2.142   0.780  0.6413 -0.4378  0.3964
  407SOL    HW1 1220   1.892   2.133   0.684 -0.1051 -1.5392  5.2973
  407SOL    HW2 1221   2.011   2.188   0.790 -2.4314 -1.0712  0.9359
  408SOL     OW 1222   0.269   3.077   0.737 -0.2578  0.2603 -0.1358
  408SOL    HW1 1223   0.306   0.004   0.831  2.3922 -0.2422  0.3208
  408SOL    HW2 1224   0.272   2.977   0.732 -1.9748  0.9874 -1.3775
  409SOL     OW 1225   1.922   1.466   0.679  0.6084  0.2580  0.0313
  409SOL    HW1 1226   1.926   1.414   0.768 -0.5563  0.3656  1.3184
  409SOL    HW2 1227   1.946   1.410   0.598  2.2547 -0.8492  1.3052
  410SOL     OW 1228   2.016   2.372   0.005  0.2254 -0.4752  0.5370
  410SOL    HW1 1229   2.073   2.286   3.095  1.9551  2.6138  3.6393
  410SOL    HW2 1230   1.999   2.391   0.105  1.5665  3.1834  4.3602
  411SOL     OW 1231   0.110   2.974   0.462  0.0177  0.1254 -0.0612
  411SOL    HW1 1232   0.102   3.061   0.518  0.0166  1.9711  2.0978
  411SOL    HW2 1233   0.021   2.927   0.447 -0.4803 -3.0122  2.5141
  412SOL     OW 1234   1.533   2.579   0.872 -0.0700 -0.4752  0.2859
  412SOL    HW1 1235   1.443   2.577   0.827  2.5761 -1.0555 -1.3036
  412SOL    HW2 1236   1.571   2.676   0.884 -1.4560  0.5512 -0.9261
  413SOL     OW 1237   1.822   0.152   2.617  0.2833  0.3279 -0.2284
  413SOL    HW1 1238   1.816   0.146   2.516 -1.3280  1.2934  2.3761
  413SOL    HW2 1239   1.764   0.077   2.662  0.6916  1.5232  0.2747
  414SOL     OW 1240   0.301   0.744   0.409 -0.2527  0.2464 -0.1888
  414SOL    HW1 1241   0.266   0.837   0.435  2.1211 -0.3998 -0.0053
  414SOL    HW2 1242   0.379   0.753   0.348 -1.1572  0.3553 -2.6017
  415SOL     OW 1243   0.147   1.182   1.192  0.1527 -0.0279 -0.2092
  415SOL    HW1 1244   0.211   1.108   1.217 -0.6105  1.0039  0.1430
  415SOL    HW2 1245   0.060   1.146   1.155 -0.4477 -1.6283 -0.6573
  416SOL     OW 1246   0.197   0.346   3.020  0.4705 -0.2393  0.3134
  416SOL    HW1 1247   0.292   0.377   3.039 -3.4250  0.1659  0.7471
  416SOL    HW2 1248   0.153   0.414   2.960 -2.6552 -1.5656  0.9275
  417SOL     OW 1249   2.294   0.177   0.761  0.2645  0.1634  0.1225
  417SOL    HW1 1250   2.320   0.272   0.759  2.1587 -1.0675 -0.1984
  417SOL    HW2 1251   2.201   0.166   0.810  1.1488 -2.7070  4.2720
  418SOL     OW 1252   0.646   0.604   2.581  0.0014  0.2951  0.0459
  418SOL    HW1 1253   0.695   0.687   2.613  1.5234 -0.2848  0.7001
  418SOL    HW2 1254   0.642   0.596   2.479 -1.2488  1.8032  1.0928
  419SOL     OW 1255   0.453   0.845   0.643 -0.4112 -0.1073 -0.3250
  419SOL    HW1 1256   0.414   0.817   0.557  2.0777  1.2778  0.6750
  419SOL    HW2 1257   0.421   0.787   0.721 -0.7249 -1.8073 -0.2566
  420SOL     OW 1258   2.156   1.707   1.258  0.0825 -0.2395 -0.6372
  420SOL    HW1 1259   2.161   1.807   1.257  0.3501 -1.0853 -1.5568
  420SOL    HW2 1260   2.233   1.667   1.204 -1.8931 -1.6510 -1.4905
  421SOL     OW 1261   1.049   1.704   2.619  0.4429 -0.0831  0.0519
  421SOL    HW1 1262   1.117   1.668   2.555 -0.7352 -0.8647 -0.3293
  421SOL    HW2 1263   0.951   1.713   2.584 -1.2732 -3.8880  3.2929
  422SOL     OW 1264   2.556   0.630   3.081  0.5677  0.0734  0.1865
  422SOL    HW1 1265   2.509   0.601   0.071 -1.5116  1.6667  2.2835
  422SOL    HW2 1266   2.653   0.625   3.089 -2.0703  2.4375  0.7492
  423SOL     OW 1267   1.841   1.615   0.228  0.1077  0.4158 -0.3372
  423SOL    HW1 1268   1.836   1.685   0.151 -1.7468 -0.6350  1.0983
  423SOL    HW2 1269   1.757   1.554   0.228 -1.5588 -0.5100  2.5628
  424SOL     OW 1270   0.679   1.367   1.538 -0.2887 -0.3013 -0.0029
  424SOL    HW1 1271   0.629   1.454   1.563 -0.3913  0.1910  1.1779
  424SOL    HW2 1272   0.662   1.300   1.607  0.9995  0.4013 -1.3250
  425SOL     OW 1273   2.693   2.896   2.377  0.0493 -0.1821  0.2715
  425SOL    HW1 1274   2.592   2.898   2.364 -0.6793  0.7550  1.2448
  425SOL    HW2 1275   2.741   2.815   2.340 -1.8244  5.1997  0.1711
  426SOL     OW 1276   1.884   2.573   0.543  0.4260  0.3050  0.3781
  426SOL    HW1 1277   1.816   2.647   0.516  2.3421 -1.5952 -0.1946
  426SOL    HW2 1278   1.859   2.534   0.634 -1.8097  0.1549  1.0103
  427SOL     OW 1279   0.501   0.399   2.715  0.4376  0.1505 -0.3454
  427SOL    HW1 1280   0.540   0.477   2.662  0.9408  0.0233 -2.3421
  427SOL    HW2 1281   0.492   0.415   2.816 -0.8719 -0.4930  0.2154
  428SOL     OW 1282   2.294   1.207   2.782 -0.0153 -0.0923  0.0472
  428SOL    HW1 1283   2.362   1.237   2.712  0.3655 -0.1187 -1.1863
  428SOL    HW2 1284   2.215   1.275   2.794 -3.2241  1.6391 -0.2992
  429SOL     OW 1285   2.946   0.161   0.469  0.0536  0.3771 -0.0902
  429SOL    HW1 1286   2.899   0.089   0.416  0.0858  1.0513  0.3547
  429SOL    HW2 1287   3.038   0.132   0.507  0.9811 -2.2701  2.8628
  430SOL     OW 1288   1.038   2.933   1.917  0.2763 -0.1902  0.1513
  430SOL    HW1 1289   1.037   2.843   1.964  0.3940 -2.6958 -0.1391
  430SOL    HW2 1290   0.974   2.928   1.841  0.0262 -3.1044  2.2373
  431SOL     OW 1291   0.065   1.905   1.277 -0.4207 -0.0767 -0.2663
  431SOL    HW1 1292   0.098   1.822   1.232 -0.5370 -1.9657  2.5856
  431SOL    HW2 1293   0.024   1.978   1.212 -2.1396  2.6562 -3.5506
  432SOL     OW 1294   2.382   2.617   2.057  0.4778  0.1097  0.5427
  432SOL    HW1 1295   2.455   2.550   2.063 -1.2892  2.9974  2.9345
  432SOL    HW2 1296   2.367   2.660   1.967 -1.2827 -0.8073  0.2363
  433SOL     OW 1297   1.324   1.952   0.109 -0.0144  0.5894 -0.1613
  433SOL    HW1 1298   1.308   1.919   0.014  0.0640  0.3227 -3.4652
  433SOL    HW2 1299   1.268   1.895   0.172  0.6437  1.1714  0.8377
  434SOL     OW 1300   0.014   2.314   2.681 -0.1396  0.0556 -0.1867
  434SOL    HW1 1301   0.029   2.270   2.588  1.4388 -2.6018 -3.1563
  434SOL    HW2 1302   0.089   2.385   2.695  0.0202 -0.0231 -1.2459
  435SOL     OW 1303   3.089   1.072   0.579 -0.5958  0.0740  0.0721
  435SOL    HW1 1304   3.037   1.001   0.627 -1.1912  1.1683  2.6699
  435SOL    HW2 1305   3.033   1.156   0.572 -0.9170 -1.3085 -1.6044
  436SOL     OW 1306   0.600   2.758   2.036 -0.0489 -0.2563  0.1411
  436SOL    HW1 1307   0.680   2.817   2.072  0.0943 -0.4165 -2.4368
  436SOL    HW2 1308   0.511   2.810   2.023 -1.0485 -1.2623 -2.0286
  437SOL     OW 1309   1.259   2.404   1.153  0.3220 -0.0663 -0.6143
  437SOL    HW1 1310   1.344   2.386   1.099 -1.7427  1.2452  0.3854
  437SOL    HW2 1311   1.195   2.325   1.132 -0.7901 -1.8765  3.5939
  438SOL     OW 1312   0.172   2.284   0.780  0.0367  0.3067 -0.1616
  438SOL    HW1 1313   0.200   2.248   0.691 -0.2718 -0.7445  2.5350
  438SOL    HW2 1314   0.155   2.215   0.852 -0.7748  0.8242  0.4319
  439SOL     OW 1315   0.813   2.704   1.596 -0.3273 -0.5124 -0.2221
  439SOL    HW1 1316   0.906   2.682   1.555  1.2595 -2.1313 -0.8638
  439SOL    HW2 1317   0.743   2.636   1.566  0.2300 -2.4925 -2.0299
  440SOL     OW 1318   2.058   2.799   2.270 -0.0375 -0.1224  0.2055
  440SOL    HW1 1319   2.055   2.757   2.174  0.0422  2.0382  0.4043
  440SOL    HW2 1320   2.119   2.750   2.332 -0.6695 -1.3771 -0.2368
  441SOL     OW 1321   0.133   0.583   2.001 -0.1891 -0.5162 -0.1490
  441SOL    HW1 1322   0.164   0.662   1.940 -0.0753  0.2889  0.9763
  441SOL    HW2 1323   0.076   0.629   2.071 -0.1509  1.1883 -2.1196
  442SOL     OW 1324   1.875   2.396   0.255  0.0397  0.1533  0.3143
  442SOL    HW1 1325   1.934   2.477   0.272  1.9892 -1.9163  0.3955
  442SOL    HW2 1326   1.779   2.433   0.243  1.6188 -2.2912  1.8821
  443SOL     OW 1327   0.004   0.871   2.798  0.1201  0.8695 -0.2110
  443SOL    HW1 1328   0.079   0.921   2.853  0.8932  0.6240 -0.7011
  443SOL    HW2 1329   3.049   0.943   2.748  0.5629 -3.8637  0.0123
  444SOL     OW 1330   1.748   1.148   2.203 -0.5880  0.7600  0.0445
  444SOL    HW1 1331   1.724   1.062   2.161  0.4509 -3.8050  0.0543
  444SOL    HW2 1332   1.746   1.226   2.141 -0.6697 -0.3558  1.1707
  445SOL     OW 1333   0.195   2.740   1.321 -0.3041  0.0858  0.2066
  445SOL    HW1 1334   0.097   2.701   1.330 -4.5325 -1.1745 -2.5875
  445SOL    HW2 1335   0.232   2.767   1.416 -0.1318  2.6132  4.6850
  446SOL     OW 1336   2.853   1.722   1.075  0.1418 -0.5113 -0.2394
  446SOL    HW1 1337   2.820   1.635   1.108  0.7070  0.8152  0.7884
  446SOL    HW2 1338   2.909   1.722   0.989 -1.8006 -1.1460 -2.3218
  447SOL     OW 1339   0.186   0.999   0.430 -0.2835  0.6150  0.3169
  447SOL    HW1 1340   0.261   1.072   0.430  0.7170 -2.5282 -0.4208
  447SOL    HW2 1341   0.123   1.015   0.508 -1.2627  0.5896 -1.2576
  448SOL     OW 1342   1.075   2.223   2.103  0.2373 -0.1643 -0.5454
  448SOL    HW1 1343   1.053   2.309   2.059  0.6782  1.7911  1.2200
  448SOL    HW2 1344   1.171   2.230   2.145  3.0934 -2.9713  1.9502
  449SOL     OW 1345   1.144   1.498   0.245 -0.1795  0.1660  0.3301
  449SOL    HW1 1346   1.181   1.497   0.339  1.6364  0.6545 -1.1641
  449SOL    HW2 1347   1.045   1.474   0.242 -2.1339  1.7437  0.0593
  450SOL     OW 1348   2.858   2.802   1.953 -0.0029  0.1168  0.2837
  450SOL    HW1 1349   2.916   2.811   2.033 -2.9144  1.0754 -1.8716
  450SOL    HW2 1350   2.786   2.879   1.949 -2.8817  0.6137 -1.5352
  451SOL     OW 1351   2.229   0.744   2.510  0.0888 -0.4403 -0.3390
  451SOL    HW1 1352   2.316   0.710   2.545 -1.9485  0.8566  3.0748
  451SOL    HW2 1353   2.187   0.672   2.455  0.7193  1.3842 -0.1265
  452SOL     OW 1354   1.893   0.536   0.728 -0.2112 -0.5616 -0.1837
  452SOL    HW1 1355   1.919   0.442   0.702 -0.9711  0.7232 -3.7242
  452SOL    HW2 1356   1.964   0.567   0.796  0.7301 -1.5920 -0.4957
  453SOL     OW 1357   1.950   0.841   1.518  0.2341  0.3726  0.0581
  453SOL    HW1 1358   1.982   0.847   1.613  3.9238 -1.5358 -0.9045
  453SOL    HW2 1359   2.025   0.862   1.452 -1.0930 -1.0794  0.9824
  454SOL     OW 1360   3.018   1.334   0.299  0.1444  0.1340 -0.1824
  454SOL    HW1 1361   2.955   1.325   0.379 -0.3692  1.2679  1.0274
  454SOL    HW2 1362   2.973   1.378   0.219 -1.3152 -1.4200  1.6312
  455SOL     OW 1363   2.551   2.869   1.507 -0.1617  0.1522  0.6156
  455SOL    HW1 1364   2.596   2.951   1.470 -0.3878 -3.1754  1.1644
  455SOL    HW2 1365   2.481   2.835   1.441  1.6571 -0.4057 -1.0856
  456SOL     OW 1366   0.154   3.068   1.692  0.3799  0.7037 -0.0143
  456SOL    HW1 1367   0.232   2.999   1.699 -0.1545 -1.1992  1.1753
  456SOL    HW2 1368   0.158   0.034   1.765 -2.1798  2.4628 -1.3150
  457SOL     OW 1369   1.374   2.964   0.457 -0.4544  0.7760  0.3122
  457SOL    HW1 1370   1.415   3.025   0.385 -1.1245 -2.0583  3.5706
  457SOL    HW2 1371   1.337   3.018   0.531 -2.8657  1.5685 -0.7570
  458SOL     OW 1372   2.606   2.848   0.957  0.0065 -0.5496  0.0364
  458SOL    HW1 1373   2.528   2.781   0.968 -0.6429  0.0734 -0.0615
  458SOL    HW2 1374   2.570   2.940   0.931  1.2722 -2.5863  0.4752
  459SOL     OW 1375   2.396   0.469   2.920 -0.0240 -0.7911 -0.2521
  459SOL    HW1 1376   2.432   0.550   2.971  1.8251 -0.0820 -0.3576
  459SOL    HW2 1377   2.440   0.382   2.954  1.1399 -2.3069 -1.9824
  460SOL     OW 1378   2.298   2.720   2.902 -0.5820  0.2089  0.0116
  460SOL    HW1 1379   2.312   2.822   2.892 -2.6591 -0.9977 -1.6266
  460SOL    HW2 1380   2.372   2.658   2.870  3.3245 -2.5245 -1.6033
  461SOL     OW 1381   0.790   1.688   0.321  0.1432 -0.3065 -0.2681
  461SOL    HW1 1382   0.776   1.708   0.422 -0.4736 -0.1631  2.9421
  461SOL    HW2 1383   0.826   1.772   0.274  1.7958  1.0340 -1.2427
  462SOL     OW 1384   2.129   2.022   0.971 -0.2037 -0.0992  0.1000
  462SOL    HW1 1385   2.193   1.983   0.904 -2.0632 -1.7274  0.4843
  462SOL    HW2 1386   2.113   2.120   0.946 -0.0736 -1.2429 -1.8997
  463SOL     OW 1387   2.756   0.985   0.686 -0.6115  0.2053  0.4211
  463SOL    HW1 1388   2.815   0.900   0.685  0.8964 -1.5805  0.6901
  463SOL    HW2 1389   2.676   0.968   0.744  1.8950 -0.2874 -0.1292
  464SOL     OW 1390   0.939   2.974   1.029  0.1425  0.4601 -0.4394
  464SOL    HW1 1391   0.924   3.042   0.958  0.1876 -3.0465  1.9376
  464SOL    HW2 1392   0.897   2.884   0.999 -0.2706  1.0367 -0.8853
  465SOL     OW 1393   2.361   1.469   0.220  0.3478  0.4657 -0.1201
  465SOL    HW1 1394   2.422   1.545   0.231 -2.5427  0.2282  1.5711
  465SOL    HW2 1395   2.264   1.495   0.249 -3.3766  0.1706  2.7691
  466SOL     OW 1396   2.038   0.265   2.769 -0.2850  0.3763  0.1474
  466SOL    HW1 1397   2.036   0.302   2.865 -1.2829  0.2366 -1.5278
  466SOL    HW2 1398   1.943   0.248   2.732  0.0884  0.0738  2.9575
  467SOL     OW 1399   0.710   0.768   1.735 -0.0476 -0.3833  0.1631
  467SOL    HW1 1400   0.786   0.738   1.672 -1.2382 -0.7028  2.5023
  467SOL    HW2 1401   0.679   0.686   1.790  0.8436  0.7173  0.1727
  468SOL     OW 1402   0.199   1.047   2.882  0.3773  0.0978  0.7628
  468SOL    HW1 1403   0.191   1.097   2.970  0.7312  2.5860  1.5623
  468SOL    HW2 1404   0.289   1.004   2.871 -0.5554  2.3822  0.0441
  469SOL     OW 1405   0.460   2.139   0.461  0.1955  0.2097  0.3309
  469SOL    HW1 1406   0.460   2.138   0.359 -2.4401 -0.6945 -2.1258
  469SOL    HW2 1407   0.521   2.212   0.498 -0.1183 -1.4854 -0.1359
  470SOL     OW 1408   2.582   1.491   2.529 -0.4707  0.6374  0.1886
  470SOL    HW1 1409   2.678   1.452   2.515  0.1946 -1.1236 -1.1281
  470SOL    HW2 1410   2.535   1.504   2.437 -1.4386  0.4797 -1.6003
  471SOL     OW 1411   2.728   1.096   2.284 -0.2616  0.1978 -0.5802
  471SOL    HW1 1412   2.683   1.135   2.370 -1.0287 -2.4488 -1.9296
  471SOL    HW2 1413   2.663   1.043   2.227 -0.1532 -2.2195  1.3289
  472SOL     OW 1414   0.577   2.817   0.639  0.3379  0.0968 -0.1316
  472SOL    HW1 1415   0.625   2.737   0.600 -0.4722  3.4265 -2.2515
  472SOL    HW2 1416   0.495   2.841   0.584 -0.7484 -0.2427  1.3941
  473SOL     OW 1417   0.710   3.035   0.162  0.0331  0.0840 -0.5577
  473SOL    HW1 1418   0.658   3.082   0.234  3.1182  3.3039 -2.3156
  473SOL    HW2 1419   0.665   3.036   0.073  2.7454  1.1521  0.0260
  474SOL     OW 1420   1.834   0.041   1.939  0.6436 -0.5871 -0.3163
  474SOL    HW1 1421   1.808   3.091   1.852 -0.3170  0.7960 -2.6852
  474SOL    HW2 1422   1.766   0.113   1.963  0.3355 -0.1420 -0.0453
  475SOL     OW 1423   1.166   2.462   0.269 -0.3636  0.6758 -0.4790
  475SOL    HW1 1424   1.096   2.477   0.197 -1.7847 -2.5438  3.2148
  475SOL    HW2 1425   1.199   2.366   0.269  0.8450 -3.9612 -0.8695
  476SOL     OW 1426   0.671   1.005   0.654 -0.3140  0.3636  0.0453
  476SOL    HW1 1427   0.595   0.939   0.645  2.7553 -0.4734  0.9696
  476SOL    HW2 1428   0.625   1.100   0.648 -2.7552  3.6574  1.3603
  477SOL     OW 1429   1.599   2.504   1.359 -0.4034  0.2975  0.4955
  477SOL    HW1 1430   1.520   2.439   1.346 -4.6602 -0.1751 -0.6312
  477SOL    HW2 1431   1.630   2.552   1.274  1.7881 -1.1782 -0.9169
  478SOL     OW 1432   0.396   1.723   2.468 -0.4562 -0.0361  0.1725
  478SOL    HW1 1433   0.451   1.673   2.400  3.5074  0.6522 -0.5594
  478SOL    HW2 1434   0.389   1.671   2.555 -1.3674  0.9969  2.0236
  479SOL     OW 1435   2.930   0.059   1.235  0.3110  0.0732 -0.3086
  479SOL    HW1 1436   3.000   0.129   1.198  0.9777  1.8131  1.5676
  479SOL    HW2 1437   2.966   3.085   1.302  0.1789  0.2196 -1.3742
  480SOL     OW 1438   2.957   2.805   0.459  0.4085 -0.3470 -0.2426
  480SOL    HW1 1439   3.000   2.729   0.512 -0.4166 -1.7876  0.2893
  480SOL    HW2 1440   2.870   2.782   0.411  0.8650  2.9476 -0.4688
  481SOL     OW 1441   2.767   2.667   1.123 -0.3972 -0.3953 -0.0136
  481SOL    HW1 1442   2.716   2.742   1.081  2.1582 -1.7577  2.2352
  481SOL    HW2 1443   2.733   2.648   1.216 -1.3621 -0.3863 -0.2058
  482SOL     OW 1444   1.253   2.285   2.545  0.0403 -0.2756  0.1009
  482SOL    HW1 1445   1.286   2.242   2.459 -0.4866 -1.3759  1.0584
  482SOL    HW2 1446   1.273   2.221   2.625 -1.8724 -1.2406  1.5818
  483SOL     OW 1447   0.438   1.977   2.565  0.3988  0.0334 -0.0911
  483SOL    HW1 1448   0.416   1.883   2.537  3.1986 -0.5323  1.0042
  483SOL    HW2 1449   0.427   2.053   2.498  0.2504 -0.5524  0.0148
  484SOL     OW 1450   1.034   1.341   1.940 -0.4049  0.5036 -0.6074
  484SOL    HW1 1451   1.097   1.291   1.880  0.5857  0.0658 -0.6604
  484SOL    HW2 1452   1.045   1.298   2.035  2.6747  2.0637 -1.6314
  485SOL     OW 1453   2.523   0.336   0.564 -0.0325 -0.1028  0.0105
  485SOL    HW1 1454   2.533   0.231   0.550  0.2249 -2.3581 -2.3293
  485SOL    HW2 1455   2.426   0.364   0.554  0.6244  0.1211 -1.7517
  486SOL     OW 1456   1.612   2.852   0.912 -0.0377 -0.6352 -0.3056
  486SOL    HW1 1457   1.707   2.860   0.951  2.1564  1.8337 -0.0686
  486SOL    HW2 1458   1.606   2.925   0.841 -0.8336 -2.8348 -0.7875
  487SOL     OW 1459   0.565   2.114   0.839  0.1608 -0.4587 -0.4990
  487SOL    HW1 1460   0.655   2.157   0.851 -2.3100 -2.5954  0.4758
  487SOL    HW2 1461   0.497   2.190   0.828  1.4214 -1.0351 -2.3651
  488SOL     OW 1462   2.628   1.347   0.194 -0.1223  0.1283  0.5680
  488SOL    HW1 1463   2.680   1.382   0.115 -1.7682 -1.0459 -0.3112
  488SOL    HW2 1464   2.536   1.391   0.204 -1.7000  2.7665  1.1889
  489SOL     OW 1465   1.354   3.066   1.070 -0.5637  0.1895 -0.0888
  489SOL    HW1 1466   1.369   2.966   1.087 -0.8961  0.2901 -1.5858
  489SOL    HW2 1467   1.266   0.002   1.102 -1.9202  0.5009  1.3663
  490SOL     OW 1468   1.099   0.940   0.079  0.3457  0.0166 -0.4905
  490SOL    HW1 1469   1.171   0.864   0.095  1.6170  0.4502  1.0575
  490SOL    HW2 1470   1.125   1.019   0.138  0.9006 -1.2916 -0.8880
  491SOL     OW 1471   0.564   2.385   0.618  0.0650  0.4942  0.0852
  491SOL    HW1 1472   0.491   2.378   0.695 -1.3066 -1.1412  3.1162
  491SOL    HW2 1473   0.658   2.379   0.662 -1.2747 -1.1603  0.6015
  492SOL     OW 1474   1.419   1.294   2.154  0.2340 -0.0997  0.2371
  492SOL    HW1 1475   1.478   1.365   2.206 -0.0398  1.4412  0.0826
  492SOL    HW2 1476   1.348   1.256   2.222 -0.2032  1.1550  5.0658
  493SOL     OW 1477   3.066   2.451   0.762 -0.0302 -0.0976 -0.4690
  493SOL    HW1 1478   0.039   2.384   0.783  0.7187  1.0825  0.1492
  493SOL    HW2 1479   3.048   2.511   0.843 -0.2954  0.2313 -0.6635
  494SOL     OW 1480   2.572   2.009   2.895 -0.3037 -0.4595 -0.1042
  494SOL    HW1 1481   2.643   1.974   2.835 -0.9987 -3.2357 -0.9773
  494SOL    HW2 1482   2.601   2.018   2.993  1.1611  2.4543  2.0856
  495SOL     OW 1483   2.561   1.678   2.714  0.0847 -0.8208 -0.1057
  495SOL    HW1 1484   2.645   1.713   2.756  0.7192  0.0037 -0.4006
  495SOL    HW2 1485   2.574   1.593   2.653 -0.6172  0.3832  0.2179
  496SOL     OW 1486   2.558   0.234   1.494 -0.4786 -0.1759 -0.4167
  496SOL    HW1 1487   2.575   0.336   1.496 -3.5019  0.9988 -0.5039
  496SOL    HW2 1488   2.599   0.195   1.411 -0.2553 -0.9713 -1.7357
  497SOL     OW 1489   2.605   0.964   0.468  0.6594 -0.2919 -0.0203
  497SOL    HW1 1490   2.661   0.986   0.551  0.5754  1.4181 -0.6964
  497SOL    HW2 1491   2.639   0.878   0.423  0.0150 -0.3086  0.1678
  498SOL     OW 1492   0.079   2.238   2.431  0.1214  0.2824 -0.2220
  498SOL    HW1 1493   0.081   2.335   2.394 -1.3387  3.2003 -1.8627
  498SOL    HW2 1494   0.008   2.182   2.382  1.3607  0.7363 -0.4772
  499SOL     OW 1495   0.961   2.003   0.437  0.0126 -0.4641  0.1446
  499SOL    HW1 1496   0.889   1.956   0.491 -3.1955 -1.5294 -1.5835
  499SOL    HW2 1497   0.942   1.995   0.337  0.0448  0.3268  0.0553
  500SOL     OW 1498   1.019   3.004   2.868 -0.2601  0.0085  0.0005
  500SOL    HW1 1499   0.989   3.079   2.930  0.2702 -0.4925 -0.3079
  500SOL    HW2 1500   0.972   2.915   2.896 -3.0357 -1.0306  2.9251
  501SOL     OW 1501   1.522   0.093   1.442  0.1170 -0.3438  0.7191
  501SOL    HW1 1502   1.445   0.109   1.376 -0.4312  1.9028 -0.5713
  501SOL    HW2 1503   1.482   0.065   1.531 -0.1410 -1.7314 -1.1877
  502SOL     OW 1504   2.950   0.384   2.216 -0.0819 -0.0425 -0.3514
  502SOL    HW1 1505   3.028   0.413   2.281  0.1104  0.3650  1.9206
  502SOL    HW2 1506   2.968   0.298   2.164 -3.4645 -0.8382 -2.1137
  503SOL     OW 1507   2.391   2.179   2.452  0.3455  0.7052  0.3006
  503SOL    HW1 1508   2.359   2.182   2.360 -2.3603  2.9552  2.3432
  503SOL    HW2 1509   2.312   2.192   2.520  1.5429  1.9370 -0.5133
  504SOL     OW 1510   1.378   0.485   1.625 -0.5724 -0.2019  0.2245
  504SOL    HW1 1511   1.463   0.443   1.590 -2.4190 -1.3205 -0.5570
  504SOL    HW2 1512   1.366   0.468   1.725  0.7024  1.3097  2.1447
  505SOL     OW 1513   0.212   0.784   1.804  0.1088 -0.1525  0.8566
  505SOL    HW1 1514   0.173   0.865   1.851 -1.0189  0.5801 -1.3271
  505SOL    HW2 1515   0.310   0.802   1.782 -1.5367 -3.4845  0.4897
  506SOL     OW 1516   0.452   1.058   2.261 -0.2197 -0.1836  0.4059
  506SOL    HW1 1517   0.549   1.047   2.294  0.6562  0.2043 -1.0288
  506SOL    HW2 1518   0.396   1.031   2.342 -2.1936  1.0374  0.7756
  507SOL     OW 1519   0.171   2.761   2.731  0.8491  0.1216  0.7423
  507SOL    HW1 1520   0.218   2.777   2.823  1.0990 -0.9909  1.0520
  507SOL    HW2 1521   0.068   2.787   2.735 -1.5372  2.6942 -1.5128
  508SOL     OW 1522   1.687   0.775   1.444 -0.1758  0.4003  0.5406
  508SOL    HW1 1523   1.685   0.674   1.421 -1.7198 -2.2876 -2.0797
  508SOL    HW2 1524   1.782   0.808   1.460 -1.1544  0.6742 -0.4764
  509SOL     OW 1525   0.961   1.863   1.605 -0.3538 -0.4455 -0.5072
  509SOL    HW1 1526   1.059   1.883   1.636  0.3129 -2.0280 -0.3331
  509SOL    HW2 1527   0.958   1.803   1.525  0.2878  2.4549  2.1085
  510SOL     OW 1528   2.295   1.222   2.335 -0.4939 -0.8933  0.3544
  510SOL    HW1 1529   2.279   1.143   2.398 -0.0072 -1.6236 -1.0966
  510SOL    HW2 1530   2.275   1.192   2.240  0.0417 -1.1639 -1.8944
  511SOL     OW 1531   0.578   1.671   0.961  0.3031 -0.2205 -0.0287
  511SOL    HW1 1532   0.513   1.607   0.917  2.3031  0.7000 -1.4275
  511SOL    HW2 1533   0.533   1.763   0.971 -1.5662  3.4546 -0.4093
  512SOL     OW 1534   2.134   2.003   0.446  0.0973 -0.0542  0.1859
  512SOL    HW1 1535   2.130   2.106   0.424  1.4121 -1.9801  2.6706
  512SOL    HW2 1536   2.210   1.958   0.402 -0.6501  0.1278  1.4409
  513SOL     OW 1537   2.969   1.879   2.541 -0.1629  0.5594 -0.1720
  513SOL    HW1 1538   3.013   1.825   2.466 -1.1832 -2.3301  1.5330
  513SOL    HW2 1539   2.958   1.975   2.517  0.3205 -1.2852 -1.2882
  514SOL     OW 1540   0.215   2.480   2.742  0.1628 -0.0555 -0.3112
  514SOL    HW1 1541   0.293   2.468   2.801  1.5740  0.4381 -2.8969
  514SOL    HW2 1542   0.175   2.574   2.748 -1.9870  0.5659 -0.5275
  515SOL     OW 1543   2.050   1.415   1.869  0.2753  0.0674  0.6948
  515SOL    HW1 1544   2.034   1.458   1.962  0.9893  0.5514 -1.5085
  515SOL    HW2 1545   2.082   1.484   1.800  0.6102 -0.5513  1.3536
  516SOL     OW 1546   2.342   2.438   2.933  0.2579 -0.5874 -0.0093
  516SOL    HW1 1547   2.334   2.500   3.017 -0.4945  1.8552  0.3251
  516SOL    HW2 1548   2.421   2.467   2.873 -0.8637 -1.9677 -3.4315
  517SOL     OW 1549   1.370   1.220   2.988 -0.0368 -0.1618 -0.2636
  517SOL    HW1 1550   1.445   1.225   2.923  0.7692 -0.1742 -1.0855
  517SOL    HW2 1551   1.398   1.155   3.064  1.3935  0.7854 -1.0404
  518SOL     OW 1552   2.718   3.062   2.180  0.1667 -0.4102  0.3461
  518SOL    HW1 1553   2.680   3.025   2.092  2.4241 -0.0757 -0.6927
  518SOL    HW2 1554   2.724   2.997   2.256 -0.3133 -0.3995 -0.8095
  519SOL     OW 1555   1.795   1.747   1.892 -0.6320 -0.1331 -0.2886
  519SOL    HW1 1556   1.698   1.730   1.919  2.4962 -0.9029 -1.6607
  519SOL    HW2 1557   1.855   1.765   1.972 -0.0299 -0.2152  0.0512
  520SOL     OW 1558   2.776   0.149   2.571  0.3802  0.1620 -0.4965
  520SOL    HW1 1559   2.719   0.170   2.650  1.7822  0.0367 -1.4790
  520SOL    HW2 1560   2.720   0.132   2.489 -0.4977  1.0453  1.7411
  521SOL     OW 1561   0.487   1.549   2.023 -0.2252 -0.1891  0.4253
  521SOL    HW1 1562   0.545   1.604   1.966 -0.9537 -2.4769  1.0189
  521SOL    HW2 1563   0.548   1.485   2.073  2.6721  1.0416  1.0860
  522SOL     OW 1564   1.158   0.045   1.561  0.2217  0.2101  0.5294
  522SOL    HW1 1565   1.167   0.107   1.638 -1.6280 -0.0360  1.1449
  522SOL    HW2 1566   1.064   0.032   1.534  1.1596  0.4622  1.5059
  523SOL     OW 1567   0.234   2.752   0.813 -0.5432 -0.0407 -0.5378
  523SOL    HW1 1568   0.330   2.749   0.844 -1.3866  1.5821  0.0736
  523SOL    HW2 1569   0.222   2.673   0.753  4.5632 -2.2226  1.4096
  524SOL     OW 1570   1.757   2.424   0.792  0.0609  0.2703 -0.5083
  524SOL    HW1 1571   1.740   2.328   0.757  0.6423  0.4398 -2.7535
  524SOL    HW2 1572   1.668   2.468   0.812 -0.8046 -1.4198  0.2915
  525SOL     OW 1573   2.660   1.043   1.060  0.2202  0.4946  0.9364
  525SOL    HW1 1574   2.586   1.092   1.105  0.1866 -0.9176 -0.6678
  525SOL    HW2 1575   2.631   1.005   0.969  0.4927 -0.0855  0.0197
  526SOL     OW 1576   1.059   2.736   0.724 -0.0654 -0.2284  0.0638
  526SOL    HW1 1577   1.009   2.716   0.638  4.1215 -1.9541 -0.0617
  526SOL    HW2 1578   1.094   2.829   0.721 -0.3673 -2.9395 -0.8230
  527SOL     OW 1579   2.258   1.921   0.735  0.1822 -0.2165 -0.2725
  527SOL    HW1 1580   2.210   1.938   0.647  2.9053  1.1829 -0.2203
  527SOL    HW2 1581   2.336   1.855   0.717  0.4478 -1.5350  1.2231
  528SOL     OW 1582   2.276   0.471   0.554 -0.0779  0.4997 -0.0164
  528SOL    HW1 1583   2.264   0.564   0.517  2.0259  0.5833  0.2171
  528SOL    HW2 1584   2.199   0.412   0.518 -0.8438  1.2331  0.7157
  529SOL     OW 1585   1.157   1.141   2.288  0.0635  0.9600 -0.4816
  529SOL    HW1 1586   1.074   1.202   2.305 -3.0730 -0.8355 -3.0568
  529SOL    HW2 1587   1.199   1.106   2.374  1.0564  4.5098  1.2063
  530SOL     OW 1588   2.487   0.865   2.977  0.6700  0.2742 -0.1985
  530SOL    HW1 1589   2.505   0.769   3.014  0.3464 -3.6076  0.0695
  530SOL    HW2 1590   2.389   0.863   2.941 -1.7508  0.2469  0.7675
  531SOL     OW 1591   1.470   1.045   0.055 -0.6329  0.0628 -0.3581
  531SOL    HW1 1592   1.478   0.943   0.039  0.6815  1.1634 -0.4336
  531SOL    HW2 1593   1.519   1.072   0.143  1.5590 -1.6304  1.0390
  532SOL     OW 1594   2.056   0.116   0.885 -0.2624 -0.4337  0.1248
  532SOL    HW1 1595   2.023   0.143   0.977  0.5074 -0.2186 -0.0880
  532SOL    HW2 1596   2.005   0.030   0.854 -0.2377  1.0267  1.1256
  533SOL     OW 1597   1.083   0.851   1.693  0.1766 -0.4003  0.2745
  533SOL    HW1 1598   1.151   0.924   1.671 -1.5855 -1.3559 -0.4120
  533SOL    HW2 1599   1.127   0.778   1.747  2.2306 -0.4296 -0.9407
  534SOL     OW 1600   1.682   3.039   2.734  0.0353  0.2421 -0.2639
  534SOL    HW1 1601   1.713   2.949   2.690  2.1001 -2.6994 -0.2037
  534SOL    HW2 1602   1.719   3.048   2.828 -0.0115 -2.6959  1.5908
  535SOL     OW 1603   0.507   0.197   0.159 -0.3058 -0.0874 -0.2293
  535SOL    HW1 1604   0.464   0.285   0.183  1.5004 -3.4205 -0.1846
  535SOL    HW2 1605   0.499   0.162   0.065 -3.1428  0.5347  0.8821
  536SOL     OW 1606   0.811   2.450   1.080  0.4834  0.2686 -0.1817
  536SOL    HW1 1607   0.858   2.441   1.170  0.3841  1.1433 -0.9344
  536SOL    HW2 1608   0.853   2.529   1.030 -0.9053  0.7207  1.6393
  537SOL     OW 1609   1.960   0.248   1.594 -0.3057  0.3727 -0.2118
  537SOL    HW1 1610   1.992   0.301   1.513 -0.7380 -1.3997 -1.0754
  537SOL    HW2 1611   1.897   0.181   1.555  1.2556 -1.7012  0.1642
  538SOL     OW 1612   2.742   2.711   0.316  0.1813  0.5626  0.3655
  538SOL    HW1 1613   2.771   2.734   0.222 -2.2015  1.9507 -0.0788
  538SOL    HW2 1614   2.792   2.624   0.348  0.0745 -0.6085 -5.0876
  539SOL     OW 1615   2.726   2.137   2.004  0.3268 -0.3573 -0.0276
  539SOL    HW1 1616   2.684   2.061   1.952  0.6508  1.6944 -1.2163
  539SOL    HW2 1617   2.818   2.155   1.963  0.2226 -1.2460  0.7112
  540SOL     OW 1618   2.958   2.853   1.672 -0.1097 -0.1283 -0.4733
  540SOL    HW1 1619   3.024   2.773   1.677  0.0016 -1.9336  0.8118
  540SOL    HW2 1620   2.919   2.859   1.769 -2.8853 -2.0738  2.2662
  541SOL     OW 1621   2.664   0.116   1.720 -0.4813 -0.3890  0.1167
  541SOL    HW1 1622   2.639   0.138   1.627 -1.2557 -3.6520  0.7968
  541SOL    HW2 1623   2.756   0.073   1.722 -1.0802  1.1680 -0.2765
  542SOL     OW 1624   2.795   0.676   2.210 -0.3436 -0.2441  0.4238
  542SOL    HW1 1625   2.712   0.677   2.269  1.6020 -0.2197  0.7661
  542SOL    HW2 1626   2.796   0.593   2.153  1.2764  1.3898 -2.1980
  543SOL     OW 1627   0.711   0.654   0.721  0.0305 -0.3853 -0.4659
  543SOL    HW1 1628   0.777   0.729   0.695  0.6678 -0.2896  0.0641
  543SOL    HW2 1629   0.619   0.700   0.729  0.9556  1.4732 -0.5965
  544SOL     OW 1630   2.485   1.909   1.006  0.3632  0.5155  0.1238
  544SOL    HW1 1631   2.481   1.865   0.912 -1.0176  0.8533  0.2569
  544SOL    HW2 1632   2.521   1.853   1.081  2.4612  1.2826 -1.1877
  545SOL     OW 1633   1.177   1.778   0.284 -0.4449  0.2296 -0.0266
  545SOL    HW1 1634   1.112   1.823   0.346  0.0841 -2.8853 -2.2528
  545SOL    HW2 1635   1.138   1.720   0.211  0.3892  4.1736 -2.4539
  546SOL     OW 1636   2.357   0.485   2.012  0.5764 -0.3989 -0.3665
  546SOL    HW1 1637   2.380   0.531   2.102 -0.7514  1.4750 -0.3473
  546SOL    HW2 1638   2.365   0.387   2.033 -2.0526  0.5925  2.5689
  547SOL     OW 1639   0.257   0.204   2.491 -0.5782  0.0348 -0.4311
  547SOL    HW1 1640   0.224   0.245   2.581 -1.1862  3.3847  1.7362
  547SOL    HW2 1641   0.312   0.281   2.451  0.6237  0.4128  0.7006
  548SOL     OW 1642   2.021   2.126   2.315  0.1939 -0.0943  0.0853
  548SOL    HW1 1643   2.107   2.143   2.263  1.1001  1.7743  2.0554
  548SOL    HW2 1644   2.047   2.085   2.405  2.2348 -1.9509 -4.2711
  549SOL     OW 1645   2.596   0.597   0.869 -0.3840 -0.3679 -0.1366
  549SOL    HW1 1646   2.615   0.627   0.771  1.6079  1.5570 -0.1162
  549SOL    HW2 1647   2.680   0.547   0.894  0.9917 -1.3891 -1.1251
  550SOL     OW 1648   1.523   1.334   0.391 -0.5131  0.0581  0.3225
  550SOL    HW1 1649   1.562   1.370   0.300 -0.2655  1.9641 -1.9574
  550SOL    HW2 1650   1.557   1.388   0.473  1.4759  1.3148  1.6583
  551SOL     OW 1651   1.362   0.376   1.210  0.3393  0.2349  0.3034
  551SOL    HW1 1652   1.314   0.373   1.117 -0.6007 -1.2162 -3.6833
  551SOL    HW2 1653   1.342   0.291   1.264  2.1320 -0.2369 -0.4453
  552SOL     OW 1654   2.053   2.383   2.090 -0.2717 -0.3351  0.8277
  552SOL    HW1 1655   1.999   2.468   2.107 -0.5847  2.5461  0.1131
  552SOL    HW2 1656   2.129   2.370   2.164 -1.2567  1.4959  2.5499
  553SOL     OW 1657   0.168   3.060   0.163 -0.1902  0.2205  0.9977
  553SOL    HW1 1658   0.138   3.025   0.254  0.8824  2.1955 -0.4621
  553SOL    HW2 1659   0.211   2.987   0.100  2.2542 -1.5532  0.6522
  554SOL     OW 1660   1.566   2.683   1.901 -0.4182 -0.4569  0.7779
  554SOL    HW1 1661   1.571   2.679   1.798  0.2075 -1.9832 -2.0990
  554SOL    HW2 1662   1.659   2.681   1.943 -2.2079 -0.8669 -0.1179
  555SOL     OW 1663   2.353   2.813   1.871  0.0759  0.8228 -0.0149
  555SOL    HW1 1664   2.297   2.879   1.819  0.8828 -3.3202 -0.8495
  555SOL    HW2 1665   2.361   2.842   1.967  0.2582  0.4657 -0.9632
  556SOL     OW 1666   0.887   2.842   0.232 -0.5524  0.4973 -0.2885
  556SOL    HW1 1667   0.967   2.869   0.289  0.1628 -0.0613 -0.1176
  556SOL    HW2 1668   0.832   2.921   0.197 -1.7311  1.3301 -0.5464
  557SOL     OW 1669   0.724   2.291   2.339  0.2491 -0.3839  0.2671
  557SOL    HW1 1670   0.740   2.372   2.275  1.1620  1.9409  0.6797
  557SOL    HW2 1671   0.650   2.314   2.407 -0.3657  0.6964  2.3965
  558SOL     OW 1672   2.619   1.033   2.550 -0.4702  0.1775  0.7183
  558SOL    HW1 1673   2.608   0.966   2.624  1.3817  0.4780 -1.6886
  558SOL    HW2 1674   2.549   1.106   2.561 -0.6881 -2.0882  0.7654
  559SOL     OW 1675   2.275   2.172   2.204 -0.2896 -0.1625 -0.4238
  559SOL    HW1 1676   2.282   2.271   2.199 -0.8634 -1.0606  1.6315
  559SOL    HW2 1677   2.323   2.136   2.124 -2.9359  1.7578  0.1388
  560SOL     OW 1678   0.725   0.328   2.291 -0.0307  0.0479 -0.2384
  560SOL    HW1 1679   0.732   0.242   2.346 -0.0987 -0.7804 -0.5057
  560SOL    HW2 1680   0.667   0.310   2.210 -1.8953 -0.2419  1.2400
  561SOL     OW 1681   0.983   0.569   0.359  0.0383 -0.0517 -0.1144
  561SOL    HW1 1682   0.887   0.540   0.376  0.4952  1.2979 -3.0606
  561SOL    HW2 1683   1.016   0.543   0.270  0.6963 -2.1301  1.9243
  562SOL     OW 1684   0.846   1.436   1.331 -0.1974 -0.2578  0.1049
  562SOL    HW1 1685   0.766   1.418   1.394 -0.4686  2.2379  2.0987
  562SOL    HW2 1686   0.866   1.356   1.266  0.6431 -1.1491 -1.8118
  563SOL     OW 1687   1.735   2.761   0.134  0.0762  0.8339 -0.1383
  563SOL    HW1 1688   1.753   2.771   0.032 -1.7398  0.5292  1.2772
  563SOL    HW2 1689   1.736   2.843   0.189 -1.0510 -0.5621 -1.1302
  564SOL     OW 1690   3.033   1.936   0.532  0.2586 -0.3339 -0.7756
  564SOL    HW1 1691   2.939   1.902   0.504 -2.1163  0.0212  0.1358
  564SOL    HW2 1692   3.049   1.925   0.628 -2.7442 -0.6091 -2.4945
  565SOL     OW 1693   0.502   2.611   2.406 -0.0454 -0.2719 -0.4118
  565SOL    HW1 1694   0.494   2.628   2.304 -2.1563  0.1025  2.0483
  565SOL    HW2 1695   0.516   2.514   2.433  1.3384 -0.4278 -1.7526
  566SOL     OW 1696   1.450   2.438   2.392  0.6249  0.0728 -0.0401
  566SOL    HW1 1697   1.420   2.493   2.473  1.6180 -0.2260  4.8956
  566SOL    HW2 1698   1.522   2.374   2.422  1.2686 -0.3093 -2.2071
  567SOL     OW 1699   1.879   2.103   1.316  0.1203  0.3191  0.0509
  567SOL    HW1 1700   1.859   2.206   1.334  1.4897  2.2555 -0.0990
  567SOL    HW2 1701   1.798   2.052   1.282 -2.1586 -0.3965 -0.8745
  568SOL     OW 1702   2.053   0.629   2.955 -0.0829  0.3404 -0.9387
  568SOL    HW1 1703   2.037   0.663   3.051 -0.8783  1.5924 -0.6249
  568SOL    HW2 1704   2.095   0.536   2.950 -0.2210 -3.8694  1.1805
  569SOL     OW 1705   2.841   1.588   2.133  0.3542 -0.0514 -0.3703
  569SOL    HW1 1706   2.886   1.655   2.071 -0.9903  1.4028  2.5918
  569SOL    HW2 1707   2.872   1.591   2.233 -0.6791 -3.5950  0.6749
  570SOL     OW 1708   2.720   2.570   1.895 -0.1418 -0.1399  0.5552
  570SOL    HW1 1709   2.673   2.604   1.808 -0.2266  0.2869 -0.2773
  570SOL    HW2 1710   2.777   2.650   1.928  0.5206  1.4126 -0.5438
  571SOL     OW 1711   0.303   0.367   1.655  0.0073 -0.5196 -0.1266
  571SOL    HW1 1712   0.402   0.379   1.635  0.6111  1.0781  0.0623
  571SOL    HW2 1713   0.245   0.444   1.628  0.3011 -1.0979  0.8809
  572SOL     OW 1714   3.061   1.991   0.795 -0.0801 -0.0511 -0.3758
  572SOL    HW1 1715   3.008   2.069   0.758 -0.7933 -2.5712 -0.7533
  572SOL    HW2 1716   0.044   2.023   0.850 -2.5932  2.0384 -0.7527
  573SOL     OW 1717   0.928   0.786   3.050  0.1421  0.1454 -0.2192
  573SOL    HW1 1718   0.983   0.850   0.005  0.7352  1.6725  0.4263
  573SOL    HW2 1719   0.830   0.806   3.072 -1.4677  0.0163  0.8158
  574SOL     OW 1720   2.955   3.054   0.061  0.2967  0.0921 -0.4668
  574SOL    HW1 1721   3.039   0.009   0.036  0.6571 -2.3001  0.7014
  574SOL    HW2 1722   2.942   2.972   3.098 -0.6997  0.4995 -3.1466
  575SOL     OW 1723   1.250   2.052   1.259  0.0589 -0.1186 -0.7567
  575SOL    HW1 1724   1.224   1.953   1.243 -1.9379 -5.1508  0.4404
  575SOL    HW2 1725   1.297   2.093   1.178  2.6749 -1.1006  1.5055
  576SOL     OW 1726   3.029   2.989   1.408 -0.0651 -0.6772 -0.2495
  576SOL    HW1 1727   3.017   2.923   1.486 -0.1350 -2.2756 -3.4892
  576SOL    HW2 1728   0.028   3.012   1.404  1.5584  0.5424  3.5910
  577SOL     OW 1729   2.154   1.593   1.696  0.1451  0.1710 -0.2263
  577SOL    HW1 1730   2.094   1.681   1.695 -3.0844 -0.6837 -0.1674
  577SOL    HW2 1731   2.168   1.554   1.603  3.3843 -0.6011 -2.2004
  578SOL     OW 1732   0.910   0.097   3.006  0.4429 -0.4126  0.0266
  578SOL    HW1 1733   0.918   0.108   0.009  1.7839  3.2218  0.4128
  578SOL    HW2 1734   0.919   0.191   2.959  1.5117  0.1541 -0.9231
  579SOL     OW 1735   2.282   1.818   2.115 -0.5066 -0.3632 -0.3066
  579SOL    HW1 1736   2.374   1.789   2.145 -0.3006  0.7327 -1.3371
  579SOL    HW2 1737   2.297   1.909   2.070  1.2451  1.9217  0.5448
  580SOL     OW 1738   1.629   0.311   1.785 -0.1627  0.4613  0.1310
  580SOL    HW1 1739   1.614   0.321   1.682  0.6893  0.0056 -3.9915
  580SOL    HW2 1740   1.699   0.378   1.821  0.5304 -2.9853  0.4909
  581SOL     OW 1741   1.059   1.545   1.628  0.4853 -0.1665  0.1628
  581SOL    HW1 1742   1.010   1.459   1.610 -1.3202  1.0249  3.1969
  581SOL    HW2 1743   1.064   1.596   1.537  0.4991  0.3157 -2.0579
  582SOL     OW 1744   2.984   2.816   2.201  0.1060  0.0879 -0.2417
  582SOL    HW1 1745   3.058   2.867   2.155  0.4581 -0.0670 -0.5451
  582SOL    HW2 1746   3.008   2.796   2.299 -0.8763 -2.2301 -2.7081
  583SOL     OW 1747   2.036   1.289   1.500  0.4420 -0.2992 -0.4392
  583SOL    HW1 1748   1.972   1.357   1.543  3.0233  0.5869  0.2564
  583SOL    HW2 1749   2.068   1.213   1.559  1.9720  1.1419  0.1044
  584SOL     OW 1750   1.274   2.057   2.740  0.3304  0.3918 -0.0914
  584SOL    HW1 1751   1.356   2.004   2.704  1.3299 -3.8561 -0.6954
  584SOL    HW2 1752   1.185   2.021   2.701 -0.2381 -2.8022  1.2626
  585SOL     OW 1753   0.310   2.532   0.554  0.0855 -0.2291  0.3095
  585SOL    HW1 1754   0.396   2.480   0.577  0.4435 -0.5104 -3.2713
  585SOL    HW2 1755   0.246   2.471   0.505  2.0526 -0.2448  2.5403
  586SOL     OW 1756   1.856   2.414   2.882  0.2494  0.7847 -0.1866
  586SOL    HW1 1757   1.908   2.393   2.968  2.0716  0.5193 -0.2561
  586SOL    HW2 1758   1.916   2.434   2.804 -1.2075 -2.4365  0.7369
  587SOL     OW 1759   2.693   1.905   0.222 -0.1560 -0.5484  0.2285
  587SOL    HW1 1760   2.696   1.997   0.178  0.6117  0.2301  0.5884
  587SOL    HW2 1761   2.775   1.889   0.279  0.6968 -0.0517 -0.9629
  588SOL     OW 1762   2.301   0.427   1.236 -0.0519 -0.2746  0.3005
  588SOL    HW1 1763   2.386   0.384   1.197  1.7300 -1.9608 -0.6192
  588SOL    HW2 1764   2.305   0.527   1.222 -0.7430 -0.0120 -1.3501
  589SOL     OW 1765   1.033   0.804   0.481 -0.0443 -0.3913  0.1788
  589SOL    HW1 1766   1.008   0.714   0.438  0.5358  1.2219 -0.1482
  589SOL    HW2 1767   1.128   0.836   0.453 -1.0517  2.8174 -0.8669
  590SOL     OW 1768   2.365   2.369   0.223  0.3415 -0.2608 -0.0760
  590SOL    HW1 1769   2.307   2.296   0.180  0.8242 -0.0800 -2.1418
  590SOL    HW2 1770   2.359   2.455   0.164 -0.1243 -0.5319 -0.6057
  591SOL     OW 1771   0.031   2.643   1.711 -0.6573  0.3039  0.0924
  591SOL    HW1 1772   0.128   2.676   1.732  0.6375 -0.1998  2.4647
  591SOL    HW2 1773   0.002   2.562   1.769 -2.1526 -1.2154 -1.4661
  592SOL     OW 1774   0.829   1.155   1.258 -0.2749 -0.2875 -0.0099
  592SOL    HW1 1775   0.732   1.168   1.272 -0.0914 -0.3618 -0.7418
  592SOL    HW2 1776   0.874   1.097   1.329  0.2843 -2.9065  1.5430
  593SOL     OW 1777   0.996   1.664   1.399  0.0883 -0.2767 -0.0739
  593SOL    HW1 1778   1.060   1.697   1.324  0.2686  1.3178  1.2308
  593SOL    HW2 1779   0.948   1.576   1.374 -1.7887 -2.5322 -0.0078
  594SOL     OW 1780   0.377   1.912   2.818  0.6247  0.3556 -0.0404
  594SOL    HW1 1781   0.297   1.849   2.806  0.4936 -0.6454  0.6582
  594SOL    HW2 1782   0.402   1.961   2.733 -2.0422 -0.2395 -0.3263
  595SOL     OW 1783   1.629   0.465   1.062  0.9135  0.3901  0.2466
  595SOL    HW1 1784   1.617   0.493   0.967 -0.9876 -0.4841 -0.4036
  595SOL    HW2 1785   1.538   0.461   1.104 -0.9684 -0.1516  0.7954
  596SOL     OW 1786   0.163   1.384   0.441  0.7131  0.2998  0.0299
  596SOL    HW1 1787   0.071   1.364   0.399 -1.8390  0.5602 -3.0859
  596SOL    HW2 1788   0.228   1.306   0.424 -0.6729 -1.3622  0.8193
  597SOL     OW 1789   0.040   2.350   0.063 -0.0167  0.1615 -0.0956
  597SOL    HW1 1790   0.017   2.293   3.077 -0.1705  0.0733 -1.1176
  597SOL    HW2 1791   3.079   2.336   0.143  0.5530 -1.2690 -2.3619
  598SOL     OW 1792   2.079   2.000   2.565 -0.0054 -0.6061 -0.0434
  598SOL    HW1 1793   2.105   1.908   2.602 -1.7384 -2.3819  1.2526
  598SOL    HW2 1794   2.130   2.074   2.614  2.0844 -1.4391 -1.2079
  599SOL     OW 1795   1.216   0.471   0.466  0.3435  0.3229 -0.1531
  599SOL    HW1 1796   1.125   0.499   0.421 -1.6548 -1.6659 -0.9779
  599SOL    HW2 1797   1.294   0.527   0.442 -0.8547 -1.3881  0.1850
  600SOL     OW 1798   0.640   2.765   0.358 -0.1556  0.6648 -0.1398
  600SOL    HW1 1799   0.714   2.807   0.306  0.5610  1.8313  0.3933
  600SOL    HW2 1800   0.552   2.808   0.331  3.4973 -1.6850  0.8428
  601SOL     OW 1801   0.546   0.755   1.123 -0.1145 -0.2000  0.2305
  601SOL    HW1 1802   0.487   0.769   1.201  0.9467 -1.4679 -1.3097
  601SOL    HW2 1803   0.644   0.751   1.147 -1.4784 -1.2058 -2.4616
  602SOL     OW 1804   0.318   2.965   1.218  0.4027 -0.2255 -0.1506
  602SOL    HW1 1805   0.257   3.042   1.230 -1.3809 -0.1952  0.9252
  602SOL    HW2 1806   0.269   2.879   1.244  0.2027 -1.7279 -2.3997
  603SOL     OW 1807   1.255   2.728   2.449 -0.8254 -0.0065  0.2420
  603SOL    HW1 1808   1.298   2.727   2.357  1.8355 -1.0365  0.4471
  603SOL    HW2 1809   1.262   2.815   2.502  0.3666  1.5051  1.2886
  604SOL     OW 1810   0.625   2.717   2.748 -0.4091 -0.1991  0.3515
  604SOL    HW1 1811   0.629   2.616   2.737 -2.5411  0.9936 -0.1706
  604SOL    HW2 1812   0.597   2.763   2.662  0.5290 -1.2796  0.0254
  605SOL     OW 1813   1.218   0.644   1.838  0.1068  0.1862 -0.0922
  605SOL    HW1 1814   1.154   0.576   1.798 -1.8471  0.9997  1.4979
  605SOL    HW2 1815   1.237   0.623   1.941  1.4172  2.4543  2.9523
  606SOL     OW 1816   2.233   0.434   2.668  0.3928 -0.0139  0.7122
  606SOL    HW1 1817   2.264   0.474   2.754 -3.8987 -1.2452 -0.1762
  606SOL    HW2 1818   2.160   0.366   2.683 -0.4504  0.8416 -0.1710
  607SOL     OW 1819   0.563   0.989   0.968  0.2854  0.3640  0.3010
  607SOL    HW1 1820   0.659   0.999   0.939 -0.2966 -1.0118  0.6902
  607SOL    HW2 1821   0.553   0.897   1.016  0.2838 -1.5379  2.2068
  608SOL     OW 1822   0.125   2.455   2.285 -0.0295 -0.0790 -0.2204
  608SOL    HW1 1823   0.183   2.537   2.305 -0.9545 -1.8237  0.5933
  608SOL    HW2 1824   0.035   2.481   2.243 -2.4780  0.0950 -0.4998
  609SOL     OW 1825   1.495   0.765   3.086  0.2892 -0.0614 -0.3254
  609SOL    HW1 1826   1.562   0.695   0.026  1.0201 -0.1412  2.4844
  609SOL    HW2 1827   1.404   0.750   0.036 -1.0297  1.9456  1.5368
  610SOL     OW 1828   0.774   2.959   1.258 -0.1661  0.9343 -1.1668
  610SOL    HW1 1829   0.823   2.871   1.271 -2.0693 -0.1268 -1.7189
  610SOL    HW2 1830   0.834   3.028   1.220 -2.8477 -1.1131  0.1994
  611SOL     OW 1831   1.600   0.926   0.497 -0.1664  0.0806  0.2687
  611SOL    HW1 1832   1.590   0.995   0.421 -1.7418 -0.1258 -0.4756
  611SOL    HW2 1833   1.649   0.844   0.471 -0.5831  0.6366  1.6787
  612SOL     OW 1834   1.610   0.806   2.848  0.3722  0.4183 -0.0184
  612SOL    HW1 1835   1.563   0.791   2.759 -2.6748  0.9715  2.1919
  612SOL    HW2 1836   1.546   0.782   2.927  1.6831 -0.1677  3.3594
  613SOL     OW 1837   2.530   0.960   0.837  0.4557  0.7258 -0.2785
  613SOL    HW1 1838   2.459   0.986   0.769  0.4030  1.1127 -0.7948
  613SOL    HW2 1839   2.486   0.883   0.888 -1.6301  0.4465  0.1143
  614SOL     OW 1840   2.353   0.215   2.068  0.5340  0.1728  0.1355
  614SOL    HW1 1841   2.335   0.146   2.141 -0.1122 -0.6914 -0.2888
  614SOL    HW2 1842   2.358   0.175   1.973 -0.7741  0.3572 -0.3288
  615SOL     OW 1843   0.803   2.144   1.124  0.3739 -0.2738 -0.0683
  615SOL    HW1 1844   0.736   2.129   1.198  2.0614  1.2064  1.9115
  615SOL    HW2 1845   0.789   2.231   1.071  1.2097 -0.9113 -0.3569
  616SOL     OW 1846   1.735   1.233   2.479 -0.1195 -0.4478 -0.2236
  616SOL    HW1 1847   1.731   1.187   2.390 -2.7511 -1.4737 -0.1370
  616SOL    HW2 1848   1.778   1.325   2.475  0.9767 -1.2852 -1.8732
  617SOL     OW 1849   1.391   2.928   3.075  0.8016  0.6561  0.6386
  617SOL    HW1 1850   1.493   2.924   3.065  0.9980  3.3046  1.3217
  617SOL    HW2 1851   1.362   2.864   0.051  1.4331  0.4346 -0.2536
  618SOL     OW 1852   1.569   1.480   2.283  0.2020  0.3584 -0.3199
  618SOL    HW1 1853   1.532   1.556   2.342  1.1335 -1.6682  0.0330
  618SOL    HW2 1854   1.666   1.465   2.309  2.4516  0.8702  2.0777
  619SOL     OW 1855   2.600   1.310   0.929  0.9371  0.4873 -0.0696
  619SOL    HW1 1856   2.574   1.324   0.835  1.5542  1.4214  0.9936
  619SOL    HW2 1857   2.693   1.266   0.935 -1.8723  1.0676 -0.2003
  620SOL     OW 1858   2.142   2.693   2.685 -0.0777 -0.1995 -0.0756
  620SOL    HW1 1859   2.205   2.711   2.762  0.3296 -0.8435 -0.5419
  620SOL    HW2 1860   2.085   2.780   2.667 -0.8127 -0.6991  0.2015
  621SOL     OW 1861   2.668   1.290   0.449 -0.3683  0.4165  0.2928
  621SOL    HW1 1862   2.649   1.312   0.351  2.4823 -0.4307 -0.1114
  621SOL    HW2 1863   2.585   1.305   0.510 -0.5145  0.4420 -0.5966
  622SOL     OW 1864   1.091   2.529   2.589  0.3061 -0.3025  0.1165
  622SOL    HW1 1865   1.148   2.448   2.564  2.0643  1.4409  0.3839
  622SOL    HW2 1866   1.143   2.611   2.557  0.8180 -0.5655 -0.7831
  623SOL     OW 1867   0.306   2.296   3.068 -0.3374 -0.1227 -0.0921
  623SOL    HW1 1868   0.307   2.197   3.054  0.8207 -0.2192  0.5130
  623SOL    HW2 1869   0.217   2.339   0.012 -1.0409  3.8170  0.9492
  624SOL     OW 1870   0.211   2.949   2.966  0.4405  0.2882  1.2382
  624SOL    HW1 1871   0.214   3.020   2.895 -1.5672 -0.6067  1.3616
  624SOL    HW2 1872   0.297   2.896   2.966 -2.5720  1.6118  1.3317
  625SOL     OW 1873   0.862   2.261   3.008  0.2682 -0.4706  0.1442
  625SOL    HW1 1874   0.867   2.307   2.917 -1.0006  0.6112 -3.1498
  625SOL    HW2 1875   0.865   2.164   3.011  0.6298  4.1283  1.3512
  626SOL     OW 1876   2.895   0.611   0.261  0.5085 -0.0958 -0.2434
  626SOL    HW1 1877   2.879   0.559   0.177  1.7480 -0.9600 -1.3032
  626SOL    HW2 1878   2.939   0.551   0.333  0.1307 -2.3443  0.2599
  627SOL     OW 1879   1.878   1.585   2.954 -0.2404 -0.1144 -0.1105
  627SOL    HW1 1880   1.969   1.541   2.966  0.8441  1.3839  1.0044
  627SOL    HW2 1881   1.860   1.642   3.035  0.2647  0.7124 -1.9918
  628SOL     OW 1882   1.296   1.106   2.532 -0.2795 -0.4911  0.0642
  628SOL    HW1 1883   1.244   1.057   2.606  0.6628 -0.4499 -3.4801
  628SOL    HW2 1884   1.348   1.196   2.555  1.2939 -0.9744  1.4722
  629SOL     OW 1885   0.566   3.020   1.725  0.5745 -0.1815  0.2151
  629SOL    HW1 1886   0.665   3.003   1.717 -1.2994  0.2540  3.9226
  629SOL    HW2 1887   0.516   2.978   1.647 -0.4998  0.1788  0.3549
  630SOL     OW 1888   2.331   0.897   2.029  0.6906  0.5472  0.3452
  630SOL    HW1 1889   2.281   0.965   2.086 -0.6435 -1.9359  0.1445
  630SOL    HW2 1890   2.266   0.829   1.991  0.5635 -1.4645 -1.6847
  631SOL     OW 1891   1.921   0.256   0.699 -0.2088  0.1167  0.2878
  631SOL    HW1 1892   1.936   0.206   0.788  0.6012 -1.7020 -1.0064
  631SOL    HW2 1893   1.827   0.238   0.667 -0.2881  1.0620  2.3240
  632SOL     OW 1894   0.142   0.577   1.621  0.1113  0.2220  0.4806
  632SOL    HW1 1895   0.048   0.537   1.621  0.7316 -0.1978  0.0237
  632SOL    HW2 1896   0.160   0.642   1.696  0.2851  0.3040  0.3359
  633SOL     OW 1897   0.905   0.390   0.134  0.0450 -0.9805  0.1422
  633SOL    HW1 1898   0.848   0.411   0.051  1.6170  1.2895 -1.8103
  633SOL    HW2 1899   0.897   0.289   0.156  0.2909 -0.2078 -0.7192
  634SOL     OW 1900   0.561   2.660   0.032 -0.2866  0.5258 -0.2856
  634SOL    HW1 1901   0.654   2.619   0.044 -0.7347  0.5003  0.9706
  634SOL    HW2 1902   0.538   2.715   0.117  1.9202  0.9762  1.8115
  635SOL     OW 1903   0.130   0.569   0.540  0.4754 -0.0522 -0.2462
  635SOL    HW1 1904   0.061   0.529   0.473  1.0609  1.3934  1.7488
  635SOL    HW2 1905   0.192   0.633   0.495 -2.8027 -3.1790  1.5842
  636SOL     OW 1906   0.586   1.256   0.178  0.0764  0.1188 -0.2209
  636SOL    HW1 1907   0.659   1.231   0.246  1.7698 -0.5266  0.5328
  636SOL    HW2 1908   0.563   1.357   0.198  0.8333 -0.3803  0.2413
  637SOL     OW 1909   0.327   2.826   0.507  0.1897 -0.0492 -0.1672
  637SOL    HW1 1910   0.286   2.729   0.526 -2.0621 -2.0347  0.5729
  637SOL    HW2 1911   0.257   2.902   0.509  0.0263 -0.2231  1.3562
  638SOL     OW 1912   2.787   2.456   0.471 -0.4115  0.3825 -0.2149
  638SOL    HW1 1913   2.757   2.360   0.490 -0.1486 -0.2387  3.3345
  638SOL    HW2 1914   2.881   2.475   0.506 -1.1799  3.4181 -2.7260
  639SOL     OW 1915   1.751   0.893   0.074 -0.0389  0.7538  0.2828
  639SOL    HW1 1916   1.687   0.878   3.092 -2.3349 -1.1988 -1.9041
  639SOL    HW2 1917   1.828   0.963   0.059  0.4267  0.5957  1.9970
  640SOL     OW 1918   1.603   2.174   1.505 -0.2233  0.3058  0.3282
  640SOL    HW1 1919   1.550   2.218   1.429  1.2809  1.4881  0.0231
  640SOL    HW2 1920   1.703   2.209   1.503  1.7439 -1.9843 -2.0393
  641SOL     OW 1921   3.077   2.871   0.792  0.1969 -0.0976 -0.5983
  641SOL    HW1 1922   3.070   2.973   0.793 -1.2193 -0.7469 -0.8415
  641SOL    HW2 1923   0.073   2.833   0.811  0.3202 -1.1955 -2.7880
  642SOL     OW 1924   1.038   0.432   1.781 -0.2663 -0.5224 -0.0256
  642SOL    HW1 1925   1.035   0.429   1.676 -0.8851 -3.4590 -1.7955
  642SOL    HW2 1926   1.108   0.369   1.817 -0.7351 -3.2980  1.9958
  643SOL     OW 1927   0.892   2.351   2.721 -0.0246  0.1619 -0.2682
  643SOL    HW1 1928   0.902   2.271   2.658  0.7120 -0.8373 -0.0910
  643SOL    HW2 1929   0.955   2.429   2.693  2.4566  2.3540 -1.1834
  644SOL     OW 1930   1.295   2.571   0.745  0.1419 -0.4531 -0.2296
  644SOL    HW1 1931   1.303   2.470   0.754 -1.0404  1.8633 -0.0163
  644SOL    HW2 1932   1.203   2.610   0.762  0.4222  0.1111 -1.3049
  645SOL     OW 1933   1.651   1.187   1.782 -0.6946 -0.1171 -0.3641
  645SOL    HW1 1934   1.749   1.197   1.810  0.7856  2.6019 -2.1958
  645SOL    HW2 1935   1.642   1.117   1.710  1.3441  0.7867 -1.0494
  646SOL     OW 1936   0.365   0.648   0.033 -0.2141  0.3621 -0.0354
  646SOL    HW1 1937   0.308   0.618   0.109  1.5707 -1.0611  1.3098
  646SOL    HW2 1938   0.424   0.722   0.066 -0.9052 -1.0840 -1.6358
  647SOL     OW 1939   1.075   0.221   0.481 -0.3952  0.0915 -0.5991
  647SOL    HW1 1940   1.155   0.284   0.478  0.4471  0.8041  2.5037
  647SOL    HW2 1941   1.094   0.142   0.419 -1.3464  1.4993  0.6863
  648SOL     OW 1942   2.342   2.835   1.230  0.0983 -0.3952 -0.0420
  648SOL    HW1 1943   2.346   2.820   1.129  0.9049 -1.3310  0.6284
  648SOL    HW2 1944   2.273   2.780   1.277  0.8171  0.6244 -2.1576
  649SOL     OW 1945   0.598   1.890   2.957  0.1104 -0.2706 -0.0900
  649SOL    HW1 1946   0.508   1.891   2.908 -2.0895  1.5183  0.0976
  649SOL    HW2 1947   0.590   1.923   3.053  0.6571 -0.9645 -0.0508
  650SOL     OW 1948   2.197   1.994   1.855  0.7264  0.2037  0.0072
  650SOL    HW1 1949   2.145   2.080   1.854  1.8276 -1.3026 -0.7631
  650SOL    HW2 1950   2.137   1.921   1.813  1.6020  1.4028  0.2245
  651SOL     OW 1951   0.104   3.095   2.619  0.4231 -0.3024  0.4020
  651SOL    HW1 1952   0.121   3.005   2.570 -0.5343  0.8548  1.2890
  651SOL    HW2 1953   0.078   0.063   2.546  0.8670 -0.6271  1.6868
  652SOL     OW 1954   2.764   1.575   0.544 -0.0530 -0.3910 -0.6084
  652SOL    HW1 1955   2.765   1.583   0.646 -0.0445 -1.7192  0.7209
  652SOL    HW2 1956   2.712   1.492   0.517  0.1296  2.7821 -1.8335
  653SOL     OW 1957   0.216   0.381   0.984  0.0908  0.1856 -0.2799
  653SOL    HW1 1958   0.224   0.412   0.888 -1.2912  0.2676  2.1588
  653SOL    HW2 1959   0.297   0.328   1.014 -2.6180  0.4107 -0.2118
  654SOL     OW 1960   0.925   0.127   0.184  0.3063  0.1165  0.5508
  654SOL    HW1 1961   1.010   0.107   0.241  0.0484  0.8457  0.0451
  654SOL    HW2 1962   0.846   0.058   0.202 -1.6333 -0.8308  0.5093
  655SOL     OW 1963   0.561   2.930   1.100  0.3336  0.9977 -0.0181
  655SOL    HW1 1964   0.652   2.938   1.148  0.9100  0.3629  2.0769
  655SOL    HW2 1965   0.483   2.948   1.158  1.6082  0.4306  0.8125
  656SOL     OW 1966   0.063   2.911   2.022 -0.7145  0.1668  0.0884
  656SOL    HW1 1967   0.119   2.995   2.020 -1.6856 -1.6578 -0.1490
  656SOL    HW2 1968   0.108   2.834   1.974  2.7394 -2.2148 -0.6549
  657SOL     OW 1969   1.771   0.438   2.456  0.0073  0.5034 -0.5394
  657SOL    HW1 1970   1.870   0.457   2.447 -0.3197  0.3429 -0.5276
  657SOL    HW2 1971   1.759   0.337   2.464 -2.4238  1.8637  2.4083
  658SOL     OW 1972   1.946   1.582   1.124  0.8467 -0.1980 -0.3923
  658SOL    HW1 1973   1.941   1.662   1.065  1.3684 -0.0899  0.2999
  658SOL    HW2 1974   2.020   1.593   1.188 -4.3028  0.0806 -2.2682
  659SOL     OW 1975   2.524   2.553   2.766  0.2821  0.9579 -0.0845
  659SOL    HW1 1976   2.601   2.623   2.773 -1.6494 -2.2896 -0.8706
  659SOL    HW2 1977   2.512   2.520   2.669 -0.8861 -0.9163  1.6908
  660SOL     OW 1978   1.306   0.803   0.412  0.0067  0.3665 -0.3169
  660SOL    HW1 1979   1.306   0.875   0.490 -0.6550  4.2302  2.3274
  660SOL    HW2 1980   1.382   0.736   0.423  1.4406  0.4821 -2.8717
  661SOL     OW 1981   2.532   2.865   0.640 -0.3237 -0.3272  0.0016
  661SOL    HW1 1982   2.583   2.780   0.670 -0.2659 -0.2523  2.2558
  661SOL    HW2 1983   2.594   2.945   0.641 -1.3572 -0.5875  2.4493
  662SOL     OW 1984   0.908   0.152   1.228  0.2831  0.0982  0.0176
  662SOL    HW1 1985   0.927   0.219   1.154 -3.7312  0.3549  0.0508
  662SOL    HW2 1986   0.989   0.101   1.267  2.6119 -0.2057  2.6997
  663SOL     OW 1987   1.535   2.662   2.243  0.2509 -0.1051 -0.5587
  663SOL    HW1 1988   1.613   2.713   2.280 -0.8411  1.6570  1.4826
  663SOL    HW2 1989   1.495   2.589   2.301  1.6040  1.1026 -1.4831
  664SOL     OW 1990   0.679   2.247   1.643  0.1954  0.0401 -0.6315
  664SOL    HW1 1991   0.741   2.181   1.602  0.2877  0.9131  2.7332
  664SOL    HW2 1992   0.583   2.212   1.634 -1.6618 -0.6956 -0.6161
  665SOL     OW 1993   0.964   2.217   1.792 -0.5016  0.2038  0.0324
  665SOL    HW1 1994   0.907   2.136   1.828 -0.6550 -0.6059 -0.6893
  665SOL    HW2 1995   1.020   2.191   1.711 -0.3523  0.8536  0.9920
  666SOL     OW 1996   3.055   2.828   3.058  0.1246 -0.0832 -0.1124
  666SOL    HW1 1997   0.024   2.895   3.032 -1.0344 -0.0691  0.7666
  666SOL    HW2 1998   3.082   2.737   3.015  0.8050 -1.2969 -1.0570
  667SOL     OW 1999   1.477   1.588   1.429 -0.1111 -0.0274 -0.0875
  667SOL    HW1 2000   1.426   1.602   1.519 -1.6693  0.4836  2.7800
  667SOL    HW2 2001   1.522   1.672   1.396  0.5105 -0.1344  0.9494
  668SOL     OW 2002   1.296   0.299   2.164 -0.1207 -0.0665 -0.3212
  668SOL    HW1 2003   1.332   0.266   2.252 -0.0866 -0.7821 -0.3093
  668SOL    HW2 2004   1.220   0.364   2.175  0.8232 -2.1734 -1.5628
  669SOL     OW 2005   2.446   2.256   1.607  0.0967 -0.3769 -0.3997
  669SOL    HW1 2006   2.352   2.228   1.619  5.1743  4.8086  1.3125
  669SOL    HW2 2007   2.493   2.250   1.699  1.3175  2.8617 -1.8699
  670SOL     OW 2008   1.612   1.956   0.154 -0.2730  0.0829 -0.4588
  670SOL    HW1 2009   1.515   1.947   0.141  4.3119 -1.1766  1.7625
  670SOL    HW2 2010   1.641   2.036   0.211 -0.6230  0.0427  2.9089
  671SOL     OW 2011   1.361   0.789   1.097  0.4440  0.1637 -0.0055
  671SOL    HW1 2012   1.432   0.819   1.161 -1.2956 -2.1782  0.3750
  671SOL    HW2 2013   1.317   0.869   1.047 -0.9270  1.8217 -0.7362
  672SOL     OW 2014   2.464   1.256   2.555 -0.0976 -0.1900  0.3078
  672SOL    HW1 2015   2.404   1.243   2.471  2.7322 -0.0978 -1.4440
  672SOL    HW2 2016   2.512   1.349   2.559 -0.3836  2.2376  1.6405
  673SOL     OW 2017   2.992   1.730   1.626 -0.3522  0.0721  0.0156
  673SOL    HW1 2018   2.891   1.710   1.610 -2.6345 -1.0296  0.0899
  673SOL    HW2 2019   3.018   1.827   1.595 -0.9021 -0.9606  1.2987
  674SOL     OW 2020   1.003   2.494   2.307  0.5701  0.4120  0.1707
  674SOL    HW1 2021   0.997   2.526   2.401  0.0679 -0.1407  0.0523
  674SOL    HW2 2022   0.923   2.518   2.250  1.2880  2.4020  0.2392
  675SOL     OW 2023   0.980   1.257   1.624  0.2234  0.7250 -0.5279
  675SOL    HW1 2024   1.013   1.257   1.527  1.3602  2.0054  1.1145
  675SOL    HW2 2025   0.937   1.172   1.661 -0.6200 -1.7212 -0.4834
  676SOL     OW 2026   2.342   0.463   0.807  0.2067 -0.2000  0.2092
  676SOL    HW1 2027   2.324   0.482   0.710  1.1092 -0.0118  0.2912
  676SOL    HW2 2028   2.432   0.498   0.841 -0.2011  0.6501  1.1722
  677SOL     OW 2029   2.470   1.558   2.959  0.2004 -0.4204  0.4791
  677SOL    HW1 2030   2.469   1.458   2.962 -0.7339 -0.8331  3.0310
  677SOL    HW2 2031   2.479   1.591   2.865  0.6144 -0.2914  1.2879
  678SOL     OW 2032   0.160   0.068   1.261  0.6989 -0.3248 -0.4720
  678SOL    HW1 2033   0.092   0.101   1.189 -1.8167  1.3001 -3.3081
  678SOL    HW2 2034   0.160   0.120   1.350 -0.5820 -1.4566  1.1446
  679SOL     OW 2035   2.369   0.275   0.270  0.4811 -0.1358 -0.0276
  679SOL    HW1 2036   2.324   0.266   0.182  0.4097  1.2482 -3.4120
  679SOL    HW2 2037   2.365   0.186   0.317  2.7794 -0.1825 -0.6673
  680SOL     OW 2038   0.217   2.289   1.814 -0.2423 -0.3980 -0.0060
  680SOL    HW1 2039   0.211   2.366   1.740 -2.3766  1.5288  1.6609
  680SOL    HW2 2040   0.221   2.333   1.904 -1.3274 -2.2754 -1.0749
  681SOL     OW 2041   2.121   1.983   1.224  0.0485 -0.2074 -0.9873
  681SOL    HW1 2042   2.038   2.017   1.279  1.0577  1.4584 -1.3116
  681SOL    HW2 2043   2.119   2.022   1.130  1.3409  3.0297  0.5055
  682SOL     OW 2044   2.964   2.154   1.863 -0.7067  0.2254  0.3248
  682SOL    HW1 2045   2.956   2.141   1.763  0.5728 -1.2833  2.9092
  682SOL    HW2 2046   3.039   2.095   1.903 -0.4141  1.1021  1.6286
  683SOL     OW 2047   3.026   2.122   1.137  0.0309  0.0847  0.3869
  683SOL    HW1 2048   3.042   2.225   1.122  2.3054  1.1930  0.2254
  683SOL    HW2 2049   2.928   2.106   1.157 -2.2859 -2.1522  0.0572
  684SOL     OW 2050   2.491   0.695   2.598  0.2701  0.4173 -0.0650
  684SOL    HW1 2051   2.540   0.738   2.521  0.2418 -1.7572  0.0591
  684SOL    HW2 2052   2.502   0.749   2.682 -2.7843  1.4843 -0.4297
  685SOL     OW 2053   1.260   1.206   0.478  0.2713  0.8081 -0.0470
  685SOL    HW1 2054   1.270   1.123   0.543  0.0706 -1.5637  3.0030
  685SOL    HW2 2055   1.353   1.233   0.447  2.6202 -3.3141  0.8621
  686SOL     OW 2056   0.184   0.230   0.324  0.1368  0.6340  0.9288
  686SOL    HW1 2057   0.218   0.166   0.251  1.7900 -0.2767  2.9221
  686SOL    HW2 2058   0.230   0.212   0.414  1.9309 -0.0699  2.8185
  687SOL     OW 2059   1.482   1.324   2.578  0.2928 -0.0839 -0.4592
  687SOL    HW1 2060   1.458   1.421   2.556 -2.0979 -0.2301 -0.5156
  687SOL    HW2 2061   1.558   1.292   2.518  1.4752 -0.3876  1.2545
  688SOL     OW 2062   1.627   1.360   1.412  0.5822  0.0253 -0.1921
  688SOL    HW1 2063   1.687   1.367   1.494 -1.4085  0.0166 -1.1167
  688SOL    HW2 2064   1.570   1.439   1.395  1.4671 -4.1518 -0.9346
  689SOL     OW 2065   2.300   0.144   1.326  0.2793  0.5311  0.0252
  689SOL    HW1 2066   2.300   0.240   1.303  0.5316 -2.1795  0.3239
  689SOL    HW2 2067   2.358   0.087   1.265 -1.5043 -0.2548  1.5885
  690SOL     OW 2068   0.005   1.443   1.116  0.5656 -0.6736 -0.7103
  690SOL    HW1 2069   3.009   1.426   1.148  2.1992  1.0000 -3.1774
  690SOL    HW2 2070   0.069   1.362   1.147  1.2476 -2.9444 -0.9809
  691SOL     OW 2071   0.354   2.510   1.255  0.4664  0.4001 -0.2037
  691SOL    HW1 2072   0.429   2.520   1.186 -1.5295 -0.9688  0.2633
  691SOL    HW2 2073   0.290   2.590   1.239 -0.2867  1.9668  0.2871
  692SOL     OW 2074   2.445   0.672   1.839  0.0271  0.4556 -0.0996
  692SOL    HW1 2075   2.539   0.705   1.848 -4.3723  0.4698 -2.0637
  692SOL    HW2 2076   2.423   0.610   1.918  1.0499 -1.0643  0.0770
  693SOL     OW 2077   0.251   1.691   2.078  0.2932  1.1555  0.1576
  693SOL    HW1 2078   0.332   1.626   2.079 -3.2107 -1.9708  2.1985
  693SOL    HW2 2079   0.208   1.703   2.168  0.8135  0.5196 -1.1215
  694SOL     OW 2080   1.836   1.200   1.327  0.2096  0.2465 -0.3362
  694SOL    HW1 2081   1.911   1.241   1.386 -0.9438  3.0236 -0.0657
  694SOL    HW2 2082   1.750   1.254   1.342  1.1495 -2.1212 -0.8607
  695SOL     OW 2083   0.817   1.269   0.791 -0.1671  0.4936  0.1399
  695SOL    HW1 2084   0.830   1.184   0.852 -1.8052 -1.1280 -0.7238
  695SOL    HW2 2085   0.737   1.258   0.731  2.0206  0.8317  1.2916
  696SOL     OW 2086   1.120   2.876   0.430  0.1826  0.5928  0.0352
  696SOL    HW1 2087   1.066   2.788   0.437  0.2457  1.2748  0.2599
  696SOL    HW2 2088   1.213   2.861   0.388 -0.6344 -1.6076  0.5538
  697SOL     OW 2089   1.366   0.398   1.888 -0.1210  0.2476  0.7349
  697SOL    HW1 2090   1.455   0.352   1.873  2.2896  2.7965 -1.6566
  697SOL    HW2 2091   1.372   0.447   1.978 -1.0164 -0.8919  0.6359
  698SOL     OW 2092   1.788   1.381   2.070  0.4381  0.1130  0.4169
  698SOL    HW1 2093   1.859   1.446   2.103 -2.2954 -1.7335  0.1321
  698SOL    HW2 2094   1.758   1.417   1.979  0.4554  1.1430 -0.3794
  699SOL     OW 2095   2.637   0.407   1.718  0.4877  0.0378 -0.3092
  699SOL    HW1 2096   2.535   0.423   1.724 -0.3125  1.4658 -2.3392
  699SOL    HW2 2097   2.653   0.309   1.695  1.9110  2.7499  0.0735
  700SOL     OW 2098   0.886   2.246   0.563 -0.3183  0.0169  0.5147
  700SOL    HW1 2099   0.867   2.316   0.487 -3.4286 -0.8912  1.8296
  700SOL    HW2 2100   0.915   2.162   0.516 -0.8323  0.4005  0.2347
  701SOL     OW 2101   2.008   2.929   2.631  0.7286  0.6719  0.1601
  701SOL    HW1 2102   1.921   2.876   2.625 -0.5933  1.4319 -0.2521
  701SOL    HW2 2103   1.988   3.026   2.658 -1.2684  1.5903  0.5651
  702SOL     OW 2104   0.916   0.068   0.832  0.2223  0.1796 -1.0467
  702SOL    HW1 2105   0.867   0.056   0.741 -1.4673 -1.3322 -0.9971
  702SOL    HW2 2106   0.992   0.140   0.822 -0.9823  0.6936 -1.9749
  703SOL     OW 2107   2.350   2.987   2.074 -0.3144  0.2592 -0.3470
  703SOL    HW1 2108   2.271   3.043   2.051  1.4057 -0.9943 -0.3006
  703SOL    HW2 2109   2.375   2.990   2.174 -1.0067 -1.5148  2.4146
  704SOL     OW 2110   2.752   2.163   0.487 -0.1344 -0.1277 -0.6220
  704SOL    HW1 2111   2.830   2.169   0.550  0.3431  1.2018 -0.6478
  704SOL    HW2 2112   2.693   2.084   0.513  0.8766 -1.2668 -1.2589
  705SOL     OW 2113   2.419   2.827   2.337  0.4713 -0.4430 -0.2842
  705SOL    HW1 2114   2.348   2.882   2.394  1.1708  0.1760  1.5701
  705SOL    HW2 2115   2.401   2.728   2.322 -0.8049 -3.1139 -1.5289
  706SOL     OW 2116   2.453   0.001   1.160 -0.3241 -0.2574 -0.1131
  706SOL    HW1 2117   2.438   0.024   1.059 -0.2743  0.5882 -1.0180
  706SOL    HW2 2118   2.421   3.008   1.185  0.1763  0.4943 -0.1760
  707SOL     OW 2119   1.062   2.935   2.360  0.2170  0.0295 -0.0526
  707SOL    HW1 2120   1.082   3.012   2.292  1.8762  2.5221 -1.1082
  707SOL    HW2 2121   1.101   2.845   2.334 -1.9146 -2.2459 -2.5108
  708SOL     OW 2122   0.059   1.949   1.551 -0.3817 -0.4728  0.2249
  708SOL    HW1 2123   0.065   1.946   1.450 -1.0656  0.8830  0.6226
  708SOL    HW2 2124   0.152   1.965   1.590  0.8806 -0.2482 -1.4609
  709SOL     OW 2125   1.586   0.344   1.513 -0.2274  0.3784 -0.2507
  709SOL    HW1 2126   1.622   0.405   1.441 -0.8612  2.5607 -0.9751
  709SOL    HW2 2127   1.575   0.251   1.473 -1.6321 -0.9407  0.6263
  710SOL     OW 2128   0.784   2.915   2.471  0.1285 -0.1260  0.4327
  710SOL    HW1 2129   0.835   2.871   2.546  1.7739 -0.6574 -1.7368
  710SOL    HW2 2130   0.848   2.965   2.410 -0.5957 -0.1403  0.6146
  711SOL     OW 2131   0.996   1.931   2.458 -0.4706  0.1268  0.1130
  711SOL    HW1 2132   1.005   2.030   2.485  0.6888 -1.0335 -1.0086
  711SOL    HW2 2133   0.909   1.912   2.403 -0.8371  2.6478 -1.1340
  712SOL     OW 2134   1.035   1.996   3.051 -0.2322  0.3593 -0.6783
  712SOL    HW1 2135   1.014   1.967   2.956  0.3083  1.1975 -0.4597
  712SOL    HW2 2136   1.128   2.039   3.061 -0.4057 -1.1568 -0.1534
  713SOL     OW 2137   1.969   1.024   2.135 -0.0812 -0.1769  0.0478
  713SOL    HW1 2138   1.889   1.059   2.192 -0.1237  1.2023  0.7350
  713SOL    HW2 2139   2.019   0.941   2.166  0.4672  0.7328  0.4654
  714SOL     OW 2140   0.891   1.745   1.856 -0.2997  0.1903 -0.4063
  714SOL    HW1 2141   0.928   1.789   1.772 -0.4393  4.1454  0.0151
  714SOL    HW2 2142   0.899   1.646   1.848 -1.6826 -1.1590  2.7510
  715SOL     OW 2143   2.436   0.536   0.207 -0.5423 -0.1526 -0.3373
  715SOL    HW1 2144   2.427   0.434   0.234  0.3475  0.0224  1.5486
  715SOL    HW2 2145   2.347   0.587   0.217 -1.7895  0.9912  2.1179
  716SOL     OW 2146   2.752   2.409   1.491  0.1085  0.1651 -0.0583
  716SOL    HW1 2147   2.852   2.384   1.483  0.7811  3.5983  0.1616
  716SOL    HW2 2148   2.696   2.349   1.547  0.9577 -0.1099 -3.9116
  717SOL     OW 2149   2.614   1.349   1.301 -0.4543  0.1332 -0.1917
  717SOL    HW1 2150   2.557   1.413   1.358 -0.3093  3.2127 -0.4975
  717SOL    HW2 2151   2.557   1.270   1.280 -0.0366  3.6043  0.9166
  718SOL     OW 2152   1.307   1.623   1.660  0.1224  0.1363  0.3593
  718SOL    HW1 2153   1.376   1.556   1.694 -0.3695  1.3959 -1.2672
  718SOL    HW2 2154   1.214   1.584   1.663  2.6175  0.4799  0.5019
  719SOL     OW 2155   2.847   0.568   3.057  0.5579 -0.5966 -0.0984
  719SOL    HW1 2156   2.860   0.625   2.977  0.3650 -1.4029 -1.7864
  719SOL    HW2 2157   2.915   0.494   3.070 -0.0451  1.5481  1.4389
  720SOL     OW 2158   1.040   0.321   0.751 -0.0617 -0.5461  0.3081
  720SOL    HW1 2159   1.060   0.304   0.653  1.4471  0.2977 -0.1640
  720SOL    HW2 2160   0.947   0.358   0.764  1.3170 -0.9096 -0.4146
  721SOL     OW 2161   2.621   0.622   0.593 -0.0292 -0.2250  0.0931
  721SOL    HW1 2162   2.568   0.533   0.590  1.4864  0.4666  2.3661
  721SOL    HW2 2163   2.622   0.679   0.511  1.5387 -2.4364 -3.1335
  722SOL     OW 2164   0.541   2.360   2.496 -0.2112 -0.1860  0.0440
  722SOL    HW1 2165   0.549   2.393   2.590 -1.9893  1.5889  0.1151
  722SOL    HW2 2166   0.461   2.298   2.494  0.6142 -0.7733  0.1061
  723SOL     OW 2167   1.900   3.094   1.078  0.2907  0.1275 -0.3277
  723SOL    HW1 2168   1.852   0.082   1.093  2.6212 -2.9836 -1.0645
  723SOL    HW2 2169   1.970   3.066   1.151  2.5595  0.0699  1.0137
  724SOL     OW 2170   1.186   1.905   2.275 -0.1804  0.2837  0.4491
  724SOL    HW1 2171   1.151   1.845   2.201 -0.7961  1.9311  1.6217
  724SOL    HW2 2172   1.119   1.920   2.350 -1.0120  0.0544  2.0553
  725SOL     OW 2173   1.247   2.787   1.308 -0.4347  0.2022 -0.6178
  725SOL    HW1 2174   1.281   2.830   1.398 -0.9912 -0.4599  1.4922
  725SOL    HW2 2175   1.315   2.801   1.234 -2.7142  1.5474  0.5670
  726SOL     OW 2176   2.061   2.794   0.169 -0.4880 -0.1189 -0.4292
  726SOL    HW1 2177   2.068   2.745   0.084 -0.0820  0.9531  1.6563
  726SOL    HW2 2178   2.073   2.733   0.251 -0.0130  2.5187  2.4308
  727SOL     OW 2179   1.548   1.857   0.751 -0.0771  0.0899 -0.3902
  727SOL    HW1 2180   1.634   1.813   0.776 -0.8140  2.0694  1.5016
  727SOL    HW2 2181   1.494   1.797   0.689  2.3151 -1.1604 -3.0284
  728SOL     OW 2182   2.080   2.678   2.034 -0.4033  0.1774  0.2196
  728SOL    HW1 2183   2.172   2.649   2.061 -0.5681  2.9013  0.6288
  728SOL    HW2 2184   2.045   2.631   1.948 -0.9309 -1.5425  0.4102
  729SOL     OW 2185   1.819   2.359   1.436 -0.4492  0.0716  0.5971
  729SOL    HW1 2186   1.738   2.419   1.426 -3.2314  3.3827 -1.1236
  729SOL    HW2 2187   1.891   2.407   1.489 -0.4962 -0.1584 -1.2778
  730SOL     OW 2188   1.898   0.761   2.434 -1.2351  0.9480  0.0031
  730SOL    HW1 2189   1.807   0.744   2.400 -0.1102 -0.1972 -0.9973
  730SOL    HW2 2190   1.898   0.802   2.532  0.4879  2.5276  2.2846
  731SOL     OW 2191   1.126   3.030   1.247 -0.5191 -0.3509  0.2541
  731SOL    HW1 2192   1.170   2.939   1.262 -2.0505 -1.9049 -0.8712
  731SOL    HW2 2193   1.054   3.013   1.179 -0.2207 -0.5419 -3.7983
  732SOL     OW 2194   1.373   0.042   0.677  0.2631 -0.4896  0.3037
  732SOL    HW1 2195   1.382   0.129   0.624  1.2929  2.2694  0.8989
  732SOL    HW2 2196   1.437   0.047   0.758  2.0034 -0.4466  0.8965
  733SOL     OW 2197   1.390   1.231   0.775 -0.2871  0.5398  0.2007
  733SOL    HW1 2198   1.477   1.275   0.795 -0.1312 -0.9842  0.5811
  733SOL    HW2 2199   1.396   1.166   0.700  0.5756  2.0560  2.7683
  734SOL     OW 2200   2.509   2.410   2.521  0.3842  0.2648  0.1519
  734SOL    HW1 2201   2.598   2.397   2.476  1.2173 -0.4395  0.3681
  734SOL    HW2 2202   2.453   2.329   2.497  0.7974  0.8157 -1.5422
  735SOL     OW 2203   0.700   0.166   1.028 -0.0639  0.4282  0.0201
  735SOL    HW1 2204   0.751   0.147   0.941  0.5471  1.7159 -0.3295
  735SOL    HW2 2205   0.763   0.153   1.110  5.1931  0.8912  0.9436
  736SOL     OW 2206   1.466   2.226   2.858  0.1286 -0.2724 -0.2618
  736SOL    HW1 2207   1.453   2.228   2.957  2.9486 -0.1285 -2.3479
  736SOL    HW2 2208   1.420   2.142   2.821 -1.0592 -1.2309 -0.0861
  737SOL     OW 2209   0.626   2.150   1.336 -0.4775  0.1560 -0.3292
  737SOL    HW1 2210   0.528   2.167   1.350  2.8291 -1.0098 -0.3744
  737SOL    HW2 2211   0.679   2.159   1.428 -0.1032  0.8198  0.4756
  738SOL     OW 2212   1.259   2.877   2.829  0.3915 -0.8811 -0.5320
  738SOL    HW1 2213   1.171   2.931   2.846 -0.1261 -0.0934  2.7469
  738SOL    HW2 2214   1.321   2.874   2.910 -1.0895  0.5747  0.7135
  739SOL     OW 2215   0.868   2.087   2.217 -0.0423 -0.0839  0.3333
  739SOL    HW1 2216   0.939   2.153   2.183  1.2415  1.6677  0.0683
  739SOL    HW2 2217   0.801   2.142   2.264  1.8520 -0.5215 -2.0182
  740SOL     OW 2218   1.379   2.340   1.378 -0.1478  0.8698 -0.2861
  740SOL    HW1 2219   1.325   2.371   1.296 -1.0221  0.6788  0.1364
  740SOL    HW2 2220   1.319   2.340   1.463  0.6403 -1.7134  1.3351
  741SOL     OW 2221   2.713   1.057   0.233  0.2131  0.4096  0.5885
  741SOL    HW1 2222   2.665   1.018   0.310 -0.9914  0.8813  0.7204
  741SOL    HW2 2223   2.668   1.147   0.205 -2.2536  1.5521 -1.5816
  742SOL     OW 2224   0.947   1.606   2.236  0.0648 -0.0878 -0.1403
  742SOL    HW1 2225   0.891   1.689   2.259  2.3892 -2.8940 -0.5762
  742SOL    HW2 2226   1.009   1.637   2.159  1.6417  3.3342  3.5480
  743SOL     OW 2227   0.476   0.945   2.838  0.6756 -0.3269  0.4838
  743SOL    HW1 2228   0.549   1.016   2.817  0.5510  1.3922  1.0407
  743SOL    HW2 2229   0.468   0.878   2.763  1.1018  0.5402  1.9402
  744SOL     OW 2230   2.217   2.379   1.174 -0.3789 -0.5156  0.2437
  744SOL    HW1 2231   2.309   2.426   1.149 -0.4726 -1.0748 -0.2010
  744SOL    HW2 2232   2.225   2.276   1.166 -1.8545 -1.1364  0.7566
  745SOL     OW 2233   2.205   1.488   1.437 -0.1216 -0.4490 -0.5423
  745SOL    HW1 2234   2.130   1.416   1.436  2.1102 -1.5820  0.3826
  745SOL    HW2 2235   2.183   1.568   1.379 -0.2470  0.8741 -1.3818
  746SOL     OW 2236   2.129   1.125   1.156 -0.0208  0.1806  0.2334
  746SOL    HW1 2237   2.188   1.207   1.141 -0.4408 -1.2503 -1.4403
  746SOL    HW2 2238   2.029   1.151   1.145 -2.6575 -0.1233  1.5510
  747SOL     OW 2239   1.790   1.722   0.704 -0.1072  0.5066  0.7008
  747SOL    HW1 2240   1.769   1.765   0.616 -0.1728 -2.5598  1.6415
  747SOL    HW2 2241   1.853   1.643   0.689 -2.0843 -2.0057  0.8369
  748SOL     OW 2242   0.582   1.468   0.512 -0.3288 -0.0333  0.2815
  748SOL    HW1 2243   0.563   1.553   0.574 -0.6994  5.0282 -0.1142
  748SOL    HW2 2244   0.551   1.478   0.415 -2.7569 -1.1899 -1.0201
  749SOL     OW 2245   3.072   2.746   2.443  0.3516 -0.7387 -0.5373
  749SOL    HW1 2246   3.040   2.768   2.539 -4.2837 -0.5510 -0.5461
  749SOL    HW2 2247   0.074   2.723   2.443  0.5482  0.6738  0.8077
  750SOL     OW 2248   2.062   0.370   1.112 -0.2112  0.2261  0.0348
  750SOL    HW1 2249   2.063   0.431   1.030  0.3389  1.6260  0.7719
  750SOL    HW2 2250   2.148   0.384   1.162  1.7982 -2.1062 -1.6356
  751SOL     OW 2251   2.287   0.039   0.377  0.3059  0.2308 -0.1066
  751SOL    HW1 2252   2.256   3.093   0.294 -0.4556 -4.4798  0.5016
  751SOL    HW2 2253   2.234   0.007   0.458 -0.6369 -0.9280 -4.0429
  752SOL     OW 2254   1.858   2.076   0.516  0.3819  0.0371  0.6059
  752SOL    HW1 2255   1.954   2.056   0.501 -1.6721  1.0873  0.0178
  752SOL    HW2 2256   1.803   1.991   0.489 -0.1361 -2.9689  0.9927
  753SOL     OW 2257   1.753   1.719   2.373 -0.4585  0.6340 -0.0431
  753SOL    HW1 2258   1.766   1.800   2.318  0.4383  0.2053  0.2586
  753SOL    HW2 2259   1.742   1.739   2.473 -2.0300 -1.6550  0.8609
  754SOL     OW 2260   2.531   2.150   1.374  0.0391 -0.2052  0.0660
  754SOL    HW1 2261   2.513   2.215   1.450 -0.3995 -0.7561 -2.3144
  754SOL    HW2 2262   2.515   2.183   1.281  2.5090 -0.8115 -3.5651
  755SOL     OW 2263   2.420   0.755   0.972  0.5078  0.6749  0.1105
  755SOL    HW1 2264   2.403   0.737   1.068 -0.9944 -0.2680 -1.9789
  755SOL    HW2 2265   2.497   0.701   0.932 -0.8808  4.4345  2.0001
  756SOL     OW 2266   1.170   1.369   2.653  0.1874  0.3528  0.5941
  756SOL    HW1 2267   1.170   1.268   2.651  0.7750 -1.3048 -0.6428
  756SOL    HW2 2268   1.258   1.396   2.694  0.7708 -3.6939 -1.2704
  757SOL     OW 2269   2.235   2.620   1.402 -0.0888  0.5720  0.1561
  757SOL    HW1 2270   2.203   2.559   1.327  1.0554  0.7312  0.9402
  757SOL    HW2 2271   2.319   2.593   1.450 -2.3035 -1.7589 -0.4946
  758SOL     OW 2272   1.075   2.235   1.397  0.2662 -0.1697  0.6785
  758SOL    HW1 2273   1.133   2.184   1.330  0.6766  3.3701  3.7661
  758SOL    HW2 2274   1.134   2.252   1.473  2.3625 -0.2506 -1.4701
  759SOL     OW 2275   2.353   1.316   1.061  0.0930  0.2833 -0.3188
  759SOL    HW1 2276   2.284   1.344   0.990 -0.4052 -3.1089 -2.1158
  759SOL    HW2 2277   2.449   1.330   1.027  0.6823  2.1684 -2.1320
  760SOL     OW 2278   2.152   0.915   1.340  0.2728  0.4814  0.8907
  760SOL    HW1 2279   2.212   0.959   1.406  2.0118 -1.5568 -0.0626
  760SOL    HW2 2280   2.144   0.977   1.261  0.7180 -1.5818 -0.9729
  761SOL     OW 2281   1.979   2.986   0.365  0.0339 -0.3021 -0.0927
  761SOL    HW1 2282   2.041   3.004   0.443 -0.6680  2.6494 -0.4794
  761SOL    HW2 2283   2.020   2.920   0.297 -0.3446 -0.5217 -3.4418
  762SOL     OW 2284   2.003   1.918   3.009 -0.3592 -0.7555 -0.1732
  762SOL    HW1 2285   1.942   1.953   2.933 -0.6044 -0.4336 -0.8936
  762SOL    HW2 2286   2.051   1.993   3.053 -3.5925 -0.3686 -0.7413
  763SOL     OW 2287   0.560   1.163   1.229  0.5577 -0.8275  0.7857
  763SOL    HW1 2288   0.546   1.257   1.200  1.3690 -1.4187  2.3424
  763SOL    HW2 2289   0.539   1.104   1.154  1.0290  0.0405 -1.5148
  764SOL     OW 2290   2.831   2.420   0.033 -0.0404 -0.8348  0.2492
  764SOL    HW1 2291   2.770   2.428   0.109  3.2900 -0.3622 -1.9823
  764SOL    HW2 2292   2.780   2.411   3.042 -0.2054  2.5014  1.1725
  765SOL     OW 2293   0.743   2.982   2.111 -0.0647  0.5317 -0.0066
  765SOL    HW1 2294   0.800   3.046   2.052 -1.9643 -2.6899  1.3092
  765SOL    HW2 2295   0.653   3.026   2.131  0.7763  1.3965  2.9515
  766SOL     OW 2296   2.988   2.076   2.345 -0.4489 -0.2067 -0.3099
  766SOL    HW1 2297   2.891   2.104   2.318 -0.0397 -0.3198 -0.0864
  766SOL    HW2 2298   3.012   1.987   2.301 -2.1384 -0.4426 -1.1794
  767SOL     OW 2299   3.033   1.433   1.806 -0.4016  0.0220 -0.9727
  767SOL    HW1 2300   2.999   1.403   1.900 -1.1705 -0.3689  0.9494
  767SOL    HW2 2301   3.084   1.518   1.812  0.1144  0.8412  1.5769
  768SOL     OW 2302   1.032   0.708   2.799 -0.5620 -0.0740  0.3642
  768SOL    HW1 2303   0.974   0.736   2.877  0.8510 -2.0918 -1.6261
  768SOL    HW2 2304   1.115   0.665   2.835 -0.1257  0.8334 -1.7101
  769SOL     OW 2305   1.752   2.155   0.285 -0.4746  0.6570  0.0874
  769SOL    HW1 2306   1.789   2.126   0.374  0.2858  0.0870 -0.5519
  769SOL    HW2 2307   1.799   2.247   0.264 -0.0478  2.1259  0.9248
  770SOL     OW 2308   2.850   0.213   0.100  0.3675 -0.2343  0.0859
  770SOL    HW1 2309   2.760   0.205   0.152 -1.0855 -0.7729  0.6484
  770SOL    HW2 2310   2.896   0.123   0.084 -0.2798 -1.1386 -0.1888
  771SOL     OW 2311   1.570   2.155   1.779 -0.3351  0.4423 -0.0644
  771SOL    HW1 2312   1.585   2.169   1.680  1.8025 -2.6864 -0.9279
  771SOL    HW2 2313   1.471   2.153   1.801  3.7789 -1.1749  0.2027
  772SOL     OW 2314   0.757   0.472   3.011  0.3724  0.0392 -0.1425
  772SOL    HW1 2315   0.724   0.560   2.975  1.0714 -1.5492 -1.8038
  772SOL    HW2 2316   0.806   0.420   2.938 -0.5968 -0.5247  2.2165
  773SOL     OW 2317   2.903   0.999   1.832  0.5671 -0.1781 -0.3435
  773SOL    HW1 2318   2.974   0.982   1.766 -0.3109 -1.9703 -0.5065
  773SOL    HW2 2319   2.940   0.975   1.926  0.4497  0.1710  3.2400
  774SOL     OW 2320   1.605   1.096   0.298  0.1658 -0.5002  0.0849
  774SOL    HW1 2321   1.577   1.173   0.358 -0.3678  0.6850  2.4509
  774SOL    HW2 2322   1.708   1.092   0.297 -1.9218  0.7564 -1.1770
  775SOL     OW 2323   2.218   3.014   0.124  0.5122 -0.0765 -0.4226
  775SOL    HW1 2324   2.305   2.978   0.089 -1.5105  1.9513  2.3371
  775SOL    HW2 2325   2.154   2.940   0.142 -1.7895  3.2219  3.6882
  776SOL     OW 2326   2.626   0.817   2.390  0.2827 -0.6024  0.5001
  776SOL    HW1 2327   2.650   0.903   2.442 -2.1078 -2.7023  0.3516
  776SOL    HW2 2328   2.633   0.839   2.288 -0.2155 -1.0901 -2.4678
  777SOL     OW 2329   0.219   1.268   2.707 -0.6382 -0.3813 -0.0064
  777SOL    HW1 2330   0.220   1.181   2.764 -1.5656 -2.4613 -0.8572
  777SOL    HW2 2331   0.191   1.257   2.610  0.6478 -1.9399 -1.5929
  778SOL     OW 2332   0.593   0.091   0.399  0.4408 -0.4534 -0.2113
  778SOL    HW1 2333   0.675   0.150   0.423  0.3199 -1.6566 -0.3509
  778SOL    HW2 2334   0.534   0.129   0.322 -1.0199  0.7836 -1.1786
  779SOL     OW 2335   0.790   0.808   2.702 -0.1688 -0.7155  0.0130
  779SOL    HW1 2336   0.811   0.907   2.725 -2.1195  3.7440 -0.6598
  779SOL    HW2 2337   0.873   0.752   2.705 -1.1858  1.0112  0.4872
  780SOL     OW 2338   2.098   0.800   2.258 -0.0543 -0.6114 -0.2270
  780SOL    HW1 2339   2.171   0.837   2.318 -1.8919 -0.9204  1.7431
  780SOL    HW2 2340   2.015   0.776   2.315 -1.7388  0.6514 -0.1265
  781SOL     OW 2341   3.043   0.975   2.067  0.2510  0.6614  0.2338
  781SOL    HW1 2342   0.039   0.991   2.031 -0.7017 -3.9774 -1.6751
  781SOL    HW2 2343   3.003   1.046   2.131 -1.6822  1.7561  0.6450
  782SOL     OW 2344   0.813   1.832   2.256  0.3741 -0.5036 -0.4665
  782SOL    HW1 2345   0.824   1.932   2.227  0.4773  3.3566  1.7520
  782SOL    HW2 2346   0.722   1.804   2.255  4.1946 -0.3345 -0.9007
  783SOL     OW 2347   0.679   2.480   1.502 -0.2855  0.7143  0.3019
  783SOL    HW1 2348   0.678   2.403   1.570 -0.9760 -2.7730 -0.1279
  783SOL    HW2 2349   0.757   2.466   1.433  1.7887 -2.8942 -0.3171
  784SOL     OW 2350   1.185   0.393   2.838 -0.5249  0.1156 -0.3626
  784SOL    HW1 2351   1.252   0.342   2.780  1.8691  1.2391 -1.1434
  784SOL    HW2 2352   1.223   0.484   2.869  1.4369 -1.8062  1.2445
  785SOL     OW 2353   0.934   0.315   2.851 -0.5741 -0.1581 -0.0977
  785SOL    HW1 2354   1.018   0.374   2.838  1.5728  1.1947  1.8327
  785SOL    HW2 2355   0.903   0.274   2.763  1.2296  0.2112  0.7319
  786SOL     OW 2356   0.428   1.800   0.290  0.4208  0.1497  0.3923
  786SOL    HW1 2357   0.363   1.726   0.324 -1.0462 -0.7200 -1.5660
  786SOL    HW2 2358   0.511   1.799   0.349  0.8680 -1.8126 -1.1354
  787SOL     OW 2359   1.856   1.094   0.365  0.0208  0.1779  0.0244
  787SOL    HW1 2360   1.951   1.111   0.330 -0.2948  1.2042  1.6672
  787SOL    HW2 2361   1.862   1.018   0.433  3.3430 -2.1053  0.3112
  788SOL     OW 2362   1.787   1.666   1.450  0.1604  0.2885 -0.5048
  788SOL    HW1 2363   1.716   1.735   1.425  1.6570 -1.8469  0.7215
  788SOL    HW2 2364   1.856   1.677   1.380 -0.6500 -2.9720 -0.3278
  789SOL     OW 2365   0.357   1.450   1.799  0.0952 -0.1438 -0.1601
  789SOL    HW1 2366   0.273   1.398   1.809  6.0538 -0.3958  1.4840
  789SOL    HW2 2367   0.408   1.467   1.883 -1.7520 -0.5170 -1.6943
  790SOL     OW 2368   0.398   2.833   0.241 -0.1111 -0.7514 -0.4693
  790SOL    HW1 2369   0.311   2.824   0.192  1.8414 -1.1209  0.0426
  790SOL    HW2 2370   0.375   2.824   0.342  1.9640  1.4263  0.6531
  791SOL     OW 2371   0.488   0.371   2.994  0.1985 -0.2899 -0.0405
  791SOL    HW1 2372   0.589   0.392   3.006  3.1161 -0.4221 -1.2434
  791SOL    HW2 2373   0.464   0.270   3.001 -2.2532 -0.3123 -2.5491
  792SOL     OW 2374   1.743   0.500   2.168  0.8161 -0.1239 -0.3604
  792SOL    HW1 2375   1.791   0.531   2.249 -4.1878 -2.4697 -0.9544
  792SOL    HW2 2376   1.640   0.511   2.186 -1.1198 -1.4132 -1.3388
  793SOL     OW 2377   0.423   0.696   0.862 -0.3217  0.6383  0.2309
  793SOL    HW1 2378   0.390   0.603   0.835  0.6271 -1.2395 -1.6739
  793SOL    HW2 2379   0.457   0.704   0.959 -0.8130 -1.1477  0.0671
  794SOL     OW 2380   0.633   0.174   1.780 -0.5051 -0.4241 -0.0645
  794SOL    HW1 2381   0.612   0.242   1.705 -0.7707  0.8064 -0.7335
  794SOL    HW2 2382   0.606   0.079   1.753  0.9456 -1.9383  1.1753
  795SOL     OW 2383   0.147   1.477   0.013  0.3584  0.0324  0.7965
  795SOL    HW1 2384   0.246   1.445   0.014  2.0975 -2.9278 -0.7837
  795SOL    HW2 2385   0.100   1.436   3.031 -0.0559 -0.3488  3.2672
  796SOL     OW 2386   3.051   0.412   0.073 -0.1463  0.0663 -0.2872
  796SOL    HW1 2387   0.047   0.398   0.036 -2.5990  0.1778  1.4850
  796SOL    HW2 2388   3.002   0.321   0.088  1.2693  1.5548  1.9919
  797SOL     OW 2389   1.440   2.496   2.745  0.7301  0.2983  0.0294
  797SOL    HW1 2390   1.351   2.543   2.765 -1.0968 -0.5748  0.0317
  797SOL    HW2 2391   1.445   2.399   2.776  4.0137 -2.0208 -1.8353
  798SOL     OW 2392   2.865   0.555   0.800  0.2984  0.2811 -0.1472
  798SOL    HW1 2393   2.827   0.507   0.717 -1.0282 -2.7526  2.3141
  798SOL    HW2 2394   2.962   0.578   0.779 -0.1293  0.0235 -1.4393
  799SOL     OW 2395   2.387   0.610   2.245  0.2950 -0.0787  0.0420
  799SOL    HW1 2396   2.438   0.667   2.310 -2.8744  1.1972 -0.0577
  799SOL    HW2 2397   2.312   0.562   2.299 -0.1991  2.2183  2.0911
  800SOL     OW 2398   0.066   2.083   0.345 -0.2578  0.1781  0.2080
  800SOL    HW1 2399   0.014   2.015   0.397 -1.2799 -1.0436 -0.8605
  800SOL    HW2 2400   0.125   2.034   0.275  2.5315 -1.4469 -1.7396
  801SOL     OW 2401   1.282   1.623   1.044  0.4733 -0.0897  0.0636
  801SOL    HW1 2402   1.366   1.660   0.997  0.3095 -1.9569 -2.9788
  801SOL    HW2 2403   1.241   1.549   0.980 -2.7889 -0.0212 -2.3612
  802SOL     OW 2404   1.198   1.517   2.391  0.3969 -0.0426  0.1643
  802SOL    HW1 2405   1.102   1.541   2.355 -1.3200  1.2905 -0.9333
  802SOL    HW2 2406   1.193   1.457   2.472 -0.5599  1.7037  1.4591
  803SOL     OW 2407   0.301   2.023   1.253  0.1423 -0.6845 -0.5042
  803SOL    HW1 2408   0.211   1.983   1.284  1.6228 -0.2654  1.9873
  803SOL    HW2 2409   0.359   1.953   1.208 -1.4632 -1.8784 -0.9194
  804SOL     OW 2410   1.066   2.645   1.494 -0.2389  0.2678 -0.0725
  804SOL    HW1 2411   1.118   2.710   1.434  0.0199 -0.7725 -0.5218
  804SOL    HW2 2412   1.117   2.619   1.578 -0.9564 -0.2521 -2.7863
  805SOL     OW 2413   2.177   1.653   3.092 -0.1056 -0.3608  0.9286
  805SOL    HW1 2414   2.255   1.682   3.032 -0.6690  1.6562  1.5360
  805SOL    HW2 2415   2.144   1.563   3.051  1.0061  3.3137 -2.1071
  806SOL     OW 2416   2.029   2.747   0.845 -0.1241  0.0913  0.0633
  806SOL    HW1 2417   2.122   2.770   0.816 -3.2743  0.6831  1.0673
  806SOL    HW2 2418   2.015   2.647   0.843  1.0680  0.8484 -1.1982
  807SOL     OW 2419   2.885   0.510   2.592 -0.0529  0.5773 -0.0808
  807SOL    HW1 2420   2.783   0.496   2.578  0.4787 -1.2108 -0.7953
  807SOL    HW2 2421   2.929   0.553   2.512  0.9545 -0.6435 -1.8601
  808SOL     OW 2422   0.390   1.197   0.420  0.0900 -0.5239  0.1318
  808SOL    HW1 2423   0.417   1.204   0.322  1.4089 -0.1982 -1.9577
  808SOL    HW2 2424   0.469   1.216   0.483 -1.4653  0.9954 -0.0483
  809SOL     OW 2425   2.593   0.883   2.116  0.4072  0.1194 -0.0038
  809SOL    HW1 2426   2.500   0.852   2.083 -0.3663 -0.6558 -0.9672
  809SOL    HW2 2427   2.666   0.852   2.053  3.8663  1.1972  0.1697
  810SOL     OW 2428   1.223   0.517   1.388 -0.1969 -0.4271 -0.0894
  810SOL    HW1 2429   1.275   0.475   1.304  2.5656 -1.3237 -1.3195
  810SOL    HW2 2430   1.275   0.507   1.472 -2.3355 -1.7304 -1.1175
  811SOL     OW 2431   2.168   2.978   1.732 -0.0416 -0.1854  0.5252
  811SOL    HW1 2432   2.176   3.041   1.652 -0.8238  0.6953 -1.6196
  811SOL    HW2 2433   2.090   2.912   1.726 -2.8935 -1.3760 -2.1925
  812SOL     OW 2434   1.472   2.318   0.030 -0.6548  0.2743  0.5002
  812SOL    HW1 2435   1.418   2.273   0.101  2.8538  1.5663  0.8373
  812SOL    HW2 2436   1.544   2.378   0.076 -1.0860  4.5694  0.0334
  813SOL     OW 2437   1.650   0.926   1.678  0.1399 -0.0018  0.3419
  813SOL    HW1 2438   1.558   0.889   1.698 -0.6842  1.1918  0.2762
  813SOL    HW2 2439   1.685   0.887   1.591 -0.7959  0.4900  2.5851
  814SOL     OW 2440   0.567   0.441   1.618 -0.5483 -0.1196  0.1248
  814SOL    HW1 2441   0.593   0.513   1.550  1.6913 -0.1364  2.1680
  814SOL    HW2 2442   0.575   0.478   1.716  1.6004 -1.1307 -1.0987
  815SOL     OW 2443   0.517   0.806   0.251  0.2365  0.4440  0.1564
  815SOL    HW1 2444   0.576   0.732   0.217  1.0442  2.4364  1.8426
  815SOL    HW2 2445   0.510   0.874   0.173  1.0951 -2.7329 -1.9046
  816SOL     OW 2446   2.151   1.632   2.576  0.2466 -0.0680  0.2680
  816SOL    HW1 2447   2.131   1.681   2.662  0.6091 -0.2300  1.0544
  816SOL    HW2 2448   2.186   1.698   2.502  1.1042  2.8682 -1.8180
  817SOL     OW 2449   0.748   2.521   0.411 -0.6201  0.1822 -0.3714
  817SOL    HW1 2450   0.675   2.452   0.424 -2.7755 -1.1619 -0.0292
  817SOL    HW2 2451   0.711   2.610   0.383  0.4857 -0.6570  0.2416
  818SOL     OW 2452   1.665   0.551   0.036 -0.1630  0.3545 -0.1089
  818SOL    HW1 2453   1.739   0.504   0.095  2.7106 -0.0175  1.2409
  818SOL    HW2 2454   1.699   0.566   3.040 -2.9721  1.6005  1.2130
  819SOL     OW 2455   1.524   0.364   0.185 -0.0296  0.2862 -0.3725
  819SOL    HW1 2456   1.567   0.418   0.107 -1.0556  1.4056 -2.3851
  819SOL    HW2 2457   1.425   0.388   0.190  0.2753 -0.0226  2.9809
  820SOL     OW 2458   1.876   0.449   0.173  0.3764 -0.5314 -0.3224
  820SOL    HW1 2459   1.886   0.451   0.274  0.6440  2.2980 -0.4495
  820SOL    HW2 2460   1.932   0.527   0.132 -0.6623  1.2132  1.7545
  821SOL     OW 2461   2.562   0.066   0.498 -0.5219 -0.0199  0.0936
  821SOL    HW1 2462   2.471   0.024   0.493  1.4629  1.2264 -1.2615
  821SOL    HW2 2463   2.630   0.013   0.545 -0.1781  3.2867  0.3065
  822SOL     OW 2464   0.684   2.359   1.912 -0.1979  0.5274  0.2120
  822SOL    HW1 2465   0.698   2.375   1.815  0.5675 -0.3063 -0.3410
  822SOL    HW2 2466   0.646   2.270   1.936  0.9213  4.0469  0.8263
  823SOL     OW 2467   0.298   1.374   1.378  0.7195  0.5720  0.7114
  823SOL    HW1 2468   0.226   1.311   1.343 -0.0847  1.7423 -0.8224
  823SOL    HW2 2469   0.360   1.324   1.437 -0.6887  3.9812 -0.2689
  824SOL     OW 2470   1.431   3.010   2.646 -0.1703  0.0165  0.0673
  824SOL    HW1 2471   1.525   3.021   2.688 -1.2793  0.1560  3.0965
  824SOL    HW2 2472   1.379   2.949   2.705  0.4170 -1.0850  3.6447
  825SOL     OW 2473   2.060   1.028   0.756  0.1211  0.3900 -0.4604
  825SOL    HW1 2474   2.098   0.957   0.819 -1.4804 -0.2733  1.7611
  825SOL    HW2 2475   1.959   1.014   0.754  0.7658  0.2187 -1.3018
  826SOL     OW 2476   1.992   0.692   0.123  0.3674  0.8816  0.7859
  826SOL    HW1 2477   2.073   0.720   0.176  0.9583  1.3925 -0.3189
  826SOL    HW2 2478   1.937   0.758   0.079  2.8472 -4.2502  3.1851
  827SOL     OW 2479   0.523   1.566   1.633  0.0749  0.0683  0.4755
  827SOL    HW1 2480   0.476   1.623   1.564  0.5548 -1.3799  0.1040
  827SOL    HW2 2481   0.455   1.524   1.691  0.3643  0.4459 -2.1667
  828SOL     OW 2482   2.402   1.601   1.835 -0.1413  0.0602 -0.2967
  828SOL    HW1 2483   2.408   1.694   1.881 -0.8191  3.4160  0.4760
  828SOL    HW2 2484   2.309   1.585   1.787 -1.2860 -0.8595 -2.7705
  829SOL     OW 2485   0.204   1.923   0.149  0.5474 -0.0701  0.4299
  829SOL    HW1 2486   0.285   1.898   0.204  0.7112  0.7007  1.8241
  829SOL    HW2 2487   0.179   1.846   0.085  0.1583  0.3320  0.2480
  830SOL     OW 2488   1.948   0.868   0.519 -0.4087 -0.3669  0.4831
  830SOL    HW1 2489   1.917   0.892   0.612  0.7465  2.2507  0.2260
  830SOL    HW2 2490   1.962   0.771   0.500  0.0232  1.8976 -0.0291
  831SOL     OW 2491   2.962   1.959   3.010 -0.1742 -0.1805 -0.3195
  831SOL    HW1 2492   3.006   2.038   2.971 -2.4266 -3.0388  3.6209
  831SOL    HW2 2493   3.029   1.912   3.072 -2.9650  0.0177 -0.1031
  832SOL     OW 2494   0.809   0.236   0.464 -0.2256 -0.0719 -0.1106
  832SOL    HW1 2495   0.784   0.332   0.487  0.4549  1.5672 -0.2426
  832SOL    HW2 2496   0.909   0.223   0.474 -2.5376 -0.1307  0.2653
  833SOL     OW 2497   0.596   0.542   1.874 -0.3228 -0.3510 -0.1110
  833SOL    HW1 2498   0.524   0.579   1.940 -0.4584 -0.7083  2.5262
  833SOL    HW2 2499   0.656   0.473   1.919 -0.5663 -0.5844  1.7410
  834SOL     OW 2500   0.324   0.466   0.750  0.2432  0.2292 -0.1306
  834SOL    HW1 2501   0.402   0.405   0.759  0.2875 -1.1698 -0.6354
  834SOL    HW2 2502   0.268   0.457   0.667  0.1902  1.7793  0.1761
  835SOL     OW 2503   3.024   2.622   0.964 -0.1331  0.2377 -0.3116
  835SOL    HW1 2504   2.945   2.644   1.025  2.1545 -1.6067 -1.6201
  835SOL    HW2 2505   3.052   2.702   0.900  0.1686  1.1938 -0.5273
  836SOL     OW 2506   0.573   1.977   0.127 -0.1362  0.4276  0.2052
  836SOL    HW1 2507   0.539   2.069   0.140  3.4721 -1.7933 -2.6956
  836SOL    HW2 2508   0.526   1.908   0.181 -0.2779  2.4727 -1.6570
  837SOL     OW 2509   1.387   1.575   2.724  0.0601  0.2215  0.5568
  837SOL    HW1 2510   1.474   1.576   2.782  2.3404  1.4544  0.6245
  837SOL    HW2 2511   1.407   1.620   2.634  0.5524 -1.7845  0.1976
  838SOL     OW 2512   0.450   1.130   1.968  0.5444  0.5782 -0.0174
  838SOL    HW1 2513   0.528   1.183   1.926 -0.3905  0.4249  0.9417
  838SOL    HW2 2514   0.470   1.094   2.061 -1.0984 -0.2928  1.1847
  839SOL     OW 2515   0.409   1.151   0.838  0.5430 -0.4907 -0.2593
  839SOL    HW1 2516   0.475   1.086   0.885  1.2669 -0.8261 -0.6187
  839SOL    HW2 2517   0.312   1.130   0.863  0.2132 -0.7269  0.3714
  840SOL     OW 2518   2.282   0.120   2.330 -0.8039  0.2027  0.0355
  840SOL    HW1 2519   2.214   0.192   2.330  2.0510 -3.0450 -2.7509
  840SOL    HW2 2520   2.376   0.150   2.354 -1.4283 -2.0959 -0.9288
  841SOL     OW 2521   0.689   2.372   0.137 -0.0945 -0.5091 -0.1496
  841SOL    HW1 2522   0.752   2.448   0.163 -0.3078  0.8059  0.0645
  841SOL    HW2 2523   0.735   2.321   0.060  3.4631 -2.8699 -1.3321
  842SOL     OW 2524   0.334   0.164   0.548  0.1536 -0.2455  0.1477
  842SOL    HW1 2525   0.424   0.132   0.505  2.1787 -0.6128  1.6968
  842SOL    HW2 2526   0.313   0.093   0.621 -0.4936 -0.9949 -0.5564
  843SOL     OW 2527   0.079   0.903   0.196 -0.3370 -0.5068  0.2634
  843SOL    HW1 2528   0.117   0.962   0.273  0.6408  1.2225  0.7559
  843SOL    HW2 2529   3.078   0.916   0.198  3.8857 -0.3379  1.4328
  844SOL     OW 2530   1.018   2.456   0.047 -0.0367 -0.1538 -0.2278
  844SOL    HW1 2531   0.968   2.371   0.018  2.5925 -0.6387 -1.2935
  844SOL    HW2 2532   1.113   2.456   0.011 -0.5773  0.2232  4.7840
  845SOL     OW 2533   2.240   2.963   2.472  0.2172  1.0579 -0.1854
  845SOL    HW1 2534   2.255   3.054   2.433  0.2482  0.7302 -0.0986
  845SOL    HW2 2535   2.145   2.956   2.501  1.3515 -0.5594  0.3361
  846SOL     OW 2536   1.866   2.013   2.778 -0.5886  0.0614  0.0146
  846SOL    HW1 2537   1.816   2.100   2.757  0.7989  3.2374 -2.5065
  846SOL    HW2 2538   1.929   2.002   2.701 -0.2349  0.4227 -0.4698
  847SOL     OW 2539   2.626   0.158   0.234  0.2933  0.4259 -0.4726
  847SOL    HW1 2540   2.531   0.204   0.239 -2.0272  3.0593 -2.0868
  847SOL    HW2 2541   2.649   0.096   0.310  0.2754  1.8340 -1.9238
  848SOL     OW 2542   0.740   0.518   0.444 -0.1706  0.2882  0.6405
  848SOL    HW1 2543   0.725   0.534   0.543 -2.1828  1.2754  3.7304
  848SOL    HW2 2544   0.646   0.514   0.408 -1.0878 -1.8702  0.7478
  849SOL     OW 2545   1.380   2.912   1.803  0.2869 -0.2723  0.2207
  849SOL    HW1 2546   1.446   2.847   1.844 -0.4565  2.5429 -0.7332
  849SOL    HW2 2547   1.288   2.882   1.834  0.6250 -2.5606  1.1190
  850SOL     OW 2548   0.748   1.232   0.415  0.0119 -0.2617  0.3971
  850SOL    HW1 2549   0.707   1.226   0.509 -0.0559  1.3516  0.4537
  850SOL    HW2 2550   0.805   1.150   0.397 -0.8730  0.8222 -1.5768
  851SOL     OW 2551   0.365   1.268   0.001  0.2594  0.9601 -0.7805
  851SOL    HW1 2552   0.308   1.186   0.030  0.4851 -2.2770  0.5201
  851SOL    HW2 2553   0.448   1.276   0.060 -1.2539  1.3069  2.2403
  852SOL     OW 2554   1.186   0.174   1.822 -0.6855  0.0137  0.6105
  852SOL    HW1 2555   1.117   0.118   1.873 -1.1139  0.4585  3.6368
  852SOL    HW2 2556   1.267   0.202   1.878 -1.1982  1.9979 -0.2330
  853SOL     OW 2557   2.692   1.612   0.026  0.0813  0.4506 -0.4100
  853SOL    HW1 2558   2.613   1.609   3.062  3.5067 -1.7431  0.4929
  853SOL    HW2 2559   2.664   1.630   0.124  0.1285 -1.5871 -1.4204
  854SOL     OW 2560   1.235   1.262   1.736  0.0345 -0.0165  0.3951
  854SOL    HW1 2561   1.151   1.262   1.677 -1.6199  1.8160  0.4762
  854SOL    HW2 2562   1.293   1.180   1.715 -0.1982  2.1638 -1.7141
  855SOL     OW 2563   0.087   2.452   0.331 -0.2994 -0.2926  0.0206
  855SOL    HW1 2564   0.020   2.377   0.325  1.7862  0.8969  0.9545
  855SOL    HW2 2565   0.158   2.441   0.262 -2.2268 -1.1932  1.1418
  856SOL     OW 2566   0.872   1.023   1.783 -0.4800  0.0111 -0.1270
  856SOL    HW1 2567   0.965   0.994   1.781 -0.7069  1.3402 -1.4901
  856SOL    HW2 2568   0.820   0.938   1.770  0.1906 -0.4083 -0.7956
  857SOL     OW 2569   1.326   0.857   2.442 -0.5760  0.6346 -0.2462
  857SOL    HW1 2570   1.290   0.849   2.346 -1.2019  0.0256  0.3703
  857SOL    HW2 2571   1.341   0.954   2.461 -0.9124  0.0615  0.7473
  858SOL     OW 2572   0.322   1.307   2.232  0.3134  0.3369  0.8912
  858SOL    HW1 2573   0.264   1.337   2.155  2.5612 -1.4449 -0.5738
  858SOL    HW2 2574   0.375   1.222   2.221 -0.6982  3.5480 -0.4991
  859SOL     OW 2575   2.553   0.334   1.151  0.3482  1.0694  0.2408
  859SOL    HW1 2576   2.602   0.285   1.080 -1.8792 -1.4071  1.9986
  859SOL    HW2 2577   2.619   0.401   1.198  0.0492  1.3204 -2.8719
  860SOL     OW 2578   1.701   2.975   0.341  0.0732  0.1643  0.9655
  860SOL    HW1 2579   1.652   3.060   0.349 -2.0621 -1.8143 -0.0674
  860SOL    HW2 2580   1.805   2.982   0.345 -0.0320 -0.6096  0.8112
  861SOL     OW 2581   0.917   0.372   1.063  0.3425 -0.4586  0.4906
  861SOL    HW1 2582   0.838   0.379   0.994 -2.8055 -0.0802 -0.2012
  861SOL    HW2 2583   0.982   0.441   1.043 -2.0677 -0.0182  2.2599
  862SOL     OW 2584   1.266   0.097   2.557  0.1496 -0.3952 -0.1972
  862SOL    HW1 2585   1.175   0.064   2.593 -3.2110 -0.2357  2.5443
  862SOL    HW2 2586   1.331   0.021   2.562 -2.0763  0.6393  0.0336
  863SOL     OW 2587   2.475   2.332   0.884 -0.0363  0.1443 -0.0779
  863SOL    HW1 2588   2.449   2.415   0.835  1.5128 -5.3238  0.8540
  863SOL    HW2 2589   2.491   2.258   0.814  0.9801 -0.3329 -0.1105
  864SOL     OW 2590   2.628   2.995   1.937 -0.5755  0.0680 -0.7709
  864SOL    HW1 2591   2.650   3.069   1.874  1.5738 -2.1176  0.6964
  864SOL    HW2 2592   2.531   2.976   1.923  1.2399 -0.0743  0.4026
  865SOL     OW 2593   1.406   0.801   1.708  0.7333 -0.3522  0.1987
  865SOL    HW1 2594   1.442   0.722   1.648  1.1312 -2.2625 -3.4031
  865SOL    HW2 2595   1.341   0.768   1.784  0.1924 -1.1876 -0.7003
  866SOL     OW 2596   1.445   2.799   1.120 -0.4796 -0.0153 -0.3096
  866SOL    HW1 2597   1.497   2.720   1.154  0.3291 -1.0620 -0.8273
  866SOL    HW2 2598   1.493   2.827   1.036 -1.0419  0.0551  1.3604
  867SOL     OW 2599   2.323   2.514   0.454 -0.2716 -0.0723  0.6085
  867SOL    HW1 2600   2.383   2.593   0.433 -0.6518  1.5478 -0.5420
  867SOL    HW2 2601   2.326   2.439   0.384 -1.3633  2.5834  1.7479
  868SOL     OW 2602   0.388   2.180   1.630  0.5539 -0.6188 -0.1819
  868SOL    HW1 2603   0.387   2.222   1.539  1.2589 -2.4983 -0.1576
  868SOL    HW2 2604   0.337   2.235   1.696  2.6688 -0.1962 -2.5953
  869SOL     OW 2605   2.011   2.455   2.648 -0.1718  0.5272 -0.3048
  869SOL    HW1 2606   1.977   2.434   2.554 -0.4016 -0.4769  1.8619
  869SOL    HW2 2607   2.049   2.545   2.649  0.6235 -3.5683 -0.7064
  870SOL     OW 2608   1.615   1.465   0.621 -0.2749  0.3924 -0.6219
  870SOL    HW1 2609   1.704   1.500   0.597  2.2930  2.1695  0.0328
  870SOL    HW2 2610   1.624   1.419   0.717 -2.4619  0.2239  1.7216
  871SOL     OW 2611   0.374   1.587   1.247  0.2412 -0.1401  0.4046
  871SOL    HW1 2612   0.393   1.659   1.317 -0.7471 -0.1155  0.1388
  871SOL    HW2 2613   0.330   1.504   1.287 -0.2812 -1.3409  1.3030
  872SOL     OW 2614   0.450   1.445   2.408  0.2821 -0.1325  0.0690
  872SOL    HW1 2615   0.399   1.390   2.338 -0.1516  1.0858  1.3810
  872SOL    HW2 2616   0.409   1.435   2.500 -0.7563 -0.7413 -0.4874
  873SOL     OW 2617   0.850   2.004   1.910 -0.0142  0.5411  0.5193
  873SOL    HW1 2618   0.901   2.028   1.996  2.5228 -0.4904  1.3187
  873SOL    HW2 2619   0.865   1.907   1.884 -2.1377  3.4964 -1.9991
  874SOL     OW 2620   0.915   0.704   1.556 -0.2491 -0.9067  0.1719
  874SOL    HW1 2621   0.935   0.606   1.543 -0.2482  2.8835  0.9271
  874SOL    HW2 2622   0.986   0.756   1.616  4.5905  2.1904  2.0644
  875SOL     OW 2623   2.665   2.625   0.668  0.2510 -0.9270  0.1793
  875SOL    HW1 2624   2.696   2.565   0.589 -0.7380 -0.2313 -2.6122
  875SOL    HW2 2625   2.742   2.679   0.699 -2.5758  0.4884 -0.7965
  876SOL     OW 2626   0.867   1.433   0.258 -0.4338 -0.3169 -0.6701
  876SOL    HW1 2627   0.825   1.362   0.320 -1.0375  2.9114  4.6411
  876SOL    HW2 2628   0.839   1.529   0.290 -2.1108  1.1359 -0.4992
  877SOL     OW 2629   2.981   0.286   0.829  0.1835 -0.2520  0.3089
  877SOL    HW1 2630   2.959   0.383   0.821 -2.8036  1.1673 -0.4783
  877SOL    HW2 2631   3.045   0.256   0.758 -0.8064 -3.1400  0.0437
  878SOL     OW 2632   2.155   1.622   0.523  0.4930  0.5887  0.2375
  878SOL    HW1 2633   2.121   1.603   0.430  2.0594  0.4743  0.7860
  878SOL    HW2 2634   2.116   1.560   0.591 -0.4654 -0.9668 -0.4338
  879SOL     OW 2635   2.350   1.571   1.152 -0.3090  0.0041 -0.1588
  879SOL    HW1 2636   2.343   1.467   1.149  0.1918  0.0685  2.6175
  879SOL    HW2 2637   2.445   1.597   1.163 -0.8134  0.2524  2.9736
  880SOL     OW 2638   0.426   2.343   0.835  0.4363 -0.0342 -0.5616
  880SOL    HW1 2639   0.323   2.326   0.825  0.5688  0.7717  0.4890
  880SOL    HW2 2640   0.453   2.398   0.920 -0.3965  2.4334  1.1454
  881SOL     OW 2641   0.983   0.839   0.954  0.0259  0.4204  0.1689
  881SOL    HW1 2642   0.949   0.829   0.858 -1.5856  0.1228 -1.3313
  881SOL    HW2 2643   1.073   0.888   0.965 -1.6412  1.7295 -0.2193
  882SOL     OW 2644   2.336   1.088   0.657 -0.3014 -0.2144 -0.0851
  882SOL    HW1 2645   2.338   1.080   0.555  3.8829 -2.9232  0.3631
  882SOL    HW2 2646   2.238   1.093   0.688 -1.1455 -0.8189 -1.3072
  883SOL     OW 2647   1.500   0.042   1.708  0.0565 -0.2423 -0.0506
  883SOL    HW1 2648   1.515   0.132   1.754  0.6309  0.6574  0.0872
  883SOL    HW2 2649   1.455   3.070   1.762  0.1631  0.8422  0.7931
  884SOL     OW 2650   2.932   0.030   1.700  0.5481  0.1461  0.2342
  884SOL    HW1 2651   2.956   0.089   1.621 -0.4908 -2.0631  0.4984
  884SOL    HW2 2652   2.944   3.029   1.669 -0.6671 -0.5384 -1.7550
  885SOL     OW 2653   1.179   0.840   2.206 -0.7465 -0.7184 -0.1302
  885SOL    HW1 2654   1.160   0.917   2.143  1.0685  1.6531  0.2308
  885SOL    HW2 2655   1.233   0.765   2.164  1.1870  1.0525 -1.3578
  886SOL     OW 2656   1.502   0.525   2.276  0.2223 -0.0250 -0.7355
  886SOL    HW1 2657   1.521   0.615   2.321 -0.0195 -0.3872 -1.8168
  886SOL    HW2 2658   1.453   0.459   2.343 -0.7640 -0.7703  1.8784
  887SOL     OW 2659   1.741   0.508   1.352  0.5479  0.2545 -0.1549
  887SOL    HW1 2660   1.709   0.503   1.254  0.9011 -0.3130  0.8721
  887SOL    HW2 2661   1.836   0.468   1.359  0.0452 -0.0011  0.2323
  888SOL     OW 2662   2.570   1.734   2.105 -0.0713  0.1789  0.4734
  888SOL    HW1 2663   2.644   1.745   2.037 -2.6188  0.3871 -0.9421
  888SOL    HW2 2664   2.563   1.634   2.127  2.3977  1.9435  0.5146
  889SOL     OW 2665   1.604   2.263   0.565  0.2755 -0.0877  0.5056
  889SOL    HW1 2666   1.636   2.309   0.485 -0.7559 -1.8228  1.7102
  889SOL    HW2 2667   1.544   2.184   0.529  3.1515 -1.4913  1.0111
  890SOL     OW 2668   0.761   1.837   0.569  0.5798 -0.2979  0.3838
  890SOL    HW1 2669   0.811   1.794   0.647  1.2868 -0.8436  1.0239
  890SOL    HW2 2670   0.675   1.882   0.600  2.4587  0.5346 -2.7128
  891SOL     OW 2671   2.659   0.859   2.754 -0.2276  0.4822  0.6992
  891SOL    HW1 2672   2.727   0.783   2.777  3.1863  0.7241  1.9450
  891SOL    HW2 2673   2.608   0.893   2.836  1.2675  1.4341  1.1026
  892SOL     OW 2674   0.942   0.390   2.426 -0.2668 -0.1304 -0.3923
  892SOL    HW1 2675   0.874   0.378   2.345  0.6054 -1.0582  0.3832
  892SOL    HW2 2676   0.912   0.341   2.510  0.5441 -1.0076  0.5478
  893SOL     OW 2677   1.567   0.121   0.925  0.3975 -0.0251  0.0480
  893SOL    HW1 2678   1.645   0.148   0.980 -2.2685 -0.7305  0.1211
  893SOL    HW2 2679   1.500   0.066   0.982 -1.2717 -3.2148 -0.6935
  894SOL     OW 2680   2.845   3.021   1.011 -0.4316  0.1253 -0.2875
  894SOL    HW1 2681   2.912   3.055   1.083  0.9748 -0.9717  1.3794
  894SOL    HW2 2682   2.792   2.939   1.051  1.2878  0.7645 -1.6691
  895SOL     OW 2683   1.782   2.769   2.974 -0.0032  0.3543  0.0795
  895SOL    HW1 2684   1.725   2.731   2.901  0.8677  1.4085  1.4238
  895SOL    HW2 2685   1.872   2.719   2.978 -0.0580 -1.4125 -0.1538
  896SOL     OW 2686   2.104   0.025   1.977 -0.6796  0.0034 -0.3100
  896SOL    HW1 2687   2.152   3.080   1.894 -2.2996 -0.4884 -0.1258
  896SOL    HW2 2688   2.000   0.033   1.958 -1.7326  3.3702  0.6206
  897SOL     OW 2689   0.344   1.918   1.676  0.3778  1.5408 -0.3497
  897SOL    HW1 2690   0.374   1.915   1.772 -0.0146  2.4657 -1.4744
  897SOL    HW2 2691   0.360   2.010   1.634 -1.1582 -1.4641  0.0990
  898SOL     OW 2692   2.728   1.744   1.880  0.3910  0.5191 -0.4940
  898SOL    HW1 2693   2.708   1.837   1.851 -1.4857 -0.3049 -0.2603
  898SOL    HW2 2694   2.701   1.680   1.808 -0.4573  1.9184  0.9782
  899SOL     OW 2695   1.396   2.020   0.921 -0.1486 -0.1713  0.1498
  899SOL    HW1 2696   1.304   2.000   0.889  0.7418  1.0599  0.0373
  899SOL    HW2 2697   1.461   1.990   0.845  0.9944  1.8244 -1.9734
  900SOL     OW 2698   0.699   3.050   2.935  0.1366 -0.3421  0.3667
  900SOL    HW1 2699   0.718   2.976   2.872  1.4335  2.1605  0.3011
  900SOL    HW2 2700   0.780   0.020   2.947  0.2697  1.5720 -0.5055
  901SOL     OW 2701   1.433   1.638   2.457  0.2877 -0.4426 -0.2703
  901SOL    HW1 2702   1.343   1.595   2.429 -1.9980  1.8487  0.4068
  901SOL    HW2 2703   1.432   1.739   2.435  1.1834  2.9976 -0.4101
  902SOL     OW 2704   2.734   0.144   2.929  0.1931 -0.1969  0.2603
  902SOL    HW1 2705   2.757   0.197   3.007 -0.0882 -1.6785 -1.5286
  902SOL    HW2 2706   2.817   0.099   2.887  0.4681  0.3097 -1.4930
  903SOL     OW 2707   2.091   0.706   2.008 -0.4691 -0.3541  0.0893
  903SOL    HW1 2708   2.103   0.757   2.096 -0.2295 -1.4481  2.3957
  903SOL    HW2 2709   2.066   0.607   2.023 -0.3929 -2.5281  0.7262
  904SOL     OW 2710   1.369   0.298   2.421 -0.0620 -0.5965  0.0423
  904SOL    HW1 2711   1.423   0.346   2.497  0.5248  1.2502 -0.2100
  904SOL    HW2 2712   1.319   0.223   2.461  1.3448  1.7673  0.1591
  905SOL     OW 2713   2.033   2.461   1.567 -0.3396  0.1028  0.6439
  905SOL    HW1 2714   2.116   2.517   1.537  1.6474  2.2712 -2.5893
  905SOL    HW2 2715   2.006   2.472   1.662 -1.0867  0.6459 -1.2826
  906SOL     OW 2716   1.479   1.808   0.382 -0.4026  0.7937  0.0424
  906SOL    HW1 2717   1.468   1.750   0.301  2.7525 -0.2048  0.7428
  906SOL    HW2 2718   1.466   1.754   0.468  0.0935 -4.1602  1.2537
  907SOL     OW 2719   1.153   2.980   0.756  0.5477  0.4728  0.0144
  907SOL    HW1 2720   1.236   3.026   0.714 -0.0587 -0.9062 -0.8018
  907SOL    HW2 2721   1.122   3.011   0.849 -2.7879 -1.4813 -0.5726
  908SOL     OW 2722   1.417   2.455   1.956 -0.2067  0.0901  0.4004
  908SOL    HW1 2723   1.462   2.544   1.921 -1.3067  0.6525  0.1138
  908SOL    HW2 2724   1.360   2.470   2.034 -1.3019 -1.1349 -2.2245
  909SOL     OW 2725   2.052   0.424   2.067 -0.1274 -0.4562  0.0563
  909SOL    HW1 2726   2.153   0.401   2.055  1.3858  3.4093  2.3794
  909SOL    HW2 2727   1.993   0.394   1.990 -2.3080  2.4333 -0.8522
  910SOL     OW 2728   1.116   1.093   2.947  0.2625  0.6431 -0.8372
  910SOL    HW1 2729   1.085   1.033   3.021 -1.4165  0.9942  2.2039
  910SOL    HW2 2730   1.210   1.130   2.965 -0.4676  3.8319  0.6848
  911SOL     OW 2731   2.970   1.073   0.198 -0.1183 -1.0144 -0.1108
  911SOL    HW1 2732   3.005   1.167   0.212 -0.9201 -1.5606 -0.9829
  911SOL    HW2 2733   2.869   1.072   0.207  0.5947 -0.9618  1.2896
  912SOL     OW 2734   0.207   2.206   0.536 -0.1799 -0.1415  0.6334
  912SOL    HW1 2735   0.148   2.170   0.461 -0.6798 -1.0291  0.7374
  912SOL    HW2 2736   0.308   2.193   0.510  1.9140 -1.1511 -1.1640
  913SOL     OW 2737   2.793   2.350   2.447  0.1563 -0.0430 -0.0055
  913SOL    HW1 2738   2.755   2.278   2.388  0.8334  1.2539  0.6003
  913SOL    HW2 2739   2.836   2.307   2.529 -0.2627 -1.3076 -0.3362
  914SOL     OW 2740   1.224   1.904   1.642 -0.3587  0.3797 -0.1646
  914SOL    HW1 2741   1.284   1.948   1.577  0.7234 -1.1629  1.1970
  914SOL    HW2 2742   1.238   1.804   1.649  0.5241  1.9256  1.9777
  915SOL     OW 2743   0.843   2.754   2.227  0.1062 -0.0462  0.3087
  915SOL    HW1 2744   0.813   2.848   2.206 -1.1088 -1.6764  2.0583
  915SOL    HW2 2745   0.831   2.733   2.326 -0.2009 -1.9074 -1.2180
  916SOL     OW 2746   0.469   0.868   1.827  0.0797  0.3677  0.3118
  916SOL    HW1 2747   0.560   0.828   1.808  0.8385 -0.2737 -0.2661
  916SOL    HW2 2748   0.478   0.969   1.833  0.5367 -0.1661 -0.0431
  917SOL     OW 2749   2.799   0.387   0.589  0.1741 -0.5052  0.5813
  917SOL    HW1 2750   2.838   0.309   0.537  1.5600  1.2428 -4.9430
  917SOL    HW2 2751   2.695   0.389   0.575 -0.1233 -0.3326 -1.1847
  918SOL     OW 2752   1.691   2.599   2.762 -0.2916 -0.0538 -0.1155
  918SOL    HW1 2753   1.749   2.534   2.818 -1.2022 -2.8202 -0.0144
  918SOL    HW2 2754   1.595   2.564   2.744 -2.8005  2.1906  2.2683
  919SOL     OW 2755   1.590   2.624   1.604 -0.9422 -0.7927  0.0900
  919SOL    HW1 2756   1.577   2.572   1.515 -0.1929  1.3778 -2.9324
  919SOL    HW2 2757   1.618   2.725   1.586  0.1852  3.1242 -1.7188
  920SOL     OW 2758   0.627   0.694   2.942 -1.0221  0.0990  0.8177
  920SOL    HW1 2759   0.658   0.767   2.880  2.5079 -1.3245 -1.2975
  920SOL    HW2 2760   0.533   0.715   2.972 -1.1108  0.4902 -1.5433
  921SOL     OW 2761   2.881   0.711   2.784  0.0658  0.2925  0.0076
  921SOL    HW1 2762   2.965   0.770   2.789 -0.2416  1.4216  0.6286
  921SOL    HW2 2763   2.900   0.628   2.724 -0.4936 -0.1777  1.4998
  922SOL     OW 2764   0.439   1.932   0.974  0.3130  0.3065  0.5638
  922SOL    HW1 2765   0.484   1.930   1.064  1.3529  0.6075 -1.2143
  922SOL    HW2 2766   0.476   2.012   0.919 -3.1761 -0.3161 -3.7173
  923SOL     OW 2767   0.659   1.234   1.795  0.2778 -0.1822  0.1432
  923SOL    HW1 2768   0.729   1.161   1.817  3.5352 -0.1703 -0.4698
  923SOL    HW2 2769   0.693   1.323   1.824  1.5045 -1.2908 -2.2069
  924SOL     OW 2770   1.528   0.094   2.992 -0.3398  0.4227  0.3023
  924SOL    HW1 2771   1.465   0.036   3.047  0.8402 -2.1684  1.2488
  924SOL    HW2 2772   1.626   0.064   3.012  0.3937 -0.6922  4.4403
  925SOL     OW 2773   2.850   1.484   1.216  0.6484  0.0983 -0.3119
  925SOL    HW1 2774   2.756   1.442   1.216 -2.1450 -0.1691  1.0090
  925SOL    HW2 2775   2.900   1.462   1.304  1.0727  1.0250  1.1556
  926SOL     OW 2776   2.536   0.662   1.409  0.1857  0.1896  0.6478
  926SOL    HW1 2777   2.617   0.625   1.362 -1.9440 -0.0463 -1.1378
  926SOL    HW2 2778   2.472   0.587   1.434  2.3809 -1.5825 -0.9860
  927SOL     OW 2779   2.068   3.056   1.286  0.4400  0.0314  0.4262
  927SOL    HW1 2780   2.088   2.974   1.337  1.2383  0.9086  0.9018
  927SOL    HW2 2781   2.150   0.019   1.279 -0.6445 -1.2197 -1.4092
  928SOL     OW 2782   0.174   1.262   2.448 -0.2207  0.1388  0.7501
  928SOL    HW1 2783   0.235   1.283   2.369  1.0526  3.5712 -0.1107
  928SOL    HW2 2784   0.114   1.182   2.423  0.3327 -3.6005 -2.5880
  929SOL     OW 2785   2.828   0.984   1.260  0.1304 -0.7477  0.7041
  929SOL    HW1 2786   2.768   1.013   1.182  1.0318 -0.9210  0.2176
  929SOL    HW2 2787   2.803   1.038   1.342 -0.7107 -1.6366 -1.2674
  930SOL     OW 2788   2.983   2.545   2.155 -0.5232 -0.3068 -0.3885
  930SOL    HW1 2789   2.994   2.647   2.170 -2.9808 -1.6146 -0.4526
  930SOL    HW2 2790   2.999   2.526   2.057 -0.1022  2.1275 -0.5844
  931SOL     OW 2791   1.981   0.404   1.368 -0.1004  0.1722  0.2048
  931SOL    HW1 2792   2.008   0.393   1.266 -0.5599  2.9469  0.4114
  931SOL    HW2 2793   2.040   0.481   1.406  0.6183  1.9101 -3.2721
  932SOL     OW 2794   0.167   1.042   1.891  0.0681  0.1188 -0.1485
  932SOL    HW1 2795   0.257   1.088   1.912  2.3037 -1.7426  1.0788
  932SOL    HW2 2796   0.122   1.100   1.820 -1.4263  0.1350 -0.1482
  933SOL     OW 2797   2.732   2.021   1.491  0.2729 -0.0988 -0.1676
  933SOL    HW1 2798   2.649   2.077   1.453 -1.0225  0.4195  1.0023
  933SOL    HW2 2799   2.760   1.940   1.436  1.5918 -1.9045  0.6643
  934SOL     OW 2800   0.428   1.762   1.454 -0.3141  0.1286 -0.0842
  934SOL    HW1 2801   0.524   1.799   1.441  0.8992 -0.0203  0.0478
  934SOL    HW2 2802   0.377   1.823   1.519  1.7528  0.9884 -1.7163
  935SOL     OW 2803   2.999   1.436   1.443  0.1659  0.5446 -0.0850
  935SOL    HW1 2804   2.995   1.497   1.522 -0.2031 -3.1976 -0.2933
  935SOL    HW2 2805   3.025   1.339   1.463  2.1319  2.5528  0.2603
  936SOL     OW 2806   2.570   1.420   1.741 -0.6560 -0.4626  0.2238
  936SOL    HW1 2807   2.590   1.343   1.807 -1.5911 -2.0579  0.8284
  936SOL    HW2 2808   2.494   1.474   1.784  1.3337  0.0006  1.4933
  937SOL     OW 2809   2.125   0.600   1.459  0.3980  0.0786  0.5094
  937SOL    HW1 2810   2.214   0.622   1.501  0.0148 -1.7998  2.0962
  937SOL    HW2 2811   2.062   0.677   1.491  1.7226 -0.0802 -0.9792
  938SOL     OW 2812   0.441   2.811   2.937  0.0362  0.4547 -0.2870
  938SOL    HW1 2813   0.460   2.750   3.019 -0.3860  0.3151 -1.5314
  938SOL    HW2 2814   0.500   2.772   2.862 -0.3142 -0.3346 -2.2485
  939SOL     OW 2815   2.721   1.982   2.637  0.2785  0.6290  0.3247
  939SOL    HW1 2816   2.791   1.914   2.595  0.0436 -4.6979  0.8724
  939SOL    HW2 2817   2.652   2.010   2.568 -0.7304  0.2149 -0.8125
  940SOL     OW 2818   1.403   2.062   0.464  0.3910  0.0602 -0.3976
  940SOL    HW1 2819   1.324   2.051   0.529 -3.2906 -1.3803 -2.1119
  940SOL    HW2 2820   1.434   1.975   0.420 -0.0907  2.0020 -3.2095
  941SOL     OW 2821   2.022   2.644   3.026 -0.7911  0.8266  0.3101
  941SOL    HW1 2822   2.102   2.644   2.960 -0.6238  0.7750  0.2983
  941SOL    HW2 2823   2.007   2.547   3.061  0.6633 -1.2435  2.9267
  942SOL     OW 2824   1.754   2.170   1.020  0.4087 -0.4732 -0.7885
  942SOL    HW1 2825   1.821   2.237   1.063 -0.2758  0.1101 -0.9739
  942SOL    HW2 2826   1.786   2.136   0.930 -2.1126 -0.7324  2.1858
  943SOL     OW 2827   2.488   1.068   1.877 -0.2445  0.6716  0.2365
  943SOL    HW1 2828   2.420   1.139   1.888  0.1458 -1.1341  0.2862
  943SOL    HW2 2829   2.458   0.985   1.937 -2.1699 -1.9517  4.3658
  944SOL     OW 2830   1.426   0.726   2.649 -0.2702  0.5777 -0.2848
  944SOL    HW1 2831   1.459   0.634   2.623 -0.4844 -1.4400  1.8791
  944SOL    HW2 2832   1.384   0.766   2.571  1.7906 -1.5758  5.0103
  945SOL     OW 2833   2.765   2.126   1.165  0.6894  1.3008 -0.8658
  945SOL    HW1 2834   2.747   2.055   1.233 -1.4618  2.1434 -1.8565
  945SOL    HW2 2835   2.741   2.221   1.192 -3.4716 -0.7412  2.2159
  946SOL     OW 2836   0.511   0.929   3.090 -1.1455  0.1122 -0.4308
  946SOL    HW1 2837   0.602   0.965   0.026  1.1281 -0.3709  0.9871
  946SOL    HW2 2838   0.513   0.918   2.989  0.7673 -2.0356  2.3012
  947SOL     OW 2839   1.912   2.829   1.696  0.4191 -0.0831  0.1158
  947SOL    HW1 2840   1.854   2.912   1.681 -0.4181 -0.3665  4.6922
  947SOL    HW2 2841   1.883   2.788   1.786  3.0200 -1.6626  0.0417
  948SOL     OW 2842   0.232   1.762   0.886  0.4342  0.2983 -0.6611
  948SOL    HW1 2843   0.314   1.816   0.919  2.8490  2.4998  2.6332
  948SOL    HW2 2844   0.190   1.733   0.973  0.5846  2.9458 -0.7269
  949SOL     OW 2845   1.279   1.022   1.638  0.5220  0.3824  0.5044
  949SOL    HW1 2846   1.321   1.056   1.552 -0.8633 -1.0468  0.1528
  949SOL    HW2 2847   1.330   0.946   1.678 -2.1025 -1.8757  0.4332
  950SOL     OW 2848   0.183   0.857   0.929 -0.3151  0.0255  0.0450
  950SOL    HW1 2849   0.160   0.941   0.874  1.1905 -1.9336 -0.5466
  950SOL    HW2 2850   0.270   0.826   0.892  0.4608  0.1807  1.3295
  951SOL     OW 2851   0.378   2.070   2.139 -0.1033 -0.2176 -0.2671
  951SOL    HW1 2852   0.344   1.984   2.096 -1.3783  0.0127  1.4256
  951SOL    HW2 2853   0.475   2.091   2.108 -2.0457  0.0670 -0.2227
  952SOL     OW 2854   1.632   1.450   0.177 -0.5278  0.0322  0.1965
  952SOL    HW1 2855   1.546   1.508   0.182  2.3402 -1.6001 -0.4502
  952SOL    HW2 2856   1.637   1.400   0.086  1.5176  1.6560 -0.6482
  953SOL     OW 2857   1.083   0.567   0.067  0.3150  0.4784  0.1092
  953SOL    HW1 2858   1.010   0.505   0.100 -1.6341  0.9956  0.7315
  953SOL    HW2 2859   1.043   0.651   0.026 -0.3367 -0.3970  0.4020
  954SOL     OW 2860   2.178   1.336   0.561  0.0965  0.1798  0.7978
  954SOL    HW1 2861   2.253   1.366   0.501  0.2851  2.6669 -0.5939
  954SOL    HW2 2862   2.103   1.312   0.490 -3.3983  1.7382 -2.2856
  955SOL     OW 2863   2.595   2.744   3.079 -0.3185  0.5931 -0.5854
  955SOL    HW1 2864   2.600   2.765   2.983 -1.2257 -2.5518  0.1717
  955SOL    HW2 2865   2.694   2.729   0.012  2.3117 -0.4160  1.4084
  956SOL     OW 2866   1.153   0.782   1.317 -0.7498 -0.2130  0.5943
  956SOL    HW1 2867   1.243   0.799   1.264  3.3851  2.0583 -1.2483
  956SOL    HW2 2868   1.154   0.692   1.367  0.4784 -1.5557 -1.5151
  957SOL     OW 2869   1.433   1.143   1.120  0.4109  0.2386  0.0485
  957SOL    HW1 2870   1.415   1.238   1.156 -0.1571 -0.0714 -1.4692
  957SOL    HW2 2871   1.441   1.071   1.190 -1.4580  0.5553  2.1676
  958SOL     OW 2872   0.475   1.664   0.676  0.2270  0.0097 -0.0758
  958SOL    HW1 2873   0.395   1.642   0.737 -1.1660 -0.6558  1.7832
  958SOL    HW2 2874   0.482   1.768   0.671  1.0158  1.8205 -0.7014
  959SOL     OW 2875   1.922   1.372   0.942  0.2280  0.1119 -0.4668
  959SOL    HW1 2876   1.900   1.460   0.988 -0.8239  1.9801 -1.0117
  959SOL    HW2 2877   1.891   1.297   1.003  2.3442  1.5964 -0.2513
  960SOL     OW 2878   0.006   1.381   2.878  0.2422 -0.3779  0.0271
  960SOL    HW1 2879   0.063   1.324   2.820  1.6267  1.5567  0.2568
  960SOL    HW2 2880   3.007   1.347   2.879 -0.0762  0.9041 -0.1769
  961SOL     OW 2881   1.000   1.459   0.716  0.5852  0.2396 -0.3672
  961SOL    HW1 2882   0.934   1.377   0.709 -1.8008 -0.7983 -0.6990
  961SOL    HW2 2883   0.955   1.536   0.762  1.5713 -1.0410 -1.3921
  962SOL     OW 2884   1.145   1.129   0.271 -0.4719  0.1344  0.3240
  962SOL    HW1 2885   1.185   1.178   0.349  2.3993 -0.2081 -0.4147
  962SOL    HW2 2886   1.149   1.194   0.190 -0.7698 -1.0955  0.3981
  963SOL     OW 2887   1.301   2.170   2.296 -0.2112  0.2419 -0.3869
  963SOL    HW1 2888   1.405   2.172   2.295 -1.0506 -0.4387  0.6074
  963SOL    HW2 2889   1.276   2.078   2.264  2.8113  0.1831  1.6790
  964SOL     OW 2890   2.836   2.693   0.042  0.5048 -0.0388  0.0806
  964SOL    HW1 2891   2.839   2.588   0.025 -1.7358 -2.0666 -0.2700
  964SOL    HW2 2892   2.926   2.728   0.009 -0.3507 -0.7149 -1.3115
  965SOL     OW 2893   0.465   2.215   0.200 -0.4455  0.1560  0.2859
  965SOL    HW1 2894   0.542   2.280   0.207 -1.3144 -0.6968 -0.4386
  965SOL    HW2 2895   0.407   2.231   0.117 -0.2928  0.4964 -0.8957
  966SOL     OW 2896   3.041   1.637   2.730 -0.2015  0.4026 -0.1114
  966SOL    HW1 2897   2.995   1.659   2.818  0.0092  0.0896 -0.8958
  966SOL    HW2 2898   3.000   1.699   2.661 -1.1757  2.1534 -1.4059
  967SOL     OW 2899   1.778   3.043   2.998  0.2589 -0.1315  0.3253
  967SOL    HW1 2900   1.771   2.944   3.016  3.0772  1.4112  0.4969
  967SOL    HW2 2901   1.868   3.070   2.955  2.3611  1.1847  1.0054
  968SOL     OW 2902   1.924   3.011   0.766  0.2384  0.1234  0.0293
  968SOL    HW1 2903   1.832   3.007   0.725  1.8704 -1.2785  2.0630
  968SOL    HW2 2904   1.962   2.920   0.785  0.3487 -0.1842  1.1634
  969SOL     OW 2905   0.651   1.362   2.113  0.4791  0.2742  0.2613
  969SOL    HW1 2906   0.736   1.366   2.061 -1.3095 -0.7011  0.6225
  969SOL    HW2 2907   0.661   1.310   2.200  0.6968 -0.2789  0.2557
  970SOL     OW 2908   1.629   1.347   0.858  0.2106 -0.3721 -0.2250
  970SOL    HW1 2909   1.695   1.273   0.853  1.7465  0.7869 -0.2023
  970SOL    HW2 2910   1.652   1.406   0.940 -2.1119  3.6919  2.0831
  971SOL     OW 2911   2.213   0.107   1.582  0.0582 -0.1325 -0.1748
  971SOL    HW1 2912   2.126   0.157   1.584  0.4968  1.2860  0.3446
  971SOL    HW2 2913   2.266   0.133   1.499  0.7390  1.1028  0.0846
  972SOL     OW 2914   0.142   0.185   1.527 -0.1957  0.1140  0.1642
  972SOL    HW1 2915   0.212   0.242   1.577 -1.3323  0.2373 -2.2012
  972SOL    HW2 2916   0.123   0.098   1.577  0.7505 -1.1754 -1.6248
  973SOL     OW 2917   0.165   0.351   2.706 -0.4398  0.0535 -0.4093
  973SOL    HW1 2918   0.063   0.356   2.718  0.0498  0.3985 -1.0409
  973SOL    HW2 2919   0.212   0.441   2.718  0.2649  1.2291  2.6380
  974SOL     OW 2920   2.115   1.416   2.378  0.1540 -0.0342  0.0205
  974SOL    HW1 2921   2.145   1.474   2.454 -0.6061 -3.3680 -0.2556
  974SOL    HW2 2922   2.173   1.332   2.361  2.8193  1.3874  0.3286
  975SOL     OW 2923   0.484   0.138   1.336  0.3482 -0.3201  0.4250
  975SOL    HW1 2924   0.471   0.245   1.334 -0.0953  2.6573  0.4895
  975SOL    HW2 2925   0.397   0.088   1.320 -1.8182  1.1361 -0.8872
  976SOL     OW 2926   0.989   2.228   2.485  0.1750  0.2732  0.7825
  976SOL    HW1 2927   1.088   2.250   2.495  1.2589  1.6670  1.1075
  976SOL    HW2 2928   0.930   2.290   2.431  2.1782  1.5897 -1.0478
  977SOL     OW 2929   0.622   0.007   0.677  0.8217  0.3697  0.4307
  977SOL    HW1 2930   0.601   0.021   0.580  3.3858  2.4506 -2.5762
  977SOL    HW2 2931   0.604   3.007   0.700 -1.5629 -2.1752 -1.0156
  978SOL     OW 2932   2.964   1.359   2.051 -0.0964  0.0632  0.6208
  978SOL    HW1 2933   2.969   1.291   2.127 -1.8121 -0.7722 -3.7296
  978SOL    HW2 2934   2.890   1.426   2.071  1.4488  0.4764 -0.8012
  979SOL     OW 2935   1.749   3.066   1.674  0.9444 -0.0955  0.0495
  979SOL    HW1 2936   1.800   0.007   1.595 -1.3362  1.7502 -1.0933
  979SOL    HW2 2937   1.648   3.087   1.672  0.1680 -0.1654 -1.2946
  980SOL     OW 2938   1.521   1.620   1.999 -0.0658  0.1647  0.0668
  980SOL    HW1 2939   1.417   1.606   1.988 -4.7276 -0.4500  3.4363
  980SOL    HW2 2940   1.557   1.570   2.085  1.9118 -1.1387 -1.3587
  981SOL     OW 2941   2.790   0.832   1.541 -0.1324  0.2380 -0.1590
  981SOL    HW1 2942   2.742   0.917   1.581  1.1109 -1.4342  0.6037
  981SOL    HW2 2943   2.888   0.836   1.561 -1.1768  0.4599 -0.7277
  982SOL     OW 2944   0.274   0.097   2.809  0.5697  0.5386 -0.0972
  982SOL    HW1 2945   0.223   0.045   2.736  1.5375  1.2932 -1.9924
  982SOL    HW2 2946   0.251   0.200   2.802 -0.6379  1.6530  0.1587
  983SOL     OW 2947   2.612   0.477   2.527 -0.0177  0.0271 -0.0606
  983SOL    HW1 2948   2.561   0.562   2.555  0.0685  0.7426 -1.1374
  983SOL    HW2 2949   2.633   0.478   2.429 -0.5683 -1.6181  1.6197
  984SOL     OW 2950   1.119   3.082   2.146  0.1754 -0.2464 -0.2516
  984SOL    HW1 2951   1.215   3.079   2.175  0.0074 -2.4027 -1.2352
  984SOL    HW2 2952   1.101   3.016   2.074 -2.1109  3.7195  0.1648
  985SOL     OW 2953   2.055   1.512   2.115  0.2512 -0.1065  0.1070
  985SOL    HW1 2954   2.083   1.612   2.101 -0.3442  2.6453 -1.3183
  985SOL    HW2 2955   2.059   1.485   2.213  3.1042 -1.0804 -0.7335
  986SOL     OW 2956   2.745   0.502   1.272  0.8154 -0.0990 -0.0625
  986SOL    HW1 2957   2.784   0.570   1.205  0.3968 -0.7879 -1.0687
  986SOL    HW2 2958   2.781   0.516   1.364  0.3608 -0.5265 -0.1173
  987SOL     OW 2959   2.767   1.143   1.458  0.2193  0.5143  0.7303
  987SOL    HW1 2960   2.714   1.121   1.545 -1.0549 -1.4944  0.0246
  987SOL    HW2 2961   2.720   1.220   1.405  1.2648 -0.1006 -0.6655
  988SOL     OW 2962   2.988   1.181   2.252  0.6931  0.0131  0.2057
  988SOL    HW1 2963   3.055   1.146   2.319 -0.6407  2.7022 -0.6484
  988SOL    HW2 2964   2.891   1.163   2.277  0.9058  0.6008  2.2024
  989SOL     OW 2965   1.503   1.760   3.035 -0.1313  0.0320  0.0391
  989SOL    HW1 2966   1.579   1.817   3.071 -2.2454 -1.5969  1.2210
  989SOL    HW2 2967   1.427   1.814   2.988 -4.4560  0.5104 -2.0855
  990SOL     OW 2968   1.094   0.498   2.203 -0.2970  0.0241  0.2712
  990SOL    HW1 2969   1.024   0.562   2.168  0.7633 -0.9174 -0.1597
  990SOL    HW2 2970   1.072   0.477   2.297  0.6654  1.2684 -0.1334
  991SOL     OW 2971   1.400   0.991   0.642 -0.3565  0.0089 -0.1882
  991SOL    HW1 2972   1.412   0.931   0.722 -2.3982  2.5493  1.0287
  991SOL    HW2 2973   1.467   0.961   0.570  0.5832  0.5561  0.7889
  992SOL     OW 2974   2.339   1.557   0.877 -0.1379  0.1341  0.8511
  992SOL    HW1 2975   2.269   1.482   0.852 -2.2643 -1.6507  2.8910
  992SOL    HW2 2976   2.328   1.586   0.977 -2.0990  0.4044 -0.4990
  993SOL     OW 2977   0.014   0.641   0.767 -0.5593 -0.7565  0.0997
  993SOL    HW1 2978   0.086   0.689   0.819 -4.2495 -1.2159 -0.2374
  993SOL    HW2 2979   0.052   0.601   0.681  1.3408 -1.5062 -1.0066
  994SOL     OW 2980   0.348   2.193   2.378 -0.4892 -0.2582 -0.3670
  994SOL    HW1 2981   0.370   2.159   2.286 -1.3270  0.2606  0.3677
  994SOL    HW2 2982   0.248   2.206   2.391 -1.0488 -0.7181  1.0350
  995SOL     OW 2983   1.986   1.115   2.630 -0.2962 -0.1011 -0.3059
  995SOL    HW1 2984   1.940   1.073   2.716 -1.5115  0.1771  1.1970
  995SOL    HW2 2985   1.915   1.122   2.556 -1.7007  1.1105  1.1478
  996SOL     OW 2986   2.933   1.288   0.584  0.4834 -0.0490  0.5260
  996SOL    HW1 2987   2.843   1.259   0.551 -0.8528 -0.2831  3.4090
  996SOL    HW2 2988   2.940   1.381   0.602  0.0738 -3.1722  0.8257
  997SOL     OW 2989   1.660   0.923   2.086  0.5758  0.3609  0.6991
  997SOL    HW1 2990   1.573   0.972   2.059 -0.0427 -1.4758  2.0135
  997SOL    HW2 2991   1.699   0.868   2.009 -1.4783 -0.5991 -1.0827
  998SOL     OW 2992   2.871   1.770   0.389  0.4018 -0.0893 -0.6779
  998SOL    HW1 2993   2.961   1.734   0.355  0.4206  0.7661  2.8682
  998SOL    HW2 2994   2.825   1.688   0.436 -0.8042 -1.1687 -0.3674
  999SOL     OW 2995   2.990   2.273   0.327 -0.3175 -0.2813 -0.6573
  999SOL    HW1 2996   3.067   2.206   0.323  2.3049 -1.7173 -1.6092
  999SOL    HW2 2997   2.906   2.240   0.376  0.7517 -0.2588 -0.0586
 1000SOL     OW 2998   0.929   0.835   2.351  0.1203 -0.1475  0.0478
 1000SOL    HW1 2999   0.933   0.759   2.420  2.2584  0.0960 -0.9995
 1000SOL    HW2 3000   1.015   0.839   2.292  0.9736 -0.3533  2.0852
   3.09805   3.09805   3.09805
