1000 SPC/Fw water molecules t= 140.00000 step= 140000
 3000
    1SOL     OW    1   2.192   2.529   1.024  0.4184  0.0705 -0.4255
    1SOL    HW1    2   2.097   2.562   0.997  0.4715  0.2921 -0.6068
    1SOL    HW2    3   2.187   2.443   1.075 -2.0384 -0.0468  0.9862
    2SOL     OW    4   1.729   1.816   2.305 -0.6430 -0.2328  0.0611
    2SOL    HW1    5   1.759   1.915   2.297  0.7503  2.3813 -0.2632
    2SOL    HW2    6   1.672   1.806   2.392 -0.4341  0.1283 -0.8335
    3SOL     OW    7   1.687   2.552   2.257  0.1897  0.0031  0.0497
    3SOL    HW1    8   1.776   2.581   2.294 -0.8026 -2.0960  0.7599
    3SOL    HW2    9   1.691   2.449   2.247  1.1901 -1.7510 -1.8674
    4SOL     OW   10   1.545   2.617   2.026  1.0957 -0.3971 -0.3519
    4SOL    HW1   11   1.574   2.619   2.125  0.4301 -0.1350  1.0629
    4SOL    HW2   12   1.617   2.581   1.966  0.8382  2.2059  0.6928
    5SOL     OW   13   0.476   0.515   1.422  0.7595  0.7408  0.5753
    5SOL    HW1   14   0.539   0.440   1.387  3.2139 -3.9285 -2.5367
    5SOL    HW2   15   0.383   0.475   1.439 -0.3858 -1.1931 -1.8847
    6SOL     OW   16   2.523   1.082   2.964 -0.3521  0.0288 -0.0161
    6SOL    HW1   17   2.509   1.003   3.025  2.7225  0.5017  1.6836
    6SOL    HW2   18   2.546   1.052   2.867 -0.1024 -2.7912 -1.1670
    7SOL     OW   19   0.633   0.317   1.356 -0.0483 -0.8065 -0.0150
    7SOL    HW1   20   0.651   0.225   1.387  1.6021  1.2956 -1.7732
    7SOL    HW2   21   0.603   0.309   1.257 -1.8599  1.2519 -1.8487
    8SOL     OW   22   1.084   2.615   1.647 -0.2586 -0.2564  0.6223
    8SOL    HW1   23   0.997   2.632   1.596 -0.2856  0.0715  0.3960
    8SOL    HW2   24   1.106   2.515   1.641  1.3721  0.3701 -3.0916
    9SOL     OW   25   0.675   0.799   0.335 -0.4884  0.4796 -0.5616
    9SOL    HW1   26   0.598   0.791   0.403 -1.0105  0.6344 -1.5367
    9SOL    HW2   27   0.736   0.872   0.356 -4.0541 -3.3802 -2.5433
   10SOL     OW   28   0.726   2.355   2.538 -0.5707  0.3669 -0.2469
   10SOL    HW1   29   0.633   2.382   2.568  0.4479 -0.9056 -2.9614
   10SOL    HW2   30   0.756   2.417   2.460 -1.1401  1.7393 -0.4952
   11SOL     OW   31   0.225   1.722   0.042 -0.0878  0.4602 -0.4071
   11SOL    HW1   32   0.181   1.786   0.104  0.3339 -1.3872 -0.0658
   11SOL    HW2   33   0.192   1.626   0.067 -0.8899 -2.9790  0.6384
   12SOL     OW   34   0.513   0.048   1.449  0.3072 -0.1304  0.2363
   12SOL    HW1   35   0.432   0.028   1.510 -0.5471 -1.3335  0.4717
   12SOL    HW2   36   0.475   0.025   1.357  0.4239 -1.8395  1.7869
   13SOL     OW   37   0.891   2.608   0.300  0.5274  0.3777 -0.1315
   13SOL    HW1   38   0.873   2.513   0.269 -1.2923 -0.0134 -0.5366
   13SOL    HW2   39   0.865   2.666   0.220 -0.5295 -1.5432 -2.9145
   14SOL     OW   40   1.401   1.974   1.197  0.1090  0.3273 -0.1965
   14SOL    HW1   41   1.448   1.990   1.113 -5.7265  0.3334 -1.8478
   14SOL    HW2   42   1.365   2.063   1.236 -1.0163  1.5582 -1.4518
   15SOL     OW   43   2.498   0.776   2.338  0.3089  0.0675  0.5002
   15SOL    HW1   44   2.582   0.756   2.389  0.5657 -3.5410 -0.0796
   15SOL    HW2   45   2.452   0.856   2.379  0.3951 -0.3777  0.2019
   16SOL     OW   46   1.433   2.905   3.025  0.4985 -0.4494 -0.1677
   16SOL    HW1   47   1.427   2.802   3.028  0.6061 -1.9843 -0.8486
   16SOL    HW2   48   1.532   2.927   3.008  1.0452 -0.7980  2.2580
   17SOL     OW   49   0.684   2.283   1.935 -0.2362 -0.1204  0.6169
   17SOL    HW1   50   0.750   2.218   1.973 -1.7627  2.0325  0.3412
   17SOL    HW2   51   0.667   2.351   2.008 -0.4838 -1.0911 -2.0785
   18SOL     OW   52   1.466   1.065   0.436  0.2405  0.4017  0.1329
   18SOL    HW1   53   1.389   1.110   0.392  1.0719 -1.8509 -0.6030
   18SOL    HW2   54   1.439   0.995   0.504  0.2222 -0.3888  0.4154
   19SOL     OW   55   2.409   2.152   2.827 -0.8482 -0.6591  0.7782
   19SOL    HW1   56   2.376   2.155   2.924  0.1478  1.3745 -2.9833
   19SOL    HW2   57   2.365   2.072   2.783  1.1410 -0.9647 -0.8437
   20SOL     OW   58   2.138   1.905   2.413 -0.7214  0.2844 -0.0091
   20SOL    HW1   59   2.134   1.826   2.475  0.2194  0.5482  0.4910
   20SOL    HW2   60   2.055   1.959   2.431  0.1438  1.3591  0.9534
   21SOL     OW   61   0.600   2.099   2.962  0.0607  0.2803  0.7898
   21SOL    HW1   62   0.617   2.152   3.044  0.0191 -2.6634  1.5443
   21SOL    HW2   63   0.608   1.999   2.978 -1.3781 -0.6989  0.8941
   22SOL     OW   64   1.978   3.025   1.473  0.6224  0.0873  0.0586
   22SOL    HW1   65   1.881   3.062   1.472 -2.3569  1.5279 -2.5110
   22SOL    HW2   66   2.037   3.068   1.401  1.7827  0.4424 -1.4301
   23SOL     OW   67   0.283   1.286   1.452  0.3225  0.1860  0.4947
   23SOL    HW1   68   0.247   1.307   1.541 -0.1115 -1.9713 -0.1680
   23SOL    HW2   69   0.297   1.183   1.446 -0.9847  0.1276 -1.8392
   24SOL     OW   70   2.413   2.076   1.700 -0.5354 -0.0262 -0.5595
   24SOL    HW1   71   2.456   2.065   1.603  0.0478  1.3763 -4.1002
   24SOL    HW2   72   2.344   2.147   1.698 -0.0692 -2.4404 -1.2668
   25SOL     OW   73   2.021   2.896   2.985  0.1997 -0.1063 -0.4323
   25SOL    HW1   74   2.010   2.996   2.974  1.6846  1.1630 -1.1312
   25SOL    HW2   75   2.045   2.859   2.892  0.4961  1.9160  0.6289
   26SOL     OW   76   1.132   3.018   0.935 -0.2865  0.0381  0.3794
   26SOL    HW1   77   1.226   2.978   0.918  3.0119 -0.0408  2.1710
   26SOL    HW2   78   1.136   0.023   0.922 -1.8157  1.5786  0.2821
   27SOL     OW   79   1.131   2.005   2.804  0.4675 -0.8084  0.2474
   27SOL    HW1   80   1.169   1.983   2.894 -0.2305  1.5547 -0.7529
   27SOL    HW2   81   1.039   1.955   2.798 -0.0298  0.0869  0.3138
   28SOL     OW   82   0.052   1.550   1.472 -0.0403 -0.4174 -0.8441
   28SOL    HW1   83   0.139   1.600   1.455  0.5317 -1.4674 -0.5621
   28SOL    HW2   84   3.069   1.610   1.453  2.5914 -1.9941  3.0891
   29SOL     OW   85   2.295   2.294   2.242  0.3262 -0.1317 -0.0664
   29SOL    HW1   86   2.361   2.361   2.214 -2.5743  0.6992 -0.5508
   29SOL    HW2   87   2.318   2.199   2.265  0.9820 -3.3606 -1.3694
   30SOL     OW   88   0.979   2.771   1.202  0.7893 -0.1065  1.1169
   30SOL    HW1   89   1.034   2.840   1.249  2.1762  0.6010 -0.4368
   30SOL    HW2   90   0.964   2.794   1.102  0.0108 -1.5915  1.0137
   31SOL     OW   91   0.028   2.087   2.097 -0.4006  0.1066 -0.6203
   31SOL    HW1   92   3.062   2.009   2.068 -1.5866 -0.6864  1.6938
   31SOL    HW2   93   0.126   2.073   2.070 -2.3210  2.2746  2.3938
   32SOL     OW   94   1.261   1.023   2.094 -1.0131 -0.8141 -0.5162
   32SOL    HW1   95   1.247   1.052   1.998  2.5215 -0.4224 -0.2825
   32SOL    HW2   96   1.302   1.095   2.155 -1.1594 -0.7017  1.6227
   33SOL     OW   97   0.529   2.830   2.516  0.1858 -0.7179 -0.1139
   33SOL    HW1   98   0.441   2.881   2.523  2.9083 -0.1126  1.2978
   33SOL    HW2   99   0.547   2.757   2.586 -1.3366  1.6410  0.2590
   34SOL     OW  100   1.557   0.000   1.534 -0.1376 -0.3119  0.0482
   34SOL    HW1  101   1.500   3.035   1.470 -0.9446  0.8266 -2.2843
   34SOL    HW2  102   1.544   3.072   1.633 -1.8426 -0.0178  2.0828
   35SOL     OW  103   2.075   0.524   0.973  0.0499  0.5372  0.1855
   35SOL    HW1  104   2.056   0.469   0.888  0.2105  2.2502 -1.3551
   35SOL    HW2  105   1.987   0.564   1.000  2.3990 -0.5037 -1.5882
   36SOL     OW  106   2.137   2.906   2.497 -0.2115 -0.2182  0.1590
   36SOL    HW1  107   2.213   2.972   2.514 -0.0098 -0.6249  0.9133
   36SOL    HW2  108   2.076   2.949   2.425 -1.6182 -0.8407 -0.1163
   37SOL     OW  109   1.425   2.468   2.541  0.3637  0.4787  0.7192
   37SOL    HW1  110   1.327   2.476   2.550  2.9871 -1.2819  0.5629
   37SOL    HW2  111   1.435   2.411   2.458  0.9388 -1.5779  1.2168
   38SOL     OW  112   2.446   0.650   2.835  0.1581  0.2203  0.7342
   38SOL    HW1  113   2.367   0.639   2.898  0.8355 -0.4833 -1.2470
   38SOL    HW2  114   2.531   0.627   2.879 -5.8662  3.1115 -4.6001
   39SOL     OW  115   1.955   2.118   2.467  0.3731  0.4388  0.0651
   39SOL    HW1  116   1.985   2.104   2.562 -0.6273  3.4389 -0.5481
   39SOL    HW2  117   1.991   2.201   2.426 -0.4208 -2.1472  2.9625
   40SOL     OW  118   0.258   0.063   2.956 -0.4393 -0.1111 -0.5563
   40SOL    HW1  119   0.341   0.039   2.902 -0.7922  0.3222 -1.5535
   40SOL    HW2  120   0.240   3.085   3.024  0.4851 -0.1142  1.2897
   41SOL     OW  121   1.278   0.910   1.544 -0.5059  0.8555 -0.6241
   41SOL    HW1  122   1.275   0.958   1.456 -0.2622 -0.4064  1.7058
   41SOL    HW2  123   1.227   0.820   1.536  2.3169  0.1469  0.6008
   42SOL     OW  124   0.343   0.220   1.707 -0.0726  0.6247 -0.8119
   42SOL    HW1  125   0.315   0.133   1.655  0.0468 -1.8563 -2.6918
   42SOL    HW2  126   0.446   0.224   1.710 -0.3979 -0.2990 -0.3437
   43SOL     OW  127   1.649   1.145   2.145  0.4373  0.1210  0.4762
   43SOL    HW1  128   1.554   1.140   2.178 -0.2918  0.1422 -2.3237
   43SOL    HW2  129   1.652   1.122   2.048 -3.0749  0.2436  3.7419
   44SOL     OW  130   0.005   2.698   2.640  0.1026  0.3688  0.7703
   44SOL    HW1  131   0.063   2.738   2.712 -0.5324 -0.4770  2.1193
   44SOL    HW2  132   0.021   2.745   2.547 -1.6834  2.4046 -1.4328
   45SOL     OW  133   0.529   2.474   1.137  0.1266  0.1811 -0.1440
   45SOL    HW1  134   0.469   2.553   1.106 -0.2436 -0.6713 -0.5043
   45SOL    HW2  135   0.628   2.482   1.115 -0.9060  0.7108  1.4823
   46SOL     OW  136   2.237   2.405   1.837 -0.3241 -0.1143 -0.2749
   46SOL    HW1  137   2.194   2.345   1.908 -0.5616 -1.6134 -2.2575
   46SOL    HW2  138   2.340   2.411   1.841 -0.7165 -1.7835  0.6240
   47SOL     OW  139   1.847   1.928   1.683  0.3321 -0.3945 -0.1264
   47SOL    HW1  140   1.804   1.950   1.771  0.2364  0.6757 -3.1597
   47SOL    HW2  141   1.861   1.827   1.670 -0.8886  1.6115  1.5102
   48SOL     OW  142   0.349   1.926   0.438 -0.0754  0.6115  0.0478
   48SOL    HW1  143   0.424   1.910   0.511  0.7555 -1.1570  2.6205
   48SOL    HW2  144   0.285   1.996   0.480 -2.4108 -1.1285  2.0511
   49SOL     OW  145   2.822   0.872   2.127  0.4605 -0.1116  0.3506
   49SOL    HW1  146   2.771   0.894   2.213  2.3862  0.2580  0.6043
   49SOL    HW2  147   2.856   0.963   2.089 -1.5909 -1.4164 -2.5268
   50SOL     OW  148   2.250   0.745   0.920 -0.2730  0.7488  0.2059
   50SOL    HW1  149   2.173   0.674   0.915 -0.8209 -2.1303 -2.0135
   50SOL    HW2  150   2.319   0.718   0.988 -0.0063 -2.5105 -2.5815
   51SOL     OW  151   1.263   0.563   0.711  0.3502  0.0424  0.5068
   51SOL    HW1  152   1.241   0.514   0.795  0.6954 -0.1054  0.9256
   51SOL    HW2  153   1.363   0.560   0.704  1.3888 -3.6702  0.3091
   52SOL     OW  154   1.243   1.182   0.310 -0.2538  0.1337 -0.0668
   52SOL    HW1  155   1.204   1.116   0.247 -1.6331 -2.0146  1.6197
   52SOL    HW2  156   1.173   1.211   0.377 -1.0170  3.0410  2.1129
   53SOL     OW  157   1.069   2.191   2.411 -0.1133  0.0341  0.7764
   53SOL    HW1  158   1.089   2.100   2.456  0.6296 -1.0387 -0.8122
   53SOL    HW2  159   1.125   2.260   2.460  3.0563 -0.4093 -2.0960
   54SOL     OW  160   1.552   0.822   1.616  0.1121  0.1968  0.2963
   54SOL    HW1  161   1.542   0.797   1.713 -0.4912 -0.7677  0.1020
   54SOL    HW2  162   1.462   0.853   1.577  1.2846 -1.1121 -0.4990
   55SOL     OW  163   1.946   2.850   0.517  0.1130  0.4481  0.4999
   55SOL    HW1  164   1.852   2.865   0.553  3.7387  1.1743  0.2922
   55SOL    HW2  165   1.998   2.939   0.519  1.5920 -3.9995 -1.7059
   56SOL     OW  166   0.873   2.691   1.467  0.0502 -0.6947 -0.1419
   56SOL    HW1  167   0.934   2.717   1.389 -0.0791  1.5801  1.7407
   56SOL    HW2  168   0.805   2.764   1.487  0.5618  1.8611 -1.3382
   57SOL     OW  169   1.973   1.043   0.221 -0.3739 -0.2922 -0.3475
   57SOL    HW1  170   2.072   1.067   0.200 -2.6868  1.4993  1.4766
   57SOL    HW2  171   1.921   1.047   0.135  0.0771  0.0068  0.0242
   58SOL     OW  172   3.047   1.353   2.053 -0.3020 -0.4592 -0.2912
   58SOL    HW1  173   2.982   1.388   2.128 -2.0657  1.4526  0.9441
   58SOL    HW2  174   0.019   1.425   2.035 -2.6461 -1.4870  1.5213
   59SOL     OW  175   0.784   2.510   2.321 -0.1966  0.4469  0.3778
   59SOL    HW1  176   0.708   2.483   2.259 -1.6868 -1.1635  1.5632
   59SOL    HW2  177   0.777   2.610   2.341  1.3579 -1.7198  1.5229
   60SOL     OW  178   2.389   2.672   1.082 -0.4437  0.4439 -0.4077
   60SOL    HW1  179   2.301   2.626   1.051 -0.0386 -2.0990  2.5065
   60SOL    HW2  180   2.445   2.698   0.998  2.0527  2.2785  0.7294
   61SOL     OW  181   1.293   2.073   0.252  0.2039 -0.7742  0.3443
   61SOL    HW1  182   1.238   1.997   0.281  0.3514  2.3746 -2.3594
   61SOL    HW2  183   1.274   2.156   0.309 -1.6527 -0.6809  0.2666
   62SOL     OW  184   2.399   2.862   3.058  0.2616  0.7057 -0.0562
   62SOL    HW1  185   2.418   2.767   3.027 -0.4456 -0.7810 -2.4378
   62SOL    HW2  186   2.317   2.865   0.020  2.6638 -0.8798 -0.2086
   63SOL     OW  187   1.944   0.250   0.092 -0.1515  0.4960  0.2256
   63SOL    HW1  188   1.996   0.170   0.054 -1.0600 -2.0348 -1.1822
   63SOL    HW2  189   2.009   0.326   0.091 -2.6217 -0.8858  0.9104
   64SOL     OW  190   0.777   1.136   2.477  0.3502  0.0447  0.2039
   64SOL    HW1  191   0.704   1.185   2.525  0.1353  0.9271 -0.3808
   64SOL    HW2  192   0.767   1.032   2.482  1.9221 -0.7144  1.1505
   65SOL     OW  193   1.242   2.549   0.341  0.3890  0.6746  0.3252
   65SOL    HW1  194   1.154   2.579   0.305  2.7790  2.2908 -0.5214
   65SOL    HW2  195   1.312   2.615   0.309  0.9087  2.3405  0.4571
   66SOL     OW  196   0.658   1.557   1.435 -0.0648 -0.2387  0.1284
   66SOL    HW1  197   0.688   1.523   1.525  0.3849  0.0703 -1.3070
   66SOL    HW2  198   0.557   1.545   1.428 -0.8808 -0.5071  0.6466
   67SOL     OW  199   2.686   2.948   2.075  0.3636  0.4206 -0.1331
   67SOL    HW1  200   2.701   3.046   2.092 -1.0628 -0.9611  0.3432
   67SOL    HW2  201   2.694   2.895   2.162 -0.0374 -1.5825 -0.9532
   68SOL     OW  202   0.808   0.724   1.358  0.6618 -0.0765  0.1051
   68SOL    HW1  203   0.817   0.634   1.397  2.5167  0.9242 -1.8451
   68SOL    HW2  204   0.755   0.788   1.418 -3.9923 -1.5259 -2.6760
   69SOL     OW  205   1.828   2.899   0.222  0.1870 -0.0559 -0.5334
   69SOL    HW1  206   1.817   3.001   0.236  2.8754 -1.5097 -1.6868
   69SOL    HW2  207   1.908   2.862   0.275  0.4219  0.8413  0.3007
   70SOL     OW  208   2.732   1.001   2.364 -0.2244 -0.0790 -0.1299
   70SOL    HW1  209   2.714   1.099   2.327 -2.8736  1.5088 -0.1906
   70SOL    HW2  210   2.825   0.995   2.402  0.6250  2.6378  0.2690
   71SOL     OW  211   2.916   1.702   3.086 -0.3990  0.1804  0.1935
   71SOL    HW1  212   2.831   1.647   0.003 -2.4849 -0.8830 -1.0976
   71SOL    HW2  213   2.946   1.708   2.990  1.5960  0.5467  3.2597
   72SOL     OW  214   3.090   1.601   0.393 -0.3186 -0.0909 -0.5958
   72SOL    HW1  215   0.008   1.506   0.429 -1.3234  1.1653  0.0479
   72SOL    HW2  216   0.084   1.647   0.395  2.0410  1.2378 -0.1061
   73SOL     OW  217   1.123   1.270   0.558  0.3284 -0.4176 -1.1894
   73SOL    HW1  218   1.110   1.205   0.638  0.8061  0.1364  1.5061
   73SOL    HW2  219   1.212   1.325   0.578  3.0977  2.0171  0.3302
   74SOL     OW  220   0.330   1.725   1.994 -0.1891 -0.3101  0.7311
   74SOL    HW1  221   0.297   1.822   1.993 -1.1514  0.6835  2.5840
   74SOL    HW2  222   0.374   1.699   1.907 -1.6545 -2.1533 -0.4952
   75SOL     OW  223   1.661   1.511   1.727 -0.5461  0.1818 -0.0769
   75SOL    HW1  224   1.564   1.489   1.727  1.9256  2.2027  0.6233
   75SOL    HW2  225   1.692   1.485   1.816 -0.3899  1.7603  0.1375
   76SOL     OW  226   2.081   2.569   1.339 -0.1126  0.4072 -0.0501
   76SOL    HW1  227   2.162   2.541   1.391 -1.0632 -0.5291 -2.5823
   76SOL    HW2  228   2.113   2.639   1.274 -1.1456  1.5371  0.1036
   77SOL     OW  229   2.410   1.358   1.548 -0.0236  0.1249  0.3153
   77SOL    HW1  230   2.455   1.360   1.637 -0.9808  2.0746 -1.7232
   77SOL    HW2  231   2.475   1.310   1.485  0.4016  0.6995 -1.8536
   78SOL     OW  232   1.607   0.798   0.679 -0.0281 -0.0064  0.0392
   78SOL    HW1  233   1.511   0.830   0.670  0.7838 -0.7907 -1.2502
   78SOL    HW2  234   1.608   0.707   0.729 -0.1740 -1.6396  1.1523
   79SOL     OW  235   2.280   1.596   1.449  0.2543  0.1912 -0.8940
   79SOL    HW1  236   2.250   1.552   1.364  2.2483  1.3228  0.8398
   79SOL    HW2  237   2.330   1.531   1.506 -0.5648  0.5381 -1.5431
   80SOL     OW  238   0.812   0.464   1.483  0.5678  0.2253 -0.0268
   80SOL    HW1  239   0.739   0.410   1.434  1.0691  0.2456 -0.7854
   80SOL    HW2  240   0.905   0.429   1.466  1.0816 -0.4336 -0.8286
   81SOL     OW  241   0.714   3.003   0.872 -0.2799  0.0602 -0.2649
   81SOL    HW1  242   0.728   3.081   0.804  2.0360  1.6813 -0.8746
   81SOL    HW2  243   0.795   2.941   0.876  1.0240  1.5007  1.5476
   82SOL     OW  244   1.456   3.049   1.771  0.4247  0.1039 -0.3441
   82SOL    HW1  245   1.380   2.980   1.750 -3.1925  0.4147  0.4277
   82SOL    HW2  246   1.533   3.000   1.819  1.4939  1.4520  0.2360
   83SOL     OW  247   1.327   1.917   0.733  0.1476 -0.3205  0.5270
   83SOL    HW1  248   1.290   1.945   0.826 -0.1486  0.3842  0.0869
   83SOL    HW2  249   1.365   2.001   0.690 -0.4768  1.3632  0.0655
   84SOL     OW  250   0.082   1.585   2.807  0.4691 -0.0798  0.1018
   84SOL    HW1  251   0.008   1.653   2.828  0.0657 -1.4884  2.5016
   84SOL    HW2  252   0.051   1.534   2.720 -1.3711 -1.7841 -1.9818
   85SOL     OW  253   0.384   2.262   1.002 -0.2304  0.3002  0.2034
   85SOL    HW1  254   0.290   2.296   0.983 -0.8259 -0.9734 -2.1850
   85SOL    HW2  255   0.448   2.338   1.034 -0.0628  1.7561  0.5389
   86SOL     OW  256   2.354   2.438   1.403  0.4686  0.1648 -0.0926
   86SOL    HW1  257   2.396   2.502   1.471 -2.1781  0.2505  0.1362
   86SOL    HW2  258   2.334   2.346   1.441 -0.7173 -1.9773 -0.9045
   87SOL     OW  259   3.092   2.179   0.895  0.2496  0.0368  0.3831
   87SOL    HW1  260   0.068   2.234   0.941 -1.2853  3.1851 -0.3220
   87SOL    HW2  261   3.092   2.187   0.795  0.4427  1.0941  0.6813
   88SOL     OW  262   0.984   1.076   1.176  0.2889 -0.2715 -0.5425
   88SOL    HW1  263   0.957   1.155   1.114 -2.0644  2.1147  0.7290
   88SOL    HW2  264   0.947   0.984   1.144 -1.8066 -2.0099 -1.3104
   89SOL     OW  265   0.888   3.046   2.163  0.6008 -0.1296  0.0726
   89SOL    HW1  266   0.898   3.035   2.263 -0.9454  0.2481 -0.0183
   89SOL    HW2  267   0.801   2.999   2.128 -0.5183 -0.4397  0.3580
   90SOL     OW  268   3.008   2.093   1.447  0.2611  0.1655 -0.6220
   90SOL    HW1  269   3.079   2.044   1.387 -0.1364  0.5065 -0.6877
   90SOL    HW2  270   3.053   2.101   1.543 -2.1646 -1.6889 -0.3404
   91SOL     OW  271   1.409   1.888   1.723  0.3303 -0.0362 -0.1979
   91SOL    HW1  272   1.436   1.817   1.791  0.3109 -0.3701  0.6154
   91SOL    HW2  273   1.488   1.934   1.670 -2.0543  1.6755 -0.6749
   92SOL     OW  274   2.687   2.800   1.498 -0.5252  0.1111 -0.0074
   92SOL    HW1  275   2.614   2.734   1.512  2.2583 -0.6266 -0.0765
   92SOL    HW2  276   2.693   2.853   1.589 -3.9321  0.9764 -2.7347
   93SOL     OW  277   2.792   1.294   2.715  0.2978  0.0875 -0.1299
   93SOL    HW1  278   2.717   1.224   2.694 -1.2981 -0.9583 -0.8210
   93SOL    HW2  279   2.769   1.348   2.796 -0.7453 -0.1894 -0.8280
   94SOL     OW  280   2.750   2.615   1.805  0.5908  0.2918  0.7841
   94SOL    HW1  281   2.828   2.557   1.846  3.3728  1.6326  0.1350
   94SOL    HW2  282   2.769   2.715   1.817 -0.7626  0.9821  0.6384
   95SOL     OW  283   1.317   0.539   2.139 -0.6480 -0.3167 -0.0154
   95SOL    HW1  284   1.356   0.474   2.207  0.0417  0.4104 -1.3455
   95SOL    HW2  285   1.351   0.634   2.153 -0.6503 -3.1283  0.4201
   96SOL     OW  286   2.508   0.723   1.455  0.3080  0.1629  0.2235
   96SOL    HW1  287   2.593   0.674   1.456 -3.8161  1.2331 -0.6101
   96SOL    HW2  288   2.462   0.721   1.543  5.6350 -2.0471 -0.5455
   97SOL     OW  289   1.886   0.554   1.814  0.0716  0.2914  0.0011
   97SOL    HW1  290   1.812   0.489   1.783 -0.8484 -0.1621  0.3138
   97SOL    HW2  291   1.936   0.594   1.733 -0.1182 -1.1979 -1.3542
   98SOL     OW  292   1.767   2.808   1.154 -0.0820  1.2126 -0.1332
   98SOL    HW1  293   1.841   2.878   1.151 -3.8912  0.4619 -2.4836
   98SOL    HW2  294   1.739   2.798   1.250  3.9019 -0.5685 -0.0719
   99SOL     OW  295   2.752   0.119   2.085  0.6774  0.0272 -0.2925
   99SOL    HW1  296   2.836   0.163   2.125 -1.2276  0.3831 -0.9764
   99SOL    HW2  297   2.671   0.180   2.065 -1.5477 -0.4692 -1.2993
  100SOL     OW  298   2.502   1.601   1.782 -0.3569 -0.3155 -0.6334
  100SOL    HW1  299   2.416   1.592   1.833  0.4240  1.8645  0.1586
  100SOL    HW2  300   2.553   1.513   1.792 -0.7816 -0.9949 -2.4431
  101SOL     OW  301   1.522   0.298   0.730 -0.4386 -0.5671 -0.1431
  101SOL    HW1  302   1.480   0.229   0.793 -2.3481 -1.2739 -1.6109
  101SOL    HW2  303   1.607   0.339   0.768 -2.7141 -0.7317 -1.9256
  102SOL     OW  304   0.490   0.949   1.148  0.1864 -0.2875  0.0260
  102SOL    HW1  305   0.400   0.976   1.106  1.6275 -0.7735 -2.1359
  102SOL    HW2  306   0.505   1.001   1.232  1.6637 -2.3412 -0.0962
  103SOL     OW  307   2.983   0.503   0.046 -0.5008  0.8148  0.4729
  103SOL    HW1  308   3.032   0.425   0.089  0.6598 -0.3804  0.4414
  103SOL    HW2  309   2.973   0.580   0.113  0.6013 -0.1873  2.4332
  104SOL     OW  310   2.771   0.152   1.801 -0.5789  0.5349 -0.0087
  104SOL    HW1  311   2.858   0.195   1.769 -0.9105 -0.3373  0.8561
  104SOL    HW2  312   2.765   0.153   1.904 -2.1847  0.9330 -0.5274
  105SOL     OW  313   1.888   0.708   2.229  0.2399 -0.2739 -0.5783
  105SOL    HW1  314   1.904   0.661   2.320  1.6253 -0.5516 -0.6875
  105SOL    HW2  315   1.897   0.812   2.246  0.0630  1.7359 -0.4536
  106SOL     OW  316   1.731   0.147   0.980 -0.4721 -0.3202 -0.1021
  106SOL    HW1  317   1.800   0.095   0.932 -2.3048 -0.6115 -2.6927
  106SOL    HW2  318   1.642   0.115   0.939 -1.3063 -1.7143 -0.8999
  107SOL     OW  319   0.690   1.150   0.865  0.1738  1.0088  0.0720
  107SOL    HW1  320   0.739   1.155   0.778  0.2756  0.7766  0.2020
  107SOL    HW2  321   0.593   1.156   0.840  2.5973  0.5984 -5.3309
  108SOL     OW  322   2.980   0.270   2.141  0.0713  0.0239  0.0268
  108SOL    HW1  323   2.989   0.341   2.067 -1.0223 -1.1701 -0.4119
  108SOL    HW2  324   3.053   0.197   2.126  1.1757 -1.7861 -2.6817
  109SOL     OW  325   2.064   0.635   0.146  0.9616  0.3805 -0.1823
  109SOL    HW1  326   1.967   0.629   0.104 -2.1544  1.7499 -3.0042
  109SOL    HW2  327   2.078   0.723   0.197  1.1477 -0.1674 -0.9408
  110SOL     OW  328   0.124   2.225   2.702 -0.9122 -0.1691  0.1881
  110SOL    HW1  329   0.100   2.311   2.650 -1.6840  2.6086 -2.3859
  110SOL    HW2  330   0.055   2.205   2.771 -0.5347 -0.8527 -1.2764
  111SOL     OW  331   2.224   0.027   1.999  0.0611  0.0647  0.3341
  111SOL    HW1  332   2.192   0.121   2.021  0.6666 -0.5386  3.3920
  111SOL    HW2  333   2.172   3.079   1.926 -0.8469  0.8621  1.4212
  112SOL     OW  334   2.240   3.016   0.591 -0.3677 -0.2997  0.1412
  112SOL    HW1  335   2.265   2.999   0.494  1.0306 -2.3539 -1.6565
  112SOL    HW2  336   2.223   2.922   0.628 -1.3176 -1.2791 -0.2725
  113SOL     OW  337   2.533   2.033   1.474 -0.3245  0.2513 -0.4498
  113SOL    HW1  338   2.620   1.978   1.481 -2.1651  2.1088 -3.5011
  113SOL    HW2  339   2.517   2.068   1.382  0.9961  0.0440  0.2178
  114SOL     OW  340   2.706   0.888   0.697  0.5126  0.4861  0.0290
  114SOL    HW1  341   2.644   0.882   0.775  0.2408 -1.6810  1.1029
  114SOL    HW2  342   2.790   0.840   0.709 -1.2578  1.9138  1.4020
  115SOL     OW  343   2.982   1.820   0.237  0.2902 -0.4296 -0.1835
  115SOL    HW1  344   3.007   1.740   0.291  0.1731 -0.8936 -0.0959
  115SOL    HW2  345   2.970   1.799   0.139 -2.1739 -1.1617  3.5507
  116SOL     OW  346   3.090   1.674   1.789  0.2283 -0.2161 -0.2482
  116SOL    HW1  347   3.030   1.610   1.745 -1.4932 -0.9030  1.3197
  116SOL    HW2  348   0.050   1.623   1.850 -0.5287  0.5579  0.5892
  117SOL     OW  349   2.458   0.052   0.666  0.0994  0.1646 -0.1826
  117SOL    HW1  350   2.436   0.113   0.744 -1.9201  1.8053 -1.1598
  117SOL    HW2  351   2.368   0.009   0.630 -1.1064  1.4644 -0.9318
  118SOL     OW  352   0.536   2.178   1.488  0.2052 -0.0957  0.2378
  118SOL    HW1  353   0.611   2.176   1.554 -0.0760 -0.6172  0.8575
  118SOL    HW2  354   0.502   2.271   1.471  0.5439 -1.0479  0.2125
  119SOL     OW  355   1.771   2.209   1.161 -0.1528  0.1281  0.0867
  119SOL    HW1  356   1.831   2.130   1.132  2.3173  0.4579  1.1218
  119SOL    HW2  357   1.729   2.206   1.253  0.3868 -0.7801  0.2802
  120SOL     OW  358   0.186   1.696   2.333  0.2871  0.2895 -0.2530
  120SOL    HW1  359   0.259   1.642   2.377  0.0196 -0.7393 -1.3674
  120SOL    HW2  360   0.204   1.794   2.340 -2.0651  0.7215  1.8895
  121SOL     OW  361   2.973   1.714   1.367  0.0572 -0.0568  0.1198
  121SOL    HW1  362   3.019   1.745   1.279 -1.0452  1.0121 -1.1594
  121SOL    HW2  363   2.874   1.726   1.374  0.6221 -1.2875  2.0523
  122SOL     OW  364   2.083   1.500   2.474 -0.2824  0.4220 -0.2649
  122SOL    HW1  365   2.031   1.566   2.415  0.6888 -0.3607 -1.0985
  122SOL    HW2  366   2.137   1.424   2.426  2.1248 -3.0719  0.0721
  123SOL     OW  367   3.073   0.081   0.675  0.0176  0.3423 -0.1503
  123SOL    HW1  368   2.989   0.073   0.736  0.5034 -0.6567  1.3324
  123SOL    HW2  369   0.001   3.087   0.632  1.3991  0.4381 -2.3278
  124SOL     OW  370   1.554   1.124   2.721 -0.0845 -0.2198  0.4246
  124SOL    HW1  371   1.616   1.092   2.644  1.8188 -0.2073 -2.2300
  124SOL    HW2  372   1.514   1.042   2.772 -0.4388  0.0104  1.4195
  125SOL     OW  373   0.428   1.471   2.701  0.4805  0.2245  0.2503
  125SOL    HW1  374   0.343   1.440   2.747 -5.5185 -0.7305 -1.0613
  125SOL    HW2  375   0.486   1.388   2.687 -0.6199 -0.5524  0.6758
  126SOL     OW  376   2.839   2.052   0.262 -0.5278 -0.1583  0.1594
  126SOL    HW1  377   2.884   2.110   0.338  0.4129  1.4577 -1.1138
  126SOL    HW2  378   2.888   1.966   0.259 -1.5987  2.1559 -1.2194
  127SOL     OW  379   0.716   1.600   0.816  0.5690 -0.0051  0.0914
  127SOL    HW1  380   0.820   1.593   0.808  1.2851  0.5166 -1.3165
  127SOL    HW2  381   0.664   1.568   0.736 -1.5500 -3.3490  0.3353
  128SOL     OW  382   1.401   0.783   0.314  0.1660 -0.5829 -0.2296
  128SOL    HW1  383   1.477   0.762   0.248 -2.9294  0.3107  1.0909
  128SOL    HW2  384   1.437   0.834   0.396  1.0838  1.0585  0.6736
  129SOL     OW  385   2.398   1.718   1.067  0.3919 -0.2754 -0.2633
  129SOL    HW1  386   2.327   1.645   1.055  0.0708  2.4672  0.5335
  129SOL    HW2  387   2.483   1.699   1.012 -0.9574 -1.3364  2.6767
  130SOL     OW  388   2.010   1.434   0.891 -0.0861 -0.0136 -0.3211
  130SOL    HW1  389   2.005   1.531   0.859 -0.5217  0.1819 -3.8109
  130SOL    HW2  390   1.931   1.406   0.949 -0.5996 -0.7803  0.7363
  131SOL     OW  391   3.071   0.932   2.724  0.5085  0.5586  0.0200
  131SOL    HW1  392   3.069   1.029   2.682  1.1927  1.5599 -1.8836
  131SOL    HW2  393   0.069   0.909   2.751  0.6716  2.3950  0.0296
  132SOL     OW  394   2.480   1.853   1.883  0.2070 -0.1447  0.2908
  132SOL    HW1  395   2.463   1.933   1.818 -0.4971 -0.3770  0.2254
  132SOL    HW2  396   2.494   1.766   1.831 -1.1446 -1.4207 -1.4976
  133SOL     OW  397   3.055   1.201   2.952  0.3836  0.1421 -0.1022
  133SOL    HW1  398   2.963   1.214   3.001  0.8040 -0.2956  0.7190
  133SOL    HW2  399   3.036   1.200   2.855  1.8422  0.4239  2.9525
  134SOL     OW  400   0.182   1.381   2.939 -0.0498 -0.4253  0.1409
  134SOL    HW1  401   0.102   1.324   2.939  1.2450 -0.2791 -1.6964
  134SOL    HW2  402   0.163   1.476   2.899 -1.7400  2.6366 -0.9305
  135SOL     OW  403   2.290   1.425   0.630  0.2259 -0.0304  0.3566
  135SOL    HW1  404   2.239   1.458   0.549  0.1319  0.3473 -0.7723
  135SOL    HW2  405   2.366   1.483   0.655 -3.0140 -1.4282  0.7400
  136SOL     OW  406   1.927   1.379   1.430 -0.5731 -0.5281  0.0866
  136SOL    HW1  407   2.014   1.380   1.372 -1.1852  1.1781  1.1351
  136SOL    HW2  408   1.852   1.427   1.381 -0.5976  0.9670  0.4788
  137SOL     OW  409   2.517   2.261   0.721  0.2184 -0.0955 -0.2579
  137SOL    HW1  410   2.454   2.192   0.769 -0.8534 -2.3182  0.3788
  137SOL    HW2  411   2.558   2.221   0.639  0.1605 -0.8169  1.3937
  138SOL     OW  412   1.395   0.228   1.504  0.5178 -0.0434  0.7623
  138SOL    HW1  413   1.460   0.157   1.541  2.1569  0.7664  0.1701
  138SOL    HW2  414   1.302   0.194   1.523  0.3092 -2.7327 -2.4552
  139SOL     OW  415   2.659   0.175   2.915 -0.2572 -0.2625 -0.1938
  139SOL    HW1  416   2.645   0.245   2.848 -0.6057 -2.0191  0.8521
  139SOL    HW2  417   2.693   0.219   3.005  1.5600 -1.7285 -0.4029
  140SOL     OW  418   1.660   2.217   2.801 -0.1723 -0.0083  0.2857
  140SOL    HW1  419   1.655   2.195   2.704 -0.4744  1.2515  0.6163
  140SOL    HW2  420   1.733   2.158   2.839 -0.9628  1.9587 -2.7211
  141SOL     OW  421   0.749   0.920   1.538 -0.5902 -0.4671  0.9409
  141SOL    HW1  422   0.758   1.020   1.532 -1.7780 -2.0107  0.4533
  141SOL    HW2  423   0.807   0.886   1.612 -2.0365 -0.5365 -0.0565
  142SOL     OW  424   2.591   3.007   0.093 -0.0684  0.2723  0.8847
  142SOL    HW1  425   2.515   2.956   0.045  1.0705  0.1364  1.4359
  142SOL    HW2  426   2.666   3.044   0.031 -0.1806  2.6631  2.4789
  143SOL     OW  427   0.788   2.196   2.760 -0.0376 -0.3053  0.3471
  143SOL    HW1  428   0.759   2.256   2.681 -1.0393  0.6459  1.8470
  143SOL    HW2  429   0.715   2.194   2.826  3.6346 -1.4841 -1.6432
  144SOL     OW  430   1.086   2.694   0.011 -0.7879  0.6517 -0.4536
  144SOL    HW1  431   1.129   2.710   3.019 -0.0160  0.1260  1.3939
  144SOL    HW2  432   1.078   2.595   0.021  2.6970  2.3818  0.4187
  145SOL     OW  433   2.470   1.700   0.023  0.5308  0.2048 -0.3414
  145SOL    HW1  434   2.508   1.796   0.004 -2.1669  1.9497 -3.3983
  145SOL    HW2  435   2.392   1.703   0.088  2.6719 -0.1583  1.5700
  146SOL     OW  436   2.725   2.727   2.964  0.0559  0.1709 -0.1663
  146SOL    HW1  437   2.735   2.818   3.008 -2.2575  1.0037  0.1797
  146SOL    HW2  438   2.812   2.682   2.948 -2.3551 -0.7261 -0.8493
  147SOL     OW  439   2.581   2.119   1.228  0.4574  0.8272 -0.8385
  147SOL    HW1  440   2.679   2.099   1.247  0.1187  1.1093 -1.3965
  147SOL    HW2  441   2.569   2.184   1.151 -0.6934  0.3073  0.3392
  148SOL     OW  442   1.636   0.441   0.154  0.2141  0.0258 -0.3817
  148SOL    HW1  443   1.668   0.497   0.077 -0.5431  1.2205 -0.6990
  148SOL    HW2  444   1.560   0.378   0.131  0.6484  0.3828 -1.0546
  149SOL     OW  445   0.986   1.560   2.758  0.2359 -0.5756  0.0796
  149SOL    HW1  446   1.042   1.483   2.792 -2.3216 -0.8217  0.2918
  149SOL    HW2  447   0.905   1.528   2.700  0.0637 -0.5191 -3.0086
  150SOL     OW  448   1.041   2.229   0.578  0.4794  0.5297 -0.3963
  150SOL    HW1  449   1.051   2.247   0.679  0.5059  0.9675 -0.7490
  150SOL    HW2  450   1.063   2.129   0.558 -0.5774  0.8122  2.6065
  151SOL     OW  451   0.548   1.674   2.892  0.1178 -0.3110  0.5272
  151SOL    HW1  452   0.531   1.574   2.890  1.2730 -4.0307 -0.3215
  151SOL    HW2  453   0.611   1.696   2.818 -1.8579  0.4520  0.0787
  152SOL     OW  454   2.866   1.299   0.480 -0.2057 -0.2077  0.4899
  152SOL    HW1  455   2.966   1.326   0.462  0.9057 -2.7199 -0.4834
  152SOL    HW2  456   2.848   1.213   0.426 -2.3516  0.1147  0.9894
  153SOL     OW  457   2.299   2.538   0.530  0.3520  0.0406 -0.7439
  153SOL    HW1  458   2.304   2.490   0.617 -1.3875  1.0282 -2.3114
  153SOL    HW2  459   2.388   2.575   0.490  0.6617  1.0710  0.6335
  154SOL     OW  460   0.617   0.068   1.072  0.1311  0.1133 -0.1324
  154SOL    HW1  461   0.668   0.155   1.069 -0.3265  2.0980  0.1845
  154SOL    HW2  462   0.659   3.097   1.012 -0.9529  1.0810  1.9768
  155SOL     OW  463   0.396   2.090   0.784 -0.4696 -0.3390 -0.8637
  155SOL    HW1  464   0.497   2.073   0.798 -0.2984  0.7194 -0.6345
  155SOL    HW2  465   0.370   2.149   0.863 -0.8359 -1.4562  0.5700
  156SOL     OW  466   2.665   2.408   0.033 -0.2373 -0.4809 -0.1313
  156SOL    HW1  467   2.656   2.345   3.051  0.1473  0.9338  1.6360
  156SOL    HW2  468   2.760   2.404   0.075  2.0668  1.1117 -1.3132
  157SOL     OW  469   1.059   2.085   1.350  0.0265 -0.0907 -0.4067
  157SOL    HW1  470   0.969   2.115   1.314  0.7614 -0.3216  0.2784
  157SOL    HW2  471   1.069   1.983   1.340  0.5067  0.3430  0.0181
  158SOL     OW  472   1.799   0.653   3.090  0.1564  0.2638 -0.2704
  158SOL    HW1  473   1.761   0.582   3.023  0.0167 -2.7741 -0.4784
  158SOL    HW2  474   1.836   0.732   3.038  1.5076 -1.2224 -0.0046
  159SOL     OW  475   0.995   0.402   3.096 -0.2619 -0.1036  0.0103
  159SOL    HW1  476   0.960   0.379   0.091  0.3411  1.2881 -1.0918
  159SOL    HW2  477   1.097   0.414   0.007  1.6488 -0.8972 -0.0879
  160SOL     OW  478   1.154   1.464   3.078  0.2416 -0.2972  0.2566
  160SOL    HW1  479   1.160   1.564   3.072  3.3223 -1.9304  0.7601
  160SOL    HW2  480   1.074   1.438   0.039  1.5997 -0.5582 -3.2843
  161SOL     OW  481   3.045   2.138   2.915  0.1645 -0.2302 -0.4538
  161SOL    HW1  482   2.992   2.104   2.835 -1.0728  0.9964  1.9384
  161SOL    HW2  483   0.016   2.070   2.950 -0.4472  2.5329  0.3638
  162SOL     OW  484   0.630   2.738   0.919  0.2638 -0.3248 -0.0426
  162SOL    HW1  485   0.665   2.836   0.912 -0.2222  2.5076 -0.9779
  162SOL    HW2  486   0.555   2.737   0.983 -1.8806  0.6314 -1.1336
  163SOL     OW  487   2.835   1.225   0.013  0.1012  0.2724 -0.2247
  163SOL    HW1  488   2.857   1.319   0.040  0.9692 -0.9663 -0.2797
  163SOL    HW2  489   2.767   1.176   0.078 -0.2091 -1.6705  2.4492
  164SOL     OW  490   0.194   2.784   2.822  0.0757  0.1243  0.6361
  164SOL    HW1  491   0.185   2.691   2.855  0.5264  0.6423 -1.4731
  164SOL    HW2  492   0.293   2.816   2.820  0.5924 -0.6312 -0.3306
  165SOL     OW  493   2.093   0.315   1.306 -0.1903  0.2583  0.7162
  165SOL    HW1  494   2.140   0.390   1.253  0.5150  1.9159 -0.2041
  165SOL    HW2  495   2.108   0.229   1.259 -3.0151  0.4165  2.4581
  166SOL     OW  496   2.033   0.362   1.555 -0.0789 -0.4262  0.6197
  166SOL    HW1  497   2.023   0.282   1.616  0.1133 -1.4328  1.0299
  166SOL    HW2  498   2.027   0.342   1.456 -0.7488 -1.5249 -1.5956
  167SOL     OW  499   1.079   0.236   1.899  0.1647 -0.0959 -0.0175
  167SOL    HW1  500   0.978   0.227   1.914 -1.7972 -0.5883  1.0375
  167SOL    HW2  501   1.126   0.191   1.980  2.1463 -0.9363  0.8329
  168SOL     OW  502   2.543   0.295   2.007 -0.0801 -0.1318  0.0064
  168SOL    HW1  503   2.570   0.392   2.002  0.7918  0.3191  0.8676
  168SOL    HW2  504   2.494   0.265   1.925  0.3997  0.2870  0.1862
  169SOL     OW  505   0.380   1.338   0.050  0.2752 -0.2363 -0.2105
  169SOL    HW1  506   0.337   1.345   3.057 -0.2368 -0.8162  1.4984
  169SOL    HW2  507   0.398   1.235   0.067  2.4649 -2.9262  0.5009
  170SOL     OW  508   0.176   1.392   1.665 -0.2071  0.4443 -0.4697
  170SOL    HW1  509   0.114   1.325   1.708 -1.4263  1.9158 -1.8787
  170SOL    HW2  510   0.121   1.462   1.616  1.1028  0.0671 -1.4726
  171SOL     OW  511   1.293   2.246   2.042 -0.3012 -0.2643 -0.2197
  171SOL    HW1  512   1.251   2.337   2.020 -2.2491 -0.6775  0.2945
  171SOL    HW2  513   1.224   2.172   2.027 -1.1418  2.6415 -0.3565
  172SOL     OW  514   0.426   2.447   1.385  0.1382 -0.1372 -0.2457
  172SOL    HW1  515   0.432   2.534   1.436 -1.4339 -2.3444  1.0158
  172SOL    HW2  516   0.445   2.459   1.287 -0.2948 -0.2980  3.2271
  173SOL     OW  517   1.384   2.625   0.875 -0.1830 -0.7054  0.5019
  173SOL    HW1  518   1.445   2.595   0.798  2.6156  0.3521  1.9528
  173SOL    HW2  519   1.303   2.566   0.877  1.5783  2.9647 -0.1227
  174SOL     OW  520   1.226   0.055   0.168  0.3086  0.3898 -0.0252
  174SOL    HW1  521   1.183   0.087   0.255  0.7283 -0.7193  1.7013
  174SOL    HW2  522   1.228   3.051   0.169  1.0193  0.2289 -0.2577
  175SOL     OW  523   0.921   0.927   2.732  0.4385 -0.1642 -0.1882
  175SOL    HW1  524   0.951   1.022   2.717 -0.7412  0.3053  0.3173
  175SOL    HW2  525   0.869   0.895   2.650  0.6770 -1.9603  2.2109
  176SOL     OW  526   1.686   0.806   0.412  0.3274  0.3602 -0.1563
  176SOL    HW1  527   1.787   0.830   0.409  1.1115  0.9161  1.4384
  176SOL    HW2  528   1.642   0.811   0.505 -0.4782  1.6676  1.4089
  177SOL     OW  529   1.360   0.724   1.009 -0.5839  0.1345  0.2046
  177SOL    HW1  530   1.260   0.726   0.985  0.4315  1.1920  0.9196
  177SOL    HW2  531   1.381   0.743   1.106  1.7245  0.3485  0.1006
  178SOL     OW  532   2.623   1.595   2.778  0.1269 -0.2548 -0.3524
  178SOL    HW1  533   2.638   1.512   2.833  0.8567 -0.0855  1.2965
  178SOL    HW2  534   2.607   1.577   2.680  0.8377 -0.6918 -3.3386
  179SOL     OW  535   0.687   2.554   3.025  0.7468 -0.2993 -0.0618
  179SOL    HW1  536   0.765   2.588   2.965 -0.0811 -0.3457  1.1449
  179SOL    HW2  537   0.725   2.499   0.001 -0.4099  2.2609 -1.7188
  180SOL     OW  538   1.873   1.647   1.603  0.2638  0.5386 -0.3325
  180SOL    HW1  539   1.924   1.566   1.558  0.9393  0.6819 -1.6748
  180SOL    HW2  540   1.782   1.619   1.636  0.2624 -0.0579 -2.2871
  181SOL     OW  541   1.076   1.314   2.264 -0.2653  0.3012  0.0162
  181SOL    HW1  542   1.040   1.348   2.175  0.8606 -0.5713 -0.8305
  181SOL    HW2  543   1.163   1.353   2.293  0.9388 -1.8035 -0.9277
  182SOL     OW  544   0.128   0.778   2.479 -0.3941  0.1323 -0.0622
  182SOL    HW1  545   0.145   0.681   2.508  0.7060 -1.9564 -1.7861
  182SOL    HW2  546   0.072   0.816   2.555 -0.4637  0.0445 -0.5329
  183SOL     OW  547   1.435   0.412   2.353  0.1015  0.2991  0.0916
  183SOL    HW1  548   1.381   0.377   2.431  2.0202 -3.0011  2.9748
  183SOL    HW2  549   1.524   0.456   2.388  2.6980  1.1555  1.7585
  184SOL     OW  550   0.028   0.397   1.405  0.3975  0.3221  0.0397
  184SOL    HW1  551   0.035   0.433   1.312  1.8283 -0.4616 -1.1508
  184SOL    HW2  552   3.036   0.360   1.426  1.3960 -0.8646  1.1598
  185SOL     OW  553   2.621   1.680   0.891  0.2600  0.2137  0.2335
  185SOL    HW1  554   2.658   1.775   0.911  0.4716  0.1888 -0.9040
  185SOL    HW2  555   2.681   1.607   0.916 -2.3149  2.7768 -1.5271
  186SOL     OW  556   0.491   1.827   2.490 -0.2438  0.0297 -0.0496
  186SOL    HW1  557   0.448   1.737   2.476  1.7620  1.3735 -0.6091
  186SOL    HW2  558   0.438   1.889   2.549 -1.3023 -0.1697 -1.1055
  187SOL     OW  559   2.571   1.942   3.042 -0.0768 -0.6767 -0.2343
  187SOL    HW1  560   2.664   1.978   3.061  0.0370  2.2677  0.3999
  187SOL    HW2  561   2.504   2.011   3.080 -0.3113  2.9243 -0.5092
  188SOL     OW  562   0.672   2.159   0.136  0.0248 -0.1366  0.0411
  188SOL    HW1  563   0.765   2.134   0.167 -0.6656  2.4694  3.6971
  188SOL    HW2  564   0.599   2.103   0.181  0.4055 -0.1501 -2.0315
  189SOL     OW  565   2.226   1.113   0.151  0.3730  0.4701 -0.1943
  189SOL    HW1  566   2.287   1.172   0.203 -1.0254  2.0848 -3.3256
  189SOL    HW2  567   2.249   1.120   0.049  0.9981  0.3804  1.1933
  190SOL     OW  568   0.906   1.738   1.986 -0.4329 -0.3837  0.2508
  190SOL    HW1  569   0.852   1.794   1.919 -0.1760  0.4231  0.7999
  190SOL    HW2  570   1.009   1.763   1.982  1.1396  0.2244  0.6167
  191SOL     OW  571   2.335   0.668   1.720  0.4229 -0.2737  1.0553
  191SOL    HW1  572   2.358   0.594   1.783 -1.5909  3.8407 -0.7295
  191SOL    HW2  573   2.241   0.659   1.685  1.4435  2.2496  1.6257
  192SOL     OW  574   1.940   0.178   1.726 -0.0781  0.4139  0.2631
  192SOL    HW1  575   1.909   0.148   1.820  0.1253  1.8588 -1.5458
  192SOL    HW2  576   1.881   0.141   1.652  1.3115  0.2081 -0.2932
  193SOL     OW  577   0.108   0.739   0.725 -0.1973 -0.3342 -0.5134
  193SOL    HW1  578   0.160   0.748   0.810 -3.1516 -3.6870  0.5266
  193SOL    HW2  579   0.145   0.663   0.674  0.4613  2.5644 -0.5972
  194SOL     OW  580   1.540   2.526   1.592  0.1244 -0.1067  0.6000
  194SOL    HW1  581   1.522   2.464   1.513 -1.9522  3.3860  2.2813
  194SOL    HW2  582   1.637   2.532   1.615 -1.8100  0.2711 -0.8473
  195SOL     OW  583   2.665   0.604   1.105 -0.5880 -0.0051 -0.0223
  195SOL    HW1  584   2.730   0.592   1.023  3.2000  1.6043 -1.4067
  195SOL    HW2  585   2.633   0.701   1.114  0.6802 -0.2081  0.3686
  196SOL     OW  586   1.554   2.145   2.023  0.6252 -0.2290  0.2714
  196SOL    HW1  587   1.609   2.207   2.079 -0.0819 -1.6654 -0.6852
  196SOL    HW2  588   1.457   2.176   2.033 -1.9829 -0.7948  1.3201
  197SOL     OW  589   0.153   3.019   2.698 -0.3089 -0.1217  0.1657
  197SOL    HW1  590   0.161   2.936   2.751 -1.8873  1.1818 -1.3442
  197SOL    HW2  591   0.062   3.065   2.717 -2.0059 -0.1899  0.7649
  198SOL     OW  592   1.132   1.074   0.765 -0.0986  0.2689  0.2211
  198SOL    HW1  593   1.217   1.048   0.812  0.5408  2.4556 -0.3476
  198SOL    HW2  594   1.078   0.991   0.752  1.4164 -3.9478 -0.6579
  199SOL     OW  595   2.559   1.071   1.638 -1.0743 -0.0128 -0.3560
  199SOL    HW1  596   2.601   1.056   1.547  0.2116 -1.0100  0.1526
  199SOL    HW2  597   2.465   1.032   1.639 -1.0984  0.7122 -1.7064
  200SOL     OW  598   2.232   2.695   2.243 -0.2820 -0.1997  0.0974
  200SOL    HW1  599   2.266   2.774   2.196 -1.9541  1.4245 -0.0216
  200SOL    HW2  600   2.230   2.714   2.343  1.8330 -1.1112  0.6767
  201SOL     OW  601   2.609   0.335   1.680 -0.0526  0.5942  0.6623
  201SOL    HW1  602   2.662   0.263   1.732  0.5204 -0.5992 -0.7985
  201SOL    HW2  603   2.603   0.297   1.587  1.8226  0.9623 -1.1445
  202SOL     OW  604   2.247   3.021   0.309 -0.0979  0.0139  0.5814
  202SOL    HW1  605   2.331   3.083   0.301  2.5415  1.2077 -0.8077
  202SOL    HW2  606   2.163   3.072   0.335  1.8911  1.1149  1.5241
  203SOL     OW  607   1.271   1.940   2.276 -0.0134 -0.3502 -0.6152
  203SOL    HW1  608   1.222   1.982   2.197 -1.0554  2.4236  1.0000
  203SOL    HW2  609   1.361   1.986   2.291 -0.0446  1.7028 -2.1820
  204SOL     OW  610   0.761   1.499   2.619 -0.0779 -0.0132  0.3097
  204SOL    HW1  611   0.691   1.427   2.646 -2.2384 -2.9185  1.2800
  204SOL    HW2  612   0.792   1.478   2.524 -0.6002  1.4627  2.1536
  205SOL     OW  613   1.060   1.788   1.335 -0.9523  0.3972 -0.8421
  205SOL    HW1  614   1.114   1.771   1.252 -2.2739  2.3678 -0.8557
  205SOL    HW2  615   0.964   1.755   1.319 -0.9452  1.2522 -0.3732
  206SOL     OW  616   0.152   0.291   2.826  0.0926  0.0687  0.1135
  206SOL    HW1  617   0.151   0.294   2.725  1.6866 -1.0351 -0.1743
  206SOL    HW2  618   0.175   0.200   2.867 -0.9517  1.4809  1.4478
  207SOL     OW  619   1.915   2.669   2.355 -0.5408  0.3456  0.0066
  207SOL    HW1  620   1.918   2.677   2.458  3.5098 -2.3310 -1.5419
  207SOL    HW2  621   1.971   2.742   2.311  2.9664 -3.0106  2.8625
  208SOL     OW  622   0.865   2.354   1.060 -0.0527 -0.4284 -0.3449
  208SOL    HW1  623   0.948   2.400   1.094  1.0044  0.4001 -2.1842
  208SOL    HW2  624   0.838   2.403   0.973 -2.6651  0.6855  0.6521
  209SOL     OW  625   1.380   1.133   2.465  0.4282 -0.5325 -0.4311
  209SOL    HW1  626   1.295   1.078   2.450  0.2962 -0.9969 -3.7314
  209SOL    HW2  627   1.413   1.135   2.565  3.8029  0.8361  3.1577
  210SOL     OW  628   2.031   0.775   1.390  0.3953  0.3856  0.0166
  210SOL    HW1  629   2.127   0.752   1.361  2.2323 -1.6039 -0.5708
  210SOL    HW2  630   1.970   0.705   1.356 -0.2520  1.4968  2.3050
  211SOL     OW  631   0.837   2.583   0.595 -0.2020 -0.2019  0.2929
  211SOL    HW1  632   0.853   2.594   0.495  0.9651  0.7331 -0.1231
  211SOL    HW2  633   0.917   2.620   0.647 -2.0265  0.8515 -1.5229
  212SOL     OW  634   1.805   1.727   0.446  0.7827 -0.1879  0.0215
  212SOL    HW1  635   1.734   1.799   0.447  0.1995  1.7965 -3.9491
  212SOL    HW2  636   1.877   1.734   0.518 -0.2740 -1.7777  1.1490
  213SOL     OW  637   1.517   0.163   2.827  0.0947  0.3810 -0.2904
  213SOL    HW1  638   1.428   0.135   2.865  0.6212  0.7673 -1.5427
  213SOL    HW2  639   1.578   0.179   2.903  0.0737  1.2551 -0.2513
  214SOL     OW  640   1.294   1.499   2.233 -0.6683 -0.1696  0.2728
  214SOL    HW1  641   1.271   1.490   2.136  0.1489  1.0760  0.3306
  214SOL    HW2  642   1.247   1.580   2.268  0.5371 -1.8956  0.3468
  215SOL     OW  643   0.728   1.816   0.242 -0.1535  0.2993 -0.1889
  215SOL    HW1  644   0.647   1.884   0.245 -3.0839 -0.2586 -0.9831
  215SOL    HW2  645   0.719   1.743   0.312  1.4575 -0.6273  0.5824
  216SOL     OW  646   0.242   2.722   2.159 -0.1641  0.2425 -1.1345
  216SOL    HW1  647   0.323   2.668   2.172 -2.0333 -1.5892 -0.3366
  216SOL    HW2  648   0.197   2.691   2.075  1.9982  0.3332 -0.5912
  217SOL     OW  649   2.489   0.896   0.873  0.1939  0.2135  0.6293
  217SOL    HW1  650   2.467   0.995   0.890  1.5881  1.8727 -2.5066
  217SOL    HW2  651   2.407   0.854   0.827  0.2956  1.0286  1.0882
  218SOL     OW  652   1.733   1.439   2.006  0.4034 -0.5749 -0.4760
  218SOL    HW1  653   1.691   1.377   2.078  2.1106  0.4015 -0.6297
  218SOL    HW2  654   1.835   1.442   2.014 -1.1798 -0.4444 -1.1458
  219SOL     OW  655   1.938   1.539   0.307  0.0923 -0.3854  0.0905
  219SOL    HW1  656   1.873   1.553   0.228  2.2957 -0.6535  1.7944
  219SOL    HW2  657   1.922   1.610   0.383  0.9519 -0.6455  1.4365
  220SOL     OW  658   1.430   1.609   0.988  0.4556  0.0013 -0.0275
  220SOL    HW1  659   1.413   1.623   0.884 -1.4251 -2.0607 -1.8533
  220SOL    HW2  660   1.518   1.645   1.021 -2.1545 -0.7134  2.1203
  221SOL     OW  661   0.858   0.551   2.885 -1.0083  0.9148 -0.4948
  221SOL    HW1  662   0.922   0.626   2.872 -1.4621 -3.5896  0.3545
  221SOL    HW2  663   0.890   0.502   2.969  1.7428  1.4793 -0.9630
  222SOL     OW  664   1.381   1.415   0.344 -0.1864 -0.1107 -0.3458
  222SOL    HW1  665   1.385   1.426   0.444 -1.2666  2.1164 -2.8237
  222SOL    HW2  666   1.313   1.342   0.311  1.6348 -0.8667  0.5034
  223SOL     OW  667   0.992   0.036   3.079  0.6653 -0.2381  0.5496
  223SOL    HW1  668   1.046   0.043   0.068 -0.8512 -0.1849  0.6150
  223SOL    HW2  669   0.900   0.000   0.004 -1.5052 -0.4457 -0.0311
  224SOL     OW  670   2.313   0.258   1.504 -0.2125  0.7721  0.2327
  224SOL    HW1  671   2.244   0.309   1.454  1.4321 -1.0249  1.2710
  224SOL    HW2  672   2.305   0.280   1.603 -1.6421 -0.9314 -0.5360
  225SOL     OW  673   0.389   0.025   1.217 -0.5943  0.6571 -0.7115
  225SOL    HW1  674   0.320   0.097   1.209  0.3769  0.6000 -2.3138
  225SOL    HW2  675   0.463   0.045   1.149  1.5923  1.4297 -1.0419
  226SOL     OW  676   1.171   1.375   2.824 -0.4203  0.0552  0.3495
  226SOL    HW1  677   1.266   1.381   2.796  0.0426 -1.3545 -3.1763
  226SOL    HW2  678   1.157   1.405   2.920 -1.1539  2.2667 -0.3400
  227SOL     OW  679   1.221   1.748   1.113  0.5768  0.2423  0.3465
  227SOL    HW1  680   1.240   1.675   1.046  0.6720 -0.2090  1.9024
  227SOL    HW2  681   1.286   1.826   1.090  1.6475  1.8079 -0.2088
  228SOL     OW  682   0.553   1.506   0.601  0.6331  0.0784 -0.2167
  228SOL    HW1  683   0.558   1.406   0.592 -1.2280 -1.8338  0.5688
  228SOL    HW2  684   0.454   1.534   0.625 -0.3644 -0.0569  1.7378
  229SOL     OW  685   1.254   0.464   0.072  0.0011  0.3206 -0.2073
  229SOL    HW1  686   1.277   0.545   0.015  0.0102 -2.8891 -1.0115
  229SOL    HW2  687   1.329   0.397   0.071  2.8023  1.8793 -0.1572
  230SOL     OW  688   1.693   0.475   2.435  0.1617 -0.7063  0.3097
  230SOL    HW1  689   1.737   0.397   2.382 -1.8690 -2.8598 -0.0987
  230SOL    HW2  690   1.767   0.533   2.466 -0.0723 -1.7379  0.1930
  231SOL     OW  691   1.137   1.706   2.313 -0.5410  0.3559  0.3369
  231SOL    HW1  692   1.045   1.700   2.267  1.1039  1.2771  1.3818
  231SOL    HW2  693   1.171   1.801   2.301 -0.5777  0.5314  1.5976
  232SOL     OW  694   2.450   2.015   0.867 -1.2025 -0.0255 -0.1267
  232SOL    HW1  695   2.399   2.078   0.927 -2.2095 -1.6435  3.0835
  232SOL    HW2  696   2.386   1.944   0.833  2.1117 -0.7412 -0.3156
  233SOL     OW  697   2.643   2.765   0.197 -0.3509 -0.0343  0.1687
  233SOL    HW1  698   2.661   2.704   0.120 -3.4881  0.2896  0.6353
  233SOL    HW2  699   2.616   2.858   0.169  2.3233  0.1137  1.6942
  234SOL     OW  700   0.954   0.226   2.866 -0.5622 -0.6647 -0.3796
  234SOL    HW1  701   0.931   0.317   2.906 -2.1699 -1.0244 -0.5295
  234SOL    HW2  702   0.993   0.162   2.939 -1.9443  2.4545 -1.8893
  235SOL     OW  703   2.653   0.391   2.714 -0.6053  0.2089 -0.1273
  235SOL    HW1  704   2.630   0.421   2.618  0.6570 -1.2225 -0.1809
  235SOL    HW2  705   2.678   0.476   2.762 -1.9627 -1.5057 -3.2468
  236SOL     OW  706   2.124   2.626   1.771  0.4882  0.2769 -0.2067
  236SOL    HW1  707   2.094   2.645   1.868  1.4390 -2.4392 -0.4192
  236SOL    HW2  708   2.160   2.532   1.767 -2.1275 -1.5919  0.8321
  237SOL     OW  709   0.561   1.293   1.857  0.9597 -0.8688  0.8345
  237SOL    HW1  710   0.540   1.193   1.824  0.9345 -1.5225 -0.7019
  237SOL    HW2  711   0.632   1.298   1.926  2.0531  1.1201 -2.0415
  238SOL     OW  712   1.541   2.977   2.743 -0.3615  0.1521  0.0778
  238SOL    HW1  713   1.536   3.070   2.775  1.2644 -3.6347 -2.1790
  238SOL    HW2  714   1.638   2.943   2.723 -0.3755 -0.6387  0.9628
  239SOL     OW  715   0.053   2.085   1.681 -0.2362 -0.3398  0.2423
  239SOL    HW1  716   3.096   2.117   1.764  1.0555  0.7362  0.6976
  239SOL    HW2  717   0.098   1.993   1.698  1.7708 -1.1414 -0.9718
  240SOL     OW  718   0.018   2.435   0.727  0.1320 -0.1115 -0.0027
  240SOL    HW1  719   3.018   2.475   0.737 -2.2687  2.1849  0.7815
  240SOL    HW2  720   0.021   2.353   0.663 -1.4010 -0.4240 -1.2156
  241SOL     OW  721   2.347   1.129   0.929 -0.0782  0.0215  0.0527
  241SOL    HW1  722   2.413   1.201   0.944 -1.2736  1.0778 -1.3731
  241SOL    HW2  723   2.271   1.156   0.868  1.0226 -0.7631  0.0681
  242SOL     OW  724   2.040   2.097   2.702 -0.5962  0.2072  0.1195
  242SOL    HW1  725   2.135   2.065   2.721  1.2045 -0.4438 -0.6530
  242SOL    HW2  726   1.976   2.071   2.774 -0.5137 -2.7171 -1.0661
  243SOL     OW  727   0.808   2.442   1.513 -0.0091  0.0303 -0.0124
  243SOL    HW1  728   0.832   2.540   1.493 -0.3943 -0.8172  0.7265
  243SOL    HW2  729   0.719   2.441   1.566 -1.0895  2.8565  1.6673
  244SOL     OW  730   2.306   3.070   2.884 -0.1099  0.2702 -0.1427
  244SOL    HW1  731   2.339   2.984   2.929  1.0955 -0.6790  0.7020
  244SOL    HW2  732   2.299   3.054   2.782  3.4361 -1.2534 -0.6529
  245SOL     OW  733   1.402   2.913   0.892 -0.2929 -0.2545 -0.0091
  245SOL    HW1  734   1.429   2.916   0.989  0.3624 -0.1047  0.7464
  245SOL    HW2  735   1.384   2.817   0.861  0.5225 -2.3931  0.2858
  246SOL     OW  736   1.707   2.421   0.363  0.5604  0.0047  0.1827
  246SOL    HW1  737   1.711   2.502   0.298 -0.0413  1.7692  0.8811
  246SOL    HW2  738   1.764   2.446   0.443 -0.0113  1.2059  1.6432
  247SOL     OW  739   1.060   0.239   2.375 -0.3347  0.3437 -0.0864
  247SOL    HW1  740   1.015   0.326   2.351  1.3666 -1.7638 -1.0846
  247SOL    HW2  741   1.147   0.256   2.432 -1.6211 -0.5902  0.1208
  248SOL     OW  742   0.455   1.745   1.746  0.6803 -0.2171  0.3828
  248SOL    HW1  743   0.518   1.803   1.691 -0.2599 -3.7474 -0.0265
  248SOL    HW2  744   0.467   1.649   1.723  0.5884  1.1317 -0.9681
  249SOL     OW  745   2.012   0.347   0.508 -0.1262 -0.0266  0.0891
  249SOL    HW1  746   2.088   0.295   0.461  0.9106 -0.7720 -0.1110
  249SOL    HW2  747   2.001   0.446   0.480 -2.8696  2.4855  1.4140
  250SOL     OW  748   3.023   0.400   0.587  0.0772  0.0332  0.4588
  250SOL    HW1  749   0.001   0.381   0.651 -1.0481 -0.0248 -2.5826
  250SOL    HW2  750   3.053   0.468   0.520 -2.7717  1.4507  0.5024
  251SOL     OW  751   1.712   0.447   2.920 -0.0918  0.0824 -0.1954
  251SOL    HW1  752   1.644   0.445   2.840  0.2873  0.2723 -0.4867
  251SOL    HW2  753   1.741   0.352   2.946 -0.7822  2.1513 -1.8178
  252SOL     OW  754   1.672   1.712   2.035  0.2167 -0.4875 -0.1112
  252SOL    HW1  755   1.709   1.737   2.129  0.4154  0.1886  0.7884
  252SOL    HW2  756   1.685   1.616   2.017  1.2857  0.7911  0.9569
  253SOL     OW  757   2.726   2.364   1.642  0.3529 -0.9327  0.6185
  253SOL    HW1  758   2.740   2.444   1.701 -2.1999 -2.7335 -2.1474
  253SOL    HW2  759   2.713   2.276   1.688 -0.0681  1.1768 -0.0218
  254SOL     OW  760   2.847   1.457   0.988  0.1297 -0.3681  0.1563
  254SOL    HW1  761   2.928   1.462   1.043 -2.6835  0.1877 -0.7686
  254SOL    HW2  762   2.776   1.421   1.048  3.2821 -1.7826 -3.8019
  255SOL     OW  763   1.261   0.407   1.223  0.1362 -0.3121 -0.2360
  255SOL    HW1  764   1.205   0.369   1.301  0.5194 -1.3167  0.7621
  255SOL    HW2  765   1.307   0.493   1.243 -0.8804 -0.3715  0.5256
  256SOL     OW  766   1.841   2.367   1.630  0.3738  0.3490 -0.3219
  256SOL    HW1  767   1.859   2.428   1.549 -1.0978  3.2348 -0.2680
  256SOL    HW2  768   1.881   2.277   1.616  1.1275  0.4321  0.4527
  257SOL     OW  769   0.613   2.662   2.733  0.0363 -0.1498  0.0762
  257SOL    HW1  770   0.707   2.664   2.773  1.2806  0.2225  0.9545
  257SOL    HW2  771   0.585   2.567   2.699 -0.9997 -2.3998 -0.5478
  258SOL     OW  772   1.031   2.254   2.884 -0.0194 -0.3398  0.3986
  258SOL    HW1  773   1.103   2.187   2.849  1.0057 -0.9022 -0.7138
  258SOL    HW2  774   0.939   2.230   2.845  0.2042 -0.3507 -1.9820
  259SOL     OW  775   1.162   3.095   2.501 -0.4226  0.1564 -0.6569
  259SOL    HW1  776   1.209   3.004   2.504  0.8490 -1.7255  3.3886
  259SOL    HW2  777   1.220   0.080   2.514  0.4751 -1.5923  3.6789
  260SOL     OW  778   1.811   0.579   1.071  0.7789  0.4112  0.1279
  260SOL    HW1  779   1.792   0.676   1.058 -0.1354  3.1269  0.0444
  260SOL    HW2  780   1.844   0.551   1.159 -1.7649  2.9111 -1.6063
  261SOL     OW  781   0.536   0.228   2.646  0.7094  0.2854 -0.1045
  261SOL    HW1  782   0.467   0.263   2.575  1.3667 -0.1674 -1.1230
  261SOL    HW2  783   0.601   0.303   2.667 -0.0714 -0.8838 -0.8811
  262SOL     OW  784   0.277   2.009   1.994 -0.7747  0.3258 -0.5248
  262SOL    HW1  785   0.334   2.028   2.078 -1.6199 -1.6165  2.7825
  262SOL    HW2  786   0.314   2.053   1.909  0.3238  0.5532  1.0939
  263SOL     OW  787   2.908   1.481   2.260  0.3960  0.7977  0.1104
  263SOL    HW1  788   2.953   1.571   2.235 -1.8971 -0.1540 -0.9000
  263SOL    HW2  789   2.885   1.491   2.361  2.6625 -0.8769 -0.1229
  264SOL     OW  790   0.907   1.276   1.021  0.1570 -0.0623 -0.1892
  264SOL    HW1  791   0.847   1.224   0.960  2.2964  1.7455  0.2473
  264SOL    HW2  792   0.865   1.369   1.044  0.8333  2.3245 -1.2059
  265SOL     OW  793   1.155   2.471   0.896  0.0119 -0.6050 -0.6836
  265SOL    HW1  794   1.128   2.379   0.869 -1.0423  1.8403  0.2746
  265SOL    HW2  795   1.129   2.491   0.994 -0.0855 -0.4800  0.3210
  266SOL     OW  796   1.620   1.010   1.173  0.0074 -0.3942  0.2727
  266SOL    HW1  797   1.675   1.042   1.254 -1.9882  0.9751  1.0423
  266SOL    HW2  798   1.605   1.085   1.107  0.7185  1.7625  1.2371
  267SOL     OW  799   2.237   1.150   2.977  0.1953 -0.1812 -0.4695
  267SOL    HW1  800   2.180   1.159   2.894 -1.2651  1.8864  2.7048
  267SOL    HW2  801   2.329   1.120   2.957 -1.6596  1.6660 -1.4916
  268SOL     OW  802   1.203   0.379   0.333 -0.0577  0.1446 -0.5292
  268SOL    HW1  803   1.286   0.374   0.387 -2.1051  0.2762  0.4865
  268SOL    HW2  804   1.239   0.412   0.244  1.6401 -1.2314 -0.6070
  269SOL     OW  805   2.351   0.491   2.650 -0.3221 -0.0786  0.0328
  269SOL    HW1  806   2.394   0.555   2.720 -0.8130  0.5606  1.4568
  269SOL    HW2  807   2.333   0.400   2.690 -1.7361 -0.9995  0.9951
  270SOL     OW  808   0.173   1.065   3.035  0.2175  0.2331 -0.0021
  270SOL    HW1  809   0.222   1.011   2.964 -0.3181 -1.1052  1.4666
  270SOL    HW2  810   0.105   1.129   3.001  0.3889 -1.4895  0.6303
  271SOL     OW  811   2.660   1.106   0.169 -0.5000 -0.7033 -0.3096
  271SOL    HW1  812   2.602   1.029   0.145  0.1641 -0.6230 -1.4900
  271SOL    HW2  813   2.721   1.080   0.247  0.0215 -1.2721  1.2632
  272SOL     OW  814   2.809   2.689   2.655 -0.2953  0.5296  0.1186
  272SOL    HW1  815   2.912   2.695   2.657  0.1309  1.2778  0.8834
  272SOL    HW2  816   2.777   2.603   2.703 -0.8010 -3.2879 -0.8149
  273SOL     OW  817   2.792   3.020   3.019  0.1181  0.1001  0.5830
  273SOL    HW1  818   2.754   0.008   2.978  2.2079 -0.0247  0.3707
  273SOL    HW2  819   2.893   3.036   3.044  2.3179 -3.6843 -2.3780
  274SOL     OW  820   0.771   2.515   0.859  0.2667  0.2936  0.0361
  274SOL    HW1  821   0.738   2.604   0.900  3.0762  1.4007  1.1712
  274SOL    HW2  822   0.793   2.526   0.761  3.7942  1.0595 -0.1119
  275SOL     OW  823   2.639   1.353   0.289  0.3931  0.7361 -0.9075
  275SOL    HW1  824   2.718   1.342   0.358  1.3496  1.3885  2.1339
  275SOL    HW2  825   2.631   1.269   0.231  0.1414 -0.2466  0.0767
  276SOL     OW  826   2.898   1.213   1.657  0.2169 -0.4685  0.0307
  276SOL    HW1  827   2.880   1.110   1.645 -1.7359  1.4373 -1.0155
  276SOL    HW2  828   2.870   1.265   1.575  0.6076  0.5131 -0.6641
  277SOL     OW  829   2.155   0.103   1.140 -0.4119  0.2757 -0.0862
  277SOL    HW1  830   2.243   0.048   1.134  0.2383 -2.7322  1.7580
  277SOL    HW2  831   2.122   0.134   1.048 -0.8404 -1.4683 -3.4323
  278SOL     OW  832   1.378   2.367   2.277  0.2184  0.6457 -0.3288
  278SOL    HW1  833   1.428   2.447   2.238  1.5284  0.9517 -0.2815
  278SOL    HW2  834   1.342   2.313   2.200  3.2892  2.3722 -0.9258
  279SOL     OW  835   1.572   2.035   1.010 -0.3677  0.1031  0.8357
  279SOL    HW1  836   1.635   2.087   1.070 -0.6660  0.2386 -1.9344
  279SOL    HW2  837   1.554   2.085   0.928  1.6303 -0.9543  2.5311
  280SOL     OW  838   0.243   1.336   1.015  0.5853  0.4590 -0.0050
  280SOL    HW1  839   0.202   1.393   0.941 -3.3680 -0.8936 -0.6748
  280SOL    HW2  840   0.309   1.399   1.065 -0.1487 -2.0580 -1.3508
  281SOL     OW  841   3.018   0.983   2.405 -0.1224 -0.1597  0.3071
  281SOL    HW1  842   3.097   0.919   2.418 -0.5789  2.3915  0.3187
  281SOL    HW2  843   3.047   1.077   2.382 -0.9474 -1.6915  2.7626
  282SOL     OW  844   0.622   1.402   3.001 -0.2389  0.0253 -0.0338
  282SOL    HW1  845   0.540   1.412   3.054  0.9794 -0.8205 -0.3300
  282SOL    HW2  846   0.703   1.448   3.046 -0.5444 -0.9196  0.2628
  283SOL     OW  847   2.353   2.427   0.034 -0.0105 -0.1462 -0.5338
  283SOL    HW1  848   2.355   2.436   0.135  0.6830  1.6566 -0.2174
  283SOL    HW2  849   2.416   2.494   3.086 -0.8936 -0.4475 -0.1215
  284SOL     OW  850   0.756   0.120   0.697 -0.1334 -0.3069 -0.0925
  284SOL    HW1  851   0.822   0.199   0.696 -1.6126 -1.4059 -0.0280
  284SOL    HW2  852   0.670   0.141   0.658  3.2402  0.9721  0.9915
  285SOL     OW  853   2.145   1.265   2.707 -0.0340  0.3231  0.4015
  285SOL    HW1  854   2.163   1.242   2.610 -2.4214  0.8719  0.6184
  285SOL    HW2  855   2.058   1.215   2.741 -2.5845 -1.7102  1.7220
  286SOL     OW  856   1.808   2.550   1.390  0.1079 -0.2498 -0.1646
  286SOL    HW1  857   1.906   2.555   1.365 -0.4637  3.2263  1.1357
  286SOL    HW2  858   1.762   2.640   1.387  1.6186  4.7006 -0.9941
  287SOL     OW  859   0.920   0.354   0.706 -0.0420  0.1957  0.5632
  287SOL    HW1  860   0.905   0.399   0.794  2.6756  1.1475 -0.9664
  287SOL    HW2  861   0.965   0.412   0.637 -2.3377  1.9985  1.7349
  288SOL     OW  862   1.155   2.431   2.523 -0.0870 -0.0499 -0.1287
  288SOL    HW1  863   1.081   2.459   2.586  0.2343 -0.1436 -3.6767
  288SOL    HW2  864   1.157   2.482   2.436  0.3430  0.7052  0.7424
  289SOL     OW  865   0.000   1.790   1.128  1.0446 -0.3221 -0.3212
  289SOL    HW1  866   0.005   1.832   1.035  0.3483 -2.4190  0.7643
  289SOL    HW2  867   0.029   1.695   1.119 -2.7484  2.1491  0.1042
  290SOL     OW  868   1.283   2.253   1.085  0.1450  0.3237 -0.2661
  290SOL    HW1  869   1.277   2.265   1.187 -0.9691  0.0410  0.1888
  290SOL    HW2  870   1.337   2.321   1.037 -0.2720  1.0093 -1.2417
  291SOL     OW  871   1.440   2.697   0.206 -0.2410 -0.0386 -0.1805
  291SOL    HW1  872   1.405   2.788   0.179  1.6379  2.3711 -0.9128
  291SOL    HW2  873   1.533   2.681   0.172  1.2006 -0.0298  2.2546
  292SOL     OW  874   0.628   0.196   1.765  0.0624  0.7095  0.3003
  292SOL    HW1  875   0.649   0.291   1.734  1.1030 -2.1540 -1.0628
  292SOL    HW2  876   0.698   0.168   1.838 -0.2800  1.1873  2.1429
  293SOL     OW  877   2.352   2.228   1.001 -0.1290  0.2791 -0.6261
  293SOL    HW1  878   2.440   2.282   1.015  1.9037  1.1255 -0.4437
  293SOL    HW2  879   2.286   2.247   1.075  2.4521 -0.8512 -0.8355
  294SOL     OW  880   0.885   0.448   2.303  0.2847  0.3478 -0.4171
  294SOL    HW1  881   0.842   0.374   2.247  1.1437  0.4743 -1.7882
  294SOL    HW2  882   0.818   0.485   2.372 -1.8325 -0.1462  0.6486
  295SOL     OW  883   1.475   1.751   1.405 -0.6962  0.5735 -0.5495
  295SOL    HW1  884   1.449   1.802   1.321  3.2164 -0.6179  0.6851
  295SOL    HW2  885   1.533   1.813   1.466 -1.8780  0.9915  1.5146
  296SOL     OW  886   2.598   1.966   0.328 -0.0640 -0.3562  0.1497
  296SOL    HW1  887   2.696   1.994   0.313  3.4596  0.6307  1.5295
  296SOL    HW2  888   2.528   2.035   0.300  0.8370  2.6473 -0.3217
  297SOL     OW  889   2.437   0.092   0.238  0.4963 -0.5350  0.6992
  297SOL    HW1  890   2.484   0.032   0.177  0.4645  2.9140  1.0995
  297SOL    HW2  891   2.500   0.130   0.306 -1.3874 -2.0861 -1.6244
  298SOL     OW  892   0.821   2.937   2.676 -0.2310 -0.7008  0.2812
  298SOL    HW1  893   0.891   2.917   2.745 -1.1975  2.3085  0.9314
  298SOL    HW2  894   0.768   3.012   2.716 -0.3202 -0.9281 -1.0769
  299SOL     OW  895   0.843   2.093   2.116  0.9281  0.3611  0.3498
  299SOL    HW1  896   0.761   2.033   2.094 -0.8775  1.1405  0.8323
  299SOL    HW2  897   0.839   2.122   2.214  0.7063 -0.6912  1.8740
  300SOL     OW  898   3.011   2.966   2.269  0.6950 -0.1946 -0.3272
  300SOL    HW1  899   3.039   3.027   2.189 -2.2492 -0.1569 -3.4712
  300SOL    HW2  900   2.991   3.025   2.350  0.9479 -2.9066 -0.2257
  301SOL     OW  901   1.004   0.851   1.962 -0.6320  0.2586 -0.6640
  301SOL    HW1  902   1.001   0.770   2.015  1.1017  4.8463 -0.2931
  301SOL    HW2  903   1.094   0.898   1.974  0.2485 -1.6785  1.5236
  302SOL     OW  904   0.033   2.188   0.591  0.0432  0.2818  0.6797
  302SOL    HW1  905   0.134   2.202   0.578  0.9497  0.8715 -2.4516
  302SOL    HW2  906   0.008   2.090   0.582  2.2261  0.2215 -2.0389
  303SOL     OW  907   2.491   2.610   1.577 -0.3163 -0.9615  0.1562
  303SOL    HW1  908   2.561   2.546   1.612 -1.2028 -0.7047  1.6107
  303SOL    HW2  909   2.435   2.659   1.647  3.6785 -2.3375  0.3658
  304SOL     OW  910   2.882   0.949   1.578  0.1048 -0.1627  0.2183
  304SOL    HW1  911   2.890   0.866   1.637 -3.8104 -3.0803  1.7792
  304SOL    HW2  912   2.964   0.963   1.523  1.5973 -1.0463  0.9580
  305SOL     OW  913   0.774   1.505   1.060 -0.2838 -0.0368 -0.5893
  305SOL    HW1  914   0.730   1.529   0.972  1.2913 -0.3175  0.0632
  305SOL    HW2  915   0.814   1.583   1.116 -0.0764  0.4670  1.9652
  306SOL     OW  916   0.300   1.236   1.977  0.1362 -0.8862 -0.5599
  306SOL    HW1  917   0.249   1.173   1.915  1.1675  1.3085  0.1330
  306SOL    HW2  918   0.387   1.267   1.928  2.5023  2.3349 -1.1805
  307SOL     OW  919   0.744   0.436   1.746  0.2452  0.1080  0.4542
  307SOL    HW1  920   0.836   0.438   1.793 -2.6700 -2.6731  1.0926
  307SOL    HW2  921   0.756   0.446   1.646 -0.1824 -1.3597 -0.4614
  308SOL     OW  922   3.047   1.050   1.086 -0.4617 -0.0137 -0.4290
  308SOL    HW1  923   3.056   1.115   1.170 -1.6099 -1.3578  0.2977
  308SOL    HW2  924   2.950   1.039   1.060 -0.5818 -0.2389  1.5625
  309SOL     OW  925   2.652   1.411   1.154  0.5901  0.1743 -0.1539
  309SOL    HW1  926   2.672   1.494   1.207 -0.3558 -1.1274 -1.4252
  309SOL    HW2  927   2.591   1.350   1.208  1.6038  0.1950 -0.1007
  310SOL     OW  928   2.924   2.042   2.690  0.2955  0.5324  0.0599
  310SOL    HW1  929   2.821   2.040   2.698 -3.4415 -0.2849  0.7870
  310SOL    HW2  930   2.961   2.050   2.597  1.2281  0.9995  1.7402
  311SOL     OW  931   2.641   2.589   2.327  0.5123 -0.3075 -0.0353
  311SOL    HW1  932   2.710   2.635   2.268 -0.3823 -0.2657  0.9526
  311SOL    HW2  933   2.608   2.653   2.397 -1.1056  2.8959  0.3600
  312SOL     OW  934   2.201   2.046   0.187 -0.2979  0.2527 -0.1380
  312SOL    HW1  935   2.108   2.089   0.204 -2.7270  1.4081 -2.2111
  312SOL    HW2  936   2.189   1.944   0.173 -0.0176 -1.8351  1.0534
  313SOL     OW  937   2.678   2.965   0.685 -0.8032  0.8663 -0.0089
  313SOL    HW1  938   2.593   3.020   0.677  1.5131  0.1600 -1.0558
  313SOL    HW2  939   2.689   2.878   0.631  0.5786 -1.0891  0.2179
  314SOL     OW  940   1.815   1.129   3.079  0.2245  0.3546  0.1954
  314SOL    HW1  941   1.716   1.110   3.086  1.6400 -2.0895 -0.1758
  314SOL    HW2  942   1.828   1.228   3.071 -1.3508 -0.5599 -0.2150
  315SOL     OW  943   1.406   2.970   2.312 -0.7473 -0.7522  0.3235
  315SOL    HW1  944   1.481   2.999   2.253 -0.8140  0.2630 -1.5480
  315SOL    HW2  945   1.444   2.887   2.358 -0.0860  0.1326 -0.8804
  316SOL     OW  946   3.092   1.161   0.163  0.1422  0.1390  0.5905
  316SOL    HW1  947   0.075   1.126   0.115 -3.1227  0.6732  0.8896
  316SOL    HW2  948   3.062   1.257   0.133 -1.3395  1.9472 -0.4033
  317SOL     OW  949   0.528   2.797   3.094  0.3304 -0.1357  0.1117
  317SOL    HW1  950   0.496   2.827   3.000  0.7234 -1.5069  0.5917
  317SOL    HW2  951   0.609   2.733   3.087 -3.2911  0.2393 -1.5518
  318SOL     OW  952   2.318   2.442   0.768  0.3574 -0.1304  0.0868
  318SOL    HW1  953   2.393   2.378   0.783 -1.5845  0.4466  1.3750
  318SOL    HW2  954   2.271   2.477   0.851 -0.2624 -1.0506 -1.5980
  319SOL     OW  955   1.229   1.991   2.558 -0.8172  0.1500 -0.0886
  319SOL    HW1  956   1.219   1.894   2.533 -0.9249  0.3769  3.0443
  319SOL    HW2  957   1.207   2.008   2.653 -0.5019  0.3586 -2.3014
  320SOL     OW  958   0.711   1.970   1.265 -0.0386 -0.3233  0.2466
  320SOL    HW1  959   0.740   2.064   1.296 -0.6074  1.2660 -1.5805
  320SOL    HW2  960   0.619   1.968   1.219 -1.2134 -0.2308  2.3824
  321SOL     OW  961   1.520   2.737   2.390  0.1291 -0.1289 -0.5634
  321SOL    HW1  962   1.476   2.714   2.478  0.5009 -0.8595 -1.4288
  321SOL    HW2  963   1.582   2.658   2.363  0.0368 -1.2720  2.4452
  322SOL     OW  964   2.734   1.513   2.012 -0.1004  0.3957 -0.2662
  322SOL    HW1  965   2.783   1.527   2.103  1.0957 -0.2763  2.6356
  322SOL    HW2  966   2.637   1.513   2.036 -0.6041 -2.2031 -0.1167
  323SOL     OW  967   2.561   0.865   1.144 -0.2000 -0.3132 -0.0966
  323SOL    HW1  968   2.540   0.850   1.042  2.4293  1.2910 -1.8937
  323SOL    HW2  969   2.483   0.916   1.193 -1.1868  0.1931  2.5317
  324SOL     OW  970   2.661   3.016   2.372 -0.3880 -0.5286 -0.3869
  324SOL    HW1  971   2.622   2.966   2.454 -0.5404 -1.4681  1.4932
  324SOL    HW2  972   2.752   3.052   2.391 -5.4744  0.3494 -0.7769
  325SOL     OW  973   1.130   0.606   2.599  0.3418 -0.4458 -0.3556
  325SOL    HW1  974   1.099   0.507   2.584 -1.3841  0.4305 -1.8559
  325SOL    HW2  975   1.091   0.666   2.526  0.9936  1.0449  0.6897
  326SOL     OW  976   1.975   2.981   2.264  0.1451 -0.4516  0.4702
  326SOL    HW1  977   1.887   3.025   2.299  0.7405  1.4687  4.3451
  326SOL    HW2  978   1.956   2.948   2.165 -1.8673 -1.3334 -3.3790
  327SOL     OW  979   2.367   0.382   3.053 -0.4133  0.0768 -0.0030
  327SOL    HW1  980   2.285   0.374   0.015  0.3323  2.0203  0.7823
  327SOL    HW2  981   2.449   0.335   0.002  0.8232 -2.7995  2.1828
  328SOL     OW  982   0.054   1.210   2.354  0.2143  0.3584  0.2740
  328SOL    HW1  983   0.140   1.195   2.304 -2.8363  2.4976 -2.2166
  328SOL    HW2  984   3.089   1.266   2.300 -0.4924  0.8528 -2.8128
  329SOL     OW  985   1.785   0.126   1.509 -0.0240 -0.5417  0.0431
  329SOL    HW1  986   1.695   0.080   1.527  3.2315  0.2667  1.0263
  329SOL    HW2  987   1.787   0.153   1.412  0.6748 -0.9952 -0.7208
  330SOL     OW  988   0.363   1.152   0.788 -0.3300 -0.3128 -0.3138
  330SOL    HW1  989   0.279   1.102   0.762  0.3791  0.6913  0.0446
  330SOL    HW2  990   0.340   1.224   0.852  0.2557  0.4205  3.2132
  331SOL     OW  991   0.166   1.509   1.981  0.1213 -0.0882 -0.6367
  331SOL    HW1  992   0.224   1.427   1.959 -2.0191 -0.9016  0.1240
  331SOL    HW2  993   0.226   1.591   2.015  1.9558  3.8456  0.3195
  332SOL     OW  994   0.018   2.515   1.660  0.1200  0.4643  0.2973
  332SOL    HW1  995   3.051   2.576   1.609  0.0885  0.3406  1.1956
  332SOL    HW2  996   0.076   2.456   1.599  0.7233 -2.3735  0.6932
  333SOL     OW  997   2.359   0.211   0.864  0.2442 -0.1349  0.6569
  333SOL    HW1  998   2.265   0.196   0.899 -1.7486  0.1171  0.8880
  333SOL    HW2  999   2.426   0.205   0.940 -0.8120 -0.6491 -0.4971
  334SOL     OW 1000   0.574   1.858   0.582  0.0711 -0.4155 -0.3334
  334SOL    HW1 1001   0.631   1.797   0.519 -1.2907  2.1984 -0.3704
  334SOL    HW2 1002   0.549   1.810   0.670 -0.1390 -1.7455 -1.4972
  335SOL     OW 1003   0.170   2.553   2.979  0.2599 -0.1769  0.2876
  335SOL    HW1 1004   0.100   2.489   3.008 -0.4554  2.0860 -0.8600
  335SOL    HW2 1005   0.263   2.516   2.997  1.4035  1.0722  0.4649
  336SOL     OW 1006   3.063   2.582   2.102  0.2432  0.0531  0.0803
  336SOL    HW1 1007   3.066   2.544   2.007 -1.1051  1.0655 -0.1472
  336SOL    HW2 1008   3.071   2.499   2.164 -1.0988 -1.1769 -0.5699
  337SOL     OW 1009   2.030   2.399   2.330  0.1136  0.1619  0.4868
  337SOL    HW1 1010   1.998   2.484   2.290  0.1367 -1.2667  3.1287
  337SOL    HW2 1011   2.132   2.392   2.335  1.3746  2.0812  0.4263
  338SOL     OW 1012   0.535   0.255   0.587 -0.4122  0.3571 -0.5592
  338SOL    HW1 1013   0.614   0.301   0.543 -1.1216 -0.3361  1.2097
  338SOL    HW2 1014   0.456   0.262   0.527  0.5709  0.0338  1.7870
  339SOL     OW 1015   0.301   0.927   2.101 -0.2597  0.3818  0.1904
  339SOL    HW1 1016   0.251   0.846   2.138  0.0524 -2.6609  0.0148
  339SOL    HW2 1017   0.267   0.961   2.010 -1.2197 -3.5458 -2.1371
  340SOL     OW 1018   1.809   0.084   0.252  0.4103  0.4324 -0.2589
  340SOL    HW1 1019   1.838   0.161   0.185 -0.6196 -2.0442  1.2444
  340SOL    HW2 1020   1.719   0.103   0.296  0.0400  2.0144 -0.2258
  341SOL     OW 1021   2.080   0.914   1.062 -0.2275 -0.2533 -0.0098
  341SOL    HW1 1022   1.977   0.894   1.058  0.3069  0.0092 -0.5130
  341SOL    HW2 1023   2.132   0.869   0.985  1.4308  1.1379 -1.6734
  342SOL     OW 1024   2.154   0.054   0.001 -0.2167 -0.1438 -0.0162
  342SOL    HW1 1025   2.208   0.013   3.021 -1.9203  0.7432  2.6194
  342SOL    HW2 1026   2.191   0.017   0.089 -0.8310 -0.3879  0.6502
  343SOL     OW 1027   1.345   2.139   1.641 -0.0410 -0.1730  0.2518
  343SOL    HW1 1028   1.431   2.194   1.658 -0.1452  3.8003 -1.0477
  343SOL    HW2 1029   1.343   2.047   1.683 -2.4450  1.6018 -0.4507
  344SOL     OW 1030   2.366   2.971   0.926 -0.0895  0.4142 -0.1679
  344SOL    HW1 1031   2.406   2.902   0.860  1.1744 -2.5542 -2.1588
  344SOL    HW2 1032   2.347   3.058   0.883 -1.3299 -2.7780 -1.2872
  345SOL     OW 1033   2.893   2.407   0.169  0.2605 -0.3268  0.3129
  345SOL    HW1 1034   2.896   2.504   0.201  0.8036 -0.3295  1.0999
  345SOL    HW2 1035   2.915   2.344   0.249  1.6768 -0.2596 -2.1157
  346SOL     OW 1036   2.727   1.934   0.866 -0.6639  0.1863  0.8110
  346SOL    HW1 1037   2.630   1.969   0.859 -1.3303 -0.7932  1.4064
  346SOL    HW2 1038   2.784   1.997   0.920  0.4770  1.6373 -2.9676
  347SOL     OW 1039   1.751   1.965   1.926  0.1903  0.1482  0.4175
  347SOL    HW1 1040   1.702   2.056   1.939  2.7604  1.6549  0.7203
  347SOL    HW2 1041   1.703   1.891   1.978 -0.8784  0.5543 -0.9017
  348SOL     OW 1042   0.395   1.564   2.440  0.2756  0.8734 -0.3529
  348SOL    HW1 1043   0.445   1.501   2.375  1.5322  0.9981 -0.1505
  348SOL    HW2 1044   0.384   1.518   2.532 -0.2162  1.0930  1.2811
  349SOL     OW 1045   2.541   1.326   0.905 -0.3647 -0.0955  0.3442
  349SOL    HW1 1046   2.606   1.365   0.973 -0.7596 -0.2829  0.1821
  349SOL    HW2 1047   2.577   1.341   0.812 -1.4943  3.3882  1.5930
  350SOL     OW 1048   2.879   2.612   1.071  0.0983  0.1304  0.5895
  350SOL    HW1 1049   2.826   2.678   1.129 -1.3088 -0.2259 -1.3969
  350SOL    HW2 1050   2.929   2.537   1.120  0.1820 -0.5154 -0.5239
  351SOL     OW 1051   0.558   3.040   1.826 -0.0727  0.5941 -0.0932
  351SOL    HW1 1052   0.464   3.000   1.818 -2.9502  0.0077 -0.5125
  351SOL    HW2 1053   0.560   0.040   1.806  1.1761 -4.7334 -0.9334
  352SOL     OW 1054   0.974   1.594   0.842  0.2509 -0.4535 -0.2533
  352SOL    HW1 1055   1.059   1.540   0.822 -1.7758  0.4245  2.8790
  352SOL    HW2 1056   0.990   1.682   0.898  2.8687  2.2465  0.7897
  353SOL     OW 1057   1.151   1.706   2.602 -0.3221  0.1294 -0.1518
  353SOL    HW1 1058   1.145   1.691   2.502  0.6458  2.1738  0.0300
  353SOL    HW2 1059   1.077   1.664   2.653  0.6387 -1.3181  0.1803
  354SOL     OW 1060   1.480   0.083   0.899  0.8223  0.2375 -0.7707
  354SOL    HW1 1061   1.449   3.079   0.887  1.4949 -0.2540  2.7840
  354SOL    HW2 1062   1.437   0.117   0.986 -0.7476 -2.9253  0.0596
  355SOL     OW 1063   2.665   1.385   0.655 -0.4187 -0.1578 -0.2095
  355SOL    HW1 1064   2.614   1.471   0.638  0.5963  0.1103  0.9441
  355SOL    HW2 1065   2.731   1.369   0.581 -0.1890 -0.2067  0.0093
  356SOL     OW 1066   2.508   1.734   2.343  0.1018 -0.7457 -0.0513
  356SOL    HW1 1067   2.440   1.727   2.265  0.0684 -2.3924 -1.4425
  356SOL    HW2 1068   2.605   1.739   2.311 -0.0312  1.3434  1.6250
  357SOL     OW 1069   0.449   2.700   1.495 -0.0142  0.2234  0.1799
  357SOL    HW1 1070   0.391   2.749   1.428 -1.9584 -2.0253 -1.4257
  357SOL    HW2 1071   0.537   2.747   1.513 -0.6840 -1.1592  0.0397
  358SOL     OW 1072   2.336   0.947   1.670  0.5856 -0.1540  0.5744
  358SOL    HW1 1073   2.257   0.997   1.719 -3.5900  1.1676  2.5650
  358SOL    HW2 1074   2.338   0.849   1.692  1.3741  2.3763 -1.8183
  359SOL     OW 1075   2.337   2.690   2.642  0.7159  0.7584  0.4753
  359SOL    HW1 1076   2.293   2.597   2.656 -1.6994 -0.8345  1.5532
  359SOL    HW2 1077   2.272   2.763   2.671  0.2839  2.8906  0.2004
  360SOL     OW 1078   0.877   0.497   0.923 -0.1322  0.4549 -0.2084
  360SOL    HW1 1079   0.935   0.534   0.999  0.1180 -1.2491  0.1951
  360SOL    HW2 1080   0.836   0.573   0.871 -2.8834  0.1088 -1.6213
  361SOL     OW 1081   1.874   3.055   1.203  0.2293  0.2205  0.4235
  361SOL    HW1 1082   1.963   3.092   1.184 -2.0111  1.3790 -1.1949
  361SOL    HW2 1083   1.804   0.030   1.186  1.9286  1.4275 -0.2958
  362SOL     OW 1084   1.366   0.989   0.931  0.9600 -0.1210 -0.2359
  362SOL    HW1 1085   1.462   1.009   0.959  1.3740 -0.3887  0.3323
  362SOL    HW2 1086   1.336   0.909   0.981 -1.1042 -0.1271  0.6448
  363SOL     OW 1087   2.302   1.491   2.700 -0.2143 -0.1149 -0.2655
  363SOL    HW1 1088   2.304   1.525   2.798  1.9596  1.8855  2.7156
  363SOL    HW2 1089   2.241   1.410   2.687  2.1763  0.1711  1.3969
  364SOL     OW 1090   0.080   0.275   0.990 -0.1603 -0.1141  0.5760
  364SOL    HW1 1091   0.153   0.265   1.062 -2.2604  1.1365  1.0006
  364SOL    HW2 1092   3.095   0.315   1.038 -0.0592  2.2202  1.6800
  365SOL     OW 1093   0.108   2.719   0.094  0.1971 -0.2992  0.0980
  365SOL    HW1 1094   0.108   2.682   0.001 -3.9086 -0.5965  1.0824
  365SOL    HW2 1095   0.033   2.693   0.159 -0.6407 -1.5358  0.5870
  366SOL     OW 1096   2.352   2.143   3.080 -0.9071  0.2208 -0.1271
  366SOL    HW1 1097   2.282   2.094   0.040 -1.3636 -0.2043 -2.2052
  366SOL    HW2 1098   2.359   2.242   0.004  0.0081  0.2322 -0.4003
  367SOL     OW 1099   2.870   2.493   2.867  0.1142  0.0243  0.3175
  367SOL    HW1 1100   2.788   2.432   2.868 -1.0917 -1.6534  2.0203
  367SOL    HW2 1101   2.952   2.444   2.904  4.9686 -0.5586  3.8647
  368SOL     OW 1102   0.242   1.838   0.765  0.2882 -0.5868 -0.6561
  368SOL    HW1 1103   0.285   1.929   0.763  1.6636 -0.0750  2.3133
  368SOL    HW2 1104   0.160   1.847   0.822  0.5419 -1.1345 -0.4291
  369SOL     OW 1105   0.858   2.670   2.856  0.2379  0.2039 -0.1727
  369SOL    HW1 1106   0.932   2.605   2.823 -1.5679 -2.4720 -0.0941
  369SOL    HW2 1107   0.900   2.762   2.872 -0.7354 -0.2102  0.6639
  370SOL     OW 1108   0.092   1.022   0.772  0.6149 -0.1003 -0.4722
  370SOL    HW1 1109   0.033   1.105   0.772  1.3620  0.6921 -0.4863
  370SOL    HW2 1110   0.044   0.931   0.773 -2.6446 -2.0276  0.7538
  371SOL     OW 1111   1.941   2.623   0.980  0.4207 -0.3715  0.4956
  371SOL    HW1 1112   1.975   2.718   0.998 -1.5501  2.1672 -4.1945
  371SOL    HW2 1113   1.865   2.591   1.038  0.7462  0.0406 -2.8448
  372SOL     OW 1114   0.233   0.841   2.766  0.4948 -0.0191  0.1971
  372SOL    HW1 1115   0.250   0.752   2.715 -0.5766 -1.3961 -2.5482
  372SOL    HW2 1116   0.321   0.880   2.799  0.2429  1.4245 -1.5643
  373SOL     OW 1117   3.096   1.861   0.854  0.0591 -0.1719 -0.0649
  373SOL    HW1 1118   3.019   1.798   0.836 -2.6935 -0.5479 -0.3836
  373SOL    HW2 1119   3.061   1.959   0.852 -0.9371  0.0052  0.7550
  374SOL     OW 1120   0.082   2.457   0.382 -0.0236 -0.2968  0.2075
  374SOL    HW1 1121   0.082   2.359   0.359  0.5502  2.3380 -0.2043
  374SOL    HW2 1122   0.173   2.488   0.402 -1.8618  2.0340 -0.6702
  375SOL     OW 1123   0.363   0.357   0.376  0.3171 -0.3568 -0.2125
  375SOL    HW1 1124   0.402   0.421   0.446 -0.6568  1.4539 -0.8395
  375SOL    HW2 1125   0.311   0.404   0.300 -0.8308  2.1987 -0.8295
  376SOL     OW 1126   0.332   2.364   1.881  0.6502 -0.5749  0.5490
  376SOL    HW1 1127   0.299   2.280   1.832  2.7261  1.6350  0.2693
  376SOL    HW2 1128   0.344   2.450   1.822 -0.8512  0.8502 -1.3829
  377SOL     OW 1129   1.443   2.626   3.032 -0.0340 -0.0161  0.0157
  377SOL    HW1 1130   1.526   2.576   3.008 -1.7809  2.6455 -4.2270
  377SOL    HW2 1131   1.410   2.583   0.017  2.8747 -1.2956 -1.2349
  378SOL     OW 1132   0.739   0.543   0.511  0.1886  0.0914 -0.2698
  378SOL    HW1 1133   0.803   0.551   0.431 -1.0892 -0.3669 -0.8395
  378SOL    HW2 1134   0.782   0.536   0.599 -0.1606  2.0855 -1.6987
  379SOL     OW 1135   0.720   1.646   0.454 -0.0133  0.1998  0.5056
  379SOL    HW1 1136   0.644   1.596   0.499  0.7623 -0.0692  1.4675
  379SOL    HW2 1137   0.812   1.599   0.468 -0.5464  0.8698  0.0985
  380SOL     OW 1138   0.384   1.980   1.363 -0.1126 -0.0039  0.3499
  380SOL    HW1 1139   0.432   1.977   1.270  0.5532  0.9044 -2.2272
  380SOL    HW2 1140   0.420   2.057   1.422  1.0323 -0.9899  1.5613
  381SOL     OW 1141   0.698   1.170   1.613  0.0763 -0.4272 -0.0925
  381SOL    HW1 1142   0.710   1.264   1.649  2.5686 -2.9397 -0.3002
  381SOL    HW2 1143   0.653   1.110   1.678 -0.4324  0.9912 -1.8711
  382SOL     OW 1144   2.237   1.794   0.746  0.4804  0.2959 -0.0170
  382SOL    HW1 1145   2.307   1.727   0.721  2.5426  1.2181 -0.9527
  382SOL    HW2 1146   2.243   1.883   0.699 -1.7697  1.5149  1.7301
  383SOL     OW 1147   2.781   1.786   2.277  0.3569  0.0739  0.0182
  383SOL    HW1 1148   2.859   1.727   2.244 -0.6889 -0.0136  1.8178
  383SOL    HW2 1149   2.812   1.818   2.368 -1.6674  0.2046  0.0093
  384SOL     OW 1150   0.212   1.962   2.379 -0.5250 -0.2198 -0.2963
  384SOL    HW1 1151   0.241   1.988   2.477 -1.3102  1.2592  1.4582
  384SOL    HW2 1152   0.257   2.027   2.312  1.3987 -1.8335  1.1275
  385SOL     OW 1153   2.789   2.290   0.824  0.0453  0.1753  0.0897
  385SOL    HW1 1154   2.804   2.211   0.884  2.5886  2.8837 -1.2344
  385SOL    HW2 1155   2.702   2.276   0.773  0.5754 -0.8344 -0.1507
  386SOL     OW 1156   1.845   0.845   1.035 -0.0177  0.1088  0.1088
  386SOL    HW1 1157   1.845   0.863   0.934  2.4731 -0.7141  1.2628
  386SOL    HW2 1158   1.777   0.907   1.077  0.2493  0.1308  1.5467
  387SOL     OW 1159   0.371   0.590   2.011 -0.0995 -0.3636  0.5827
  387SOL    HW1 1160   0.293   0.618   2.067 -0.4106  0.3661 -2.5274
  387SOL    HW2 1161   0.459   0.627   2.048 -1.7134 -2.1047  0.9457
  388SOL     OW 1162   2.347   0.995   2.411 -0.0939  0.3379 -0.2142
  388SOL    HW1 1163   2.412   1.078   2.408  0.8599  0.9474 -0.2841
  388SOL    HW2 1164   2.250   1.033   2.405 -0.2433 -2.7162  2.5256
  389SOL     OW 1165   2.075   1.245   2.149 -1.0103 -0.1539  0.2861
  389SOL    HW1 1166   2.054   1.318   2.084  0.9146 -0.1683 -0.2508
  389SOL    HW2 1167   2.044   1.155   2.113  0.9870  0.5992 -2.0731
  390SOL     OW 1168   1.949   2.574   0.522  0.4528 -0.4944 -0.3014
  390SOL    HW1 1169   1.950   2.677   0.519  0.0801  3.0951 -1.7375
  390SOL    HW2 1170   2.013   2.533   0.450  2.6685  1.8154 -1.3397
  391SOL     OW 1171   2.064   2.046   1.302  0.1315  0.0690  0.2865
  391SOL    HW1 1172   2.008   2.054   1.217 -0.7467 -1.9850 -2.2916
  391SOL    HW2 1173   2.122   1.959   1.308  1.7894 -3.3412 -0.2735
  392SOL     OW 1174   2.745   2.816   1.217 -0.2119  0.3281  0.2725
  392SOL    HW1 1175   2.716   2.808   1.312 -0.0265 -0.8067  0.6310
  392SOL    HW2 1176   2.731   2.910   1.182  0.6348 -0.6099 -2.2074
  393SOL     OW 1177   2.216   1.739   0.131  0.0817 -0.1333 -0.6414
  393SOL    HW1 1178   2.206   1.640   0.162  2.4233 -0.9897  0.7625
  393SOL    HW2 1179   2.153   1.764   0.053 -0.6215  1.1135 -1.6093
  394SOL     OW 1180   0.086   0.280   2.534  0.0296 -0.2310 -0.1406
  394SOL    HW1 1181   0.029   0.197   2.537  0.5592 -0.2889  2.7886
  394SOL    HW2 1182   0.045   0.360   2.489 -2.4981 -0.3505  0.6503
  395SOL     OW 1183   1.092   0.733   0.978 -0.2627  0.2548  0.1247
  395SOL    HW1 1184   1.028   0.779   1.042 -0.6001  2.1142 -0.0309
  395SOL    HW2 1185   1.061   0.753   0.883  1.1389 -1.1254 -0.5169
  396SOL     OW 1186   1.292   0.673   3.012 -0.5802  0.1761  0.7318
  396SOL    HW1 1187   1.215   0.684   2.948 -0.0048 -2.6539  0.5348
  396SOL    HW2 1188   1.352   0.752   3.025 -1.7165 -0.9245 -0.4665
  397SOL     OW 1189   0.507   0.699   2.293 -0.0897 -0.1168  0.0683
  397SOL    HW1 1190   0.412   0.688   2.252 -2.3985 -1.5881 -0.1482
  397SOL    HW2 1191   0.543   0.792   2.289  1.3237 -0.7111  1.3793
  398SOL     OW 1192   0.820   0.140   0.311 -0.7450 -0.1717 -0.6434
  398SOL    HW1 1193   0.840   0.038   0.312 -2.6367  0.3088  1.5285
  398SOL    HW2 1194   0.718   0.156   0.304 -0.0261 -2.0634  0.0004
  399SOL     OW 1195   2.066   3.021   1.794 -0.3668 -0.0065 -0.5054
  399SOL    HW1 1196   2.054   2.932   1.749 -3.7082 -2.0834 -1.4981
  399SOL    HW2 1197   2.010   3.092   1.748  0.7762 -0.1845  2.7359
  400SOL     OW 1198   0.562   1.624   2.100  0.0227  0.8798  0.5626
  400SOL    HW1 1199   0.561   1.553   2.175 -2.6353 -1.4688  0.9078
  400SOL    HW2 1200   0.472   1.664   2.077 -0.5385 -1.5982  0.7629
  401SOL     OW 1201   0.694   0.449   2.688  0.6563  0.1982  0.1422
  401SOL    HW1 1202   0.792   0.441   2.650 -2.1755 -1.7602 -2.0087
  401SOL    HW2 1203   0.695   0.496   2.777  0.1242 -0.4185 -3.0976
  402SOL     OW 1204   2.956   2.201   1.918  0.7696 -0.4186  0.3990
  402SOL    HW1 1205   3.024   2.179   1.992  2.3720  1.9189 -0.9245
  402SOL    HW2 1206   2.858   2.189   1.956  0.6213  0.0614 -1.1131
  403SOL     OW 1207   0.530   1.029   1.811  0.3720  0.6370  0.3012
  403SOL    HW1 1208   0.609   0.988   1.859 -1.9267  1.2949 -0.6180
  403SOL    HW2 1209   0.444   0.972   1.823  0.6040 -0.4674 -1.6796
  404SOL     OW 1210   0.157   2.723   1.784  0.1818 -0.9772 -0.5061
  404SOL    HW1 1211   0.105   2.654   1.730 -2.1494 -0.2486 -2.3696
  404SOL    HW2 1212   0.096   2.806   1.799 -3.7563  0.1228 -0.2225
  405SOL     OW 1213   0.225   0.431   1.839 -0.2708 -0.2234 -0.1754
  405SOL    HW1 1214   0.294   0.482   1.893 -0.6545 -0.3138  0.2202
  405SOL    HW2 1215   0.268   0.355   1.791  0.6998  0.5296 -1.7671
  406SOL     OW 1216   1.929   2.236   3.081 -0.6136 -0.3038  0.2768
  406SOL    HW1 1217   1.946   2.223   0.084  1.3430  2.3670 -1.3682
  406SOL    HW2 1218   1.935   2.335   3.054  1.1703 -1.3525  0.2752
  407SOL     OW 1219   1.409   1.216   2.232 -0.1745 -0.0742  0.3570
  407SOL    HW1 1220   1.361   1.299   2.206  0.0908 -1.4197  1.5611
  407SOL    HW2 1221   1.411   1.197   2.331 -1.2458 -1.1363 -2.6904
  408SOL     OW 1222   0.416   0.012   2.734 -0.2233  0.0705 -0.1867
  408SOL    HW1 1223   0.468   0.095   2.698  1.5502 -0.4412 -1.4761
  408SOL    HW2 1224   0.326   0.000   2.690  0.5090  0.4372  2.8709
  409SOL     OW 1225   0.244   1.692   0.392 -0.3010  0.3177  0.9618
  409SOL    HW1 1226   0.262   1.648   0.480 -1.0581 -0.9632  0.2512
  409SOL    HW2 1227   0.292   1.782   0.389 -4.1237 -0.2288  0.6869
  410SOL     OW 1228   2.612   1.747   0.481 -0.0649  1.0589 -0.1119
  410SOL    HW1 1229   2.605   1.824   0.409  2.5089 -1.1436  0.9225
  410SOL    HW2 1230   2.693   1.690   0.461 -1.6913 -0.3339 -0.5064
  411SOL     OW 1231   2.968   0.361   1.128 -0.1845  0.3324 -0.4655
  411SOL    HW1 1232   2.898   0.351   1.056  0.9932 -2.6604  0.2949
  411SOL    HW2 1233   2.957   0.279   1.195  2.9060 -0.6757  0.8978
  412SOL     OW 1234   1.432   0.840   1.248  0.0931 -0.8077  0.1985
  412SOL    HW1 1235   1.513   0.889   1.216  1.5118 -1.8726 -2.2607
  412SOL    HW2 1236   1.352   0.906   1.269 -0.5300  0.7986  0.7966
  413SOL     OW 1237   0.309   2.852   1.296 -0.3983 -0.2276  0.2803
  413SOL    HW1 1238   0.316   2.942   1.247 -0.2485  3.0017  1.0091
  413SOL    HW2 1239   0.214   2.829   1.324 -1.1750 -1.1535  1.1430
  414SOL     OW 1240   3.003   1.792   2.837 -0.3149  0.0649  0.2456
  414SOL    HW1 1241   3.003   1.844   2.754  1.3520  0.7604  3.2260
  414SOL    HW2 1242   3.058   1.841   2.909  0.3845  1.1583 -2.0785
  415SOL     OW 1243   0.409   2.255   2.810  0.3971  0.0782 -0.0599
  415SOL    HW1 1244   0.452   2.180   2.861 -1.9011 -0.4652 -0.4853
  415SOL    HW2 1245   0.314   2.232   2.787 -3.6494 -0.4560 -0.7996
  416SOL     OW 1246   1.428   0.377   0.497  0.1576 -0.2544  0.1597
  416SOL    HW1 1247   1.479   0.458   0.475 -0.2721 -1.6384 -2.3649
  416SOL    HW2 1248   1.461   0.344   0.587  2.8227  1.1053 -2.0431
  417SOL     OW 1249   0.240   1.210   0.400  0.1080 -0.3711  0.0450
  417SOL    HW1 1250   0.334   1.196   0.362  0.7981  0.8036 -0.6853
  417SOL    HW2 1251   0.189   1.123   0.390  0.8253  0.3388 -1.3631
  418SOL     OW 1252   2.449   1.202   2.048  0.5088  0.4973 -0.1604
  418SOL    HW1 1253   2.420   1.210   2.143 -1.0065 -0.3798 -0.7455
  418SOL    HW2 1254   2.382   1.246   1.981  0.4955  0.6611 -0.3932
  419SOL     OW 1255   0.233   0.506   0.185  0.5778  0.1498 -0.5881
  419SOL    HW1 1256   0.292   0.583   0.159 -0.7300 -5.8381 -1.3238
  419SOL    HW2 1257   0.238   0.435   0.117 -0.1875  1.9989  2.0923
  420SOL     OW 1258   0.517   1.239   0.588 -0.5114 -0.7312 -0.0293
  420SOL    HW1 1259   0.494   1.183   0.503 -0.0390  0.2681 -2.3919
  420SOL    HW2 1260   0.455   1.213   0.662  1.0681  0.2466 -0.7725
  421SOL     OW 1261   0.778   2.290   0.564 -0.0647 -0.0498  0.7516
  421SOL    HW1 1262   0.872   2.254   0.542 -0.2411  1.4166  1.6819
  421SOL    HW2 1263   0.775   2.391   0.587  0.4827 -0.5220 -0.0823
  422SOL     OW 1264   3.093   0.955   1.406  0.2321  0.5686 -0.3855
  422SOL    HW1 1265   3.086   1.053   1.404  0.7307 -3.5163 -0.9339
  422SOL    HW2 1266   0.095   0.927   1.426  0.8624  0.4813 -2.9696
  423SOL     OW 1267   1.366   1.444   1.774 -0.2996  0.5597  0.0235
  423SOL    HW1 1268   1.402   1.344   1.768  2.1370 -4.3545  0.2288
  423SOL    HW2 1269   1.335   1.476   1.678 -0.8527  1.0736  1.5860
  424SOL     OW 1270   1.967   1.114   2.845  0.0740  0.1268 -0.1884
  424SOL    HW1 1271   1.903   1.131   2.918 -0.0336 -2.1250 -0.8422
  424SOL    HW2 1272   1.915   1.069   2.770  0.6804  0.8446 -0.7292
  425SOL     OW 1273   3.060   0.431   1.946 -0.1752 -0.0641  0.3263
  425SOL    HW1 1274   0.062   0.445   1.924  0.9410  0.0991  1.9918
  425SOL    HW2 1275   3.004   0.518   1.937 -1.6368  0.0937  0.3924
  426SOL     OW 1276   2.560   2.776   2.517 -0.2261  0.0344  0.3391
  426SOL    HW1 1277   2.630   2.750   2.587  2.5243 -0.8247  0.9749
  426SOL    HW2 1278   2.469   2.756   2.555 -0.7430  1.7235 -1.3870
  427SOL     OW 1279   1.013   0.749   2.390  0.9448  0.7376 -0.2818
  427SOL    HW1 1280   1.003   0.699   2.305  1.6950  1.2458 -1.2190
  427SOL    HW2 1281   1.050   0.839   2.371 -0.0641 -2.9240 -0.3309
  428SOL     OW 1282   2.037   1.006   2.017 -0.0049 -0.6118  0.3871
  428SOL    HW1 1283   2.107   0.948   2.064 -1.6130 -0.1111 -1.0206
  428SOL    HW2 1284   1.997   0.943   1.945 -0.1577  1.9068  0.0042
  429SOL     OW 1285   2.943   2.829   0.452  0.4405  0.3323 -0.1123
  429SOL    HW1 1286   3.017   2.882   0.482 -5.1044 -0.6439 -0.8830
  429SOL    HW2 1287   2.874   2.888   0.398 -2.1661 -0.8308 -1.8291
  430SOL     OW 1288   1.915   1.606   2.272 -0.9499 -0.2066 -0.1345
  430SOL    HW1 1289   1.852   1.524   2.281 -1.5178 -2.5198 -0.3846
  430SOL    HW2 1290   1.864   1.694   2.287  1.2875 -1.1975  2.0426
  431SOL     OW 1291   0.104   1.975   1.314  0.2184 -0.3118  0.7785
  431SOL    HW1 1292   0.091   1.901   1.243  0.1403 -0.6777 -2.2526
  431SOL    HW2 1293   0.197   1.973   1.361  5.3634  2.4118 -3.1740
  432SOL     OW 1294   1.796   2.909   2.743  0.3170 -0.3132  0.0968
  432SOL    HW1 1295   1.869   2.850   2.711 -0.7417  2.2117 -0.6206
  432SOL    HW2 1296   1.834   3.001   2.757 -1.2603 -4.2282 -1.1469
  433SOL     OW 1297   1.609   3.069   2.137 -0.1635 -0.3235  0.4547
  433SOL    HW1 1298   1.539   0.044   2.124  1.5182 -1.6008  0.0888
  433SOL    HW2 1299   1.674   0.003   2.209  3.3128 -0.0943  1.3086
  434SOL     OW 1300   0.599   2.480   2.119 -0.2024 -0.0261  0.0039
  434SOL    HW1 1301   0.523   2.515   2.183 -1.0596 -1.1046  1.4576
  434SOL    HW2 1302   0.638   2.562   2.065  1.9859  3.3435  0.5025
  435SOL     OW 1303   0.191   2.179   0.281 -0.5706 -0.1782 -0.3511
  435SOL    HW1 1304   0.262   2.205   0.214  1.1303  0.4397 -0.8551
  435SOL    HW2 1305   0.234   2.170   0.373  0.9471 -0.8505  1.5483
  436SOL     OW 1306   0.640   0.706   1.824  0.0570  0.5443  0.3104
  436SOL    HW1 1307   0.689   0.618   1.793  0.3515 -1.5661 -1.2278
  436SOL    HW2 1308   0.552   0.719   1.772  0.2986  1.6155  0.0353
  437SOL     OW 1309   0.471   2.627   2.311 -0.0498 -0.4942  0.3697
  437SOL    HW1 1310   0.492   2.712   2.365  0.0326 -0.2801 -0.0936
  437SOL    HW2 1311   0.405   2.575   2.369  0.9438  1.8292  0.5546
  438SOL     OW 1312   0.815   1.705   1.264  0.3911  0.2247  0.0243
  438SOL    HW1 1313   0.784   1.804   1.267  0.7871 -3.3433  3.6405
  438SOL    HW2 1314   0.776   1.651   1.340 -4.2297 -0.8478 -0.4453
  439SOL     OW 1315   2.164   0.850   2.856 -0.3784 -0.0233 -0.1213
  439SOL    HW1 1316   2.219   0.935   2.854 -1.8791 -1.2859 -0.3815
  439SOL    HW2 1317   2.204   0.777   2.917 -3.2907  2.2472  1.0661
  440SOL     OW 1318   0.580   0.642   3.043 -0.0409  0.0954  0.5146
  440SOL    HW1 1319   0.652   0.634   0.016 -1.1087 -2.0147 -1.1073
  440SOL    HW2 1320   0.604   0.708   2.968  2.1111  2.3637 -1.1817
  441SOL     OW 1321   0.811   2.217   1.315  0.1544  0.2702  0.6418
  441SOL    HW1 1322   0.784   2.282   1.380  1.9409 -2.9688 -0.3984
  441SOL    HW2 1323   0.826   2.264   1.229 -2.4695  1.0608  3.6722
  442SOL     OW 1324   2.934   1.617   0.777 -0.4001  0.2043 -0.0824
  442SOL    HW1 1325   2.885   1.603   0.691  0.9204  2.8863  1.6921
  442SOL    HW2 1326   2.902   1.555   0.851 -1.6029 -2.1792  1.5141
  443SOL     OW 1327   2.651   2.021   2.614  0.3734  0.3729  0.0320
  443SOL    HW1 1328   2.622   2.069   2.527 -1.1795 -0.5770 -1.2187
  443SOL    HW2 1329   2.573   1.974   2.658 -0.7404 -1.6593  2.6797
  444SOL     OW 1330   1.538   1.186   3.093  0.4400  0.2181  0.1918
  444SOL    HW1 1331   1.541   1.218   0.094 -0.5622  2.1276 -0.6803
  444SOL    HW2 1332   1.534   1.265   3.032 -0.5683 -1.5632  0.4447
  445SOL     OW 1333   2.807   2.873   1.855  0.3547 -0.6150 -0.3242
  445SOL    HW1 1334   2.770   2.942   1.789  1.1776  0.9041  2.0456
  445SOL    HW2 1335   2.765   2.884   1.949  1.0691  1.4869 -1.3617
  446SOL     OW 1336   0.226   1.050   1.118 -0.1954  0.3721 -0.1884
  446SOL    HW1 1337   0.233   1.138   1.071  1.0098 -2.2863 -0.5512
  446SOL    HW2 1338   0.124   1.020   1.126 -1.9956  0.3666 -0.4218
  447SOL     OW 1339   0.913   1.845   1.014  0.3595  0.4692 -0.5183
  447SOL    HW1 1340   0.866   1.936   1.006  1.5833  0.0541  1.6745
  447SOL    HW2 1341   0.884   1.790   1.097  1.1666  0.2058  0.1118
  448SOL     OW 1342   0.998   1.093   1.681 -0.6229  0.2808 -0.4121
  448SOL    HW1 1343   0.966   1.139   1.597  0.0841 -1.3340  1.0965
  448SOL    HW2 1344   0.987   0.993   1.688  1.1335  1.3802  2.6103
  449SOL     OW 1345   2.856   2.087   2.238 -0.5625 -0.1370  0.1857
  449SOL    HW1 1346   2.828   2.172   2.189  3.0196 -0.9784  1.1828
  449SOL    HW2 1347   2.845   2.008   2.175  1.2826  0.5870 -0.6047
  450SOL     OW 1348   0.189   1.859   1.723  0.3085  0.6472 -0.4920
  450SOL    HW1 1349   0.120   1.788   1.755 -0.9791  0.7425 -1.9351
  450SOL    HW2 1350   0.289   1.838   1.741  1.1703 -0.1439  0.7929
  451SOL     OW 1351   2.238   0.505   1.215  0.0098 -0.2767  0.5262
  451SOL    HW1 1352   2.245   0.588   1.273 -1.1522  2.6444  0.2449
  451SOL    HW2 1353   2.202   0.534   1.127  1.5794 -2.5200 -1.3350
  452SOL     OW 1354   0.785   1.194   0.605 -0.0179 -0.0008  0.2989
  452SOL    HW1 1355   0.690   1.220   0.579 -1.7213  1.1570 -1.9051
  452SOL    HW2 1356   0.855   1.268   0.585  1.3809 -1.0684  1.2638
  453SOL     OW 1357   1.453   2.103   0.605 -0.5695  0.2079  0.8789
  453SOL    HW1 1358   1.402   2.162   0.542  2.3294 -0.4460  1.0392
  453SOL    HW2 1359   1.507   2.163   0.671 -0.1226  3.2115  1.7617
  454SOL     OW 1360   0.470   1.820   0.007 -0.7874  0.1377 -0.1442
  454SOL    HW1 1361   0.535   1.768   3.048 -2.3442 -0.5065  1.2314
  454SOL    HW2 1362   0.383   1.766   0.015 -2.8173  2.6499 -1.5742
  455SOL     OW 1363   1.344   0.891   0.629 -0.4651 -0.1783  0.3788
  455SOL    HW1 1364   1.258   0.863   0.585 -3.3875  1.9468  2.6131
  455SOL    HW2 1365   1.331   0.894   0.728  0.2034 -0.5750 -2.4494
  456SOL     OW 1366   2.170   2.284   1.192 -0.3043  0.1666 -0.6282
  456SOL    HW1 1367   2.117   2.208   1.234 -2.8337 -2.7376  0.5998
  456SOL    HW2 1368   2.217   2.334   1.268  1.0596  0.4197  1.8408
  457SOL     OW 1369   1.759   2.984   3.070  0.1028 -0.1336 -0.0121
  457SOL    HW1 1370   1.737   2.936   0.063  0.3900  0.1529  0.8263
  457SOL    HW2 1371   1.822   2.926   3.016  0.1319  0.7203 -0.0176
  458SOL     OW 1372   2.263   0.851   0.187  0.2613 -0.2331  0.0239
  458SOL    HW1 1373   2.245   0.953   0.181 -2.5345  2.4048 -1.0383
  458SOL    HW2 1374   2.290   0.830   0.284 -1.9365  1.1199  1.1057
  459SOL     OW 1375   3.029   0.485   2.422 -0.7652  0.5907  0.4303
  459SOL    HW1 1376   2.991   0.576   2.418  0.8892 -2.0372 -0.0107
  459SOL    HW2 1377   2.954   0.428   2.454 -0.5607 -0.2947  1.5194
  460SOL     OW 1378   2.845   0.889   3.021  0.3416 -0.3193  0.1201
  460SOL    HW1 1379   2.853   0.839   2.935 -0.3254 -0.1951  1.9802
  460SOL    HW2 1380   2.793   0.975   3.019  0.7679  0.3537 -1.1111
  461SOL     OW 1381   2.872   2.563   0.798  0.0319  0.0974 -0.0542
  461SOL    HW1 1382   2.887   2.607   0.888 -0.2055 -0.4923 -0.0778
  461SOL    HW2 1383   2.851   2.464   0.810  0.4986 -0.2491  0.7485
  462SOL     OW 1384   3.061   0.025   1.635  0.0014 -0.1021 -0.0161
  462SOL    HW1 1385   3.059   0.123   1.656  0.5813 -0.3907 -0.3225
  462SOL    HW2 1386   3.077   0.009   1.535  0.0126 -0.7656  0.3138
  463SOL     OW 1387   2.115   1.728   2.658 -0.3565  0.5275  0.2302
  463SOL    HW1 1388   2.171   1.645   2.647  1.0096  1.0214 -0.2083
  463SOL    HW2 1389   2.020   1.716   2.680  3.7468  2.1166 -0.6813
  464SOL     OW 1390   0.669   2.870   1.537  0.0881 -0.3838 -0.4750
  464SOL    HW1 1391   0.706   2.901   1.629  1.0207  0.1031  2.0817
  464SOL    HW2 1392   0.653   2.956   1.487 -0.0551  0.7982 -3.1387
  465SOL     OW 1393   0.786   0.041   1.471 -0.2018  0.8350 -0.3603
  465SOL    HW1 1394   0.807   0.061   1.566 -1.2568 -1.2677  1.0045
  465SOL    HW2 1395   0.682   0.044   1.460 -2.5374 -1.8943  1.3246
  466SOL     OW 1396   1.599   2.883   1.958 -0.2941 -0.2072 -0.3649
  466SOL    HW1 1397   1.564   2.791   1.982  0.1055  0.3790 -1.5783
  466SOL    HW2 1398   1.615   2.944   2.037  2.3153 -1.7253 -1.1909
  467SOL     OW 1399   0.491   1.990   1.102  0.2075  0.8760  0.3401
  467SOL    HW1 1400   0.540   1.942   1.023  0.5012 -0.7157 -0.1883
  467SOL    HW2 1401   0.471   2.085   1.079  0.8182  0.2830 -0.9964
  468SOL     OW 1402   2.482   1.519   2.527  0.4742  0.0654 -0.1976
  468SOL    HW1 1403   2.473   1.614   2.480 -2.0394  1.1750  0.3737
  468SOL    HW2 1404   2.410   1.509   2.601 -1.1145  2.1628  0.2165
  469SOL     OW 1405   1.111   1.881   0.314  0.1548 -0.1362  0.6143
  469SOL    HW1 1406   1.120   1.782   0.308 -1.8356  2.8865  2.8600
  469SOL    HW2 1407   1.073   1.908   0.402  1.7640 -0.9087 -3.0518
  470SOL     OW 1408   2.274   1.113   1.447  0.2092  0.0284 -0.6473
  470SOL    HW1 1409   2.266   1.204   1.496 -0.6184  1.8692  0.8143
  470SOL    HW2 1410   2.284   1.035   1.514  0.0841  0.8021  1.6290
  471SOL     OW 1411   0.429   2.469   2.987 -0.1983  0.1076  0.5478
  471SOL    HW1 1412   0.422   2.390   2.925 -2.4082 -2.1643 -0.7219
  471SOL    HW2 1413   0.512   2.525   2.968 -1.8599  0.5744 -0.6009
  472SOL     OW 1414   2.987   1.867   1.991  0.2360 -0.2088  0.2902
  472SOL    HW1 1415   3.010   1.825   1.900 -0.9944 -0.6333 -1.0974
  472SOL    HW2 1416   2.884   1.870   2.004  1.2398  0.0048  2.2568
  473SOL     OW 1417   0.847   2.971   0.339  0.9271  0.3362 -0.1033
  473SOL    HW1 1418   0.899   2.911   0.404 -0.8043 -3.1100  0.1692
  473SOL    HW2 1419   0.821   2.923   0.253 -0.7334  1.9401 -1.0361
  474SOL     OW 1420   2.558   2.738   0.848 -1.1274 -0.2810 -0.5550
  474SOL    HW1 1421   2.580   2.707   0.759 -0.2771  1.9161  0.7877
  474SOL    HW2 1422   2.616   2.818   0.872  1.3462 -1.2256 -0.6602
  475SOL     OW 1423   1.958   2.822   1.648 -0.3255 -0.1927 -0.4267
  475SOL    HW1 1424   1.983   2.882   1.569  1.2776 -0.7697  1.1086
  475SOL    HW2 1425   2.018   2.740   1.648  0.7724  0.0273 -1.1548
  476SOL     OW 1426   0.747   0.733   0.763 -0.6219  0.2560  0.0765
  476SOL    HW1 1427   0.682   0.728   0.680 -2.9374  0.7105 -1.4377
  476SOL    HW2 1428   0.713   0.789   0.845 -1.3986  0.8897  1.7645
  477SOL     OW 1429   0.669   2.092   0.711  0.0916  0.7793  0.1318
  477SOL    HW1 1430   0.685   2.175   0.650  0.2079  0.1016 -1.0155
  477SOL    HW2 1431   0.623   2.025   0.647  0.9571 -0.6963  0.1365
  478SOL     OW 1432   0.004   2.343   2.243 -0.3854 -0.0312 -0.1742
  478SOL    HW1 1433   3.043   2.346   2.324  1.8941  1.3475  0.2981
  478SOL    HW2 1434   0.008   2.249   2.205 -2.5331  1.2072  0.1675
  479SOL     OW 1435   0.075   0.582   1.656 -0.1670 -0.1690  0.0141
  479SOL    HW1 1436   0.138   0.538   1.718 -0.1380  0.0089 -0.9464
  479SOL    HW2 1437   0.051   0.515   1.580 -1.6098 -2.2130 -1.3954
  480SOL     OW 1438   3.045   2.388   3.037 -0.1254 -0.2103  0.1246
  480SOL    HW1 1439   3.055   2.296   2.993  0.1408 -0.3009 -0.3168
  480SOL    HW2 1440   2.989   2.379   0.028 -3.4048 -0.7924  1.6782
  481SOL     OW 1441   1.856   2.046   2.227 -0.3228  0.2046  0.4929
  481SOL    HW1 1442   1.905   2.067   2.314  0.1454 -1.0187 -0.7750
  481SOL    HW2 1443   1.919   2.032   2.148  0.1926 -0.5300  1.0658
  482SOL     OW 1444   1.663   2.416   3.039 -0.6028 -0.1969 -0.3915
  482SOL    HW1 1445   1.664   2.349   2.964  0.6423  1.8538  0.2996
  482SOL    HW2 1446   1.734   2.492   3.036  3.6228  2.8887 -1.0823
  483SOL     OW 1447   0.622   1.918   2.099  0.5271 -0.1377  0.1429
  483SOL    HW1 1448   0.629   1.834   2.044  1.2733  0.5960 -0.5064
  483SOL    HW2 1449   0.620   1.901   2.198  0.3783 -1.7702  0.4467
  484SOL     OW 1450   0.013   0.647   1.127 -0.0264 -0.1407 -0.4081
  484SOL    HW1 1451   3.092   0.547   1.126  0.4215 -1.1796 -0.2097
  484SOL    HW2 1452   3.033   0.706   1.158 -3.1532  1.5518 -0.9927
  485SOL     OW 1453   2.352   0.849   0.477  0.1042  0.3638 -0.1353
  485SOL    HW1 1454   2.301   0.789   0.539 -0.5878  1.1568 -2.4135
  485SOL    HW2 1455   2.320   0.946   0.488  0.6342  2.0085  2.2958
  486SOL     OW 1456   1.745   0.028   2.374 -0.6058 -0.3692 -0.0830
  486SOL    HW1 1457   1.792   0.118   2.369 -1.4485 -3.7870  1.2068
  486SOL    HW2 1458   1.675   0.028   2.448 -0.1026 -0.9603 -1.7759
  487SOL     OW 1459   1.364   1.349   1.047 -0.1490 -0.0582 -0.0692
  487SOL    HW1 1460   1.289   1.318   0.983 -3.0289  1.1683 -0.0648
  487SOL    HW2 1461   1.365   1.451   1.050 -0.9046  1.2983 -0.1012
  488SOL     OW 1462   2.122   1.441   3.074 -0.2799 -0.1690 -0.4186
  488SOL    HW1 1463   2.150   1.343   3.056 -0.1200 -2.2546 -0.5148
  488SOL    HW2 1464   2.177   1.500   3.019 -4.8671 -2.3204  0.3674
  489SOL     OW 1465   2.282   0.280   0.373  0.1250  0.5031  0.6792
  489SOL    HW1 1466   2.350   0.331   0.430 -0.4362  1.4277 -2.5830
  489SOL    HW2 1467   2.330   0.212   0.319 -0.2745 -0.5263 -0.2058
  490SOL     OW 1468   1.533   2.752   0.483  0.4257 -0.5481  0.1846
  490SOL    HW1 1469   1.619   2.810   0.474  1.8002 -0.1350  0.1846
  490SOL    HW2 1470   1.501   2.720   0.390 -0.9447 -2.2714 -0.2367
  491SOL     OW 1471   0.996   0.820   0.726 -0.0241 -0.0310  0.5630
  491SOL    HW1 1472   0.902   0.781   0.750 -1.8976 -0.6095  3.0665
  491SOL    HW2 1473   1.011   0.820   0.621  0.1204  0.5821 -4.2234
  492SOL     OW 1474   1.405   0.241   0.127 -0.2001 -0.1031 -0.2277
  492SOL    HW1 1475   1.479   0.205   0.188 -0.3991  0.5005  0.6753
  492SOL    HW2 1476   1.321   0.183   0.134  3.6004  1.7847 -2.1885
  493SOL     OW 1477   1.993   2.207   0.248 -0.0378  0.0570  0.2250
  493SOL    HW1 1478   2.045   2.278   0.301 -0.4923  1.0696  0.1067
  493SOL    HW2 1479   1.897   2.191   0.288 -2.0742  2.7645  1.2808
  494SOL     OW 1480   0.508   1.080   0.369 -0.2278  0.5358  0.2694
  494SOL    HW1 1481   0.472   1.000   0.420 -0.9912 -1.4345  0.1468
  494SOL    HW2 1482   0.532   1.062   0.271 -0.2979  0.7162 -0.8311
  495SOL     OW 1483   0.001   2.810   1.071  0.1048  0.5593 -0.3064
  495SOL    HW1 1484   3.010   2.765   1.046  0.4205 -0.8591 -1.7589
  495SOL    HW2 1485   0.075   2.799   1.003  0.1878 -0.9574 -3.1262
  496SOL     OW 1486   2.349   0.338   1.769 -0.3448  0.1671  0.2145
  496SOL    HW1 1487   2.430   0.382   1.729 -0.3249  1.9861 -0.2911
  496SOL    HW2 1488   2.304   0.392   1.844 -0.1445 -1.2700 -2.0508
  497SOL     OW 1489   1.823   1.700   2.751  0.4639  0.6901 -0.3497
  497SOL    HW1 1490   1.790   1.601   2.770  0.6379 -1.2143  1.9793
  497SOL    HW2 1491   1.754   1.758   2.707  0.1842  0.4338  2.0244
  498SOL     OW 1492   1.096   1.970   0.575  0.1435  0.7099 -0.5432
  498SOL    HW1 1493   1.001   1.945   0.620 -3.1402 -0.4243  1.6291
  498SOL    HW2 1494   1.168   1.952   0.643  0.4129 -0.8576 -0.7015
  499SOL     OW 1495   0.778   2.074   0.979 -0.0994  0.1451 -0.2171
  499SOL    HW1 1496   0.740   2.084   0.883  2.5076 -0.0564 -2.7840
  499SOL    HW2 1497   0.790   2.164   1.021  0.6171 -2.2354  3.2822
  500SOL     OW 1498   1.165   1.986   0.002  0.1070 -0.0447  0.4623
  500SOL    HW1 1499   1.067   2.023   0.014  2.0925 -1.4777 -2.0972
  500SOL    HW2 1500   1.218   2.010   0.084 -2.4825  1.7533  1.1926
  501SOL     OW 1501   2.391   2.901   1.377  0.0109 -0.7618  0.2781
  501SOL    HW1 1502   2.470   2.838   1.399  1.0945 -0.2752  0.3951
  501SOL    HW2 1503   2.363   2.948   1.462 -1.5479 -0.0336 -2.8650
  502SOL     OW 1504   0.303   0.824   1.709  0.1623  0.0641  0.0223
  502SOL    HW1 1505   0.218   0.768   1.684 -2.0333 -1.5975  0.4743
  502SOL    HW2 1506   0.374   0.821   1.637  1.8361 -0.3767  1.1520
  503SOL     OW 1507   2.067   0.636   1.619 -0.3513  0.6180  0.0376
  503SOL    HW1 1508   2.034   0.540   1.602  0.4034 -2.0318 -0.1995
  503SOL    HW2 1509   2.069   0.699   1.537  2.1846  1.6657  2.2324
  504SOL     OW 1510   1.416   0.798   2.189 -0.5257 -0.0226  0.6598
  504SOL    HW1 1511   1.383   0.812   2.283  2.1883 -0.2792 -1.1493
  504SOL    HW2 1512   1.380   0.873   2.130  0.0852 -1.8867 -1.3545
  505SOL     OW 1513   0.903   3.071   2.428  0.0868 -0.3904  0.4277
  505SOL    HW1 1514   1.002   3.086   2.447 -0.2384 -0.2834 -1.4317
  505SOL    HW2 1515   0.857   3.030   2.506  0.9912 -1.3810  0.7221
  506SOL     OW 1516   0.276   0.344   1.467 -0.4991 -0.1024  0.4055
  506SOL    HW1 1517   0.288   0.301   1.560  0.2038 -0.9820 -0.4112
  506SOL    HW2 1518   0.178   0.366   1.443  0.6518 -0.2519 -3.5624
  507SOL     OW 1519   1.298   0.026   2.983 -0.8584  0.1416 -0.0382
  507SOL    HW1 1520   1.254   0.063   3.068 -1.2702  0.8132  0.0830
  507SOL    HW2 1521   1.359   3.042   3.005 -0.2214 -0.7283  4.0873
  508SOL     OW 1522   2.101   0.369   2.333  0.0820  0.2744 -0.6440
  508SOL    HW1 1523   2.177   0.434   2.355 -0.4999  0.4527 -2.0835
  508SOL    HW2 1524   2.128   0.277   2.359  1.5146  0.1042 -0.0410
  509SOL     OW 1525   0.779   1.452   1.665  0.0634 -0.3345  0.1765
  509SOL    HW1 1526   0.880   1.478   1.670  1.0353 -2.1700 -0.4539
  509SOL    HW2 1527   0.740   1.492   1.748  1.1483 -0.9266 -2.3219
  510SOL     OW 1528   3.030   1.228   0.856 -0.0251 -0.4014  0.3901
  510SOL    HW1 1529   2.930   1.227   0.838 -0.8588 -0.8583 -1.9298
  510SOL    HW2 1530   3.057   1.177   0.938 -2.1780 -0.6679 -1.0084
  511SOL     OW 1531   1.657   1.748   1.038 -0.3900 -0.0917  0.7367
  511SOL    HW1 1532   1.627   1.844   1.023 -2.3521  1.1965  0.6884
  511SOL    HW2 1533   1.710   1.725   1.118 -3.4505  0.8662 -0.6577
  512SOL     OW 1534   0.861   1.007   0.418  0.2182 -0.0394  0.0325
  512SOL    HW1 1535   0.861   1.066   0.333  0.1990  2.3962 -0.6685
  512SOL    HW2 1536   0.817   1.062   0.492  0.4551 -1.3945 -1.4624
  513SOL     OW 1537   0.527   2.304   0.433 -0.5827  0.2280 -0.3902
  513SOL    HW1 1538   0.523   2.391   0.379  1.9810 -0.4795 -0.6661
  513SOL    HW2 1539   0.626   2.295   0.470  0.3603  0.3005  0.9911
  514SOL     OW 1540   2.576   2.101   2.375 -0.0505  0.1064  0.0066
  514SOL    HW1 1541   2.482   2.066   2.351 -1.3491 -0.2642 -2.2119
  514SOL    HW2 1542   2.636   2.085   2.298  2.0553 -0.2818 -2.1465
  515SOL     OW 1543   2.516   0.843   0.037  0.8910 -0.2074  0.1091
  515SOL    HW1 1544   2.572   0.795   0.103  0.3801  1.8088 -0.0709
  515SOL    HW2 1545   2.414   0.834   0.056 -3.1235 -1.2899 -0.4172
  516SOL     OW 1546   1.992   3.011   0.819 -0.2170  0.6346 -0.6397
  516SOL    HW1 1547   2.053   2.954   0.884 -1.6336  0.1163  0.2131
  516SOL    HW2 1548   1.897   2.970   0.813  0.4166  1.6944  0.6369
  517SOL     OW 1549   1.415   2.160   2.910 -0.5562  0.4184 -0.0057
  517SOL    HW1 1550   1.337   2.129   2.854 -0.0288 -2.1613  2.7996
  517SOL    HW2 1551   1.496   2.171   2.848  1.7909 -1.3669 -1.4799
  518SOL     OW 1552   0.928   0.824   1.699 -0.0717 -0.2866  0.1993
  518SOL    HW1 1553   0.990   0.762   1.648 -0.6768  0.3118  1.0388
  518SOL    HW2 1554   0.950   0.830   1.798  1.0199 -0.7454 -0.1951
  519SOL     OW 1555   3.044   1.435   0.117 -0.1041  0.0212  0.0229
  519SOL    HW1 1556   0.024   1.449   0.179 -1.3512 -0.3976 -0.9951
  519SOL    HW2 1557   3.044   1.509   0.051  0.3691 -2.6348 -0.0486
  520SOL     OW 1558   2.135   2.242   2.011 -0.6463  0.1294  0.4248
  520SOL    HW1 1559   2.191   2.253   2.097  1.1614  0.7394 -0.4448
  520SOL    HW2 1560   2.101   2.147   2.005  0.5140  2.3498  0.5273
  521SOL     OW 1561   0.951   2.774   2.503 -0.1977 -0.4532 -0.2847
  521SOL    HW1 1562   0.909   2.840   2.567 -2.3816 -1.7383  1.2107
  521SOL    HW2 1563   0.894   2.763   2.418 -0.6041  0.9295  0.1475
  522SOL     OW 1564   2.120   0.276   2.083  0.1986  0.2457 -0.1042
  522SOL    HW1 1565   2.087   0.325   2.165  3.1449  2.4794 -1.1844
  522SOL    HW2 1566   2.164   0.337   2.017  1.1582  0.5036 -0.0225
  523SOL     OW 1567   1.659   2.229   1.458 -0.2841  0.2458 -0.0839
  523SOL    HW1 1568   1.583   2.290   1.431  0.2567 -0.7829  2.7597
  523SOL    HW2 1569   1.702   2.265   1.538  1.1539 -0.6481  0.7958
  524SOL     OW 1570   1.565   2.278   0.149 -0.2981  0.0679  0.2483
  524SOL    HW1 1571   1.597   2.308   0.244  0.2264  2.2167  3.1247
  524SOL    HW2 1572   1.608   2.329   0.069 -3.4637 -0.0534  0.6341
  525SOL     OW 1573   0.150   0.635   3.009  0.0728  0.3247  0.2482
  525SOL    HW1 1574   0.239   0.608   2.960  1.8509  0.5990 -0.4101
  525SOL    HW2 1575   0.077   0.637   2.942  2.3459 -1.0865 -1.1605
  526SOL     OW 1576   1.065   2.825   0.423 -0.2127 -0.2925  0.3074
  526SOL    HW1 1577   1.017   2.746   0.386  0.8180  2.4538  2.7327
  526SOL    HW2 1578   1.136   2.797   0.492  0.7741  0.7226 -0.4678
  527SOL     OW 1579   2.777   1.925   0.606 -0.5245  0.3644 -0.3281
  527SOL    HW1 1580   2.741   1.946   0.699  1.4575 -0.6437 -2.4555
  527SOL    HW2 1581   2.714   1.866   0.559  2.6823 -1.1077  1.3126
  528SOL     OW 1582   0.562   1.040   2.122  0.5669  0.3472  0.6183
  528SOL    HW1 1583   0.465   1.013   2.116  0.8401  1.4107 -0.6622
  528SOL    HW2 1584   0.623   0.981   2.059  2.3546 -3.3332 -2.9899
  529SOL     OW 1585   1.614   1.820   2.604 -0.3929 -0.1193 -0.1063
  529SOL    HW1 1586   1.537   1.754   2.596  1.4771  0.3939  1.1774
  529SOL    HW2 1587   1.586   1.915   2.607  0.8837  0.2347  2.3749
  530SOL     OW 1588   1.650   0.997   2.443  0.7891 -0.1260 -0.3000
  530SOL    HW1 1589   1.709   0.983   2.363 -1.0684 -0.4111 -0.7193
  530SOL    HW2 1590   1.558   0.965   2.415 -0.0230  0.5983  2.1673
  531SOL     OW 1591   0.480   2.416   2.618 -0.6890 -0.4529  0.1416
  531SOL    HW1 1592   0.412   2.409   2.541  0.9661 -0.0967 -0.4389
  531SOL    HW2 1593   0.451   2.360   2.697 -3.6968  1.9590 -0.2470
  532SOL     OW 1594   2.608   0.891   0.444 -0.3106  0.8614  0.2978
  532SOL    HW1 1595   2.657   0.884   0.534 -0.7698 -0.2047 -2.1575
  532SOL    HW2 1596   2.503   0.880   0.459 -2.8644  1.9351  0.6336
  533SOL     OW 1597   2.989   0.280   1.721  0.1848 -0.0021 -0.0577
  533SOL    HW1 1598   3.010   0.350   1.796 -0.6663  3.7128  1.0089
  533SOL    HW2 1599   2.950   0.318   1.633 -2.1127 -0.1760 -0.3955
  534SOL     OW 1600   0.741   3.046   3.072  0.5515 -0.2089  0.1519
  534SOL    HW1 1601   0.654   3.053   0.032 -4.3993  1.9151  1.7912
  534SOL    HW2 1602   0.721   3.076   2.972  0.9550 -3.1170 -2.8256
  535SOL     OW 1603   0.283   0.229   0.117  0.0819  0.3143  0.4010
  535SOL    HW1 1604   0.305   0.150   0.061 -0.0480  2.5404  1.2989
  535SOL    HW2 1605   0.263   0.203   0.208 -1.6447 -0.4341  0.5248
  536SOL     OW 1606   0.532   1.792   0.878 -0.7397 -0.2284  0.6222
  536SOL    HW1 1607   0.452   1.769   0.937 -1.0304 -0.4699 -0.3495
  536SOL    HW2 1608   0.602   1.717   0.878 -1.9967  0.2911 -1.4253
  537SOL     OW 1609   0.949   2.750   1.838  0.2648 -0.1237 -0.0205
  537SOL    HW1 1610   1.004   2.689   1.776  0.3327  0.3965  1.0275
  537SOL    HW2 1611   0.971   2.723   1.932 -0.2455  2.0353 -0.5740
  538SOL     OW 1612   0.102   1.925   2.961  0.5152 -0.4907  0.1872
  538SOL    HW1 1613   0.117   1.912   3.060  1.6810 -2.6785 -1.6892
  538SOL    HW2 1614   0.180   1.891   2.907 -2.3741  0.0062  0.7980
  539SOL     OW 1615   2.603   1.059   2.615  0.4079 -0.1737  0.0628
  539SOL    HW1 1616   2.549   0.979   2.645 -1.4655 -5.2329  0.1247
  539SOL    HW2 1617   2.639   1.041   2.521 -0.8436 -0.5514  0.8939
  540SOL     OW 1618   1.881   0.049   2.793  0.1878 -0.3573 -0.1204
  540SOL    HW1 1619   1.877   0.128   2.862 -1.4796  1.8843  0.5822
  540SOL    HW2 1620   1.965   0.058   2.730  3.0618  2.0475 -0.7586
  541SOL     OW 1621   0.649   0.285   2.219  0.9780  0.4583 -0.2243
  541SOL    HW1 1622   0.682   0.234   2.305  1.4386 -0.0167  2.1126
  541SOL    HW2 1623   0.552   0.315   2.226 -2.1581  3.2457 -2.0443
  542SOL     OW 1624   2.161   2.843   0.113 -0.3334 -0.5671 -0.0765
  542SOL    HW1 1625   2.103   2.879   0.039  2.2065  0.3450  0.7788
  542SOL    HW2 1626   2.164   2.915   0.187 -2.1468 -0.8929  1.7721
  543SOL     OW 1627   1.120   0.133   0.403 -0.2661 -0.1751 -0.1762
  543SOL    HW1 1628   1.155   0.229   0.385  3.9898  0.4576 -0.0703
  543SOL    HW2 1629   1.021   0.124   0.422 -2.4725 -1.8652  1.4960
  544SOL     OW 1630   2.570   1.312   1.767 -0.1869  0.1229 -0.2794
  544SOL    HW1 1631   2.499   1.299   1.838  0.0863 -1.5096 -2.6249
  544SOL    HW2 1632   2.593   1.222   1.731 -3.1418  0.8010  0.6787
  545SOL     OW 1633   2.225   1.797   1.264  0.2793 -0.4943  0.0608
  545SOL    HW1 1634   2.301   1.777   1.198  1.5855  1.4199 -0.4070
  545SOL    HW2 1635   2.254   1.792   1.360 -0.2687 -0.7252 -1.9865
  546SOL     OW 1636   0.261   2.992   2.113  0.1412 -0.0955  0.1238
  546SOL    HW1 1637   0.326   3.052   2.169  0.6158 -0.6897  1.0302
  546SOL    HW2 1638   0.264   2.896   2.145 -0.1611  1.3457 -3.6219
  547SOL     OW 1639   1.556   0.605   0.860  0.3145  0.1233 -0.0152
  547SOL    HW1 1640   1.491   0.661   0.918 -0.3435  2.0606 -0.0653
  547SOL    HW2 1641   1.611   0.537   0.908 -1.2398 -1.2784  2.5967
  548SOL     OW 1642   1.675   2.463   2.652 -0.1897  0.3056 -0.1884
  548SOL    HW1 1643   1.588   2.483   2.606  0.1992  1.8396  0.0525
  548SOL    HW2 1644   1.668   2.372   2.699 -0.3680  1.6931 -0.5692
  549SOL     OW 1645   2.167   0.395   0.141 -0.1869  0.7802 -0.3456
  549SOL    HW1 1646   2.115   0.483   0.155  0.7512  2.3266  3.9854
  549SOL    HW2 1647   2.202   0.356   0.228 -1.0789  0.3436 -0.1679
  550SOL     OW 1648   3.050   1.927   0.592  0.4426  0.6779  0.0708
  550SOL    HW1 1649   2.950   1.940   0.618 -1.0912  0.3590  0.4051
  550SOL    HW2 1650   3.066   1.848   0.527 -1.9697  0.8348 -2.4242
  551SOL     OW 1651   1.173   2.873   2.222  0.2300  0.1500  0.0443
  551SOL    HW1 1652   1.259   2.921   2.247  0.4969  1.4711  1.9860
  551SOL    HW2 1653   1.094   2.937   2.235 -0.7956  0.7716 -0.2972
  552SOL     OW 1654   2.932   2.309   2.450  0.5417  0.3680 -0.6716
  552SOL    HW1 1655   2.970   2.240   2.512  1.0340  0.8444 -2.8719
  552SOL    HW2 1656   2.831   2.299   2.461 -1.0401 -0.4349  2.5607
  553SOL     OW 1657   0.142   0.267   0.730 -0.2396 -0.2055 -0.1391
  553SOL    HW1 1658   0.109   0.283   0.827  1.4579 -1.1183  0.0727
  553SOL    HW2 1659   0.090   0.191   0.690 -0.4840  1.3217  1.5159
  554SOL     OW 1660   2.214   2.240   1.599  0.3121 -0.0654 -0.1084
  554SOL    HW1 1661   2.129   2.192   1.592  2.4473 -0.3867  0.2623
  554SOL    HW2 1662   2.225   2.300   1.682  0.2237  0.4318 -1.0547
  555SOL     OW 1663   1.738   2.289   2.177  0.3712  0.8046 -0.2097
  555SOL    HW1 1664   1.778   2.202   2.212  1.9538 -0.2019  1.5038
  555SOL    HW2 1665   1.815   2.347   2.150 -0.0522  1.2227  0.3613
  556SOL     OW 1666   1.327   1.349   1.306 -0.5218  0.0614 -0.4012
  556SOL    HW1 1667   1.346   1.345   1.206 -0.3351 -0.9159  3.0712
  556SOL    HW2 1668   1.232   1.358   1.335  2.2705 -1.4171 -0.6518
  557SOL     OW 1669   2.051   2.684   2.031 -0.1202  0.3221  0.1231
  557SOL    HW1 1670   2.124   2.686   2.099  1.1466 -0.9517 -3.1748
  557SOL    HW2 1671   2.007   2.769   2.015  1.4965 -2.3206 -0.9689
  558SOL     OW 1672   0.314   2.940   1.842  0.1780 -0.4253 -0.2295
  558SOL    HW1 1673   0.275   2.984   1.926  3.0149  0.7228  0.4056
  558SOL    HW2 1674   0.277   2.844   1.830  0.2947 -0.1457  0.1366
  559SOL     OW 1675   2.013   0.015   0.415  0.7986 -0.3361 -0.0930
  559SOL    HW1 1676   1.942   0.058   0.353 -1.5591 -0.2789  0.9542
  559SOL    HW2 1677   2.017   0.055   0.507  3.0572 -3.4195 -1.0832
  560SOL     OW 1678   1.726   2.947   0.650  0.4986 -0.0534  0.0418
  560SOL    HW1 1679   1.720   2.912   0.746  0.0566 -1.7073 -0.4149
  560SOL    HW2 1680   1.644   2.992   0.606  0.3136 -0.9621 -1.5498
  561SOL     OW 1681   0.922   0.221   1.025  0.2675  0.6393 -0.1293
  561SOL    HW1 1682   0.875   0.313   1.023 -1.6709 -0.5644 -0.6680
  561SOL    HW2 1683   0.999   0.224   0.958  1.9926  0.0317  2.0008
  562SOL     OW 1684   0.569   0.944   2.372 -0.2708  0.5487 -0.1221
  562SOL    HW1 1685   0.527   1.012   2.432  0.8105 -0.9132  0.3013
  562SOL    HW2 1686   0.572   0.979   2.279 -0.4879  0.6361  1.1749
  563SOL     OW 1687   1.652   2.140   2.536 -0.3250 -0.3236  0.2602
  563SOL    HW1 1688   1.727   2.115   2.477  0.2864  2.2467 -1.8233
  563SOL    HW2 1689   1.564   2.139   2.481  1.5724  2.7134  2.3628
  564SOL     OW 1690   2.791   1.027   1.041  0.3098  0.2421 -0.0079
  564SOL    HW1 1691   2.703   1.001   1.075  0.9459  2.6292  0.0659
  564SOL    HW2 1692   2.781   1.085   0.959  1.0746 -2.1091  1.3174
  565SOL     OW 1693   0.963   0.832   3.071  0.4239 -0.1713  0.0705
  565SOL    HW1 1694   0.910   0.754   0.015  0.4328 -0.2701 -0.2987
  565SOL    HW2 1695   1.012   0.808   2.984 -1.4917  1.4673 -1.5453
  566SOL     OW 1696   2.281   0.261   2.816 -0.2222  0.4896 -0.3100
  566SOL    HW1 1697   2.320   0.171   2.817 -2.2203  0.2349 -1.8339
  566SOL    HW2 1698   2.301   0.311   2.902 -0.5012 -0.3471 -1.4238
  567SOL     OW 1699   1.946   1.094   0.626 -0.0856 -0.4724  0.5489
  567SOL    HW1 1700   2.007   1.150   0.682  0.1771 -0.5787 -0.3611
  567SOL    HW2 1701   1.858   1.145   0.604  0.0278  0.3283 -0.3128
  568SOL     OW 1702   1.749   1.828   2.974 -0.0910 -0.0869  0.4588
  568SOL    HW1 1703   1.663   1.793   3.023  0.6475  0.2592 -0.5704
  568SOL    HW2 1704   1.774   1.767   2.902 -0.8024  2.6602  3.3377
  569SOL     OW 1705   1.872   1.399   3.022 -0.8204 -0.4829  0.2392
  569SOL    HW1 1706   1.808   1.467   3.061 -1.5267 -0.7408  0.1547
  569SOL    HW2 1707   1.971   1.428   3.036 -0.2889 -1.5425  1.9484
  570SOL     OW 1708   0.481   2.125   1.807  0.0331  0.1258 -0.4267
  570SOL    HW1 1709   0.522   2.101   1.718  1.5512  1.4312  1.7110
  570SOL    HW2 1710   0.535   2.195   1.859 -0.1940 -0.2557  1.3502
  571SOL     OW 1711   0.187   1.026   1.849  0.7902 -0.5613 -0.2349
  571SOL    HW1 1712   0.224   0.964   1.778  1.5316  0.9049 -1.4319
  571SOL    HW2 1713   0.114   1.090   1.810 -2.5034 -1.4843 -2.5758
  572SOL     OW 1714   1.166   1.607   0.298  0.0682 -0.1239  0.6284
  572SOL    HW1 1715   1.261   1.563   0.315  5.1450 -0.4247 -0.2393
  572SOL    HW2 1716   1.148   1.631   0.198  0.6419  1.4308 -0.6107
  573SOL     OW 1717   1.907   2.036   0.579 -0.2930  0.8701 -0.2765
  573SOL    HW1 1718   1.861   2.062   0.491  0.1130 -1.2994 -0.2923
  573SOL    HW2 1719   1.867   2.103   0.647  0.9122 -0.6064 -0.4563
  574SOL     OW 1720   0.979   0.124   1.284  0.0900  0.0258  0.7892
  574SOL    HW1 1721   0.906   0.077   1.339 -0.3844  0.4442 -0.9945
  574SOL    HW2 1722   0.944   0.165   1.195 -1.4692  0.9346 -0.1194
  575SOL     OW 1723   0.572   1.112   1.357  0.2473 -0.0861 -0.5005
  575SOL    HW1 1724   0.575   1.132   1.455  0.4510  1.9913 -0.3803
  575SOL    HW2 1725   0.603   1.200   1.309  1.8324 -0.8460 -0.0275
  576SOL     OW 1726   2.719   3.065   1.123 -0.0199 -0.4692  0.5617
  576SOL    HW1 1727   2.621   3.064   1.151  0.1709 -0.2977  2.8589
  576SOL    HW2 1728   2.776   0.029   1.176 -1.8788  1.4641 -1.0918
  577SOL     OW 1729   0.885   1.357   2.034 -0.1774  0.0358  0.1834
  577SOL    HW1 1730   0.827   1.407   1.965  1.4913 -1.7082  2.7819
  577SOL    HW2 1731   0.828   1.330   2.111  3.5521 -0.3598 -2.7812
  578SOL     OW 1732   1.835   1.037   2.622 -0.1616 -1.1786  0.7302
  578SOL    HW1 1733   1.764   1.010   2.557 -0.7088  2.4782  0.7342
  578SOL    HW2 1734   1.866   1.133   2.596 -0.4734 -0.6351 -1.5912
  579SOL     OW 1735   1.562   2.266   1.781 -0.7632 -0.1568 -0.7394
  579SOL    HW1 1736   1.626   2.347   1.790  1.1100  0.7669  1.4104
  579SOL    HW2 1737   1.551   2.229   1.872  0.6975 -1.7344  0.9928
  580SOL     OW 1738   1.410   1.617   2.607 -0.3265  0.0474  0.0495
  580SOL    HW1 1739   1.427   1.544   2.672  0.8520  0.0687  0.2044
  580SOL    HW2 1740   1.318   1.652   2.620  0.8718  0.8677  1.9088
  581SOL     OW 1741   1.097   1.008   2.372 -0.0361 -0.3257  0.3703
  581SOL    HW1 1742   1.076   1.036   2.470  0.7427  2.3514  1.6752
  581SOL    HW2 1743   1.070   1.077   2.302  0.1302 -2.8710 -1.5931
  582SOL     OW 1744   0.926   1.187   1.419  0.4838  0.0637  0.4217
  582SOL    HW1 1745   0.840   1.237   1.402  0.1061  1.0052 -1.6372
  582SOL    HW2 1746   0.945   1.129   1.335  1.0642  2.0436 -3.0172
  583SOL     OW 1747   1.075   1.213   1.905 -0.3951 -0.5866 -0.0272
  583SOL    HW1 1748   1.033   1.164   1.825  0.4784 -1.2890 -0.3055
  583SOL    HW2 1749   1.001   1.268   1.945  0.0807 -2.0330 -0.7626
  584SOL     OW 1750   2.547   2.606   0.405 -0.2055 -0.0914  0.0796
  584SOL    HW1 1751   2.591   2.624   0.494  0.6085  2.3501 -1.7017
  584SOL    HW2 1752   2.593   2.662   0.336  0.6279 -1.5934 -2.4368
  585SOL     OW 1753   1.738   0.176   3.009  0.1607 -0.2450  0.0380
  585SOL    HW1 1754   1.789   0.232   3.078 -0.5232 -0.1186 -2.1116
  585SOL    HW2 1755   1.747   0.074   3.025 -1.0997 -0.7540  0.2054
  586SOL     OW 1756   0.146   2.387   0.974  0.0014  0.5305 -0.3620
  586SOL    HW1 1757   0.128   2.428   0.882  1.3945  0.2098 -1.0066
  586SOL    HW2 1758   0.075   2.417   1.041  1.4089  1.3886 -0.9105
  587SOL     OW 1759   1.547   1.724   3.095  0.0605  0.1910 -0.3075
  587SOL    HW1 1760   1.512   1.801   0.060  2.0188  0.4970  1.2465
  587SOL    HW2 1761   1.480   1.650   3.087  1.5067  4.1144 -0.6736
  588SOL     OW 1762   0.268   0.265   1.194 -0.0253 -0.1433 -0.1188
  588SOL    HW1 1763   0.354   0.304   1.161  0.6064 -0.7036  0.6661
  588SOL    HW2 1764   0.257   0.294   1.290  0.1949 -0.2837  1.0132
  589SOL     OW 1765   1.125   0.218   0.832  0.2599 -0.4470 -0.6593
  589SOL    HW1 1766   1.050   0.240   0.770  1.3852  2.1088 -2.4746
  589SOL    HW2 1767   1.172   0.299   0.864 -1.0684 -0.0930  0.0944
  590SOL     OW 1768   1.231   0.979   2.644 -0.5224  0.0969 -0.1385
  590SOL    HW1 1769   1.274   0.953   2.728 -2.5787  1.4782 -1.5273
  590SOL    HW2 1770   1.185   1.068   2.650  1.6910 -1.2156  0.3532
  591SOL     OW 1771   2.664   2.364   2.487  0.0999  0.3072  0.0145
  591SOL    HW1 1772   2.639   2.291   2.417  1.3918 -0.3701  0.4962
  591SOL    HW2 1773   2.639   2.452   2.444  1.3870  0.2175  3.6857
  592SOL     OW 1774   2.130   1.711   1.615  0.0375 -0.3032  0.7549
  592SOL    HW1 1775   2.031   1.696   1.591 -0.0715 -0.4609 -1.1316
  592SOL    HW2 1776   2.195   1.682   1.546 -1.4852  2.4273 -0.4685
  593SOL     OW 1777   1.086   0.695   1.502 -0.2807 -0.4346  0.0553
  593SOL    HW1 1778   1.015   0.713   1.427 -0.9167 -0.6222 -0.2404
  593SOL    HW2 1779   1.134   0.603   1.497 -0.5103  1.1341  1.1401
  594SOL     OW 1780   2.747   1.257   2.255 -0.9754  0.1784  0.4433
  594SOL    HW1 1781   2.802   1.344   2.264  1.4210  0.6969  0.8068
  594SOL    HW2 1782   2.793   1.199   2.186 -0.4537  1.2286  2.3091
  595SOL     OW 1783   3.030   0.138   0.361  0.3682 -0.6620 -0.5864
  595SOL    HW1 1784   3.045   0.162   0.459  0.2448 -0.6977  0.2332
  595SOL    HW2 1785   2.933   0.105   0.350 -1.8573 -1.2547  0.8089
  596SOL     OW 1786   3.096   1.477   1.139  0.4483 -0.2057  0.2679
  596SOL    HW1 1787   0.081   1.443   1.088  2.2941 -2.3562  1.8182
  596SOL    HW2 1788   3.070   1.411   1.214  0.5851 -0.0820 -1.5027
  597SOL     OW 1789   1.625   1.561   0.625 -0.0449  0.2335 -0.0820
  597SOL    HW1 1790   1.697   1.587   0.695 -1.5245 -2.5380  1.1047
  597SOL    HW2 1791   1.645   1.591   0.529 -1.9508 -0.9461 -1.5525
  598SOL     OW 1792   0.367   2.572   1.723  0.1087  0.3630  0.1983
  598SOL    HW1 1793   0.390   2.610   1.633 -0.1789  2.6200 -1.6894
  598SOL    HW2 1794   0.295   2.626   1.761  2.8167 -3.1574 -1.0300
  599SOL     OW 1795   2.858   1.534   2.514 -0.0723 -0.5288  0.0355
  599SOL    HW1 1796   2.809   1.468   2.574  1.5987 -2.1929 -0.5136
  599SOL    HW2 1797   2.817   1.630   2.519  0.9823  2.0403 -0.3030
  600SOL     OW 1798   0.721   1.064   0.017  0.6785 -0.0660  0.2119
  600SOL    HW1 1799   0.754   1.126   0.086  3.3080  0.0149 -2.5320
  600SOL    HW2 1800   0.786   0.990   0.004 -0.8453  1.1782 -0.8785
  601SOL     OW 1801   0.681   0.902   0.976 -0.1874  0.0759  0.0150
  601SOL    HW1 1802   0.595   0.907   1.035 -1.9902  0.8709  0.5822
  601SOL    HW2 1803   0.691   0.995   0.929 -0.0572  4.0481 -3.9401
  602SOL     OW 1804   1.277   2.279   0.448  0.0580  0.7572 -0.3775
  602SOL    HW1 1805   1.289   2.372   0.416 -1.3754 -1.4997 -1.4279
  602SOL    HW2 1806   1.188   2.275   0.500 -0.2181  1.8294 -1.6007
  603SOL     OW 1807   1.144   2.474   1.949  0.3683  0.3724 -0.7965
  603SOL    HW1 1808   1.188   2.561   1.972 -2.8738 -1.7734 -0.3921
  603SOL    HW2 1809   1.082   2.440   2.024 -1.2207 -1.9993  0.2886
  604SOL     OW 1810   0.354   0.301   2.487  0.4011  0.3117  0.1077
  604SOL    HW1 1811   0.254   0.274   2.496 -1.1003  0.6000  1.5682
  604SOL    HW2 1812   0.361   0.313   2.382 -3.1171 -2.3077 -4.1192
  605SOL     OW 1813   2.519   1.210   1.336 -0.5397 -1.0510 -0.7365
  605SOL    HW1 1814   2.436   1.174   1.301  1.0425  2.4938  0.1652
  605SOL    HW2 1815   2.589   1.141   1.353 -0.4178 -0.9171 -2.3489
  606SOL     OW 1816   0.689   1.763   2.681 -0.4301 -0.5043  0.1985
  606SOL    HW1 1817   0.607   1.767   2.619  0.1729 -0.5642  0.6134
  606SOL    HW2 1818   0.747   1.678   2.660  1.7498 -0.6618 -1.6428
  607SOL     OW 1819   0.499   3.037   0.165 -0.0100 -0.3906  0.1901
  607SOL    HW1 1820   0.492   2.953   0.108 -1.5379  1.8782 -1.0819
  607SOL    HW2 1821   0.510   3.015   0.262  1.9643  0.6606 -0.6566
  608SOL     OW 1822   2.382   1.752   2.118  0.2361 -0.0808 -0.1533
  608SOL    HW1 1823   2.405   1.810   2.032  0.5873  2.4824 -2.1040
  608SOL    HW2 1824   2.283   1.723   2.129 -0.7965 -2.6689 -2.4558
  609SOL     OW 1825   2.747   0.268   0.967 -0.0365  0.0699 -0.1846
  609SOL    HW1 1826   2.792   0.187   0.931  0.9340  1.4916  0.7088
  609SOL    HW2 1827   2.656   0.247   1.002 -0.4525  2.7135  2.1892
  610SOL     OW 1828   0.332   2.630   0.457  0.0286 -0.9872  0.2381
  610SOL    HW1 1829   0.427   2.646   0.489 -0.6680  2.1259  2.2481
  610SOL    HW2 1830   0.334   2.641   0.352  2.5203 -1.0386 -1.4519
  611SOL     OW 1831   1.598   1.311   0.241  0.1173 -0.3165  0.5745
  611SOL    HW1 1832   1.679   1.285   0.300  0.4864  1.3408  2.0241
  611SOL    HW2 1833   1.517   1.331   0.295  1.3043 -2.1460 -1.5089
  612SOL     OW 1834   0.631   2.496   1.720 -0.4062 -0.4879  0.3548
  612SOL    HW1 1835   0.648   2.422   1.784  1.5174  1.9007  2.1695
  612SOL    HW2 1836   0.534   2.531   1.721 -0.2668  1.4427 -0.2741
  613SOL     OW 1837   0.589   2.734   0.584 -0.2065  0.1406  0.7385
  613SOL    HW1 1838   0.540   2.716   0.672 -0.4673 -2.0640  0.2076
  613SOL    HW2 1839   0.676   2.681   0.583  1.7121 -0.8936 -1.2348
  614SOL     OW 1840   2.304   3.051   1.571  0.1779  0.6282  0.3215
  614SOL    HW1 1841   2.281   0.050   1.547  0.5189 -1.9682 -1.1215
  614SOL    HW2 1842   2.289   3.036   1.670 -0.1194  1.2053  0.8520
  615SOL     OW 1843   1.696   1.165   0.545 -0.0604 -0.3269  0.1308
  615SOL    HW1 1844   1.610   1.118   0.512  0.7288 -1.0349 -0.2646
  615SOL    HW2 1845   1.746   1.199   0.464 -0.4077 -1.4437  0.1044
  616SOL     OW 1846   1.835   1.257   0.340 -0.1872 -0.0531  0.5925
  616SOL    HW1 1847   1.877   1.352   0.349 -0.7692  2.5318 -0.0232
  616SOL    HW2 1848   1.896   1.203   0.277  0.3825  0.4891 -0.1401
  617SOL     OW 1849   1.093   0.751   2.831  0.2502 -0.0243 -0.5359
  617SOL    HW1 1850   1.111   0.678   2.761  2.1107  0.4612 -1.6091
  617SOL    HW2 1851   1.041   0.832   2.790 -0.7986  4.4874 -2.1680
  618SOL     OW 1852   0.673   2.902   2.066 -0.1027 -0.8742  0.4190
  618SOL    HW1 1853   0.660   2.825   2.001  0.1138  0.1920  1.3670
  618SOL    HW2 1854   0.599   2.966   2.055 -0.1351 -2.4950  1.9360
  619SOL     OW 1855   2.916   1.390   1.415  0.2992  0.5524 -0.5768
  619SOL    HW1 1856   2.990   1.450   1.448  0.2398  0.1737 -1.4591
  619SOL    HW2 1857   2.831   1.444   1.403  0.6577  0.3894 -0.5407
  620SOL     OW 1858   2.867   0.761   2.750 -0.3655 -0.1815 -0.2040
  620SOL    HW1 1859   2.913   0.671   2.766 -0.2160  0.7478 -2.3251
  620SOL    HW2 1860   2.930   0.837   2.736 -0.4603  1.0654 -0.1515
  621SOL     OW 1861   2.356   1.989   2.295  0.6992  0.8204  0.6652
  621SOL    HW1 1862   2.412   1.904   2.289  2.0937  0.8783  1.4873
  621SOL    HW2 1863   2.262   1.965   2.331 -3.3703 -0.7514  1.5469
  622SOL     OW 1864   1.048   0.596   2.145  0.3271 -0.0970  0.1377
  622SOL    HW1 1865   0.990   0.542   2.208  2.3641 -0.5145  0.0839
  622SOL    HW2 1866   1.135   0.546   2.116 -0.4571  0.0070 -2.0407
  623SOL     OW 1867   0.739   1.218   2.227 -0.1623  0.4121 -0.1076
  623SOL    HW1 1868   0.664   1.157   2.193 -0.7507  1.3815  1.3223
  623SOL    HW2 1869   0.758   1.184   2.324 -1.1763 -0.0327 -2.7345
  624SOL     OW 1870   2.684   0.748   0.224 -0.0709 -1.2578 -0.0450
  624SOL    HW1 1871   2.659   0.796   0.308 -0.1324 -0.8430 -1.6132
  624SOL    HW2 1872   2.780   0.757   0.201  3.5292  0.2350 -1.3003
  625SOL     OW 1873   0.881   1.902   0.728  0.2526  0.0734 -0.2944
  625SOL    HW1 1874   0.796   1.959   0.729 -0.4270  0.6599  0.4610
  625SOL    HW2 1875   0.899   1.863   0.824 -0.9701  1.0338  0.9032
  626SOL     OW 1876   2.039   0.803   2.619  0.0081  0.0203 -0.2122
  626SOL    HW1 1877   2.084   0.806   2.708 -0.8093 -0.1692  0.8279
  626SOL    HW2 1878   1.951   0.857   2.615 -0.3172  0.3570 -0.9748
  627SOL     OW 1879   1.272   2.883   2.732  0.0567 -0.0368  0.1136
  627SOL    HW1 1880   1.371   2.911   2.739  1.2185 -0.0176  0.8526
  627SOL    HW2 1881   1.252   2.862   2.638  1.2930  1.2127  3.7019
  628SOL     OW 1882   2.332   2.922   2.149 -0.4591 -0.2343  0.2381
  628SOL    HW1 1883   2.406   2.928   2.222  0.4518  0.4264  1.6163
  628SOL    HW2 1884   2.307   3.011   2.109  2.0447  0.1187 -0.0816
  629SOL     OW 1885   0.735   0.075   2.832 -0.1991 -0.2309 -0.6893
  629SOL    HW1 1886   0.676   0.146   2.797  1.2705 -0.4970 -1.1179
  629SOL    HW2 1887   0.829   0.111   2.853  0.9938 -0.6769  0.3472
  630SOL     OW 1888   0.969   0.355   2.611  0.1709 -0.2876 -0.3756
  630SOL    HW1 1889   0.967   0.284   2.538  2.1905 -0.9073  0.4213
  630SOL    HW2 1890   0.977   0.313   2.708  1.6289 -1.5217  1.4509
  631SOL     OW 1891   2.145   1.239   0.765 -0.0426 -0.3460  0.5696
  631SOL    HW1 1892   2.091   1.287   0.838 -1.6512 -0.6734 -0.9554
  631SOL    HW2 1893   2.200   1.312   0.720 -3.0647 -0.2319  0.0373
  632SOL     OW 1894   1.951   0.851   1.801 -0.0784  0.8375  0.1340
  632SOL    HW1 1895   1.926   0.752   1.808 -1.3848  1.2683  0.8678
  632SOL    HW2 1896   1.876   0.901   1.747 -3.6146  2.9720  2.0066
  633SOL     OW 1897   1.115   1.737   0.045 -0.6851 -0.0480  0.2107
  633SOL    HW1 1898   1.030   1.743   3.089  0.2738 -0.1657  1.4215
  633SOL    HW2 1899   1.160   1.828   0.053 -1.2185  1.6385  1.7258
  634SOL     OW 1900   2.640   3.015   1.684  0.5050  0.4222 -0.3537
  634SOL    HW1 1901   2.558   2.995   1.738 -0.0724 -1.7636  0.5123
  634SOL    HW2 1902   2.658   0.015   1.694  4.7035 -1.9876 -0.6014
  635SOL     OW 1903   1.742   0.398   0.884  0.0655  0.2248  1.0156
  635SOL    HW1 1904   1.780   0.464   0.949  0.0901 -0.6875  1.2513
  635SOL    HW2 1905   1.728   0.309   0.930  4.9686  0.9260  0.2111
  636SOL     OW 1906   0.937   1.146   0.182  0.3065 -0.2390  0.2298
  636SOL    HW1 1907   0.930   1.241   0.160  3.6507 -0.3725 -1.6433
  636SOL    HW2 1908   1.024   1.100   0.158 -2.3296 -0.6460  3.3220
  637SOL     OW 1909   2.804   2.097   3.081 -0.2532 -0.1926  0.6680
  637SOL    HW1 1910   2.816   2.099   0.085  0.0381 -0.8835 -2.8327
  637SOL    HW2 1911   2.894   2.108   3.035 -0.2783  0.9930 -2.2968
  638SOL     OW 1912   1.716   2.661   2.853 -0.2947  0.0337  0.0894
  638SOL    HW1 1913   1.711   2.759   2.820  2.0044  2.2724  0.3192
  638SOL    HW2 1914   1.695   2.599   2.774  0.8340 -0.3002 -0.0505
  639SOL     OW 1915   1.378   1.519   1.507 -0.5462 -0.3808 -0.1683
  639SOL    HW1 1916   1.334   1.461   1.437  1.6520 -2.3915  0.3256
  639SOL    HW2 1917   1.425   1.597   1.464 -0.1275  0.6254  0.4223
  640SOL     OW 1918   2.176   2.750   0.654  0.1197  0.3773  0.0799
  640SOL    HW1 1919   2.089   2.796   0.631  0.2328 -0.4811 -1.6292
  640SOL    HW2 1920   2.195   2.668   0.596  2.1047 -2.3949 -0.3214
  641SOL     OW 1921   3.025   0.045   2.793 -0.0938  0.0048  0.2509
  641SOL    HW1 1922   2.981   0.133   2.763  1.9860  1.0934  2.8559
  641SOL    HW2 1923   3.039   0.032   2.891 -0.3302 -0.9900 -0.7024
  642SOL     OW 1924   2.911   0.803   1.253 -0.1689 -0.0574 -0.0004
  642SOL    HW1 1925   2.848   0.861   1.199 -2.2031 -1.1397  3.5005
  642SOL    HW2 1926   2.980   0.860   1.301  1.3851 -0.3414  0.9840
  643SOL     OW 1927   0.725   1.555   1.906 -0.1714 -0.0168 -0.3077
  643SOL    HW1 1928   0.653   1.595   1.967 -1.2963  1.6738  0.2177
  643SOL    HW2 1929   0.808   1.616   1.913  2.2680 -2.1337 -0.1204
  644SOL     OW 1930   1.846   2.253   0.765  0.1759  0.5558 -0.8416
  644SOL    HW1 1931   1.931   2.235   0.820 -0.7883  0.5728  0.0758
  644SOL    HW2 1932   1.826   2.349   0.764  1.1562  0.9995  1.6801
  645SOL     OW 1933   1.932   1.989   1.066  0.3895 -0.7616 -0.6182
  645SOL    HW1 1934   1.992   2.039   1.002  0.8923 -0.6112  3.6050
  645SOL    HW2 1935   1.952   1.889   1.066  1.9356  1.8754  5.9388
  646SOL     OW 1936   1.038   2.508   2.763  0.1387 -0.0906  0.4146
  646SOL    HW1 1937   1.108   2.568   2.810  3.9733  1.7557  1.0312
  646SOL    HW2 1938   1.023   2.423   2.816 -2.4453  0.4459  2.3123
  647SOL     OW 1939   0.688   2.656   1.930  0.1263  0.1373  0.0431
  647SOL    HW1 1940   0.778   2.693   1.900 -2.9941 -1.5089  1.9170
  647SOL    HW2 1941   0.656   2.584   1.866 -0.5991  3.4784 -0.0306
  648SOL     OW 1942   1.511   0.726   1.864 -0.0204 -0.5050 -0.6503
  648SOL    HW1 1943   1.449   0.652   1.842 -2.6041  0.4334 -1.0541
  648SOL    HW2 1944   1.565   0.699   1.947 -0.2245 -0.5211  0.5071
  649SOL     OW 1945   1.751   2.147   0.373  0.1204 -0.3965 -0.0830
  649SOL    HW1 1946   1.659   2.103   0.363  1.8594 -1.2757 -2.1186
  649SOL    HW2 1947   1.730   2.248   0.392  0.8352  1.7467  1.3490
  650SOL     OW 1948   2.191   1.924   1.801  0.0223 -0.2975  0.3667
  650SOL    HW1 1949   2.185   1.847   1.743  0.0309  0.7659 -0.4399
  650SOL    HW2 1950   2.272   1.983   1.776  2.2187 -0.1621  0.0357
  651SOL     OW 1951   1.706   2.655   0.166  0.4450 -0.0026 -0.1212
  651SOL    HW1 1952   1.758   2.736   0.194  0.6441 -3.2185 -1.1901
  651SOL    HW2 1953   1.758   2.601   0.097 -0.8654 -0.6581  0.0490
  652SOL     OW 1954   0.506   1.955   0.233 -0.0762 -0.1511  0.1020
  652SOL    HW1 1955   0.440   1.934   0.300  1.1053 -0.9094 -1.8237
  652SOL    HW2 1956   0.484   1.901   0.147 -1.1246 -3.3791 -1.0429
  653SOL     OW 1957   2.564   2.531   1.246 -0.1532 -0.5945  0.2263
  653SOL    HW1 1958   2.494   2.469   1.292 -2.2831 -0.5975  0.1377
  653SOL    HW2 1959   2.510   2.599   1.190  1.1374  0.6284 -1.7322
  654SOL     OW 1960   2.920   2.636   1.484  0.0564  0.4868  0.0965
  654SOL    HW1 1961   2.852   2.711   1.480 -0.0770 -2.9443  1.1121
  654SOL    HW2 1962   2.877   2.550   1.448 -0.0859 -1.5462  0.4062
  655SOL     OW 1963   2.865   2.089   1.004 -0.1760 -0.5482  0.2881
  655SOL    HW1 1964   2.951   2.138   0.970 -0.0874 -0.8928 -0.2592
  655SOL    HW2 1965   2.864   2.107   1.108  0.1007  2.6220  1.9403
  656SOL     OW 1966   0.099   2.795   2.360 -0.3395  0.5612 -0.2804
  656SOL    HW1 1967   0.021   2.847   2.316  1.2893  0.4091  3.1660
  656SOL    HW2 1968   0.161   2.758   2.287 -0.0635 -0.0972  0.1798
  657SOL     OW 1969   2.672   1.391   2.952  0.3286  0.1127  0.3948
  657SOL    HW1 1970   2.688   1.299   2.982  1.1163  0.4922  0.8130
  657SOL    HW2 1971   2.602   1.433   3.016 -1.9238 -1.3433  2.4314
  658SOL     OW 1972   1.788   1.635   0.812 -0.0926  0.1844 -0.3885
  658SOL    HW1 1973   1.842   1.709   0.769  1.6269 -0.1292  3.0933
  658SOL    HW2 1974   1.749   1.668   0.897  0.9414 -2.0015 -1.9145
  659SOL     OW 1975   1.415   0.593   1.344  0.4199  0.2540 -0.2551
  659SOL    HW1 1976   1.407   0.694   1.319 -0.7583 -1.5851  0.8844
  659SOL    HW2 1977   1.419   0.585   1.448  0.6790  0.0466 -0.9245
  660SOL     OW 1978   1.417   1.509   3.001  0.0713  0.5991  0.0450
  660SOL    HW1 1979   1.335   1.465   3.044  0.2474  1.6987 -0.4238
  660SOL    HW2 1980   1.449   1.457   2.922 -1.8731  0.2179  1.3761
  661SOL     OW 1981   0.289   2.174   0.542 -0.1960  0.2173 -0.4686
  661SOL    HW1 1982   0.328   2.146   0.638  0.7786 -0.4135 -0.4963
  661SOL    HW2 1983   0.363   2.221   0.489 -2.1207  1.2721 -0.7913
  662SOL     OW 1984   0.232   0.672   2.230 -0.2087 -0.5144 -0.3504
  662SOL    HW1 1985   0.215   0.710   2.322  1.8995 -0.4075  0.9541
  662SOL    HW2 1986   0.177   0.585   2.219  2.9045  2.3534 -0.5491
  663SOL     OW 1987   1.836   1.371   1.094 -0.6709  0.2711 -0.1742
  663SOL    HW1 1988   1.740   1.338   1.065 -3.0537  0.3348  0.7306
  663SOL    HW2 1989   1.896   1.295   1.120 -1.3872  2.0671 -0.7144
  664SOL     OW 1990   0.888   0.834   1.126  0.5123  0.6654 -0.3900
  664SOL    HW1 1991   0.865   0.824   1.228 -1.5081 -1.6603  2.3904
  664SOL    HW2 1992   0.801   0.826   1.070  0.7400  2.5829  1.7681
  665SOL     OW 1993   1.025   2.910   2.892 -0.2961 -0.2958  0.0734
  665SOL    HW1 1994   1.021   2.972   2.975 -0.3011  1.5755  1.1997
  665SOL    HW2 1995   1.117   2.905   2.855  1.3579  0.4384 -1.3832
  666SOL     OW 1996   2.910   0.038   2.436  0.1134 -0.1048  0.4235
  666SOL    HW1 1997   2.898   0.013   2.530 -0.2021  2.0965 -0.6567
  666SOL    HW2 1998   2.902   0.140   2.423 -1.3557  2.1945 -2.0885
  667SOL     OW 1999   2.304   1.315   1.836 -0.4285 -0.0607  0.7841
  667SOL    HW1 2000   2.267   1.406   1.854 -0.3590 -2.2124 -0.9138
  667SOL    HW2 2001   2.234   1.257   1.785 -0.2979 -0.6868 -0.9132
  668SOL     OW 2002   0.409   1.157   2.508 -0.2984  0.0339  0.3295
  668SOL    HW1 2003   0.342   1.173   2.583 -1.5575 -0.3536  1.0029
  668SOL    HW2 2004   0.354   1.152   2.424  1.4868 -2.3159  2.7232
  669SOL     OW 2005   2.126   2.405   2.700  0.2650 -0.3714  0.2415
  669SOL    HW1 2006   2.075   2.320   2.705 -1.1926  0.3018  1.2532
  669SOL    HW2 2007   2.228   2.402   2.682  1.3013  3.2480 -0.2837
  670SOL     OW 2008   2.222   1.284   2.369  0.2705 -0.3281  0.1409
  670SOL    HW1 2009   2.320   1.304   2.347 -1.5477  0.2436  1.0557
  670SOL    HW2 2010   2.164   1.255   2.289  1.2389  0.1565  0.1259
  671SOL     OW 2011   2.706   1.569   0.134 -0.3605 -1.0202 -0.1582
  671SOL    HW1 2012   2.696   1.481   0.184 -1.8490 -1.0878  1.2186
  671SOL    HW2 2013   2.614   1.611   0.105 -0.5248 -0.0252  2.4696
  672SOL     OW 2014   2.651   1.058   1.914 -0.1853 -0.1995  0.2219
  672SOL    HW1 2015   2.636   1.008   1.829 -0.7844 -1.1880  0.8389
  672SOL    HW2 2016   2.560   1.087   1.951 -2.7233  1.2666  0.2190
  673SOL     OW 2017   2.670   1.003   1.398 -0.4547  0.1915 -0.0813
  673SOL    HW1 2018   2.751   0.982   1.459  5.5069  0.6063 -0.5509
  673SOL    HW2 2019   2.644   0.927   1.334  4.0897  1.4474 -1.8564
  674SOL     OW 2020   2.016   1.986   2.009 -0.3672  0.1284  0.2803
  674SOL    HW1 2021   2.090   1.963   1.938  0.7096 -4.1518 -1.9884
  674SOL    HW2 2022   1.923   1.988   1.969 -2.3207  1.4219  0.3972
  675SOL     OW 2023   0.439   0.745   0.922 -0.1884  0.3182 -0.6692
  675SOL    HW1 2024   0.468   0.702   1.008  1.2787 -2.1166 -1.8147
  675SOL    HW2 2025   0.337   0.766   0.921  0.4942 -0.4215 -0.2413
  676SOL     OW 2026   1.730   1.173   1.379 -0.2787  0.3204  0.4787
  676SOL    HW1 2027   1.726   1.271   1.403 -1.9425 -1.5751  1.9210
  676SOL    HW2 2028   1.818   1.132   1.402 -5.3167  1.3265 -3.0473
  677SOL     OW 2029   2.490   1.507   2.101 -0.1676  0.1691  0.9433
  677SOL    HW1 2030   2.439   1.591   2.104 -2.3864 -0.9095 -0.1783
  677SOL    HW2 2031   2.469   1.454   2.184  1.5388  2.8300 -0.1596
  678SOL     OW 2032   0.084   1.447   0.807 -0.3061  0.0000  0.0789
  678SOL    HW1 2033   0.027   1.363   0.823  0.2149  0.6678  2.4112
  678SOL    HW2 2034   0.024   1.524   0.792  3.3029  1.6652  1.8536
  679SOL     OW 2035   2.742   2.704   0.614  0.1939 -0.0503  0.7851
  679SOL    HW1 2036   2.819   2.725   0.558 -2.5707  1.6870  2.1158
  679SOL    HW2 2037   2.774   2.655   0.697  0.1846  0.1076  3.4432
  680SOL     OW 2038   3.050   2.442   1.260  0.0000  0.4886 -0.3540
  680SOL    HW1 2039   0.035   2.405   1.307 -1.7529  1.9178 -0.8946
  680SOL    HW2 2040   2.965   2.441   1.317  2.1656  2.3190  0.9038
  681SOL     OW 2041   0.446   1.477   1.110 -0.2679 -0.6071  0.3393
  681SOL    HW1 2042   0.548   1.454   1.106 -0.4245  0.4418  0.5817
  681SOL    HW2 2043   0.415   1.499   1.206 -0.6754  0.3029  2.0871
  682SOL     OW 2044   1.683   2.893   0.904 -1.0637  0.6657 -0.2593
  682SOL    HW1 2045   1.586   2.918   0.922  1.8411 -3.2289  1.0290
  682SOL    HW2 2046   1.716   2.837   0.981  1.5028  2.2483 -1.7102
  683SOL     OW 2047   2.252   1.494   1.003  0.5301  0.1457 -0.2151
  683SOL    HW1 2048   2.167   1.476   0.952  1.1353  1.4666 -1.3096
  683SOL    HW2 2049   2.332   1.447   0.963 -1.3041 -0.3342 -0.8909
  684SOL     OW 2050   0.756   1.896   1.837 -0.4089 -0.1276  0.8755
  684SOL    HW1 2051   0.796   1.890   1.738  0.6573 -1.0832 -5.9068
  684SOL    HW2 2052   0.687   1.970   1.850  1.2503  0.5251 -1.0711
  685SOL     OW 2053   2.195   1.457   0.253 -0.1528 -0.0075  0.0057
  685SOL    HW1 2054   2.183   1.467   0.151 -0.8150  0.3770  0.2786
  685SOL    HW2 2055   2.100   1.463   0.297 -1.0252 -0.8714  1.0648
  686SOL     OW 2056   2.758   0.382   0.516 -0.5528  0.1928 -0.5969
  686SOL    HW1 2057   2.700   0.456   0.555 -2.6169  2.1504  0.0466
  686SOL    HW2 2058   2.857   0.405   0.540  0.4312  0.2054 -0.5575
  687SOL     OW 2059   1.214   2.885   0.200 -0.0275 -0.4022  0.5004
  687SOL    HW1 2060   1.163   2.881   0.287 -1.3762  0.8893 -0.5861
  687SOL    HW2 2061   1.182   2.818   0.135  1.4884  1.1662 -0.3575
  688SOL     OW 2062   2.122   1.691   2.085  0.6175  0.0389 -0.4668
  688SOL    HW1 2063   2.069   1.659   2.161 -0.6933 -0.6870  1.4596
  688SOL    HW2 2064   2.094   1.787   2.059  2.7651  3.3141  1.3904
  689SOL     OW 2065   2.527   0.807   2.068  0.3789  0.2696 -0.6166
  689SOL    HW1 2066   2.617   0.843   2.041 -0.7191  1.7928  0.7746
  689SOL    HW2 2067   2.518   0.798   2.172 -2.0141  0.5599 -0.5315
  690SOL     OW 2068   1.884   0.543   1.330  0.4371  0.2835  0.2194
  690SOL    HW1 2069   1.821   0.581   1.404 -0.4770  0.2516  0.8036
  690SOL    HW2 2070   1.907   0.448   1.354  1.4947  3.0193 -1.4188
  691SOL     OW 2071   1.155   1.812   1.603  0.1599  0.1758  0.0436
  691SOL    HW1 2072   1.136   1.801   1.501 -1.2439  0.4056 -1.4899
  691SOL    HW2 2073   1.243   1.845   1.617 -3.7264  0.7315 -0.1510
  692SOL     OW 2074   1.696   0.364   2.057  0.3911  0.1796 -1.0625
  692SOL    HW1 2075   1.686   0.468   2.053  0.5706  1.0670 -1.8307
  692SOL    HW2 2076   1.634   0.324   1.989 -2.0633  1.2747 -1.6063
  693SOL     OW 2077   0.423   0.964   2.913  0.2554 -0.0970 -0.2875
  693SOL    HW1 2078   0.421   0.976   3.015 -1.3836  1.1924  1.1065
  693SOL    HW2 2079   0.520   0.940   2.883  2.4340 -0.3905 -1.3195
  694SOL     OW 2080   2.104   2.883   1.034  0.3534  0.0151  0.2765
  694SOL    HW1 2081   2.093   2.892   1.133  0.0986 -1.7251 -1.8220
  694SOL    HW2 2082   2.203   2.889   1.004  1.9527 -0.8757 -1.0129
  695SOL     OW 2083   1.520   1.492   2.397  1.0000  0.2056 -0.0294
  695SOL    HW1 2084   1.442   1.489   2.335 -0.0279 -2.3025  0.2450
  695SOL    HW2 2085   1.494   1.527   2.490  0.6986  0.3405  1.0226
  696SOL     OW 2086   1.567   0.359   1.345  0.0141  0.5243  0.1247
  696SOL    HW1 2087   1.505   0.307   1.410 -0.1951  0.3754 -0.0385
  696SOL    HW2 2088   1.524   0.448   1.329 -1.0608  2.5679  1.3741
  697SOL     OW 2089   1.467   0.215   1.866 -0.1371 -0.1101  0.0137
  697SOL    HW1 2090   1.461   0.120   1.823 -0.4510 -0.8404  0.2135
  697SOL    HW2 2091   1.453   0.204   1.964  0.9389  0.2786  0.5884
  698SOL     OW 2092   1.739   1.359   2.323  0.5343 -0.1254  0.1052
  698SOL    HW1 2093   1.720   1.268   2.275 -2.1445 -1.8777 -0.9911
  698SOL    HW2 2094   1.654   1.405   2.357  2.1792  0.2113  0.4196
  699SOL     OW 2095   1.466   1.142   1.448  0.3874  0.4546  0.4630
  699SOL    HW1 2096   1.555   1.130   1.402 -0.7331  1.6110 -0.5442
  699SOL    HW2 2097   1.415   1.212   1.393 -0.5104  2.4055  0.6727
  700SOL     OW 2098   1.577   0.181   0.340 -0.4225  0.1328 -0.8479
  700SOL    HW1 2099   1.553   0.279   0.357  1.4784 -0.2854 -1.6678
  700SOL    HW2 2100   1.536   0.130   0.418  3.8846 -0.4966  0.4946
  701SOL     OW 2101   0.284   3.085   1.596  0.3238  0.0553 -0.6264
  701SOL    HW1 2102   0.297   3.024   1.677  0.3408 -2.4844  1.3732
  701SOL    HW2 2103   0.204   3.056   1.542 -1.4736 -0.2480 -2.1701
  702SOL     OW 2104   1.283   2.828   0.613  0.0626  0.2922  0.3206
  702SOL    HW1 2105   1.278   2.932   0.628  0.8556  1.5514 -0.4535
  702SOL    HW2 2106   1.363   2.800   0.553 -0.7768  0.3713  1.1534
  703SOL     OW 2107   2.474   2.991   1.904  0.5458 -0.2269  0.2234
  703SOL    HW1 2108   2.389   3.032   1.941  4.1081 -1.1634  1.0726
  703SOL    HW2 2109   2.544   2.992   1.978 -2.4689  0.3462 -2.1123
  704SOL     OW 2110   1.208   2.024   0.956  0.1442  0.0609 -0.1915
  704SOL    HW1 2111   1.135   1.974   1.008 -0.2029  2.4361 -2.8738
  704SOL    HW2 2112   1.245   2.104   1.005  0.5719 -1.3546 -0.3408
  705SOL     OW 2113   2.871   1.475   1.773  0.4356  0.1177 -0.2356
  705SOL    HW1 2114   2.810   1.470   1.853 -2.0586 -0.2673  1.1709
  705SOL    HW2 2115   2.882   1.375   1.748 -1.9978 -0.4532  2.6824
  706SOL     OW 2116   1.247   3.096   0.611  0.4029 -0.0363 -0.4259
  706SOL    HW1 2117   1.202   0.045   0.531 -1.0728  1.1451 -0.2625
  706SOL    HW2 2118   1.203   0.029   0.699 -1.0509 -1.0683  0.1002
  707SOL     OW 2119   1.003   2.391   2.186  0.5981  0.2475 -0.2359
  707SOL    HW1 2120   0.912   2.424   2.226  2.9832  1.0099  1.8312
  707SOL    HW2 2121   1.044   2.326   2.254  0.3039 -3.5545 -0.3962
  708SOL     OW 2122   0.164   2.371   1.453  0.1281 -0.2326  0.0284
  708SOL    HW1 2123   0.158   2.268   1.438 -0.6305 -2.8653 -0.2109
  708SOL    HW2 2124   0.256   2.404   1.443 -1.1888 -1.3898  1.4064
  709SOL     OW 2125   2.036   0.592   2.048  0.1270 -0.1398 -0.2325
  709SOL    HW1 2126   1.976   0.640   2.116  0.4999  0.4897  2.9362
  709SOL    HW2 2127   1.983   0.575   1.960 -0.6926  1.1673 -0.4586
  710SOL     OW 2128   2.705   0.591   1.712  0.3442  0.3278 -0.0109
  710SOL    HW1 2129   2.669   0.506   1.670  0.4701 -1.1817  0.4461
  710SOL    HW2 2130   2.790   0.633   1.661  2.7725  0.5707  2.1997
  711SOL     OW 2131   0.132   2.673   0.634 -0.1538  0.0465  0.5035
  711SOL    HW1 2132   0.189   2.665   0.550  2.4928 -2.0108  1.4151
  711SOL    HW2 2133   0.084   2.586   0.657  1.2543 -2.1125  0.4955
  712SOL     OW 2134   0.299   2.455   2.430 -0.2199 -0.1962 -0.0681
  712SOL    HW1 2135   0.288   2.428   2.331  0.8614  2.6468  1.7462
  712SOL    HW2 2136   0.210   2.449   2.475 -1.0917 -1.9623 -0.9796
  713SOL     OW 2137   1.620   0.785   0.154  0.8448  0.2402  0.1749
  713SOL    HW1 2138   1.638   0.807   0.253 -1.3788 -1.3640  1.0573
  713SOL    HW2 2139   1.700   0.752   0.099 -0.4717  0.0426 -0.5960
  714SOL     OW 2140   1.604   1.906   0.463  0.3717  0.1334 -0.0403
  714SOL    HW1 2141   1.543   1.953   0.523  1.2401 -1.9379 -2.2118
  714SOL    HW2 2142   1.572   1.903   0.366  2.4241 -0.5164  0.8570
  715SOL     OW 2143   2.603   0.172   0.476 -0.1401 -0.1666 -0.1033
  715SOL    HW1 2144   2.551   0.130   0.552 -1.6384 -2.1570 -2.2852
  715SOL    HW2 2145   2.670   0.244   0.504  1.9838  0.2615 -0.7449
  716SOL     OW 2146   0.671   0.097   2.426 -0.1090  0.6118  0.2793
  716SOL    HW1 2147   0.649   0.120   2.523  1.3687  2.8910 -4.1285
  716SOL    HW2 2148   0.764   0.050   2.409  1.8970 -0.3011 -2.2657
  717SOL     OW 2149   3.048   0.491   2.879  0.1785 -0.5026  0.1824
  717SOL    HW1 2150   0.027   0.427   2.860 -0.9041 -1.5166  3.1433
  717SOL    HW2 2151   3.028   0.479   2.977  1.4045 -0.2741 -0.3265
  718SOL     OW 2152   1.054   0.564   0.553 -0.1906  0.1788 -0.3161
  718SOL    HW1 2153   1.136   0.579   0.618  2.0302  0.0544  3.6312
  718SOL    HW2 2154   1.096   0.579   0.463  1.6491 -1.5090 -0.6343
  719SOL     OW 2155   2.643   2.234   2.917  0.1522  0.1379 -0.3402
  719SOL    HW1 2156   2.561   2.189   2.875  1.1465  1.9038  2.4495
  719SOL    HW2 2157   2.708   2.160   2.944  2.4121 -0.2481  0.0019
  720SOL     OW 2158   1.741   0.615   1.541  0.0307 -0.0698  0.5439
  720SOL    HW1 2159   1.698   0.546   1.597  3.3584 -0.7043 -0.8124
  720SOL    HW2 2160   1.678   0.692   1.531 -0.6123 -1.6922  0.6906
  721SOL     OW 2161   2.928   0.735   0.752  0.5530 -0.6312  0.0852
  721SOL    HW1 2162   2.877   0.648   0.779 -1.0405 -1.9626  3.0705
  721SOL    HW2 2163   3.024   0.719   0.727 -0.5376 -1.8856 -1.8332
  722SOL     OW 2164   1.423   2.136   2.436  0.1455 -0.2423  0.0827
  722SOL    HW1 2165   1.380   2.206   2.374 -2.1455  1.3480 -0.4218
  722SOL    HW2 2166   1.349   2.084   2.477 -1.8321 -0.4453 -2.5951
  723SOL     OW 2167   0.472   0.544   0.516  0.4006 -0.6142  0.6088
  723SOL    HW1 2168   0.574   0.534   0.523  0.3074  1.7006  0.7806
  723SOL    HW2 2169   0.446   0.640   0.491 -0.4587 -0.5188  0.5283
  724SOL     OW 2170   1.120   2.048   2.041 -0.0925  0.0338 -0.0062
  724SOL    HW1 2171   1.142   1.968   1.983 -0.1046 -3.1696  0.8087
  724SOL    HW2 2172   1.021   2.058   2.061  1.1145 -1.1371  1.4944
  725SOL     OW 2173   0.312   1.012   1.414  0.1818  0.1825  0.5522
  725SOL    HW1 2174   0.299   1.033   1.313  0.0994  2.2544  1.1535
  725SOL    HW2 2175   0.401   0.982   1.442 -2.9762  2.7560 -2.0786
  726SOL     OW 2176   1.764   0.534   0.628 -0.6155 -0.2208 -0.4076
  726SOL    HW1 2177   1.718   0.512   0.716 -0.4317 -0.5686 -0.4906
  726SOL    HW2 2178   1.722   0.503   0.543  0.2312 -1.4263 -0.2239
  727SOL     OW 2179   1.853   0.976   2.229 -0.2806  0.5529 -0.5230
  727SOL    HW1 2180   1.926   0.980   2.161  0.7877  0.5239  1.9134
  727SOL    HW2 2181   1.777   1.042   2.210  0.4631  2.6011 -0.3265
  728SOL     OW 2182   1.697   2.797   1.413  0.3181 -0.0018 -0.6958
  728SOL    HW1 2183   1.758   2.831   1.489 -1.6456  0.4108 -1.2346
  728SOL    HW2 2184   1.607   2.769   1.448  0.4948 -0.9506 -1.6760
  729SOL     OW 2185   1.329   0.477   1.880 -0.3569  0.0145  0.3267
  729SOL    HW1 2186   1.373   0.390   1.845 -1.9708  0.1941  0.5411
  729SOL    HW2 2187   1.338   0.489   1.981  1.5799  1.8711  0.4013
  730SOL     OW 2188   0.901   1.895   1.620 -0.1400 -0.5874  0.1887
  730SOL    HW1 2189   0.907   1.995   1.609  0.3642 -2.5343  1.1499
  730SOL    HW2 2190   0.994   1.858   1.606  1.0985  1.4581  0.6474
  731SOL     OW 2191   0.575   0.203   0.263 -0.1576 -0.9766 -0.3360
  731SOL    HW1 2192   0.502   0.271   0.247  1.6132 -0.8618  0.1704
  731SOL    HW2 2193   0.539   0.117   0.219 -1.2838 -0.5659 -1.6199
  732SOL     OW 2194   0.455   0.765   0.154  0.2640  0.0473 -0.7987
  732SOL    HW1 2195   0.484   0.717   0.069  0.6767 -1.1784 -0.7787
  732SOL    HW2 2196   0.541   0.780   0.209  2.0533 -0.7548  0.9452
  733SOL     OW 2197   1.423   1.670   1.913 -0.1774 -0.1575  0.0054
  733SOL    HW1 2198   1.496   1.683   1.991  0.4591  1.6654  1.3958
  733SOL    HW2 2199   1.427   1.579   1.870 -0.9447  1.9111 -2.4687
  734SOL     OW 2200   2.841   2.728   2.199  0.4866  0.1465 -0.3708
  734SOL    HW1 2201   2.920   2.668   2.171 -0.2434 -0.5953  1.0272
  734SOL    HW2 2202   2.880   2.818   2.215 -0.4041 -1.8870  0.1769
  735SOL     OW 2203   0.929   2.833   0.936  0.1686  0.0667  0.5414
  735SOL    HW1 2204   0.963   2.782   0.851 -0.5664  1.7354  0.0701
  735SOL    HW2 2205   1.003   2.900   0.963  1.6285 -1.6954  0.9388
  736SOL     OW 2206   1.438   0.886   2.828  0.1213  0.2591  0.4952
  736SOL    HW1 2207   1.418   0.792   2.787  0.1841 -0.2446  0.2010
  736SOL    HW2 2208   1.461   0.877   2.926 -2.1846  0.3659 -3.7830
  737SOL     OW 2209   0.125   0.822   0.090 -0.2400  0.3387  0.3515
  737SOL    HW1 2210   0.130   0.734   0.033  3.9962 -1.3268 -1.4711
  737SOL    HW2 2211   0.135   0.906   0.024 -0.9680  3.0173 -3.6592
  738SOL     OW 2212   0.045   2.787   1.351 -0.4790  0.1225 -0.1496
  738SOL    HW1 2213   3.072   2.750   1.409 -1.6666 -0.2630 -3.3465
  738SOL    HW2 2214   0.024   2.760   1.259 -1.1195  1.1147 -0.9186
  739SOL     OW 2215   1.505   0.022   0.566  0.3326  0.0098  0.0183
  739SOL    HW1 2216   1.533   0.098   0.631  1.1356 -0.3714  0.9617
  739SOL    HW2 2217   1.404   3.096   0.583 -1.0832  2.4567  2.2407
  740SOL     OW 2218   1.497   2.921   1.149  0.3752 -0.2942 -0.8302
  740SOL    HW1 2219   1.586   2.880   1.167 -3.6938 -1.4339  2.1990
  740SOL    HW2 2220   1.442   2.908   1.233  2.6515 -0.5536  0.5586
  741SOL     OW 2221   1.991   0.627   0.539 -0.3041 -0.6008  0.0344
  741SOL    HW1 2222   1.898   0.602   0.580 -0.7253  0.8469  1.4772
  741SOL    HW2 2223   1.978   0.720   0.502 -1.1395 -1.6010  1.0947
  742SOL     OW 2224   1.183   2.353   1.677  0.1043  0.0931  0.1695
  742SOL    HW1 2225   1.178   2.365   1.779  0.0516 -1.9111 -0.6049
  742SOL    HW2 2226   1.250   2.277   1.650 -1.2837 -0.6621 -4.5167
  743SOL     OW 2227   2.247   0.853   2.113  0.1440  0.4799 -0.4984
  743SOL    HW1 2228   2.256   0.858   2.218  1.7625  1.7486  0.8436
  743SOL    HW2 2229   2.337   0.824   2.076 -0.0570 -0.9655  1.3979
  744SOL     OW 2230   1.985   0.372   0.775 -0.2755  0.5062 -0.8837
  744SOL    HW1 2231   1.986   0.360   0.674  0.0315 -1.5220  1.1289
  744SOL    HW2 2232   1.888   0.377   0.808 -0.5348  2.2374  1.6052
  745SOL     OW 2233   2.207   1.574   1.850 -0.0390  0.0306 -0.3874
  745SOL    HW1 2234   2.163   1.613   1.934 -1.0970 -1.3210 -0.6508
  745SOL    HW2 2235   2.176   1.618   1.767  1.6373  3.1982 -1.9988
  746SOL     OW 2236   1.388   1.664   0.720  0.3146  0.1774  0.4785
  746SOL    HW1 2237   1.372   1.765   0.709  2.6280  1.4374 -1.5957
  746SOL    HW2 2238   1.475   1.628   0.677  0.0565 -0.3856 -2.2774
  747SOL     OW 2239   2.022   1.173   1.178 -0.0291 -0.6234 -0.2788
  747SOL    HW1 2240   1.980   1.144   1.267 -0.6731 -1.5504 -0.7297
  747SOL    HW2 2241   2.042   1.086   1.127  1.3330  1.3576 -0.2588
  748SOL     OW 2242   0.211   3.001   0.076 -0.5153  0.2941 -0.0117
  748SOL    HW1 2243   0.229   3.056   0.163  1.2737  0.2657  0.2981
  748SOL    HW2 2244   0.173   2.910   0.098 -1.1257  0.6925 -0.5036
  749SOL     OW 2245   0.103   0.432   2.202  0.6998 -0.2894  0.3851
  749SOL    HW1 2246   0.050   0.444   2.289  0.5807  0.3173  0.7598
  749SOL    HW2 2247   0.038   0.412   2.124 -1.3071 -2.6659  1.3810
  750SOL     OW 2248   1.743   2.934   1.725 -0.1099 -0.2134 -0.9495
  750SOL    HW1 2249   1.833   2.892   1.711 -1.0896 -0.9039 -0.5276
  750SOL    HW2 2250   1.688   2.902   1.809 -1.3942  0.4474  1.0020
  751SOL     OW 2251   2.568   0.574   0.641 -0.2942 -0.4321  0.4788
  751SOL    HW1 2252   2.560   0.667   0.601 -1.2650 -2.4209  0.1477
  751SOL    HW2 2253   2.481   0.526   0.653 -0.1769 -0.6551 -1.1315
  752SOL     OW 2254   0.194   2.784   0.886 -0.1562 -0.4547 -0.1253
  752SOL    HW1 2255   0.191   2.734   0.797  0.8284  3.4574  0.0266
  752SOL    HW2 2256   0.214   2.880   0.875 -1.0852 -0.0242  3.8310
  753SOL     OW 2257   1.052   0.353   1.448  0.0180 -0.9263 -0.2863
  753SOL    HW1 2258   1.039   0.267   1.393 -1.7745  0.9700  0.4256
  753SOL    HW2 2259   1.099   0.332   1.536  0.4637 -1.4274  3.4691
  754SOL     OW 2260   0.738   2.776   2.330  0.0407  0.4424  0.2654
  754SOL    HW1 2261   0.665   2.797   2.400 -0.1504  1.1012  2.0763
  754SOL    HW2 2262   0.720   2.825   2.244 -0.1718  2.1359 -1.7109
  755SOL     OW 2263   2.375   1.282   0.316 -0.0355  0.2692  0.0563
  755SOL    HW1 2264   2.471   1.323   0.322  2.0341  2.5776  1.5337
  755SOL    HW2 2265   2.303   1.357   0.309  2.5112  0.6357  3.5721
  756SOL     OW 2266   2.278   1.922   2.787 -0.1689  0.6493 -0.0015
  756SOL    HW1 2267   2.378   1.893   2.783 -1.5990 -2.4534 -0.7651
  756SOL    HW2 2268   2.219   1.854   2.740 -1.6283 -0.5273 -1.1763
  757SOL     OW 2269   1.720   0.165   1.241  0.3015  0.4691 -0.7261
  757SOL    HW1 2270   1.681   0.249   1.286  2.0955  1.2608  0.3716
  757SOL    HW2 2271   1.735   0.169   1.140  1.1273 -2.7565 -2.0304
  758SOL     OW 2272   1.569   2.538   0.692  0.0090  0.5943 -0.1992
  758SOL    HW1 2273   1.667   2.544   0.726  0.0819  0.0893  1.3588
  758SOL    HW2 2274   1.557   2.606   0.620 -2.3367 -0.3659  0.6477
  759SOL     OW 2275   2.521   0.431   1.256  0.6443  0.1310  0.1994
  759SOL    HW1 2276   2.585   0.484   1.197  1.1321 -3.5096 -0.3149
  759SOL    HW2 2277   2.431   0.477   1.254 -0.5973 -0.9047 -0.0239
  760SOL     OW 2278   2.347   1.036   1.212  0.3974 -0.2566 -0.3866
  760SOL    HW1 2279   2.296   1.074   1.294 -1.7145 -0.0181 -1.3209
  760SOL    HW2 2280   2.298   1.060   1.130  0.9678 -1.1392  1.9286
  761SOL     OW 2281   0.485   0.887   0.705 -0.3580  0.0610  0.9243
  761SOL    HW1 2282   0.445   0.973   0.738  0.4854 -0.5775  0.6149
  761SOL    HW2 2283   0.494   0.822   0.785  0.8619 -0.3681  1.0008
  762SOL     OW 2284   1.612   1.968   1.548 -0.1461  0.1307 -0.1898
  762SOL    HW1 2285   1.699   1.957   1.607  1.3354 -0.4436  0.2206
  762SOL    HW2 2286   1.615   2.054   1.491 -1.9789  1.9789  1.6086
  763SOL     OW 2287   1.107   1.427   1.427  0.2496  0.4496  0.5871
  763SOL    HW1 2288   1.050   1.350   1.449  4.0903  1.7344 -0.3617
  763SOL    HW2 2289   1.079   1.511   1.469 -0.3561 -1.9384 -1.0225
  764SOL     OW 2290   3.041   1.699   2.201 -0.1562 -0.1233 -0.0013
  764SOL    HW1 2291   3.042   1.749   2.116 -1.0939 -2.2269  3.0354
  764SOL    HW2 2292   0.038   1.693   2.249  1.7504 -0.0862  0.1289
  765SOL     OW 2293   1.477   2.400   1.356 -0.1255 -0.2894  0.2093
  765SOL    HW1 2294   1.431   2.312   1.335 -2.0370 -0.5977 -1.6970
  765SOL    HW2 2295   1.480   2.457   1.270  0.3796  0.6219 -0.4887
  766SOL     OW 2296   0.055   2.441   2.561  0.2221  0.1616 -0.1229
  766SOL    HW1 2297   0.054   2.535   2.605  2.0968 -0.9533 -2.6594
  766SOL    HW2 2298   3.059   2.408   2.532 -1.3098  0.8732  0.1399
  767SOL     OW 2299   1.403   0.634   2.709  0.1094 -0.8003 -0.4426
  767SOL    HW1 2300   1.468   0.556   2.705 -0.1157 -0.0973 -2.5643
  767SOL    HW2 2301   1.315   0.596   2.677 -0.2630 -1.5978  0.6561
  768SOL     OW 2302   1.333   2.339   0.048 -0.0750  0.0934  0.5730
  768SOL    HW1 2303   1.411   2.333   0.112  1.0292 -1.8251  2.6640
  768SOL    HW2 2304   1.351   2.276   3.070 -0.6845  0.1268 -0.2063
  769SOL     OW 2305   0.396   2.700   1.054 -0.7689 -0.1245 -0.4168
  769SOL    HW1 2306   0.339   2.736   0.979  1.3934 -0.1172 -0.3306
  769SOL    HW2 2307   0.374   2.743   1.140 -0.7333  1.0346 -0.4409
  770SOL     OW 2308   1.449   0.920   0.007 -0.0051  0.0968  0.1745
  770SOL    HW1 2309   1.490   1.010   3.084  0.5020  0.4827 -0.7482
  770SOL    HW2 2310   1.505   0.874   0.082  2.4322 -1.4078  0.9420
  771SOL     OW 2311   0.426   0.028   2.277 -0.0978 -0.2336 -0.2200
  771SOL    HW1 2312   0.382   3.075   2.359  0.6757 -0.8160  1.9161
  771SOL    HW2 2313   0.507   0.084   2.302  0.4496 -2.0920 -0.4803
  772SOL     OW 2314   1.912   2.911   2.009 -0.6923  0.2694 -0.4737
  772SOL    HW1 2315   1.949   2.980   1.942  1.5329  1.1840  0.1621
  772SOL    HW2 2316   1.816   2.887   2.001  4.9656 -0.2318  1.0535
  773SOL     OW 2317   0.733   2.193   1.684 -0.2188  0.1986  0.5345
  773SOL    HW1 2318   0.824   2.207   1.637  2.0654 -0.1572 -1.5566
  773SOL    HW2 2319   0.731   2.245   1.776 -1.4534  1.8263 -0.8203
  774SOL     OW 2320   1.407   0.161   2.150 -0.1423 -0.2385 -0.9002
  774SOL    HW1 2321   1.311   0.127   2.165 -0.0834 -0.2534 -1.4728
  774SOL    HW2 2322   1.428   0.240   2.209 -1.2470  0.9165 -0.4473
  775SOL     OW 2323   2.040   2.607   0.183  0.4099 -0.3184 -0.0381
  775SOL    HW1 2324   2.086   2.696   0.160 -0.7942 -1.7480  1.9215
  775SOL    HW2 2325   1.978   2.572   0.112 -0.4190 -0.6800  1.2242
  776SOL     OW 2326   2.344   0.520   2.382 -0.3380  0.3842  0.5457
  776SOL    HW1 2327   2.337   0.515   2.483  2.9581  1.4524  1.3836
  776SOL    HW2 2328   2.374   0.614   2.354  1.2700 -1.5313 -0.2856
  777SOL     OW 2329   2.486   1.336   2.327  0.1081 -0.5667 -0.2788
  777SOL    HW1 2330   2.487   1.401   2.405 -1.3550  0.0536  3.2548
  777SOL    HW2 2331   2.578   1.338   2.274  2.5768  1.1154 -2.3873
  778SOL     OW 2332   2.067   0.982   2.411  0.1521  0.0074 -0.6760
  778SOL    HW1 2333   1.971   1.013   2.390 -0.0268  1.0749  0.0082
  778SOL    HW2 2334   2.070   0.898   2.472 -2.7913 -0.6131  0.4603
  779SOL     OW 2335   3.084   0.255   0.129 -0.0358  0.8559 -0.6726
  779SOL    HW1 2336   0.087   0.264   0.114  2.3226  1.1276 -0.3482
  779SOL    HW2 2337   3.069   0.218   0.223  1.0319 -4.0888 -0.0481
  780SOL     OW 2338   2.676   0.534   2.973  0.1392 -0.0523  0.1377
  780SOL    HW1 2339   2.717   0.609   3.029 -1.2554 -0.1301  0.4567
  780SOL    HW2 2340   2.683   0.444   3.022 -1.2395 -1.2840  2.0633
  781SOL     OW 2341   0.072   3.055   1.374 -0.0322  0.0054 -0.2697
  781SOL    HW1 2342   0.096   3.090   1.281 -1.4850 -1.1465  2.4058
  781SOL    HW2 2343   0.018   2.966   1.373  0.8045 -0.3524  0.0689
  782SOL     OW 2344   1.819   2.544   0.746  0.3798 -0.0260 -0.0928
  782SOL    HW1 2345   1.878   2.554   0.661 -1.6085  2.0996 -0.5423
  782SOL    HW2 2346   1.866   2.591   0.823 -0.6013 -0.5272  0.4215
  783SOL     OW 2347   0.701   1.333   1.278 -0.2186 -0.1899  0.0272
  783SOL    HW1 2348   0.749   1.371   1.196  0.0357  1.1764  1.9462
  783SOL    HW2 2349   0.674   1.408   1.341  1.6627 -1.0332 -2.4956
  784SOL     OW 2350   1.565   0.393   2.682  0.4934 -0.5804  0.0950
  784SOL    HW1 2351   1.531   0.297   2.700  2.9218 -1.6287 -1.5858
  784SOL    HW2 2352   1.600   0.395   2.588 -2.9761  0.9959  1.5357
  785SOL     OW 2353   2.572   0.246   1.434 -0.5468  0.5299 -0.0561
  785SOL    HW1 2354   2.576   0.317   1.363 -0.8610  1.1796  1.7829
  785SOL    HW2 2355   2.471   0.226   1.447 -0.8412  0.5515  1.2167
  786SOL     OW 2356   1.329   2.683   1.564  0.3633 -0.2166  0.0771
  786SOL    HW1 2357   1.400   2.609   1.579  1.9987 -0.3965  2.1191
  786SOL    HW2 2358   1.235   2.641   1.580  0.5119 -0.2664  0.9879
  787SOL     OW 2359   1.699   0.377   1.711 -0.4453  0.3087 -0.0053
  787SOL    HW1 2360   1.733   0.306   1.648  0.8453  1.9596 -2.2800
  787SOL    HW2 2361   1.618   0.346   1.766 -0.1430 -1.8136  0.6425
  788SOL     OW 2362   2.878   1.094   0.337 -0.0345 -0.1046  0.4558
  788SOL    HW1 2363   2.958   1.102   0.269  0.7440  1.9217  1.0360
  788SOL    HW2 2364   2.901   1.022   0.398  0.3793  0.5116 -4.7208
  789SOL     OW 2365   0.613   1.891   1.561  0.3233  0.1909  0.5679
  789SOL    HW1 2366   0.713   1.869   1.559  1.8448 -1.1559  1.7264
  789SOL    HW2 2367   0.583   1.933   1.474 -1.6674  1.4615 -3.1465
  790SOL     OW 2368   0.670   0.520   2.439 -0.6249  0.2707  0.7489
  790SOL    HW1 2369   0.637   0.484   2.530  0.2461  1.4889 -1.2154
  790SOL    HW2 2370   0.588   0.549   2.387 -0.2164  1.7764 -1.2810
  791SOL     OW 2371   2.209   0.694   0.664 -0.2279  0.0177  0.5692
  791SOL    HW1 2372   2.128   0.661   0.612 -2.6317  1.2121 -2.2321
  791SOL    HW2 2373   2.183   0.749   0.750 -1.1379  1.3516  1.4122
  792SOL     OW 2374   1.257   2.870   1.761 -0.0657 -0.0130 -0.4113
  792SOL    HW1 2375   1.244   2.815   1.850 -2.4185 -1.7660  4.2046
  792SOL    HW2 2376   1.286   2.812   1.685 -3.0162 -1.2219 -2.7079
  793SOL     OW 2377   0.435   3.076   0.845 -0.2969 -0.3128  0.0600
  793SOL    HW1 2378   0.533   3.060   0.859  1.7006  1.8329 -1.5196
  793SOL    HW2 2379   0.420   0.076   0.872  1.6139  0.6378  1.2256
  794SOL     OW 2380   0.007   1.234   1.823  0.2084 -0.1128 -0.1475
  794SOL    HW1 2381   3.088   1.264   1.922  3.9534  1.6892  5.2991
  794SOL    HW2 2382   3.017   1.226   1.773 -0.6896 -1.2432  3.1030
  795SOL     OW 2383   0.401   2.137   2.232  0.2917 -0.0178  0.0230
  795SOL    HW1 2384   0.401   2.237   2.209  0.0737  3.1868  3.3022
  795SOL    HW2 2385   0.487   2.116   2.278 -0.2516 -0.8473  0.2411
  796SOL     OW 2386   2.517   0.310   2.274 -0.5376  0.3112  0.0251
  796SOL    HW1 2387   2.457   0.387   2.302  0.4536 -0.7635 -0.4642
  796SOL    HW2 2388   2.526   0.307   2.174 -1.2888  0.0801 -1.5784
  797SOL     OW 2389   2.392   2.391   2.699 -0.2845 -0.7532 -0.4516
  797SOL    HW1 2390   2.403   2.306   2.755  1.4561  0.4484  0.0815
  797SOL    HW2 2391   2.468   2.391   2.633 -0.3889 -1.7074  1.6520
  798SOL     OW 2392   0.027   0.026   2.062 -0.1448 -0.9459  0.4351
  798SOL    HW1 2393   0.102   3.071   2.093 -2.5741  2.2757 -0.4277
  798SOL    HW2 2394   0.006   0.003   1.964  1.7024  0.9173 -1.3473
  799SOL     OW 2395   0.276   2.396   2.175 -0.2377 -0.2907  0.0127
  799SOL    HW1 2396   0.179   2.365   2.182 -0.2661  0.6591 -0.0752
  799SOL    HW2 2397   0.306   2.397   2.080 -0.9326  1.3943  0.8111
  800SOL     OW 2398   0.100   1.946   0.133 -0.2207 -0.3941  0.3180
  800SOL    HW1 2399   0.112   2.039   0.171 -1.4491  2.2194  0.9647
  800SOL    HW2 2400   0.021   1.908   0.178 -0.7455 -1.5170  0.8136
  801SOL     OW 2401   1.648   1.459   1.461  0.4335 -0.3970  0.4314
  801SOL    HW1 2402   1.668   1.478   1.560 -2.1902  0.3469  0.9100
  801SOL    HW2 2403   1.546   1.448   1.454 -1.0071 -1.7481 -1.5520
  802SOL     OW 2404   0.187   0.896   0.348 -0.1948 -0.5878  0.6522
  802SOL    HW1 2405   0.106   0.899   0.411 -0.5152  0.4098  2.3862
  802SOL    HW2 2406   0.174   0.855   0.255 -0.9246  1.2595 -1.6877
  803SOL     OW 2407   1.192   1.443   1.985  0.0134  0.0483  0.0846
  803SOL    HW1 2408   1.262   1.478   1.916  1.1084 -2.7931 -1.7471
  803SOL    HW2 2409   1.160   1.349   1.961  2.4909 -2.1107 -1.0148
  804SOL     OW 2410   1.795   1.607   1.238 -0.0482 -0.1676  0.0644
  804SOL    HW1 2411   1.712   1.604   1.287  0.5785 -0.0314 -0.2310
  804SOL    HW2 2412   1.811   1.522   1.184 -1.3803  1.3434 -1.3433
  805SOL     OW 2413   2.796   1.785   2.572  0.2055 -0.6222  0.6723
  805SOL    HW1 2414   2.748   1.873   2.555 -0.1650 -0.8640 -1.0924
  805SOL    HW2 2415   2.818   1.762   2.670  1.1969 -1.2039  2.8623
  806SOL     OW 2416   0.402   2.279   0.147  0.1327 -0.4706  0.3370
  806SOL    HW1 2417   0.479   2.280   0.219 -0.1089 -2.3634  1.3181
  806SOL    HW2 2418   0.412   2.355   0.082  1.7036 -2.2538  0.9554
  807SOL     OW 2419   2.285   1.598   2.953  0.1080  0.5381  0.0519
  807SOL    HW1 2420   2.374   1.631   2.985 -0.1643 -2.1983  2.3800
  807SOL    HW2 2421   2.227   1.678   2.937  1.0431 -2.7199 -0.2884
  808SOL     OW 2422   1.326   2.175   1.368  0.3191  0.0850 -0.2494
  808SOL    HW1 2423   1.226   2.164   1.369  0.8354 -0.3470  1.7670
  808SOL    HW2 2424   1.360   2.129   1.454  3.1285 -1.3198  2.8831
  809SOL     OW 2425   3.087   0.588   0.339 -0.4576 -0.1643 -0.5515
  809SOL    HW1 2426   0.081   0.556   0.314 -2.2779 -0.1706  0.6230
  809SOL    HW2 2427   3.053   0.646   0.261 -1.7586  0.1455  1.3546
  810SOL     OW 2428   0.950   1.429   0.179 -0.3164  0.0267 -0.6619
  810SOL    HW1 2429   1.005   1.460   0.256 -1.2781  1.2881 -0.1433
  810SOL    HW2 2430   0.892   1.503   0.142 -1.8414  1.1227 -0.5694
  811SOL     OW 2431   1.744   2.476   1.138 -0.6672 -0.4474  0.3038
  811SOL    HW1 2432   1.750   2.377   1.129 -0.7214  2.9690 -2.0134
  811SOL    HW2 2433   1.761   2.508   1.235  1.9983  0.8232 -1.2920
  812SOL     OW 2434   1.386   2.914   1.402 -0.3781  0.0425 -0.0185
  812SOL    HW1 2435   1.381   2.825   1.450 -0.8812 -2.3480 -1.2247
  812SOL    HW2 2436   1.296   2.957   1.388 -2.5612  2.4807 -0.5986
  813SOL     OW 2437   0.826   2.989   1.765 -0.0901  0.2171 -0.0986
  813SOL    HW1 2438   0.751   3.011   1.828  0.5824  0.5526  0.0608
  813SOL    HW2 2439   0.875   2.903   1.791 -1.4638 -3.0138 -0.4539
  814SOL     OW 2440   0.989   2.664   2.140  0.3673 -0.4319 -0.2951
  814SOL    HW1 2441   1.053   2.725   2.190 -0.0237  0.7363 -1.1271
  814SOL    HW2 2442   0.970   2.570   2.181  0.7803 -0.6441  0.5419
  815SOL     OW 2443   0.463   2.863   2.844 -0.2821 -0.2434  0.0811
  815SOL    HW1 2444   0.525   2.800   2.794 -1.2739 -1.2571  1.5554
  815SOL    HW2 2445   0.447   2.954   2.791 -1.2370  1.4776 -4.5276
  816SOL     OW 2446   2.242   0.633   3.008  0.2386  0.1958 -0.3558
  816SOL    HW1 2447   2.283   0.539   3.006  0.7163 -0.6096  2.7738
  816SOL    HW2 2448   2.188   0.644   3.095 -2.4195 -0.4028  0.3329
  817SOL     OW 2449   2.437   2.509   2.150  0.4143 -0.4794  0.2327
  817SOL    HW1 2450   2.494   2.548   2.225 -1.4135  0.1854 -2.0229
  817SOL    HW2 2451   2.346   2.556   2.154 -0.3256  0.7097 -1.0063
  818SOL     OW 2452   1.101   0.886   0.479  0.3909  0.2827 -0.6258
  818SOL    HW1 2453   1.126   0.837   0.394 -2.1255 -0.8331  1.2095
  818SOL    HW2 2454   1.017   0.939   0.474  0.6648 -1.3783  0.6355
  819SOL     OW 2455   1.778   1.440   2.767  0.0819  0.3387  0.2898
  819SOL    HW1 2456   1.819   1.399   2.680 -2.4062  1.1483 -2.2251
  819SOL    HW2 2457   1.825   1.403   2.848 -1.4687  0.5059  1.7855
  820SOL     OW 2458   0.023   1.481   2.546  0.2557 -0.1837  0.5404
  820SOL    HW1 2459   3.028   1.521   2.526 -1.0373 -1.0736  0.0644
  820SOL    HW2 2460   0.095   1.512   2.481  0.4633 -2.1841  0.5158
  821SOL     OW 2461   0.341   3.064   0.538 -0.4566 -0.1534 -0.1050
  821SOL    HW1 2462   0.375   0.005   0.627  0.4602  1.6929  1.7551
  821SOL    HW2 2463   0.419   3.026   0.484  1.7851  0.6202  1.1693
  822SOL     OW 2464   2.492   2.623   2.963  0.0465 -0.1306 -0.4274
  822SOL    HW1 2465   2.478   2.554   2.890  1.9073 -0.1382  0.0826
  822SOL    HW2 2466   2.588   2.664   2.957  3.7603  1.8843  1.0475
  823SOL     OW 2467   1.496   0.076   2.487 -0.0535 -0.0010  0.7154
  823SOL    HW1 2468   1.495   0.046   2.583 -0.1185 -2.0132  1.4328
  823SOL    HW2 2469   1.459   3.096   2.429 -0.9182 -0.2469  0.7570
  824SOL     OW 2470   2.755   2.321   2.135  0.0854  0.1250  0.0778
  824SOL    HW1 2471   2.798   2.388   2.204  1.2473  0.2475 -0.4411
  824SOL    HW2 2472   2.677   2.361   2.085 -0.8989 -0.5142  2.5796
  825SOL     OW 2473   3.040   2.059   2.441 -0.2636 -0.1507  0.8053
  825SOL    HW1 2474   0.034   2.016   2.426 -0.1379 -0.2237 -0.4311
  825SOL    HW2 2475   2.982   2.060   2.355 -1.2482  2.5254  1.6149
  826SOL     OW 2476   1.916   0.866   3.009 -0.4216 -0.2081 -0.3570
  826SOL    HW1 2477   1.881   0.960   3.033 -0.7803  1.4467  0.8500
  826SOL    HW2 2478   1.989   0.867   2.938  1.3128 -0.1676 -1.9696
  827SOL     OW 2479   2.718   1.637   1.598 -0.1483 -0.1000 -0.4746
  827SOL    HW1 2480   2.790   1.577   1.644  0.9963  0.3419  0.4134
  827SOL    HW2 2481   2.638   1.640   1.661  0.5934 -1.7790 -0.1843
  828SOL     OW 2482   2.921   0.133   1.249  0.0684  0.0722 -0.8011
  828SOL    HW1 2483   2.979   0.059   1.208 -0.6995 -3.9666 -0.3621
  828SOL    HW2 2484   2.862   0.092   1.323 -1.5902  0.5407 -2.0658
  829SOL     OW 2485   0.731   1.896   2.378  0.0622 -0.1354  0.2791
  829SOL    HW1 2486   0.748   1.996   2.376  0.5011 -3.3060  1.6583
  829SOL    HW2 2487   0.639   1.875   2.419  1.7318 -3.3271  1.5699
  830SOL     OW 2488   0.514   0.771   1.542 -0.3365 -0.2740  0.0285
  830SOL    HW1 2489   0.597   0.819   1.519 -0.9762 -0.2485 -1.3715
  830SOL    HW2 2490   0.502   0.681   1.499 -0.8967  1.7862  1.2432
  831SOL     OW 2491   2.517   1.829   2.802  0.0308  0.3252  0.0041
  831SOL    HW1 2492   2.542   1.731   2.805  0.7766 -0.1800 -0.6163
  831SOL    HW2 2493   2.538   1.873   2.894  0.3069  1.5969  0.7041
  832SOL     OW 2494   1.900   2.559   3.045  0.4571 -0.0164  0.0293
  832SOL    HW1 2495   1.996   2.548   3.019 -2.6268  1.8516 -1.2191
  832SOL    HW2 2496   1.862   2.631   2.983  0.5047 -1.9955 -0.2533
  833SOL     OW 2497   0.788   0.155   1.995  0.3495 -0.4120 -0.0670
  833SOL    HW1 2498   0.813   0.075   2.052  1.7447 -1.5311 -2.7912
  833SOL    HW2 2499   0.756   0.234   2.052  0.2670 -0.2018  1.6217
  834SOL     OW 2500   2.857   0.362   1.466  0.2442 -0.0484 -0.1393
  834SOL    HW1 2501   2.804   0.299   1.405  1.2809  1.6176  0.0625
  834SOL    HW2 2502   2.817   0.456   1.446 -1.0858 -0.3370 -0.4019
  835SOL     OW 2503   2.642   0.462   0.224 -0.4196 -0.5997  0.1765
  835SOL    HW1 2504   2.615   0.563   0.223 -1.6177  3.0140 -0.4410
  835SOL    HW2 2505   2.698   0.442   0.309  0.2477 -0.4408  0.5273
  836SOL     OW 2506   1.535   1.959   0.183  0.1520 -0.3967  0.1572
  836SOL    HW1 2507   1.451   2.007   0.209 -0.8000  2.3572 -0.8174
  836SOL    HW2 2508   1.595   2.030   0.130  0.6547  4.4378 -0.8783
  837SOL     OW 2509   1.977   1.789   0.637  0.4642  0.0651  0.2381
  837SOL    HW1 2510   2.067   1.779   0.684 -0.1802  0.5977  1.5460
  837SOL    HW2 2511   1.955   1.888   0.623 -1.0324  1.8664 -0.4339
  838SOL     OW 2512   1.372   0.837   2.486 -0.5565  0.7690  0.1766
  838SOL    HW1 2513   1.403   0.754   2.537  1.8110 -0.3275  1.5374
  838SOL    HW2 2514   1.304   0.884   2.543  3.0644 -0.3994 -0.6105
  839SOL     OW 2515   0.514   1.394   2.254  0.4228  0.4170  0.0452
  839SOL    HW1 2516   0.441   1.323   2.239  1.4842 -3.2160 -3.1065
  839SOL    HW2 2517   0.597   1.348   2.281 -3.7163  1.1870  0.5979
  840SOL     OW 2518   0.965   1.506   0.454 -0.1300  0.2615 -0.4411
  840SOL    HW1 2519   1.027   1.564   0.396 -1.6346  1.1022  1.0884
  840SOL    HW2 2520   1.009   1.421   0.488 -0.6304 -0.8943  2.9126
  841SOL     OW 2521   1.578   2.272   0.773 -0.0684  0.0154  0.1494
  841SOL    HW1 2522   1.675   2.237   0.768  0.1737 -2.1086 -0.0399
  841SOL    HW2 2523   1.572   2.373   0.746 -1.2726  1.4401  0.0849
  842SOL     OW 2524   0.374   0.521   2.900  0.0769 -0.5508 -0.2032
  842SOL    HW1 2525   0.335   0.427   2.909  0.9066  0.1071  0.0164
  842SOL    HW2 2526   0.459   0.531   2.957 -1.6320  0.0764 -2.0190
  843SOL     OW 2527   0.418   0.289   0.839 -0.1675 -0.3846 -0.1738
  843SOL    HW1 2528   0.470   0.293   0.750  1.6260  2.3226 -0.6654
  843SOL    HW2 2529   0.330   0.337   0.836 -0.9565 -1.4301  2.5473
  844SOL     OW 2530   2.174   0.102   2.342 -0.2464  0.1004 -0.2557
  844SOL    HW1 2531   2.266   0.082   2.330 -2.8102 -0.1334 -0.7224
  844SOL    HW2 2532   2.123   0.050   2.273 -0.0021  3.2310 -2.7251
  845SOL     OW 2533   2.974   2.466   1.878 -0.3954  0.1679  0.9574
  845SOL    HW1 2534   2.971   2.362   1.873 -1.7564 -0.7122 -1.0559
  845SOL    HW2 2535   3.034   2.498   1.797  0.6346  1.9960 -1.9810
  846SOL     OW 2536   1.899   1.301   2.543  0.1206 -0.0318 -0.3781
  846SOL    HW1 2537   1.974   1.367   2.546 -0.0606 -3.2371 -0.9750
  846SOL    HW2 2538   1.827   1.328   2.475 -2.1852  2.4090 -1.8359
  847SOL     OW 2539   0.723   0.914   1.950 -0.1661 -0.2324  0.1420
  847SOL    HW1 2540   0.708   0.824   1.907 -1.4988 -1.9647 -0.4331
  847SOL    HW2 2541   0.819   0.943   1.964  4.1127  2.4712 -3.3156
  848SOL     OW 2542   2.579   3.092   2.732 -0.6873  0.2456  0.0256
  848SOL    HW1 2543   2.668   3.043   2.716  1.2119 -1.8347 -1.3627
  848SOL    HW2 2544   2.596   0.069   2.801  2.1359  1.5099  1.6992
  849SOL     OW 2545   0.360   2.703   0.196 -0.3176  0.2305 -0.4054
  849SOL    HW1 2546   0.263   2.701   0.155 -1.2724  0.2703 -0.2091
  849SOL    HW2 2547   0.416   2.761   0.134 -0.6666 -0.5676 -2.0761
  850SOL     OW 2548   1.069   2.704   0.747 -0.7473 -0.0539  0.2602
  850SOL    HW1 2549   1.086   2.625   0.811 -0.1191 -1.0873  3.1904
  850SOL    HW2 2550   1.151   2.727   0.689  0.4767  1.7721 -0.1455
  851SOL     OW 2551   2.096   0.126   2.616  0.3722  0.0730 -0.2333
  851SOL    HW1 2552   2.122   0.113   2.517  0.0692 -1.2245 -0.7814
  851SOL    HW2 2553   2.177   0.158   2.671 -1.7813  1.1678  2.0379
  852SOL     OW 2554   1.297   0.276   2.543 -0.8079 -0.1304  0.2611
  852SOL    HW1 2555   1.376   0.217   2.534 -0.0634  0.4109  0.7178
  852SOL    HW2 2556   1.246   0.252   2.628  0.8175 -0.3870  0.5800
  853SOL     OW 2557   2.996   2.618   0.294  0.3788  0.2591 -0.1744
  853SOL    HW1 2558   3.061   2.550   0.343  2.9286  0.9441 -2.0159
  853SOL    HW2 2559   2.982   2.706   0.347 -0.0448 -2.4008 -2.2557
  854SOL     OW 2560   1.968   0.586   2.478 -0.0326  0.6396 -0.0050
  854SOL    HW1 2561   1.995   0.657   2.544  0.4526  0.5532  2.5102
  854SOL    HW2 2562   2.037   0.521   2.460 -1.1255 -1.2677  1.3031
  855SOL     OW 2563   0.571   2.528   0.238 -0.1992  0.8028  0.0805
  855SOL    HW1 2564   0.505   2.606   0.212 -1.6154  1.8881  1.0699
  855SOL    HW2 2565   0.634   2.500   0.161  1.0453 -1.3228 -6.7939
  856SOL     OW 2566   0.290   2.958   2.461 -0.0583 -0.6260 -0.8764
  856SOL    HW1 2567   0.245   2.885   2.406  0.8613  1.6851 -1.7446
  856SOL    HW2 2568   0.218   2.993   2.529 -1.2707  0.8370  2.0187
  857SOL     OW 2569   1.057   3.041   1.650  0.1434  0.3213  0.1012
  857SOL    HW1 2570   1.116   2.973   1.702 -0.1276  0.0744 -0.5072
  857SOL    HW2 2571   0.963   3.032   1.684 -0.3997 -0.9177 -2.7129
  858SOL     OW 2572   2.671   2.133   1.758  0.3124 -0.0630 -0.3154
  858SOL    HW1 2573   2.731   2.090   1.682  1.5047 -0.6567 -0.8867
  858SOL    HW2 2574   2.572   2.114   1.737 -1.3156  1.1030 -2.7248
  859SOL     OW 2575   1.939   2.432   2.041 -0.2547  0.2306  0.3020
  859SOL    HW1 2576   1.973   2.528   2.032  0.6211 -1.7815 -2.1831
  859SOL    HW2 2577   2.021   2.365   2.023  1.2982 -1.3057  0.8474
  860SOL     OW 2578   1.628   0.523   0.408 -0.3105 -0.5592  0.4643
  860SOL    HW1 2579   1.651   0.622   0.391  2.1680  2.6247 -0.3604
  860SOL    HW2 2580   1.636   0.472   0.320  0.9262 -0.3320  0.7680
  861SOL     OW 2581   2.756   0.530   0.848  0.3064  0.2566  0.6488
  861SOL    HW1 2582   2.672   0.542   0.792 -0.9749 -3.0610 -0.9945
  861SOL    HW2 2583   2.753   0.433   0.878 -0.1238 -0.4767  0.9703
  862SOL     OW 2584   1.231   2.816   2.484  0.0308 -0.1280  0.2010
  862SOL    HW1 2585   1.154   2.751   2.503 -2.2961  0.7785  1.3014
  862SOL    HW2 2586   1.246   2.839   2.384  0.9768 -2.6566  2.2216
  863SOL     OW 2587   0.500   0.657   1.192  0.0756 -0.3454  0.3448
  863SOL    HW1 2588   0.496   0.615   1.281  1.5967  0.3968 -0.0525
  863SOL    HW2 2589   0.491   0.759   1.201  0.3084 -0.8051  0.0154
  864SOL     OW 2590   3.082   2.924   1.822  0.4802  0.1267 -0.4329
  864SOL    HW1 2591   3.084   2.994   1.752 -0.0529 -0.9726  0.7831
  864SOL    HW2 2592   2.985   2.893   1.846 -1.0515 -1.6647  1.1418
  865SOL     OW 2593   0.682   1.180   2.875  0.4421 -0.3214 -0.0649
  865SOL    HW1 2594   0.695   1.126   2.962 -2.2365 -1.9101  1.8165
  865SOL    HW2 2595   0.673   1.278   2.905  0.6577 -1.1067 -0.0363
  866SOL     OW 2596   3.046   0.016   3.067 -0.3270  0.1607  0.1047
  866SOL    HW1 2597   3.045   0.105   0.023 -0.6827 -1.9316  1.0481
  866SOL    HW2 2598   0.034   3.059   3.082 -2.8891 -0.6778 -0.3426
  867SOL     OW 2599   2.828   2.985   2.675 -0.1592 -0.3803  0.2465
  867SOL    HW1 2600   2.893   3.009   2.746  1.5685  0.7564  0.3086
  867SOL    HW2 2601   2.811   2.886   2.672  0.7713  0.7020  0.0586
  868SOL     OW 2602   1.167   1.017   0.088 -0.1671 -0.1650  0.0962
  868SOL    HW1 2603   1.110   0.938   0.056  1.0055 -1.2548 -1.2293
  868SOL    HW2 2604   1.267   0.996   0.069  0.2394 -0.6330  0.3933
  869SOL     OW 2605   0.065   1.384   0.531 -0.1020  0.1559 -0.0228
  869SOL    HW1 2606   0.086   1.392   0.632  2.6465  0.7218  1.2659
  869SOL    HW2 2607   0.129   1.330   0.479 -4.7045 -1.4467  1.0037
  870SOL     OW 2608   2.458   1.631   0.678 -0.2728 -0.1681  0.1327
  870SOL    HW1 2609   2.495   1.688   0.603 -0.4533 -0.0362  1.6238
  870SOL    HW2 2610   2.504   1.646   0.771 -3.2375 -1.9050 -1.4104
  871SOL     OW 2611   1.140   1.318   0.880 -0.1505 -0.5634 -0.4884
  871SOL    HW1 2612   1.116   1.232   0.831  0.3656 -0.6436  1.0040
  871SOL    HW2 2613   1.066   1.346   0.943  1.5028 -0.0222  1.3889
  872SOL     OW 2614   1.186   1.814   1.905 -0.1983 -0.1083 -0.7895
  872SOL    HW1 2615   1.176   1.820   1.807 -0.1965  0.5199  3.1858
  872SOL    HW2 2616   1.276   1.778   1.936  1.1050 -1.5246  2.4368
  873SOL     OW 2617   0.859   1.670   2.257 -0.5088 -0.7045  0.4227
  873SOL    HW1 2618   0.824   1.750   2.310  0.5478  0.8819 -0.3230
  873SOL    HW2 2619   0.853   1.672   2.154  1.2095 -1.2721 -0.8435
  874SOL     OW 2620   1.024   2.234   0.863 -0.7416 -0.3299  0.1083
  874SOL    HW1 2621   1.095   2.162   0.889  1.7827  0.3702 -1.3030
  874SOL    HW2 2622   0.966   2.256   0.943 -0.2038  3.4672 -0.5819
  875SOL     OW 2623   2.508   0.218   1.081  0.0578  0.1174  0.1391
  875SOL    HW1 2624   2.505   0.301   1.136  2.7193 -1.1852 -1.8962
  875SOL    HW2 2625   2.484   0.144   1.144  0.7310  1.4278 -0.6143
  876SOL     OW 2626   0.784   0.636   0.137 -0.2517 -0.1858 -0.2638
  876SOL    HW1 2627   0.784   0.715   0.194  0.5068 -0.6489  0.7406
  876SOL    HW2 2628   0.795   0.553   0.198  1.3460 -0.0649  2.6787
  877SOL     OW 2629   2.780   0.583   1.348  0.1328  0.5185  0.1366
  877SOL    HW1 2630   2.719   0.577   1.267 -1.9922  3.0765 -2.0672
  877SOL    HW2 2631   2.840   0.667   1.328  0.6129  2.3317 -1.3649
  878SOL     OW 2632   2.118   2.113   0.882 -0.5639 -0.1374 -0.3060
  878SOL    HW1 2633   2.129   2.115   0.783  1.4725  1.4291  1.0499
  878SOL    HW2 2634   2.194   2.166   0.927  1.9178  1.5857  0.4637
  879SOL     OW 2635   2.698   1.615   1.346 -0.2994  0.0568  0.1434
  879SOL    HW1 2636   2.672   1.706   1.316  1.7508 -1.9563 -1.1581
  879SOL    HW2 2637   2.695   1.613   1.451  1.8671 -1.5924  1.7004
  880SOL     OW 2638   1.474   2.489   1.095 -0.0976  0.4394 -0.2407
  880SOL    HW1 2639   1.578   2.479   1.099 -1.4879 -0.3003  0.1714
  880SOL    HW2 2640   1.445   2.539   1.013  1.6747 -1.7666 -0.3108
  881SOL     OW 2641   0.803   2.409   0.116 -0.1545  0.1027 -0.2581
  881SOL    HW1 2642   0.748   2.319   0.126  0.1645  0.1264  2.1552
  881SOL    HW2 2643   0.905   2.395   0.099 -1.1867 -1.4110  0.7342
  882SOL     OW 2644   1.739   1.014   1.694  0.1045  0.1669 -0.0963
  882SOL    HW1 2645   1.686   1.024   1.778  0.7881  2.1527  0.7777
  882SOL    HW2 2646   1.698   0.934   1.644 -2.8969 -1.9326  0.6821
  883SOL     OW 2647   1.135   0.094   2.143  0.4548 -0.2933 -0.3165
  883SOL    HW1 2648   1.104   0.162   2.214  2.8375 -1.3046 -2.8692
  883SOL    HW2 2649   1.064   0.023   2.140  1.8439 -0.4044 -0.2783
  884SOL     OW 2650   2.965   0.774   0.136  0.8456 -0.4022 -0.0478
  884SOL    HW1 2651   3.061   0.808   0.131 -0.2642 -1.5691 -1.3734
  884SOL    HW2 2652   2.899   0.822   0.074  3.0751  0.3550 -1.6072
  885SOL     OW 2653   1.050   1.182   2.687  0.0021 -0.5948 -0.0396
  885SOL    HW1 2654   1.095   1.237   2.757 -1.0397  0.7419 -1.1754
  885SOL    HW2 2655   1.007   1.252   2.619 -0.2551  2.2425  0.2095
  886SOL     OW 2656   1.505   1.385   2.780 -0.8895 -0.1148 -0.3254
  886SOL    HW1 2657   1.518   1.287   2.756  0.6031 -0.4536 -1.1903
  886SOL    HW2 2658   1.602   1.419   2.791  1.8908 -1.4599  2.0170
  887SOL     OW 2659   1.010   0.487   1.831  0.1390 -0.5884 -0.0515
  887SOL    HW1 2660   1.051   0.392   1.852  0.8720  1.4745 -3.8058
  887SOL    HW2 2661   1.044   0.560   1.891  0.8770 -2.2076  2.7228
  888SOL     OW 2662   2.624   0.542   1.961  0.5115 -0.1989 -0.4461
  888SOL    HW1 2663   2.583   0.627   2.004  0.8014  0.5154  1.3770
  888SOL    HW2 2664   2.646   0.555   1.865 -1.6379  2.2394  4.1106
  889SOL     OW 2665   0.075   2.952   0.554  0.2327  0.5464  0.4462
  889SOL    HW1 2666   0.096   2.852   0.569 -0.8106 -1.5060  2.9541
  889SOL    HW2 2667   0.168   2.993   0.531  2.3365 -1.0212 -4.8493
  890SOL     OW 2668   2.924   2.258   0.402 -0.2896  0.4443 -0.2597
  890SOL    HW1 2669   2.837   2.246   0.455 -1.1976 -0.2132  1.4743
  890SOL    HW2 2670   3.003   2.252   0.467 -1.4209 -0.8911 -0.3190
  891SOL     OW 2671   0.909   1.755   2.967 -0.0890  0.0628 -0.1345
  891SOL    HW1 2672   0.875   1.836   2.911  0.0095  0.7412 -1.0651
  891SOL    HW2 2673   0.948   1.684   2.904 -1.7482  0.2803 -0.8162
  892SOL     OW 2674   2.830   3.089   0.873 -0.0476 -0.0874  0.4777
  892SOL    HW1 2675   2.777   3.032   0.807  0.3327 -0.3174  0.7155
  892SOL    HW2 2676   2.784   3.079   0.961  1.3046 -1.6071 -2.4783
  893SOL     OW 2677   1.098   2.968   1.346  0.2667  0.7481  0.1870
  893SOL    HW1 2678   1.075   2.954   1.445  3.0578 -2.1610 -1.4565
  893SOL    HW2 2679   1.064   3.059   1.315  0.2285  1.3296 -0.9073
  894SOL     OW 2680   3.055   0.872   0.499  0.3701 -0.4331 -0.1691
  894SOL    HW1 2681   0.009   0.883   0.585  0.7944  0.3487  0.3821
  894SOL    HW2 2682   3.033   0.777   0.486  2.3128  0.4677 -2.2933
  895SOL     OW 2683   2.377   2.769   1.739  1.0018 -0.1048  0.0096
  895SOL    HW1 2684   2.288   2.738   1.779  0.1684 -0.4588 -0.5691
  895SOL    HW2 2685   2.420   2.833   1.805 -4.6730 -2.0275 -0.1943
  896SOL     OW 2686   1.160   0.187   1.654 -0.1310 -0.6205 -0.3425
  896SOL    HW1 2687   1.093   0.112   1.635  0.2027  0.4286 -1.1708
  896SOL    HW2 2688   1.157   0.213   1.754  2.3362 -0.9730  2.9726
  897SOL     OW 2689   1.008   1.580   1.726  0.1999  0.1958 -0.4227
  897SOL    HW1 2690   1.034   1.665   1.683 -0.8898 -1.0269  0.7624
  897SOL    HW2 2691   1.044   1.572   1.821 -0.6129 -1.7132  1.3993
  898SOL     OW 2692   1.750   2.485   1.847 -0.0305  0.1898 -0.6225
  898SOL    HW1 2693   1.803   2.448   1.768  2.1358  1.2937 -0.0894
  898SOL    HW2 2694   1.801   2.461   1.930 -2.1045  0.0151 -2.9984
  899SOL     OW 2695   1.187   0.465   0.967 -0.0594  0.1382  0.0365
  899SOL    HW1 2696   1.200   0.415   1.054 -0.4164 -2.1937 -1.3025
  899SOL    HW2 2697   1.168   0.564   0.980 -3.3161 -3.2703  0.7074
  900SOL     OW 2698   1.923   2.591   2.633 -0.0420  0.1889  0.0823
  900SOL    HW1 2699   1.840   2.531   2.637 -1.8667  2.2188 -1.4970
  900SOL    HW2 2700   2.015   2.541   2.630 -0.4310  1.0297 -1.4934
  901SOL     OW 2701   0.799   2.156   2.381 -0.3187  0.3906  0.4117
  901SOL    HW1 2702   0.901   2.156   2.392  1.5036  0.7179  0.4355
  901SOL    HW2 2703   0.766   2.233   2.438  0.9324  0.8689 -2.7143
  902SOL     OW 2704   2.275   1.106   0.512 -0.4046 -0.1801 -0.0722
  902SOL    HW1 2705   2.310   1.182   0.454 -2.2119  3.5608  1.2597
  902SOL    HW2 2706   2.221   1.148   0.588  0.7552  1.8470 -0.8256
  903SOL     OW 2707   1.953   0.882   0.433  0.3951 -0.2543 -0.2534
  903SOL    HW1 2708   1.930   0.942   0.354  2.4640 -2.0598  0.2298
  903SOL    HW2 2709   1.989   0.940   0.511  0.3904  0.5500  1.0737
  904SOL     OW 2710   0.654   0.812   2.836  0.9315  0.4374  0.0236
  904SOL    HW1 2711   0.746   0.854   2.819 -0.1547  1.8205 -1.5059
  904SOL    HW2 2712   0.609   0.801   2.748 -0.0449  0.8725  1.6992
  905SOL     OW 2713   2.091   0.158   0.898  0.9762 -0.3898  0.4693
  905SOL    HW1 2714   2.062   0.067   0.859  0.6770 -1.4480 -0.4306
  905SOL    HW2 2715   2.047   0.232   0.843 -1.5607 -2.8530  0.8841
  906SOL     OW 2716   2.841   2.170   1.259 -0.0725  0.3791  0.0950
  906SOL    HW1 2717   2.913   2.147   1.329 -2.2563 -1.8981  1.9720
  906SOL    HW2 2718   2.820   2.270   1.255  1.8144  0.9091 -4.5111
  907SOL     OW 2719   1.157   0.685   0.271 -0.1553 -0.6499 -0.3308
  907SOL    HW1 2720   1.248   0.723   0.298  0.8331  1.0441  0.5320
  907SOL    HW2 2721   1.167   0.596   0.225 -1.6426  0.6455  1.1138
  908SOL     OW 2722   2.127   2.852   1.314  0.2769 -0.2871  0.1881
  908SOL    HW1 2723   2.227   2.856   1.329 -1.7070 -1.0705  1.5834
  908SOL    HW2 2724   2.071   2.900   1.383 -0.4854 -2.4996 -3.4766
  909SOL     OW 2725   2.283   0.759   1.313 -0.2007  0.1512 -0.0244
  909SOL    HW1 2726   2.382   0.742   1.341  3.1463  1.8582 -1.6131
  909SOL    HW2 2727   2.279   0.848   1.261 -1.3691  0.8493 -0.2069
  910SOL     OW 2728   1.266   2.700   2.013  0.6488  0.0150  0.6745
  910SOL    HW1 2729   1.249   2.763   2.087  1.8113 -0.5597 -1.5951
  910SOL    HW2 2730   1.364   2.676   2.008 -2.2774  0.6736 -1.7166
  911SOL     OW 2731   2.806   0.301   2.361 -0.0548 -0.0845  0.5891
  911SOL    HW1 2732   2.711   0.282   2.335  0.5916 -0.5783 -2.6520
  911SOL    HW2 2733   2.865   0.308   2.279  1.5784  0.1763 -1.9687
  912SOL     OW 2734   0.004   1.212   1.306  0.5347 -0.2698  0.4660
  912SOL    HW1 2735   3.028   1.268   1.337  0.5552 -1.2299 -1.0722
  912SOL    HW2 2736   0.101   1.246   1.329 -1.8283  1.4877 -0.7712
  913SOL     OW 2737   2.797   1.969   1.576 -0.0325 -0.0505  0.0031
  913SOL    HW1 2738   2.819   1.871   1.593 -0.6681 -1.8675  0.2578
  913SOL    HW2 2739   2.868   2.015   1.523  1.0286 -0.9733  0.1664
  914SOL     OW 2740   1.961   1.043   1.416  0.3798  0.3033  0.1482
  914SOL    HW1 2741   1.970   0.943   1.399 -0.1004  3.6022 -1.7453
  914SOL    HW2 2742   2.025   1.065   1.494 -0.7171 -0.6604  3.2066
  915SOL     OW 2743   1.322   0.490   1.580  0.1362 -0.3752 -0.2728
  915SOL    HW1 2744   1.302   0.489   1.677  2.1127 -0.7671 -0.3637
  915SOL    HW2 2745   1.342   0.391   1.554  0.5017 -0.9925  1.7101
  916SOL     OW 2746   2.793   2.424   1.384 -0.0129  0.1617  0.1885
  916SOL    HW1 2747   2.708   2.460   1.340 -3.2517  1.5034  1.0632
  916SOL    HW2 2748   2.776   2.372   1.469  3.2987 -1.9880  1.0896
  917SOL     OW 2749   2.367   2.142   0.381 -0.4419  0.6136 -0.6960
  917SOL    HW1 2750   2.310   2.099   0.306 -1.8225 -2.5852 -2.0713
  917SOL    HW2 2751   2.387   2.241   0.368  2.4671  0.0307 -3.4791
  918SOL     OW 2752   2.061   2.783   2.734 -0.0573 -0.7663  0.1447
  918SOL    HW1 2753   2.101   2.840   2.660  0.4541  0.9985 -0.1932
  918SOL    HW2 2754   2.009   2.701   2.698 -3.4354 -4.5490  0.3497
  919SOL     OW 2755   1.056   2.435   1.421 -0.2003  0.6608 -0.3922
  919SOL    HW1 2756   0.966   2.438   1.460 -0.4847 -0.8936  1.4225
  919SOL    HW2 2757   1.120   2.390   1.487  0.5878  1.7151  0.3935
  920SOL     OW 2758   0.364   0.300   2.210 -0.5772  0.2472  0.6687
  920SOL    HW1 2759   0.393   0.205   2.189 -2.1401 -3.4548 -1.1851
  920SOL    HW2 2760   0.273   0.312   2.173 -0.7135 -3.4215 -1.1358
  921SOL     OW 2761   2.947   0.727   1.723  0.0952 -0.1491  0.2022
  921SOL    HW1 2762   2.934   0.695   1.819 -2.4870 -0.9775  0.6540
  921SOL    HW2 2763   3.035   0.693   1.691 -1.2312 -0.6284 -0.0244
  922SOL     OW 2764   2.186   2.102   0.628 -0.5280 -0.3591 -1.0305
  922SOL    HW1 2765   2.105   2.095   0.572  0.1608  0.8938 -0.9132
  922SOL    HW2 2766   2.267   2.110   0.569  1.3838 -0.2085  0.2654
  923SOL     OW 2767   0.868   1.941   2.780 -0.4903  0.7210  0.4540
  923SOL    HW1 2768   0.812   1.877   2.720  2.3541 -1.9240 -0.8071
  923SOL    HW2 2769   0.840   2.034   2.768  2.1656 -0.2380  0.1350
  924SOL     OW 2770   0.927   0.373   0.253  0.3713  0.2936 -0.4919
  924SOL    HW1 2771   0.897   0.276   0.275  1.5204 -2.0532  0.8370
  924SOL    HW2 2772   1.021   0.381   0.290 -0.3335 -1.6044 -1.1979
  925SOL     OW 2773   2.336   0.426   0.644 -0.8194  0.3058 -0.4655
  925SOL    HW1 2774   2.266   0.500   0.651  0.5202  1.5040  0.8238
  925SOL    HW2 2775   2.310   0.352   0.707  1.0007  2.7187 -0.9397
  926SOL     OW 2776   0.182   0.796   0.972 -0.7170  0.1548 -0.1680
  926SOL    HW1 2777   0.168   0.891   1.002  0.1673 -1.6517  0.1456
  926SOL    HW2 2778   0.129   0.734   1.031  0.9577  1.8218  0.8312
  927SOL     OW 2779   3.038   1.216   2.658 -0.2008 -0.0024 -0.2514
  927SOL    HW1 2780   3.081   1.270   2.586 -3.0167 -1.8401  1.1599
  927SOL    HW2 2781   2.945   1.243   2.673  2.3472 -3.2957  0.7335
  928SOL     OW 2782   2.662   0.768   2.574  0.3297 -0.0552  0.2171
  928SOL    HW1 2783   2.572   0.804   2.613  1.3326  1.8085  0.0202
  928SOL    HW2 2784   2.741   0.776   2.637 -1.2117 -0.5216 -2.5215
  929SOL     OW 2785   2.765   0.045   1.439  0.0487  0.1214 -0.2816
  929SOL    HW1 2786   2.680   0.100   1.428  0.4988 -0.4479  1.8342
  929SOL    HW2 2787   2.748   3.069   1.501 -1.9014  1.4853 -1.7098
  930SOL     OW 2788   1.904   1.234   1.689 -0.6189  0.3630 -0.0232
  930SOL    HW1 2789   1.825   1.174   1.692  2.9048  3.2271 -0.8145
  930SOL    HW2 2790   1.901   1.292   1.603  2.0598  1.4399 -0.5660
  931SOL     OW 2791   1.613   1.308   0.761  0.1847  0.4313 -0.2800
  931SOL    HW1 2792   1.634   1.241   0.689  3.4176 -1.1843  0.7698
  931SOL    HW2 2793   1.616   1.404   0.720  0.0762 -2.0649 -0.4563
  932SOL     OW 2794   2.773   1.151   0.792 -0.2120  0.1706 -0.1608
  932SOL    HW1 2795   2.729   1.233   0.754 -2.1864  0.9009  1.2374
  932SOL    HW2 2796   2.762   1.067   0.735  0.3846  0.1992 -0.5100
  933SOL     OW 2797   2.595   1.855   1.233 -0.4008 -0.1113 -0.3201
  933SOL    HW1 2798   2.540   1.816   1.158 -3.5817  0.0683  0.5802
  933SOL    HW2 2799   2.568   1.957   1.243 -0.8730  3.8293 -0.4668
  934SOL     OW 2800   1.814   0.288   2.297  0.0186 -0.5870 -0.2025
  934SOL    HW1 2801   1.910   0.324   2.305 -2.1379  1.3105 -1.9274
  934SOL    HW2 2802   1.785   0.314   2.204 -1.8918  1.7190 -0.6747
  935SOL     OW 2803   0.300   1.611   0.649 -0.0224  0.1576  0.0371
  935SOL    HW1 2804   0.222   1.551   0.669 -1.0381  0.3113  0.7150
  935SOL    HW2 2805   0.278   1.698   0.698  0.6643  2.2146  0.3395
  936SOL     OW 2806   0.439   0.805   0.461  0.5845  0.3876  0.1922
  936SOL    HW1 2807   0.358   0.819   0.394 -1.0189 -2.3360  0.2835
  936SOL    HW2 2808   0.427   0.832   0.559 -2.4336  0.0628 -1.5203
  937SOL     OW 2809   2.456   3.045   1.162  0.5723  0.5732 -0.3124
  937SOL    HW1 2810   2.435   2.991   1.077 -0.7675 -0.3762  1.0414
  937SOL    HW2 2811   2.441   2.990   1.246  1.3443  2.9207 -0.9564
  938SOL     OW 2812   2.672   2.188   0.485 -0.0505  0.1392 -0.2560
  938SOL    HW1 2813   2.637   2.092   0.471 -0.2315 -1.0207  0.8085
  938SOL    HW2 2814   2.617   2.243   0.418  1.6401  1.2441 -1.0513
  939SOL     OW 2815   0.925   2.002   0.155 -0.0721  0.1508 -0.2689
  939SOL    HW1 2816   0.851   1.939   0.180  0.0798  0.0814  0.6821
  939SOL    HW2 2817   1.015   1.974   0.202  0.2876  1.6098  1.9466
  940SOL     OW 2818   2.911   0.289   2.714 -0.2014  0.0559 -0.7465
  940SOL    HW1 2819   2.976   0.365   2.731 -1.2062  0.9876  1.4166
  940SOL    HW2 2820   2.814   0.322   2.700 -2.4649  0.9515  1.4451
  941SOL     OW 2821   1.205   0.177   2.774  0.0862  0.5587 -0.3364
  941SOL    HW1 2822   1.261   0.109   2.833  1.8997 -2.6936 -0.2116
  941SOL    HW2 2823   1.116   0.197   2.810  0.8096 -1.8070 -2.4601
  942SOL     OW 2824   1.231   1.020   1.296 -0.2164  0.0140 -0.4628
  942SOL    HW1 2825   1.263   1.107   1.338 -0.4365 -3.3015 -0.3919
  942SOL    HW2 2826   1.140   1.031   1.251  0.3321  2.1326 -0.7742
  943SOL     OW 2827   1.280   1.034   1.790  0.5451  0.1988  0.2216
  943SOL    HW1 2828   1.261   0.981   1.705 -0.4055  0.6361  1.5921
  943SOL    HW2 2829   1.196   1.088   1.818  0.4036  4.4066  2.0319
  944SOL     OW 2830   1.553   0.996   1.910  0.3873 -0.0564 -0.4347
  944SOL    HW1 2831   1.464   1.036   1.930  1.5367  0.8455  2.0092
  944SOL    HW2 2832   1.545   0.900   1.892 -2.1392  3.2460  0.3149
  945SOL     OW 2833   2.799   3.026   0.336  0.0061 -0.3861 -0.1962
  945SOL    HW1 2834   2.738   2.978   0.267 -2.8787 -1.8449 -3.1545
  945SOL    HW2 2835   2.746   0.001   0.386  1.8220  1.7615 -1.2101
  946SOL     OW 2836   2.883   0.654   1.983  0.0920 -0.0226 -0.2058
  946SOL    HW1 2837   2.852   0.730   2.042 -0.8204  1.8747  0.2053
  946SOL    HW2 2838   2.799   0.604   1.945 -2.1265  0.8520 -3.0819
  947SOL     OW 2839   0.568   2.956   0.419 -0.4294 -0.0315 -0.2257
  947SOL    HW1 2840   0.542   2.876   0.472  0.3224 -1.6470 -1.4718
  947SOL    HW2 2841   0.668   2.966   0.417 -3.2968 -1.2917 -0.8021
  948SOL     OW 2842   2.132   1.105   1.757  0.5297  0.1942 -0.1117
  948SOL    HW1 2843   2.091   1.069   1.847 -1.3522  0.1355  1.3806
  948SOL    HW2 2844   2.056   1.151   1.704  0.5524  0.3993 -1.7535
  949SOL     OW 2845   0.504   0.779   2.606 -0.3705  0.1542 -0.0773
  949SOL    HW1 2846   0.510   0.772   2.506  0.4703 -1.8680  3.8511
  949SOL    HW2 2847   0.433   0.716   2.640 -0.5974  0.3381 -0.7135
  950SOL     OW 2848   0.499   0.353   1.091 -0.2718  0.5957 -0.5726
  950SOL    HW1 2849   0.479   0.322   0.999  2.5491 -1.8285  0.1469
  950SOL    HW2 2850   0.508   0.452   1.095  0.1989 -0.8230 -1.7210
  951SOL     OW 2851   0.866   1.443   2.389 -0.0128 -0.0399  0.2382
  951SOL    HW1 2852   0.863   1.525   2.324  0.5742  1.4706 -3.5834
  951SOL    HW2 2853   0.932   1.378   2.351  0.5611  1.0351  1.5752
  952SOL     OW 2854   0.794   1.615   0.064 -0.4236  0.6150  0.2384
  952SOL    HW1 2855   0.826   1.659   3.075 -1.1844 -1.1905  2.0773
  952SOL    HW2 2856   0.755   1.684   0.129  0.9624  0.2753  1.2491
  953SOL     OW 2857   2.436   0.072   2.356  0.0241 -0.7077 -0.4054
  953SOL    HW1 2858   2.472   0.166   2.326  1.2063 -0.8717 -0.9801
  953SOL    HW2 2859   2.518   0.018   2.385 -0.7307  0.0475 -0.1097
  954SOL     OW 2860   1.607   1.222   1.012  0.3442 -0.4344  0.4028
  954SOL    HW1 2861   1.622   1.216   0.914 -0.9353  1.8886  1.9207
  954SOL    HW2 2862   1.526   1.286   1.026 -1.6103 -0.7249 -0.0720
  955SOL     OW 2863   0.291   2.000   2.632  0.6243 -0.1277 -0.3014
  955SOL    HW1 2864   0.291   1.933   2.710 -2.8420 -1.6531  1.1629
  955SOL    HW2 2865   0.237   2.085   2.652 -0.5263  1.4186 -0.4313
  956SOL     OW 2866   1.642   0.627   2.089 -0.2269 -0.2482  0.6881
  956SOL    HW1 2867   1.575   0.624   2.168 -0.5998 -1.2363  1.3228
  956SOL    HW2 2868   1.736   0.653   2.119  0.3511 -2.3305  0.6074
  957SOL     OW 2869   1.887   2.045   2.919 -0.2529  0.0176 -0.1012
  957SOL    HW1 2870   1.830   1.969   2.950 -1.0074  2.2130  1.0318
  957SOL    HW2 2871   1.887   2.120   2.988  0.0949 -1.3277  2.7515
  958SOL     OW 2872   1.003   2.172   1.620 -0.0758 -0.9879  0.4333
  958SOL    HW1 2873   1.068   2.250   1.645 -1.6131  2.2224 -0.3760
  958SOL    HW2 2874   1.036   2.136   1.530 -0.5171  0.4756  2.9618
  959SOL     OW 2875   2.147   2.466   2.958  0.4058 -0.3532  0.3381
  959SOL    HW1 2876   2.144   2.447   2.856 -0.7819 -0.4123 -1.4913
  959SOL    HW2 2877   2.231   2.437   2.999 -0.2749  1.6391  1.6023
  960SOL     OW 2878   2.915   0.721   2.466  0.2561  0.1466  0.7747
  960SOL    HW1 2879   2.938   0.815   2.443  0.3238  0.1906  0.3566
  960SOL    HW2 2880   2.821   0.725   2.495  0.5342  2.5481 -0.2210
  961SOL     OW 2881   0.798   0.863   2.513  0.4522  0.3841  0.3706
  961SOL    HW1 2882   0.704   0.854   2.469 -1.4369 -0.8204 -1.2770
  961SOL    HW2 2883   0.870   0.814   2.455  1.2081  1.3757  0.0238
  962SOL     OW 2884   0.611   1.278   2.629 -0.5860 -0.2035 -0.1114
  962SOL    HW1 2885   0.648   1.242   2.720 -1.3546 -2.4567 -4.3706
  962SOL    HW2 2886   0.527   1.228   2.606  1.1702  1.7299  3.9627
  963SOL     OW 2887   2.531   2.342   0.298  0.3251 -0.3403 -0.0175
  963SOL    HW1 2888   2.563   2.342   0.200  1.5660  0.0605  0.0182
  963SOL    HW2 2889   2.547   2.431   0.344 -0.1854  1.1523  0.5587
  964SOL     OW 2890   1.061   2.510   1.157 -0.1949 -0.1292 -0.4573
  964SOL    HW1 2891   1.089   2.477   1.252 -0.0978 -0.8619 -1.2697
  964SOL    HW2 2892   1.030   2.604   1.165  1.1698 -5.0527 -0.0351
  965SOL     OW 2893   1.355   1.408   0.625  0.3187 -0.1850  0.4921
  965SOL    HW1 2894   1.419   1.344   0.673 -1.8912  1.6203 -0.2243
  965SOL    HW2 2895   1.353   1.501   0.663  1.5055 -2.8093  0.3312
  966SOL     OW 2896   0.199   1.492   0.200  0.1143 -0.6818  0.1908
  966SOL    HW1 2897   0.279   1.438   0.161 -0.9175 -1.3105  0.4526
  966SOL    HW2 2898   0.238   1.565   0.263  0.4597 -0.2599 -0.2436
  967SOL     OW 2899   1.867   0.151   1.978  0.8755  0.6710  0.5337
  967SOL    HW1 2900   1.953   0.170   2.036  1.6239 -0.2661  2.8178
  967SOL    HW2 2901   1.801   0.226   1.999 -0.1479  1.1287  0.1993
  968SOL     OW 2902   1.848   0.891   0.766  0.0631  0.1501 -0.0969
  968SOL    HW1 2903   1.880   0.979   0.721 -2.0719 -0.4029 -0.7234
  968SOL    HW2 2904   1.763   0.860   0.721 -0.5833 -0.5084  2.4356
  969SOL     OW 2905   0.299   1.176   2.242  0.4860 -0.4512 -0.1991
  969SOL    HW1 2906   0.301   1.224   2.151 -1.4905  1.1786 -1.5701
  969SOL    HW2 2907   0.287   1.076   2.233  3.4114  1.2651 -0.1196
  970SOL     OW 2908   2.147   1.421   1.254 -0.7578  0.0190 -0.2506
  970SOL    HW1 2909   2.118   1.323   1.234 -1.8473  0.3971 -1.2950
  970SOL    HW2 2910   2.188   1.469   1.170 -0.0318  1.3292 -0.6609
  971SOL     OW 2911   3.096   3.072   1.117  0.0196  0.3420 -0.2668
  971SOL    HW1 2912   0.002   0.028   1.029  0.9080  1.9284 -2.2553
  971SOL    HW2 2913   3.087   2.973   1.096  0.1814 -0.6858  0.2025
  972SOL     OW 2914   0.307   0.597   2.640 -0.2540 -0.1257 -0.5187
  972SOL    HW1 2915   0.340   0.569   2.731  0.5571  2.6820  2.3215
  972SOL    HW2 2916   0.288   0.514   2.582 -1.3081  3.1301  0.1166
  973SOL     OW 2917   0.235   0.511   0.644  0.3341 -0.1019  0.3788
  973SOL    HW1 2918   0.193   0.417   0.654  0.0886 -0.7476  2.7788
  973SOL    HW2 2919   0.318   0.509   0.589 -0.2826  0.0718  0.9896
  974SOL     OW 2920   2.278   0.489   1.984  0.0139 -0.0026 -0.1062
  974SOL    HW1 2921   2.343   0.505   2.061  0.0523 -1.6118  0.2740
  974SOL    HW2 2922   2.194   0.547   2.006 -0.2280  0.6961  0.5526
  975SOL     OW 2923   2.740   0.296   0.027  0.1451  0.0359 -0.5793
  975SOL    HW1 2924   2.686   0.344   0.101 -2.8021 -0.5020 -2.4040
  975SOL    HW2 2925   2.831   0.335   0.025 -2.7445  0.5377 -0.1532
  976SOL     OW 2926   0.345   1.527   1.343  0.1176  0.2446 -0.0739
  976SOL    HW1 2927   0.308   1.444   1.394 -1.2817 -2.9042  3.0895
  976SOL    HW2 2928   0.330   1.608   1.403  0.6114 -1.5145  1.3040
  977SOL     OW 2929   1.067   2.415   0.016  0.4052  0.2669 -0.4229
  977SOL    HW1 2930   1.162   2.389   0.047 -1.0970 -1.8361 -2.6016
  977SOL    HW2 2931   1.047   2.357   3.031  1.2629  0.8739 -1.9266
  978SOL     OW 2932   0.357   1.196   2.794  0.3026  0.1174  0.0171
  978SOL    HW1 2933   0.287   1.233   2.860 -5.3963  0.6262  0.0920
  978SOL    HW2 2934   0.392   1.107   2.835 -2.0945 -0.7421 -1.4732
  979SOL     OW 2935   2.001   1.732   1.097 -0.3920 -0.3351 -0.4551
  979SOL    HW1 2936   1.925   1.685   1.148 -0.2471  1.6549  0.2647
  979SOL    HW2 2937   2.084   1.742   1.150  1.6902 -0.7554  1.1811
  980SOL     OW 2938   0.449   1.472   1.678 -0.6242  0.2045  0.2124
  980SOL    HW1 2939   0.353   1.439   1.676  1.5129 -1.8862  0.2884
  980SOL    HW2 2940   0.500   1.406   1.741  0.9890 -2.7203  0.5388
  981SOL     OW 2941   2.810   1.591   0.393 -0.4262 -0.1952  0.8736
  981SOL    HW1 2942   2.913   1.594   0.397 -0.4998  0.5109 -1.2952
  981SOL    HW2 2943   2.779   1.629   0.302 -0.5954 -1.7539 -0.5932
  982SOL     OW 2944   2.500   2.424   1.879  0.1639 -0.2662 -0.4012
  982SOL    HW1 2945   2.563   2.500   1.851 -0.8247  1.3635 -1.2567
  982SOL    HW2 2946   2.492   2.417   1.981 -2.1761 -1.2893 -1.7626
  983SOL     OW 2947   1.386   0.195   1.138 -0.1467  0.1441  0.2003
  983SOL    HW1 2948   1.435   0.166   1.222 -0.5544  1.3553  0.6982
  983SOL    HW2 2949   1.331   0.283   1.165 -1.3399  0.2150 -2.0869
  984SOL     OW 2950   1.228   2.656   2.867  0.0490 -0.3337  0.2864
  984SOL    HW1 2951   1.243   2.733   2.805 -1.4161 -1.3016  2.6378
  984SOL    HW2 2952   1.309   2.634   2.925  3.2649  0.3830  0.5656
  985SOL     OW 2953   1.962   2.133   1.566 -0.8283  0.5861 -0.2097
  985SOL    HW1 2954   1.936   2.047   1.617  0.0156 -2.9929  0.8461
  985SOL    HW2 2955   1.977   2.118   1.467  0.9623 -1.6930 -2.3293
  986SOL     OW 2956   2.358   3.020   2.601  0.1035  0.0156  0.9851
  986SOL    HW1 2957   2.369   3.063   2.511 -0.7471 -0.2752  2.1003
  986SOL    HW2 2958   2.438   3.045   2.663  0.6426 -0.9257  1.6540
  987SOL     OW 2959   2.869   1.123   2.051  0.7003  0.2769 -0.7527
  987SOL    HW1 2960   2.784   1.121   2.003  1.7883 -1.5131 -0.8739
  987SOL    HW2 2961   2.932   1.189   2.019 -2.0309 -2.0034 -0.0893
  988SOL     OW 2962   2.438   0.877   2.698  0.1730 -0.0498  0.1556
  988SOL    HW1 2963   2.455   0.790   2.746  1.3587 -0.7701  1.8186
  988SOL    HW2 2964   2.354   0.888   2.649 -0.1015  1.8616  1.9378
  989SOL     OW 2965   1.984   1.375   1.917 -0.3457  0.1323  0.0252
  989SOL    HW1 2966   1.935   1.316   1.853  0.8944  2.4816  0.0279
  989SOL    HW2 2967   2.027   1.450   1.867  0.3938  3.7163  0.4205
  990SOL     OW 2968   0.388   1.023   0.106 -0.2215  0.5385 -0.5607
  990SOL    HW1 2969   0.398   0.923   0.134 -2.0056  0.1478  0.3870
  990SOL    HW2 2970   0.300   1.055   0.069  2.0077 -0.1810  4.4564
  991SOL     OW 2971   0.311   1.810   2.813  0.2368 -0.5207  0.1119
  991SOL    HW1 2972   0.254   1.737   2.769  1.3593 -1.6276  0.2814
  991SOL    HW2 2973   0.397   1.775   2.847  0.8629  0.2436 -2.1455
  992SOL     OW 2974   2.715   1.995   1.991  0.0954  0.0983  0.2003
  992SOL    HW1 2975   2.699   2.056   1.911 -0.3093  0.0704  0.7384
  992SOL    HW2 2976   2.651   1.918   1.992 -0.4263 -0.0127 -0.3454
  993SOL     OW 2977   0.197   0.036   0.310  0.5927 -0.4963  0.3566
  993SOL    HW1 2978   0.255   0.034   0.397  0.7420 -1.8391  2.7582
  993SOL    HW2 2979   0.102   0.070   0.333  1.4947  0.4143 -0.5448
  994SOL     OW 2980   0.289   1.750   1.484 -0.0672 -0.3723 -0.1806
  994SOL    HW1 2981   0.271   1.769   1.579 -1.4826 -1.6351 -3.1582
  994SOL    HW2 2982   0.312   1.834   1.436 -0.5106 -2.1867  3.3776
  995SOL     OW 2983   2.107   1.822   3.004 -0.3351 -0.8145 -0.5802
  995SOL    HW1 2984   2.180   1.889   2.979 -0.8745  3.4303 -1.0980
  995SOL    HW2 2985   2.011   1.852   2.983 -0.6002 -1.3895  0.1862
  996SOL     OW 2986   1.727   1.548   0.114 -0.2587 -0.1342 -0.8518
  996SOL    HW1 2987   1.680   1.469   0.156 -0.6890  2.1425 -0.3223
  996SOL    HW2 2988   1.659   1.610   0.074  1.0961 -1.1315  2.8384
  997SOL     OW 2989   1.464   1.201   1.710  0.0448 -0.0534  0.2735
  997SOL    HW1 2990   1.483   1.180   1.610 -1.2098 -2.0346 -3.5310
  997SOL    HW2 2991   1.400   1.132   1.750  0.0148  1.6321 -1.9860
  998SOL     OW 2992   2.591   2.331   1.048  0.0462 -0.2908  0.1711
  998SOL    HW1 2993   2.590   2.401   1.125 -0.1054  0.7503  0.4646
  998SOL    HW2 2994   2.664   2.367   0.985  1.2819  1.0879  0.3471
  999SOL     OW 2995   2.110   2.434   0.377  0.2957  0.6008  0.3017
  999SOL    HW1 2996   2.099   2.492   0.298 -0.8261 -0.7853  2.7424
  999SOL    HW2 2997   2.193   2.455   0.431 -1.4731 -0.4754 -1.7093
 1000SOL     OW 2998   0.861   2.830   0.108 -0.4692  0.5214  0.3320
 1000SOL    HW1 2999   0.948   2.801   0.060 -3.9887 -1.2883  1.4357
 1000SOL    HW2 3000   0.804   2.887   0.047 -0.2442  0.6974 -1.8353
   3.09709   3.09709   3.09709
