1000 SPC/Fw water molecules t= 301.00000 step= 301000
 3000
    1SOL     OW    1   2.524   0.024   0.867 -0.7625  0.1395  0.6631
    1SOL    HW1    2   2.510   3.053   0.792 -0.3798  2.9762 -0.8994
    1SOL    HW2    3   2.619   0.021   0.908  3.3590 -0.0649  1.1328
    2SOL     OW    4   2.906   2.519   1.070 -0.8120  0.5959  0.6035
    2SOL    HW1    5   2.976   2.450   1.097 -0.9015 -1.9670 -0.4288
    2SOL    HW2    6   2.943   2.618   1.070  1.6839  1.8819  0.9251
    3SOL     OW    7   0.748   2.850   2.914  0.1398  0.1351 -0.1374
    3SOL    HW1    8   0.693   2.821   2.998  2.5473 -3.1562  2.3261
    3SOL    HW2    9   0.687   2.855   2.833  0.6474  4.5421 -2.1937
    4SOL     OW   10   2.150   2.364   1.662  0.2175  0.0404 -0.4704
    4SOL    HW1   11   2.234   2.423   1.652  1.1021  1.4537  2.6891
    4SOL    HW2   12   2.171   2.268   1.657  0.6038  3.2950  1.0800
    5SOL     OW   13   1.708   0.750   1.414  1.1178 -0.1358 -0.4687
    5SOL    HW1   14   1.645   0.696   1.356 -2.2785 -0.2310 -1.5031
    5SOL    HW2   15   1.668   0.838   1.455  2.0388  2.1707  1.5532
    6SOL     OW   16   1.885   2.763   0.173  0.4004  0.0678 -0.0340
    6SOL    HW1   17   1.947   2.840   0.170 -0.4977 -3.8643  1.1467
    6SOL    HW2   18   1.789   2.783   0.200 -1.7598 -0.2714  0.9076
    7SOL     OW   19   2.851   1.221   1.478 -0.8375 -0.0949 -0.2486
    7SOL    HW1   20   2.900   1.310   1.476 -1.8894  0.9115  0.7018
    7SOL    HW2   21   2.750   1.237   1.462 -2.1942  0.9824 -0.5649
    8SOL     OW   22   1.468   2.542   1.271  0.0772  0.1916  1.2347
    8SOL    HW1   23   1.559   2.591   1.288  2.7546 -1.3679 -2.5419
    8SOL    HW2   24   1.459   2.452   1.319  2.5348 -0.5546  0.7544
    9SOL     OW   25   1.300   2.979   2.350  0.3637  0.4276 -0.0870
    9SOL    HW1   26   1.303   2.908   2.426 -1.2011 -2.5862  2.7418
    9SOL    HW2   27   1.302   2.924   2.265  3.1245 -2.1195 -0.3961
   10SOL     OW   28   0.727   2.157   1.347  0.2320  0.4953  0.2538
   10SOL    HW1   29   0.759   2.061   1.324  0.9954 -0.8254 -1.2919
   10SOL    HW2   30   0.733   2.222   1.266  0.8940 -1.9509 -0.3094
   11SOL     OW   31   1.967   1.631   1.165  0.0296  0.0149 -0.3459
   11SOL    HW1   32   2.027   1.682   1.103 -1.2121  2.4938 -0.0668
   11SOL    HW2   33   1.973   1.670   1.259  2.3512  2.7293  2.3482
   12SOL     OW   34   2.454   2.762   1.554  0.1091 -0.3736  0.1932
   12SOL    HW1   35   2.505   2.693   1.609  0.2347 -0.8454  1.2016
   12SOL    HW2   36   2.412   2.823   1.619  0.1909 -3.7737 -2.2012
   13SOL     OW   37   2.187   2.986   0.346 -0.3305 -0.2274 -0.0476
   13SOL    HW1   38   2.163   2.897   0.387  0.5671  0.4955  2.9996
   13SOL    HW2   39   2.277   2.980   0.291  0.9301 -0.5201 -0.9411
   14SOL     OW   40   1.648   2.238   0.836  0.4981 -0.2387 -0.3017
   14SOL    HW1   41   1.550   2.267   0.840 -0.8851  2.1539  1.9123
   14SOL    HW2   42   1.663   2.150   0.886 -1.6481  0.3015  0.7962
   15SOL     OW   43   3.060   1.894   1.929  0.1150 -0.3169  0.3780
   15SOL    HW1   44   3.095   1.990   1.938  0.7909  2.9204  2.6485
   15SOL    HW2   45   3.028   1.848   2.015 -0.7779 -1.3936  3.3399
   16SOL     OW   46   1.948   2.745   0.605  0.1618 -0.0549 -0.3284
   16SOL    HW1   47   1.978   2.843   0.630  4.3491  2.8868  0.2156
   16SOL    HW2   48   1.980   2.692   0.687 -1.0949  0.0775 -1.0234
   17SOL     OW   49   0.754   0.197   1.077 -0.0979 -0.5837  0.1557
   17SOL    HW1   50   0.694   0.269   1.039  0.4016 -2.6738 -1.1548
   17SOL    HW2   51   0.735   0.174   1.174  0.1781  1.3153 -0.3538
   18SOL     OW   52   1.641   1.203   3.048  0.1705  0.5743 -0.2520
   18SOL    HW1   53   1.604   1.229   0.043  0.2689  1.9131  0.6526
   18SOL    HW2   54   1.640   1.103   3.023  0.3575  2.4864 -1.5254
   19SOL     OW   55   1.818   2.020   0.272  0.2863 -0.9135 -0.4121
   19SOL    HW1   56   1.899   2.063   0.318 -2.2338  0.2424  2.0269
   19SOL    HW2   57   1.824   1.921   0.270 -1.2928  2.2075  0.8367
   20SOL     OW   58   2.721   1.794   2.224 -0.5105 -0.3511 -0.5302
   20SOL    HW1   59   2.627   1.837   2.212 -0.0087  3.5504  1.1919
   20SOL    HW2   60   2.770   1.853   2.292  2.5973  2.6402 -1.4425
   21SOL     OW   61   1.587   1.153   0.595  0.1168 -0.0402 -0.2053
   21SOL    HW1   62   1.555   1.249   0.570 -0.9413  0.5056  0.3645
   21SOL    HW2   63   1.581   1.097   0.510 -1.3410  0.9907 -1.3232
   22SOL     OW   64   2.122   3.046   1.450  0.0093  0.0751 -0.0724
   22SOL    HW1   65   2.068   3.023   1.534 -0.2491  1.3550 -1.1829
   22SOL    HW2   66   2.071   0.014   1.391  2.5441  0.1903 -0.2915
   23SOL     OW   67   2.990   0.674   1.914  0.0076 -0.1870  0.3627
   23SOL    HW1   68   2.901   0.698   1.953  1.7585 -2.9511 -2.1944
   23SOL    HW2   69   3.010   0.740   1.835 -0.9237  0.3596 -2.1784
   24SOL     OW   70   2.374   2.512   0.310  0.3980  0.6280 -0.0745
   24SOL    HW1   71   2.303   2.583   0.326  1.4320 -0.7407 -1.0177
   24SOL    HW2   72   2.457   2.536   0.354 -1.3032  0.5325  0.8067
   25SOL     OW   73   1.146   0.107   2.221 -0.2015 -0.2289 -0.4168
   25SOL    HW1   74   1.064   0.121   2.286 -2.0677  0.2566  2.0581
   25SOL    HW2   75   1.208   0.035   2.258  0.1527 -1.4425  2.3058
   26SOL     OW   76   1.680   2.365   0.600  0.0252 -0.2159 -0.2815
   26SOL    HW1   77   1.682   2.343   0.703 -0.8739 -1.1215  1.2332
   26SOL    HW2   78   1.636   2.287   0.551  0.1992  1.3842 -2.2067
   27SOL     OW   79   2.270   1.608   0.196  0.1107 -0.2122 -0.0727
   27SOL    HW1   80   2.229   1.656   0.120  1.1799 -1.6251 -1.7890
   27SOL    HW2   81   2.335   1.537   0.161 -0.5534  0.0521  2.5699
   28SOL     OW   82   0.717   1.596   1.631 -0.0042  0.1615 -0.0457
   28SOL    HW1   83   0.763   1.552   1.709  0.5102  1.5430 -0.9043
   28SOL    HW2   84   0.780   1.598   1.553  0.2796  4.6159  1.1030
   29SOL     OW   85   2.405   2.367   1.466 -0.6858 -0.8447  0.4503
   29SOL    HW1   86   2.429   2.371   1.363  1.1575  1.0907 -4.1058
   29SOL    HW2   87   2.357   2.454   1.491  0.8198  1.8499 -0.0139
   30SOL     OW   88   1.496   0.474   0.955  0.0204 -0.2858 -0.1739
   30SOL    HW1   89   1.414   0.484   0.891 -0.0314 -2.7556 -1.7045
   30SOL    HW2   90   1.537   0.565   0.947  0.0023 -1.4631 -0.1276
   31SOL     OW   91   1.948   2.768   1.830 -0.0294  0.4430 -0.0657
   31SOL    HW1   92   1.851   2.782   1.851  2.3268  2.3979 -0.5398
   31SOL    HW2   93   1.978   2.670   1.843 -1.7745 -0.0787 -0.6546
   32SOL     OW   94   1.095   1.923   0.829  0.7376  0.3992  0.0839
   32SOL    HW1   95   0.997   1.949   0.819  1.4829 -1.5186  0.7060
   32SOL    HW2   96   1.135   1.907   0.736 -2.1974  0.4939  1.5788
   33SOL     OW   97   0.292   0.432   2.534  0.3657 -0.1645 -0.7134
   33SOL    HW1   98   0.300   0.338   2.572 -0.8678  0.1816  0.3758
   33SOL    HW2   99   0.250   0.432   2.441 -0.7748 -0.4442 -2.3325
   34SOL     OW  100   1.875   3.051   0.555 -0.8982 -0.2977  0.0665
   34SOL    HW1  101   1.922   0.045   0.533  2.4082  1.2513  2.3686
   34SOL    HW2  102   1.827   3.012   0.479 -2.2641  3.3535  1.8552
   35SOL     OW  103   2.081   2.663   1.320 -0.0864  0.4947  0.1503
   35SOL    HW1  104   2.122   2.749   1.295 -0.8686 -2.7286  2.0786
   35SOL    HW2  105   1.997   2.653   1.260 -0.0507 -1.5420  0.2907
   36SOL     OW  106   1.840   2.399   2.639  0.3863 -0.4917  0.4011
   36SOL    HW1  107   1.799   2.305   2.644  0.5080  0.9399  1.0234
   36SOL    HW2  108   1.928   2.397   2.590 -1.6413 -1.4730 -0.9757
   37SOL     OW  109   0.745   3.041   1.970 -0.1631 -0.2613  0.0952
   37SOL    HW1  110   0.668   2.988   2.002  3.0261  3.3624 -3.3801
   37SOL    HW2  111   0.820   3.023   2.033 -2.1734 -2.1463 -0.1967
   38SOL     OW  112   0.063   0.092   2.588  0.0030 -0.2993 -0.3517
   38SOL    HW1  113   0.019   0.026   2.647  3.7683  0.9894  1.2427
   38SOL    HW2  114   0.088   0.054   2.495  1.2593  0.1465  0.0086
   39SOL     OW  115   2.242   0.975   1.551  0.0920  0.5872 -0.3351
   39SOL    HW1  116   2.232   0.958   1.652  0.3556 -1.1225  3.2316
   39SOL    HW2  117   2.268   1.072   1.546 -0.0850 -1.3765  0.2683
   40SOL     OW  118   1.213   2.769   2.996 -0.1612  0.2163 -0.1313
   40SOL    HW1  119   1.133   2.776   2.934 -1.8852  0.2924  0.6066
   40SOL    HW2  120   1.259   2.860   3.011 -1.6748  0.6040 -1.2650
   41SOL     OW  121   2.388   1.427   1.074 -0.0080 -0.2630 -0.6234
   41SOL    HW1  122   2.397   1.412   1.175 -0.4569 -1.5441 -1.3651
   41SOL    HW2  123   2.458   1.374   1.019  2.8217 -0.7718  1.0502
   42SOL     OW  124   0.597   0.431   1.041  1.0211  0.6172  0.0163
   42SOL    HW1  125   0.635   0.520   1.075  0.6403 -0.0063  0.1770
   42SOL    HW2  126   0.567   0.425   0.942 -1.5528  0.0097  1.1335
   43SOL     OW  127   2.665   1.631   2.471 -0.0821  0.3228  0.0369
   43SOL    HW1  128   2.622   1.712   2.517  1.4770  2.3464 -1.4227
   43SOL    HW2  129   2.665   1.647   2.374  1.0330  0.0332  1.8434
   44SOL     OW  130   2.453   0.137   1.868  0.5368  1.0787 -0.2143
   44SOL    HW1  131   2.500   0.106   1.782 -0.4859  0.7721 -2.9267
   44SOL    HW2  132   2.522   0.185   1.925  1.6914  0.4217 -2.6813
   45SOL     OW  133   0.687   2.918   1.724  0.0464 -0.1794  0.4011
   45SOL    HW1  134   0.589   2.885   1.725 -0.9763 -0.7539  0.2785
   45SOL    HW2  135   0.717   2.960   1.807 -3.9055 -1.4733 -3.5463
   46SOL     OW  136   1.335   2.790   2.546  0.4263  0.6609  0.6685
   46SOL    HW1  137   1.309   2.706   2.590  0.7614  1.4400  0.1624
   46SOL    HW2  138   1.307   2.871   2.602  0.5349 -1.4234 -0.6915
   47SOL     OW  139   1.764   1.757   0.523 -0.4927 -0.3570 -0.1093
   47SOL    HW1  140   1.686   1.796   0.472  1.3264  1.4004 -1.8873
   47SOL    HW2  141   1.749   1.665   0.566 -2.8717 -0.0486  0.9253
   48SOL     OW  142   0.968   2.214   0.595  0.9437  0.1070 -0.4700
   48SOL    HW1  143   0.925   2.286   0.537 -0.1114  0.1350 -1.2670
   48SOL    HW2  144   0.898   2.145   0.627  0.0947  0.7500  0.9346
   49SOL     OW  145   2.195   2.742   2.572 -0.4897  0.1860  0.0242
   49SOL    HW1  146   2.295   2.771   2.558  3.1156  1.1735 -0.6637
   49SOL    HW2  147   2.198   2.649   2.601  2.3433  4.2330  0.7129
   50SOL     OW  148   1.662   0.068   0.201 -0.1528 -0.3075 -0.6048
   50SOL    HW1  149   1.680   0.152   0.257  1.1799 -2.4816  2.1287
   50SOL    HW2  150   1.561   0.049   0.189 -1.1633  0.5597  0.6780
   51SOL     OW  151   2.143   0.819   0.720 -0.1933 -0.3153  0.1287
   51SOL    HW1  152   2.057   0.866   0.690  2.1569 -2.2630  2.0556
   51SOL    HW2  153   2.136   0.718   0.716  0.7412 -1.0852  1.8364
   52SOL     OW  154   1.277   1.482   1.089  0.0246  0.8287 -0.1630
   52SOL    HW1  155   1.345   1.466   1.165 -0.2056 -4.6678 -1.2840
   52SOL    HW2  156   1.262   1.394   1.036  2.1673 -1.0957  0.0865
   53SOL     OW  157   1.021   1.584   2.491 -0.2659 -0.1517 -0.0920
   53SOL    HW1  158   1.017   1.596   2.388  1.0025  0.6919 -1.4635
   53SOL    HW2  159   0.961   1.657   2.539  0.9520  0.3076 -1.8532
   54SOL     OW  160   2.770   0.450   1.441 -0.3312 -0.1602  0.1465
   54SOL    HW1  161   2.786   0.356   1.482  0.5581 -2.9956 -0.7745
   54SOL    HW2  162   2.674   0.472   1.413  0.4564  0.4098  2.0798
   55SOL     OW  163   2.684   2.028   0.720  0.0159  0.0317 -0.0378
   55SOL    HW1  164   2.587   2.014   0.747  0.2993  1.3306  1.7498
   55SOL    HW2  165   2.683   2.074   0.630  0.1326  0.7103 -2.5642
   56SOL     OW  166   1.003   0.474   2.128 -0.0241 -0.0316  0.6743
   56SOL    HW1  167   1.076   0.431   2.183  2.4893 -0.0065  0.8686
   56SOL    HW2  168   1.020   0.476   2.025  2.2605  0.2072 -1.0566
   57SOL     OW  169   1.279   1.311   3.038 -0.3860  0.7499 -0.4200
   57SOL    HW1  170   1.353   1.373   3.009 -3.1716 -1.3485 -0.7846
   57SOL    HW2  171   1.252   1.245   2.961 -0.2010 -0.6195 -0.0585
   58SOL     OW  172   0.175   0.742   1.598 -0.3336 -0.0872 -0.6538
   58SOL    HW1  173   0.111   0.800   1.650  0.3060 -2.0977 -1.2108
   58SOL    HW2  174   0.273   0.773   1.608  0.9706 -1.1487  2.6369
   59SOL     OW  175   1.376   2.999   3.057 -0.3282  0.1971 -0.1724
   59SOL    HW1  176   1.464   2.981   3.004  0.5308  1.1366 -1.6260
   59SOL    HW2  177   1.399   3.077   0.021  1.9705  0.7015  0.4447
   60SOL     OW  178   0.112   1.837   0.513 -0.6164 -0.5537  0.2225
   60SOL    HW1  179   0.019   1.871   0.506  3.5073 -1.4655  0.6223
   60SOL    HW2  180   0.141   1.761   0.448  4.1256  0.7297  0.9126
   61SOL     OW  181   1.118   2.882   0.763  0.0062  0.1184 -0.5399
   61SOL    HW1  182   1.205   2.833   0.749  2.0444 -0.6975 -0.6114
   61SOL    HW2  183   1.053   2.822   0.813  0.9404  0.6787  0.2270
   62SOL     OW  184   1.964   1.830   2.612  0.2747 -0.1739 -0.1500
   62SOL    HW1  185   1.970   1.723   2.606  1.9372 -4.3441  0.8104
   62SOL    HW2  186   2.048   1.870   2.574  1.7791 -0.2579  0.1144
   63SOL     OW  187   2.276   2.558   0.730  0.0513 -0.0636 -0.2161
   63SOL    HW1  188   2.272   2.656   0.701  2.6241 -0.6757  1.2580
   63SOL    HW2  189   2.338   2.507   0.670 -2.3305  0.5496  1.3512
   64SOL     OW  190   1.601   0.894   2.458  0.0560  0.4749  0.3468
   64SOL    HW1  191   1.575   0.976   2.403 -1.6385  3.3128 -1.1198
   64SOL    HW2  192   1.524   0.831   2.463 -1.3506  0.7066  1.3834
   65SOL     OW  193   1.594   1.640   2.552 -0.1679 -0.8854  0.4191
   65SOL    HW1  194   1.547   1.556   2.573  1.4118  4.0834 -0.1118
   65SOL    HW2  195   1.534   1.726   2.552 -2.3946  3.2518  1.5142
   66SOL     OW  196   0.488   0.778   1.768 -0.6015  0.2824  0.4318
   66SOL    HW1  197   0.483   0.839   1.685 -1.3762 -0.1180 -3.8133
   66SOL    HW2  198   0.556   0.707   1.765 -4.7339  0.0616 -3.4465
   67SOL     OW  199   2.297   2.713   2.887 -0.4197  0.4929  0.9309
   67SOL    HW1  200   2.244   2.744   2.969 -2.8516  1.0398  0.5807
   67SOL    HW2  201   2.333   2.798   2.840 -0.5613  1.0927 -1.2100
   68SOL     OW  202   1.284   2.932   1.269  0.0188 -0.1796 -0.5330
   68SOL    HW1  203   1.186   2.943   1.303 -0.2902 -1.1856  0.0477
   68SOL    HW2  204   1.289   2.869   1.192  0.6630 -0.3779  0.4384
   69SOL     OW  205   0.494   2.660   0.256 -0.1194  0.3989 -0.2087
   69SOL    HW1  206   0.587   2.673   0.221 -3.1634 -1.4728  1.3302
   69SOL    HW2  207   0.467   2.563   0.261 -1.0686  1.9870  0.1629
   70SOL     OW  208   2.404   0.122   2.438 -0.5348  0.2596 -0.1440
   70SOL    HW1  209   2.377   0.122   2.537  0.9100  0.8469  0.0261
   70SOL    HW2  210   2.355   0.053   2.383 -0.9907 -0.4424  0.6072
   71SOL     OW  211   0.632   1.193   2.370 -0.1249  0.4162 -0.5148
   71SOL    HW1  212   0.591   1.201   2.462  0.6817  0.3555  1.4837
   71SOL    HW2  213   0.691   1.273   2.345  0.3964  2.6567  0.1703
   72SOL     OW  214   0.054   2.002   0.054  0.0826  1.0955  0.0619
   72SOL    HW1  215   0.050   1.917   0.105  1.8166  1.1297 -1.6661
   72SOL    HW2  216   3.061   2.025   0.018  1.3277  0.3649 -1.5186
   73SOL     OW  217   1.444   1.376   0.563 -0.7657  0.6033 -0.6707
   73SOL    HW1  218   1.515   1.432   0.615  0.4899 -0.6061  3.0463
   73SOL    HW2  219   1.360   1.422   0.538  5.1823  1.0344 -4.0865
   74SOL     OW  220   2.185   2.506   2.726 -0.5801  0.3735 -0.1302
   74SOL    HW1  221   2.166   2.420   2.784  0.8282 -1.2117 -0.0235
   74SOL    HW2  222   2.205   2.584   2.790 -0.3516  1.5744  1.7700
   75SOL     OW  223   2.427   1.943   0.835  0.5178  0.2149  0.0174
   75SOL    HW1  224   2.398   2.037   0.860  2.6247  0.1745 -2.4933
   75SOL    HW2  225   2.435   1.880   0.917 -2.0834 -1.3054 -0.8759
   76SOL     OW  226   1.924   2.470   1.525  0.0085  0.5760 -0.4489
   76SOL    HW1  227   1.977   2.519   1.453 -0.3686  1.5444  1.5267
   76SOL    HW2  228   1.992   2.422   1.586 -0.2856  2.8046 -0.2913
   77SOL     OW  229   2.275   2.871   2.135 -0.0982 -0.6656  0.1570
   77SOL    HW1  230   2.174   2.869   2.134 -0.3485  1.5034  2.9121
   77SOL    HW2  231   2.311   2.922   2.054 -1.9294  0.5642  0.0451
   78SOL     OW  232   1.624   0.915   2.962  0.2228 -0.1240  0.1020
   78SOL    HW1  233   1.546   0.864   3.004 -0.5256  1.6520 -2.7920
   78SOL    HW2  234   1.687   0.848   2.925 -2.5179  0.8959  0.3179
   79SOL     OW  235   2.395   1.600   2.658  0.2087  0.0041  0.8153
   79SOL    HW1  236   2.462   1.663   2.611 -0.3682 -0.8622  1.1658
   79SOL    HW2  237   2.363   1.632   2.750 -0.7617  1.4437  3.3108
   80SOL     OW  238   1.920   1.570   1.595 -0.7241  0.6509 -0.2712
   80SOL    HW1  239   1.968   1.558   1.686  1.0562 -0.4712  1.8599
   80SOL    HW2  240   1.962   1.646   1.536 -1.2436 -0.4630  3.0090
   81SOL     OW  241   1.514   0.538   1.326  0.2903 -0.2094 -0.4602
   81SOL    HW1  242   1.452   0.606   1.374  3.0112  2.6113  0.2345
   81SOL    HW2  243   1.467   0.463   1.282  1.5946  1.5817  0.1350
   82SOL     OW  244   1.590   2.362   1.820  0.6307  0.0013  0.4758
   82SOL    HW1  245   1.677   2.322   1.853 -0.8498 -0.0417  0.1335
   82SOL    HW2  246   1.594   2.461   1.804  0.7510 -0.5674 -0.0353
   83SOL     OW  247   0.162   0.120   0.571 -0.5373 -0.3526  0.3641
   83SOL    HW1  248   0.233   0.183   0.519  0.1896  1.9318 -1.5706
   83SOL    HW2  249   0.066   0.159   0.556 -2.3757 -0.1082 -1.2104
   84SOL     OW  250   0.715   1.013   0.171  0.0080 -0.0472  0.1811
   84SOL    HW1  251   0.700   1.024   0.072  2.1775 -0.7021 -0.7782
   84SOL    HW2  252   0.654   0.938   0.207  0.1433 -0.5990  1.3457
   85SOL     OW  253   2.644   2.039   1.578 -0.4297  0.0714 -0.5347
   85SOL    HW1  254   2.653   2.141   1.566 -2.6592 -0.2000 -3.8143
   85SOL    HW2  255   2.687   1.999   1.664 -1.3618 -0.4591  2.3536
   86SOL     OW  256   0.091   2.692   1.410 -0.3818 -0.0176 -0.1260
   86SOL    HW1  257   0.043   2.607   1.442  2.2651 -2.1239 -0.0119
   86SOL    HW2  258   0.110   2.757   1.485  1.9584 -2.1579  1.3321
   87SOL     OW  259   0.573   0.225   2.252 -0.5025  0.5679  0.0267
   87SOL    HW1  260   0.637   0.302   2.241 -2.0073 -0.1802  0.4600
   87SOL    HW2  261   0.599   0.167   2.335 -0.7908  0.6444  1.2299
   88SOL     OW  262   0.398   1.976   1.166 -0.2806  0.4413  0.0538
   88SOL    HW1  263   0.368   2.037   1.240  0.5209  0.2378  1.3232
   88SOL    HW2  264   0.380   2.027   1.078 -0.5685  0.3537 -2.9793
   89SOL     OW  265   1.121   0.578   1.482  0.1222  1.0088 -0.6674
   89SOL    HW1  266   1.211   0.621   1.463 -0.7484  0.5397  1.8110
   89SOL    HW2  267   1.120   0.479   1.444  0.3116 -3.0827 -0.4061
   90SOL     OW  268   2.618   1.035   1.576 -0.5675 -0.5095 -0.5348
   90SOL    HW1  269   2.712   1.017   1.550 -0.2753  0.0327 -0.9523
   90SOL    HW2  270   2.614   1.072   1.670 -0.6967  0.2529 -0.6625
   91SOL     OW  271   1.419   1.023   1.072 -0.4874  0.2037 -0.0586
   91SOL    HW1  272   1.375   0.932   1.085  3.4760 -1.1571  0.1108
   91SOL    HW2  273   1.439   1.042   0.973  0.9328 -0.8566  0.8373
   92SOL     OW  274   2.589   0.952   0.907  0.0191 -1.0902  0.0177
   92SOL    HW1  275   2.571   1.051   0.904 -1.1944 -0.4440  1.2822
   92SOL    HW2  276   2.529   0.900   0.845 -0.9454  2.5158 -1.3586
   93SOL     OW  277   2.427   0.682   2.527  0.1904 -0.6809  0.6214
   93SOL    HW1  278   2.457   0.661   2.432 -0.3153  1.1698  0.4124
   93SOL    HW2  279   2.352   0.748   2.530  2.1509 -1.7310 -2.3164
   94SOL     OW  280   2.410   1.830   2.432  0.0141 -0.0488  0.6117
   94SOL    HW1  281   2.420   1.851   2.333  0.5202 -0.4067 -0.0598
   94SOL    HW2  282   2.322   1.867   2.468 -0.7356  0.7995 -1.2834
   95SOL     OW  283   2.130   0.559   0.984  0.4621 -0.0796 -0.2790
   95SOL    HW1  284   2.112   0.472   1.031  0.2945 -1.4852 -0.0494
   95SOL    HW2  285   2.193   0.617   1.036 -0.4142 -1.3683  0.2983
   96SOL     OW  286   2.489   2.955   1.954  0.0819 -0.4318  0.3291
   96SOL    HW1  287   2.447   2.947   1.859  1.8115  0.6848 -3.6490
   96SOL    HW2  288   2.501   3.054   1.981  1.2571 -0.8373  0.4635
   97SOL     OW  289   2.710   0.859   1.250  0.2146 -0.8513  0.0250
   97SOL    HW1  290   2.771   0.774   1.254  0.7162  0.4017  1.7029
   97SOL    HW2  291   2.619   0.831   1.288 -0.2379 -2.8689 -1.8826
   98SOL     OW  292   1.526   2.122   1.733  0.3172 -0.2245  0.5156
   98SOL    HW1  293   1.598   2.105   1.664  1.2661  1.9998  0.1400
   98SOL    HW2  294   1.540   2.221   1.769  2.1372 -0.8106 -0.1027
   99SOL     OW  295   2.490   2.242   1.801 -0.3285  0.4765  0.0515
   99SOL    HW1  296   2.564   2.175   1.818  1.6091  1.1483  0.8813
   99SOL    HW2  297   2.443   2.228   1.711 -0.3144  2.9781  1.1534
  100SOL     OW  298   0.953   0.824   2.762  0.3042 -0.6760  0.3635
  100SOL    HW1  299   0.894   0.871   2.700  0.7550 -1.5912  2.7787
  100SOL    HW2  300   1.018   0.901   2.789  0.4091  0.0167  1.4015
  101SOL     OW  301   2.150   0.223   2.883  0.0025 -0.3413 -0.4474
  101SOL    HW1  302   2.049   0.200   2.876 -3.1019  0.3665  0.3341
  101SOL    HW2  303   2.173   0.274   2.971 -0.4150  1.2554  1.1644
  102SOL     OW  304   0.403   0.487   1.500 -0.2174  0.3060  0.3944
  102SOL    HW1  305   0.481   0.530   1.549 -1.3809  1.7570 -6.4301
  102SOL    HW2  306   0.316   0.487   1.554 -0.8815 -0.4499 -2.1846
  103SOL     OW  307   0.260   0.512   3.022  0.0641  0.5101 -0.4312
  103SOL    HW1  308   0.359   0.527   3.027 -1.1024 -0.4267 -2.1540
  103SOL    HW2  309   0.208   0.567   2.952 -3.4924  4.0750  0.5292
  104SOL     OW  310   0.804   0.407   2.546  0.2352 -0.2471 -0.2126
  104SOL    HW1  311   0.864   0.479   2.588 -0.1494  2.2821 -2.0736
  104SOL    HW2  312   0.802   0.321   2.601  0.0678  1.0887 -2.9043
  105SOL     OW  313   2.448   1.848   1.848 -0.0867 -0.1897 -0.1172
  105SOL    HW1  314   2.376   1.910   1.877  1.3080 -1.8664  0.5627
  105SOL    HW2  315   2.536   1.893   1.846  0.7944  0.7072 -1.5780
  106SOL     OW  316   1.903   0.581   0.337  0.2797  0.6666  0.3100
  106SOL    HW1  317   1.894   0.527   0.421 -0.9347  1.0388 -1.0412
  106SOL    HW2  318   1.996   0.570   0.298 -0.1280 -0.5912 -0.5789
  107SOL     OW  319   2.947   1.672   1.102 -0.1032 -0.0100  0.1072
  107SOL    HW1  320   2.979   1.753   1.151 -0.8494 -0.1759 -1.5998
  107SOL    HW2  321   2.990   1.671   1.013 -1.9587 -0.1433 -0.5163
  108SOL     OW  322   2.587   2.591   1.715 -0.3198  1.1201  0.1268
  108SOL    HW1  323   2.628   2.662   1.779  1.9345  2.8365 -2.8244
  108SOL    HW2  324   2.663   2.530   1.675  0.0351 -1.0442  1.1698
  109SOL     OW  325   2.013   2.599   0.836 -0.5607 -0.4586  0.6598
  109SOL    HW1  326   2.110   2.568   0.820 -1.9931  0.3287  0.1782
  109SOL    HW2  327   1.957   2.519   0.860 -1.0834 -0.4364 -1.3030
  110SOL     OW  328   0.558   1.813   2.331 -0.2746  0.0304  0.1446
  110SOL    HW1  329   0.515   1.812   2.423 -0.7225 -1.5989 -0.7061
  110SOL    HW2  330   0.549   1.908   2.287 -1.1747  1.6453  1.2081
  111SOL     OW  331   1.499   2.183   2.210 -0.8337  0.5096 -0.1153
  111SOL    HW1  332   1.418   2.228   2.176 -0.5219 -3.0615  0.6476
  111SOL    HW2  333   1.571   2.167   2.140 -1.5475 -1.4760  1.9429
  112SOL     OW  334   2.036   2.016   3.066 -0.2092  0.1752  0.7104
  112SOL    HW1  335   2.098   2.081   0.013  1.2839  0.0683  1.4529
  112SOL    HW2  336   1.966   2.074   3.017 -2.1054  0.6005 -1.3167
  113SOL     OW  337   1.572   2.074   1.307 -0.3491 -0.0178  0.7141
  113SOL    HW1  338   1.496   2.006   1.302  0.0671  0.0130  3.5908
  113SOL    HW2  339   1.615   2.077   1.403  0.6657 -0.9551  0.9562
  114SOL     OW  340   2.903   1.161   0.755 -0.2389  0.0854 -0.8629
  114SOL    HW1  341   3.005   1.154   0.736  0.4798  0.3421 -0.5499
  114SOL    HW2  342   2.889   1.203   0.848  1.0619  0.9278  1.3876
  115SOL     OW  343   0.869   0.777   0.232 -0.2403  0.2363 -0.2072
  115SOL    HW1  344   0.834   0.873   0.227 -1.9967  0.3575  0.0388
  115SOL    HW2  345   0.810   0.702   0.276  1.1732  0.7861 -0.6003
  116SOL     OW  346   2.625   1.396   2.600 -0.0520 -0.1083 -0.1173
  116SOL    HW1  347   2.712   1.339   2.608  2.8282 -2.6287 -0.6532
  116SOL    HW2  348   2.645   1.480   2.544  2.9196  0.6751 -0.0259
  117SOL     OW  349   0.091   3.078   0.774  0.9220  0.1282  0.3721
  117SOL    HW1  350   0.107   0.040   0.693  0.8271 -0.8680  0.7211
  117SOL    HW2  351   0.139   2.988   0.769  0.3049 -0.3606  0.5227
  118SOL     OW  352   0.854   1.729   2.679 -0.2274 -0.0721  0.2814
  118SOL    HW1  353   0.920   1.759   2.755  3.0781  1.2429 -1.1365
  118SOL    HW2  354   0.758   1.761   2.699 -4.0354 -1.1702 -1.2501
  119SOL     OW  355   0.364   2.396   0.223  0.3490  0.0614 -0.0869
  119SOL    HW1  356   0.348   2.308   0.274  0.1135 -2.7038  1.0597
  119SOL    HW2  357   0.286   2.459   0.242  1.4351  1.8297 -2.1672
  120SOL     OW  358   1.386   0.769   3.027  0.3331  0.3618  0.4075
  120SOL    HW1  359   1.379   0.729   2.933 -1.1373  0.3023 -1.6032
  120SOL    HW2  360   1.298   0.813   3.059 -1.2144  0.0125  0.5731
  121SOL     OW  361   1.366   2.747   0.778  0.0140 -0.3997 -0.6437
  121SOL    HW1  362   1.351   2.662   0.725  0.8649  1.6337  0.4981
  121SOL    HW2  363   1.453   2.737   0.833 -1.2300  0.2869 -2.0254
  122SOL     OW  364   2.248   2.592   1.507 -0.4604 -0.2638  0.5937
  122SOL    HW1  365   2.324   2.652   1.487  1.8600  2.6238 -0.5847
  122SOL    HW2  366   2.171   2.610   1.446  0.4601 -2.1135  2.0229
  123SOL     OW  367   0.480   2.192   0.641 -0.0590 -0.0833  0.5050
  123SOL    HW1  368   0.462   2.241   0.729 -0.6083  1.9816  0.3225
  123SOL    HW2  369   0.418   2.227   0.564  1.5147 -0.8620  0.4534
  124SOL     OW  370   2.601   0.620   0.311  0.3488  0.1176 -0.0690
  124SOL    HW1  371   2.519   0.562   0.299 -3.6852 -0.4125  0.3991
  124SOL    HW2  372   2.676   0.564   0.351  1.2523 -0.7409 -0.1697
  125SOL     OW  373   0.565   1.205   0.338  0.5021  0.0877  0.2296
  125SOL    HW1  374   0.557   1.139   0.414  1.1500  3.4127 -0.6064
  125SOL    HW2  375   0.595   1.154   0.249  1.4969 -1.9105 -1.0877
  126SOL     OW  376   0.269   1.591   1.102  0.2898 -0.5009  0.3833
  126SOL    HW1  377   0.349   1.589   1.036  0.6068  2.5021 -0.3337
  126SOL    HW2  378   0.246   1.683   1.144 -1.4243  2.3748  0.5655
  127SOL     OW  379   0.899   1.889   2.285 -0.6401  0.1844  0.2792
  127SOL    HW1  380   0.946   1.796   2.278  0.1307 -0.5894 -0.1802
  127SOL    HW2  381   0.870   1.908   2.386 -0.8377 -0.7779  2.4785
  128SOL     OW  382   1.037   1.125   0.011  0.2244  0.7556 -1.0056
  128SOL    HW1  383   1.072   1.215   0.001 -2.0866 -3.6420  1.6929
  128SOL    HW2  384   0.995   1.117   0.108 -1.4101 -0.7448  3.2865
  129SOL     OW  385   2.362   1.438   0.620  0.4760 -0.4975  0.5446
  129SOL    HW1  386   2.387   1.541   0.618  0.7326  1.3802  1.1977
  129SOL    HW2  387   2.305   1.410   0.702  2.2522 -2.6909  0.7962
  130SOL     OW  388   2.516   1.491   1.315  0.1172  0.0871 -0.6604
  130SOL    HW1  389   2.595   1.544   1.282  1.1780 -0.3014 -0.1296
  130SOL    HW2  390   2.539   1.397   1.351  0.3495 -3.7323  2.4144
  131SOL     OW  391   3.068   2.880   2.947  0.8473 -0.0735 -0.3070
  131SOL    HW1  392   2.977   2.919   2.966  1.1839 -1.5260 -0.1129
  131SOL    HW2  393   0.038   2.929   3.006  0.7724  1.0143  1.9739
  132SOL     OW  394   0.480   1.572   0.627 -0.2197  0.6587  0.1186
  132SOL    HW1  395   0.559   1.550   0.567  1.1944  0.2407 -1.1965
  132SOL    HW2  396   0.401   1.511   0.600 -1.0851  1.0346 -2.4656
  133SOL     OW  397   0.821   0.473   1.450 -0.9039 -0.0806  0.3738
  133SOL    HW1  398   0.891   0.506   1.511 -1.5601 -1.5138  2.8873
  133SOL    HW2  399   0.804   0.379   1.480  2.9337  0.8020  2.1803
  134SOL     OW  400   0.238   1.822   2.802 -0.2140  0.1275  1.0450
  134SOL    HW1  401   0.148   1.780   2.777  2.4405  1.7909  3.0929
  134SOL    HW2  402   0.227   1.918   2.838 -0.3716  2.2552  0.9117
  135SOL     OW  403   1.654   0.466   1.580 -0.8973 -0.2170  0.0409
  135SOL    HW1  404   1.620   0.504   1.491  3.0581  1.0181  3.6820
  135SOL    HW2  405   1.588   0.408   1.625  3.1817 -0.0774 -1.4401
  136SOL     OW  406   0.087   1.380   0.279  0.0109  0.4202 -0.2160
  136SOL    HW1  407   0.168   1.327   0.317 -0.6573 -2.8325 -0.1327
  136SOL    HW2  408   0.016   1.391   0.350 -0.4166  2.2610 -0.8119
  137SOL     OW  409   0.083   1.190   1.019 -0.1363 -0.0293  0.0290
  137SOL    HW1  410   0.087   1.225   0.923 -2.4834  2.4827 -0.4509
  137SOL    HW2  411   0.043   1.260   1.083 -0.8657  0.4032  1.7232
  138SOL     OW  412   1.941   0.774   0.984  0.3457  0.0941  0.4702
  138SOL    HW1  413   2.005   0.697   0.974  1.3830 -1.6967  2.7301
  138SOL    HW2  414   1.922   0.791   1.088 -0.1221 -0.7046  2.5752
  139SOL     OW  415   1.515   2.544   0.466 -0.4341 -0.2157  0.1393
  139SOL    HW1  416   1.453   2.602   0.523  0.9984 -0.1176  1.9256
  139SOL    HW2  417   1.545   2.463   0.519 -1.7487 -1.5926 -1.5722
  140SOL     OW  418   1.184   1.599   1.620 -0.4722  0.0922 -0.0370
  140SOL    HW1  419   1.133   1.673   1.670 -0.2451  0.5995  0.9785
  140SOL    HW2  420   1.168   1.508   1.666 -0.7318 -0.4794  1.7363
  141SOL     OW  421   1.600   2.137   0.460 -0.7989 -0.2121  0.0624
  141SOL    HW1  422   1.699   2.131   0.425  0.8516  1.8365  0.5979
  141SOL    HW2  423   1.587   2.057   0.518  0.9200 -1.0819 -2.7410
  142SOL     OW  424   1.025   0.633   2.936  0.1386 -0.0715 -0.3742
  142SOL    HW1  425   1.120   0.654   2.960  0.8013 -4.0862 -4.8981
  142SOL    HW2  426   0.986   0.714   2.889 -1.5171 -0.1815 -1.0295
  143SOL     OW  427   0.431   2.057   2.889  0.2006  1.1703 -0.2899
  143SOL    HW1  428   0.334   2.070   2.867  0.5009  2.2208  1.9475
  143SOL    HW2  429   0.436   1.987   2.959 -0.2944  1.5822 -3.1093
  144SOL     OW  430   1.556   2.938   1.316 -0.8473 -0.3548 -0.2249
  144SOL    HW1  431   1.461   2.968   1.333  2.6883  0.7875 -0.4193
  144SOL    HW2  432   1.596   2.952   1.221  1.7219  3.6514 -2.5271
  145SOL     OW  433   2.016   1.063   2.949  0.1689 -0.0963 -0.6187
  145SOL    HW1  434   2.056   1.058   3.044  3.0901 -2.1124 -1.0897
  145SOL    HW2  435   1.970   1.155   2.934  1.8089 -0.3302 -1.3666
  146SOL     OW  436   0.081   2.613   0.957 -0.1367 -0.4606  0.3848
  146SOL    HW1  437   0.048   2.708   0.967 -1.2237  0.4057 -0.4577
  146SOL    HW2  438   0.068   2.581   0.863 -0.2185  0.2466  1.1717
  147SOL     OW  439   2.200   3.096   1.933 -0.3133 -0.1119  0.1323
  147SOL    HW1  440   2.145   0.075   1.963  0.1688 -0.3494  1.2077
  147SOL    HW2  441   2.294   0.035   1.911 -0.8695  0.4311  1.3113
  148SOL     OW  442   0.910   2.793   2.092  0.3982 -0.7417  0.5181
  148SOL    HW1  443   0.958   2.823   2.003  0.1076 -0.4929 -1.7481
  148SOL    HW2  444   0.963   2.842   2.170  2.4890  2.9670  2.3251
  149SOL     OW  445   1.835   0.153   2.477 -0.9323 -0.3234 -0.1145
  149SOL    HW1  446   1.754   0.209   2.452  1.2950 -1.0687  0.0838
  149SOL    HW2  447   1.886   0.124   2.397 -3.8289 -1.7222  1.2841
  150SOL     OW  448   2.935   0.097   0.304 -0.0723  0.1511 -0.0040
  150SOL    HW1  449   3.017   0.105   0.250  0.0045 -0.6303  0.6989
  150SOL    HW2  450   2.949   0.140   0.396 -0.1558  2.0808  0.2999
  151SOL     OW  451   0.374   2.148   0.311  0.8712 -0.2188 -0.6181
  151SOL    HW1  452   0.420   2.078   0.370 -2.2010 -2.0125  0.3789
  151SOL    HW2  453   0.271   2.139   0.304 -1.2070  0.3040 -0.8031
  152SOL     OW  454   3.061   0.449   0.592 -0.2060  0.1728 -0.5901
  152SOL    HW1  455   0.011   0.495   0.666 -0.0186 -0.5675  2.6975
  152SOL    HW2  456   2.977   0.502   0.578  4.4126 -2.1292  0.9707
  153SOL     OW  457   2.423   0.458   0.997 -0.3712  0.2107 -0.0036
  153SOL    HW1  458   2.357   0.388   0.977  1.8743  1.4830  1.4713
  153SOL    HW2  459   2.519   0.427   0.977  1.9683 -1.9751  0.1819
  154SOL     OW  460   0.760   0.431   2.252 -0.1550  0.1364 -0.2200
  154SOL    HW1  461   0.761   0.436   2.357 -1.9351 -2.1057 -1.6313
  154SOL    HW2  462   0.857   0.423   2.214  3.3982  2.0565 -0.7049
  155SOL     OW  463   0.664   1.927   1.084  0.3193 -0.0246  0.0427
  155SOL    HW1  464   0.577   1.971   1.107  2.2176  0.6107 -0.5874
  155SOL    HW2  465   0.712   1.905   1.165 -0.7009  1.5629 -1.7571
  156SOL     OW  466   2.399   1.952   0.096 -0.0433 -0.1830 -0.2272
  156SOL    HW1  467   2.331   2.018   0.056 -0.2359 -0.6986  1.1655
  156SOL    HW2  468   2.363   1.924   0.188  0.1371 -0.3185 -1.5704
  157SOL     OW  469   1.097   0.622   0.451  0.7079  0.4161  0.7485
  157SOL    HW1  470   1.032   0.628   0.523  5.8062 -2.9496 -0.6711
  157SOL    HW2  471   1.061   0.667   0.369 -1.4047  1.0426 -0.4964
  158SOL     OW  472   2.430   2.937   2.774 -0.4166 -0.1876  0.0506
  158SOL    HW1  473   2.429   2.902   2.679  0.6105  1.4402 -0.1653
  158SOL    HW2  474   2.399   3.033   2.776 -2.3858  1.2025  0.3588
  159SOL     OW  475   0.521   0.347   0.761 -0.3091 -0.5784 -0.1942
  159SOL    HW1  476   0.496   0.374   0.667 -2.2111 -1.7389  0.2221
  159SOL    HW2  477   0.448   0.280   0.796 -1.5582 -3.2638 -0.7174
  160SOL     OW  478   1.222   1.411   2.463  0.0675 -0.1296 -0.2390
  160SOL    HW1  479   1.157   1.489   2.482  0.4570 -0.8105  0.6505
  160SOL    HW2  480   1.244   1.368   2.552  1.3605 -0.3050  0.5487
  161SOL     OW  481   0.039   1.307   2.633  1.0639 -0.7047  0.2143
  161SOL    HW1  482   0.083   1.310   2.724 -3.2082  0.5054 -0.2221
  161SOL    HW2  483   3.039   1.284   2.638 -1.4363  2.1084  1.2639
  162SOL     OW  484   0.529   2.304   1.434  0.4281  0.1436  0.3586
  162SOL    HW1  485   0.543   2.330   1.531  2.2719 -0.3149 -1.2058
  162SOL    HW2  486   0.608   2.245   1.404  0.7620  2.0522  0.5762
  163SOL     OW  487   2.002   0.115   2.254 -0.0473  0.1340 -0.1298
  163SOL    HW1  488   2.080   0.053   2.245 -1.8630  0.8377 -0.5016
  163SOL    HW2  489   1.985   0.161   2.161 -0.2579 -0.7080 -1.6026
  164SOL     OW  490   2.002   1.752   0.354 -0.2835 -0.9821 -0.4189
  164SOL    HW1  491   1.919   1.755   0.409  1.1449  1.1782 -0.5769
  164SOL    HW2  492   2.065   1.671   0.378 -1.2673 -2.0989  0.2874
  165SOL     OW  493   2.818   0.162   1.488 -0.4019 -0.3054  0.1566
  165SOL    HW1  494   2.889   0.106   1.540  0.6932 -2.1736  3.2018
  165SOL    HW2  495   2.865   0.198   1.402  2.4738  1.0421 -1.7266
  166SOL     OW  496   2.114   1.063   0.117 -0.1484 -0.2821 -0.3578
  166SOL    HW1  497   2.204   1.097   0.087  1.2394  1.2534  1.5666
  166SOL    HW2  498   2.074   1.122   0.190  0.3150  0.7495  1.0126
  167SOL     OW  499   2.974   0.773   0.102  0.4714  0.0278  0.4696
  167SOL    HW1  500   2.938   0.677   0.094 -0.2964  1.9910 -2.5473
  167SOL    HW2  501   2.974   0.816   0.011 -0.9985  1.2588 -1.9158
  168SOL     OW  502   1.598   2.732   2.566 -0.1012  0.1714 -0.2784
  168SOL    HW1  503   1.499   2.756   2.573  1.1346  1.7786  0.9997
  168SOL    HW2  504   1.614   2.662   2.640 -0.5028 -0.8299  0.4505
  169SOL     OW  505   0.719   1.681   0.324 -0.0672  0.6627  0.0609
  169SOL    HW1  506   0.693   1.688   0.225  0.3002 -0.8904 -0.7241
  169SOL    HW2  507   0.671   1.609   0.371 -0.6945  1.7891 -1.3819
  170SOL     OW  508   0.241   0.232   1.089  0.3643  0.0888  0.4833
  170SOL    HW1  509   0.298   0.294   1.151  2.3155  2.0950 -2.0318
  170SOL    HW2  510   0.250   0.138   1.127 -1.6196  0.2415 -2.4453
  171SOL     OW  511   1.480   2.264   2.916  0.0872  0.6212 -0.0155
  171SOL    HW1  512   1.567   2.302   2.947 -1.5152  0.4874 -2.0226
  171SOL    HW2  513   1.478   2.235   2.816 -0.8842  0.8626 -3.4551
  172SOL     OW  514   2.784   2.950   1.194 -0.3541  0.0430  0.2340
  172SOL    HW1  515   2.711   2.947   1.263  0.5438 -2.1986 -3.4381
  172SOL    HW2  516   2.878   2.953   1.236  0.4337  1.8769 -0.3180
  173SOL     OW  517   1.590   0.650   2.637 -0.0080 -0.2297 -0.2062
  173SOL    HW1  518   1.665   0.673   2.703  0.5319 -1.4419  3.4466
  173SOL    HW2  519   1.621   0.630   2.537 -0.2533 -0.8020  0.1857
  174SOL     OW  520   1.441   0.049   2.756  0.3032 -0.1945  0.3475
  174SOL    HW1  521   1.474   0.121   2.822  3.7806 -2.8178  0.8997
  174SOL    HW2  522   1.527   0.013   2.712 -1.1670  3.1920 -0.6214
  175SOL     OW  523   2.234   1.992   0.579  0.1621 -0.0906 -0.4589
  175SOL    HW1  524   2.219   2.080   0.626 -1.8839  0.2937 -0.5247
  175SOL    HW2  525   2.171   1.918   0.617 -0.6513 -1.3671  1.6489
  176SOL     OW  526   1.514   0.233   2.927  0.1306 -0.3377 -0.4207
  176SOL    HW1  527   1.496   0.334   2.940  0.7028 -0.5202  1.9793
  176SOL    HW2  528   1.612   0.211   2.953 -0.1900 -3.4250  0.8422
  177SOL     OW  529   1.028   1.667   0.315 -1.0002  0.4866 -0.8272
  177SOL    HW1  530   1.059   1.759   0.288  0.0910 -2.6113 -1.4294
  177SOL    HW2  531   0.931   1.650   0.289  0.9467 -1.7528 -1.8058
  178SOL     OW  532   2.516   2.324   0.041 -0.3184 -0.0016 -0.5197
  178SOL    HW1  533   2.451   2.266   0.093  1.0162 -1.5779  1.4016
  178SOL    HW2  534   2.464   2.404   0.012 -0.1204  1.5255  2.9438
  179SOL     OW  535   2.857   2.662   2.885 -0.1348 -0.4422  0.5429
  179SOL    HW1  536   2.944   2.714   2.861  0.9880  1.3858 -0.5002
  179SOL    HW2  537   2.781   2.723   2.867  1.5427 -2.8349 -1.9768
  180SOL     OW  538   1.787   1.637   0.966  0.3695  0.6817 -0.3135
  180SOL    HW1  539   1.831   1.638   1.063  1.1889  0.3428  0.7395
  180SOL    HW2  540   1.713   1.565   0.949 -1.0469  0.9011 -1.2438
  181SOL     OW  541   1.882   0.675   2.114 -0.1551  0.6263  0.4440
  181SOL    HW1  542   1.845   0.751   2.173 -1.5235 -2.3840 -3.7958
  181SOL    HW2  543   1.807   0.608   2.101 -2.1101 -0.6240 -0.5645
  182SOL     OW  544   2.479   2.823   2.525  0.2269 -0.0796 -0.0301
  182SOL    HW1  545   2.528   2.743   2.563  1.6906 -1.8776 -0.5616
  182SOL    HW2  546   2.511   2.843   2.431  1.0323 -1.1904 -1.0021
  183SOL     OW  547   1.662   0.564   2.016  0.5633 -0.1113 -0.8423
  183SOL    HW1  548   1.671   0.628   1.937 -0.2966  1.6629  0.1057
  183SOL    HW2  549   1.654   0.464   1.987 -1.6862 -1.0418 -4.4783
  184SOL     OW  550   0.289   1.193   1.194 -0.6376 -0.3878  0.3995
  184SOL    HW1  551   0.218   1.199   1.126  3.2725  1.2606  1.3925
  184SOL    HW2  552   0.255   1.159   1.280  2.2853  0.2918  0.2514
  185SOL     OW  553   1.878   0.501   0.629 -0.2022  0.0475 -0.1871
  185SOL    HW1  554   1.970   0.517   0.666  0.3262  1.5515 -0.2636
  185SOL    HW2  555   1.816   0.447   0.692 -4.0079  4.2435  0.6069
  186SOL     OW  556   0.441   2.787   2.941 -0.0430 -0.0736  0.0929
  186SOL    HW1  557   0.388   2.700   2.926 -2.8078  4.8765 -1.1651
  186SOL    HW2  558   0.413   2.826   3.030 -1.1436 -0.6415  1.9983
  187SOL     OW  559   2.485   0.783   2.961  0.1497  0.1104  0.1984
  187SOL    HW1  560   2.470   0.865   2.899 -0.9252  0.0959 -1.6218
  187SOL    HW2  561   2.575   0.738   2.942 -1.7945 -2.1514  0.1117
  188SOL     OW  562   0.085   1.535   1.542  0.3224 -0.5140  0.0693
  188SOL    HW1  563   0.070   1.446   1.587 -0.5637  1.2785 -2.0821
  188SOL    HW2  564   0.187   1.541   1.528  0.5372  0.3724  2.3649
  189SOL     OW  565   2.636   0.285   0.048 -0.0593 -0.2151 -0.3996
  189SOL    HW1  566   2.683   0.304   0.141  1.5983  0.4577  0.6445
  189SOL    HW2  567   2.659   0.361   3.080 -0.4933  0.5419 -2.0173
  190SOL     OW  568   1.409   1.086   1.913 -0.5481  0.0530 -0.2469
  190SOL    HW1  569   1.408   1.054   2.012  0.2590 -1.5929 -0.0317
  190SOL    HW2  570   1.424   1.188   1.912  0.5978 -1.7146  0.8308
  191SOL     OW  571   2.994   0.408   1.881  0.6777 -0.2753  0.1570
  191SOL    HW1  572   2.918   0.377   1.823  0.2555  0.9606  1.2586
  191SOL    HW2  573   2.997   0.508   1.891  1.0298  1.1547 -1.5526
  192SOL     OW  574   2.013   1.331   1.054  0.3979  0.0257 -0.6297
  192SOL    HW1  575   1.981   1.324   0.960  0.2315  1.4704 -0.0265
  192SOL    HW2  576   2.005   1.426   1.087 -2.2050 -0.4814 -1.3283
  193SOL     OW  577   1.283   0.794   1.059 -0.0326  0.3029 -0.1672
  193SOL    HW1  578   1.244   0.797   0.963 -1.7674 -0.4021 -0.3903
  193SOL    HW2  579   1.220   0.741   1.120  0.1971 -0.2504 -1.2394
  194SOL     OW  580   1.011   2.480   1.805 -0.1238 -0.4714 -0.1430
  194SOL    HW1  581   1.088   2.536   1.770 -0.9808  0.8576 -1.2894
  194SOL    HW2  582   0.933   2.541   1.823  0.5209  0.6420  1.1983
  195SOL     OW  583   1.789   0.205   2.922  0.1698 -0.8384 -0.0853
  195SOL    HW1  584   1.836   0.171   2.840 -0.1837 -2.0988  2.1631
  195SOL    HW2  585   1.818   0.148   3.001  0.5102  1.2458 -0.0618
  196SOL     OW  586   1.085   2.216   1.804 -0.4790  0.1726  0.2445
  196SOL    HW1  587   1.013   2.145   1.789  1.7127 -0.5292 -0.6497
  196SOL    HW2  588   1.044   2.309   1.808 -1.4969  0.2599 -3.1143
  197SOL     OW  589   0.888   2.942   1.158  0.1049  0.1078  0.2346
  197SOL    HW1  590   0.920   2.856   1.111  0.2602  3.3174 -2.2829
  197SOL    HW2  591   0.929   3.024   1.114  0.7231 -2.8493 -0.6165
  198SOL     OW  592   0.930   1.012   0.849  0.1555  0.4196  0.5180
  198SOL    HW1  593   0.949   1.008   0.949 -0.5935  1.4563  3.8300
  198SOL    HW2  594   0.825   1.007   0.835 -4.7240 -0.2136 -2.3198
  199SOL     OW  595   3.018   2.626   1.807 -0.3541 -0.4197 -0.3327
  199SOL    HW1  596   3.036   2.726   1.812  1.1992  2.4587 -2.3543
  199SOL    HW2  597   2.933   2.601   1.854 -0.9164  2.7622  1.6103
  200SOL     OW  598   2.026   2.186   2.091  0.2153  0.2852 -0.1258
  200SOL    HW1  599   2.109   2.220   2.049 -0.0921 -2.5428 -1.9649
  200SOL    HW2  600   2.041   2.191   2.195  0.4445 -2.2835 -1.6935
  201SOL     OW  601   0.264   1.655   2.000 -0.5272  0.4406 -0.4006
  201SOL    HW1  602   0.239   1.674   1.904 -2.9806 -0.1027 -0.1256
  201SOL    HW2  603   0.307   1.562   2.005 -3.3672 -1.3991 -0.5745
  202SOL     OW  604   2.400   0.430   0.221 -0.2580  0.0237 -0.6542
  202SOL    HW1  605   2.462   0.421   0.139  1.1472 -0.3566 -1.5280
  202SOL    HW2  606   2.433   0.369   0.301  3.0023 -1.5806  2.4088
  203SOL     OW  607   1.032   2.371   2.072 -0.0838 -0.1242  0.0526
  203SOL    HW1  608   0.967   2.405   2.143  1.5875  1.0535  1.3323
  203SOL    HW2  609   1.002   2.405   1.976 -1.0189  4.3639 -1.2935
  204SOL     OW  610   1.304   2.105   1.906  0.4252  0.2307 -0.4323
  204SOL    HW1  611   1.380   2.123   1.838 -1.0387 -0.3005 -0.7714
  204SOL    HW2  612   1.220   2.137   1.868  1.0624 -0.3295 -0.4156
  205SOL     OW  613   1.439   1.824   2.085 -0.4085 -0.9532  0.0583
  205SOL    HW1  614   1.341   1.808   2.097  0.3123  0.1588  2.0954
  205SOL    HW2  615   1.474   1.833   1.990 -0.8496 -0.7103  1.0538
  206SOL     OW  616   0.385   0.746   2.364 -0.5732 -0.3176 -0.0912
  206SOL    HW1  617   0.441   0.692   2.434  1.4174 -2.4290 -0.9623
  206SOL    HW2  618   0.439   0.825   2.339 -0.1179 -1.1476  0.9270
  207SOL     OW  619   1.012   2.915   1.883 -0.5595 -0.3387 -0.3297
  207SOL    HW1  620   1.047   3.008   1.907  0.2612 -1.4608  3.0235
  207SOL    HW2  621   0.998   2.904   1.784  2.9347  0.9746  1.1463
  208SOL     OW  622   0.314   2.747   1.927  0.3564 -0.5323  0.0814
  208SOL    HW1  623   0.358   2.659   1.941 -2.1022 -0.5163  0.1913
  208SOL    HW2  624   0.329   2.780   1.829  1.7010  0.3731 -3.1646
  209SOL     OW  625   1.433   0.568   0.097 -0.2054  0.4335  0.0696
  209SOL    HW1  626   1.526   0.551   0.137  0.1601  1.0850 -0.6149
  209SOL    HW2  627   1.442   0.647   0.032 -0.3217  0.5361 -1.9941
  210SOL     OW  628   2.816   0.574   0.555  0.4937 -0.1544 -0.4055
  210SOL    HW1  629   2.718   0.584   0.586  1.2625 -0.7702  0.2674
  210SOL    HW2  630   2.839   0.667   0.514 -0.7183  1.3524  3.0889
  211SOL     OW  631   0.674   0.612   1.222  0.3766  0.1120 -0.2468
  211SOL    HW1  632   0.667   0.706   1.254 -2.0111  1.1686  1.1633
  211SOL    HW2  633   0.729   0.559   1.292 -0.0682 -1.4042  0.0557
  212SOL     OW  634   1.378   1.902   1.285 -0.4527  0.7609  0.3648
  212SOL    HW1  635   1.288   1.884   1.242  3.4010  0.6354 -0.4383
  212SOL    HW2  636   1.437   1.815   1.280  1.9412  0.4011  0.2227
  213SOL     OW  637   2.309   0.340   1.729  0.1266 -0.5248  0.0120
  213SOL    HW1  638   2.395   0.292   1.748 -0.8748  2.2371  0.1719
  213SOL    HW2  639   2.291   0.409   1.805 -1.6533 -0.9278 -1.3041
  214SOL     OW  640   0.958   2.429   2.532  0.6291 -0.4174  0.2470
  214SOL    HW1  641   0.999   2.349   2.481 -0.4934 -2.0819  0.7268
  214SOL    HW2  642   0.894   2.395   2.603 -0.0595  1.8654 -3.0126
  215SOL     OW  643   2.825   1.635   1.714 -0.7894  0.1395 -0.2835
  215SOL    HW1  644   2.869   1.590   1.794 -1.2795 -2.1189  0.0939
  215SOL    HW2  645   2.771   1.564   1.662  0.7648  1.3535  0.5925
  216SOL     OW  646   0.482   0.959   1.564 -0.6610  0.0254 -0.4040
  216SOL    HW1  647   0.513   1.055   1.573 -1.7235  0.8269  1.3775
  216SOL    HW2  648   0.430   0.946   1.480  0.0419  3.1770 -0.7964
  217SOL     OW  649   2.993   0.188   0.551 -0.0538  0.0441 -0.5326
  217SOL    HW1  650   2.941   0.156   0.629 -1.7220  1.3027  0.8390
  217SOL    HW2  651   2.997   0.287   0.545 -2.5953 -0.4647  1.8575
  218SOL     OW  652   1.715   1.874   0.806  0.2617  0.0382 -0.1375
  218SOL    HW1  653   1.721   1.903   0.901  0.0141 -1.7125 -0.1128
  218SOL    HW2  654   1.711   1.773   0.811 -2.0599  1.1074  0.0255
  219SOL     OW  655   1.703   0.346   0.343  0.7238 -0.1232 -0.0622
  219SOL    HW1  656   1.630   0.371   0.410 -0.7464 -0.1705  0.6513
  219SOL    HW2  657   1.684   0.383   0.254  0.0345 -1.0499 -0.9987
  220SOL     OW  658   1.452   1.998   0.880 -0.7519 -0.2626 -0.2336
  220SOL    HW1  659   1.429   1.917   0.942  1.1894 -2.4146 -0.2226
  220SOL    HW2  660   1.490   1.965   0.791 -1.9508  0.5782 -2.7280
  221SOL     OW  661   2.965   1.046   0.249  0.5555 -0.0699 -0.3375
  221SOL    HW1  662   2.892   1.113   0.229 -1.5431  4.6983 -0.4601
  221SOL    HW2  663   2.942   0.949   0.244  0.3101  2.3980  0.1235
  222SOL     OW  664   0.870   2.597   1.472 -0.6726  0.3113  0.4381
  222SOL    HW1  665   0.784   2.574   1.422  2.2521 -0.8569 -0.8345
  222SOL    HW2  666   0.953   2.551   1.430 -1.4338  0.3365 -4.0549
  223SOL     OW  667   1.280   0.348   0.073 -0.1717 -0.2857 -0.7975
  223SOL    HW1  668   1.251   0.344   3.079  1.2623  2.1146  1.1507
  223SOL    HW2  669   1.341   0.430   0.090 -0.0669 -0.7172 -0.2789
  224SOL     OW  670   2.769   0.648   0.862 -0.4946 -0.1660 -0.1059
  224SOL    HW1  671   2.835   0.726   0.869  1.8511  0.2889 -0.5457
  224SOL    HW2  672   2.717   0.639   0.948  2.2778  2.7529 -0.5028
  225SOL     OW  673   0.838   1.596   1.399  0.1985 -0.5390  0.3088
  225SOL    HW1  674   0.935   1.596   1.368  1.0419 -1.0997  1.6167
  225SOL    HW2  675   0.781   1.528   1.351  1.7275  3.1182  0.9977
  226SOL     OW  676   0.738   2.539   0.662 -0.3283 -0.3261 -0.2738
  226SOL    HW1  677   0.720   2.615   0.727 -1.7278 -0.4133  0.1679
  226SOL    HW2  678   0.815   2.571   0.601  2.0287 -0.2268 -0.2954
  227SOL     OW  679   1.083   1.852   1.690  0.1646  0.1678  0.3954
  227SOL    HW1  680   0.999   1.910   1.688 -1.5585  0.5031 -2.1154
  227SOL    HW2  681   1.158   1.902   1.645  0.2249 -0.7783 -0.5048
  228SOL     OW  682   0.683   0.170   1.870 -0.2898  0.2661  0.5155
  228SOL    HW1  683   0.586   0.141   1.841 -3.7369  0.5665 -1.7147
  228SOL    HW2  684   0.725   0.097   1.939 -0.0493 -3.4285  2.6423
  229SOL     OW  685   2.711   0.473   2.976  0.1456  0.4435 -0.1948
  229SOL    HW1  686   2.711   0.575   2.947 -0.2399  1.0965  0.2931
  229SOL    HW2  687   2.786   0.459   3.047 -1.7460 -0.9825  1.8436
  230SOL     OW  688   0.072   0.659   1.321  0.3219  0.0116  0.0268
  230SOL    HW1  689   0.128   0.631   1.243 -0.2847  1.5006 -1.2071
  230SOL    HW2  690   0.122   0.703   1.400  0.0806 -1.4015  0.7215
  231SOL     OW  691   1.013   2.962   1.395 -0.0101 -0.2805  0.0508
  231SOL    HW1  692   0.998   2.914   1.483  0.8770 -0.0958  0.2201
  231SOL    HW2  693   0.935   2.964   1.335  4.6806  0.7979  0.6837
  232SOL     OW  694   2.811   2.551   0.349 -0.0795 -0.3088  0.7741
  232SOL    HW1  695   2.791   2.502   0.259 -0.1973  0.1705 -1.2329
  232SOL    HW2  696   2.730   2.603   0.381 -2.1224 -0.3018  0.5518
  233SOL     OW  697   1.280   2.431   2.992 -0.4016 -0.4524 -0.1918
  233SOL    HW1  698   1.358   2.373   2.966 -0.5766 -0.0675  0.8213
  233SOL    HW2  699   1.235   2.465   2.903 -1.3272  0.0175 -0.0658
  234SOL     OW  700   0.922   1.233   1.771  0.2656  0.0534 -0.8062
  234SOL    HW1  701   0.916   1.328   1.811  0.1646  1.8788 -1.0837
  234SOL    HW2  702   0.948   1.162   1.845  3.2337  1.5446  1.8387
  235SOL     OW  703   0.023   2.254   2.783 -0.0641  0.3462 -0.2489
  235SOL    HW1  704   0.093   2.306   2.730 -1.8201 -1.3265  1.6053
  235SOL    HW2  705   3.058   2.314   2.832  1.3046 -0.6515  0.9392
  236SOL     OW  706   1.695   2.185   2.693  0.4161  0.1497 -0.3763
  236SOL    HW1  707   1.702   2.089   2.717  0.0061  2.9631  1.7897
  236SOL    HW2  708   1.605   2.201   2.646  0.5667 -0.2057  1.2271
  237SOL     OW  709   2.034   1.048   0.952 -0.0243 -0.3792  0.3622
  237SOL    HW1  710   2.000   0.955   0.947  0.3391  0.1527  0.5242
  237SOL    HW2  711   1.981   1.119   0.895  1.1239  0.3157 -1.9737
  238SOL     OW  712   1.227   2.803   2.092 -0.4829 -0.1152 -0.3039
  238SOL    HW1  713   1.191   2.747   2.166 -1.9884  0.9924 -0.5526
  238SOL    HW2  714   1.153   2.833   2.032  0.8892 -1.8014  2.3441
  239SOL     OW  715   0.656   2.348   1.953  0.1466 -0.2433  0.0264
  239SOL    HW1  716   0.654   2.296   1.866  3.0810 -0.8356  0.5345
  239SOL    HW2  717   0.723   2.428   1.945  2.4802 -0.3340  0.4126
  240SOL     OW  718   2.811   0.058   0.716 -0.1797 -0.0718  0.2145
  240SOL    HW1  719   2.821   3.061   0.694  0.4987  1.3491  0.1915
  240SOL    HW2  720   2.861   0.083   0.801  1.4429 -0.7347 -2.5050
  241SOL     OW  721   1.036   1.844   2.864 -0.7457 -0.3062  0.0841
  241SOL    HW1  722   1.026   1.840   2.965  0.1614  1.0452  1.7913
  241SOL    HW2  723   1.057   1.937   2.825 -1.3306 -0.5145 -0.8156
  242SOL     OW  724   2.473   0.810   0.126  0.1698 -1.0177 -0.3980
  242SOL    HW1  725   2.519   0.730   0.173 -0.1986  0.4461 -3.3912
  242SOL    HW2  726   2.487   0.816   0.024  0.9710 -0.5447  1.5116
  243SOL     OW  727   0.736   0.442   1.859 -0.0163  0.2328 -1.0650
  243SOL    HW1  728   0.834   0.463   1.871  0.4110 -0.1526 -0.1703
  243SOL    HW2  729   0.714   0.343   1.879  2.8233  0.2110 -0.1177
  244SOL     OW  730   1.651   2.475   3.000  0.2116  0.1061 -0.1898
  244SOL    HW1  731   1.586   2.553   3.009  1.2815  1.0707 -0.7330
  244SOL    HW2  732   1.696   2.449   3.092  1.6513 -4.0674  1.3732
  245SOL     OW  733   1.755   2.397   0.131 -0.1423  0.3442 -0.2439
  245SOL    HW1  734   1.689   2.365   0.195  2.5655 -1.2962 -0.8634
  245SOL    HW2  735   1.831   2.443   0.178 -0.3441 -0.2992 -2.8117
  246SOL     OW  736   1.119   0.894   2.339 -0.2722 -0.2200 -0.5637
  246SOL    HW1  737   1.167   0.866   2.257 -1.9434  0.9438  3.1111
  246SOL    HW2  738   1.052   0.968   2.327 -0.2518 -1.5786 -0.9850
  247SOL     OW  739   0.065   0.816   2.734  0.6664 -0.1893  0.3895
  247SOL    HW1  740   0.107   0.848   2.647 -1.6213 -2.2181  1.6746
  247SOL    HW2  741   0.068   0.713   2.734  0.8451 -1.4617  1.1888
  248SOL     OW  742   3.058   1.075   1.876  0.2422  0.4217 -0.1434
  248SOL    HW1  743   2.967   1.088   1.923  0.5549  2.4414  1.0697
  248SOL    HW2  744   0.033   1.043   1.944  0.7359 -2.3282 -1.0309
  249SOL     OW  745   0.055   0.423   0.329  0.1260 -0.3787 -0.2389
  249SOL    HW1  746   0.112   0.482   0.271 -1.6103  0.0529 -1.7513
  249SOL    HW2  747   0.057   0.460   0.422  0.2795 -1.1212 -0.1687
  250SOL     OW  748   2.765   0.325   0.307 -0.0433  0.4317 -0.8410
  250SOL    HW1  749   2.809   0.236   0.285  2.3691 -2.5722 -0.3417
  250SOL    HW2  750   2.740   0.321   0.407  1.1387  1.0656  0.5439
  251SOL     OW  751   1.084   1.579   1.961  0.0083  0.5053 -0.2424
  251SOL    HW1  752   1.112   1.675   1.949 -2.8809 -0.8674  0.3003
  251SOL    HW2  753   1.137   1.520   1.897 -0.9259  0.0927 -1.1605
  252SOL     OW  754   2.003   1.761   1.438  0.0989  0.3239  0.0770
  252SOL    HW1  755   1.988   1.828   1.514  0.6975  0.7563  0.7348
  252SOL    HW2  756   2.089   1.788   1.385  2.6760  3.5666 -2.2502
  253SOL     OW  757   1.813   2.306   1.978 -0.0541 -0.4713  0.8316
  253SOL    HW1  758   1.896   2.265   2.014  1.8607 -1.0304  0.4877
  253SOL    HW2  759   1.779   2.371   2.050  0.0930  0.6293  2.4380
  254SOL     OW  760   0.664   2.057   2.260  0.0708 -0.2125 -0.0227
  254SOL    HW1  761   0.675   2.147   2.219 -0.0833 -1.3053 -0.0436
  254SOL    HW2  762   0.746   1.999   2.241  3.2007 -0.7409  2.0786
  255SOL     OW  763   1.687   0.351   0.787  0.5486 -0.5277 -0.3310
  255SOL    HW1  764   1.664   0.255   0.766 -0.6170  3.6253 -1.1312
  255SOL    HW2  765   1.617   0.394   0.850 -2.6428  0.2609  1.7705
  256SOL     OW  766   1.903   2.184   1.420  0.0334  0.2321 -0.9611
  256SOL    HW1  767   1.917   2.279   1.451 -1.7355  0.3146  1.3553
  256SOL    HW2  768   1.992   2.153   1.384  1.3113  1.8284  0.6629
  257SOL     OW  769   0.288   2.559   2.878 -0.1120  0.5458  0.3327
  257SOL    HW1  770   0.353   2.480   2.890  0.4583 -1.8815  0.4599
  257SOL    HW2  771   0.239   2.588   2.962 -1.9807  0.5840 -0.7292
  258SOL     OW  772   0.618   1.011   1.898 -0.0701 -0.3718  0.3094
  258SOL    HW1  773   0.596   0.918   1.866 -1.9679 -0.5037  0.3036
  258SOL    HW2  774   0.674   1.014   1.982 -0.8442  0.1144 -0.8146
  259SOL     OW  775   1.221   0.875   2.589 -0.4535 -0.3250  0.3207
  259SOL    HW1  776   1.264   0.963   2.619  0.7859  1.1028 -2.0866
  259SOL    HW2  777   1.174   0.879   2.499  2.8126 -1.8551 -0.7084
  260SOL     OW  778   2.330   0.869   0.470 -0.4197  0.0540  0.1994
  260SOL    HW1  779   2.262   0.873   0.543  0.8789  0.1299  0.1776
  260SOL    HW2  780   2.284   0.854   0.380 -2.6850  1.9354  1.0363
  261SOL     OW  781   1.160   0.277   0.654 -0.5495  0.4135 -0.4010
  261SOL    HW1  782   1.207   0.321   0.577 -0.4842 -0.2563 -0.6172
  261SOL    HW2  783   1.187   0.316   0.739 -0.4681 -0.9526 -0.4951
  262SOL     OW  784   2.063   2.431   2.491 -0.2871  0.4214  0.6320
  262SOL    HW1  785   2.115   2.459   2.574  0.0858 -1.4186 -1.4164
  262SOL    HW2  786   2.054   2.511   2.428  0.6167  3.6482  0.7265
  263SOL     OW  787   0.379   1.586   2.869  0.1090 -0.5192 -0.0693
  263SOL    HW1  788   0.416   1.549   2.781  0.0503 -0.0406 -0.7768
  263SOL    HW2  789   0.329   1.676   2.849 -0.8998 -0.0039  0.8596
  264SOL     OW  790   0.249   1.964   1.663 -0.3934 -0.1535  0.1720
  264SOL    HW1  791   0.289   1.934   1.754  0.7951 -1.8732 -0.7229
  264SOL    HW2  792   0.273   1.900   1.586  0.1676 -0.8714 -0.1433
  265SOL     OW  793   1.164   1.070   0.416 -0.2259  0.3815 -0.2290
  265SOL    HW1  794   1.071   1.078   0.380  0.5726  0.9352 -0.3230
  265SOL    HW2  795   1.228   1.031   0.345  2.6311 -2.0104  3.3940
  266SOL     OW  796   1.693   1.651   3.023  0.1610 -0.3745 -0.1283
  266SOL    HW1  797   1.651   1.740   3.000  0.6406 -2.4719  1.8767
  266SOL    HW2  798   1.793   1.656   3.031 -1.1909 -2.7882  3.1267
  267SOL     OW  799   0.045   0.351   2.995  0.1529  0.0135  0.1547
  267SOL    HW1  800   0.010   0.326   2.903  0.2391  0.8332 -3.4746
  267SOL    HW2  801   0.139   0.396   2.993  2.8243  1.4923  0.0377
  268SOL     OW  802   1.021   0.248   2.854 -0.0927  0.2108 -0.1859
  268SOL    HW1  803   0.973   0.318   2.912 -1.9700 -1.5286 -2.3699
  268SOL    HW2  804   1.059   0.172   2.909  1.0437  0.7754  3.3665
  269SOL     OW  805   1.620   0.335   2.369  0.1689  0.1285 -0.5038
  269SOL    HW1  806   1.578   0.268   2.303 -0.8935 -3.2147 -3.1073
  269SOL    HW2  807   1.553   0.349   2.448  0.9243  1.4198 -0.0384
  270SOL     OW  808   0.729   0.771   2.448  0.2585 -0.0870 -0.4019
  270SOL    HW1  809   0.816   0.728   2.420 -1.1813  0.9254 -0.9305
  270SOL    HW2  810   0.678   0.701   2.506 -0.7313  0.3056  3.2099
  271SOL     OW  811   0.023   1.057   0.022 -0.0788 -0.1693  0.3156
  271SOL    HW1  812   0.052   1.149   3.082  2.2183  1.6356  1.4689
  271SOL    HW2  813   3.081   1.074   0.110  0.7709 -0.2362 -0.5233
  272SOL     OW  814   2.283   1.138   2.917  0.5703 -0.4195  0.2521
  272SOL    HW1  815   2.350   1.099   2.851 -0.0240 -0.0716  2.1746
  272SOL    HW2  816   2.194   1.088   2.908  1.0832 -1.8784 -1.7125
  273SOL     OW  817   3.071   0.213   2.300 -0.2836 -0.2575 -0.1530
  273SOL    HW1  818   0.049   0.276   2.265 -2.3865 -0.6128  1.1337
  273SOL    HW2  819   3.099   0.115   2.312 -0.5961  0.0590  0.9865
  274SOL     OW  820   2.578   0.140   1.624  0.8678  0.6366  0.6276
  274SOL    HW1  821   2.500   0.103   1.562 -1.0919 -0.7482 -0.7125
  274SOL    HW2  822   2.667   0.146   1.573 -3.2660  2.6325 -1.6986
  275SOL     OW  823   1.943   1.416   0.225  0.1958  0.0825 -0.5698
  275SOL    HW1  824   1.966   1.450   0.133  0.5469 -0.0130  0.3524
  275SOL    HW2  825   1.854   1.464   0.256 -2.9987  1.5658  1.0803
  276SOL     OW  826   0.307   1.080   2.618  0.3677  0.2771 -0.2206
  276SOL    HW1  827   0.253   1.149   2.563 -1.9755  2.0564 -1.9262
  276SOL    HW2  828   0.286   0.986   2.592 -1.5500  1.7395 -0.9109
  277SOL     OW  829   1.693   2.477   2.147  0.3177  0.2780  0.6426
  277SOL    HW1  830   1.704   2.502   2.247 -1.9786 -1.0270  1.6166
  277SOL    HW2  831   1.597   2.453   2.124  0.1549 -0.9669 -1.0626
  278SOL     OW  832   2.011   0.085   1.228  0.2156 -0.9097 -0.4978
  278SOL    HW1  833   1.922   0.110   1.191 -0.0241  0.9743  2.8491
  278SOL    HW2  834   2.065   0.037   1.156 -2.7659  3.1133 -0.0783
  279SOL     OW  835   0.921   1.429   2.699 -0.1290 -0.1895  0.0201
  279SOL    HW1  836   0.951   1.494   2.771  0.8473 -0.2562 -1.2441
  279SOL    HW2  837   0.957   1.465   2.609 -2.4362 -1.5254 -1.2141
  280SOL     OW  838   0.849   1.895   0.430  0.4690  0.4881  0.1630
  280SOL    HW1  839   0.780   1.825   0.394 -1.1610 -2.8424  0.8223
  280SOL    HW2  840   0.844   1.984   0.377  1.1793  1.1369 -0.9730
  281SOL     OW  841   0.026   2.922   2.194  0.3922  0.0361  0.2694
  281SOL    HW1  842   3.032   2.952   2.160  1.1997 -1.3435 -3.8881
  281SOL    HW2  843   0.048   2.829   2.156  0.4493 -1.6485 -0.9242
  282SOL     OW  844   0.204   1.814   1.220 -0.2204  0.1050 -0.0418
  282SOL    HW1  845   0.284   1.877   1.191  0.4635  0.8752  1.3544
  282SOL    HW2  846   0.114   1.866   1.225  0.6066  3.5945  2.2778
  283SOL     OW  847   1.402   2.168   2.670 -0.0340  0.3676  0.0951
  283SOL    HW1  848   1.316   2.110   2.658 -0.0095 -1.3825 -0.5613
  283SOL    HW2  849   1.418   2.224   2.588 -2.0264  0.4608  0.9496
  284SOL     OW  850   2.217   0.808   0.201 -0.1826 -0.4574  0.0848
  284SOL    HW1  851   2.172   0.890   0.155 -2.6302  5.6085 -0.8332
  284SOL    HW2  852   2.321   0.814   0.187  4.5339  0.6610  2.0418
  285SOL     OW  853   2.641   2.635   2.627  0.1145  0.1803 -0.5504
  285SOL    HW1  854   2.672   2.713   2.683 -0.3956 -0.3544 -1.1618
  285SOL    HW2  855   2.629   2.542   2.672 -0.7103  0.6648 -0.0902
  286SOL     OW  856   1.886   2.645   1.148 -0.2302 -0.0914  0.2266
  286SOL    HW1  857   1.800   2.676   1.192 -0.9321 -0.3068  3.6023
  286SOL    HW2  858   1.877   2.583   1.069 -0.3454 -0.3889  0.3164
  287SOL     OW  859   0.736   1.239   1.112 -0.3717  0.3047 -0.3979
  287SOL    HW1  860   0.798   1.307   1.063  0.8557  0.9810 -2.6137
  287SOL    HW2  861   0.785   1.149   1.127  2.2470  0.5520 -0.3996
  288SOL     OW  862   1.299   2.363   0.173  0.1855  0.0698  0.2776
  288SOL    HW1  863   1.244   2.413   0.239  0.7035 -1.3401 -0.3219
  288SOL    HW2  864   1.292   2.407   0.083  1.1405  0.7118 -0.3814
  289SOL     OW  865   0.092   2.000   2.578 -0.1725  0.2072 -0.0489
  289SOL    HW1  866   0.125   1.913   2.534 -1.0268  1.0126 -0.4925
  289SOL    HW2  867   0.176   2.063   2.601  1.0871  1.3052 -1.8948
  290SOL     OW  868   1.108   2.326   0.816  0.0507  0.7698 -0.0787
  290SOL    HW1  869   1.065   2.284   0.731 -1.0185 -1.7108  2.0458
  290SOL    HW2  870   1.070   2.289   0.902  1.9206  0.6379 -0.0011
  291SOL     OW  871   1.974   1.510   3.036  0.5747 -0.5249  0.4226
  291SOL    HW1  872   2.051   1.459   3.004 -2.9485  2.1406 -2.9689
  291SOL    HW2  873   2.002   1.604   3.071  2.8063  0.8965  0.4602
  292SOL     OW  874   1.194   1.385   1.773  0.1027 -0.5085 -0.2406
  292SOL    HW1  875   1.154   1.292   1.752  1.8991 -1.2287 -0.0047
  292SOL    HW2  876   1.291   1.366   1.786 -1.6770  2.6863  0.4801
  293SOL     OW  877   1.925   2.332   0.869  0.5504  0.3790 -0.1579
  293SOL    HW1  878   1.935   2.294   0.965  0.2046  0.2517  0.4524
  293SOL    HW2  879   1.893   2.255   0.815  0.6394  4.0482  2.9990
  294SOL     OW  880   0.206   1.310   2.436 -0.6414  0.5225  0.5254
  294SOL    HW1  881   0.142   1.325   2.515 -1.0055  0.8052  1.5317
  294SOL    HW2  882   0.150   1.268   2.361  0.3685 -0.2003 -0.2963
  295SOL     OW  883   0.893   2.052   3.057 -0.6865 -0.1998 -0.0169
  295SOL    HW1  884   0.952   2.136   3.061  1.4427 -2.9258 -0.9982
  295SOL    HW2  885   0.948   1.976   3.091 -1.6248  4.1346 -3.0182
  296SOL     OW  886   2.031   1.656   2.339  0.2591 -0.1176  0.1612
  296SOL    HW1  887   2.069   1.720   2.269 -1.2643 -0.9108 -1.7006
  296SOL    HW2  888   1.930   1.672   2.330 -1.8640  2.0446  0.7971
  297SOL     OW  889   2.672   0.784   2.624  0.4951  0.5094  0.1360
  297SOL    HW1  890   2.740   0.733   2.568  1.1487 -0.9982 -2.5121
  297SOL    HW2  891   2.578   0.744   2.611 -2.5043 -1.2342 -0.8204
  298SOL     OW  892   0.773   1.998   2.520  0.3655 -0.0998  0.3386
  298SOL    HW1  893   0.715   1.968   2.598  0.8777 -0.6729  0.9347
  298SOL    HW2  894   0.716   2.030   2.443  0.5161  2.1135  2.7232
  299SOL     OW  895   0.973   2.699   2.547  0.2901  0.3926 -0.6264
  299SOL    HW1  896   0.882   2.730   2.511  0.1527  1.3363  0.0187
  299SOL    HW2  897   0.967   2.597   2.574 -0.5341  0.7112 -1.2884
  300SOL     OW  898   2.904   0.452   0.069  0.2093 -0.0410  0.0445
  300SOL    HW1  899   2.885   0.424   0.167 -1.0205 -1.3718  0.7916
  300SOL    HW2  900   2.992   0.409   0.040  2.0301 -0.1931 -1.2011
  301SOL     OW  901   1.060   0.633   1.161  0.2215  0.1297 -0.2480
  301SOL    HW1  902   1.082   0.549   1.211  0.5110 -1.9479  2.0781
  301SOL    HW2  903   1.025   0.712   1.224 -0.3884  7.0424  0.0430
  302SOL     OW  904   2.961   2.049   2.735  0.3783 -0.0562 -0.3640
  302SOL    HW1  905   3.003   1.974   2.679 -1.8052 -1.7020 -0.2589
  302SOL    HW2  906   3.023   2.129   2.740 -2.4698 -1.4193 -0.6395
  303SOL     OW  907   2.928   2.913   2.535 -0.0971  0.0602  0.2346
  303SOL    HW1  908   2.900   2.962   2.451  1.4170 -2.8086  1.6205
  303SOL    HW2  909   2.892   2.961   2.616  0.2693 -0.6045  0.7138
  304SOL     OW  910   2.750   0.307   1.761  0.0969 -0.2219 -0.3819
  304SOL    HW1  911   2.687   0.266   1.697  0.4620 -1.2832 -0.9735
  304SOL    HW2  912   2.714   0.295   1.858  0.5688  2.7191 -1.4637
  305SOL     OW  913   0.147   3.098   2.349 -0.4785 -0.1615  0.2934
  305SOL    HW1  914   0.221   3.050   2.401  1.9373  0.4512 -0.6204
  305SOL    HW2  915   0.104   3.036   2.276  0.8455  2.3441 -1.2527
  306SOL     OW  916   2.682   1.121   1.170 -0.2617  0.2229  0.0059
  306SOL    HW1  917   2.691   1.025   1.203  1.1801  1.1717  2.4820
  306SOL    HW2  918   2.628   1.129   1.085 -0.5209 -2.6618  1.9470
  307SOL     OW  919   1.894   0.468   1.283 -0.0843  0.1973 -0.0368
  307SOL    HW1  920   1.836   0.393   1.309  1.6820  1.4588 -1.6344
  307SOL    HW2  921   1.837   0.535   1.230  1.3888 -0.0361  1.9727
  308SOL     OW  922   3.048   2.293   1.139  0.2292 -0.3957 -0.0440
  308SOL    HW1  923   2.996   2.266   1.223 -3.0703  1.6247 -1.5189
  308SOL    HW2  924   3.024   2.230   1.068 -1.7348  0.2868  1.1393
  309SOL     OW  925   2.337   1.708   1.434 -0.1991  0.0549  0.5492
  309SOL    HW1  926   2.404   1.633   1.413  2.5271 -0.3870 -1.4874
  309SOL    HW2  927   2.283   1.679   1.516  1.8770 -0.6309  1.3022
  310SOL     OW  928   2.797   1.705   0.035  0.3601 -0.2232 -0.1420
  310SOL    HW1  929   2.755   1.797   0.044 -1.6136 -1.6648 -0.0007
  310SOL    HW2  930   2.877   1.701   0.097  0.7307 -0.0246  0.9262
  311SOL     OW  931   2.188   1.427   2.655  0.2781 -0.0212  0.5364
  311SOL    HW1  932   2.256   1.491   2.614 -0.3335  0.0875  0.2378
  311SOL    HW2  933   2.093   1.472   2.647 -0.9946  0.8898  1.8141
  312SOL     OW  934   2.392   2.230   0.892 -0.4394 -0.4259 -0.6498
  312SOL    HW1  935   2.469   2.183   0.937 -1.1665 -2.1349 -1.3850
  312SOL    HW2  936   2.415   2.319   0.844 -0.4352  1.5025 -0.7681
  313SOL     OW  937   2.688   2.630   1.391  0.3071  0.0502 -0.2571
  313SOL    HW1  938   2.597   2.639   1.432  1.5842  1.2966  0.3500
  313SOL    HW2  939   2.683   2.676   1.299 -2.2291  0.9039  0.6461
  314SOL     OW  940   1.027   2.034   1.376  0.1534 -0.4181  0.0002
  314SOL    HW1  941   1.075   2.109   1.424  1.0822  1.1284  1.9510
  314SOL    HW2  942   1.024   2.058   1.277  1.4793 -0.4618  0.5613
  315SOL     OW  943   0.296   2.740   2.367 -0.2585  0.4058 -0.1784
  315SOL    HW1  944   0.276   2.714   2.467  1.6925  0.0428  2.7935
  315SOL    HW2  945   0.319   2.839   2.362 -1.3606 -0.2554  2.4642
  316SOL     OW  946   0.098   1.706   0.896 -0.1749 -0.2273  0.4198
  316SOL    HW1  947   0.166   1.658   0.957 -1.5278 -1.0294  0.4692
  316SOL    HW2  948   0.141   1.787   0.846  1.3474  1.2967  1.2551
  317SOL     OW  949   1.917   0.215   0.449  0.2690  0.3353  0.1548
  317SOL    HW1  950   1.832   0.258   0.407 -1.1843  0.9686 -0.4383
  317SOL    HW2  951   1.936   0.249   0.546  1.5530 -1.9104 -1.5199
  318SOL     OW  952   2.834   2.948   0.382 -0.2571 -0.3031  0.0729
  318SOL    HW1  953   2.897   2.874   0.355  1.2516  0.4231 -0.4039
  318SOL    HW2  954   2.873   3.035   0.347 -0.1250 -0.4778  0.9030
  319SOL     OW  955   0.983   1.545   3.064  0.5772  0.0958  0.2855
  319SOL    HW1  956   1.036   1.541   2.976 -0.9441 -0.0387 -0.1387
  319SOL    HW2  957   0.900   1.484   3.064  1.7640 -3.4707  3.0056
  320SOL     OW  958   0.592   2.809   2.711 -0.2831  0.9207  0.2355
  320SOL    HW1  959   0.532   2.863   2.654  0.3514  1.6024 -0.0040
  320SOL    HW2  960   0.540   2.795   2.797  0.7167 -0.7189 -1.3993
  321SOL     OW  961   1.097   0.004   2.970  0.1285 -0.3192  0.0540
  321SOL    HW1  962   1.186   3.085   3.023  0.9416  0.8294 -0.1619
  321SOL    HW2  963   1.016   3.067   3.025 -0.0869  0.4040  4.1119
  322SOL     OW  964   2.313   1.212   2.069 -0.0897  0.3555  0.6421
  322SOL    HW1  965   2.293   1.244   2.164  0.9993  1.3124 -5.3234
  322SOL    HW2  966   2.394   1.264   2.034  0.2847 -1.5512 -0.4193
  323SOL     OW  967   2.598   0.869   0.459 -0.2250  0.2612 -0.3480
  323SOL    HW1  968   2.494   0.892   0.466 -1.3014 -0.2218  0.5168
  323SOL    HW2  969   2.610   0.782   0.395  1.7006 -2.6590 -1.4133
  324SOL     OW  970   0.122   0.547   2.762 -0.0655 -0.3246 -0.2209
  324SOL    HW1  971   0.050   0.485   2.741  0.7160  1.8695 -1.1179
  324SOL    HW2  972   0.202   0.528   2.698  1.0237  0.7797 -0.2924
  325SOL     OW  973   1.418   3.019   2.062  0.1319 -0.3632 -0.1889
  325SOL    HW1  974   1.458   3.039   1.970  0.6413 -2.5801  1.3607
  325SOL    HW2  975   1.333   2.969   2.047  0.6300  0.1510 -1.4633
  326SOL     OW  976   2.395   0.058   1.446  0.3937  0.9459 -0.5322
  326SOL    HW1  977   2.297   0.030   1.445 -0.8532  1.4284 -1.9628
  326SOL    HW2  978   2.416   0.123   1.367  1.8290  2.0400 -0.3246
  327SOL     OW  979   1.792   0.690   2.861 -0.1247 -0.3274  0.1389
  327SOL    HW1  980   1.812   0.624   2.934  2.9814 -0.7370 -0.9101
  327SOL    HW2  981   1.878   0.709   2.817 -5.2043 -1.3700  1.7460
  328SOL     OW  982   3.054   1.442   2.151  0.4506 -0.6051  0.3546
  328SOL    HW1  983   0.026   1.375   2.176  1.4321  1.2726 -0.8763
  328SOL    HW2  984   2.999   1.476   2.227 -1.1550 -0.5018  2.4818
  329SOL     OW  985   1.628   2.659   1.888 -0.1302  0.4594 -0.3523
  329SOL    HW1  986   1.526   2.666   1.872  0.1051 -0.1806  0.6639
  329SOL    HW2  987   1.653   2.692   1.980  0.8889 -2.6453 -0.3498
  330SOL     OW  988   2.532   1.589   1.907  0.7408  0.1063  0.5890
  330SOL    HW1  989   2.500   1.682   1.875  1.0575 -0.5423  1.5259
  330SOL    HW2  990   2.623   1.606   1.937 -3.1262 -2.4101  0.0758
  331SOL     OW  991   3.050   2.149   0.725  0.5565 -0.5528  0.2581
  331SOL    HW1  992   0.046   2.121   0.721  0.7858 -3.7968  0.5566
  331SOL    HW2  993   3.024   2.221   0.658 -0.6851 -0.2185 -0.1702
  332SOL     OW  994   0.664   0.767   0.981 -0.2861  0.0275 -0.0863
  332SOL    HW1  995   0.650   0.804   1.077  1.7940  0.1067 -0.5901
  332SOL    HW2  996   0.757   0.763   0.948 -0.4095  0.0557  0.4692
  333SOL     OW  997   2.030   2.675   2.371  0.3071  0.3132  0.2188
  333SOL    HW1  998   2.072   2.672   2.278  0.2418  0.8515 -0.1767
  333SOL    HW2  999   2.092   2.726   2.434  1.8892  1.8521  2.0095
  334SOL     OW 1000   1.181   1.140   1.142 -0.1467 -0.0231 -0.0417
  334SOL    HW1 1001   1.270   1.085   1.126  1.4928 -0.6004  1.1928
  334SOL    HW2 1002   1.197   1.209   1.220  0.6408 -1.2257  1.4344
  335SOL     OW 1003   0.251   2.654   2.636  0.0842  0.5143 -0.1306
  335SOL    HW1 1004   0.172   2.717   2.657  1.1927 -2.9888 -1.6630
  335SOL    HW2 1005   0.292   2.619   2.724  2.5711 -0.0044  1.2637
  336SOL     OW 1006   2.604   2.401   1.970 -0.0469  0.0516  0.6404
  336SOL    HW1 1007   2.702   2.421   1.953  1.7867  3.4673  1.1947
  336SOL    HW2 1008   2.554   2.355   1.889 -0.7433 -0.4982 -3.6985
  337SOL     OW 1009   2.166   1.541   0.437 -0.2213  1.2148  0.1393
  337SOL    HW1 1010   2.214   1.513   0.524  0.8658  0.5440  0.6423
  337SOL    HW2 1011   2.227   1.537   0.353  0.0432 -0.3852  0.7314
  338SOL     OW 1012   1.109   1.766   1.401 -0.3092  0.0298  0.7980
  338SOL    HW1 1013   1.139   1.744   1.496 -2.2483  1.3646 -0.6973
  338SOL    HW2 1014   1.085   1.866   1.393 -0.0751  2.3382  0.7894
  339SOL     OW 1015   3.009   0.634   1.049 -0.0981 -0.1701  0.2074
  339SOL    HW1 1016   3.049   0.603   1.138  1.0557  0.9614  0.8190
  339SOL    HW2 1017   2.991   0.733   1.056 -1.9295 -2.2246  2.2801
  340SOL     OW 1018   1.564   2.879   1.582 -0.6080  0.3106 -0.4680
  340SOL    HW1 1019   1.558   2.918   1.489 -0.2550 -0.3016  1.7210
  340SOL    HW2 1020   1.614   2.786   1.589  2.1415 -1.6547 -0.8049
  341SOL     OW 1021   2.185   1.388   0.829  0.4156  0.2908  0.3783
  341SOL    HW1 1022   2.211   1.383   0.928 -3.4449 -0.9642  0.4226
  341SOL    HW2 1023   2.097   1.443   0.815 -0.8491  0.7465  2.0936
  342SOL     OW 1024   0.662   1.734   0.738 -0.6009  0.5594  0.1512
  342SOL    HW1 1025   0.670   1.692   0.830 -0.8386 -2.0578 -2.2325
  342SOL    HW2 1026   0.585   1.686   0.692 -1.8905  1.9027 -0.3435
  343SOL     OW 1027   2.496   0.790   1.387  0.0766  0.4040 -0.1145
  343SOL    HW1 1028   2.426   0.733   1.424  1.5276  1.0309 -2.6568
  343SOL    HW2 1029   2.503   0.877   1.439 -0.0618  2.3280 -2.1114
  344SOL     OW 1030   2.314   0.197   0.837 -0.5860 -0.2741 -0.1465
  344SOL    HW1 1031   2.327   0.269   0.765  2.4424  2.1174 -2.4569
  344SOL    HW2 1032   2.395   0.139   0.837 -0.5696  0.5505 -0.1249
  345SOL     OW 1033   2.911   2.654   2.419  0.7323 -0.0105 -0.1192
  345SOL    HW1 1034   2.929   2.752   2.440  1.6874  1.1795 -1.1396
  345SOL    HW2 1035   2.818   2.636   2.382  0.2083 -0.7333 -2.3178
  346SOL     OW 1036   0.000   1.180   0.504  0.5470 -0.3810 -0.1489
  346SOL    HW1 1037   3.024   1.191   0.438  0.2172  1.2925 -0.4850
  346SOL    HW2 1038   0.062   1.112   0.460 -0.7673 -1.1879  0.8296
  347SOL     OW 1039   1.686   2.699   1.323  0.1321  0.1050  0.1356
  347SOL    HW1 1040   1.646   2.794   1.343 -0.4332  2.7399  2.8842
  347SOL    HW2 1041   1.718   2.659   1.413 -1.1627 -1.6067 -0.8712
  348SOL     OW 1042   1.239   0.964   1.742  0.5535 -0.2049  0.5615
  348SOL    HW1 1043   1.295   1.016   1.810  0.9583  0.0725 -0.7162
  348SOL    HW2 1044   1.189   0.888   1.788  0.7978 -2.1353  1.5108
  349SOL     OW 1045   2.416   1.492   2.344 -0.5377 -0.1510 -0.3620
  349SOL    HW1 1046   2.385   1.396   2.330  1.4076 -2.1856 -0.9858
  349SOL    HW2 1047   2.428   1.513   2.443 -2.2326  0.2845  0.1841
  350SOL     OW 1048   2.879   2.079   0.904  0.1549  0.0954  0.3848
  350SOL    HW1 1049   2.964   2.081   0.848 -0.2838 -2.7223 -2.1149
  350SOL    HW2 1050   2.802   2.074   0.832 -1.5807  1.5843 -5.3301
  351SOL     OW 1051   0.180   0.486   1.662  0.0413 -0.5209 -0.0910
  351SOL    HW1 1052   0.190   0.476   1.768 -1.3959  1.6329  1.0954
  351SOL    HW2 1053   0.158   0.582   1.633 -1.2180  0.8028 -0.1478
  352SOL     OW 1054   0.934   2.826   1.622 -0.1976 -0.2008  0.7245
  352SOL    HW1 1055   0.842   2.857   1.641  2.0930  0.0632  3.1861
  352SOL    HW2 1056   0.942   2.737   1.568  0.5973 -0.9138  0.0603
  353SOL     OW 1057   0.756   1.438   2.309 -0.3301  0.4009 -0.2616
  353SOL    HW1 1058   0.826   1.489   2.257 -1.1308 -2.5070  2.5366
  353SOL    HW2 1059   0.742   1.483   2.397  0.6811 -2.3560 -1.8924
  354SOL     OW 1060   1.574   1.756   0.295 -0.6102 -0.5585  0.0985
  354SOL    HW1 1061   1.565   1.798   0.204 -0.9283 -0.2400  0.9522
  354SOL    HW2 1062   1.490   1.769   0.352 -1.9205  0.6869  1.1914
  355SOL     OW 1063   2.057   0.155   0.718 -0.0057  0.1011  0.0138
  355SOL    HW1 1064   1.987   0.173   0.794 -0.8077  0.1058  2.0732
  355SOL    HW2 1065   2.153   0.155   0.759  0.7310 -2.2180 -0.0148
  356SOL     OW 1066   0.091   1.347   0.019 -0.0932 -0.0386 -0.4522
  356SOL    HW1 1067   0.186   1.317   3.088  1.4568 -1.4579 -2.8667
  356SOL    HW2 1068   0.101   1.373   0.115 -1.0361 -1.2153  0.8974
  357SOL     OW 1069   2.884   3.048   2.061 -0.2389 -0.2323  0.1070
  357SOL    HW1 1070   2.910   0.045   2.054  1.4250 -0.4920 -0.3966
  357SOL    HW2 1071   2.897   3.002   1.972 -4.2023 -1.3610 -0.9345
  358SOL     OW 1072   0.516   1.261   2.628  0.3510  0.2155  0.2225
  358SOL    HW1 1073   0.487   1.363   2.622 -0.4516 -2.4801  2.0624
  358SOL    HW2 1074   0.438   1.203   2.598  0.2597 -0.9836  1.7262
  359SOL     OW 1075   2.407   2.372   2.600  0.5977  0.2402  0.0913
  359SOL    HW1 1076   2.331   2.423   2.648  2.3971  0.1402 -4.1726
  359SOL    HW2 1077   2.369   2.327   2.511 -2.5637 -2.5033 -2.2426
  360SOL     OW 1078   1.633   1.415   0.867 -0.1690 -0.1150 -0.0924
  360SOL    HW1 1079   1.535   1.443   0.869  3.2488 -3.0321 -2.2972
  360SOL    HW2 1080   1.637   1.319   0.900  1.2053 -2.2600  2.2642
  361SOL     OW 1081   1.957   2.262   1.148  0.0490  0.2709 -0.3780
  361SOL    HW1 1082   1.874   2.269   1.211 -0.8108  1.2517  1.6454
  361SOL    HW2 1083   2.013   2.176   1.155 -0.0780  0.5030 -2.3564
  362SOL     OW 1084   1.962   1.518   0.796  0.3920  0.2137  0.4408
  362SOL    HW1 1085   1.930   1.455   0.721 -0.5777  1.1099  0.0302
  362SOL    HW2 1086   1.887   1.575   0.838 -0.3529  0.6886  1.3398
  363SOL     OW 1087   2.628   2.264   0.532  0.5486 -0.0973 -0.0592
  363SOL    HW1 1088   2.569   2.192   0.495  0.2393  3.4076 -2.1927
  363SOL    HW2 1089   2.708   2.277   0.468  5.8415 -0.2040  1.0302
  364SOL     OW 1090   2.394   0.199   1.222  0.2282  0.8617  0.2182
  364SOL    HW1 1091   2.322   0.157   1.167  3.2903 -2.5890  1.0985
  364SOL    HW2 1092   2.475   0.216   1.162  3.1422  1.1085  2.3217
  365SOL     OW 1093   0.555   2.625   1.058  0.6682  0.2224  0.3321
  365SOL    HW1 1094   0.588   2.723   1.058  1.7052  2.1718 -0.0484
  365SOL    HW2 1095   0.463   2.611   1.100  1.5792  0.6257 -0.1186
  366SOL     OW 1096   3.012   1.471   0.487 -0.3235 -0.0686  0.5366
  366SOL    HW1 1097   2.940   1.407   0.463  0.0260  2.0779 -0.5032
  366SOL    HW2 1098   3.018   1.474   0.590  0.2173 -1.3746  2.0159
  367SOL     OW 1099   2.096   2.267   2.835 -0.3438 -0.4310 -0.0697
  367SOL    HW1 1100   2.017   2.243   2.894  2.9466 -0.1172 -1.6935
  367SOL    HW2 1101   2.135   2.178   2.805  1.7286  3.7168  0.6787
  368SOL     OW 1102   2.582   2.073   1.041 -0.1522 -0.3051 -0.5230
  368SOL    HW1 1103   2.637   2.095   1.128  1.4803  0.9953 -1.3250
  368SOL    HW2 1104   2.612   1.984   1.004 -1.0711 -2.5007  3.2842
  369SOL     OW 1105   1.012   1.171   0.654  0.1503 -0.1908  0.5336
  369SOL    HW1 1106   0.967   1.107   0.722 -0.5914 -2.2356 -3.7709
  369SOL    HW2 1107   1.110   1.139   0.637  1.8361 -0.3288 -0.7227
  370SOL     OW 1108   0.859   0.139   0.811  0.2539 -0.5462 -0.4882
  370SOL    HW1 1109   0.793   0.160   0.885  0.4018 -1.9068 -0.1649
  370SOL    HW2 1110   0.898   0.222   0.767 -0.9342  1.9889 -1.9772
  371SOL     OW 1111   2.560   1.219   3.025 -0.1801  0.3188  0.5833
  371SOL    HW1 1112   2.659   1.196   3.003  1.3907 -1.3505  2.6143
  371SOL    HW2 1113   2.505   1.136   3.009  3.8668  3.4053 -1.1930
  372SOL     OW 1114   0.525   0.556   2.543 -0.9290 -0.3664  0.7059
  372SOL    HW1 1115   0.595   0.488   2.536  0.5909 -0.5527 -1.5689
  372SOL    HW2 1116   0.431   0.516   2.546 -0.3396 -2.3787  1.6158
  373SOL     OW 1117   0.516   0.589   3.022  0.5962  0.7531  0.1669
  373SOL    HW1 1118   0.565   0.523   2.967 -1.4555 -0.6443  3.9791
  373SOL    HW2 1119   0.572   0.668   3.030  0.0042 -2.2894  1.0335
  374SOL     OW 1120   0.974   2.590   3.019  0.1846 -0.1300 -0.5355
  374SOL    HW1 1121   1.016   2.589   2.932 -2.4120  0.3101  1.1185
  374SOL    HW2 1122   1.029   2.640   3.089 -1.4828  0.7788  1.8565
  375SOL     OW 1123   1.109   0.012   0.619 -0.5922  0.5877 -0.1090
  375SOL    HW1 1124   1.114   3.022   0.675  1.1536 -1.7895  1.7439
  375SOL    HW2 1125   1.085   0.096   0.674  0.6519 -2.9785  1.6010
  376SOL     OW 1126   0.057   2.420   1.987  0.3787 -0.1203 -0.3922
  376SOL    HW1 1127   0.051   2.482   1.908 -0.1627  0.0525 -3.9603
  376SOL    HW2 1128   0.120   2.459   2.055  0.2106 -2.7291 -1.9034
  377SOL     OW 1129   2.676   1.989   0.094 -0.1878  0.6533  0.6213
  377SOL    HW1 1130   2.573   1.971   0.091  0.6885  1.5112 -0.4734
  377SOL    HW2 1131   2.717   2.025   0.008 -0.5103 -0.4911 -1.8507
  378SOL     OW 1132   1.866   0.775   0.735 -0.6476  0.1670  0.1659
  378SOL    HW1 1133   1.874   0.675   0.708  1.4379  1.0860 -0.4633
  378SOL    HW2 1134   1.910   0.780   0.828 -2.1130  0.4638 -2.7708
  379SOL     OW 1135   1.289   1.123   0.632  0.2659 -0.2920  0.1220
  379SOL    HW1 1136   1.255   1.097   0.535  0.2588  0.1044  1.6775
  379SOL    HW2 1137   1.338   1.216   0.629  0.7272  1.9002  0.5910
  380SOL     OW 1138   2.643   2.041   1.872 -0.1733 -0.5810 -0.5680
  380SOL    HW1 1139   2.721   1.988   1.835  1.3810 -0.8960 -0.3857
  380SOL    HW2 1140   2.658   2.070   1.970 -1.1296  3.6655  0.5822
  381SOL     OW 1141   0.066   1.209   2.232 -0.2044  0.2660 -0.5558
  381SOL    HW1 1142   3.080   1.168   2.270  0.6349  1.7984  0.9164
  381SOL    HW2 1143   0.105   1.148   2.157  0.7954  3.0978 -1.4294
  382SOL     OW 1144   2.757   2.328   0.181 -0.3378 -0.5230  0.3877
  382SOL    HW1 1145   2.774   2.248   0.245 -0.1001  0.3050 -0.9624
  382SOL    HW2 1146   2.674   2.314   0.122  0.9238  0.1278 -1.0152
  383SOL     OW 1147   1.425   0.927   2.184 -0.1039  0.1206 -0.3501
  383SOL    HW1 1148   1.477   1.011   2.206 -0.4529  0.4254  1.4133
  383SOL    HW2 1149   1.484   0.846   2.213 -1.0249  1.5580 -1.3124
  384SOL     OW 1150   1.034   2.061   2.591 -0.0488 -0.1345 -0.1807
  384SOL    HW1 1151   1.053   2.080   2.691  1.2341  1.1530  0.2079
  384SOL    HW2 1152   0.934   2.044   2.579  0.4817  1.5866 -0.2924
  385SOL     OW 1153   2.217   2.191   0.069  0.5055  0.0557  0.2447
  385SOL    HW1 1154   2.179   2.278   0.032  1.4560 -0.9600 -2.4250
  385SOL    HW2 1155   2.257   2.212   0.161 -0.4226  0.6677 -0.6163
  386SOL     OW 1156   1.590   1.287   0.211 -0.5184  0.0622 -0.0990
  386SOL    HW1 1157   1.626   1.374   0.252 -0.6877  0.0667  1.3851
  386SOL    HW2 1158   1.609   1.207   0.272  1.1025 -0.3155  0.4089
  387SOL     OW 1159   3.060   1.080   1.367 -0.0910  0.5631  0.3552
  387SOL    HW1 1160   2.969   1.132   1.385 -3.2666  1.9696  1.2800
  387SOL    HW2 1161   3.057   1.024   1.283  1.5087 -0.8168 -0.1227
  388SOL     OW 1162   0.330   0.858   1.341  0.3217 -0.0718  0.0676
  388SOL    HW1 1163   0.267   0.934   1.368 -1.4632  1.7537 -1.7798
  388SOL    HW2 1164   0.275   0.796   1.285  2.6473  2.4891 -1.1146
  389SOL     OW 1165   2.220   1.263   2.316  0.1427  0.1205 -0.0616
  389SOL    HW1 1166   2.229   1.230   2.411 -1.7210 -0.7220 -2.1984
  389SOL    HW2 1167   2.135   1.324   2.301 -2.5474 -1.7792 -0.8344
  390SOL     OW 1168   1.318   2.124   0.405  0.0961 -0.7635  0.1326
  390SOL    HW1 1169   1.336   2.097   0.311  0.8620 -0.9327  1.4552
  390SOL    HW2 1170   1.398   2.116   0.464  1.0151 -1.1164  0.1481
  391SOL     OW 1171   1.018   2.096   1.098 -0.3032 -0.1115 -0.3957
  391SOL    HW1 1172   1.075   2.014   1.100  1.3670  0.5419 -0.6965
  391SOL    HW2 1173   0.948   2.085   1.026  0.3902  0.8231  0.8969
  392SOL     OW 1174   2.436   2.497   2.156 -0.6114 -0.3021 -0.6762
  392SOL    HW1 1175   2.347   2.529   2.118  1.3897  1.0601  1.9972
  392SOL    HW2 1176   2.493   2.445   2.091 -2.9722 -0.2045  2.1995
  393SOL     OW 1177   1.341   2.004   2.998  0.3866 -0.0279  0.2771
  393SOL    HW1 1178   1.391   2.088   2.969 -3.6936 -1.1097  1.2538
  393SOL    HW2 1179   1.407   1.930   2.977  1.0917 -0.1382  0.4104
  394SOL     OW 1180   0.146   0.427   2.243  0.3018 -0.0927 -0.3671
  394SOL    HW1 1181   0.105   0.516   2.214 -1.5756 -0.0955 -1.2943
  394SOL    HW2 1182   0.237   0.405   2.193  1.8084  2.3742 -1.0149
  395SOL     OW 1183   0.348   1.115   0.791  0.5377 -0.7419  0.1896
  395SOL    HW1 1184   0.411   1.116   0.871 -1.3227 -0.8483 -0.5949
  395SOL    HW2 1185   0.409   1.109   0.707  2.2348 -0.2656  0.4190
  396SOL     OW 1186   2.410   0.951   2.736 -0.0143  1.0296  0.0029
  396SOL    HW1 1187   2.340   0.911   2.671 -1.4045  0.2581  1.1970
  396SOL    HW2 1188   2.479   1.002   2.679 -0.8134  0.4988  3.0043
  397SOL     OW 1189   0.479   0.895   0.025 -0.2682  0.3078  0.1824
  397SOL    HW1 1190   0.446   0.942   3.036 -1.3462 -0.0486 -1.1475
  397SOL    HW2 1191   0.571   0.852   0.015 -1.6999 -1.5565 -2.7574
  398SOL     OW 1192   1.268   2.821   0.418  0.2760 -0.0504 -0.2122
  398SOL    HW1 1193   1.356   2.845   0.471 -1.0588  1.7860 -0.7526
  398SOL    HW2 1194   1.223   2.900   0.374 -0.7313 -1.5772 -0.9474
  399SOL     OW 1195   2.014   2.506   1.862 -0.1640  0.2845 -0.2725
  399SOL    HW1 1196   1.941   2.440   1.884  3.0519 -0.7795  0.1910
  399SOL    HW2 1197   2.070   2.461   1.789 -1.8765 -0.1522  0.4763
  400SOL     OW 1198   0.037   1.312   1.731  0.3818  0.0691  0.0287
  400SOL    HW1 1199   0.028   1.231   1.796  0.1358 -2.7820  0.2629
  400SOL    HW2 1200   0.003   1.397   1.781  1.1678  2.2572  0.4163
  401SOL     OW 1201   0.541   1.049   0.597 -0.0134 -0.4086  0.0320
  401SOL    HW1 1202   0.505   0.956   0.596 -3.3446  1.9659  1.2758
  401SOL    HW2 1203   0.618   1.068   0.659 -1.6823  0.1739  1.7132
  402SOL     OW 1204   0.681   2.977   2.267  0.5789  0.6589  0.1244
  402SOL    HW1 1205   0.654   3.068   2.311  0.3411  2.6659 -2.2276
  402SOL    HW2 1206   0.613   2.947   2.192 -1.1010 -0.4191 -2.0021
  403SOL     OW 1207   2.844   1.909   1.771  0.2273  0.1110  0.1090
  403SOL    HW1 1208   2.934   1.917   1.810 -0.6304  0.7631 -3.6877
  403SOL    HW2 1209   2.832   1.810   1.749 -1.3951  1.5565  0.3229
  404SOL     OW 1210   2.614   2.174   2.119  0.4580 -0.0359  0.8494
  404SOL    HW1 1211   2.645   2.195   2.212 -0.4183 -1.7829  0.2175
  404SOL    HW2 1212   2.609   2.262   2.068  0.6259 -0.6467 -0.1958
  405SOL     OW 1213   1.929   0.082   2.718 -0.3542  0.2213  0.2469
  405SOL    HW1 1214   1.960   3.086   2.733 -0.6510  3.8151 -1.2028
  405SOL    HW2 1215   1.899   0.103   2.621  1.3376  3.3413 -2.4097
  406SOL     OW 1216   1.117   1.902   0.258  0.1011 -0.5329 -0.5356
  406SOL    HW1 1217   1.182   1.970   0.222 -0.9747  1.2432  0.1304
  406SOL    HW2 1218   1.048   1.944   0.314  1.1742 -1.6447 -2.3675
  407SOL     OW 1219   1.341   1.367   0.196  0.0028 -0.7653  0.2956
  407SOL    HW1 1220   1.307   1.370   0.100  0.0988 -0.1490  1.0489
  407SOL    HW2 1221   1.445   1.354   0.202  0.9952 -0.4469  2.2689
  408SOL     OW 1222   0.413   0.406   1.230  0.7597 -0.6536 -0.6899
  408SOL    HW1 1223   0.427   0.453   1.320  0.8929  0.2562  0.7961
  408SOL    HW2 1224   0.497   0.397   1.176 -0.5043  1.5883 -0.3159
  409SOL     OW 1225   2.827   1.577   2.906 -0.3267 -0.0846 -0.2825
  409SOL    HW1 1226   2.736   1.554   2.873  0.2240  1.3694 -2.0754
  409SOL    HW2 1227   2.825   1.627   2.993  0.2813  0.6156  0.5478
  410SOL     OW 1228   2.663   2.710   0.762 -0.4528  0.0902  0.1936
  410SOL    HW1 1229   2.662   2.752   0.858  1.1435  1.4587 -1.3873
  410SOL    HW2 1230   2.703   2.615   0.761  3.1604 -1.7101  1.7127
  411SOL     OW 1231   0.039   0.827   0.557 -0.6703 -0.3195  0.3356
  411SOL    HW1 1232   0.046   0.784   0.650  0.1768  1.4013  2.6850
  411SOL    HW2 1233   3.046   0.839   0.523  2.6077  0.8685  0.3158
  412SOL     OW 1234   1.723   2.931   0.371  0.1524 -0.2801 -0.1838
  412SOL    HW1 1235   1.688   3.005   0.311  0.4967  0.4184  1.0457
  412SOL    HW2 1236   1.666   2.847   0.368 -0.5474  1.1754 -1.2012
  413SOL     OW 1237   1.435   0.328   1.655  0.1223 -0.0281 -0.4731
  413SOL    HW1 1238   1.373   0.247   1.666 -1.7571 -0.7928  0.2424
  413SOL    HW2 1239   1.393   0.404   1.717 -1.7601  1.5139  2.5359
  414SOL     OW 1240   0.296   1.226   0.362 -0.3473  1.0417 -0.4989
  414SOL    HW1 1241   0.249   1.140   0.392  0.1160  0.0900  2.3843
  414SOL    HW2 1242   0.397   1.209   0.344 -1.0068 -1.5365  0.4546
  415SOL     OW 1243   2.942   1.661   0.294  0.0658 -0.4108 -0.2514
  415SOL    HW1 1244   2.965   1.601   0.374 -0.9157 -2.4521  0.5588
  415SOL    HW2 1245   2.845   1.696   0.302 -2.1094  2.5593 -0.6126
  416SOL     OW 1246   2.540   0.338   2.764  0.4487  0.3647  0.3172
  416SOL    HW1 1247   2.457   0.396   2.737 -0.7057 -0.6373  0.7998
  416SOL    HW2 1248   2.600   0.387   2.828 -0.4440 -0.5937 -2.1215
  417SOL     OW 1249   2.544   2.926   0.460  0.0752  0.5432 -0.1451
  417SOL    HW1 1250   2.640   2.937   0.436 -1.9692 -1.6539 -0.4059
  417SOL    HW2 1251   2.484   2.959   0.381  1.0867  1.2630 -0.6844
  418SOL     OW 1252   0.495   0.478   0.165 -0.5241 -0.7179  0.1244
  418SOL    HW1 1253   0.424   0.528   0.223 -1.4809  0.3205  2.6051
  418SOL    HW2 1254   0.515   0.526   0.077  1.9285  0.9367  2.6474
  419SOL     OW 1255   0.672   1.007   0.850 -0.0866 -0.1702 -0.2569
  419SOL    HW1 1256   0.614   1.063   0.911  1.6060 -2.5398 -1.0048
  419SOL    HW2 1257   0.654   0.906   0.876  0.4263 -1.8369 -0.6211
  420SOL     OW 1258   0.204   0.924   0.984 -0.1427 -0.5243 -0.2906
  420SOL    HW1 1259   0.247   1.003   0.930  3.6808 -0.7178  1.0775
  420SOL    HW2 1260   0.111   0.944   1.027 -1.6661 -1.5383 -0.8217
  421SOL     OW 1261   0.661   2.120   0.089 -0.0724  0.2082  0.3037
  421SOL    HW1 1262   0.640   2.221   0.104  0.1444  2.1618  3.3033
  421SOL    HW2 1263   0.749   2.106   0.040  0.8737  0.1561 -1.0027
  422SOL     OW 1264   2.435   0.261   2.208 -0.3013 -0.4308 -0.0907
  422SOL    HW1 1265   2.452   0.235   2.305  1.2439 -1.9141 -2.5298
  422SOL    HW2 1266   2.353   0.324   2.201 -2.8777 -0.7294  1.6725
  423SOL     OW 1267   2.047   1.752   0.078  0.3514 -0.0302 -0.6378
  423SOL    HW1 1268   2.069   1.847   0.049  0.6846 -3.1384 -1.1218
  423SOL    HW2 1269   2.021   1.745   0.174  0.3110 -1.2439 -1.0660
  424SOL     OW 1270   1.630   1.445   2.285 -0.8941 -0.4737  0.1683
  424SOL    HW1 1271   1.686   1.533   2.304  1.2762 -0.1589  2.3255
  424SOL    HW2 1272   1.589   1.412   2.369  1.0125 -0.1105 -1.9987
  425SOL     OW 1273   3.061   2.633   2.188  0.2070 -0.1750 -0.3766
  425SOL    HW1 1274   0.059   2.603   2.196 -0.3480 -0.1569  1.3874
  425SOL    HW2 1275   3.019   2.641   2.279 -1.6347 -0.8917  0.0154
  426SOL     OW 1276   2.185   2.708   0.423  0.3857  0.1208  0.9276
  426SOL    HW1 1277   2.135   2.620   0.397 -2.3813  1.4740 -1.9238
  426SOL    HW2 1278   2.145   2.747   0.508  2.4939 -2.5589  0.2437
  427SOL     OW 1279   0.561   0.950   2.339  0.2336 -0.1600 -0.0182
  427SOL    HW1 1280   0.567   1.054   2.347  0.0793  3.6106  1.0227
  427SOL    HW2 1281   0.626   0.900   2.398 -2.1024  0.0470 -0.7276
  428SOL     OW 1282   2.839   1.229   2.644 -0.1754  0.6680 -0.2200
  428SOL    HW1 1283   2.830   1.149   2.583  2.0332  0.4855 -2.1596
  428SOL    HW2 1284   2.853   1.197   2.738  3.9220  2.7362 -0.6255
  429SOL     OW 1285   2.440   0.239   0.465  0.4545  0.0850  0.5352
  429SOL    HW1 1286   2.530   0.199   0.486  3.2223 -1.8504  0.0814
  429SOL    HW2 1287   2.357   0.179   0.475  3.1186  1.1894 -2.5857
  430SOL     OW 1288   1.606   1.930   2.270 -0.7542 -0.3647  0.6984
  430SOL    HW1 1289   1.552   1.886   2.198 -1.2418 -1.0878 -0.4148
  430SOL    HW2 1290   1.566   2.018   2.295  0.2191 -0.4754 -1.2859
  431SOL     OW 1291   0.113   1.734   1.786  0.5443 -0.7551 -0.1791
  431SOL    HW1 1292   0.053   1.792   1.854 -2.5909  3.5388  0.8756
  431SOL    HW2 1293   0.136   1.790   1.703  2.6066  0.5009 -1.5518
  432SOL     OW 1294   1.215   1.894   2.480 -0.6574 -0.0203  0.4224
  432SOL    HW1 1295   1.191   1.851   2.389  0.4510 -0.4532 -0.6102
  432SOL    HW2 1296   1.140   1.954   2.518  2.1950 -0.4846 -0.3584
  433SOL     OW 1297   0.827   2.392   0.425 -0.4188  0.4173  0.2066
  433SOL    HW1 1298   0.849   2.481   0.377  4.6125  4.5537 -1.8693
  433SOL    HW2 1299   0.766   2.397   0.508 -0.0008 -1.7181  1.4097
  434SOL     OW 1300   0.325   2.166   2.564 -0.2070 -0.7615  0.4799
  434SOL    HW1 1301   0.283   2.256   2.600  0.1364 -0.6677  1.7068
  434SOL    HW2 1302   0.361   2.179   2.469  0.1214  0.5436 -0.4703
  435SOL     OW 1303   0.272   1.417   0.568  0.2199 -0.0551  0.0832
  435SOL    HW1 1304   0.207   1.396   0.641  2.1012 -0.3659 -0.9910
  435SOL    HW2 1305   0.311   1.329   0.527 -1.4441 -0.3189 -2.0728
  436SOL     OW 1306   0.238   2.430   1.527 -0.5427  0.3280 -0.3335
  436SOL    HW1 1307   0.145   2.469   1.508 -0.0182  0.7427 -0.1563
  436SOL    HW2 1308   0.238   2.346   1.580  1.7619  0.2444 -4.9520
  437SOL     OW 1309   1.268   0.393   0.429 -0.3615 -0.0634 -0.0903
  437SOL    HW1 1310   1.242   0.341   0.349 -1.4130 -2.3916 -0.1424
  437SOL    HW2 1311   1.212   0.480   0.439  2.5118 -2.5257  0.2424
  438SOL     OW 1312   0.433   2.295   0.870 -0.3101 -0.1655 -0.6263
  438SOL    HW1 1313   0.522   2.314   0.913 -0.1534  0.1605 -0.2572
  438SOL    HW2 1314   0.365   2.291   0.943  0.4770  1.7669 -1.1959
  439SOL     OW 1315   0.676   2.583   1.700  0.0890  0.9088 -0.1185
  439SOL    HW1 1316   0.762   2.590   1.643 -1.4091  0.8090 -0.7660
  439SOL    HW2 1317   0.593   2.618   1.654  0.6037  0.6124 -1.7085
  440SOL     OW 1318   1.474   3.013   1.805  0.2478 -0.8813 -0.3139
  440SOL    HW1 1319   1.538   3.094   1.778  0.5747  3.1944 -1.1747
  440SOL    HW2 1320   1.496   2.931   1.749 -3.1460 -0.1160  0.3607
  441SOL     OW 1321   0.111   0.396   1.346 -0.3649  0.1051  0.0826
  441SOL    HW1 1322   0.206   0.369   1.359 -3.7011  2.4776  1.7052
  441SOL    HW2 1323   0.100   0.490   1.379  0.9570 -2.0772 -1.2708
  442SOL     OW 1324   1.922   2.083   0.769 -0.3035 -0.1416 -0.5667
  442SOL    HW1 1325   1.866   2.006   0.742  0.1522  1.9086  2.1265
  442SOL    HW2 1326   1.989   2.098   0.695 -1.5602  0.4168 -0.7112
  443SOL     OW 1327   2.844   0.385   2.334 -0.3042  0.4014 -0.4415
  443SOL    HW1 1328   2.937   0.359   2.304  1.2204  1.4989 -1.0004
  443SOL    HW2 1329   2.785   0.304   2.349  1.3343 -0.7994 -0.0081
  444SOL     OW 1330   2.195   0.938   1.828 -0.5928 -0.0783 -0.4064
  444SOL    HW1 1331   2.160   1.034   1.833  3.4918  4.5690  1.6105
  444SOL    HW2 1332   2.126   0.866   1.855 -2.5269 -2.4453  1.3242
  445SOL     OW 1333   2.667   2.282   1.485 -0.0211  0.2649 -0.3272
  445SOL    HW1 1334   2.567   2.304   1.471  2.3830  1.4455 -0.7434
  445SOL    HW2 1335   2.722   2.312   1.402 -1.6459  2.7534  2.5009
  446SOL     OW 1336   2.804   1.555   0.801 -0.1759  0.0548 -0.1986
  446SOL    HW1 1337   2.741   1.483   0.764  1.0781  0.0028  0.7751
  446SOL    HW2 1338   2.903   1.537   0.781  0.6935  1.0325 -2.0531
  447SOL     OW 1339   0.930   1.368   0.459 -0.3016  0.5263 -0.0832
  447SOL    HW1 1340   0.951   1.315   0.544 -0.7230 -0.7980 -0.0276
  447SOL    HW2 1341   1.005   1.436   0.441 -1.7205  1.0663  0.9046
  448SOL     OW 1342   1.518   1.366   1.473 -0.1422  0.5339  0.1305
  448SOL    HW1 1343   1.602   1.308   1.486 -0.0560  0.1225 -2.6412
  448SOL    HW2 1344   1.518   1.419   1.385 -0.1420 -1.3386 -0.3761
  449SOL     OW 1345   0.734   1.400   3.063  0.1739 -0.6142  0.6123
  449SOL    HW1 1346   0.679   1.375   0.047  0.8339 -2.0779  0.1947
  449SOL    HW2 1347   0.732   1.326   2.994  0.7007  0.8259  0.4256
  450SOL     OW 1348   2.277   2.251   1.989 -0.9403 -0.2233 -0.1331
  450SOL    HW1 1349   2.337   2.285   1.913 -0.2425  1.1653  0.3035
  450SOL    HW2 1350   2.306   2.286   2.083 -0.6914 -1.1602  2.3571
  451SOL     OW 1351   1.854   2.985   2.257  0.6831  0.3837  0.1513
  451SOL    HW1 1352   1.828   2.948   2.347 -0.1687  2.0852  0.0377
  451SOL    HW2 1353   1.898   3.077   2.267  0.4842 -0.6946  1.4351
  452SOL     OW 1354   1.161   0.098   1.477  0.3802 -0.2233  0.2037
  452SOL    HW1 1355   1.096   0.023   1.457  0.1881  0.2388  0.0313
  452SOL    HW2 1356   1.118   0.188   1.463 -1.5548 -0.5453  0.2189
  453SOL     OW 1357   1.467   0.975   0.797 -0.6258  0.1195 -0.9054
  453SOL    HW1 1358   1.369   0.968   0.761 -0.4516  2.1926 -1.2056
  453SOL    HW2 1359   1.516   1.046   0.748  0.3020 -2.0078  2.2991
  454SOL     OW 1360   0.435   1.595   0.901 -0.1128 -0.1551 -0.2731
  454SOL    HW1 1361   0.444   1.589   0.798 -0.5192 -0.3537  0.4780
  454SOL    HW2 1362   0.527   1.607   0.947  1.2453 -3.6555 -2.9217
  455SOL     OW 1363   2.793   2.982   3.081 -0.4641  0.3587  1.1253
  455SOL    HW1 1364   2.804   2.887   0.012  0.5433  1.3163 -2.0983
  455SOL    HW2 1365   2.706   3.024   0.018  1.5030  0.7073 -0.5224
  456SOL     OW 1366   2.476   2.394   1.197 -0.5490  0.3649 -0.4578
  456SOL    HW1 1367   2.476   2.497   1.196  1.5909  1.5316  1.0205
  456SOL    HW2 1368   2.413   2.358   1.121 -0.9211 -0.6041 -1.1178
  457SOL     OW 1369   1.381   0.100   0.153 -0.2306  0.5071 -0.1678
  457SOL    HW1 1370   1.363   0.200   0.139 -1.7688 -0.8908 -0.6993
  457SOL    HW2 1371   1.317   0.069   0.225 -0.9568  0.4752 -0.1611
  458SOL     OW 1372   2.692   0.242   0.547  0.1163  0.0401  0.1010
  458SOL    HW1 1373   2.661   0.307   0.618 -1.9422  1.3258 -0.0334
  458SOL    HW2 1374   2.755   0.172   0.589  1.1684 -1.0280 -0.4202
  459SOL     OW 1375   2.116   0.424   2.563 -0.1107 -0.0134 -0.1358
  459SOL    HW1 1376   2.201   0.421   2.617  1.6333 -4.4271  0.9395
  459SOL    HW2 1377   2.050   0.359   2.607 -0.6205 -1.2476 -0.1981
  460SOL     OW 1378   2.775   0.216   2.670 -0.0652 -0.1104  0.1338
  460SOL    HW1 1379   2.686   0.226   2.714 -1.0207  0.7641 -1.0956
  460SOL    HW2 1380   2.769   0.222   2.565  1.6733 -0.2422 -3.9041
  461SOL     OW 1381   1.148   1.851   1.106 -0.1260 -0.0896  0.8117
  461SOL    HW1 1382   1.085   1.776   1.129  0.0108  1.5595  1.8011
  461SOL    HW2 1383   1.156   1.853   1.004  0.6990 -1.0899 -0.7541
  462SOL     OW 1384   2.576   2.949   1.365  0.3494 -0.0648 -0.2593
  462SOL    HW1 1385   2.524   3.041   1.390 -4.9411  2.4251 -0.9195
  462SOL    HW2 1386   2.526   2.870   1.412 -0.8603 -2.5723 -0.9828
  463SOL     OW 1387   2.823   1.301   0.422 -0.0021  0.3093  0.2301
  463SOL    HW1 1388   2.810   1.294   0.320 -1.6816 -0.1452  0.0954
  463SOL    HW2 1389   2.768   1.231   0.475 -3.2941 -2.2143  0.4942
  464SOL     OW 1390   0.262   2.546   1.140  0.4638  0.7268  0.2683
  464SOL    HW1 1391   0.190   2.575   1.074  0.2861  0.1744 -0.4217
  464SOL    HW2 1392   0.261   2.607   1.220 -0.6592 -1.1547 -1.6869
  465SOL     OW 1393   0.216   1.618   0.397 -0.4351  0.1191 -0.8714
  465SOL    HW1 1394   0.174   1.553   0.333 -2.2926  1.4258 -0.1211
  465SOL    HW2 1395   0.216   1.572   0.490  1.3144 -0.1911  2.0814
  466SOL     OW 1396   1.090   0.331   2.627 -0.1657 -0.4239 -0.1933
  466SOL    HW1 1397   1.049   0.277   2.701 -1.6462 -0.5786 -2.2029
  466SOL    HW2 1398   1.062   0.430   2.633 -2.6721  1.2959 -1.5355
  467SOL     OW 1399   0.734   0.643   2.049 -0.6963  0.3748 -0.2486
  467SOL    HW1 1400   0.710   0.583   1.972  0.0631 -1.5554 -3.5953
  467SOL    HW2 1401   0.772   0.589   2.130  2.4671 -1.7210  3.8007
  468SOL     OW 1402   0.730   0.911   2.126 -0.5771  0.2430  0.4626
  468SOL    HW1 1403   0.732   0.812   2.096  0.2558 -0.6285  1.4569
  468SOL    HW2 1404   0.657   0.933   2.194  1.3793  1.7512  0.8887
  469SOL     OW 1405   0.103   2.173   0.260  0.9168 -0.1389  0.1579
  469SOL    HW1 1406   0.080   2.102   0.189 -1.1330 -1.9211  1.1199
  469SOL    HW2 1407   0.098   2.266   0.229  1.8359 -1.5562  3.2001
  470SOL     OW 1408   2.467   1.911   2.916 -0.3691 -0.1879 -0.3772
  470SOL    HW1 1409   2.421   1.821   2.911  0.3684  0.9620 -0.8012
  470SOL    HW2 1410   2.473   1.941   3.013 -1.9771  1.6604 -1.6251
  471SOL     OW 1411   2.130   0.690   2.224 -0.1408 -0.1864  0.1519
  471SOL    HW1 1412   2.146   0.791   2.232  2.3099 -2.0573  1.3669
  471SOL    HW2 1413   2.051   0.676   2.164  1.7633 -0.1547 -1.4988
  472SOL     OW 1414   0.643   2.544   1.338  0.1190 -0.0177 -0.0672
  472SOL    HW1 1415   0.602   2.453   1.357 -0.8787  1.1032 -2.1747
  472SOL    HW2 1416   0.663   2.549   1.242 -1.5635 -0.5202 -0.0410
  473SOL     OW 1417   0.400   3.003   2.470 -0.2082 -0.2822  0.5354
  473SOL    HW1 1418   0.353   3.027   2.557  0.6537  2.9953 -1.3449
  473SOL    HW2 1419   0.483   3.058   2.459 -1.1035 -0.8644 -0.1271
  474SOL     OW 1420   1.807   0.013   1.935 -0.1780  0.4990 -0.7593
  474SOL    HW1 1421   1.726   0.046   1.881 -3.5177  0.9981  1.5007
  474SOL    HW2 1422   1.780   3.026   1.983  1.9087 -0.9974  0.7773
  475SOL     OW 1423   1.610   2.703   0.919  0.2142 -0.1488 -0.4122
  475SOL    HW1 1424   1.662   2.684   0.835 -2.0144  0.4608  2.4749
  475SOL    HW2 1425   1.618   2.623   0.983 -0.3270 -1.7837 -2.2868
  476SOL     OW 1426   0.359   0.728   0.887  0.0870  0.1712 -0.1686
  476SOL    HW1 1427   0.305   0.812   0.912  0.7290  0.2556 -0.5001
  476SOL    HW2 1428   0.455   0.747   0.908 -0.6487  0.6427  1.0918
  477SOL     OW 1429   1.203   2.342   0.498 -0.1136 -0.1611  0.7294
  477SOL    HW1 1430   1.264   2.265   0.466 -2.9891 -0.1858  1.5889
  477SOL    HW2 1431   1.120   2.296   0.528 -2.7008 -0.3829 -0.4705
  478SOL     OW 1432   0.180   2.399   2.596  0.4812 -0.6557 -0.1657
  478SOL    HW1 1433   0.223   2.496   2.609  2.1219  0.4863  2.5579
  478SOL    HW2 1434   0.155   2.395   2.497  2.3110 -2.3082 -1.5660
  479SOL     OW 1435   2.622   0.247   1.078 -0.1375 -0.0641  0.6392
  479SOL    HW1 1436   2.684   0.325   1.078  0.7668 -2.6529  1.2650
  479SOL    HW2 1437   2.668   0.164   1.034 -0.6962  0.7877 -1.2881
  480SOL     OW 1438   0.081   2.964   0.382  0.5279 -0.0979  0.5020
  480SOL    HW1 1439   0.123   3.031   0.445 -1.2715  0.4793 -1.3877
  480SOL    HW2 1440   0.006   2.910   0.421  1.1723 -1.1080  0.9702
  481SOL     OW 1441   2.378   1.962   1.507 -0.2011 -0.3003  0.1683
  481SOL    HW1 1442   2.363   1.872   1.466  0.0753  3.8102  1.5078
  481SOL    HW2 1443   2.465   1.966   1.553 -3.1899 -1.1654  0.8547
  482SOL     OW 1444   1.116   2.496   2.762 -0.2686  0.1658  0.0283
  482SOL    HW1 1445   1.199   2.512   2.702 -2.0677 -0.3463 -0.2855
  482SOL    HW2 1446   1.039   2.432   2.734 -0.3792  0.5987  0.6000
  483SOL     OW 1447   0.571   2.597   2.375  0.2573  0.0461 -0.2169
  483SOL    HW1 1448   0.478   2.640   2.367  1.1648 -0.2598 -2.9165
  483SOL    HW2 1449   0.573   2.507   2.328  2.7838  0.0357  0.8459
  484SOL     OW 1450   1.351   0.711   1.441  0.7235  0.7103 -0.2212
  484SOL    HW1 1451   1.359   0.720   1.542  0.5275 -0.2434 -1.4186
  484SOL    HW2 1452   1.368   0.802   1.395  2.6438  1.0045 -3.4839
  485SOL     OW 1453   2.234   0.863   2.528  0.5532 -0.6099  0.8391
  485SOL    HW1 1454   2.151   0.817   2.568 -0.8662 -1.3710  1.5563
  485SOL    HW2 1455   2.209   0.931   2.452  0.3394  0.7178 -1.3719
  486SOL     OW 1456   2.375   2.907   1.016  0.4239 -0.1075 -0.1447
  486SOL    HW1 1457   2.363   2.812   0.978  0.5889  0.7315  1.3356
  486SOL    HW2 1458   2.421   2.968   0.951  1.0944 -0.3830  2.5729
  487SOL     OW 1459   0.691   2.230   1.692  0.0721  0.1999  0.0373
  487SOL    HW1 1460   0.650   2.179   1.614  0.9319  0.7196  2.5887
  487SOL    HW2 1461   0.792   2.206   1.689 -0.9242  0.3699  0.3733
  488SOL     OW 1462   2.561   1.469   2.850  0.5298 -0.1815  1.0149
  488SOL    HW1 1463   2.563   1.481   2.748 -0.2893  1.5493 -0.2755
  488SOL    HW2 1464   2.561   1.372   2.864  0.5383  3.3999 -2.1419
  489SOL     OW 1465   2.036   2.975   0.789 -0.1352  0.0800  0.0993
  489SOL    HW1 1466   2.030   2.963   0.891 -1.5415 -1.9667  0.0628
  489SOL    HW2 1467   1.996   3.067   0.760  0.7635  1.8004 -0.6967
  490SOL     OW 1468   0.932   1.134   0.280  0.6304  0.0472 -0.5739
  490SOL    HW1 1469   0.917   1.204   0.348 -0.8433  0.3003 -2.0620
  490SOL    HW2 1470   0.840   1.097   0.245 -0.0919 -1.0725 -1.6642
  491SOL     OW 1471   0.219   2.294   1.083 -0.3697 -0.0402  0.2555
  491SOL    HW1 1472   0.248   2.392   1.095 -2.3087  1.4671 -2.6562
  491SOL    HW2 1473   0.120   2.287   1.103 -0.6898 -0.4079 -0.5413
  492SOL     OW 1474   1.202   1.860   1.933 -0.0803  0.2017  0.1013
  492SOL    HW1 1475   1.259   1.947   1.955 -0.7411 -0.4345  0.6019
  492SOL    HW2 1476   1.154   1.870   1.848  3.3175 -1.3220 -2.0279
  493SOL     OW 1477   2.754   2.457   0.865  0.1465 -0.0844  0.3240
  493SOL    HW1 1478   2.828   2.438   0.800 -0.8200 -2.0781 -1.8218
  493SOL    HW2 1479   2.787   2.480   0.959 -0.8090 -0.6156  0.6591
  494SOL     OW 1480   2.785   2.117   0.328 -0.5100 -0.5056  0.0692
  494SOL    HW1 1481   2.754   2.085   0.236  1.2103  0.9882 -2.7368
  494SOL    HW2 1482   2.832   2.038   0.375  0.6267 -2.3656  1.1465
  495SOL     OW 1483   2.816   2.711   0.038 -0.3547  0.1255  0.2720
  495SOL    HW1 1484   2.900   2.701   0.089 -2.0992 -0.8225  2.0893
  495SOL    HW2 1485   2.831   2.684   3.036 -1.0038  1.5029 -0.8215
  496SOL     OW 1486   2.485   0.450   1.321 -0.4670  0.2846 -0.2161
  496SOL    HW1 1487   2.429   0.479   1.402 -1.4677 -0.0842 -0.7452
  496SOL    HW2 1488   2.440   0.367   1.292 -0.5658 -1.7291  3.1957
  497SOL     OW 1489   2.918   1.346   3.042  0.5284  0.2098  0.5297
  497SOL    HW1 1490   3.012   1.352   3.079 -0.2692 -2.3892  0.4303
  497SOL    HW2 1491   2.896   1.411   2.965 -0.5434  1.1907 -0.4157
  498SOL     OW 1492   3.056   1.520   1.884 -0.8848  0.1927  0.5796
  498SOL    HW1 1493   3.054   1.497   1.983 -3.0612  0.3188 -4.3300
  498SOL    HW2 1494   0.028   1.593   1.866  0.3062  4.1021  1.3113
  499SOL     OW 1495   0.802   2.366   2.736 -0.6102  0.4440 -0.3395
  499SOL    HW1 1496   0.726   2.432   2.722 -2.3408 -1.1616  0.3830
  499SOL    HW2 1497   0.777   2.291   2.799 -1.5099  0.5074 -0.4783
  500SOL     OW 1498   1.860   0.442   3.031  0.3941 -0.7110  0.1732
  500SOL    HW1 1499   1.960   0.455   3.027 -2.2684 -0.0486  1.8192
  500SOL    HW2 1500   1.828   0.360   2.980 -1.6390  1.7660  1.4698
  501SOL     OW 1501   1.107   0.051   1.945 -0.3117 -0.3117  0.8648
  501SOL    HW1 1502   1.106   0.107   2.033  3.3284  2.3693 -1.4589
  501SOL    HW2 1503   1.180   0.084   1.882 -0.1525 -2.1963  0.8314
  502SOL     OW 1504   2.449   0.646   1.798  0.3770  0.1199  0.6060
  502SOL    HW1 1505   2.357   0.611   1.837 -2.4069 -2.3439 -1.3043
  502SOL    HW2 1506   2.474   0.604   1.713  5.3063  1.3196  0.3779
  503SOL     OW 1507   2.480   1.941   2.183 -0.2978 -0.2650 -0.1431
  503SOL    HW1 1508   2.538   2.023   2.158  0.2344  2.7086  1.9881
  503SOL    HW2 1509   2.424   1.922   2.101  1.4295 -0.4828 -1.6176
  504SOL     OW 1510   1.586   0.977   1.526  0.2688  0.2195  0.7352
  504SOL    HW1 1511   1.635   1.066   1.520 -0.8568 -1.8409  1.2996
  504SOL    HW2 1512   1.506   0.978   1.462 -2.9274 -1.7527 -0.8983
  505SOL     OW 1513   0.929   0.756   1.602 -0.3693 -0.1246  0.6113
  505SOL    HW1 1514   0.951   0.772   1.697  3.8756  1.1044 -1.2561
  505SOL    HW2 1515   1.005   0.699   1.570 -1.2480  1.5730 -0.1421
  506SOL     OW 1516   0.325   0.192   2.670  0.1016  0.4514  0.5289
  506SOL    HW1 1517   0.356   0.181   2.767  0.9163  0.1695  2.1462
  506SOL    HW2 1518   0.237   0.147   2.642  1.7955  1.2404 -2.4272
  507SOL     OW 1519   0.057   0.225   0.145  0.4186 -0.5710 -0.1637
  507SOL    HW1 1520   0.079   0.291   0.222  1.3202 -0.2433 -1.6175
  507SOL    HW2 1521   0.041   0.269   0.053  0.8923  2.0878  0.0250
  508SOL     OW 1522   1.157   0.984   1.482 -0.0969  0.6490  0.4078
  508SOL    HW1 1523   1.112   1.078   1.483  0.4180 -2.3442  0.5746
  508SOL    HW2 1524   1.185   0.961   1.575  1.5613  2.4683 -3.6666
  509SOL     OW 1525   1.425   2.308   1.397  0.0847 -0.0451 -0.1563
  509SOL    HW1 1526   1.437   2.233   1.328 -0.8225 -0.8728  0.6168
  509SOL    HW2 1527   1.336   2.305   1.446  1.2170 -1.6959  0.3276
  510SOL     OW 1528   2.526   1.333   1.969  0.1781  0.1433 -0.4890
  510SOL    HW1 1529   2.534   1.424   1.933  0.3086 -3.3029  0.0454
  510SOL    HW2 1530   2.591   1.330   2.045  0.0161  0.4701 -2.7791
  511SOL     OW 1531   1.190   2.300   1.521  0.1451  0.3109 -0.3192
  511SOL    HW1 1532   1.137   2.369   1.470  1.8865 -0.7838 -0.4009
  511SOL    HW2 1533   1.150   2.283   1.614  0.4494  1.2403 -2.1064
  512SOL     OW 1534   2.709   1.764   0.968 -0.3703  0.4597 -0.3386
  512SOL    HW1 1535   2.717   1.681   0.907 -0.5178  0.0117 -1.4730
  512SOL    HW2 1536   2.785   1.766   1.032 -2.3509  0.7167 -0.4970
  513SOL     OW 1537   0.152   1.432   2.851 -0.4422  0.3743 -0.5836
  513SOL    HW1 1538   0.250   1.456   2.841 -0.6480  1.1848  0.6453
  513SOL    HW2 1539   0.125   1.439   2.951  1.6832 -1.9469  4.0060
  514SOL     OW 1540   2.860   2.380   2.489 -0.3747 -0.3849  0.0557
  514SOL    HW1 1541   2.941   2.321   2.452  1.6633 -1.8915  0.6792
  514SOL    HW2 1542   2.872   2.481   2.471  2.0433  3.1293 -1.3237
  515SOL     OW 1543   2.215   1.139   0.667 -0.5214 -0.4200  0.4125
  515SOL    HW1 1544   2.141   1.080   0.625 -1.2092 -1.2812  0.4222
  515SOL    HW2 1545   2.184   1.184   0.756 -2.4080  0.4230  2.5204
  516SOL     OW 1546   2.263   1.871   0.311 -0.3467  0.0548 -0.0632
  516SOL    HW1 1547   2.244   1.893   0.407  1.2646 -0.0970 -0.5329
  516SOL    HW2 1548   2.271   1.771   0.294  0.4769 -0.7516  0.2021
  517SOL     OW 1549   0.826   1.060   2.975  0.3474  0.3842 -1.0127
  517SOL    HW1 1550   0.812   1.131   2.901  2.1873 -0.8676  0.1063
  517SOL    HW2 1551   0.915   1.084   3.022  1.3451 -0.8501  0.1615
  518SOL     OW 1552   2.774   3.009   2.318 -0.5005 -0.3000 -0.5427
  518SOL    HW1 1553   2.812   3.027   2.226  0.9938 -0.1202  0.5403
  518SOL    HW2 1554   2.677   2.981   2.319  2.1893 -3.1251  1.3287
  519SOL     OW 1555   1.352   1.450   2.715  0.3998  0.1656  0.0525
  519SOL    HW1 1556   1.410   1.483   2.788  0.7871  1.6821 -1.6906
  519SOL    HW2 1557   1.405   1.426   2.635 -0.5450  0.2064  0.7590
  520SOL     OW 1558   2.538   2.847   2.276  0.1330  0.0957 -0.6670
  520SOL    HW1 1559   2.452   2.822   2.226  0.7561  0.1992 -0.6818
  520SOL    HW2 1560   2.603   2.765   2.274  0.9265 -1.1012 -1.8049
  521SOL     OW 1561   0.639   1.424   2.036  0.4448 -0.1890 -0.0048
  521SOL    HW1 1562   0.667   1.397   2.134 -0.4198 -2.0137  0.8496
  521SOL    HW2 1563   0.533   1.420   2.028 -3.2334 -0.6468  0.3564
  522SOL     OW 1564   0.789   2.588   1.952  0.3353 -0.1404 -0.1004
  522SOL    HW1 1565   0.733   2.617   1.876  0.9866 -1.6632  3.1635
  522SOL    HW2 1566   0.798   2.662   2.026 -0.4855 -0.6284  3.4194
  523SOL     OW 1567   2.802   2.440   1.674 -0.1364  0.0282 -0.0892
  523SOL    HW1 1568   2.835   2.378   1.748  0.5646  1.7300  0.9614
  523SOL    HW2 1569   2.752   2.391   1.601 -0.1138  2.4298  1.6461
  524SOL     OW 1570   1.302   2.513   0.687  0.2286 -0.1763  0.5910
  524SOL    HW1 1571   1.261   2.450   0.615 -3.2523 -0.4334  1.0078
  524SOL    HW2 1572   1.259   2.481   0.773  1.0411 -0.5700 -0.6606
  525SOL     OW 1573   2.852   0.895   0.914  0.3414  0.1122 -0.1706
  525SOL    HW1 1574   2.885   0.945   0.834 -0.4596 -0.3448 -1.2649
  525SOL    HW2 1575   2.747   0.900   0.912 -1.1276  2.4786 -1.0494
  526SOL     OW 1576   0.978   2.572   0.822 -0.1610 -0.1356 -0.0445
  526SOL    HW1 1577   0.961   2.588   0.722  1.0808  0.3185  0.1945
  526SOL    HW2 1578   1.022   2.484   0.837 -2.2163  0.4229  1.7004
  527SOL     OW 1579   2.176   2.220   0.727  0.1331 -0.0499 -0.3760
  527SOL    HW1 1580   2.099   2.279   0.756 -1.4419 -0.1911 -3.6680
  527SOL    HW2 1581   2.258   2.224   0.790  0.2635 -1.6976 -3.2188
  528SOL     OW 1582   2.281   0.051   3.032 -0.3156 -0.0411  0.3522
  528SOL    HW1 1583   2.210   0.092   2.970 -0.5292 -2.3826  1.1449
  528SOL    HW2 1584   2.254   0.063   0.030 -2.1058 -0.4417  0.7438
  529SOL     OW 1585   1.503   1.555   2.050  0.5079 -0.0127  0.2217
  529SOL    HW1 1586   1.546   1.497   2.122 -1.2361  3.7552  3.6698
  529SOL    HW2 1587   1.496   1.647   2.085  1.5228 -6.1379 -3.3695
  530SOL     OW 1588   2.518   1.144   2.572 -0.1122 -0.0955 -0.1284
  530SOL    HW1 1589   2.536   1.116   2.475  1.1761  1.9424  1.5852
  530SOL    HW2 1590   2.556   1.238   2.588  2.1143 -0.0780  0.2053
  531SOL     OW 1591   0.731   0.771   3.065 -0.1907 -0.7307  0.0246
  531SOL    HW1 1592   0.773   0.845   3.011 -1.8740  2.9557  1.1917
  531SOL    HW2 1593   0.780   0.745   0.050  1.5272 -0.4150 -0.7575
  532SOL     OW 1594   1.698   1.520   0.633  0.3973 -0.2444 -0.6619
  532SOL    HW1 1595   1.772   1.460   0.597  1.8362 -0.7372  0.5063
  532SOL    HW2 1596   1.679   1.491   0.732 -1.8463  2.6778  1.2734
  533SOL     OW 1597   0.341   0.785   2.000  0.1113 -0.1143 -0.3940
  533SOL    HW1 1598   0.361   0.777   1.899 -0.2993  0.9284 -1.0114
  533SOL    HW2 1599   0.414   0.741   2.051  0.8403 -0.5807 -0.2346
  534SOL     OW 1600   1.341   0.352   2.487 -0.1428  0.0111 -0.0804
  534SOL    HW1 1601   1.258   0.355   2.545  0.4342  0.6707 -1.6388
  534SOL    HW2 1602   1.363   0.255   2.479 -0.7829  4.4172 -1.3606
  535SOL     OW 1603   0.759   0.557   0.378 -0.0020 -0.6834 -0.2822
  535SOL    HW1 1604   0.665   0.584   0.405 -1.2569  0.5947  3.1936
  535SOL    HW2 1605   0.800   0.507   0.458 -1.6970 -0.4569 -0.0564
  536SOL     OW 1606   0.861   0.424   3.017  0.6216  0.3675 -0.1625
  536SOL    HW1 1607   0.909   0.510   2.988 -0.4034 -0.6695 -0.2270
  536SOL    HW2 1608   0.860   0.417   0.019 -0.9266 -2.4727 -1.5781
  537SOL     OW 1609   1.279   0.114   1.728 -0.1734 -0.4146  0.6018
  537SOL    HW1 1610   1.221   0.098   1.644 -1.9230  0.9790 -0.5536
  537SOL    HW2 1611   1.345   0.032   1.731  3.4207 -4.5855  0.1337
  538SOL     OW 1612   0.129   2.911   0.119  0.0556  0.4004 -0.0589
  538SOL    HW1 1613   0.164   2.996   0.079 -1.3042  0.5962  0.8714
  538SOL    HW2 1614   0.108   2.938   0.214  2.1617  0.3686 -2.4588
  539SOL     OW 1615   2.622   1.096   1.834  0.3470 -0.3639  0.0347
  539SOL    HW1 1616   2.581   1.003   1.866 -1.7908 -3.8129  3.0897
  539SOL    HW2 1617   2.574   1.179   1.874  0.6868 -0.7618 -0.1634
  540SOL     OW 1618   2.198   2.091   1.693  0.3276 -0.0009 -0.4157
  540SOL    HW1 1619   2.258   2.044   1.632 -2.5735  2.2159  2.5738
  540SOL    HW2 1620   2.196   2.059   1.791 -0.3516  2.1697 -0.8379
  541SOL     OW 1621   0.447   2.633   1.523 -0.0305 -0.0645 -0.3638
  541SOL    HW1 1622   0.523   2.587   1.475  0.5132 -1.7972  0.3145
  541SOL    HW2 1623   0.357   2.579   1.514 -2.2658 -0.9933  1.1934
  542SOL     OW 1624   2.639   0.618   1.996  1.0230 -0.0272 -0.2136
  542SOL    HW1 1625   2.590   0.644   1.912 -0.1933  0.4499  3.2507
  542SOL    HW2 1626   2.632   0.517   2.012  0.6787  1.0648  2.0583
  543SOL     OW 1627   0.930   0.724   0.926 -0.1699  0.0162 -0.4305
  543SOL    HW1 1628   0.957   0.815   0.887  1.8106 -2.2400 -2.0002
  543SOL    HW2 1629   0.984   0.710   1.014 -2.4270 -1.0190  2.2105
  544SOL     OW 1630   2.168   2.124   1.301  0.2281 -0.6948  0.2703
  544SOL    HW1 1631   2.250   2.165   1.340 -0.7222 -0.6608  1.2100
  544SOL    HW2 1632   2.196   2.032   1.269  2.4842 -0.5423 -0.7471
  545SOL     OW 1633   1.510   1.490   1.243  0.1037 -0.2335  0.1818
  545SOL    HW1 1634   1.562   1.427   1.186 -0.6727 -0.7304 -0.9577
  545SOL    HW2 1635   1.555   1.582   1.237 -0.4023  1.2795  0.0828
  546SOL     OW 1636   2.919   3.099   2.746 -0.7434 -0.1493 -0.1937
  546SOL    HW1 1637   2.876   0.082   2.715  1.6251 -0.0882  0.1379
  546SOL    HW2 1638   2.951   0.018   2.841 -1.0136 -0.9071  1.2455
  547SOL     OW 1639   2.358   0.133   2.707 -0.5362 -0.3850 -0.4316
  547SOL    HW1 1640   2.279   0.140   2.776 -1.7853  1.2659 -0.2452
  547SOL    HW2 1641   2.432   0.204   2.722 -0.3811 -2.5422  0.2405
  548SOL     OW 1642   2.749   2.048   2.582 -0.3813 -0.6775 -0.3459
  548SOL    HW1 1643   2.683   1.982   2.614  0.7880  0.0021 -1.3940
  548SOL    HW2 1644   2.834   2.051   2.643  3.3109 -0.9904  1.6261
  549SOL     OW 1645   2.329   0.434   0.634 -0.0837 -0.1083  0.2897
  549SOL    HW1 1646   2.406   0.485   0.678 -0.9202  0.5777 -0.4105
  549SOL    HW2 1647   2.360   0.372   0.560  0.8161 -0.7972  1.9467
  550SOL     OW 1648   2.773   1.261   0.150  0.5375 -0.1279 -0.5429
  550SOL    HW1 1649   2.830   1.319   0.087  0.0240 -0.1326 -0.5901
  550SOL    HW2 1650   2.673   1.293   0.146 -3.1813 -0.5158 -1.3146
  551SOL     OW 1651   1.258   2.681   1.390 -0.1380 -0.1514 -0.4311
  551SOL    HW1 1652   1.265   2.774   1.346  2.3156  0.9953  1.5025
  551SOL    HW2 1653   1.346   2.638   1.388  0.6398  3.6350  1.9525
  552SOL     OW 1654   2.725   2.263   2.961  0.1734  0.1910  0.2087
  552SOL    HW1 1655   2.702   2.286   2.866  1.2830 -1.0144  0.1585
  552SOL    HW2 1656   2.653   2.302   3.029 -3.4090  2.9726  1.1527
  553SOL     OW 1657   0.715   3.032   0.692  0.6298 -0.0699  0.6308
  553SOL    HW1 1658   0.772   0.005   0.738  0.0918 -1.7844 -1.8962
  553SOL    HW2 1659   0.764   3.013   0.604  1.0621 -4.4136  0.2536
  554SOL     OW 1660   1.858   1.841   1.879  0.2482  0.2210 -0.2145
  554SOL    HW1 1661   1.917   1.867   1.962  0.9487  0.3596  1.6963
  554SOL    HW2 1662   1.871   1.742   1.858 -2.5853 -2.3527 -1.2313
  555SOL     OW 1663   1.374   2.409   2.074  0.4673 -0.2928  0.1500
  555SOL    HW1 1664   1.272   2.408   2.063  2.9500 -1.0907 -1.7129
  555SOL    HW2 1665   1.417   2.413   1.986 -0.2417 -0.2011  0.7389
  556SOL     OW 1666   1.942   1.408   0.551 -0.0632  0.1308 -0.5247
  556SOL    HW1 1667   1.972   1.310   0.550 -0.6515  0.8705  0.7842
  556SOL    HW2 1668   2.003   1.466   0.493  1.8406  0.5824  0.6368
  557SOL     OW 1669   1.182   2.162   2.136 -0.0335 -0.2598 -0.5105
  557SOL    HW1 1670   1.122   2.244   2.115 -2.9291  4.6990  1.7886
  557SOL    HW2 1671   1.246   2.139   2.054  0.7438 -1.5645 -2.3193
  558SOL     OW 1672   3.029   1.044   2.437  0.5140  0.3999  0.0428
  558SOL    HW1 1673   3.059   1.124   2.490  0.1219  4.5003  2.0228
  558SOL    HW2 1674   2.939   1.011   2.468  0.4975  1.2521 -0.2224
  559SOL     OW 1675   2.210   2.589   2.065 -0.5463 -0.0683 -0.1700
  559SOL    HW1 1676   2.136   2.565   2.000 -1.0250  1.4540  1.6947
  559SOL    HW2 1677   2.215   2.690   2.073 -1.4099 -1.1121 -0.5995
  560SOL     OW 1678   0.227   3.098   3.025 -0.3394  0.3829 -0.8802
  560SOL    HW1 1679   0.316   0.042   3.000  2.1025  1.0889  2.4302
  560SOL    HW2 1680   0.159   0.072   3.022  0.7190 -1.5567 -1.0685
  561SOL     OW 1681   1.782   0.824   0.477  0.1043 -0.4341 -0.1444
  561SOL    HW1 1682   1.839   0.774   0.414 -1.8499  0.8728  3.2905
  561SOL    HW2 1683   1.807   0.800   0.576  0.8697 -0.9769  1.7373
  562SOL     OW 1684   0.935   1.069   1.978  0.5671  0.5445  0.3608
  562SOL    HW1 1685   0.890   1.010   2.051 -0.4667  1.3478  1.9766
  562SOL    HW2 1686   1.017   1.109   2.018 -0.7245  0.2532  0.1464
  563SOL     OW 1687   1.549   2.263   0.215  0.1975 -0.9755  0.0730
  563SOL    HW1 1688   1.575   2.201   0.288 -0.6693  1.6007 -1.6091
  563SOL    HW2 1689   1.454   2.299   0.222 -2.1567  0.8200 -3.9760
  564SOL     OW 1690   0.462   1.925   0.769 -0.2667  0.1171 -0.6171
  564SOL    HW1 1691   0.499   2.014   0.736 -0.5041  1.0284  0.3067
  564SOL    HW2 1692   0.531   1.855   0.763  1.7239  1.5230  0.3641
  565SOL     OW 1693   0.849   3.049   3.059 -0.2791 -0.2187  0.4140
  565SOL    HW1 1694   0.813   2.977   3.001 -1.0007  1.2161 -0.1610
  565SOL    HW2 1695   0.831   0.045   3.029  0.0794 -1.0299  0.7621
  566SOL     OW 1696   1.909   2.487   2.915  0.7090 -0.3429  0.4214
  566SOL    HW1 1697   1.915   2.446   2.822  0.5453 -1.2556  0.7602
  566SOL    HW2 1698   1.814   2.488   2.948  0.1526  0.9543  1.3539
  567SOL     OW 1699   2.426   1.693   1.023  0.1978  0.5077 -0.3289
  567SOL    HW1 1700   2.517   1.710   1.060 -2.9158 -1.3697  1.5203
  567SOL    HW2 1701   2.399   1.600   1.054 -0.8568  3.1226  3.0480
  568SOL     OW 1702   1.820   0.913   2.607 -0.5550 -0.5574  0.0597
  568SOL    HW1 1703   1.739   0.886   2.552  0.3679 -2.2166 -0.6761
  568SOL    HW2 1704   1.869   0.997   2.576 -1.2830  0.3023  0.8975
  569SOL     OW 1705   2.358   1.625   2.131 -0.0750 -0.1083  0.3009
  569SOL    HW1 1706   2.415   1.619   2.046  2.8706 -1.1583 -2.9652
  569SOL    HW2 1707   2.391   1.581   2.218  2.3127  1.5952 -0.1870
  570SOL     OW 1708   2.833   2.582   2.047 -0.3914  0.4054  0.4752
  570SOL    HW1 1709   2.927   2.596   2.080  0.2103 -0.1737 -0.2772
  570SOL    HW2 1710   2.793   2.670   2.018  0.8350 -1.1012  2.5085
  571SOL     OW 1711   0.066   0.180   1.736 -0.4818  0.2929 -0.0088
  571SOL    HW1 1712   0.055   0.179   1.838  0.5766  0.9935 -1.1462
  571SOL    HW2 1713   0.048   0.273   1.698  0.0397  0.3663  0.1579
  572SOL     OW 1714   0.838   2.020   0.881  0.0450  0.0983 -0.3354
  572SOL    HW1 1715   0.771   1.992   0.955 -1.1688  2.7206  0.5096
  572SOL    HW2 1716   0.787   2.027   0.795  3.7608 -0.8273  0.6342
  573SOL     OW 1717   1.164   0.834   0.029  0.0081  0.1432 -0.1499
  573SOL    HW1 1718   1.085   0.776   0.050 -0.1898 -0.7141  4.0799
  573SOL    HW2 1719   1.151   0.924   0.076  0.2996  1.5961 -1.2054
  574SOL     OW 1720   0.352   0.228   0.419 -0.5416 -0.4319 -0.3563
  574SOL    HW1 1721   0.405   0.143   0.435  1.9938  3.5550 -0.1054
  574SOL    HW2 1722   0.336   0.227   0.320  1.1458  1.2900  0.8891
  575SOL     OW 1723   0.803   1.891   1.324  0.1339  0.0211 -0.0923
  575SOL    HW1 1724   0.884   1.936   1.364 -2.1251  1.0650 -1.5838
  575SOL    HW2 1725   0.800   1.797   1.347  1.3401  4.6516 -0.8456
  576SOL     OW 1726   2.642   0.253   2.014 -0.2370  0.3079 -0.2529
  576SOL    HW1 1727   2.579   0.244   2.094 -1.6816  1.6716  2.9561
  576SOL    HW2 1728   2.733   0.214   2.040  1.4906 -0.4847 -1.8408
  577SOL     OW 1729   2.772   1.609   2.023 -0.1798  0.2968  0.0056
  577SOL    HW1 1730   2.782   1.689   2.088 -1.2905  1.2939  0.2383
  577SOL    HW2 1731   2.854   1.549   2.028  1.2047 -0.3937 -0.9409
  578SOL     OW 1732   1.013   2.943   2.299 -0.5088 -0.1581  0.2434
  578SOL    HW1 1733   1.087   2.971   2.357  2.0735  1.7648 -1.5813
  578SOL    HW2 1734   0.945   2.886   2.347 -0.0969 -1.3607 -0.2317
  579SOL     OW 1735   2.229   1.988   1.925  0.1956 -0.5256 -0.0338
  579SOL    HW1 1736   2.171   1.929   1.988  2.4240  2.5862  1.7366
  579SOL    HW2 1737   2.238   2.085   1.956  1.7211  1.6453 -0.0233
  580SOL     OW 1738   1.833   1.087   2.041  0.1020 -0.4240  0.6466
  580SOL    HW1 1739   1.797   1.052   1.952  1.4680 -1.2396 -0.1222
  580SOL    HW2 1740   1.858   1.013   2.110  2.4873 -1.4056 -0.7753
  581SOL     OW 1741   1.356   1.182   2.396  0.4912  0.1795  0.2649
  581SOL    HW1 1742   1.285   1.256   2.385  0.2884 -2.3106  1.8009
  581SOL    HW2 1743   1.350   1.123   2.316 -2.4730  0.4066 -0.0446
  582SOL     OW 1744   0.077   2.145   2.005 -0.2894 -0.2299 -0.2381
  582SOL    HW1 1745   0.157   2.132   2.059 -1.7515 -1.1126 -1.6907
  582SOL    HW2 1746   0.062   2.242   1.987 -2.2858 -0.9812 -0.7084
  583SOL     OW 1747   1.856   1.140   0.732  0.1293 -0.7482 -0.2723
  583SOL    HW1 1748   1.909   1.082   0.666  2.7342  0.4327 -0.8858
  583SOL    HW2 1749   1.757   1.148   0.707 -0.4012  1.6645  1.8574
  584SOL     OW 1750   0.894   2.609   0.296 -0.3539 -0.1595 -0.1843
  584SOL    HW1 1751   0.811   2.636   0.244  0.9158  1.2651  0.9092
  584SOL    HW2 1752   0.984   2.621   0.247  0.7093 -0.4336  1.5257
  585SOL     OW 1753   0.123   2.539   0.263 -0.6244  0.0305 -0.5540
  585SOL    HW1 1754   0.032   2.487   0.259  0.2403  1.6129  1.6938
  585SOL    HW2 1755   0.154   2.576   0.175  3.0173  3.3420  2.0620
  586SOL     OW 1756   2.360   1.193   0.425 -0.5116  0.0238  0.1318
  586SOL    HW1 1757   2.320   1.172   0.514  1.2747  2.0409 -1.9882
  586SOL    HW2 1758   2.407   1.283   0.430 -3.4200 -2.8891  0.5702
  587SOL     OW 1759   2.969   1.963   0.551 -0.3656  0.1318 -0.6709
  587SOL    HW1 1760   2.981   2.039   0.615 -0.9424  0.5703  1.6427
  587SOL    HW2 1761   2.905   1.891   0.585  1.3295  0.2918 -3.9906
  588SOL     OW 1762   0.011   0.756   0.820 -0.0333 -0.1000 -0.0202
  588SOL    HW1 1763   0.083   0.785   0.880 -2.1806 -1.1105 -0.5572
  588SOL    HW2 1764   3.037   0.713   0.877 -0.3575  2.8858  0.0735
  589SOL     OW 1765   1.622   0.098   0.752  0.2182 -0.0690 -0.0040
  589SOL    HW1 1766   1.557   0.126   0.683  1.0694 -0.7716  2.1630
  589SOL    HW2 1767   1.664   0.005   0.748  0.3686  0.8421 -1.2714
  590SOL     OW 1768   2.339   2.237   0.282  0.1482  0.0811 -0.2570
  590SOL    HW1 1769   2.395   2.167   0.337  1.7094 -2.7928  0.7935
  590SOL    HW2 1770   2.373   2.334   0.308  0.4467  1.4459  2.4213
  591SOL     OW 1771   0.406   2.485   1.939 -0.3530  0.0210 -0.1188
  591SOL    HW1 1772   0.499   2.445   1.948  0.0472  0.0207 -0.4301
  591SOL    HW2 1773   0.334   2.422   1.900  0.7330  0.8474  0.7553
  592SOL     OW 1774   0.381   1.418   2.018  0.3003  0.7901  0.0511
  592SOL    HW1 1775   0.361   1.402   2.119 -1.9301 -4.1207  0.9869
  592SOL    HW2 1776   0.386   1.328   1.968 -3.4387 -2.9423  0.2796
  593SOL     OW 1777   1.446   1.676   1.628 -0.0923 -0.1969  0.2385
  593SOL    HW1 1778   1.352   1.633   1.597 -1.2229  0.8460  1.2669
  593SOL    HW2 1779   1.447   1.694   1.728 -1.3446 -2.1266 -0.5240
  594SOL     OW 1780   0.434   1.085   2.903  0.4495  0.5336  0.3721
  594SOL    HW1 1781   0.534   1.109   2.896 -0.7113 -2.1561  0.2095
  594SOL    HW2 1782   0.389   1.095   2.810  0.1777 -1.6926  0.8287
  595SOL     OW 1783   1.936   0.210   0.958 -0.3220  0.0011  0.3873
  595SOL    HW1 1784   1.979   0.300   0.979 -3.0933  0.7263  1.7582
  595SOL    HW2 1785   1.855   0.197   1.022 -1.2972  0.7213  3.0925
  596SOL     OW 1786   0.502   1.137   1.020  0.3335  0.1650  0.0932
  596SOL    HW1 1787   0.575   1.198   1.058 -0.5916 -2.4299 -0.6511
  596SOL    HW2 1788   0.426   1.135   1.089 -0.4075  1.7381  2.1523
  597SOL     OW 1789   2.946   2.410   2.955 -0.5104  0.3347 -0.0207
  597SOL    HW1 1790   2.881   2.332   2.964  0.0338  0.2108  2.0638
  597SOL    HW2 1791   2.896   2.490   2.913 -0.3278  3.2519  2.5737
  598SOL     OW 1792   2.188   1.978   2.510 -0.1645 -0.4695  0.4241
  598SOL    HW1 1793   2.174   2.052   2.442  0.0548  1.6053 -2.4664
  598SOL    HW2 1794   2.219   2.008   2.605  0.9986  0.6807  1.2735
  599SOL     OW 1795   1.524   0.712   0.430 -0.8755 -0.0914  0.0428
  599SOL    HW1 1796   1.524   0.614   0.426  2.4324  0.2016  0.0188
  599SOL    HW2 1797   1.619   0.752   0.445  4.2144  0.7222 -2.4933
  600SOL     OW 1798   1.092   0.294   0.243 -0.3425 -0.4264  0.2123
  600SOL    HW1 1799   1.011   0.343   0.214  1.8712  0.3242 -0.3723
  600SOL    HW2 1800   1.166   0.313   0.176 -0.9481  0.7392  1.7346
  601SOL     OW 1801   0.525   0.237   1.551 -0.3697 -0.0878 -0.1804
  601SOL    HW1 1802   0.626   0.228   1.567 -1.0567 -0.5357 -2.7257
  601SOL    HW2 1803   0.498   0.329   1.520 -1.1559 -1.7153 -0.7022
  602SOL     OW 1804   0.200   2.830   0.765 -0.1480 -0.4741 -0.7610
  602SOL    HW1 1805   0.283   2.778   0.743  0.4313  0.9148  1.6432
  602SOL    HW2 1806   0.119   2.778   0.739 -0.1498  1.0556  0.3713
  603SOL     OW 1807   0.767   2.778   2.417  0.0499 -0.0734 -0.0667
  603SOL    HW1 1808   0.718   2.850   2.358 -0.3586 -0.5317  0.7550
  603SOL    HW2 1809   0.696   2.701   2.426 -2.8339 -3.7218  0.7494
  604SOL     OW 1810   1.123   2.676   0.133 -0.0962 -0.2333 -0.1335
  604SOL    HW1 1811   1.171   2.630   0.212 -2.3291 -1.3144  0.4192
  604SOL    HW2 1812   1.187   2.709   0.056 -2.0619  0.8063  1.2143
  605SOL     OW 1813   1.750   0.992   1.741  0.3977 -0.2827 -0.0062
  605SOL    HW1 1814   1.659   0.995   1.691 -0.6027 -2.0619 -1.4208
  605SOL    HW2 1815   1.826   1.010   1.680 -0.7096  0.0928  1.8309
  606SOL     OW 1816   0.967   0.661   2.349 -0.3064 -0.5414  0.7190
  606SOL    HW1 1817   0.968   0.588   2.279 -0.5190 -2.1811  1.7121
  606SOL    HW2 1818   1.040   0.731   2.334 -0.6410  2.3614  1.0269
  607SOL     OW 1819   0.400   1.427   1.272 -0.0469  0.4597  0.7987
  607SOL    HW1 1820   0.376   1.328   1.245  0.6559 -1.7047 -1.9327
  607SOL    HW2 1821   0.351   1.496   1.211 -0.3994  1.7708 -1.5084
  608SOL     OW 1822   2.674   2.227   2.370  0.0153  0.8090 -0.3651
  608SOL    HW1 1823   2.718   2.313   2.403 -0.6861 -1.3094 -1.9754
  608SOL    HW2 1824   2.671   2.161   2.445  1.9513 -0.0598  0.1305
  609SOL     OW 1825   2.046   3.003   0.127  0.0293 -0.3628  0.2934
  609SOL    HW1 1826   1.966   3.062   0.094 -0.7931 -0.1612 -2.1341
  609SOL    HW2 1827   2.102   3.051   0.202  0.5698 -1.8744 -1.1331
  610SOL     OW 1828   0.545   2.891   1.347  0.2029 -0.1150  0.0718
  610SOL    HW1 1829   0.533   2.801   1.387 -0.7753  2.0303 -0.9146
  610SOL    HW2 1830   0.517   2.890   1.249  4.1684 -0.0322  2.1111
  611SOL     OW 1831   1.169   1.587   0.672 -0.4971 -0.2451  0.5315
  611SOL    HW1 1832   1.070   1.617   0.655 -2.0230  0.8698  1.2645
  611SOL    HW2 1833   1.207   1.549   0.583  0.4615 -1.9184 -2.8877
  612SOL     OW 1834   0.601   0.080   2.467  0.2149 -0.3404  0.1351
  612SOL    HW1 1835   0.555   0.143   2.531  0.6105 -2.8538 -0.5293
  612SOL    HW2 1836   0.685   0.043   2.511 -0.2468 -0.2670  1.0839
  613SOL     OW 1837   2.792   1.791   0.649 -0.5681  0.1246 -0.0886
  613SOL    HW1 1838   2.808   1.698   0.685 -0.7763 -0.8946  1.0093
  613SOL    HW2 1839   2.759   1.856   0.720  0.8494 -1.0322  1.4876
  614SOL     OW 1840   1.633   0.135   1.739 -0.3226 -0.0518  0.1891
  614SOL    HW1 1841   1.573   0.197   1.685  1.2833  1.1318 -0.4141
  614SOL    HW2 1842   1.731   0.131   1.701  1.7038 -0.0043  1.1704
  615SOL     OW 1843   1.074   1.582   1.210  0.0316 -0.3605 -0.1700
  615SOL    HW1 1844   1.156   1.531   1.175 -1.6395 -2.4145 -0.9661
  615SOL    HW2 1845   1.097   1.649   1.278  1.4443 -1.9469 -0.6581
  616SOL     OW 1846   1.522   1.442   2.974 -0.3985 -0.4529  0.6692
  616SOL    HW1 1847   1.574   1.363   3.006 -0.2389  1.5958  0.0782
  616SOL    HW2 1848   1.574   1.528   2.988 -0.8394 -1.0771 -0.8064
  617SOL     OW 1849   1.614   2.694   0.241  0.5931  0.0532 -0.7688
  617SOL    HW1 1850   1.596   2.671   0.144  0.3707  2.8963  2.6454
  617SOL    HW2 1851   1.554   2.633   0.297 -0.7186  1.9391  1.9124
  618SOL     OW 1852   0.976   0.597   2.616  0.1569 -0.3693 -0.3896
  618SOL    HW1 1853   0.973   0.658   2.701 -1.5487 -0.0044 -2.4646
  618SOL    HW2 1854   0.981   0.654   2.529  2.8935 -0.9064  0.4001
  619SOL     OW 1855   2.669   1.352   0.693  0.4181 -1.0397 -0.1464
  619SOL    HW1 1856   2.666   1.257   0.663  2.2408  0.0934 -2.9491
  619SOL    HW2 1857   2.591   1.400   0.655  0.4262 -1.5606 -0.7783
  620SOL     OW 1858   2.345   2.548   3.098  0.1166 -1.1999 -0.0015
  620SOL    HW1 1859   2.351   2.608   3.015 -1.3218 -1.4356 -1.9872
  620SOL    HW2 1860   2.250   2.522   0.020  2.0479 -1.6952  1.1287
  621SOL     OW 1861   2.513   1.369   0.196 -0.1443 -0.6112 -0.3336
  621SOL    HW1 1862   2.469   1.286   0.159  2.7038 -1.5601 -0.6124
  621SOL    HW2 1863   2.536   1.431   0.118 -0.4740  0.5332 -0.4324
  622SOL     OW 1864   1.270   2.424   2.358 -0.0942  0.2541 -0.0329
  622SOL    HW1 1865   1.201   2.351   2.390 -3.4042 -0.1582  2.3629
  622SOL    HW2 1866   1.288   2.425   2.262  0.4747  1.1689  2.1361
  623SOL     OW 1867   0.628   1.708   0.068 -0.0440  0.0593 -0.1581
  623SOL    HW1 1868   0.689   1.702   3.084  2.6949  0.5182 -0.8769
  623SOL    HW2 1869   0.559   1.783   0.056 -1.5857 -0.9403  1.3664
  624SOL     OW 1870   0.412   0.171   2.952  0.2249  0.3804  0.2142
  624SOL    HW1 1871   0.403   0.194   3.051  1.7558  0.5168 -0.3130
  624SOL    HW2 1872   0.507   0.192   2.921  2.9576  2.0044 -0.7961
  625SOL     OW 1873   1.155   1.936   0.564  0.3412  0.0052 -0.0277
  625SOL    HW1 1874   1.061   1.928   0.524  0.9970 -1.3591  0.8499
  625SOL    HW2 1875   1.197   2.027   0.547 -0.2164  0.3318  1.5974
  626SOL     OW 1876   2.686   2.859   2.837 -0.2340  0.8179  0.6854
  626SOL    HW1 1877   2.592   2.877   2.804  0.4547 -0.2831 -2.2575
  626SOL    HW2 1878   2.714   2.922   2.911  1.3613  2.6100  1.4766
  627SOL     OW 1879   1.525   1.334   2.539 -0.3661 -0.0717  0.4445
  627SOL    HW1 1880   1.492   1.243   2.510 -0.3975  2.0288  1.2149
  627SOL    HW2 1881   1.622   1.336   2.578  0.4555 -0.2199  2.1915
  628SOL     OW 1882   0.482   0.619   2.136  0.2832 -0.1910 -0.6888
  628SOL    HW1 1883   0.451   0.663   2.226  0.6191 -2.4490 -1.5148
  628SOL    HW2 1884   0.584   0.631   2.125 -0.9903  0.5470  0.2908
  629SOL     OW 1885   0.141   2.972   1.906  0.2177  0.1312 -0.3994
  629SOL    HW1 1886   0.205   2.903   1.940  0.0315  0.4474 -1.3050
  629SOL    HW2 1887   0.164   3.001   1.811  0.4006  1.1662 -1.3473
  630SOL     OW 1888   1.680   0.748   1.803 -0.3288 -0.3804 -0.0552
  630SOL    HW1 1889   1.739   0.695   1.747  0.1424  1.0965  0.8737
  630SOL    HW2 1890   1.692   0.849   1.775 -1.4261  0.4355 -0.1513
  631SOL     OW 1891   2.411   1.088   0.174  0.6829  0.4555 -0.2499
  631SOL    HW1 1892   2.451   0.991   0.169  0.1196 -2.3998  1.7154
  631SOL    HW2 1893   2.393   1.115   0.273 -1.3060 -0.0854  3.3428
  632SOL     OW 1894   2.019   0.178   1.973 -0.0663 -0.3308 -0.5732
  632SOL    HW1 1895   1.933   0.129   1.954  2.8845 -1.1926  2.9598
  632SOL    HW2 1896   2.046   0.235   1.896 -0.1801  1.8521 -0.3022
  633SOL     OW 1897   0.884   2.951   0.226  0.1312  0.5333  0.6687
  633SOL    HW1 1898   0.880   2.973   0.126 -0.4071  0.9976 -2.0754
  633SOL    HW2 1899   0.922   2.858   0.234  0.7485 -1.7067  0.4781
  634SOL     OW 1900   1.362   2.520   2.629 -0.1244 -0.0777  0.2852
  634SOL    HW1 1901   1.338   2.478   2.535 -0.1626 -0.5337 -0.8237
  634SOL    HW2 1902   1.457   2.493   2.653  1.8973 -0.7130  0.2881
  635SOL     OW 1903   2.531   0.032   0.008  0.4156 -0.0766 -0.2715
  635SOL    HW1 1904   2.575   0.125   3.089 -1.0852  3.6319 -2.2909
  635SOL    HW2 1905   2.432   0.025   3.071  0.7398  0.4472  2.1325
  636SOL     OW 1906   0.922   1.435   1.021 -0.0348  0.5302  0.3776
  636SOL    HW1 1907   0.971   1.495   1.091  4.2692 -0.8062  4.5705
  636SOL    HW2 1908   0.991   1.380   0.967  0.8557 -0.1316  0.2225
  637SOL     OW 1909   0.235   2.505   0.495  0.4525 -0.0308  0.0102
  637SOL    HW1 1910   0.279   2.586   0.539  2.5910  1.7416 -1.4129
  637SOL    HW2 1911   0.175   2.528   0.415 -0.8666  0.4822 -0.7741
  638SOL     OW 1912   0.489   3.082   0.439 -0.1517 -0.0692 -0.2991
  638SOL    HW1 1913   0.574   3.041   0.481  0.4690  0.8219  0.1250
  638SOL    HW2 1914   0.438   3.005   0.401  2.8344  1.4799 -0.5116
  639SOL     OW 1915   1.210   1.501   0.423 -0.1553  0.0646 -0.2129
  639SOL    HW1 1916   1.258   1.436   0.359  2.7321 -0.5727  0.3174
  639SOL    HW2 1917   1.148   1.562   0.370 -0.6856  1.3689 -1.5382
  640SOL     OW 1918   1.301   2.760   1.045  0.6101  0.1721  0.1272
  640SOL    HW1 1919   1.357   2.688   1.089 -3.0076 -1.3771 -1.7075
  640SOL    HW2 1920   1.294   2.751   0.947 -1.4640 -1.2106  1.7129
  641SOL     OW 1921   2.985   2.513   0.570 -0.4435  0.1932 -0.3756
  641SOL    HW1 1922   3.046   2.442   0.548 -3.6238  1.0657 -0.7509
  641SOL    HW2 1923   2.919   2.523   0.492 -0.9431  1.4039 -1.1756
  642SOL     OW 1924   0.929   0.139   1.762  0.1205 -0.2056  0.6660
  642SOL    HW1 1925   0.838   0.130   1.807 -0.4496  2.4027  0.9012
  642SOL    HW2 1926   0.999   0.100   1.822 -0.2641 -1.5435 -2.3228
  643SOL     OW 1927   0.722   1.687   2.092 -0.2985  0.3463  0.1921
  643SOL    HW1 1928   0.688   1.601   2.051  0.8282 -1.8452 -0.3665
  643SOL    HW2 1929   0.666   1.705   2.177  0.2528 -0.4441  1.2509
  644SOL     OW 1930   0.874   3.076   0.462  0.7148 -0.5686  0.0501
  644SOL    HW1 1931   0.908   3.023   0.383  1.1848  2.5868  0.7474
  644SOL    HW2 1932   0.957   0.015   0.506  0.5576  1.6203 -1.5585
  645SOL     OW 1933   1.118   1.571   2.835  0.3142  0.2284 -0.0917
  645SOL    HW1 1934   1.112   1.673   2.841 -0.0183 -1.1031  1.4485
  645SOL    HW2 1935   1.209   1.538   2.801 -2.2486 -1.3316 -2.7204
  646SOL     OW 1936   0.512   1.369   0.110  0.2993 -0.4458  0.3817
  646SOL    HW1 1937   0.525   1.359   0.213 -0.3816  1.0641  3.6640
  646SOL    HW2 1938   0.454   1.451   0.096  0.5455 -2.6325  0.2897
  647SOL     OW 1939   1.117   0.015   1.048 -0.0746  0.0047 -0.1685
  647SOL    HW1 1940   1.209   0.035   1.090 -3.5692 -0.8320  0.8995
  647SOL    HW2 1941   1.118   3.055   0.966  1.5588 -0.4667 -2.5024
  648SOL     OW 1942   2.716   2.812   1.916 -0.1187  0.0053 -0.2383
  648SOL    HW1 1943   2.628   2.855   1.945 -3.5055 -0.7094 -0.6927
  648SOL    HW2 1944   2.770   2.885   1.869 -2.1329  2.0993  0.1705
  649SOL     OW 1945   0.575   2.374   0.067  0.2563  0.7319  0.0151
  649SOL    HW1 1946   0.556   2.354   3.062 -2.5152 -1.3642  0.2846
  649SOL    HW2 1947   0.487   2.375   0.124 -0.4960 -1.7244  0.9437
  650SOL     OW 1948   0.088   2.124   1.490 -0.2324  0.3489  0.2829
  650SOL    HW1 1949   0.123   2.056   1.559 -0.7874 -2.0777 -2.4190
  650SOL    HW2 1950   0.166   2.140   1.422  2.5982 -0.2107 -2.6539
  651SOL     OW 1951   0.569   0.227   0.088 -0.2875  0.5728  0.3600
  651SOL    HW1 1952   0.543   0.319   0.122  0.6776 -1.8536 -1.2956
  651SOL    HW2 1953   0.617   0.172   0.164  4.2186 -3.1029  0.6379
  652SOL     OW 1954   2.605   1.816   0.452  0.0631 -0.2889 -0.1797
  652SOL    HW1 1955   2.621   1.726   0.404  4.4411 -1.6937 -1.6753
  652SOL    HW2 1956   2.664   1.820   0.536  0.8574  0.3501  1.4530
  653SOL     OW 1957   3.020   0.166   0.881  0.1545 -0.2312 -0.0897
  653SOL    HW1 1958   3.080   0.240   0.909 -0.1843 -0.1501  1.0316
  653SOL    HW2 1959   3.075   0.096   0.834 -0.4352 -0.4819 -1.9444
  654SOL     OW 1960   1.671   3.023   2.691  0.5552  0.4259 -0.5824
  654SOL    HW1 1961   1.759   3.076   2.712  1.1414 -1.2698  2.3655
  654SOL    HW2 1962   1.690   2.961   2.610  1.3142 -2.3337 -0.8736
  655SOL     OW 1963   1.075   2.473   1.354  0.4718  0.1503  0.0809
  655SOL    HW1 1964   1.144   2.553   1.367  1.8261  2.7444  0.3752
  655SOL    HW2 1965   1.102   2.419   1.274 -0.4651  1.1589 -1.5889
  656SOL     OW 1966   0.528   2.919   2.063 -1.0690  0.2861 -0.3586
  656SOL    HW1 1967   0.468   2.995   2.037  0.9826 -3.3195 -0.7327
  656SOL    HW2 1968   0.484   2.834   2.036  1.3607 -0.7537 -3.1608
  657SOL     OW 1969   2.029   0.735   1.899 -0.0500 -0.1132 -0.3463
  657SOL    HW1 1970   1.960   0.718   1.972  1.1343  0.2562 -1.6781
  657SOL    HW2 1971   1.997   0.702   1.808  1.0686 -1.1285  0.4775
  658SOL     OW 1972   2.257   1.879   1.228  0.0093  0.2801 -0.2299
  658SOL    HW1 1973   2.298   1.803   1.286  1.9915 -3.8695  2.3525
  658SOL    HW2 1974   2.254   1.859   1.131 -0.0552  0.2762  1.8438
  659SOL     OW 1975   2.572   2.742   0.172 -0.3835  0.3595 -0.1866
  659SOL    HW1 1976   2.661   2.706   0.131 -1.7302  0.9026  0.8027
  659SOL    HW2 1977   2.493   2.702   0.124 -0.0208  0.0642 -0.6812
  660SOL     OW 1978   0.981   1.156   2.604 -0.1336  0.2529  0.5851
  660SOL    HW1 1979   0.957   1.237   2.658 -1.6972 -1.2440  3.0583
  660SOL    HW2 1980   1.045   1.097   2.655  2.0100  2.4199 -0.1122
  661SOL     OW 1981   2.134   2.464   1.127  0.7836  0.3622  0.5599
  661SOL    HW1 1982   2.115   2.533   1.200 -0.5957  2.9446 -0.8823
  661SOL    HW2 1983   2.058   2.396   1.109  0.2172 -1.5425  0.5185
  662SOL     OW 1984   0.538   0.847   0.314  0.0676  0.1500  0.0025
  662SOL    HW1 1985   0.543   0.827   0.415 -2.0062  6.0048 -1.0063
  662SOL    HW2 1986   0.446   0.875   0.291 -0.6501  1.2696  1.9390
  663SOL     OW 1987   1.048   2.297   3.012 -0.2253 -0.0562  0.0666
  663SOL    HW1 1988   1.140   2.334   3.010 -0.8816  1.0158 -0.1044
  663SOL    HW2 1989   0.982   2.372   3.026  1.1852  1.1528 -3.1034
  664SOL     OW 1990   0.724   3.075   1.433 -0.0658 -0.3451  0.4555
  664SOL    HW1 1991   0.681   3.009   1.368  3.8510  0.1198  1.2451
  664SOL    HW2 1992   0.738   3.033   1.524 -1.7438 -0.6381 -0.8430
  665SOL     OW 1993   1.897   1.540   1.869 -0.4840  0.4059 -0.2608
  665SOL    HW1 1994   1.807   1.525   1.832  0.8153 -1.1027  0.2849
  665SOL    HW2 1995   1.913   1.460   1.932 -0.0515  0.8456  1.4571
  666SOL     OW 1996   0.338   2.876   0.352  0.0580 -0.0552  0.2650
  666SOL    HW1 1997   0.238   2.891   0.333 -0.0200 -1.7754 -0.3865
  666SOL    HW2 1998   0.382   2.791   0.326 -0.7517 -0.1111  1.7260
  667SOL     OW 1999   1.699   1.778   1.528 -0.1564  0.6768  0.6541
  667SOL    HW1 2000   1.770   1.708   1.555  0.8695 -2.7381  1.0559
  667SOL    HW2 2001   1.614   1.746   1.568  0.4534 -1.3207  0.9913
  668SOL     OW 2002   0.380   0.377   2.117  0.4238 -0.1066  0.0705
  668SOL    HW1 2003   0.431   0.466   2.130 -1.0856 -0.8377  1.4788
  668SOL    HW2 2004   0.438   0.296   2.138  1.1008  0.4089 -0.4962
  669SOL     OW 2005   1.862   1.926   2.150  0.2823  0.5308 -0.5113
  669SOL    HW1 2006   1.894   2.020   2.122 -0.7985  0.0256  2.1834
  669SOL    HW2 2007   1.768   1.930   2.192  2.8766  2.1828  0.8556
  670SOL     OW 2008   2.487   2.059   0.431 -0.0770 -0.0465 -0.4049
  670SOL    HW1 2009   2.537   1.971   0.404  0.3043  0.0913 -0.6852
  670SOL    HW2 2010   2.398   2.032   0.477  3.5131 -0.1861 -0.4004
  671SOL     OW 2011   0.659   1.417   1.296  0.0507  0.1612  0.9110
  671SOL    HW1 2012   0.681   1.356   1.215 -0.2462  1.3087  0.6429
  671SOL    HW2 2013   0.560   1.440   1.297  2.1087  2.3433  0.3882
  672SOL     OW 2014   2.755   1.286   2.138  0.8272  0.3637  0.3922
  672SOL    HW1 2015   2.817   1.366   2.149  0.2393  2.7543  1.9060
  672SOL    HW2 2016   2.802   1.206   2.096  0.2232 -0.6361  1.4769
  673SOL     OW 2017   2.917   1.560   2.338 -0.3615 -0.2235  0.5444
  673SOL    HW1 2018   2.824   1.545   2.362  0.1497 -1.3815  2.2700
  673SOL    HW2 2019   2.964   1.601   2.418 -0.1081 -1.2840  0.3855
  674SOL     OW 2020   0.909   2.512   2.279 -0.1832 -0.1398 -0.6564
  674SOL    HW1 2021   0.915   2.490   2.380  0.5320  0.5902  3.5307
  674SOL    HW2 2022   0.975   2.580   2.247  1.0619 -0.5857  0.2369
  675SOL     OW 2023   0.715   0.850   1.481 -0.0631  0.4591 -0.2339
  675SOL    HW1 2024   0.791   0.815   1.542  1.8969 -1.8020  0.8352
  675SOL    HW2 2025   0.633   0.891   1.529  1.4854  0.0286 -1.6493
  676SOL     OW 2026   1.986   1.004   0.543 -0.1435  0.3785  0.2670
  676SOL    HW1 2027   1.918   0.935   0.513  0.7982  0.2846  1.2870
  676SOL    HW2 2028   2.011   1.067   0.468 -0.6696 -1.1991  2.3668
  677SOL     OW 2029   3.086   1.680   2.783  0.0483 -0.6657 -0.1944
  677SOL    HW1 2030   2.999   1.662   2.835 -0.4507  1.1432  0.1503
  677SOL    HW2 2031   0.043   1.601   2.800 -2.0477  2.2719  0.8233
  678SOL     OW 2032   2.905   2.835   1.467 -0.2877 -0.0049 -0.3092
  678SOL    HW1 2033   2.817   2.844   1.516 -0.1064  1.7804 -0.2252
  678SOL    HW2 2034   2.929   2.738   1.462 -3.0527  2.8774  0.9955
  679SOL     OW 2035   2.219   2.821   0.698  0.2367 -0.4963  0.0544
  679SOL    HW1 2036   2.142   2.860   0.753 -1.2760 -1.0540 -0.8453
  679SOL    HW2 2037   2.283   2.891   0.666  0.8178 -1.8384  2.7824
  680SOL     OW 2038   0.171   2.357   2.313  0.4249  0.1561  0.0139
  680SOL    HW1 2039   0.238   2.281   2.297  1.9080  0.8600  1.2549
  680SOL    HW2 2040   0.195   2.440   2.253 -1.1822  0.1126 -1.6467
  681SOL     OW 2041   0.369   1.537   1.514  0.1475  0.0824 -0.0152
  681SOL    HW1 2042   0.371   1.499   1.419  2.1338 -1.3320 -1.8781
  681SOL    HW2 2043   0.429   1.482   1.569 -2.1210  0.8190 -1.4704
  682SOL     OW 2044   0.300   2.162   1.341  0.2911 -0.3694 -0.5775
  682SOL    HW1 2045   0.377   2.216   1.389  3.3913  0.0967  0.2262
  682SOL    HW2 2046   0.265   2.213   1.261  0.1034  1.6939  0.5152
  683SOL     OW 2047   2.994   1.747   1.506 -0.4540 -0.0330 -0.7657
  683SOL    HW1 2048   2.921   1.721   1.568 -0.3318 -1.3498 -0.9323
  683SOL    HW2 2049   3.083   1.703   1.533  0.8162 -0.3957 -0.2898
  684SOL     OW 2050   0.043   1.697   0.097  0.2396 -0.1019 -0.0244
  684SOL    HW1 2051   3.077   1.671   0.167  1.1850  0.0311 -3.1668
  684SOL    HW2 2052   0.127   1.645   0.104 -0.4432  3.4347  1.0107
  685SOL     OW 2053   1.295   0.698   0.597  0.2641 -0.3188  0.0650
  685SOL    HW1 2054   1.220   0.671   0.531 -0.5122  0.1210 -0.3292
  685SOL    HW2 2055   1.385   0.700   0.552 -0.9976 -0.5344  1.1379
  686SOL     OW 2056   0.256   3.091   1.224  0.1880 -0.6233  0.1773
  686SOL    HW1 2057   0.316   0.017   1.304  0.2445  1.7329 -0.9315
  686SOL    HW2 2058   0.270   2.996   1.190  1.4926  0.0346  0.6970
  687SOL     OW 2059   1.123   1.197   2.124  0.0979 -0.0507  0.4383
  687SOL    HW1 2060   1.194   1.269   2.142 -1.9597 -2.1812 -1.6989
  687SOL    HW2 2061   1.068   1.171   2.202  1.2948 -0.8288 -3.8691
  688SOL     OW 2062   0.887   2.024   1.771  0.4810  0.4495  0.2235
  688SOL    HW1 2063   0.802   1.975   1.740  0.0417 -1.5607 -1.0605
  688SOL    HW2 2064   0.906   2.002   1.871 -0.8765 -0.1283  1.0888
  689SOL     OW 2065   2.083   0.344   1.138  0.6001  0.2693 -0.1501
  689SOL    HW1 2066   2.080   0.251   1.172  0.1140  1.3798  1.5290
  689SOL    HW2 2067   2.021   0.407   1.186 -1.3200  0.3600  1.1631
  690SOL     OW 2068   2.867   1.263   1.015  0.0713  0.3459  0.2804
  690SOL    HW1 2069   2.937   1.324   1.057  2.0977 -1.1037 -2.5558
  690SOL    HW2 2070   2.832   1.196   1.078  0.7934 -0.2558  0.7716
  691SOL     OW 2071   3.070   2.483   1.525  0.1865 -0.6812 -0.0381
  691SOL    HW1 2072   3.029   2.399   1.483  0.3580 -1.0820 -1.3418
  691SOL    HW2 2073   3.036   2.500   1.618 -1.5087  0.5390 -1.4473
  692SOL     OW 2074   2.005   2.913   1.075 -0.2986 -0.1540  0.3127
  692SOL    HW1 2075   1.996   2.822   1.033 -1.7823  0.2202  1.3053
  692SOL    HW2 2076   2.071   2.899   1.153 -1.8633 -0.8783  0.4941
  693SOL     OW 2077   0.449   1.514   2.607 -0.0204  0.2700 -0.1778
  693SOL    HW1 2078   0.540   1.548   2.575  1.5113  1.2150  2.6676
  693SOL    HW2 2079   0.371   1.559   2.553 -0.3575 -3.0531  0.5238
  694SOL     OW 2080   1.880   0.844   1.238  0.1125 -0.1431 -0.2619
  694SOL    HW1 2081   1.968   0.840   1.295  2.9972  0.2305  0.6909
  694SOL    HW2 2082   1.801   0.811   1.300 -0.1005  2.1300 -1.2958
  695SOL     OW 2083   0.986   0.833   1.337  0.1886  0.0843  0.0083
  695SOL    HW1 2084   0.913   0.822   1.412 -2.4003 -0.2984  2.6919
  695SOL    HW2 2085   1.062   0.893   1.372  0.8812  0.1170  0.8935
  696SOL     OW 2086   1.733   2.958   0.759  0.4844  0.1358 -0.2504
  696SOL    HW1 2087   1.722   2.856   0.765  0.4033 -0.9841 -1.6469
  696SOL    HW2 2088   1.796   2.983   0.678  0.2574  1.9674 -1.2700
  697SOL     OW 2089   1.027   0.270   1.040 -0.1728  0.1252 -0.0910
  697SOL    HW1 2090   1.082   0.186   1.024 -0.9697 -0.2935  2.4793
  697SOL    HW2 2091   0.928   0.251   1.053 -4.7419  0.5539 -1.6248
  698SOL     OW 2092   1.623   1.120   2.278 -0.1114 -0.7642  0.0264
  698SOL    HW1 2093   1.702   1.066   2.248 -2.1518  2.8748  1.0395
  698SOL    HW2 2094   1.631   1.218   2.248  0.8293  2.6241  0.0655
  699SOL     OW 2095   1.608   0.742   0.882 -0.5748 -0.6819  0.1446
  699SOL    HW1 2096   1.700   0.776   0.858 -1.3279  0.9464 -0.4687
  699SOL    HW2 2097   1.538   0.812   0.869  1.3300 -3.6170  2.4027
  700SOL     OW 2098   1.205   2.566   0.351 -0.0799 -0.4834 -0.5745
  700SOL    HW1 2099   1.217   2.664   0.384  2.4144  0.9525  3.3316
  700SOL    HW2 2100   1.190   2.490   0.420 -0.6809  1.1546  1.6460
  701SOL     OW 2101   2.108   2.457   0.029  0.1861 -0.4557 -0.1892
  701SOL    HW1 2102   2.057   2.465   0.115 -0.3946 -1.8183 -2.4189
  701SOL    HW2 2103   2.048   2.466   3.043 -1.8263 -0.4746  2.1851
  702SOL     OW 2104   1.032   0.481   0.870  0.4344  0.0885  0.4761
  702SOL    HW1 2105   1.017   0.416   0.944  1.9338 -0.7684  0.3237
  702SOL    HW2 2106   0.983   0.569   0.892 -4.1317 -0.9091  0.3146
  703SOL     OW 2107   2.223   0.451   2.214  0.5514 -0.2757 -0.1861
  703SOL    HW1 2108   2.179   0.384   2.278 -0.2432  0.3547 -0.6084
  703SOL    HW2 2109   2.202   0.550   2.240 -1.1494 -0.7543 -1.1541
  704SOL     OW 2110   0.030   2.303   0.498  0.1801  0.6395  0.3035
  704SOL    HW1 2111   0.036   2.238   0.422  1.7666  0.2683  0.4764
  704SOL    HW2 2112   0.127   2.333   0.518 -1.2864 -0.0582  0.3143
  705SOL     OW 2113   2.678   2.599   2.270 -0.3166  0.3570 -0.0718
  705SOL    HW1 2114   2.733   2.576   2.185  1.7861 -0.1616 -1.0612
  705SOL    HW2 2115   2.582   2.564   2.265  0.0955 -1.1934  2.8583
  706SOL     OW 2116   2.322   2.607   1.001 -0.0223  0.1738 -0.1300
  706SOL    HW1 2117   2.250   2.553   1.050  0.3642 -2.4575 -1.7252
  706SOL    HW2 2118   2.330   2.575   0.903 -3.0881 -3.1050 -0.6177
  707SOL     OW 2119   0.625   2.368   2.256 -0.0098 -0.2435 -0.3179
  707SOL    HW1 2120   0.620   2.374   2.155 -2.1588 -0.4008 -2.0964
  707SOL    HW2 2121   0.720   2.396   2.292  0.1713 -2.9904  1.1579
  708SOL     OW 2122   3.065   2.210   2.422 -0.3030 -0.1353  0.0943
  708SOL    HW1 2123   3.094   2.141   2.496 -0.2222 -3.5352  2.7984
  708SOL    HW2 2124   0.044   2.250   2.370  0.7473  0.6303 -0.3201
  709SOL     OW 2125   2.018   2.815   2.104 -0.2134  0.3293  0.7429
  709SOL    HW1 2126   1.994   2.824   2.006 -1.3748  1.4843  3.4303
  709SOL    HW2 2127   1.945   2.848   2.165  2.5833 -1.5982  0.4289
  710SOL     OW 2128   1.592   0.733   2.211  0.4956 -0.0331  0.4881
  710SOL    HW1 2129   1.638   0.684   2.284  0.1851  2.6031  1.2458
  710SOL    HW2 2130   1.589   0.679   2.126 -4.3048  0.7357 -2.8451
  711SOL     OW 2131   0.681   2.155   2.878  0.7730  0.3205 -0.4555
  711SOL    HW1 2132   0.743   2.107   2.940  1.4606 -0.1305 -0.0721
  711SOL    HW2 2133   0.584   2.115   2.879 -3.3841  1.2678  2.3684
  712SOL     OW 2134   0.567   2.530   2.687 -0.2406  0.0668  0.2827
  712SOL    HW1 2135   0.574   2.624   2.713 -1.7118  0.7244  0.5081
  712SOL    HW2 2136   0.545   2.528   2.589 -0.7417 -1.6228  0.3773
  713SOL     OW 2137   1.768   1.320   2.624  0.3583  0.0196  0.0607
  713SOL    HW1 2138   1.825   1.260   2.568 -1.2590 -1.3757  3.8354
  713SOL    HW2 2139   1.794   1.316   2.726 -1.4335  0.7494  1.8014
  714SOL     OW 2140   1.472   1.352   1.867  0.5437  0.1823  0.2016
  714SOL    HW1 2141   1.526   1.361   1.781 -2.5276 -1.3318 -0.4953
  714SOL    HW2 2142   1.479   1.431   1.929 -3.1547 -0.4548 -0.6764
  715SOL     OW 2143   1.987   0.639   2.443  0.7329  0.1092 -0.4706
  715SOL    HW1 2144   2.017   0.565   2.502  0.0281  0.8212  0.1822
  715SOL    HW2 2145   2.049   0.657   2.365  0.6521  1.1875  1.3813
  716SOL     OW 2146   2.881   2.282   1.904  0.2804  0.0024 -0.3013
  716SOL    HW1 2147   2.943   2.205   1.893 -0.0583 -1.5950  0.8843
  716SOL    HW2 2148   2.913   2.335   1.987  0.7832 -1.4799  0.8415
  717SOL     OW 2149   2.584   1.282   0.947 -0.1920  0.2249  0.5087
  717SOL    HW1 2150   2.681   1.287   0.980  0.5492 -0.7612 -0.4902
  717SOL    HW2 2151   2.586   1.312   0.847  0.2056  1.0264 -2.1569
  718SOL     OW 2152   0.957   1.612   2.195  0.3355 -0.0763  0.1622
  718SOL    HW1 2153   0.874   1.641   2.145  1.7084 -2.3900  1.1587
  718SOL    HW2 2154   1.022   1.575   2.132 -1.8716  0.1291 -0.5369
  719SOL     OW 2155   2.031   0.832   2.758 -0.0205  0.0987  0.0491
  719SOL    HW1 2156   1.948   0.842   2.695 -1.8655 -0.5757 -1.9033
  719SOL    HW2 2157   2.038   0.904   2.823 -0.0041 -3.5934 -2.4867
  720SOL     OW 2158   0.651   0.596   0.761  0.3845  0.0189  0.2216
  720SOL    HW1 2159   0.645   0.627   0.857 -2.4611 -1.4472 -1.4427
  720SOL    HW2 2160   0.589   0.514   0.753  0.2130 -0.9879  0.2692
  721SOL     OW 2161   2.879   0.827   0.439 -0.0123 -0.6584  0.4878
  721SOL    HW1 2162   2.792   0.878   0.468 -2.1669 -0.6844 -0.0155
  721SOL    HW2 2163   2.886   0.800   0.342  1.5461 -1.7040  0.1409
  722SOL     OW 2164   2.842   0.630   2.437  0.1587 -0.3888 -0.1509
  722SOL    HW1 2165   2.911   0.689   2.391 -0.8187 -2.2323  0.6965
  722SOL    HW2 2166   2.838   0.534   2.401  0.2644 -1.6044  1.9362
  723SOL     OW 2167   2.032   0.269   0.194 -0.2337  0.2470 -0.9303
  723SOL    HW1 2168   2.057   0.367   0.200 -1.7508  2.2521 -0.6736
  723SOL    HW2 2169   2.025   0.239   0.289 -1.3434  1.6732 -0.7554
  724SOL     OW 2170   0.422   1.883   1.884  0.1115  0.2158 -0.5191
  724SOL    HW1 2171   0.413   1.797   1.939 -0.8844  1.0504  0.6981
  724SOL    HW2 2172   0.514   1.889   1.843  3.9047 -0.7713  0.8164
  725SOL     OW 2173   1.714   2.927   1.076 -0.3850  0.0725 -0.2681
  725SOL    HW1 2174   1.685   2.858   1.004  0.1724  0.8206 -1.8442
  725SOL    HW2 2175   1.821   2.933   1.084  3.3089 -0.5048  3.1277
  726SOL     OW 2176   1.972   2.511   0.252  0.3802 -0.6064 -0.7393
  726SOL    HW1 2177   1.948   2.610   0.246  0.6336 -0.9168 -0.7755
  726SOL    HW2 2178   1.952   2.478   0.347 -1.6202 -0.9018  1.5660
  727SOL     OW 2179   1.615   1.761   1.237 -0.5124 -0.2915 -0.2236
  727SOL    HW1 2180   1.640   1.789   1.331 -2.2158 -0.2638  0.2810
  727SOL    HW2 2181   1.652   1.827   1.169 -2.6486 -0.1059  0.6608
  728SOL     OW 2182   2.075   2.992   1.715  0.4930 -0.3966 -0.0998
  728SOL    HW1 2183   2.115   3.054   1.782 -1.1571 -0.9581 -0.8243
  728SOL    HW2 2184   2.012   2.932   1.770 -2.0377  0.1460 -0.8620
  729SOL     OW 2185   1.972   1.963   1.004 -0.0678  0.1540  0.2559
  729SOL    HW1 2186   1.955   2.024   0.921 -0.4862  2.8757 -2.9437
  729SOL    HW2 2187   2.060   1.911   0.987  0.5520 -2.2036 -2.4848
  730SOL     OW 2188   1.350   0.694   2.763 -0.4139 -0.2348  0.3607
  730SOL    HW1 2189   1.304   0.752   2.695 -0.4475  0.7917 -0.1205
  730SOL    HW2 2190   1.448   0.673   2.733  1.0797 -0.7497  0.0023
  731SOL     OW 2191   0.501   3.071   0.891 -0.1400  0.8466 -0.6568
  731SOL    HW1 2192   0.434   0.049   0.868 -0.2627  1.0474 -1.5206
  731SOL    HW2 2193   0.577   3.058   0.821  2.0191 -2.0994 -0.7499
  732SOL     OW 2194   1.528   0.438   0.509  0.0089  0.4872  0.0970
  732SOL    HW1 2195   1.428   0.416   0.483  0.0382  1.0874 -1.4904
  732SOL    HW2 2196   1.537   0.458   0.610 -3.8975 -1.9522  2.9338
  733SOL     OW 2197   0.538   2.011   1.488  0.0079 -0.2127 -0.1773
  733SOL    HW1 2198   0.464   1.945   1.460  2.3067 -0.3571  1.4232
  733SOL    HW2 2199   0.578   2.056   1.406 -1.9839 -1.0953  0.3658
  734SOL     OW 2200   3.004   2.715   0.285 -0.3602  0.0797  0.7983
  734SOL    HW1 2201   2.942   2.641   0.315  0.0243  1.6441  3.8084
  734SOL    HW2 2202   3.097   2.675   0.275  1.4663  2.1684  1.2079
  735SOL     OW 2203   1.347   0.057   1.163 -0.1944 -0.0736  0.1025
  735SOL    HW1 2204   1.328   3.075   1.225  1.2665 -2.9518 -0.0001
  735SOL    HW2 2205   1.431   0.047   1.104  0.0263 -1.0399 -2.1108
  736SOL     OW 2206   2.063   2.083   0.315 -0.4818  0.6868 -0.4801
  736SOL    HW1 2207   2.111   1.991   0.308  0.5480 -2.1783 -1.9449
  736SOL    HW2 2208   2.130   2.156   0.302 -1.4693 -2.8715 -0.5375
  737SOL     OW 2209   0.016   1.391   1.167 -0.1609 -0.1816  0.2957
  737SOL    HW1 2210   0.062   1.480   1.148  0.2725 -0.2291 -0.9868
  737SOL    HW2 2211   0.000   1.389   1.271  0.6830 -0.1102  2.1414
  738SOL     OW 2212   2.147   2.191   2.348  0.0112 -0.3327 -0.1439
  738SOL    HW1 2213   2.097   2.253   2.418 -2.4260  4.1798  2.1911
  738SOL    HW2 2214   2.248   2.215   2.341 -1.1079  0.4844  1.5782
  739SOL     OW 2215   1.120   2.085   2.844  0.1134 -0.1624 -0.3853
  739SOL    HW1 2216   1.082   2.161   2.901  0.7381  2.0339 -1.4627
  739SOL    HW2 2217   1.201   2.043   2.895  2.2089  0.0182  0.0940
  740SOL     OW 2218   1.553   0.041   1.011  0.2883  0.5013 -0.2287
  740SOL    HW1 2219   1.581   0.067   0.917 -0.8373  2.4908 -0.8914
  740SOL    HW2 2220   1.613   3.065   1.045 -2.8252  2.5898 -1.4547
  741SOL     OW 2221   0.099   1.242   0.747  0.2375  0.1380 -0.7313
  741SOL    HW1 2222   0.188   1.194   0.757 -1.9753 -0.7891 -0.0817
  741SOL    HW2 2223   0.057   1.212   0.658 -0.8881 -0.8326 -0.6446
  742SOL     OW 2224   0.948   1.093   2.332 -0.0670  0.2860 -0.3430
  742SOL    HW1 2225   0.920   1.120   2.427 -2.4580 -1.9289 -0.2723
  742SOL    HW2 2226   0.871   1.066   2.269  0.7714 -2.7481  1.4269
  743SOL     OW 2227   1.033   0.797   1.889 -0.0252  0.2706  0.2571
  743SOL    HW1 2228   0.981   0.880   1.908  1.8399 -0.7423  0.3312
  743SOL    HW2 2229   1.088   0.765   1.971 -0.5442  0.2281  1.3615
  744SOL     OW 2230   1.891   0.138   1.656  0.3939 -0.0016 -0.9035
  744SOL    HW1 2231   1.952   0.057   1.673  2.7461 -0.4020 -1.1493
  744SOL    HW2 2232   1.940   0.223   1.686 -0.9264 -3.1607  0.7873
  745SOL     OW 2233   2.336   1.239   1.561  0.3578  0.2499  0.0313
  745SOL    HW1 2234   2.345   1.322   1.619  1.3005 -0.2927  0.4589
  745SOL    HW2 2235   2.328   1.270   1.463  0.8063  3.1788  0.9977
  746SOL     OW 2236   2.038   1.206   0.355 -0.1874  0.1054  0.1090
  746SOL    HW1 2237   1.998   1.286   0.307  0.9398 -2.5287  2.3657
  746SOL    HW2 2238   2.134   1.232   0.385  2.1041  2.0142 -0.5589
  747SOL     OW 2239   2.744   1.641   1.284 -0.2611 -0.1214  0.8057
  747SOL    HW1 2240   2.822   1.638   1.219  2.2260  0.1821  0.8340
  747SOL    HW2 2241   2.725   1.742   1.298  2.3014  4.3303  1.8111
  748SOL     OW 2242   0.383   1.933   0.487 -0.3071 -0.0378 -0.3706
  748SOL    HW1 2243   0.295   1.881   0.491 -2.2866 -0.0680 -0.1886
  748SOL    HW2 2244   0.433   1.922   0.580 -1.2616  0.3208  4.3696
  749SOL     OW 2245   2.664   2.374   2.710  0.4953 -0.8983  0.0641
  749SOL    HW1 2246   2.730   2.353   2.637  1.0202 -2.7207  1.7774
  749SOL    HW2 2247   2.575   2.349   2.675  0.3724 -0.4493  0.7483
  750SOL     OW 2248   2.398   0.786   0.806  0.1747 -0.1570 -0.1150
  750SOL    HW1 2249   2.415   0.760   0.904  1.1378  0.9098  1.0249
  750SOL    HW2 2250   2.307   0.822   0.779  1.1108  0.8285 -2.9819
  751SOL     OW 2251   2.430   2.976   0.218  0.0354 -0.3922  0.2401
  751SOL    HW1 2252   2.468   3.035   0.150  2.4450 -3.0238  2.3212
  751SOL    HW2 2253   2.461   2.880   0.192  0.2131 -2.5939  0.7721
  752SOL     OW 2254   3.068   2.720   0.710 -0.0857  0.3378 -0.1137
  752SOL    HW1 2255   2.975   2.767   0.715 -3.6026  1.5645  0.5699
  752SOL    HW2 2256   3.052   2.628   0.667  0.1496  0.0067 -0.3856
  753SOL     OW 2257   1.917   0.939   2.243  0.1951 -0.4083 -0.3198
  753SOL    HW1 2258   2.007   0.959   2.201 -0.7903 -1.3230  3.4087
  753SOL    HW2 2259   1.916   0.986   2.331  1.4996 -2.1597 -1.1091
  754SOL     OW 2260   1.704   2.055   1.538 -0.7604  0.1236 -0.3495
  754SOL    HW1 2261   1.784   2.112   1.510 -1.6414 -2.9659  0.8069
  754SOL    HW2 2262   1.717   1.952   1.528  0.0717  0.3736  0.0964
  755SOL     OW 2263   2.689   1.097   0.606 -0.4428  0.0108 -0.0698
  755SOL    HW1 2264   2.657   1.009   0.559  1.4851 -2.5810 -0.6415
  755SOL    HW2 2265   2.775   1.097   0.660  0.3845  1.7332 -1.6324
  756SOL     OW 2266   0.745   1.262   2.822  0.5332 -0.5367 -0.3350
  756SOL    HW1 2267   0.672   1.232   2.756  1.7072 -1.0587 -0.3209
  756SOL    HW2 2268   0.809   1.323   2.769 -0.1104  2.1152  0.2535
  757SOL     OW 2269   1.345   2.458   1.015  0.0648 -0.0019  0.7353
  757SOL    HW1 2270   1.383   2.382   0.958 -0.0997  1.6118  2.0166
  757SOL    HW2 2271   1.380   2.465   1.110 -1.2220 -0.3442  0.8696
  758SOL     OW 2272   1.191   2.686   1.683 -0.1987 -0.2006  0.0186
  758SOL    HW1 2273   1.114   2.754   1.671 -1.0683  1.2608 -2.1023
  758SOL    HW2 2274   1.233   2.660   1.593 -2.0944 -0.5307  0.2503
  759SOL     OW 2275   3.052   0.981   1.117  0.2315  0.1737  0.1277
  759SOL    HW1 2276   2.973   0.963   1.062  1.4326  6.2023  2.2599
  759SOL    HW2 2277   3.099   1.063   1.088  0.3944 -2.9587  2.5230
  760SOL     OW 2278   2.199   1.184   1.281  0.3271  0.5337  0.0424
  760SOL    HW1 2279   2.231   1.099   1.235  0.4247 -0.7156  0.7583
  760SOL    HW2 2280   2.157   1.241   1.206  1.2404  1.5256 -0.9701
  761SOL     OW 2281   1.867   0.089   0.057 -0.4278  0.4624  0.4344
  761SOL    HW1 2282   1.784   0.080   0.114  0.4010 -1.0301  1.3447
  761SOL    HW2 2283   1.919   0.173   0.080 -0.6774 -0.1191  0.6660
  762SOL     OW 2284   2.244   1.413   2.946 -0.1878  0.2924  0.1094
  762SOL    HW1 2285   2.292   1.326   2.960  0.3511  0.1850  2.1208
  762SOL    HW2 2286   2.223   1.436   2.851 -1.6388 -0.8717 -1.8894
  763SOL     OW 2287   0.281   2.247   1.722  0.5047  0.3717 -0.2327
  763SOL    HW1 2288   0.214   2.172   1.721 -0.6980 -1.6413  2.0348
  763SOL    HW2 2289   0.377   2.208   1.727  2.0427  1.0643  0.9103
  764SOL     OW 2290   3.017   2.400   0.142  0.0089 -0.4148 -0.1591
  764SOL    HW1 2291   2.926   2.366   0.171  0.5643  2.8796  1.0162
  764SOL    HW2 2292   3.020   2.422   0.043  1.4440  2.0981  0.2851
  765SOL     OW 2293   0.386   0.016   1.454  0.3361  0.3904  0.3627
  765SOL    HW1 2294   0.427   0.104   1.488  1.8344 -1.7086 -2.7430
  765SOL    HW2 2295   0.463   3.049   1.440 -0.6211 -1.2460 -0.6203
  766SOL     OW 2296   2.877   2.011   2.338 -0.1048 -0.5761  0.2546
  766SOL    HW1 2297   2.942   2.081   2.329 -2.7631  0.3626  2.4601
  766SOL    HW2 2298   2.817   2.033   2.420  1.9784  1.3022  0.4010
  767SOL     OW 2299   2.449   0.911   2.199 -0.2462  0.4960  0.0700
  767SOL    HW1 2300   2.488   0.923   2.106 -1.3211 -0.1689 -1.2612
  767SOL    HW2 2301   2.493   0.825   2.238  0.2921 -2.6346 -2.2401
  768SOL     OW 2302   1.197   3.012   2.679  0.2842 -0.0080  0.0710
  768SOL    HW1 2303   1.118   2.969   2.729  2.1231 -1.8443 -4.4232
  768SOL    HW2 2304   1.258   3.062   2.739 -1.4435 -1.0052  0.0876
  769SOL     OW 2305   2.659   2.809   0.997 -0.0465  0.2212 -0.3177
  769SOL    HW1 2306   2.723   2.853   1.067  1.4223  0.7883 -1.1446
  769SOL    HW2 2307   2.561   2.829   1.019 -1.2683  0.2513 -1.5981
  770SOL     OW 2308   0.275   2.988   2.708 -0.3749 -0.1213 -0.4788
  770SOL    HW1 2309   0.293   2.995   2.809  0.2319  0.9519  3.4594
  770SOL    HW2 2310   0.181   2.939   2.687 -1.3204 -1.2407 -0.0188
  771SOL     OW 2311   1.156   1.881   2.184  0.5225 -0.3766 -0.1165
  771SOL    HW1 2312   1.137   1.982   2.179  0.1003 -0.6156 -1.4221
  771SOL    HW2 2313   1.154   1.839   2.090 -0.1716  0.8678  2.4365
  772SOL     OW 2314   1.496   2.696   3.050  0.2056 -0.0689 -0.0947
  772SOL    HW1 2315   1.395   2.684   3.038 -1.5020 -1.2516  2.2958
  772SOL    HW2 2316   1.532   2.779   2.996 -0.5238 -0.7351  0.0202
  773SOL     OW 2317   2.081   0.584   1.452 -0.1682 -0.1760  0.5364
  773SOL    HW1 2318   2.109   0.678   1.415  0.7801  0.4101 -1.0713
  773SOL    HW2 2319   2.003   0.552   1.395 -0.7410  0.6004 -1.6277
  774SOL     OW 2320   0.929   1.013   1.120 -0.0633 -0.3271  0.3797
  774SOL    HW1 2321   1.005   1.076   1.123 -0.9130 -0.3818 -0.4866
  774SOL    HW2 2322   0.934   0.949   1.195  2.3103 -2.1343 -2.1547
  775SOL     OW 2323   1.860   2.766   2.993 -0.5218 -0.1837  0.2982
  775SOL    HW1 2324   1.841   2.755   3.090  2.6587  1.5867 -0.0081
  775SOL    HW2 2325   1.899   2.674   2.957  0.4341 -0.2416 -0.3480
  776SOL     OW 2326   2.116   0.827   1.368  0.0733  0.2716 -0.1115
  776SOL    HW1 2327   2.169   0.868   1.447  0.5285 -1.2539  0.1004
  776SOL    HW2 2328   2.136   0.882   1.285  1.5487  1.0073  2.1901
  777SOL     OW 2329   0.163   1.030   2.037 -0.0911 -0.2325 -0.1914
  777SOL    HW1 2330   0.178   0.929   2.036  0.8980 -0.9427  1.2562
  777SOL    HW2 2331   0.236   1.071   1.976 -0.9507  1.4683  2.9244
  778SOL     OW 2332   0.224   0.901   0.156 -0.5383  0.1135 -0.5935
  778SOL    HW1 2333   0.320   0.894   0.122  1.0898  0.0325  1.3936
  778SOL    HW2 2334   0.166   0.958   0.099  1.3874 -3.5006  2.0545
  779SOL     OW 2335   0.751   0.189   2.684 -0.0946 -0.4985 -0.2089
  779SOL    HW1 2336   0.797   0.103   2.661  0.9854 -1.1775 -1.5288
  779SOL    HW2 2337   0.735   0.196   2.785 -2.9800 -0.9015 -0.9829
  780SOL     OW 2338   2.217   1.170   2.582 -0.6580 -0.1091 -0.7335
  780SOL    HW1 2339   2.286   1.127   2.636 -2.9585 -0.0246  1.4946
  780SOL    HW2 2340   2.202   1.267   2.618  1.3859  1.2058  0.1888
  781SOL     OW 2341   2.834   1.073   1.990 -0.6366 -0.0027  0.6057
  781SOL    HW1 2342   2.764   1.071   1.912 -1.9516 -0.0999 -1.5950
  781SOL    HW2 2343   2.822   0.988   2.044 -2.4361  1.4797  2.8726
  782SOL     OW 2344   0.632   1.878   2.752  0.0034 -0.3567  0.2088
  782SOL    HW1 2345   0.632   1.810   2.828 -0.6175  0.7371  1.4264
  782SOL    HW2 2346   0.538   1.915   2.740  0.6374 -3.1802 -0.4453
  783SOL     OW 2347   1.161   2.328   1.153 -0.2148 -0.7260  0.3823
  783SOL    HW1 2348   1.242   2.358   1.094  2.3740 -0.9843 -0.9556
  783SOL    HW2 2349   1.140   2.232   1.128  0.5082 -2.0290 -0.2653
  784SOL     OW 2350   1.711   0.595   2.391 -0.2261 -0.1634 -0.1687
  784SOL    HW1 2351   1.814   0.608   2.394 -0.8040 -0.0505  1.7836
  784SOL    HW2 2352   1.677   0.498   2.391 -0.8430  1.8497 -0.7692
  785SOL     OW 2353   0.135   0.134   2.031  0.1020  0.4495 -0.0130
  785SOL    HW1 2354   0.156   0.148   2.131 -1.2687  2.3123 -0.8656
  785SOL    HW2 2355   0.097   0.038   2.017 -0.1977 -0.6933  1.3745
  786SOL     OW 2356   0.860   2.118   0.294  0.1741  0.3539 -0.3901
  786SOL    HW1 2357   0.792   2.107   0.220  0.4392  0.1154  1.8145
  786SOL    HW2 2358   0.878   2.214   0.324  0.4621 -0.7617 -0.0401
  787SOL     OW 2359   1.418   0.149   0.576 -0.5399 -0.0182  0.2833
  787SOL    HW1 2360   1.360   0.119   0.495 -1.2882  0.0916 -0.9158
  787SOL    HW2 2361   1.356   0.185   0.647  2.5303 -0.8698 -0.0142
  788SOL     OW 2362   2.938   1.472   1.418  0.3043  0.9839 -0.1341
  788SOL    HW1 2363   2.863   1.526   1.372 -1.8793 -1.1330 -0.1949
  788SOL    HW2 2364   3.014   1.530   1.443  0.0085 -1.8449 -1.3459
  789SOL     OW 2365   2.573   1.121   2.315 -0.3167 -0.2394  0.0708
  789SOL    HW1 2366   2.510   1.065   2.258 -0.9866 -0.8878  0.5422
  789SOL    HW2 2367   2.639   1.164   2.256 -1.5082  2.2095 -0.4316
  790SOL     OW 2368   0.842   0.371   0.185  0.3117 -0.0134  0.2227
  790SOL    HW1 2369   0.809   0.446   0.246 -2.0815 -0.7857 -0.8083
  790SOL    HW2 2370   0.807   0.284   0.220 -1.8020 -0.3108 -0.2198
  791SOL     OW 2371   2.986   0.081   3.023 -0.1377  0.6491  0.1096
  791SOL    HW1 2372   2.920   0.010   3.049  2.0520 -1.8552 -2.1036
  791SOL    HW2 2373   2.951   0.173   3.031  1.2523 -3.7744 -0.4429
  792SOL     OW 2374   1.335   0.516   2.032 -0.2041  0.2370  0.0417
  792SOL    HW1 2375   1.436   0.517   2.030 -0.3999  0.9832 -0.0416
  792SOL    HW2 2376   1.316   0.447   2.107  5.0045  1.0617 -1.0745
  793SOL     OW 2377   2.875   0.369   1.030 -0.3977 -0.0317 -0.3788
  793SOL    HW1 2378   2.939   0.315   0.968  0.2021 -0.2247 -0.4822
  793SOL    HW2 2379   2.891   0.463   1.009 -1.0730 -3.3789 -0.7984
  794SOL     OW 2380   0.089   0.676   2.112 -0.0827 -0.2745  0.1765
  794SOL    HW1 2381   0.187   0.708   2.093  1.9525  2.2991  0.2051
  794SOL    HW2 2382   0.037   0.666   2.025 -2.5257 -1.1956  0.2285
  795SOL     OW 2383   0.661   1.437   0.450 -0.1174 -0.3968  0.1362
  795SOL    HW1 2384   0.757   1.406   0.479  1.3868  1.5624  0.6669
  795SOL    HW2 2385   0.610   1.365   0.396 -0.8915 -2.4502 -1.6565
  796SOL     OW 2386   2.995   0.888   2.943 -0.1007 -0.7603 -0.0895
  796SOL    HW1 2387   3.062   0.946   2.992  0.0594  0.2077 -1.4629
  796SOL    HW2 2388   3.051   0.851   2.864  0.8720  0.4955 -0.4360
  797SOL     OW 2389   1.843   2.870   2.513  0.3938  0.3054  0.3500
  797SOL    HW1 2390   1.908   2.847   2.586  1.0036  1.5982 -0.7768
  797SOL    HW2 2391   1.760   2.811   2.517  2.0851 -2.1522 -1.1315
  798SOL     OW 2392   3.079   3.082   1.222 -0.0199  0.6092 -0.1837
  798SOL    HW1 2393   3.027   0.067   1.247 -0.1542 -1.9306  0.6870
  798SOL    HW2 2394   0.080   0.003   1.208  0.0334  1.3658  0.1495
  799SOL     OW 2395   2.450   0.909   1.918 -0.4554 -0.1968 -0.6257
  799SOL    HW1 2396   2.370   0.952   1.874 -2.8616 -1.8585  1.3921
  799SOL    HW2 2397   2.447   0.811   1.890 -1.8717  0.4592 -0.4400
  800SOL     OW 2398   0.188   1.923   0.762 -0.3476 -0.4293  0.1831
  800SOL    HW1 2399   0.291   1.928   0.763  2.0112 -0.1401  1.3531
  800SOL    HW2 2400   0.142   1.897   0.676  1.0443  2.3190  0.7798
  801SOL     OW 2401   1.691   1.502   0.329  0.2117 -0.0220  0.4119
  801SOL    HW1 2402   1.638   1.590   0.310 -0.4014 -2.2230 -1.9611
  801SOL    HW2 2403   1.702   1.473   0.427 -0.3229 -2.3612 -0.1965
  802SOL     OW 2404   1.313   1.188   2.771 -0.7624 -0.2841  0.9458
  802SOL    HW1 2405   1.335   1.277   2.720 -0.1893  0.5795 -0.7196
  802SOL    HW2 2406   1.387   1.116   2.761  0.2000 -0.7696  0.7575
  803SOL     OW 2407   0.297   2.015   2.120 -0.1559 -0.7268  0.5328
  803SOL    HW1 2408   0.356   1.985   2.044  0.9348  1.8721  1.1197
  803SOL    HW2 2409   0.240   1.938   2.153  0.3874 -0.9034 -0.7241
  804SOL     OW 2410   1.377   2.251   0.841 -0.3160  0.5628 -0.4165
  804SOL    HW1 2411   1.402   2.148   0.849  0.9955 -2.8621  3.9979
  804SOL    HW2 2412   1.277   2.266   0.821 -2.5444 -0.5573  1.9109
  805SOL     OW 2413   2.244   2.036   2.762 -0.6499  0.5791 -0.2940
  805SOL    HW1 2414   2.183   1.960   2.804 -0.1622 -2.1951  0.8190
  805SOL    HW2 2415   2.315   2.055   2.832  0.3867  1.3068 -0.6210
  806SOL     OW 2416   0.202   0.511   0.738 -0.3005  0.3810  0.1679
  806SOL    HW1 2417   0.176   0.436   0.804 -0.1655  0.5209  0.7964
  806SOL    HW2 2418   0.235   0.594   0.780  0.0240 -1.3748 -3.6492
  807SOL     OW 2419   2.761   0.743   2.889 -0.8879  0.1414  0.5396
  807SOL    HW1 2420   2.726   0.759   2.794  0.4325  0.2950 -0.5372
  807SOL    HW2 2421   2.837   0.809   2.907 -0.0824  1.0418 -1.6297
  808SOL     OW 2422   0.709   2.064   0.639 -0.0462 -0.3867  0.2043
  808SOL    HW1 2423   0.733   1.991   0.572  2.3425 -1.1286 -0.1585
  808SOL    HW2 2424   0.626   2.115   0.617  0.0389 -0.3496 -0.7154
  809SOL     OW 2425   2.713   0.151   2.407  0.0286 -0.4053  0.2009
  809SOL    HW1 2426   2.762   0.063   2.393 -0.0562 -1.9717 -1.9321
  809SOL    HW2 2427   2.615   0.136   2.432  0.1208  1.6910 -1.4412
  810SOL     OW 2428   1.648   1.030   0.337  0.1504  0.5379  0.1071
  810SOL    HW1 2429   1.699   0.970   0.399 -1.9536  1.0408 -0.1578
  810SOL    HW2 2430   1.626   0.977   0.256  1.4653  0.4119  1.1210
  811SOL     OW 2431   1.710   2.882   2.072  0.0899 -0.6540  0.0869
  811SOL    HW1 2432   1.614   2.889   2.095 -0.2232 -0.7020 -0.3635
  811SOL    HW2 2433   1.766   2.925   2.144 -0.9697 -0.2270 -1.5755
  812SOL     OW 2434   1.908   2.467   0.515  0.2478 -0.4147 -0.0008
  812SOL    HW1 2435   1.814   2.426   0.534 -0.2251 -1.5932 -1.9088
  812SOL    HW2 2436   1.910   2.556   0.563  0.3194  1.9348  0.8560
  813SOL     OW 2437   1.024   0.430   1.869  0.4105 -0.3650  0.0025
  813SOL    HW1 2438   1.110   0.463   1.822  1.1173 -0.6003 -1.3251
  813SOL    HW2 2439   0.986   0.352   1.823  0.4611  1.4827 -0.9776
  814SOL     OW 2440   0.220   3.062   1.660 -0.3502 -0.2789  0.7400
  814SOL    HW1 2441   0.277   3.086   1.577 -1.0570 -0.0263  0.2485
  814SOL    HW2 2442   0.188   0.052   1.701 -0.7954  0.5602 -0.5015
  815SOL     OW 2443   0.323   0.163   0.830  0.3237 -0.3937  0.3588
  815SOL    HW1 2444   0.261   0.122   0.758 -3.2534 -2.8697 -0.2977
  815SOL    HW2 2445   0.281   0.180   0.921 -1.2531  0.4543  0.2621
  816SOL     OW 2446   3.012   1.796   2.198 -0.5738 -0.5752 -0.5586
  816SOL    HW1 2447   2.972   1.881   2.241  0.0216 -2.7764  0.1751
  816SOL    HW2 2448   2.981   1.707   2.236 -0.3498 -2.2078 -0.2111
  817SOL     OW 2449   1.226   0.077   0.392 -0.2250  0.8548 -0.0143
  817SOL    HW1 2450   1.158   0.145   0.357 -0.2663 -1.8788  1.0846
  817SOL    HW2 2451   1.204   0.038   0.487 -0.5665 -0.6992  0.1292
  818SOL     OW 2452   1.712   0.544   0.143  0.4345 -0.2906  0.4241
  818SOL    HW1 2453   1.766   0.496   0.070 -1.8033 -4.7510 -1.9337
  818SOL    HW2 2454   1.775   0.575   0.217 -0.0325  1.0524 -1.1172
  819SOL     OW 2455   2.171   2.779   0.023 -0.1266 -0.1474  0.2367
  819SOL    HW1 2456   2.139   2.707   0.087 -0.1706 -0.6184  1.3404
  819SOL    HW2 2457   2.140   2.868   0.053  0.2920 -1.0399 -1.1567
  820SOL     OW 2458   1.509   0.994   2.724 -0.0292  0.6504  0.1527
  820SOL    HW1 2459   1.581   0.986   2.802  0.6487 -0.2598 -0.3376
  820SOL    HW2 2460   1.548   0.992   2.630 -2.7128 -1.4201 -0.3563
  821SOL     OW 2461   0.240   0.574   1.112 -0.0906 -0.5393  0.4796
  821SOL    HW1 2462   0.293   0.515   1.175 -1.2301 -1.6980 -0.2651
  821SOL    HW2 2463   0.298   0.602   1.030  3.5858  1.9668 -0.4749
  822SOL     OW 2464   1.148   2.666   2.329 -0.4592  0.4145 -0.4022
  822SOL    HW1 2465   1.194   2.576   2.350  1.9922 -0.9861  0.3259
  822SOL    HW2 2466   1.102   2.688   2.413 -0.5569 -1.0165  0.8325
  823SOL     OW 2467   0.547   1.377   1.645  0.2717 -1.0800 -0.0656
  823SOL    HW1 2468   0.618   1.455   1.632  1.7938 -0.8204  0.8672
  823SOL    HW2 2469   0.599   1.292   1.676 -0.1122 -0.4549 -1.4228
  824SOL     OW 2470   1.710   2.534   2.397 -0.6856 -0.5113 -0.3488
  824SOL    HW1 2471   1.803   2.572   2.388 -2.5176 -1.3145  0.2805
  824SOL    HW2 2472   1.656   2.609   2.439  1.5421  0.8482  0.7429
  825SOL     OW 2473   1.332   1.031   0.192 -0.0998 -0.2460 -0.1152
  825SOL    HW1 2474   1.415   0.978   0.175 -1.8624  2.4633  1.4187
  825SOL    HW2 2475   1.345   1.132   0.170 -1.1622  0.4114 -0.7637
  826SOL     OW 2476   2.227   0.672   2.876 -0.1869  0.9096  0.2634
  826SOL    HW1 2477   2.154   0.733   2.839 -4.7440 -1.3313 -2.3097
  826SOL    HW2 2478   2.305   0.721   2.917  1.8193  0.9068  2.1764
  827SOL     OW 2479   0.454   2.363   2.901  0.0963 -0.3329 -0.0582
  827SOL    HW1 2480   0.498   2.417   2.827  1.9639 -1.6032  0.0053
  827SOL    HW2 2481   0.457   2.264   2.878  3.3460  1.0795  0.8692
  828SOL     OW 2482   2.890   0.643   1.323  0.1266  0.0731  0.3814
  828SOL    HW1 2483   2.838   0.577   1.375  2.7401 -0.5407 -1.0157
  828SOL    HW2 2484   2.994   0.641   1.344  2.2457  3.6644 -0.3954
  829SOL     OW 2485   0.712   1.618   0.975  0.3188  0.0571  0.7089
  829SOL    HW1 2486   0.735   1.695   1.037  1.1184 -2.5634 -2.8997
  829SOL    HW2 2487   0.789   1.552   0.977  0.6920  2.6800  0.6108
  830SOL     OW 2488   0.773   1.177   1.417 -0.1460  0.3326  0.0634
  830SOL    HW1 2489   0.715   1.247   1.378  1.6841 -1.7029  1.0299
  830SOL    HW2 2490   0.722   1.088   1.400 -0.9410 -2.5027 -2.7793
  831SOL     OW 2491   0.472   1.925   0.018  0.2375 -0.8207  0.2588
  831SOL    HW1 2492   0.403   1.929   0.089  0.4203 -0.8722 -2.5221
  831SOL    HW2 2493   0.536   2.007   0.015  2.1811  2.6300  1.5946
  832SOL     OW 2494   0.714   0.186   2.962  0.4290 -0.0850 -0.4014
  832SOL    HW1 2495   0.640   0.182   3.032 -1.6444 -1.2167 -0.9648
  832SOL    HW2 2496   0.778   0.267   2.978  0.9113 -1.0356  0.1346
  833SOL     OW 2497   0.209   0.441   1.919  0.3262  0.7526 -0.1652
  833SOL    HW1 2498   0.289   0.431   1.979 -0.1001  0.9639 -3.0268
  833SOL    HW2 2499   0.130   0.393   1.962 -0.4951  0.0449 -0.4311
  834SOL     OW 2500   0.072   0.377   0.951 -0.2352 -0.1229  0.1401
  834SOL    HW1 2501   0.090   0.470   0.997  1.6775  2.0391  1.0254
  834SOL    HW2 2502   0.128   0.301   0.988 -1.9757 -0.6423 -1.6164
  835SOL     OW 2503   2.757   0.031   1.004 -0.2723 -0.0298 -0.0461
  835SOL    HW1 2504   2.847   0.076   0.988  0.5498  0.4196  2.4655
  835SOL    HW2 2505   2.768   3.054   1.069  0.5918  1.5311  0.9776
  836SOL     OW 2506   0.158   2.069   2.921 -0.5387  0.6835  0.2181
  836SOL    HW1 2507   0.109   2.148   2.880 -1.1895  2.1455 -1.0307
  836SOL    HW2 2508   0.139   2.054   3.021 -1.2467 -2.6563  1.6981
  837SOL     OW 2509   1.703   1.918   2.712 -0.1848  0.1692  0.4332
  837SOL    HW1 2510   1.790   1.896   2.668 -4.0679 -1.7316  1.6318
  837SOL    HW2 2511   1.623   1.894   2.653  1.3496  0.7520  0.1381
  838SOL     OW 2512   2.918   0.872   1.498  0.1060 -0.1198 -0.7950
  838SOL    HW1 2513   2.872   0.811   1.439 -1.2098  0.6002  0.8576
  838SOL    HW2 2514   2.961   0.954   1.455 -0.0403 -1.0762 -2.8910
  839SOL     OW 2515   1.202   0.850   0.787 -0.0785  0.4314 -0.4686
  839SOL    HW1 2516   1.146   0.921   0.753  3.5410  0.3983  0.5813
  839SOL    HW2 2517   1.247   0.793   0.713  1.3574 -1.4276 -1.0928
  840SOL     OW 2518   1.769   0.217   1.169 -0.0154 -0.1606  1.4122
  840SOL    HW1 2519   1.679   0.216   1.121  3.3897  0.8177  0.5632
  840SOL    HW2 2520   1.760   0.207   1.269  0.1573  0.0599 -0.0945
  841SOL     OW 2521   0.391   2.716   0.633  0.0004 -0.0380  0.3783
  841SOL    HW1 2522   0.386   2.789   0.564 -0.9992 -1.2692  2.7706
  841SOL    HW2 2523   0.487   2.706   0.667  0.7056  0.6021 -2.4576
  842SOL     OW 2524   0.500   0.777   0.580  0.2115  0.0477  0.5142
  842SOL    HW1 2525   0.574   0.725   0.634  2.2521 -0.4304  0.5685
  842SOL    HW2 2526   0.415   0.722   0.566 -1.1920 -2.1747  2.3564
  843SOL     OW 2527   1.020   1.219   1.522  0.0118  0.1232 -0.3049
  843SOL    HW1 2528   0.981   1.254   1.611  0.7997 -0.0729  1.9461
  843SOL    HW2 2529   0.937   1.175   1.479 -1.6945  0.1419 -0.5359
  844SOL     OW 2530   1.288   2.108   0.136 -0.2448  0.5329  0.7844
  844SOL    HW1 2531   1.311   2.065   0.047 -1.8835  1.7188 -0.9483
  844SOL    HW2 2532   1.295   2.206   0.137 -1.8757 -2.5959  0.0787
  845SOL     OW 2533   2.407   2.266   2.339  0.0355 -0.0046 -0.6419
  845SOL    HW1 2534   2.429   2.362   2.308  0.6285 -0.3502  0.0009
  845SOL    HW2 2535   2.492   2.211   2.362  0.5328 -3.3133 -0.1768
  846SOL     OW 2536   1.854   2.177   2.946 -0.2980 -0.0569 -0.4508
  846SOL    HW1 2537   1.805   2.190   2.860  1.4430  0.4584  1.1236
  846SOL    HW2 2538   1.796   2.188   3.031  2.0123 -2.5186  3.1717
  847SOL     OW 2539   1.959   2.908   2.766 -0.3282  0.0185 -0.2288
  847SOL    HW1 2540   2.054   2.872   2.764 -3.6992 -1.7559  0.1626
  847SOL    HW2 2541   1.912   2.879   2.854 -0.6254  0.2150 -0.5503
  848SOL     OW 2542   0.898   0.556   0.638 -0.2077  0.0094 -0.4099
  848SOL    HW1 2543   0.807   0.563   0.689 -0.1076 -2.4618  1.3106
  848SOL    HW2 2544   0.957   0.504   0.699 -0.4020  0.9528  0.8761
  849SOL     OW 2545   0.647   2.892   1.057  0.8387  0.3703 -0.0191
  849SOL    HW1 2546   0.592   2.972   1.017  0.0495  1.7280  0.3896
  849SOL    HW2 2547   0.731   2.910   1.102 -2.7643 -1.3701  0.0299
  850SOL     OW 2548   0.339   1.560   0.036  0.3607  0.5381 -0.0268
  850SOL    HW1 2549   0.397   1.624   0.086  0.7762 -1.6841 -1.6201
  850SOL    HW2 2550   0.333   1.581   3.034 -1.1688  2.7868 -1.6126
  851SOL     OW 2551   0.209   0.993   0.435  0.3942 -0.4508  0.2223
  851SOL    HW1 2552   0.211   0.950   0.343  0.8767  1.9695  2.5251
  851SOL    HW2 2553   0.158   0.935   0.499 -0.7054  0.3956 -2.0051
  852SOL     OW 2554   1.997   1.923   1.658  0.7433 -0.6486 -0.2010
  852SOL    HW1 2555   2.057   2.004   1.672 -1.5728 -0.2144  2.2251
  852SOL    HW2 2556   1.920   1.922   1.728 -2.2866 -0.5374  0.4015
  853SOL     OW 2557   0.390   1.759   0.249  0.6648  0.5630 -0.4610
  853SOL    HW1 2558   0.304   1.715   0.286  0.3608  0.2207  1.3913
  853SOL    HW2 2559   0.424   1.822   0.321 -0.5081  0.2212  2.0333
  854SOL     OW 2560   1.743   1.201   1.475  0.0784  0.2464  0.2655
  854SOL    HW1 2561   1.781   1.209   1.381 -1.3509  2.6151  1.7288
  854SOL    HW2 2562   1.823   1.181   1.538  0.7185 -1.0530  0.5446
  855SOL     OW 2563   0.710   2.616   0.114  0.1642 -0.0751 -0.5041
  855SOL    HW1 2564   0.789   2.610   0.047  1.6024 -0.0428 -3.6897
  855SOL    HW2 2565   0.657   2.530   0.108 -0.0704  1.1468 -0.2205
  856SOL     OW 2566   2.911   0.206   2.070  0.4963  0.1201  0.4398
  856SOL    HW1 2567   2.960   0.261   1.995 -1.8746 -0.9583 -1.2481
  856SOL    HW2 2568   2.954   0.232   2.156 -0.4458 -1.8543 -0.1548
  857SOL     OW 2569   0.615   0.550   1.652 -0.0587 -0.2125 -0.0511
  857SOL    HW1 2570   0.659   0.503   1.733  0.9504 -1.4725 -2.0345
  857SOL    HW2 2571   0.671   0.537   1.568 -2.1314  1.9111  0.2348
  858SOL     OW 2572   0.427   1.374   2.300  0.1041 -0.1729 -0.1037
  858SOL    HW1 2573   0.358   1.345   2.368 -0.9120  1.7925 -0.0477
  858SOL    HW2 2574   0.516   1.324   2.298  1.1587 -1.1059  0.1510
  859SOL     OW 2575   2.210   0.102   0.492 -0.1559  0.2968 -0.3988
  859SOL    HW1 2576   2.191   0.012   0.445 -1.4569  0.6552  0.6562
  859SOL    HW2 2577   2.148   0.126   0.568  1.9265 -1.7710 -3.0076
  860SOL     OW 2578   1.620   2.909   2.943 -0.1637 -0.1167  0.7890
  860SOL    HW1 2579   1.630   2.962   2.853  0.5224  0.8517 -2.9860
  860SOL    HW2 2580   1.709   2.867   2.977  3.6169 -1.0426  2.5626
  861SOL     OW 2581   0.286   0.637   0.506 -0.3249 -0.1636 -0.0292
  861SOL    HW1 2582   0.218   0.689   0.456 -0.5494 -2.7024 -0.5180
  861SOL    HW2 2583   0.249   0.597   0.587  0.1575 -1.8300 -0.8190
  862SOL     OW 2584   1.568   0.290   1.994  0.1925 -0.6515  0.2217
  862SOL    HW1 2585   1.574   0.246   1.900  1.7906  0.9011 -2.1197
  862SOL    HW2 2586   1.566   0.218   2.064  0.2119 -0.0416 -0.6989
  863SOL     OW 2587   2.835   2.073   1.179 -0.0505 -0.6628  0.4958
  863SOL    HW1 2588   2.847   2.081   1.075  1.0484  0.3688  0.8397
  863SOL    HW2 2589   2.830   2.164   1.222 -0.5405  2.2159  0.6362
  864SOL     OW 2590   2.327   2.874   1.743 -0.6296  0.8205 -0.1775
  864SOL    HW1 2591   2.236   2.912   1.721 -1.1306 -2.6123  0.3659
  864SOL    HW2 2592   2.319   2.782   1.784 -1.1715  0.1608 -1.7612
  865SOL     OW 2593   1.130   0.393   1.274  0.3306  0.5487  0.0196
  865SOL    HW1 2594   1.232   0.386   1.266 -3.5807 -0.4308  0.4602
  865SOL    HW2 2595   1.080   0.342   1.199  0.6947  0.8371  1.0012
  866SOL     OW 2596   2.476   2.903   0.716  0.4047  0.3816 -0.1703
  866SOL    HW1 2597   2.497   2.927   0.620  0.1783  0.6178 -3.2779
  866SOL    HW2 2598   2.536   2.822   0.731  0.7130  1.9110 -4.1553
  867SOL     OW 2599   2.832   2.891   0.638 -0.4809 -0.2220  0.3115
  867SOL    HW1 2600   2.856   2.887   0.537 -1.2291  1.0690  0.4651
  867SOL    HW2 2601   2.773   2.810   0.662 -2.8685 -1.6705  1.7627
  868SOL     OW 2602   1.083   2.235   2.389 -0.0584 -0.1470  0.8546
  868SOL    HW1 2603   1.080   2.161   2.457 -0.0534  2.5249 -0.4773
  868SOL    HW2 2604   1.114   2.202   2.295  1.4269  1.2448  2.4507
  869SOL     OW 2605   1.684   2.087   0.049 -0.2449 -0.2462 -0.5294
  869SOL    HW1 2606   1.624   2.155   0.098 -0.6671 -1.5553 -1.0476
  869SOL    HW2 2607   1.752   2.054   0.121 -1.6035 -3.2636 -0.3915
  870SOL     OW 2608   2.514   2.427   0.722 -0.0776 -0.0509  0.5323
  870SOL    HW1 2609   2.585   2.425   0.791  0.1578 -0.9776 -2.6510
  870SOL    HW2 2610   2.547   2.373   0.643 -1.1869 -1.4369  1.5097
  871SOL     OW 2611   0.323   1.226   1.663 -0.1386 -0.0461  0.7049
  871SOL    HW1 2612   0.401   1.293   1.670 -0.8877 -0.1381 -2.6002
  871SOL    HW2 2613   0.234   1.277   1.660 -1.1494 -0.0438 -0.1970
  872SOL     OW 2614   0.675   1.627   2.512 -0.3341 -0.5240  0.1548
  872SOL    HW1 2615   0.758   1.646   2.570  1.5741 -0.2836  1.1683
  872SOL    HW2 2616   0.660   1.711   2.455  2.5127  2.1538  2.4958
  873SOL     OW 2617   0.400   2.830   1.693 -0.4091  0.7344 -0.1460
  873SOL    HW1 2618   0.412   2.758   1.623  0.2462  0.8029  4.0843
  873SOL    HW2 2619   0.345   2.905   1.662 -2.0379 -2.2104  0.6382
  874SOL     OW 2620   1.228   0.755   2.106  0.1150  0.3349 -0.1432
  874SOL    HW1 2621   1.304   0.819   2.116  1.7124  1.3536  0.9635
  874SOL    HW2 2622   1.255   0.660   2.080  0.1960 -1.6256  0.8889
  875SOL     OW 2623   2.426   2.679   1.241 -0.7704  0.0957  1.3796
  875SOL    HW1 2624   2.381   2.752   1.289  0.5938 -5.2250  0.0727
  875SOL    HW2 2625   2.378   2.670   1.149  0.9468 -0.2356 -0.4380
  876SOL     OW 2626   1.215   1.274   0.915  0.1093 -0.6658 -0.0134
  876SOL    HW1 2627   1.196   1.204   0.988 -1.1365 -0.1884 -0.2227
  876SOL    HW2 2628   1.166   1.256   0.831 -0.3879  2.8866  1.2102
  877SOL     OW 2629   2.997   0.237   1.264 -0.1371  0.0208 -0.1907
  877SOL    HW1 2630   2.950   0.295   1.194  1.6866 -0.5145  0.2281
  877SOL    HW2 2631   3.077   0.292   1.299  1.6362  1.7015 -2.1887
  878SOL     OW 2632   2.549   1.570   0.018 -0.1649 -0.2377  0.4168
  878SOL    HW1 2633   2.635   1.628   0.029  1.1779  1.9586  0.7362
  878SOL    HW2 2634   2.544   1.526   3.024  0.3891 -0.4488 -0.8993
  879SOL     OW 2635   2.719   1.912   1.365  0.2281 -0.4235 -0.3861
  879SOL    HW1 2636   2.675   1.958   1.443 -1.6103  0.2412 -2.5615
  879SOL    HW2 2637   2.775   1.977   1.316  1.6533 -0.5875 -0.6875
  880SOL     OW 2638   0.778   2.315   1.146 -0.8359  0.0562 -0.1274
  880SOL    HW1 2639   0.729   2.335   1.059 -0.4359  0.7356 -0.6123
  880SOL    HW2 2640   0.879   2.311   1.134  1.2058  1.1202 -0.5961
  881SOL     OW 2641   1.380   1.555   0.850 -0.1445 -0.4218 -0.0218
  881SOL    HW1 2642   1.310   1.589   0.780 -0.6955  1.2777 -1.4688
  881SOL    HW2 2643   1.339   1.544   0.944  0.1307  0.1612  0.8141
  882SOL     OW 2644   2.770   0.987   2.485 -0.4184  0.3452 -0.1101
  882SOL    HW1 2645   2.715   1.028   2.409  0.2824  0.0993  0.1976
  882SOL    HW2 2646   2.718   0.926   2.552 -2.6094 -0.6016  1.7043
  883SOL     OW 2647   1.383   0.344   1.189  0.0380  0.1721  0.1787
  883SOL    HW1 2648   1.387   0.250   1.158 -1.6358  3.1713 -1.3190
  883SOL    HW2 2649   1.426   0.401   1.109  0.8489  2.2259 -2.3150
  884SOL     OW 2650   0.008   2.819   1.179 -0.4268  0.1792 -0.0342
  884SOL    HW1 2651   3.097   2.918   1.191  1.1851 -1.8886 -0.0011
  884SOL    HW2 2652   0.048   2.768   1.260 -1.0680  2.1466  1.2433
  885SOL     OW 2653   1.213   1.303   1.350 -0.3739  0.3807 -0.3896
  885SOL    HW1 2654   1.136   1.308   1.415  2.1115  0.0405  0.4080
  885SOL    HW2 2655   1.304   1.333   1.391 -0.4787  2.2863  0.9073
  886SOL     OW 2656   1.125   1.031   2.850  0.2353 -0.0496 -0.1095
  886SOL    HW1 2657   1.145   0.996   2.942  1.6039  0.2882  2.4054
  886SOL    HW2 2658   1.193   1.102   2.821 -0.1080 -1.4833  3.4179
  887SOL     OW 2659   1.295   0.519   0.791 -0.0051  0.7228 -0.3913
  887SOL    HW1 2660   1.304   0.594   0.722  0.5336  3.1989  1.0686
  887SOL    HW2 2661   1.197   0.499   0.815 -0.9951 -1.9887 -0.0425
  888SOL     OW 2662   2.183   1.207   1.831  0.2184  0.2095 -0.4005
  888SOL    HW1 2663   2.228   1.271   1.767  1.6090 -2.7550  0.4694
  888SOL    HW2 2664   2.222   1.201   1.923 -2.5264  3.1186 -1.3287
  889SOL     OW 2665   2.741   2.331   1.231 -0.1043 -0.1207 -0.2655
  889SOL    HW1 2666   2.801   2.410   1.211 -1.8887 -2.5591  0.8748
  889SOL    HW2 2667   2.639   2.347   1.221  0.8712 -0.8704 -0.5276
  890SOL     OW 2668   1.510   1.926   0.622  0.4990  0.1884 -0.4845
  890SOL    HW1 2669   1.590   1.892   0.674  0.6695  3.1778  2.1228
  890SOL    HW2 2670   1.455   1.852   0.583 -1.4981  0.8079  1.4786
  891SOL     OW 2671   2.585   0.650   2.306 -0.0141  0.3330  0.3652
  891SOL    HW1 2672   2.678   0.648   2.344 -0.0905 -2.5318 -1.2623
  891SOL    HW2 2673   2.566   0.565   2.249  0.5270 -1.4145 -0.0311
  892SOL     OW 2674   0.387   0.210   1.791  0.6100  0.3361  0.5046
  892SOL    HW1 2675   0.306   0.268   1.807  0.6767 -0.0937  3.3857
  892SOL    HW2 2676   0.423   0.233   1.697 -1.9612  3.6991 -0.0103
  893SOL     OW 2677   1.252   0.379   2.244  0.4361 -0.4498  0.1750
  893SOL    HW1 2678   1.230   0.280   2.240  0.7265 -1.8259  0.6701
  893SOL    HW2 2679   1.284   0.404   2.336  3.7902 -1.4318 -0.6546
  894SOL     OW 2680   2.557   0.575   0.702  0.0867 -0.1424 -0.4634
  894SOL    HW1 2681   2.640   0.603   0.758  0.4193  4.0929 -1.4497
  894SOL    HW2 2682   2.483   0.644   0.690  1.9066 -1.5864 -1.2705
  895SOL     OW 2683   1.759   1.678   2.330  0.0327  0.0348  0.7275
  895SOL    HW1 2684   1.709   1.652   2.418  0.9335 -0.2327  1.5132
  895SOL    HW2 2685   1.732   1.770   2.296 -1.1955  1.2128  0.0576
  896SOL     OW 2686   1.782   0.235   1.431 -0.2740  0.3606  0.1524
  896SOL    HW1 2687   1.861   0.194   1.476 -2.2476  1.0418 -1.4731
  896SOL    HW2 2688   1.734   0.303   1.490 -1.4706  0.2264 -3.1036
  897SOL     OW 2689   0.650   1.878   1.720  0.2675 -0.0624  0.2303
  897SOL    HW1 2690   0.701   1.791   1.699  2.0805 -0.5914  0.8820
  897SOL    HW2 2691   0.590   1.915   1.642  0.2216 -1.2610  0.1357
  898SOL     OW 2692   2.134   1.759   2.050  0.7267 -0.5153 -0.7577
  898SOL    HW1 2693   2.215   1.721   2.093  0.5331  1.5163  1.1568
  898SOL    HW2 2694   2.074   1.690   2.008  0.4953 -1.3157 -2.0951
  899SOL     OW 2695   1.720   1.951   1.071  0.7173  1.0135  0.3343
  899SOL    HW1 2696   1.825   1.944   1.068 -0.1827 -2.4741  1.0731
  899SOL    HW2 2697   1.695   2.018   1.149  0.5602  1.6115  1.4255
  900SOL     OW 2698   0.819   3.021   2.552  0.9055 -0.5262  0.2593
  900SOL    HW1 2699   0.791   2.929   2.517 -1.9016  0.0706  3.0578
  900SOL    HW2 2700   0.908   3.055   2.519  1.0921 -1.1067  3.4306
  901SOL     OW 2701   1.301   1.388   2.157 -0.1989  0.1195  0.1016
  901SOL    HW1 2702   1.313   1.413   2.253 -1.2600 -0.0847 -0.2106
  901SOL    HW2 2703   1.341   1.453   2.091 -0.1435 -0.8165 -1.5642
  902SOL     OW 2704   2.123   0.448   3.060  0.0405  0.3860  0.0403
  902SOL    HW1 2705   2.168   0.526   3.009 -2.3782  0.3201  0.1490
  902SOL    HW2 2706   2.121   0.464   0.060 -0.1041 -0.4993  0.3819
  903SOL     OW 2707   2.186   0.974   2.256  0.5343 -0.2933  0.2554
  903SOL    HW1 2708   2.275   0.938   2.226 -1.7594 -1.2992 -0.0378
  903SOL    HW2 2709   2.183   1.076   2.276 -0.1179  1.3384  0.3357
  904SOL     OW 2710   1.993   1.120   1.601  0.2372 -0.2325 -0.4984
  904SOL    HW1 2711   2.064   1.089   1.535  0.5792  0.6405  1.1291
  904SOL    HW2 2712   2.046   1.167   1.675  1.0768 -1.7368 -1.2460
  905SOL     OW 2713   2.111   0.554   0.717  0.3744 -0.0252 -0.3881
  905SOL    HW1 2714   2.189   0.505   0.672  1.2905  2.7408 -2.0637
  905SOL    HW2 2715   2.120   0.559   0.820 -0.7582  1.8088 -1.8352
  906SOL     OW 2716   2.402   1.727   0.669  0.1185 -0.2730  0.1066
  906SOL    HW1 2717   2.470   1.754   0.600 -2.7682 -1.2011  2.5525
  906SOL    HW2 2718   2.402   1.795   0.744  1.7151 -1.5065  1.6656
  907SOL     OW 2719   1.511   2.902   0.523 -0.0367  0.1299 -0.2121
  907SOL    HW1 2720   1.484   2.929   0.615  0.4001  0.2534 -1.7738
  907SOL    HW2 2721   1.600   2.940   0.495  2.0026 -0.9234  0.9798
  908SOL     OW 2722   1.566   2.302   2.471  0.3147 -0.5008 -0.6511
  908SOL    HW1 2723   1.524   2.285   2.382  0.5241 -1.0131  0.3105
  908SOL    HW2 2724   1.645   2.361   2.464  0.4190  0.2948 -0.1360
  909SOL     OW 2725   2.215   0.542   1.953  0.3845  0.4960 -0.1866
  909SOL    HW1 2726   2.207   0.528   2.056  1.7731 -1.9125 -0.5465
  909SOL    HW2 2727   2.147   0.613   1.924  0.0044 -3.4336  3.0721
  910SOL     OW 2728   1.043   0.071   2.501 -0.2972 -0.5144 -0.7788
  910SOL    HW1 2729   1.042   0.172   2.526 -0.2952  4.9485 -0.2464
  910SOL    HW2 2730   1.122   0.029   2.551  2.1978 -4.0605 -0.8665
  911SOL     OW 2731   2.804   1.111   2.959  0.0003  0.0098  0.2720
  911SOL    HW1 2732   2.866   1.031   2.951  0.6307  1.0746  0.7880
  911SOL    HW2 2733   2.845   1.192   3.011 -4.3640  2.1169 -1.5401
  912SOL     OW 2734   2.973   2.239   1.404 -0.4960 -0.3760  0.8724
  912SOL    HW1 2735   2.891   2.208   1.451  1.1020  2.4367 -4.2753
  912SOL    HW2 2736   3.060   2.194   1.429  0.8437  3.8611 -2.2438
  913SOL     OW 2737   2.561   1.859   2.656  0.0880 -0.1695  0.3875
  913SOL    HW1 2738   2.507   1.853   2.565 -2.2030 -2.3911 -4.3533
  913SOL    HW2 2739   2.510   1.893   2.733  1.6950  2.0340 -0.6314
  914SOL     OW 2740   2.081   1.793   0.678 -0.2600  0.3435 -0.2938
  914SOL    HW1 2741   2.135   1.709   0.667 -0.6059 -0.0416  1.7401
  914SOL    HW2 2742   1.986   1.792   0.640  0.3018 -0.6066  0.5919
  915SOL     OW 2743   0.250   2.565   2.163  0.2030  0.1528  0.1093
  915SOL    HW1 2744   0.266   2.632   2.236  0.3314 -0.6336 -2.0900
  915SOL    HW2 2745   0.334   2.554   2.105  1.9505 -0.9590  0.9879
  916SOL     OW 2746   0.704   2.768   0.820 -0.0867 -0.0407  0.3921
  916SOL    HW1 2747   0.660   2.795   0.910 -2.5028  0.9120  0.7079
  916SOL    HW2 2748   0.708   2.846   0.757  2.5873 -0.1154 -0.5003
  917SOL     OW 2749   2.345   0.501   2.717  0.5173 -0.6279  0.1260
  917SOL    HW1 2750   2.279   0.551   2.781 -3.3617 -0.0780 -2.2890
  917SOL    HW2 2751   2.388   0.565   2.653  0.6277 -0.2412 -0.8736
  918SOL     OW 2752   1.610   2.491   2.734 -0.0330 -0.3037 -0.1150
  918SOL    HW1 2753   1.620   2.496   2.840 -0.9928 -0.3576  3.0440
  918SOL    HW2 2754   1.689   2.437   2.696 -1.6449 -1.2943 -1.1144
  919SOL     OW 2755   1.691   2.341   1.274 -0.1938  0.1906  0.2875
  919SOL    HW1 2756   1.706   2.404   1.349  1.6563 -4.0339  1.5490
  919SOL    HW2 2757   1.642   2.260   1.307 -0.4447 -2.2997 -2.4022
  920SOL     OW 2758   1.385   0.106   2.495 -0.5577  0.3359  0.0055
  920SOL    HW1 2759   1.400   0.091   2.597  4.0213  1.8824 -0.7498
  920SOL    HW2 2760   1.351   0.025   2.444  0.9528  2.3214  0.7870
  921SOL     OW 2761   0.163   0.875   2.491 -0.0992  0.2178  0.5497
  921SOL    HW1 2762   0.236   0.824   2.443 -1.2560  0.2570 -3.4571
  921SOL    HW2 2763   0.106   0.913   2.422  3.4402 -1.7869  0.5906
  922SOL     OW 2764   3.046   1.900   1.241  0.4538  0.3605  0.6049
  922SOL    HW1 2765   2.971   1.971   1.221 -0.9382 -0.0103  0.4699
  922SOL    HW2 2766   3.031   1.858   1.332  1.0079  0.4975  0.1580
  923SOL     OW 2767   0.227   1.591   2.419  0.3242  0.0113 -0.5625
  923SOL    HW1 2768   0.250   1.665   2.359  0.3277 -2.0986  2.8655
  923SOL    HW2 2769   0.261   1.500   2.389 -0.4635  0.7809  2.2104
  924SOL     OW 2770   1.521   0.092   2.239 -0.0103 -0.4039 -0.1660
  924SOL    HW1 2771   1.486   0.020   2.177  0.4274  0.9526 -4.4352
  924SOL    HW2 2772   1.516   0.065   2.339 -0.9364  1.0793  0.5174
  925SOL     OW 2773   3.059   1.495   0.741  0.1657  0.6695 -0.0088
  925SOL    HW1 2774   0.012   1.575   0.773 -2.5034 -0.0080  1.8424
  925SOL    HW2 2775   0.002   1.402   0.742 -2.9598 -0.9057 -2.4281
  926SOL     OW 2776   2.401   0.718   1.090 -0.0566  0.4294  0.3537
  926SOL    HW1 2777   2.421   0.621   1.061 -1.5264 -1.8587  0.7227
  926SOL    HW2 2778   2.454   0.742   1.175  0.3818  1.5546  1.1807
  927SOL     OW 2779   1.698   0.615   1.159  0.0375 -0.0178 -0.2530
  927SOL    HW1 2780   1.667   0.675   1.086 -1.1067 -2.3078 -1.0670
  927SOL    HW2 2781   1.619   0.563   1.198 -2.0860  1.8127 -0.3834
  928SOL     OW 2782   3.000   0.790   2.298  0.0000  0.1644  0.8189
  928SOL    HW1 2783   3.029   0.870   2.354 -2.7365  1.3405  1.8250
  928SOL    HW2 2784   3.067   0.764   2.233 -5.3200  1.2124 -1.4893
  929SOL     OW 2785   2.231   0.958   1.126  0.2769 -0.6309  0.3021
  929SOL    HW1 2786   2.294   0.890   1.078  0.5549 -0.1318 -1.9467
  929SOL    HW2 2787   2.159   1.000   1.067  0.4408 -0.2823 -0.2279
  930SOL     OW 2788   1.709   2.457   1.018  0.1953 -0.2143 -0.1537
  930SOL    HW1 2789   1.732   2.391   0.947 -2.0816 -0.4585  1.6933
  930SOL    HW2 2790   1.700   2.413   1.109  1.1663  1.0085 -0.3140
  931SOL     OW 2791   1.845   1.150   1.193  0.7369 -0.2778  0.2069
  931SOL    HW1 2792   1.921   1.210   1.156  1.9192  2.9134 -0.0020
  931SOL    HW2 2793   1.867   1.050   1.187  2.4318 -2.3709 -0.7823
  932SOL     OW 2794   3.075   0.857   1.718  0.0378  0.0728 -0.7431
  932SOL    HW1 2795   2.995   0.862   1.658  1.6790 -0.4230  2.6555
  932SOL    HW2 2796   3.089   0.945   1.764  0.6976  1.0743  2.7520
  933SOL     OW 2797   2.209   1.735   1.680  0.4304  0.0313  0.0919
  933SOL    HW1 2798   2.116   1.777   1.672 -0.9784 -3.2737 -1.2861
  933SOL    HW2 2799   2.261   1.784   1.755  1.6476  0.8453  2.7564
  934SOL     OW 2800   1.357   2.663   1.890  0.2258 -0.3265 -0.5125
  934SOL    HW1 2801   1.317   2.694   1.800  0.7405  1.2163  1.2058
  934SOL    HW2 2802   1.312   2.704   1.971 -0.6856  3.7680 -1.4372
  935SOL     OW 2803   0.226   1.081   1.444 -0.4648  0.1671 -0.4371
  935SOL    HW1 2804   0.260   1.118   1.530  0.3341 -0.1664  0.5351
  935SOL    HW2 2805   0.125   1.087   1.442 -0.4541  1.7822 -2.3506
  936SOL     OW 2806   2.668   0.588   1.143  0.0313 -0.2712 -0.1628
  936SOL    HW1 2807   2.585   0.540   1.182 -3.3893 -0.7050  3.5489
  936SOL    HW2 2808   2.748   0.573   1.204  0.7260  2.0181 -1.9547
  937SOL     OW 2809   0.812   0.216   1.532  0.6065 -0.4988  0.0053
  937SOL    HW1 2810   0.861   0.206   1.623  3.3181 -0.7447  2.1378
  937SOL    HW2 2811   0.816   0.126   1.481  0.6843  0.4706  1.3041
  938SOL     OW 2812   0.329   2.872   1.074  0.2776  0.4983 -0.2007
  938SOL    HW1 2813   0.242   2.832   1.033 -2.8770  1.3620 -2.8875
  938SOL    HW2 2814   0.376   2.934   1.010 -0.5277 -0.5288 -0.6289
  939SOL     OW 2815   2.900   2.052   3.000 -0.4179 -0.1569 -0.4417
  939SOL    HW1 2816   2.934   2.035   2.906  0.4928  0.2579 -0.3537
  939SOL    HW2 2817   2.845   2.136   2.990 -0.6600 -0.2625  0.3013
  940SOL     OW 2818   1.608   1.906   2.971  0.0114  0.0269  0.5653
  940SOL    HW1 2819   1.632   1.977   3.037 -2.9955 -2.2108 -1.3256
  940SOL    HW2 2820   1.653   1.916   2.880 -0.3611 -0.5732  2.6431
  941SOL     OW 2821   1.693   2.693   0.652 -0.3022  0.2464 -0.3281
  941SOL    HW1 2822   1.792   2.714   0.631  0.2489 -0.0926  2.6399
  941SOL    HW2 2823   1.650   2.659   0.567 -0.8259  1.0721 -1.8146
  942SOL     OW 2824   2.176   1.798   0.941 -0.2830 -0.1586  0.5302
  942SOL    HW1 2825   2.266   1.750   0.951  0.7994 -0.0647  0.6537
  942SOL    HW2 2826   2.146   1.804   0.845  0.5761  0.5252  1.1539
  943SOL     OW 2827   1.907   0.569   1.682  0.1692  0.3456  0.1156
  943SOL    HW1 2828   1.818   0.532   1.655 -0.2634  1.0485 -1.2083
  943SOL    HW2 2829   1.977   0.582   1.608 -2.7763  0.0144 -1.0220
  944SOL     OW 2830   1.418   0.776   1.704  0.0513  0.5305 -0.4842
  944SOL    HW1 2831   1.368   0.868   1.714  0.3199  0.5495  1.6823
  944SOL    HW2 2832   1.524   0.788   1.719  0.4970  2.2667  0.0778
  945SOL     OW 2833   2.221   2.893   1.259 -0.5571 -0.4251 -0.5690
  945SOL    HW1 2834   2.287   2.920   1.181  1.2264  1.9237  1.1494
  945SOL    HW2 2835   2.210   2.972   1.324 -0.8043  1.7165  0.6888
  946SOL     OW 2836   0.925   1.688   0.639  0.0680 -0.4928 -0.1329
  946SOL    HW1 2837   0.918   1.701   0.538  1.2701 -0.4562  0.1805
  946SOL    HW2 2838   0.837   1.719   0.676 -0.4653  0.8328  0.1927
  947SOL     OW 2839   1.020   2.769   0.997  0.1703 -0.8578  0.2464
  947SOL    HW1 2840   1.108   2.756   1.040 -2.1523 -3.3532 -0.4222
  947SOL    HW2 2841   0.995   2.687   0.941 -1.6192 -0.1990 -1.0126
  948SOL     OW 2842   0.338   1.811   1.463  0.4173  0.1863  0.0257
  948SOL    HW1 2843   0.294   1.811   1.373 -2.8434  0.7675  0.4331
  948SOL    HW2 2844   0.337   1.718   1.505 -0.8821  3.4742 -1.0548
  949SOL     OW 2845   0.660   1.152   1.688  0.1544 -0.1855  0.3006
  949SOL    HW1 2846   0.662   1.111   1.781 -0.8796  1.2674  0.7175
  949SOL    HW2 2847   0.754   1.159   1.657 -0.8145  0.0653  1.0969
  950SOL     OW 2848   0.608   0.863   1.234  0.3519  0.0045 -0.1005
  950SOL    HW1 2849   0.654   0.860   1.325 -0.7822 -2.0528  1.3076
  950SOL    HW2 2850   0.507   0.856   1.239  1.8071  2.5987 -2.4451
  951SOL     OW 2851   0.913   1.916   2.023 -0.1927  0.1096 -0.1466
  951SOL    HW1 2852   0.847   1.838   2.020  1.9885  0.5137  0.9051
  951SOL    HW2 2853   0.953   1.923   2.118  1.6314  0.2192  0.0466
  952SOL     OW 2854   1.018   1.816   0.025 -0.1181  0.6118  0.0576
  952SOL    HW1 2855   0.999   1.716   0.018  2.5591  0.1830  0.7477
  952SOL    HW2 2856   1.073   1.830   0.112  1.8949 -1.2220  0.3957
  953SOL     OW 2857   1.014   2.846   2.802 -0.1898  0.4950 -0.2055
  953SOL    HW1 2858   0.925   2.861   2.842  0.5633  0.0739 -2.9110
  953SOL    HW2 2859   1.007   2.807   2.712  0.5809  1.0716  0.6269
  954SOL     OW 2860   1.875   1.297   2.918  0.0569  0.7081 -0.0471
  954SOL    HW1 2861   1.796   1.245   2.959 -0.0158  1.5613  0.9414
  954SOL    HW2 2862   1.904   1.383   2.971 -0.6473  0.3868  4.0705
  955SOL     OW 2863   0.140   2.674   0.018  0.1934  0.0791  0.9107
  955SOL    HW1 2864   0.147   2.774   0.052 -0.6708  2.2839  1.3516
  955SOL    HW2 2865   0.058   2.651   3.060 -1.4625 -2.0100  0.3823
  956SOL     OW 2866   1.388   0.963   1.352  0.5879 -0.4705  0.2558
  956SOL    HW1 2867   1.402   0.998   1.259 -1.6682  0.8380 -1.4486
  956SOL    HW2 2868   1.303   1.003   1.395 -0.9439  2.4655  2.2460
  957SOL     OW 2869   1.599   1.899   1.878  0.0209  0.6391 -0.1600
  957SOL    HW1 2870   1.702   1.874   1.874  1.8297 -0.0458  1.6549
  957SOL    HW2 2871   1.574   1.984   1.825  0.5161  2.9885 -0.8538
  958SOL     OW 2872   1.287   1.973   1.577  0.6597  0.0246 -0.3183
  958SOL    HW1 2873   1.368   1.986   1.637 -0.0447 -1.6312  3.3717
  958SOL    HW2 2874   1.310   1.965   1.478  1.8011  1.2847 -0.1400
  959SOL     OW 2875   1.627   1.195   1.044 -0.2057 -0.2976 -0.4009
  959SOL    HW1 2876   1.705   1.191   1.106  0.1754  1.3275  1.9131
  959SOL    HW2 2877   1.552   1.134   1.071  0.9278  2.6476 -1.2465
  960SOL     OW 2878   0.314   1.197   0.012  0.2880  0.1017 -0.0292
  960SOL    HW1 2879   0.387   1.267   0.016 -1.2427  0.7342  1.8289
  960SOL    HW2 2880   0.341   1.121   3.046 -1.0205 -0.0128 -0.2027
  961SOL     OW 2881   0.856   1.482   1.861  0.7022  0.2871 -0.2793
  961SOL    HW1 2882   0.781   1.450   1.926  1.1250  1.8082 -0.0368
  961SOL    HW2 2883   0.927   1.544   1.903 -0.3093  0.1158  0.4173
  962SOL     OW 2884   1.332   1.760   0.424 -0.3668  0.2325 -0.2037
  962SOL    HW1 2885   1.284   1.672   0.435  1.6062  0.0128  1.4457
  962SOL    HW2 2886   1.268   1.840   0.426  0.9819 -0.8516 -1.7176
  963SOL     OW 2887   1.486   1.894   2.528 -0.4652 -0.4107 -0.6911
  963SOL    HW1 2888   1.545   1.903   2.448 -0.6025 -2.1749  2.1684
  963SOL    HW2 2889   1.382   1.897   2.503  0.6134 -0.7619 -3.6642
  964SOL     OW 2890   0.695   0.124   0.296  0.4895 -0.1556 -0.7008
  964SOL    HW1 2891   0.610   0.086   0.338 -0.9774  1.0277  0.5256
  964SOL    HW2 2892   0.776   0.072   0.335 -1.1577 -0.1168  0.1638
  965SOL     OW 2893   0.680   2.414   0.930 -0.0519  0.8645  0.2746
  965SOL    HW1 2894   0.689   2.435   0.828  1.1537 -0.1162 -2.8385
  965SOL    HW2 2895   0.643   2.494   0.984 -0.9743 -0.3728  1.5164
  966SOL     OW 2896   0.429   1.907   2.589  0.4685  0.5226  0.0292
  966SOL    HW1 2897   0.391   1.998   2.568  0.6644 -1.1854 -1.4029
  966SOL    HW2 2898   0.351   1.846   2.625 -1.1811 -0.8229  1.3066
  967SOL     OW 2899   0.047   2.851   2.683  0.3609 -0.3719 -0.7891
  967SOL    HW1 2900   3.066   2.860   2.623  2.3899 -0.4577  2.4450
  967SOL    HW2 2901   0.024   2.862   2.784  1.0777 -0.6344  1.2210
  968SOL     OW 2902   2.140   0.546   0.212  0.0458 -0.7782  0.2180
  968SOL    HW1 2903   2.236   0.505   0.216  0.4921  0.1202  3.1544
  968SOL    HW2 2904   2.146   0.653   0.204  0.5124  3.4262  2.2197
  969SOL     OW 2905   0.364   1.126   1.893 -0.1384  0.1534 -0.5724
  969SOL    HW1 2906   0.343   1.139   1.792  2.0504  1.5275  2.9606
  969SOL    HW2 2907   0.455   1.076   1.905  2.2091 -1.7061 -0.3618
  970SOL     OW 2908   2.583   1.249   1.381  0.5026  0.3900  0.1254
  970SOL    HW1 2909   2.554   1.178   1.449  1.0886 -0.4474 -1.4815
  970SOL    HW2 2910   2.615   1.204   1.295  0.6891 -4.2241 -1.4395
  971SOL     OW 2911   2.219   0.035   1.045  0.1980 -0.1208 -0.2585
  971SOL    HW1 2912   2.247   0.102   0.968  0.4205  3.2203  0.6745
  971SOL    HW2 2913   2.236   3.040   1.026 -0.5053  3.8131  0.3256
  972SOL     OW 2914   2.960   2.952   1.816  0.1203 -0.6643  0.0612
  972SOL    HW1 2915   3.059   2.951   1.839 -1.8902  1.1230  1.6330
  972SOL    HW2 2916   2.949   2.990   1.720  2.3552  1.4387 -2.1850
  973SOL     OW 2917   0.223   0.589   0.191  0.5390  0.2143 -0.0143
  973SOL    HW1 2918   0.263   0.681   0.209 -1.7844 -0.5589  1.9667
  973SOL    HW2 2919   0.199   0.573   0.096  0.0431 -2.4419 -0.1908
  974SOL     OW 2920   1.980   1.366   2.310 -0.0310 -0.0436 -0.0549
  974SOL    HW1 2921   1.983   1.468   2.311 -1.3463 -1.0794 -1.9807
  974SOL    HW2 2922   1.969   1.335   2.212 -1.7534 -3.6165  0.3451
  975SOL     OW 2923   2.993   3.062   1.569 -0.5880  0.2980 -0.2586
  975SOL    HW1 2924   3.085   3.096   1.542  0.7443 -2.2212  0.6791
  975SOL    HW2 2925   2.955   2.989   1.509  1.5583  2.5129 -2.0902
  976SOL     OW 2926   0.405   2.209   2.284 -0.9980  0.5578  0.1174
  976SOL    HW1 2927   0.493   2.265   2.278  0.4699  1.6477 -0.8503
  976SOL    HW2 2928   0.390   2.131   2.215 -1.5084  0.2342  0.0508
  977SOL     OW 2929   0.968   2.660   0.565 -0.0908 -0.2271 -0.3706
  977SOL    HW1 2930   0.953   2.656   0.464 -0.4818  0.0855 -2.2552
  977SOL    HW2 2931   1.048   2.720   0.586 -0.4636 -0.2257 -1.2301
  978SOL     OW 2932   3.067   1.656   2.517  0.2734  0.2555  0.3622
  978SOL    HW1 2933   0.057   1.621   2.487 -1.6441  0.8715 -1.4328
  978SOL    HW2 2934   3.064   1.677   2.618 -0.7064  0.3256 -0.0131
  979SOL     OW 2935   1.714   2.639   1.618 -0.0548 -0.0207 -0.0525
  979SOL    HW1 2936   1.692   2.628   1.718 -2.4025  0.1894  2.2841
  979SOL    HW2 2937   1.799   2.586   1.588  0.7913  1.9169  4.0430
  980SOL     OW 2938   0.666   1.649   2.896 -0.5190 -0.4208 -0.5879
  980SOL    HW1 2939   0.733   1.581   2.864 -1.4736  1.2249 -1.0350
  980SOL    HW2 2940   0.580   1.598   2.924 -1.3626 -1.1313  1.2804
  981SOL     OW 2941   2.231   3.016   2.364 -0.2423 -0.1488  0.2011
  981SOL    HW1 2942   2.280   2.960   2.291  1.6669 -0.8779  1.9539
  981SOL    HW2 2943   2.170   2.964   2.430 -1.1015 -1.4852  0.4149
  982SOL     OW 2944   3.055   0.328   2.724  0.0489  0.4450  0.2013
  982SOL    HW1 2945   2.954   0.320   2.715  1.5295  0.4310 -0.7136
  982SOL    HW2 2946   3.096   0.245   2.677  0.6100 -0.2181  0.1353
  983SOL     OW 2947   1.971   1.325   2.027 -0.3168  0.0458 -0.3012
  983SOL    HW1 2948   2.061   1.336   1.984  2.3591 -2.6036 -0.3989
  983SOL    HW2 2949   1.919   1.235   2.006 -1.6364 -0.6442  0.6586
  984SOL     OW 2950   1.278   0.514   1.771  0.1462  0.6107  0.1901
  984SOL    HW1 2951   1.295   0.517   1.873 -3.7470 -2.7372  1.3808
  984SOL    HW2 2952   1.265   0.609   1.734 -1.1311  0.2109  0.8062
  985SOL     OW 2953   1.660   1.519   1.708  0.4230 -0.3650  0.0283
  985SOL    HW1 2954   1.578   1.563   1.664 -3.7491  0.6725 -0.6251
  985SOL    HW2 2955   1.731   1.483   1.649 -5.0587  2.4515  1.8970
  986SOL     OW 2956   2.043   0.339   1.751 -0.4024  0.0974  0.3680
  986SOL    HW1 2957   2.141   0.342   1.719  3.6881  0.2433  2.2488
  986SOL    HW2 2958   1.995   0.429   1.735 -1.3332  2.5017 -0.1354
  987SOL     OW 2959   2.343   0.542   1.536  0.4813 -0.3078  0.2865
  987SOL    HW1 2960   2.336   0.462   1.601  1.4844  2.2174  2.4637
  987SOL    HW2 2961   2.250   0.577   1.513  0.9943  1.4831 -0.7596
  988SOL     OW 2962   2.773   0.838   2.114 -0.1324  0.2451  0.3207
  988SOL    HW1 2963   2.709   0.764   2.089 -1.3160 -3.3742 -1.3008
  988SOL    HW2 2964   2.832   0.813   2.187 -4.9219  0.2522 -0.7272
  989SOL     OW 2965   2.079   1.844   2.866 -0.3540  0.5377  0.0752
  989SOL    HW1 2966   2.027   1.828   2.779  1.4220 -0.7506  1.8757
  989SOL    HW2 2967   2.030   1.904   2.930 -0.0452  1.6497  2.7900
  990SOL     OW 2968   1.264   0.399   2.887  0.1965  0.1362 -0.3380
  990SOL    HW1 2969   1.226   0.314   2.844 -0.0847 -0.1317 -3.1612
  990SOL    HW2 2970   1.245   0.484   2.832  2.0254  3.8687  3.1040
  991SOL     OW 2971   1.531   0.861   0.146 -0.3410 -0.0628  0.2629
  991SOL    HW1 2972   1.518   0.802   0.231 -0.1511  0.6987 -1.0650
  991SOL    HW2 2973   1.485   0.829   0.066 -0.3765 -0.9052 -1.5776
  992SOL     OW 2974   2.286   1.686   2.903 -0.0434  0.2067  0.3536
  992SOL    HW1 2975   2.278   1.605   2.965  0.4150 -3.6575  0.7565
  992SOL    HW2 2976   2.208   1.751   2.906  1.6342  0.4001  1.1677
  993SOL     OW 2977   0.489   0.464   0.522  0.6887 -0.4061  0.0563
  993SOL    HW1 2978   0.456   0.378   0.473 -2.3735 -0.6272  0.4272
  993SOL    HW2 2979   0.415   0.533   0.527  1.7971 -0.5221 -1.9612
  994SOL     OW 2980   0.193   1.784   2.229 -0.5324  0.3834 -0.5284
  994SOL    HW1 2981   0.093   1.798   2.247 -1.9976 -0.3233  0.8800
  994SOL    HW2 2982   0.208   1.734   2.145  3.1335  1.6055 -0.5266
  995SOL     OW 2983   1.973   1.133   2.459 -0.3600 -0.2140  0.1889
  995SOL    HW1 2984   1.967   1.220   2.403  2.0903  1.1636  0.1578
  995SOL    HW2 2985   2.056   1.130   2.516  0.0932  0.3645 -1.2953
  996SOL     OW 2986   1.954   1.543   2.572 -0.4806 -0.1572 -0.3009
  996SOL    HW1 2987   1.987   1.574   2.475 -0.1619  0.9577 -2.6756
  996SOL    HW2 2988   1.871   1.489   2.576  2.3596 -0.1701  1.3914
  997SOL     OW 2989   2.310   1.477   1.731  0.8056  0.0023  0.3318
  997SOL    HW1 2990   2.392   1.508   1.788  2.4681  0.3786  0.1953
  997SOL    HW2 2991   2.250   1.557   1.713  1.4547 -2.2279 -1.2762
  998SOL     OW 2992   2.640   1.552   0.383  0.4472  0.3000 -0.0151
  998SOL    HW1 2993   2.596   1.506   0.303 -3.1129 -0.2973 -1.9084
  998SOL    HW2 2994   2.712   1.493   0.425 -0.8189 -2.0686 -2.7247
  999SOL     OW 2995   2.583   2.639   0.471 -0.1356  0.5142  0.2307
  999SOL    HW1 2996   2.562   2.607   0.566  2.6635 -0.6712  0.3302
  999SOL    HW2 2997   2.557   2.741   0.465 -1.2272  4.2193  1.5281
 1000SOL     OW 2998   0.437   0.084   2.055  0.9255 -0.0058  0.0524
 1000SOL    HW1 2999   0.414   0.155   1.978 -0.6569  2.9579 -2.2311
 1000SOL    HW2 3000   0.490   0.132   2.130  1.8226 -2.0901  2.4742
   3.09894   3.09894   3.09894
