1000 SPC/Fw water molecules t=  44.00000 step= 44000
 3000
    1SOL     OW    1   2.028   2.649   0.765 -0.7146  0.3213 -0.1919
    1SOL    HW1    2   1.957   2.584   0.733 -0.1366  0.7084  1.7072
    1SOL    HW2    3   2.009   2.735   0.711 -0.9317 -1.5412 -0.1424
    2SOL     OW    4   1.281   0.792   2.242  0.2097 -0.0900  0.0630
    2SOL    HW1    5   1.363   0.737   2.275  1.1643  0.6152  0.4732
    2SOL    HW2    6   1.207   0.786   2.312  0.1977  1.4936  0.9550
    3SOL     OW    7   1.184   2.700   2.757  0.1159  0.0505  0.0201
    3SOL    HW1    8   1.197   2.745   2.847  1.4469  0.5700  0.1259
    3SOL    HW2    9   1.088   2.663   2.736 -1.2381  0.5162  1.3161
    4SOL     OW   10   1.274   1.367   2.905 -0.6310  0.0788 -0.4470
    4SOL    HW1   11   1.338   1.333   2.833 -1.1617 -2.0958  0.5232
    4SOL    HW2   12   1.324   1.432   2.969  2.1182  0.4777 -2.3985
    5SOL     OW   13   0.817   1.213   2.102  0.0950  0.5487  0.1679
    5SOL    HW1   14   0.911   1.178   2.086  0.0570 -0.3269  1.4849
    5SOL    HW2   15   0.818   1.316   2.089  1.2752 -0.6804  1.1865
    6SOL     OW   16   2.201   0.844   2.311 -0.1800 -0.1544 -0.2682
    6SOL    HW1   17   2.231   0.746   2.328 -0.4573 -0.2809  0.2362
    6SOL    HW2   18   2.279   0.899   2.273 -0.0965 -0.8659  0.5467
    7SOL     OW   19   0.495   0.741   1.653  0.1888  0.4072 -0.3147
    7SOL    HW1   20   0.504   0.687   1.572 -2.7136  0.7093  1.8289
    7SOL    HW2   21   0.548   0.709   1.733  0.8638 -0.1183 -2.1216
    8SOL     OW   22   1.864   2.918   1.943 -0.4429  0.2066 -0.9713
    8SOL    HW1   23   1.768   2.921   1.973 -0.5281 -0.8710  1.4562
    8SOL    HW2   24   1.874   2.969   1.858 -0.0452  1.7319  1.7240
    9SOL     OW   25   0.312   3.076   0.782  0.1287  0.0546 -0.5798
    9SOL    HW1   26   0.379   0.056   0.779  1.6747  1.0496  0.3748
    9SOL    HW2   27   0.217   0.010   0.765  1.1373  0.4044  0.5312
   10SOL     OW   28   0.097   2.277   2.581 -0.0163  0.0951 -0.0367
   10SOL    HW1   29   0.030   2.211   2.544 -2.2695  0.2036 -0.3317
   10SOL    HW2   30   0.164   2.244   2.645 -0.6261 -0.8405 -0.4484
   11SOL     OW   31   0.778   1.552   2.911 -0.3246 -0.2364  0.4112
   11SOL    HW1   32   0.699   1.543   2.978 -0.3203  3.1097 -1.0088
   11SOL    HW2   33   0.852   1.493   2.946 -1.2859 -1.4540  2.0162
   12SOL     OW   34   2.262   2.472   1.285  0.0073 -0.1624 -0.0892
   12SOL    HW1   35   2.244   2.510   1.192  1.8762 -1.0817  2.2866
   12SOL    HW2   36   2.194   2.403   1.320 -1.4694 -1.0050  3.1974
   13SOL     OW   37   0.510   2.805   2.978 -0.2581  0.1628 -0.2147
   13SOL    HW1   38   0.566   2.870   3.040  0.4808 -0.6713  0.6356
   13SOL    HW2   39   0.569   2.732   2.940 -0.5783 -1.0032 -1.1697
   14SOL     OW   40   1.286   1.591   1.423 -0.4614  0.1235  0.5887
   14SOL    HW1   41   1.297   1.495   1.451 -2.1019 -0.3687 -1.1263
   14SOL    HW2   42   1.344   1.653   1.475  0.0618 -0.9282 -0.6393
   15SOL     OW   43   0.310   1.450   2.287 -0.1154  0.3312  0.0492
   15SOL    HW1   44   0.347   1.505   2.210 -0.3137 -1.1888 -1.0915
   15SOL    HW2   45   0.213   1.430   2.269  1.5954  4.2885  1.1996
   16SOL     OW   46   1.707   0.641   2.685  0.1349 -0.4043 -0.1775
   16SOL    HW1   47   1.696   0.620   2.783  1.5568  2.1772  2.2694
   16SOL    HW2   48   1.693   0.739   2.669  3.1975 -1.7115 -5.6013
   17SOL     OW   49   3.057   2.778   2.414  0.0562 -0.5823  0.1087
   17SOL    HW1   50   3.045   2.758   2.514  2.0968 -0.8782  1.6369
   17SOL    HW2   51   0.057   2.778   2.394 -0.2303  2.4708 -1.4777
   18SOL     OW   52   1.472   1.053   0.416 -0.2438  0.0731  0.2757
   18SOL    HW1   53   1.406   1.067   0.496  1.3182 -2.0478  0.5991
   18SOL    HW2   54   1.571   1.049   0.448 -1.6278 -2.5125 -1.1634
   19SOL     OW   55   3.015   1.664   2.287  0.1065  0.0378  0.7058
   19SOL    HW1   56   3.066   1.690   2.198 -1.4199  0.7200 -0.2990
   19SOL    HW2   57   3.072   1.629   2.359 -2.8111 -1.1240 -1.9262
   20SOL     OW   58   2.257   2.508   2.499 -0.1792  0.2125  0.3418
   20SOL    HW1   59   2.182   2.548   2.445  0.6281  0.9170 -1.9921
   20SOL    HW2   60   2.338   2.482   2.438 -2.2759  1.7509 -0.5729
   21SOL     OW   61   1.607   1.994   0.714 -0.1191  0.4687  0.0560
   21SOL    HW1   62   1.672   2.000   0.635  0.2434 -1.0867  0.9454
   21SOL    HW2   63   1.660   2.038   0.795  0.1782 -0.9252  1.5220
   22SOL     OW   64   2.446   2.017   1.393 -0.6642 -0.5501  0.3510
   22SOL    HW1   65   2.509   1.936   1.387  0.5207 -1.6900 -0.4619
   22SOL    HW2   66   2.392   2.026   1.305  3.0996  0.2722  4.8745
   23SOL     OW   67   2.994   1.341   1.162 -0.7527 -0.0734 -0.6465
   23SOL    HW1   68   3.082   1.372   1.128 -2.7892 -1.3428  2.3406
   23SOL    HW2   69   2.920   1.401   1.137 -0.6082 -2.7315  0.1038
   24SOL     OW   70   1.926   1.356   1.955  0.3511  0.2731 -0.2771
   24SOL    HW1   71   1.883   1.364   2.043  2.3327  0.1628  0.6804
   24SOL    HW2   72   2.007   1.417   1.954 -3.4558 -0.3151 -0.0369
   25SOL     OW   73   1.813   3.057   2.291 -0.5677 -0.3798 -0.1524
   25SOL    HW1   74   1.847   0.045   2.339  1.2929  1.1432  2.7763
   25SOL    HW2   75   1.883   3.022   2.224  0.4141  1.3765  2.5644
   26SOL     OW   76   0.884   0.419   0.404  0.4532  0.3689  0.2922
   26SOL    HW1   77   0.812   0.425   0.334 -2.8752 -0.7377  2.6765
   26SOL    HW2   78   0.974   0.441   0.370 -1.8487 -5.3514 -1.0554
   27SOL     OW   79   0.989   1.464   0.814  0.3065  0.3325 -0.0659
   27SOL    HW1   80   0.919   1.503   0.751 -0.7966 -1.1184  0.1501
   27SOL    HW2   81   0.979   1.508   0.907  0.4793  2.1673  2.0691
   28SOL     OW   82   2.243   2.209   0.905  0.0643  0.1311 -0.0019
   28SOL    HW1   83   2.307   2.207   0.987  0.2999 -1.4603 -0.2830
   28SOL    HW2   84   2.305   2.230   0.825  2.9788 -0.8499 -1.3909
   29SOL     OW   85   2.243   3.060   2.017  0.8501 -0.2830 -0.1777
   29SOL    HW1   86   2.201   0.054   1.991  2.5457 -4.1658 -0.3375
   29SOL    HW2   87   2.277   3.006   1.933  2.6293  1.0855 -1.5424
   30SOL     OW   88   0.009   2.861   1.583  0.7476  0.2916 -0.6234
   30SOL    HW1   89   0.029   2.778   1.532  2.6593 -0.0492 -0.3982
   30SOL    HW2   90   3.008   2.857   1.612 -0.5286 -1.5243 -0.3624
   31SOL     OW   91   0.030   1.843   2.100 -0.3376 -0.7942 -0.1817
   31SOL    HW1   92   3.079   1.914   2.151  0.4621  1.5345  0.4946
   31SOL    HW2   93   0.109   1.886   2.044  2.6236 -0.3132 -0.3750
   32SOL     OW   94   1.577   2.385   2.256  0.3175  0.8372 -0.4501
   32SOL    HW1   95   1.504   2.450   2.231 -1.3211 -0.7321 -0.5978
   32SOL    HW2   96   1.624   2.405   2.350  3.3655 -1.7969  2.0490
   33SOL     OW   97   0.357   0.123   2.799  0.1643 -0.0830  0.0256
   33SOL    HW1   98   0.431   0.086   2.738  4.6721  0.9272  0.5192
   33SOL    HW2   99   0.278   0.062   2.820  0.8736  2.0571 -2.3708
   34SOL     OW  100   2.657   0.133   0.274  0.2389 -0.1939 -0.3374
   34SOL    HW1  101   2.721   0.096   0.342  0.8190 -0.9560 -1.9842
   34SOL    HW2  102   2.573   0.171   0.311  1.1091 -0.3783 -2.2326
   35SOL     OW  103   2.859   2.958   1.636 -0.7056 -0.6540  0.3372
   35SOL    HW1  104   2.932   3.018   1.600  1.5577 -0.7489  1.0059
   35SOL    HW2  105   2.767   2.992   1.606  2.5643  0.3055  0.2958
   36SOL     OW  106   2.611   3.092   2.269  0.7024 -0.0574 -0.1627
   36SOL    HW1  107   2.644   3.097   2.362 -0.3904 -2.3180 -4.9121
   36SOL    HW2  108   2.674   0.044   2.205  0.2625  0.7611 -1.0138
   37SOL     OW  109   1.517   3.008   0.028  0.0207 -0.2936  0.3956
   37SOL    HW1  110   1.581   3.047   0.095  1.8727  0.4393 -0.7219
   37SOL    HW2  111   1.459   2.933   0.061  1.1976  1.2367  0.2488
   38SOL     OW  112   0.300   0.596   3.058  0.0643  0.1270 -0.9720
   38SOL    HW1  113   0.370   0.532   0.002  0.6821 -1.9240 -1.0228
   38SOL    HW2  114   0.304   0.600   2.957 -1.8756  1.1204  0.6647
   39SOL     OW  115   1.294   1.858   2.191 -0.1823  0.6254 -0.1987
   39SOL    HW1  116   1.387   1.817   2.193  1.4945  1.4067 -3.0868
   39SOL    HW2  117   1.254   1.860   2.284  1.9867  1.5887 -0.6362
   40SOL     OW  118   0.215   0.550   2.548 -0.1535  0.0034 -0.7254
   40SOL    HW1  119   0.294   0.571   2.487  1.1095 -0.3932  2.3171
   40SOL    HW2  120   0.208   0.448   2.565 -1.4300  0.6213  0.4788
   41SOL     OW  121   1.600   1.098   2.112  0.5069  0.6166 -0.2406
   41SOL    HW1  122   1.664   1.019   2.099  0.6558 -1.0594 -2.0255
   41SOL    HW2  123   1.600   1.138   2.208  1.7620  1.0906  1.4044
   42SOL     OW  124   3.020   0.094   1.573  0.3020  0.0250  0.2374
   42SOL    HW1  125   3.000   0.187   1.530 -2.2559  2.0068 -4.0083
   42SOL    HW2  126   3.051   0.108   1.669 -1.4657 -0.0925  0.0359
   43SOL     OW  127   1.275   1.216   1.780  0.2968  0.3231  0.4407
   43SOL    HW1  128   1.352   1.221   1.845 -1.2740 -0.1671 -2.8070
   43SOL    HW2  129   1.200   1.152   1.808  0.7040 -2.7829  3.1287
   44SOL     OW  130   3.060   0.132   3.029  0.0905  0.1264 -0.4104
   44SOL    HW1  131   0.028   0.112   0.008  1.0847  2.0980  0.1365
   44SOL    HW2  132   2.975   0.167   3.074 -2.2878 -0.6885 -1.9514
   45SOL     OW  133   0.483   2.007   1.605 -0.2734  0.7662 -0.4360
   45SOL    HW1  134   0.503   2.031   1.505 -0.7661 -1.4987 -0.4349
   45SOL    HW2  135   0.525   2.074   1.666 -1.3955 -2.4989 -2.6405
   46SOL     OW  136   2.389   2.953   1.808  0.0456 -0.3895  0.0875
   46SOL    HW1  137   2.453   3.018   1.861  1.5723  2.1130 -0.0963
   46SOL    HW2  138   2.441   2.886   1.757 -0.7089  0.4945 -1.1781
   47SOL     OW  139   0.541   1.910   1.171 -0.1701 -0.5003  0.3630
   47SOL    HW1  140   0.545   1.810   1.201  0.2466  0.0800  1.8159
   47SOL    HW2  141   0.456   1.933   1.119  0.6715 -1.2322 -1.1817
   48SOL     OW  142   0.739   2.652   2.901  0.0540  0.0388 -0.0837
   48SOL    HW1  143   0.717   2.558   2.875  2.8800  1.1681  2.4836
   48SOL    HW2  144   0.774   2.661   2.998  0.9174  0.4090  0.9656
   49SOL     OW  145   2.898   1.488   1.632  0.1871  0.1824 -0.1298
   49SOL    HW1  146   2.984   1.443   1.648  0.6406 -0.2040  4.1823
   49SOL    HW2  147   2.860   1.471   1.539 -2.6314 -0.4764 -2.4459
   50SOL     OW  148   1.433   2.798   0.700  0.1464 -0.6226 -0.0654
   50SOL    HW1  149   1.518   2.803   0.755  1.5205  1.1384  1.3758
   50SOL    HW2  150   1.388   2.886   0.684  0.9882 -0.7606  1.2852
   51SOL     OW  151   1.082   2.994   1.164  0.6293 -0.6754  0.4790
   51SOL    HW1  152   1.142   2.978   1.081  0.9887  0.0682 -1.2695
   51SOL    HW2  153   0.990   3.039   1.134 -3.7578  1.6790  2.8963
   52SOL     OW  154   0.642   1.294   0.441  0.0579  0.0101 -0.4642
   52SOL    HW1  155   0.622   1.236   0.363 -0.0883  1.4452  1.3172
   52SOL    HW2  156   0.654   1.229   0.522  0.9505  0.8451  1.4295
   53SOL     OW  157   1.229   2.857   2.506  0.2328  0.1478 -0.0098
   53SOL    HW1  158   1.321   2.813   2.506  0.0250  0.3071 -0.1917
   53SOL    HW2  159   1.170   2.829   2.582  3.8128  0.0297  1.2421
   54SOL     OW  160   1.905   0.449   1.855  0.3147 -0.0159 -0.3078
   54SOL    HW1  161   1.829   0.473   1.793  2.5805 -0.9348  1.6094
   54SOL    HW2  162   1.904   0.349   1.876 -0.5704 -0.8868 -2.8530
   55SOL     OW  163   0.009   2.486   0.472 -0.3399  0.0093 -0.3685
   55SOL    HW1  164   3.081   2.584   0.481 -3.6659  0.5183 -2.0985
   55SOL    HW2  165   0.101   2.462   0.430  2.0636  0.4019 -0.9844
   56SOL     OW  166   1.054   2.800   1.862  0.1004  0.2334  0.0081
   56SOL    HW1  167   1.053   2.897   1.839 -0.5766 -1.7685  1.2154
   56SOL    HW2  168   0.975   2.760   1.806 -1.1630  2.5566 -1.3814
   57SOL     OW  169   1.877   0.873   2.260  0.4534  0.1802  0.3184
   57SOL    HW1  170   1.975   0.893   2.269  0.4601  1.3508  0.1970
   57SOL    HW2  171   1.836   0.890   2.169 -1.9146  2.0008  0.5301
   58SOL     OW  172   0.213   0.873   2.146 -0.4531 -0.2340  0.0731
   58SOL    HW1  173   0.137   0.811   2.179  0.5378 -3.7309 -3.1136
   58SOL    HW2  174   0.230   0.874   2.046 -0.3278  0.6610  1.0581
   59SOL     OW  175   0.901   2.399   1.884 -0.0387 -0.0535  0.4029
   59SOL    HW1  176   0.871   2.431   1.792  0.8943 -2.5845 -0.3484
   59SOL    HW2  177   0.984   2.453   1.915 -1.5691  0.1776  1.3725
   60SOL     OW  178   2.306   2.552   0.222  0.2707 -0.1442 -0.1305
   60SOL    HW1  179   2.328   2.509   0.133  3.8161  0.7575  0.2703
   60SOL    HW2  180   2.308   2.658   0.226  0.6486  1.1284  2.9565
   61SOL     OW  181   1.511   2.503   0.679 -0.1613 -0.0266 -0.2635
   61SOL    HW1  182   1.513   2.567   0.755  0.3935 -4.0431 -0.1001
   61SOL    HW2  183   1.458   2.423   0.706  1.1101 -0.8004 -2.2562
   62SOL     OW  184   1.583   2.827   2.914 -0.2499 -0.8270 -0.5531
   62SOL    HW1  185   1.639   2.744   2.905 -1.2696  1.9018 -0.4092
   62SOL    HW2  186   1.595   2.883   2.998  2.2092  2.4347 -0.2561
   63SOL     OW  187   2.301   0.614   3.031  0.0161 -0.7143  1.0907
   63SOL    HW1  188   2.327   0.715   3.056  0.3541  4.5260  1.3028
   63SOL    HW2  189   2.367   0.551   3.070  0.7360  1.9251 -0.2693
   64SOL     OW  190   1.368   0.969   2.975 -0.7247  0.3056 -0.1012
   64SOL    HW1  191   1.316   0.879   2.965 -1.1181  2.5220  0.2405
   64SOL    HW2  192   1.346   1.005   3.066 -1.3466 -3.2901  0.0606
   65SOL     OW  193   0.706   2.823   1.556 -0.5718 -0.5054 -0.1178
   65SOL    HW1  194   0.741   2.776   1.473  2.4470  2.5256 -0.2650
   65SOL    HW2  195   0.608   2.811   1.581  0.7912  3.3952 -1.2520
   66SOL     OW  196   0.902   1.101   1.494  0.7961 -0.2679 -0.1145
   66SOL    HW1  197   0.984   1.083   1.434  0.1483 -0.3866  0.0302
   66SOL    HW2  198   0.826   1.141   1.441  0.1175 -1.8531 -1.6859
   67SOL     OW  199   2.135   2.206   1.931  0.0598 -0.3712  0.3273
   67SOL    HW1  200   2.156   2.280   1.994  0.2809 -1.4703  0.8954
   67SOL    HW2  201   2.171   2.231   1.842  0.6288 -3.7179  3.8434
   68SOL     OW  202   0.840   1.479   2.073 -0.0514  0.2344  0.1654
   68SOL    HW1  203   0.779   1.560   2.060 -2.1619 -0.2831 -0.2924
   68SOL    HW2  204   0.899   1.453   1.990 -0.1493  2.2500  1.2461
   69SOL     OW  205   2.801   2.588   0.280  0.1125 -0.1767  0.3401
   69SOL    HW1  206   2.889   2.631   0.258  2.5612 -0.2575  0.7677
   69SOL    HW2  207   2.760   2.639   0.355 -0.6939 -4.1577 -0.5463
   70SOL     OW  208   2.567   0.770   2.283  0.8953  0.2739 -0.2970
   70SOL    HW1  209   2.537   0.777   2.380 -0.3200  0.3260 -0.8990
   70SOL    HW2  210   2.589   0.670   2.259  1.1797 -0.3066 -1.1682
   71SOL     OW  211   0.445   1.917   0.843  0.2757  0.0955  0.1779
   71SOL    HW1  212   0.385   1.899   0.929 -0.9838  0.1374  1.3776
   71SOL    HW2  213   0.410   2.009   0.802 -1.4901  0.8793  0.0963
   72SOL     OW  214   2.447   2.023   0.655  0.3333 -0.7847 -0.1826
   72SOL    HW1  215   2.467   2.037   0.557 -1.8705 -0.0574 -0.0246
   72SOL    HW2  216   2.405   2.106   0.695  1.7010 -2.6612 -2.2167
   73SOL     OW  217   1.176   0.397   0.603  0.4839  0.1359 -0.1371
   73SOL    HW1  218   1.162   0.466   0.528 -0.9998 -1.7176  0.2262
   73SOL    HW2  219   1.236   0.441   0.671 -0.9125 -2.8794 -0.5070
   74SOL     OW  220   2.677   2.120   1.911 -0.5768  0.1631  0.2362
   74SOL    HW1  221   2.616   2.045   1.883  1.6361  1.5670 -1.9519
   74SOL    HW2  222   2.631   2.210   1.921  1.5319 -1.0903  0.4588
   75SOL     OW  223   1.468   1.645   1.767 -0.4102 -0.0154 -0.7336
   75SOL    HW1  224   1.464   1.716   1.843 -0.1446  0.4013  2.2024
   75SOL    HW2  225   1.537   1.573   1.789 -0.3404 -1.1149  0.3298
   76SOL     OW  226   1.107   1.767   1.081  0.3413 -0.9191 -0.2397
   76SOL    HW1  227   1.206   1.762   1.107  2.4942 -0.0338  1.0147
   76SOL    HW2  228   1.056   1.678   1.071  0.4737  0.7161 -1.7006
   77SOL     OW  229   2.696   1.290   1.741 -0.6160 -0.4326 -0.3987
   77SOL    HW1  230   2.684   1.327   1.840 -5.0671 -0.1606  3.8015
   77SOL    HW2  231   2.766   1.342   1.693 -0.1535  0.2653 -1.6471
   78SOL     OW  232   1.739   0.694   0.372  0.4642  0.1389  0.2421
   78SOL    HW1  233   1.792   0.609   0.370 -1.3518 -1.9046  0.4274
   78SOL    HW2  234   1.659   0.677   0.434 -0.3551  2.9909  2.4884
   79SOL     OW  235   1.467   1.598   2.130  0.0011  0.1125 -0.1127
   79SOL    HW1  236   1.545   1.568   2.067  0.8054 -1.8982  2.7744
   79SOL    HW2  237   1.435   1.524   2.181  2.1373  2.7318 -2.5043
   80SOL     OW  238   1.024   0.495   1.785  0.1990 -0.4078  0.1096
   80SOL    HW1  239   1.005   0.442   1.699 -0.6153 -0.7559 -0.6149
   80SOL    HW2  240   1.108   0.449   1.825  0.5111 -0.4261 -1.7658
   81SOL     OW  241   0.697   2.330   0.450  0.0683 -0.7557 -0.1199
   81SOL    HW1  242   0.674   2.400   0.383  3.4076 -0.3979  2.6341
   81SOL    HW2  243   0.795   2.327   0.467  0.8606 -0.7365 -0.0992
   82SOL     OW  244   1.210   0.393   1.913 -0.4505 -0.7173  0.8105
   82SOL    HW1  245   1.293   0.382   1.854 -0.9895 -0.4923  0.5198
   82SOL    HW2  246   1.241   0.392   2.006 -1.5111 -0.7425  0.4163
   83SOL     OW  247   0.367   2.183   0.812  0.7843  0.7583 -0.0348
   83SOL    HW1  248   0.418   2.248   0.866 -0.6018  0.5083 -0.2568
   83SOL    HW2  249   0.341   2.225   0.721 -0.4056  1.0430 -0.9481
   84SOL     OW  250   2.755   1.573   0.535 -0.3750  0.4984 -0.2615
   84SOL    HW1  251   2.730   1.492   0.482 -2.5952 -0.4029  2.3970
   84SOL    HW2  252   2.701   1.580   0.622  0.5402 -0.4690  1.6473
   85SOL     OW  253   2.319   2.002   1.630  0.2098 -0.4312 -0.6071
   85SOL    HW1  254   2.368   2.018   1.542  0.0819  3.5634 -2.5402
   85SOL    HW2  255   2.383   1.980   1.711 -1.3179 -0.2864  0.7332
   86SOL     OW  256   1.425   2.333   1.216  0.8870  0.1451  0.4383
   86SOL    HW1  257   1.503   2.338   1.147 -1.3906 -0.2430 -2.6835
   86SOL    HW2  258   1.465   2.345   1.312  0.1157 -0.6453  0.8636
   87SOL     OW  259   2.263   1.531   0.528 -0.0752 -0.1994  0.1081
   87SOL    HW1  260   2.168   1.558   0.504 -1.4099  0.3880 -0.7200
   87SOL    HW2  261   2.312   1.488   0.453 -0.2446 -0.8575  1.1162
   88SOL     OW  262   0.829   3.080   1.065  0.3215 -0.2509  0.0602
   88SOL    HW1  263   0.742   3.029   1.034 -2.9347 -2.9029 -0.0547
   88SOL    HW2  264   0.844   0.067   0.999 -0.7229  1.9939 -0.7935
   89SOL     OW  265   0.776   0.136   1.798 -0.7398 -0.3464 -0.3337
   89SOL    HW1  266   0.830   0.211   1.846 -1.4022  0.3245  0.9018
   89SOL    HW2  267   0.676   0.155   1.798 -0.2326 -0.1339  2.7536
   90SOL     OW  268   0.153   2.068   0.511  0.1247 -0.0022 -0.2626
   90SOL    HW1  269   0.168   2.084   0.613  0.5193  2.1074  3.2022
   90SOL    HW2  270   0.195   1.979   0.475  1.6004 -4.7978 -0.7678
   91SOL     OW  271   0.968   1.543   1.070 -0.1711  0.0478  0.2408
   91SOL    HW1  272   0.872   1.561   1.092  1.3701 -1.3758 -3.3794
   91SOL    HW2  273   0.998   1.463   1.130  1.4952 -2.3575  2.3863
   92SOL     OW  274   2.469   2.985   1.499  0.2697 -0.2743  0.0124
   92SOL    HW1  275   2.554   3.036   1.521 -0.6337 -0.9604  0.7382
   92SOL    HW2  276   2.470   2.897   1.555  2.7904 -1.0814  1.1717
   93SOL     OW  277   0.447   1.106   2.731  0.3018  0.1685 -0.3942
   93SOL    HW1  278   0.522   1.155   2.785  1.4746 -0.9102  0.1867
   93SOL    HW2  279   0.436   1.151   2.637  0.5993  1.6991  0.9641
   94SOL     OW  280   2.615   3.060   1.916  0.1152  0.8013  0.1905
   94SOL    HW1  281   2.619   0.038   1.981  1.5064  0.4182 -0.8705
   94SOL    HW2  282   2.699   3.000   1.927 -2.3071 -0.0803  0.8422
   95SOL     OW  283   1.926   0.777   1.709 -0.7600  0.2134  0.1131
   95SOL    HW1  284   1.878   0.862   1.685 -0.9588 -0.0249 -0.5140
   95SOL    HW2  285   1.873   0.726   1.778  0.5657  1.3987 -1.0021
   96SOL     OW  286   2.966   0.374   1.848 -0.0808 -0.3948 -0.2548
   96SOL    HW1  287   2.869   0.407   1.834 -1.6781  2.5348  0.0444
   96SOL    HW2  288   3.025   0.449   1.820  0.0818 -0.6129  0.1920
   97SOL     OW  289   2.354   0.088   1.316  0.2205 -0.2627  0.4484
   97SOL    HW1  290   2.253   0.102   1.319 -0.9839 -0.2563 -0.1529
   97SOL    HW2  291   2.384   0.017   1.382 -2.3071  0.4752  1.7576
   98SOL     OW  292   1.982   2.524   1.677 -0.4547  0.6155 -0.4388
   98SOL    HW1  293   2.007   2.589   1.750  1.7614 -2.8247  0.5943
   98SOL    HW2  294   1.950   2.439   1.724 -1.8172 -0.7120 -2.3231
   99SOL     OW  295   3.077   0.780   0.984  0.3844 -0.5595 -0.0272
   99SOL    HW1  296   3.060   0.724   1.072 -1.6831 -1.2976  4.1508
   99SOL    HW2  297   0.058   0.840   0.997  1.0666 -2.6240 -0.3616
  100SOL     OW  298   2.503   1.941   1.824  0.2515  0.9743  0.6024
  100SOL    HW1  299   2.431   1.975   1.886  0.0731 -1.3433 -0.7070
  100SOL    HW2  300   2.514   1.841   1.837 -0.3432  0.6722 -0.4930
  101SOL     OW  301   2.301   0.191   0.043 -0.6231  0.0523  0.0498
  101SOL    HW1  302   2.366   0.267   0.025 -3.7051 -1.9185  1.1874
  101SOL    HW2  303   2.262   0.170   3.053 -1.0315 -0.1677  1.8756
  102SOL     OW  304   0.732   0.411   1.407 -0.2114 -0.0021  0.0348
  102SOL    HW1  305   0.692   0.424   1.501  1.9380  1.1843 -0.4752
  102SOL    HW2  306   0.660   0.373   1.349 -0.6624 -1.4607  1.1782
  103SOL     OW  307   2.908   0.081   2.637  0.3700  0.2908  0.6257
  103SOL    HW1  308   2.900   0.008   2.711  0.9158  0.3501 -0.7749
  103SOL    HW2  309   2.960   0.051   2.549 -0.0738  2.0743 -2.4880
  104SOL     OW  310   0.537   2.093   1.358 -0.1087  0.2305 -0.5689
  104SOL    HW1  311   0.554   2.025   1.285 -1.0503 -2.3247 -0.3831
  104SOL    HW2  312   0.531   2.186   1.315 -1.9303  1.6524  1.3975
  105SOL     OW  313   0.694   1.706   2.103  0.1058  0.2212  0.8959
  105SOL    HW1  314   0.767   1.715   2.177 -1.8122 -0.8640 -1.6572
  105SOL    HW2  315   0.710   1.769   2.025 -2.4751 -1.5018  0.8671
  106SOL     OW  316   1.812   0.375   0.678  0.0754 -0.6552 -0.6336
  106SOL    HW1  317   1.745   0.445   0.703 -1.2349 -1.7774  3.4484
  106SOL    HW2  318   1.799   0.291   0.732  1.5802 -0.8477 -3.1844
  107SOL     OW  319   0.649   1.088   1.330 -0.3975  0.3797  0.3747
  107SOL    HW1  320   0.590   1.021   1.280 -1.1867 -1.7134 -0.8640
  107SOL    HW2  321   0.683   1.158   1.267 -0.5440  0.4964  2.1403
  108SOL     OW  322   2.786   0.888   2.169 -0.9093 -0.0968 -0.7371
  108SOL    HW1  323   2.821   0.837   2.089  0.5761  2.1103  2.0161
  108SOL    HW2  324   2.714   0.833   2.211  0.4540 -1.4325 -0.4693
  109SOL     OW  325   1.759   3.091   2.880  0.0436 -0.5203  0.5794
  109SOL    HW1  326   1.848   3.079   2.927 -1.3270  0.2248 -0.8500
  109SOL    HW2  327   1.707   3.010   2.871  3.6815  2.1869 -2.5741
  110SOL     OW  328   0.321   1.854   0.009  0.2428  0.6648 -0.0158
  110SOL    HW1  329   0.264   1.911   0.072 -0.2488  0.8500 -3.9094
  110SOL    HW2  330   0.385   1.916   3.059  0.0487  1.7297  0.4990
  111SOL     OW  331   2.634   0.533   2.197 -0.4607 -0.2901 -0.5800
  111SOL    HW1  332   2.560   0.464   2.207  0.9004 -0.4477  1.9364
  111SOL    HW2  333   2.719   0.477   2.175  1.7645 -3.1162 -1.9956
  112SOL     OW  334   2.453   2.616   1.434 -0.3794  0.4245 -0.9735
  112SOL    HW1  335   2.385   2.548   1.396  0.3732 -0.8103  1.7636
  112SOL    HW2  336   2.549   2.593   1.411  0.5241  3.4161  1.1423
  113SOL     OW  337   1.964   2.065   2.084 -0.2877  0.0053  0.0703
  113SOL    HW1  338   1.924   1.980   2.046 -0.2300 -1.3260 -0.9132
  113SOL    HW2  339   2.026   2.104   2.015  0.4807  0.3917  0.5234
  114SOL     OW  340   0.302   0.311   0.299  0.0409 -0.4415 -0.2958
  114SOL    HW1  341   0.246   0.298   0.382  2.5934 -1.1507 -0.3650
  114SOL    HW2  342   0.400   0.322   0.314 -3.1782 -0.5755 -1.5177
  115SOL     OW  343   2.784   1.681   0.082 -0.4117  0.2174 -0.8628
  115SOL    HW1  344   2.832   1.713   3.095 -1.6693 -1.7252 -2.0547
  115SOL    HW2  345   2.754   1.583   0.072 -0.1432 -2.0922  1.1555
  116SOL     OW  346   3.094   0.791   1.508 -0.2663  0.0060  0.2064
  116SOL    HW1  347   3.053   0.718   1.568 -1.9897  1.1076  0.0441
  116SOL    HW2  348   3.026   0.868   1.506  1.8484 -0.9987 -1.1748
  117SOL     OW  349   2.579   0.253   1.281  0.1047 -0.0127  0.1381
  117SOL    HW1  350   2.491   0.219   1.320  1.4456  2.1977  1.3219
  117SOL    HW2  351   2.624   0.301   1.359  2.3948 -1.3954  2.4653
  118SOL     OW  352   2.743   2.178   2.179 -0.1193  0.1573 -0.0883
  118SOL    HW1  353   2.741   2.280   2.188  0.2078  3.4822 -1.8601
  118SOL    HW2  354   2.711   2.161   2.084  0.5723  0.4527 -1.5858
  119SOL     OW  355   0.684   1.572   1.098 -0.3759  0.3791  0.2751
  119SOL    HW1  356   0.680   1.631   1.019 -0.2104 -0.2903 -0.1416
  119SOL    HW2  357   0.629   1.608   1.177 -0.3969 -0.2714  1.0826
  120SOL     OW  358   0.280   1.615   1.386  0.0752  0.2399 -0.5081
  120SOL    HW1  359   0.232   1.591   1.474 -3.8552 -0.9451  0.6439
  120SOL    HW2  360   0.213   1.611   1.306  1.6215 -1.5875 -1.6856
  121SOL     OW  361   1.763   1.422   1.047 -0.5909 -0.3898 -0.1649
  121SOL    HW1  362   1.796   1.449   1.138 -0.9790 -1.6515 -1.9096
  121SOL    HW2  363   1.835   1.359   1.006 -1.3859  0.3562  3.0825
  122SOL     OW  364   1.867   2.566   2.640  0.2142 -0.3567 -0.3135
  122SOL    HW1  365   1.873   2.512   2.730  2.0070  0.3623  0.8463
  122SOL    HW2  366   1.869   2.666   2.663 -1.8217 -0.1928 -0.0233
  123SOL     OW  367   2.993   0.061   0.232 -0.5416 -0.1948 -0.1375
  123SOL    HW1  368   3.089   0.058   0.257 -0.7363  1.1140 -0.7272
  123SOL    HW2  369   2.946   0.094   0.316  0.2587  0.4073  2.7446
  124SOL     OW  370   1.134   1.324   0.336  0.0573 -0.0403 -0.0085
  124SOL    HW1  371   1.047   1.335   0.390 -2.2500 -1.9394  0.9219
  124SOL    HW2  372   1.118   1.254   0.266  0.5754  1.9053  1.0970
  125SOL     OW  373   0.221   1.085   2.322 -0.0117 -0.3562 -0.2035
  125SOL    HW1  374   0.139   1.141   2.294 -0.8928  0.7115  2.1154
  125SOL    HW2  375   0.232   1.009   2.258  0.6112 -1.1570 -0.5526
  126SOL     OW  376   0.057   2.527   0.130 -0.5804 -0.5754 -0.2138
  126SOL    HW1  377   0.101   2.453   0.188 -1.4451 -0.0148  3.2769
  126SOL    HW2  378   0.014   2.600   0.185  3.0922 -2.0020  0.3092
  127SOL     OW  379   2.871   1.730   0.333  0.1626  0.2133  0.3941
  127SOL    HW1  380   2.809   1.671   0.390  0.2424 -1.4748 -0.6578
  127SOL    HW2  381   2.851   1.721   0.234  1.1099  0.1771 -0.0115
  128SOL     OW  382   1.326   0.832   0.838 -0.0018  0.3122 -0.0478
  128SOL    HW1  383   1.372   0.913   0.885  0.8261  2.6169  2.0584
  128SOL    HW2  384   1.267   0.870   0.764 -2.1356  0.8778 -1.8316
  129SOL     OW  385   2.793   2.025   0.953 -0.0161 -0.0816  0.2771
  129SOL    HW1  386   2.831   2.052   0.861  3.7490  1.1548 -1.7974
  129SOL    HW2  387   2.787   2.103   1.020  2.1332 -0.4228  1.9488
  130SOL     OW  388   1.955   1.133   0.703  0.5674 -0.1784 -0.3457
  130SOL    HW1  389   1.965   1.112   0.602 -1.2952  0.0556  0.3581
  130SOL    HW2  390   2.048   1.118   0.740 -0.4712  1.0616 -2.3837
  131SOL     OW  391   2.969   1.270   2.396  0.6717  0.1627  0.1882
  131SOL    HW1  392   2.898   1.340   2.366  1.6940 -2.8522 -1.8683
  131SOL    HW2  393   2.948   1.179   2.347  0.9536 -0.3352 -3.4300
  132SOL     OW  394   1.332   1.409   2.267  0.1756 -0.8291 -0.1494
  132SOL    HW1  395   1.251   1.347   2.255  1.4160 -3.2034 -2.0446
  132SOL    HW2  396   1.385   1.381   2.349 -2.2033  1.5846  2.6969
  133SOL     OW  397   0.264   1.336   0.424  0.1981  0.2646 -0.2734
  133SOL    HW1  398   0.259   1.406   0.348 -1.6128  1.5569 -2.1181
  133SOL    HW2  399   0.303   1.250   0.395 -2.0770  0.4613 -0.3922
  134SOL     OW  400   2.715   0.843   0.215  0.4961  0.9849 -0.5016
  134SOL    HW1  401   2.668   0.755   0.185 -2.8068  0.5109  0.0717
  134SOL    HW2  402   2.727   0.904   0.132  0.2351  1.8879 -2.1712
  135SOL     OW  403   1.608   0.924   3.090  0.6336  0.0864 -0.1643
  135SOL    HW1  404   1.525   0.915   3.032  0.7285 -0.5365  1.1854
  135SOL    HW2  405   1.683   0.964   3.034  1.3430 -0.9453 -1.5542
  136SOL     OW  406   1.825   1.651   1.795 -0.3054 -0.1217 -0.0762
  136SOL    HW1  407   1.770   1.651   1.706 -0.5330 -2.2398 -0.2856
  136SOL    HW2  408   1.924   1.635   1.776  3.5427  0.0173  0.0911
  137SOL     OW  409   2.405   2.306   0.701 -0.1648 -0.6884  0.2139
  137SOL    HW1  410   2.494   2.327   0.656  0.0404  2.3980 -1.1417
  137SOL    HW2  411   2.342   2.380   0.697  1.5772 -1.6682  2.4987
  138SOL     OW  412   2.370   0.567   1.464  0.1789 -0.0681  0.2646
  138SOL    HW1  413   2.296   0.608   1.523  0.2010 -1.1317  0.9999
  138SOL    HW2  414   2.333   0.538   1.376  1.4098  2.0779  0.4223
  139SOL     OW  415   2.489   2.739   2.840  0.2433  0.0703  0.1062
  139SOL    HW1  416   2.569   2.677   2.853 -1.3176  2.1491 -1.2923
  139SOL    HW2  417   2.431   2.714   2.763  0.5474  0.3129  0.5473
  140SOL     OW  418   1.449   1.987   2.457 -0.6511  0.4282  0.2097
  140SOL    HW1  419   1.495   1.912   2.401 -0.7847 -0.2906 -1.4154
  140SOL    HW2  420   1.358   1.967   2.487  1.9309  0.2304 -1.5920
  141SOL     OW  421   0.792   1.164   2.378  0.0088 -0.7039 -0.8647
  141SOL    HW1  422   0.787   1.257   2.418 -0.8918  0.3145 -0.3419
  141SOL    HW2  423   0.769   1.164   2.275 -0.4824 -0.3342 -0.5442
  142SOL     OW  424   2.574   2.660   1.965  0.7763 -0.5108 -0.1590
  142SOL    HW1  425   2.669   2.684   1.994 -1.0226  1.5646 -0.2661
  142SOL    HW2  426   2.513   2.700   2.038  1.7301  0.1147 -1.9094
  143SOL     OW  427   1.223   2.233   0.315  0.3096 -0.4377 -0.4550
  143SOL    HW1  428   1.302   2.258   0.379  1.1876 -0.6343  0.7617
  143SOL    HW2  429   1.132   2.259   0.354  0.2584 -3.2160 -0.2504
  144SOL     OW  430   1.175   2.443   0.572  0.9242 -1.0088  0.3107
  144SOL    HW1  431   1.240   2.512   0.533  0.6902  0.4757 -2.4665
  144SOL    HW2  432   1.212   2.379   0.642  0.3964  1.9442 -1.2682
  145SOL     OW  433   1.490   2.699   2.453 -0.6303 -0.2940 -0.0551
  145SOL    HW1  434   1.539   2.616   2.485  1.5232 -0.7421  0.7691
  145SOL    HW2  435   1.465   2.686   2.354 -0.3688 -1.9442 -1.0380
  146SOL     OW  436   2.004   3.067   3.004 -0.2049  0.0834 -0.1387
  146SOL    HW1  437   2.051   0.061   3.025 -1.1107 -0.6939  0.0700
  146SOL    HW2  438   1.956   3.033   3.086  0.0826 -1.9773  1.1653
  147SOL     OW  439   2.777   1.510   1.120  0.0617  0.0524  0.2718
  147SOL    HW1  440   2.791   1.468   1.027 -0.8034 -3.5775 -0.5139
  147SOL    HW2  441   2.772   1.610   1.113 -0.1631 -1.1108  0.3324
  148SOL     OW  442   2.135   2.822   0.109 -0.5963  0.2520  0.4234
  148SOL    HW1  443   2.212   2.879   0.142 -1.9426  1.5104  1.4710
  148SOL    HW2  444   2.162   2.785   0.018 -2.3772  1.9833  0.2527
  149SOL     OW  445   0.670   1.796   2.878  0.2499  0.2396  0.6113
  149SOL    HW1  446   0.693   1.696   2.870  0.3361 -1.0789  0.4290
  149SOL    HW2  447   0.597   1.815   2.808  0.7955 -0.0256 -0.7259
  150SOL     OW  448   0.474   2.675   0.966  0.1681  0.0987  0.1557
  150SOL    HW1  449   0.527   2.689   1.051  0.1646  0.5852  0.4492
  150SOL    HW2  450   0.421   2.759   0.953  1.1810  1.2380  0.5138
  151SOL     OW  451   0.069   1.036   3.050  0.2122 -0.3112 -0.3935
  151SOL    HW1  452   0.159   1.011   3.088 -2.7908  0.0436 -0.5837
  151SOL    HW2  453   0.073   1.020   2.951  2.9008  0.5510  1.1659
  152SOL     OW  454   2.874   2.107   0.705 -0.5461 -0.4929  0.2237
  152SOL    HW1  455   2.942   2.172   0.676 -2.4045 -0.0764 -0.3266
  152SOL    HW2  456   2.800   2.092   0.637  2.6646 -0.8773  3.7645
  153SOL     OW  457   1.606   2.347   1.006 -0.0337 -0.2973  0.8426
  153SOL    HW1  458   1.692   2.333   1.063  1.4002  0.1152 -1.3631
  153SOL    HW2  459   1.604   2.270   0.936 -0.7285 -0.2547 -0.9132
  154SOL     OW  460   0.578   2.744   1.209 -0.1097  0.3741  0.5251
  154SOL    HW1  461   0.537   2.837   1.225  1.7904 -1.8979  0.8386
  154SOL    HW2  462   0.668   2.733   1.250 -3.1836  1.5266 -0.0928
  155SOL     OW  463   2.734   2.027   0.491  0.2290  0.7018  0.0565
  155SOL    HW1  464   2.815   2.011   0.434 -2.6696  0.7822  2.8535
  155SOL    HW2  465   2.655   2.045   0.427 -0.4830 -2.1373 -0.8644
  156SOL     OW  466   2.546   2.086   0.288 -0.0048  0.1744 -0.3686
  156SOL    HW1  467   2.616   2.145   0.247 -1.4775 -0.0002 -2.0899
  156SOL    HW2  468   2.546   1.998   0.233 -1.6827  1.2339 -1.5756
  157SOL     OW  469   0.366   2.451   1.736  0.0856  0.0334 -0.8357
  157SOL    HW1  470   0.286   2.390   1.730  0.2161 -0.2894  0.2643
  157SOL    HW2  471   0.421   2.436   1.823  1.8967 -0.0214  1.8081
  158SOL     OW  472   1.391   0.355   0.917 -0.7095  0.6777 -0.5485
  158SOL    HW1  473   1.300   0.308   0.916 -1.6129  1.3343 -0.7144
  158SOL    HW2  474   1.436   0.353   1.009 -1.8007  1.9374  0.1552
  159SOL     OW  475   1.811   0.866   0.189  0.2445 -0.0755 -0.0729
  159SOL    HW1  476   1.796   0.792   0.260  2.2631  1.4372  0.3168
  159SOL    HW2  477   1.723   0.912   0.171  1.2875 -3.1080 -0.0560
  160SOL     OW  478   1.113   1.767   0.297 -0.0309  0.0786 -0.8323
  160SOL    HW1  479   1.110   1.860   0.251 -0.4006  1.9265 -2.0302
  160SOL    HW2  480   1.029   1.719   0.262 -0.2319  0.8205  0.3806
  161SOL     OW  481   2.807   2.307   2.689 -0.0862  0.0489  0.0851
  161SOL    HW1  482   2.711   2.268   2.703  1.0656 -0.7114 -0.2720
  161SOL    HW2  483   2.878   2.250   2.737 -1.0659 -2.6499  1.3663
  162SOL     OW  484   0.271   2.137   1.265  0.5051  0.0807  0.2361
  162SOL    HW1  485   0.206   2.197   1.314  0.7316  1.7300  1.9028
  162SOL    HW2  486   0.366   2.141   1.300 -2.8797  2.1662  2.5143
  163SOL     OW  487   0.228   0.301   2.941  0.7250  0.5080  0.0417
  163SOL    HW1  488   0.291   0.241   2.885  0.4419 -2.4398 -1.9857
  163SOL    HW2  489   0.141   0.313   2.893  2.3197 -0.0086 -0.4645
  164SOL     OW  490   0.252   2.753   2.417  0.8400  0.8486 -0.3436
  164SOL    HW1  491   0.314   2.817   2.468 -1.4879 -2.1253  1.3689
  164SOL    HW2  492   0.248   2.665   2.465  2.5372  1.5091 -0.8177
  165SOL     OW  493   2.720   0.765   1.672  0.0830  0.2139 -0.4991
  165SOL    HW1  494   2.668   0.849   1.692  0.5620 -2.0557  0.2571
  165SOL    HW2  495   2.743   0.699   1.748  0.6469 -2.6273 -0.1575
  166SOL     OW  496   1.925   1.903   1.490 -0.1083 -0.2732  0.3300
  166SOL    HW1  497   2.020   1.872   1.489  1.6354 -0.7458 -1.2152
  166SOL    HW2  498   1.864   1.822   1.506 -0.1733 -0.1808 -0.9309
  167SOL     OW  499   0.454   0.626   2.387 -0.1099 -0.7446  0.1459
  167SOL    HW1  500   0.456   0.601   2.287  0.4805  0.1219 -2.5741
  167SOL    HW2  501   0.419   0.728   2.390 -1.6903  2.3151 -2.6582
  168SOL     OW  502   2.129   0.278   2.252  0.1096  0.5780 -0.4547
  168SOL    HW1  503   2.169   0.233   2.331 -0.4089  0.2972 -0.1856
  168SOL    HW2  504   2.029   0.263   2.249  0.6613 -1.0992  0.1978
  169SOL     OW  505   0.309   0.916   0.053  0.4775  0.2712 -0.2624
  169SOL    HW1  506   0.375   0.979   0.095 -0.9977  1.3740  1.0301
  169SOL    HW2  507   0.358   0.846   3.093 -0.5096 -1.5133  0.3646
  170SOL     OW  508   0.878   1.401   1.563  0.1465 -0.0990 -0.0846
  170SOL    HW1  509   0.916   1.421   1.657 -0.1361  0.5616 -2.2171
  170SOL    HW2  510   0.797   1.454   1.538  2.5932 -0.4967 -1.9527
  171SOL     OW  511   1.103   2.551   1.959 -0.3558 -0.2082  0.1476
  171SOL    HW1  512   1.107   2.645   1.914  1.7481 -1.6897  1.2766
  171SOL    HW2  513   1.181   2.488   1.923  1.7881 -0.5361  0.3867
  172SOL     OW  514   1.167   0.098   2.012  0.1947  0.2865  0.1725
  172SOL    HW1  515   1.231   0.045   2.070 -3.3235  3.8324  0.1456
  172SOL    HW2  516   1.087   0.132   2.065 -0.1373 -0.9561  1.0553
  173SOL     OW  517   1.375   2.295   0.782  0.4353 -0.8207  0.0633
  173SOL    HW1  518   1.324   2.290   0.870  0.7981  1.4831 -2.0769
  173SOL    HW2  519   1.365   2.212   0.718 -2.3077  0.0984 -1.9627
  174SOL     OW  520   2.150   2.992   0.487  0.0163 -0.7927  0.0512
  174SOL    HW1  521   2.094   2.937   0.548  1.5028  2.4711 -0.5500
  174SOL    HW2  522   2.112   3.078   0.445 -1.5017  1.2291 -0.3848
  175SOL     OW  523   1.292   1.212   0.569  0.2435  0.1166  0.1465
  175SOL    HW1  524   1.247   1.283   0.634 -1.4112  0.6232  0.4184
  175SOL    HW2  525   1.235   1.213   0.484 -1.5587 -1.1190 -1.2229
  176SOL     OW  526   0.642   1.558   0.499 -1.0356  0.6947  0.6085
  176SOL    HW1  527   0.704   1.577   0.580 -0.2696 -0.0490  1.2348
  176SOL    HW2  528   0.622   1.462   0.480  0.4747  0.2997  1.2817
  177SOL     OW  529   1.263   1.127   0.876  0.2464 -0.2071 -0.0130
  177SOL    HW1  530   1.259   1.226   0.836  0.1761  0.6051 -1.8705
  177SOL    HW2  531   1.355   1.099   0.914  2.7628  2.3946  0.9424
  178SOL     OW  532   2.428   1.743   0.304 -0.3165  0.2143 -0.4348
  178SOL    HW1  533   2.358   1.782   0.367 -1.2660  1.0858  2.2620
  178SOL    HW2  534   2.436   1.642   0.317  1.6997 -0.1067 -0.8986
  179SOL     OW  535   1.323   2.849   0.149 -0.2460 -0.2712 -0.0187
  179SOL    HW1  536   1.259   2.889   0.219 -4.8545  1.3739  2.0234
  179SOL    HW2  537   1.363   2.761   0.180  3.1374  0.7922 -1.7580
  180SOL     OW  538   1.978   1.332   1.683  0.2982  0.2931  0.6321
  180SOL    HW1  539   1.934   1.336   1.773  1.7341  1.5717 -0.8904
  180SOL    HW2  540   1.990   1.431   1.652  0.3841  0.8435  1.6676
  181SOL     OW  541   1.172   0.724   1.981  0.4970  0.1714  0.2180
  181SOL    HW1  542   1.223   0.737   2.068  0.3213 -0.7384  1.2980
  181SOL    HW2  543   1.205   0.642   1.931  1.3734 -0.8168  0.6431
  182SOL     OW  544   0.080   1.349   2.225 -0.6523 -0.2587 -0.3673
  182SOL    HW1  545   0.016   1.326   2.300  0.7486 -0.7889  0.0164
  182SOL    HW2  546   0.040   1.330   2.133 -0.7654  3.5651  1.1133
  183SOL     OW  547   1.465   0.678   2.383 -0.3186  0.2669 -0.4567
  183SOL    HW1  548   1.557   0.626   2.396  7.4914  0.0668 -3.1791
  183SOL    HW2  549   1.396   0.653   2.454  0.1944  1.3126 -0.1642
  184SOL     OW  550   0.723   0.662   1.306  0.4537  0.1651 -0.3733
  184SOL    HW1  551   0.781   0.734   1.354  0.5390  0.7561  1.7540
  184SOL    HW2  552   0.743   0.569   1.347 -3.1021 -1.8813  1.2461
  185SOL     OW  553   2.235   1.738   0.768 -0.1171  0.6919  0.5475
  185SOL    HW1  554   2.295   1.700   0.686  0.3115 -1.5986 -1.0846
  185SOL    HW2  555   2.164   1.673   0.799  0.2860 -3.0868  0.2951
  186SOL     OW  556   0.183   2.022   0.163 -0.1594  0.8720  0.2090
  186SOL    HW1  557   0.192   2.120   0.182 -0.9419 -0.7341 -0.7287
  186SOL    HW2  558   0.219   1.972   0.243 -2.1090 -1.3431  1.9165
  187SOL     OW  559   2.117   2.146   3.038 -0.2464  0.4440  0.1617
  187SOL    HW1  560   2.038   2.192   3.081 -0.5501  1.7669  0.1533
  187SOL    HW2  561   2.187   2.129   0.017 -0.2936 -0.1360  1.4463
  188SOL     OW  562   1.067   2.110   1.181 -0.0260 -0.2488 -0.2813
  188SOL    HW1  563   0.981   2.156   1.170  1.8537 -2.1485  3.2813
  188SOL    HW2  564   1.068   2.016   1.143  0.0564 -1.3428  0.1497
  189SOL     OW  565   2.025   1.491   2.560 -0.3252  0.0650 -0.8535
  189SOL    HW1  566   1.928   1.525   2.547  0.4993  2.7670  0.7038
  189SOL    HW2  567   2.082   1.576   2.580  0.8559 -0.0167  1.4650
  190SOL     OW  568   0.866   2.442   2.380 -0.3819 -0.3775 -0.0875
  190SOL    HW1  569   0.947   2.474   2.321 -0.9094 -0.6626 -0.4784
  190SOL    HW2  570   0.796   2.517   2.383 -1.7634  3.1041 -1.4644
  191SOL     OW  571   2.492   1.033   1.100 -0.0750 -0.0139  0.7940
  191SOL    HW1  572   2.575   1.005   1.159  1.3174  1.2609  1.8208
  191SOL    HW2  573   2.498   0.976   1.011 -1.3533  0.7433 -2.3302
  192SOL     OW  574   2.637   0.667   1.459 -0.2210  0.2011  0.2618
  192SOL    HW1  575   2.537   0.651   1.459 -1.1922 -2.1722  0.6886
  192SOL    HW2  576   2.669   0.707   1.547 -1.0470  0.6749 -2.9718
  193SOL     OW  577   0.725   0.411   0.195 -0.2945  0.7277 -0.9925
  193SOL    HW1  578   0.789   0.366   0.125  1.4494 -4.1539 -5.0436
  193SOL    HW2  579   0.662   0.475   0.145 -1.3763  1.4188  0.8265
  194SOL     OW  580   1.058   2.334   1.515 -0.6614  0.7971 -0.2878
  194SOL    HW1  581   1.077   2.237   1.542  1.5796  0.4265 -0.4456
  194SOL    HW2  582   1.145   2.386   1.492 -0.6732  2.4355 -1.1071
  195SOL     OW  583   2.536   1.240   0.122  0.1431 -0.8092 -0.4483
  195SOL    HW1  584   2.492   1.183   0.195 -1.7247 -4.0824  0.9144
  195SOL    HW2  585   2.516   1.221   0.025  1.7386 -1.3180  0.1604
  196SOL     OW  586   0.581   2.380   1.559 -0.1432 -0.2148  0.2091
  196SOL    HW1  587   0.574   2.388   1.459 -0.1503 -0.4405  2.1656
  196SOL    HW2  588   0.495   2.420   1.604 -2.0891 -0.7378 -0.2465
  197SOL     OW  589   0.034   0.686   2.221 -0.3398  0.2553 -0.4157
  197SOL    HW1  590   0.069   0.603   2.168  1.2882  0.1716 -0.4919
  197SOL    HW2  591   3.087   0.650   2.306 -0.2168 -3.2101  1.5938
  198SOL     OW  592   1.889   1.002   0.428  0.6402  0.2229  0.3578
  198SOL    HW1  593   1.842   0.947   0.354  0.3955 -0.6806 -1.0454
  198SOL    HW2  594   1.947   1.080   0.392 -0.6847 -0.6068 -0.0060
  199SOL     OW  595   2.703   0.385   1.478  0.5412 -0.0064  0.3761
  199SOL    HW1  596   2.673   0.364   1.576 -1.6339  1.6540  2.2729
  199SOL    HW2  597   2.688   0.488   1.456 -0.8656  1.7662  0.6456
  200SOL     OW  598   2.176   0.201   2.899 -0.0772 -0.3268  0.0047
  200SOL    HW1  599   2.207   0.144   2.816 -1.4108  1.6116 -2.2548
  200SOL    HW2  600   2.119   0.279   2.868 -1.5861 -0.2490 -0.0927
  201SOL     OW  601   2.541   0.174   1.000 -0.1575  0.0953  0.1640
  201SOL    HW1  602   2.533   0.212   1.094  0.3584  0.2284 -1.2163
  201SOL    HW2  603   2.559   0.245   0.935  0.1881 -0.6121  2.4884
  202SOL     OW  604   3.042   2.741   0.246  0.3177  0.1101  0.2035
  202SOL    HW1  605   3.074   2.782   0.332 -1.3748  0.0837 -0.3428
  202SOL    HW2  606   2.998   2.812   0.183 -1.2124  0.0978 -0.9867
  203SOL     OW  607   1.365   1.695   0.002 -0.0672  0.0829 -0.6808
  203SOL    HW1  608   1.362   1.635   0.085 -1.2978 -1.7114  1.1688
  203SOL    HW2  609   1.449   1.678   3.050  0.3715  1.7309 -0.4206
  204SOL     OW  610   0.337   2.080   2.258  0.4189 -0.1142  0.4932
  204SOL    HW1  611   0.378   2.069   2.166 -1.8865  1.8214  0.1435
  204SOL    HW2  612   0.312   1.990   2.300  1.6368 -1.0682  2.3906
  205SOL     OW  613   0.960   0.525   0.858  0.3489  0.1442 -0.0897
  205SOL    HW1  614   0.957   0.492   0.958  0.7232  0.7411 -2.0785
  205SOL    HW2  615   1.057   0.522   0.831 -0.7828  2.4773  0.5567
  206SOL     OW  616   0.403   0.638   2.772  0.3050 -0.0363  0.0903
  206SOL    HW1  617   0.350   0.726   2.762  0.5277  0.8189 -0.5038
  206SOL    HW2  618   0.360   0.566   2.715 -0.3985 -0.3088 -0.8646
  207SOL     OW  619   1.421   2.381   1.725 -0.1526  0.3277 -0.4855
  207SOL    HW1  620   1.497   2.448   1.735  0.5148 -2.3141  1.3061
  207SOL    HW2  621   1.387   2.361   1.817 -0.6249  1.5174  1.6749
  208SOL     OW  622   0.075   2.870   0.998  0.3223  0.3087 -0.2525
  208SOL    HW1  623   0.175   2.873   1.000  0.8748 -1.4055  0.2014
  208SOL    HW2  624   0.032   2.962   0.988 -0.3132 -1.3799 -0.5206
  209SOL     OW  625   1.679   1.072   0.589  0.2670 -0.0292  0.4490
  209SOL    HW1  626   1.706   1.061   0.686 -1.5623  1.2129 -1.4164
  209SOL    HW2  627   1.760   1.050   0.533  0.1096  1.0906 -0.3845
  210SOL     OW  628   2.591   0.883   0.470  0.3933  0.7553 -0.1428
  210SOL    HW1  629   2.657   0.919   0.540  1.2691 -0.3288  0.8308
  210SOL    HW2  630   2.649   0.872   0.388 -0.7646 -1.1031  0.4499
  211SOL     OW  631   1.456   0.231   0.239  0.2600 -0.1967 -0.1078
  211SOL    HW1  632   1.360   0.194   0.225 -0.0208 -2.0196 -1.3699
  211SOL    HW2  633   1.526   0.156   0.221 -1.5118  0.5911  0.7645
  212SOL     OW  634   1.808   2.077   0.497 -0.1170  0.8496  0.1208
  212SOL    HW1  635   1.851   2.140   0.559  0.7142  1.0157 -0.5187
  212SOL    HW2  636   1.752   2.122   0.419 -0.2859  0.1493 -0.6220
  213SOL     OW  637   2.305   0.102   2.663  0.5117  0.3328  0.3607
  213SOL    HW1  638   2.368   0.035   2.705  0.6455  2.4334 -1.4170
  213SOL    HW2  639   2.349   0.189   2.649 -1.7731  0.8548  2.1523
  214SOL     OW  640   0.993   1.991   2.227 -0.8035 -0.0423  0.2692
  214SOL    HW1  641   1.055   2.027   2.152 -1.9530  2.8125 -1.1625
  214SOL    HW2  642   0.922   2.060   2.255 -0.0988  0.3049  0.7353
  215SOL     OW  643   0.357   1.368   1.138  0.2914 -0.2852 -0.0519
  215SOL    HW1  644   0.296   1.451   1.140 -0.4631  0.6226 -1.0648
  215SOL    HW2  645   0.349   1.313   1.220 -1.4694  0.3901 -2.0015
  216SOL     OW  646   0.202   2.151   2.822  0.7671  0.0656 -0.0597
  216SOL    HW1  647   0.113   2.163   2.873 -1.9045  0.2366  0.7562
  216SOL    HW2  648   0.281   2.205   2.853  0.5896 -2.5194 -1.5944
  217SOL     OW  649   2.628   1.203   1.405 -0.1508 -0.1684  0.0931
  217SOL    HW1  650   2.635   1.182   1.302  0.1472 -3.3936 -1.2152
  217SOL    HW2  651   2.596   1.127   1.458  1.9501 -1.6042 -3.0828
  218SOL     OW  652   0.703   2.336   2.110 -0.0639 -0.2380  0.1023
  218SOL    HW1  653   0.777   2.380   2.054 -1.3127  2.2383 -2.5537
  218SOL    HW2  654   0.734   2.273   2.179 -1.4351  2.7152  0.4844
  219SOL     OW  655   1.968   1.495   0.294  0.6179 -0.3139 -0.1233
  219SOL    HW1  656   2.054   1.520   0.241 -0.9431 -1.8265  0.9485
  219SOL    HW2  657   1.971   1.550   0.378  1.2065  0.2994 -2.0096
  220SOL     OW  658   1.937   0.772   0.599  0.4751 -0.3444 -0.4044
  220SOL    HW1  659   1.901   0.843   0.533 -1.6507  0.8873  0.1260
  220SOL    HW2  660   1.863   0.716   0.633  2.1973  0.7235 -1.6462
  221SOL     OW  661   2.652   0.562   0.146  0.7827 -0.6829  0.1698
  221SOL    HW1  662   2.593   0.548   0.231 -5.0325 -0.9205  1.2353
  221SOL    HW2  663   2.750   0.539   0.157 -1.3555  0.1276  1.5867
  222SOL     OW  664   1.560   1.312   0.647  0.1167  0.0319  0.1937
  222SOL    HW1  665   1.614   1.239   0.606 -0.4703  0.8425 -0.3003
  222SOL    HW2  666   1.459   1.291   0.635 -1.1625  1.3913  1.3861
  223SOL     OW  667   1.131   3.068   2.992 -0.7744  0.7503 -0.0475
  223SOL    HW1  668   1.182   0.048   2.958 -1.7570 -1.9490  1.4887
  223SOL    HW2  669   1.172   2.979   2.977 -1.0672  3.0070 -2.2031
  224SOL     OW  670   1.066   2.834   1.361 -0.3791  0.0459 -0.1334
  224SOL    HW1  671   1.065   2.902   1.283  0.2965  0.2658 -1.6654
  224SOL    HW2  672   1.067   2.876   1.455  1.7009  1.1114  0.4893
  225SOL     OW  673   0.451   2.700   1.942 -0.3099  0.4907 -0.2294
  225SOL    HW1  674   0.390   2.737   2.020 -0.6972  0.5684  1.6244
  225SOL    HW2  675   0.457   2.597   1.942  1.9481 -0.8129 -1.2749
  226SOL     OW  676   1.491   1.272   0.212 -0.2655  0.1326  0.4405
  226SOL    HW1  677   1.510   1.210   0.291  0.3813  1.7990 -0.7137
  226SOL    HW2  678   1.444   1.358   0.235  2.1841 -2.2346  0.7175
  227SOL     OW  679   0.262   1.552   0.603 -0.1621 -0.5003  0.0743
  227SOL    HW1  680   0.328   1.630   0.593  0.4069  0.1575  2.0033
  227SOL    HW2  681   0.285   1.476   0.534  0.3212 -3.3047 -1.3798
  228SOL     OW  682   0.012   1.843   0.785  0.0479  0.3561  0.7397
  228SOL    HW1  683   3.018   1.837   0.738 -0.5513 -0.3179 -2.5995
  228SOL    HW2  684   0.044   1.939   0.793 -0.1112  1.9396  1.3249
  229SOL     OW  685   2.727   0.062   2.991  0.0060  0.0241  0.3131
  229SOL    HW1  686   2.751   0.141   3.052  0.0482  1.0486  0.6251
  229SOL    HW2  687   2.810   0.015   2.953 -2.2732  1.5113  1.5972
  230SOL     OW  688   2.234   1.125   0.745  0.2534  0.3067  0.2359
  230SOL    HW1  689   2.274   1.207   0.700  2.2529  1.7394  1.5677
  230SOL    HW2  690   2.230   1.132   0.846 -1.2480  1.4555 -1.2081
  231SOL     OW  691   1.700   1.377   2.842  0.1833  0.2450  0.2229
  231SOL    HW1  692   1.655   1.466   2.848  1.0103 -4.0812 -2.4926
  231SOL    HW2  693   1.719   1.343   2.936  4.9450  1.5022  1.8952
  232SOL     OW  694   2.134   1.978   0.799 -0.3960 -0.4915 -0.2310
  232SOL    HW1  695   2.192   1.897   0.800  0.3997 -0.3269 -0.9577
  232SOL    HW2  696   2.175   2.060   0.846 -2.5146  1.0293  1.0915
  233SOL     OW  697   0.337   2.909   0.990  0.5518 -0.3961  0.0110
  233SOL    HW1  698   0.362   2.939   1.083 -1.2743 -0.3893 -1.9585
  233SOL    HW2  699   0.345   2.983   0.921  0.7884  0.0821 -0.5801
  234SOL     OW  700   0.868   0.216   2.758 -0.3392  0.6553  0.4890
  234SOL    HW1  701   0.954   0.165   2.746 -1.5449  1.0732 -1.9197
  234SOL    HW2  702   0.863   0.235   2.857  1.6756 -0.8419 -0.3306
  235SOL     OW  703   2.980   1.061   2.228 -0.3587 -0.4326  0.0014
  235SOL    HW1  704   2.914   0.986   2.202 -1.2362 -1.6821 -1.6834
  235SOL    HW2  705   3.024   1.103   2.149  0.0462 -1.0719 -2.0089
  236SOL     OW  706   1.535   3.020   1.719 -0.5834 -0.1931 -0.3485
  236SOL    HW1  707   1.444   3.066   1.735 -1.1240  1.8330 -1.4210
  236SOL    HW2  708   1.524   2.935   1.668 -0.3396  0.6387  0.3683
  237SOL     OW  709   0.726   1.405   2.496  0.1758  0.3291  0.1538
  237SOL    HW1  710   0.647   1.411   2.430 -1.8525  0.7219 -0.0821
  237SOL    HW2  711   0.765   1.495   2.517  1.3840 -1.4712 -2.2053
  238SOL     OW  712   1.078   0.533   2.580  0.0426  0.2715  0.1145
  238SOL    HW1  713   1.061   0.624   2.531 -0.5850 -2.1130 -3.9693
  238SOL    HW2  714   0.993   0.482   2.585 -2.4527  0.0049 -0.3263
  239SOL     OW  715   0.103   2.224   2.012 -0.5657 -0.1152 -0.2388
  239SOL    HW1  716   0.103   2.123   2.007 -2.4781  0.2213  0.1804
  239SOL    HW2  717   0.127   2.251   2.104  1.0525  0.8667  1.4490
  240SOL     OW  718   2.331   0.010   0.667 -0.3467 -1.0461  0.0541
  240SOL    HW1  719   2.274   0.035   0.750 -2.1729  0.8887 -0.5502
  240SOL    HW2  720   2.266   3.065   0.597 -2.3916 -1.0844 -2.4490
  241SOL     OW  721   0.123   0.765   0.158  0.0233  0.2644  0.0399
  241SOL    HW1  722   0.075   0.693   0.104  0.3026  0.9251 -1.3225
  241SOL    HW2  723   0.199   0.807   0.105 -0.8326 -0.7882 -0.8541
  242SOL     OW  724   1.645   2.527   1.792 -0.4421 -0.2154  0.1344
  242SOL    HW1  725   1.722   2.465   1.817 -0.5164 -1.8451 -0.3398
  242SOL    HW2  726   1.630   2.593   1.866 -0.2909 -2.6359  1.0701
  243SOL     OW  727   0.455   2.433   1.986  0.0967 -0.1064  0.7796
  243SOL    HW1  728   0.544   2.390   2.008 -0.5324 -1.0161 -1.3306
  243SOL    HW2  729   0.377   2.381   2.025 -0.1998 -1.3853 -2.5734
  244SOL     OW  730   2.445   0.327   2.183 -0.4538  0.2681 -0.3623
  244SOL    HW1  731   2.464   0.287   2.276  0.5374 -0.9382  2.8571
  244SOL    HW2  732   2.344   0.333   2.180  1.3313 -0.1148  0.1606
  245SOL     OW  733   1.443   2.988   1.103 -0.2330 -0.3217  0.1771
  245SOL    HW1  734   1.403   3.062   1.158  0.0328 -0.5589 -1.2937
  245SOL    HW2  735   1.441   3.015   0.999  0.4556  1.2217 -3.0438
  246SOL     OW  736   1.603   2.838   0.476 -0.0085 -0.2557  0.2008
  246SOL    HW1  737   1.582   2.772   0.401 -0.7941 -0.5579 -1.8272
  246SOL    HW2  738   1.558   2.819   0.561  1.0723  0.0982  1.3135
  247SOL     OW  739   1.501   0.583   2.047 -0.0434 -0.0907  0.2686
  247SOL    HW1  740   1.450   0.558   2.134 -2.7880  0.8456 -1.5627
  247SOL    HW2  741   1.598   0.555   2.043  2.0894  0.8170  0.1405
  248SOL     OW  742   0.009   2.055   1.613  0.0048 -0.2639  0.4558
  248SOL    HW1  743   0.081   1.984   1.635  0.6364  1.6858 -1.6751
  248SOL    HW2  744   3.022   2.030   1.657  1.6546 -1.3259 -3.3798
  249SOL     OW  745   2.907   0.500   0.149  0.2892 -0.4567  0.0237
  249SOL    HW1  746   2.942   0.530   0.238 -0.4840  2.2280 -1.8981
  249SOL    HW2  747   2.974   0.510   0.068 -0.4086 -0.8896 -0.7440
  250SOL     OW  748   2.663   0.046   2.534 -0.1010  0.2755 -0.4002
  250SOL    HW1  749   2.765   0.056   2.554  1.9332  1.0645  0.2867
  250SOL    HW2  750   2.614   0.018   2.624 -1.9537 -0.1342  1.5193
  251SOL     OW  751   1.523   0.699   0.167 -0.4288  0.1631  0.7438
  251SOL    HW1  752   1.536   0.741   0.073  1.9619  1.0252  1.0089
  251SOL    HW2  753   1.605   0.721   0.220  1.4980  3.0390 -2.1723
  252SOL     OW  754   1.307   2.344   1.975  0.4642  0.3344 -0.0382
  252SOL    HW1  755   1.270   2.257   2.012  0.9529 -0.5691  0.8207
  252SOL    HW2  756   1.341   2.411   2.044 -0.4448  3.0482  0.0381
  253SOL     OW  757   2.233   2.520   1.015  0.5644  0.2775  0.4283
  253SOL    HW1  758   2.214   2.427   0.973  0.2021 -1.8781 -2.2072
  253SOL    HW2  759   2.252   2.600   0.954  2.0365  2.9077 -2.4235
  254SOL     OW  760   2.387   1.358   0.707 -0.8477  0.2288  0.0064
  254SOL    HW1  761   2.330   1.428   0.658 -0.2788  0.5915  0.1898
  254SOL    HW2  762   2.416   1.401   0.796  1.1465 -1.9793  0.1477
  255SOL     OW  763   0.835   2.674   1.345 -0.2139  0.0556  0.4238
  255SOL    HW1  764   0.922   2.731   1.344 -2.2847  0.7710  2.0346
  255SOL    HW2  765   0.848   2.584   1.301  2.3890  2.1640  0.3554
  256SOL     OW  766   1.813   2.091   1.679  0.1858  0.3207 -0.5752
  256SOL    HW1  767   1.858   2.016   1.629  0.6892  1.8693 -0.4887
  256SOL    HW2  768   1.730   2.116   1.629  0.2815 -0.9506  1.5134
  257SOL     OW  769   0.513   2.435   2.407 -0.4316 -0.1650  0.0023
  257SOL    HW1  770   0.497   2.449   2.506  0.4823  5.2906  2.8357
  257SOL    HW2  771   0.578   2.504   2.366  0.0640 -0.9390 -0.7495
  258SOL     OW  772   0.759   2.690   0.777  0.2140 -0.4279 -0.4230
  258SOL    HW1  773   0.802   2.715   0.867 -1.2620  0.7453 -1.6948
  258SOL    HW2  774   0.707   2.764   0.737 -2.0133 -2.7873  2.5549
  259SOL     OW  775   1.529   0.591   2.910 -0.0566  0.2686  0.1517
  259SOL    HW1  776   1.539   0.503   2.962  0.1217  0.3094  0.0883
  259SOL    HW2  777   1.434   0.609   2.884  3.8568  1.4290 -0.9188
  260SOL     OW  778   2.979   1.079   1.126  0.5078 -0.0119  0.9463
  260SOL    HW1  779   2.980   1.172   1.092  0.5996 -1.3154 -0.2403
  260SOL    HW2  780   3.073   1.035   1.121 -0.8310  1.0900  0.9928
  261SOL     OW  781   0.807   0.350   2.526 -0.3879  0.8920 -0.1560
  261SOL    HW1  782   0.827   0.308   2.618 -0.2479 -2.8743 -0.8921
  261SOL    HW2  783   0.749   0.291   2.471 -0.5104  2.5795  0.8449
  262SOL     OW  784   1.220   2.218   2.286 -0.5719 -0.0120 -0.6531
  262SOL    HW1  785   1.142   2.198   2.232 -1.4555 -0.7898  1.4004
  262SOL    HW2  786   1.308   2.174   2.248  0.1377  0.9534 -0.7852
  263SOL     OW  787   0.599   2.260   3.010  0.7946 -0.5129  0.3145
  263SOL    HW1  788   0.663   2.256   3.093  2.5113 -0.4374  1.1146
  263SOL    HW2  789   0.576   2.160   2.992  1.0793 -0.1562  0.0233
  264SOL     OW  790   1.032   1.356   1.267 -0.0655 -0.4079  0.4880
  264SOL    HW1  791   1.130   1.333   1.249  3.3683 -0.2230  0.6895
  264SOL    HW2  792   1.018   1.376   1.365  0.3350  0.1977  0.1006
  265SOL     OW  793   0.965   2.294   0.475 -0.1058 -0.1801 -0.0858
  265SOL    HW1  794   0.949   2.202   0.517 -1.1642 -0.4788  1.9443
  265SOL    HW2  795   1.042   2.349   0.521  0.8699  0.1911 -1.2340
  266SOL     OW  796   2.538   0.824   0.886 -0.3251 -0.1060 -0.0640
  266SOL    HW1  797   2.633   0.788   0.900 -2.2425  2.3452  2.1293
  266SOL    HW2  798   2.525   0.861   0.790  1.2477  1.6177  0.0948
  267SOL     OW  799   2.924   1.301   2.827  0.2258  0.2380 -0.1820
  267SOL    HW1  800   2.957   1.304   2.922 -0.5592  1.7558  1.9430
  267SOL    HW2  801   2.993   1.260   2.763  1.2284 -0.9222 -0.3351
  268SOL     OW  802   1.650   0.040   0.240 -0.5769  0.0323  0.3787
  268SOL    HW1  803   1.681   3.091   0.323  2.3765 -0.7794  0.3218
  268SOL    HW2  804   1.730   0.097   0.207  3.8521  3.5989  1.9500
  269SOL     OW  805   2.891   0.879   2.468 -0.1756  0.1133  0.1061
  269SOL    HW1  806   2.799   0.923   2.457  1.0512 -1.3124  1.3272
  269SOL    HW2  807   2.949   0.894   2.386 -1.2587 -0.0137  1.0720
  270SOL     OW  808   3.056   1.285   3.063  0.1726  0.7109 -0.0886
  270SOL    HW1  809   3.049   1.305   0.069  0.9668  3.1731  1.6157
  270SOL    HW2  810   0.001   1.190   3.047 -0.6989 -3.8905  0.6016
  271SOL     OW  811   2.653   1.535   2.505  0.7288 -0.1584 -0.3382
  271SOL    HW1  812   2.585   1.534   2.584 -1.6729 -0.6382 -0.3192
  271SOL    HW2  813   2.630   1.454   2.452  4.7364  4.0384  2.4587
  272SOL     OW  814   2.451   2.341   1.707  0.3583  0.7074 -0.0177
  272SOL    HW1  815   2.361   2.295   1.690  2.4805 -1.0015  1.1776
  272SOL    HW2  816   2.491   2.383   1.625 -1.1400  2.2764 -0.7202
  273SOL     OW  817   0.327   2.551   0.013  0.2074  0.8834 -0.1473
  273SOL    HW1  818   0.359   2.639   3.078 -1.1549  1.2341 -0.9441
  273SOL    HW2  819   0.240   2.549   0.067 -2.3585  0.4146 -1.4943
  274SOL     OW  820   0.952   2.309   0.806 -0.4034  0.0856  0.4589
  274SOL    HW1  821   0.869   2.314   0.743 -2.9161 -0.9311 -2.8636
  274SOL    HW2  822   0.973   2.403   0.839  1.1698  0.0227 -0.3373
  275SOL     OW  823   2.190   1.569   0.157  0.3403  0.3638  0.2290
  275SOL    HW1  824   2.158   1.658   0.184  2.5760 -3.7487 -1.6891
  275SOL    HW2  825   2.224   1.560   0.057  0.8988 -0.3247 -2.4434
  276SOL     OW  826   2.581   1.617   1.529 -0.1947  0.3937 -0.4149
  276SOL    HW1  827   2.647   1.536   1.521  0.1764  0.9037 -0.3476
  276SOL    HW2  828   2.596   1.683   1.459  0.9059 -0.7869 -1.2635
  277SOL     OW  829   2.300   0.396   0.862 -0.3885 -0.0852  0.6492
  277SOL    HW1  830   2.224   0.414   0.794  0.5409 -0.7952 -0.9417
  277SOL    HW2  831   2.281   0.338   0.943  1.6116  2.9838  1.8262
  278SOL     OW  832   1.660   0.495   2.483 -0.7969 -0.2015  0.1208
  278SOL    HW1  833   1.695   0.543   2.565 -0.1063 -1.2127 -3.1853
  278SOL    HW2  834   1.600   0.416   2.509  0.9031  0.5517 -1.4263
  279SOL     OW  835   1.304   2.671   1.345 -0.2799 -0.0178  0.0463
  279SOL    HW1  836   1.344   2.678   1.253  0.7767 -0.7462 -1.8190
  279SOL    HW2  837   1.239   2.747   1.362  3.0347 -2.6992  3.0187
  280SOL     OW  838   1.072   0.843   0.357 -0.0415  0.3647  0.2985
  280SOL    HW1  839   1.039   0.934   0.395 -1.8633  1.4317 -0.9269
  280SOL    HW2  840   1.174   0.852   0.359 -2.7837  3.9547 -0.9236
  281SOL     OW  841   2.370   1.718   2.837 -0.1264 -0.1084  0.2835
  281SOL    HW1  842   2.474   1.749   2.824  0.6105  0.7228 -3.1234
  281SOL    HW2  843   2.312   1.793   2.875  0.2102 -2.4255 -1.4802
  282SOL     OW  844   2.749   1.417   0.066 -0.4882  0.1346 -0.2748
  282SOL    HW1  845   2.671   1.355   0.092  0.0784  1.5868  2.0274
  282SOL    HW2  846   2.829   1.405   0.132  3.6853  0.8897 -0.6047
  283SOL     OW  847   1.464   2.946   2.694 -0.2779 -0.5529  0.0043
  283SOL    HW1  848   1.523   2.958   2.610 -0.1892 -0.2631 -4.5080
  283SOL    HW2  849   1.491   2.869   2.755  0.1166  2.0445  2.3700
  284SOL     OW  850   0.873   3.093   3.093  0.0893 -0.5196  0.2512
  284SOL    HW1  851   0.866   0.101   3.076 -0.0440  0.3895  0.7860
  284SOL    HW2  852   0.968   3.059   3.079 -1.3597  0.1250 -1.2439
  285SOL     OW  853   1.859   2.135   2.541  0.3760 -0.5038 -0.0536
  285SOL    HW1  854   1.904   2.207   2.485  0.9227 -0.9788 -2.8118
  285SOL    HW2  855   1.885   2.158   2.636 -0.9261  0.1764 -0.5022
  286SOL     OW  856   1.205   1.819   0.770  0.0884  0.3685  0.7027
  286SOL    HW1  857   1.176   1.903   0.818  3.4055  0.7109  1.8018
  286SOL    HW2  858   1.233   1.739   0.825  1.0532  0.2687 -1.3373
  287SOL     OW  859   1.624   0.319   1.478 -0.0139  0.1221  0.3126
  287SOL    HW1  860   1.618   0.217   1.497  0.8413 -0.2913  0.2078
  287SOL    HW2  861   1.602   0.372   1.560  0.8758  1.7798  0.8472
  288SOL     OW  862   0.670   2.634   2.312  0.0275  0.1854  0.3513
  288SOL    HW1  863   0.704   2.720   2.360  1.8776  1.1265  0.9017
  288SOL    HW2  864   0.679   2.637   2.213 -0.2280 -1.6953  0.4181
  289SOL     OW  865   0.223   1.278   0.907  0.1940 -0.3871 -0.5496
  289SOL    HW1  866   0.124   1.246   0.898 -3.5989 -2.3049 -1.7076
  289SOL    HW2  867   0.248   1.308   0.998  0.9544  0.1141 -4.0260
  290SOL     OW  868   1.040   2.070   1.618 -0.2631 -0.2222 -0.0439
  290SOL    HW1  869   1.101   2.002   1.668  1.6930 -2.3537 -0.3650
  290SOL    HW2  870   0.972   2.017   1.558 -1.7397 -0.5432  0.2284
  291SOL     OW  871   1.938   2.869   0.642 -0.5914 -0.1490  0.1889
  291SOL    HW1  872   1.923   2.957   0.695  0.3989 -0.3571  0.3775
  291SOL    HW2  873   1.856   2.833   0.591  1.6299 -0.6696 -0.7555
  292SOL     OW  874   0.361   0.306   1.561 -0.4397 -0.4848  0.2495
  292SOL    HW1  875   0.350   0.392   1.511  1.7209 -2.1360  0.0716
  292SOL    HW2  876   0.298   0.301   1.640  0.1481 -0.1700  0.2571
  293SOL     OW  877   2.399   1.795   0.991  0.1337 -0.2014  0.1869
  293SOL    HW1  878   2.473   1.847   0.943 -0.5979 -0.4219 -1.4723
  293SOL    HW2  879   2.319   1.779   0.936  1.3558 -0.8545  0.9040
  294SOL     OW  880   0.441   0.345   2.411 -0.3005 -0.4721 -0.3232
  294SOL    HW1  881   0.444   0.440   2.376 -0.0188 -2.0167  0.4935
  294SOL    HW2  882   0.531   0.307   2.432 -2.3928  0.0496  0.0084
  295SOL     OW  883   0.923   1.292   0.504 -0.0612  0.3206  0.3904
  295SOL    HW1  884   0.924   1.190   0.510  0.3656 -0.5105  0.7723
  295SOL    HW2  885   0.834   1.326   0.481  2.1176 -0.8779  1.1868
  296SOL     OW  886   1.998   1.933   1.075  0.5538 -0.1659 -0.3323
  296SOL    HW1  887   1.914   1.871   1.072  0.0435 -0.7024 -3.4065
  296SOL    HW2  888   2.047   1.948   0.985  0.4061  0.8993  0.2760
  297SOL     OW  889   1.972   0.394   2.705 -0.6120 -0.3597  0.0362
  297SOL    HW1  890   2.026   0.427   2.626 -1.2999 -3.3264  2.6245
  297SOL    HW2  891   1.983   0.459   2.786  0.1523  3.0446  0.0290
  298SOL     OW  892   1.321   0.068   2.790 -0.1639  0.6059 -0.3757
  298SOL    HW1  893   1.380   3.084   2.761  0.9681 -2.0673  0.2315
  298SOL    HW2  894   1.375   0.131   2.843 -0.4864 -3.2918  0.4157
  299SOL     OW  895   0.971   0.225   2.180  0.2400  0.2518  0.1670
  299SOL    HW1  896   1.021   0.290   2.240 -0.2557 -1.2752 -0.5224
  299SOL    HW2  897   0.953   0.136   2.224  1.0544  1.1225 -2.5679
  300SOL     OW  898   2.671   0.062   1.525  0.3291  0.1046  0.1529
  300SOL    HW1  899   2.645   0.143   1.590  1.0552  2.3544  0.6752
  300SOL    HW2  900   2.668   0.097   1.428 -1.2649 -0.6944 -0.2903
  301SOL     OW  901   2.412   0.297   1.565 -0.2050  0.1828 -0.3718
  301SOL    HW1  902   2.488   0.289   1.636  3.5638 -0.3309  1.3610
  301SOL    HW2  903   2.378   0.393   1.559 -0.1056  2.5644  1.3080
  302SOL     OW  904   0.735   2.685   0.352  0.1462 -0.2526  0.3403
  302SOL    HW1  905   0.817   2.699   0.406 -1.4841  0.3620  0.0271
  302SOL    HW2  906   0.688   2.779   0.337 -1.4376  0.2433 -0.4093
  303SOL     OW  907   1.838   1.828   2.031  0.1635  0.2862  0.6196
  303SOL    HW1  908   1.826   1.784   1.940  0.0255 -1.0983 -0.5920
  303SOL    HW2  909   1.756   1.873   2.060 -0.2389  0.8276 -0.1429
  304SOL     OW  910   0.669   0.414   1.006 -0.4910  0.5960 -0.0232
  304SOL    HW1  911   0.613   0.400   1.091 -0.5179  0.9168 -2.9800
  304SOL    HW2  912   0.690   0.513   0.994 -1.6676 -0.6144 -1.2614
  305SOL     OW  913   0.817   0.731   0.765  0.1508  0.2609 -0.4015
  305SOL    HW1  914   0.769   0.703   0.678 -1.8235 -1.7115 -2.0282
  305SOL    HW2  915   0.877   0.655   0.796 -1.0171  1.3961 -0.7208
  306SOL     OW  916   0.648   1.278   2.844 -0.0984  0.5531 -1.0611
  306SOL    HW1  917   0.735   1.263   2.789 -0.0888 -1.6940  0.0582
  306SOL    HW2  918   0.660   1.241   2.942  1.0146 -0.7141 -0.0160
  307SOL     OW  919   0.857   0.360   1.976  0.4095  0.4665  0.7714
  307SOL    HW1  920   0.918   0.418   1.921 -0.1240  0.1282  1.2979
  307SOL    HW2  921   0.904   0.319   2.059  0.8822  1.7688 -1.2192
  308SOL     OW  922   0.876   0.215   0.921  0.0737  0.1727  0.4974
  308SOL    HW1  923   0.825   0.292   0.961 -1.8892  0.4079  2.9556
  308SOL    HW2  924   0.891   0.236   0.819  1.4839  0.3513 -3.4631
  309SOL     OW  925   2.457   1.086   0.321 -0.1694 -0.1739 -0.2006
  309SOL    HW1  926   2.471   1.151   0.399 -0.7040  0.7437 -0.6942
  309SOL    HW2  927   2.522   1.005   0.330  4.8382 -1.4678 -2.9597
  310SOL     OW  928   1.010   1.336   2.987  0.1011 -0.2942 -0.4411
  310SOL    HW1  929   1.107   1.308   2.971  0.7275 -1.6273 -1.1239
  310SOL    HW2  930   0.984   1.337   3.084 -0.4346  1.8943  1.1830
  311SOL     OW  931   1.852   2.549   2.181 -0.2383 -0.0101 -0.0095
  311SOL    HW1  932   1.869   2.457   2.135 -0.0369  1.6377 -0.3613
  311SOL    HW2  933   1.891   2.559   2.273 -2.5024  0.2258  0.1152
  312SOL     OW  934   2.264   2.781   2.968  0.0127  0.1161 -0.4735
  312SOL    HW1  935   2.221   2.859   2.912 -0.6374 -0.2409 -0.9989
  312SOL    HW2  936   2.363   2.772   2.942  1.3258  1.0644  0.6326
  313SOL     OW  937   0.484   0.137   0.042  0.1979 -0.2476 -0.0372
  313SOL    HW1  938   0.523   0.201   3.071  1.4982 -1.2875  0.8033
  313SOL    HW2  939   0.384   0.138   0.030 -1.4444  1.2469 -0.4330
  314SOL     OW  940   2.471   1.486   2.718 -0.8461  0.5076 -0.2113
  314SOL    HW1  941   2.543   1.453   2.785  0.3158  1.6368  0.3684
  314SOL    HW2  942   2.426   1.569   2.765 -0.9166 -1.9286  2.1303
  315SOL     OW  943   1.856   0.515   2.305  0.9100 -0.3433  0.3123
  315SOL    HW1  944   1.774   0.498   2.366 -3.1465 -1.6012  1.7862
  315SOL    HW2  945   1.911   0.589   2.341 -1.9306 -0.9048 -0.9478
  316SOL     OW  946   2.971   1.120   0.326 -0.1857  0.8831  0.2195
  316SOL    HW1  947   2.972   1.020   0.312  0.4617  0.5081 -1.4270
  316SOL    HW2  948   3.052   1.145   0.382  1.6932  0.1435 -0.1299
  317SOL     OW  949   0.584   2.905   0.280  0.3787  0.2548 -0.4945
  317SOL    HW1  950   0.628   2.973   0.335  0.3439  1.4686 -3.8078
  317SOL    HW2  951   0.580   2.930   0.183 -2.1816 -0.8483  3.5168
  318SOL     OW  952   1.929   2.517   1.363 -0.3246  0.6289 -0.4858
  318SOL    HW1  953   1.848   2.542   1.424  1.0037  0.1484  0.2215
  318SOL    HW2  954   1.999   2.590   1.369 -0.5814  0.7353 -1.6979
  319SOL     OW  955   1.332   1.493   0.217 -0.0271 -0.7861 -0.1446
  319SOL    HW1  956   1.355   1.557   0.293 -0.8391  0.9881 -0.4387
  319SOL    HW2  957   1.242   1.442   0.238 -2.5889  1.2885  0.1418
  320SOL     OW  958   0.670   1.755   0.873 -0.5253 -0.2912  0.3059
  320SOL    HW1  959   0.743   1.823   0.884 -2.7067  0.4116  1.3126
  320SOL    HW2  960   0.580   1.802   0.870 -2.0489  0.1396 -2.0927
  321SOL     OW  961   2.060   2.683   1.889  0.0462 -0.2781 -0.0418
  321SOL    HW1  962   2.148   2.738   1.889  1.5110  1.4847 -0.9557
  321SOL    HW2  963   1.980   2.745   1.913 -0.0181  1.0643  0.2271
  322SOL     OW  964   2.052   2.236   2.263 -0.0524 -0.2348 -0.2859
  322SOL    HW1  965   2.100   2.317   2.218  1.4260  1.6200  1.0214
  322SOL    HW2  966   2.020   2.172   2.189  1.0074 -0.8918 -3.0727
  323SOL     OW  967   2.560   0.358   0.786 -0.2626  0.0885 -0.1873
  323SOL    HW1  968   2.460   0.374   0.809  1.6427  0.3791  1.1383
  323SOL    HW2  969   2.581   0.429   0.716 -2.2774  0.1282  0.0828
  324SOL     OW  970   2.489   2.365   2.318  0.0861 -0.4198 -1.1563
  324SOL    HW1  971   2.450   2.273   2.299 -2.2473  4.0724  2.0192
  324SOL    HW2  972   2.573   2.378   2.368  1.3486  0.6829 -0.3892
  325SOL     OW  973   1.338   0.657   2.652 -0.1616  0.1497 -0.1695
  325SOL    HW1  974   1.240   0.633   2.631 -1.2930  0.6060 -0.5439
  325SOL    HW2  975   1.349   0.751   2.694  1.9228  3.0877  2.0709
  326SOL     OW  976   2.617   2.531   1.071  0.0634 -0.5713 -0.0171
  326SOL    HW1  977   2.704   2.548   1.019  0.5802 -0.6210 -0.0651
  326SOL    HW2  978   2.534   2.524   1.010  1.1186  1.0990  0.5721
  327SOL     OW  979   2.617   2.966   0.225 -0.1456 -0.0330 -0.0002
  327SOL    HW1  980   2.613   2.934   0.129 -0.8027  0.4111  3.5741
  327SOL    HW2  981   2.623   3.068   0.220  0.6499  1.5360  0.9161
  328SOL     OW  982   0.699   0.724   1.052  0.0010 -0.1534  0.2234
  328SOL    HW1  983   0.692   0.690   1.148  0.0455 -0.0101  1.7658
  328SOL    HW2  984   0.793   0.758   1.040 -1.3090 -1.9530  1.9476
  329SOL     OW  985   2.064   0.420   1.405 -0.0028  0.0809 -0.4625
  329SOL    HW1  986   2.077   0.479   1.491 -0.3790 -0.3205  2.2414
  329SOL    HW2  987   2.149   0.428   1.344  0.1665 -0.6485  1.8818
  330SOL     OW  988   0.717   0.612   0.537 -0.0246  0.1385 -0.1018
  330SOL    HW1  989   0.770   0.655   0.461 -1.3838 -1.1413 -1.0532
  330SOL    HW2  990   0.757   0.514   0.549  0.5628 -1.3462  0.0704
  331SOL     OW  991   0.749   1.869   1.897 -0.0752 -0.2535  0.3248
  331SOL    HW1  992   0.792   1.960   1.880  1.6519  1.0816  0.0513
  331SOL    HW2  993   0.739   1.810   1.817  0.9101 -0.0039  0.2822
  332SOL     OW  994   2.177   2.433   2.095  0.1910  0.6493 -0.4140
  332SOL    HW1  995   2.260   2.478   2.130  0.6394  0.3948  1.3692
  332SOL    HW2  996   2.120   2.499   2.042  0.5810 -0.1905 -1.0104
  333SOL     OW  997   3.085   0.063   0.967  1.0100 -0.1088 -0.3571
  333SOL    HW1  998   0.046   0.083   1.049 -2.4778 -0.6140  0.6302
  333SOL    HW2  999   2.984   0.068   0.986  1.8767  1.1348  3.2061
  334SOL     OW 1000   2.978   1.336   0.641  0.1034  0.1112  0.2387
  334SOL    HW1 1001   2.915   1.314   0.565  1.7996 -0.9410  0.6132
  334SOL    HW2 1002   3.040   1.413   0.618  1.5726 -0.7814  1.3711
  335SOL     OW 1003   0.446   2.490   2.662 -0.0650 -0.4284 -0.1120
  335SOL    HW1 1004   0.397   2.437   2.738  0.9366 -2.2865  1.0800
  335SOL    HW2 1005   0.378   2.551   2.613 -0.4712  1.9953 -1.1210
  336SOL     OW 1006   2.918   2.685   2.206  0.2823 -0.7677 -0.1127
  336SOL    HW1 1007   2.984   2.724   2.273 -0.0183  0.5527 -0.0226
  336SOL    HW2 1008   2.841   2.746   2.182  1.6664  1.5204 -2.7976
  337SOL     OW 1009   1.221   1.925   1.790  0.0308  0.0289 -0.8079
  337SOL    HW1 1010   1.162   1.846   1.821  1.8638 -3.2656 -0.4361
  337SOL    HW2 1011   1.308   1.918   1.846  0.1304  0.0302 -0.7005
  338SOL     OW 1012   1.059   0.005   2.671  0.0007  0.2833  0.0997
  338SOL    HW1 1013   1.083   0.024   2.570 -1.6385 -0.7454 -1.9122
  338SOL    HW2 1014   1.134   0.041   2.735  0.1528  1.4977  0.6824
  339SOL     OW 1015   0.352   0.860   2.440  0.3706 -0.5024  0.2542
  339SOL    HW1 1016   0.307   0.942   2.404 -0.4027 -2.2612  0.5216
  339SOL    HW2 1017   0.349   0.859   2.541 -1.2105  0.2218  0.7850
  340SOL     OW 1018   2.248   0.491   1.205 -0.3100 -0.2964  0.7333
  340SOL    HW1 1019   2.293   0.564   1.146 -0.5490 -1.1615  2.7240
  340SOL    HW2 1020   2.258   0.402   1.156  1.5449 -1.5544  1.7907
  341SOL     OW 1021   2.434   1.484   0.938 -0.0380 -0.0198  0.1405
  341SOL    HW1 1022   2.402   1.577   0.978 -2.7192  1.1458 -2.7365
  341SOL    HW2 1023   2.456   1.428   1.017 -3.2977 -1.5773 -1.8998
  342SOL     OW 1024   2.106   2.913   2.786 -0.1722  0.3582  0.8717
  342SOL    HW1 1025   2.083   2.948   2.876 -0.3905 -1.1102 -0.7719
  342SOL    HW2 1026   2.030   2.922   2.718 -0.6199 -0.2034  2.4495
  343SOL     OW 1027   0.058   2.259   1.046 -0.2987 -0.7031  0.5392
  343SOL    HW1 1028   0.080   2.165   1.068  0.1486  1.0174  0.2800
  343SOL    HW2 1029   0.140   2.317   1.071 -0.2984  1.8973  2.1213
  344SOL     OW 1030   2.480   2.834   1.249  0.0089 -0.2586 -0.2335
  344SOL    HW1 1031   2.453   2.737   1.236 -2.3287  0.3617 -0.4329
  344SOL    HW2 1032   2.449   2.872   1.338  0.8311 -1.3942 -0.1095
  345SOL     OW 1033   2.295   2.164   0.405  0.4513 -0.1212  0.0292
  345SOL    HW1 1034   2.396   2.180   0.392 -0.1940  1.2956  0.4901
  345SOL    HW2 1035   2.250   2.229   0.466 -0.1799  0.7162  0.7079
  346SOL     OW 1036   1.579   2.188   1.605 -0.1734  0.6251 -0.3648
  346SOL    HW1 1037   1.514   2.114   1.571 -1.9500  0.7518 -1.1003
  346SOL    HW2 1038   1.527   2.253   1.664 -0.7703  1.7420 -0.6843
  347SOL     OW 1039   1.047   1.784   1.369 -0.0241  0.0643  0.5447
  347SOL    HW1 1040   1.060   1.728   1.453  1.4422  0.3574  1.0392
  347SOL    HW2 1041   1.055   1.727   1.285 -1.0494  0.3521  1.8075
  348SOL     OW 1042   0.237   1.939   1.929 -0.0076 -0.0036  0.2936
  348SOL    HW1 1043   0.326   1.919   1.961 -2.6622  2.5776  0.6155
  348SOL    HW2 1044   0.225   1.909   1.831 -0.2198  0.6335 -0.3938
  349SOL     OW 1045   1.513   1.801   1.553  0.4032  0.1571  0.5952
  349SOL    HW1 1046   1.490   1.759   1.641  1.8940 -0.1428 -0.6991
  349SOL    HW2 1047   1.457   1.888   1.547  1.0011 -1.9439  1.4580
  350SOL     OW 1048   2.143   2.363   0.508 -0.0570 -0.0386 -0.3609
  350SOL    HW1 1049   2.081   2.382   0.427  1.9009 -0.2243  0.3305
  350SOL    HW2 1050   2.223   2.429   0.508 -0.5851  1.7562 -1.0506
  351SOL     OW 1051   0.436   3.009   1.819 -0.2257  0.4106 -0.1414
  351SOL    HW1 1052   0.494   2.933   1.774  1.3985 -2.0156 -1.5611
  351SOL    HW2 1053   0.343   3.020   1.781 -1.4067  0.0717  1.1406
  352SOL     OW 1054   0.878   0.981   0.758  0.2191  0.0407  0.0583
  352SOL    HW1 1055   0.914   1.017   0.847  1.3947 -1.9754 -0.2501
  352SOL    HW2 1056   0.855   0.879   0.758 -2.4714  0.3582 -0.8028
  353SOL     OW 1057   1.165   1.901   2.769 -0.1795  0.6309 -0.6474
  353SOL    HW1 1058   1.181   2.004   2.756  1.0287  1.3029 -1.7526
  353SOL    HW2 1059   1.084   1.874   2.721  1.8154  3.0981  0.8075
  354SOL     OW 1060   1.637   2.670   2.020  0.3948 -0.3719  0.1997
  354SOL    HW1 1061   1.721   2.643   2.073 -0.5606 -1.5832 -0.3630
  354SOL    HW2 1062   1.609   2.766   2.032  0.7253  0.6971  0.2627
  355SOL     OW 1063   2.189   1.286   0.142 -0.6117 -0.2188  0.1453
  355SOL    HW1 1064   2.223   1.382   0.156 -0.5924  2.6012  0.3551
  355SOL    HW2 1065   2.103   1.288   0.085  1.2886  0.9395  0.7409
  356SOL     OW 1066   0.288   1.855   1.050  0.1029  0.2054 -0.0343
  356SOL    HW1 1067   0.254   1.775   1.003  1.9324  0.4306 -0.5490
  356SOL    HW2 1068   0.211   1.891   1.104  0.7046 -1.6894 -1.5941
  357SOL     OW 1069   3.070   2.820   1.250  0.0694 -0.2748 -0.3824
  357SOL    HW1 1070   3.097   2.903   1.300  2.2328  1.1926 -3.7520
  357SOL    HW2 1071   0.002   2.821   1.148  1.7575 -1.0056 -2.9133
  358SOL     OW 1072   2.178   1.818   1.483 -0.3304 -0.2119 -1.0660
  358SOL    HW1 1073   2.206   1.867   1.569 -0.1492  0.7027  3.1761
  358SOL    HW2 1074   2.237   1.827   1.400 -1.5948  1.0825  1.5704
  359SOL     OW 1075   2.298   2.756   2.641  0.5600  0.1523 -0.5523
  359SOL    HW1 1076   2.228   2.804   2.698 -0.6342  0.1830 -1.5323
  359SOL    HW2 1077   2.261   2.681   2.580 -2.1684 -2.3767  1.4453
  360SOL     OW 1078   0.991   2.784   0.961  0.4675  0.3316  0.3343
  360SOL    HW1 1079   1.080   2.736   0.961 -0.3061  1.5980 -3.8770
  360SOL    HW2 1080   0.952   2.785   1.058  0.8724  0.7112  3.1037
  361SOL     OW 1081   1.933   0.310   0.446 -0.3422 -0.4452  0.1551
  361SOL    HW1 1082   1.957   0.406   0.413 -0.5238  0.8408 -0.9231
  361SOL    HW2 1083   1.870   0.316   0.527 -2.0964  0.9601  0.3072
  362SOL     OW 1084   1.470   0.936   1.273 -0.2014 -0.4843 -0.3495
  362SOL    HW1 1085   1.514   0.854   1.315  2.4636 -1.8238 -0.3387
  362SOL    HW2 1086   1.372   0.918   1.250 -1.0722 -0.1298  0.2659
  363SOL     OW 1087   2.288   1.377   2.200  0.2526  0.6079  0.6537
  363SOL    HW1 1088   2.240   1.295   2.233  0.4284  2.8092 -2.7230
  363SOL    HW2 1089   2.245   1.410   2.114  2.1452  1.8115  1.3064
  364SOL     OW 1090   0.462   0.703   1.374 -0.1871  0.3673  0.3575
  364SOL    HW1 1091   0.454   0.795   1.328  1.4532 -3.4809 -0.4897
  364SOL    HW2 1092   0.566   0.673   1.358  3.7047  0.1629 -2.5017
  365SOL     OW 1093   0.629   0.174   2.428  0.0497  0.0377  0.4026
  365SOL    HW1 1094   0.615   0.153   2.527 -0.3410 -1.7395 -3.4901
  365SOL    HW2 1095   0.603   0.095   2.370  1.6376 -3.2549 -1.2513
  366SOL     OW 1096   2.242   2.089   2.401 -0.1689 -0.1902 -0.6238
  366SOL    HW1 1097   2.172   2.152   2.363 -0.6635 -3.5119  0.0435
  366SOL    HW2 1098   2.257   2.105   2.499  0.3279 -2.0203  1.6647
  367SOL     OW 1099   2.643   2.512   0.042  1.0724  0.3558 -0.1975
  367SOL    HW1 1100   2.648   2.579   0.122  0.6074  0.9721 -2.2057
  367SOL    HW2 1101   2.727   2.520   3.074  2.9844  1.8769 -0.8782
  368SOL     OW 1102   2.809   1.430   0.849 -0.3305 -0.4049  0.3235
  368SOL    HW1 1103   2.757   1.511   0.805 -2.2561 -0.4916 -0.1361
  368SOL    HW2 1104   2.860   1.387   0.772  1.8302  0.7081 -0.8758
  369SOL     OW 1105   0.783   2.871   2.408  0.1998  0.0543  0.2417
  369SOL    HW1 1106   0.829   2.869   2.504 -2.6900  3.2057  1.9642
  369SOL    HW2 1107   0.827   2.948   2.355  0.4437 -0.5959  0.4531
  370SOL     OW 1108   2.804   0.083   0.512  0.0858 -0.0557 -0.4397
  370SOL    HW1 1109   2.850   0.175   0.491  2.7014  0.8726 -1.4028
  370SOL    HW2 1110   2.722   0.091   0.570 -1.8493 -0.9796  0.6910
  371SOL     OW 1111   1.292   2.126   1.332  0.0684  0.0967 -0.1353
  371SOL    HW1 1112   1.329   2.222   1.319  1.7350 -0.6279 -1.0454
  371SOL    HW2 1113   1.198   2.124   1.294  2.1239 -2.5323 -1.3118
  372SOL     OW 1114   3.051   0.640   2.487  0.2942  0.2017  0.1507
  372SOL    HW1 1115   0.052   0.620   2.509 -0.5991 -2.4124  0.9938
  372SOL    HW2 1116   3.026   0.733   2.512  1.9251 -2.5397 -0.8404
  373SOL     OW 1117   0.124   2.095   0.775 -0.7605 -0.6060  0.4496
  373SOL    HW1 1118   0.222   2.122   0.802  4.2340  1.2863 -0.4776
  373SOL    HW2 1119   0.067   2.181   0.757 -0.7197  1.2196 -2.1626
  374SOL     OW 1120   0.412   2.953   2.532 -0.2668 -0.2496 -0.2701
  374SOL    HW1 1121   0.477   2.936   2.609  1.3648  1.3253 -1.1212
  374SOL    HW2 1122   0.467   2.985   2.452 -1.1150 -2.6929 -0.9517
  375SOL     OW 1123   0.627   0.090   2.674 -0.0159 -0.1776  0.5487
  375SOL    HW1 1124   0.611   3.088   2.680  0.4576  0.0449 -1.3384
  375SOL    HW2 1125   0.721   0.112   2.718  1.4777  0.0967  0.5134
  376SOL     OW 1126   2.913   1.969   1.813  0.4897 -0.2120  0.0469
  376SOL    HW1 1127   2.948   1.908   1.890 -2.2600 -1.1150 -0.3529
  376SOL    HW2 1128   2.838   2.026   1.842  1.6342  0.6311  1.5674
  377SOL     OW 1129   1.700   2.600   2.949 -0.4666 -0.0758  0.1366
  377SOL    HW1 1130   1.729   2.628   3.045  3.4912 -0.2256  0.9229
  377SOL    HW2 1131   1.605   2.576   2.945  0.3199  0.4748  0.1684
  378SOL     OW 1132   0.032   0.333   2.330 -0.0059 -0.0404  0.0286
  378SOL    HW1 1133   0.101   0.297   2.398  1.9915  0.2878  1.3483
  378SOL    HW2 1134   3.047   0.368   2.382 -1.6415  3.3218  4.1405
  379SOL     OW 1135   0.489   1.043   0.385 -0.3060 -0.1118  0.7029
  379SOL    HW1 1136   0.533   1.047   0.477  1.9025  1.2362  1.3744
  379SOL    HW2 1137   0.413   0.968   0.378 -3.1905 -0.9217 -0.4667
  380SOL     OW 1138   0.365   1.527   1.890  0.1401  0.2242  0.4474
  380SOL    HW1 1139   0.454   1.491   1.850  1.1580 -0.3880 -0.8203
  380SOL    HW2 1140   0.380   1.594   1.967 -0.8865  1.3633  0.3502
  381SOL     OW 1141   0.548   1.163   2.088 -0.4988  0.2728 -0.2142
  381SOL    HW1 1142   0.528   1.076   2.150 -2.6730 -0.5072 -0.9318
  381SOL    HW2 1143   0.648   1.190   2.079  2.5772 -4.1794 -1.5095
  382SOL     OW 1144   2.239   1.907   0.418  0.2580  1.1528  0.4586
  382SOL    HW1 1145   2.243   2.012   0.432  0.3853  1.8395 -1.6199
  382SOL    HW2 1146   2.165   1.868   0.478 -0.8513  1.3399  0.6423
  383SOL     OW 1147   0.573   1.989   3.029 -0.3418  0.5305 -0.1716
  383SOL    HW1 1148   0.622   1.986   0.021  1.6932 -0.2649  1.8969
  383SOL    HW2 1149   0.608   1.918   2.965 -2.5202  1.6459  2.0250
  384SOL     OW 1150   0.847   2.215   2.740 -0.0391 -0.1231  0.0325
  384SOL    HW1 1151   0.811   2.156   2.671  2.1054  3.7217  1.9189
  384SOL    HW2 1152   0.769   2.265   2.785 -3.7736  1.0123  0.5406
  385SOL     OW 1153   2.008   1.893   0.579 -0.3425 -0.2119  0.0568
  385SOL    HW1 1154   2.041   1.922   0.672 -0.9945  0.6533  0.3459
  385SOL    HW2 1155   1.939   1.954   0.542  0.9583  1.0200  1.8628
  386SOL     OW 1156   2.203   0.884   1.461  0.5432 -0.0433  0.1579
  386SOL    HW1 1157   2.284   0.920   1.411 -0.1645  0.4166 -1.4509
  386SOL    HW2 1158   2.163   0.950   1.522  1.4693 -1.6860 -2.7033
  387SOL     OW 1159   2.702   1.382   2.016  0.6802  0.5403 -0.2215
  387SOL    HW1 1160   2.715   1.476   1.985 -1.4530  0.0927 -0.6274
  387SOL    HW2 1161   2.756   1.369   2.098 -4.2764 -0.8989  0.5291
  388SOL     OW 1162   0.412   1.656   2.135 -0.5148 -0.1335  0.2267
  388SOL    HW1 1163   0.515   1.648   2.149 -2.0949 -2.5553 -1.2101
  388SOL    HW2 1164   0.368   1.721   2.202 -1.5948 -0.2577  1.2204
  389SOL     OW 1165   1.058   1.099   2.076  0.4364  0.2839  0.2548
  389SOL    HW1 1166   0.998   1.020   2.065 -2.0548 -0.9778  0.9083
  389SOL    HW2 1167   1.149   1.086   2.033 -1.6072 -0.7099  1.3563
  390SOL     OW 1168   2.278   0.230   1.059 -0.3811  0.1926  0.6365
  390SOL    HW1 1169   2.366   0.183   1.035 -0.8812 -0.3521 -0.9467
  390SOL    HW2 1170   2.224   0.185   1.137  0.9299  0.9349 -1.6185
  391SOL     OW 1171   1.861   1.508   1.284 -0.5729  0.4756 -0.2456
  391SOL    HW1 1172   1.962   1.516   1.290 -4.0468 -2.4372  0.4464
  391SOL    HW2 1173   1.829   1.430   1.344 -0.5804  3.8059 -4.1419
  392SOL     OW 1174   2.717   2.807   0.439 -0.1528 -0.2612 -0.4648
  392SOL    HW1 1175   2.685   2.858   0.361  3.4797  0.0876 -0.0046
  392SOL    HW2 1176   2.756   2.863   0.514  0.6834 -2.3905  0.0075
  393SOL     OW 1177   1.905   2.185   2.802 -0.2452 -0.0276 -0.1286
  393SOL    HW1 1178   1.906   2.286   2.822 -0.5311 -1.3241 -0.6775
  393SOL    HW2 1179   1.984   2.142   2.846 -3.0839  1.5402  0.4050
  394SOL     OW 1180   0.198   2.532   2.568 -0.8511 -0.2721 -0.2937
  394SOL    HW1 1181   0.158   2.560   2.660 -1.1129 -0.6615  0.4393
  394SOL    HW2 1182   0.159   2.439   2.542 -3.6301 -3.0841  0.9383
  395SOL     OW 1183   0.539   0.236   0.840 -0.1228  0.1200  0.0819
  395SOL    HW1 1184   0.472   0.287   0.779 -1.1575 -0.7842 -2.3566
  395SOL    HW2 1185   0.604   0.298   0.883 -0.3124  1.0976 -0.7159
  396SOL     OW 1186   1.731   0.672   0.754  0.1479 -0.1964  0.2481
  396SOL    HW1 1187   1.758   0.747   0.823 -3.4919 -1.4202 -2.2797
  396SOL    HW2 1188   1.639   0.699   0.717 -0.2625  1.7184  0.9677
  397SOL     OW 1189   0.402   0.534   2.135  0.3017 -0.4110  0.7508
  397SOL    HW1 1190   0.459   0.464   2.084 -0.6335 -0.0783 -0.0128
  397SOL    HW2 1191   0.303   0.530   2.108 -2.8588 -0.2119 -1.1143
  398SOL     OW 1192   0.880   0.022   0.611 -0.2121 -0.3745 -0.3294
  398SOL    HW1 1193   0.914   0.120   0.612 -1.0486  0.1509 -0.0311
  398SOL    HW2 1194   0.943   3.049   0.652 -0.7379 -2.6632 -1.0924
  399SOL     OW 1195   2.237   0.086   1.621  0.2466 -0.4606  0.1058
  399SOL    HW1 1196   2.312   0.145   1.580 -0.0107 -2.2509 -1.5769
  399SOL    HW2 1197   2.228   3.091   1.579 -0.7342  0.3495 -0.7004
  400SOL     OW 1198   0.952   1.943   2.528 -0.1136  0.2263 -0.7500
  400SOL    HW1 1199   0.858   1.962   2.565  0.0918  0.6706 -0.5189
  400SOL    HW2 1200   0.960   1.927   2.427  0.8067  0.4469  0.3521
  401SOL     OW 1201   0.603   0.906   2.688 -0.0757 -0.4122 -0.0733
  401SOL    HW1 1202   0.626   0.914   2.589  0.4685 -2.4162 -0.3845
  401SOL    HW2 1203   0.524   0.966   2.706  2.0783 -0.3875 -0.3245
  402SOL     OW 1204   0.337   2.298   0.573 -0.3137 -0.3637  0.0424
  402SOL    HW1 1205   0.318   2.219   0.511  2.0940 -1.4576  2.7327
  402SOL    HW2 1206   0.314   2.388   0.534  0.2018 -0.0762  2.3287
  403SOL     OW 1207   3.087   1.195   1.999  0.3248  0.6469 -0.4688
  403SOL    HW1 1208   0.065   1.244   1.955 -0.0315 -2.7128 -0.1893
  403SOL    HW2 1209   3.036   1.140   1.930  2.0864 -0.3971  0.2120
  404SOL     OW 1210   2.746   2.419   2.425 -0.2449 -0.1917  0.7194
  404SOL    HW1 1211   2.771   2.375   2.512  0.3777  1.0829  0.3362
  404SOL    HW2 1212   2.829   2.421   2.364  0.3988  1.7836 -1.5687
  405SOL     OW 1213   0.268   0.286   1.917  0.1927 -0.3036  0.0478
  405SOL    HW1 1214   0.320   0.251   1.997 -1.8758  1.1209 -0.6789
  405SOL    HW2 1215   0.191   0.226   1.892 -0.0044  2.1626 -0.6411
  406SOL     OW 1216   1.545   1.616   2.533  0.1367 -0.1060 -0.1918
  406SOL    HW1 1217   1.467   1.619   2.593  2.0356 -0.7007 -2.3382
  406SOL    HW2 1218   1.536   1.689   2.461  0.4157 -0.6397 -1.1401
  407SOL     OW 1219   1.655   0.975   2.662 -0.2255  0.5662  0.4539
  407SOL    HW1 1220   1.728   1.041   2.676 -0.8790 -2.5264 -0.6101
  407SOL    HW2 1221   1.660   0.947   2.560 -0.6811 -1.5936  0.1824
  408SOL     OW 1222   0.567   3.025   2.329  0.4879  0.3361 -0.0682
  408SOL    HW1 1223   0.658   2.992   2.352 -0.9452  3.2530  2.0924
  408SOL    HW2 1224   0.529   3.007   2.234 -0.0817 -1.9782  0.6512
  409SOL     OW 1225   0.087   1.952   1.213 -0.5337  0.4562 -0.3176
  409SOL    HW1 1226   3.092   1.991   1.233 -0.5340 -2.0547  0.7804
  409SOL    HW2 1227   0.163   2.021   1.224  0.7508  0.6672 -0.2303
  410SOL     OW 1228   2.475   1.477   0.340 -0.3025 -0.2691 -0.3963
  410SOL    HW1 1229   2.464   1.448   0.242  0.9916  1.4005  1.2370
  410SOL    HW2 1230   2.533   1.414   0.401 -0.5953 -2.7648  0.4087
  411SOL     OW 1231   0.127   0.091   1.192  0.3010  0.5498  0.3896
  411SOL    HW1 1232   0.210   0.097   1.245 -0.9299 -2.7748  0.3466
  411SOL    HW2 1233   0.045   0.061   1.252  1.4433 -1.9531  0.2568
  412SOL     OW 1234   1.654   0.524   1.694 -0.0659 -0.2859 -0.0476
  412SOL    HW1 1235   1.558   0.561   1.695  2.1306  0.5947  2.1477
  412SOL    HW2 1236   1.702   0.583   1.622 -1.0367  1.2839 -0.6620
  413SOL     OW 1237   0.567   0.371   1.980 -0.1042  0.2648 -0.2696
  413SOL    HW1 1238   0.561   0.300   1.909 -0.8011  0.6958 -0.3740
  413SOL    HW2 1239   0.671   0.380   2.001  2.6438 -2.1463 -0.4487
  414SOL     OW 1240   2.890   1.512   2.648  0.2230  0.4897  0.6781
  414SOL    HW1 1241   2.891   1.430   2.708  1.7295 -0.1666  2.3180
  414SOL    HW2 1242   2.798   1.515   2.596 -1.9003  0.3017 -1.7998
  415SOL     OW 1243   0.831   2.637   0.082 -0.1936 -0.1688 -0.1142
  415SOL    HW1 1244   0.905   2.581   0.042  0.3832 -1.8619  3.1150
  415SOL    HW2 1245   0.843   2.647   0.185  1.6405  0.0098 -0.6309
  416SOL     OW 1246   1.719   0.259   2.783  0.4602  0.1141 -0.0679
  416SOL    HW1 1247   1.736   0.174   2.841 -1.5946 -3.2907  4.3626
  416SOL    HW2 1248   1.810   0.300   2.758 -0.4464 -0.9562  0.0023
  417SOL     OW 1249   0.352   0.390   0.703  0.6342  0.9773 -0.0345
  417SOL    HW1 1250   0.386   0.480   0.673 -1.4982 -0.1008  1.7095
  417SOL    HW2 1251   0.282   0.356   0.635 -2.0928 -2.3919 -3.6727
  418SOL     OW 1252   2.583   0.115   0.668  0.0694 -0.0885 -0.1435
  418SOL    HW1 1253   2.498   0.064   0.652  0.3350  2.4222  0.1284
  418SOL    HW2 1254   2.564   0.203   0.711 -0.1143 -1.1072  0.1568
  419SOL     OW 1255   3.077   2.801   0.528 -0.0985  0.3429 -0.5187
  419SOL    HW1 1256   0.079   2.824   0.550 -2.1188  0.8529  1.4872
  419SOL    HW2 1257   3.006   2.860   0.569  0.2081 -0.5021  0.5793
  420SOL     OW 1258   0.200   1.316   1.869 -0.3570  0.3752  0.0174
  420SOL    HW1 1259   0.251   1.400   1.897 -0.6868  2.2052 -1.3613
  420SOL    HW2 1260   0.277   1.243   1.864  2.6218 -3.2120  1.1586
  421SOL     OW 1261   1.561   2.605   0.932  0.4187  0.4422 -0.4640
  421SOL    HW1 1262   1.629   2.669   0.979 -2.0768 -0.8706 -0.1634
  421SOL    HW2 1263   1.576   2.508   0.970  0.4342 -0.2115  2.7130
  422SOL     OW 1264   0.637   0.440   1.655  0.1477 -0.1411  0.2322
  422SOL    HW1 1265   0.677   0.502   1.723  0.0052  0.1446  2.7708
  422SOL    HW2 1266   0.635   0.344   1.693 -0.0007 -0.6726  0.6551
  423SOL     OW 1267   0.995   1.393   1.869 -0.2714 -0.4096  0.5096
  423SOL    HW1 1268   1.084   1.435   1.841  2.7394 -0.8508  1.8179
  423SOL    HW2 1269   0.986   1.298   1.829  2.2211  0.3352 -0.7413
  424SOL     OW 1270   1.887   2.245   0.127  0.2493 -0.0466 -0.0545
  424SOL    HW1 1271   1.949   2.311   0.167 -0.7460 -0.4130 -0.2958
  424SOL    HW2 1272   1.798   2.280   0.090  1.3795 -1.5113 -0.9189
  425SOL     OW 1273   2.859   2.940   1.920 -0.4255  0.0755 -0.4429
  425SOL    HW1 1274   2.948   2.976   1.949  0.5430 -2.7649 -2.5843
  425SOL    HW2 1275   2.850   2.944   1.818  0.9096 -0.3732 -1.8543
  426SOL     OW 1276   0.141   2.616   2.815  0.0985  0.0644 -0.4190
  426SOL    HW1 1277   0.155   2.679   2.892 -2.6939  1.6368  1.7335
  426SOL    HW2 1278   0.072   2.547   2.860  0.0118  0.7842  1.3548
  427SOL     OW 1279   1.178   0.562   0.065  0.0194 -0.0409  0.0070
  427SOL    HW1 1280   1.244   0.579   0.136 -0.2625  0.1160 -0.7244
  427SOL    HW2 1281   1.182   0.464   0.030  0.4298  1.8588  0.5629
  428SOL     OW 1282   2.765   0.715   1.241  0.5812  0.4396  0.3325
  428SOL    HW1 1283   2.856   0.670   1.239  1.8660 -0.2430 -1.4204
  428SOL    HW2 1284   2.714   0.697   1.327  0.8791  0.2903  0.8631
  429SOL     OW 1285   2.080   2.943   1.252 -0.1757  0.1617 -0.1395
  429SOL    HW1 1286   2.118   2.868   1.314 -0.1776 -0.3710 -1.1128
  429SOL    HW2 1287   2.071   2.925   1.152 -0.0511 -1.1967  0.4496
  430SOL     OW 1288   1.134   1.589   2.434  0.7764  0.2164 -0.3101
  430SOL    HW1 1289   1.145   1.565   2.527 -1.9010  0.1277 -0.3417
  430SOL    HW2 1290   1.135   1.512   2.374 -0.2227  0.4837 -0.3443
  431SOL     OW 1291   2.628   1.815   1.345  0.0651  0.0087  0.2334
  431SOL    HW1 1292   2.656   1.825   1.246  0.9434 -2.2022  3.2151
  431SOL    HW2 1293   2.711   1.844   1.403  1.3691  1.4653  1.7304
  432SOL     OW 1294   1.156   3.089   2.425 -0.4442  0.7423 -0.4737
  432SOL    HW1 1295   1.194   2.999   2.455  1.7217  0.1439 -0.4531
  432SOL    HW2 1296   1.219   0.070   2.451 -0.4478  0.5254 -1.8692
  433SOL     OW 1297   1.830   0.267   2.205 -0.3458 -0.2169  0.1175
  433SOL    HW1 1298   1.833   0.213   2.291  0.8115  2.7049  0.6694
  433SOL    HW2 1299   1.847   0.365   2.238 -1.8548  1.8193  0.0043
  434SOL     OW 1300   0.319   2.337   2.203  0.2882  0.0790  0.3417
  434SOL    HW1 1301   0.378   2.402   2.256 -1.0952  2.1750 -1.1821
  434SOL    HW2 1302   0.337   2.241   2.231  0.5312 -2.9399  2.8123
  435SOL     OW 1303   0.140   0.050   0.408 -0.0458  0.1696 -0.6133
  435SOL    HW1 1304   0.231   0.064   0.368 -0.6164 -0.7110 -2.2729
  435SOL    HW2 1305   0.140   0.022   0.507  2.6045 -2.3923 -3.1184
  436SOL     OW 1306   0.513   0.904   2.192 -0.6851 -0.1452  0.1006
  436SOL    HW1 1307   0.419   0.871   2.176 -1.6810  2.1763 -0.2970
  436SOL    HW2 1308   0.578   0.881   2.114 -0.8883  0.0664  0.3197
  437SOL     OW 1309   0.664   2.411   2.814  0.0096  0.3614  0.1510
  437SOL    HW1 1310   0.590   2.440   2.750 -2.1260 -2.2543 -1.8133
  437SOL    HW2 1311   0.629   2.349   2.893 -2.4258  1.4253 -0.6561
  438SOL     OW 1312   1.034   1.026   0.990 -0.0405  0.2456  0.0643
  438SOL    HW1 1313   0.986   1.118   0.981 -3.5809 -1.3269 -1.4962
  438SOL    HW2 1314   1.134   1.036   0.969  0.2558 -1.7835  1.8302
  439SOL     OW 1315   2.581   1.349   2.318 -0.6889  0.4544 -0.2287
  439SOL    HW1 1316   2.594   1.267   2.254  0.6479 -0.8882 -0.4754
  439SOL    HW2 1317   2.490   1.393   2.317  1.5559 -2.4512 -1.1664
  440SOL     OW 1318   3.090   0.557   2.825  0.1188  0.2365  0.2152
  440SOL    HW1 1319   3.073   0.596   2.734 -0.6496  2.8380 -0.9061
  440SOL    HW2 1320   0.010   0.455   2.817  1.1010 -0.4053 -1.5657
  441SOL     OW 1321   0.877   1.984   1.421  0.3153 -0.9676 -0.4485
  441SOL    HW1 1322   0.842   2.065   1.367  2.4787  2.6932 -0.6440
  441SOL    HW2 1323   0.946   1.921   1.378  0.5054  1.1270 -0.6447
  442SOL     OW 1324   1.609   1.508   0.837  0.4918  0.1770 -0.0856
  442SOL    HW1 1325   1.666   1.471   0.911 -3.7240  0.3775 -0.8252
  442SOL    HW2 1326   1.578   1.437   0.773 -0.4035  3.5632 -0.4666
  443SOL     OW 1327   2.254   2.101   2.747  0.4205  0.1145 -0.4378
  443SOL    HW1 1328   2.303   2.079   2.836 -0.9591 -1.0698  2.6104
  443SOL    HW2 1329   2.241   2.204   2.743  0.6087  2.6321  1.4101
  444SOL     OW 1330   1.911   1.738   2.842  0.3270 -0.3867  0.1923
  444SOL    HW1 1331   1.838   1.764   2.907  0.0561  0.6885  0.8597
  444SOL    HW2 1332   1.966   1.816   2.801 -0.7065 -0.7014 -2.2176
  445SOL     OW 1333   2.846   2.462   1.920 -0.4135  0.3969 -0.3365
  445SOL    HW1 1334   2.888   2.440   2.010 -1.0013 -1.2377  3.4542
  445SOL    HW2 1335   2.746   2.435   1.918 -0.5534  1.5790 -3.3837
  446SOL     OW 1336   1.080   0.892   1.777  0.4730  0.3251  1.1245
  446SOL    HW1 1337   1.123   0.875   1.867  0.9119  1.7238 -2.2874
  446SOL    HW2 1338   1.005   0.821   1.766  0.3889  2.4070  0.2928
  447SOL     OW 1339   0.971   0.762   1.050  0.5829  0.0396  0.1571
  447SOL    HW1 1340   0.980   0.701   0.971  1.4492 -2.0583 -0.8807
  447SOL    HW2 1341   1.009   0.858   1.030 -0.0683  1.5020 -0.9813
  448SOL     OW 1342   1.087   1.234   2.531 -0.6855  0.3766  0.3393
  448SOL    HW1 1343   1.068   1.241   2.431  1.7664 -1.7595  2.0460
  448SOL    HW2 1344   1.133   1.316   2.574  2.4996 -0.3221  1.6610
  449SOL     OW 1345   3.055   2.042   2.481  0.0068  0.1286 -0.1473
  449SOL    HW1 1346   0.035   1.982   2.498 -1.5616  1.6511 -1.7268
  449SOL    HW2 1347   3.025   2.049   2.384 -1.6955  0.1125 -0.7492
  450SOL     OW 1348   2.229   1.726   1.869  0.7223 -0.3574  0.1718
  450SOL    HW1 1349   2.316   1.716   1.814  0.8783  0.8164  1.0674
  450SOL    HW2 1350   2.229   1.821   1.914  0.8514  0.1915  0.3527
  451SOL     OW 1351   2.763   1.436   1.421  0.0324 -0.1034  0.2779
  451SOL    HW1 1352   2.784   1.457   1.325  1.4576  1.8075  1.3148
  451SOL    HW2 1353   2.717   1.342   1.427  0.6461 -1.2325 -0.1160
  452SOL     OW 1354   0.593   1.007   1.579 -0.6650  0.1962  0.0957
  452SOL    HW1 1355   0.562   0.909   1.583 -1.0720  0.2863 -1.0836
  452SOL    HW2 1356   0.650   1.029   1.494  1.5307  2.6766 -1.4003
  453SOL     OW 1357   0.357   1.228   0.686 -0.3717  0.3206  0.1092
  453SOL    HW1 1358   0.348   1.285   0.605  0.5343  2.4006 -2.7247
  453SOL    HW2 1359   0.313   1.277   0.767 -2.0916  1.9028 -0.7455
  454SOL     OW 1360   0.863   1.582   0.202 -0.1153 -0.1576  0.2347
  454SOL    HW1 1361   0.873   1.651   0.132 -1.3065 -2.0070  1.3483
  454SOL    HW2 1362   0.770   1.579   0.240 -1.2539  1.8223 -0.9359
  455SOL     OW 1363   1.662   0.581   1.247 -0.3584  0.0750  0.1160
  455SOL    HW1 1364   1.661   0.612   1.343 -3.0334  0.4886 -2.1562
  455SOL    HW2 1365   1.735   0.510   1.228  1.1709 -4.1972 -2.9711
  456SOL     OW 1366   1.723   2.779   1.043 -0.4544 -0.2549 -0.8125
  456SOL    HW1 1367   1.818   2.738   1.049 -0.1304 -2.4560  2.6068
  456SOL    HW2 1368   1.706   2.849   1.121 -0.8906  2.4913  4.2501
  457SOL     OW 1369   2.142   0.511   2.514  0.0358  0.4404 -0.0048
  457SOL    HW1 1370   2.204   0.555   2.577  0.1983 -0.6082 -1.1815
  457SOL    HW2 1371   2.162   0.527   2.417 -1.5367 -0.8313  2.0052
  458SOL     OW 1372   2.523   0.797   2.601  0.1206 -0.3122 -0.7257
  458SOL    HW1 1373   2.546   0.891   2.639  0.2019 -1.2061 -1.0960
  458SOL    HW2 1374   2.600   0.740   2.633  6.0191  1.8778  1.3377
  459SOL     OW 1375   2.626   1.769   2.158  0.1613 -0.0033  0.8443
  459SOL    HW1 1376   2.668   1.765   2.252 -0.1881  0.2213  1.1832
  459SOL    HW2 1377   2.526   1.784   2.160  0.6885  2.3744  2.8315
  460SOL     OW 1378   0.503   0.789   2.995  0.3219 -0.1902  0.3118
  460SOL    HW1 1379   0.566   0.862   2.963 -2.4681  0.6907  1.9765
  460SOL    HW2 1380   0.479   0.721   2.923  0.1116 -1.6943 -0.9489
  461SOL     OW 1381   0.096   2.287   0.231  0.4986 -0.2048 -0.1536
  461SOL    HW1 1382   3.092   2.313   0.231 -1.8321 -0.8503  0.1752
  461SOL    HW2 1383   0.117   2.234   0.317  1.5696 -0.7546  1.3465
  462SOL     OW 1384   0.248   2.598   1.528  0.3872 -0.3489 -0.2071
  462SOL    HW1 1385   0.146   2.584   1.506 -1.3384 -0.6602  0.6493
  462SOL    HW2 1386   0.270   2.549   1.619  0.8838 -2.5511  3.3616
  463SOL     OW 1387   1.664   2.061   1.920 -0.2487 -0.2305  0.6095
  463SOL    HW1 1388   1.733   2.046   1.846 -1.3653 -0.9917  2.5320
  463SOL    HW2 1389   1.671   2.152   1.967 -1.7976 -0.5168  0.8198
  464SOL     OW 1390   2.768   2.687   0.824 -0.1860 -0.4764  0.3955
  464SOL    HW1 1391   2.768   2.794   0.816 -1.9544 -0.0025 -0.6147
  464SOL    HW2 1392   2.862   2.653   0.832 -0.9849  1.6942 -2.3807
  465SOL     OW 1393   0.300   0.089   1.410 -0.4126 -0.1699  0.2226
  465SOL    HW1 1394   0.290   0.021   1.482  1.6949 -1.3278  1.9353
  465SOL    HW2 1395   0.334   0.179   1.442  1.1813  1.0823  0.2052
  466SOL     OW 1396   1.297   2.443   2.503  0.3780 -0.0125 -0.1256
  466SOL    HW1 1397   1.283   2.406   2.405 -1.1558 -0.5562 -1.9710
  466SOL    HW2 1398   1.204   2.473   2.545 -2.0215  1.0172  2.0767
  467SOL     OW 1399   2.887   1.810   0.620 -0.3380  0.5717  0.1441
  467SOL    HW1 1400   2.832   1.892   0.596 -0.8881  2.8594 -1.1214
  467SOL    HW2 1401   2.829   1.729   0.596  4.0766  1.4890  0.5466
  468SOL     OW 1402   2.058   1.937   2.665  0.1270 -0.4303 -0.0532
  468SOL    HW1 1403   2.016   1.968   2.580 -0.4197 -4.0528  0.9221
  468SOL    HW2 1404   2.133   1.998   2.694  0.8194 -1.1517  0.4715
  469SOL     OW 1405   1.281   2.117   0.618 -0.1973 -0.2505 -0.0424
  469SOL    HW1 1406   1.337   2.168   0.547  0.2020  0.7875 -0.2883
  469SOL    HW2 1407   1.315   2.021   0.630  2.7395 -2.1115 -2.2597
  470SOL     OW 1408   1.826   1.296   1.440 -0.0563  0.2319  0.5371
  470SOL    HW1 1409   1.777   1.218   1.399 -1.1247 -2.4109  2.2793
  470SOL    HW2 1410   1.874   1.274   1.528 -1.5023 -2.1521 -0.3399
  471SOL     OW 1411   0.380   2.291   0.151 -0.2314  0.1258 -0.7857
  471SOL    HW1 1412   0.318   2.331   0.080  1.2553  1.0082  0.0202
  471SOL    HW2 1413   0.470   2.342   0.159  0.1806  0.3985  0.6682
  472SOL     OW 1414   2.407   1.731   2.494  0.4613 -0.4095  0.2509
  472SOL    HW1 1415   2.449   1.810   2.534 -1.6861 -3.1040 -2.9344
  472SOL    HW2 1416   2.318   1.706   2.537 -2.8125  0.7514  1.0414
  473SOL     OW 1417   1.096   2.079   0.820  0.0295  0.7491  0.4162
  473SOL    HW1 1418   1.155   2.085   0.733 -1.2304  1.1753 -4.4897
  473SOL    HW2 1419   1.036   2.157   0.827  0.7551  1.9652  2.5493
  474SOL     OW 1420   3.041   0.389   1.236  0.2237 -0.0197 -0.2586
  474SOL    HW1 1421   3.053   0.342   1.327  0.7561 -1.7225  1.6933
  474SOL    HW2 1422   2.952   0.354   1.194  0.6157  1.2627 -1.2020
  475SOL     OW 1423   2.159   2.915   1.619 -0.7996 -0.0380  0.2051
  475SOL    HW1 1424   2.245   2.941   1.668  0.9037 -0.3346 -0.6607
  475SOL    HW2 1425   2.178   2.821   1.576  0.1340 -0.5355  2.4776
  476SOL     OW 1426   0.470   0.623   0.655 -0.3925  0.0881 -0.1966
  476SOL    HW1 1427   0.552   0.619   0.598 -1.5196 -0.7364 -1.6773
  476SOL    HW2 1428   0.500   0.674   0.736 -0.1361  0.8072 -1.6165
  477SOL     OW 1429   0.919   1.903   0.933  0.2790  0.0576  0.0441
  477SOL    HW1 1430   0.976   1.856   1.004 -0.9836  1.8876  2.2201
  477SOL    HW2 1431   0.980   1.946   0.866 -0.6525 -3.2087 -0.5465
  478SOL     OW 1432   1.288   2.184   2.783 -0.4268  0.3835 -0.0123
  478SOL    HW1 1433   1.244   2.184   2.690 -0.2638  0.7004 -2.1416
  478SOL    HW2 1434   1.377   2.234   2.779 -1.6381 -0.8551 -0.9825
  479SOL     OW 1435   2.913   1.027   1.812 -0.1198 -0.3347 -0.2842
  479SOL    HW1 1436   2.816   1.011   1.834  1.8008 -0.2584  0.7439
  479SOL    HW2 1437   2.928   1.046   1.714 -1.1997 -0.3984 -0.9392
  480SOL     OW 1438   3.057   2.465   2.936 -0.0981 -0.5557 -0.1251
  480SOL    HW1 1439   3.087   2.459   3.031 -0.0354  2.2317 -0.7703
  480SOL    HW2 1440   3.057   2.367   2.901 -2.7388  0.1502  2.3778
  481SOL     OW 1441   1.518   0.099   2.303  0.2463  0.2507 -0.1856
  481SOL    HW1 1442   1.591   0.027   2.327 -0.5176 -1.4777 -2.0117
  481SOL    HW2 1443   1.549   0.163   2.229  1.3412 -0.6297  2.0699
  482SOL     OW 1444   1.666   2.080   2.891 -0.7147 -0.2449  0.1591
  482SOL    HW1 1445   1.760   2.119   2.882 -2.1819 -1.0602 -1.8324
  482SOL    HW2 1446   1.634   2.069   2.795 -0.6989  0.9003 -0.9490
  483SOL     OW 1447   0.936   2.642   2.716 -0.1554  0.4504  0.7337
  483SOL    HW1 1448   0.864   2.644   2.786  1.4130  0.0642  1.2869
  483SOL    HW2 1449   0.951   2.547   2.680  1.1641 -0.5938  0.4667
  484SOL     OW 1450   0.369   2.585   1.290 -0.0063  0.2821  0.6523
  484SOL    HW1 1451   0.320   2.595   1.378  0.2324 -1.4380 -0.8150
  484SOL    HW2 1452   0.441   2.653   1.280 -1.2456 -2.0105 -0.1996
  485SOL     OW 1453   2.189   0.699   0.638  0.0296  0.1794 -0.3162
  485SOL    HW1 1454   2.110   0.751   0.598  1.3666 -0.1802  1.7361
  485SOL    HW2 1455   2.271   0.757   0.656  0.5222 -1.2047  0.4845
  486SOL     OW 1456   2.403   2.806   2.393  0.1505  0.1775  0.6844
  486SOL    HW1 1457   2.389   2.897   2.351 -0.5629  0.8653  1.2452
  486SOL    HW2 1458   2.359   2.800   2.483 -1.7751  0.0801 -1.3021
  487SOL     OW 1459   1.152   0.966   0.648  0.2159 -0.2428 -0.4784
  487SOL    HW1 1460   1.056   0.988   0.675 -1.4257  1.0325  1.2935
  487SOL    HW2 1461   1.187   1.047   0.607 -1.8594 -4.1158  2.4755
  488SOL     OW 1462   2.555   3.054   2.780  0.0593  0.4104  0.3735
  488SOL    HW1 1463   2.569   2.952   2.765  1.1401 -1.2742  2.8570
  488SOL    HW2 1464   2.594   3.068   2.873 -0.6188  1.5623 -2.4991
  489SOL     OW 1465   1.960   0.107   0.256 -0.3159  0.1926 -0.0595
  489SOL    HW1 1466   2.065   0.100   0.250  1.3817  2.3083 -0.5436
  489SOL    HW2 1467   1.932   0.175   0.322 -1.0949 -0.6512 -0.6079
  490SOL     OW 1468   1.588   0.351   3.035  0.0087 -0.2329 -0.4344
  490SOL    HW1 1469   1.674   0.350   3.094 -0.6466 -1.1396  0.4506
  490SOL    HW2 1470   1.611   0.314   2.948  2.5163  0.4694  1.8971
  491SOL     OW 1471   0.662   0.041   1.272  0.0587 -0.2885 -0.1385
  491SOL    HW1 1472   0.694   0.046   1.370  3.6496 -0.5018 -0.5615
  491SOL    HW2 1473   0.750   0.040   1.217  0.4310 -0.1913 -0.5172
  492SOL     OW 1474   1.712   3.080   0.512  0.1996  0.2778 -0.5198
  492SOL    HW1 1475   1.808   3.082   0.543 -0.1870 -0.5798  0.0574
  492SOL    HW2 1476   1.674   2.984   0.501  0.5516 -1.6562 -1.6711
  493SOL     OW 1477   1.081   2.222   2.976 -0.1342  0.0371  0.6975
  493SOL    HW1 1478   1.016   2.145   2.964 -0.9017 -1.1251  0.5910
  493SOL    HW2 1479   1.157   2.219   2.911 -1.6341  1.4837  2.5518
  494SOL     OW 1480   0.522   0.907   1.180  0.0740 -0.0843  0.2682
  494SOL    HW1 1481   0.451   0.944   1.116 -2.6460  0.5504 -1.9012
  494SOL    HW2 1482   0.551   0.818   1.133 -2.4229 -1.2753 -1.9063
  495SOL     OW 1483   2.995   0.346   1.503 -0.0431  0.3105 -0.2399
  495SOL    HW1 1484   3.021   0.405   1.582  1.7169 -0.3783 -3.2268
  495SOL    HW2 1485   2.898   0.362   1.480 -1.6458 -0.7874 -1.6261
  496SOL     OW 1486   2.422   2.594   2.211 -0.5517 -0.1574  0.4588
  496SOL    HW1 1487   2.425   2.681   2.270 -0.3571 -1.0512 -1.9361
  496SOL    HW2 1488   2.456   2.507   2.255  0.0292  1.2721 -0.5321
  497SOL     OW 1489   1.845   1.179   2.725 -0.0737 -0.1476 -0.2563
  497SOL    HW1 1490   1.951   1.183   2.737  1.2537  1.4736 -0.1393
  497SOL    HW2 1491   1.797   1.256   2.769  0.6421  2.5444  2.6792
  498SOL     OW 1492   0.891   2.046   0.555 -0.1378  0.5405 -0.0588
  498SOL    HW1 1493   0.944   1.956   0.565  0.2356 -0.4387  0.6125
  498SOL    HW2 1494   0.826   2.056   0.638 -2.0754 -0.8417  0.9633
  499SOL     OW 1495   0.194   1.650   0.891 -0.3958 -0.3072 -0.1226
  499SOL    HW1 1496   0.126   1.716   0.860  0.2050 -0.5702 -0.6449
  499SOL    HW2 1497   0.218   1.592   0.810  1.0165  0.4577 -2.8018
  500SOL     OW 1498   1.283   2.696   0.474  0.0135  0.4908  0.1359
  500SOL    HW1 1499   1.233   2.776   0.445 -0.5692  1.0430  2.3098
  500SOL    HW2 1500   1.346   2.717   0.548 -0.4937  0.7034 -1.8097
  501SOL     OW 1501   1.982   2.655   1.043  0.1673  0.2032  0.4200
  501SOL    HW1 1502   1.992   2.628   0.942  0.9124 -0.3050  0.3114
  501SOL    HW2 1503   2.029   2.581   1.095 -1.7231 -1.6752 -2.0764
  502SOL     OW 1504   0.277   0.515   1.401 -0.2462 -0.4052 -0.1071
  502SOL    HW1 1505   0.227   0.509   1.310 -1.5702 -0.1459 -1.7078
  502SOL    HW2 1506   0.357   0.581   1.398  1.8138  2.6621 -2.5861
  503SOL     OW 1507   1.940   3.031   1.704  0.4600 -0.1610 -0.2266
  503SOL    HW1 1508   1.932   0.023   1.647 -0.0204  1.9981  1.0311
  503SOL    HW2 1509   2.025   2.980   1.664  0.7676 -1.9552 -0.0973
  504SOL     OW 1510   2.109   0.880   1.902 -0.1875 -0.0987 -0.6210
  504SOL    HW1 1511   2.051   0.839   1.827 -0.7938 -0.8745 -0.6302
  504SOL    HW2 1512   2.050   0.943   1.955 -0.9869 -0.6103 -1.4360
  505SOL     OW 1513   1.290   0.189   2.507  0.0401 -0.3711 -0.6570
  505SOL    HW1 1514   1.306   0.168   2.607 -0.3377  1.4252  2.6372
  505SOL    HW2 1515   1.371   0.222   2.457 -2.5414  1.1814  1.6434
  506SOL     OW 1516   0.631   0.620   1.870 -0.1040 -0.3939  0.1323
  506SOL    HW1 1517   0.600   0.550   1.933 -2.4212  1.9320 -0.5601
  506SOL    HW2 1518   0.647   0.707   1.927  2.9656  2.2684  1.8209
  507SOL     OW 1519   1.782   0.330   0.127  0.0520 -0.0588 -0.2511
  507SOL    HW1 1520   1.744   0.368   0.214  0.3396 -0.6666 -1.1019
  507SOL    HW2 1521   1.883   0.310   0.136  4.1872 -2.1054  1.8024
  508SOL     OW 1522   2.182   0.467   1.901  0.1995 -0.1332 -0.3487
  508SOL    HW1 1523   2.195   0.547   1.963 -0.7460  1.4162 -0.3259
  508SOL    HW2 1524   2.090   0.475   1.862 -1.3512  1.8837 -3.6678
  509SOL     OW 1525   0.768   1.685   2.493 -0.4159 -0.6479  0.1415
  509SOL    HW1 1526   0.673   1.698   2.464 -1.7520 -0.1446 -0.5298
  509SOL    HW2 1527   0.827   1.698   2.416  1.5063  0.0707  3.0217
  510SOL     OW 1528   2.898   0.633   0.518 -0.0549 -0.2151  0.2678
  510SOL    HW1 1529   2.926   0.687   0.431 -1.0891  0.4903  0.2284
  510SOL    HW2 1530   2.953   0.663   0.598  4.1906  1.5848  1.3729
  511SOL     OW 1531   1.638   1.375   1.626 -0.3558 -0.4221  0.4278
  511SOL    HW1 1532   1.631   1.275   1.637  1.9694 -0.7323  1.6977
  511SOL    HW2 1533   1.721   1.393   1.574 -1.0994 -2.3153  0.4621
  512SOL     OW 1534   0.437   1.733   0.509  0.2426  0.3942  0.0237
  512SOL    HW1 1535   0.519   1.674   0.511  4.5754 -0.9543  1.6352
  512SOL    HW2 1536   0.462   1.835   0.528 -0.1157  2.5427 -1.4827
  513SOL     OW 1537   0.524   2.419   0.911 -0.2851 -0.4381 -0.2073
  513SOL    HW1 1538   0.496   2.519   0.910  0.7948  0.1208 -0.7108
  513SOL    HW2 1539   0.600   2.408   0.980 -1.6037 -0.6405  1.1683
  514SOL     OW 1540   0.499   2.156   0.341  0.8925 -0.1773  0.1581
  514SOL    HW1 1541   0.456   2.201   0.261  1.8444 -2.8640  1.4978
  514SOL    HW2 1542   0.581   2.207   0.368 -2.0503 -0.6664 -2.2519
  515SOL     OW 1543   0.234   3.006   0.102  0.0985 -0.0437 -0.3500
  515SOL    HW1 1544   0.257   2.972   0.190 -0.5909 -1.0509 -3.6534
  515SOL    HW2 1545   0.203   0.008   0.108  1.6266  0.9907  0.3129
  516SOL     OW 1546   2.071   0.121   1.259  0.0277 -0.0405 -0.2727
  516SOL    HW1 1547   1.974   0.156   1.242  2.1613  1.6877  0.0356
  516SOL    HW2 1548   2.079   0.022   1.261  0.7189  1.4582 -0.1029
  517SOL     OW 1549   1.555   1.459   0.416 -0.3183 -0.5803  0.1118
  517SOL    HW1 1550   1.516   1.545   0.447 -2.8995 -3.5628 -0.2529
  517SOL    HW2 1551   1.570   1.404   0.499  0.0787  2.4320 -0.4114
  518SOL     OW 1552   1.353   3.088   0.878  0.3556  0.5438  0.4359
  518SOL    HW1 1553   1.312   0.076   0.917  0.7153  1.8758  1.4050
  518SOL    HW2 1554   1.333   3.069   0.784  1.4477 -0.9778  2.1733
  519SOL     OW 1555   2.934   2.279   0.381 -0.3880 -0.4102 -0.2608
  519SOL    HW1 1556   2.974   2.185   0.375  1.8381 -1.0775  0.8542
  519SOL    HW2 1557   2.989   2.350   0.434 -1.3932  1.2048  1.4023
  520SOL     OW 1558   1.768   2.276   2.072  0.0668  0.5857  0.1542
  520SOL    HW1 1559   1.808   2.182   2.093  0.9182 -3.4886  0.1700
  520SOL    HW2 1560   1.705   2.309   2.146 -2.2429  1.6210  0.3285
  521SOL     OW 1561   1.334   3.053   2.174  0.0549 -0.5576  0.2222
  521SOL    HW1 1562   1.308   2.960   2.203 -1.9776  1.8748 -0.4203
  521SOL    HW2 1563   1.390   0.004   2.244  1.7013 -0.0639 -0.7784
  522SOL     OW 1564   3.088   2.762   2.007 -0.0580 -0.1035 -0.3491
  522SOL    HW1 1565   3.020   2.749   1.932  0.8200  0.1025  3.6929
  522SOL    HW2 1566   3.065   2.700   2.083 -2.3346 -1.7557 -0.3192
  523SOL     OW 1567   0.850   2.112   1.835 -0.4707 -0.1934  0.8909
  523SOL    HW1 1568   0.861   2.209   1.866 -0.5038  0.8961  1.2984
  523SOL    HW2 1569   0.909   2.093   1.755 -0.6956 -1.7265  1.2108
  524SOL     OW 1570   2.304   2.150   0.142 -0.5650 -0.1216 -0.2480
  524SOL    HW1 1571   2.296   2.145   0.245  1.3769 -0.1208  1.1267
  524SOL    HW2 1572   2.397   2.197   0.127  1.5072  0.4220 -0.6020
  525SOL     OW 1573   2.790   0.496   2.931 -0.4705  0.1902 -0.5830
  525SOL    HW1 1574   2.786   0.559   3.016 -1.5616  1.5336  4.5717
  525SOL    HW2 1575   2.880   0.509   2.883  1.3934  1.0748 -1.8369
  526SOL     OW 1576   0.617   2.892   0.637  0.2026 -0.5739 -0.1994
  526SOL    HW1 1577   0.655   2.957   0.706  0.1841 -1.8292 -1.4705
  526SOL    HW2 1578   0.595   2.936   0.548 -0.0175 -1.7656  1.1695
  527SOL     OW 1579   2.803   1.313   0.411  0.0735  0.2977  0.1324
  527SOL    HW1 1580   2.851   1.225   0.384  0.0408 -0.6950  1.4418
  527SOL    HW2 1581   2.700   1.296   0.425 -1.0383  0.2298 -1.0233
  528SOL     OW 1582   0.857   0.801   2.305  0.1991  0.4113 -0.6797
  528SOL    HW1 1583   0.830   0.709   2.340  1.4608 -0.6254 -1.2037
  528SOL    HW2 1584   0.781   0.857   2.334  1.7186 -2.3821 -0.2039
  529SOL     OW 1585   0.561   1.515   3.075 -0.2760  0.2828 -0.2016
  529SOL    HW1 1586   0.541   1.526   0.075  0.5295  0.9441 -0.7592
  529SOL    HW2 1587   0.482   1.552   3.022 -1.7762 -1.5103 -2.3005
  530SOL     OW 1588   1.328   1.024   2.058 -0.0340 -0.8134  0.5817
  530SOL    HW1 1589   1.420   1.071   2.058  3.9076  2.0512  2.4851
  530SOL    HW2 1590   1.312   0.975   2.142  0.5327 -0.0953 -0.4811
  531SOL     OW 1591   1.267   2.334   0.063  0.0493 -0.5115  0.6216
  531SOL    HW1 1592   1.187   2.308   0.001 -1.7864 -0.8659  1.3509
  531SOL    HW2 1593   1.274   2.271   0.144  0.5354  3.8003 -1.2979
  532SOL     OW 1594   2.360   1.132   2.459 -0.0545 -0.4200 -0.0903
  532SOL    HW1 1595   2.305   1.066   2.516 -0.9264 -0.3452  1.4268
  532SOL    HW2 1596   2.354   1.224   2.497  0.1318 -0.5571 -0.5869
  533SOL     OW 1597   0.042   0.162   1.815  0.4665 -0.0269  0.1082
  533SOL    HW1 1598   0.030   0.084   1.876 -0.3836 -0.1871  2.3145
  533SOL    HW2 1599   3.066   0.230   1.835 -3.0796 -0.8126 -0.3101
  534SOL     OW 1600   2.226   0.075   0.272  0.0013 -0.5318  0.1263
  534SOL    HW1 1601   2.265   0.092   0.181 -0.9799 -2.7875  2.3451
  534SOL    HW2 1602   2.278   0.131   0.347  3.0356 -0.4078  2.2087
  535SOL     OW 1603   0.635   3.008   0.045  0.0546 -0.1857  1.0105
  535SOL    HW1 1604   0.732   3.035   0.028  1.2084  0.0824  1.2442
  535SOL    HW2 1605   0.569   3.088   0.058  0.6694  2.3961 -1.6485
  536SOL     OW 1606   0.660   1.835   1.476 -0.2412 -0.3438  0.0691
  536SOL    HW1 1607   0.575   1.883   1.509  1.9620  0.8517  0.1658
  536SOL    HW2 1608   0.735   1.901   1.463 -0.4842 -1.5738 -1.4822
  537SOL     OW 1609   3.088   2.580   1.489 -0.3063 -0.0048 -0.3263
  537SOL    HW1 1610   3.058   2.550   1.397 -0.5193 -2.1504 -1.0377
  537SOL    HW2 1611   3.040   2.532   1.566 -2.5646 -1.6790  0.0191
  538SOL     OW 1612   3.013   2.014   0.373  0.5166  0.3548  0.5425
  538SOL    HW1 1613   3.097   2.033   0.430  0.9278 -1.2839  0.6609
  538SOL    HW2 1614   2.992   1.917   0.382  2.1373  3.8359  0.9921
  539SOL     OW 1615   2.641   1.084   2.440  0.2435 -0.6109  0.1276
  539SOL    HW1 1616   2.544   1.115   2.443  2.6306  2.1317 -1.6981
  539SOL    HW2 1617   2.687   1.129   2.361  1.8823 -1.2323 -3.9334
  540SOL     OW 1618   1.846   1.007   2.952  0.0008 -0.0678  0.7124
  540SOL    HW1 1619   1.852   1.049   2.864 -1.8726  2.0236  0.0760
  540SOL    HW2 1620   1.880   1.076   3.018  1.1083  0.6617 -1.1537
  541SOL     OW 1621   0.739   0.600   2.446  0.2052  0.1738  0.0468
  541SOL    HW1 1622   0.760   0.502   2.460 -2.0670 -1.6245  1.1223
  541SOL    HW2 1623   0.636   0.617   2.436 -0.9067 -1.0752 -1.2890
  542SOL     OW 1624   1.422   2.576   2.165  0.4712  0.6379  0.1380
  542SOL    HW1 1625   1.353   2.655   2.173  0.5109  5.0267  1.0691
  542SOL    HW2 1626   1.499   2.605   2.100  2.4104 -0.3269 -1.0619
  543SOL     OW 1627   0.921   2.689   0.565 -0.7245 -0.5870  0.6205
  543SOL    HW1 1628   0.996   2.624   0.553 -0.1766  3.3595  0.5428
  543SOL    HW2 1629   0.862   2.666   0.643  2.4110  3.8563  0.4319
  544SOL     OW 1630   2.786   1.746   2.408 -0.0388  0.0156  0.6357
  544SOL    HW1 1631   2.728   1.668   2.443 -0.8730  0.3759  1.3277
  544SOL    HW2 1632   2.863   1.711   2.352  2.8061  0.9755  1.2905
  545SOL     OW 1633   1.358   2.013   1.561  0.1861  0.2077 -0.6079
  545SOL    HW1 1634   1.281   2.009   1.630 -3.1249  1.4834  1.2741
  545SOL    HW2 1635   1.330   2.052   1.473 -1.2493 -0.1145  0.0812
  546SOL     OW 1636   0.213   0.268   2.526  0.7249  0.1638 -0.4334
  546SOL    HW1 1637   0.296   0.297   2.480 -2.2213 -1.9831 -1.3770
  546SOL    HW2 1638   0.220   0.171   2.554 -1.0184  1.5644  0.5372
  547SOL     OW 1639   0.937   0.286   0.643 -0.1370 -0.1853  0.1466
  547SOL    HW1 1640   0.894   0.340   0.567  0.0610  2.0843 -1.2520
  547SOL    HW2 1641   1.029   0.329   0.644 -0.5869 -1.2948  0.3678
  548SOL     OW 1642   1.494   2.086   0.009  0.0513 -0.0537 -0.3833
  548SOL    HW1 1643   1.413   2.044   3.066  1.0732 -1.4417  1.5510
  548SOL    HW2 1644   1.572   2.082   3.035  3.2496  1.2744 -0.5569
  549SOL     OW 1645   2.266   1.013   0.150  0.1541 -0.2996  0.0273
  549SOL    HW1 1646   2.229   1.106   0.149  0.8816 -1.9668  1.6548
  549SOL    HW2 1647   2.330   1.003   0.230  1.5695 -2.2313 -0.3329
  550SOL     OW 1648   2.668   2.336   0.567  0.0970  0.1487  0.2944
  550SOL    HW1 1649   2.600   2.393   0.517  1.6685 -0.1209 -1.6446
  550SOL    HW2 1650   2.753   2.325   0.511 -1.6858  1.7419  1.1822
  551SOL     OW 1651   0.980   0.356   1.550 -0.0189 -0.6086  0.3610
  551SOL    HW1 1652   1.014   0.261   1.535  0.3705  1.8803 -0.9063
  551SOL    HW2 1653   0.925   0.382   1.467 -1.7548  0.6879 -2.0648
  552SOL     OW 1654   2.885   1.713   2.836  0.2002  0.3170 -0.3909
  552SOL    HW1 1655   2.882   1.641   2.759  0.6333 -3.2236 -1.3493
  552SOL    HW2 1656   2.978   1.726   2.877 -0.3721 -1.0395  1.8438
  553SOL     OW 1657   2.546   2.728   0.655  0.8341  0.5261  0.0169
  553SOL    HW1 1658   2.586   2.755   0.566  1.1210 -0.4067 -0.7802
  553SOL    HW2 1659   2.623   2.693   0.710 -2.6084  0.6030 -0.5894
  554SOL     OW 1660   2.044   1.114   1.545 -0.2247  0.1896  0.2075
  554SOL    HW1 1661   2.087   1.162   1.467  1.2265 -0.0047 -1.1170
  554SOL    HW2 1662   2.045   1.178   1.629 -0.2044  1.5460  4.2430
  555SOL     OW 1663   1.210   2.058   2.036 -0.6737 -0.0992  0.2881
  555SOL    HW1 1664   1.186   2.014   1.946  1.0138 -1.0243 -0.9187
  555SOL    HW2 1665   1.252   1.990   2.097 -0.2528 -0.5087  1.3206
  556SOL     OW 1666   1.252   1.494   1.736  0.1239  0.5422  0.5778
  556SOL    HW1 1667   1.336   1.554   1.748 -0.1567 -2.0296 -0.5688
  556SOL    HW2 1668   1.276   1.394   1.761 -0.5783 -0.7158  0.1218
  557SOL     OW 1669   1.611   0.042   1.458  0.1376  0.2368  0.3828
  557SOL    HW1 1670   1.615   0.001   1.550 -0.2908  0.6495 -1.4686
  557SOL    HW2 1671   1.661   3.083   1.386  3.6494 -0.0028 -2.0411
  558SOL     OW 1672   0.921   2.893   2.111 -0.5220  0.2662 -0.4849
  558SOL    HW1 1673   0.828   2.854   2.090 -1.6304  2.1243 -0.6080
  558SOL    HW2 1674   0.982   2.878   2.033  0.3483  1.0674  1.4908
  559SOL     OW 1675   1.768   2.564   0.317 -0.0106  0.3543  0.2582
  559SOL    HW1 1676   1.670   2.588   0.311  1.0524  0.3681  0.3285
  559SOL    HW2 1677   1.788   2.553   0.415 -0.3864 -1.2001 -0.0845
  560SOL     OW 1678   1.632   2.163   0.322 -0.1005 -0.3090  0.6927
  560SOL    HW1 1679   1.579   2.075   0.308  1.4884 -0.9383 -0.4297
  560SOL    HW2 1680   1.660   2.208   0.234  1.1451  1.1056  0.3821
  561SOL     OW 1681   1.521   0.156   0.581  0.4329  0.1432  0.2553
  561SOL    HW1 1682   1.602   0.101   0.565  0.8207  1.2689 -1.4903
  561SOL    HW2 1683   1.444   0.147   0.513 -0.0979 -1.1544 -0.0667
  562SOL     OW 1684   0.409   1.144   1.847 -0.4574  0.7058  0.0291
  562SOL    HW1 1685   0.468   1.156   1.766 -0.1008  2.1343  0.4359
  562SOL    HW2 1686   0.462   1.163   1.935 -1.0732  1.2795 -0.2174
  563SOL     OW 1687   1.473   2.345   2.678 -0.4918 -0.1021  0.2926
  563SOL    HW1 1688   1.394   2.375   2.614 -0.1881 -1.3221 -2.7193
  563SOL    HW2 1689   1.534   2.275   2.631 -1.7452 -2.1258 -2.5617
  564SOL     OW 1690   2.975   0.962   0.607  0.8176 -0.3688  0.4787
  564SOL    HW1 1691   3.037   1.040   0.587  1.7387  1.2574  0.1052
  564SOL    HW2 1692   3.029   0.874   0.618 -1.3657  1.7328  0.3425
  565SOL     OW 1693   0.629   1.266   0.052 -0.1764  0.0656 -0.3931
  565SOL    HW1 1694   0.585   1.340   0.004 -0.7970 -1.3489  1.6629
  565SOL    HW2 1695   0.722   1.292   0.088  1.5682  1.1354 -1.1048
  566SOL     OW 1696   2.154   2.515   2.976  0.3994 -0.2883 -0.0462
  566SOL    HW1 1697   2.235   2.477   3.020 -1.6947  0.5347 -0.9678
  566SOL    HW2 1698   2.153   2.615   2.992  1.0002  2.1586  0.1944
  567SOL     OW 1699   1.390   1.308   1.531  0.3382  0.1395  0.4386
  567SOL    HW1 1700   1.456   1.361   1.580 -1.3064 -0.6363 -1.3076
  567SOL    HW2 1701   1.331   1.259   1.594  0.5059  0.8861 -1.7717
  568SOL     OW 1702   1.482   1.259   2.738  0.4866  0.2049  0.0788
  568SOL    HW1 1703   1.504   1.163   2.737 -2.8923  2.0279 -0.9918
  568SOL    HW2 1704   1.557   1.306   2.783 -0.8916 -1.2060 -0.2827
  569SOL     OW 1705   2.012   1.638   0.525  0.1992 -0.3421  0.3647
  569SOL    HW1 1706   2.004   1.735   0.552  0.6065 -0.1115  1.4124
  569SOL    HW2 1707   1.950   1.578   0.585  1.6924  0.0762  2.0274
  570SOL     OW 1708   2.671   1.995   2.372  0.3837  0.3073 -0.3966
  570SOL    HW1 1709   2.711   2.064   2.312  2.0453 -0.4028 -0.4357
  570SOL    HW2 1710   2.733   1.918   2.402  2.7687 -3.5643 -1.1651
  571SOL     OW 1711   2.696   1.648   1.922  0.1049 -0.5921  0.3217
  571SOL    HW1 1712   2.791   1.665   1.878  0.6298 -1.2979 -2.3691
  571SOL    HW2 1713   2.685   1.694   2.010  2.4383 -1.4400 -1.4967
  572SOL     OW 1714   1.506   2.643   0.303 -0.2844 -0.0104 -0.3535
  572SOL    HW1 1715   1.419   2.634   0.353  0.5166  0.1721 -0.0758
  572SOL    HW2 1716   1.498   2.615   0.206 -0.0998 -0.0742  1.5676
  573SOL     OW 1717   1.412   1.840   0.611  0.2843 -0.0658  0.3386
  573SOL    HW1 1718   1.495   1.889   0.653  1.2250  0.1277  0.2737
  573SOL    HW2 1719   1.344   1.822   0.686  0.4993  0.6478 -1.9396
  574SOL     OW 1720   1.107   3.011   1.570 -0.6400 -0.6327  0.0358
  574SOL    HW1 1721   1.202   2.997   1.610  3.4554 -0.9012 -1.8823
  574SOL    HW2 1722   1.035   3.035   1.639  0.1459 -0.9270  0.2822
  575SOL     OW 1723   1.043   0.680   1.300 -0.1420  0.6355  0.4274
  575SOL    HW1 1724   1.021   0.711   1.209 -1.1127 -3.7904  1.1065
  575SOL    HW2 1725   1.017   0.744   1.373  2.2825 -1.0391 -1.9614
  576SOL     OW 1726   2.806   0.279   1.117 -0.0640 -0.0012  0.3577
  576SOL    HW1 1727   2.808   0.330   1.026  0.7742 -0.5378 -0.1282
  576SOL    HW2 1728   2.716   0.282   1.163  2.2696 -0.3710 -1.3420
  577SOL     OW 1729   2.325   0.625   2.704 -0.3300  0.2413  0.0823
  577SOL    HW1 1730   2.261   0.652   2.779  2.9118 -2.6564 -2.2351
  577SOL    HW2 1731   2.379   0.702   2.668 -1.0123  0.1875  0.3933
  578SOL     OW 1732   1.841   1.621   2.323  0.4001  0.0763 -0.2176
  578SOL    HW1 1733   1.835   1.647   2.423 -3.4563  0.8123  0.4942
  578SOL    HW2 1734   1.926   1.654   2.285 -2.3153 -0.3663  0.6813
  579SOL     OW 1735   0.565   1.278   1.006  0.0565 -0.0386  0.3115
  579SOL    HW1 1736   0.479   1.296   1.054 -1.5819  1.0563 -1.0467
  579SOL    HW2 1737   0.607   1.363   0.974 -0.0393 -2.3467 -1.5516
  580SOL     OW 1738   1.439   2.555   0.048  0.4237  0.6270 -0.2902
  580SOL    HW1 1739   1.370   2.486   0.086 -1.0532  3.1735  2.4928
  580SOL    HW2 1740   1.430   2.550   3.046 -3.1638  1.0696 -2.6751
  581SOL     OW 1741   0.931   0.820   2.048  0.0883 -0.4583 -0.2581
  581SOL    HW1 1742   0.912   0.814   2.147  0.4962 -0.2650  1.1040
  581SOL    HW2 1743   1.017   0.776   2.017 -0.2360  0.0855 -0.9187
  582SOL     OW 1744   0.486   1.045   0.934 -0.3273 -0.0376 -0.1404
  582SOL    HW1 1745   0.394   1.044   0.892  0.3314 -0.6450 -0.3554
  582SOL    HW2 1746   0.523   1.138   0.956  0.1686  1.0301  2.2923
  583SOL     OW 1747   1.159   1.611   2.114  0.4569 -0.0147 -0.1371
  583SOL    HW1 1748   1.204   1.704   2.133 -1.8972  2.5897 -0.6155
  583SOL    HW2 1749   1.225   1.542   2.143 -1.6693  0.8971 -1.6208
  584SOL     OW 1750   2.365   2.860   0.294 -0.3690 -0.3159  0.0064
  584SOL    HW1 1751   2.459   2.895   0.299 -1.4791 -1.3809 -0.5878
  584SOL    HW2 1752   2.301   2.895   0.361  0.0583  0.4156  0.9475
  585SOL     OW 1753   1.922   0.755   3.013 -0.2371  0.5306  0.5701
  585SOL    HW1 1754   1.903   0.850   2.991  3.5339 -1.2982  0.9091
  585SOL    HW2 1755   1.890   0.741   0.010 -0.8780 -0.5884 -2.8253
  586SOL     OW 1756   0.250   1.851   0.367 -0.0955 -0.3504  0.1594
  586SOL    HW1 1757   0.185   1.782   0.352  2.7895  2.7024  1.2428
  586SOL    HW2 1758   0.332   1.811   0.409 -1.4833  3.1974  1.1729
  587SOL     OW 1759   1.731   2.110   0.918  0.3010 -0.0079 -0.9043
  587SOL    HW1 1760   1.821   2.158   0.895 -0.4387 -0.5994 -1.2739
  587SOL    HW2 1761   1.728   2.080   1.016 -0.4632  1.0139 -0.7442
  588SOL     OW 1762   0.537   0.793   0.840 -0.1636  0.1864 -0.1196
  588SOL    HW1 1763   0.593   0.766   0.924  1.9074  1.0179  0.1332
  588SOL    HW2 1764   0.530   0.895   0.844  0.7872 -1.0236 -2.2550
  589SOL     OW 1765   1.168   0.222   0.960  0.4264 -0.0405  0.1663
  589SOL    HW1 1766   1.084   0.228   0.901  0.6460 -1.4481 -1.8451
  589SOL    HW2 1767   1.143   0.244   1.056  1.6203  2.0639 -0.4052
  590SOL     OW 1768   1.341   0.837   0.335 -0.6209  0.2471  0.4568
  590SOL    HW1 1769   1.394   0.915   0.377  1.7037 -1.5603  0.3580
  590SOL    HW2 1770   1.398   0.776   0.274  1.7576 -1.4475  0.4596
  591SOL     OW 1771   2.578   2.386   1.946  0.2181  0.3636  0.4613
  591SOL    HW1 1772   2.529   2.363   1.855 -1.0024 -0.1632 -0.9411
  591SOL    HW2 1773   2.550   2.477   1.979  0.3032 -1.5692 -0.5232
  592SOL     OW 1774   1.418   1.920   1.175  0.9801  0.1274 -0.3739
  592SOL    HW1 1775   1.505   1.976   1.168 -1.7876  0.5611  0.0236
  592SOL    HW2 1776   1.369   1.978   1.243 -2.1984 -0.5724  0.4689
  593SOL     OW 1777   1.008   2.903   0.714 -0.0352 -0.4370  0.1555
  593SOL    HW1 1778   1.002   2.870   0.812  2.6846  1.6240  0.5931
  593SOL    HW2 1779   0.965   2.833   0.656 -1.3406 -2.2450  0.6120
  594SOL     OW 1780   0.256   0.906   1.869  0.1710  0.2462 -0.1256
  594SOL    HW1 1781   0.253   0.885   1.769  0.4834  0.2927  4.0890
  594SOL    HW2 1782   0.324   0.978   1.887 -0.8119  1.6208  0.4287
  595SOL     OW 1783   3.072   2.637   0.859  0.6225  0.7916  0.1707
  595SOL    HW1 1784   0.063   2.598   0.815  4.0258 -0.0478 -3.9242
  595SOL    HW2 1785   3.090   2.726   0.898  1.5855 -2.9532 -0.7907
  596SOL     OW 1786   3.092   0.575   1.707  0.4797  0.7730 -0.0856
  596SOL    HW1 1787   0.092   0.543   1.708  1.6055 -0.6769 -0.8426
  596SOL    HW2 1788   3.084   0.649   1.774  0.4529 -2.9239 -1.8998
  597SOL     OW 1789   2.031   1.592   0.859  0.9056  0.1016  0.3526
  597SOL    HW1 1790   1.962   1.664   0.861 -1.2680 -0.9018  1.1670
  597SOL    HW2 1791   2.014   1.519   0.793  1.5465  1.7777 -0.6164
  598SOL     OW 1792   0.725   2.712   2.025 -0.5492 -0.0330  0.2082
  598SOL    HW1 1793   0.770   2.686   1.936 -0.9932 -0.8690  0.1952
  598SOL    HW2 1794   0.626   2.739   2.003 -0.0830 -1.7288 -0.4627
  599SOL     OW 1795   2.691   1.977   3.001  0.7475  0.4537 -0.2623
  599SOL    HW1 1796   2.664   1.922   2.917  0.7812 -3.4552 -0.6390
  599SOL    HW2 1797   2.671   1.923   3.085 -1.6794 -0.6117  1.4901
  600SOL     OW 1798   0.872   0.946   0.014 -0.4157  0.5873 -0.5544
  600SOL    HW1 1799   0.859   0.960   3.016  1.5980 -0.4404  2.0166
  600SOL    HW2 1800   0.788   0.978   0.063  1.4263  2.8973 -0.7768
  601SOL     OW 1801   1.066   1.099   0.179 -0.5822 -0.3466 -0.2322
  601SOL    HW1 1802   1.003   1.023   0.154  0.1540  0.0625 -0.6204
  601SOL    HW2 1803   1.161   1.074   0.151 -2.7428  0.2174  3.3335
  602SOL     OW 1804   1.407   2.721   1.111  0.2192  0.9282 -0.3380
  602SOL    HW1 1805   1.455   2.667   1.033  1.7195  0.3649 -0.5747
  602SOL    HW2 1806   1.413   2.820   1.102  0.7072 -4.1669 -0.4455
  603SOL     OW 1807   0.924   3.078   2.306 -0.2198  0.2985 -0.3372
  603SOL    HW1 1808   0.934   3.028   2.221  2.1199  1.5557 -0.6864
  603SOL    HW2 1809   1.015   3.082   2.354  2.4680  1.0166 -1.0658
  604SOL     OW 1810   3.047   0.090   2.210 -0.1687  0.6302  0.0178
  604SOL    HW1 1811   3.047   0.021   2.284 -1.1895 -2.6549 -2.4879
  604SOL    HW2 1812   3.074   0.184   2.239  0.0864 -0.7624 -1.8455
  605SOL     OW 1813   2.601   2.248   1.334 -0.2145 -1.0889  0.2494
  605SOL    HW1 1814   2.549   2.169   1.371 -0.1719  2.5223 -0.4646
  605SOL    HW2 1815   2.654   2.291   1.411 -0.7192  2.2597 -0.2789
  606SOL     OW 1816   0.336   1.604   2.974 -0.2555  0.2625 -0.5027
  606SOL    HW1 1817   0.252   1.553   3.004  1.3068 -1.5050  2.0507
  606SOL    HW2 1818   0.323   1.699   3.003 -1.1970 -0.9071 -0.7458
  607SOL     OW 1819   1.132   0.547   0.373  0.2543 -1.2076  0.4525
  607SOL    HW1 1820   1.221   0.514   0.332 -0.6120 -1.9937 -1.2654
  607SOL    HW2 1821   1.108   0.647   0.349  0.1321  1.6336 -0.7894
  608SOL     OW 1822   1.979   1.263   2.426  0.7456  0.2323 -0.3153
  608SOL    HW1 1823   1.879   1.251   2.409 -1.4283 -2.5905 -0.2954
  608SOL    HW2 1824   1.998   1.348   2.478 -1.5117 -0.6879 -1.0019
  609SOL     OW 1825   3.077   0.315   0.836 -0.1590 -0.0305 -0.0477
  609SOL    HW1 1826   3.073   0.235   0.905 -0.1440 -0.7204  1.8004
  609SOL    HW2 1827   3.001   0.377   0.848  1.8433 -0.5410 -1.8274
  610SOL     OW 1828   0.369   2.364   2.912  0.3122 -0.5397  0.3782
  610SOL    HW1 1829   0.460   2.340   2.946 -2.2290  0.2945 -0.3159
  610SOL    HW2 1830   0.327   2.440   2.966  0.3735  1.6904 -0.8827
  611SOL     OW 1831   2.004   1.218   0.348 -0.2525  0.1019  0.3843
  611SOL    HW1 1832   2.094   1.198   0.307 -0.8350 -1.1082 -1.9013
  611SOL    HW2 1833   1.965   1.306   0.306  0.6763 -0.3897 -1.7541
  612SOL     OW 1834   1.008   2.410   2.606 -0.0966 -0.0431  0.5096
  612SOL    HW1 1835   1.014   2.313   2.635  1.9985 -1.8020 -1.1614
  612SOL    HW2 1836   0.942   2.414   2.531  0.0976 -0.1162 -2.8268
  613SOL     OW 1837   1.258   1.925   3.045  0.1707  0.2347 -0.3618
  613SOL    HW1 1838   1.288   1.826   3.060 -0.6050 -0.3714  2.2084
  613SOL    HW2 1839   1.207   1.929   2.959  0.6958 -2.0051  0.4471
  614SOL     OW 1840   2.481   2.756   1.669 -0.4746 -0.1051 -0.0568
  614SOL    HW1 1841   2.544   2.732   1.743 -2.4936  1.4454  1.0098
  614SOL    HW2 1842   2.468   2.688   1.594  0.8115  0.7491 -0.7398
  615SOL     OW 1843   2.244   1.532   2.985 -0.6504 -0.1667  0.1444
  615SOL    HW1 1844   2.163   1.497   2.938  1.4172  1.8422 -1.8606
  615SOL    HW2 1845   2.290   1.604   2.922  2.1251  3.2280 -4.0500
  616SOL     OW 1846   1.707   0.152   0.810 -0.5470  0.0129 -0.0195
  616SOL    HW1 1847   1.661   0.171   0.898  0.1047  0.4186 -0.3684
  616SOL    HW2 1848   1.640   0.140   0.739 -1.3150 -1.8174  1.9466
  617SOL     OW 1849   0.816   0.930   2.851  0.1522 -0.2058 -0.0449
  617SOL    HW1 1850   0.729   0.905   2.807  0.0101  0.0226  3.4287
  617SOL    HW2 1851   0.847   1.025   2.830  0.9498 -2.1662 -0.4973
  618SOL     OW 1852   0.680   0.860   1.990 -0.6625  0.2910  0.6109
  618SOL    HW1 1853   0.652   0.944   1.942 -0.6789  0.3638  1.7079
  618SOL    HW2 1854   0.784   0.850   1.995 -0.7193 -0.7091  1.8791
  619SOL     OW 1855   0.250   0.857   1.593 -0.1709  0.5307  0.2158
  619SOL    HW1 1856   0.172   0.806   1.545  0.6555 -0.9878  2.4836
  619SOL    HW2 1857   0.328   0.794   1.599  1.1190  0.5181 -0.3519
  620SOL     OW 1858   1.963   1.287   0.005 -0.9233 -0.4188  0.1994
  620SOL    HW1 1859   1.864   1.283   0.029  3.3068  1.6185 -2.0981
  620SOL    HW2 1860   1.986   1.352   3.024  0.8305 -0.4877  0.6416
  621SOL     OW 1861   2.456   3.017   0.986 -0.6345  0.1801  0.1125
  621SOL    HW1 1862   2.508   0.009   0.994 -0.9901  0.9903 -0.9024
  621SOL    HW2 1863   2.453   2.971   1.077  0.3024  2.1006 -0.5772
  622SOL     OW 1864   1.660   0.931   2.385 -0.1150 -0.2711  0.1852
  622SOL    HW1 1865   1.743   0.906   2.333 -0.3012  0.4867  1.3229
  622SOL    HW2 1866   1.584   0.859   2.377 -2.0106  0.1089  0.2865
  623SOL     OW 1867   0.923   0.272   3.067  0.2986  0.3830 -0.3075
  623SOL    HW1 1868   1.023   0.266   3.083  2.4972  1.1427 -0.3085
  623SOL    HW2 1869   0.901   0.362   3.024  1.8059 -2.0431 -0.1575
  624SOL     OW 1870   1.637   0.387   0.365  0.2403 -0.0828  0.0696
  624SOL    HW1 1871   1.566   0.328   0.313  0.2799  0.4094 -0.1611
  624SOL    HW2 1872   1.599   0.424   0.449 -1.3998  0.6933 -0.5481
  625SOL     OW 1873   0.887   1.246   0.974 -0.3695  0.2222 -0.3476
  625SOL    HW1 1874   0.915   1.317   0.905  1.2556 -1.0618 -2.7948
  625SOL    HW2 1875   0.791   1.262   1.007  1.3578 -1.5470  1.1250
  626SOL     OW 1876   1.328   1.075   0.128 -0.5088  0.2963  0.3531
  626SOL    HW1 1877   1.385   1.162   0.141 -0.5954  3.6318  3.3584
  626SOL    HW2 1878   1.357   1.008   0.195 -1.5378  0.8567 -0.2608
  627SOL     OW 1879   1.007   3.057   1.837 -0.5008  0.3840  0.4524
  627SOL    HW1 1880   1.077   0.002   1.901  2.4510  1.0875 -2.9316
  627SOL    HW2 1881   0.915   0.008   1.834 -0.7425 -0.6779  0.4158
  628SOL     OW 1882   2.643   0.196   2.044  0.2443  0.0332  0.5096
  628SOL    HW1 1883   2.714   0.255   2.086 -2.2852 -1.2879  0.5083
  628SOL    HW2 1884   2.554   0.216   2.096 -2.2610  1.2746 -0.0156
  629SOL     OW 1885   0.922   1.178   2.762 -0.2324 -0.1303  0.4855
  629SOL    HW1 1886   0.963   1.210   2.850  1.8131  0.9085  2.5716
  629SOL    HW2 1887   0.971   1.208   2.675  2.9761  2.0977 -2.7737
  630SOL     OW 1888   1.137   0.359   2.374 -0.0158  0.8675 -0.1480
  630SOL    HW1 1889   1.117   0.438   2.434 -2.2874 -0.0363 -0.8656
  630SOL    HW2 1890   1.185   0.287   2.433 -1.4148 -1.3591  2.4481
  631SOL     OW 1891   2.721   1.020   0.654  0.1497  0.0293 -0.4942
  631SOL    HW1 1892   2.716   1.067   0.745 -1.5807 -1.2765  0.5629
  631SOL    HW2 1893   2.814   0.980   0.639  1.2617 -0.6406 -0.3195
  632SOL     OW 1894   2.245   1.155   1.029  0.4302  0.2532  0.6053
  632SOL    HW1 1895   2.342   1.119   1.044  1.4421  0.1022  0.0281
  632SOL    HW2 1896   2.234   1.252   1.062  1.4881 -2.4621  0.5673
  633SOL     OW 1897   1.492   1.012   0.992 -0.0543 -0.3135 -0.0611
  633SOL    HW1 1898   1.575   0.996   0.932  0.0460  1.8433 -3.5066
  633SOL    HW2 1899   1.511   0.984   1.091  1.8977 -1.8622  1.8956
  634SOL     OW 1900   1.920   0.011   0.746  0.0822 -0.2706 -0.4619
  634SOL    HW1 1901   1.857   0.084   0.772  0.3952 -0.1325  0.2002
  634SOL    HW2 1902   2.014   0.029   0.788  0.6999 -2.2084  1.1749
  635SOL     OW 1903   1.663   0.756   1.481  0.0508 -0.3280  0.3113
  635SOL    HW1 1904   1.725   0.826   1.518  1.9701 -2.0722  1.1306
  635SOL    HW2 1905   1.574   0.777   1.528  1.6830 -1.4670 -0.0402
  636SOL     OW 1906   0.889   1.021   0.492 -0.0638 -0.1840 -0.2813
  636SOL    HW1 1907   0.812   0.977   0.450  3.6927  0.6762  2.2740
  636SOL    HW2 1908   0.872   1.014   0.591  1.9276  0.9554 -1.2100
  637SOL     OW 1909   1.631   2.325   0.092  0.0503  0.0947 -0.5737
  637SOL    HW1 1910   1.587   2.415   0.091 -1.6255 -1.7570 -1.2431
  637SOL    HW2 1911   1.566   2.258   0.051  1.4055 -0.9719 -0.0297
  638SOL     OW 1912   1.309   2.828   2.965  1.1924  0.0226  0.2121
  638SOL    HW1 1913   1.295   2.828   3.066  0.7747 -0.6340 -1.2549
  638SOL    HW2 1914   1.409   2.837   2.943  2.1332  2.9882 -0.0709
  639SOL     OW 1915   0.748   2.076   1.073 -0.8426  0.0090 -0.2966
  639SOL    HW1 1916   0.813   2.029   1.013 -2.0412  0.7902  0.8298
  639SOL    HW2 1917   0.689   2.004   1.109  2.4991  0.0746  0.3155
  640SOL     OW 1918   0.323   2.857   0.324  0.0272  0.2263  0.0053
  640SOL    HW1 1919   0.301   2.848   0.424  0.9146  0.3735 -0.5877
  640SOL    HW2 1920   0.419   2.876   0.300 -0.2348  1.5168  1.0230
  641SOL     OW 1921   0.181   0.192   0.085 -0.2112 -0.4502  0.2247
  641SOL    HW1 1922   0.223   0.255   0.158  0.9166  1.6193 -0.1566
  641SOL    HW2 1923   0.187   0.241   3.092  0.4530 -1.3654  0.1715
  642SOL     OW 1924   0.106   1.528   1.135  0.1185  0.5080  0.0708
  642SOL    HW1 1925   0.089   1.559   1.039 -1.0251 -1.4769  1.7854
  642SOL    HW2 1926   0.046   1.584   1.197 -2.4548  0.3025  0.2226
  643SOL     OW 1927   0.915   1.740   2.270  0.0778  0.1883 -0.1608
  643SOL    HW1 1928   0.991   1.672   2.280  1.3062 -1.2158  1.5080
  643SOL    HW2 1929   0.944   1.832   2.231 -2.0191 -0.4668  0.2096
  644SOL     OW 1930   1.780   2.518   0.618 -0.4848  0.2612  0.1299
  644SOL    HW1 1931   1.825   2.425   0.621 -1.3610  0.2006 -1.3535
  644SOL    HW2 1932   1.682   2.507   0.615  0.4529 -0.7125  3.0123
  645SOL     OW 1933   1.621   2.380   1.419 -0.4643  0.1307 -0.1783
  645SOL    HW1 1934   1.653   2.468   1.460 -0.6748  0.4074  0.7819
  645SOL    HW2 1935   1.611   2.317   1.496  0.6696  2.0335 -1.3246
  646SOL     OW 1936   1.167   2.919   0.355 -0.3832  0.0812  0.1300
  646SOL    HW1 1937   1.072   2.935   0.329  1.1355 -0.2400  1.0624
  646SOL    HW2 1938   1.204   2.999   0.407  0.6710  1.2067  0.6986
  647SOL     OW 1939   0.447   2.978   2.098 -0.0355 -0.4346 -0.2378
  647SOL    HW1 1940   0.372   2.908   2.116 -2.5507 -1.6132  0.6617
  647SOL    HW2 1941   0.461   2.985   1.995 -0.2279 -0.1840  2.4732
  648SOL     OW 1942   2.382   0.871   0.639  0.3856  0.8945  0.3812
  648SOL    HW1 1943   2.364   0.966   0.681 -1.3043  0.0451  0.5904
  648SOL    HW2 1944   2.452   0.867   0.567 -0.2809 -2.0284 -0.9857
  649SOL     OW 1945   1.907   2.453   2.883 -0.5110  0.2593  0.2761
  649SOL    HW1 1946   1.990   2.477   2.931 -2.7156 -0.7672  2.2449
  649SOL    HW2 1947   1.831   2.507   2.926  0.9510  0.1656  1.5162
  650SOL     OW 1948   2.479   1.635   1.774 -0.9217 -0.1736 -0.0737
  650SOL    HW1 1949   2.563   1.628   1.831 -1.3759 -1.1160  2.4305
  650SOL    HW2 1950   2.511   1.637   1.673  1.1459  3.6812  0.8218
  651SOL     OW 1951   1.574   1.593   2.889 -0.0726 -0.3975 -0.1542
  651SOL    HW1 1952   1.635   1.667   2.934  1.3856  1.6863  3.4656
  651SOL    HW2 1953   1.514   1.637   2.817 -2.2066 -1.9218 -1.6624
  652SOL     OW 1954   0.857   2.902   2.667  0.4370  0.2242  0.2437
  652SOL    HW1 1955   0.887   2.808   2.691 -0.9787 -0.6827 -1.2890
  652SOL    HW2 1956   0.930   2.975   2.672  0.9019  0.8466 -0.3552
  653SOL     OW 1957   1.974   2.255   0.910  0.3975 -0.4893  0.4147
  653SOL    HW1 1958   1.933   2.301   0.993  0.6373  3.1124  1.6076
  653SOL    HW2 1959   2.074   2.241   0.925  1.8444 -0.5846 -0.2853
  654SOL     OW 1960   2.728   2.859   2.159 -0.3310 -0.7504 -0.4155
  654SOL    HW1 1961   2.648   2.914   2.192 -1.5524 -1.0888  0.1423
  654SOL    HW2 1962   2.784   2.902   2.090  2.0202 -0.9833  0.9468
  655SOL     OW 1963   2.774   2.231   1.113 -0.1624  0.7767 -0.1751
  655SOL    HW1 1964   2.832   2.294   1.058 -2.7519  1.6053 -1.4226
  655SOL    HW2 1965   2.705   2.278   1.171 -0.7811  0.2336 -0.4821
  656SOL     OW 1966   2.923   2.030   2.728 -0.1171  0.0292  0.0130
  656SOL    HW1 1967   2.947   2.028   2.630 -0.7629  0.1785  0.6737
  656SOL    HW2 1968   2.871   1.947   2.754  1.8018 -3.4421  0.8099
  657SOL     OW 1969   2.976   0.815   0.310  0.4788  0.2710  0.6349
  657SOL    HW1 1970   2.891   0.843   0.260 -2.5613  2.6330  0.6988
  657SOL    HW2 1971   3.056   0.803   0.248  1.2111 -0.0358  2.2387
  658SOL     OW 1972   1.413   1.653   1.187  0.0677  0.4447  0.4359
  658SOL    HW1 1973   1.349   1.628   1.260  0.2811  1.9674 -1.3254
  658SOL    HW2 1974   1.429   1.756   1.180 -2.1370 -0.4155 -0.5056
  659SOL     OW 1975   1.150   0.252   1.241  0.9276  0.5521  0.1298
  659SOL    HW1 1976   1.239   0.212   1.263  0.3019 -0.1060  0.6836
  659SOL    HW2 1977   1.079   0.197   1.294 -0.3560 -0.6073 -1.1565
  660SOL     OW 1978   2.146   1.413   1.078 -0.1066  0.0577  0.3933
  660SOL    HW1 1979   2.127   1.484   1.009  2.0005 -2.9782 -0.9684
  660SOL    HW2 1980   2.163   1.450   1.172  2.3457 -0.0569 -1.0760
  661SOL     OW 1981   0.273   1.513   0.239 -0.2563  0.8248  0.3085
  661SOL    HW1 1982   0.202   1.584   0.242  2.6544 -1.8385 -1.3298
  661SOL    HW2 1983   0.363   1.558   0.227 -3.4680 -2.8817 -1.1626
  662SOL     OW 1984   2.731   0.504   1.905 -0.1905 -0.1477  0.2312
  662SOL    HW1 1985   2.628   0.512   1.910  1.6911 -1.7423 -1.6017
  662SOL    HW2 1986   2.777   0.571   1.967  1.0854  1.8825  1.8290
  663SOL     OW 1987   2.204   1.521   1.323 -0.0934  0.0208  0.0565
  663SOL    HW1 1988   2.188   1.618   1.356 -0.6977  0.4059  0.8878
  663SOL    HW2 1989   2.245   1.460   1.395 -0.1381  1.5581  0.1652
  664SOL     OW 1990   0.455   2.993   1.243 -0.2494 -0.2445 -0.3687
  664SOL    HW1 1991   0.379   3.034   1.285  1.3047 -1.2507  0.2314
  664SOL    HW2 1992   0.542   3.044   1.249  1.5585  2.0947 -2.6647
  665SOL     OW 1993   1.395   0.143   3.050 -0.2797 -0.3040 -0.1447
  665SOL    HW1 1994   1.477   0.199   3.067  0.9919  0.0107 -0.7977
  665SOL    HW2 1995   1.422   0.042   3.064  4.1935 -1.1999  2.8416
  666SOL     OW 1996   0.342   0.176   2.168  0.0392 -0.3860  0.1076
  666SOL    HW1 1997   0.390   0.087   2.160 -1.5284 -2.6753  0.0429
  666SOL    HW2 1998   0.369   0.233   2.244  0.4649  2.3014  2.1704
  667SOL     OW 1999   1.653   1.503   1.946  0.2321  0.0970  0.3930
  667SOL    HW1 2000   1.721   1.567   1.901  0.5450  2.8513 -0.0330
  667SOL    HW2 2001   1.699   1.452   2.018 -2.0445  1.2305 -1.6230
  668SOL     OW 2002   0.050   1.568   2.515  0.2300  0.0842 -0.1365
  668SOL    HW1 2003   3.063   1.551   2.569 -0.8880 -0.4544 -1.9754
  668SOL    HW2 2004   0.124   1.506   2.538 -3.1509 -1.2684 -1.5231
  669SOL     OW 2005   2.151   0.017   2.438  0.4478 -0.5151 -0.1040
  669SOL    HW1 2006   2.231   0.010   2.380  0.0070  0.4217  3.7898
  669SOL    HW2 2007   2.175   0.043   2.532 -0.0652 -1.8448  0.5428
  670SOL     OW 2008   2.646   1.137   2.151 -0.3265  0.2272  0.3240
  670SOL    HW1 2009   2.671   1.043   2.163 -0.5924 -1.5800  1.9577
  670SOL    HW2 2010   2.619   1.150   2.055  0.2945  1.5724  1.1143
  671SOL     OW 2011   2.605   1.840   0.146 -0.0720  0.3341 -0.0784
  671SOL    HW1 2012   2.678   1.773   0.116  0.1525  1.9317  0.0986
  671SOL    HW2 2013   2.532   1.793   0.206 -1.1192 -0.5009  2.2572
  672SOL     OW 2014   1.752   1.389   2.165 -0.1661 -0.0455  0.3427
  672SOL    HW1 2015   1.726   1.324   2.237 -2.7431  1.1900 -0.3162
  672SOL    HW2 2016   1.796   1.468   2.206  2.8289 -3.5309 -0.4651
  673SOL     OW 2017   2.812   1.814   1.117  0.0257 -0.3254 -0.1760
  673SOL    HW1 2018   2.800   1.899   1.056 -1.3219  2.2642  2.3907
  673SOL    HW2 2019   2.897   1.816   1.175 -0.7850 -1.4988 -0.3029
  674SOL     OW 2020   1.043   1.781   1.921 -0.2614  0.3860 -0.1145
  674SOL    HW1 2021   1.057   1.706   1.994 -3.4255 -2.4515  3.0991
  674SOL    HW2 2022   0.958   1.831   1.940  3.5598 -0.0373 -1.4299
  675SOL     OW 2023   0.002   0.746   0.696  0.0494  0.2463 -0.0168
  675SOL    HW1 2024   0.096   0.758   0.668  0.2080 -1.9197 -0.2119
  675SOL    HW2 2025   3.089   0.728   0.796 -0.0385 -5.3742  2.1401
  676SOL     OW 2026   3.075   1.191   0.849 -0.3235  0.3639 -0.1362
  676SOL    HW1 2027   3.027   1.254   0.786 -0.0005 -0.4036 -0.6206
  676SOL    HW2 2028   3.055   1.095   0.837 -1.7139 -0.0225  1.5459
  677SOL     OW 2029   1.552   1.771   2.321 -0.3891  0.3970  0.4988
  677SOL    HW1 2030   1.537   1.704   2.244 -0.3342 -1.2778  1.2098
  677SOL    HW2 2031   1.652   1.794   2.316  0.7394 -2.7342  0.7409
  678SOL     OW 2032   2.626   1.608   0.791  0.0786  0.6225 -0.8344
  678SOL    HW1 2033   2.632   1.710   0.809 -0.1195  0.0233  0.7053
  678SOL    HW2 2034   2.550   1.563   0.843 -0.1080  0.5362 -1.5920
  679SOL     OW 2035   0.707   2.349   0.714  0.4596 -0.1329 -0.1621
  679SOL    HW1 2036   0.684   2.370   0.617 -0.5364 -2.1539 -0.7155
  679SOL    HW2 2037   0.632   2.386   0.781 -4.2918  1.7932  2.1568
  680SOL     OW 2038   3.090   1.719   1.307 -0.0473  0.1505  0.1270
  680SOL    HW1 2039   0.036   1.810   1.277 -1.8124  1.1297 -2.0625
  680SOL    HW2 2040   0.002   1.698   1.405  0.5839  2.3456  1.7758
  681SOL     OW 2041   0.966   0.446   1.118 -0.2038  0.7162  0.1964
  681SOL    HW1 2042   0.959   0.522   1.186  2.9289 -1.0930  1.8020
  681SOL    HW2 2043   1.029   0.373   1.157  1.2053 -1.0922 -1.6172
  682SOL     OW 2044   1.770   2.886   1.510 -0.3744  0.1065  0.4860
  682SOL    HW1 2045   1.818   2.933   1.587 -2.1137 -1.8562 -0.5519
  682SOL    HW2 2046   1.798   2.919   1.416  0.1291  2.0782 -1.9069
  683SOL     OW 2047   2.321   1.340   1.487 -0.1344  0.2498 -0.1326
  683SOL    HW1 2048   2.307   1.354   1.586  1.5801  0.1847 -0.1221
  683SOL    HW2 2049   2.384   1.262   1.478  0.2842 -0.8462 -0.4066
  684SOL     OW 2050   0.167   1.639   1.647  0.7550 -0.1065  0.2034
  684SOL    HW1 2051   0.071   1.674   1.629 -3.2896 -0.0313 -0.5870
  684SOL    HW2 2052   0.163   1.577   1.726  1.0049 -3.0996  0.7255
  685SOL     OW 2053   1.871   1.955   0.087  0.1962  0.2788  0.3687
  685SOL    HW1 2054   1.883   2.050   0.120  3.0179 -1.0220 -1.0540
  685SOL    HW2 2055   1.779   1.925   0.115  1.9220  1.0529  0.1820
  686SOL     OW 2056   2.831   0.441   0.889  0.4116  0.2122 -0.1386
  686SOL    HW1 2057   2.849   0.539   0.905 -0.2991 -0.6482 -1.6828
  686SOL    HW2 2058   2.756   0.430   0.817  0.2332 -0.4932  0.3872
  687SOL     OW 2059   1.605   0.232   2.529 -0.0151  0.4779  0.0798
  687SOL    HW1 2060   1.575   0.150   2.477 -0.9562 -2.2094  0.1466
  687SOL    HW2 2061   1.615   0.209   2.629  0.8541 -1.8656  2.1058
  688SOL     OW 2062   1.154   2.156   2.546  0.3591  0.0736 -0.1926
  688SOL    HW1 2063   1.175   2.207   2.461 -0.1665 -1.2513  1.1111
  688SOL    HW2 2064   1.065   2.107   2.526 -2.5251  3.0320 -1.1818
  689SOL     OW 2065   2.345   1.380   1.764  0.5429 -0.7534  0.4014
  689SOL    HW1 2066   2.389   1.473   1.763  1.4538  2.6368  0.6169
  689SOL    HW2 2067   2.417   1.317   1.801  0.2601  2.4184 -1.0593
  690SOL     OW 2068   1.755   1.702   1.515 -0.1147  0.4586  0.4297
  690SOL    HW1 2069   1.664   1.752   1.523  2.1891  0.6790 -0.6744
  690SOL    HW2 2070   1.772   1.663   1.422  0.8545 -1.1449 -1.7489
  691SOL     OW 2071   0.007   1.579   0.577  0.3995 -0.0084 -0.1713
  691SOL    HW1 2072   3.051   1.662   0.607  1.0073 -1.4479 -1.0288
  691SOL    HW2 2073   0.107   1.579   0.601 -0.0115 -0.3485  1.1788
  692SOL     OW 2074   2.607   2.625   2.513 -0.0592 -0.3491 -0.1053
  692SOL    HW1 2075   2.563   2.699   2.458 -0.9408  0.2193  2.2884
  692SOL    HW2 2076   2.663   2.558   2.459  0.4675  0.2310  0.6679
  693SOL     OW 2077   2.836   1.466   2.262  0.1612 -0.1711  0.0071
  693SOL    HW1 2078   2.747   1.497   2.305 -1.3050  0.2919  2.1756
  693SOL    HW2 2079   2.905   1.542   2.272  0.5160  0.2862  0.2415
  694SOL     OW 2080   2.173   0.194   1.871 -0.0384  0.3049 -0.0952
  694SOL    HW1 2081   2.207   0.162   1.780  0.1075  0.3499  2.2246
  694SOL    HW2 2082   2.191   0.296   1.887 -1.5053 -1.3550  0.1493
  695SOL     OW 2083   1.077   0.755   2.442  0.3605  0.0171  0.2133
  695SOL    HW1 2084   0.989   0.769   2.391  0.9896  1.7885  0.6758
  695SOL    HW2 2085   1.094   0.842   2.493 -1.3960  1.4453 -2.0954
  696SOL     OW 2086   1.661   0.128   1.855 -0.1770  0.1164  0.3919
  696SOL    HW1 2087   1.763   0.125   1.866  1.5171 -1.4737  2.1743
  696SOL    HW2 2088   1.632   0.052   1.795 -0.7330  0.4141  0.5008
  697SOL     OW 2089   1.581   0.237   2.089 -0.1944  0.3655  0.2235
  697SOL    HW1 2090   1.667   0.266   2.129  0.6204 -1.4228 -1.4835
  697SOL    HW2 2091   1.602   0.193   2.000  1.2723  1.0806 -1.8322
  698SOL     OW 2092   1.794   1.942   2.323 -1.1122 -0.3372 -0.4501
  698SOL    HW1 2093   1.821   2.040   2.337 -0.8828  3.3767 -1.3800
  698SOL    HW2 2094   1.886   1.902   2.299  1.3916  0.6774 -1.1195
  699SOL     OW 2095   2.086   0.811   0.210  0.1288 -0.1996  0.3172
  699SOL    HW1 2096   1.984   0.831   0.187 -3.5348  1.3144 -1.0800
  699SOL    HW2 2097   2.152   0.861   0.150 -0.7241 -0.3210  0.3025
  700SOL     OW 2098   1.227   0.145   0.497  0.0861 -0.0240 -0.5874
  700SOL    HW1 2099   1.226   0.228   0.559 -2.2932 -1.7613  0.2163
  700SOL    HW2 2100   1.181   0.166   0.405 -2.1770  0.2672 -0.8193
  701SOL     OW 2101   0.238   0.937   0.847 -0.0653 -0.0532 -0.4469
  701SOL    HW1 2102   0.282   0.849   0.826  0.8160  0.3832  0.3475
  701SOL    HW2 2103   0.220   0.980   0.757  0.0971 -3.1850  1.2445
  702SOL     OW 2104   1.899   0.153   1.531 -0.2675  0.4110 -0.1460
  702SOL    HW1 2105   1.978   0.188   1.485  1.1433  1.4169 -0.1300
  702SOL    HW2 2106   1.825   0.219   1.530 -1.3125  0.8069  2.0687
  703SOL     OW 2107   2.721   0.979   1.218  0.3014  0.0118  0.0960
  703SOL    HW1 2108   2.815   1.014   1.192 -0.9196 -1.5828 -0.3412
  703SOL    HW2 2109   2.728   0.879   1.235 -0.5500  1.5135  1.6297
  704SOL     OW 2110   0.967   2.428   1.219 -0.3985  0.1085 -0.0660
  704SOL    HW1 2111   1.041   2.466   1.157  0.4250 -0.9636 -0.7237
  704SOL    HW2 2112   1.014   2.401   1.305  1.8563 -0.1097  1.5787
  705SOL     OW 2113   0.218   1.344   2.614  0.3865  0.9717 -0.0620
  705SOL    HW1 2114   0.265   1.280   2.551  0.5611 -0.9316 -1.2239
  705SOL    HW2 2115   0.292   1.394   2.660 -3.1073  0.2712 -1.0642
  706SOL     OW 2116   2.925   2.930   0.085  0.0363 -0.2688  0.6198
  706SOL    HW1 2117   2.827   2.921   0.060 -0.8741 -0.1898 -1.0919
  706SOL    HW2 2118   2.948   3.011   0.142  1.6175  1.7842 -1.1355
  707SOL     OW 2119   1.637   2.948   2.444 -0.2868  0.1077 -0.1409
  707SOL    HW1 2120   1.713   2.965   2.374  0.6300  0.4265  0.4432
  707SOL    HW2 2121   1.600   2.853   2.436 -0.8936  1.0272 -0.6399
  708SOL     OW 2122   0.456   2.759   1.672  0.1658  0.0021  0.4218
  708SOL    HW1 2123   0.467   2.723   1.765 -0.1923  0.4964 -1.6485
  708SOL    HW2 2124   0.376   2.722   1.621 -2.6568 -0.4559 -1.0425
  709SOL     OW 2125   2.926   0.689   2.025  0.5095 -0.1759 -0.1744
  709SOL    HW1 2126   2.971   0.749   1.954  2.4197  1.5886 -2.1115
  709SOL    HW2 2127   2.993   0.658   2.100 -0.8049 -0.9667  2.0785
  710SOL     OW 2128   0.155   0.988   1.121  0.4360  0.4569 -0.4856
  710SOL    HW1 2129   0.214   1.006   1.205  0.5358 -0.2236  1.7401
  710SOL    HW2 2130   0.197   1.006   1.031 -1.1516 -0.1032 -1.0817
  711SOL     OW 2131   2.719   2.968   1.256  0.0201 -0.6573  0.3015
  711SOL    HW1 2132   2.773   2.885   1.261  0.1675  3.2691  2.0784
  711SOL    HW2 2133   2.617   2.956   1.253  0.4925  0.9563 -0.8469
  712SOL     OW 2134   0.169   3.055   2.579  0.3814  0.0218  0.0552
  712SOL    HW1 2135   0.156   3.027   2.676 -0.6421 -0.6136  1.6171
  712SOL    HW2 2136   0.256   3.005   2.543  0.8749 -0.9083 -0.8787
  713SOL     OW 2137   2.356   0.222   0.469 -0.1605  0.0751 -0.3096
  713SOL    HW1 2138   2.333   0.319   0.501  1.0199  0.3737  2.0363
  713SOL    HW2 2139   2.349   0.156   0.545 -0.1366 -0.1793 -0.5844
  714SOL     OW 2140   1.659   1.782   0.149  0.0086  0.3408 -0.3688
  714SOL    HW1 2141   1.573   1.827   0.184  1.3079 -2.2902  2.7297
  714SOL    HW2 2142   1.665   1.691   0.187 -0.5511  1.3204 -2.4929
  715SOL     OW 2143   0.094   0.292   0.588 -0.0130  0.5165  0.0444
  715SOL    HW1 2144   0.072   0.193   0.574 -0.3539 -1.7600  1.5080
  715SOL    HW2 2145   0.080   0.326   0.685  1.8158  2.7645 -2.7316
  716SOL     OW 2146   0.880   0.706   1.726 -0.3562 -0.2784 -0.6397
  716SOL    HW1 2147   0.943   0.625   1.731 -0.3330 -0.9277 -2.3561
  716SOL    HW2 2148   0.800   0.705   1.790 -1.9101  1.3920 -0.9243
  717SOL     OW 2149   0.592   0.301   2.955  0.1455 -0.1384 -0.6178
  717SOL    HW1 2150   0.540   0.303   2.869  1.1028 -1.9533  1.8833
  717SOL    HW2 2151   0.656   0.383   2.957  1.0416  1.2813 -0.3245
  718SOL     OW 2152   1.383   0.490   0.251  0.2754 -0.1482 -0.5982
  718SOL    HW1 2153   1.454   0.546   0.207  0.0847 -2.3463 -2.9361
  718SOL    HW2 2154   1.397   0.395   0.225  0.2529  1.4070  0.9664
  719SOL     OW 2155   2.536   2.210   2.710  1.2695 -0.5725  0.7231
  719SOL    HW1 2156   2.506   2.171   2.800 -2.2519 -0.9495  1.0857
  719SOL    HW2 2157   2.511   2.311   2.710 -0.0005  0.3869  3.1564
  720SOL     OW 2158   1.240   0.499   1.355  0.1370  0.1156 -0.1003
  720SOL    HW1 2159   1.161   0.562   1.359  0.0880  0.3436  1.6998
  720SOL    HW2 2160   1.200   0.410   1.329  0.0424  1.5198 -0.1557
  721SOL     OW 2161   2.821   0.022   1.047 -0.2046 -0.0451 -0.6505
  721SOL    HW1 2162   2.819   0.121   1.074  0.3808 -2.3133 -2.4947
  721SOL    HW2 2163   2.790   3.064   1.130 -0.9942  1.6753  0.6954
  722SOL     OW 2164   1.147   1.510   2.705  0.0855 -0.1241 -0.2541
  722SOL    HW1 2165   1.052   1.543   2.718 -1.8272 -2.8374 -0.8037
  722SOL    HW2 2166   1.179   1.463   2.791 -1.6981 -2.7014 -0.4136
  723SOL     OW 2167   2.344   0.623   0.995  0.0722 -0.0448  0.3137
  723SOL    HW1 2168   2.342   0.548   0.919  1.4736  0.7483 -0.5449
  723SOL    HW2 2169   2.399   0.703   0.970  1.4856  1.5009  2.3615
  724SOL     OW 2170   0.768   2.284   0.121  0.0708  0.2824 -0.0500
  724SOL    HW1 2171   0.784   2.211   0.190  0.5858  1.8981 -2.8790
  724SOL    HW2 2172   0.865   2.293   0.076  1.8597  0.4368 -0.7852
  725SOL     OW 2173   0.249   1.044   1.388 -0.5640 -0.3199 -0.5043
  725SOL    HW1 2174   0.234   0.975   1.462 -0.6709  0.5790 -0.9090
  725SOL    HW2 2175   0.306   1.118   1.429  0.3282 -0.9642  1.8541
  726SOL     OW 2176   2.389   0.869   3.049 -0.7144 -0.3974  0.2375
  726SOL    HW1 2177   2.348   0.929   0.025 -2.7927  0.4732 -0.3658
  726SOL    HW2 2178   2.478   0.904   3.020 -0.5113  0.7080  1.4356
  727SOL     OW 2179   2.117   1.170   2.740  0.1266 -0.5227 -0.4806
  727SOL    HW1 2180   2.174   1.252   2.721  1.8560  2.1728 -0.4195
  727SOL    HW2 2181   2.132   1.091   2.676 -0.2761 -1.8910  0.3055
  728SOL     OW 2182   1.726   2.621   1.527 -0.3895 -0.5981 -0.2199
  728SOL    HW1 2183   1.691   2.597   1.621 -1.0816 -1.5075  2.0548
  728SOL    HW2 2184   1.751   2.719   1.530 -3.3173  1.3930  0.9653
  729SOL     OW 2185   2.241   0.689   2.042 -0.5497 -0.3715 -0.4835
  729SOL    HW1 2186   2.340   0.721   2.036  0.7791  3.2414  1.6094
  729SOL    HW2 2187   2.182   0.764   2.004  0.8608  0.0947 -3.0332
  730SOL     OW 2188   1.241   0.835   1.140  0.4454  0.2565 -0.1419
  730SOL    HW1 2189   1.183   0.763   1.177 -2.9612  0.2687 -0.9523
  730SOL    HW2 2190   1.265   0.816   1.046  0.5671  1.9432  1.4005
  731SOL     OW 2191   0.622   0.615   0.051 -0.2947 -0.1292  0.0141
  731SOL    HW1 2192   0.720   0.643   0.033 -2.5137 -2.6294  0.5184
  731SOL    HW2 2193   0.559   0.687   0.010 -1.8883 -0.2622 -0.0104
  732SOL     OW 2194   0.522   0.704   0.312  0.0809 -0.1118  0.5885
  732SOL    HW1 2195   0.591   0.707   0.386 -0.0060  1.4237  0.7900
  732SOL    HW2 2196   0.549   0.650   0.227 -1.9835 -1.7415  1.1295
  733SOL     OW 2197   1.800   1.646   2.587  0.1338 -0.0739 -0.4461
  733SOL    HW1 2198   1.699   1.631   2.582  0.2771  2.9573  1.6793
  733SOL    HW2 2199   1.828   1.674   2.682 -2.0784 -1.0124  0.2882
  734SOL     OW 2200   0.257   1.894   2.798  0.0484  0.2219 -0.4293
  734SOL    HW1 2201   0.197   1.852   2.868 -0.5870 -0.0994 -0.3467
  734SOL    HW2 2202   0.236   1.993   2.803 -1.9126  4.4146  0.1335
  735SOL     OW 2203   2.020   0.586   1.016  0.8840 -0.1839 -0.0933
  735SOL    HW1 2204   2.038   0.574   0.918  3.2425  1.3377  0.5915
  735SOL    HW2 2205   2.106   0.579   1.066 -1.9325  1.7586 -3.0321
  736SOL     OW 2206   1.684   1.823   2.966 -0.9971  0.2924  0.0474
  736SOL    HW1 2207   1.704   1.809   3.066 -0.2472 -1.1070 -0.5241
  736SOL    HW2 2208   1.675   1.925   2.939 -2.2042 -0.0468 -2.4150
  737SOL     OW 2209   2.933   0.330   0.469 -0.5756 -0.0970 -0.3032
  737SOL    HW1 2210   2.908   0.428   0.474  0.5942  0.1925 -2.5122
  737SOL    HW2 2211   3.031   0.316   0.497  1.5624  0.8616 -0.7216
  738SOL     OW 2212   0.593   2.189   1.771 -0.0304 -0.1238 -0.0144
  738SOL    HW1 2213   0.688   2.170   1.796 -0.4010  1.0212  0.1481
  738SOL    HW2 2214   0.587   2.273   1.705 -1.2299  2.0056 -1.0641
  739SOL     OW 2215   1.261   2.794   2.242 -0.1405  0.0976 -0.5851
  739SOL    HW1 2216   1.172   2.750   2.229  2.2081  1.4304 -0.9832
  739SOL    HW2 2217   1.283   2.803   2.341 -0.6541  1.2383  3.4737
  740SOL     OW 2218   2.077   2.312   1.430  0.0818  0.3005 -0.1717
  740SOL    HW1 2219   2.021   2.232   1.405 -0.1918  0.0984 -0.9582
  740SOL    HW2 2220   2.022   2.395   1.445  0.3606 -0.8302 -0.6184
  741SOL     OW 2221   2.011   0.554   0.310 -0.0417  0.3031 -0.0062
  741SOL    HW1 2222   2.040   0.492   0.236 -0.1369  0.2318 -0.5001
  741SOL    HW2 2223   2.048   0.646   0.298 -0.3573 -1.0904  2.6251
  742SOL     OW 2224   1.037   2.500   3.029  0.2614 -0.0396 -0.3588
  742SOL    HW1 2225   1.058   2.405   2.999  1.5580 -0.3296 -0.7577
  742SOL    HW2 2226   1.126   2.544   3.060  1.5059  0.1205  2.6285
  743SOL     OW 2227   2.375   1.005   1.903 -0.2074 -0.0771 -0.5339
  743SOL    HW1 2228   2.387   1.099   1.939  2.5116 -0.1719 -2.8164
  743SOL    HW2 2229   2.278   0.977   1.898  1.1997 -1.0539 -2.1759
  744SOL     OW 2230   2.639   0.550   0.589 -0.0576 -0.6034 -0.1335
  744SOL    HW1 2231   2.575   0.545   0.507 -2.1542 -1.2424  0.2291
  744SOL    HW2 2232   2.727   0.595   0.556 -0.1769 -2.0304 -0.3085
  745SOL     OW 2233   2.604   1.015   1.712 -0.0023  0.3839 -0.1037
  745SOL    HW1 2234   2.525   0.990   1.765  3.6084 -0.1486 -2.5983
  745SOL    HW2 2235   2.613   1.115   1.704  0.5855  0.4044 -1.5367
  746SOL     OW 2236   1.254   1.387   0.771 -0.4171 -0.7243  0.2269
  746SOL    HW1 2237   1.303   1.469   0.815  0.0644  5.0647 -0.4834
  746SOL    HW2 2238   1.153   1.408   0.770 -1.8643  0.0016 -3.5220
  747SOL     OW 2239   1.085   1.684   1.657 -0.2946 -0.2511 -0.2885
  747SOL    HW1 2240   1.075   1.710   1.760  2.4910  1.3525  2.3524
  747SOL    HW2 2241   1.172   1.629   1.647  0.8545  0.1755  2.5435
  748SOL     OW 2242   0.241   2.856   2.986 -0.4166  0.3368  0.2580
  748SOL    HW1 2243   0.339   2.833   2.963 -0.1236  1.9413  1.0453
  748SOL    HW2 2244   0.229   2.915   3.070 -0.4390  1.4579 -1.9530
  749SOL     OW 2245   0.398   1.175   2.483  0.0856 -0.1736 -0.3023
  749SOL    HW1 2246   0.321   1.142   2.426  0.4309 -0.9129  1.1363
  749SOL    HW2 2247   0.469   1.219   2.429  0.4449  1.7512  0.8920
  750SOL     OW 2248   1.705   0.849   2.018 -0.3429  0.2014 -0.4448
  750SOL    HW1 2249   1.621   0.842   1.958  1.3521  3.5352  0.3688
  750SOL    HW2 2250   1.717   0.755   2.053 -1.9888 -3.0534  0.3561
  751SOL     OW 2251   2.509   0.625   0.367  0.0526 -0.1047  0.3549
  751SOL    HW1 2252   2.419   0.593   0.404  1.2359 -2.7515  2.2754
  751SOL    HW2 2253   2.521   0.721   0.391 -1.4159 -1.3044  1.5962
  752SOL     OW 2254   0.283   2.409   1.091  0.8515  0.5969 -1.0131
  752SOL    HW1 2255   0.288   2.465   1.178  0.8658  2.9914  1.9537
  752SOL    HW2 2256   0.365   2.425   1.032  2.7172 -0.8455 -3.1270
  753SOL     OW 2257   0.733   2.361   1.081  0.0134 -0.2954  0.1239
  753SOL    HW1 2258   0.828   2.388   1.107 -0.5455  1.4843  1.5089
  753SOL    HW2 2259   0.727   2.261   1.071  0.9835  0.0485  1.1738
  754SOL     OW 2260   0.260   2.756   2.119  0.2609  0.0750 -0.2046
  754SOL    HW1 2261   0.171   2.720   2.083  1.0636 -0.7799 -2.4725
  754SOL    HW2 2262   0.271   2.737   2.216  1.3909  0.0173 -0.0314
  755SOL     OW 2263   2.290   0.510   0.481 -0.1196 -0.5698  0.9930
  755SOL    HW1 2264   2.228   0.491   0.404  0.1797  2.7967 -1.3808
  755SOL    HW2 2265   2.245   0.565   0.555  0.7545 -0.0769 -1.2928
  756SOL     OW 2266   2.199   2.368   2.749 -0.3810  0.0679 -0.2690
  756SOL    HW1 2267   2.179   2.435   2.821 -0.2207 -0.3077 -3.8641
  756SOL    HW2 2268   2.163   2.401   2.664  1.0026 -0.0360  2.5643
  757SOL     OW 2269   2.050   0.484   0.750 -0.2970  0.1196 -0.3215
  757SOL    HW1 2270   2.075   0.580   0.718  1.1398 -2.2828  0.7053
  757SOL    HW2 2271   1.968   0.458   0.697  2.9546 -1.7538  1.7124
  758SOL     OW 2272   2.109   0.646   1.567 -0.9223 -0.5948 -0.9325
  758SOL    HW1 2273   2.162   0.717   1.522 -2.9730 -2.8279  1.0661
  758SOL    HW2 2274   2.032   0.690   1.616  1.7207  0.2943 -0.9249
  759SOL     OW 2275   2.819   0.723   0.951  0.1158  0.1634  0.4627
  759SOL    HW1 2276   2.799   0.734   1.049 -1.8517  1.0393 -0.3215
  759SOL    HW2 2277   2.914   0.762   0.941  0.3066 -1.1688  0.1398
  760SOL     OW 2278   2.507   1.408   1.196 -0.6432  0.0469  0.3511
  760SOL    HW1 2279   2.485   1.381   1.288 -0.8001  2.2225 -4.0395
  760SOL    HW2 2280   2.593   1.464   1.193 -3.3422 -0.1451 -1.2993
  761SOL     OW 2281   0.802   0.788   0.326  0.2888 -0.0283 -0.2686
  761SOL    HW1 2282   0.902   0.790   0.324 -1.0658  0.0821 -0.0382
  761SOL    HW2 2283   0.759   0.837   0.249 -2.9022 -1.1827 -0.3900
  762SOL     OW 2284   0.822   1.619   0.683 -0.0629  0.5385 -0.5359
  762SOL    HW1 2285   0.891   1.675   0.628 -0.9910  1.8908  1.0295
  762SOL    HW2 2286   0.754   1.672   0.742 -2.7602  2.3332  0.6602
  763SOL     OW 2287   1.241   0.988   1.536 -0.2913 -0.6490  0.5275
  763SOL    HW1 2288   1.169   0.951   1.594  0.7852  2.1096  0.9237
  763SOL    HW2 2289   1.197   1.009   1.445  1.4317  0.5375 -2.5582
  764SOL     OW 2290   0.490   1.835   2.701 -0.4154  0.7892 -0.7181
  764SOL    HW1 2291   0.474   1.769   2.623  2.8865 -0.0693  2.3883
  764SOL    HW2 2292   0.403   1.866   2.743 -1.3859  1.7342  0.6072
  765SOL     OW 2293   0.851   2.676   1.749 -0.1850 -0.2888  0.1524
  765SOL    HW1 2294   0.860   2.589   1.697 -0.5544  2.7885  1.3415
  765SOL    HW2 2295   0.796   2.746   1.693 -0.7463 -0.1040 -1.1646
  766SOL     OW 2296   2.433   2.026   2.219 -0.0885 -0.1318 -0.0726
  766SOL    HW1 2297   2.521   2.000   2.261 -3.0699 -1.8775 -1.2163
  766SOL    HW2 2298   2.362   2.042   2.289 -2.3661  0.2615 -1.0706
  767SOL     OW 2299   1.700   1.220   2.381  0.7702  0.6510 -0.3597
  767SOL    HW1 2300   1.699   1.124   2.409  0.8499 -0.6045 -2.1573
  767SOL    HW2 2301   1.619   1.273   2.419 -0.6647  0.4258  0.3948
  768SOL     OW 2302   1.465   1.968   0.242 -0.2845  0.2417  0.2177
  768SOL    HW1 2303   1.387   1.902   0.255 -2.1571 -1.2333  1.2048
  768SOL    HW2 2304   1.467   2.011   0.149  0.5655 -1.0595 -0.4649
  769SOL     OW 2305   0.402   1.202   1.533  0.3506  0.6983  0.5474
  769SOL    HW1 2306   0.464   1.281   1.510 -0.4587 -0.7988  0.9818
  769SOL    HW2 2307   0.455   1.125   1.575 -0.3751  0.8493 -0.9249
  770SOL     OW 2308   1.395   0.974   2.691  0.3206 -0.5965 -0.5900
  770SOL    HW1 2309   1.394   0.988   2.794 -0.4178 -0.1685  3.3759
  770SOL    HW2 2310   1.493   0.965   2.674  1.5550 -1.0452  1.2253
  771SOL     OW 2311   3.047   3.056   2.437  0.6524 -0.3863 -0.1510
  771SOL    HW1 2312   3.037   2.956   2.411 -2.6122  2.1330  1.2590
  771SOL    HW2 2313   0.038   3.071   2.491  1.8219 -1.7653  0.0564
  772SOL     OW 2314   2.045   1.750   2.236  0.6708  0.7265  0.1445
  772SOL    HW1 2315   1.999   1.765   2.149  1.5882 -0.3716  1.4948
  772SOL    HW2 2316   2.150   1.752   2.238  3.4210 -0.9066  1.6267
  773SOL     OW 2317   0.615   1.458   1.739  0.4358 -0.5504  0.2652
  773SOL    HW1 2318   0.695   1.524   1.744 -0.2750  0.2379  1.3056
  773SOL    HW2 2319   0.591   1.437   1.638  0.1531 -0.5926 -0.8147
  774SOL     OW 2320   1.265   0.734   2.950  0.3424 -0.0565  0.1291
  774SOL    HW1 2321   1.198   0.737   2.876  2.1762 -2.2609 -0.5740
  774SOL    HW2 2322   1.233   0.669   3.023  4.3498  0.3212  0.4366
  775SOL     OW 2323   1.893   2.956   0.114  1.0431 -0.6416 -0.3340
  775SOL    HW1 2324   1.897   3.050   0.157 -0.1471  0.6553 -0.1103
  775SOL    HW2 2325   1.971   2.903   0.145 -5.3422  0.4820 -2.8317
  776SOL     OW 2326   0.244   0.522   1.781 -0.4196 -0.2740 -0.0105
  776SOL    HW1 2327   0.268   0.436   1.837  0.4326 -0.1762  0.8463
  776SOL    HW2 2328   0.322   0.585   1.769  4.7801  2.7532 -0.1963
  777SOL     OW 2329   2.278   1.981   1.986  0.0369 -0.2415  0.0313
  777SOL    HW1 2330   2.314   1.980   2.083 -2.0738 -0.2946  2.7617
  777SOL    HW2 2331   2.240   2.071   1.954  0.7605 -3.2119  0.4921
  778SOL     OW 2332   1.967   1.075   2.022  0.2853 -0.7160 -0.1744
  778SOL    HW1 2333   1.910   1.153   1.992  1.6793  0.8935 -1.4791
  778SOL    HW2 2334   2.024   1.102   2.100  0.0941  0.6791 -1.5694
  779SOL     OW 2335   2.723   0.967   3.072  0.7557  0.1047  0.0808
  779SOL    HW1 2336   2.791   0.939   3.004  0.2507  0.6887 -0.1628
  779SOL    HW2 2337   2.668   1.047   3.037 -0.0911 -1.2428  1.7932
  780SOL     OW 2338   2.500   0.242   2.420  0.4658 -0.2803  0.0141
  780SOL    HW1 2339   2.447   0.292   2.489  1.8608 -1.2702 -1.4495
  780SOL    HW2 2340   2.560   0.172   2.459 -0.3232  1.6144  0.2369
  781SOL     OW 2341   0.238   1.889   1.657 -0.3075  0.1537  0.1633
  781SOL    HW1 2342   0.333   1.920   1.635 -0.0044  0.9799 -0.8447
  781SOL    HW2 2343   0.231   1.790   1.639  2.4045  0.3705  0.6242
  782SOL     OW 2344   2.459   2.098   2.983  0.2994  0.1647 -0.2827
  782SOL    HW1 2345   2.554   2.061   2.991  0.5495  0.9783 -0.5394
  782SOL    HW2 2346   2.386   2.034   3.017 -2.6445  1.0232  1.1472
  783SOL     OW 2347   0.588   1.399   1.473 -0.0939 -0.2906  0.2213
  783SOL    HW1 2348   0.639   1.355   1.397 -2.4955  1.4507  1.6401
  783SOL    HW2 2349   0.559   1.492   1.443 -1.5931 -1.4216  0.3280
  784SOL     OW 2350   2.148   0.796   2.845 -0.3711 -0.0811  0.0666
  784SOL    HW1 2351   2.219   0.833   2.910  1.2816  0.1591 -1.7654
  784SOL    HW2 2352   2.057   0.785   2.890 -0.5716 -0.8723  0.9606
  785SOL     OW 2353   2.313   2.588   0.672  0.4455 -0.7567 -0.0552
  785SOL    HW1 2354   2.398   2.648   0.676  1.1687 -0.7711 -1.2683
  785SOL    HW2 2355   2.234   2.627   0.716  0.8088 -2.2548 -2.0578
  786SOL     OW 2356   0.575   2.166   2.421  0.4176 -0.4648  0.0053
  786SOL    HW1 2357   0.492   2.120   2.391  2.6077 -1.1603  0.2747
  786SOL    HW2 2358   0.567   2.267   2.407 -0.7948  1.1031  0.0537
  787SOL     OW 2359   1.468   0.404   1.180  0.3335 -0.5792  0.3603
  787SOL    HW1 2360   1.398   0.425   1.250  1.9571 -0.5159  0.0827
  787SOL    HW2 2361   1.539   0.475   1.188 -1.5879  0.6843  1.3006
  788SOL     OW 2362   0.312   0.852   0.362 -0.1384  0.3029 -0.3487
  788SOL    HW1 2363   0.386   0.782   0.339 -0.1546 -0.1143 -1.7661
  788SOL    HW2 2364   0.230   0.845   0.303  0.3786  0.5968 -1.6945
  789SOL     OW 2365   2.935   2.078   1.291 -0.1675 -0.2109  0.1429
  789SOL    HW1 2366   3.002   2.144   1.338  2.6234  0.1062  1.3221
  789SOL    HW2 2367   2.863   2.127   1.236  1.3933  0.8690 -0.1010
  790SOL     OW 2368   1.460   0.797   1.881  0.6564 -0.3462 -0.6875
  790SOL    HW1 2369   1.462   0.715   1.942 -1.1652  0.0500 -0.5296
  790SOL    HW2 2370   1.412   0.870   1.931  0.2043  0.6099  2.0421
  791SOL     OW 2371   1.477   0.420   0.660 -0.5446 -0.2675  0.1833
  791SOL    HW1 2372   1.508   0.329   0.625 -0.4756  1.5234 -1.6209
  791SOL    HW2 2373   1.461   0.410   0.758  1.2576 -1.0363  0.6996
  792SOL     OW 2374   1.592   2.947   1.998 -0.2504 -0.3492 -0.4371
  792SOL    HW1 2375   1.564   3.027   2.050  4.1318 -0.0795 -0.1151
  792SOL    HW2 2376   1.564   2.941   1.901  0.4126  2.3386  1.1610
  793SOL     OW 2377   0.691   0.006   0.813 -0.0518 -0.6081 -0.0154
  793SOL    HW1 2378   0.772   0.031   0.752  2.0632  2.3641  1.3846
  793SOL    HW2 2379   0.644   0.092   0.838 -3.7070  3.5174 -2.1032
  794SOL     OW 2380   0.634   0.938   2.424  0.1908  0.2400  0.5382
  794SOL    HW1 2381   0.690   1.024   2.408 -0.2196 -0.8567  1.8780
  794SOL    HW2 2382   0.561   0.920   2.351 -0.3849 -1.5267 -0.0580
  795SOL     OW 2383   0.240   1.830   2.313 -0.0576 -0.2788  1.0396
  795SOL    HW1 2384   0.164   1.818   2.246  0.5232  1.8716 -0.3540
  795SOL    HW2 2385   0.203   1.819   2.407  2.1513  1.2817 -0.6853
  796SOL     OW 2386   2.449   1.263   1.997 -0.1450 -0.5120  0.7694
  796SOL    HW1 2387   2.521   1.336   2.010  0.6748  0.2184  0.2163
  796SOL    HW2 2388   2.395   1.281   2.078  2.3447  1.9251 -2.8561
  797SOL     OW 2389   3.015   2.781   2.721  0.3491 -0.3876  0.1095
  797SOL    HW1 2390   0.007   2.730   2.731 -0.5913  0.5388 -1.4401
  797SOL    HW2 2391   2.940   2.718   2.711  3.5625  2.9476 -0.1162
  798SOL     OW 2392   3.008   2.081   2.205  0.2841  0.3121  1.0524
  798SOL    HW1 2393   2.907   2.102   2.198  2.7589  1.2855  0.7899
  798SOL    HW2 2394   3.065   2.166   2.228  0.0568  0.4080  0.5571
  799SOL     OW 2395   3.041   2.193   2.925 -0.5338 -0.3393 -0.0334
  799SOL    HW1 2396   2.998   2.192   3.020  0.2288  0.2430  2.3757
  799SOL    HW2 2397   3.002   2.124   2.862 -1.0161  0.1953  0.9134
  800SOL     OW 2398   1.351   1.682   0.402  0.1294  0.2593  0.4441
  800SOL    HW1 2399   1.255   1.705   0.362 -1.4261 -1.1267  0.8853
  800SOL    HW2 2400   1.386   1.752   0.465 -1.0490 -1.0359 -1.5118
  801SOL     OW 2401   1.942   1.238   0.998  0.1231 -0.3081  0.1479
  801SOL    HW1 2402   2.041   1.251   1.008  1.8420 -2.9149 -1.0669
  801SOL    HW2 2403   1.900   1.161   1.052  0.6357  0.6116 -0.9826
  802SOL     OW 2404   3.010   1.406   0.213 -0.5393  0.9530  0.3704
  802SOL    HW1 2405   2.961   1.339   0.273 -3.2432 -1.2453 -0.5094
  802SOL    HW2 2406   3.068   1.472   0.265  2.6262  0.6378 -2.8491
  803SOL     OW 2407   1.361   1.684   2.728 -0.2723 -0.2782  0.0943
  803SOL    HW1 2408   1.333   1.778   2.758 -0.1199  1.2661  1.5352
  803SOL    HW2 2409   1.277   1.627   2.732  2.8274  1.5161  2.2850
  804SOL     OW 2410   1.714   1.498   0.207  0.2158  0.0137  0.8443
  804SOL    HW1 2411   1.648   1.469   0.282 -0.4070 -0.5533  1.0857
  804SOL    HW2 2412   1.812   1.489   0.243  2.1363 -0.1972  3.0838
  805SOL     OW 2413   2.189   1.696   2.646  0.4144 -0.4120 -0.1022
  805SOL    HW1 2414   2.247   1.686   2.728 -0.1330  0.6976  0.5571
  805SOL    HW2 2415   2.130   1.780   2.652 -4.4010 -1.8166 -0.5822
  806SOL     OW 2416   0.691   3.086   0.437  0.0294  0.4603 -0.1727
  806SOL    HW1 2417   0.645   0.077   0.419 -0.1235 -3.8366 -0.9646
  806SOL    HW2 2418   0.750   3.088   0.523  1.6613 -1.7076  0.0090
  807SOL     OW 2419   2.003   1.481   2.870 -0.0227  0.4682 -0.4526
  807SOL    HW1 2420   1.952   1.566   2.884 -2.7048  1.0142  1.7684
  807SOL    HW2 2421   1.969   1.441   2.784  0.0758  1.0341  0.3262
  808SOL     OW 2422   0.034   1.628   0.321 -0.6335  0.1114 -0.2752
  808SOL    HW1 2423   0.025   1.614   0.424  0.3507  0.6852 -0.0003
  808SOL    HW2 2424   3.050   1.684   0.288  1.1244 -1.8481 -3.3363
  809SOL     OW 2425   2.555   1.153   2.936 -0.4268  0.4494  0.2954
  809SOL    HW1 2426   2.454   1.156   2.951  1.5653 -0.7059  0.4493
  809SOL    HW2 2427   2.597   1.242   2.908  0.7666 -0.8763  0.2897
  810SOL     OW 2428   0.632   0.997   0.141 -0.3929 -0.5951  0.4877
  810SOL    HW1 2429   0.594   1.081   0.096 -0.1089 -0.2927 -0.3977
  810SOL    HW2 2430   0.574   0.969   0.217  1.2791  4.0428 -0.7490
  811SOL     OW 2431   1.295   2.430   1.461  0.9209  0.6532  0.2031
  811SOL    HW1 2432   1.292   2.522   1.418 -1.3707  2.4822  1.8056
  811SOL    HW2 2433   1.357   2.434   1.542  0.4585  0.6407 -0.2514
  812SOL     OW 2434   0.837   2.433   1.626 -0.0230 -0.2613  0.1135
  812SOL    HW1 2435   0.910   2.394   1.564 -1.9819 -1.1570  1.3625
  812SOL    HW2 2436   0.744   2.394   1.600 -2.6771 -0.4131  3.1971
  813SOL     OW 2437   1.345   0.389   2.159  0.1247 -0.3336  0.3248
  813SOL    HW1 2438   1.390   0.302   2.129 -0.8517 -2.3374 -0.1425
  813SOL    HW2 2439   1.271   0.374   2.231  0.1722  1.3812 -1.5812
  814SOL     OW 2440   1.411   2.548   2.873  1.2510  0.4612  0.1912
  814SOL    HW1 2441   1.326   2.595   2.843 -0.3920 -0.2720 -0.1728
  814SOL    HW2 2442   1.431   2.476   2.810 -0.8203  2.1900 -0.4681
  815SOL     OW 2443   0.523   0.189   1.758 -0.1980  0.6881 -0.2257
  815SOL    HW1 2444   0.492   0.090   1.757  1.8899  0.9114 -0.8438
  815SOL    HW2 2445   0.464   0.243   1.693  0.0090 -3.0535 -0.2226
  816SOL     OW 2446   2.056   0.517   2.952 -0.4447  0.2956  0.4265
  816SOL    HW1 2447   2.147   0.559   2.979  0.8283  0.4026  1.0543
  816SOL    HW2 2448   1.991   0.593   2.976 -0.0125  0.8475  0.3527
  817SOL     OW 2449   2.217   0.544   2.268  0.1505  0.1391 -0.1199
  817SOL    HW1 2450   2.230   0.588   2.175  0.6412  0.7244 -3.7848
  817SOL    HW2 2451   2.171   0.454   2.257  0.0788 -0.8482 -0.6691
  818SOL     OW 2452   2.065   0.354   0.072 -0.3822 -0.0601 -0.0341
  818SOL    HW1 2453   2.151   0.295   0.067  2.4465 -1.5881 -3.7001
  818SOL    HW2 2454   2.054   0.408   3.082 -0.1282  0.9659  1.5806
  819SOL     OW 2455   2.225   1.910   2.969 -0.4201 -0.4662 -0.5534
  819SOL    HW1 2456   2.178   1.995   2.946  0.2846 -3.4329 -2.4070
  819SOL    HW2 2457   2.183   1.860   3.049 -0.8519 -0.4498 -0.7251
  820SOL     OW 2458   3.050   1.923   0.079  0.4910 -0.0028  0.4927
  820SOL    HW1 2459   2.971   1.984   0.051 -0.2772 -1.1332 -2.9896
  820SOL    HW2 2460   0.039   1.975   0.111  0.3015  1.7083  0.9596
  821SOL     OW 2461   0.230   2.625   0.757  0.2084  0.1826 -0.1025
  821SOL    HW1 2462   0.270   2.619   0.848  1.0029  1.5309 -1.1899
  821SOL    HW2 2463   0.304   2.606   0.690 -2.9776  0.1885 -0.0745
  822SOL     OW 2464   2.834   2.631   2.973 -0.6650 -0.6136 -0.3433
  822SOL    HW1 2465   2.802   2.615   2.878 -1.7206 -0.7988  0.0619
  822SOL    HW2 2466   2.935   2.652   2.970  2.2228  0.2760  2.0882
  823SOL     OW 2467   1.409   0.378   2.731  0.5744  0.2671  0.3325
  823SOL    HW1 2468   1.501   0.339   2.740 -1.0216 -1.8010 -0.4426
  823SOL    HW2 2469   1.417   0.468   2.685 -0.6513 -1.0173  2.2599
  824SOL     OW 2470   2.833   1.910   1.514  0.1331  0.9550 -0.1210
  824SOL    HW1 2471   2.837   1.932   1.613 -0.5250  0.3771 -1.3580
  824SOL    HW2 2472   2.867   1.986   1.455  1.0975  0.7513  0.7396
  825SOL     OW 2473   2.536   1.967   2.590  0.2319 -0.3259 -0.8509
  825SOL    HW1 2474   2.534   2.058   2.637 -0.0827  0.1914 -0.7060
  825SOL    HW2 2475   2.572   1.984   2.498 -1.5049 -2.2610 -0.2504
  826SOL     OW 2476   2.331   1.666   2.249  0.2531  1.1051  0.3174
  826SOL    HW1 2477   2.340   1.566   2.231  1.2177 -1.4779 -0.6517
  826SOL    HW2 2478   2.358   1.688   2.344 -0.1001 -2.1857 -2.5533
  827SOL     OW 2479   2.396   2.264   1.153  0.0456  0.3496 -0.3541
  827SOL    HW1 2480   2.354   2.356   1.181 -0.1944  0.1368 -0.2693
  827SOL    HW2 2481   2.478   2.247   1.216  2.1512 -0.5130 -1.1815
  828SOL     OW 2482   2.990   0.019   1.320  0.0596 -0.0292 -0.5421
  828SOL    HW1 2483   2.908   3.058   1.322  0.4362  0.0634 -0.7778
  828SOL    HW2 2484   3.018   0.033   1.416 -1.0676  1.5268 -0.0118
  829SOL     OW 2485   1.663   2.465   2.507  0.4787 -0.5455 -0.3897
  829SOL    HW1 2486   1.606   2.415   2.577 -1.1641 -1.4826  0.7745
  829SOL    HW2 2487   1.746   2.508   2.546  1.0935  1.1262  0.0020
  830SOL     OW 2488   1.254   0.565   0.838  0.4778  0.0472 -0.4464
  830SOL    HW1 2489   1.279   0.663   0.850  1.5662 -2.0075  0.5422
  830SOL    HW2 2490   1.306   0.504   0.900 -2.4853  0.6221  1.5785
  831SOL     OW 2491   2.674   1.380   2.883  0.1540  0.6631  0.2789
  831SOL    HW1 2492   2.683   1.417   2.977 -1.3052  0.8679  1.0683
  831SOL    HW2 2493   2.766   1.353   2.849  1.2400  2.9825 -0.2993
  832SOL     OW 2494   1.462   1.894   1.918 -0.2494  0.5235 -0.2826
  832SOL    HW1 2495   1.439   1.921   2.013  0.9045  2.9627 -2.3927
  832SOL    HW2 2496   1.539   1.953   1.887 -1.0973 -2.2782 -2.1162
  833SOL     OW 2497   0.009   3.044   1.982  0.3553  0.1765 -0.0280
  833SOL    HW1 2498   0.035   2.946   2.001 -0.8585 -0.0313 -0.9384
  833SOL    HW2 2499   3.083   0.003   2.068  0.4434 -1.6478  2.0688
  834SOL     OW 2500   0.983   1.166   1.754 -0.2159 -0.3693  0.1761
  834SOL    HW1 2501   0.958   1.192   1.658  3.2411  1.4720  3.6830
  834SOL    HW2 2502   0.997   1.065   1.755  1.7928  0.6076  0.0149
  835SOL     OW 2503   2.857   0.900   2.827  0.0076  0.2395  0.1483
  835SOL    HW1 2504   2.784   0.958   2.785  2.8462  0.9311  1.1132
  835SOL    HW2 2505   2.835   0.803   2.800  0.0218 -1.6002  0.2870
  836SOL     OW 2506   1.022   1.806   0.568  0.2708 -0.2436 -0.1830
  836SOL    HW1 2507   1.094   1.805   0.641 -1.0522 -2.3700  1.5751
  836SOL    HW2 2508   1.063   1.793   0.476 -1.0342  0.5433  2.0990
  837SOL     OW 2509   1.520   1.398   1.163 -0.0791  0.1657  0.2619
  837SOL    HW1 2510   1.492   1.498   1.170  0.8997  0.8427 -0.8000
  837SOL    HW2 2511   1.612   1.391   1.116 -1.5681  1.5056 -0.0839
  838SOL     OW 2512   1.211   1.842   2.457 -0.2554  0.0731 -0.1048
  838SOL    HW1 2513   1.189   1.739   2.455  0.4029 -2.0270  0.0758
  838SOL    HW2 2514   1.146   1.890   2.516  0.5495 -1.7140  1.3747
  839SOL     OW 2515   0.688   2.005   2.611  0.5969  0.2011  0.0601
  839SOL    HW1 2516   0.629   1.928   2.635  3.2531  1.9834 -2.8891
  839SOL    HW2 2517   0.641   2.062   2.540  0.8763 -0.1552  1.9762
  840SOL     OW 2518   0.598   2.444   0.232 -0.4451 -0.0670  0.2942
  840SOL    HW1 2519   0.661   2.398   0.171 -1.9236 -0.4348  1.2788
  840SOL    HW2 2520   0.634   2.534   0.251 -3.1454 -2.2463  2.3791
  841SOL     OW 2521   2.026   2.456   0.276 -0.0743 -0.4034 -0.2993
  841SOL    HW1 2522   1.946   2.521   0.287 -2.4797  3.0196 -1.5149
  841SOL    HW2 2523   2.106   2.490   0.223 -1.7417  0.4453  0.2154
  842SOL     OW 2524   0.825   0.480   2.935 -0.2035  0.2715  0.4240
  842SOL    HW1 2525   0.769   0.498   2.851 -0.3828 -3.7224  2.0181
  842SOL    HW2 2526   0.847   0.564   2.982 -0.7682  0.1050 -2.1392
  843SOL     OW 2527   1.261   3.022   0.639 -0.2319  0.3528 -0.2089
  843SOL    HW1 2528   1.242   0.014   0.595  2.4005 -4.9556  1.2295
  843SOL    HW2 2529   1.177   2.960   0.641 -3.7461 -1.9955  0.0387
  844SOL     OW 2530   2.360   3.035   2.272  0.1264 -0.6560 -0.4538
  844SOL    HW1 2531   2.461   3.066   2.270  0.2436  1.4324  0.6586
  844SOL    HW2 2532   2.312   3.053   2.185 -2.5782  0.7203 -0.9467
  845SOL     OW 2533   2.707   2.552   1.334 -0.5943  0.4961  0.2514
  845SOL    HW1 2534   2.810   2.549   1.320 -0.3956  2.0919 -1.3328
  845SOL    HW2 2535   2.664   2.529   1.244  0.6704  3.4067  0.9658
  846SOL     OW 2536   0.120   1.825   2.560 -0.1211  0.5638  0.2431
  846SOL    HW1 2537   0.082   1.730   2.550 -3.0658 -0.6806  0.2281
  846SOL    HW2 2538   0.171   1.842   2.648 -1.6574  0.5014  1.7037
  847SOL     OW 2539   1.437   0.821   1.609  0.0849  0.1384 -0.3690
  847SOL    HW1 2540   1.368   0.888   1.573 -2.7419  1.1816  1.7061
  847SOL    HW2 2541   1.432   0.812   1.708 -2.9422  1.9922 -0.5004
  848SOL     OW 2542   2.843   0.245   0.057  0.2997  0.3610  0.0278
  848SOL    HW1 2543   2.822   0.193   0.145  1.3275  0.8066  0.0246
  848SOL    HW2 2544   2.877   0.342   0.075 -0.9975 -0.9374 -1.3632
  849SOL     OW 2545   0.597   2.903   2.720  0.2556 -0.0338  0.5117
  849SOL    HW1 2546   0.568   2.858   2.809  0.4550  0.4430 -0.7438
  849SOL    HW2 2547   0.698   2.908   2.712 -0.3217  0.4360  1.8982
  850SOL     OW 2548   1.177   2.593   1.032  0.2139  0.3254 -0.3388
  850SOL    HW1 2549   1.186   2.492   1.039 -0.5033  3.7468  3.4449
  850SOL    HW2 2550   1.261   2.638   1.065 -2.6703 -1.6555 -0.6752
  851SOL     OW 2551   2.829   0.342   2.155  0.0685 -0.0197 -0.3831
  851SOL    HW1 2552   2.891   0.351   2.239 -1.0918 -1.1825 -2.1619
  851SOL    HW2 2553   2.877   0.305   2.074 -0.4373  1.5795 -1.9780
  852SOL     OW 2554   2.132   1.140   2.242 -0.4180 -0.1915 -0.7242
  852SOL    HW1 2555   2.054   1.185   2.286 -0.0465 -0.3474 -0.9183
  852SOL    HW2 2556   2.180   1.086   2.313 -2.2702  1.7946  0.7636
  853SOL     OW 2557   2.894   2.956   0.638  0.1675  0.4670  0.0171
  853SOL    HW1 2558   2.869   3.030   0.575  1.0733 -1.8724  1.9548
  853SOL    HW2 2559   2.831   2.948   0.720  0.5970  2.9691  0.3061
  854SOL     OW 2560   2.381   1.081   1.347  0.0532 -0.1940  0.4660
  854SOL    HW1 2561   2.420   1.069   1.252  1.4168 -1.2405  0.9429
  854SOL    HW2 2562   2.284   1.109   1.342 -0.8596  0.8961  1.0342
  855SOL     OW 2563   1.457   2.307   0.473  0.0344 -0.0833  0.0007
  855SOL    HW1 2564   1.486   2.388   0.534 -0.5197 -0.0820  1.0500
  855SOL    HW2 2565   1.540   2.268   0.428  3.2807 -0.6597  1.2586
  856SOL     OW 2566   3.055   0.285   2.806  0.2663  0.3275  0.4619
  856SOL    HW1 2567   3.000   0.229   2.740 -0.2753  1.3099 -0.4920
  856SOL    HW2 2568   3.047   0.243   2.900  0.3535  0.3053  1.4160
  857SOL     OW 2569   1.273   0.083   1.767 -0.1489 -0.6475 -0.4326
  857SOL    HW1 2570   1.322   0.173   1.747  0.4872  1.8927 -0.3336
  857SOL    HW2 2571   1.236   0.080   1.865 -1.2209 -2.0993  1.8594
  858SOL     OW 2572   2.212   2.218   1.688  0.5291  0.0532  0.1160
  858SOL    HW1 2573   2.250   2.124   1.666  2.9698  2.7814  1.8820
  858SOL    HW2 2574   2.171   2.260   1.605  1.1948  1.6226 -1.2919
  859SOL     OW 2575   1.225   2.330   1.043 -0.3247 -0.2269  0.4318
  859SOL    HW1 2576   1.305   2.345   1.101 -2.9996 -0.7961 -0.8707
  859SOL    HW2 2577   1.175   2.247   1.079 -1.6601 -3.5348  0.0309
  860SOL     OW 2578   2.410   2.393   3.070 -0.3727 -0.1431 -0.0780
  860SOL    HW1 2579   2.493   2.438   0.008  0.5236 -2.7892 -1.9394
  860SOL    HW2 2580   2.428   2.294   3.056 -0.9563 -1.3083  0.3202
  861SOL     OW 2581   2.153   0.023   0.886  0.5638 -0.8284  0.5440
  861SOL    HW1 2582   2.134   0.093   0.955 -0.6065 -2.8075  2.6776
  861SOL    HW2 2583   2.139   3.031   0.926  0.9356  1.2192 -1.5395
  862SOL     OW 2584   2.069   2.854   2.392 -0.7931 -0.7351 -0.2384
  862SOL    HW1 2585   2.117   2.923   2.451  3.7950  0.0589  3.3602
  862SOL    HW2 2586   2.045   2.906   2.305 -2.9559  1.8030  0.7105
  863SOL     OW 2587   0.254   0.795   0.603 -0.2844  0.7495 -0.0022
  863SOL    HW1 2588   0.318   0.713   0.606 -0.4913  0.0255  1.3053
  863SOL    HW2 2589   0.267   0.845   0.513 -0.9832  3.0897 -1.3520
  864SOL     OW 2590   2.925   2.424   2.195  0.0133  0.4886 -0.2909
  864SOL    HW1 2591   3.023   2.391   2.186  2.7111  1.2881  0.2784
  864SOL    HW2 2592   2.923   2.523   2.177 -0.2485 -3.4274 -0.1405
  865SOL     OW 2593   0.436   1.466   2.737 -0.3182  0.2188 -0.1354
  865SOL    HW1 2594   0.392   1.514   2.817 -0.1902  1.5342 -0.3439
  865SOL    HW2 2595   0.528   1.421   2.754  2.9046 -1.3511  0.1998
  866SOL     OW 2596   2.795   0.695   2.653 -0.0272 -0.1900 -0.1076
  866SOL    HW1 2597   2.844   0.734   2.571 -1.1987  0.1226 -0.3332
  866SOL    HW2 2598   2.762   0.601   2.631 -0.7570  2.0902  2.8208
  867SOL     OW 2599   0.129   3.068   2.864  0.2113  0.0926  0.4735
  867SOL    HW1 2600   0.167   2.996   2.931  0.6383 -2.9472 -1.0181
  867SOL    HW2 2601   0.078   0.039   2.922  0.5526 -0.3269 -0.8069
  868SOL     OW 2602   1.692   2.929   0.775 -0.0304  0.3313 -1.0959
  868SOL    HW1 2603   1.714   3.024   0.760  0.0706 -0.9862 -1.1266
  868SOL    HW2 2604   1.719   2.894   0.866  0.0280  1.5654  1.1075
  869SOL     OW 2605   1.364   1.642   0.883 -0.3894  0.1987 -0.4164
  869SOL    HW1 2606   1.453   1.609   0.840  1.2030 -1.4425 -1.2871
  869SOL    HW2 2607   1.375   1.659   0.982  1.1966  2.4645  2.7194
  870SOL     OW 2608   1.960   2.106   1.287  0.0089  0.2024 -0.0405
  870SOL    HW1 2609   1.989   2.064   1.200  1.3519  0.2642 -1.9600
  870SOL    HW2 2610   1.963   2.041   1.363 -0.6653  1.0281 -0.6013
  871SOL     OW 2611   0.794   1.677   1.651  0.3338 -0.0338 -0.1184
  871SOL    HW1 2612   0.750   1.717   1.572 -0.0028 -0.3666  1.8893
  871SOL    HW2 2613   0.892   1.681   1.650 -1.0373 -0.4570  2.1558
  872SOL     OW 2614   1.294   1.285   1.256  0.6210 -0.8321 -0.1058
  872SOL    HW1 2615   1.372   1.307   1.196  0.8010  0.4066  1.7389
  872SOL    HW2 2616   1.321   1.276   1.357 -0.3612 -1.2805  1.0881
  873SOL     OW 2617   1.136   0.986   2.596 -0.1290  0.2373  0.3489
  873SOL    HW1 2618   1.105   1.082   2.579  1.3427 -1.4527 -1.3879
  873SOL    HW2 2619   1.232   0.985   2.627 -1.4428  0.5535 -2.0571
  874SOL     OW 2620   3.091   1.194   1.395  0.9822 -0.4183  0.2553
  874SOL    HW1 2621   3.057   1.234   1.305 -3.2835  1.5782 -0.5590
  874SOL    HW2 2622   0.064   1.120   1.386 -3.7858 -1.3852 -0.5240
  875SOL     OW 2623   2.716   2.947   0.840 -0.0164  0.3701 -0.0363
  875SOL    HW1 2624   2.753   3.028   0.888  1.1165  2.6362  3.5145
  875SOL    HW2 2625   2.614   2.946   0.843  0.3457 -1.5444 -1.1015
  876SOL     OW 2626   1.173   0.417   2.850 -0.2275 -0.2961  0.1861
  876SOL    HW1 2627   1.266   0.398   2.810 -0.0510 -1.1040  0.4734
  876SOL    HW2 2628   1.110   0.456   2.777 -1.0182 -2.6111 -1.8253
  877SOL     OW 2629   0.215   0.430   1.143  0.2041  0.8304  0.3657
  877SOL    HW1 2630   0.115   0.419   1.155  0.1580 -0.9637  0.2874
  877SOL    HW2 2631   0.239   0.412   1.047  0.3487 -1.4032  3.3945
  878SOL     OW 2632   1.754   2.711   0.082 -0.1969 -0.3664 -0.0133
  878SOL    HW1 2633   1.789   2.808   0.087 -0.6870  0.8789  0.2222
  878SOL    HW2 2634   1.759   2.666   0.176 -0.2861 -2.6305 -3.4454
  879SOL     OW 2635   2.074   1.605   1.671  0.2976 -0.8451 -0.1939
  879SOL    HW1 2636   2.114   1.667   1.601  0.1486  1.1326 -0.1347
  879SOL    HW2 2637   2.114   1.633   1.761  0.0869  0.7825  0.0522
  880SOL     OW 2638   0.881   0.830   1.487 -0.1197 -0.3537 -0.3996
  880SOL    HW1 2639   0.879   0.790   1.582 -1.0558  0.0467  0.0287
  880SOL    HW2 2640   0.879   0.932   1.495 -0.9239  2.9162  1.3218
  881SOL     OW 2641   0.850   1.806   0.027  0.6270 -0.0573  0.2731
  881SOL    HW1 2642   0.794   1.776   3.045  0.2761 -0.1960 -0.7689
  881SOL    HW2 2643   0.860   1.907   0.021  0.2935 -1.0400 -0.7302
  882SOL     OW 2644   1.813   0.770   1.102  0.8870 -0.2823  0.3774
  882SOL    HW1 2645   1.755   0.718   1.163  1.3595  1.8687 -1.5040
  882SOL    HW2 2646   1.885   0.714   1.071  0.0554  4.6292  2.0834
  883SOL     OW 2647   1.777   0.583   2.058 -0.9475  0.5415 -0.4648
  883SOL    HW1 2648   1.787   0.568   2.154  0.4946 -0.7383 -0.8206
  883SOL    HW2 2649   1.857   0.543   2.001  0.3908 -0.0849  2.2299
  884SOL     OW 2650   2.470   0.396   3.091 -0.4487 -0.1171  0.2020
  884SOL    HW1 2651   2.523   0.373   3.004 -0.8261  1.3245  1.4731
  884SOL    HW2 2652   2.530   0.459   0.047  0.3140  2.5702 -1.5028
  885SOL     OW 2653   0.502   1.992   0.562  0.3871 -0.0402 -0.0714
  885SOL    HW1 2654   0.509   2.059   0.484  0.0929  0.2263 -1.6004
  885SOL    HW2 2655   0.576   2.016   0.627  0.9485  0.7035  0.1584
  886SOL     OW 2656   1.708   1.307   0.038 -0.3654 -0.2542 -0.1506
  886SOL    HW1 2657   1.634   1.256   0.083  0.0201  1.0412 -0.1400
  886SOL    HW2 2658   1.723   1.400   0.084  0.1886  0.5786  0.3833
  887SOL     OW 2659   1.385   0.545   1.590  0.2881 -0.3441 -0.0323
  887SOL    HW1 2660   1.326   0.514   1.509 -1.2945  0.4583 -0.6227
  887SOL    HW2 2661   1.392   0.651   1.600  0.5570 -0.6882  0.5536
  888SOL     OW 2662   2.904   1.005   1.522 -0.0869 -0.1768  0.2042
  888SOL    HW1 2663   2.945   1.080   1.466 -0.7113 -0.0999  2.6395
  888SOL    HW2 2664   2.804   1.003   1.529  0.9197  1.7448  2.4614
  889SOL     OW 2665   2.957   2.428   1.006 -0.3870 -0.0853  0.1026
  889SOL    HW1 2666   2.990   2.499   0.941  0.3054 -1.5034 -1.6483
  889SOL    HW2 2667   3.027   2.347   1.011  1.1921 -2.4557  0.8309
  890SOL     OW 2668   0.066   2.318   2.280 -0.1770 -0.3368 -0.3972
  890SOL    HW1 2669   0.048   2.316   2.384 -0.2870  1.0487  1.9555
  890SOL    HW2 2670   0.163   2.345   2.261 -0.6209  1.1233 -0.6135
  891SOL     OW 2671   0.530   1.666   0.233 -0.2708 -0.3640  0.0909
  891SOL    HW1 2672   0.544   1.765   0.220 -0.4758  0.1674 -1.9464
  891SOL    HW2 2673   0.574   1.633   0.315  1.9569  1.8358 -2.0468
  892SOL     OW 2674   0.042   2.244   1.414 -0.1917  0.0142  0.1411
  892SOL    HW1 2675   0.014   2.173   1.480 -2.2687 -1.3304 -3.4575
  892SOL    HW2 2676   3.096   2.335   1.431  0.0623  0.2858  2.5643
  893SOL     OW 2677   0.201   3.064   1.661  0.8291  0.2638 -0.1132
  893SOL    HW1 2678   0.146   0.042   1.700  2.8074  0.8688  0.9953
  893SOL    HW2 2679   0.144   2.979   1.651  1.2546 -0.9913  1.4044
  894SOL     OW 2680   2.595   1.877   0.829  0.0635 -0.0072  0.1131
  894SOL    HW1 2681   2.665   1.940   0.874  1.4593 -0.4396  0.6047
  894SOL    HW2 2682   2.554   1.929   0.754 -1.5783 -1.2034  0.7403
  895SOL     OW 2683   2.122   2.672   1.503  0.0586  0.0013 -0.2449
  895SOL    HW1 2684   2.062   2.615   1.567 -1.2499  2.4316 -1.8069
  895SOL    HW2 2685   2.192   2.612   1.451  3.1884 -1.2338 -2.2974
  896SOL     OW 2686   0.748   0.001   1.527  0.1415 -0.6289 -1.0314
  896SOL    HW1 2687   0.761   0.042   1.623 -0.8948  0.8191  2.7442
  896SOL    HW2 2688   0.710   2.998   1.530 -0.9228 -0.0137  1.0956
  897SOL     OW 2689   0.760   1.337   1.271 -0.5386 -0.0295 -0.7978
  897SOL    HW1 2690   0.856   1.312   1.277 -1.2955  2.9407  2.4048
  897SOL    HW2 2691   0.749   1.413   1.205  1.3408 -0.3127 -0.3045
  898SOL     OW 2692   1.503   2.838   1.520 -0.7043  0.5363 -0.1060
  898SOL    HW1 2693   1.606   2.839   1.519  1.0835  1.1216  0.3001
  898SOL    HW2 2694   1.459   2.770   1.457 -3.2069  0.0152  1.6343
  899SOL     OW 2695   1.183   0.304   3.088  0.5450 -0.0264 -0.7692
  899SOL    HW1 2696   1.249   0.229   3.088 -1.8264  0.2379 -0.9363
  899SOL    HW2 2697   1.166   0.338   2.994  0.7926  0.6310 -0.2012
  900SOL     OW 2698   1.024   2.643   2.188 -0.1961 -0.2187 -0.0262
  900SOL    HW1 2699   1.052   2.606   2.099 -2.0296  3.4111 -0.0109
  900SOL    HW2 2700   0.964   2.723   2.184  0.0990 -2.7871  0.2601
  901SOL     OW 2701   0.852   2.061   0.285 -0.0647  0.1850 -0.5363
  901SOL    HW1 2702   0.840   2.049   0.386 -1.2410 -0.1102  0.1015
  901SOL    HW2 2703   0.951   2.055   0.252  0.1364 -1.6946  1.7789
  902SOL     OW 2704   1.640   1.155   1.302 -0.0308 -0.3980  0.3320
  902SOL    HW1 2705   1.581   1.076   1.305  3.4520  1.4099 -1.3662
  902SOL    HW2 2706   1.590   1.238   1.273  1.6035  0.2338  0.0050
  903SOL     OW 2707   2.654   1.019   2.718  0.1036 -0.1358 -0.1077
  903SOL    HW1 2708   2.618   1.076   2.791  7.4342  2.0707  1.2273
  903SOL    HW2 2709   2.664   1.066   2.629 -0.5630  1.1429  1.0455
  904SOL     OW 2710   0.900   1.319   0.134  0.4788  0.1151 -0.1598
  904SOL    HW1 2711   0.912   1.419   0.162  1.6551  1.8120  0.1280
  904SOL    HW2 2712   0.948   1.254   0.202  0.1114 -2.1189 -0.1981
  905SOL     OW 2713   1.706   3.001   1.218 -0.4762  0.4474  0.6951
  905SOL    HW1 2714   1.731   0.006   1.213 -1.0922 -0.2702 -0.8709
  905SOL    HW2 2715   1.610   2.989   1.186  0.9614  0.8550 -3.8889
  906SOL     OW 2716   2.308   2.833   0.839 -0.1006 -0.3591  0.5362
  906SOL    HW1 2717   2.365   2.816   0.756  1.2974  1.7032  1.1702
  906SOL    HW2 2718   2.364   2.892   0.900  0.4012 -2.4231  0.1329
  907SOL     OW 2719   1.520   0.690   0.527  0.8866  0.0998 -0.2977
  907SOL    HW1 2720   1.472   0.612   0.576 -0.2818 -1.3632  0.8804
  907SOL    HW2 2721   1.456   0.768   0.513 -1.0144  0.4071  3.3925
  908SOL     OW 2722   1.751   0.186   1.224  0.4023  0.1485 -0.3641
  908SOL    HW1 2723   1.797   0.276   1.208 -0.4272 -1.1467  0.4597
  908SOL    HW2 2724   1.716   0.183   1.318 -1.3963 -0.0515 -0.9707
  909SOL     OW 2725   1.871   0.417   1.197 -0.1456  0.1533 -0.0012
  909SOL    HW1 2726   1.907   0.456   1.112  0.6507  2.3386 -0.5816
  909SOL    HW2 2727   1.932   0.430   1.278  0.2191  1.5043  1.4583
  910SOL     OW 2728   2.466   0.500   1.852  0.0554 -0.1468 -0.1820
  910SOL    HW1 2729   2.441   0.597   1.877 -0.5392  0.1158 -1.8261
  910SOL    HW2 2730   2.382   0.443   1.855  2.8093 -1.0884  0.6186
  911SOL     OW 2731   2.433   0.372   2.658 -0.0111 -0.1153  0.4446
  911SOL    HW1 2732   2.376   0.456   2.675  0.4922  0.5813  0.0168
  911SOL    HW2 2733   2.483   0.346   2.744 -0.5609 -0.2924  0.4004
  912SOL     OW 2734   0.726   1.062   1.818 -0.6404  0.3650 -0.4732
  912SOL    HW1 2735   0.816   1.108   1.815 -0.9899 -0.6390  1.1989
  912SOL    HW2 2736   0.673   1.056   1.727 -4.5884 -0.5783  1.0027
  913SOL     OW 2737   2.719   2.396   1.538 -0.1840  0.0079  0.1049
  913SOL    HW1 2738   2.805   2.404   1.595  1.2785 -0.5756 -2.6818
  913SOL    HW2 2739   2.720   2.471   1.467 -1.8816 -1.1503  0.3291
  914SOL     OW 2740   1.792   0.982   1.619  0.3129 -0.0514 -0.3436
  914SOL    HW1 2741   1.859   1.049   1.584 -2.2839 -0.0601  0.4519
  914SOL    HW2 2742   1.707   1.036   1.647  0.7892  0.2460 -0.7465
  915SOL     OW 2743   2.663   1.174   0.872  0.0473 -0.0836 -0.1738
  915SOL    HW1 2744   2.591   1.179   0.950 -5.0812 -0.7115  0.8266
  915SOL    HW2 2745   2.718   1.257   0.872 -2.8203 -0.4433 -0.6295
  916SOL     OW 2746   1.855   2.315   1.152 -0.0184 -0.0411 -0.3684
  916SOL    HW1 2747   1.854   2.383   1.228 -2.1137  0.8178  1.4634
  916SOL    HW2 2748   1.906   2.229   1.186 -0.6962 -0.9188 -0.1701
  917SOL     OW 2749   2.010   2.605   2.396  0.1232 -0.0855  0.1643
  917SOL    HW1 2750   1.947   2.586   2.475  0.3677  2.2142 -1.5616
  917SOL    HW2 2751   2.030   2.705   2.388 -2.6848  0.8044  4.0784
  918SOL     OW 2752   1.903   2.887   2.617  0.0499 -0.2202  0.2871
  918SOL    HW1 2753   1.829   2.952   2.598 -0.4653 -2.4516 -0.8731
  918SOL    HW2 2754   1.950   2.860   2.526 -0.3059 -1.9427 -0.5895
  919SOL     OW 2755   0.996   0.123   1.413 -0.2078  0.5224 -0.0820
  919SOL    HW1 2756   0.906   0.083   1.440 -0.3751  1.7579  3.1829
  919SOL    HW2 2757   1.072   0.063   1.442 -1.9548 -2.1789 -2.9911
  920SOL     OW 2758   2.901   0.434   2.422  1.1141 -0.0909 -0.2139
  920SOL    HW1 2759   2.827   0.420   2.493  0.1990  1.4137  0.5115
  920SOL    HW2 2760   2.945   0.526   2.445  0.0117  0.4218 -1.4456
  921SOL     OW 2761   3.089   0.819   1.852 -0.0529 -0.8458  0.2717
  921SOL    HW1 2762   0.093   0.853   1.857  0.4136 -2.8461 -0.4142
  921SOL    HW2 2763   3.029   0.901   1.826  1.3895 -0.9734  0.5720
  922SOL     OW 2764   2.471   2.471   0.442 -0.0311  0.1663  0.1688
  922SOL    HW1 2765   2.476   2.552   0.501  0.0524 -1.7540  0.1128
  922SOL    HW2 2766   2.420   2.490   0.355  1.6199 -1.5407  1.4428
  923SOL     OW 2767   0.686   2.079   0.733 -0.0295 -0.5485 -0.1357
  923SOL    HW1 2768   0.706   2.177   0.743  0.0249 -3.4482 -2.8336
  923SOL    HW2 2769   0.631   2.041   0.808  0.3629 -0.8568 -0.3743
  924SOL     OW 2770   1.058   0.799   2.752 -0.7125 -0.6969  0.0652
  924SOL    HW1 2771   0.974   0.822   2.803  1.1291  0.5234  1.9092
  924SOL    HW2 2772   1.090   0.885   2.698 -1.6364  0.1747 -0.7156
  925SOL     OW 2773   2.555   1.240   0.525  0.4777 -0.0790  0.6591
  925SOL    HW1 2774   2.610   1.174   0.579  0.4499  1.0024 -0.0659
  925SOL    HW2 2775   2.494   1.290   0.589  2.2015 -0.1743 -1.7351
  926SOL     OW 2776   0.544   0.325   1.238  0.1258 -0.3241  0.1419
  926SOL    HW1 2777   0.569   0.223   1.244  0.0745  3.1820  1.7777
  926SOL    HW2 2778   0.447   0.348   1.245  2.4576 -0.5876  1.3799
  927SOL     OW 2779   0.452   1.630   2.521  0.6364 -0.1748  0.5878
  927SOL    HW1 2780   0.461   1.556   2.590  0.0735 -0.9265 -1.3026
  927SOL    HW2 2781   0.392   1.601   2.444 -0.7520  0.1874  1.0788
  928SOL     OW 2782   0.137   0.461   2.114  0.3257 -0.6536 -0.2243
  928SOL    HW1 2783   0.109   0.411   2.201 -0.9359 -0.3065  0.9627
  928SOL    HW2 2784   0.184   0.397   2.048  2.3764 -3.1640  1.8904
  929SOL     OW 2785   2.971   2.555   1.253 -0.5409 -0.3955  0.0714
  929SOL    HW1 2786   2.976   2.513   1.159 -2.5954  2.1024 -0.9662
  929SOL    HW2 2787   3.002   2.656   1.252 -0.3052  2.3628 -1.2065
  930SOL     OW 2788   1.914   0.184   1.949 -0.1534 -0.6805  0.4263
  930SOL    HW1 2789   2.009   0.163   1.920  0.8403 -0.0412  1.6331
  930SOL    HW2 2790   1.906   0.213   2.048  1.8012  0.7151 -0.1260
  931SOL     OW 2791   2.279   1.194   2.996 -0.8969  0.4518 -0.5276
  931SOL    HW1 2792   2.242   1.259   3.065 -2.3942  0.1666 -0.1085
  931SOL    HW2 2793   2.213   1.187   2.918 -0.0441 -0.6402  2.1691
  932SOL     OW 2794   1.884   1.388   0.681 -0.0181 -0.0277 -0.0925
  932SOL    HW1 2795   1.930   1.298   0.701 -1.1660 -2.6947 -0.0283
  932SOL    HW2 2796   1.784   1.370   0.694  1.2726  2.7258 -0.9550
  933SOL     OW 2797   1.782   1.741   1.159 -0.2158 -0.3366  0.4077
  933SOL    HW1 2798   1.763   1.697   1.069  0.6477 -3.3639 -2.5161
  933SOL    HW2 2799   1.820   1.665   1.219  0.5781 -1.1771  1.5125
  934SOL     OW 2800   2.190   0.922   2.594 -0.0425 -0.7731  0.0686
  934SOL    HW1 2801   2.198   0.872   2.689  1.4430 -1.4002  4.1212
  934SOL    HW2 2802   2.177   0.861   2.515 -1.1988 -0.2193 -4.5726
  935SOL     OW 2803   0.055   1.167   0.517  0.0023  0.1614  0.1589
  935SOL    HW1 2804   0.140   1.212   0.494 -2.6872  2.1661  0.3907
  935SOL    HW2 2805   3.092   1.232   0.571 -0.2325 -0.4170  1.4338
  936SOL     OW 2806   0.248   2.865   0.579  0.7026 -0.7681 -0.2126
  936SOL    HW1 2807   0.270   2.960   0.610  0.1217 -1.6461 -0.7354
  936SOL    HW2 2808   0.272   2.805   0.652 -0.9439  4.5704 -3.8328
  937SOL     OW 2809   2.948   2.392   1.679  0.7084 -0.3352  0.3651
  937SOL    HW1 2810   2.910   2.428   1.765 -0.3335 -1.0396 -0.2424
  937SOL    HW2 2811   3.036   2.344   1.703  1.6586  0.9113 -0.6836
  938SOL     OW 2812   2.714   2.276   0.207  0.0933 -0.1552  0.0991
  938SOL    HW1 2813   2.686   2.359   0.153 -0.7698  1.1414  0.0873
  938SOL    HW2 2814   2.782   2.300   0.278 -0.5917 -1.9549 -1.6068
  939SOL     OW 2815   1.100   1.038   1.301  0.1214  0.4947  0.1218
  939SOL    HW1 2816   1.144   1.126   1.284 -0.2899 -0.1398 -0.5271
  939SOL    HW2 2817   1.078   0.993   1.208 -0.6041 -1.4911 -2.3914
  940SOL     OW 2818   2.696   0.446   2.606 -0.6978  0.0765  0.1124
  940SOL    HW1 2819   2.601   0.448   2.576  0.5685  2.6219 -2.2286
  940SOL    HW2 2820   2.700   0.409   2.700 -2.1661 -0.0105 -0.3863
  941SOL     OW 2821   2.778   2.587   2.705 -0.2951 -0.2526 -0.3510
  941SOL    HW1 2822   2.714   2.602   2.625 -0.2362  1.6700  0.0548
  941SOL    HW2 2823   2.807   2.487   2.705 -2.7569  1.6128 -2.6658
  942SOL     OW 2824   1.405   0.144   1.267 -0.3232 -0.5258  0.4384
  942SOL    HW1 2825   1.455   0.108   1.346 -0.0605  2.5310  0.0354
  942SOL    HW2 2826   1.455   0.225   1.220  0.5697 -2.4361 -2.0643
  943SOL     OW 2827   1.062   1.283   2.271  0.4444 -0.0510 -0.2544
  943SOL    HW1 2828   1.047   1.195   2.220  0.4183 -3.6668  0.9266
  943SOL    HW2 2829   1.012   1.359   2.229  0.3421 -0.1188 -0.9321
  944SOL     OW 2830   2.106   1.113   1.257  0.1906 -0.5199 -0.0585
  944SOL    HW1 2831   2.018   1.060   1.261 -2.4491  0.5828  0.3860
  944SOL    HW2 2832   2.120   1.146   1.163  0.2980  3.2623 -1.5021
  945SOL     OW 2833   2.893   2.954   2.899 -0.3538 -0.2506 -0.1279
  945SOL    HW1 2834   2.934   2.895   2.826 -0.1880 -0.3776  1.8649
  945SOL    HW2 2835   2.945   2.934   2.989  2.3864 -0.4255  2.2716
  946SOL     OW 2836   0.012   1.329   1.660 -0.3858 -0.3576 -0.4468
  946SOL    HW1 2837   0.026   1.295   1.566 -1.4206  2.5895  0.3010
  946SOL    HW2 2838   0.090   1.312   1.722  0.3568 -0.1841  1.0534
  947SOL     OW 2839   0.891   2.983   0.269 -0.1987 -0.2252  0.3851
  947SOL    HW1 2840   0.851   2.947   0.181 -0.6894  1.0419  0.9099
  947SOL    HW2 2841   0.817   3.022   0.326  0.5646  0.3966 -0.5137
  948SOL     OW 2842   2.298   1.811   1.252  0.0400 -0.1508  0.4832
  948SOL    HW1 2843   2.355   1.733   1.281  0.1838 -1.8767 -1.3644
  948SOL    HW2 2844   2.300   1.813   1.149  1.2068  1.3847 -0.5399
  949SOL     OW 2845   0.272   0.889   2.743 -0.0040 -0.0573  0.0574
  949SOL    HW1 2846   0.171   0.914   2.755  0.1732  0.5830  0.1644
  949SOL    HW2 2847   0.327   0.973   2.737  0.3940 -0.9069 -0.8644
  950SOL     OW 2848   0.548   2.375   1.270  0.1782  0.3669  0.0570
  950SOL    HW1 2849   0.476   2.448   1.276 -0.1277 -0.6362 -1.9762
  950SOL    HW2 2850   0.608   2.395   1.191 -0.0310  2.2757  0.1050
  951SOL     OW 2851   0.922   1.649   2.713 -0.0345  0.0691 -0.2909
  951SOL    HW1 2852   0.871   1.598   2.785 -2.9385  1.8106  1.2081
  951SOL    HW2 2853   0.854   1.678   2.641  0.7976 -0.0323 -0.6018
  952SOL     OW 2854   0.638   1.117   0.663  0.3617 -0.0379 -0.0422
  952SOL    HW1 2855   0.694   1.056   0.718 -0.1493  1.5460  1.4820
  952SOL    HW2 2856   0.546   1.137   0.705 -1.9892 -1.5111 -0.0770
  953SOL     OW 2857   2.476   2.461   2.676  0.0200  0.9201  0.1029
  953SOL    HW1 2858   2.528   2.528   2.619 -1.6261  1.1430  0.3256
  953SOL    HW2 2859   2.376   2.477   2.670 -0.9483  0.4083 -1.6135
  954SOL     OW 2860   1.764   1.002   0.864 -0.4201 -0.2804 -0.2507
  954SOL    HW1 2861   1.792   0.958   0.951  0.4713  0.9578  0.6933
  954SOL    HW2 2862   1.841   1.048   0.820 -0.8625  0.6898 -0.6084
  955SOL     OW 2863   0.612   1.932   0.245  0.3791 -0.1066 -0.8832
  955SOL    HW1 2864   0.707   1.967   0.256  0.4340 -0.0114  0.0128
  955SOL    HW2 2865   0.549   2.009   0.277  0.1451  1.5601  0.9234
  956SOL     OW 2866   2.628   0.260   1.733 -0.1850  0.7072 -0.1297
  956SOL    HW1 2867   2.616   0.361   1.756  1.6284 -1.6813 -0.1525
  956SOL    HW2 2868   2.622   0.207   1.825  1.7028 -1.0933  0.7822
  957SOL     OW 2869   1.845   2.335   1.815 -0.0896  0.1736  0.2277
  957SOL    HW1 2870   1.832   2.327   1.911 -1.3139 -1.4266 -2.1444
  957SOL    HW2 2871   1.833   2.242   1.768 -0.0990 -2.1231  0.1314
  958SOL     OW 2872   1.577   1.115   1.680 -0.1420 -0.0890 -0.3445
  958SOL    HW1 2873   1.498   1.093   1.621  1.1071  0.4155 -0.7587
  958SOL    HW2 2874   1.544   1.176   1.758 -3.6214  1.4698  1.9263
  959SOL     OW 2875   1.480   2.132   2.231  0.3330 -0.3001  0.5187
  959SOL    HW1 2876   1.522   2.226   2.243  2.2164  5.1864 -1.8816
  959SOL    HW2 2877   1.464   2.091   2.322 -0.0993 -0.8696 -1.3565
  960SOL     OW 2878   0.662   0.583   2.737  0.8908  0.2525  0.3222
  960SOL    HW1 2879   0.563   0.611   2.743  3.0930  0.0616 -0.3883
  960SOL    HW2 2880   0.699   0.634   2.660 -2.6600 -2.9462  1.2409
  961SOL     OW 2881   0.029   0.987   2.792  0.0171  0.1219  0.1848
  961SOL    HW1 2882   3.041   0.942   2.822 -0.2050  2.4975  0.4762
  961SOL    HW2 2883   0.015   1.054   2.714 -0.4556 -0.0821  0.6747
  962SOL     OW 2884   0.888   2.029   2.962  0.6397 -0.1706  0.1187
  962SOL    HW1 2885   0.903   1.937   2.930 -0.8640 -0.9720 -0.7405
  962SOL    HW2 2886   0.858   2.084   2.885  0.6280 -1.5257  0.9555
  963SOL     OW 2887   2.880   2.133   0.024  0.7692  0.0537 -0.4574
  963SOL    HW1 2888   2.792   2.100   3.082  0.4728  1.9254  1.3102
  963SOL    HW2 2889   2.850   2.179   0.108 -1.2420  0.3263 -3.4284
  964SOL     OW 2890   0.817   2.183   2.326 -0.0695  0.0526  0.2528
  964SOL    HW1 2891   0.730   2.158   2.368  3.1239 -0.5599 -0.2679
  964SOL    HW2 2892   0.838   2.279   2.350  0.4746 -0.2833  0.7045
  965SOL     OW 2893   1.686   2.012   1.186 -0.7891  0.2411  0.1418
  965SOL    HW1 2894   1.732   2.051   1.268 -0.0772  1.2358  1.3652
  965SOL    HW2 2895   1.719   1.917   1.176  0.0559 -0.2177  1.2648
  966SOL     OW 2896   0.021   1.761   2.955 -0.0582 -0.1386 -0.4605
  966SOL    HW1 2897   0.015   1.828   3.030  2.5997 -1.4841  0.6925
  966SOL    HW2 2898   0.045   1.667   2.992 -1.2353 -1.6955 -1.4480
  967SOL     OW 2899   2.038   3.009   2.155 -0.2430 -0.3567  0.2207
  967SOL    HW1 2900   2.132   3.005   2.112  1.3287  0.2523 -0.0227
  967SOL    HW2 2901   1.970   2.992   2.081 -1.0227  0.9865  2.3865
  968SOL     OW 2902   0.918   0.665   0.023  0.2187 -0.6727  0.7656
  968SOL    HW1 2903   0.926   0.764   0.009  0.1730  0.8539 -0.7240
  968SOL    HW2 2904   1.001   0.622   0.055 -1.7038 -2.7788 -0.4844
  969SOL     OW 2905   0.536   1.327   2.302 -0.4503 -0.6651 -0.2820
  969SOL    HW1 2906   0.446   1.378   2.297  0.1187  1.4919 -1.3346
  969SOL    HW2 2907   0.547   1.258   2.228  2.0845  1.4575 -0.1484
  970SOL     OW 2908   2.093   2.892   0.997  0.0382 -0.1976  0.0149
  970SOL    HW1 2909   2.040   2.811   1.030 -0.8298 -1.2854 -1.4865
  970SOL    HW2 2910   2.171   2.861   0.940  5.5362 -2.8428  0.4479
  971SOL     OW 2911   1.933   2.277   0.638 -0.0954  0.2910 -0.3278
  971SOL    HW1 2912   1.951   2.267   0.735 -1.0705 -0.1662 -0.8642
  971SOL    HW2 2913   2.022   2.302   0.592  0.1179 -0.8676 -0.8670
  972SOL     OW 2914   3.075   1.193   2.622 -0.3522 -0.4397  0.0801
  972SOL    HW1 2915   3.024   1.210   2.534 -0.8447 -1.6427 -0.3148
  972SOL    HW2 2916   0.063   1.247   2.619 -0.5843 -2.6850 -0.7984
  973SOL     OW 2917   0.576   0.200   0.280 -0.2612 -0.0029  0.1416
  973SOL    HW1 2918   0.645   0.277   0.282 -1.3379  0.8742 -0.4563
  973SOL    HW2 2919   0.541   0.194   0.183  0.6986  0.9185  1.4353
  974SOL     OW 2920   2.495   0.764   1.990 -0.6007 -0.2786  0.1120
  974SOL    HW1 2921   2.561   0.752   2.071  1.4267 -0.9176  0.1886
  974SOL    HW2 2922   2.452   0.859   1.987  1.7569 -0.1956  0.1995
  975SOL     OW 2923   0.065   0.007   0.706 -0.2632  0.0756  0.4097
  975SOL    HW1 2924   0.022   0.037   0.795 -2.2229 -0.3578 -0.2571
  975SOL    HW2 2925   3.092   3.045   0.668  0.0160  0.1391  0.0421
  976SOL     OW 2926   0.548   1.666   1.313  0.4581  0.2983 -0.7383
  976SOL    HW1 2927   0.457   1.638   1.350 -1.6570  1.7338 -1.2028
  976SOL    HW2 2928   0.591   1.736   1.371 -0.6151  0.3527  2.8545
  977SOL     OW 2929   1.114   2.018   0.191  0.0443 -0.0097  0.0549
  977SOL    HW1 2930   1.162   1.992   0.102 -3.1409 -0.7801 -0.4564
  977SOL    HW2 2931   1.171   2.087   0.243  1.9679  1.3650  2.8424
  978SOL     OW 2932   0.043   0.544   0.005  0.4077 -0.2079 -0.0991
  978SOL    HW1 2933   0.012   0.545   3.006  1.0320 -2.3940  2.2956
  978SOL    HW2 2934   0.143   0.561   0.013 -1.6601  1.2121  1.0553
  979SOL     OW 2935   1.782   1.747   0.829 -0.1330 -0.2335  0.0692
  979SOL    HW1 2936   1.751   1.652   0.808  1.6221  0.6602  1.3115
  979SOL    HW2 2937   1.702   1.809   0.809 -3.5122  0.1921 -0.2160
  980SOL     OW 2938   0.484   2.017   2.031  0.1057 -0.5276  0.2505
  980SOL    HW1 2939   0.549   1.948   2.001 -0.4736  0.9108 -1.1789
  980SOL    HW2 2940   0.498   2.107   1.987 -0.3938 -1.2187  2.5333
  981SOL     OW 2941   2.259   1.362   2.615 -0.4240  0.3281 -0.5611
  981SOL    HW1 2942   2.329   1.432   2.644  1.4223  1.4489  0.3868
  981SOL    HW2 2943   2.172   1.409   2.600  2.3194 -1.1051  0.5874
  982SOL     OW 2944   0.117   2.296   1.750  0.3650  0.3202  0.1378
  982SOL    HW1 2945   0.113   2.210   1.696  0.5885 -1.2814  0.1393
  982SOL    HW2 2946   0.119   2.272   1.845 -1.6186  1.0154 -5.1335
  983SOL     OW 2947   1.413   0.311   1.718 -0.8050 -0.0451  0.0231
  983SOL    HW1 2948   1.403   0.391   1.652 -3.2533  0.9881 -0.2278
  983SOL    HW2 2949   1.507   0.294   1.748  2.3010 -0.8846  0.4875
  984SOL     OW 2950   2.673   2.881   3.066 -0.4357  0.1184 -0.0662
  984SOL    HW1 2951   2.723   2.939   3.007 -0.6918 -4.0145  3.2155
  984SOL    HW2 2952   2.662   2.790   3.020  0.1028  0.3120 -0.3275
  985SOL     OW 2953   1.520   1.258   1.905  0.1690 -0.1473  0.4513
  985SOL    HW1 2954   1.567   1.349   1.927 -2.3932 -1.1307 -1.1290
  985SOL    HW2 2955   1.554   1.186   1.965 -2.2976  1.3322 -1.8878
  986SOL     OW 2956   1.917   0.168   2.445  0.2060 -0.1195 -0.2637
  986SOL    HW1 2957   2.011   0.123   2.448  4.4073 -1.0646 -0.9132
  986SOL    HW2 2958   1.914   0.248   2.512 -1.0424 -4.1321  0.5805
  987SOL     OW 2959   2.626   1.798   2.796 -0.9354  0.0774  0.6200
  987SOL    HW1 2960   2.724   1.766   2.819  3.6505 -0.6748  1.1399
  987SOL    HW2 2961   2.622   1.849   2.712 -0.8392  1.4428  0.4947
  988SOL     OW 2962   3.059   0.656   1.231  0.0372  0.7207 -0.5380
  988SOL    HW1 2963   3.061   0.555   1.227 -0.9855 -1.8117  0.8732
  988SOL    HW2 2964   3.072   0.693   1.324  1.0796  1.6143  1.0957
  989SOL     OW 2965   1.840   1.034   1.168 -0.5596 -0.1856  0.1720
  989SOL    HW1 2966   1.818   0.936   1.170 -1.2829  1.0799  1.7532
  989SOL    HW2 2967   1.753   1.082   1.195 -2.3727  0.3727  3.7638
  990SOL     OW 2968   2.615   0.310   2.888 -0.4203  0.5815 -0.1689
  990SOL    HW1 2969   2.695   0.366   2.901 -2.7479 -1.5727  0.7193
  990SOL    HW2 2970   2.644   0.212   2.897  0.4048 -0.3117  0.7729
  991SOL     OW 2971   0.106   1.509   3.081  0.3820 -0.4603  0.3217
  991SOL    HW1 2972   0.044   1.432   3.052 -1.4459  0.4220 -0.1367
  991SOL    HW2 2973   0.138   1.492   0.077  1.0685  1.6663 -2.9772
  992SOL     OW 2974   2.157   1.475   1.958  0.0394  0.1053  0.5569
  992SOL    HW1 2975   2.152   1.576   1.928 -0.2790 -0.0106 -0.6570
  992SOL    HW2 2976   2.216   1.428   1.884  2.1362 -1.3958 -1.9030
  993SOL     OW 2977   0.459   2.647   0.608  0.1086 -0.1643 -0.5248
  993SOL    HW1 2978   0.526   2.593   0.664 -0.6925 -0.9304 -0.3150
  993SOL    HW2 2979   0.474   2.746   0.620 -0.0655 -3.5829 -1.2078
  994SOL     OW 2980   3.031   1.720   1.581  0.1549 -0.1304 -0.0950
  994SOL    HW1 2981   2.972   1.635   1.598 -1.1289 -1.3187  0.3877
  994SOL    HW2 2982   2.974   1.785   1.526 -1.0031  1.1769  1.6348
  995SOL     OW 2983   1.602   2.132   2.589  0.1612  0.6836  0.0947
  995SOL    HW1 2984   1.699   2.131   2.565 -2.5449  1.3346 -1.3126
  995SOL    HW2 2985   1.557   2.056   2.537 -1.3742 -0.9560 -0.4333
  996SOL     OW 2986   2.121   1.858   0.167  0.8157  0.7588  0.4606
  996SOL    HW1 2987   2.028   1.900   0.159 -1.3283 -0.1648  1.9035
  996SOL    HW2 2988   2.166   1.895   0.249 -0.4440 -0.3175  1.8108
  997SOL     OW 2989   1.491   1.373   2.480 -0.1167  0.0443 -0.2977
  997SOL    HW1 2990   1.481   1.319   2.565 -2.4806 -1.0546 -0.1087
  997SOL    HW2 2991   1.502   1.473   2.499 -1.5780 -1.1746  0.2815
  998SOL     OW 2992   3.062   2.333   0.702 -0.0892 -0.5012 -0.3850
  998SOL    HW1 2993   3.094   2.395   0.623 -1.2382  0.4414 -0.3358
  998SOL    HW2 2994   2.971   2.365   0.734 -1.5803 -0.3574 -1.0261
  999SOL     OW 2995   0.283   2.504   0.394  0.3455 -0.6388 -0.1856
  999SOL    HW1 2996   0.338   2.466   0.321  0.8812 -0.3599  1.7626
  999SOL    HW2 2997   0.318   2.591   0.420 -1.7436 -6.8154 -0.0232
 1000SOL     OW 2998   1.140   0.194   0.242 -0.4015  0.4926  0.0450
 1000SOL    HW1 2999   1.065   0.131   0.218 -3.2477  0.2660  1.1525
 1000SOL    HW2 3000   1.143   0.280   0.184 -0.4692  0.7913 -1.5060
   3.09688   3.09688   3.09688
