1000 SPC/Fw water molecules t= 151.00000 step= 151000
 3000
    1SOL     OW    1   2.429   2.857   0.640 -0.3021  0.0032  0.0417
    1SOL    HW1    2   2.529   2.853   0.636 -2.2473 -0.5191 -1.8603
    1SOL    HW2    3   2.397   2.759   0.648 -0.0885 -1.3150 -2.0011
    2SOL     OW    4   1.480   2.014   2.261  0.0708 -0.2670 -0.2961
    2SOL    HW1    5   1.532   2.101   2.269 -2.1541 -0.4681  0.0431
    2SOL    HW2    6   1.484   1.958   2.343 -0.6679 -0.4912 -3.8157
    3SOL     OW    7   1.821   2.592   2.208  0.0580 -0.4954 -0.3191
    3SOL    HW1    8   1.880   2.540   2.274  1.6693 -1.8018  0.9193
    3SOL    HW2    9   1.815   2.561   2.112 -1.7678 -1.4696 -0.9060
    4SOL     OW   10   1.792   2.609   1.944 -0.2125 -0.5522 -0.6711
    4SOL    HW1   11   1.832   2.526   1.903 -2.2149 -0.2447  1.1144
    4SOL    HW2   12   1.853   2.692   1.928 -1.6154  1.9712 -2.6796
    5SOL     OW   13   0.620   0.553   1.495 -0.1947 -0.2144 -0.4263
    5SOL    HW1   14   0.606   0.522   1.399  1.0349 -3.3451 -2.3405
    5SOL    HW2   15   0.564   0.505   1.567 -0.1720 -1.1612 -0.5323
    6SOL     OW   16   2.348   0.922   2.925 -0.0523 -0.5277 -0.1619
    6SOL    HW1   17   2.275   0.917   2.994 -0.8311  2.6853  1.1802
    6SOL    HW2   18   2.332   0.857   2.850 -0.4951  0.5135  3.9138
    7SOL     OW   19   0.643   0.478   1.226  0.2847 -0.2471  0.4379
    7SOL    HW1   20   0.720   0.416   1.198 -1.2282 -0.0228 -1.6219
    7SOL    HW2   21   0.661   0.565   1.177  0.8968  0.7792  1.3151
    8SOL     OW   22   1.311   2.452   1.395  0.0102  0.0468 -0.2009
    8SOL    HW1   23   1.249   2.396   1.455  1.5011 -2.7366  3.1676
    8SOL    HW2   24   1.393   2.398   1.377 -0.9747  0.1812 -0.8944
    9SOL     OW   25   0.729   1.005   0.148 -0.0123  0.2050  0.0967
    9SOL    HW1   26   0.819   1.022   0.194  2.5937 -2.3278 -0.3458
    9SOL    HW2   27   0.739   0.961   0.056 -1.1184  2.3938 -0.0497
   10SOL     OW   28   0.503   2.733   2.910  0.2480  0.2521  0.4301
   10SOL    HW1   29   0.453   2.639   2.929  0.8584 -0.5329 -0.0102
   10SOL    HW2   30   0.533   2.741   2.809 -0.8803  0.1484 -1.0232
   11SOL     OW   31   0.050   1.561   0.036 -0.5744 -0.4481  0.3131
   11SOL    HW1   32   3.091   1.616   0.089  4.0840 -1.7472 -0.4724
   11SOL    HW2   33   0.088   1.605   3.055  1.8034  2.7093  0.8730
   12SOL     OW   34   0.675   2.959   1.495 -0.0624 -0.1482 -0.3756
   12SOL    HW1   35   0.579   2.926   1.485 -0.5613 -1.9078  0.1920
   12SOL    HW2   36   0.712   3.012   1.413 -0.4464  0.3936  0.1534
   13SOL     OW   37   0.629   2.721   0.568 -0.2884  0.4658 -0.4908
   13SOL    HW1   38   0.638   2.622   0.548  0.2038  2.1398 -0.9621
   13SOL    HW2   39   0.713   2.771   0.539 -1.2903 -1.9537  0.5160
   14SOL     OW   40   1.396   1.971   0.806  0.5912  0.4003 -0.0696
   14SOL    HW1   41   1.345   2.054   0.769  0.9498  0.6160 -1.2982
   14SOL    HW2   42   1.400   1.960   0.907 -1.1409  0.2692  3.1662
   15SOL     OW   43   2.473   0.704   2.436 -0.5388  0.2514 -0.8704
   15SOL    HW1   44   2.530   0.707   2.522  0.8301  1.1885 -0.5085
   15SOL    HW2   45   2.420   0.790   2.421 -1.4341  1.3686 -0.2421
   16SOL     OW   46   1.408   2.910   0.057 -0.6016  0.1844  0.0325
   16SOL    HW1   47   1.492   2.939   0.001  0.0946 -1.8179 -1.2564
   16SOL    HW2   48   1.385   2.972   0.136 -3.0771 -2.2200  1.6717
   17SOL     OW   49   0.834   2.539   1.900  0.6550  0.5682 -0.1342
   17SOL    HW1   50   0.737   2.515   1.877 -0.5558  0.2134 -1.6856
   17SOL    HW2   51   0.856   2.631   1.869  1.0951  0.4112 -0.9732
   18SOL     OW   52   1.809   0.859   0.183  0.0716 -0.6047 -0.6515
   18SOL    HW1   53   1.750   0.906   0.108 -1.5420  2.8578 -1.5934
   18SOL    HW2   54   1.899   0.906   0.184 -0.3323 -0.3316 -2.3349
   19SOL     OW   55   2.421   1.999   2.705  0.3422  0.3901 -0.0160
   19SOL    HW1   56   2.422   1.999   2.807  0.0233  1.2966 -0.4108
   19SOL    HW2   57   2.513   1.990   2.669 -0.7834 -2.9552  0.1909
   20SOL     OW   58   1.809   1.684   2.136 -0.2910  0.4184 -0.0455
   20SOL    HW1   59   1.887   1.626   2.105 -4.2649  0.2255 -1.2639
   20SOL    HW2   60   1.765   1.631   2.216 -0.0760 -1.5372  2.7547
   21SOL     OW   61   0.244   1.842   3.025 -0.3946 -0.1010  0.0176
   21SOL    HW1   62   0.315   1.830   3.098 -1.5484  0.4285 -2.0995
   21SOL    HW2   63   0.287   1.837   2.934 -0.4006  0.8833 -2.1321
   22SOL     OW   64   2.309   2.951   1.417 -0.3477 -0.1507  0.3438
   22SOL    HW1   65   2.322   2.904   1.506  0.5392  0.6716  1.0520
   22SOL    HW2   66   2.371   2.918   1.342 -0.1993 -1.6661  1.3819
   23SOL     OW   67   0.062   1.334   1.623 -0.0800 -0.0295  1.0077
   23SOL    HW1   68   0.086   1.232   1.631  0.1684  0.3017 -0.3066
   23SOL    HW2   69   0.149   1.387   1.622 -1.0518  0.0799  2.5893
   24SOL     OW   70   2.386   1.857   1.693 -0.4256  0.0894  0.1017
   24SOL    HW1   71   2.449   1.786   1.648  1.0028 -1.0200 -0.2389
   24SOL    HW2   72   2.288   1.854   1.658 -2.6117  0.9993  0.3122
   25SOL     OW   73   1.995   2.930   2.605 -0.0748 -0.2784  0.4839
   25SOL    HW1   74   1.979   3.013   2.544  2.0582  4.2412 -2.7807
   25SOL    HW2   75   1.946   2.846   2.576  0.1099 -0.1884  1.6638
   26SOL     OW   76   1.274   2.840   0.479  0.0232 -0.0806 -0.1318
   26SOL    HW1   77   1.251   2.921   0.421 -1.1357  0.7213 -0.7760
   26SOL    HW2   78   1.379   2.820   0.477  2.0735  0.6122  1.7833
   27SOL     OW   79   0.870   2.132   2.929 -0.0357 -0.0219 -0.3132
   27SOL    HW1   80   0.912   2.136   3.023  1.4432  0.8909  3.9012
   27SOL    HW2   81   0.774   2.158   2.939 -2.8115  1.5626 -0.6206
   28SOL     OW   82   2.947   1.645   1.323 -0.5767 -0.2877  0.6294
   28SOL    HW1   83   3.008   1.576   1.274  3.7619 -0.2134 -1.5527
   28SOL    HW2   84   2.909   1.715   1.259  1.9995  1.3398  0.4947
   29SOL     OW   85   2.605   2.300   2.082 -0.0006  0.1351 -0.4514
   29SOL    HW1   86   2.544   2.381   2.102  0.1109 -1.0199  0.0802
   29SOL    HW2   87   2.682   2.296   2.148 -0.0441 -1.7034  2.3646
   30SOL     OW   88   1.011   2.728   1.206 -0.1665 -0.1594 -0.0769
   30SOL    HW1   89   1.046   2.825   1.223 -1.6254  0.2473 -1.5961
   30SOL    HW2   90   0.972   2.723   1.112 -0.4748  0.3978 -1.4966
   31SOL     OW   91   2.973   2.183   2.089  0.4395 -0.3589  0.3558
   31SOL    HW1   92   2.902   2.111   2.057 -1.6871 -0.7375  0.0444
   31SOL    HW2   93   3.063   2.137   2.107 -2.3060  0.2793 -0.8159
   32SOL     OW   94   1.304   0.922   2.128 -0.0886  0.1805 -0.2124
   32SOL    HW1   95   1.256   0.998   2.084 -1.1884  0.9788 -0.0069
   32SOL    HW2   96   1.369   0.969   2.190 -1.0243  0.6961 -0.4452
   33SOL     OW   97   0.606   3.065   2.735  0.0898 -0.8903  0.1671
   33SOL    HW1   98   0.513   3.085   2.700 -0.5924  0.1117  2.1242
   33SOL    HW2   99   0.599   3.007   2.819 -0.8749  1.5877 -3.1498
   34SOL     OW  100   1.542   3.028   1.228  0.1370  0.2329 -0.8781
   34SOL    HW1  101   1.548   2.926   1.246 -1.1664 -0.9401  2.0806
   34SOL    HW2  102   1.586   3.046   1.143  3.4571 -1.7049  3.5887
   35SOL     OW  103   2.117   0.535   1.128  0.5005  0.3204 -0.0695
   35SOL    HW1  104   2.158   0.457   1.076 -0.5058  1.3017  0.4164
   35SOL    HW2  105   2.191   0.588   1.172  2.7049  0.1847  0.7815
   36SOL     OW  106   2.081   2.790   2.118  0.1936  0.4967  0.3718
   36SOL    HW1  107   2.109   2.692   2.128 -0.8725  1.4263 -0.3405
   36SOL    HW2  108   2.150   2.855   2.164  2.0582 -0.1316  0.0008
   37SOL     OW  109   1.359   2.377   2.456 -0.1853  0.1216  0.3985
   37SOL    HW1  110   1.311   2.313   2.518 -1.3950  0.0081 -2.8779
   37SOL    HW2  111   1.426   2.331   2.395 -1.4196  0.0219 -1.0092
   38SOL     OW  112   2.336   0.269   3.061 -0.1177 -0.4019 -0.3420
   38SOL    HW1  113   2.383   0.179   3.071  1.2516 -0.4815 -1.8184
   38SOL    HW2  114   2.395   0.344   3.025  0.9997  1.4384  0.1169
   39SOL     OW  115   1.911   2.112   2.435 -0.0480 -0.8855 -0.5180
   39SOL    HW1  116   1.814   2.109   2.463  0.0786  0.5153  0.3648
   39SOL    HW2  117   1.940   2.030   2.386  2.4016  1.1226  3.0655
   40SOL     OW  118   0.209   3.086   2.861  0.3688  0.0540  0.1700
   40SOL    HW1  119   0.280   0.028   2.810  0.2230 -0.5042  0.4672
   40SOL    HW2  120   0.220   2.987   2.857 -0.0563  1.0950 -0.7243
   41SOL     OW  121   1.567   0.854   1.568 -0.6066 -0.4626  0.1479
   41SOL    HW1  122   1.638   0.797   1.521 -0.2118 -0.3596  1.1710
   41SOL    HW2  123   1.483   0.801   1.589 -0.0773  2.0588  0.2171
   42SOL     OW  124   0.553   0.113   1.650  0.3257 -0.1288  0.5308
   42SOL    HW1  125   0.590   0.078   1.560 -0.5673 -1.7348 -0.4845
   42SOL    HW2  126   0.627   0.166   1.702 -0.4438 -1.0031  1.3811
   43SOL     OW  127   1.521   0.309   2.012 -0.5923 -0.1427  0.1796
   43SOL    HW1  128   1.501   0.296   2.108  0.5154  0.0313 -0.3290
   43SOL    HW2  129   1.584   0.386   1.991 -0.1758 -0.4285 -3.0734
   44SOL     OW  130   0.111   2.606   2.484  0.1116  0.3355 -0.1052
   44SOL    HW1  131   0.156   2.693   2.507 -0.4370 -4.6476 -1.5172
   44SOL    HW2  132   0.014   2.621   2.456 -0.8179  0.7767 -1.3644
   45SOL     OW  133   0.194   2.390   1.395 -0.3489 -0.0975 -0.2783
   45SOL    HW1  134   0.120   2.431   1.449  1.5866 -0.8374 -1.7279
   45SOL    HW2  135   0.282   2.391   1.445 -1.6413  1.5896  1.1821
   46SOL     OW  136   2.210   2.267   2.187 -0.0472  0.6394 -0.3993
   46SOL    HW1  137   2.251   2.200   2.256  0.3584  0.7530 -0.6299
   46SOL    HW2  138   2.231   2.232   2.089  2.3877  1.5294 -2.3577
   47SOL     OW  139   1.869   1.907   1.541 -0.7998  0.1973 -0.2450
   47SOL    HW1  140   1.830   1.942   1.633 -1.4879 -3.4633  1.3828
   47SOL    HW2  141   1.796   1.859   1.493 -0.6572  1.0832 -1.9140
   48SOL     OW  142   0.345   1.974   0.364 -0.6098 -0.4744 -0.0709
   48SOL    HW1  143   0.346   1.898   0.435  2.2201 -0.5479 -0.9737
   48SOL    HW2  144   0.403   2.050   0.401  0.0071 -2.1431 -3.8390
   49SOL     OW  145   2.679   0.709   2.266  0.0035  0.0210  0.2058
   49SOL    HW1  146   2.604   0.720   2.334 -1.7103  1.6356  0.9033
   49SOL    HW2  147   2.634   0.685   2.176 -1.3220  0.2993 -1.6238
   50SOL     OW  148   2.046   0.648   0.876 -0.2434 -0.5634  0.1617
   50SOL    HW1  149   1.974   0.598   0.825 -0.2192  0.9506 -2.4875
   50SOL    HW2  150   2.071   0.607   0.965 -0.5800 -0.9145 -2.2500
   51SOL     OW  151   1.228   0.600   0.932 -0.2524  0.1406 -0.2978
   51SOL    HW1  152   1.141   0.604   0.993 -0.3689 -1.1441  1.1178
   51SOL    HW2  153   1.271   0.694   0.938  2.6475  0.9767  0.5976
   52SOL     OW  154   1.435   1.205   3.015 -0.7304  0.2522 -0.3538
   52SOL    HW1  155   1.432   1.128   2.949 -0.5303 -2.0487  2.7510
   52SOL    HW2  156   1.379   1.174   3.097  1.0935 -2.6376  1.0647
   53SOL     OW  157   1.263   2.016   2.678 -0.2488 -0.1529  0.0281
   53SOL    HW1  158   1.187   1.976   2.734  0.2933 -0.5006  0.7220
   53SOL    HW2  159   1.259   2.122   2.690  1.1581  2.5359  3.0728
   54SOL     OW  160   1.918   0.699   1.586 -0.4675 -0.0069  0.3550
   54SOL    HW1  161   1.957   0.781   1.633  3.5926  1.8241  2.1039
   54SOL    HW2  162   1.843   0.661   1.642  0.5105  0.2833  0.6942
   55SOL     OW  163   2.012   2.941   0.790 -0.1506 -0.1312  0.1443
   55SOL    HW1  164   1.986   2.935   0.690  0.2607 -0.3348  0.9995
   55SOL    HW2  165   1.939   2.966   0.856  0.0926 -1.6501 -1.0608
   56SOL     OW  166   0.892   2.541   1.361  0.3466  0.1826 -0.0003
   56SOL    HW1  167   0.934   2.607   1.296  0.5674 -3.0804 -0.9387
   56SOL    HW2  168   0.857   2.586   1.448  0.9353  0.8808  0.2404
   57SOL     OW  169   2.050   0.994   0.251 -0.5537 -0.3102  0.3947
   57SOL    HW1  170   2.153   1.008   0.268  1.7771 -0.6029  1.1444
   57SOL    HW2  171   2.015   1.086   0.225  1.3894  0.3773  0.9487
   58SOL     OW  172   0.181   1.176   2.173  0.1941 -0.1718  0.0437
   58SOL    HW1  173   0.214   1.172   2.271  4.9892 -2.0773  0.2040
   58SOL    HW2  174   0.078   1.198   2.161 -1.3994 -1.0147  1.5280
   59SOL     OW  175   0.870   2.480   2.407  0.4260 -0.2447  0.4195
   59SOL    HW1  176   0.893   2.582   2.403 -1.0260  1.6710  1.1522
   59SOL    HW2  177   0.843   2.448   2.316  0.4165  0.8190 -1.0624
   60SOL     OW  178   2.613   2.899   1.044 -0.9443  0.1254  0.1574
   60SOL    HW1  179   2.535   2.838   1.011 -1.9785 -0.7944 -1.1616
   60SOL    HW2  180   2.680   2.913   0.968  1.1629 -0.6093 -1.0449
   61SOL     OW  181   1.255   1.975   0.400  0.0498 -0.4778  0.2529
   61SOL    HW1  182   1.207   1.904   0.451 -0.0164  3.7110  1.6294
   61SOL    HW2  183   1.334   2.014   0.460  3.0959  0.9032  1.4175
   62SOL     OW  184   2.179   2.605   2.895 -0.8692  0.2582  0.4638
   62SOL    HW1  185   2.270   2.564   2.906  0.1269 -0.5772 -0.2401
   62SOL    HW2  186   2.163   2.677   2.965  0.6915  0.1267 -1.0163
   63SOL     OW  187   1.917   0.362   0.410  0.0208  0.5716 -0.1339
   63SOL    HW1  188   1.854   0.432   0.370  0.5952  0.5682  0.8803
   63SOL    HW2  189   1.996   0.406   0.456 -0.3381 -1.1730 -1.1545
   64SOL     OW  190   0.755   1.143   2.596  0.5943  0.0306  0.4338
   64SOL    HW1  191   0.839   1.092   2.603 -1.8557  1.3502 -0.4598
   64SOL    HW2  192   0.712   1.148   2.687  0.1670 -0.8973 -2.1931
   65SOL     OW  193   1.277   2.322   0.531 -0.2470 -0.5594  0.2156
   65SOL    HW1  194   1.379   2.330   0.511 -0.4993 -2.2262  0.6448
   65SOL    HW2  195   1.264   2.256   0.608 -1.0693  0.2762 -1.4765
   66SOL     OW  196   0.643   1.358   1.778 -0.3610 -0.4941 -0.2055
   66SOL    HW1  197   0.661   1.262   1.802 -0.3266 -2.4928  0.8937
   66SOL    HW2  198   0.558   1.385   1.825 -0.2251 -0.5142  3.5887
   67SOL     OW  199   2.307   0.011   2.452 -0.1392 -0.3710  0.0212
   67SOL    HW1  200   2.381   0.058   2.399  1.0447  2.7886 -2.3947
   67SOL    HW2  201   2.339   3.094   2.549  0.2898  3.3465  0.8590
   68SOL     OW  202   1.001   0.764   1.477  0.1732  0.1699  0.0012
   68SOL    HW1  203   0.957   0.750   1.567  0.6388  0.4005 -1.0334
   68SOL    HW2  204   1.011   0.683   1.418  1.0289 -1.6490 -0.2094
   69SOL     OW  205   1.523   2.767   0.460  0.4544  0.2043  0.6180
   69SOL    HW1  206   1.600   2.816   0.411 -2.0751 -0.2173  0.5516
   69SOL    HW2  207   1.540   2.774   0.560 -3.3358 -0.4749  2.4557
   70SOL     OW  208   2.944   0.859   2.435 -0.5368 -0.3523  0.0229
   70SOL    HW1  209   2.939   0.761   2.408  0.2763 -0.2506  2.4529
   70SOL    HW2  210   2.960   0.919   2.355  1.7004 -1.1468  2.0811
   71SOL     OW  211   2.837   1.592   0.014  0.1392 -0.3284  0.2191
   71SOL    HW1  212   2.765   1.551   3.053 -2.0666  0.2457 -1.5834
   71SOL    HW2  213   2.901   1.650   3.068  0.6052 -2.4732 -0.8078
   72SOL     OW  214   3.096   1.622   0.465  0.0831 -0.0604  0.0123
   72SOL    HW1  215   3.008   1.570   0.487 -1.6515 -0.2437 -0.1612
   72SOL    HW2  216   3.079   1.722   0.483 -2.6007  1.3130  1.3811
   73SOL     OW  217   0.962   1.545   0.634  0.2476 -0.2711  0.1407
   73SOL    HW1  218   0.952   1.489   0.716  0.3050  0.6937  0.7874
   73SOL    HW2  219   0.985   1.493   0.545  1.3937 -0.8527 -1.3654
   74SOL     OW  220   0.306   1.886   2.004  0.0149  0.0157 -0.1135
   74SOL    HW1  221   0.237   1.865   2.075  3.4537 -0.8155 -1.4390
   74SOL    HW2  222   0.321   1.804   1.941 -1.0975 -0.7603 -2.9066
   75SOL     OW  223   1.594   1.439   1.610 -0.2671 -0.3473 -0.3862
   75SOL    HW1  224   1.554   1.351   1.633  2.0832  3.2460  0.3360
   75SOL    HW2  225   1.644   1.484   1.685 -0.0861  0.7760  1.6962
   76SOL     OW  226   2.221   2.596   1.303  0.3280  0.0071  0.6126
   76SOL    HW1  227   2.203   2.501   1.274 -0.2409 -1.0074 -0.7046
   76SOL    HW2  228   2.194   2.613   1.400 -0.1435  0.7099 -0.3749
   77SOL     OW  229   2.730   1.225   1.376  0.1446 -0.1979  0.1289
   77SOL    HW1  230   2.806   1.290   1.396  1.2338 -0.8443  2.5301
   77SOL    HW2  231   2.694   1.182   1.460  1.5085  1.9111  0.4771
   78SOL     OW  232   1.456   0.907   0.288 -0.3887  0.2654 -0.0349
   78SOL    HW1  233   1.511   0.989   0.271 -1.1242 -2.6911 -0.2795
   78SOL    HW2  234   1.457   0.877   0.389 -0.3467 -0.9560 -0.1326
   79SOL     OW  235   2.495   1.442   1.466 -0.0410  0.4071  0.4782
   79SOL    HW1  236   2.484   1.451   1.363  0.6000 -0.1287  2.6473
   79SOL    HW2  237   2.521   1.346   1.490  0.4813  2.6607 -0.0496
   80SOL     OW  238   0.879   0.472   1.600 -0.1838  0.1499 -0.0803
   80SOL    HW1  239   0.788   0.492   1.563  3.5614  3.9006 -1.4320
   80SOL    HW2  240   0.925   0.404   1.539  1.4168  1.3431  0.3538
   81SOL     OW  241   1.007   2.877   0.815 -0.3947  0.4477 -0.3680
   81SOL    HW1  242   1.102   2.849   0.802  1.2598  0.5491 -0.8323
   81SOL    HW2  243   1.000   2.978   0.844  0.9511 -0.0414  0.5176
   82SOL     OW  244   1.426   0.014   1.691 -0.4106 -0.3184  0.3421
   82SOL    HW1  245   1.509   0.037   1.635  0.9698  0.7592  0.5539
   82SOL    HW2  246   1.374   3.037   1.649 -1.1956  0.3735  1.8901
   83SOL     OW  247   1.233   2.175   0.763 -0.0616  1.3247 -0.4204
   83SOL    HW1  248   1.226   2.196   0.861 -0.3172  1.1370 -2.4029
   83SOL    HW2  249   1.154   2.117   0.727 -2.1003 -1.2599 -0.2334
   84SOL     OW  250   0.410   1.832   2.810 -0.2322 -0.1262 -0.1327
   84SOL    HW1  251   0.359   1.778   2.738 -0.3594  0.5181 -0.1381
   84SOL    HW2  252   0.487   1.769   2.832 -1.8550 -1.2656  2.3503
   85SOL     OW  253   0.194   2.129   1.264  0.7221 -0.3703 -0.0288
   85SOL    HW1  254   0.101   2.097   1.234 -4.8541 -1.9059 -0.8303
   85SOL    HW2  255   0.187   2.222   1.312 -0.6158 -0.3815 -1.3369
   86SOL     OW  256   2.491   2.546   1.317 -0.3657 -0.7451  0.8088
   86SOL    HW1  257   2.523   2.545   1.414  0.2412  0.5080  1.2579
   86SOL    HW2  258   2.401   2.599   1.310  0.5538  3.6570  1.6400
   87SOL     OW  259   0.144   1.967   0.639 -0.2187 -0.1953  0.2941
   87SOL    HW1  260   0.206   1.885   0.616 -0.1157  1.3248  1.9472
   87SOL    HW2  261   0.184   2.035   0.700  0.7171  2.9639  0.5129
   88SOL     OW  262   0.849   1.111   1.500  0.0126  0.5104 -0.2057
   88SOL    HW1  263   0.865   1.208   1.465 -2.3242 -1.2517 -0.0982
   88SOL    HW2  264   0.856   1.043   1.420 -0.6100  0.7522  0.7801
   89SOL     OW  265   1.090   2.907   2.112 -0.2263  0.3871  0.1065
   89SOL    HW1  266   1.037   2.954   2.044  1.5511 -2.7013  2.6089
   89SOL    HW2  267   1.094   2.964   2.198  0.2882  3.4007 -1.4102
   90SOL     OW  268   3.048   1.924   1.591 -0.1958 -0.0433  0.3876
   90SOL    HW1  269   3.096   1.926   1.682  0.9616  1.6366 -0.0065
   90SOL    HW2  270   2.968   1.860   1.599  1.7566  1.1654 -1.6557
   91SOL     OW  271   1.397   1.877   1.066  0.5128  0.1313 -0.2002
   91SOL    HW1  272   1.301   1.888   1.103 -0.5693  0.5584 -0.4437
   91SOL    HW2  273   1.433   1.794   1.101 -2.2999  0.1812  0.2521
   92SOL     OW  274   2.459   2.786   1.723  0.5844  0.2280 -0.2542
   92SOL    HW1  275   2.435   2.703   1.780 -0.9284 -0.4102  1.6517
   92SOL    HW2  276   2.554   2.770   1.689 -0.4327  1.6984 -1.0484
   93SOL     OW  277   2.860   1.379   2.771  0.1418 -0.0786  0.0433
   93SOL    HW1  278   2.862   1.281   2.750 -0.5583 -0.9767  1.9709
   93SOL    HW2  279   2.784   1.401   2.837  2.0446  1.3202  0.5541
   94SOL     OW  280   2.635   2.972   2.170  0.1339  0.2849  0.0994
   94SOL    HW1  281   2.651   3.063   2.130 -1.1166  3.1974  1.8780
   94SOL    HW2  282   2.657   2.898   2.106  0.6743 -1.7326 -0.4556
   95SOL     OW  283   1.330   0.479   1.856  0.1978 -0.0958 -0.2223
   95SOL    HW1  284   1.386   0.405   1.902 -1.8618 -1.1666 -1.0592
   95SOL    HW2  285   1.319   0.560   1.919  0.5521  1.9135 -0.2482
   96SOL     OW  286   2.864   0.635   1.674  0.8542  0.1675  0.3671
   96SOL    HW1  287   2.812   0.649   1.588  2.3938 -0.6948  2.4004
   96SOL    HW2  288   2.820   0.565   1.734  2.0233 -1.2717 -0.0668
   97SOL     OW  289   2.031   0.471   1.455 -0.1539  0.3503 -0.2210
   97SOL    HW1  290   1.952   0.453   1.389 -0.7758 -1.4601 -0.7100
   97SOL    HW2  291   2.026   0.567   1.491 -2.3877 -1.0622  3.4964
   98SOL     OW  292   1.749   2.718   1.295 -0.3329  0.4505 -0.4401
   98SOL    HW1  293   1.727   2.761   1.387  0.4784 -0.8705 -0.1788
   98SOL    HW2  294   1.820   2.779   1.253  0.6076 -3.4383  1.8023
   99SOL     OW  295   2.803   0.237   1.630  0.2682 -0.1117 -0.1691
   99SOL    HW1  296   2.795   0.319   1.698 -0.6829  2.5554  1.8162
   99SOL    HW2  297   2.833   0.264   1.533  0.7813 -0.3512 -1.0175
  100SOL     OW  298   2.687   1.341   1.922 -0.0185  0.0632 -0.4528
  100SOL    HW1  299   2.693   1.359   2.024 -1.2910  0.3555  0.0049
  100SOL    HW2  300   2.769   1.371   1.870  2.8019  0.2985 -1.2540
  101SOL     OW  301   1.299   0.460   0.712 -0.2972  0.1661 -0.2338
  101SOL    HW1  302   1.397   0.458   0.692  0.2471 -0.0447 -0.3976
  101SOL    HW2  303   1.276   0.506   0.803 -2.6274  2.2043 -2.7296
  102SOL     OW  304   0.361   0.898   1.271 -0.8598 -0.4041 -0.0900
  102SOL    HW1  305   0.350   0.999   1.285 -0.1518 -0.0645 -0.5771
  102SOL    HW2  306   0.427   0.863   1.342  1.4068  1.9575 -1.7789
  103SOL     OW  307   2.440   0.613   0.019  0.6779  0.0130 -0.1924
  103SOL    HW1  308   2.358   0.610   0.079  3.2816  0.1309  0.6490
  103SOL    HW2  309   2.492   0.700   0.035  3.5701  1.2990  1.2568
  104SOL     OW  310   2.942   0.050   1.821  0.5152  0.0692 -0.2350
  104SOL    HW1  311   3.036   0.020   1.809 -0.3795  0.7977  1.2898
  104SOL    HW2  312   2.914   0.114   1.746  0.3579  1.8496  1.8963
  105SOL     OW  313   1.895   0.783   1.983  0.5050 -0.8185 -0.2461
  105SOL    HW1  314   1.811   0.843   1.982  0.5030 -3.5070 -2.7589
  105SOL    HW2  315   1.876   0.701   1.930  0.1957  1.0213  1.1630
  106SOL     OW  316   1.565   3.075   0.924 -0.4158  0.1355 -0.2536
  106SOL    HW1  317   1.528   2.976   0.939  1.7393 -4.3832  1.1643
  106SOL    HW2  318   1.486   0.037   0.910 -1.4741 -0.4486  1.8490
  107SOL     OW  319   0.429   1.123   0.858 -0.9271  0.6835  0.0096
  107SOL    HW1  320   0.449   1.080   0.766  0.2510  0.5556 -2.0969
  107SOL    HW2  321   0.336   1.092   0.895  0.8853 -1.0751 -0.5247
  108SOL     OW  322   2.714   0.440   1.813 -0.2602  0.4092  0.1623
  108SOL    HW1  323   2.613   0.442   1.837 -3.3986 -0.6793 -2.0439
  108SOL    HW2  324   2.765   0.385   1.887  0.0127 -2.9499  1.7163
  109SOL     OW  325   2.338   0.676   0.400 -0.2025 -0.2748 -0.1690
  109SOL    HW1  326   2.390   0.742   0.455  0.6965 -1.3936 -1.6113
  109SOL    HW2  327   2.341   0.584   0.440 -0.6905 -0.1118 -0.0446
  110SOL     OW  328   0.221   2.428   2.676  0.7991  0.1077 -0.0349
  110SOL    HW1  329   0.219   2.330   2.657  0.9283  0.5626 -1.3761
  110SOL    HW2  330   0.174   2.481   2.602 -1.9602 -1.6143 -1.6832
  111SOL     OW  331   1.952   0.113   1.999 -0.1393 -0.3085 -0.4342
  111SOL    HW1  332   1.968   0.173   2.083 -0.2159  0.6868 -1.2574
  111SOL    HW2  333   1.865   0.139   1.959  1.2302  0.2591 -1.4225
  112SOL     OW  334   2.226   2.672   0.213  0.6828 -0.0624 -0.2021
  112SOL    HW1  335   2.159   2.613   0.162 -3.7750 -0.3351  0.0465
  112SOL    HW2  336   2.244   2.756   0.154 -2.7443  1.1216  0.7284
  113SOL     OW  337   2.373   2.270   1.467 -0.0955  0.0991  0.0241
  113SOL    HW1  338   2.464   2.252   1.429  2.9020  0.3754  0.2148
  113SOL    HW2  339   2.381   2.328   1.548 -0.1599  0.2943 -1.2979
  114SOL     OW  340   2.790   0.989   0.904 -0.2680 -0.2447 -0.0311
  114SOL    HW1  341   2.695   0.968   0.937 -0.2642 -1.0415  2.3423
  114SOL    HW2  342   2.806   0.948   0.816 -0.6909  4.2891 -0.5855
  115SOL     OW  343   3.032   1.718   0.206 -0.4180  0.3299 -0.2623
  115SOL    HW1  344   3.047   1.727   0.302  0.8831 -0.4206 -4.4005
  115SOL    HW2  345   2.937   1.708   0.184  0.3299  0.0628  0.1050
  116SOL     OW  346   0.012   1.518   2.167 -0.3892 -0.0392  0.5776
  116SOL    HW1  347   3.078   1.429   2.159  2.9853  2.0609  2.5326
  116SOL    HW2  348   0.110   1.513   2.151 -2.9295  1.5304  0.1572
  117SOL     OW  349   2.536   0.043   0.569  0.1282  0.3615  0.3793
  117SOL    HW1  350   2.454   0.083   0.618 -2.9229  1.9128  1.7987
  117SOL    HW2  351   2.533   3.042   0.563  1.1158 -1.0334 -0.7390
  118SOL     OW  352   0.491   2.136   1.599  0.3295 -0.0145  0.1480
  118SOL    HW1  353   0.464   2.138   1.694  0.2876 -0.9526 -4.0494
  118SOL    HW2  354   0.472   2.226   1.562 -0.5803 -4.0150  0.2452
  119SOL     OW  355   1.867   2.022   0.721 -0.3505  0.1645  0.7782
  119SOL    HW1  356   1.947   2.017   0.656  3.3413 -0.1783  1.1441
  119SOL    HW2  357   1.862   1.930   0.763  1.1298  0.5332 -0.9576
  120SOL     OW  358   3.097   1.984   2.476 -0.2736  0.1986  0.1029
  120SOL    HW1  359   0.068   1.920   2.474 -0.4496  0.1773  0.7427
  120SOL    HW2  360   3.031   1.964   2.401  1.4029 -1.5453 -0.3549
  121SOL     OW  361   2.578   1.989   1.222  0.0094  0.4410 -0.0615
  121SOL    HW1  362   2.535   1.979   1.129 -3.1557  0.0075 -1.4132
  121SOL    HW2  363   2.520   1.946   1.287  0.4863  1.4721 -2.5790
  122SOL     OW  364   2.197   1.359   2.356 -0.6280  0.3984 -0.0334
  122SOL    HW1  365   2.275   1.387   2.296  0.0642 -0.2928  0.8536
  122SOL    HW2  366   2.225   1.288   2.424 -0.3029 -1.3660  0.2470
  123SOL     OW  367   0.046   2.902   0.766  0.8052 -0.4586 -0.1651
  123SOL    HW1  368   3.091   2.901   0.851  0.3845 -0.9910 -2.7905
  123SOL    HW2  369   0.109   2.825   0.773 -0.2423  3.9591  0.2751
  124SOL     OW  370   1.675   0.662   2.739 -0.0242  0.0369 -0.6804
  124SOL    HW1  371   1.728   0.598   2.684 -1.4196  1.8629  0.8125
  124SOL    HW2  372   1.609   0.717   2.685  0.3028  0.4840 -0.5933
  125SOL     OW  373   0.593   1.635   2.907 -0.3167 -0.1790  0.0094
  125SOL    HW1  374   0.653   1.648   2.988 -1.5154 -1.7850  2.7533
  125SOL    HW2  375   0.530   1.558   2.933  1.0580 -0.0800  1.3008
  126SOL     OW  376   2.799   1.918   0.036  0.1654  0.1905 -0.3612
  126SOL    HW1  377   2.838   1.887   3.049 -0.6559  0.3765  0.3136
  126SOL    HW2  378   2.855   2.001   0.071  1.4099 -0.3649  2.6019
  127SOL     OW  379   0.636   1.697   1.190 -0.2315  0.2862  0.3233
  127SOL    HW1  380   0.632   1.647   1.101 -0.8441  0.6107  0.5950
  127SOL    HW2  381   0.624   1.633   1.269  0.1444 -0.3973  0.7100
  128SOL     OW  382   1.183   0.906   0.263  0.4406 -0.0348  0.0085
  128SOL    HW1  383   1.183   0.948   0.168  0.5199  0.5459 -0.0025
  128SOL    HW2  384   1.273   0.905   0.310 -0.4388 -0.2994  1.9602
  129SOL     OW  385   2.401   1.658   1.108  0.1392 -0.2221 -0.1203
  129SOL    HW1  386   2.372   1.705   1.024  1.4898 -0.2328  1.2193
  129SOL    HW2  387   2.477   1.593   1.089  0.4872  0.2484  1.2728
  130SOL     OW  388   2.079   1.661   0.863  0.3461 -0.4399  0.1249
  130SOL    HW1  389   2.108   1.566   0.862  2.4074  2.2629  3.4449
  130SOL    HW2  390   1.979   1.662   0.875 -0.9567  2.7309 -0.6231
  131SOL     OW  391   2.850   1.108   2.831 -0.4520 -0.3154  0.1731
  131SOL    HW1  392   2.779   1.084   2.899  2.3779  0.3443  0.0996
  131SOL    HW2  393   2.946   1.100   2.867 -1.2340 -2.2700 -0.5086
  132SOL     OW  394   2.508   1.843   2.036  0.1981  0.3736  0.4863
  132SOL    HW1  395   2.552   1.921   1.981  1.8956  0.7918 -0.7124
  132SOL    HW2  396   2.507   1.759   1.980 -1.2579  2.3794  0.0788
  133SOL     OW  397   3.011   0.949   0.056  0.3511 -0.2030 -0.2230
  133SOL    HW1  398   3.067   0.959   0.138  0.3931  2.9602  1.1052
  133SOL    HW2  399   3.043   1.011   3.085  0.2985 -0.8306 -0.3607
  134SOL     OW  400   0.272   1.108   0.167 -0.3585 -0.0553 -0.4294
  134SOL    HW1  401   0.325   1.037   0.123  0.3248  1.2392 -1.6843
  134SOL    HW2  402   0.235   1.169   0.093  1.3031 -0.4520 -2.2948
  135SOL     OW  403   2.040   1.725   0.591 -0.1516  0.3690 -0.0220
  135SOL    HW1  404   2.036   1.698   0.686 -0.5430 -0.6516 -0.9566
  135SOL    HW2  405   2.136   1.707   0.557  1.9596 -0.0448 -1.3016
  136SOL     OW  406   1.978   1.461   1.365  0.3975 -0.3498 -0.0037
  136SOL    HW1  407   1.942   1.364   1.358  2.6992  0.8038 -1.2161
  136SOL    HW2  408   2.043   1.488   1.291 -2.4720  2.4645  0.2889
  137SOL     OW  409   2.585   1.910   0.649 -0.8386 -0.1857 -0.1012
  137SOL    HW1  410   2.607   1.978   0.719  1.1895 -0.9802  1.1127
  137SOL    HW2  411   2.521   1.952   0.584  0.5497 -1.0339  0.8228
  138SOL     OW  412   1.054   0.208   1.192 -0.0775 -0.0426 -0.0309
  138SOL    HW1  413   1.124   0.277   1.170 -1.5556 -0.9638  1.0959
  138SOL    HW2  414   1.086   0.113   1.169  0.5251  1.5764  0.5428
  139SOL     OW  415   2.207   3.038   0.067  0.2501 -0.6575 -0.4656
  139SOL    HW1  416   2.178   2.964   0.012  1.8536  1.0642  2.3574
  139SOL    HW2  417   2.299   3.072   0.048 -0.3847  1.3280  1.4464
  140SOL     OW  418   1.540   2.080   2.861  0.0583 -0.3036 -0.1108
  140SOL    HW1  419   1.472   2.014   2.830 -0.4146  0.5658  0.3509
  140SOL    HW2  420   1.612   2.029   2.907 -1.7103  1.2214 -0.2598
  141SOL     OW  421   0.700   0.942   1.652 -0.2853 -0.2756  0.0097
  141SOL    HW1  422   0.688   0.944   1.754 -1.2414 -0.6060 -3.1864
  141SOL    HW2  423   0.779   0.997   1.620 -0.6865 -0.1936 -1.1287
  142SOL     OW  424   2.474   3.083   0.018 -0.2309 -0.0632  0.3666
  142SOL    HW1  425   2.552   0.015   0.076  0.5547  0.2754  1.1960
  142SOL    HW2  426   2.508   3.034   3.036  0.2923 -1.3630 -0.2450
  143SOL     OW  427   0.678   2.433   2.913 -0.6602 -0.3564  0.1191
  143SOL    HW1  428   0.735   2.517   2.923  0.3010  1.7653  1.6031
  143SOL    HW2  429   0.665   2.402   2.815 -2.3094 -2.4115 -0.6151
  144SOL     OW  430   1.256   2.777   2.758  0.5332 -0.1800  0.5731
  144SOL    HW1  431   1.244   2.694   2.812 -0.8310  0.8512 -0.8934
  144SOL    HW2  432   1.270   2.856   2.820 -2.2699 -0.1208 -1.5217
  145SOL     OW  433   2.403   1.592   3.084 -0.2644 -0.5379 -0.7027
  145SOL    HW1  434   2.461   1.673   3.048  2.0798  2.8103  0.0759
  145SOL    HW2  435   2.329   1.637   0.032 -0.3246  2.4140 -2.5463
  146SOL     OW  436   2.752   2.680   0.060  0.5296 -0.6657  0.3290
  146SOL    HW1  437   2.797   2.769   0.079  0.9045  3.3407 -1.2615
  146SOL    HW2  438   2.817   2.604   0.069 -3.5680 -2.7337 -0.8607
  147SOL     OW  439   2.608   2.367   1.143 -0.4313 -0.5493  0.1202
  147SOL    HW1  440   2.551   2.428   1.194  1.6574  1.5995 -0.2288
  147SOL    HW2  441   2.555   2.314   1.074 -3.0064 -1.1013  0.7924
  148SOL     OW  442   1.659   0.281   0.236 -0.1503  0.5200  0.5323
  148SOL    HW1  443   1.759   0.299   0.228 -1.9952 -0.4498  0.6092
  148SOL    HW2  444   1.603   0.312   0.155  1.6960 -0.0930 -0.0122
  149SOL     OW  445   1.179   1.561   2.644 -0.5908  0.4416 -0.1221
  149SOL    HW1  446   1.187   1.475   2.704  1.2079 -1.7172  1.6542
  149SOL    HW2  447   1.085   1.577   2.608  0.4216  0.9667 -0.0424
  150SOL     OW  448   0.657   2.460   0.512  0.0782 -0.4124 -0.1510
  150SOL    HW1  449   0.606   2.379   0.529  2.6266  0.0037  0.8609
  150SOL    HW2  450   0.754   2.447   0.548  2.8464 -2.1662 -2.0630
  151SOL     OW  451   0.766   1.630   0.044 -0.2954 -0.7268 -0.1023
  151SOL    HW1  452   0.835   1.598   3.077  1.8940 -0.3159  1.1102
  151SOL    HW2  453   0.807   1.702   0.101  0.6796  1.9048 -1.6841
  152SOL     OW  454   2.978   1.051   0.473 -0.2947  0.5928  0.2510
  152SOL    HW1  455   2.888   1.007   0.485 -0.8933 -0.1815 -3.1632
  152SOL    HW2  456   3.029   1.028   0.558  0.0324  1.0212  1.3073
  153SOL     OW  457   2.390   2.519   0.361 -0.1004  0.5642  0.3096
  153SOL    HW1  458   2.468   2.561   0.410 -0.1729 -0.3961  1.1759
  153SOL    HW2  459   2.342   2.583   0.297 -2.0886  0.3889 -2.2559
  154SOL     OW  460   0.603   3.012   0.956  0.7979  0.0671  0.3568
  154SOL    HW1  461   0.582   3.089   1.016  1.4094 -0.9992 -0.6231
  154SOL    HW2  462   0.544   2.999   0.875 -1.0236 -1.4638  2.0092
  155SOL     OW  463   0.290   2.042   0.988 -0.0343 -0.7710 -0.0533
  155SOL    HW1  464   0.255   2.101   0.916 -0.9629  0.2405  2.5176
  155SOL    HW2  465   0.302   2.095   1.076  1.9194 -0.1773  0.4661
  156SOL     OW  466   2.572   2.207   2.991 -0.3320 -0.3424 -0.3639
  156SOL    HW1  467   2.647   2.163   2.934  1.7924 -1.7330  0.2103
  156SOL    HW2  468   2.620   2.261   3.064  0.5556 -2.9320  1.2879
  157SOL     OW  469   1.184   2.161   1.295  0.0975  0.0309  0.3285
  157SOL    HW1  470   1.102   2.207   1.331 -1.8726  1.5778  1.3315
  157SOL    HW2  471   1.183   2.172   1.194 -2.3188  1.4191  1.9839
  158SOL     OW  472   1.733   0.608   0.064  0.4672  0.5253  0.4152
  158SOL    HW1  473   1.804   0.535   0.036  3.0317 -0.3528 -1.2572
  158SOL    HW2  474   1.786   0.686   0.094 -2.7860 -1.3464 -0.4539
  159SOL     OW  475   1.171   0.620   2.728  0.1153 -0.1926 -0.0312
  159SOL    HW1  476   1.076   0.617   2.765 -1.9342  0.5848 -1.2821
  159SOL    HW2  477   1.174   0.562   2.641  2.7629  0.1643 -1.9833
  160SOL     OW  478   1.175   1.634   0.382  0.2512  0.0878  0.2083
  160SOL    HW1  479   1.141   1.679   0.300  1.6839 -1.1368  1.2850
  160SOL    HW2  480   1.122   1.549   0.390  3.3769  1.8438 -0.4703
  161SOL     OW  481   0.080   2.397   2.927  0.2378  0.3387  0.8360
  161SOL    HW1  482   0.122   2.436   2.840 -0.5369  0.3353 -1.8759
  161SOL    HW2  483   0.106   2.440   3.011 -1.1273 -2.4924 -0.6197
  162SOL     OW  484   0.654   2.752   1.026  0.0040 -0.0291 -0.2560
  162SOL    HW1  485   0.746   2.727   0.995 -0.0973  0.6884  0.4036
  162SOL    HW2  486   0.639   2.854   1.011 -0.9820  0.8495  2.0647
  163SOL     OW  487   2.592   1.020   2.970 -0.6759  0.4883  0.2420
  163SOL    HW1  488   2.497   0.981   2.974 -0.3928  0.3061 -0.5003
  163SOL    HW2  489   2.651   0.951   2.924  1.3202  0.6401 -0.9286
  164SOL     OW  490   0.248   2.826   2.873 -0.2550 -0.5984  0.1967
  164SOL    HW1  491   0.341   2.797   2.912 -0.2010 -0.0900 -0.4369
  164SOL    HW2  492   0.170   2.783   2.924  0.7449 -0.1773  2.2251
  165SOL     OW  493   2.229   0.312   1.250 -0.0478 -0.1512 -0.1469
  165SOL    HW1  494   2.161   0.374   1.297 -1.1412  2.7588  0.6750
  165SOL    HW2  495   2.181   0.237   1.197  1.0072 -2.9943 -0.7437
  166SOL     OW  496   1.892   0.219   1.284 -0.5713  0.5530 -0.2444
  166SOL    HW1  497   1.946   0.170   1.212 -1.3136  0.3097 -0.2239
  166SOL    HW2  498   1.866   0.158   1.361 -0.0316 -1.7604  2.9322
  167SOL     OW  499   0.949   0.443   2.076 -0.4577  0.1952 -0.1394
  167SOL    HW1  500   0.941   0.496   1.991  0.3135 -1.6192  0.6624
  167SOL    HW2  501   0.880   0.468   2.153 -2.6181  1.8618  3.2208
  168SOL     OW  502   2.458   0.458   1.841  0.0585  0.3586 -0.1206
  168SOL    HW1  503   2.420   0.371   1.813  1.5224 -0.1067  0.8687
  168SOL    HW2  504   2.407   0.538   1.802  2.0079 -2.2344 -2.1631
  169SOL     OW  505   0.327   1.387   0.500 -0.2131 -0.9211 -0.1496
  169SOL    HW1  506   0.277   1.451   0.439  0.0993 -0.4509 -0.3313
  169SOL    HW2  507   0.299   1.290   0.475 -2.5650 -3.9933  1.2776
  170SOL     OW  508   0.161   1.090   1.685 -0.3992 -0.0529 -0.6178
  170SOL    HW1  509   0.192   0.998   1.645 -1.1666 -0.8151  1.4594
  170SOL    HW2  510   0.139   1.070   1.783  2.4224  0.4876  0.9864
  171SOL     OW  511   1.262   2.028   1.854 -0.2652 -0.3641  0.0707
  171SOL    HW1  512   1.301   2.122   1.855 -0.6715  1.6402  0.7869
  171SOL    HW2  513   1.182   2.027   1.795  1.6122 -1.3702  1.4147
  172SOL     OW  514   0.445   2.387   1.545  0.0200  0.7428  0.0136
  172SOL    HW1  515   0.399   2.464   1.588 -0.3224 -1.7078 -1.3880
  172SOL    HW2  516   0.535   2.415   1.500 -1.3399 -1.8172  1.1984
  173SOL     OW  517   1.260   2.773   0.753  0.3136  0.1611 -0.5616
  173SOL    HW1  518   1.286   2.821   0.664 -0.6991  0.8139  0.1081
  173SOL    HW2  519   1.255   2.674   0.733 -2.9924  0.6623  0.8749
  174SOL     OW  520   1.003   2.786   0.134 -0.2662 -0.5486  0.2245
  174SOL    HW1  521   1.059   2.712   0.091  0.8854  3.4763  2.0466
  174SOL    HW2  522   0.996   2.762   0.231 -1.5967 -0.3628  1.5292
  175SOL     OW  523   1.139   1.074   2.826 -0.3338  0.2826 -0.8144
  175SOL    HW1  524   1.158   1.173   2.809  1.6152 -0.1578  0.4585
  175SOL    HW2  525   1.067   1.032   2.764 -1.0036  0.7024 -1.7115
  176SOL     OW  526   1.761   0.805   0.463  0.0089  0.6094  0.3288
  176SOL    HW1  527   1.745   0.833   0.364 -0.7897  2.1941 -0.6335
  176SOL    HW2  528   1.692   0.730   0.482 -2.1002 -0.8021  1.4109
  177SOL     OW  529   1.296   0.955   0.697  0.6160  0.3051  0.5576
  177SOL    HW1  530   1.211   1.009   0.685 -1.8544 -0.1289 -2.4243
  177SOL    HW2  531   1.305   0.918   0.790  1.3090  0.5205  1.2343
  178SOL     OW  532   2.688   1.389   2.556 -0.3099 -0.1277  0.0933
  178SOL    HW1  533   2.763   1.397   2.622 -3.6090  0.5292 -0.2835
  178SOL    HW2  534   2.631   1.476   2.549 -0.0981  1.3270 -1.3853
  179SOL     OW  535   0.709   2.696   0.096 -0.0124 -0.3801  0.4226
  179SOL    HW1  536   0.742   2.712   3.102 -0.7727  1.2720 -1.3746
  179SOL    HW2  537   0.675   2.599   0.101 -0.4835 -0.5465  1.0666
  180SOL     OW  538   1.699   1.529   1.372 -0.1344 -0.5771  0.1843
  180SOL    HW1  539   1.800   1.508   1.376  1.8718 -1.5376  0.9250
  180SOL    HW2  540   1.653   1.496   1.454  1.1108  1.4989 -1.1593
  181SOL     OW  541   1.034   1.300   2.220 -0.0997  0.4469 -0.3399
  181SOL    HW1  542   0.988   1.208   2.222 -0.1146 -1.2193 -1.9063
  181SOL    HW2  543   1.106   1.301   2.295 -0.1300  1.4480  2.2766
  182SOL     OW  544   0.039   0.807   2.617 -0.5788 -0.0148  0.6473
  182SOL    HW1  545   0.076   0.865   2.692 -3.1655 -4.2779  1.4215
  182SOL    HW2  546   3.088   0.863   2.551  0.7025 -3.1306  2.3006
  183SOL     OW  547   1.417   0.277   2.539  0.5099  0.1772 -0.3168
  183SOL    HW1  548   1.466   0.318   2.617 -0.6320 -3.4384 -0.4771
  183SOL    HW2  549   1.420   0.176   2.537  0.0479  3.4927  2.0201
  184SOL     OW  550   0.160   0.640   1.335 -0.7227  0.0943  0.0441
  184SOL    HW1  551   0.203   0.673   1.423  1.0247  0.6611 -0.3827
  184SOL    HW2  552   0.103   0.715   1.298 -1.5502  0.9523 -1.4719
  185SOL     OW  553   2.627   1.542   0.944  0.2011 -0.1394  0.1396
  185SOL    HW1  554   2.685   1.598   0.884 -0.4813  0.3413  1.6654
  185SOL    HW2  555   2.657   1.446   0.931  0.7105  1.9330 -1.7334
  186SOL     OW  556   0.211   2.166   2.665  0.0555  0.1660 -0.1082
  186SOL    HW1  557   0.273   2.104   2.616 -1.6621  1.6665  3.4644
  186SOL    HW2  558   0.120   2.119   2.673  1.4203  0.8943 -0.3671
  187SOL     OW  559   2.568   1.793   3.020 -0.6642  0.1866  0.2580
  187SOL    HW1  560   2.641   1.827   3.086  0.2533  1.5569 -1.4478
  187SOL    HW2  561   2.516   1.873   2.987  2.6966  0.8121 -0.8655
  188SOL     OW  562   0.672   2.174   0.347 -0.1845 -0.3895 -0.0174
  188SOL    HW1  563   0.755   2.175   0.407  0.3968 -1.9899 -1.6289
  188SOL    HW2  564   0.669   2.098   0.278 -2.0356  0.7852  0.1456
  189SOL     OW  565   2.581   0.841   0.103 -0.1973 -0.5201 -0.2029
  189SOL    HW1  566   2.642   0.820   0.184  1.1207  1.9473 -0.5671
  189SOL    HW2  567   2.639   0.876   0.026  2.1037  1.9563 -0.7321
  190SOL     OW  568   0.672   1.733   1.941  0.0858  0.6770  0.0659
  190SOL    HW1  569   0.636   1.648   1.979  1.4685 -4.0570 -1.9448
  190SOL    HW2  570   0.770   1.728   1.928 -3.4631  0.1859  2.8272
  191SOL     OW  571   2.581   0.474   1.548  0.4759 -0.5553  0.4228
  191SOL    HW1  572   2.625   0.444   1.633 -1.0339  0.5773 -0.3740
  191SOL    HW2  573   2.527   0.398   1.511 -1.4975  0.3675  4.0126
  192SOL     OW  574   2.086   0.263   1.625  0.4780 -0.3503  0.6497
  192SOL    HW1  575   2.071   0.344   1.567 -0.9680  1.5107  0.6700
  192SOL    HW2  576   2.034   0.185   1.588 -0.1936  0.1253  0.5397
  193SOL     OW  577   0.153   0.681   0.642 -0.0316  0.4604  0.4212
  193SOL    HW1  578   0.071   0.663   0.695 -1.1748  0.6066 -1.0854
  193SOL    HW2  579   0.231   0.620   0.655 -1.1717  1.1330  1.1642
  194SOL     OW  580   1.619   2.626   1.699  0.7138  0.1564 -0.4849
  194SOL    HW1  581   1.703   2.574   1.718  4.2481  0.6800 -1.7592
  194SOL    HW2  582   1.555   2.624   1.778 -1.0283  1.7264  2.0628
  195SOL     OW  583   2.594   0.679   0.866 -0.5427 -0.0806  0.9017
  195SOL    HW1  584   2.677   0.623   0.884 -0.3039 -1.7885 -0.8391
  195SOL    HW2  585   2.598   0.772   0.903  0.9925 -1.2176 -4.7200
  196SOL     OW  586   1.731   2.200   1.973  0.1425  0.2953 -0.1182
  196SOL    HW1  587   1.784   2.225   2.059 -1.3574  0.4753  1.3390
  196SOL    HW2  588   1.639   2.246   1.965 -2.2275 -1.6315 -1.2156
  197SOL     OW  589   0.374   3.044   3.097  0.0694  0.5244 -0.0109
  197SOL    HW1  590   0.296   3.079   3.044 -1.0007  1.8360  0.0131
  197SOL    HW2  591   0.343   2.999   0.084 -0.6003 -0.3364  1.1904
  198SOL     OW  592   1.022   1.327   0.823  0.0780 -0.2916 -0.4167
  198SOL    HW1  593   1.117   1.361   0.828 -1.1746  0.5213 -1.7691
  198SOL    HW2  594   1.011   1.235   0.769  0.0458 -2.3572  0.2348
  199SOL     OW  595   2.420   0.870   1.759 -0.2632 -0.5095 -0.2744
  199SOL    HW1  596   2.518   0.849   1.796  1.5649 -1.0421  3.5532
  199SOL    HW2  597   2.400   0.969   1.757  1.3339 -2.1708  2.0000
  200SOL     OW  598   2.585   2.572   2.407 -0.1878 -0.1074  0.1396
  200SOL    HW1  599   2.563   2.673   2.383  0.6756  1.6660 -0.6748
  200SOL    HW2  600   2.549   2.543   2.496 -2.9455  1.5455 -2.1440
  201SOL     OW  601   2.717   0.129   1.271  0.2503 -0.3903  0.5966
  201SOL    HW1  602   2.744   0.043   1.325  2.5717  0.0694  1.8623
  201SOL    HW2  603   2.647   0.114   1.192 -0.6021  0.1494 -0.9363
  202SOL     OW  604   1.959   0.093   0.445  0.0635 -0.4406  0.2857
  202SOL    HW1  605   2.037   0.099   0.383  1.6881  1.2381  2.3742
  202SOL    HW2  606   1.925   0.189   0.463 -0.3977  0.0624 -0.5894
  203SOL     OW  607   1.392   1.868   2.038  0.1580 -0.0978  0.0481
  203SOL    HW1  608   1.341   1.923   1.965 -2.3025  0.6741  1.7479
  203SOL    HW2  609   1.427   1.930   2.112 -0.4366  1.2629 -1.3640
  204SOL     OW  610   0.940   1.600   2.480  0.5909 -0.2314  0.1309
  204SOL    HW1  611   0.907   1.507   2.503 -0.1378 -0.6009  1.6336
  204SOL    HW2  612   0.952   1.611   2.383  0.3952 -1.5614  2.0556
  205SOL     OW  613   0.965   1.786   1.360  0.2244 -0.0365 -0.0551
  205SOL    HW1  614   0.987   1.696   1.318 -0.1696  1.8809 -2.1316
  205SOL    HW2  615   0.879   1.790   1.409  1.5240  1.5873  0.7881
  206SOL     OW  616   2.846   0.548   3.002  0.0529 -0.0469  0.5441
  206SOL    HW1  617   2.798   0.551   2.913  0.5749  1.2650  1.8196
  206SOL    HW2  618   2.794   0.495   3.075 -1.6985 -1.3974 -0.6973
  207SOL     OW  619   1.694   2.844   2.293 -0.5266 -0.0721 -0.1593
  207SOL    HW1  620   1.705   2.926   2.232 -1.6313 -1.9466 -0.6777
  207SOL    HW2  621   1.728   2.761   2.250 -1.8724  3.2017 -1.4377
  208SOL     OW  622   0.640   2.448   1.301 -0.1678  0.6298  0.2525
  208SOL    HW1  623   0.724   2.507   1.313  0.1826 -1.8944 -0.5219
  208SOL    HW2  624   0.588   2.483   1.222 -2.3662 -1.7432 -1.4984
  209SOL     OW  625   1.468   1.083   2.271  0.4205  0.0658 -0.0940
  209SOL    HW1  626   1.508   1.170   2.236 -0.7074  0.3119  2.3804
  209SOL    HW2  627   1.414   1.098   2.354  1.5961  0.1783  0.7086
  210SOL     OW  628   1.924   0.973   1.189 -0.4870  0.0362 -0.3877
  210SOL    HW1  629   1.919   0.978   1.086  1.8085 -0.7026  0.1593
  210SOL    HW2  630   1.838   0.931   1.229 -0.4598 -0.0487  1.0561
  211SOL     OW  631   0.853   2.857   0.554 -0.2665  0.6537  0.3647
  211SOL    HW1  632   0.806   2.942   0.518 -1.1462  1.2060  1.3035
  211SOL    HW2  633   0.914   2.880   0.631 -0.0724 -1.2995 -2.5857
  212SOL     OW  634   1.715   1.596   0.233  0.1883 -0.0196 -0.2903
  212SOL    HW1  635   1.618   1.623   0.209 -1.0044 -0.2051  2.1051
  212SOL    HW2  636   1.759   1.666   0.299 -0.5026 -1.3362 -0.3840
  213SOL     OW  637   1.591   0.347   2.802  0.1400  0.0002  0.2188
  213SOL    HW1  638   1.540   0.426   2.838 -1.2614 -0.6916 -0.6781
  213SOL    HW2  639   1.686   0.378   2.793  0.7728  0.7981 -2.5337
  214SOL     OW  640   1.054   1.465   1.981 -0.6048  0.2963 -0.2425
  214SOL    HW1  641   1.035   1.399   2.055 -2.4130 -0.8460  0.3541
  214SOL    HW2  642   1.154   1.495   1.986  0.5205 -1.0873  0.1036
  215SOL     OW  643   0.810   1.797   0.231  0.4860  0.0446  0.0822
  215SOL    HW1  644   0.773   1.883   0.191  0.2275  0.3769 -3.9776
  215SOL    HW2  645   0.790   1.788   0.334 -0.2659 -0.6201 -0.5922
  216SOL     OW  646   0.294   2.936   2.206  0.3362  0.1405 -0.4514
  216SOL    HW1  647   0.374   2.996   2.218  0.2390 -1.5512 -0.3772
  216SOL    HW2  648   0.309   2.854   2.264  1.8764 -1.9088  0.1958
  217SOL     OW  649   2.404   1.114   0.929 -0.0713  0.4477  0.6843
  217SOL    HW1  650   2.385   1.180   1.006  0.3336  0.8968  0.1091
  217SOL    HW2  651   2.323   1.092   0.874  0.2604 -1.2976  2.5519
  218SOL     OW  652   1.731   1.565   1.809 -0.0146 -0.5630 -0.1089
  218SOL    HW1  653   1.691   1.636   1.867  1.1407 -1.4592 -0.6803
  218SOL    HW2  654   1.831   1.585   1.792 -1.6970  1.7959 -2.3199
  219SOL     OW  655   1.897   1.461   0.074 -0.3563  0.6433  0.1665
  219SOL    HW1  656   1.868   1.451   3.080 -1.5969 -1.5497  1.9580
  219SOL    HW2  657   1.830   1.513   0.127  2.6644 -0.2326 -0.8487
  220SOL     OW  658   1.411   1.285   0.936  0.6692  0.5951  0.2527
  220SOL    HW1  659   1.365   1.333   0.852  0.1345  0.8573 -3.3294
  220SOL    HW2  660   1.444   1.192   0.915 -1.2040  2.2519 -0.8902
  221SOL     OW  661   0.921   0.624   2.828  0.2011 -0.1471 -0.5016
  221SOL    HW1  662   0.861   0.674   2.763 -0.0663  0.8258 -0.0659
  221SOL    HW2  663   0.874   0.624   2.917 -1.1486  3.3292  0.4074
  222SOL     OW  664   1.055   1.394   0.427  0.5751  0.0348 -0.0009
  222SOL    HW1  665   1.131   1.328   0.428 -2.8928 -0.3727 -1.5535
  222SOL    HW2  666   0.963   1.349   0.404 -3.3028 -1.4405  1.7295
  223SOL     OW  667   1.004   3.012   2.841 -0.0031 -0.4325 -0.6073
  223SOL    HW1  668   1.101   2.977   2.844  1.6869  1.5215  0.3946
  223SOL    HW2  669   0.961   3.013   2.936 -2.2498  0.9565  0.9386
  224SOL     OW  670   2.460   0.253   1.430 -0.0366 -0.2117  0.0878
  224SOL    HW1  671   2.404   0.287   1.353  0.3506  2.7523  3.2467
  224SOL    HW2  672   2.492   0.161   1.415 -1.0688  0.8061 -1.0819
  225SOL     OW  673   0.597   0.143   1.101 -0.1651  0.0462 -0.1386
  225SOL    HW1  674   0.520   0.204   1.122  1.6214 -0.5345 -0.3308
  225SOL    HW2  675   0.679   0.203   1.104 -2.1619  0.0985 -1.5702
  226SOL     OW  676   1.424   1.659   2.886  0.6185 -0.0721 -0.2840
  226SOL    HW1  677   1.437   1.630   2.789 -1.8821 -0.0499 -2.1743
  226SOL    HW2  678   1.328   1.693   2.904 -1.3411 -0.0314  0.6446
  227SOL     OW  679   1.040   1.562   1.203  0.0357 -0.0212  0.2560
  227SOL    HW1  680   1.006   1.483   1.148 -1.2571 -0.7380  1.7413
  227SOL    HW2  681   1.139   1.577   1.199  1.3006  1.6533 -1.0559
  228SOL     OW  682   0.590   1.713   0.744 -0.3072 -0.3958  0.6426
  228SOL    HW1  683   0.610   1.634   0.798  1.2815 -1.2685 -0.2473
  228SOL    HW2  684   0.580   1.793   0.804 -2.1158 -0.1497  1.1171
  229SOL     OW  685   1.288   0.496   0.113  0.3651 -0.2717  0.1735
  229SOL    HW1  686   1.247   0.574   0.060 -0.0793 -1.9047 -1.6845
  229SOL    HW2  687   1.383   0.513   0.146 -4.1232 -0.0995 -0.5605
  230SOL     OW  688   1.203   0.482   2.186  0.0392 -0.0707  0.2518
  230SOL    HW1  689   1.112   0.468   2.153  1.3998 -1.9961  0.6614
  230SOL    HW2  690   1.246   0.396   2.226  2.2390 -0.2069  0.1742
  231SOL     OW  691   1.209   1.698   2.161  0.5295  0.0994  0.0916
  231SOL    HW1  692   1.264   1.773   2.124 -1.0477  2.4974  0.1925
  231SOL    HW2  693   1.122   1.731   2.204  0.1442 -0.0641 -0.4770
  232SOL     OW  694   2.432   1.947   0.986  0.0493 -0.2965  0.7068
  232SOL    HW1  695   2.478   2.004   0.909  1.7942  2.4795 -0.2750
  232SOL    HW2  696   2.392   1.873   0.932  1.9539  2.7539 -0.5184
  233SOL     OW  697   2.587   2.834   0.309  0.0284 -0.6043  0.0345
  233SOL    HW1  698   2.679   2.867   0.277 -0.3730  1.0611  2.1583
  233SOL    HW2  699   2.526   2.806   0.233  0.3637 -1.4685  1.6421
  234SOL     OW  700   0.961   0.189   2.860 -0.5074  0.2922 -0.1825
  234SOL    HW1  701   0.980   0.094   2.835 -1.6153 -1.0079 -1.0917
  234SOL    HW2  702   1.012   0.223   2.938 -0.2151 -0.8775 -2.6249
  235SOL     OW  703   2.422   0.056   2.713  0.0619 -0.1323 -0.3602
  235SOL    HW1  704   2.355   0.096   2.777  0.4139  0.0125 -2.5500
  235SOL    HW2  705   2.476   0.131   2.678 -4.3801 -0.1267  1.1375
  236SOL     OW  706   2.168   2.533   2.200  0.1447  0.6399 -0.5080
  236SOL    HW1  707   2.106   2.534   2.284 -0.1665 -1.7612  2.5862
  236SOL    HW2  708   2.186   2.439   2.173  1.7014  0.6352  4.0488
  237SOL     OW  709   0.800   1.433   2.220 -0.0350 -0.0056  0.0952
  237SOL    HW1  710   0.824   1.531   2.215 -1.3540 -2.5661 -0.0480
  237SOL    HW2  711   0.889   1.377   2.214  0.9741 -1.5243  1.6421
  238SOL     OW  712   1.731   0.128   2.464 -0.1964  0.6383  0.0920
  238SOL    HW1  713   1.649   0.069   2.488  0.3285 -3.4561  1.9295
  238SOL    HW2  714   1.818   0.076   2.468  0.2919  1.4783 -1.7284
  239SOL     OW  715   0.038   1.912   1.849 -0.3763  0.6529  0.1723
  239SOL    HW1  716   0.139   1.921   1.866  2.6255 -0.2658 -1.5818
  239SOL    HW2  717   3.102   1.824   1.893 -2.3184 -1.8496  0.5662
  240SOL     OW  718   2.990   2.600   0.886  0.0765 -0.0005 -0.7426
  240SOL    HW1  719   2.910   2.556   0.927 -0.2568  2.3530 -0.3989
  240SOL    HW2  720   2.976   2.623   0.791  1.0953  0.4456  1.6222
  241SOL     OW  721   2.179   1.410   0.865 -0.3801 -0.2400 -0.0495
  241SOL    HW1  722   2.264   1.416   0.807 -2.7213  1.8746  3.1327
  241SOL    HW2  723   2.150   1.317   0.879 -0.7209  0.0458 -0.3111
  242SOL     OW  724   1.886   1.909   2.708 -0.0826 -0.0667 -0.0779
  242SOL    HW1  725   1.977   1.953   2.720 -0.1800 -0.4369 -0.1580
  242SOL    HW2  726   1.835   1.923   2.796  0.4944 -3.0646  1.1232
  243SOL     OW  727   0.566   2.484   1.816  0.1281  0.4930  0.2665
  243SOL    HW1  728   0.514   2.516   1.892 -2.1481  0.9042 -0.3411
  243SOL    HW2  729   0.552   2.554   1.741 -0.9985  0.1904 -1.1819
  244SOL     OW  730   2.011   3.024   2.848 -0.6743  0.0114 -0.3038
  244SOL    HW1  731   2.076   0.001   2.858  0.9879  0.4295  0.3626
  244SOL    HW2  732   2.007   2.978   2.754  1.2173  0.9806 -0.4795
  245SOL     OW  733   1.465   2.803   0.946 -0.1319 -0.2165 -0.2646
  245SOL    HW1  734   1.472   2.751   1.035  0.5312  1.8376 -2.2404
  245SOL    HW2  735   1.384   2.772   0.890 -1.8108  0.5114  0.0604
  246SOL     OW  736   1.520   2.603   0.244  0.4159 -0.3753  0.2497
  246SOL    HW1  737   1.529   2.659   0.331  2.0613 -0.1766  0.4157
  246SOL    HW2  738   1.601   2.614   0.178  2.1803  0.2186 -1.5766
  247SOL     OW  739   0.771   0.492   2.262 -0.2860  0.3099 -0.0030
  247SOL    HW1  740   0.696   0.477   2.192 -1.8320 -0.1560 -2.9608
  247SOL    HW2  741   0.761   0.416   2.327  0.5311  1.0367 -1.6491
  248SOL     OW  742   0.350   1.699   1.777 -0.8875 -0.1878 -0.1088
  248SOL    HW1  743   0.438   1.724   1.735 -0.4677 -2.9986 -0.3037
  248SOL    HW2  744   0.269   1.739   1.726 -0.8268 -2.9222  0.0184
  249SOL     OW  745   2.365   0.416   0.557  0.7656 -0.1133 -0.1412
  249SOL    HW1  746   2.384   0.316   0.583  0.6030 -0.5728 -0.5044
  249SOL    HW2  747   2.266   0.428   0.558  0.9489 -1.5140 -0.3666
  250SOL     OW  748   0.487   0.475   0.476 -0.2265 -0.1891  0.0346
  250SOL    HW1  749   0.591   0.470   0.475  2.0765 -0.4486 -1.1532
  250SOL    HW2  750   0.450   0.397   0.431  2.6527  2.8773  0.9148
  251SOL     OW  751   1.800   0.196   3.029 -0.3646 -0.0235  0.4449
  251SOL    HW1  752   1.828   0.216   2.933  2.2413  2.0779  0.6026
  251SOL    HW2  753   1.815   0.101   3.055  2.5344  0.9554  0.0127
  252SOL     OW  754   1.634   1.776   1.945  0.4777  0.1589 -0.2709
  252SOL    HW1  755   1.690   1.752   2.024  0.1431  1.9759  1.1031
  252SOL    HW2  756   1.549   1.819   1.978  1.2043  0.4296  0.8690
  253SOL     OW  757   2.634   2.355   1.764  0.1732  0.0610  0.1321
  253SOL    HW1  758   2.724   2.313   1.787 -1.2142  3.2901  0.8221
  253SOL    HW2  759   2.562   2.290   1.791  1.3063  0.5140 -0.0012
  254SOL     OW  760   3.090   1.473   1.171 -0.2952  0.3544  0.5169
  254SOL    HW1  761   3.056   1.377   1.180  2.1858 -1.9340  0.3340
  254SOL    HW2  762   0.071   1.482   1.225 -0.6443  0.8445  0.6886
  255SOL     OW  763   1.102   0.552   1.301 -0.6323  0.2152 -0.9502
  255SOL    HW1  764   1.083   0.458   1.336 -0.9645 -2.3539  1.4644
  255SOL    HW2  765   1.198   0.550   1.268 -1.0153 -0.9397  1.1847
  256SOL     OW  766   2.160   2.621   1.561  0.3036  0.3004 -0.4012
  256SOL    HW1  767   2.132   2.711   1.595 -0.4723 -1.9913 -0.6867
  256SOL    HW2  768   2.085   2.552   1.561  1.2077  0.9654  2.1156
  257SOL     OW  769   0.620   2.704   2.659 -0.0138 -0.3932  0.1097
  257SOL    HW1  770   0.706   2.752   2.673 -0.5091 -1.5811 -1.5266
  257SOL    HW2  771   0.630   2.610   2.630 -1.6811  0.2891 -0.3516
  258SOL     OW  772   0.690   2.404   0.186 -0.0737 -0.0289 -0.2905
  258SOL    HW1  773   0.686   2.363   0.282 -2.9100 -0.3514  1.2961
  258SOL    HW2  774   0.645   2.343   0.117 -0.7960 -1.1653 -3.4976
  259SOL     OW  775   1.042   0.136   2.089 -0.7369 -0.1668  0.4029
  259SOL    HW1  776   1.143   0.127   2.117  3.0351  0.7234 -0.0823
  259SOL    HW2  777   1.013   0.074   2.017 -2.0777  0.7621 -1.2215
  260SOL     OW  778   1.589   0.766   0.972 -0.5750 -0.4467  1.0682
  260SOL    HW1  779   1.637   0.810   0.891 -2.2939  0.7982  0.0014
  260SOL    HW2  780   1.626   0.804   1.061  1.0133 -0.3067  0.5997
  261SOL     OW  781   0.475   0.283   2.507 -0.7390  0.0033  0.2598
  261SOL    HW1  782   0.445   0.372   2.551  2.5696 -1.0731 -0.1613
  261SOL    HW2  783   0.574   0.282   2.493  1.1662 -0.1507  0.4895
  262SOL     OW  784   0.204   2.230   1.939  0.2785 -0.5045  0.1141
  262SOL    HW1  785   0.168   2.316   1.975  0.7645  1.5970  0.3527
  262SOL    HW2  786   0.159   2.146   1.982  0.0675 -0.4171  0.3996
  263SOL     OW  787   2.876   1.648   2.296  0.1668 -0.4786 -0.1814
  263SOL    HW1  788   2.881   1.749   2.316  3.5936  3.4926  2.2168
  263SOL    HW2  789   2.965   1.604   2.291 -2.2807  0.6445 -0.3252
  264SOL     OW  790   0.582   0.974   1.079  0.8735  0.1250  0.0262
  264SOL    HW1  791   0.513   0.929   1.134 -0.4925  1.1590 -1.3068
  264SOL    HW2  792   0.536   1.030   1.008 -1.7008 -1.9486 -0.0171
  265SOL     OW  793   1.010   2.391   0.882  0.3986 -0.1800  0.2223
  265SOL    HW1  794   0.967   2.348   0.962  0.7784  0.4587  1.7493
  265SOL    HW2  795   1.112   2.374   0.874  0.3634  0.8307  2.9413
  266SOL     OW  796   1.598   1.086   0.970 -0.5605  0.1778  0.0986
  266SOL    HW1  797   1.662   1.140   1.024  0.1957 -2.4241 -0.0400
  266SOL    HW2  798   1.612   1.092   0.866  2.5167  0.6397  0.8026
  267SOL     OW  799   2.652   1.247   3.083  0.5745  0.0644 -0.0474
  267SOL    HW1  800   2.714   1.273   0.059 -0.2754  0.7830 -2.5012
  267SOL    HW2  801   2.652   1.149   3.055  0.2323  1.5261 -1.1344
  268SOL     OW  802   1.216   0.387   0.337  0.7935  0.1539  0.2468
  268SOL    HW1  803   1.291   0.332   0.379  1.4964 -1.7550 -0.3761
  268SOL    HW2  804   1.246   0.435   0.250  0.5143 -0.9586  1.3213
  269SOL     OW  805   2.211   0.564   2.816 -0.8731  0.1257  0.2616
  269SOL    HW1  806   2.308   0.540   2.825 -2.4543  0.2332 -3.2711
  269SOL    HW2  807   2.165   0.587   2.905 -0.2943  1.1725  3.5337
  270SOL     OW  808   0.118   0.784   3.102  0.0427  0.2244  0.5020
  270SOL    HW1  809   0.131   0.688   0.044 -2.6948 -4.5946  0.1980
  270SOL    HW2  810   0.035   0.834   0.036 -1.0597  0.1488 -1.1687
  271SOL     OW  811   2.769   0.813   0.294 -0.5789 -0.0223  0.5150
  271SOL    HW1  812   2.823   0.729   0.296 -0.9748  0.1599 -2.8587
  271SOL    HW2  813   2.824   0.878   0.232  0.0526  0.5423 -1.5393
  272SOL     OW  814   0.053   2.716   3.010 -0.1586 -0.1986  0.3220
  272SOL    HW1  815   3.101   2.658   2.945  2.0493 -2.6353 -0.6273
  272SOL    HW2  816   0.024   2.700   0.000  0.7663  0.5674 -1.1681
  273SOL     OW  817   2.819   2.918   0.188  0.3582  0.2307 -0.1206
  273SOL    HW1  818   2.913   2.930   0.224  0.8604  0.1284  0.8468
  273SOL    HW2  819   2.791   3.003   0.135  1.1791  3.1367  0.6572
  274SOL     OW  820   0.506   2.528   1.062  0.2572  0.1295  0.0063
  274SOL    HW1  821   0.566   2.609   1.074 -1.2992  0.4563 -0.7731
  274SOL    HW2  822   0.549   2.454   1.001 -1.4359 -2.6534  0.9055
  275SOL     OW  823   2.821   1.363   0.182 -0.2597 -0.8292  0.1009
  275SOL    HW1  824   2.851   1.434   0.112  0.3088  4.1498 -1.0551
  275SOL    HW2  825   2.902   1.315   0.223 -0.9783  0.7480 -1.0339
  276SOL     OW  826   2.961   1.297   1.835 -0.0180 -0.3056  0.3213
  276SOL    HW1  827   2.937   1.195   1.841 -1.5358 -1.4880  0.6308
  276SOL    HW2  828   3.039   1.318   1.769 -0.4394  0.6476 -2.3298
  277SOL     OW  829   2.080   0.128   1.101 -0.1182  0.2215 -0.2141
  277SOL    HW1  830   2.118   0.034   1.098 -0.1877  0.8064 -0.9871
  277SOL    HW2  831   2.123   0.184   1.031  0.0469  0.0094  0.1155
  278SOL     OW  832   1.561   2.284   2.237  0.0041 -0.0816  0.8903
  278SOL    HW1  833   1.661   2.293   2.254  2.9516  0.9903  2.5177
  278SOL    HW2  834   1.543   2.314   2.141  1.1706 -0.0529  0.1124
  279SOL     OW  835   1.576   1.734   0.482 -0.2618  0.5422 -0.1007
  279SOL    HW1  836   1.679   1.727   0.484 -1.2931 -0.8931  0.8530
  279SOL    HW2  837   1.559   1.832   0.462  0.7614 -3.2146  2.2753
  280SOL     OW  838   0.393   1.431   1.173  0.3175  0.3104  0.2427
  280SOL    HW1  839   0.363   1.478   1.087 -0.3872  1.1190 -1.8178
  280SOL    HW2  840   0.338   1.461   1.254  0.0512  2.0020  2.8638
  281SOL     OW  841   0.244   1.151   2.426 -0.0197  0.3154 -0.4124
  281SOL    HW1  842   0.260   1.053   2.401  0.7050 -1.1501 -1.2035
  281SOL    HW2  843   0.186   1.151   2.511  0.6961 -0.1122  1.7124
  282SOL     OW  844   0.383   1.574   0.170  0.3044 -0.7524  0.6215
  282SOL    HW1  845   0.298   1.534   0.217 -2.5241  0.7585 -1.5784
  282SOL    HW2  846   0.463   1.569   0.233  0.0641  1.1291 -0.7522
  283SOL     OW  847   2.233   2.310   0.044 -0.2488  0.3878 -0.0877
  283SOL    HW1  848   2.159   2.368   0.072  0.9149 -0.9010  0.0413
  283SOL    HW2  849   2.308   2.304   0.112 -0.6119 -2.3086  2.6547
  284SOL     OW  850   1.034   0.032   0.538  0.0240 -0.0277  0.3656
  284SOL    HW1  851   1.044   3.087   0.446  0.4833  0.4473 -0.7628
  284SOL    HW2  852   1.013   0.132   0.523  1.6564 -0.6920 -0.0594
  285SOL     OW  853   2.253   1.160   2.831  0.0097 -0.6308  0.4136
  285SOL    HW1  854   2.294   1.068   2.852  0.0317 -0.3746  0.2972
  285SOL    HW2  855   2.307   1.244   2.854 -1.4245  2.5850 -0.2824
  286SOL     OW  856   1.902   2.316   1.019  1.0062  0.2253 -0.2062
  286SOL    HW1  857   1.854   2.387   1.067 -0.2622  1.0392  0.7782
  286SOL    HW2  858   1.835   2.254   0.968 -1.0270 -0.4843 -3.5684
  287SOL     OW  859   1.025   0.361   0.675  0.0246  0.1372  0.3616
  287SOL    HW1  860   1.001   0.320   0.589 -0.9374  1.0049  2.1637
  287SOL    HW2  861   1.113   0.413   0.678 -0.3654  1.9440  1.5988
  288SOL     OW  862   1.251   2.289   2.721  0.1196  0.0812  0.6838
  288SOL    HW1  863   1.150   2.306   2.735  1.4017 -1.8746  0.3178
  288SOL    HW2  864   1.296   2.297   2.814  1.1305  1.0150 -0.6503
  289SOL     OW  865   0.209   1.526   1.339  0.2285  0.0755 -0.0264
  289SOL    HW1  866   0.238   1.622   1.326 -0.8089  0.0708 -0.0552
  289SOL    HW2  867   0.235   1.489   1.431  0.5491  1.0032 -0.2787
  290SOL     OW  868   1.706   2.151   0.894  0.4506 -0.1312 -0.4943
  290SOL    HW1  869   1.618   2.097   0.889 -2.5502 -2.8097  0.7449
  290SOL    HW2  870   1.787   2.100   0.862 -0.7502  1.4686  3.2027
  291SOL     OW  871   1.955   2.799   0.180 -0.2138  0.9086 -0.0913
  291SOL    HW1  872   1.869   2.849   0.196  0.0064  0.9393 -1.3803
  291SOL    HW2  873   2.022   2.798   0.260  1.9441 -1.6197  0.0058
  292SOL     OW  874   0.782   0.226   1.734  0.1513  0.0030 -0.2772
  292SOL    HW1  875   0.792   0.322   1.700 -1.2489  2.6109  0.0463
  292SOL    HW2  876   0.776   0.224   1.837  0.1454  2.7909  0.6956
  293SOL     OW  877   2.476   2.381   0.869  0.0699 -0.6136 -0.4880
  293SOL    HW1  878   2.533   2.459   0.834  1.6499 -0.0778 -0.8308
  293SOL    HW2  879   2.400   2.414   0.931  0.7847 -3.3616 -0.9123
  294SOL     OW  880   0.574   0.776   2.337  0.0861  0.2220 -0.0149
  294SOL    HW1  881   0.672   0.754   2.328 -2.9910  0.3887 -0.6516
  294SOL    HW2  882   0.529   0.707   2.396 -0.0860 -1.0965  0.2953
  295SOL     OW  883   1.551   1.603   1.148 -0.0325  0.3304  0.5331
  295SOL    HW1  884   1.611   1.575   1.225 -1.9594 -0.4906 -0.9087
  295SOL    HW2  885   1.588   1.559   1.064  1.8319  0.0677  4.8516
  296SOL     OW  886   2.684   1.870   0.289  0.8572  0.0638 -0.1179
  296SOL    HW1  887   2.740   1.901   0.213 -0.8630 -1.6479  0.1717
  296SOL    HW2  888   2.592   1.923   0.293 -1.3590  0.0965  0.4513
  297SOL     OW  889   2.182   0.098   0.273  0.1180 -0.2839  0.5429
  297SOL    HW1  890   2.168   0.025   0.197 -0.9117 -1.5377 -2.6645
  297SOL    HW2  891   2.278   0.104   0.304 -2.3535 -0.4584 -2.3267
  298SOL     OW  892   0.883   2.811   2.728  0.5160 -0.4377 -0.9312
  298SOL    HW1  893   0.910   2.779   2.634 -0.1877 -0.7685 -1.8641
  298SOL    HW2  894   0.920   2.904   2.741 -0.0852  1.3755 -0.0156
  299SOL     OW  895   1.071   2.019   2.064 -0.4544  0.3868 -0.1107
  299SOL    HW1  896   1.147   2.032   1.993  3.5587  0.8346  1.0276
  299SOL    HW2  897   1.100   2.072   2.151 -1.3210 -0.7081  1.7592
  300SOL     OW  898   2.647   0.242   2.891  0.2730 -0.2080  0.4596
  300SOL    HW1  899   2.663   0.144   2.857 -5.2956  0.8930  0.0039
  300SOL    HW2  900   2.607   0.295   2.809 -0.1958 -0.5593 -1.2930
  301SOL     OW  901   1.007   1.015   1.893 -0.1879 -0.0225  0.5459
  301SOL    HW1  902   0.990   1.061   1.800 -0.9343  0.6457 -1.0351
  301SOL    HW2  903   1.020   0.917   1.879  0.3387  0.1114  0.8056
  302SOL     OW  904   2.834   2.467   0.467 -0.1306 -0.3049 -0.2849
  302SOL    HW1  905   2.908   2.416   0.422 -0.7920 -1.0671  0.6413
  302SOL    HW2  906   2.751   2.410   0.477 -0.9399  3.8569  2.3637
  303SOL     OW  907   2.503   2.569   1.898 -0.2169 -0.1940  0.0043
  303SOL    HW1  908   2.566   2.496   1.857  0.6537 -1.0303  2.9128
  303SOL    HW2  909   2.481   2.543   1.993 -0.2977 -0.4023 -0.7542
  304SOL     OW  910   2.928   1.021   1.798 -0.3489  0.2678 -0.1477
  304SOL    HW1  911   2.978   0.949   1.849  1.0866 -3.1906 -0.8800
  304SOL    HW2  912   2.895   0.990   1.710  0.8007  1.3024  1.1439
  305SOL     OW  913   0.874   1.360   1.386  0.3220  0.2023 -0.0079
  305SOL    HW1  914   0.956   1.402   1.347 -2.1519  0.7135  3.1556
  305SOL    HW2  915   0.794   1.364   1.326  1.7692 -1.4969  1.2830
  306SOL     OW  916   0.286   1.418   2.111 -0.1195 -0.3473 -0.0044
  306SOL    HW1  917   0.287   1.320   2.114  0.9803  2.2175  0.4255
  306SOL    HW2  918   0.365   1.460   2.160  0.4535 -1.7561 -0.8205
  307SOL     OW  919   0.889   0.579   1.847 -0.1039  0.7587  0.5330
  307SOL    HW1  920   0.876   0.535   1.753 -0.1052 -2.8252  0.3240
  307SOL    HW2  921   0.959   0.654   1.834 -0.0079  0.4243 -2.1475
  308SOL     OW  922   3.015   1.216   1.243 -0.0161 -0.2705  0.2959
  308SOL    HW1  923   2.989   1.267   1.326  1.3722  0.4980  1.7658
  308SOL    HW2  924   2.946   1.139   1.223 -0.7775 -3.3834 -2.2405
  309SOL     OW  925   2.561   1.329   1.182 -0.1476  0.5072 -0.2337
  309SOL    HW1  926   2.618   1.299   1.263 -0.0963 -2.2223  1.7005
  309SOL    HW2  927   2.604   1.307   1.093  1.2218  1.1547  0.6289
  310SOL     OW  928   2.964   2.395   2.686  0.3866 -0.4546 -0.1012
  310SOL    HW1  929   2.959   2.304   2.734  1.3080  2.4417  2.3938
  310SOL    HW2  930   2.974   2.389   2.587  2.1961  1.5568  2.5047
  311SOL     OW  931   2.755   2.732   2.730 -0.2576 -0.4922  0.9477
  311SOL    HW1  932   2.793   2.806   2.669 -0.0025  0.4637  1.7034
  311SOL    HW2  933   2.654   2.741   2.729  1.9239 -0.7371 -0.9038
  312SOL     OW  934   2.277   1.920   0.106 -0.5430 -0.2854 -0.3867
  312SOL    HW1  935   2.215   1.995   0.142 -1.5324  1.1954  2.3774
  312SOL    HW2  936   2.226   1.833   0.116  2.2173  2.3085  0.9190
  313SOL     OW  937   2.706   2.889   0.659  0.8668 -0.3112 -0.3792
  313SOL    HW1  938   2.744   2.934   0.737 -1.6225  1.4081 -3.0416
  313SOL    HW2  939   2.762   2.804   0.636  0.2370  0.0154 -1.1072
  314SOL     OW  940   1.923   1.210   0.151 -0.1856 -0.2848 -0.4328
  314SOL    HW1  941   1.929   1.308   0.121 -1.5996 -0.9224 -0.9164
  314SOL    HW2  942   1.840   1.167   0.119 -0.3068 -0.0481  1.0736
  315SOL     OW  943   1.362   2.849   2.036 -0.4322 -0.6390 -0.0477
  315SOL    HW1  944   1.263   2.846   2.057  0.3089  1.6063 -1.3471
  315SOL    HW2  945   1.393   2.938   2.000  0.7006 -2.1797 -0.5576
  316SOL     OW  946   2.780   0.820   3.017 -0.3800 -0.6872 -0.3567
  316SOL    HW1  947   2.851   0.873   3.066  1.2072 -1.1388 -2.6842
  316SOL    HW2  948   2.804   0.721   3.009 -1.1708 -0.5200 -1.7720
  317SOL     OW  949   0.586   2.854   0.262 -0.3758  0.5069  0.4761
  317SOL    HW1  950   0.495   2.871   0.226  3.6343 -1.4523  2.5486
  317SOL    HW2  951   0.631   2.795   0.192  1.7790 -1.1445 -0.9760
  318SOL     OW  952   2.332   2.607   0.629  0.1428 -0.0050 -0.1192
  318SOL    HW1  953   2.259   2.540   0.652 -0.8521  2.2009 -0.3205
  318SOL    HW2  954   2.352   2.600   0.529 -1.5557 -0.2120  0.0467
  319SOL     OW  955   0.995   1.886   2.823  0.1455  0.6786  0.4865
  319SOL    HW1  956   0.937   1.956   2.866  1.1207 -1.4721  0.0526
  319SOL    HW2  957   0.952   1.853   2.737  0.6766 -2.1045  0.1198
  320SOL     OW  958   0.418   2.093   1.863 -0.0862  0.2815  0.1537
  320SOL    HW1  959   0.405   2.019   1.932  0.7628  1.7350  0.8190
  320SOL    HW2  960   0.344   2.165   1.865  0.1897  1.1746  2.8250
  321SOL     OW  961   1.296   2.890   2.515  0.1098  0.0958 -0.3318
  321SOL    HW1  962   1.329   2.824   2.444  0.6941 -0.2006 -0.2167
  321SOL    HW2  963   1.279   2.839   2.602  0.8049  2.2547  2.7512
  322SOL     OW  964   2.734   1.444   2.171 -0.4732 -0.1158 -0.0188
  322SOL    HW1  965   2.772   1.529   2.213 -0.2629  2.1058 -0.1898
  322SOL    HW2  966   2.694   1.383   2.243 -3.6557 -2.2130  0.4375
  323SOL     OW  967   2.552   0.924   1.021 -0.6400  0.1595  0.0195
  323SOL    HW1  968   2.492   0.990   0.975 -2.3956 -1.1087 -0.2139
  323SOL    HW2  969   2.521   0.919   1.116 -1.4250  0.0664 -1.2786
  324SOL     OW  970   2.666   0.162   2.146 -0.0487  0.0104  0.4750
  324SOL    HW1  971   2.715   0.137   2.227 -1.7454 -0.7837 -2.4413
  324SOL    HW2  972   2.573   0.184   2.175 -1.5062 -1.6855 -0.7910
  325SOL     OW  973   1.178   0.843   2.553  0.4998  0.0573 -0.1639
  325SOL    HW1  974   1.169   0.766   2.614  0.3913  0.7349 -3.0704
  325SOL    HW2  975   1.146   0.815   2.455 -1.3502 -2.3409 -4.1596
  326SOL     OW  976   1.813   3.024   1.720  0.0077 -0.2663 -0.0902
  326SOL    HW1  977   1.787   3.098   1.784 -1.2571 -1.3973 -0.4842
  326SOL    HW2  978   1.861   2.948   1.765  1.3669 -0.2844 -0.8253
  327SOL     OW  979   2.169   0.364   0.134 -0.3355 -0.2039 -0.2336
  327SOL    HW1  980   2.144   0.290   0.200  1.2070 -1.4528  0.3306
  327SOL    HW2  981   2.229   0.329   0.066 -0.9050 -0.0070  2.0442
  328SOL     OW  982   0.213   1.589   2.661  0.5780 -0.0226  0.1903
  328SOL    HW1  983   0.257   1.504   2.635 -0.7303 -0.9940 -2.2300
  328SOL    HW2  984   0.131   1.568   2.719  4.0627  2.0645  0.6528
  329SOL     OW  985   1.898   0.068   1.507  0.3368 -0.0631  0.0587
  329SOL    HW1  986   1.855   0.018   1.586 -0.2556  0.0715  0.3527
  329SOL    HW2  987   1.942   3.098   1.447 -0.4024 -1.4396  0.8306
  330SOL     OW  988   0.210   1.054   1.011 -0.3320 -0.3192 -0.1747
  330SOL    HW1  989   0.127   0.995   0.990  1.0770 -0.7004 -1.1972
  330SOL    HW2  990   0.233   1.058   1.114  0.1381 -0.8216  1.8575
  331SOL     OW  991   0.193   1.791   2.484 -0.1752 -0.2172 -0.4558
  331SOL    HW1  992   0.185   1.704   2.545  0.6219  1.6776  1.5807
  331SOL    HW2  993   0.293   1.819   2.472  2.3674  0.8083  1.9621
  332SOL     OW  994   0.002   2.778   1.591  0.2773  0.6395 -0.1219
  332SOL    HW1  995   3.092   2.773   1.695  2.2719 -0.3612 -0.4269
  332SOL    HW2  996   3.038   2.846   1.558 -0.3473 -0.8761  0.9653
  333SOL     OW  997   2.367   0.183   0.727 -0.1168  0.0455 -0.3252
  333SOL    HW1  998   2.318   0.095   0.747  0.1403 -1.2161  1.0119
  333SOL    HW2  999   2.372   0.244   0.812 -0.3057  0.8509 -2.7986
  334SOL     OW 1000   0.602   2.153   0.719  0.1003  0.5677 -0.1706
  334SOL    HW1 1001   0.686   2.152   0.656  4.4727 -0.8064 -1.2862
  334SOL    HW2 1002   0.516   2.203   0.684 -0.7329 -0.1056  4.7037
  335SOL     OW 1003   3.102   2.523   0.152 -0.5880  0.5006 -0.1204
  335SOL    HW1 1004   3.075   2.466   0.230  0.5438 -0.1105  0.4811
  335SOL    HW2 1005   0.093   2.495   0.119  2.5286  3.4756 -0.5713
  336SOL     OW 1006   0.059   0.009   2.177  0.4459  0.0087  0.4770
  336SOL    HW1 1007   0.090   0.102   2.194 -1.3288 -4.7236 -0.8363
  336SOL    HW2 1008   0.135   3.050   2.159 -2.6304 -0.1743  1.4500
  337SOL     OW 1009   2.331   2.186   2.519  0.0425  0.5072 -1.1762
  337SOL    HW1 1010   2.370   2.150   2.605  0.6669  0.4182  2.6109
  337SOL    HW2 1011   2.294   2.108   2.460 -1.6022 -1.1448  1.2909
  338SOL     OW 1012   0.706   0.597   0.625  0.0682  0.3006  0.4011
  338SOL    HW1 1013   0.716   0.671   0.696  0.9054  0.5436 -1.2469
  338SOL    HW2 1014   0.675   0.509   0.669 -1.5626 -2.7963  0.7513
  339SOL     OW 1015   0.277   0.772   1.893 -0.3213 -0.0268  0.2397
  339SOL    HW1 1016   0.252   0.868   1.903  2.5098 -0.1369  0.5788
  339SOL    HW2 1017   0.279   0.748   1.797 -2.3658 -2.9369 -0.3857
  340SOL     OW 1018   1.758   2.922   0.357  0.3370  0.2830  0.2496
  340SOL    HW1 1019   1.814   2.910   0.443 -0.9768 -0.6433  0.8353
  340SOL    HW2 1020   1.727   3.018   0.358 -3.6105 -0.5205  0.9214
  341SOL     OW 1021   1.937   0.979   0.895  0.2648 -0.2596  0.1530
  341SOL    HW1 1022   1.869   0.936   0.832 -0.7015 -0.6763 -0.0033
  341SOL    HW2 1023   2.030   0.955   0.869  2.4453  0.4090 -3.4714
  342SOL     OW 1024   2.423   2.822   0.082 -0.1662 -0.0616 -0.0173
  342SOL    HW1 1025   2.423   2.922   0.065 -3.0909  0.8812  0.5912
  342SOL    HW2 1026   2.452   2.773   0.001 -1.1585  0.1138  2.3804
  343SOL     OW 1027   1.514   2.060   1.633  0.3494 -0.5692  0.5262
  343SOL    HW1 1028   1.606   2.065   1.667 -3.7704  1.3000  2.7791
  343SOL    HW2 1029   1.486   1.967   1.605 -1.6778  2.3631  0.2995
  344SOL     OW 1030   2.435   2.723   0.965  0.3528  0.3091  0.4597
  344SOL    HW1 1031   2.340   2.705   0.991  2.5681 -1.8026 -0.2168
  344SOL    HW2 1032   2.457   2.675   0.873 -0.9812  0.3305 -0.1120
  345SOL     OW 1033   2.731   2.304   0.097 -0.0522 -0.8300  0.0257
  345SOL    HW1 1034   2.798   2.354   0.035  0.5878 -1.2233  3.2248
  345SOL    HW2 1035   2.790   2.247   0.157 -0.6411  0.1272  1.7354
  346SOL     OW 1036   2.743   1.690   0.739  0.2027  0.3625 -0.1586
  346SOL    HW1 1037   2.681   1.764   0.710 -1.3813 -1.2454  0.2331
  346SOL    HW2 1038   2.808   1.728   0.805  0.3452 -0.5977 -1.2323
  347SOL     OW 1039   1.764   1.986   1.767 -0.1300  0.0987  0.3669
  347SOL    HW1 1040   1.753   2.070   1.826  2.2837 -1.7524 -1.3290
  347SOL    HW2 1041   1.717   1.902   1.808 -1.1522 -0.2927  2.5391
  348SOL     OW 1042   0.643   1.646   2.638  0.0879 -0.1831  0.3942
  348SOL    HW1 1043   0.732   1.698   2.638  1.4205 -2.0413  0.2330
  348SOL    HW2 1044   0.618   1.639   2.734 -0.3789  0.6367 -1.8863
  349SOL     OW 1045   2.307   1.271   1.150 -0.6150  0.9605  0.0137
  349SOL    HW1 1046   2.252   1.350   1.136  2.9783 -3.2869  2.9573
  349SOL    HW2 1047   2.405   1.289   1.157  0.9461 -3.0271 -0.4828
  350SOL     OW 1048   2.889   2.589   1.388 -0.4462  0.3681 -0.5080
  350SOL    HW1 1049   2.966   2.564   1.450 -1.4955  0.0782  2.0152
  350SOL    HW2 1050   2.811   2.523   1.404 -1.5804 -2.1839  1.8466
  351SOL     OW 1051   0.509   0.022   2.235 -0.2798  0.0622 -0.4700
  351SOL    HW1 1052   0.482   0.120   2.221  0.3927  2.1468 -0.2691
  351SOL    HW2 1053   0.575   0.021   2.313  1.3805  1.2750 -0.6908
  352SOL     OW 1054   0.872   1.662   0.944 -0.6714 -0.3728 -0.1938
  352SOL    HW1 1055   0.900   1.651   1.039  0.3939 -1.7671  2.1287
  352SOL    HW2 1056   0.787   1.608   0.928  0.1034  2.8253 -1.1337
  353SOL     OW 1057   1.376   1.493   2.272  0.5384  0.4687  0.0992
  353SOL    HW1 1058   1.311   1.562   2.233 -0.5364  0.3427  1.5987
  353SOL    HW2 1059   1.368   1.483   2.370  1.0402  0.5473 -0.1155
  354SOL     OW 1060   1.356   0.145   0.930  0.1999 -0.2783  0.5383
  354SOL    HW1 1061   1.331   0.099   1.018 -1.4040 -1.0198 -4.7862
  354SOL    HW2 1062   1.343   0.247   0.942  0.6462 -0.6242  0.3976
  355SOL     OW 1063   2.630   1.088   0.414  0.3056 -0.0874  0.1419
  355SOL    HW1 1064   2.616   1.184   0.382 -1.0324  1.6932  0.6818
  355SOL    HW2 1065   2.597   1.078   0.510  1.6107  0.0612 -0.1508
  356SOL     OW 1066   2.403   1.714   2.271 -0.7729 -0.3035 -0.2710
  356SOL    HW1 1067   2.311   1.739   2.300  3.4879  0.7173 -0.5448
  356SOL    HW2 1068   2.450   1.793   2.235 -2.1216 -1.8214  0.7179
  357SOL     OW 1069   0.538   2.665   1.622 -0.1493 -0.2503  0.3810
  357SOL    HW1 1070   0.477   2.735   1.583 -2.7625  0.6466  0.6901
  357SOL    HW2 1071   0.632   2.680   1.584  0.2738  1.3253 -1.1540
  358SOL     OW 1072   2.466   0.716   1.513 -0.3973 -0.2094 -0.3459
  358SOL    HW1 1073   2.505   0.624   1.540  0.5120  1.3685 -1.5694
  358SOL    HW2 1074   2.451   0.777   1.590 -1.9198  0.8018  0.5554
  359SOL     OW 1075   2.226   2.705   2.641  0.0909  0.6849  0.3679
  359SOL    HW1 1076   2.163   2.780   2.642  0.1458 -1.9047 -0.2038
  359SOL    HW2 1077   2.208   2.660   2.728 -0.7755 -0.5354 -0.8897
  360SOL     OW 1078   0.879   0.480   0.867  0.0399  0.7887  0.2836
  360SOL    HW1 1079   0.920   0.535   0.939 -0.5477 -0.1708  0.2033
  360SOL    HW2 1080   0.930   0.456   0.784 -0.5621 -2.8820  1.2004
  361SOL     OW 1081   1.926   2.911   1.142  0.1757 -0.1789 -0.0290
  361SOL    HW1 1082   1.910   2.988   1.077 -0.4443 -0.2509  0.1596
  361SOL    HW2 1083   2.001   2.847   1.116 -0.7571 -0.6639  0.2400
  362SOL     OW 1084   1.235   1.197   0.440  0.3913  0.1325 -0.4140
  362SOL    HW1 1085   1.322   1.238   0.477  1.5696  2.4911  0.2137
  362SOL    HW2 1086   1.203   1.115   0.497 -1.3890 -3.8530 -1.6032
  363SOL     OW 1087   2.094   1.555   2.525  0.0455 -0.2366 -0.1963
  363SOL    HW1 1088   2.163   1.547   2.603 -0.5839  1.1311  0.7712
  363SOL    HW2 1089   2.127   1.505   2.446 -3.0737  2.0419  2.3409
  364SOL     OW 1090   0.397   0.312   1.217 -0.5587  0.0446 -0.6369
  364SOL    HW1 1091   0.472   0.387   1.220  0.1650  1.5530  0.9368
  364SOL    HW2 1092   0.314   0.341   1.266  2.5669 -1.5861 -3.2567
  365SOL     OW 1093   0.070   2.774   0.224  0.2963  0.3267 -0.2241
  365SOL    HW1 1094   0.051   2.678   0.199  0.3672  0.2663 -1.5564
  365SOL    HW2 1095   0.062   2.791   0.326 -1.6849 -1.6933  0.7976
  366SOL     OW 1096   2.412   2.014   2.985  0.0171  0.3758  0.0007
  366SOL    HW1 1097   2.347   2.017   3.067 -0.1945  0.8922  0.7708
  366SOL    HW2 1098   2.491   2.079   3.000  1.4627 -1.5841  1.2490
  367SOL     OW 1099   2.446   2.472   2.853  0.3941  0.2652 -0.4161
  367SOL    HW1 1100   2.429   2.480   2.755  1.6342  2.0179  4.3064
  367SOL    HW2 1101   2.469   2.376   2.886 -1.8181 -1.1625  2.1354
  368SOL     OW 1102   0.282   1.769   1.035 -0.1498  0.0593  0.0845
  368SOL    HW1 1103   0.309   1.774   1.137  1.6301  0.6425  0.0249
  368SOL    HW2 1104   0.244   1.854   1.002 -1.2512 -1.0708 -2.7000
  369SOL     OW 1105   0.805   2.667   2.923 -0.4861  0.3360 -0.2865
  369SOL    HW1 1106   0.818   2.735   2.842  0.0707 -0.7048 -2.3882
  369SOL    HW2 1107   0.896   2.621   2.941 -0.9505  0.1454  2.0226
  370SOL     OW 1108   0.254   0.930   0.647  0.4732  0.0711  0.2382
  370SOL    HW1 1109   0.175   0.996   0.650  0.1861  0.5242  1.4827
  370SOL    HW2 1110   0.216   0.839   0.674 -2.0953 -1.3354  0.0546
  371SOL     OW 1111   2.026   2.671   0.853  0.3095  0.3058  0.0423
  371SOL    HW1 1112   2.058   2.763   0.826  0.8890  0.0285  1.8903
  371SOL    HW2 1113   1.939   2.652   0.809  1.8579  3.2220  0.0775
  372SOL     OW 1114   0.195   1.066   2.760 -0.4760 -0.0205 -0.4534
  372SOL    HW1 1115   0.253   1.154   2.785  3.1065  2.6436  0.2041
  372SOL    HW2 1116   0.237   0.978   2.794 -0.9573  0.4398  0.7359
  373SOL     OW 1117   2.915   2.004   0.715 -0.5537 -0.2966 -0.7677
  373SOL    HW1 1118   2.882   1.958   0.800 -0.8896  0.3076 -2.5389
  373SOL    HW2 1119   3.018   2.006   0.720  0.2533 -0.9267  1.1598
  374SOL     OW 1120   0.018   2.395   0.390  0.4159 -0.8662 -0.2280
  374SOL    HW1 1121   0.063   2.305   0.367  2.5393 -1.2835 -0.2120
  374SOL    HW2 1122   0.076   2.460   0.446  0.9611 -1.9986  1.8107
  375SOL     OW 1123   0.442   0.563   0.120  0.1907 -0.0521 -0.1178
  375SOL    HW1 1124   0.434   0.624   0.203 -1.6943 -0.5495  1.3556
  375SOL    HW2 1125   0.491   0.475   0.139  0.0524  2.1376 -0.6483
  376SOL     OW 1126   0.536   2.180   2.120  0.2124 -0.2322 -0.1584
  376SOL    HW1 1127   0.549   2.153   2.021 -0.6464  0.9675 -1.8892
  376SOL    HW2 1128   0.617   2.169   2.180  1.6190  0.4777  4.1258
  377SOL     OW 1129   1.714   2.576   2.712 -0.2450  0.0160 -0.5530
  377SOL    HW1 1130   1.626   2.574   2.661  2.1112  0.6455 -0.6279
  377SOL    HW2 1131   1.767   2.487   2.713  0.8490 -1.1198 -1.0212
  378SOL     OW 1132   0.938   0.973   0.349 -0.5399  0.3015 -0.1877
  378SOL    HW1 1133   1.019   0.958   0.294 -0.2099 -0.6957  1.3657
  378SOL    HW2 1134   0.934   0.896   0.412  0.1225  0.0337 -1.0060
  379SOL     OW 1135   0.741   1.670   0.507  0.2942 -0.1291  0.6763
  379SOL    HW1 1136   0.687   1.724   0.574 -0.1424 -1.0799  1.7047
  379SOL    HW2 1137   0.817   1.621   0.553 -0.9292 -3.7674 -0.4818
  380SOL     OW 1138   0.371   1.991   1.407 -0.2977  0.0122 -0.4846
  380SOL    HW1 1139   0.297   2.027   1.342  0.8156 -1.0596 -0.3866
  380SOL    HW2 1140   0.404   2.053   1.474 -1.9208 -3.3363 -0.7712
  381SOL     OW 1141   0.469   1.218   1.501 -0.7419  0.5373 -0.6507
  381SOL    HW1 1142   0.566   1.225   1.477 -0.3865 -0.2640  1.0982
  381SOL    HW2 1143   0.415   1.301   1.520 -2.2902 -1.6864  1.5530
  382SOL     OW 1144   2.324   2.060   0.504  0.1897  0.0213 -0.1901
  382SOL    HW1 1145   2.352   2.136   0.562 -2.5654 -1.2172 -0.0320
  382SOL    HW2 1146   2.364   2.068   0.413 -2.3054  3.7076  1.1252
  383SOL     OW 1147   2.875   1.910   2.282  0.4321  0.5454 -0.4005
  383SOL    HW1 1148   2.886   1.909   2.182 -1.0014  2.3457  2.6462
  383SOL    HW2 1149   2.797   1.971   2.309 -0.5637  0.5859 -3.6108
  384SOL     OW 1150   0.083   2.033   2.137  0.1135  0.1612 -0.5375
  384SOL    HW1 1151   0.159   2.080   2.186 -0.4429 -0.9770  1.8363
  384SOL    HW2 1152   0.081   1.935   2.163 -0.0896  0.0496 -2.7252
  385SOL     OW 1153   2.827   2.261   0.777 -0.3703  0.5315 -0.1911
  385SOL    HW1 1154   2.870   2.167   0.768 -0.8466 -3.3470  2.6091
  385SOL    HW2 1155   2.765   2.285   0.697 -0.9712 -1.0172  1.0059
  386SOL     OW 1156   1.750   0.859   0.752  0.0081  0.2348 -0.5254
  386SOL    HW1 1157   1.698   0.941   0.724  0.3447 -1.0964  0.6004
  386SOL    HW2 1158   1.793   0.813   0.670 -0.1800 -1.0561  2.4789
  387SOL     OW 1159   0.475   0.559   1.900  0.0595  0.1976 -0.3728
  387SOL    HW1 1160   0.393   0.621   1.909  3.1352 -0.4286  0.4387
  387SOL    HW2 1161   0.555   0.616   1.940  3.7226 -0.4544  0.7142
  388SOL     OW 1162   2.328   0.953   2.409  0.2882 -0.5819  0.1420
  388SOL    HW1 1163   2.317   1.045   2.450 -0.0910  0.3020  0.6654
  388SOL    HW2 1164   2.242   0.925   2.357  0.1945  0.4240  0.5136
  389SOL     OW 1165   1.997   1.184   2.018  0.4104 -0.1579  0.6243
  389SOL    HW1 1166   1.953   1.206   1.927 -1.8981 -0.6849 -3.1115
  389SOL    HW2 1167   2.057   1.103   2.015  0.9991  1.0677  2.7542
  390SOL     OW 1168   1.815   2.508   0.275 -0.4784 -0.3297 -0.1503
  390SOL    HW1 1169   1.799   2.588   0.211  1.2428  0.3458 -1.5552
  390SOL    HW2 1170   1.789   2.416   0.238  1.3495  0.8806 -0.2995
  391SOL     OW 1171   2.178   2.327   1.271  0.2758 -0.3761  0.2873
  391SOL    HW1 1172   2.145   2.290   1.184 -3.3286 -0.9518  2.0804
  391SOL    HW2 1173   2.252   2.281   1.320  0.1998 -0.3198 -0.5797
  392SOL     OW 1174   3.003   2.820   1.249  0.1996  0.4973  0.2752
  392SOL    HW1 1175   2.958   2.746   1.297 -0.6165  2.9505 -0.1391
  392SOL    HW2 1176   3.086   2.790   1.196 -1.8804 -1.3250  0.7959
  393SOL     OW 1177   2.135   1.683   0.085 -0.4854  0.0427 -0.5323
  393SOL    HW1 1178   2.086   1.602   0.115  2.2153  0.4160  0.5387
  393SOL    HW2 1179   2.127   1.692   3.084  1.7602  0.7259  1.8737
  394SOL     OW 1180   2.947   0.264   2.881  0.2186 -0.2691  0.5987
  394SOL    HW1 1181   2.998   0.343   2.920  3.3279 -0.8589  1.7174
  394SOL    HW2 1182   2.848   0.259   2.912 -1.5135  2.2113  0.6694
  395SOL     OW 1183   1.015   0.977   0.981  0.0759 -0.4355 -0.2684
  395SOL    HW1 1184   0.933   1.025   1.018  1.7185  2.4459  0.3859
  395SOL    HW2 1185   0.999   0.930   0.892 -0.0892 -1.8453  0.0126
  396SOL     OW 1186   1.330   0.708   2.914  0.2810  0.2528 -0.4488
  396SOL    HW1 1187   1.273   0.680   2.833 -0.2746 -0.5043  2.0482
  396SOL    HW2 1188   1.410   0.650   2.933 -1.6214  1.3626 -0.5098
  397SOL     OW 1189   0.203   0.459   2.558 -0.1134 -0.5092  0.1454
  397SOL    HW1 1190   0.117   0.519   2.546 -1.8149  2.1653 -0.2297
  397SOL    HW2 1191   0.184   0.359   2.547  0.5862 -0.2206  1.6622
  398SOL     OW 1192   0.860   0.131   0.102 -0.2185  0.3397  0.3403
  398SOL    HW1 1193   0.789   0.199   0.066  0.7803  2.1240 -1.9698
  398SOL    HW2 1194   0.854   0.042   0.059 -2.4934 -0.4125  1.0573
  399SOL     OW 1195   2.309   3.005   1.700  0.0856 -0.0480 -0.5511
  399SOL    HW1 1196   2.372   2.934   1.717 -2.6717  3.7648 -2.4367
  399SOL    HW2 1197   2.345   3.098   1.698 -0.4318  1.4975  1.0187
  400SOL     OW 1198   0.479   1.797   2.475  0.1986  0.1387 -0.1798
  400SOL    HW1 1199   0.538   1.720   2.524 -2.7116 -3.1976 -0.8898
  400SOL    HW2 1200   0.488   1.796   2.372  0.2704 -0.5297 -2.9760
  401SOL     OW 1201   0.943   0.372   2.682 -0.6124 -0.3675 -0.4625
  401SOL    HW1 1202   0.960   0.300   2.752  1.2560  0.1845  0.3303
  401SOL    HW2 1203   0.887   0.449   2.721  2.6523 -1.0116  1.7151
  402SOL     OW 1204   2.954   2.199   1.819  0.2649 -0.7021 -0.2167
  402SOL    HW1 1205   3.016   2.127   1.793 -0.5022 -0.3685 -0.6974
  402SOL    HW2 1206   2.992   2.233   1.908  0.1740  1.1194  0.7193
  403SOL     OW 1207   0.644   0.987   1.934 -0.2534 -0.0205 -0.1263
  403SOL    HW1 1208   0.680   1.065   1.993  0.5879  2.7678  2.1143
  403SOL    HW2 1209   0.554   1.024   1.893 -1.7361  1.7818 -2.4651
  404SOL     OW 1210   3.061   2.471   1.574  0.3690  0.7283  0.6907
  404SOL    HW1 1211   3.030   2.516   1.661  0.1601  0.2797  0.3720
  404SOL    HW2 1212   2.991   2.394   1.561 -1.9264 -0.2898  0.3024
  405SOL     OW 1213   0.467   0.407   1.676 -0.0697 -0.1574  0.9634
  405SOL    HW1 1214   0.492   0.432   1.770  2.1206  2.8405 -2.2697
  405SOL    HW2 1215   0.462   0.305   1.665  1.5352 -0.8937 -1.4375
  406SOL     OW 1216   1.937   2.096   3.092  0.1178 -0.4492  0.0356
  406SOL    HW1 1217   2.006   2.048   0.051 -0.0492  0.7560  1.2958
  406SOL    HW2 1218   1.978   2.143   3.012 -0.4443  0.8251 -1.3612
  407SOL     OW 1219   1.682   0.959   1.893  0.4249 -0.7954 -0.0001
  407SOL    HW1 1220   1.589   0.983   1.852 -0.8625  0.1670 -4.0381
  407SOL    HW2 1221   1.708   1.038   1.952  0.4229 -1.3737  1.3046
  408SOL     OW 1222   0.695   0.206   2.786  0.1167  0.3086 -0.1818
  408SOL    HW1 1223   0.662   0.120   2.748  0.8892  1.7060  0.0983
  408SOL    HW2 1224   0.797   0.204   2.814  1.5784  2.0945  0.8984
  409SOL     OW 1225   3.068   1.879   0.430  0.4273 -0.4054  0.3053
  409SOL    HW1 1226   2.979   1.926   0.434 -1.1271  0.7753  0.1365
  409SOL    HW2 1227   0.029   1.912   0.505  2.2933  1.2709  0.3959
  410SOL     OW 1228   2.661   1.600   0.316 -0.0578 -0.4347  0.2845
  410SOL    HW1 1229   2.654   1.695   0.281  1.9489  0.5657  0.2625
  410SOL    HW2 1230   2.700   1.534   0.247 -2.6006 -1.0536  0.3196
  411SOL     OW 1231   3.099   0.341   1.124 -0.2207  0.0209 -1.0065
  411SOL    HW1 1232   3.016   0.290   1.148 -1.0452 -1.5410  1.4743
  411SOL    HW2 1233   0.062   0.345   1.200  0.2217  1.7320  1.0927
  412SOL     OW 1234   1.353   0.861   0.979 -0.3318  0.0324 -0.6037
  412SOL    HW1 1235   1.369   0.958   1.009  1.1960  0.3712 -3.1377
  412SOL    HW2 1236   1.441   0.822   0.946 -1.0431  0.0160  0.9056
  413SOL     OW 1237   0.735   0.019   1.291 -0.5881  0.1708 -0.2480
  413SOL    HW1 1238   0.826   0.045   1.247 -2.1918 -2.1233 -0.4247
  413SOL    HW2 1239   0.654   0.049   1.240 -1.7743 -1.5848  2.0351
  414SOL     OW 1240   2.952   1.766   2.929  0.7182 -0.5316  0.1700
  414SOL    HW1 1241   2.903   1.809   2.852 -0.4351  1.1243 -3.2839
  414SOL    HW2 1242   3.040   1.806   2.948 -3.6415  1.0382 -0.8758
  415SOL     OW 1243   0.381   2.503   2.909  0.2968  0.0931 -0.2416
  415SOL    HW1 1244   0.472   2.460   2.901 -2.6494  1.3161 -3.6944
  415SOL    HW2 1245   0.321   2.469   2.833 -1.9658 -0.6711 -2.7214
  416SOL     OW 1246   1.197   0.615   0.524 -0.0016  0.7731  0.5727
  416SOL    HW1 1247   1.171   0.554   0.449  1.1526 -0.1017  2.2230
  416SOL    HW2 1248   1.226   0.558   0.604  0.7270 -0.3868 -2.5904
  417SOL     OW 1249   0.291   1.125   0.443  0.6623  0.7085  0.4268
  417SOL    HW1 1250   0.269   1.131   0.343  0.4163 -1.7528  1.4092
  417SOL    HW2 1251   0.274   1.037   0.493  2.2951 -0.0830  0.0675
  418SOL     OW 1252   2.583   1.245   2.272 -0.2076 -0.3933  0.1497
  418SOL    HW1 1253   2.516   1.322   2.251 -2.8743 -0.0837 -2.0151
  418SOL    HW2 1254   2.558   1.208   2.360 -1.8715  0.5373 -2.5499
  419SOL     OW 1255   0.218   0.547   2.812 -0.2479 -1.0366 -0.3133
  419SOL    HW1 1256   0.139   0.515   2.864  0.9749  0.8120 -0.5354
  419SOL    HW2 1257   0.209   0.511   2.717 -1.5224  3.1730  2.2130
  420SOL     OW 1258   0.628   1.519   0.951  0.1578  0.1912  0.4452
  420SOL    HW1 1259   0.529   1.513   0.961  3.4324  0.4207 -4.8029
  420SOL    HW2 1260   0.658   1.441   0.895 -1.8416  0.0053 -2.1906
  421SOL     OW 1261   0.618   2.337   0.899  0.8054 -0.5155 -0.0046
  421SOL    HW1 1262   0.695   2.317   0.959  1.0696 -0.3659  0.4589
  421SOL    HW2 1263   0.612   2.268   0.823  0.9986 -0.4178  2.5665
  422SOL     OW 1264   2.853   0.983   1.542  0.1639  0.4118 -0.6544
  422SOL    HW1 1265   2.949   0.995   1.519 -0.7494 -0.5054  0.7461
  422SOL    HW2 1266   2.816   0.900   1.494 -1.6935  1.9360 -2.0562
  423SOL     OW 1267   1.301   1.573   1.279  0.0344 -0.2001 -0.3650
  423SOL    HW1 1268   1.305   1.604   1.378  1.9072  1.8363  3.1632
  423SOL    HW2 1269   1.385   1.608   1.224  2.7904  0.2663 -0.8536
  424SOL     OW 1270   2.032   0.960   3.061 -0.3584  0.3450  0.3318
  424SOL    HW1 1271   2.084   0.972   0.042  1.3840 -0.9502 -3.3552
  424SOL    HW2 1272   1.983   1.045   3.038  1.0584  1.1214 -2.2953
  425SOL     OW 1273   0.051   0.602   1.923  0.1890  0.8113 -0.0395
  425SOL    HW1 1274   0.146   0.631   1.945  2.4063  1.9110 -0.9968
  425SOL    HW2 1275   0.034   0.556   1.831 -1.1529 -0.2889  1.9812
  426SOL     OW 1276   2.492   2.800   2.656 -0.3295 -0.0067 -0.8813
  426SOL    HW1 1277   2.399   2.762   2.653  3.9096 -0.6206  1.9816
  426SOL    HW2 1278   2.522   2.786   2.562 -1.4634  0.0044  0.6897
  427SOL     OW 1279   1.076   0.852   2.291  0.4341 -0.2945 -0.6279
  427SOL    HW1 1280   1.155   0.871   2.236 -1.2101  0.6345  0.3115
  427SOL    HW2 1281   1.006   0.922   2.265 -0.9223  1.9118  0.9326
  428SOL     OW 1282   2.127   0.917   1.955 -0.2181 -0.0168  0.4012
  428SOL    HW1 1283   2.199   0.885   2.014 -1.9303  0.2242  0.0344
  428SOL    HW2 1284   2.032   0.884   1.984  1.5350  1.3720 -1.2689
  429SOL     OW 1285   3.083   2.874   0.493 -0.1755  0.1396 -0.5762
  429SOL    HW1 1286   0.011   2.886   0.591  2.4763 -1.2048  2.1750
  429SOL    HW2 1287   3.058   2.963   0.453  2.2453 -0.4775  0.1373
  430SOL     OW 1288   1.967   1.261   2.269  0.3362 -0.2908 -0.1804
  430SOL    HW1 1289   2.062   1.302   2.282 -1.4791 -1.8101  2.1743
  430SOL    HW2 1290   1.953   1.225   2.173 -1.1561  2.8988 -3.5842
  431SOL     OW 1291   0.355   1.738   1.297 -0.2032  0.3225  0.5347
  431SOL    HW1 1292   0.341   1.825   1.348  2.9157 -2.7330  0.1855
  431SOL    HW2 1293   0.447   1.701   1.321  0.5107 -1.1670 -2.1858
  432SOL     OW 1294   1.766   0.288   2.244 -0.0353  0.0027 -0.9239
  432SOL    HW1 1295   1.755   0.225   2.323  0.5217  1.0734 -1.6308
  432SOL    HW2 1296   1.711   0.371   2.249  1.5559 -0.8071 -0.0572
  433SOL     OW 1297   1.430   3.092   1.955  0.5379  0.1548 -0.2837
  433SOL    HW1 1298   1.424   0.013   1.854 -0.1444  0.5212 -1.9175
  433SOL    HW2 1299   1.531   3.095   1.970  0.3002 -1.7079 -1.2426
  434SOL     OW 1300   0.501   2.514   2.109 -0.0948 -0.7119 -0.1016
  434SOL    HW1 1301   0.419   2.458   2.083  1.0464  0.9281 -1.5859
  434SOL    HW2 1302   0.569   2.456   2.161  0.3103  0.3450  3.6831
  435SOL     OW 1303   0.395   2.263   0.341  0.0647 -0.0401 -0.3800
  435SOL    HW1 1304   0.376   2.349   0.284 -2.4791  0.6414  0.6825
  435SOL    HW2 1305   0.493   2.243   0.355  2.4643  1.8817 -1.0302
  436SOL     OW 1306   0.667   0.701   2.007 -0.1475  0.2478  0.4927
  436SOL    HW1 1307   0.744   0.664   1.952  1.6820 -0.9846  0.2856
  436SOL    HW2 1308   0.654   0.802   1.995 -0.5280  0.2145  1.7060
  437SOL     OW 1309   0.483   2.876   2.466 -0.2841  0.3451  0.0436
  437SOL    HW1 1310   0.546   2.953   2.459 -0.7549 -2.0245  0.9444
  437SOL    HW2 1311   0.521   2.804   2.535  0.4718 -0.4653  0.3934
  438SOL     OW 1312   0.742   1.698   1.520 -0.1458 -0.0958  0.2098
  438SOL    HW1 1313   0.692   1.754   1.589  2.9505 -1.1446 -3.0399
  438SOL    HW2 1314   0.793   1.614   1.553  2.3210 -0.7104 -1.2650
  439SOL     OW 1315   2.026   0.696   3.046  0.6526  0.1164  0.1160
  439SOL    HW1 1316   2.025   0.798   3.032 -3.4197 -1.0901 -1.0193
  439SOL    HW2 1317   2.084   0.674   0.022  0.7209 -1.3325 -2.0524
  440SOL     OW 1318   0.746   0.387   0.311 -0.1921  0.4891 -0.7315
  440SOL    HW1 1319   0.675   0.351   0.248 -0.4197  1.8820 -0.1502
  440SOL    HW2 1320   0.758   0.485   0.287  0.5656  1.1777 -1.6543
  441SOL     OW 1321   0.959   2.285   1.353  0.0081 -0.0050 -0.5468
  441SOL    HW1 1322   0.932   2.385   1.361 -0.3475 -1.0870  0.6788
  441SOL    HW2 1323   0.881   2.222   1.383 -0.4130  2.3852  0.3773
  442SOL     OW 1324   3.043   1.506   0.737  0.1747  0.6308  0.2348
  442SOL    HW1 1325   2.971   1.535   0.668 -0.4675  1.6163  1.4735
  442SOL    HW2 1326   3.069   1.581   0.800 -1.6640  0.6909  1.1790
  443SOL     OW 1327   2.683   1.916   2.553 -0.0341  0.4999 -0.2334
  443SOL    HW1 1328   2.686   1.985   2.479  2.0719  0.6366  0.3806
  443SOL    HW2 1329   2.653   1.824   2.520  1.5921 -1.1364  1.4679
  444SOL     OW 1330   1.671   0.938   3.032 -0.6858  0.5564  0.5835
  444SOL    HW1 1331   1.695   0.913   2.936  2.1169  0.2449 -0.8809
  444SOL    HW2 1332   1.580   0.977   3.035  0.9702 -0.8454 -0.4938
  445SOL     OW 1333   2.680   2.786   1.994 -0.7512  0.4040  0.1786
  445SOL    HW1 1334   2.702   2.863   1.925  0.5573  1.6944 -0.4741
  445SOL    HW2 1335   2.621   2.718   1.953 -0.8810  1.7033 -1.8634
  446SOL     OW 1336   2.985   1.259   0.858 -0.4262 -0.4220  0.6083
  446SOL    HW1 1337   3.015   1.347   0.817  0.7181 -0.5551  0.3757
  446SOL    HW2 1338   3.024   1.234   0.947  2.0975 -1.8112 -1.7384
  447SOL     OW 1339   1.138   1.901   1.098  0.2210 -0.5748  0.0727
  447SOL    HW1 1340   1.108   1.904   1.189  0.4296 -0.3430 -2.6613
  447SOL    HW2 1341   1.066   1.940   1.034 -1.7107 -0.3364  0.7087
  448SOL     OW 1342   1.317   1.566   1.565 -0.1730  0.0942  0.1127
  448SOL    HW1 1343   1.390   1.497   1.579 -1.0703 -1.6263  0.8162
  448SOL    HW2 1344   1.227   1.526   1.578  1.5421  2.5708  1.3624
  449SOL     OW 1345   2.784   2.335   2.324 -0.4335 -0.0331 -0.1161
  449SOL    HW1 1346   2.752   2.426   2.366 -3.3101  1.7733 -0.0489
  449SOL    HW2 1347   2.891   2.337   2.332  3.3119  0.3308  1.6766
  450SOL     OW 1348   3.042   1.680   1.960 -0.0331 -0.2268  0.3921
  450SOL    HW1 1349   2.950   1.669   1.917 -2.3174  1.4782 -0.6614
  450SOL    HW2 1350   3.061   1.616   2.043  2.4467 -2.6793  0.3698
  451SOL     OW 1351   2.304   0.666   1.302  0.0630 -0.2376 -0.2063
  451SOL    HW1 1352   2.376   0.677   1.375 -1.7805 -2.3796 -2.0242
  451SOL    HW2 1353   2.218   0.714   1.329 -0.4470  0.6234 -0.2236
  452SOL     OW 1354   0.641   1.296   0.790 -0.2364  0.1727 -0.0466
  452SOL    HW1 1355   0.568   1.239   0.823  1.5482  0.0884  0.2727
  452SOL    HW2 1356   0.658   1.284   0.689 -0.1027 -2.7779 -2.6030
  453SOL     OW 1357   1.476   2.042   0.541  0.3703  0.3584 -0.1718
  453SOL    HW1 1358   1.481   1.999   0.631  2.2836 -0.7286 -0.7867
  453SOL    HW2 1359   1.550   2.114   0.529 -1.0008 -1.7357  1.3104
  454SOL     OW 1360   0.424   1.836   0.142  0.1047 -0.1334  0.2101
  454SOL    HW1 1361   0.404   1.737   0.155  0.2635 -1.5429  0.3311
  454SOL    HW2 1362   0.393   1.892   0.219  0.1962 -2.0889  0.2464
  455SOL     OW 1363   1.278   1.186   0.163  0.3948  0.1315 -0.4220
  455SOL    HW1 1364   1.182   1.205   0.140  0.0303  0.5504 -1.6869
  455SOL    HW2 1365   1.277   1.179   0.270 -1.3717  0.9981  2.6366
  456SOL     OW 1366   2.214   2.473   0.916  0.2579 -0.4714 -0.4854
  456SOL    HW1 1367   2.164   2.388   0.926  0.7579  1.9948 -0.0273
  456SOL    HW2 1368   2.152   2.556   0.902 -0.6919 -0.2026  0.0301
  457SOL     OW 1369   1.641   2.989   2.972 -0.1195 -0.2093  0.0242
  457SOL    HW1 1370   1.733   3.007   3.014 -0.1838  1.2198 -1.3920
  457SOL    HW2 1371   1.635   2.892   2.940  1.4095 -3.7582  2.7987
  458SOL     OW 1372   2.493   1.087   0.659 -0.5402 -0.3142 -0.0709
  458SOL    HW1 1373   2.433   1.147   0.607  0.5420 -1.2192 -0.5942
  458SOL    HW2 1374   2.494   1.106   0.761  1.6816 -0.4436  1.6075
  459SOL     OW 1375   2.558   0.280   2.622  0.0878  0.4664 -0.6676
  459SOL    HW1 1376   2.492   0.354   2.601  0.1749 -0.8734  0.9298
  459SOL    HW2 1377   2.630   0.274   2.549  1.1689  1.1710  0.2008
  460SOL     OW 1378   2.575   0.770   2.677 -0.0792  0.0428  0.4809
  460SOL    HW1 1379   2.481   0.802   2.687 -0.1246  1.1739  0.1116
  460SOL    HW2 1380   2.641   0.851   2.675  2.2049  1.9056  0.5568
  461SOL     OW 1381   2.785   2.456   0.959  0.1028 -0.0511  0.1790
  461SOL    HW1 1382   2.746   2.419   1.045  0.0719  3.5214  2.0205
  461SOL    HW2 1383   2.824   2.382   0.899 -1.3826 -0.4435 -0.6793
  462SOL     OW 1384   3.068   2.842   1.869 -0.1278 -0.0948  0.6226
  462SOL    HW1 1385   3.092   2.929   1.818  0.3334 -1.9871  0.8209
  462SOL    HW2 1386   0.032   2.822   1.944  2.2738  0.6361 -1.2862
  463SOL     OW 1387   2.122   1.774   2.351  0.4199 -0.6622 -1.0325
  463SOL    HW1 1388   2.098   1.685   2.407 -2.0452 -2.2687  3.7612
  463SOL    HW2 1389   2.035   1.813   2.318  2.3078  2.9006 -2.1539
  464SOL     OW 1390   0.812   2.718   1.552 -0.2676  0.0964 -0.0036
  464SOL    HW1 1391   0.875   2.712   1.634  1.1765  2.2357  1.8354
  464SOL    HW2 1392   0.783   2.815   1.540 -1.5551 -0.2727  1.4634
  465SOL     OW 1393   0.859   3.090   1.647  0.1780 -0.2825 -0.0619
  465SOL    HW1 1394   0.786   3.042   1.594  3.7638 -0.3966  1.0234
  465SOL    HW2 1395   0.827   0.080   1.674  0.0272  1.0819 -0.8773
  466SOL     OW 1396   1.507   2.626   1.946  0.7046 -0.2158 -0.0732
  466SOL    HW1 1397   1.611   2.646   1.953  1.3782  1.7816 -0.1086
  466SOL    HW2 1398   1.459   2.698   2.002  2.0661  1.5152  0.6308
  467SOL     OW 1399   0.608   1.940   1.302  0.7305 -0.1333  0.3792
  467SOL    HW1 1400   0.625   1.848   1.262 -1.0490  1.3627  0.8495
  467SOL    HW2 1401   0.516   1.942   1.354 -1.1102 -1.2823  0.1990
  468SOL     OW 1402   2.625   1.673   2.418 -0.1390 -0.1612 -0.0775
  468SOL    HW1 1403   2.716   1.647   2.372  0.2663 -1.3032 -1.2975
  468SOL    HW2 1404   2.556   1.699   2.348  0.9236  0.5882 -3.5307
  469SOL     OW 1405   1.025   2.019   0.681 -0.0873 -0.0384  0.2092
  469SOL    HW1 1406   1.077   1.942   0.635 -1.0718 -0.6976  1.5324
  469SOL    HW2 1407   1.005   1.999   0.779  1.1849  2.1179  3.0328
  470SOL     OW 1408   2.067   1.218   1.652 -0.2614 -0.0277  0.7343
  470SOL    HW1 1409   2.077   1.321   1.656  1.7635 -1.1520  0.6528
  470SOL    HW2 1410   2.082   1.183   1.558 -1.3228  2.1920 -0.6105
  471SOL     OW 1411   0.245   2.494   0.047  1.1556 -0.0609 -0.3472
  471SOL    HW1 1412   0.313   2.523   0.118 -1.3878 -2.9890 -1.3674
  471SOL    HW2 1413   0.277   2.500   3.056 -0.6323 -0.0817 -2.3161
  472SOL     OW 1414   2.822   1.977   2.003  0.3967  0.1540 -0.3068
  472SOL    HW1 1415   2.830   1.913   1.926  0.0858  1.0869  2.3705
  472SOL    HW2 1416   2.728   2.014   2.009  1.4321  2.7268 -1.7913
  473SOL     OW 1417   1.066   3.029   0.258 -0.0083 -0.0510  0.1151
  473SOL    HW1 1418   1.064   2.949   0.199 -1.2704  4.3595  0.8237
  473SOL    HW2 1419   1.012   0.006   0.219  0.2742  0.6195  0.9159
  474SOL     OW 1420   2.593   2.609   0.768  0.3798 -0.6015 -0.1229
  474SOL    HW1 1421   2.587   2.600   0.664 -0.4180 -1.2485 -1.9896
  474SOL    HW2 1422   2.662   2.679   0.800 -0.2018 -0.2349 -2.7181
  475SOL     OW 1423   2.072   2.880   1.642 -0.2506  0.0282  0.6542
  475SOL    HW1 1424   2.046   2.922   1.555 -1.5968 -1.1212  3.5018
  475SOL    HW2 1425   2.147   2.939   1.674 -2.1748  1.1817 -0.9070
  476SOL     OW 1426   0.908   0.889   0.741 -0.3197  0.4324  0.0360
  476SOL    HW1 1427   0.930   0.847   0.650  0.3027 -1.1311 -0.9473
  476SOL    HW2 1428   0.812   0.866   0.768  1.6732 -0.9003 -0.4167
  477SOL     OW 1429   0.532   1.952   0.884  0.0564 -0.3152 -0.2634
  477SOL    HW1 1430   0.435   1.974   0.907 -3.0667 -1.0627  1.2286
  477SOL    HW2 1431   0.564   2.019   0.820 -0.6880  0.1978  1.0779
  478SOL     OW 1432   0.043   2.511   2.052  0.1499  0.0875 -0.1172
  478SOL    HW1 1433   3.050   2.482   2.023 -2.1964  0.9853 -2.5447
  478SOL    HW2 1434   0.045   2.613   2.075 -1.0386  2.0935  0.2269
  479SOL     OW 1435   0.271   0.590   1.629 -0.1285  0.1914  0.0562
  479SOL    HW1 1436   0.176   0.559   1.623  2.6312  0.5375  1.2417
  479SOL    HW2 1437   0.341   0.522   1.659  1.6291 -0.1305  1.0505
  480SOL     OW 1438   2.902   2.455   3.069  0.5493 -0.4230  0.2191
  480SOL    HW1 1439   2.918   2.510   2.982 -0.3475  0.9606 -1.9641
  480SOL    HW2 1440   2.984   2.463   0.026  2.1044 -2.3836 -0.4748
  481SOL     OW 1441   1.946   1.908   2.200  0.3211 -0.3595  0.3468
  481SOL    HW1 1442   1.874   1.844   2.167  0.2488 -2.9268 -0.2641
  481SOL    HW2 1443   1.970   1.964   2.117  0.5656  0.7083 -2.9319
  482SOL     OW 1444   1.785   2.272   0.150  0.0496  0.8269 -0.3692
  482SOL    HW1 1445   1.696   2.225   0.140 -1.4472 -0.3166 -1.5971
  482SOL    HW2 1446   1.847   2.224   0.089 -1.5543 -0.4929 -0.3038
  483SOL     OW 1447   0.501   1.820   2.203  0.7478  0.6698 -0.4014
  483SOL    HW1 1448   0.585   1.874   2.212 -1.0112 -3.8626  1.4539
  483SOL    HW2 1449   0.453   1.846   2.118  2.3979 -2.0917  1.3939
  484SOL     OW 1450   2.886   0.566   1.284  0.1300  0.0970 -0.1023
  484SOL    HW1 1451   2.947   0.645   1.306 -0.4578  0.7623  0.0198
  484SOL    HW2 1452   2.870   0.563   1.187  1.9105 -0.8510  0.8959
  485SOL     OW 1453   2.195   1.090   0.750  0.2372  0.4777 -0.0674
  485SOL    HW1 1454   2.198   0.989   0.723  0.3154 -0.8233 -0.0615
  485SOL    HW2 1455   2.205   1.145   0.667 -0.4851 -1.0201  3.2030
  486SOL     OW 1456   1.424   0.335   2.264  0.6438  0.2356 -0.1501
  486SOL    HW1 1457   1.487   0.414   2.254 -0.2365 -0.8921  0.6356
  486SOL    HW2 1458   1.413   0.299   2.357  0.8568 -1.2787  1.4040
  487SOL     OW 1459   0.981   1.321   1.104  0.0652  0.0061 -0.2554
  487SOL    HW1 1460   0.922   1.234   1.126 -0.4033 -2.8174  0.1537
  487SOL    HW2 1461   0.981   1.338   1.007  0.2693 -1.1494  2.2036
  488SOL     OW 1462   2.401   1.412   2.878 -0.0517  0.6838  0.2926
  488SOL    HW1 1463   2.360   1.468   2.805  2.6557  0.9059  0.0133
  488SOL    HW2 1464   2.403   1.457   2.968 -1.5800  0.1963  1.5276
  489SOL     OW 1465   2.451   0.170   0.334 -0.1201 -0.0406 -0.0144
  489SOL    HW1 1466   2.524   0.220   0.280  0.0214 -1.7378  0.1792
  489SOL    HW2 1467   2.500   0.105   0.398  2.0526 -0.3823 -0.6515
  490SOL     OW 1468   1.496   2.367   0.370  0.2910 -0.1928  0.1071
  490SOL    HW1 1469   1.581   2.313   0.343  1.7610 -1.9326  0.8115
  490SOL    HW2 1470   1.504   2.463   0.330 -0.8290 -2.5459 -0.7356
  491SOL     OW 1471   1.020   1.136   0.649 -0.0816 -0.2006 -0.0938
  491SOL    HW1 1472   0.976   1.051   0.681 -0.8652 -0.7825  0.4222
  491SOL    HW2 1473   0.956   1.188   0.592  0.5758 -0.7040 -0.2111
  492SOL     OW 1474   1.538   0.316   3.099 -0.1347  0.2072  0.8404
  492SOL    HW1 1475   1.614   0.260   3.058 -0.4170 -0.3317 -0.2927
  492SOL    HW2 1476   1.528   0.413   3.063  0.8682 -0.6797 -1.1057
  493SOL     OW 1477   2.082   2.068   0.227  0.2154  0.6068  0.3873
  493SOL    HW1 1478   2.096   2.168   0.241 -2.1198  0.0191  3.0512
  493SOL    HW2 1479   2.032   2.034   0.316 -3.7630 -1.1723  5.9474
  494SOL     OW 1480   0.558   1.015   0.353 -0.0491  0.4414  0.4138
  494SOL    HW1 1481   0.544   1.111   0.372 -0.2427 -2.6537 -0.2215
  494SOL    HW2 1482   0.603   0.998   0.264  2.0837  0.7975 -0.6204
  495SOL     OW 1483   2.970   2.852   0.987  0.5428  0.4262  0.1393
  495SOL    HW1 1484   2.979   2.857   1.089  0.4422  4.0266  1.2030
  495SOL    HW2 1485   2.978   2.757   0.953 -0.1516  2.0231  2.0946
  496SOL     OW 1486   2.356   0.230   1.679 -0.0421  0.4401  0.3480
  496SOL    HW1 1487   2.387   0.259   1.589 -2.4141 -1.2545  0.5346
  496SOL    HW2 1488   2.256   0.217   1.668  0.6338  0.5085 -1.7483
  497SOL     OW 1489   1.922   1.643   2.728  0.2778  0.0061 -0.1293
  497SOL    HW1 1490   1.968   1.620   2.642 -1.1653 -0.7702  1.9032
  497SOL    HW2 1491   1.882   1.738   2.725  0.7691 -1.5809  1.0018
  498SOL     OW 1492   0.931   1.937   0.917  0.2702  0.0237 -0.0804
  498SOL    HW1 1493   0.871   1.997   0.973 -1.9949  0.2301 -0.3086
  498SOL    HW2 1494   0.884   1.849   0.910  3.2317  0.0559 -1.0508
  499SOL     OW 1495   0.705   2.188   1.387 -0.1000  0.5517 -0.4456
  499SOL    HW1 1496   0.671   2.095   1.354 -1.2931 -0.2695  1.3894
  499SOL    HW2 1497   0.650   2.261   1.348  0.8253 -0.1942  1.0875
  500SOL     OW 1498   0.952   2.168   0.076  0.8814  0.2942 -0.0589
  500SOL    HW1 1499   0.948   2.274   0.080 -1.4539  1.6864  4.0548
  500SOL    HW2 1500   1.038   2.131   0.114  0.7274 -1.4955 -0.7513
  501SOL     OW 1501   2.688   3.005   1.474 -0.2171 -0.1894  0.4659
  501SOL    HW1 1502   2.654   2.921   1.427  0.9355 -1.4165 -1.0142
  501SOL    HW2 1503   2.625   3.037   1.543  2.9641  0.7336 -0.0894
  502SOL     OW 1504   0.272   0.873   1.575  0.2519  0.8857 -0.5678
  502SOL    HW1 1505   0.309   0.783   1.600 -2.2122 -1.0671  2.8955
  502SOL    HW2 1506   0.332   0.932   1.523  1.4738  2.2878 -1.2008
  503SOL     OW 1507   2.031   0.913   1.702  0.1552  0.3655  0.0384
  503SOL    HW1 1508   2.067   0.892   1.796 -1.3143 -0.0651  3.4495
  503SOL    HW2 1509   2.001   1.007   1.697 -1.3148 -3.3110  0.5474
  504SOL     OW 1510   1.281   0.679   2.020  0.2204 -0.0336  0.4696
  504SOL    HW1 1511   1.253   0.611   2.088 -0.8124 -0.1556  1.2206
  504SOL    HW2 1512   1.314   0.759   2.073 -1.1055  0.7376  1.8974
  505SOL     OW 1513   0.656   0.003   2.471  0.7288 -0.2679 -0.2249
  505SOL    HW1 1514   0.750   0.020   2.438 -0.1830 -0.6299 -2.4402
  505SOL    HW2 1515   0.637   0.001   2.571 -2.8710 -1.0049  0.6749
  506SOL     OW 1516   0.175   0.365   1.348 -0.1797  0.0255 -0.0950
  506SOL    HW1 1517   0.146   0.337   1.441 -0.3091  1.9168 -3.0607
  506SOL    HW2 1518   0.167   0.469   1.336  1.8474 -1.5182 -1.1251
  507SOL     OW 1519   1.325   0.135   0.052  0.1189  0.3010  0.0859
  507SOL    HW1 1520   1.410   0.188   0.050  0.4566  1.0560 -1.1728
  507SOL    HW2 1521   1.279   0.137   3.063 -1.2190  1.8357 -0.6513
  508SOL     OW 1522   1.884   0.328   2.545 -0.5435  0.5336 -0.0037
  508SOL    HW1 1523   1.969   0.286   2.511 -0.7078  1.2338  0.1287
  508SOL    HW2 1524   1.807   0.274   2.515  1.3170  1.7006 -1.3590
  509SOL     OW 1525   0.688   1.193   2.108 -0.3071  0.1811  0.4285
  509SOL    HW1 1526   0.696   1.291   2.131  0.1777 -1.8568 -2.7433
  509SOL    HW2 1527   0.699   1.133   2.192  3.1078 -1.1519  2.0853
  510SOL     OW 1528   0.003   1.049   0.718  0.3189  0.6547 -0.1827
  510SOL    HW1 1529   3.078   1.139   0.759 -0.0484 -0.6160  2.2315
  510SOL    HW2 1530   3.080   0.972   0.780 -2.4411 -1.6716  0.3284
  511SOL     OW 1531   2.138   1.972   0.988  0.1884  0.2801  0.1291
  511SOL    HW1 1532   2.236   1.954   1.008  0.0507 -0.3884 -3.0410
  511SOL    HW2 1533   2.082   1.887   0.981 -1.8187 -2.3450  2.2679
  512SOL     OW 1534   0.574   1.306   0.393  0.5416  0.5728 -0.0236
  512SOL    HW1 1535   0.492   1.328   0.456  0.5020  0.8610 -0.7544
  512SOL    HW2 1536   0.590   1.387   0.335  0.0987  0.4725 -0.4273
  513SOL     OW 1537   0.370   2.289   0.629 -0.0901 -0.1497 -0.8813
  513SOL    HW1 1538   0.360   2.267   0.532 -0.6178  0.1141  2.5382
  513SOL    HW2 1539   0.366   2.391   0.635 -2.0711  0.3378 -1.5419
  514SOL     OW 1540   2.661   2.094   2.334 -0.0787  0.0293  0.7602
  514SOL    HW1 1541   2.569   2.108   2.288 -4.4940  1.3704 -1.4817
  514SOL    HW2 1542   2.709   2.186   2.328  2.0014 -0.6814 -2.4351
  515SOL     OW 1543   2.316   0.905   0.134 -0.2103 -0.6883  0.2710
  515SOL    HW1 1544   2.265   0.825   0.169  0.8918  0.2250 -2.9737
  515SOL    HW2 1545   2.416   0.885   0.116 -0.6325 -0.0358  0.9901
  516SOL     OW 1546   1.730   0.230   0.830  0.3184 -0.1171  0.1004
  516SOL    HW1 1547   1.676   0.276   0.903  3.0315  0.5399 -0.1333
  516SOL    HW2 1548   1.682   0.163   0.770  2.0284 -1.4749 -1.6879
  517SOL     OW 1549   1.370   1.935   0.016 -0.1352 -0.5720 -0.4176
  517SOL    HW1 1550   1.320   1.866   3.061  2.3793  1.1079 -0.2913
  517SOL    HW2 1551   1.306   1.988   0.079 -1.6211  0.4546  0.8365
  518SOL     OW 1552   1.086   0.762   1.827  0.0940  0.4120  0.1489
  518SOL    HW1 1553   1.141   0.719   1.906  2.8572 -3.6063  3.2832
  518SOL    HW2 1554   1.146   0.812   1.762 -0.8272 -1.1403  2.3666
  519SOL     OW 1555   0.077   1.254   0.034 -0.5880 -0.3943 -0.0521
  519SOL    HW1 1556   0.071   1.357   0.027 -1.7537  0.0926  0.9560
  519SOL    HW2 1557   0.025   1.225   0.115  0.8549 -0.8135  0.7632
  520SOL     OW 1558   2.153   2.282   1.892  0.1831 -0.6918 -0.5807
  520SOL    HW1 1559   2.187   2.188   1.918  0.5710 -0.6525  2.0172
  520SOL    HW2 1560   2.217   2.324   1.822 -0.8140  0.4470 -0.2257
  521SOL     OW 1561   0.973   2.741   2.430 -0.9193  0.2564  0.2167
  521SOL    HW1 1562   0.939   2.828   2.383 -3.7770  2.1060 -0.1470
  521SOL    HW2 1563   1.031   2.685   2.367  1.9546  2.7720 -3.0423
  522SOL     OW 1564   2.027   0.306   2.202  0.1767  0.0530  0.3184
  522SOL    HW1 1565   2.071   0.368   2.268  2.3092 -2.0338 -0.8456
  522SOL    HW2 1566   1.923   0.305   2.200 -0.1164 -0.4864 -1.0355
  523SOL     OW 1567   1.759   1.968   1.247 -0.0187 -0.2105  0.2522
  523SOL    HW1 1568   1.711   2.052   1.220  1.0697 -0.6589 -2.8825
  523SOL    HW2 1569   1.694   1.907   1.297  1.3070 -0.1528  0.8866
  524SOL     OW 1570   1.293   2.338   0.160 -0.1893 -0.0836 -0.1965
  524SOL    HW1 1571   1.242   2.415   0.205 -0.6753  2.5189  1.6024
  524SOL    HW2 1572   1.375   2.325   0.217 -1.1586 -0.5411 -3.7916
  525SOL     OW 1573   0.014   0.462   2.969  0.0104 -0.0022 -0.4751
  525SOL    HW1 1574   3.029   0.505   2.997 -0.8013  1.8362 -2.0492
  525SOL    HW2 1575   0.071   0.467   3.055 -1.9740 -0.2238  0.9273
  526SOL     OW 1576   1.046   2.663   0.515  0.1100 -0.5890  0.2367
  526SOL    HW1 1577   0.954   2.715   0.506 -2.4370 -1.2077 -0.2519
  526SOL    HW2 1578   1.129   2.720   0.496 -1.4463 -0.4856 -0.6731
  527SOL     OW 1579   2.833   1.548   0.538  0.5375  0.2378 -0.0314
  527SOL    HW1 1580   2.789   1.596   0.620  0.7715 -0.1817  2.2146
  527SOL    HW2 1581   2.765   1.532   0.463 -0.6253  0.1336 -0.8614
  528SOL     OW 1582   0.247   0.881   2.390 -0.4505  0.0697  0.2790
  528SOL    HW1 1583   0.198   0.811   2.442  1.7143 -2.1661 -0.0527
  528SOL    HW2 1584   0.284   0.847   2.301 -0.9559  2.0394  1.9984
  529SOL     OW 1585   1.426   1.609   2.553 -0.3684  0.0286 -0.1114
  529SOL    HW1 1586   1.478   1.527   2.573  0.0556  1.9901  0.3046
  529SOL    HW2 1587   1.326   1.595   2.571 -1.9890 -1.3786 -0.0923
  530SOL     OW 1588   1.900   1.019   2.374  1.2156 -0.1279  0.4602
  530SOL    HW1 1589   1.801   1.002   2.356  0.0212 -2.5905 -1.9353
  530SOL    HW2 1590   1.932   1.113   2.363 -1.0393 -0.1676 -0.1712
  531SOL     OW 1591   0.562   2.170   2.645  0.1951  0.1789 -0.1453
  531SOL    HW1 1592   0.494   2.151   2.574 -1.0873 -0.3194  1.3181
  531SOL    HW2 1593   0.525   2.130   2.728 -0.2196 -0.5340  0.4996
  532SOL     OW 1594   2.339   1.246   0.521 -0.4577 -0.4558 -0.1010
  532SOL    HW1 1595   2.347   1.208   0.425  0.3054  1.8675 -0.4271
  532SOL    HW2 1596   2.264   1.314   0.525  0.1911 -1.0356  0.8094
  533SOL     OW 1597   0.087   3.082   1.762  0.5867  0.1976  0.0970
  533SOL    HW1 1598   0.186   3.085   1.791 -0.1909 -0.6732  1.7304
  533SOL    HW2 1599   0.090   3.085   1.661  2.3331  0.4249 -0.4924
  534SOL     OW 1600   0.622   0.197   3.048 -0.0061 -0.0022 -0.1966
  534SOL    HW1 1601   0.613   0.214   2.950 -1.2044 -3.6463  2.5762
  534SOL    HW2 1602   0.615   0.099   3.072 -0.4045 -0.6654 -0.1970
  535SOL     OW 1603   0.320   0.244   0.340  0.0828  0.1394 -0.1015
  535SOL    HW1 1604   0.222   0.288   0.334  0.4488  2.0509  0.1912
  535SOL    HW2 1605   0.320   0.143   0.363 -0.7146 -1.9988 -1.4394
  536SOL     OW 1606   0.546   1.527   1.419  0.0344  0.0974  0.2141
  536SOL    HW1 1607   0.608   1.597   1.468  1.4785 -1.3819  0.3810
  536SOL    HW2 1608   0.597   1.455   1.370  0.2852  1.0067  2.2191
  537SOL     OW 1609   1.202   2.690   1.806 -0.0032  0.2899 -0.1997
  537SOL    HW1 1610   1.257   2.726   1.882 -0.5952  1.2178  3.0884
  537SOL    HW2 1611   1.173   2.594   1.825  0.5036  0.4497 -1.3518
  538SOL     OW 1612   0.036   1.993   3.070 -0.3934 -0.3109  0.8502
  538SOL    HW1 1613   3.102   1.954   0.050 -1.3262 -0.5058 -1.1585
  538SOL    HW2 1614   0.124   1.943   3.045  2.8870  1.9068 -0.9783
  539SOL     OW 1615   2.771   0.950   2.609  0.3140  0.1782 -0.2525
  539SOL    HW1 1616   2.823   0.992   2.686  1.3565 -1.6126 -0.4496
  539SOL    HW2 1617   2.828   0.888   2.553 -2.5900  1.3389 -0.0070
  540SOL     OW 1618   1.606   0.528   2.246 -0.3559 -0.0346 -0.8387
  540SOL    HW1 1619   1.580   0.612   2.201 -1.1158 -3.4853 -0.0014
  540SOL    HW2 1620   1.632   0.538   2.344  1.6669 -2.2814  1.0312
  541SOL     OW 1621   0.569   0.417   2.098 -0.5873 -0.2079  0.1582
  541SOL    HW1 1622   0.490   0.362   2.141  0.0981 -1.7550  2.5839
  541SOL    HW2 1623   0.529   0.481   2.027  0.3591  0.1356 -2.0092
  542SOL     OW 1624   2.096   2.836   3.040  0.2032  0.7348  0.2108
  542SOL    HW1 1625   2.022   2.830   0.009  1.7692 -0.5956  0.5366
  542SOL    HW2 1626   2.065   2.892   2.961  0.9085  0.9089  1.5566
  543SOL     OW 1627   1.327   0.008   0.278 -0.3551  0.0747  0.2479
  543SOL    HW1 1628   1.329   0.079   0.205 -0.5104 -2.9428 -1.3447
  543SOL    HW2 1629   1.239   3.058   0.274  0.2932  2.1010  1.2092
  544SOL     OW 1630   2.570   1.597   1.903 -0.2860  0.6215 -0.1641
  544SOL    HW1 1631   2.617   1.507   1.926  4.2607 -1.9387 -2.3924
  544SOL    HW2 1632   2.480   1.576   1.867  0.2937  2.2943 -0.2609
  545SOL     OW 1633   2.236   2.043   1.395  0.3765  0.2779  0.0884
  545SOL    HW1 1634   2.153   2.043   1.337  0.3013  1.7043 -0.0395
  545SOL    HW2 1635   2.249   2.137   1.435  2.3294 -0.3913 -0.0339
  546SOL     OW 1636   0.133   3.060   2.446  0.3002 -0.2742 -0.3582
  546SOL    HW1 1637   0.091   3.057   2.354  0.4301  2.5254  2.3077
  546SOL    HW2 1638   0.158   2.967   2.480 -1.5149 -1.7009  1.6629
  547SOL     OW 1639   1.416   0.774   0.533 -0.0792  0.4215 -0.1381
  547SOL    HW1 1640   1.395   0.853   0.597 -2.8872 -3.4255  2.1903
  547SOL    HW2 1641   1.331   0.717   0.519 -2.5933 -0.1515 -1.9631
  548SOL     OW 1642   1.649   2.151   2.476 -0.0318 -0.1583 -0.5382
  548SOL    HW1 1643   1.633   2.189   2.569  0.9196 -0.0642 -0.5109
  548SOL    HW2 1644   1.658   2.050   2.470 -0.8292 -2.7240  2.1354
  549SOL     OW 1645   2.096   0.476   0.561 -0.0868 -0.0748  0.2021
  549SOL    HW1 1646   2.051   0.558   0.519 -0.5032  2.2393  0.6840
  549SOL    HW2 1647   2.042   0.433   0.635 -0.3017  2.1038 -0.9480
  550SOL     OW 1648   2.817   2.040   0.473  0.0937 -0.1363 -0.2925
  550SOL    HW1 1649   2.830   2.028   0.573  1.3869 -0.2410 -1.0594
  550SOL    HW2 1650   2.774   1.952   0.440 -0.2452 -0.5137 -0.8711
  551SOL     OW 1651   1.181   2.589   2.320 -0.6225 -0.0118 -0.4078
  551SOL    HW1 1652   1.262   2.646   2.294  2.2183 -0.5846  0.5767
  551SOL    HW2 1653   1.215   2.518   2.389  0.9844  1.0650  1.8493
  552SOL     OW 1654   2.966   2.613   2.840  0.7885  0.3109 -0.1492
  552SOL    HW1 1655   2.987   2.525   2.793  2.6090  1.2063  0.2784
  552SOL    HW2 1656   2.874   2.649   2.816 -0.0882  0.3202 -3.7963
  553SOL     OW 1657   0.067   0.069   0.672 -0.5049  0.0795  0.4308
  553SOL    HW1 1658   0.133   0.107   0.737 -0.5664 -0.0594  1.2027
  553SOL    HW2 1659   0.063   3.070   0.690  0.0815 -1.6125 -0.2618
  554SOL     OW 1660   2.336   2.457   1.696  0.7043 -0.2921  0.4931
  554SOL    HW1 1661   2.267   2.515   1.641 -0.6439  0.5720 -0.2768
  554SOL    HW2 1662   2.361   2.505   1.783  0.5362 -0.6528  0.7295
  555SOL     OW 1663   1.881   2.284   2.192 -0.4349  1.1559  0.0956
  555SOL    HW1 1664   1.880   2.222   2.279 -1.7673 -1.3476  1.0166
  555SOL    HW2 1665   1.973   2.330   2.185  1.2875 -1.9732 -1.3615
  556SOL     OW 1666   1.354   1.300   1.187  0.0838 -0.4237 -0.0417
  556SOL    HW1 1667   1.386   1.304   1.088  0.9514 -0.7895  0.9033
  556SOL    HW2 1668   1.327   1.389   1.228  1.4685  0.9959 -0.0739
  557SOL     OW 1669   1.990   2.529   2.400 -0.3549 -0.1731 -0.6218
  557SOL    HW1 1670   2.023   2.448   2.458 -1.9790  2.0101  0.9773
  557SOL    HW2 1671   1.950   2.598   2.461 -1.2416  0.1193 -3.0775
  558SOL     OW 1672   0.166   2.772   2.052  0.3486  0.0133 -0.3937
  558SOL    HW1 1673   0.232   2.732   1.979  1.0285  0.8520 -0.0875
  558SOL    HW2 1674   0.210   2.843   2.104 -4.9382 -4.3038 -2.1139
  559SOL     OW 1675   2.272   3.037   0.763 -0.5508 -0.4015 -0.3881
  559SOL    HW1 1676   2.332   2.974   0.709 -1.4825 -2.6296 -0.0887
  559SOL    HW2 1677   2.172   3.011   0.751 -0.0932  1.2684 -3.0042
  560SOL     OW 1678   1.765   2.619   0.729 -0.1602  0.2728  0.1523
  560SOL    HW1 1679   1.694   2.560   0.767 -1.1807  0.2789 -2.3743
  560SOL    HW2 1680   1.723   2.710   0.703  1.4188  2.8917 -2.7738
  561SOL     OW 1681   0.998   0.051   0.811 -0.3455  0.0775 -0.6677
  561SOL    HW1 1682   1.006   0.025   0.714 -0.3573 -1.2896  2.7366
  561SOL    HW2 1683   1.032   0.145   0.826 -1.7889  2.0669 -0.0452
  562SOL     OW 1684   0.499   1.014   2.542  0.1875 -0.2808  0.4570
  562SOL    HW1 1685   0.483   0.928   2.492  1.1394  2.5389  1.1919
  562SOL    HW2 1686   0.486   1.100   2.488 -1.1642  0.1214  2.2258
  563SOL     OW 1687   1.706   1.856   2.491  0.0910  0.2074  0.0451
  563SOL    HW1 1688   1.788   1.886   2.547  2.9024 -1.4982 -1.0311
  563SOL    HW2 1689   1.612   1.885   2.522  0.3576  0.1048  0.0954
  564SOL     OW 1690   2.832   1.003   1.196  0.4842  0.4242 -0.4262
  564SOL    HW1 1691   2.747   1.003   1.251 -0.1345 -0.0731 -1.0959
  564SOL    HW2 1692   2.817   0.979   1.099 -0.4484  2.5935 -2.8774
  565SOL     OW 1693   1.102   0.667   3.077  0.1061  0.0865 -0.1570
  565SOL    HW1 1694   1.180   0.688   3.012 -0.4391  2.6167  0.2089
  565SOL    HW2 1695   1.016   0.640   3.028 -0.4075 -0.1423 -1.0113
  566SOL     OW 1696   2.172   0.139   2.848 -0.4504  0.2865  0.5556
  566SOL    HW1 1697   2.156   0.178   2.754 -1.5810 -0.0577  5.5564
  566SOL    HW2 1698   2.211   0.213   2.902  0.1446  2.1395 -2.8013
  567SOL     OW 1699   2.079   1.364   0.506  0.1983  0.0348 -0.4731
  567SOL    HW1 1700   1.987   1.382   0.550 -1.9267 -2.9786  0.6291
  567SOL    HW2 1701   2.075   1.394   0.409  0.3060  0.6122  2.2329
  568SOL     OW 1702   1.647   1.729   3.028 -0.0830 -0.1068 -0.2378
  568SOL    HW1 1703   1.558   1.723   2.976  0.7530 -0.6607  1.8287
  568SOL    HW2 1704   1.687   1.640   3.051  0.8624  1.2807  0.3577
  569SOL     OW 1705   1.980   1.195   2.927 -0.3579  0.2351  0.2242
  569SOL    HW1 1706   1.984   1.296   2.957 -0.9978  0.5686  2.1687
  569SOL    HW2 1707   2.074   1.168   2.897  1.4942  1.8455 -0.0166
  570SOL     OW 1708   0.665   2.243   1.851  0.4058 -0.1865 -0.1736
  570SOL    HW1 1709   0.637   2.341   1.838  0.2934 -0.3117  0.9868
  570SOL    HW2 1710   0.585   2.182   1.844  2.2131  2.0140  0.0341
  571SOL     OW 1711   0.429   1.080   1.825  0.0050 -0.2510  0.3153
  571SOL    HW1 1712   0.398   1.133   1.740  0.4581  1.5106  0.0315
  571SOL    HW2 1713   0.356   1.077   1.894  0.8770 -0.3772 -0.7037
  572SOL     OW 1714   1.144   1.806   0.588  0.0045  0.2429 -0.3292
  572SOL    HW1 1715   1.165   1.758   0.676 -2.3354 -1.2625  1.0731
  572SOL    HW2 1716   1.117   1.736   0.518 -0.6911  1.8820 -1.5524
  573SOL     OW 1717   1.799   2.034   0.330 -0.1885  0.1950 -0.0954
  573SOL    HW1 1718   1.814   2.090   0.247  0.2079 -2.2564 -1.1101
  573SOL    HW2 1719   1.777   2.090   0.409  2.8824 -0.5113 -1.2910
  574SOL     OW 1720   0.869   3.085   1.046 -0.2324 -0.1822 -0.3418
  574SOL    HW1 1721   0.776   3.051   1.025 -0.8983 -1.8113 -0.3027
  574SOL    HW2 1722   0.909   0.028   0.964  1.2658  1.3209  2.6319
  575SOL     OW 1723   0.340   1.165   1.267  0.4233  0.4430  0.1712
  575SOL    HW1 1724   0.388   1.178   1.358 -0.7471  2.9484 -0.1374
  575SOL    HW2 1725   0.331   1.257   1.227  1.7728 -0.4736 -0.3767
  576SOL     OW 1726   2.499   0.051   1.065  0.5210 -0.5905  0.1870
  576SOL    HW1 1727   2.401   0.027   1.088  1.4777 -5.0261 -2.8611
  576SOL    HW2 1728   2.540   3.071   1.029 -2.5779 -0.2960  2.3735
  577SOL     OW 1729   0.938   1.048   2.187  0.6629 -0.1971 -0.0489
  577SOL    HW1 1730   0.949   1.053   2.084 -0.0129 -2.5479 -1.4285
  577SOL    HW2 1731   0.838   1.036   2.209 -3.3643  0.1544  2.3416
  578SOL     OW 1732   1.870   0.816   2.602  0.5003 -0.0527 -0.3480
  578SOL    HW1 1733   1.897   0.889   2.542 -2.9384  0.1429  2.0469
  578SOL    HW2 1734   1.797   0.845   2.666 -1.2990 -2.1751  1.6027
  579SOL     OW 1735   1.949   2.468   1.583  0.0530  0.1453  0.3720
  579SOL    HW1 1736   1.922   2.445   1.674  1.4801  0.5204 -0.3529
  579SOL    HW2 1737   1.941   2.389   1.518  0.4502 -2.3099 -1.1064
  580SOL     OW 1738   1.664   1.574   2.343 -0.0693 -0.8489 -0.3064
  580SOL    HW1 1739   1.685   1.656   2.402  0.0747 -1.1515 -1.4690
  580SOL    HW2 1740   1.565   1.566   2.324  2.0607 -1.5524  1.1707
  581SOL     OW 1741   1.233   1.331   2.457  0.2842 -0.3406 -0.5334
  581SOL    HW1 1742   1.249   1.229   2.480  0.9202 -0.6071  0.1244
  581SOL    HW2 1743   1.198   1.390   2.536 -2.1479 -0.5973  0.1382
  582SOL     OW 1744   1.064   1.143   1.648  0.3721 -0.1000 -0.2321
  582SOL    HW1 1745   1.084   1.241   1.679  0.9749  1.6104  0.0190
  582SOL    HW2 1746   0.975   1.131   1.598 -1.7123  0.0664 -0.5611
  583SOL     OW 1747   1.236   1.148   1.966 -0.3121  0.6882  0.3891
  583SOL    HW1 1748   1.144   1.115   1.935 -0.3987  1.3181  0.8506
  583SOL    HW2 1749   1.247   1.244   1.935 -0.9790 -2.6262  0.1478
  584SOL     OW 1750   2.212   2.836   0.430  0.3872 -0.5097 -0.2715
  584SOL    HW1 1751   2.236   2.780   0.352 -0.4458  0.3102  1.6400
  584SOL    HW2 1752   2.285   2.849   0.503 -1.3463  2.3411  1.3721
  585SOL     OW 1753   1.879   3.039   3.082 -0.0381  0.3573 -0.5267
  585SOL    HW1 1754   1.922   3.046   2.987  0.0891  1.2431 -0.6699
  585SOL    HW2 1755   1.946   3.035   0.059 -1.5667 -0.0698  2.0958
  586SOL     OW 1756   2.873   1.890   1.200  0.3231  0.1880 -0.0732
  586SOL    HW1 1757   2.781   1.911   1.245  0.4408  0.6074  2.5666
  586SOL    HW2 1758   2.932   1.967   1.238  0.5791  1.3913  0.2535
  587SOL     OW 1759   1.198   1.788   2.983  0.1680 -0.5897  0.1116
  587SOL    HW1 1760   1.149   1.784   3.076 -0.5171 -0.8479  0.2316
  587SOL    HW2 1761   1.138   1.811   2.900 -2.3727 -0.1924 -2.6178
  588SOL     OW 1762   0.412   0.315   0.913  0.3305  0.0771  0.4687
  588SOL    HW1 1763   0.499   0.346   0.870  0.2857 -0.4809  2.0611
  588SOL    HW2 1764   0.412   0.350   1.011  2.3130  0.5642  1.3893
  589SOL     OW 1765   1.342   0.074   0.648 -0.5965  0.1461 -0.1524
  589SOL    HW1 1766   1.245   0.085   0.613 -0.2376  1.0659 -1.7853
  589SOL    HW2 1767   1.349   0.094   0.746 -2.3826  2.3481 -3.4739
  590SOL     OW 1768   1.392   0.968   2.878 -0.2672 -0.0933 -0.1181
  590SOL    HW1 1769   1.392   0.865   2.892  1.8044  1.0134  1.9304
  590SOL    HW2 1770   1.299   1.008   2.857 -1.4951  1.0720 -0.0838
  591SOL     OW 1771   2.873   2.466   2.038 -0.9296  0.3429 -0.3392
  591SOL    HW1 1772   2.837   2.521   2.119 -1.8127  0.1381  1.5028
  591SOL    HW2 1773   2.894   2.371   2.070 -1.5535  4.0931 -0.9425
  592SOL     OW 1774   2.365   1.494   1.727  0.5365 -0.1243 -0.3717
  592SOL    HW1 1775   2.277   1.532   1.683 -2.6323  1.7415 -1.7271
  592SOL    HW2 1776   2.430   1.451   1.664 -0.5773 -0.7510  1.4924
  593SOL     OW 1777   1.212   0.922   1.620 -0.7126 -0.5857 -0.5232
  593SOL    HW1 1778   1.193   0.868   1.535 -0.1018  0.9920 -0.4656
  593SOL    HW2 1779   1.161   1.006   1.615  2.5317 -2.4225  3.3997
  594SOL     OW 1780   2.568   1.153   2.546 -0.0769  0.6308 -0.4884
  594SOL    HW1 1781   2.616   1.243   2.538  0.3672 -0.1096 -1.7279
  594SOL    HW2 1782   2.634   1.079   2.571  0.7388  1.2884  0.4222
  595SOL     OW 1783   3.040   0.279   0.544 -0.1409 -0.1980 -0.4206
  595SOL    HW1 1784   3.083   0.199   0.595  0.7441 -0.5399 -1.0564
  595SOL    HW2 1785   2.960   0.318   0.595  1.3584 -0.3767  1.1363
  596SOL     OW 1786   0.022   1.655   0.941 -0.1834  0.1059  0.1135
  596SOL    HW1 1787   0.005   1.578   1.010 -0.1457 -2.0092 -1.3221
  596SOL    HW2 1788   0.117   1.660   0.915 -0.7084  0.0818 -1.5834
  597SOL     OW 1789   1.386   1.566   0.545 -0.0379 -0.6513  0.2024
  597SOL    HW1 1790   1.461   1.628   0.509  1.7924  0.0622 -1.3407
  597SOL    HW2 1791   1.305   1.577   0.477 -1.4531  1.4150  2.3107
  598SOL     OW 1792   0.352   2.757   1.852  0.5056  0.2803  0.2832
  598SOL    HW1 1793   0.365   2.851   1.815 -1.0796  1.3715 -0.0267
  598SOL    HW2 1794   0.378   2.696   1.775  0.8202  0.5827  0.1497
  599SOL     OW 1795   3.081   1.554   2.821  0.1730  0.3786 -0.8844
  599SOL    HW1 1796   3.046   1.459   2.805 -0.7356 -0.7887 -0.0074
  599SOL    HW2 1797   3.000   1.612   2.852 -4.4271  0.2510  1.8221
  600SOL     OW 1798   0.689   0.890   3.012 -0.1132  0.3242  0.0664
  600SOL    HW1 1799   0.712   0.790   3.015 -0.3365 -3.5995  0.1838
  600SOL    HW2 1800   0.623   0.905   2.932  1.3047  1.0662 -1.3364
  601SOL     OW 1801   0.730   0.703   1.052  0.2925  0.1498  0.5824
  601SOL    HW1 1802   0.726   0.682   0.954  0.2421  0.2595 -2.6392
  601SOL    HW2 1803   0.672   0.784   1.077  1.4116  2.8499  0.3877
  602SOL     OW 1804   1.149   2.463   0.341 -0.2226 -0.1527 -0.0739
  602SOL    HW1 1805   1.114   2.534   0.403  2.3241 -0.7108  1.3126
  602SOL    HW2 1806   1.199   2.400   0.409  2.5346 -0.4758  1.8759
  603SOL     OW 1807   1.511   2.353   1.982 -0.3328  0.5919  0.0572
  603SOL    HW1 1808   1.510   2.455   1.969  0.1808  0.1627  0.9592
  603SOL    HW2 1809   1.452   2.312   1.908 -2.6519  0.5553  1.4584
  604SOL     OW 1810   0.623   0.473   2.742  0.3640  0.5009  0.4367
  604SOL    HW1 1811   0.574   0.486   2.826 -0.4238  1.0759 -1.6706
  604SOL    HW2 1812   0.652   0.374   2.739 -1.8599  0.3453 -1.3880
  605SOL     OW 1813   2.482   1.154   1.526  0.1294 -0.6514 -0.3184
  605SOL    HW1 1814   2.387   1.137   1.515  0.7827  0.1019 -1.8064
  605SOL    HW2 1815   2.512   1.137   1.625 -0.8194 -1.7049  0.3574
  606SOL     OW 1816   0.878   1.852   2.589 -0.5509 -0.0943 -0.2366
  606SOL    HW1 1817   0.840   1.917   2.521 -0.1017  0.7171 -0.7081
  606SOL    HW2 1818   0.909   1.769   2.538  2.0848  1.7374 -0.4509
  607SOL     OW 1819   0.729   0.080   0.646 -0.1548  0.1852  0.4046
  607SOL    HW1 1820   0.723   0.042   0.552 -1.6872  0.1194 -2.9120
  607SOL    HW2 1821   0.800   0.037   0.707 -1.0127  2.1504  0.2228
  608SOL     OW 1822   2.273   2.026   2.021  0.2529  0.5147 -0.4425
  608SOL    HW1 1823   2.354   1.972   2.009  1.3359 -0.8777  2.5822
  608SOL    HW2 1824   2.186   1.968   2.008  0.1532 -0.1601 -1.5025
  609SOL     OW 1825   2.833   0.409   0.687  0.3106 -0.7453  0.4155
  609SOL    HW1 1826   2.794   0.318   0.716 -1.1337 -0.0888  0.5744
  609SOL    HW2 1827   2.764   0.455   0.623 -3.1005 -1.9868 -2.8300
  610SOL     OW 1828   0.239   2.480   1.139 -0.4542 -0.7477 -0.4626
  610SOL    HW1 1829   0.224   2.459   1.239  0.0588  2.6730  2.2124
  610SOL    HW2 1830   0.334   2.515   1.122  0.7896 -3.5385 -0.7862
  611SOL     OW 1831   1.351   1.493   0.082  0.2760  0.6112  0.2928
  611SOL    HW1 1832   1.419   1.469   0.007 -0.2121  0.8832 -0.2507
  611SOL    HW2 1833   1.392   1.566   0.138  1.3467 -1.7981 -1.5093
  612SOL     OW 1834   0.528   2.773   2.064 -0.1078  0.1373 -0.0093
  612SOL    HW1 1835   0.518   2.683   2.118 -1.9778  0.2286 -0.9416
  612SOL    HW2 1836   0.468   2.765   1.979 -2.0474  1.3973 -2.2408
  613SOL     OW 1837   0.472   2.788   0.824 -0.6180  0.5309 -0.2101
  613SOL    HW1 1838   0.515   2.747   0.743 -2.8849 -0.2306  3.5319
  613SOL    HW2 1839   0.530   2.758   0.904  3.1358 -2.9297 -0.7696
  614SOL     OW 1840   2.249   0.281   2.011 -0.7020 -1.0006  0.3436
  614SOL    HW1 1841   2.182   0.246   2.076 -0.7721 -2.3751  1.1982
  614SOL    HW2 1842   2.276   0.206   1.948 -1.8467 -0.8812  0.8550
  615SOL     OW 1843   1.590   1.144   0.230  0.1255 -0.2863 -0.6347
  615SOL    HW1 1844   1.507   1.201   0.219 -2.6030  1.4448 -0.0155
  615SOL    HW2 1845   1.654   1.194   0.293 -1.4661  1.4139  0.9014
  616SOL     OW 1846   1.682   1.351   0.376 -0.1932 -0.5282  0.4306
  616SOL    HW1 1847   1.669   1.437   0.320 -0.8438  4.2406 -0.8819
  616SOL    HW2 1848   1.738   1.374   0.459 -0.4730  1.0316 -0.1298
  617SOL     OW 1849   1.342   1.061   2.505  0.0711 -0.3331 -0.1365
  617SOL    HW1 1850   1.288   0.973   2.511  1.6429 -1.6044  0.9125
  617SOL    HW2 1851   1.426   1.055   2.567  0.7384 -0.9632 -1.4261
  618SOL     OW 1852   0.652   3.006   2.034  0.2864  0.2101  0.2452
  618SOL    HW1 1853   0.608   2.915   2.030  1.9542  1.5121 -0.4543
  618SOL    HW2 1854   0.588   3.067   2.085  1.8415 -1.5788 -2.2854
  619SOL     OW 1855   2.814   1.722   1.549  0.0454 -0.8316 -0.3462
  619SOL    HW1 1856   2.861   1.671   1.478  1.7452  0.0163 -0.2367
  619SOL    HW2 1857   2.715   1.720   1.532  0.6300  0.1622 -0.8314
  620SOL     OW 1858   2.699   0.547   2.750 -0.2921 -0.1114  0.0686
  620SOL    HW1 1859   2.659   0.632   2.714 -1.6628 -0.4248  0.1258
  620SOL    HW2 1860   2.735   0.490   2.675 -3.1630 -1.3344  1.4253
  621SOL     OW 1861   2.253   2.017   2.322  0.5213  0.2494  0.0821
  621SOL    HW1 1862   2.284   2.010   2.224  0.6004  1.3404 -0.1719
  621SOL    HW2 1863   2.200   1.931   2.351  0.8906 -2.1967  1.1111
  622SOL     OW 1864   0.854   0.712   2.408  0.0168 -0.8921  0.3144
  622SOL    HW1 1865   0.830   0.635   2.345 -2.8898 -1.0501  0.6519
  622SOL    HW2 1866   0.938   0.761   2.376  0.0729 -0.2128  0.3822
  623SOL     OW 1867   0.676   1.028   2.319  0.0523  0.5355  0.2250
  623SOL    HW1 1868   0.676   1.055   2.416  0.3719  0.1971  2.3043
  623SOL    HW2 1869   0.614   0.949   2.303  1.6358  1.2403  0.5083
  624SOL     OW 1870   2.902   0.556   0.268  0.2931 -0.0072 -0.3506
  624SOL    HW1 1871   2.924   0.465   0.227 -1.4899 -0.0029 -1.8376
  624SOL    HW2 1872   2.981   0.596   0.323  1.6048  0.3870  2.2067
  625SOL     OW 1873   0.731   2.030   1.071 -0.0907 -0.4277  0.8115
  625SOL    HW1 1874   0.645   2.010   1.021  2.6300 -1.7654 -1.8967
  625SOL    HW2 1875   0.719   1.999   1.166  1.2703  0.6297 -2.4729
  626SOL     OW 1876   2.037   0.593   2.612 -0.0144  0.1301 -0.0016
  626SOL    HW1 1877   2.107   0.572   2.680  1.5621  3.1366 -2.6002
  626SOL    HW2 1878   1.977   0.670   2.640  1.9181 -1.6256  0.4554
  627SOL     OW 1879   1.561   2.729   2.916  0.1085  0.1786  0.2445
  627SOL    HW1 1880   1.461   2.708   2.912  0.7886 -0.8894 -0.0889
  627SOL    HW2 1881   1.613   2.680   2.849 -3.4576  4.0287  0.1847
  628SOL     OW 1882   2.568   2.838   2.391  0.5159  0.4761 -0.1234
  628SOL    HW1 1883   2.571   2.870   2.295 -1.1885 -1.0782  0.3455
  628SOL    HW2 1884   2.589   2.919   2.451  0.1140 -1.9825 -1.0332
  629SOL     OW 1885   0.911   0.097   2.349  0.1292 -0.1959 -0.4119
  629SOL    HW1 1886   0.912   0.133   2.253 -1.3112  1.7580  1.7776
  629SOL    HW2 1887   1.003   0.051   2.370  0.1102 -1.6484 -1.0934
  630SOL     OW 1888   0.756   0.279   2.474 -0.0024 -0.1598  0.2822
  630SOL    HW1 1889   0.810   0.314   2.552 -1.2352 -1.0367  2.3484
  630SOL    HW2 1890   0.810   0.207   2.426  1.1907  0.0484  0.3564
  631SOL     OW 1891   1.803   1.513   0.611 -0.4067  0.3947 -0.1596
  631SOL    HW1 1892   1.814   1.508   0.711 -1.9936  2.4176  0.3708
  631SOL    HW2 1893   1.839   1.602   0.577  3.3435  0.4621 -1.2194
  632SOL     OW 1894   2.280   0.649   1.752  0.1671  0.3917 -0.3468
  632SOL    HW1 1895   2.218   0.633   1.674  0.3642  1.8507 -0.2514
  632SOL    HW2 1896   2.307   0.747   1.753  0.1176 -2.3256  2.2241
  633SOL     OW 1897   1.094   1.817   0.140  0.2350  0.2017  0.0666
  633SOL    HW1 1898   1.004   1.812   0.188  0.3509  1.9166  2.4074
  633SOL    HW2 1899   1.138   1.904   0.162 -0.9026 -0.7124 -0.2731
  634SOL     OW 1900   2.576   0.067   1.692 -0.3052 -0.3531 -0.1192
  634SOL    HW1 1901   2.496   0.127   1.721 -4.1923  1.2484 -0.3838
  634SOL    HW2 1902   2.656   0.122   1.675  0.1529  0.0545  1.5313
  635SOL     OW 1903   1.551   0.516   0.851  0.0573  0.5943 -0.0726
  635SOL    HW1 1904   1.508   0.596   0.892  2.5776 -2.6095  1.0360
  635SOL    HW2 1905   1.562   0.443   0.924  0.8062  1.1183  2.8217
  636SOL     OW 1906   1.038   0.991   3.068  0.8369  0.6528 -0.4671
  636SOL    HW1 1907   1.080   1.017   2.979 -1.8687  0.2396 -1.9505
  636SOL    HW2 1908   1.045   0.894   3.087 -1.2391  0.8312 -0.0598
  637SOL     OW 1909   3.025   2.182   2.850 -0.5801 -0.2749  0.4258
  637SOL    HW1 1910   3.066   2.118   2.915 -0.7969  0.9240  0.4329
  637SOL    HW2 1911   3.068   2.273   2.856  0.1415 -0.6140  0.7568
  638SOL     OW 1912   1.628   2.289   2.704  0.3835  0.4712  0.4425
  638SOL    HW1 1913   1.556   2.356   2.667  0.7543 -0.6910 -1.2315
  638SOL    HW2 1914   1.602   2.235   2.785  0.1508 -0.1629 -1.5611
  639SOL     OW 1915   1.555   1.748   0.750  0.0472 -0.1429  0.1443
  639SOL    HW1 1916   1.498   1.818   0.792  1.2209  0.6784 -2.0026
  639SOL    HW2 1917   1.545   1.743   0.643 -1.3760  0.2135 -4.5629
  640SOL     OW 1918   1.978   2.949   0.529 -0.1158 -0.1563  0.0168
  640SOL    HW1 1919   2.055   2.907   0.470  0.7760 -0.2442  2.8122
  640SOL    HW2 1920   1.965   3.052   0.508 -0.3847  3.5182  0.2175
  641SOL     OW 1921   2.756   0.285   0.037 -0.3272  0.5582 -0.2791
  641SOL    HW1 1922   2.726   0.329   0.122  2.0525  1.0528  2.5369
  641SOL    HW2 1923   2.683   0.273   3.072  3.2746  1.4879  0.6148
  642SOL     OW 1924   3.034   0.834   1.296  0.1532  1.0528  0.0084
  642SOL    HW1 1925   2.951   0.885   1.270  2.2821  0.1806 -0.5581
  642SOL    HW2 1926   3.080   0.880   1.375  0.7479 -2.0378  1.2388
  643SOL     OW 1927   0.488   1.538   2.232  0.8293  0.4356  0.0259
  643SOL    HW1 1928   0.529   1.528   2.322  2.0335  0.0451  1.3494
  643SOL    HW2 1929   0.499   1.634   2.202  1.7472 -0.8655 -0.5203
  644SOL     OW 1930   2.121   2.361   0.620 -0.4670  0.3400  0.4225
  644SOL    HW1 1931   2.046   2.411   0.575  1.8061 -2.9891 -1.2066
  644SOL    HW2 1932   2.084   2.305   0.696 -0.3310  1.1599 -1.1094
  645SOL     OW 1933   2.026   2.054   1.217 -0.0780  0.1891  0.3599
  645SOL    HW1 1934   2.053   2.059   1.117  1.9700 -1.0624  0.6671
  645SOL    HW2 1935   1.925   2.041   1.220  1.2013 -0.7847 -1.0974
  646SOL     OW 1936   1.001   2.347   2.794  0.6767  0.0456 -0.3254
  646SOL    HW1 1937   0.956   2.280   2.857  2.6069 -0.0407 -0.2847
  646SOL    HW2 1938   0.980   2.448   2.818 -1.5822  2.4833  0.2410
  647SOL     OW 1939   0.948   2.764   1.783 -0.2471 -0.5999  0.8965
  647SOL    HW1 1940   1.042   2.737   1.786 -0.7953 -0.7430 -1.3010
  647SOL    HW2 1941   0.941   2.859   1.824 -0.9489  0.4390 -1.7280
  648SOL     OW 1942   1.672   0.632   1.361 -0.2929  0.2679 -0.2988
  648SOL    HW1 1943   1.655   0.575   1.444 -0.4568  0.2673 -0.3089
  648SOL    HW2 1944   1.740   0.586   1.301  3.3735 -1.2283  2.1202
  649SOL     OW 1945   1.571   2.088   0.153  0.2807 -0.3606  0.3781
  649SOL    HW1 1946   1.530   2.029   0.085 -0.1742  3.1786  1.7194
  649SOL    HW2 1947   1.590   2.036   0.236 -1.3402 -0.0872 -0.1388
  650SOL     OW 1948   2.131   1.547   1.583  0.2992 -0.5892  0.3475
  650SOL    HW1 1949   2.081   1.506   1.503  0.4111  0.2016  2.9655
  650SOL    HW2 1950   2.114   1.648   1.572  0.0774  4.1582  0.8443
  651SOL     OW 1951   1.727   2.616   0.036  0.1768 -0.7145  0.2393
  651SOL    HW1 1952   1.670   2.676   3.081  1.3171 -1.9026 -0.3230
  651SOL    HW2 1953   1.808   2.591   3.083 -0.9322 -2.0571  1.4870
  652SOL     OW 1954   0.652   1.990   0.153 -0.1112 -0.1614 -0.4322
  652SOL    HW1 1955   0.570   1.934   0.136  3.0580 -1.8518 -0.0469
  652SOL    HW2 1956   0.663   2.057   0.074  0.3501  0.9752 -1.7572
  653SOL     OW 1957   2.567   2.818   1.306  0.2213  0.1456 -0.3213
  653SOL    HW1 1958   2.553   2.721   1.285 -3.0794  1.9897 -1.7693
  653SOL    HW2 1959   2.581   2.869   1.217 -3.5433 -0.4693 -2.5961
  654SOL     OW 1960   2.743   2.989   1.841 -0.2398  0.0596 -0.7054
  654SOL    HW1 1961   2.821   3.054   1.865  1.7269  1.3746 -1.2049
  654SOL    HW2 1962   2.675   3.047   1.791  0.2721 -0.3676  0.5296
  655SOL     OW 1963   2.900   1.817   0.929  0.4121 -0.6358  0.2514
  655SOL    HW1 1964   2.986   1.761   0.929  0.7279  2.0660 -0.2464
  655SOL    HW2 1965   2.876   1.837   1.024  1.1773 -0.6970 -0.1828
  656SOL     OW 1966   2.899   0.024   2.221 -0.2671  0.3131 -0.1036
  656SOL    HW1 1967   2.838   3.051   2.216  0.9636  3.7151 -0.1716
  656SOL    HW2 1968   2.996   0.002   2.192  0.6138  0.9385  1.4387
  657SOL     OW 1969   2.682   1.461   2.942  0.3498  0.1291 -0.4351
  657SOL    HW1 1970   2.669   1.372   2.984  1.6488  3.4891  0.4395
  657SOL    HW2 1971   2.592   1.499   2.895 -1.3343  1.1887 -1.9527
  658SOL     OW 1972   2.337   1.754   0.849  0.1926  0.0861  0.4098
  658SOL    HW1 1973   2.237   1.724   0.852 -1.8487 -2.5071  0.8391
  658SOL    HW2 1974   2.376   1.746   0.759  1.1973 -1.5231 -2.5792
  659SOL     OW 1975   1.616   0.335   1.057 -0.2967 -0.2826 -0.2973
  659SOL    HW1 1976   1.694   0.387   1.097  0.9805  0.0751  0.4783
  659SOL    HW2 1977   1.553   0.309   1.133 -0.5216 -3.9496  0.5651
  660SOL     OW 1978   1.585   1.424   2.994  0.6233  0.2012  0.0840
  660SOL    HW1 1979   1.530   1.337   2.991 -1.4687 -1.8134 -0.6296
  660SOL    HW2 1980   1.549   1.499   2.937  1.1312  1.0350  0.2714
  661SOL     OW 1981   0.178   2.198   0.784 -0.5577 -0.3855 -0.6671
  661SOL    HW1 1982   0.259   2.227   0.725  0.8341  0.8364 -1.4147
  661SOL    HW2 1983   0.125   2.285   0.806 -2.4939  3.0982 -0.0108
  662SOL     OW 1984   3.058   0.562   2.554 -0.4730 -0.5274 -0.1079
  662SOL    HW1 1985   3.081   0.652   2.600  1.6920  2.0074 -0.8612
  662SOL    HW2 1986   2.994   0.571   2.474 -0.4980 -2.1812  1.3829
  663SOL     OW 1987   1.860   1.511   0.896  0.0047 -0.0948  0.6547
  663SOL    HW1 1988   1.756   1.515   0.901 -3.0267  3.4762  2.2862
  663SOL    HW2 1989   1.899   1.424   0.920  0.9246  0.5331  1.1605
  664SOL     OW 1990   0.992   0.965   1.309 -0.7042 -0.5115  0.0172
  664SOL    HW1 1991   0.983   0.891   1.377 -2.4065 -0.7713  0.6940
  664SOL    HW2 1992   1.088   0.976   1.283 -1.1274 -0.0702 -1.2649
  665SOL     OW 1993   1.473   2.599   2.604 -0.3092 -0.3588 -0.3216
  665SOL    HW1 1994   1.419   2.683   2.595  1.0954 -1.9542 -3.2507
  665SOL    HW2 1995   1.438   2.528   2.535 -1.7618 -0.2599 -0.5689
  666SOL     OW 1996   2.876   2.909   2.566  0.1973  0.7759  0.2510
  666SOL    HW1 1997   2.950   2.962   2.608  0.8257  0.3659 -3.4333
  666SOL    HW2 1998   2.793   2.966   2.546 -1.3314  2.2335 -1.0539
  667SOL     OW 1999   2.254   1.406   1.972  0.3397 -0.0356  0.4188
  667SOL    HW1 2000   2.311   1.445   1.896  1.9777  1.7052  0.0236
  667SOL    HW2 2001   2.232   1.308   1.951 -2.0627 -2.2619 -1.8280
  668SOL     OW 2002   0.332   1.302   2.831 -0.4053  0.3238  0.3659
  668SOL    HW1 2003   0.366   1.360   2.905  0.3924 -0.8047 -3.2387
  668SOL    HW2 2004   0.340   1.343   2.740 -1.9873 -0.3421  0.9076
  669SOL     OW 2005   2.054   2.311   2.526  0.0141 -0.4750 -0.1113
  669SOL    HW1 2006   2.000   2.245   2.471 -0.1205 -1.4927  0.4620
  669SOL    HW2 2007   2.150   2.275   2.528  2.9928  1.1612  0.1063
  670SOL     OW 2008   2.243   1.136   1.835 -0.6762  0.4713 -0.7738
  670SOL    HW1 2009   2.228   1.047   1.884 -1.0599  0.5543 -2.1175
  670SOL    HW2 2010   2.166   1.162   1.775 -0.1916  3.8418  1.5292
  671SOL     OW 2011   2.433   1.360   0.104  0.0442  0.1122  0.2488
  671SOL    HW1 2012   2.515   1.319   0.064  0.9460  2.9177  0.1128
  671SOL    HW2 2013   2.422   1.458   0.064  0.6885 -0.1588 -2.0882
  672SOL     OW 2014   2.705   1.091   2.089 -0.8153  0.6260 -0.4145
  672SOL    HW1 2015   2.683   1.116   1.995 -1.0250 -0.8200  0.9506
  672SOL    HW2 2016   2.658   1.149   2.159  0.9250  0.7303  0.1765
  673SOL     OW 2017   2.697   0.824   1.837  0.0618 -0.0603 -0.2790
  673SOL    HW1 2018   2.716   0.925   1.844 -0.4664 -2.2060  0.0428
  673SOL    HW2 2019   2.777   0.783   1.795  0.4175 -2.1134  0.7695
  674SOL     OW 2020   2.138   1.845   1.579 -0.0555  0.1068  0.0413
  674SOL    HW1 2021   2.042   1.870   1.590  3.2065  0.0744 -0.8986
  674SOL    HW2 2022   2.183   1.894   1.497  1.9105  1.0022 -3.3881
  675SOL     OW 2023   0.479   0.641   0.886 -0.0954  0.2814 -0.0749
  675SOL    HW1 2024   0.409   0.667   0.952  0.1958  1.3525  1.7278
  675SOL    HW2 2025   0.433   0.589   0.811  0.0184 -0.0654 -1.2784
  676SOL     OW 2026   1.725   1.287   1.138 -0.2924 -0.8072 -0.1945
  676SOL    HW1 2027   1.622   1.303   1.140 -1.8077  0.8725  0.6489
  676SOL    HW2 2028   1.762   1.255   1.227  0.4311 -0.2478  1.3000
  677SOL     OW 2029   2.402   1.439   2.212  0.0014  0.0134 -0.0664
  677SOL    HW1 2030   2.362   1.432   2.122  2.7512 -2.4684  2.0561
  677SOL    HW2 2031   2.407   1.534   2.240 -0.7767 -1.4286  0.7681
  678SOL     OW 2032   0.221   1.508   0.709 -0.0294  0.2673  0.6370
  678SOL    HW1 2033   0.260   1.451   0.632  1.5922 -1.8389  0.7210
  678SOL    HW2 2034   0.115   1.495   0.707  0.9428 -1.9981  1.1430
  679SOL     OW 2035   2.616   2.619   0.468 -0.1444 -0.4690 -0.2458
  679SOL    HW1 2036   2.615   2.710   0.420 -0.3497  1.0267  0.1564
  679SOL    HW2 2037   2.707   2.574   0.470  0.4163  0.0886  0.5717
  680SOL     OW 2038   2.880   2.279   1.543 -0.3418 -0.2580  0.0405
  680SOL    HW1 2039   2.792   2.270   1.494  2.4490  2.5702 -1.4371
  680SOL    HW2 2040   2.884   2.223   1.630 -1.9534 -2.9973  3.3955
  681SOL     OW 2041   0.647   1.375   1.228 -0.0328 -0.3376 -0.1794
  681SOL    HW1 2042   0.697   1.361   1.141  1.1514  0.5132  1.7975
  681SOL    HW2 2043   0.547   1.370   1.210 -2.4516 -0.4775  0.9079
  682SOL     OW 2044   1.541   2.431   0.836 -0.0188 -0.4693  0.0224
  682SOL    HW1 2045   1.524   2.454   0.936  1.6617  0.7497  2.0733
  682SOL    HW2 2046   1.590   2.341   0.838 -1.0263  1.7991  0.9498
  683SOL     OW 2047   2.435   1.443   0.786 -0.0773  0.2645 -0.0072
  683SOL    HW1 2048   2.504   1.487   0.842 -0.0817 -3.6743 -1.4033
  683SOL    HW2 2049   2.455   1.450   0.683  0.0829  2.6223 -3.8866
  684SOL     OW 2050   0.843   2.137   2.050 -0.1014 -0.2643  0.1978
  684SOL    HW1 2051   0.934   2.098   2.036 -1.0306  2.1944 -0.4698
  684SOL    HW2 2052   0.806   2.179   1.963  0.5009  1.7034  0.3245
  685SOL     OW 2053   2.122   1.432   0.240  0.3964 -0.0143 -0.5685
  685SOL    HW1 2054   2.191   1.382   0.186 -1.1051 -0.6991 -1.3149
  685SOL    HW2 2055   2.024   1.432   0.201 -1.6319  0.7614  0.8633
  686SOL     OW 2056   0.341   0.485   0.681 -0.4262 -1.0189 -0.4292
  686SOL    HW1 2057   0.319   0.394   0.721 -0.4059  2.2569  0.1663
  686SOL    HW2 2058   0.395   0.481   0.596  2.5226 -2.6628 -2.6802
  687SOL     OW 2059   1.327   2.569   2.993  0.3763  0.0344  0.7733
  687SOL    HW1 2060   1.293   2.604   3.083 -0.3072 -0.7586  1.2189
  687SOL    HW2 2061   1.380   2.485   2.994  0.1012  2.1792  0.4388
  688SOL     OW 2062   1.997   1.932   1.927  0.2222 -0.0256 -0.6599
  688SOL    HW1 2063   1.986   1.831   1.930  1.3921 -1.7827 -2.6121
  688SOL    HW2 2064   1.967   1.964   1.833  0.0327 -1.3876 -0.2864
  689SOL     OW 2065   2.365   0.871   2.086 -0.3269  0.0930 -0.0761
  689SOL    HW1 2066   2.427   0.800   2.054 -0.9382  3.4692 -1.8185
  689SOL    HW2 2067   2.406   0.920   2.169  0.1636 -1.1617  0.3045
  690SOL     OW 2068   2.087   0.880   1.378  0.6454 -0.6202  0.3140
  690SOL    HW1 2069   2.013   0.917   1.315 -1.5063  1.6314 -1.3824
  690SOL    HW2 2070   2.042   0.849   1.467  0.8692 -0.0088  2.9569
  691SOL     OW 2071   1.171   1.928   1.442 -0.5697  0.5580  0.4543
  691SOL    HW1 2072   1.086   1.876   1.416 -0.6398 -2.2455 -3.3188
  691SOL    HW2 2073   1.180   2.010   1.383  0.4753 -1.5183  2.9996
  692SOL     OW 2074   1.766   0.274   1.629  0.0830 -0.0407  0.1899
  692SOL    HW1 2075   1.693   0.342   1.618 -2.7568 -1.3385  1.4248
  692SOL    HW2 2076   1.849   0.285   1.572  1.0931 -0.3629  1.7859
  693SOL     OW 2077   0.606   1.247   2.843 -0.2684  0.6158 -0.0658
  693SOL    HW1 2078   0.604   1.207   2.937  1.9197 -1.4835  0.4482
  693SOL    HW2 2079   0.515   1.284   2.812 -0.2809  2.0099 -1.5829
  694SOL     OW 2080   2.137   2.734   1.098  0.0497 -0.1115 -0.9198
  694SOL    HW1 2081   2.083   2.690   1.027 -0.4144  0.7645  1.6461
  694SOL    HW2 2082   2.177   2.671   1.172  0.4405  2.9460  1.6616
  695SOL     OW 2083   1.487   1.318   2.120 -0.3478 -0.0457 -0.8205
  695SOL    HW1 2084   1.485   1.347   2.023 -0.9933  0.2049  0.9834
  695SOL    HW2 2085   1.442   1.395   2.175 -2.5981  0.1697 -0.7497
  696SOL     OW 2086   1.825   0.462   1.223  0.1770 -0.2612 -0.3702
  696SOL    HW1 2087   1.842   0.363   1.234  0.6418  3.9647  0.2703
  696SOL    HW2 2088   1.907   0.521   1.211 -3.7412  1.0634 -1.5663
  697SOL     OW 2089   1.440   0.270   1.273  0.0490  0.2018  0.2602
  697SOL    HW1 2090   1.374   0.193   1.251  1.6855 -0.2881  1.1065
  697SOL    HW2 2091   1.486   0.254   1.363  0.8377  0.2509  0.5532
  698SOL     OW 2092   1.714   1.172   2.106  0.7708  0.2522  0.0387
  698SOL    HW1 2093   1.792   1.226   2.062  0.5075 -0.2669 -0.4694
  698SOL    HW2 2094   1.626   1.223   2.117  1.4776  0.6364 -1.8168
  699SOL     OW 2095   1.486   1.116   1.342 -0.6017  0.4228  0.0100
  699SOL    HW1 2096   1.427   1.173   1.289  0.9811 -0.3659 -1.2419
  699SOL    HW2 2097   1.452   1.021   1.349  1.3720  1.0363 -1.5234
  700SOL     OW 2098   1.600   0.041   0.364 -0.3649  0.1114 -0.1007
  700SOL    HW1 2099   1.632   0.128   0.321 -0.1635  0.4386  0.3288
  700SOL    HW2 2100   1.505   0.026   0.337 -0.4831  0.6733  1.3684
  701SOL     OW 2101   0.366   3.015   1.723  0.1613 -0.6268  0.2628
  701SOL    HW1 2102   0.432   3.088   1.734 -4.0425 -0.8006  2.5322
  701SOL    HW2 2103   0.350   3.001   1.624 -0.9298  1.8214 -0.6655
  702SOL     OW 2104   1.272   2.682   0.118  0.4770 -0.7024 -0.1391
  702SOL    HW1 2105   1.346   2.650   0.183  1.3394 -0.9111 -0.6213
  702SOL    HW2 2106   1.312   2.771   0.087 -1.3649 -1.7541  2.7064
  703SOL     OW 2107   2.410   0.225   2.258 -0.3126 -0.0124 -0.5278
  703SOL    HW1 2108   2.442   0.284   2.337 -0.5785  3.3733  0.9747
  703SOL    HW2 2109   2.390   0.287   2.179  0.0010  3.5170 -3.0776
  704SOL     OW 2110   1.223   2.269   1.029  0.1672 -0.2561 -0.2838
  704SOL    HW1 2111   1.319   2.240   1.043  2.9144 -0.8764  1.4838
  704SOL    HW2 2112   1.197   2.347   1.087 -0.2452 -1.1756  0.4255
  705SOL     OW 2113   3.011   1.242   2.117 -0.0942 -0.0915 -0.3437
  705SOL    HW1 2114   2.923   1.199   2.152 -1.9992 -0.7617  0.9474
  705SOL    HW2 2115   3.001   1.282   2.024 -0.7702  0.7928 -1.4115
  706SOL     OW 2116   1.615   0.019   0.621  0.0375 -0.2603  0.0761
  706SOL    HW1 2117   1.517   0.039   0.638  0.8398 -0.3009 -1.2128
  706SOL    HW2 2118   1.632   0.017   0.515 -1.0861 -2.2453 -2.9328
  707SOL     OW 2119   1.193   2.160   2.268  0.1210 -0.0696  0.6623
  707SOL    HW1 2120   1.166   2.186   2.364  3.1823 -1.9455 -2.2965
  707SOL    HW2 2121   1.288   2.128   2.258 -2.3431 -1.3015  0.1711
  708SOL     OW 2122   3.041   2.063   1.337 -0.2718 -0.2853 -0.0120
  708SOL    HW1 2123   3.050   1.995   1.414 -0.6764  2.2036  4.4842
  708SOL    HW2 2124   3.026   2.157   1.369 -0.6329 -1.2691 -2.4679
  709SOL     OW 2125   1.751   0.481   1.974 -0.2288  0.1024  0.2380
  709SOL    HW1 2126   1.844   0.468   1.933  0.3330  2.6468  2.7284
  709SOL    HW2 2127   1.757   0.504   2.072  0.4050 -1.1558 -1.2928
  710SOL     OW 2128   2.877   0.307   1.390  0.0884 -0.7926 -0.4872
  710SOL    HW1 2129   2.819   0.236   1.346 -1.9685 -0.0437 -1.4347
  710SOL    HW2 2130   2.860   0.397   1.352 -2.3596  0.1998 -3.5682
  711SOL     OW 2131   0.133   2.454   0.890 -0.5318  0.3555 -0.3459
  711SOL    HW1 2132   0.187   2.460   0.976  0.9560  1.9895  0.0343
  711SOL    HW2 2133   0.046   2.507   0.893 -3.6749 -1.6592  1.0588
  712SOL     OW 2134   0.369   2.047   2.502  0.1048  0.4694 -0.1563
  712SOL    HW1 2135   0.409   1.960   2.466 -2.6829  2.7048 -2.7693
  712SOL    HW2 2136   0.314   2.088   2.427  0.3998  0.3370  1.2663
  713SOL     OW 2137   1.505   0.630   0.209  0.4311  0.3901 -0.5852
  713SOL    HW1 2138   1.464   0.720   0.238  1.4338 -2.6899  0.0922
  713SOL    HW2 2139   1.591   0.643   0.158 -0.7105  1.4519 -0.2827
  714SOL     OW 2140   1.439   1.727   0.212 -0.5504  0.0067  0.3956
  714SOL    HW1 2141   1.443   1.796   0.137 -0.1950  2.1609 -0.0887
  714SOL    HW2 2142   1.369   1.742   0.289 -1.8317  0.0872  1.7043
  715SOL     OW 2143   2.765   0.013   0.440 -0.2227  0.1474 -0.0122
  715SOL    HW1 2144   2.700   0.056   0.499 -0.4430 -0.4685 -1.2776
  715SOL    HW2 2145   2.786   3.024   0.472 -0.6482  0.6619 -1.5400
  716SOL     OW 2146   0.369   0.276   2.244  0.1548  0.2818  0.3829
  716SOL    HW1 2147   0.402   0.262   2.341 -0.4422 -1.7029  0.3329
  716SOL    HW2 2148   0.266   0.264   2.249 -0.4329  1.3098 -0.1259
  717SOL     OW 2149   0.070   0.203   2.552  0.4232  0.6311  0.3768
  717SOL    HW1 2150   0.102   0.106   2.545 -0.7304  0.9476 -0.5986
  717SOL    HW2 2151   0.034   0.216   2.650 -0.9414  0.8646 -1.0539
  718SOL     OW 2152   0.904   0.743   0.502  0.4176 -0.5313 -0.2825
  718SOL    HW1 2153   0.829   0.682   0.523  1.0303  0.9493 -3.0091
  718SOL    HW2 2154   0.989   0.692   0.480 -0.1826  1.8976 -1.3092
  719SOL     OW 2155   2.759   2.096   2.840  0.0472 -0.1949  0.1145
  719SOL    HW1 2156   2.737   2.009   2.790  0.9339 -3.1045 -2.6893
  719SOL    HW2 2157   2.857   2.126   2.828  1.8373  3.2595 -2.3348
  720SOL     OW 2158   1.678   0.864   1.244  0.6973  0.0902 -0.0414
  720SOL    HW1 2159   1.589   0.912   1.238  1.3707 -1.3895  2.9508
  720SOL    HW2 2160   1.670   0.789   1.315  0.5980 -2.0148 -0.3314
  721SOL     OW 2161   2.881   0.825   0.697  0.4241  0.2671 -1.0680
  721SOL    HW1 2162   2.798   0.792   0.645  1.0317 -0.1951 -2.7322
  721SOL    HW2 2163   2.946   0.748   0.707 -0.7713 -1.1724 -0.6735
  722SOL     OW 2164   1.437   1.875   2.517  0.2166 -0.3367  0.2623
  722SOL    HW1 2165   1.373   1.931   2.573  0.0649  0.2077  0.4769
  722SOL    HW2 2166   1.432   1.773   2.527 -3.3989  3.1015  2.9358
  723SOL     OW 2167   0.535   0.735   0.354 -0.0260 -0.0892  0.2348
  723SOL    HW1 2168   0.559   0.706   0.451 -0.5420 -0.8456  1.4191
  723SOL    HW2 2169   0.525   0.834   0.337  0.2576  1.3806 -0.3890
  724SOL     OW 2170   1.049   2.038   1.691  0.5606  0.2488  0.1037
  724SOL    HW1 2171   1.087   1.996   1.607 -1.3275 -0.3209  2.2308
  724SOL    HW2 2172   0.959   2.076   1.674 -0.7430  1.3366  1.2395
  725SOL     OW 2173   0.000   1.059   1.461  0.1917  0.1611  0.6188
  725SOL    HW1 2174   3.103   1.130   1.388 -2.1630  1.3608 -1.6701
  725SOL    HW2 2175   0.047   1.090   1.545  0.3096 -0.0582  1.3493
  726SOL     OW 2176   1.701   0.540   0.623  0.1181  0.1572 -0.4010
  726SOL    HW1 2177   1.644   0.548   0.711 -1.4005 -1.0591  0.1817
  726SOL    HW2 2178   1.655   0.494   0.542 -1.8244 -0.6752 -2.2585
  727SOL     OW 2179   1.633   0.914   2.389 -0.1921 -0.2224  0.7866
  727SOL    HW1 2180   1.571   0.981   2.339 -0.6230  1.7627 -0.7877
  727SOL    HW2 2181   1.601   0.892   2.484  3.0493  3.8669  0.2093
  728SOL     OW 2182   1.739   2.512   1.141  1.0885  0.4685  0.1909
  728SOL    HW1 2183   1.650   2.508   1.086 -1.6994 -1.7717 -0.5429
  728SOL    HW2 2184   1.747   2.600   1.190  0.8587 -2.5899  1.2249
  729SOL     OW 2185   1.401   0.568   1.306 -0.0161 -0.1899  0.7780
  729SOL    HW1 2186   1.502   0.581   1.301 -2.1684 -0.5388  1.8574
  729SOL    HW2 2187   1.380   0.502   1.379  1.3170  1.3312 -2.8547
  730SOL     OW 2188   0.825   2.162   1.637  0.0356 -0.1292 -0.1128
  730SOL    HW1 2189   0.779   2.205   1.717  0.2430 -1.4736 -2.1506
  730SOL    HW2 2190   0.772   2.165   1.549 -0.4762  0.3155 -0.1985
  731SOL     OW 2191   0.521   0.324   0.178  0.1777  0.2981 -0.1636
  731SOL    HW1 2192   0.441   0.284   0.232 -0.6855 -0.6084  0.4951
  731SOL    HW2 2193   0.541   0.271   0.099 -0.6685  1.3700  1.1456
  732SOL     OW 2194   0.772   0.614   3.052  0.0202 -0.4628 -0.0124
  732SOL    HW1 2195   0.776   0.616   0.046  1.8011 -2.9657 -1.8199
  732SOL    HW2 2196   0.684   0.580   3.018  1.8444 -0.2880  1.0149
  733SOL     OW 2197   1.399   1.828   1.568  0.6076 -0.1785 -0.8835
  733SOL    HW1 2198   1.373   1.727   1.562  3.1258  2.0663 -0.8196
  733SOL    HW2 2199   1.323   1.883   1.528 -0.0765 -0.0166 -1.2377
  734SOL     OW 2200   2.971   2.714   2.383  0.1490 -0.3238 -0.2902
  734SOL    HW1 2201   2.940   2.781   2.457  2.0064  3.8290 -1.1494
  734SOL    HW2 2202   2.907   2.715   2.303  0.1309  1.2039 -0.1298
  735SOL     OW 2203   0.918   2.677   0.964 -0.7788  0.0337 -0.5823
  735SOL    HW1 2204   0.960   2.751   0.912 -1.0750 -2.9514  1.1640
  735SOL    HW2 2205   0.956   2.585   0.943 -1.1796  0.4861  1.0598
  736SOL     OW 2206   1.471   0.770   2.585  0.1827 -0.6375 -0.1389
  736SOL    HW1 2207   1.434   0.698   2.523  0.9769  1.6625 -1.5057
  736SOL    HW2 2208   1.405   0.837   2.615 -1.6635  1.5999 -0.2157
  737SOL     OW 2209   0.028   0.673   0.387  0.8511  1.0890  0.0411
  737SOL    HW1 2210   0.055   0.703   0.477 -1.0768 -1.5547 -0.3570
  737SOL    HW2 2211   0.048   0.744   0.318 -0.1129  0.5192  0.0176
  738SOL     OW 2212   0.210   2.695   1.427 -0.5885 -0.0822 -0.3555
  738SOL    HW1 2213   0.141   2.704   1.499  1.7597  0.9892 -0.2935
  738SOL    HW2 2214   0.173   2.735   1.340 -0.8549 -1.2476 -2.0061
  739SOL     OW 2215   1.613   2.849   0.715 -0.1043 -0.3539 -0.3858
  739SOL    HW1 2216   1.565   2.834   0.807 -0.6056 -1.4491 -0.4034
  739SOL    HW2 2217   1.613   2.950   0.697 -0.9169  1.4671  0.2894
  740SOL     OW 2218   1.496   2.757   1.239  0.4261 -0.5166 -0.8316
  740SOL    HW1 2219   1.594   2.737   1.262 -0.8612 -1.6247  0.2431
  740SOL    HW2 2220   1.436   2.734   1.321  0.7457  1.2491  1.7638
  741SOL     OW 2221   1.905   0.405   0.772 -0.1048 -0.0571  0.2675
  741SOL    HW1 2222   1.842   0.451   0.707  1.3352 -1.9252 -2.1076
  741SOL    HW2 2223   1.851   0.332   0.827 -1.3361 -2.0256  0.4406
  742SOL     OW 2224   1.380   2.281   1.768 -0.4524  0.1218 -0.1322
  742SOL    HW1 2225   1.306   2.315   1.705  0.8722  1.6283 -0.0096
  742SOL    HW2 2226   1.443   2.222   1.717  0.2407  1.2842 -1.1678
  743SOL     OW 2227   2.038   0.648   2.182 -0.0135 -0.3567  0.0902
  743SOL    HW1 2228   1.970   0.709   2.134 -1.9035  0.6617 -1.3598
  743SOL    HW2 2229   2.117   0.618   2.118 -1.7228  0.8509 -2.7585
  744SOL     OW 2230   2.370   0.513   0.839 -0.1133  0.0544 -0.5161
  744SOL    HW1 2231   2.408   0.511   0.743  0.6224  0.1010  0.1637
  744SOL    HW2 2232   2.414   0.592   0.889  2.1029 -1.3517  1.1392
  745SOL     OW 2233   2.001   1.632   1.837 -0.2719 -0.0556 -0.9507
  745SOL    HW1 2234   2.050   1.596   1.758 -3.5020 -0.6359  1.2180
  745SOL    HW2 2235   2.011   1.571   1.923  1.1438  0.1790  1.5176
  746SOL     OW 2236   1.166   1.691   0.876 -0.4930  0.1347  0.1565
  746SOL    HW1 2237   1.069   1.665   0.886  2.3573 -0.1428  3.5103
  746SOL    HW2 2238   1.181   1.767   0.935  0.2242  1.1883 -0.3788
  747SOL     OW 2239   1.939   1.249   0.939 -0.1580  0.1540  0.6203
  747SOL    HW1 2240   1.878   1.263   1.020  0.2777  0.6312 -1.5142
  747SOL    HW2 2241   1.930   1.152   0.909  0.7633 -0.4057 -0.9656
  748SOL     OW 2242   0.308   2.906   0.229 -0.2897  0.2358  0.1599
  748SOL    HW1 2243   0.290   2.978   0.297  1.2554 -2.3920 -1.6290
  748SOL    HW2 2244   0.222   2.851   0.208  0.6113 -0.6023 -2.1048
  749SOL     OW 2245   0.080   0.288   2.295  0.1790  0.0691  0.3558
  749SOL    HW1 2246   0.007   0.354   2.266 -0.6538  0.4540 -0.0424
  749SOL    HW2 2247   0.064   0.258   2.389 -2.5782  4.0208 -1.3129
  750SOL     OW 2248   1.711   2.826   1.527 -0.0312 -0.8117  0.2170
  750SOL    HW1 2249   1.751   2.894   1.591  0.3985 -0.7202  1.2723
  750SOL    HW2 2250   1.674   2.753   1.588  1.6021  1.0548  0.0333
  751SOL     OW 2251   3.021   0.599   0.749 -0.2363 -0.4454 -0.0597
  751SOL    HW1 2252   2.954   0.525   0.720 -0.3395 -0.6503 -2.9611
  751SOL    HW2 2253   3.042   0.600   0.852  3.2445 -2.0307  5.3580
  752SOL     OW 2254   0.236   2.975   1.010  0.3007  0.4222 -0.0893
  752SOL    HW1 2255   0.238   3.074   0.978  1.3044 -0.5314  0.0781
  752SOL    HW2 2256   0.224   2.911   0.929 -2.1158 -1.3230 -0.4852
  753SOL     OW 2257   1.024   0.305   1.450 -0.0225  0.1053  0.5528
  753SOL    HW1 2258   1.022   0.244   1.370  0.5201  0.8018  0.6881
  753SOL    HW2 2259   1.074   0.263   1.523  0.0684  3.3423 -1.7339
  754SOL     OW 2260   0.806   2.868   2.228  0.0422  0.3874  0.0898
  754SOL    HW1 2261   0.716   2.909   2.212  2.7827  0.9222  1.4898
  754SOL    HW2 2262   0.864   2.869   2.145 -1.2528  0.4882  1.2867
  755SOL     OW 2263   2.505   1.514   0.523 -0.1275  0.5398 -0.1348
  755SOL    HW1 2264   2.573   1.551   0.458 -2.2205 -1.4190  2.0099
  755SOL    HW2 2265   2.454   1.440   0.482  1.2246 -0.8119 -1.3049
  756SOL     OW 2266   2.137   2.004   2.763  0.1620 -0.4196 -0.1898
  756SOL    HW1 2267   2.145   2.087   2.817 -0.1847 -0.8341 -1.0660
  756SOL    HW2 2268   2.220   1.996   2.704  0.8938  1.6774 -0.0586
  757SOL     OW 2269   1.835   3.085   0.942 -0.4894  0.4975 -0.5336
  757SOL    HW1 2270   1.871   0.069   0.903  4.0820 -0.4297  0.1680
  757SOL    HW2 2271   1.732   3.076   0.938  1.8209 -0.0735 -1.3819
  758SOL     OW 2272   1.300   2.494   0.754 -0.3204  0.2597  0.0020
  758SOL    HW1 2273   1.384   2.474   0.812 -0.5053 -1.0572  1.3699
  758SOL    HW2 2274   1.278   2.415   0.694  3.5215  0.0255  1.4939
  759SOL     OW 2275   2.425   0.468   1.156 -0.6877  0.4812 -0.2316
  759SOL    HW1 2276   2.421   0.561   1.196 -1.0283 -0.1390  0.7842
  759SOL    HW2 2277   2.351   0.412   1.189  3.2816  4.1086  2.4798
  760SOL     OW 2278   2.193   1.145   1.402  0.0348  0.2430 -0.1715
  760SOL    HW1 2279   2.171   1.046   1.383 -1.3551 -1.1103 -1.0809
  760SOL    HW2 2280   2.208   1.203   1.321 -0.7475 -1.3571  3.2632
  761SOL     OW 2281   0.666   0.821   0.793  0.0384  0.0077  0.2530
  761SOL    HW1 2282   0.618   0.882   0.730  1.9703 -0.7500  1.5974
  761SOL    HW2 2283   0.594   0.775   0.842  2.2209  0.7187 -0.8155
  762SOL     OW 2284   1.916   1.743   1.145  0.3209 -0.0901  0.0615
  762SOL    HW1 2285   1.990   1.718   1.215  3.1818  0.0711  0.8198
  762SOL    HW2 2286   1.851   1.813   1.182 -2.8650  2.0571  0.0100
  763SOL     OW 2287   1.075   1.451   1.692 -0.0542 -0.1613  0.6309
  763SOL    HW1 2288   0.986   1.493   1.661 -2.2635  0.2736  0.1857
  763SOL    HW2 2289   1.091   1.450   1.796 -0.2402 -1.1998  3.2870
  764SOL     OW 2290   0.141   1.771   2.200  0.7663 -0.1371  0.1327
  764SOL    HW1 2291   0.095   1.682   2.178  0.3004  0.8272 -3.0776
  764SOL    HW2 2292   0.169   1.775   2.300 -1.6711 -0.1383  1.4831
  765SOL     OW 2293   1.658   2.256   1.211 -0.0948 -0.0338 -0.0182
  765SOL    HW1 2294   1.613   2.243   1.298  1.8106  3.0161 -3.5040
  765SOL    HW2 2295   1.709   2.344   1.215 -1.9305  0.6155  0.5092
  766SOL     OW 2296   0.147   2.426   2.279  0.0539  0.3629 -0.3001
  766SOL    HW1 2297   0.149   2.496   2.352  1.1389 -0.8779 -2.0333
  766SOL    HW2 2298   0.107   2.460   2.194 -1.1728  0.1483 -0.7449
  767SOL     OW 2299   1.321   0.592   2.411  0.0165 -0.0048  0.0337
  767SOL    HW1 2300   1.268   0.510   2.441  2.0246  1.0731 -1.5972
  767SOL    HW2 2301   1.273   0.637   2.333 -3.2415  1.6778 -0.8096
  768SOL     OW 2302   1.341   2.279   2.982  0.0125 -0.3277  0.2476
  768SOL    HW1 2303   1.416   2.213   2.969  1.1458 -3.6591 -0.3656
  768SOL    HW2 2304   1.318   2.291   3.081  1.6084  2.3456 -0.7341
  769SOL     OW 2305   0.149   2.760   1.152 -0.4080  0.0322  0.1863
  769SOL    HW1 2306   0.191   2.842   1.111 -2.6360 -1.1181 -0.0622
  769SOL    HW2 2307   0.178   2.672   1.114  0.6454  3.7391  1.5775
  770SOL     OW 2308   1.550   0.566   2.962  0.5254 -0.0256  0.4398
  770SOL    HW1 2309   1.602   0.603   2.883 -0.7163 -1.3774  0.4939
  770SOL    HW2 2310   1.600   0.607   3.043 -0.9968  2.7700  0.3020
  771SOL     OW 2311   0.379   0.059   2.635 -0.1360 -0.3264  0.4268
  771SOL    HW1 2312   0.422   0.152   2.615  1.1679  4.3582 -0.3327
  771SOL    HW2 2313   0.337   0.019   2.546 -1.1036  1.7380 -0.8101
  772SOL     OW 2314   2.219   0.013   1.933 -0.3928  0.4328 -0.3039
  772SOL    HW1 2315   2.121   0.026   1.955 -0.3800  1.4972 -1.0224
  772SOL    HW2 2316   2.234   3.052   1.857  0.0539 -1.0620  1.5812
  773SOL     OW 2317   1.093   2.441   1.850  0.6144 -0.0418 -0.4197
  773SOL    HW1 2318   1.156   2.425   1.931 -1.1031 -2.1040  0.6852
  773SOL    HW2 2319   0.998   2.462   1.881  0.4837  0.1895 -3.3258
  774SOL     OW 2320   1.100   0.316   1.847  0.1836 -0.0120  0.4790
  774SOL    HW1 2321   1.167   0.389   1.862  0.7188  0.3121 -1.2593
  774SOL    HW2 2322   1.020   0.329   1.906  1.4236 -0.4650 -0.0378
  775SOL     OW 2323   2.030   2.482   0.099  0.0645 -0.3492  0.4921
  775SOL    HW1 2324   1.964   2.494   0.171  0.7620  2.8836  0.4168
  775SOL    HW2 2325   1.985   2.494   0.007 -1.7254 -1.4820  0.7830
  776SOL     OW 2326   2.131   0.491   2.393  0.6689 -0.0492  0.2910
  776SOL    HW1 2327   2.080   0.519   2.476 -2.4419 -1.2472 -2.7434
  776SOL    HW2 2328   2.107   0.554   2.313  0.7272  1.9085  0.0845
  777SOL     OW 2329   2.301   1.191   2.543 -0.4463 -0.3137 -0.1785
  777SOL    HW1 2330   2.269   1.198   2.638  0.7376  1.3553  1.1308
  777SOL    HW2 2331   2.402   1.186   2.545  0.9514  0.0158 -1.4637
  778SOL     OW 2332   2.094   0.842   2.347 -0.5961 -0.3733  0.0372
  778SOL    HW1 2333   2.017   0.908   2.369  1.1501 -2.2865 -0.0710
  778SOL    HW2 2334   2.067   0.765   2.287  1.0015  0.4240 -0.8734
  779SOL     OW 2335   3.080   0.071   2.992  0.4845  0.8964  0.1731
  779SOL    HW1 2336   0.066   0.040   2.953 -2.0802  0.7518  1.7084
  779SOL    HW2 2337   3.033   0.145   2.935 -1.2777 -1.0309  1.6353
  780SOL     OW 2338   2.465   0.511   2.867  0.4649 -0.4267 -0.0312
  780SOL    HW1 2339   2.559   0.513   2.822  0.6552  1.5284  1.2796
  780SOL    HW2 2340   2.468   0.546   2.960  0.4930 -1.0706 -3.3070
  781SOL     OW 2341   0.401   2.905   1.473  0.1353 -0.2196 -0.1168
  781SOL    HW1 2342   0.384   2.983   1.410 -0.6465  0.8274 -0.4401
  781SOL    HW2 2343   0.328   2.831   1.463  0.3294 -1.5820 -0.4240
  782SOL     OW 2344   1.888   2.469   0.542 -0.3629 -0.0265 -0.4405
  782SOL    HW1 2345   1.844   2.535   0.610  0.0509  1.7189 -0.4628
  782SOL    HW2 2346   1.875   2.492   0.442  0.1126  0.6870  1.6082
  783SOL     OW 2347   0.811   1.477   1.613 -0.2556 -0.1214  0.3687
  783SOL    HW1 2348   0.815   1.420   1.533 -0.5061  0.8734  2.9856
  783SOL    HW2 2349   0.741   1.430   1.676 -2.1496 -2.7819  0.1785
  784SOL     OW 2350   1.163   0.395   2.520  0.2353 -0.4050  0.5039
  784SOL    HW1 2351   1.224   0.317   2.522  0.2326 -1.8179  0.5544
  784SOL    HW2 2352   1.070   0.380   2.558  1.6871  1.0111  0.5531
  785SOL     OW 2353   2.589   0.319   1.001  0.1945  0.3447 -0.0905
  785SOL    HW1 2354   2.526   0.385   1.044  0.1033 -2.3241 -2.1450
  785SOL    HW2 2355   2.560   0.224   1.024  0.9305 -0.9068  2.3223
  786SOL     OW 2356   1.433   2.686   1.493 -0.2174  0.5700 -0.4624
  786SOL    HW1 2357   1.480   2.654   1.577  0.7698  0.2938 -1.0489
  786SOL    HW2 2358   1.367   2.617   1.463 -0.8767  1.1377  1.1678
  787SOL     OW 2359   1.585   0.055   1.477 -0.1130  0.2682  0.0991
  787SOL    HW1 2360   1.571   0.005   1.390 -2.6732 -1.8289 -0.5079
  787SOL    HW2 2361   1.680   0.069   1.498 -2.4014 -0.4626  0.0915
  788SOL     OW 2362   0.067   0.967   0.276 -0.0278 -0.2369 -0.1099
  788SOL    HW1 2363   0.152   1.021   0.259 -0.6422  1.0929 -1.0651
  788SOL    HW2 2364   0.006   1.002   0.348  0.0687  2.5599 -0.3359
  789SOL     OW 2365   0.610   1.837   1.703  0.0887  0.3264 -0.1903
  789SOL    HW1 2366   0.584   1.935   1.713 -1.8284  2.2543  0.6431
  789SOL    HW2 2367   0.635   1.797   1.797  2.2532 -1.4184 -0.0349
  790SOL     OW 2368   0.484   0.610   2.503 -0.4084  0.2594 -0.2255
  790SOL    HW1 2369   0.541   0.585   2.582 -2.9038  0.9219 -1.9019
  790SOL    HW2 2370   0.389   0.580   2.511 -0.6168  0.2984 -0.0448
  791SOL     OW 2371   2.153   0.812   0.692 -0.1518 -0.0257  0.2825
  791SOL    HW1 2372   2.144   0.764   0.603 -1.0461 -0.5710 -0.1386
  791SOL    HW2 2373   2.115   0.747   0.764  1.1748  1.9460 -2.1371
  792SOL     OW 2374   1.283   2.873   1.599 -0.0077  0.2318  0.3228
  792SOL    HW1 2375   1.229   2.819   1.667  1.6745  2.7837  0.6587
  792SOL    HW2 2376   1.362   2.820   1.556  0.7937 -1.1831 -3.3182
  793SOL     OW 2377   0.278   0.094   0.857  0.8214 -0.1752  0.7761
  793SOL    HW1 2378   0.319   0.185   0.879  0.9803 -1.0244 -0.9400
  793SOL    HW2 2379   0.327   0.058   0.776  0.6166  2.7653  0.7103
  794SOL     OW 2380   0.178   1.010   1.987  0.2225 -0.2329  0.4979
  794SOL    HW1 2381   0.193   1.073   2.065  1.0179 -0.7707  1.9683
  794SOL    HW2 2382   0.110   0.938   2.012 -0.4746 -0.4868  0.0238
  795SOL     OW 2383   0.657   2.431   2.623  0.0862 -0.2202 -0.4960
  795SOL    HW1 2384   0.621   2.334   2.619  0.5086  0.7107  2.3757
  795SOL    HW2 2385   0.732   2.447   2.553  1.5454  2.3588  0.1797
  796SOL     OW 2386   2.181   0.227   2.585 -0.2139  0.0970  0.2293
  796SOL    HW1 2387   2.228   0.318   2.580  0.5639 -0.0638  0.6737
  796SOL    HW2 2388   2.220   0.160   2.516 -1.0317 -0.8407 -2.8423
  797SOL     OW 2389   2.372   2.481   2.586 -0.4428 -0.9155 -0.2275
  797SOL    HW1 2390   2.352   2.401   2.526 -0.7683 -0.8226 -1.2005
  797SOL    HW2 2391   2.314   2.565   2.560  2.4560 -0.1880 -0.8766
  798SOL     OW 2392   3.014   0.456   2.119  0.2445 -0.3082 -0.0748
  798SOL    HW1 2393   3.073   0.512   2.059 -0.9286 -0.6945  0.8685
  798SOL    HW2 2394   2.970   0.382   2.067  1.5377 -1.1953 -0.6247
  799SOL     OW 2395   0.806   2.388   2.168  0.1023 -0.5876 -0.3015
  799SOL    HW1 2396   0.807   2.298   2.125  0.8034 -0.8146 -0.0911
  799SOL    HW2 2397   0.818   2.455   2.091 -0.4754 -0.2882 -2.9934
  800SOL     OW 2398   0.102   2.121   0.284 -0.3971  0.7405 -0.7581
  800SOL    HW1 2399   0.084   2.021   0.316 -1.4697 -2.3705  3.0760
  800SOL    HW2 2400   0.204   2.141   0.282 -0.6039  1.2860  1.2317
  801SOL     OW 2401   1.593   1.516   0.875 -0.1670  0.1106  0.2034
  801SOL    HW1 2402   1.526   1.442   0.892 -0.8856 -2.2402 -2.5528
  801SOL    HW2 2403   1.561   1.608   0.839  0.5940 -0.7610 -0.3241
  802SOL     OW 2404   0.072   0.396   0.351 -0.1116 -0.3456  0.0983
  802SOL    HW1 2405   0.083   0.488   0.393 -0.8302  0.6461  1.8303
  802SOL    HW2 2406   0.020   0.341   0.419  0.4763  4.8960 -0.2702
  803SOL     OW 2407   1.318   1.413   1.866 -0.1293 -0.5447  0.5453
  803SOL    HW1 2408   1.347   1.514   1.850  2.3159 -0.7174  0.7172
  803SOL    HW2 2409   1.324   1.360   1.777 -3.0842  1.0389 -0.0239
  804SOL     OW 2410   1.819   1.808   0.865  0.3052 -0.1870  0.3836
  804SOL    HW1 2411   1.837   1.784   0.963 -0.7643  1.4949  0.2123
  804SOL    HW2 2412   1.734   1.770   0.822 -1.8317  1.0227 -0.7243
  805SOL     OW 2413   2.921   1.879   2.674  0.1895 -0.6547  0.2649
  805SOL    HW1 2414   2.998   1.914   2.614 -0.2679 -2.2058 -1.1086
  805SOL    HW2 2415   2.830   1.885   2.628  3.6574 -2.0702  0.6602
  806SOL     OW 2416   0.436   2.545   0.254  0.1818  0.0242 -0.2304
  806SOL    HW1 2417   0.528   2.511   0.243 -2.3922  0.6870  1.6865
  806SOL    HW2 2418   0.407   2.583   0.345  0.1518 -0.9705 -0.4798
  807SOL     OW 2419   2.288   1.595   2.720 -0.7128 -0.3998  0.3817
  807SOL    HW1 2420   2.386   1.631   2.725  0.7586  1.3694  2.3860
  807SOL    HW2 2421   2.237   1.652   2.784  1.6854 -1.2109 -1.3243
  808SOL     OW 2422   1.445   2.165   1.077  0.2557  0.1210 -0.0045
  808SOL    HW1 2423   1.445   2.064   1.093  0.4018 -0.8200  0.4824
  808SOL    HW2 2424   1.521   2.210   1.125  3.5717  0.8420 -0.3489
  809SOL     OW 2425   0.162   0.533   0.111 -0.4696  0.0425  1.1168
  809SOL    HW1 2426   0.120   0.486   0.189 -0.2442 -0.3917 -1.4318
  809SOL    HW2 2427   0.267   0.537   0.115 -2.5659 -0.1944  0.0288
  810SOL     OW 2428   1.091   1.459   3.092 -0.2909 -0.2020 -0.5114
  810SOL    HW1 2429   1.047   1.378   0.031  0.4912 -1.9909 -1.8244
  810SOL    HW2 2430   1.181   1.483   0.034 -2.1162 -0.8191  1.4544
  811SOL     OW 2431   2.106   2.223   0.885  0.3295 -0.2862 -0.0731
  811SOL    HW1 2432   2.137   2.126   0.903  1.6960 -0.3287 -0.5185
  811SOL    HW2 2433   2.019   2.236   0.937 -1.5698  0.8806  0.1077
  812SOL     OW 2434   1.310   0.036   1.173  0.2273 -0.4390 -0.2600
  812SOL    HW1 2435   1.396   3.092   1.208  3.7957 -0.5272  1.4464
  812SOL    HW2 2436   1.234   3.070   1.193 -0.8334  2.1583  2.4987
  813SOL     OW 2437   0.893   2.999   1.930  0.1080 -0.2872 -0.0957
  813SOL    HW1 2438   0.888   3.056   1.843  0.2780 -0.0305  0.8395
  813SOL    HW2 2439   0.800   2.993   1.969  1.6961 -0.1095 -1.0190
  814SOL     OW 2440   1.166   2.399   2.101  0.2076  0.1284  0.5028
  814SOL    HW1 2441   1.174   2.307   2.144  3.1497 -1.6693 -1.0711
  814SOL    HW2 2442   1.152   2.474   2.166  1.4966  0.1226 -0.9756
  815SOL     OW 2443   0.609   2.968   2.998 -0.4341 -0.3516  0.0653
  815SOL    HW1 2444   0.589   2.869   2.987 -0.7055 -0.5090  1.0942
  815SOL    HW2 2445   0.524   3.002   3.042  0.6817  1.2187  0.0203
  816SOL     OW 2446   2.212   0.640   0.173  0.0293  0.2563  0.5497
  816SOL    HW1 2447   2.179   0.543   0.170 -0.4673 -2.0802 -0.7899
  816SOL    HW2 2448   2.259   0.657   0.258  1.6425  0.8541 -0.5048
  817SOL     OW 2449   2.779   2.656   2.200  0.2512  0.2198 -0.3187
  817SOL    HW1 2450   2.731   2.700   2.118 -0.6057 -0.2425 -1.7776
  817SOL    HW2 2451   2.726   2.679   2.283  1.1000  1.5253 -0.3576
  818SOL     OW 2452   0.827   1.226   0.379  0.0580 -0.4696 -0.3423
  818SOL    HW1 2453   0.862   1.131   0.367  1.8733 -0.0634  1.6501
  818SOL    HW2 2454   0.724   1.230   0.375 -2.6396  2.7609 -0.2139
  819SOL     OW 2455   1.787   1.168   2.707  0.2814 -0.0445 -0.1175
  819SOL    HW1 2456   1.803   1.239   2.629  1.6364  2.0617 -1.3920
  819SOL    HW2 2457   1.856   1.185   2.781  0.1030  0.7693  2.6885
  820SOL     OW 2458   0.444   1.443   3.043 -0.4106  0.2310 -0.2921
  820SOL    HW1 2459   0.424   1.502   0.019  0.1578 -0.9508 -0.2905
  820SOL    HW2 2460   0.463   1.347   3.072 -0.2875  0.9576 -1.0228
  821SOL     OW 2461   0.391   3.009   0.667  0.4713 -0.0720  0.0845
  821SOL    HW1 2462   0.458   3.023   0.596 -0.4881 -1.9256  2.8223
  821SOL    HW2 2463   0.411   2.915   0.707  0.4173 -1.1216  0.7654
  822SOL     OW 2464   2.547   2.682   2.993  0.0612 -0.3107  0.3052
  822SOL    HW1 2465   2.533   2.606   2.929  1.6220 -1.0914  1.7343
  822SOL    HW2 2466   2.625   2.669   3.062  0.3466  0.7327  2.3642
  823SOL     OW 2467   1.476   0.052   2.843 -0.3358  0.7997  0.1418
  823SOL    HW1 2468   1.548   0.000   2.891 -0.3131 -0.2422 -1.1954
  823SOL    HW2 2469   1.516   0.144   2.819  3.9419  2.2517 -0.1032
  824SOL     OW 2470   2.926   2.610   1.797 -0.0246  0.3688  0.4057
  824SOL    HW1 2471   2.969   2.702   1.816  1.1358  0.1413  0.1913
  824SOL    HW2 2472   2.889   2.569   1.885 -0.7346 -1.6822  3.6484
  825SOL     OW 2473   3.032   2.317   2.422 -0.4953  0.3099 -0.0882
  825SOL    HW1 2474   0.008   2.361   2.374 -0.5252  0.8805 -1.4551
  825SOL    HW2 2475   3.048   2.219   2.445  0.2620 -2.4567  1.3913
  826SOL     OW 2476   1.889   0.386   0.067 -0.1317  0.4602 -0.1054
  826SOL    HW1 2477   1.992   0.393   0.064  2.8846  0.1071  2.1421
  826SOL    HW2 2478   1.856   0.305   0.016 -0.6041 -1.0410 -1.1242
  827SOL     OW 2479   2.801   1.705   1.828  0.1516 -0.2260  0.2408
  827SOL    HW1 2480   2.788   1.723   1.728 -0.3274 -1.9516 -2.3228
  827SOL    HW2 2481   2.711   1.675   1.875 -1.1369 -0.1799  0.0885
  828SOL     OW 2482   0.124   0.038   1.469 -0.3977 -0.3161 -0.0776
  828SOL    HW1 2483   0.199   0.029   1.401  1.6462 -0.2525 -1.4439
  828SOL    HW2 2484   0.034   0.008   1.432 -0.9720 -3.0147 -1.0398
  829SOL     OW 2485   0.757   2.098   2.482  0.3245 -0.4905  0.6705
  829SOL    HW1 2486   0.845   2.148   2.486 -0.7602  1.2066  1.2123
  829SOL    HW2 2487   0.686   2.129   2.549 -1.8071  0.1729  4.2314
  830SOL     OW 2488   0.548   0.825   1.442 -0.1983  0.6517  0.6363
  830SOL    HW1 2489   0.595   0.882   1.520  1.5865 -1.2005  0.4707
  830SOL    HW2 2490   0.575   0.725   1.452  2.9975 -3.1620  2.9013
  831SOL     OW 2491   2.534   1.679   2.766  0.1677 -0.4760 -0.3214
  831SOL    HW1 2492   2.596   1.713   2.696 -1.1789  0.9577  0.8081
  831SOL    HW2 2493   2.551   1.725   2.855 -1.1312 -0.2514 -3.0775
  832SOL     OW 2494   1.923   2.522   2.945  0.3550  0.2801  0.0772
  832SOL    HW1 2495   1.849   2.499   2.880  1.0070  0.8616  0.6806
  832SOL    HW2 2496   2.002   2.563   2.900  0.3641 -1.6059 -0.4123
  833SOL     OW 2497   0.761   0.276   1.997 -0.2407  0.3749 -0.5038
  833SOL    HW1 2498   0.841   0.319   2.042 -2.4644  1.6253  4.0128
  833SOL    HW2 2499   0.679   0.324   2.037  0.4439 -3.0459 -0.1259
  834SOL     OW 2500   0.002   0.275   1.540 -0.0914  0.3241 -0.1060
  834SOL    HW1 2501   0.054   0.190   1.534  2.0245 -0.9431  0.3449
  834SOL    HW2 2502   3.022   0.277   1.478  1.6775  1.4404 -0.3924
  835SOL     OW 2503   2.620   0.509   0.503  0.0821 -0.0200  0.1966
  835SOL    HW1 2504   2.526   0.487   0.520  1.7725  1.6743  2.2664
  835SOL    HW2 2505   2.636   0.601   0.541  1.0857 -1.8175 -2.1591
  836SOL     OW 2506   1.206   2.090   0.166  0.0405  0.2335 -0.3734
  836SOL    HW1 2507   1.223   2.068   0.270 -0.3081 -0.0374 -1.3485
  836SOL    HW2 2508   1.235   2.188   0.153 -0.3292  2.5363  0.1848
  837SOL     OW 2509   1.837   1.775   0.417 -0.1128 -0.4173  0.0515
  837SOL    HW1 2510   1.923   1.761   0.471 -3.2395  2.0564 -0.5357
  837SOL    HW2 2511   1.828   1.877   0.391  1.7659 -0.6892 -0.3698
  838SOL     OW 2512   1.606   0.783   2.132  0.8029  0.0096  0.1031
  838SOL    HW1 2513   1.615   0.858   2.064  2.3404  0.2385 -0.3628
  838SOL    HW2 2514   1.644   0.805   2.226  0.6969  0.8261 -0.2391
  839SOL     OW 2515   0.601   1.448   2.465 -0.2744 -0.1845  0.6260
  839SOL    HW1 2516   0.640   1.496   2.546  0.2755  2.3136  0.0481
  839SOL    HW2 2517   0.676   1.423   2.399 -0.4755  0.5283 -0.1685
  840SOL     OW 2518   1.020   1.237   0.120  0.5392 -0.1439  0.5618
  840SOL    HW1 2519   0.934   1.255   0.171  0.0713  1.8282  1.5119
  840SOL    HW2 2520   1.005   1.170   0.041 -0.8821 -2.3493  0.3884
  841SOL     OW 2521   1.692   2.207   0.557 -0.3559 -0.2758  0.4049
  841SOL    HW1 2522   1.750   2.160   0.627  0.9154 -2.0292  0.7974
  841SOL    HW2 2523   1.729   2.298   0.529 -2.7653 -1.4378  0.9682
  842SOL     OW 2524   0.461   0.591   2.938  0.4160  0.1127 -0.2323
  842SOL    HW1 2525   0.365   0.588   2.894 -4.8710 -0.6160 -3.9513
  842SOL    HW2 2526   0.452   0.595   3.038 -0.4697 -2.9891  0.7720
  843SOL     OW 2527   0.643   0.323   0.762 -0.0729  0.4280  0.2853
  843SOL    HW1 2528   0.722   0.357   0.814  1.7075 -0.8360 -1.4577
  843SOL    HW2 2529   0.664   0.246   0.695 -1.7575 -1.3047  0.6324
  844SOL     OW 2530   1.897   2.981   2.150 -0.0783  0.2287 -0.4645
  844SOL    HW1 2531   1.964   2.907   2.144  0.7373  0.0103 -2.2736
  844SOL    HW2 2532   1.922   3.061   2.092  0.0056 -0.2400 -2.7470
  845SOL     OW 2533   0.262   2.509   1.724 -0.3915 -0.0344  0.4196
  845SOL    HW1 2534   0.252   2.468   1.817  1.9443  1.9661 -1.2560
  845SOL    HW2 2535   0.173   2.532   1.679  1.0944  1.3126  0.1235
  846SOL     OW 2536   1.755   1.337   2.475  0.2296 -0.2995  0.2189
  846SOL    HW1 2537   1.734   1.423   2.428 -1.2955 -0.6815 -1.7839
  846SOL    HW2 2538   1.825   1.292   2.419 -0.3801  1.8944  2.2195
  847SOL     OW 2539   0.347   0.785   2.170  0.2098 -0.7813  0.6612
  847SOL    HW1 2540   0.351   0.811   2.070 -0.9402  2.6670  0.6859
  847SOL    HW2 2541   0.441   0.778   2.211 -1.0541 -0.6222 -0.5688
  848SOL     OW 2542   2.558   2.939   2.892  0.2116 -0.1182  0.0948
  848SOL    HW1 2543   2.555   2.849   2.944  3.2177 -1.9699  0.1033
  848SOL    HW2 2544   2.499   2.935   2.809  0.3575 -1.5143  2.3377
  849SOL     OW 2545   0.383   2.737   0.442  0.2206 -0.3329 -0.2443
  849SOL    HW1 2546   0.340   2.796   0.371  2.0354 -3.6079  2.6641
  849SOL    HW2 2547   0.483   2.754   0.451 -0.7346  2.0675  3.0560
  850SOL     OW 2548   0.898   2.460   0.620 -0.1273  0.2293 -0.7710
  850SOL    HW1 2549   0.940   2.425   0.710  2.0256  1.2751  2.3344
  850SOL    HW2 2550   0.962   2.531   0.580  0.0782  1.3910  0.0255
  851SOL     OW 2551   1.871   0.382   2.805  0.4282 -0.1732  0.2543
  851SOL    HW1 2552   1.926   0.379   2.719  1.1179 -2.3664  1.5146
  851SOL    HW2 2553   1.918   0.439   2.873 -0.3320 -3.2158 -0.0316
  852SOL     OW 2554   1.451   0.010   2.565  0.1360  0.3441  0.0483
  852SOL    HW1 2555   1.398   3.029   2.537  1.9214 -0.7981  1.7668
  852SOL    HW2 2556   1.465   0.009   2.669  2.2912  1.4587  3.0567
  853SOL     OW 2557   2.919   2.680   0.608 -0.2871 -0.0937  0.2161
  853SOL    HW1 2558   2.896   2.592   0.568  1.1360  2.4659  0.8744
  853SOL    HW2 2559   2.963   2.741   0.543 -1.8824  0.1890  0.1445
  854SOL     OW 2560   1.770   0.564   2.496 -0.0794  0.3370  0.6013
  854SOL    HW1 2561   1.835   0.493   2.514  0.8015  3.0129 -0.9220
  854SOL    HW2 2562   1.820   0.653   2.505 -0.5581  2.1328 -0.9782
  855SOL     OW 2563   0.199   2.552   0.502 -0.0826 -0.2068  0.1707
  855SOL    HW1 2564   0.164   2.577   0.594  0.7068  0.1943  0.6144
  855SOL    HW2 2565   0.268   2.616   0.465 -0.7756 -1.8130 -1.0162
  856SOL     OW 2566   0.241   2.830   2.591 -0.0228 -0.1592  0.2703
  856SOL    HW1 2567   0.333   2.865   2.558  1.1586 -0.5825  1.3728
  856SOL    HW2 2568   0.242   2.799   2.691  2.0859  0.4494 -0.1434
  857SOL     OW 2569   1.089   3.047   1.501 -0.0858  0.3110 -0.0732
  857SOL    HW1 2570   1.150   2.994   1.558 -0.8014  1.8436 -1.7344
  857SOL    HW2 2571   0.999   3.059   1.549 -0.5984 -0.0544 -0.1369
  858SOL     OW 2572   2.529   2.109   1.670 -0.0753 -0.0115  0.1676
  858SOL    HW1 2573   2.567   2.131   1.578 -1.4072 -0.9518 -0.9801
  858SOL    HW2 2574   2.463   2.029   1.662 -1.6442  2.4190  0.5089
  859SOL     OW 2575   1.893   2.374   1.846 -0.0424 -0.2598 -0.0668
  859SOL    HW1 2576   1.837   2.285   1.857  0.2988  0.9646 -2.0847
  859SOL    HW2 2577   1.992   2.352   1.849  1.6852  1.2142  2.4752
  860SOL     OW 2578   1.544   0.449   0.420 -0.4926 -0.5142 -0.1348
  860SOL    HW1 2579   1.512   0.527   0.365  1.6480 -1.9989  0.7911
  860SOL    HW2 2580   1.574   0.375   0.362  0.8905 -0.0741  1.9792
  861SOL     OW 2581   2.813   0.503   0.995  0.4773  0.3050 -0.1040
  861SOL    HW1 2582   2.901   0.483   0.955 -3.8295 -0.1391  0.6445
  861SOL    HW2 2583   2.738   0.435   0.993 -0.5925  1.0925  1.8006
  862SOL     OW 2584   1.150   3.066   2.352 -0.5315  0.1801 -0.0360
  862SOL    HW1 2585   1.218   0.019   2.294 -1.8672 -1.8767 -1.4445
  862SOL    HW2 2586   1.201   3.021   2.428 -1.5179 -1.2240  0.6453
  863SOL     OW 2587   0.260   0.732   1.071 -0.6768 -0.4550  0.4973
  863SOL    HW1 2588   0.291   0.673   1.148  3.9823 -0.1449 -1.6955
  863SOL    HW2 2589   0.273   0.830   1.106  0.9295  4.9552 -0.2442
  864SOL     OW 2590   2.842   0.263   1.981 -0.2194  0.2852 -0.6580
  864SOL    HW1 2591   2.895   0.197   1.930 -1.4103  3.0954  1.0275
  864SOL    HW2 2592   2.765   0.218   2.033  1.5061  0.6768 -0.5830
  865SOL     OW 2593   0.902   1.327   2.883  0.7792 -0.1947  0.2933
  865SOL    HW1 2594   0.899   1.423   2.911  2.4924 -1.0255  0.1333
  865SOL    HW2 2595   0.808   1.284   2.870  0.0997 -0.8201  2.1357
  866SOL     OW 2596   3.072   3.063   0.140 -0.1393 -0.2611  0.0981
  866SOL    HW1 2597   3.065   0.013   0.052 -1.6598 -0.5561 -2.4948
  866SOL    HW2 2598   3.095   2.965   0.123 -0.9445 -0.3651 -1.6162
  867SOL     OW 2599   2.980   3.010   2.814  0.0181 -0.0603 -0.5337
  867SOL    HW1 2600   2.993   2.912   2.825 -1.3579  1.2483  0.8891
  867SOL    HW2 2601   3.022   3.062   2.894 -2.3528  2.3030  3.7514
  868SOL     OW 2602   1.527   1.089   2.690  0.5579  0.5790  0.3347
  868SOL    HW1 2603   1.625   1.095   2.697 -2.2893 -1.1161 -0.3410
  868SOL    HW2 2604   1.481   1.052   2.773  1.7487  1.0267 -0.8754
  869SOL     OW 2605   0.366   1.776   0.617  0.2257  0.6157 -0.1188
  869SOL    HW1 2606   0.458   1.772   0.660  2.3203 -2.9262 -1.4389
  869SOL    HW2 2607   0.325   1.682   0.630  0.1164  0.8195  1.2463
  870SOL     OW 2608   2.306   1.733   0.546 -0.6126 -0.4705 -0.3557
  870SOL    HW1 2609   2.340   1.802   0.484 -2.9523 -2.1124 -1.9268
  870SOL    HW2 2610   2.369   1.653   0.551 -0.9540  1.2599 -2.5151
  871SOL     OW 2611   0.833   1.095   1.150 -0.0943 -0.0866  0.3617
  871SOL    HW1 2612   0.742   1.051   1.140  1.0265 -1.1104  2.7674
  871SOL    HW2 2613   0.893   1.039   1.205  1.2436  0.6712 -3.9580
  872SOL     OW 2614   1.322   1.681   1.837  0.2734  0.1889  0.6698
  872SOL    HW1 2615   1.357   1.717   1.924  0.4624  1.6418  4.0003
  872SOL    HW2 2616   1.315   1.751   1.763  0.4718  1.2946  0.5089
  873SOL     OW 2617   0.745   1.953   2.245 -0.2758  0.4193 -0.2771
  873SOL    HW1 2618   0.747   2.014   2.327  0.9607 -2.3394 -1.2656
  873SOL    HW2 2619   0.776   2.003   2.163  2.8989 -2.2448  0.7002
  874SOL     OW 2620   0.879   2.260   1.076  0.1984  0.1569  0.2547
  874SOL    HW1 2621   0.829   2.170   1.063  2.0055 -0.8492  2.4804
  874SOL    HW2 2622   0.882   2.295   1.172 -0.1476  1.1771  0.0580
  875SOL     OW 2623   2.716   0.185   0.810 -0.2163  0.1043  0.5203
  875SOL    HW1 2624   2.635   0.135   0.771 -1.7217 -1.2416 -1.4482
  875SOL    HW2 2625   2.683   0.250   0.884  1.0090 -0.9308  0.9925
  876SOL     OW 2626   0.752   0.647   0.212 -0.0315 -0.2079 -0.2237
  876SOL    HW1 2627   0.670   0.689   0.258 -1.9193  2.6603  2.3229
  876SOL    HW2 2628   0.839   0.677   0.253 -1.9614 -0.6758  1.6104
  877SOL     OW 2629   2.718   0.779   1.439  0.2744  0.4687  0.1045
  877SOL    HW1 2630   2.748   0.708   1.374  0.3072  0.2489  2.1156
  877SOL    HW2 2631   2.625   0.752   1.479 -3.7871 -0.3215  0.5504
  878SOL     OW 2632   2.375   2.270   0.654  0.0687 -0.3407  0.3095
  878SOL    HW1 2633   2.274   2.294   0.654  1.4259 -3.0578 -2.0648
  878SOL    HW2 2634   2.411   2.300   0.742 -2.5074 -1.7327  0.0599
  879SOL     OW 2635   2.537   1.708   1.540  0.3430  0.6526 -0.2365
  879SOL    HW1 2636   2.491   1.760   1.462 -2.6395 -0.0505  1.2981
  879SOL    HW2 2637   2.510   1.607   1.530 -0.4998  1.1385  2.1959
  880SOL     OW 2638   1.461   2.486   1.081 -0.0445  0.2337  0.1753
  880SOL    HW1 2639   1.467   2.529   1.174 -0.8324 -0.9477 -0.6729
  880SOL    HW2 2640   1.362   2.457   1.064 -0.3612 -0.0553  1.1494
  881SOL     OW 2641   0.976   2.444   0.121 -0.1167 -0.4849 -0.2481
  881SOL    HW1 2642   1.046   2.452   0.193  0.6802  0.0268 -3.3038
  881SOL    HW2 2643   0.878   2.451   0.150  1.6290 -1.1235 -2.1245
  882SOL     OW 2644   1.691   1.108   1.560 -0.0033 -0.0527 -0.7081
  882SOL    HW1 2645   1.624   1.117   1.483 -1.0539 -2.1190 -0.6263
  882SOL    HW2 2646   1.684   1.014   1.589  1.4481  1.5430  0.5310
  883SOL     OW 2647   1.309   0.105   2.173  0.3332  0.2599  0.4485
  883SOL    HW1 2648   1.351   0.196   2.200 -1.0933 -0.1143 -1.7198
  883SOL    HW2 2649   1.342   0.066   2.085  2.3031  2.0957  0.5311
  884SOL     OW 2650   2.587   0.424   0.223 -0.4034  0.0081  0.1017
  884SOL    HW1 2651   2.635   0.458   0.305  1.5143  1.7857 -1.9001
  884SOL    HW2 2652   2.550   0.493   0.159  2.1669 -0.9361  1.2653
  885SOL     OW 2653   1.165   1.349   2.812  0.0204  0.3976  0.1754
  885SOL    HW1 2654   1.202   1.352   2.904 -1.5929  1.6270 -2.2200
  885SOL    HW2 2655   1.064   1.340   2.816 -0.3052 -0.1384 -0.6339
  886SOL     OW 2656   1.533   1.359   2.651 -0.0157 -0.0815  0.3007
  886SOL    HW1 2657   1.511   1.264   2.676  0.1263  0.4362  2.3461
  886SOL    HW2 2658   1.612   1.364   2.587 -1.3126  2.4001 -3.6063
  887SOL     OW 2659   1.361   0.428   1.576  0.1422  0.1416  0.1625
  887SOL    HW1 2660   1.314   0.336   1.566  1.4936  0.3316 -1.7040
  887SOL    HW2 2661   1.339   0.470   1.666 -1.1425 -1.0590 -1.5436
  888SOL     OW 2662   2.531   0.672   2.019 -0.7125  0.2250  0.6639
  888SOL    HW1 2663   2.522   0.573   1.992 -0.6096 -2.4994 -0.9720
  888SOL    HW2 2664   2.597   0.722   1.959 -1.6132  0.0299 -2.0019
  889SOL     OW 2665   0.222   2.698   0.813  0.6552  0.1507 -0.6492
  889SOL    HW1 2666   0.204   2.601   0.847 -0.6588 -0.0593  0.8679
  889SOL    HW2 2667   0.321   2.719   0.810 -1.4447 -0.2003 -0.4954
  890SOL     OW 2668   2.938   2.169   0.237  0.3338  0.2803 -0.2921
  890SOL    HW1 2669   2.908   2.130   0.326  1.9841 -3.8504 -1.5434
  890SOL    HW2 2670   3.039   2.169   0.228  2.4923 -0.9027 -0.0396
  891SOL     OW 2671   0.945   1.612   2.919  0.3700 -0.4568  0.1692
  891SOL    HW1 2672   0.957   1.695   2.857  0.1748 -0.0804 -4.8379
  891SOL    HW2 2673   1.028   1.587   2.977  1.2456 -0.1433 -0.1585
  892SOL     OW 2674   2.786   3.032   0.886  0.2476  0.1590 -0.6715
  892SOL    HW1 2675   2.776   0.025   0.846 -1.0529  1.0090 -1.6419
  892SOL    HW2 2676   2.879   2.999   0.908  1.0164 -1.5109  0.7429
  893SOL     OW 2677   1.076   3.008   1.222  0.2291  0.2187 -0.2798
  893SOL    HW1 2678   1.080   3.039   1.322  0.8611 -0.2263  1.3764
  893SOL    HW2 2679   0.986   3.020   1.172  1.0997  0.6213  0.0845
  894SOL     OW 2680   2.678   0.770   0.541  0.8429 -0.1244 -0.0559
  894SOL    HW1 2681   2.580   0.809   0.557 -3.2502  0.2610  0.5308
  894SOL    HW2 2682   2.711   0.815   0.454  1.0052 -0.2761  1.0190
  895SOL     OW 2683   2.447   2.503   2.160 -0.0724  0.0720 -0.7954
  895SOL    HW1 2684   2.350   2.543   2.164 -2.2982  0.4606  0.7113
  895SOL    HW2 2685   2.484   2.505   2.256  0.6427 -0.1894  0.5357
  896SOL     OW 2686   1.203   0.184   1.635 -0.3172 -0.0708  0.4997
  896SOL    HW1 2687   1.268   0.109   1.657  1.4364 -0.8430  2.1814
  896SOL    HW2 2688   1.164   0.218   1.721 -1.3170  0.3302  1.2485
  897SOL     OW 2689   0.940   1.720   1.922 -0.1254  0.1348 -0.1251
  897SOL    HW1 2690   1.008   1.642   1.936 -1.7471 -1.4535  2.7964
  897SOL    HW2 2691   0.979   1.810   1.899 -0.7590  1.8670 -0.9973
  898SOL     OW 2692   1.962   2.820   1.885  0.2208  0.6169 -0.1267
  898SOL    HW1 2693   2.018   2.833   1.800 -0.0013 -0.2725 -1.6179
  898SOL    HW2 2694   2.017   2.830   1.972 -0.1572  0.1016  0.8859
  899SOL     OW 2695   0.997   0.638   1.077 -0.2746 -0.3025  0.1611
  899SOL    HW1 2696   1.022   0.615   1.172 -2.1804  2.1211  0.1065
  899SOL    HW2 2697   0.906   0.683   1.072 -0.8814 -1.5607 -0.1773
  900SOL     OW 2698   1.879   2.340   2.727  0.6304 -0.3822 -0.8085
  900SOL    HW1 2699   1.788   2.297   2.709 -1.0078  1.9486 -1.8351
  900SOL    HW2 2700   1.947   2.330   2.648  0.1124 -0.6055  1.3378
  901SOL     OW 2701   0.994   2.255   2.524 -0.1588  0.0941  0.4426
  901SOL    HW1 2702   0.987   2.270   2.627 -0.7859  0.0490  1.7687
  901SOL    HW2 2703   0.951   2.339   2.486 -2.3090  1.1218 -0.2841
  902SOL     OW 2704   2.327   1.145   0.266 -0.1297 -0.6239 -1.3341
  902SOL    HW1 2705   2.372   1.221   0.218  2.2840  1.5502  0.6796
  902SOL    HW2 2706   2.332   1.062   0.209  0.8506  3.9682 -0.5037
  903SOL     OW 2707   2.015   0.714   0.458 -0.7705  0.0499  0.2471
  903SOL    HW1 2708   1.923   0.760   0.460  0.1460  2.6929 -1.0846
  903SOL    HW2 2709   2.064   0.759   0.386 -1.2657  0.5802  1.9970
  904SOL     OW 2710   0.972   0.967   2.654 -0.4588 -0.0613  0.2753
  904SOL    HW1 2711   0.896   0.897   2.654  0.3896 -0.9466 -0.1104
  904SOL    HW2 2712   1.056   0.922   2.620 -1.4711 -0.9452 -0.9149
  905SOL     OW 2713   2.166   0.325   0.936  0.1474  0.1537 -0.3133
  905SOL    HW1 2714   2.077   0.349   0.893 -2.3184 -0.5658 -0.4620
  905SOL    HW2 2715   2.242   0.380   0.894  2.0124  0.2259 -1.9783
  906SOL     OW 2716   2.630   2.516   1.539 -0.6296  0.0211 -0.2223
  906SOL    HW1 2717   2.607   2.447   1.609 -1.4077  1.0677  2.3459
  906SOL    HW2 2718   2.645   2.609   1.576 -3.3760 -0.4525 -1.5514
  907SOL     OW 2719   1.060   0.666   0.275  0.7709 -0.2598  0.5387
  907SOL    HW1 2720   1.112   0.754   0.287  1.9068  1.6843 -0.1237
  907SOL    HW2 2721   1.084   0.609   0.190  0.7701 -1.2467  1.4876
  908SOL     OW 2722   2.025   2.976   1.383  0.2967 -0.3330  0.0644
  908SOL    HW1 2723   2.125   2.961   1.370  1.1874 -0.4883  3.2913
  908SOL    HW2 2724   1.987   2.970   1.287  1.4703  1.8541  1.1061
  909SOL     OW 2725   2.557   0.981   1.283  0.1489 -0.5993  0.2851
  909SOL    HW1 2726   2.618   0.928   1.345  3.0048 -0.2635 -1.1702
  909SOL    HW2 2727   2.506   1.053   1.334  0.2887 -1.4805 -1.0562
  910SOL     OW 2728   1.428   2.754   2.298  0.0039  0.3694  0.5422
  910SOL    HW1 2729   1.528   2.782   2.305 -1.5121  4.2730  1.8976
  910SOL    HW2 2730   1.391   2.786   2.208  1.3530  2.3719 -0.4244
  911SOL     OW 2731   2.382   0.438   2.484  0.6425 -0.1916 -0.1081
  911SOL    HW1 2732   2.434   0.527   2.479  2.9571  2.9806  0.9264
  911SOL    HW2 2733   2.288   0.447   2.446  1.2368 -1.9287  4.4570
  912SOL     OW 2734   2.945   1.384   1.440  0.0736  0.2100  0.0973
  912SOL    HW1 2735   2.926   1.479   1.416 -2.6991 -1.6494  0.2929
  912SOL    HW2 2736   2.988   1.364   1.529  0.8676 -0.8955  0.6294
  913SOL     OW 2737   2.633   2.189   1.382 -0.1052 -0.2492 -0.5344
  913SOL    HW1 2738   2.651   2.264   1.317  1.1923 -0.4777  0.1081
  913SOL    HW2 2739   2.628   2.105   1.327 -1.2534 -1.5040 -0.0948
  914SOL     OW 2740   1.856   1.207   1.372 -0.1852  0.3812 -0.0465
  914SOL    HW1 2741   1.892   1.127   1.321  0.4088  4.0376  0.6980
  914SOL    HW2 2742   1.810   1.191   1.464 -3.7565 -0.2783 -0.8522
  915SOL     OW 2743   1.377   0.860   1.299  0.0772 -0.6585  0.3022
  915SOL    HW1 2744   1.329   0.778   1.326  2.2257  0.9230  0.5539
  915SOL    HW2 2745   1.318   0.907   1.230 -1.2614  0.3598 -3.9948
  916SOL     OW 2746   2.708   2.734   1.685  0.6523  0.0912  0.6306
  916SOL    HW1 2747   2.775   2.676   1.733 -0.5788 -0.7950 -0.7194
  916SOL    HW2 2748   2.747   2.828   1.676  1.8725  2.2666  0.7486
  917SOL     OW 2749   2.480   2.033   0.253 -0.3550  0.2341  0.1865
  917SOL    HW1 2750   2.410   1.971   0.212  0.8283 -0.0402  2.6417
  917SOL    HW2 2751   2.461   2.126   0.217 -4.7451 -0.0739 -2.1024
  918SOL     OW 2752   1.830   2.727   2.514 -0.1096 -0.0177  0.5566
  918SOL    HW1 2753   1.776   2.746   2.428  0.4340 -1.8126 -1.3006
  918SOL    HW2 2754   1.764   2.694   2.585 -1.4569 -0.4768  0.9902
  919SOL     OW 2755   1.471   2.215   1.395 -0.1680 -0.0655  0.2785
  919SOL    HW1 2756   1.495   2.171   1.481 -2.1494  2.7617  0.4250
  919SOL    HW2 2757   1.385   2.174   1.358 -1.0672  0.7283  0.0999
  920SOL     OW 2758   2.775   0.193   2.441  0.2219 -0.1586  0.2266
  920SOL    HW1 2759   2.837   0.158   2.370  0.9207 -3.6610 -0.4292
  920SOL    HW2 2760   2.825   0.251   2.509  2.8147  1.1178  1.0209
  921SOL     OW 2761   3.046   0.835   1.986 -0.3146  0.0722 -0.4980
  921SOL    HW1 2762   3.079   0.738   1.974  0.5882 -0.3740  0.6648
  921SOL    HW2 2763   2.976   0.842   2.057  2.3980 -0.1447  0.4938
  922SOL     OW 2764   2.058   1.981   0.537  0.1689 -0.1357 -0.1997
  922SOL    HW1 2765   2.041   1.880   0.535  3.8109 -0.8654 -1.8728
  922SOL    HW2 2766   2.155   2.000   0.516 -2.2583 -3.5949  0.1368
  923SOL     OW 2767   0.600   2.240   3.092  0.2525  0.3398 -0.0222
  923SOL    HW1 2768   0.524   2.197   3.036  1.4364 -0.2742 -1.7998
  923SOL    HW2 2769   0.650   2.309   3.039 -0.3736 -2.6646 -1.9660
  924SOL     OW 2770   0.987   0.264   0.421  0.0141  0.5042  0.1207
  924SOL    HW1 2771   0.905   0.299   0.370 -0.1708  2.3660  0.7072
  924SOL    HW2 2772   1.073   0.308   0.389  0.1476 -0.7827 -0.0416
  925SOL     OW 2773   2.415   0.846   0.588 -0.2090 -0.2594 -0.6914
  925SOL    HW1 2774   2.332   0.822   0.649  0.7694  0.4758  0.2565
  925SOL    HW2 2775   2.457   0.934   0.620  1.8418 -1.3775  1.6961
  926SOL     OW 2776   3.064   0.925   0.968 -0.2843 -0.2536 -0.2658
  926SOL    HW1 2777   2.972   0.944   0.932  2.3877 -1.8291  1.1723
  926SOL    HW2 2778   3.055   0.862   1.044 -0.9856 -0.2254 -0.5186
  927SOL     OW 2779   3.097   1.088   2.937 -0.9118  0.1525  0.7550
  927SOL    HW1 2780   0.058   1.065   2.852 -0.4872  2.0181 -0.0085
  927SOL    HW2 2781   0.037   1.158   3.002  1.0876 -0.7645 -1.3841
  928SOL     OW 2782   2.908   0.588   2.331  0.3223 -0.1838  0.1925
  928SOL    HW1 2783   2.812   0.627   2.318 -1.0107  1.4746  0.8255
  928SOL    HW2 2784   2.945   0.554   2.243 -0.0136  2.8872 -0.0627
  929SOL     OW 2785   2.965   2.992   1.453 -0.4069 -0.2000 -0.0583
  929SOL    HW1 2786   2.867   3.014   1.464  1.6480  0.1609  1.4486
  929SOL    HW2 2787   2.977   2.934   1.374 -0.1704  2.7405  4.6961
  930SOL     OW 2788   1.815   1.261   1.818  0.1898  0.7369  0.4569
  930SOL    HW1 2789   1.791   1.221   1.723 -0.9029 -0.4870 -3.2259
  930SOL    HW2 2790   1.799   1.364   1.817 -1.3244  1.9183  1.1965
  931SOL     OW 2791   1.466   1.297   0.534  0.8862 -0.0794 -0.3280
  931SOL    HW1 2792   1.551   1.302   0.484 -1.0311  0.2056 -0.7780
  931SOL    HW2 2793   1.427   1.394   0.540 -0.9281  0.1091  1.8845
  932SOL     OW 2794   2.708   1.278   0.945  0.0430 -0.2808  0.1274
  932SOL    HW1 2795   2.660   1.192   0.948  0.5191 -1.2640 -1.1197
  932SOL    HW2 2796   2.795   1.269   0.902  0.2732  0.2369  1.6238
  933SOL     OW 2797   2.402   1.826   1.319  0.4002  0.0904 -0.8966
  933SOL    HW1 2798   2.391   1.766   1.237 -1.5183  1.5537 -0.4670
  933SOL    HW2 2799   2.343   1.911   1.314 -1.5284  1.4116 -1.1852
  934SOL     OW 2800   1.721   0.166   1.870  0.3770  0.0367 -0.4144
  934SOL    HW1 2801   1.651   0.219   1.924 -0.6716  2.5608  1.0199
  934SOL    HW2 2802   1.721   0.207   1.775  1.0858 -0.2944 -2.1876
  935SOL     OW 2803   0.360   1.539   0.936  0.1562  0.0992  0.3777
  935SOL    HW1 2804   0.315   1.522   0.843  2.5309  1.2382 -0.7326
  935SOL    HW2 2805   0.330   1.633   0.966 -0.0164 -1.3287 -1.6180
  936SOL     OW 2806   0.512   0.989   0.629 -0.4014 -0.5255  0.2554
  936SOL    HW1 2807   0.412   0.965   0.631 -0.7658 -0.5836  1.3723
  936SOL    HW2 2808   0.536   1.008   0.534 -1.6664  0.4271  2.1774
  937SOL     OW 2809   2.244   3.008   1.032  0.3338 -0.2658 -1.1793
  937SOL    HW1 2810   2.228   2.912   1.062 -1.3443  0.2762 -3.8996
  937SOL    HW2 2811   2.249   3.011   0.932  1.3112 -0.6749 -0.2910
  938SOL     OW 2812   2.639   2.277   0.551 -0.1195  0.4290 -0.7608
  938SOL    HW1 2813   2.654   2.185   0.512  0.7885  1.8690  0.5272
  938SOL    HW2 2814   2.540   2.284   0.575  1.2448 -1.5510  2.5060
  939SOL     OW 2815   0.832   2.198   0.571  0.5841 -0.2181  0.1007
  939SOL    HW1 2816   0.901   2.129   0.587 -2.4807  0.9071 -0.6767
  939SOL    HW2 2817   0.869   2.287   0.607 -0.0315 -1.3448  1.1201
  940SOL     OW 2818   2.738   0.009   2.801  0.6873  0.0297 -0.3881
  940SOL    HW1 2819   2.834   3.085   2.803 -0.1581 -2.2775 -1.2568
  940SOL    HW2 2820   2.681   3.044   2.856  0.8730 -0.3177  0.9044
  941SOL     OW 2821   1.103   0.309   3.043  0.2197 -0.1924 -0.5842
  941SOL    HW1 2822   1.111   0.277   0.035 -1.3017 -1.1424 -1.2278
  941SOL    HW2 2823   1.143   0.398   3.028  1.5670 -1.7885 -0.4618
  942SOL     OW 2824   1.205   1.039   1.156 -0.4301  0.2915  0.1080
  942SOL    HW1 2825   1.232   1.136   1.169  2.1272 -2.4987 -0.3824
  942SOL    HW2 2826   1.139   1.025   1.079 -0.0158 -0.2871  2.0107
  943SOL     OW 2827   1.397   1.240   1.673  0.2108  0.2689 -0.0543
  943SOL    HW1 2828   1.453   1.171   1.719 -0.7722 -0.6782 -2.3584
  943SOL    HW2 2829   1.349   1.198   1.591 -2.9149  0.2409 -2.0045
  944SOL     OW 2830   1.655   0.688   1.820 -0.2224 -0.3124 -0.9754
  944SOL    HW1 2831   1.659   0.782   1.862  2.4843  2.6032 -0.3237
  944SOL    HW2 2832   1.669   0.614   1.894 -0.5342 -2.5272  1.4231
  945SOL     OW 2833   3.059   0.029   0.410 -0.4560 -0.6688  0.6196
  945SOL    HW1 2834   2.980   0.083   0.439  1.9325 -3.9911 -1.4432
  945SOL    HW2 2835   3.058   0.016   0.306  1.5843 -0.0268  1.9004
  946SOL     OW 2836   0.007   0.514   1.677 -0.1470  0.3584 -0.1111
  946SOL    HW1 2837   0.015   0.418   1.641  1.3719  0.7789  1.9048
  946SOL    HW2 2838   3.017   0.559   1.660 -1.5879  0.3855  1.0063
  947SOL     OW 2839   0.753   3.079   0.384 -0.3654 -0.8628 -0.2761
  947SOL    HW1 2840   0.675   3.034   0.340  1.6651 -0.1135  0.8333
  947SOL    HW2 2841   0.811   0.037   0.324 -0.6084 -0.5325 -0.8406
  948SOL     OW 2842   2.510   1.166   1.798  0.1325 -0.3076  0.4640
  948SOL    HW1 2843   2.409   1.161   1.818 -1.7149  1.3215 -1.0179
  948SOL    HW2 2844   2.553   1.247   1.841 -0.3001 -1.8756 -1.2088
  949SOL     OW 2845   0.508   0.909   2.805 -0.0666  0.2600  0.5811
  949SOL    HW1 2846   0.505   0.956   2.715  1.0710 -1.1851 -1.9839
  949SOL    HW2 2847   0.421   0.866   2.833 -0.5255 -1.0026  0.9701
  950SOL     OW 2848   0.829   0.308   1.098 -0.5007 -0.2619  0.1176
  950SOL    HW1 2849   0.916   0.278   1.137 -1.8568  0.5226 -4.0562
  950SOL    HW2 2850   0.843   0.351   1.007 -1.4902 -0.0943 -0.0661
  951SOL     OW 2851   0.868   1.711   2.196 -0.3027 -0.2565  0.4397
  951SOL    HW1 2852   0.818   1.796   2.221 -0.3001 -0.2898 -0.9240
  951SOL    HW2 2853   0.876   1.710   2.097  0.3634  0.3656 -0.4436
  952SOL     OW 2854   0.610   1.565   0.290 -0.0475  0.1306  0.1329
  952SOL    HW1 2855   0.664   1.590   0.211  0.2862 -0.9832  1.6163
  952SOL    HW2 2856   0.649   1.617   0.368 -2.5321 -1.1642 -0.6933
  953SOL     OW 2857   1.986   3.087   2.397  0.7335 -0.1287 -0.5331
  953SOL    HW1 2858   1.945   3.061   2.305 -1.8014 -0.4144 -0.1789
  953SOL    HW2 2859   2.085   3.097   2.399 -0.8497  0.0674 -1.4021
  954SOL     OW 2860   1.634   1.122   0.694  0.1991  0.0154 -0.1555
  954SOL    HW1 2861   1.722   1.131   0.640  2.5677  0.1821 -0.0769
  954SOL    HW2 2862   1.558   1.174   0.647  1.2319 -1.3956  1.2713
  955SOL     OW 2863   0.299   2.189   2.262  0.2177 -0.2880  0.3931
  955SOL    HW1 2864   0.373   2.182   2.192 -0.8887  1.6079 -1.1348
  955SOL    HW2 2865   0.255   2.283   2.267 -1.0991  1.6491  0.3123
  956SOL     OW 2866   1.608   0.518   1.606 -0.0024 -0.3558 -0.6188
  956SOL    HW1 2867   1.516   0.475   1.604  1.8363  0.1233  0.2630
  956SOL    HW2 2868   1.621   0.578   1.692  0.8153  2.5246 -0.4963
  957SOL     OW 2869   1.759   1.955   2.945 -0.1107 -0.9094 -0.5108
  957SOL    HW1 2870   1.719   1.868   2.977 -0.3896 -0.0596 -2.1969
  957SOL    HW2 2871   1.822   1.989   3.023  1.9265 -0.8875  0.8678
  958SOL     OW 2872   1.141   2.351   1.609  0.0542  0.0199 -0.2445
  958SOL    HW1 2873   1.121   2.387   1.700  0.3272  0.6974 -1.3046
  958SOL    HW2 2874   1.063   2.297   1.578 -0.0139  0.4881  1.0294
  959SOL     OW 2875   2.094   2.245   2.915 -0.4356  0.2745 -0.3508
  959SOL    HW1 2876   2.019   2.310   2.891 -2.7956 -2.9336 -1.5174
  959SOL    HW2 2877   2.154   2.290   2.988  0.9822  2.4888  2.6942
  960SOL     OW 2878   2.886   0.369   2.627  0.2586  0.1898  0.9006
  960SOL    HW1 2879   2.896   0.326   2.718  1.4815  2.8256  0.3846
  960SOL    HW2 2880   2.957   0.437   2.612  1.2606 -4.9380 -2.3767
  961SOL     OW 2881   0.769   0.780   2.648  1.1372  0.3800 -0.1586
  961SOL    HW1 2882   0.671   0.805   2.667 -0.7230  0.8725  2.1537
  961SOL    HW2 2883   0.793   0.757   2.552  0.2906 -1.3404  2.8150
  962SOL     OW 2884   0.882   1.375   2.603 -0.1587 -0.3844 -0.2457
  962SOL    HW1 2885   0.897   1.373   2.705  2.0404 -0.3584 -0.5906
  962SOL    HW2 2886   0.832   1.291   2.576  3.6204  1.1450  0.9230
  963SOL     OW 2887   2.464   2.299   0.198 -0.5237  0.2314 -0.2290
  963SOL    HW1 2888   2.556   2.292   0.157 -1.5850  0.9154  1.9498
  963SOL    HW2 2889   2.448   2.380   0.256 -2.1319 -0.0999 -0.8511
  964SOL     OW 2890   1.182   2.503   1.150 -0.0585 -0.1925 -0.1712
  964SOL    HW1 2891   1.226   2.488   1.239 -0.8756  0.8021 -3.9886
  964SOL    HW2 2892   1.109   2.577   1.148  1.6409  0.4581 -2.8762
  965SOL     OW 2893   1.275   1.474   0.765 -0.3488  0.3990 -0.3930
  965SOL    HW1 2894   1.325   1.508   0.688  0.2385  1.5901  2.5272
  965SOL    HW2 2895   1.252   1.554   0.826  0.2461 -1.4422  2.0435
  966SOL     OW 2896   0.140   1.483   0.282  0.5079 -0.0526  0.0262
  966SOL    HW1 2897   0.081   1.528   0.353 -2.2034  1.1740 -1.4492
  966SOL    HW2 2898   0.118   1.506   0.186 -0.2365  1.0953 -4.0672
  967SOL     OW 2899   1.992   0.460   1.846  0.1643 -0.0012  0.2079
  967SOL    HW1 2900   2.002   0.373   1.790  1.7842 -0.9358  1.9271
  967SOL    HW2 2901   2.077   0.480   1.897 -1.1694  1.8425 -1.0237
  968SOL     OW 2902   1.871   1.087   0.556  0.0303 -0.4935 -0.8432
  968SOL    HW1 2903   1.931   1.162   0.525  1.2403 -0.1326  0.0079
  968SOL    HW2 2904   1.858   1.019   0.482  1.6472  0.0050  3.2208
  969SOL     OW 2905   0.372   1.367   2.565  0.4118  0.3264  0.0829
  969SOL    HW1 2906   0.328   1.304   2.500 -0.6596  2.4022 -1.1849
  969SOL    HW2 2907   0.454   1.418   2.525  2.2860  0.6774  2.7470
  970SOL     OW 2908   2.165   1.520   1.181 -0.3926  0.2791 -0.2535
  970SOL    HW1 2909   2.121   1.520   1.088 -2.3564  0.6114 -0.8692
  970SOL    HW2 2910   2.251   1.576   1.178 -1.2706 -0.3789  1.1342
  971SOL     OW 2911   0.319   3.075   1.266 -0.0337 -0.2491  0.1440
  971SOL    HW1 2912   0.328   0.071   1.243 -0.1714 -0.3554 -1.1077
  971SOL    HW2 2913   0.296   3.016   1.188  1.2616  1.0877  1.1626
  972SOL     OW 2914   0.262   0.807   2.872 -0.4951  0.3923 -0.0294
  972SOL    HW1 2915   0.235   0.718   2.828  3.4937 -0.7583  1.9253
  972SOL    HW2 2916   0.232   0.804   2.971  0.4789  0.4255  0.1451
  973SOL     OW 2917   0.013   0.602   1.004  0.1633  0.2282  0.1819
  973SOL    HW1 2918   0.104   0.646   1.006  0.7151  0.4023 -3.7116
  973SOL    HW2 2919   0.014   0.511   1.056 -2.5041 -1.3289  1.8752
  974SOL     OW 2920   2.220   0.567   2.025 -0.0688 -0.3769  0.0393
  974SOL    HW1 2921   2.252   0.607   1.932  0.7914  1.4831 -0.6027
  974SOL    HW2 2922   2.245   0.466   2.031  1.7634  0.7402 -0.0301
  975SOL     OW 2923   2.691   0.058   0.181 -0.0274 -0.7055  0.3970
  975SOL    HW1 2924   2.730   0.057   0.275 -0.3111 -0.6076 -2.4190
  975SOL    HW2 2925   2.735   0.129   0.125  0.7546  0.9440 -0.9505
  976SOL     OW 2926   0.327   1.431   1.583 -0.2201  0.0314 -0.0063
  976SOL    HW1 2927   0.397   1.493   1.530 -0.1069  2.4088 -2.1905
  976SOL    HW2 2928   0.344   1.431   1.687  1.4880 -0.7679 -1.9701
  977SOL     OW 2929   1.042   2.544   2.989  0.0518  0.7286  0.4297
  977SOL    HW1 2930   1.140   2.517   2.979  1.8614 -0.1223 -0.8095
  977SOL    HW2 2931   1.001   2.494   3.069 -1.0228 -1.5218  2.0954
  978SOL     OW 2932   0.548   1.194   0.019  0.6570 -0.0430 -0.4837
  978SOL    HW1 2933   0.504   1.105   0.000 -0.5921 -1.6119 -1.6485
  978SOL    HW2 2934   0.600   1.177   0.103 -1.3209  1.9990 -0.5413
  979SOL     OW 2935   1.617   1.804   1.396  0.3853  0.0409  0.1658
  979SOL    HW1 2936   1.551   1.820   1.478 -3.4146  0.8931  1.2503
  979SOL    HW2 2937   1.634   1.701   1.382 -0.1365 -1.2696  0.8050
  980SOL     OW 2938   0.389   1.446   1.845  0.9479  0.0717  0.0932
  980SOL    HW1 2939   0.394   1.548   1.830  0.7840  0.4439 -4.1835
  980SOL    HW2 2940   0.342   1.418   1.931  1.8383 -1.6197 -0.4427
  981SOL     OW 2941   3.057   1.265   0.280  0.0579  0.8110 -0.5532
  981SOL    HW1 2942   0.025   1.326   0.326 -0.9343  2.8414 -1.9716
  981SOL    HW2 2943   3.017   1.193   0.344  1.4307  0.1344  0.1052
  982SOL     OW 2944   2.258   2.992   2.190 -0.4117  0.2596  0.7045
  982SOL    HW1 2945   2.289   3.052   2.117  1.8827  2.8260  2.0797
  982SOL    HW2 2946   2.287   3.019   2.284 -1.0337 -0.3986  1.5623
  983SOL     OW 2947   1.240   0.390   1.099  0.0687 -0.1140  0.2851
  983SOL    HW1 2948   1.320   0.374   1.160  0.2315 -0.8986 -0.0915
  983SOL    HW2 2949   1.254   0.470   1.038 -2.1933  0.1254  0.3801
  984SOL     OW 2950   1.275   2.980   2.935  0.6835 -0.3853 -0.0412
  984SOL    HW1 2951   1.276   2.953   3.035 -0.7357  0.2668 -0.7668
  984SOL    HW2 2952   1.345   3.057   2.915  1.8733 -0.3544 -0.5080
  985SOL     OW 2953   1.924   2.227   1.454 -0.7076 -0.1311 -0.2242
  985SOL    HW1 2954   1.884   2.134   1.445 -2.2129 -2.4287  1.8923
  985SOL    HW2 2955   2.010   2.244   1.400 -0.2705 -0.2121 -1.1909
  986SOL     OW 2956   2.635   3.074   2.534 -0.2940  0.8389  0.1457
  986SOL    HW1 2957   2.697   0.050   2.511  2.3666 -0.9018  2.5795
  986SOL    HW2 2958   2.612   3.072   2.629  0.4437 -2.1406  0.6148
  987SOL     OW 2959   2.874   0.899   2.182 -0.5804 -0.0367  0.0435
  987SOL    HW1 2960   2.802   0.834   2.217 -1.6933 -1.3500  2.2947
  987SOL    HW2 2961   2.822   0.978   2.139  0.7750  2.6202 -0.8349
  988SOL     OW 2962   2.286   0.791   2.674 -0.1932 -0.5669 -0.6802
  988SOL    HW1 2963   2.228   0.717   2.711 -1.9162 -1.3045 -0.0565
  988SOL    HW2 2964   2.250   0.812   2.582 -1.2880 -2.7111  0.0743
  989SOL     OW 2965   2.037   1.520   2.073 -0.1251  0.7056  0.0428
  989SOL    HW1 2966   2.132   1.504   2.034  2.9451 -0.8842  0.5198
  989SOL    HW2 2967   2.029   1.449   2.149 -1.7737 -0.9458 -1.4273
  990SOL     OW 2968   0.386   0.905   0.039  0.3948  0.0159 -0.2623
  990SOL    HW1 2969   0.470   0.864   3.100 -1.9234  0.9193 -0.2575
  990SOL    HW2 2970   0.310   0.850   0.003  0.4684 -0.8698 -0.7833
  991SOL     OW 2971   0.445   2.088   2.888  0.4827 -0.1760  0.0019
  991SOL    HW1 2972   0.448   1.985   2.875  1.2418 -1.4649  0.7187
  991SOL    HW2 2973   0.350   2.118   2.881  2.2704  1.4376 -0.0849
  992SOL     OW 2974   2.575   2.075   1.951 -0.7983 -0.4117 -0.3790
  992SOL    HW1 2975   2.568   2.087   1.854 -0.8846  0.0729 -0.1174
  992SOL    HW2 2976   2.575   2.167   1.993 -0.2727  1.0846  1.2216
  993SOL     OW 2977   0.233   3.065   0.420 -0.3492 -0.1640  0.3736
  993SOL    HW1 2978   0.265   3.042   0.514 -0.9979 -0.6321 -1.4302
  993SOL    HW2 2979   0.153   0.021   0.425  0.7796 -2.0544 -0.9385
  994SOL     OW 2980   0.220   1.839   1.578 -0.0941 -0.2182  0.3577
  994SOL    HW1 2981   0.126   1.868   1.549 -1.6802  2.0703 -0.5755
  994SOL    HW2 2982   0.286   1.901   1.537  0.9095  0.2761 -1.3378
  995SOL     OW 2983   2.110   1.771   2.909  0.0335 -0.0501  0.5443
  995SOL    HW1 2984   2.042   1.707   2.866 -1.0387  1.1298  2.0564
  995SOL    HW2 2985   2.113   1.861   2.858  1.1905  0.4252  1.1569
  996SOL     OW 2986   1.837   1.448   2.909 -0.5150  0.1070  0.1042
  996SOL    HW1 2987   1.734   1.421   2.910  0.6071 -1.4827  0.7486
  996SOL    HW2 2988   1.860   1.511   2.828  0.4061  1.2776 -0.5281
  997SOL     OW 2989   1.431   1.020   1.835 -0.6302 -0.5690 -0.3674
  997SOL    HW1 2990   1.361   1.069   1.895 -0.9955 -1.3897 -0.1054
  997SOL    HW2 2991   1.379   0.970   1.761 -1.8587  1.2649 -2.1913
  998SOL     OW 2992   2.597   2.116   0.830  0.3009 -0.1942  0.2876
  998SOL    HW1 2993   2.531   2.191   0.845  0.8666 -2.8320  2.2588
  998SOL    HW2 2994   2.688   2.164   0.850  2.9012 -0.2591 -0.6996
  999SOL     OW 2995   2.152   2.289   0.356  0.4318 -0.2159  0.4369
  999SOL    HW1 2996   2.124   2.319   0.448 -0.6329  2.2487 -2.8204
  999SOL    HW2 2997   2.228   2.346   0.320  1.1153 -0.0651  1.4790
 1000SOL     OW 2998   0.873   2.975   3.087 -0.5244  0.5084 -0.2108
 1000SOL    HW1 2999   0.902   2.900   0.046 -3.1478  2.1220 -2.6919
 1000SOL    HW2 3000   0.777   2.958   3.057  0.3020  0.8728 -0.2521
   3.10289   3.10289   3.10289
