1000 SPC/Fw water molecules t= 272.00000 step= 272000
 3000
    1SOL     OW    1   2.908   2.646   0.964  0.0850  0.0079 -0.8673
    1SOL    HW1    2   2.989   2.586   0.983 -4.4041  0.1388 -1.2406
    1SOL    HW2    3   2.847   2.654   1.049 -4.3226  3.5253  2.0057
    2SOL     OW    4   2.000   1.888   1.080  0.0825 -0.2474  0.0306
    2SOL    HW1    5   1.971   1.984   1.105 -0.1058 -0.0336  1.8441
    2SOL    HW2    6   2.027   1.836   1.163 -0.7540  1.7537 -0.2971
    3SOL     OW    7   1.247   2.689   0.076 -0.6777  0.3403 -0.3601
    3SOL    HW1    8   1.234   2.785   0.056  1.6092  1.4107  3.6918
    3SOL    HW2    9   1.282   2.634   3.100  0.1349 -0.5706  0.7261
    4SOL     OW   10   2.083   1.858   1.348 -0.1048 -0.4752  0.0101
    4SOL    HW1   11   2.023   1.779   1.375  1.9702  1.1472  1.8526
    4SOL    HW2   12   2.034   1.951   1.359 -3.4101 -1.7079 -0.6954
    5SOL     OW   13   1.283   1.224   1.570  0.3035  0.0605 -0.4275
    5SOL    HW1   14   1.353   1.195   1.508 -0.5097  0.1559  1.6652
    5SOL    HW2   15   1.207   1.282   1.533  1.2461 -1.1870  2.1622
    6SOL     OW   16   2.671   0.079   3.034  0.5780 -0.0768 -0.0407
    6SOL    HW1   17   2.613   0.057   2.950  0.8820 -1.0862 -0.5220
    6SOL    HW2   18   2.723   0.168   3.011  1.2961  3.3779 -1.4700
    7SOL     OW   19   2.846   1.134   1.186 -0.3681 -0.6267 -0.0677
    7SOL    HW1   20   2.753   1.181   1.193  0.1375  0.1306 -3.5175
    7SOL    HW2   21   2.856   1.076   1.103 -1.7324  2.2436 -1.2535
    8SOL     OW   22   1.206   2.828   0.986 -0.0007 -0.0831 -0.0184
    8SOL    HW1   23   1.260   2.908   0.956 -1.6486  2.2081  0.0097
    8SOL    HW2   24   1.194   2.825   1.085  0.4928  1.2590  1.3877
    9SOL     OW   25   1.752   0.030   2.117  0.6030 -0.0126 -0.1010
    9SOL    HW1   26   1.678   3.088   2.062 -1.4845 -0.4144 -1.5344
    9SOL    HW2   27   1.768   0.129   2.088  2.1484 -1.1830  1.3640
   10SOL     OW   28   0.816   2.256   0.863 -0.0697 -0.0825 -0.7218
   10SOL    HW1   29   0.739   2.312   0.835  1.2236 -0.5680  1.1945
   10SOL    HW2   30   0.888   2.316   0.902 -3.2965  2.4962 -0.9849
   11SOL     OW   31   1.521   1.329   0.612  0.4031  0.1122 -0.2063
   11SOL    HW1   32   1.597   1.388   0.604  0.0327 -2.9736  1.4669
   11SOL    HW2   33   1.469   1.346   0.698 -1.7389  0.5209  0.9188
   12SOL     OW   34   2.706   2.630   1.869  0.0807 -0.2042  0.4026
   12SOL    HW1   35   2.694   2.578   1.784 -0.5386 -0.3801  2.2916
   12SOL    HW2   36   2.786   2.601   1.924 -1.3501 -0.0692 -0.8579
   13SOL     OW   37   2.141   0.058   0.412  0.0326  0.1514  0.0406
   13SOL    HW1   38   2.102   0.068   0.504  0.1373  0.7542 -2.3003
   13SOL    HW2   39   2.239   0.033   0.406 -0.1074  0.5434  2.2978
   14SOL     OW   40   1.315   2.579   1.044  0.2280 -0.1557  0.2844
   14SOL    HW1   41   1.384   2.540   0.983 -1.4876  1.9547 -0.6648
   14SOL    HW2   42   1.263   2.659   1.003  1.0310  0.0043  2.1170
   15SOL     OW   43   0.035   1.819   1.630 -0.4920 -0.3480  0.0860
   15SOL    HW1   44   0.111   1.876   1.671  3.1770 -1.0734  3.9539
   15SOL    HW2   45   0.010   1.852   1.535 -3.4593  3.3589  0.5197
   16SOL     OW   46   1.969   2.202   0.410  0.2370  0.5076  0.0785
   16SOL    HW1   47   2.042   2.187   0.481 -0.9926 -0.8810 -0.8390
   16SOL    HW2   48   2.009   2.202   0.316 -0.6142  0.0336  2.0976
   17SOL     OW   49   0.916   2.980   1.623  0.0638  0.1654 -0.6216
   17SOL    HW1   50   0.886   3.028   1.704  1.6249 -1.8366  2.5469
   17SOL    HW2   51   0.930   3.045   1.546 -0.9195 -0.5356  1.3916
   18SOL     OW   52   1.351   0.783   0.186 -0.0636 -0.3137 -0.4201
   18SOL    HW1   53   1.443   0.758   0.150 -0.6863 -0.5418  0.2087
   18SOL    HW2   54   1.354   0.849   0.261 -1.7748  0.0062  0.2124
   19SOL     OW   55   1.780   1.987   3.013  0.3090  0.0848  0.1333
   19SOL    HW1   56   1.811   1.895   2.978 -1.2203 -0.6104  0.0926
   19SOL    HW2   57   1.832   2.012   3.098 -2.1776 -0.0234  1.6206
   20SOL     OW   58   2.176   1.762   1.909 -0.6394 -0.6571 -0.3096
   20SOL    HW1   59   2.136   1.857   1.893  0.3849  0.8216  0.0269
   20SOL    HW2   60   2.243   1.746   1.832  1.2311  2.0456 -0.0626
   21SOL     OW   61   0.789   1.400   0.492  0.0277  0.2356  0.5758
   21SOL    HW1   62   0.860   1.344   0.450  0.4369  0.3821 -0.6232
   21SOL    HW2   63   0.786   1.493   0.451  0.7179 -2.3149 -0.0299
   22SOL     OW   64   2.142   3.017   1.381  0.5129 -0.0818  0.0721
   22SOL    HW1   65   2.136   0.005   1.332 -1.3954  1.9125 -0.8089
   22SOL    HW2   66   2.233   2.975   1.367  0.9589 -3.0045  1.1167
   23SOL     OW   67   2.985   0.785   1.874 -0.1485  0.2997  0.5847
   23SOL    HW1   68   2.934   0.760   1.788 -0.4968  1.5479  0.0411
   23SOL    HW2   69   2.935   0.861   1.923  0.8745  0.3784  1.2601
   24SOL     OW   70   2.369   2.619   0.283 -0.3315  0.2318  0.5854
   24SOL    HW1   71   2.428   2.541   0.268 -4.1635 -3.6719 -0.2395
   24SOL    HW2   72   2.277   2.581   0.304 -0.2301 -2.7684 -0.0676
   25SOL     OW   73   1.552   0.055   2.589  0.4925  0.2445 -0.0529
   25SOL    HW1   74   1.503   0.135   2.635 -2.0265 -1.0222  1.9532
   25SOL    HW2   75   1.585   0.076   2.495  0.3909  1.0158 -1.6312
   26SOL     OW   76   1.749   2.408   0.161 -0.4239  0.5114  0.2312
   26SOL    HW1   77   1.685   2.344   0.215 -0.8089 -1.5627  0.0306
   26SOL    HW2   78   1.699   2.482   0.109 -1.9410 -0.3804 -1.8577
   27SOL     OW   79   2.620   1.935   3.048  0.1818  0.3084 -0.2821
   27SOL    HW1   80   2.603   1.869   2.970  2.6907 -1.1538  1.0992
   27SOL    HW2   81   2.686   2.010   3.018  1.4722 -2.9754  1.2399
   28SOL     OW   82   0.145   0.969   1.877  0.1591 -0.0427  0.0986
   28SOL    HW1   83   0.095   0.946   1.788 -1.2016  1.1597 -1.6983
   28SOL    HW2   84   0.102   0.916   1.951 -0.1693  0.4326  1.5749
   29SOL     OW   85   2.296   2.263   1.332  0.5646 -0.2536 -0.1088
   29SOL    HW1   86   2.221   2.231   1.392 -1.1897  1.7744 -0.2594
   29SOL    HW2   87   2.337   2.347   1.373 -1.5734  1.2792 -0.3201
   30SOL     OW   88   1.601   0.380   0.637 -0.3915  0.5165 -0.1285
   30SOL    HW1   89   1.677   0.421   0.581 -2.4832  1.0468 -0.1893
   30SOL    HW2   90   1.580   0.441   0.719 -0.5844  0.0803 -0.0803
   31SOL     OW   91   2.346   2.427   1.854  0.3978 -0.6345  0.1927
   31SOL    HW1   92   2.275   2.449   1.926 -0.1612 -1.7646  3.3754
   31SOL    HW2   93   2.317   2.482   1.770 -1.6473  4.7606  0.6122
   32SOL     OW   94   0.754   1.926   1.197  0.7219 -0.4489  0.0073
   32SOL    HW1   95   0.802   1.950   1.111 -0.5823 -0.5212  1.8715
   32SOL    HW2   96   0.704   2.010   1.231 -0.8917  0.1789  0.5064
   33SOL     OW   97   0.729   2.996   2.669  0.0955 -0.6884 -0.0147
   33SOL    HW1   98   0.656   2.955   2.615  0.0254 -0.2596  1.9903
   33SOL    HW2   99   0.717   2.964   2.768 -0.3885 -0.3206 -0.1657
   34SOL     OW  100   1.427   2.942   0.671 -0.4648 -0.1355 -0.5990
   34SOL    HW1  101   1.400   3.013   0.741 -1.6869 -0.1297  2.1033
   34SOL    HW2  102   1.518   2.966   0.629  0.9865 -0.7732 -0.7649
   35SOL     OW  103   2.114   2.868   1.140  0.2525  0.3013 -0.1245
   35SOL    HW1  104   2.190   2.902   1.197  1.1934  0.1145  0.1990
   35SOL    HW2  105   2.032   2.883   1.198 -2.6666 -0.6721  0.6015
   36SOL     OW  106   2.033   2.333   2.343 -0.1099 -0.1618 -0.1144
   36SOL    HW1  107   1.994   2.307   2.437 -2.8506  0.0197 -0.8112
   36SOL    HW2  108   2.069   2.430   2.351 -1.8401  0.0807  0.1902
   37SOL     OW  109   0.886   0.119   2.249  0.0278 -0.3509  0.0778
   37SOL    HW1  110   0.874   0.098   2.154  1.8018  0.8725  1.7604
   37SOL    HW2  111   0.949   0.197   2.265  0.9391 -1.5099  1.4863
   38SOL     OW  112   0.189   2.514   2.619  0.1183  0.2219  0.2606
   38SOL    HW1  113   0.156   2.607   2.587 -0.4035  2.5317 -0.8112
   38SOL    HW2  114   0.269   2.482   2.569  0.8722 -1.8139  1.9561
   39SOL     OW  115   2.196   1.055   1.681  0.0926  0.5890  0.5756
   39SOL    HW1  116   2.192   1.018   1.585  0.4268  0.4688 -1.0576
   39SOL    HW2  117   2.148   1.144   1.682 -0.5742 -0.3233 -1.6050
   40SOL     OW  118   1.011   2.933   0.375  1.1847  0.0810 -0.5245
   40SOL    HW1  119   0.911   2.897   0.364 -0.7066 -3.1957  0.6796
   40SOL    HW2  120   1.033   3.006   0.309  1.0149 -1.1119 -2.9809
   41SOL     OW  121   2.142   1.143   1.209 -0.1387 -0.0865 -0.7326
   41SOL    HW1  122   2.224   1.128   1.150 -2.9789  1.3821  0.0267
   41SOL    HW2  123   2.137   1.245   1.229 -0.9114 -1.3811  0.4895
   42SOL     OW  124   0.448   0.567   0.989 -0.0762 -0.5234 -0.4367
   42SOL    HW1  125   0.476   0.664   0.983  0.5888 -0.0347 -2.7055
   42SOL    HW2  126   0.370   0.561   1.055  0.5435  1.0255  0.0907
   43SOL     OW  127   2.291   1.683   2.729  0.5567 -0.3027 -0.1977
   43SOL    HW1  128   2.308   1.613   2.801  0.4866  1.6727 -1.3685
   43SOL    HW2  129   2.330   1.662   2.639 -0.7026  1.7314  0.5006
   44SOL     OW  130   2.758   3.059   1.482  0.0210  0.1844 -0.2353
   44SOL    HW1  131   2.707   3.042   1.568  2.4883  2.6658  1.3688
   44SOL    HW2  132   2.826   0.031   1.500  3.0947  2.4875  0.4698
   45SOL     OW  133   0.512   2.724   1.629 -0.6228 -0.3840 -0.6492
   45SOL    HW1  134   0.426   2.775   1.609  0.0914  0.2460  0.7719
   45SOL    HW2  135   0.591   2.785   1.600  0.5213 -1.6514  1.4594
   46SOL     OW  136   1.997   0.175   2.426  0.1681  0.3209 -0.3887
   46SOL    HW1  137   2.084   0.130   2.384  0.6164 -0.4057 -0.1015
   46SOL    HW2  138   2.026   0.235   2.500  0.9573  0.3908  0.0583
   47SOL     OW  139   2.152   1.800   0.602 -0.1471 -0.0525  0.4644
   47SOL    HW1  140   2.145   1.787   0.703 -1.1158 -1.1499 -0.5204
   47SOL    HW2  141   2.079   1.749   0.554  1.2664  2.1397 -0.4711
   48SOL     OW  142   0.758   2.118   0.400  0.7422 -0.2465 -0.2086
   48SOL    HW1  143   0.701   2.208   0.393 -2.9477 -0.4248 -2.5250
   48SOL    HW2  144   0.794   2.095   0.307  1.0509  1.4194  1.1348
   49SOL     OW  145   2.395   0.345   2.564 -0.0830  0.1430 -0.6096
   49SOL    HW1  146   2.400   0.388   2.652 -0.5579  0.0009 -2.1828
   49SOL    HW2  147   2.394   0.242   2.567  0.7787 -3.1190 -0.1697
   50SOL     OW  148   1.964   0.839   0.190  0.3776 -0.8545 -0.1591
   50SOL    HW1  149   2.025   0.911   0.234  0.1046 -0.2230 -0.2438
   50SOL    HW2  150   1.870   0.854   0.230 -1.4857  4.2303  0.8915
   51SOL     OW  151   1.929   0.809   0.973  0.0189 -0.4159  0.2545
   51SOL    HW1  152   1.988   0.752   1.035 -0.9475  2.2712 -0.3114
   51SOL    HW2  153   1.857   0.754   0.928  0.8983  0.5791  0.5508
   52SOL     OW  154   1.352   1.686   1.641 -0.2942 -0.4823  0.1820
   52SOL    HW1  155   1.407   1.741   1.578 -1.0107 -0.5271  0.8802
   52SOL    HW2  156   1.392   1.696   1.737  0.7831 -2.6396 -1.2588
   53SOL     OW  157   0.697   1.784   2.208  0.6955  0.0220  0.6238
   53SOL    HW1  158   0.723   1.702   2.160 -0.0311  4.5932  0.6661
   53SOL    HW2  159   0.704   1.867   2.149  2.4878  1.2419  0.0306
   54SOL     OW  160   2.234   0.133   1.265  0.3277 -0.5932  0.3218
   54SOL    HW1  161   2.172   0.201   1.313  2.4361 -1.6332 -2.4358
   54SOL    HW2  162   2.259   0.168   1.171 -0.1143 -1.4748 -0.7800
   55SOL     OW  163   2.531   1.859   0.915  0.3885 -0.0326 -0.2854
   55SOL    HW1  164   2.559   1.953   0.891 -1.1288  0.3390  0.4210
   55SOL    HW2  165   2.549   1.800   0.835  0.3819 -0.1479  0.3293
   56SOL     OW  166   1.102   0.023   2.010  0.0512  0.1639 -0.4123
   56SOL    HW1  167   1.145   0.014   2.100  2.6593 -0.7501 -0.7081
   56SOL    HW2  168   1.169   0.017   1.935  0.7479 -2.1800 -0.2226
   57SOL     OW  169   1.248   1.536   0.129 -0.0148 -0.0266  0.6659
   57SOL    HW1  170   1.280   1.516   0.221 -4.1461  0.3357 -0.9602
   57SOL    HW2  171   1.213   1.454   0.081  0.2509  4.2687  1.9242
   58SOL     OW  172   0.293   0.578   2.168  0.0108 -1.3949 -0.2861
   58SOL    HW1  173   0.377   0.638   2.174  0.1757 -1.3294 -0.9121
   58SOL    HW2  174   0.293   0.510   2.244 -0.1600  3.0188  0.1831
   59SOL     OW  175   1.261   0.116   2.876  0.6093  0.4061  0.2364
   59SOL    HW1  176   1.162   0.118   2.903 -0.2879 -0.6155 -0.8708
   59SOL    HW2  177   1.331   0.105   2.954  0.9681 -1.4971 -0.0977
   60SOL     OW  178   0.032   1.998   0.165 -0.3420 -0.5064  0.2509
   60SOL    HW1  179   0.095   1.920   0.172 -1.8654  0.9099  0.7459
   60SOL    HW2  180   3.041   1.966   0.193 -0.3599 -0.0788 -1.0202
   61SOL     OW  181   1.128   2.294   0.463 -0.7546 -0.5088 -0.1515
   61SOL    HW1  182   1.067   2.245   0.531 -1.7004  0.7913 -2.0564
   61SOL    HW2  183   1.079   2.385   0.441 -3.5687  1.9797 -1.4092
   62SOL     OW  184   2.019   2.138   2.657  0.0094 -0.1340  0.2190
   62SOL    HW1  185   2.024   2.038   2.682 -0.5654 -2.9688 -0.9376
   62SOL    HW2  186   1.942   2.159   2.586 -0.6857 -0.9680 -3.0077
   63SOL     OW  187   2.337   2.062   0.382  0.4138 -0.0790 -0.0744
   63SOL    HW1  188   2.362   2.161   0.397  1.2561  1.1738  2.5558
   63SOL    HW2  189   2.375   2.023   0.292 -1.2742 -2.2230 -0.6556
   64SOL     OW  190   1.698   1.263   2.766  0.1855 -0.3352 -0.2278
   64SOL    HW1  191   1.758   1.184   2.757  1.1528  0.2226  0.5912
   64SOL    HW2  192   1.603   1.231   2.774  0.8282  0.5376 -0.1853
   65SOL     OW  193   1.395   2.183   2.954 -0.4227 -0.1931 -0.6015
   65SOL    HW1  194   1.442   2.103   2.995 -0.8067  0.2778 -1.7357
   65SOL    HW2  195   1.302   2.164   2.924  0.2371  0.0359  0.6040
   66SOL     OW  196   0.307   1.551   2.091  0.0319  0.2289  0.4121
   66SOL    HW1  197   0.358   1.550   2.180 -1.1991  1.6609  0.0219
   66SOL    HW2  198   0.260   1.462   2.076 -1.1319  4.0523 -2.2558
   67SOL     OW  199   2.853   2.764   2.801 -0.4883  0.1516 -0.2930
   67SOL    HW1  200   2.869   2.797   2.898  1.4361 -0.1376 -0.3649
   67SOL    HW2  201   2.758   2.779   2.770  1.9939  0.2326 -3.4003
   68SOL     OW  202   0.751   2.387   1.289 -0.1029  0.4129 -0.1789
   68SOL    HW1  203   0.712   2.466   1.239 -0.4114  0.9656  1.3894
   68SOL    HW2  204   0.836   2.346   1.253 -0.0961 -1.2481  0.0734
   69SOL     OW  205   0.710   2.687   0.682  0.4650  0.4278 -0.0172
   69SOL    HW1  206   0.692   2.587   0.699 -0.5379 -4.0649  0.2268
   69SOL    HW2  207   0.807   2.706   0.651  1.3285 -2.6871 -0.6439
   70SOL     OW  208   2.591   0.798   2.678  0.0148 -0.4087 -0.7462
   70SOL    HW1  209   2.578   0.770   2.583  1.2643  0.8901  1.0189
   70SOL    HW2  210   2.595   0.710   2.735  0.5312 -1.4116  2.5900
   71SOL     OW  211   0.507   1.157   2.537 -0.6153 -0.3834 -0.0942
   71SOL    HW1  212   0.519   1.241   2.483 -1.3143 -0.3736 -1.4433
   71SOL    HW2  213   0.498   1.184   2.632 -0.2622  3.4942 -1.9290
   72SOL     OW  214   0.141   1.740   0.384 -0.9811  0.4503  0.0231
   72SOL    HW1  215   0.200   1.754   0.303  0.3943 -4.9212 -0.9266
   72SOL    HW2  216   0.184   1.784   0.465  1.5260  2.3697 -1.6559
   73SOL     OW  217   0.694   1.422   0.753 -0.1149  0.3720 -0.2963
   73SOL    HW1  218   0.714   1.421   0.653 -1.0939  0.3069 -1.1612
   73SOL    HW2  219   0.598   1.387   0.776 -1.1329  1.3649  2.3758
   74SOL     OW  220   2.637   2.724   0.033 -0.4796 -0.1461 -0.1391
   74SOL    HW1  221   2.688   2.814   0.049 -1.6486 -0.0045  0.1048
   74SOL    HW2  222   2.540   2.737   0.024  1.5710 -1.5915 -1.2708
   75SOL     OW  223   2.098   1.538   1.631 -0.0358 -0.2337  0.1367
   75SOL    HW1  224   2.075   1.440   1.642  0.0552  0.4925 -0.1806
   75SOL    HW2  225   2.182   1.547   1.573  1.8010 -1.3983  1.6442
   76SOL     OW  226   1.807   2.422   1.779 -0.0043  0.0038  0.1285
   76SOL    HW1  227   1.797   2.492   1.703  2.4821  1.4930 -0.3664
   76SOL    HW2  228   1.764   2.459   1.867  1.2946  1.5316 -0.7226
   77SOL     OW  229   2.212   0.390   1.978  0.1402  0.2058 -0.1145
   77SOL    HW1  230   2.145   0.333   2.038  0.6802  0.5328  0.9412
   77SOL    HW2  231   2.302   0.391   2.026 -0.3834  1.4123  1.3189
   78SOL     OW  232   1.461   1.093   2.851  0.6826 -0.0030 -0.2622
   78SOL    HW1  233   1.420   1.064   2.942 -1.2077  0.0975 -1.4925
   78SOL    HW2  234   1.526   1.021   2.816  0.1179  0.4732  2.9660
   79SOL     OW  235   2.435   1.639   2.038 -0.4964 -0.3084  0.4933
   79SOL    HW1  236   2.343   1.637   1.993  1.2160  0.1388  1.1160
   79SOL    HW2  237   2.497   1.697   1.982 -1.1746 -0.5886 -0.5604
   80SOL     OW  238   1.856   1.438   1.268 -0.6589  0.6933  0.2549
   80SOL    HW1  239   1.812   1.384   1.342 -1.5283  1.3197  1.0358
   80SOL    HW2  240   1.953   1.414   1.274  0.1937 -3.4944 -0.0501
   81SOL     OW  241   1.336   0.702   1.757 -0.0666  0.2329 -0.1541
   81SOL    HW1  242   1.378   0.640   1.824 -7.6174  2.8929 -2.0564
   81SOL    HW2  243   1.400   0.775   1.733 -2.0384  1.6482  0.1860
   82SOL     OW  244   1.260   2.485   1.303  0.1478  0.2176 -0.2761
   82SOL    HW1  245   1.248   2.520   1.209 -0.9758 -2.5535  3.1732
   82SOL    HW2  246   1.275   2.555   1.377  1.2377 -2.1913 -0.2543
   83SOL     OW  247   0.104   0.291   0.474  0.5648 -0.2663 -0.0074
   83SOL    HW1  248   0.029   0.244   0.425  1.2753 -1.0840  0.8309
   83SOL    HW2  249   0.113   0.388   0.449  2.6366 -1.7465 -1.6078
   84SOL     OW  250   0.413   1.121   3.056 -0.4016 -0.2889 -0.0467
   84SOL    HW1  251   0.316   1.132   3.033  5.0112  0.5928  0.1956
   84SOL    HW2  252   0.426   1.121   0.051  0.0477 -0.0125 -1.1284
   85SOL     OW  253   2.536   1.853   1.917  0.2373 -0.5756 -0.3739
   85SOL    HW1  254   2.597   1.836   1.835  3.1488  1.8303  0.3483
   85SOL    HW2  255   2.467   1.931   1.906 -0.9036 -0.1932 -0.2648
   86SOL     OW  256   2.823   2.058   1.730  0.2690  0.3316 -0.2282
   86SOL    HW1  257   2.869   1.971   1.761  0.4347 -0.6929  0.9303
   86SOL    HW2  258   2.821   2.122   1.807 -2.5453  0.0890 -1.7022
   87SOL     OW  259   0.795   0.158   2.782 -0.0703  0.1338 -0.3603
   87SOL    HW1  260   0.778   0.089   2.708  3.9968 -0.6594 -1.6879
   87SOL    HW2  261   0.712   0.217   2.807 -1.6058  0.5481  4.3338
   88SOL     OW  262   0.276   2.247   1.123 -0.1621 -0.8116 -0.2681
   88SOL    HW1  263   0.339   2.202   1.057 -0.6826  1.3060 -0.8967
   88SOL    HW2  264   0.243   2.182   1.196  0.0412 -1.8929 -0.8572
   89SOL     OW  265   0.982   0.797   1.640  0.0160  0.0405  0.1047
   89SOL    HW1  266   1.061   0.754   1.594 -0.3350  0.1525 -1.4786
   89SOL    HW2  267   0.957   0.742   1.721  0.7528  1.5937  2.0526
   90SOL     OW  268   2.767   1.509   1.590 -0.0858 -0.3825  0.2793
   90SOL    HW1  269   2.857   1.516   1.540  2.7133 -0.4377  1.0817
   90SOL    HW2  270   2.787   1.483   1.686 -0.9938  0.1914  1.7877
   91SOL     OW  271   1.088   1.399   0.656  0.3169 -0.0861 -0.2900
   91SOL    HW1  272   1.055   1.480   0.604  0.0452 -1.9850  0.9190
   91SOL    HW2  273   1.026   1.378   0.738 -1.3383 -0.4132  1.1617
   92SOL     OW  274   2.212   0.641   0.889  0.3529  0.2686  0.4732
   92SOL    HW1  275   2.170   0.707   0.827  0.3281  0.1854  0.9311
   92SOL    HW2  276   2.218   0.677   0.986 -0.0694  1.1196  1.0177
   93SOL     OW  277   1.897   1.062   2.949 -0.7666  0.2846  0.5160
   93SOL    HW1  278   1.861   1.127   3.018  1.1279  0.6670 -0.6405
   93SOL    HW2  279   1.820   1.021   2.897  3.2832 -0.4360  1.8434
   94SOL     OW  280   2.533   1.960   2.292 -0.0532 -0.1575 -0.1959
   94SOL    HW1  281   2.456   1.890   2.300 -2.0676 -0.4737 -0.1479
   94SOL    HW2  282   2.508   2.048   2.336  0.6441  0.2045  3.3259
   95SOL     OW  283   1.985   0.344   0.854  0.9138  0.0799  0.6381
   95SOL    HW1  284   1.968   0.427   0.795 -2.5151  0.5586 -1.7387
   95SOL    HW2  285   2.038   0.267   0.803  0.0969 -2.8705  0.5418
   96SOL     OW  286   2.488   0.120   2.213  0.1358 -0.0853  0.0296
   96SOL    HW1  287   2.474   0.080   2.119 -1.8981  1.3580  0.3175
   96SOL    HW2  288   2.528   0.211   2.208 -1.0707  0.7955 -1.8104
   97SOL     OW  289   2.321   0.233   1.044  0.1323  0.4610  0.0578
   97SOL    HW1  290   2.297   0.310   0.975 -0.6673  0.7475 -4.7294
   97SOL    HW2  291   2.382   0.166   0.997  0.6717  1.0924 -0.1867
   98SOL     OW  292   1.560   2.321   1.604 -0.5128  0.2277  0.6274
   98SOL    HW1  293   1.539   2.315   1.504  1.0000  0.0519  1.8451
   98SOL    HW2  294   1.616   2.245   1.640  1.0645 -1.2043 -1.2619
   99SOL     OW  295   2.219   2.225   1.659  0.3264  0.2209 -0.6922
   99SOL    HW1  296   2.267   2.316   1.643  3.0796  0.5523  0.0629
   99SOL    HW2  297   2.124   2.238   1.703 -2.9408 -0.0101  1.0050
  100SOL     OW  298   0.441   0.743   2.797  0.6395 -0.0275 -0.0632
  100SOL    HW1  299   0.537   0.759   2.773 -5.0423 -0.7188  0.9905
  100SOL    HW2  300   0.423   0.721   2.892 -1.0793  1.0078 -1.9973
  101SOL     OW  301   2.120   0.421   2.894  0.3488  0.0290 -0.4461
  101SOL    HW1  302   2.114   0.345   2.964  0.0071 -1.7146  0.3741
  101SOL    HW2  303   2.185   0.488   2.930  1.7191 -0.8579 -1.3621
  102SOL     OW  304   0.114   0.624   1.600 -0.5588  0.3786  0.0282
  102SOL    HW1  305   0.131   0.724   1.606 -0.3899 -1.8875 -0.4476
  102SOL    HW2  306   0.188   0.583   1.543  1.1538 -1.1974 -2.2371
  103SOL     OW  307   2.941   0.970   2.673 -0.2903  0.0001  0.2209
  103SOL    HW1  308   2.982   1.052   2.626 -1.3327  0.1393  1.5322
  103SOL    HW2  309   2.930   0.894   2.614  0.2793  1.3498  4.8588
  104SOL     OW  310   0.721   0.193   2.464 -0.0463  0.2316  0.7135
  104SOL    HW1  311   0.774   0.257   2.523 -1.7170  0.8311 -2.0181
  104SOL    HW2  312   0.767   0.172   2.375  0.8338  0.0262 -0.1824
  105SOL     OW  313   2.361   1.736   1.682 -0.5820  0.4918 -0.5270
  105SOL    HW1  314   2.310   1.820   1.663  0.2677  0.4047  1.1807
  105SOL    HW2  315   2.361   1.671   1.607  1.5590  0.5285 -0.3426
  106SOL     OW  316   2.040   0.390   0.493 -0.1678  0.2935  0.2383
  106SOL    HW1  317   2.000   0.310   0.538  2.9004  1.0927 -2.9439
  106SOL    HW2  318   2.144   0.387   0.491  0.0507 -1.9438 -1.0673
  107SOL     OW  319   0.267   1.579   0.947 -0.0094 -0.0299 -0.4003
  107SOL    HW1  320   0.205   1.602   1.024  1.7842  0.7527  0.1379
  107SOL    HW2  321   0.310   1.658   0.908 -4.2071  0.5035  1.2532
  108SOL     OW  322   2.713   2.356   1.712 -0.0986 -0.1364 -0.2481
  108SOL    HW1  323   2.667   2.330   1.802  1.1848  2.6903  3.5054
  108SOL    HW2  324   2.702   2.276   1.646  0.7313 -2.7414  0.4999
  109SOL     OW  325   2.090   0.076   0.780 -0.6313 -0.8980  0.6151
  109SOL    HW1  326   2.185   0.109   0.778 -0.6466 -0.6105 -3.1320
  109SOL    HW2  327   2.090   3.083   0.811  2.0450  0.7784 -1.7798
  110SOL     OW  328   0.524   2.204   2.614 -0.2560  0.3421  0.2264
  110SOL    HW1  329   0.549   2.229   2.519 -1.3037 -1.5146  0.0320
  110SOL    HW2  330   0.557   2.109   2.646  1.5585  0.2955 -2.7175
  111SOL     OW  331   1.694   2.577   1.572 -0.1024  0.8740 -1.0434
  111SOL    HW1  332   1.634   2.495   1.600 -0.4260 -3.0893 -0.9965
  111SOL    HW2  333   1.649   2.643   1.510  2.5060 -3.8255  0.0720
  112SOL     OW  334   1.896   2.681   3.081 -0.2891  0.1593 -0.2152
  112SOL    HW1  335   1.812   2.710   3.028 -1.8234  1.1312 -0.8303
  112SOL    HW2  336   1.880   2.711   0.068 -0.6086 -0.6228 -2.8065
  113SOL     OW  337   1.967   2.433   1.345 -0.0918 -0.4268 -0.0411
  113SOL    HW1  338   1.918   2.373   1.408  1.6329  3.0298  0.6327
  113SOL    HW2  339   1.987   2.391   1.253 -0.2076 -2.7385 -0.0620
  114SOL     OW  340   2.761   0.774   0.775 -0.0193  0.2498  0.2250
  114SOL    HW1  341   2.663   0.756   0.809  0.9101  0.1942  0.7575
  114SOL    HW2  342   2.772   0.761   0.673  4.8794  0.6579 -5.2084
  115SOL     OW  343   0.681   1.049   2.987  0.3187  0.0993 -0.0134
  115SOL    HW1  344   0.581   1.043   3.010 -0.1484 -0.4948  0.1060
  115SOL    HW2  345   0.717   0.957   2.975 -2.3684 -0.6575  1.6008
  116SOL     OW  346   2.715   1.836   2.136  0.4564  0.4147 -0.3560
  116SOL    HW1  347   2.675   1.881   2.218 -2.4604  1.2804 -0.5765
  116SOL    HW2  348   2.649   1.833   2.054  0.2026  0.5256 -3.0104
  117SOL     OW  349   2.839   2.344   0.569  0.0221  0.1463  0.1643
  117SOL    HW1  350   2.890   2.335   0.656 -0.8171  0.2043 -0.6751
  117SOL    HW2  351   2.749   2.391   0.578  2.2004  0.6153 -0.9905
  118SOL     OW  352   1.052   1.941   2.003 -0.4813 -0.0011  0.1021
  118SOL    HW1  353   1.076   2.020   1.946 -1.2637 -2.5932  0.3441
  118SOL    HW2  354   0.964   1.906   1.982  0.9690  0.8955  1.2284
  119SOL     OW  355   0.143   1.929   2.776 -0.0415 -0.7521 -0.0691
  119SOL    HW1  356   0.096   1.960   2.867  1.4571  1.1168  1.7811
  119SOL    HW2  357   0.225   1.873   2.802  0.5396 -3.3991  1.0254
  120SOL     OW  358   1.116   0.918   2.958  0.3002 -0.0318  0.2703
  120SOL    HW1  359   1.185   0.975   3.017  1.1446 -0.2237  0.8790
  120SOL    HW2  360   1.129   0.945   2.859  1.1511  2.7254  0.5656
  121SOL     OW  361   1.617   2.712   0.844  0.1856  0.0923  0.2575
  121SOL    HW1  362   1.588   2.805   0.811  0.1548  0.2347 -1.5179
  121SOL    HW2  363   1.717   2.700   0.827 -2.4222  0.0995  0.8532
  122SOL     OW  364   2.229   2.519   1.624  0.3862  0.2590 -0.4019
  122SOL    HW1  365   2.133   2.532   1.616  1.9510  0.8503  0.1912
  122SOL    HW2  366   2.281   2.546   1.538  2.9284  0.4314 -1.5397
  123SOL     OW  367   0.311   2.740   0.653 -0.3898 -0.1781  0.4202
  123SOL    HW1  368   0.316   2.665   0.585 -1.6977  1.7023  0.9819
  123SOL    HW2  369   0.399   2.759   0.703 -0.1759 -0.4110 -0.7594
  124SOL     OW  370   2.315   1.194   2.582 -0.3206  0.2314 -0.3054
  124SOL    HW1  371   2.401   1.210   2.639  0.4765  0.5238  2.0717
  124SOL    HW2  372   2.310   1.101   2.549 -1.6184  2.9716 -1.6649
  125SOL     OW  373   0.614   0.875   0.288 -0.2152 -0.1907 -0.1279
  125SOL    HW1  374   0.591   0.804   0.357  0.6493  0.4627 -3.1547
  125SOL    HW2  375   0.663   0.955   0.321 -2.0199 -2.7411 -1.1427
  126SOL     OW  376   0.133   1.153   0.648  0.9196 -0.1851  0.0450
  126SOL    HW1  377   0.151   1.126   0.551  1.7635  0.4768  2.3080
  126SOL    HW2  378   0.146   1.254   0.669  0.1599  1.5815 -1.0323
  127SOL     OW  379   0.295   1.872   2.023 -0.1790 -0.0731 -0.0200
  127SOL    HW1  380   0.349   1.888   2.105 -1.1490 -1.3294 -1.9800
  127SOL    HW2  381   0.287   1.773   1.995  0.6215 -3.0849  0.2906
  128SOL     OW  382   0.843   1.239   0.050  0.1299  0.0643  0.0971
  128SOL    HW1  383   0.931   1.234   3.098 -2.4595  2.9534 -3.1716
  128SOL    HW2  384   0.770   1.184   0.003  0.7426  0.6085  0.6004
  129SOL     OW  385   2.685   1.194   0.780 -0.2114  0.2637  0.7513
  129SOL    HW1  386   2.586   1.202   0.809 -1.6833  3.5775  0.4888
  129SOL    HW2  387   2.732   1.123   0.837 -1.0282 -1.1197  1.9051
  130SOL     OW  388   2.227   0.934   1.443 -0.1423  0.9003 -0.7123
  130SOL    HW1  389   2.325   0.915   1.448  1.0933  0.8417  2.1425
  130SOL    HW2  390   2.198   1.000   1.371 -1.7588  0.7087  3.4717
  131SOL     OW  391   2.888   0.003   2.746  0.2474 -0.0768 -0.1484
  131SOL    HW1  392   2.879   3.008   2.727 -0.7486 -2.6542 -1.6105
  131SOL    HW2  393   2.952   0.017   2.823 -1.0058  0.2009  1.9278
  132SOL     OW  394   0.037   1.563   1.316 -0.6377 -0.5274 -0.0303
  132SOL    HW1  395   0.021   1.662   1.332  1.6689  1.4829 -1.3725
  132SOL    HW2  396   0.112   1.526   1.374 -1.3124  0.7824  0.1453
  133SOL     OW  397   0.986   0.532   1.345 -0.5170  0.3467 -0.0944
  133SOL    HW1  398   1.027   0.569   1.428  0.1270 -0.9578 -1.5846
  133SOL    HW2  399   0.896   0.497   1.374  0.6632 -0.3409  1.1498
  134SOL     OW  400   0.035   1.511   0.024  0.5700 -1.0408  0.2880
  134SOL    HW1  401   3.094   1.416   0.010 -2.1939 -0.0870 -0.4135
  134SOL    HW2  402   3.088   1.584   3.080 -0.0189 -0.7504  0.3518
  135SOL     OW  403   1.843   1.006   1.511 -0.4083 -0.0143  0.1988
  135SOL    HW1  404   1.918   0.971   1.562 -3.6328  1.2042  1.9762
  135SOL    HW2  405   1.864   1.010   1.408 -0.6436  0.6861 -0.9393
  136SOL     OW  406   0.167   1.011   0.222 -0.1715  0.1177  0.4081
  136SOL    HW1  407   0.102   0.951   0.169  2.5888  0.5110  0.3265
  136SOL    HW2  408   0.140   1.110   0.237 -1.0542 -4.1294 -2.4121
  137SOL     OW  409   2.842   1.011   0.885 -0.7419 -0.1088  0.0731
  137SOL    HW1  410   2.819   0.938   0.817 -0.1415  0.9221 -0.0168
  137SOL    HW2  411   2.941   1.038   0.884 -0.7784 -1.0627  1.3009
  138SOL     OW  412   1.452   0.948   1.122  0.1611 -0.5808  0.4266
  138SOL    HW1  413   1.358   0.985   1.128 -0.8173  0.9021 -0.1923
  138SOL    HW2  414   1.517   0.989   1.187 -2.6207 -1.7732  0.0994
  139SOL     OW  415   2.051   3.032   3.036  0.4624  0.5163 -0.0288
  139SOL    HW1  416   2.077   2.936   3.010  0.2676 -3.0509  1.6328
  139SOL    HW2  417   1.965   3.058   2.987 -2.0021 -0.2468 -1.3796
  140SOL     OW  418   1.450   1.749   1.363 -0.3990  0.1019  0.2557
  140SOL    HW1  419   1.495   1.755   1.272 -1.1912 -0.8697 -1.1687
  140SOL    HW2  420   1.445   1.840   1.410 -0.2504 -0.4494  0.7138
  141SOL     OW  421   1.851   1.880   0.568  0.2502 -0.1657  0.1267
  141SOL    HW1  422   1.874   1.979   0.559 -0.9091 -2.8998 -1.1820
  141SOL    HW2  423   1.757   1.871   0.611  0.1354  2.1006 -0.8053
  142SOL     OW  424   0.845   0.819   2.979  0.2261  0.0319 -0.4242
  142SOL    HW1  425   0.822   0.784   3.070  0.4773  1.9304 -0.3504
  142SOL    HW2  426   0.939   0.855   2.975  0.0616  0.5341  1.1007
  143SOL     OW  427   0.372   2.277   0.253  0.1422 -0.1827 -0.1415
  143SOL    HW1  428   0.361   2.291   0.151  0.2105 -2.2043 -3.1862
  143SOL    HW2  429   0.276   2.286   0.292 -0.5315  2.2249 -0.9771
  144SOL     OW  430   1.575   2.959   1.096 -0.4515  0.0198 -0.0489
  144SOL    HW1  431   1.496   3.022   1.089  0.0529 -1.9076  2.3980
  144SOL    HW2  432   1.541   2.868   1.114  0.8671  0.7603  0.7500
  145SOL     OW  433   2.128   1.316   0.173 -0.1710 -0.7907 -0.4176
  145SOL    HW1  434   2.174   1.240   0.127 -0.3607 -0.4285  0.1201
  145SOL    HW2  435   2.035   1.287   0.202  3.5471 -0.0631 -0.7461
  146SOL     OW  436   2.991   1.969   0.508 -0.0804  0.0302  0.2536
  146SOL    HW1  437   2.912   2.010   0.562  0.1315 -0.2242 -1.1814
  146SOL    HW2  438   2.960   1.951   0.413 -0.8674 -2.1588  1.6413
  147SOL     OW  439   2.520   3.007   1.638 -0.4554 -0.1612  0.5033
  147SOL    HW1  440   2.498   2.909   1.606 -5.1673  0.4852 -2.5942
  147SOL    HW2  441   2.597   3.005   1.704 -1.7930  1.2450 -2.0891
  148SOL     OW  442   1.566   3.002   1.952  0.1409  0.2355 -0.2623
  148SOL    HW1  443   1.592   2.942   1.868  1.7769 -0.1043 -0.8819
  148SOL    HW2  444   1.489   2.965   2.003 -1.2144 -0.0495 -1.5371
  149SOL     OW  445   1.795   0.723   2.141 -0.4938  0.5178 -0.0518
  149SOL    HW1  446   1.882   0.669   2.152  3.0757  0.9510 -0.6559
  149SOL    HW2  447   1.802   0.797   2.065 -1.5265  2.3687 -0.9436
  150SOL     OW  448   0.305   3.010   0.304  0.0163  0.6870 -0.2968
  150SOL    HW1  449   0.259   2.991   0.393 -0.8931 -1.0654 -0.6893
  150SOL    HW2  450   0.350   3.104   0.303 -0.7002  2.7933 -1.9226
  151SOL     OW  451   0.157   2.050   0.504 -0.0320 -0.1299  0.7534
  151SOL    HW1  452   0.063   2.010   0.500 -1.1083  0.6058 -1.0662
  151SOL    HW2  453   0.163   2.126   0.428 -2.1408  1.1707 -3.2210
  152SOL     OW  454   2.893   3.074   0.661 -0.3025 -0.1265 -0.3938
  152SOL    HW1  455   2.984   3.037   0.692 -0.7746 -2.1228  0.1047
  152SOL    HW2  456   2.816   3.024   0.710  0.7912 -1.8825  0.7526
  153SOL     OW  457   2.501   3.095   1.007 -0.2078  0.2267  0.1343
  153SOL    HW1  458   2.531   3.099   1.101 -0.5205  0.0786 -4.5399
  153SOL    HW2  459   2.487   3.000   0.975 -0.0614 -1.5948 -0.2643
  154SOL     OW  460   1.044   0.399   1.721 -0.6260  0.7780  0.3865
  154SOL    HW1  461   1.131   0.350   1.746 -0.3317 -1.2575 -1.4893
  154SOL    HW2  462   1.045   0.500   1.737  0.6536  0.2135  1.0449
  155SOL     OW  463   0.034   1.057   1.266 -0.5097 -0.0028 -0.1586
  155SOL    HW1  464   0.111   1.096   1.207  3.5393 -1.2362 -1.4119
  155SOL    HW2  465   3.048   1.100   1.256 -1.1314 -0.5712 -0.4168
  156SOL     OW  466   0.008   2.000   2.990 -0.2271  0.0922 -0.3437
  156SOL    HW1  467   0.023   1.998   3.094  1.1279 -0.9193  0.4596
  156SOL    HW2  468   3.074   2.091   2.962 -0.9290  3.2392 -0.9254
  157SOL     OW  469   1.014   0.752   0.213  0.2003 -0.2729  0.0043
  157SOL    HW1  470   1.057   0.755   0.303  1.2155 -3.8356  0.2360
  157SOL    HW2  471   1.053   0.825   0.152  1.1324 -0.9001 -1.5467
  158SOL     OW  472   2.569   0.008   2.598 -0.2184  0.1743  0.5656
  158SOL    HW1  473   2.635   0.084   2.611 -0.6913 -0.1586  3.0694
  158SOL    HW2  474   2.469   0.037   2.586 -0.1913 -0.0464 -1.4389
  159SOL     OW  475   0.760   0.310   0.420  0.2805  0.1958 -0.1322
  159SOL    HW1  476   0.855   0.276   0.424 -1.0176  2.3736 -0.5417
  159SOL    HW2  477   0.746   0.368   0.337  0.9678 -1.5956  2.4950
  160SOL     OW  478   1.105   2.187   2.919 -0.0229 -0.4607  0.5148
  160SOL    HW1  479   1.011   2.180   2.877 -0.4557 -1.1270  0.0933
  160SOL    HW2  480   1.097   2.254   2.997 -0.3262 -1.2760  0.5647
  161SOL     OW  481   3.090   1.542   2.391  0.1704 -0.3134  0.3375
  161SOL    HW1  482   0.036   1.580   2.314  0.7270 -0.1433  0.1210
  161SOL    HW2  483   3.012   1.601   2.416  3.4210 -0.5340 -1.6530
  162SOL     OW  484   0.450   2.504   1.494  0.0058 -0.3299  0.0489
  162SOL    HW1  485   0.463   2.588   1.551  0.8547  0.9815  0.9996
  162SOL    HW2  486   0.458   2.518   1.393  3.6002  0.4327  1.4504
  163SOL     OW  487   2.384   0.534   2.327 -0.0065 -0.1927 -0.2028
  163SOL    HW1  488   2.440   0.614   2.354  0.1824 -2.8356 -1.5422
  163SOL    HW2  489   2.371   0.473   2.412 -2.6074 -1.1278  1.5310
  164SOL     OW  490   2.721   1.263   0.509  0.7247  0.7927 -0.0643
  164SOL    HW1  491   2.706   1.363   0.498  0.7359  2.6481  0.5067
  164SOL    HW2  492   2.703   1.239   0.605  3.0564  0.6838 -1.7486
  165SOL     OW  493   0.184   0.288   1.437 -0.3422 -0.3779  0.0272
  165SOL    HW1  494   0.238   0.218   1.389 -1.0783  1.0669  0.6643
  165SOL    HW2  495   0.224   0.381   1.424 -0.3669 -0.1584 -0.4955
  166SOL     OW  496   2.090   0.864   0.746  0.3755  0.0536 -0.5233
  166SOL    HW1  497   2.034   0.849   0.831  1.2240  2.0646 -0.0740
  166SOL    HW2  498   2.030   0.876   0.659  0.8919 -0.8256 -2.5383
  167SOL     OW  499   0.374   0.486   0.157 -0.5198  0.1981 -0.4019
  167SOL    HW1  500   0.337   0.390   0.133 -0.3105 -2.7982  1.1800
  167SOL    HW2  501   0.349   0.562   0.091 -2.6997 -2.5428 -1.1989
  168SOL     OW  502   1.878   3.027   1.811  0.4275 -0.0509 -0.0524
  168SOL    HW1  503   1.857   0.012   1.766 -0.7069  0.9334 -0.1197
  168SOL    HW2  504   1.957   3.030   1.877 -0.4157  1.5924 -1.6466
  169SOL     OW  505   0.841   1.071   0.882  0.4582  0.0124  0.2168
  169SOL    HW1  506   0.866   0.979   0.856 -0.8645  1.4680 -1.8140
  169SOL    HW2  507   0.814   1.079   0.977  1.6729 -1.5659  0.0408
  170SOL     OW  508   3.005   0.208   1.369 -0.0338 -0.5174  0.0898
  170SOL    HW1  509   3.100   0.243   1.360 -0.3238 -2.5646 -2.0113
  170SOL    HW2  510   2.996   0.157   1.457 -0.4028  1.1378  2.3140
  171SOL     OW  511   1.288   2.801   2.560 -0.1524  0.3428 -0.0766
  171SOL    HW1  512   1.271   2.722   2.621 -1.1016  3.7154  0.2606
  171SOL    HW2  513   1.262   2.887   2.610  2.6282 -0.5611 -0.5178
  172SOL     OW  514   0.366   2.636   1.238  0.5394  0.3729  0.5713
  172SOL    HW1  515   0.458   2.609   1.205 -0.0209  0.8448  1.6712
  172SOL    HW2  516   0.321   2.686   1.160  3.4554  0.9542 -1.0640
  173SOL     OW  517   1.683   0.954   2.812 -0.4490  0.1679 -0.5704
  173SOL    HW1  518   1.654   0.864   2.858  0.6928 -2.1479 -0.1712
  173SOL    HW2  519   1.762   0.937   2.745 -0.4765 -0.0247  2.0866
  174SOL     OW  520   1.910   3.044   2.711 -0.2824 -0.2158 -0.1426
  174SOL    HW1  521   1.848   3.101   2.770  0.0515 -0.5628  0.9240
  174SOL    HW2  522   2.005   3.092   2.709  4.0053  1.4136 -2.4221
  175SOL     OW  523   2.132   2.497   0.317 -0.2776 -0.6110 -0.5786
  175SOL    HW1  524   2.060   2.574   0.314 -2.1267  2.3502 -0.2086
  175SOL    HW2  525   2.110   2.417   0.258  0.4926 -0.6768  1.6358
  176SOL     OW  526   2.174   0.164   3.033  0.2267  0.1084 -0.1474
  176SOL    HW1  527   2.240   0.185   3.103 -1.4317 -0.0445  1.6311
  176SOL    HW2  528   2.119   0.082   3.051 -0.9099 -1.0472 -2.7784
  177SOL     OW  529   0.972   1.646   0.607  0.6784 -0.0975 -0.1933
  177SOL    HW1  530   1.048   1.701   0.570 -1.7653 -2.1155 -0.3221
  177SOL    HW2  531   0.886   1.671   0.555 -0.4234 -2.5383 -1.8017
  178SOL     OW  532   2.785   2.129   2.990 -0.1585  1.0348  0.1576
  178SOL    HW1  533   2.717   2.200   2.958 -0.7011 -1.7414 -1.7075
  178SOL    HW2  534   2.856   2.105   2.916  1.7249 -3.2465  0.2454
  179SOL     OW  535   0.658   2.903   2.932 -0.0683 -0.0141  0.6556
  179SOL    HW1  536   0.742   2.852   2.966  0.4602  3.2494  1.2598
  179SOL    HW2  537   0.580   2.839   2.923 -0.2485  1.5434  2.4207
  180SOL     OW  538   1.358   1.438   0.798 -0.1963  0.2487 -0.0010
  180SOL    HW1  539   1.361   1.518   0.870  1.1864  2.5239  3.6227
  180SOL    HW2  540   1.265   1.422   0.763  1.2483 -0.6556  2.9043
  181SOL     OW  541   2.297   0.980   2.178 -0.0067 -0.0701  0.5339
  181SOL    HW1  542   2.229   1.038   2.129 -4.6174 -0.2677 -0.8023
  181SOL    HW2  543   2.275   0.881   2.165  0.0352  0.7992  1.5101
  182SOL     OW  544   0.174   2.905   2.275  0.3072 -0.5476 -0.3779
  182SOL    HW1  545   0.072   2.916   2.259  0.7321  1.2146 -0.1485
  182SOL    HW2  546   0.232   2.944   2.198 -0.8452  1.0330 -1.4200
  183SOL     OW  547   1.304   0.726   2.335  0.1047  0.0304  0.3301
  183SOL    HW1  548   1.404   0.746   2.330 -0.2458 -1.3186  1.6174
  183SOL    HW2  549   1.284   0.675   2.251  0.8733  0.1951 -0.6449
  184SOL     OW  550   0.495   0.774   1.776 -0.4626 -0.8253 -0.0990
  184SOL    HW1  551   0.573   0.824   1.746 -2.0034  1.1657 -1.1809
  184SOL    HW2  552   0.447   0.832   1.846 -1.2653 -1.4099 -0.3817
  185SOL     OW  553   1.946   1.125   0.410  0.3893 -0.2915 -0.2488
  185SOL    HW1  554   1.892   1.187   0.345  0.9989 -0.2696 -0.6873
  185SOL    HW2  555   2.020   1.074   0.360 -3.6902  0.2217 -0.3494
  186SOL     OW  556   0.261   2.350   3.088 -0.0086  0.1010  0.0064
  186SOL    HW1  557   0.320   2.288   3.028  0.2301 -0.8848 -0.7475
  186SOL    HW2  558   0.173   2.303   0.003  2.0980 -0.0185  0.1681
  187SOL     OW  559   2.489   1.281   0.081 -0.0239  0.2088  0.2420
  187SOL    HW1  560   2.401   1.236   0.071 -0.5940  1.2039 -0.5850
  187SOL    HW2  561   2.538   1.255   0.167  1.5554 -0.5750 -2.4424
  188SOL     OW  562   0.149   1.429   0.743  0.8056 -0.1202 -0.1923
  188SOL    HW1  563   0.192   1.450   0.831 -1.5020  1.3507 -0.6390
  188SOL    HW2  564   0.053   1.457   0.741  2.3123  0.5044  1.9374
  189SOL     OW  565   2.667   0.267   0.169  0.7163 -0.1238  0.3346
  189SOL    HW1  566   2.681   0.215   0.081 -0.9983  2.2271 -0.6083
  189SOL    HW2  567   2.653   0.198   0.242 -0.6207  3.5916 -0.0813
  190SOL     OW  568   1.274   1.577   2.067  0.4956 -0.2298  0.1100
  190SOL    HW1  569   1.211   1.573   2.148 -0.4713  1.9305  1.6167
  190SOL    HW2  570   1.304   1.483   2.057 -1.5560  4.0012  0.6836
  191SOL     OW  571   2.779   0.343   1.655 -0.2973 -0.2616  0.0145
  191SOL    HW1  572   2.774   0.413   1.583 -0.7065  0.3817  0.8060
  191SOL    HW2  573   2.684   0.322   1.684 -1.6575 -0.4934  1.2220
  192SOL     OW  574   1.703   1.529   1.073 -0.0538  0.4531 -0.5864
  192SOL    HW1  575   1.771   1.493   1.136  0.1901  0.2534 -1.8248
  192SOL    HW2  576   1.741   1.536   0.980 -3.6094 -0.5750  0.8894
  193SOL     OW  577   0.892   0.812   0.831  0.5628  0.5468  0.3551
  193SOL    HW1  578   0.878   0.805   0.734  0.9428  1.2426  1.6417
  193SOL    HW2  579   0.916   0.721   0.864  0.6878  2.2046  0.6398
  194SOL     OW  580   1.095   2.333   1.467  0.2399 -0.1184  0.3304
  194SOL    HW1  581   1.157   2.373   1.397  0.7082  0.9242  1.7947
  194SOL    HW2  582   1.058   2.402   1.532 -0.6560  1.7013  1.7787
  195SOL     OW  583   2.436   0.406   2.843 -0.2745  0.4288  0.4016
  195SOL    HW1  584   2.444   0.306   2.856 -0.8507 -1.0429 -0.4439
  195SOL    HW2  585   2.380   0.446   2.917  2.1889  2.1774  2.5760
  196SOL     OW  586   1.057   2.501   1.674  0.1660  0.5080 -0.2883
  196SOL    HW1  587   1.034   2.474   1.773 -0.8507  0.4844  0.8984
  196SOL    HW2  588   0.986   2.571   1.645 -0.1527  2.0103 -0.4137
  197SOL     OW  589   0.784   2.815   1.119  0.2936 -0.2479 -0.2800
  197SOL    HW1  590   0.725   2.896   1.114  1.8138 -0.3456 -1.7978
  197SOL    HW2  591   0.849   2.809   1.041  1.9287 -0.4282  0.9731
  198SOL     OW  592   0.858   0.793   0.551 -0.4461  0.2574  0.5836
  198SOL    HW1  593   0.837   0.695   0.546  0.2714  1.9211 -1.0778
  198SOL    HW2  594   0.780   0.848   0.509 -0.3844  0.0667 -0.5333
  199SOL     OW  595   0.360   2.900   1.906  0.8824  0.1570  0.1258
  199SOL    HW1  596   0.410   2.819   1.930 -0.6133 -0.2278 -0.3535
  199SOL    HW2  597   0.337   2.904   1.804  0.3305  1.2367  0.2937
  200SOL     OW  598   2.080   1.975   2.287  0.4522  0.0381 -0.7763
  200SOL    HW1  599   2.095   1.886   2.240 -0.8743  2.2569 -3.5672
  200SOL    HW2  600   2.149   2.046   2.263  0.2307  1.6216 -0.5147
  201SOL     OW  601   2.951   2.190   1.512 -0.0909 -0.3759 -0.6813
  201SOL    HW1  602   2.890   2.174   1.433 -0.0664  0.3889 -0.9050
  201SOL    HW2  603   2.904   2.148   1.598 -2.5486 -0.4268  0.2696
  202SOL     OW  604   2.614   3.105   0.297 -0.5628  0.8057 -0.3703
  202SOL    HW1  605   2.698   3.063   0.327 -1.0572  2.4132  0.6543
  202SOL    HW2  606   2.590   3.078   0.202 -0.1357  0.6066  0.6597
  203SOL     OW  607   1.298   2.085   2.272 -1.1112  0.6676  0.1688
  203SOL    HW1  608   1.245   1.999   2.259  0.7429  0.0697 -1.1832
  203SOL    HW2  609   1.358   2.074   2.352 -2.4041  1.2910  1.8021
  204SOL     OW  610   1.448   2.097   1.281 -0.0240 -0.2655 -0.2715
  204SOL    HW1  611   1.469   2.197   1.290 -1.5096 -0.1865  2.2262
  204SOL    HW2  612   1.436   2.060   1.380 -1.4811 -0.4446  2.9340
  205SOL     OW  613   1.032   1.661   1.932 -0.0586  0.0310  0.1411
  205SOL    HW1  614   1.123   1.634   1.968  0.2723 -0.7187  1.3280
  205SOL    HW2  615   0.958   1.605   1.972  0.1852 -0.0097  0.2608
  206SOL     OW  616   0.289   0.625   2.605  0.2668 -0.3255  0.1073
  206SOL    HW1  617   0.329   0.677   2.680 -1.4547  1.9484 -0.2027
  206SOL    HW2  618   0.341   0.545   2.576 -1.4018  2.3763 -3.1452
  207SOL     OW  619   0.865   3.095   1.868 -0.0980  0.2236  0.2808
  207SOL    HW1  620   0.824   0.080   1.840 -1.4993  0.5454  0.4542
  207SOL    HW2  621   0.950   3.102   1.922 -0.6392  1.6510 -1.0193
  208SOL     OW  622   0.655   2.439   1.846 -0.0708 -0.0166  0.0394
  208SOL    HW1  623   0.713   2.522   1.861  0.4344  0.5047 -1.5159
  208SOL    HW2  624   0.696   2.372   1.792 -2.1348  4.5089  2.9970
  209SOL     OW  625   1.568   0.692   0.073 -0.0546 -0.6306  0.1645
  209SOL    HW1  626   1.596   0.704   3.083  0.8102  0.8739  1.6755
  209SOL    HW2  627   1.550   0.592   0.087 -1.7353  1.1623  1.7095
  210SOL     OW  628   2.964   0.524   0.662  0.2780  0.2532 -0.4818
  210SOL    HW1  629   2.958   0.536   0.764 -1.0402 -2.2006  1.4185
  210SOL    HW2  630   2.937   0.427   0.643  1.1723  0.8607  1.4660
  211SOL     OW  631   0.603   0.692   1.325 -0.2672 -0.4490  0.0326
  211SOL    HW1  632   0.666   0.630   1.378 -2.1126 -2.2085  1.0133
  211SOL    HW2  633   0.534   0.729   1.393  1.0163  1.8176 -1.8670
  212SOL     OW  634   1.339   1.632   0.959 -0.0117 -0.5055  0.2389
  212SOL    HW1  635   1.251   1.678   0.949  0.0795 -0.9573  1.4027
  212SOL    HW2  636   1.397   1.675   1.033  2.1116  2.0224  0.8186
  213SOL     OW  637   1.862   0.112   1.591 -0.3111  0.1263 -0.0908
  213SOL    HW1  638   1.953   0.068   1.604 -0.1651 -1.4033  0.0335
  213SOL    HW2  639   1.797   0.053   1.532 -0.8362  0.7205 -3.1996
  214SOL     OW  640   1.257   2.585   2.722  0.5879 -0.0584  0.3450
  214SOL    HW1  641   1.276   2.566   2.824  0.6855  0.9545  0.3164
  214SOL    HW2  642   1.292   2.505   2.667 -1.0379  2.9256 -1.4338
  215SOL     OW  643   2.882   1.802   1.180 -0.2329  0.3177 -0.3139
  215SOL    HW1  644   2.789   1.847   1.185 -0.3149 -0.2120  1.1214
  215SOL    HW2  645   2.885   1.704   1.155  0.9418  0.3501 -0.7489
  216SOL     OW  646   0.251   0.447   1.936 -0.1123  0.3413  0.1139
  216SOL    HW1  647   0.163   0.457   1.887 -1.1934  0.2105 -0.3880
  216SOL    HW2  648   0.250   0.499   2.024 -3.7189 -1.2539 -2.3497
  217SOL     OW  649   2.993   0.197   0.315  0.2030 -0.1738 -0.1089
  217SOL    HW1  650   2.916   0.256   0.336  3.5997 -1.7098 -0.5549
  217SOL    HW2  651   2.965   0.102   0.314  0.4159  0.6507 -0.6250
  218SOL     OW  652   1.767   1.854   1.527  0.4235 -0.6115 -0.1056
  218SOL    HW1  653   1.813   1.815   1.609 -1.2588 -2.1173  1.3204
  218SOL    HW2  654   1.788   1.805   1.441  0.8272 -1.9944 -1.0712
  219SOL     OW  655   1.720   0.844   0.269 -0.3966 -0.3122  0.6305
  219SOL    HW1  656   1.726   0.789   0.350 -0.6238 -1.2301 -0.4376
  219SOL    HW2  657   1.652   0.804   0.207  2.2414  1.2836 -0.0909
  220SOL     OW  658   1.632   1.940   0.714  0.0086 -0.3166 -0.7620
  220SOL    HW1  659   1.567   2.021   0.713  0.4302 -0.4480  0.5979
  220SOL    HW2  660   1.580   1.852   0.718  2.3002 -1.9889  1.3972
  221SOL     OW  661   3.040   0.410   2.980 -1.0497  0.1286  0.1666
  221SOL    HW1  662   3.094   0.409   2.891  0.2011 -1.0249 -1.1857
  221SOL    HW2  663   3.027   0.509   3.004  0.4716  1.4759  1.4563
  222SOL     OW  664   0.915   2.718   1.615  0.2060 -0.2398  0.1371
  222SOL    HW1  665   0.915   2.820   1.629  0.7843 -1.2202  0.1832
  222SOL    HW2  666   0.889   2.692   1.522 -1.2577 -0.3705  1.5492
  223SOL     OW  667   1.608   0.688   2.893  0.2877  0.6420 -0.2566
  223SOL    HW1  668   1.685   0.628   2.859  0.3094 -0.1503 -2.8305
  223SOL    HW2  669   1.519   0.640   2.880 -2.1122 -0.6599  1.5870
  224SOL     OW  670   2.720   0.526   1.132 -0.8434  0.5920  0.0055
  224SOL    HW1  671   2.760   0.474   1.214 -0.9025 -1.2483 -0.1027
  224SOL    HW2  672   2.623   0.517   1.128  3.2521 -2.5078 -2.6727
  225SOL     OW  673   0.600   1.370   1.706 -0.0683 -0.7921 -0.1176
  225SOL    HW1  674   0.620   1.428   1.625  2.0153 -1.7257 -2.9620
  225SOL    HW2  675   0.512   1.323   1.698  1.5783  0.6431  1.4940
  226SOL     OW  676   1.009   0.040   0.723 -0.2935 -0.0738 -0.0155
  226SOL    HW1  677   1.063   3.070   0.682 -1.9287 -0.2417  1.8901
  226SOL    HW2  678   0.996   0.017   0.818  0.5386 -0.1425 -1.8067
  227SOL     OW  679   0.915   1.950   1.571 -0.4477  0.2049 -0.5562
  227SOL    HW1  680   0.934   1.907   1.484 -0.9319  0.1324  0.8720
  227SOL    HW2  681   0.984   1.910   1.640 -2.0469 -1.3806  0.4630
  228SOL     OW  682   0.561   3.076   1.708 -0.0130  0.5089 -0.3300
  228SOL    HW1  683   0.590   0.014   1.791  1.5940 -3.4831 -0.8831
  228SOL    HW2  684   0.464   3.039   1.715  0.5352  0.1287 -0.3752
  229SOL     OW  685   2.462   0.761   0.565 -0.2947 -0.1190  0.0887
  229SOL    HW1  686   2.504   0.672   0.588 -0.0684  2.6072 -0.1163
  229SOL    HW2  687   2.528   0.826   0.533  1.2176 -4.2723  1.3277
  230SOL     OW  688   0.346   1.173   2.210  0.1493 -0.0263  0.2696
  230SOL    HW1  689   0.352   1.093   2.276  0.7158 -2.5932  0.9903
  230SOL    HW2  690   0.429   1.219   2.179 -0.3478  1.0815  0.7141
  231SOL     OW  691   1.225   2.802   1.294 -0.9594 -0.2125 -0.2751
  231SOL    HW1  692   1.171   2.723   1.335 -3.9737 -0.4518  1.1706
  231SOL    HW2  693   1.292   2.846   1.352 -1.6107  0.4198 -2.3051
  232SOL     OW  694   2.547   2.406   0.216  0.4171 -0.5609  0.3233
  232SOL    HW1  695   2.631   2.463   0.219 -1.0383 -0.1427  0.2668
  232SOL    HW2  696   2.520   2.379   0.123 -0.0107  0.0563 -0.3863
  233SOL     OW  697   1.240   2.782   0.382  0.0958 -0.2379  0.5973
  233SOL    HW1  698   1.152   2.833   0.394 -2.1963 -1.5541 -1.6736
  233SOL    HW2  699   1.254   2.755   0.284  2.1659 -3.0164 -0.1041
  234SOL     OW  700   0.988   0.713   2.149  0.8992  0.2655  0.6664
  234SOL    HW1  701   0.935   0.637   2.187  2.1259  0.9256 -1.8719
  234SOL    HW2  702   1.033   0.766   2.221  0.7061 -2.0723  1.1470
  235SOL     OW  703   0.129   2.295   0.372  0.6871  0.1286 -0.1522
  235SOL    HW1  704   0.155   2.382   0.417  0.5827 -2.7730 -0.5408
  235SOL    HW2  705   0.032   2.278   0.352 -0.2069 -1.9020 -0.7903
  236SOL     OW  706   2.124   2.749   2.493  0.2139  0.0766  0.1033
  236SOL    HW1  707   2.216   2.783   2.460 -0.2986  0.6183 -1.2967
  236SOL    HW2  708   2.064   2.716   2.412  1.3970 -1.5085 -2.5395
  237SOL     OW  709   1.779   1.306   1.508 -0.4170 -0.1993 -0.2755
  237SOL    HW1  710   1.756   1.207   1.518 -1.4558 -1.7292  2.7069
  237SOL    HW2  711   1.692   1.352   1.522  0.4288 -0.9932 -1.4300
  238SOL     OW  712   1.723   0.113   2.376 -0.2815 -0.0289 -0.4398
  238SOL    HW1  713   1.820   0.089   2.399  1.2070  0.0030 -0.8440
  238SOL    HW2  714   1.704   0.084   2.281 -1.4418  0.0700  0.7177
  239SOL     OW  715   0.844   2.179   1.699 -0.2101  1.0530  0.1746
  239SOL    HW1  716   0.791   2.234   1.636  1.7122  0.7862  2.1545
  239SOL    HW2  717   0.879   2.093   1.658  0.5862  0.6297 -2.0955
  240SOL     OW  718   2.960   2.730   0.714  0.2579  0.2589  0.4270
  240SOL    HW1  719   2.981   2.657   0.650  1.0849  0.0187 -0.0944
  240SOL    HW2  720   2.944   2.690   0.804  2.0235  1.4317 -3.5653
  241SOL     OW  721   1.496   2.052   0.401 -0.4030 -0.0601  0.0519
  241SOL    HW1  722   1.449   1.966   0.425  0.0849  2.3171  0.4306
  241SOL    HW2  723   1.602   2.045   0.397  0.5800  1.5509  1.4300
  242SOL     OW  724   2.250   1.149   0.024 -0.0630 -0.2039  0.5544
  242SOL    HW1  725   2.265   1.061   0.073  0.0127  0.0405 -0.8627
  242SOL    HW2  726   2.215   1.141   3.034  3.3956  0.8048 -0.9892
  243SOL     OW  727   0.722   0.422   1.914  0.1144  0.1467  0.5039
  243SOL    HW1  728   0.751   0.348   1.848 -1.9126 -1.6048  3.5103
  243SOL    HW2  729   0.628   0.454   1.881 -0.9860 -0.9712 -1.4642
  244SOL     OW  730   1.674   2.770   2.930 -0.3599  0.1123 -0.3000
  244SOL    HW1  731   1.624   2.855   2.911 -1.5219 -0.7916  2.7831
  244SOL    HW2  732   1.740   2.754   2.857 -2.5415 -0.6382  3.2290
  245SOL     OW  733   1.796   0.045   2.955 -0.0202  0.3088  0.3834
  245SOL    HW1  734   1.794   0.147   2.941 -1.3104  3.7069 -1.0029
  245SOL    HW2  735   1.708   0.009   2.982  2.6495 -1.8744  1.1954
  246SOL     OW  736   1.228   1.204   2.469 -0.4538  0.1074 -0.6156
  246SOL    HW1  737   1.314   1.242   2.421  0.7527 -0.2818 -0.9238
  246SOL    HW2  738   1.150   1.271   2.478  1.2561 -1.7327 -0.9131
  247SOL     OW  739   2.750   0.517   2.085  0.3307 -0.3772 -0.1143
  247SOL    HW1  740   2.816   0.467   2.026  1.1356 -5.4200 -0.8310
  247SOL    HW2  741   2.733   0.610   2.047 -1.5959 -0.9195  0.7617
  248SOL     OW  742   0.399   0.995   1.966  0.1684 -0.4277  0.2768
  248SOL    HW1  743   0.302   0.979   1.938 -1.1667  0.0762 -0.0293
  248SOL    HW2  744   0.420   1.090   2.000 -0.3560  1.5556 -0.9910
  249SOL     OW  745   2.526   0.476   0.093  0.0371 -0.1435 -0.0385
  249SOL    HW1  746   2.497   0.519   0.185  1.3790  2.6603 -0.0919
  249SOL    HW2  747   2.582   0.393   0.107 -1.7930 -1.9195  0.2032
  250SOL     OW  748   2.859   0.269   0.597 -0.3333  0.1880 -0.1954
  250SOL    HW1  749   2.763   0.241   0.564 -1.6405  0.2966  0.8412
  250SOL    HW2  750   2.889   0.187   0.655  1.4912 -1.6284  3.0303
  251SOL     OW  751   0.869   1.069   2.275 -0.0792 -0.1762  0.1424
  251SOL    HW1  752   0.894   0.982   2.322  3.4538  1.4298  1.8531
  251SOL    HW2  753   0.948   1.129   2.244  0.0790  1.4812  0.7448
  252SOL     OW  754   1.463   1.690   1.897  0.6590  0.1141  0.2568
  252SOL    HW1  755   1.394   1.637   1.947  2.1444  0.0532 -1.3072
  252SOL    HW2  756   1.528   1.629   1.840  1.3551 -0.1827  0.7868
  253SOL     OW  757   1.412   2.561   1.951  0.0803 -0.4654 -0.1111
  253SOL    HW1  758   1.514   2.550   1.973  0.5287  1.4821 -1.7456
  253SOL    HW2  759   1.375   2.491   1.890 -1.2979  2.6340  0.7690
  254SOL     OW  760   0.858   2.256   2.318  0.0499  0.3429  0.1994
  254SOL    HW1  761   0.840   2.168   2.272  0.6665 -3.5008  1.0483
  254SOL    HW2  762   0.829   2.334   2.260  1.2873 -1.4965  0.5647
  255SOL     OW  763   1.313   0.523   0.604  0.2694  0.3626  0.2992
  255SOL    HW1  764   1.383   0.542   0.677 -3.7236  0.3531 -0.8908
  255SOL    HW2  765   1.219   0.511   0.640 -0.9480 -0.2057  0.0748
  256SOL     OW  766   1.868   2.155   1.102  0.2430 -0.3157  0.5661
  256SOL    HW1  767   1.926   2.241   1.096 -0.9790 -0.2815 -2.3514
  256SOL    HW2  768   1.843   2.129   1.010 -1.1354  1.2457  3.1656
  257SOL     OW  769   0.230   2.145   2.623  0.0893  0.7295  0.0205
  257SOL    HW1  770   0.331   2.157   2.613  1.8777 -0.7573 -2.0268
  257SOL    HW2  771   0.201   2.055   2.665 -2.2801 -0.7214 -2.4421
  258SOL     OW  772   0.373   0.948   2.383  1.1052 -0.1679 -0.2478
  258SOL    HW1  773   0.422   1.012   2.444 -3.1098 -1.9039 -0.7260
  258SOL    HW2  774   0.281   0.919   2.420  1.0436 -2.0363  1.8091
  259SOL     OW  775   1.242   0.915   2.525  0.1662 -0.3498 -0.9071
  259SOL    HW1  776   1.251   1.003   2.482 -1.3005 -2.6105  1.5757
  259SOL    HW2  777   1.275   0.838   2.471  1.1318  4.3601 -0.2752
  260SOL     OW  778   1.942   0.591   0.647  0.3064  0.3090 -0.0185
  260SOL    HW1  779   1.940   0.683   0.598 -0.9205  1.0267 -1.5093
  260SOL    HW2  780   1.985   0.526   0.586 -2.5739  0.9799 -4.2533
  261SOL     OW  781   1.126   0.639   2.984 -0.3133  0.0299  0.8150
  261SOL    HW1  782   1.137   0.737   2.994  1.8853 -0.3085 -1.3263
  261SOL    HW2  783   1.079   0.591   3.056  1.9463  0.8033  0.8588
  262SOL     OW  784   2.185   2.704   2.764  0.1456  0.3489  0.4224
  262SOL    HW1  785   2.214   2.608   2.771 -4.8390  1.8230 -0.2511
  262SOL    HW2  786   2.168   2.719   2.662 -0.5517  0.0442  2.0221
  263SOL     OW  787   0.812   2.074   0.139  0.1025 -0.5025  0.2166
  263SOL    HW1  788   0.864   1.992   0.103  0.1610 -1.1683 -0.7600
  263SOL    HW2  789   0.828   2.157   0.081 -3.3476 -0.7389  0.0396
  264SOL     OW  790   0.363   1.739   1.639 -0.2101 -0.4843 -0.2254
  264SOL    HW1  791   0.392   1.681   1.715  0.5460  1.6198 -0.6195
  264SOL    HW2  792   0.323   1.822   1.684  1.5226 -2.0591  0.7611
  265SOL     OW  793   0.760   1.030   0.478 -0.1002  0.1324  0.0012
  265SOL    HW1  794   0.702   1.037   0.558 -0.7136  1.6560 -0.9689
  265SOL    HW2  795   0.846   1.083   0.479 -1.4177  0.9474 -1.8558
  266SOL     OW  796   1.679   1.635   0.091  0.5302  0.6115  0.1573
  266SOL    HW1  797   1.767   1.684   0.085  0.5662  1.4951 -1.0547
  266SOL    HW2  798   1.607   1.695   0.138 -0.2385  3.2439  0.4821
  267SOL     OW  799   2.787   0.290   2.975  0.0216 -0.2067  0.3275
  267SOL    HW1  800   2.881   0.334   2.975  0.5109 -2.1265 -2.5101
  267SOL    HW2  801   2.761   0.282   2.875  1.8366 -0.9847  1.3492
  268SOL     OW  802   0.330   0.222   2.944 -0.3181 -0.0897 -0.6021
  268SOL    HW1  803   0.419   0.275   2.935  0.0139  0.5718 -3.3918
  268SOL    HW2  804   0.305   0.165   2.863 -3.2197 -0.2656 -2.8778
  269SOL     OW  805   1.719   0.386   2.616 -0.0448 -0.3043 -0.3867
  269SOL    HW1  806   1.673   0.339   2.539  1.6160  0.5674  2.1111
  269SOL    HW2  807   1.695   0.348   2.710 -1.1741 -3.8422  0.9847
  270SOL     OW  808   1.070   0.742   2.667 -0.2995  0.1732 -0.1984
  270SOL    HW1  809   1.149   0.804   2.657 -2.9989  0.7007  0.3134
  270SOL    HW2  810   1.026   0.751   2.754  1.7083  0.6546 -1.3633
  271SOL     OW  811   2.550   0.828   0.048  0.3960 -0.2214 -0.0402
  271SOL    HW1  812   2.573   0.913   3.101  1.8466  0.9029  0.2581
  271SOL    HW2  813   2.608   0.749   0.018  1.1585  1.8439  1.4491
  272SOL     OW  814   2.538   1.838   2.576 -0.2133  0.4781 -0.2325
  272SOL    HW1  815   2.604   1.905   2.544  0.7753 -5.3208  0.2780
  272SOL    HW2  816   2.444   1.870   2.555 -0.6398  3.5689  1.5417
  273SOL     OW  817   2.644   0.563   2.786 -0.4191 -0.4953 -0.1719
  273SOL    HW1  818   2.562   0.506   2.812 -1.4978  0.1210  1.0892
  273SOL    HW2  819   2.716   0.520   2.732 -1.2610  0.3678  0.6040
  274SOL     OW  820   3.066   2.977   1.483  0.0561  0.6341 -0.0172
  274SOL    HW1  821   3.034   2.910   1.554 -0.3625 -0.3075 -0.0335
  274SOL    HW2  822   3.039   3.074   1.505  0.7907 -1.2523  2.0514
  275SOL     OW  823   2.111   1.397   0.800 -0.3826 -0.5446  0.2123
  275SOL    HW1  824   2.191   1.336   0.776  1.7885 -0.7234 -1.0396
  275SOL    HW2  825   2.027   1.366   0.748 -0.9084  0.2228 -0.1550
  276SOL     OW  826   0.243   1.412   2.795 -0.3225 -0.0965  0.1392
  276SOL    HW1  827   0.340   1.388   2.795  0.0663 -0.0580  1.2505
  276SOL    HW2  828   0.230   1.469   2.712  1.2568 -1.1606 -1.3305
  277SOL     OW  829   1.680   2.517   2.008 -0.3674  0.2342  0.4394
  277SOL    HW1  830   1.679   2.596   2.075  0.7141  1.9902 -1.5555
  277SOL    HW2  831   1.738   2.437   2.052  0.0743 -2.0789  0.1537
  278SOL     OW  832   2.054   0.296   1.398  0.2779 -0.5619  0.1549
  278SOL    HW1  833   2.004   0.241   1.471 -0.6402 -1.2427 -0.3816
  278SOL    HW2  834   2.008   0.381   1.361  2.2026 -2.3951  0.4658
  279SOL     OW  835   1.386   1.346   2.893  0.4038 -0.5254 -0.7374
  279SOL    HW1  836   1.421   1.250   2.875  0.7948 -0.7287 -0.3591
  279SOL    HW2  837   1.462   1.407   2.923 -0.3201  0.8469  1.2516
  280SOL     OW  838   0.671   1.589   1.135  0.3195  0.1969 -0.0526
  280SOL    HW1  839   0.658   1.613   1.035 -1.0116  0.4840 -2.5861
  280SOL    HW2  840   0.716   1.666   1.183  2.0233  0.4202  0.0465
  281SOL     OW  841   0.070   0.039   2.544  0.0913 -0.1495 -0.2908
  281SOL    HW1  842   0.027   0.046   2.450  0.3469 -2.0012 -2.0502
  281SOL    HW2  843   0.058   3.046   2.572  0.7215 -0.6282 -2.7500
  282SOL     OW  844   0.174   0.892   1.562  0.0795  0.1900  0.3267
  282SOL    HW1  845   0.095   0.952   1.546  1.8775 -1.1087  0.7016
  282SOL    HW2  846   0.256   0.933   1.516 -2.5022  0.2151 -0.9772
  283SOL     OW  847   1.570   2.428   2.542 -0.1647 -1.1033  0.2083
  283SOL    HW1  848   1.544   2.418   2.445 -2.0631  2.3860 -0.9344
  283SOL    HW2  849   1.507   2.366   2.597  0.2781 -1.4584  0.2162
  284SOL     OW  850   1.853   1.289   0.228 -0.0036 -0.5154  0.1358
  284SOL    HW1  851   1.782   1.345   0.269  1.3933  0.0863  2.3422
  284SOL    HW2  852   1.830   1.262   0.130 -0.6385 -0.7680  2.9766
  285SOL     OW  853   0.006   3.077   2.960 -0.3410 -0.9060 -0.4744
  285SOL    HW1  854   3.081   0.042   3.032  0.1249  0.1111 -0.4577
  285SOL    HW2  855   0.109   3.087   2.948 -0.2217 -0.4398  1.5292
  286SOL     OW  856   1.973   2.888   1.563  0.1273 -0.5591 -0.3379
  286SOL    HW1  857   1.967   2.951   1.643  2.5578  1.6868  2.3859
  286SOL    HW2  858   2.024   2.931   1.491 -1.0348 -1.7814  2.1787
  287SOL     OW  859   0.763   0.938   1.376  0.0799  0.1153  0.1593
  287SOL    HW1  860   0.705   0.868   1.335  0.4802  1.0572 -3.0987
  287SOL    HW2  861   0.734   0.970   1.470 -0.3156  1.0746 -0.8642
  288SOL     OW  862   1.543   2.830   0.235  0.3706  0.4751 -0.0733
  288SOL    HW1  863   1.546   2.756   0.163 -3.0006 -1.0923  3.1731
  288SOL    HW2  864   1.571   2.793   0.326 -0.8043  1.1643 -0.4561
  289SOL     OW  865   3.040   1.745   3.014 -0.4836  0.5745  0.1847
  289SOL    HW1  866   3.067   1.839   3.005 -1.7069 -4.1237  0.9477
  289SOL    HW2  867   2.940   1.749   3.031  1.3996 -3.9549  0.7293
  290SOL     OW  868   0.980   2.717   0.616 -0.4958 -0.2653 -0.2379
  290SOL    HW1  869   1.035   2.794   0.576  0.0354  1.7599 -0.4433
  290SOL    HW2  870   1.021   2.630   0.597 -1.6215  2.1327  1.2415
  291SOL     OW  871   2.101   2.214   0.188  0.2857 -0.1875  0.3879
  291SOL    HW1  872   2.178   2.175   0.138 -2.2565  0.6803  0.6390
  291SOL    HW2  873   2.027   2.229   0.120 -2.0033  1.8600  1.9953
  292SOL     OW  874   0.732   1.307   1.954 -0.0861  0.0281 -0.6041
  292SOL    HW1  875   0.801   1.246   1.914  1.3612 -0.2256 -0.4414
  292SOL    HW2  876   0.670   1.343   1.883  0.0905  1.7761  0.2221
  293SOL     OW  877   2.497   2.627   1.155 -0.3211  0.6307  0.3681
  293SOL    HW1  878   2.470   2.557   1.083 -0.6099 -2.7706 -1.2517
  293SOL    HW2  879   2.585   2.675   1.133 -2.2229  1.8249  1.4849
  294SOL     OW  880   0.023   0.426   2.405 -0.0419  0.4836 -0.5174
  294SOL    HW1  881   3.103   0.486   2.328 -0.0498 -0.2742  0.6280
  294SOL    HW2  882   0.124   0.418   2.409  1.5666 -1.9352 -0.6329
  295SOL     OW  883   1.096   1.838   0.218 -0.2015 -0.8034  0.7269
  295SOL    HW1  884   1.131   1.818   0.124 -0.5781 -0.7008  0.4668
  295SOL    HW2  885   1.139   1.918   0.264 -0.3658  1.8802  2.3888
  296SOL     OW  886   2.100   1.882   2.745 -0.0872 -0.5391  0.7687
  296SOL    HW1  887   2.008   1.841   2.767 -1.5707 -2.8350  1.6132
  296SOL    HW2  888   2.179   1.815   2.768 -0.7736  0.5930  1.6264
  297SOL     OW  889   2.712   0.637   3.051 -0.1575  0.3386  0.2055
  297SOL    HW1  890   2.707   0.628   2.951 -0.3124 -1.3630 -0.4256
  297SOL    HW2  891   2.652   0.566   3.094 -1.8632  1.8406  0.6081
  298SOL     OW  892   0.824   2.287   3.077  0.5816  0.1869 -0.1340
  298SOL    HW1  893   0.832   2.234   2.991 -0.7578  0.3848  2.6305
  298SOL    HW2  894   0.742   2.344   3.088  1.4225  1.1615  1.4044
  299SOL     OW  895   1.543   2.884   2.502 -0.1758  0.0628  0.2134
  299SOL    HW1  896   1.556   2.960   2.563 -1.2366  0.4961 -4.1257
  299SOL    HW2  897   1.452   2.845   2.511  2.7707  0.5479  0.8839
  300SOL     OW  898   2.842   0.421   0.319  0.0644  0.4833  0.2663
  300SOL    HW1  899   2.799   0.487   0.383 -1.5067  1.6009  0.9925
  300SOL    HW2  900   2.771   0.397   0.249 -1.4471 -1.5128 -1.2901
  301SOL     OW  901   0.929   1.106   1.911  0.5120  0.1091 -0.0864
  301SOL    HW1  902   0.977   1.097   1.820  0.5315  1.0909 -0.3383
  301SOL    HW2  903   0.872   1.023   1.936  1.1319  1.4183  0.6798
  302SOL     OW  904   0.023   2.259   0.042 -0.3826  0.4750 -0.4780
  302SOL    HW1  905   0.002   2.173   0.094 -1.0716  0.4209  0.2256
  302SOL    HW2  906   3.049   2.322   0.051  0.3849 -2.4631  0.5836
  303SOL     OW  907   0.030   2.909   2.684  0.1358 -0.3022  0.2311
  303SOL    HW1  908   0.046   2.897   2.782  2.0171  2.5490  0.2342
  303SOL    HW2  909   3.054   2.859   2.657  0.8029 -1.1423 -0.1254
  304SOL     OW  910   2.647   0.764   1.964 -0.0328 -0.0266  0.1487
  304SOL    HW1  911   2.715   0.836   1.990  0.2270  3.5881  2.8889
  304SOL    HW2  912   2.609   0.787   1.871 -1.2380 -2.2178 -0.4330
  305SOL     OW  913   0.647   2.627   2.279 -0.0308  0.5943 -0.1133
  305SOL    HW1  914   0.684   2.701   2.222  1.6855  1.5723 -0.6952
  305SOL    HW2  915   0.663   2.641   2.378 -1.2075  2.9689  1.6146
  306SOL     OW  916   2.640   1.042   1.550  0.2767  0.8105  0.4197
  306SOL    HW1  917   2.593   0.964   1.501  0.4098 -1.3594 -0.5664
  306SOL    HW2  918   2.574   1.109   1.595 -1.3308  0.9898  0.2589
  307SOL     OW  919   1.292   0.436   1.423 -0.2860 -0.2020  0.1855
  307SOL    HW1  920   1.375   0.415   1.482  3.3716 -1.7856 -0.0751
  307SOL    HW2  921   1.328   0.462   1.329 -0.9185  0.0314 -1.4430
  308SOL     OW  922   2.624   1.907   1.174 -0.4707  0.0677 -0.0733
  308SOL    HW1  923   2.557   1.960   1.239  0.3523  0.5024  1.8058
  308SOL    HW2  924   2.592   1.912   1.078 -2.1597 -0.4109 -1.2170
  309SOL     OW  925   2.308   1.569   1.457  0.3662  0.1516 -0.2954
  309SOL    HW1  926   2.324   1.633   1.382  1.3622 -0.8051 -0.5389
  309SOL    HW2  927   2.386   1.502   1.465 -2.3932 -1.4251 -0.9198
  310SOL     OW  928   2.781   1.718   3.096 -0.6858 -0.5367 -0.8554
  310SOL    HW1  929   2.741   1.624   3.088  0.7091  0.1723 -1.4897
  310SOL    HW2  930   2.714   1.792   3.102 -0.8790 -0.4701 -1.3015
  311SOL     OW  931   2.385   2.087   2.869  0.5692  0.0724 -0.0857
  311SOL    HW1  932   2.335   2.151   2.801 -2.2835  2.4090 -2.7265
  311SOL    HW2  933   2.472   2.061   2.826  0.7721 -2.7646  0.0643
  312SOL     OW  934   2.360   1.793   1.316 -0.2260  0.4986 -0.0946
  312SOL    HW1  935   2.266   1.814   1.339  0.4214 -3.8732  0.3390
  312SOL    HW2  936   2.413   1.874   1.353 -2.6729 -0.9770  0.6158
  313SOL     OW  937   2.316   2.264   1.074 -0.6764  0.4709 -0.0256
  313SOL    HW1  938   2.399   2.318   1.059  2.3395 -1.8086  1.7343
  313SOL    HW2  939   2.303   2.252   1.174  3.2713 -0.3234 -1.0608
  314SOL     OW  940   0.951   2.153   0.611 -0.1523 -0.0427 -0.5481
  314SOL    HW1  941   0.902   2.204   0.685  1.0977  2.1197  1.6221
  314SOL    HW2  942   0.889   2.127   0.540  0.4297  2.0134  0.9204
  315SOL     OW  943   0.867   2.722   2.958 -0.7810 -0.1157 -0.1593
  315SOL    HW1  944   0.837   2.666   2.879 -0.0400  0.5633 -1.9620
  315SOL    HW2  945   0.961   2.763   2.944  1.3877 -1.3893  0.9789
  316SOL     OW  946   0.168   0.522   0.342 -0.5661 -0.3892 -0.3677
  316SOL    HW1  947   0.104   0.551   0.272  0.3329  0.5444  2.6327
  316SOL    HW2  948   0.257   0.510   0.295  1.5418 -0.1368  1.9839
  317SOL     OW  949   1.491   0.553   0.832  0.2008 -0.1072 -0.2702
  317SOL    HW1  950   1.507   0.494   0.916  1.5872  1.7271 -0.1410
  317SOL    HW2  951   1.434   0.634   0.865 -0.4260 -0.4650 -0.8917
  318SOL     OW  952   3.035   2.551   0.499  0.3102  0.0561 -0.0172
  318SOL    HW1  953   3.033   2.632   0.430  0.2793  1.3146 -1.4891
  318SOL    HW2  954   2.982   2.468   0.467 -0.6616  0.1919  0.4377
  319SOL     OW  955   0.751   1.935   2.898 -0.2736  0.5913 -0.5624
  319SOL    HW1  956   0.850   1.930   2.919  2.3714  1.1679  2.6953
  319SOL    HW2  957   0.695   1.957   2.987 -0.8323  0.2555  3.0920
  320SOL     OW  958   0.836   2.683   2.491 -0.2035 -0.0282  0.2818
  320SOL    HW1  959   0.882   2.765   2.451  1.7661 -2.2837  2.1719
  320SOL    HW2  960   0.899   2.604   2.504 -3.3724  1.3036  0.5231
  321SOL     OW  961   1.382   3.043   0.209  0.3548 -0.4166  0.0942
  321SOL    HW1  962   1.438   2.968   0.248  1.5439 -1.7946  0.1728
  321SOL    HW2  963   1.317   2.997   0.143 -0.9232 -0.0502 -0.1182
  322SOL     OW  964   2.490   1.386   1.922  0.5860  0.1090  0.7000
  322SOL    HW1  965   2.474   1.478   1.959 -0.9829  0.3886 -2.2899
  322SOL    HW2  966   2.537   1.332   1.990  0.7562  2.8317 -0.9746
  323SOL     OW  967   2.408   0.618   0.301 -0.4718 -0.3109  0.1905
  323SOL    HW1  968   2.319   0.633   0.257  2.6368  1.0841 -0.9323
  323SOL    HW2  969   2.419   0.658   0.393  0.4955 -2.3781 -1.5181
  324SOL     OW  970   0.379   2.768   2.960  0.1549 -0.0948  0.0638
  324SOL    HW1  971   0.329   2.857   2.955 -1.4066 -1.4431 -1.3661
  324SOL    HW2  972   0.314   2.696   2.939 -0.2172  1.2067  1.4588
  325SOL     OW  973   1.563   0.344   2.391  0.7772 -0.0819 -0.9186
  325SOL    HW1  974   1.642   0.278   2.384  0.1461 -1.9768  0.5321
  325SOL    HW2  975   1.477   0.299   2.383  1.4645  1.2539 -0.9582
  326SOL     OW  976   2.334   2.612   1.385 -0.0649  0.2546 -0.1802
  326SOL    HW1  977   2.233   2.639   1.379  0.0960  0.4547 -1.2081
  326SOL    HW2  978   2.378   2.594   1.293  2.3521  0.5044 -3.5296
  327SOL     OW  979   1.723   0.330   2.892 -1.0349  0.1520 -0.2589
  327SOL    HW1  980   1.671   0.281   2.965  0.5807  1.2383 -0.5172
  327SOL    HW2  981   1.775   0.414   2.926 -1.4224  1.9284  0.3938
  328SOL     OW  982   2.592   1.426   2.446 -0.1151  0.6716  0.6564
  328SOL    HW1  983   2.497   1.440   2.421 -0.1712 -1.1832 -0.7622
  328SOL    HW2  984   2.616   1.491   2.521  0.1629 -2.2019 -0.7725
  329SOL     OW  985   1.664   2.865   1.730 -0.4131 -0.3455 -0.6654
  329SOL    HW1  986   1.747   2.914   1.768 -0.5468 -3.5962  0.4668
  329SOL    HW2  987   1.694   2.776   1.688 -1.9601 -1.2691 -1.6135
  330SOL     OW  988   2.537   1.404   1.474 -0.1170 -0.0989 -0.3654
  330SOL    HW1  989   2.514   1.312   1.514 -0.0214  0.1736 -0.0733
  330SOL    HW2  990   2.628   1.434   1.510  2.6284  0.1665  0.8404
  331SOL     OW  991   0.269   1.527   1.452 -0.5182 -0.5294  1.0742
  331SOL    HW1  992   0.341   1.521   1.379 -0.4622  0.7367 -0.7537
  331SOL    HW2  993   0.306   1.587   1.527 -1.1465  0.3926  0.1781
  332SOL     OW  994   0.747   0.222   1.308  0.0726  0.0052  0.2982
  332SOL    HW1  995   0.705   0.219   1.216  0.6523  1.1202 -0.8237
  332SOL    HW2  996   0.677   0.193   1.377  0.9297  1.6162 -0.2642
  333SOL     OW  997   2.012   2.703   1.979 -0.3915  0.2055  0.0638
  333SOL    HW1  998   2.095   2.739   1.937 -3.4099 -0.0770  2.1810
  333SOL    HW2  999   1.930   2.768   1.977 -1.4971  2.1171 -0.5952
  334SOL     OW 1000   0.922   1.206   1.394 -0.4054 -0.0885  0.2706
  334SOL    HW1 1001   0.891   1.250   1.311 -0.1457  0.0764  3.4692
  334SOL    HW2 1002   0.976   1.125   1.384 -2.9174  2.7340 -1.9509
  335SOL     OW 1003   1.194   2.989   0.020 -0.2550  0.8593 -0.2270
  335SOL    HW1 1004   1.123   3.050   0.066 -1.0638  0.2418 -1.2843
  335SOL    HW2 1005   1.161   2.956   3.033  0.6672  0.0961  4.0349
  336SOL     OW 1006   3.098   2.558   2.203  0.1276  0.3129  0.5048
  336SOL    HW1 1007   0.089   2.577   2.209  0.2807  1.1107 -1.9470
  336SOL    HW2 1008   3.068   2.534   2.109  0.2356 -0.0055  1.2812
  337SOL     OW 1009   2.654   1.518   0.498  0.4425  0.2865  0.5699
  337SOL    HW1 1010   2.552   1.504   0.504  0.5754  0.2155 -0.5897
  337SOL    HW2 1011   2.684   1.539   0.400  1.5739 -1.5345 -0.7853
  338SOL     OW 1012   0.973   1.846   1.326 -0.2099  0.0377 -0.5904
  338SOL    HW1 1013   1.044   1.911   1.284  2.7822  0.2170  0.3981
  338SOL    HW2 1014   0.879   1.869   1.286 -2.8178  1.6226 -0.9977
  339SOL     OW 1015   2.983   0.762   2.343 -0.0632 -0.0550 -0.2881
  339SOL    HW1 1016   3.067   0.786   2.402  1.7076 -0.7334  1.1837
  339SOL    HW2 1017   2.933   0.848   2.323 -1.1499  1.0143  0.2557
  340SOL     OW 1018   1.523   2.698   1.171  0.2587  0.1614 -0.0309
  340SOL    HW1 1019   1.612   2.663   1.139 -3.4521 -1.1261 -0.4218
  340SOL    HW2 1020   1.444   2.646   1.131  0.5576  1.1707 -0.0295
  341SOL     OW 1021   1.807   1.604   0.788  0.0159  0.1300  0.3587
  341SOL    HW1 1022   1.839   1.523   0.733  0.1196  1.0894  1.6462
  341SOL    HW2 1023   1.889   1.663   0.796 -1.2091 -0.8150  1.0077
  342SOL     OW 1024   0.391   1.307   0.985 -0.2294  0.0667 -0.2223
  342SOL    HW1 1025   0.410   1.280   0.889  0.0850  1.3244  2.9324
  342SOL    HW2 1026   0.372   1.409   0.996 -1.9027  2.0963  0.9381
  343SOL     OW 1027   2.493   0.461   1.436 -0.0859 -0.0028 -0.7012
  343SOL    HW1 1028   2.551   0.523   1.496  0.7043  1.8981 -1.6338
  343SOL    HW2 1029   2.392   0.477   1.462 -0.9431 -0.1858 -0.4464
  344SOL     OW 1030   2.213   2.514   0.586  0.0698 -0.2181 -0.0051
  344SOL    HW1 1031   2.226   2.463   0.499 -0.1734  0.0719  1.0489
  344SOL    HW2 1032   2.231   2.450   0.663 -2.7448 -0.8423 -1.4250
  345SOL     OW 1033   3.020   2.388   2.700 -0.0483 -0.5114 -0.0550
  345SOL    HW1 1034   2.982   2.366   2.609  0.3708 -2.1537  1.0838
  345SOL    HW2 1035   0.010   2.424   2.690  2.0427  0.1399 -1.4202
  346SOL     OW 1036   3.000   0.839   0.368 -0.1222 -0.6971  0.2780
  346SOL    HW1 1037   3.081   0.852   0.429  2.4159 -1.7675  2.2563
  346SOL    HW2 1038   2.948   0.930   0.360 -3.0662  3.9006 -0.2523
  347SOL     OW 1039   1.790   2.601   1.160 -0.1089 -0.4664 -0.0207
  347SOL    HW1 1040   1.831   2.585   1.249 -1.6607  0.9802  0.7434
  347SOL    HW2 1041   1.867   2.614   1.092 -1.3159 -0.0269  0.4172
  348SOL     OW 1042   1.370   1.579   2.447  0.7879 -0.1233  0.3390
  348SOL    HW1 1043   1.390   1.482   2.436 -2.4742  0.5252  0.8882
  348SOL    HW2 1044   1.390   1.627   2.356  0.1908 -2.2431 -1.1545
  349SOL     OW 1045   2.161   1.318   2.244  0.0281  0.3221 -0.0984
  349SOL    HW1 1046   2.121   1.240   2.187 -3.9998  0.4865 -0.4071
  349SOL    HW2 1047   2.260   1.299   2.259  1.4219  0.5786  0.1355
  350SOL     OW 1048   0.200   1.904   1.003  0.0843  0.3215 -0.1208
  350SOL    HW1 1049   0.221   1.950   1.090 -2.4494  2.2510 -2.4872
  350SOL    HW2 1050   0.107   1.939   0.963 -6.0965 -1.0256 -1.4781
  351SOL     OW 1051   1.056   0.346   2.321 -0.0430 -0.0487 -0.1572
  351SOL    HW1 1052   1.057   0.406   2.408 -1.5742  1.4087  1.3814
  351SOL    HW2 1053   0.992   0.383   2.253  0.1829 -2.4426 -1.3913
  352SOL     OW 1054   0.822   2.630   1.889  0.2825 -0.5667  0.4158
  352SOL    HW1 1055   0.821   2.692   1.970 -1.4099 -0.8940  0.4047
  352SOL    HW2 1056   0.865   2.679   1.807  0.8128  1.0490 -0.3912
  353SOL     OW 1057   0.577   1.362   2.400 -0.1068  0.1314  0.3773
  353SOL    HW1 1058   0.613   1.304   2.327 -0.4223 -0.7253 -0.1856
  353SOL    HW2 1059   0.509   1.428   2.363  5.3639 -0.5505 -0.9914
  354SOL     OW 1060   1.916   1.273   0.650 -0.2381 -0.2222 -0.2578
  354SOL    HW1 1061   1.848   1.216   0.703 -1.5473 -1.4107 -2.0191
  354SOL    HW2 1062   1.950   1.219   0.574 -1.3946  2.0501 -2.1966
  355SOL     OW 1063   2.380   0.083   0.739 -0.0402 -0.4061 -0.2117
  355SOL    HW1 1064   2.394   0.045   0.648  1.1694  1.4191 -1.6422
  355SOL    HW2 1065   2.456   0.059   0.804  2.1509 -1.8598  0.3246
  356SOL     OW 1066   2.974   1.199   2.544 -0.0309 -0.1660  0.2486
  356SOL    HW1 1067   2.997   1.225   2.449 -1.2087  1.7012  2.1928
  356SOL    HW2 1068   2.958   1.284   2.606  1.1770  0.0910 -1.1040
  357SOL     OW 1069   3.018   2.827   1.706 -0.0598  0.7024 -0.2326
  357SOL    HW1 1070   3.065   2.821   1.796 -1.1846 -0.9765 -1.2638
  357SOL    HW2 1071   3.043   2.744   1.657 -1.1736  1.2923 -1.9805
  358SOL     OW 1072   2.929   1.423   2.668 -0.4645 -0.3213 -0.2840
  358SOL    HW1 1073   3.006   1.477   2.709  0.7731 -1.2036 -0.3527
  358SOL    HW2 1074   2.848   1.484   2.650 -2.1324  2.5625 -1.4217
  359SOL     OW 1075   2.611   2.350   2.952  0.4733 -0.1885 -0.5272
  359SOL    HW1 1076   2.669   2.434   2.949  0.0577 -1.4297 -0.8006
  359SOL    HW2 1077   2.519   2.365   2.994  2.2983  1.2742  1.1213
  360SOL     OW 1078   1.166   1.275   1.038 -0.0218 -0.1859 -0.2887
  360SOL    HW1 1079   1.187   1.194   1.098 -0.2173 -0.0950  2.4153
  360SOL    HW2 1080   1.117   1.248   0.955 -1.3000 -1.5833 -0.3466
  361SOL     OW 1081   2.051   2.358   1.080  0.3877 -0.0960 -0.4839
  361SOL    HW1 1082   2.148   2.327   1.069  0.8635  1.1527 -0.3838
  361SOL    HW2 1083   2.028   2.444   1.027  0.9467  0.6001  1.7376
  362SOL     OW 1084   1.546   1.285   0.968  0.3780  0.1773 -0.7290
  362SOL    HW1 1085   1.591   1.367   1.009 -0.9661  0.2005  0.1725
  362SOL    HW2 1086   1.476   1.320   0.899 -1.6165  0.7524 -1.3756
  363SOL     OW 1087   2.494   1.981   0.180 -0.2448 -0.1940 -0.3294
  363SOL    HW1 1088   2.521   1.940   0.094  0.9731  1.8738  0.4777
  363SOL    HW2 1089   2.540   1.940   0.262 -0.7602  0.9669 -0.5350
  364SOL     OW 1090   2.145   0.133   1.677 -0.3406  0.4061  0.2260
  364SOL    HW1 1091   2.225   0.115   1.618 -1.1968 -0.2368 -4.5293
  364SOL    HW2 1092   2.143   0.229   1.705 -3.0344 -0.0117  0.0736
  365SOL     OW 1093   2.823   2.531   1.518 -0.3785 -0.0452  0.1061
  365SOL    HW1 1094   2.791   2.465   1.587  1.6230 -5.0682 -1.2341
  365SOL    HW2 1095   2.928   2.530   1.513 -1.2057  1.3010 -2.1870
  366SOL     OW 1096   3.054   1.256   3.101 -0.3426 -0.0227 -0.2576
  366SOL    HW1 1097   0.032   1.218   3.057 -0.9440  0.4430 -0.0686
  366SOL    HW2 1098   2.986   1.185   0.025 -2.2533 -0.3439  2.9984
  367SOL     OW 1099   2.406   2.808   2.859 -0.1580  0.6804 -0.2546
  367SOL    HW1 1100   2.325   2.769   2.808 -0.5803 -1.4811  1.3050
  367SOL    HW2 1101   2.410   2.764   2.948  1.2193  1.2249  1.6990
  368SOL     OW 1102   3.092   1.833   1.344  0.0935 -0.3740  0.0650
  368SOL    HW1 1103   0.046   1.910   1.313 -0.1348  1.8065 -0.6829
  368SOL    HW2 1104   3.018   1.811   1.274 -1.6782 -2.5786  1.0329
  369SOL     OW 1105   0.593   0.269   0.658  0.3368  0.6508 -0.3698
  369SOL    HW1 1106   0.501   0.304   0.660  2.7490 -1.1825  0.5003
  369SOL    HW2 1107   0.643   0.295   0.572  0.1454  0.4668  0.1594
  370SOL     OW 1108   0.674   0.457   0.890  0.0809  0.1869 -0.0245
  370SOL    HW1 1109   0.591   0.497   0.936 -0.9008 -1.4755 -0.7607
  370SOL    HW2 1110   0.651   0.403   0.811  1.5549  2.3026 -1.5246
  371SOL     OW 1111   2.297   1.667   0.136  0.2237 -0.1553  0.5731
  371SOL    HW1 1112   2.288   1.618   0.224  1.3648  0.8525 -3.0717
  371SOL    HW2 1113   2.384   1.645   0.088 -0.7971  2.5530  1.4154
  372SOL     OW 1114   0.081   0.810   2.520  0.3834 -0.0816  0.0181
  372SOL    HW1 1115   0.089   0.850   2.614 -0.4661 -2.1326 -1.6817
  372SOL    HW2 1116   0.158   0.747   2.504  1.1461  0.5647 -1.7138
  373SOL     OW 1117   2.877   1.095   0.104  0.3680  0.0785  0.0451
  373SOL    HW1 1118   2.845   1.102   0.199 -0.8439  0.4820 -1.1524
  373SOL    HW2 1119   2.795   1.077   0.049 -0.2793 -3.1937 -2.4669
  374SOL     OW 1120   0.597   2.439   3.012 -0.4011 -0.8816 -0.1140
  374SOL    HW1 1121   0.547   2.504   3.070  0.0323 -0.9370 -1.2473
  374SOL    HW2 1122   0.653   2.481   2.940 -3.0404 -0.3782  1.0107
  375SOL     OW 1123   1.498   0.310   0.281  0.1813  0.2451 -0.3845
  375SOL    HW1 1124   1.436   0.376   0.243  1.2150 -1.8987 -0.7120
  375SOL    HW2 1125   1.449   0.270   0.359 -1.5080 -0.0169  0.5205
  376SOL     OW 1126   0.035   2.860   1.942  0.2651  0.1991  0.2693
  376SOL    HW1 1127   3.104   2.893   2.033 -3.4084  2.7282 -0.2411
  376SOL    HW2 1128   0.131   2.824   1.945 -2.0866  1.2442  0.7049
  377SOL     OW 1129   2.922   2.135   2.746  0.2809  0.3068 -0.0965
  377SOL    HW1 1130   2.971   2.227   2.750 -2.4606  2.8741 -0.0896
  377SOL    HW2 1131   2.965   2.062   2.692 -2.1394  0.2716 -1.8222
  378SOL     OW 1132   1.634   0.848   0.633  0.5046  0.0409 -0.0927
  378SOL    HW1 1133   1.602   0.771   0.571 -0.1048 -2.2728  1.2951
  378SOL    HW2 1134   1.565   0.867   0.704 -0.7819 -0.1652 -2.4053
  379SOL     OW 1135   1.307   1.468   0.378  0.3564 -0.1425  0.3442
  379SOL    HW1 1136   1.226   1.486   0.439 -1.2762  0.1467  1.4076
  379SOL    HW2 1137   1.390   1.497   0.425 -1.5417 -0.3473  3.0814
  380SOL     OW 1138   2.029   2.271   1.870 -0.1107  0.0675  0.0367
  380SOL    HW1 1139   2.084   2.330   1.929 -1.1093  2.8553 -2.2008
  380SOL    HW2 1140   1.948   2.329   1.840 -0.7706 -0.0634  1.6759
  381SOL     OW 1141   2.804   0.989   2.058  0.2595  0.7503  0.1311
  381SOL    HW1 1142   2.880   1.005   2.125 -0.2716 -0.4218  1.1452
  381SOL    HW2 1143   2.818   1.041   1.973  1.6391 -0.4489 -2.0736
  382SOL     OW 1144   2.948   2.447   0.025 -0.1813  0.5598 -0.3005
  382SOL    HW1 1145   2.915   2.449   3.034  2.3969  2.2825 -0.5042
  382SOL    HW2 1146   3.002   2.531   0.050  1.8556  0.5498 -0.8780
  383SOL     OW 1147   1.551   1.240   2.140  0.2364 -0.3949 -1.0388
  383SOL    HW1 1148   1.636   1.299   2.134 -0.0251 -3.2517  1.7183
  383SOL    HW2 1149   1.504   1.238   2.048  0.5465 -0.2087 -3.7646
  384SOL     OW 1150   0.925   2.201   2.568  0.0648 -0.7052  0.1449
  384SOL    HW1 1151   0.896   2.213   2.470  1.7288  0.6679  2.0219
  384SOL    HW2 1152   0.970   2.112   2.576 -5.0150 -0.8404  0.0370
  385SOL     OW 1153   2.688   1.823   0.370  0.6100  0.3321  0.1028
  385SOL    HW1 1154   2.608   1.808   0.430  1.9238 -0.4343 -2.0446
  385SOL    HW2 1155   2.726   1.735   0.341 -1.4147  1.8130  0.6420
  386SOL     OW 1156   1.363   1.228   0.269  0.4409  0.5369 -0.3158
  386SOL    HW1 1157   1.333   1.312   0.319  1.8117  0.4618 -0.2372
  386SOL    HW2 1158   1.326   1.145   0.309  2.9447  2.7364  1.0441
  387SOL     OW 1159   2.826   0.427   1.355 -0.6577 -0.1118 -0.2211
  387SOL    HW1 1160   2.846   0.515   1.402  0.0111 -5.0883 -1.8192
  387SOL    HW2 1161   2.898   0.354   1.375  3.2429 -2.7142 -0.4581
  388SOL     OW 1162   2.799   0.784   1.188  0.0925  0.2619 -0.5055
  388SOL    HW1 1163   2.889   0.795   1.225 -1.3309 -0.3687 -2.2275
  388SOL    HW2 1164   2.782   0.683   1.175  1.9548  1.9046  0.1613
  389SOL     OW 1165   1.666   1.399   2.536  0.5977  0.0499 -0.3310
  389SOL    HW1 1166   1.693   1.352   2.624  0.9556 -0.1816 -0.0613
  389SOL    HW2 1167   1.632   1.496   2.548 -3.3685  2.5426  1.7363
  390SOL     OW 1168   1.797   2.414   0.427  0.3051  0.0639 -0.6327
  390SOL    HW1 1169   1.862   2.336   0.447  0.6331 -1.8065 -0.4344
  390SOL    HW2 1170   1.791   2.423   0.324  0.6553 -0.2564  2.4400
  391SOL     OW 1171   1.230   2.278   1.011  0.1050  0.0031 -0.1725
  391SOL    HW1 1172   1.326   2.261   0.974  0.4550  0.7763 -0.2165
  391SOL    HW2 1173   1.217   2.379   1.015  2.5378  1.7746  0.9484
  392SOL     OW 1174   2.491   2.763   1.543 -0.0578  0.1757 -0.2942
  392SOL    HW1 1175   2.439   2.689   1.492  2.5860 -1.2325 -0.2304
  392SOL    HW2 1176   2.576   2.784   1.494  0.4455 -1.3549  1.4522
  393SOL     OW 1177   1.976   2.633   2.305  0.1041 -0.6065  0.7843
  393SOL    HW1 1178   1.977   2.660   2.206  0.8241 -0.3174 -2.5672
  393SOL    HW2 1179   1.885   2.647   2.348 -0.1153 -2.1621  0.9360
  394SOL     OW 1180   0.501   2.897   2.524  0.0332  0.3565 -0.2332
  394SOL    HW1 1181   0.523   2.889   2.423  0.1322  0.0053 -0.1895
  394SOL    HW2 1182   0.409   2.855   2.537  0.2130  2.4557 -2.1806
  395SOL     OW 1183   0.440   1.016   1.403 -0.0570 -0.1644 -0.3574
  395SOL    HW1 1184   0.453   1.094   1.463 -1.4807 -1.6581  0.7592
  395SOL    HW2 1185   0.458   1.029   1.303  0.4940 -0.3465 -1.8068
  396SOL     OW 1186   2.140   1.397   2.497 -0.6474 -0.3638  0.2850
  396SOL    HW1 1187   2.127   1.376   2.396 -2.7555  0.4626 -0.1099
  396SOL    HW2 1188   2.184   1.318   2.547 -0.8036 -0.7122 -0.4241
  397SOL     OW 1189   2.846   0.455   2.619  0.0343  0.3863  0.1115
  397SOL    HW1 1190   2.937   0.414   2.639 -2.8233 -1.8305 -1.4263
  397SOL    HW2 1191   2.840   0.497   2.528  0.6991 -0.1674  3.4688
  398SOL     OW 1192   1.929   2.794   0.246 -0.5730 -0.2373 -0.2929
  398SOL    HW1 1193   2.021   2.809   0.290  0.1739  0.5006  1.5503
  398SOL    HW2 1194   1.885   2.883   0.207 -1.3325  2.1011 -1.0497
  399SOL     OW 1195   2.131   2.463   2.037  0.5088 -0.5496  0.2438
  399SOL    HW1 1196   2.180   2.485   2.125  1.1944 -0.3336  0.1076
  399SOL    HW2 1197   2.076   2.543   2.011 -1.8704 -1.6180  0.2750
  400SOL     OW 1198   0.232   2.237   2.204 -0.3561 -0.3398 -0.2953
  400SOL    HW1 1199   0.201   2.150   2.161 -1.0366  0.6347  2.4169
  400SOL    HW2 1200   0.242   2.311   2.135  0.1637  1.3711 -1.7787
  401SOL     OW 1201   0.558   0.670   0.457  0.0686 -0.0524 -0.5465
  401SOL    HW1 1202   0.548   0.588   0.401 -1.3472  0.4961  0.0201
  401SOL    HW2 1203   0.469   0.691   0.508 -2.3971 -1.0908  2.8149
  402SOL     OW 1204   0.814   2.783   2.117 -0.7299 -0.4139  0.7000
  402SOL    HW1 1205   0.893   2.796   2.183  1.8016  0.4919 -0.3342
  402SOL    HW2 1206   0.771   2.875   2.097 -0.0304  0.3402  0.6254
  403SOL     OW 1207   0.148   1.333   2.126 -0.3817 -0.2184 -0.6065
  403SOL    HW1 1208   0.219   1.272   2.163 -0.9331  2.5219 -1.1489
  403SOL    HW2 1209   0.063   1.323   2.186 -1.8503  1.1248  0.2688
  404SOL     OW 1210   2.913   2.170   2.371  0.0490 -0.1063 -0.0167
  404SOL    HW1 1211   3.011   2.172   2.400  0.0227  1.3193  0.5123
  404SOL    HW2 1212   2.852   2.131   2.442 -4.2800 -1.1316  1.4847
  405SOL     OW 1213   2.290   0.060   2.566 -0.3741 -0.0129 -0.2249
  405SOL    HW1 1214   2.236   0.057   2.656  1.2955 -2.0316  0.8609
  405SOL    HW2 1215   2.228   0.064   2.488 -0.1989 -0.0282  1.5282
  406SOL     OW 1216   1.600   2.347   0.604 -0.1141 -0.1950  0.3656
  406SOL    HW1 1217   1.520   2.370   0.538  0.4305 -0.5833 -0.3453
  406SOL    HW2 1218   1.687   2.359   0.548  0.7392 -0.9157 -1.8119
  407SOL     OW 1219   1.641   1.440   0.286 -0.1590 -0.1095  1.2120
  407SOL    HW1 1220   1.650   1.506   0.204 -0.2605  0.6071  0.4572
  407SOL    HW2 1221   1.574   1.366   0.258 -0.7587 -3.7848  0.9871
  408SOL     OW 1222   0.065   0.814   2.089  0.3847  0.6729 -0.1394
  408SOL    HW1 1223   3.084   0.769   2.062  0.8550 -0.1958 -0.8313
  408SOL    HW2 1224   0.113   0.761   2.161 -0.5314  0.8356  2.1285
  409SOL     OW 1225   2.881   1.426   2.981  0.0776 -0.1987 -0.0801
  409SOL    HW1 1226   2.930   1.354   3.034 -0.5738  0.6289  0.8085
  409SOL    HW2 1227   2.929   1.470   2.903  0.4524  1.0945 -0.0053
  410SOL     OW 1228   2.910   1.521   1.141 -0.2500  0.0025  0.0955
  410SOL    HW1 1229   2.913   1.450   1.070 -2.0077  3.1895  1.5431
  410SOL    HW2 1230   2.984   1.508   1.211 -2.4208 -1.5279  0.5549
  411SOL     OW 1231   3.040   0.592   0.238  0.0419  0.0071  0.5121
  411SOL    HW1 1232   2.995   0.512   0.283  1.6715 -0.9827  2.4876
  411SOL    HW2 1233   3.009   0.683   0.277  0.5996  1.6214  0.7923
  412SOL     OW 1234   1.921   0.163   0.253  0.4935  0.5376  0.1968
  412SOL    HW1 1235   1.997   0.120   0.305 -0.9072  2.5255 -1.4347
  412SOL    HW2 1236   1.830   0.145   0.294  0.3996 -0.3294  0.2020
  413SOL     OW 1237   1.274   0.308   1.813  0.0290 -0.3467  0.5576
  413SOL    HW1 1238   1.278   0.327   1.912  0.9350 -1.7464 -3.1080
  413SOL    HW2 1239   1.297   0.211   1.791 -0.2527 -0.6864  1.1833
  414SOL     OW 1240   0.370   0.849   0.170 -0.0964 -0.6546  0.1341
  414SOL    HW1 1241   0.300   0.924   0.194 -2.8943  2.5645  2.3719
  414SOL    HW2 1242   0.469   0.871   0.205  2.3591 -0.1625 -1.0503
  415SOL     OW 1243   2.782   1.065   0.357 -0.2206 -0.8103  0.5224
  415SOL    HW1 1244   2.694   1.008   0.358 -2.6691 -0.6772 -0.8749
  415SOL    HW2 1245   2.770   1.153   0.407  0.2336  0.9171 -0.4362
  416SOL     OW 1246   2.300   0.885   0.141  0.2174 -0.0120 -0.2739
  416SOL    HW1 1247   2.234   0.813   0.117 -0.5336  0.8577 -2.7809
  416SOL    HW2 1248   2.387   0.871   0.088  0.7396 -1.6238 -1.2545
  417SOL     OW 1249   2.799   2.608   0.205  0.1919 -0.1154 -0.2611
  417SOL    HW1 1250   2.746   2.656   0.128  0.7769 -1.3075 -2.1954
  417SOL    HW2 1251   2.851   2.524   0.176 -1.5118 -0.1851  0.7305
  418SOL     OW 1252   2.988   0.665   3.064  0.1169  0.9814 -0.0585
  418SOL    HW1 1253   2.996   0.632   0.056 -0.5837  2.2178  2.3570
  418SOL    HW2 1254   2.885   0.676   3.043 -3.1272  0.0247  0.0077
  419SOL     OW 1255   0.823   0.512   0.588 -0.0644  0.2682 -0.0752
  419SOL    HW1 1256   0.743   0.528   0.651 -1.7379  1.9913 -0.0181
  419SOL    HW2 1257   0.807   0.439   0.521  0.0381 -1.4544  0.0467
  420SOL     OW 1258   0.386   0.882   0.886 -0.4612 -0.0278 -0.7461
  420SOL    HW1 1259   0.284   0.867   0.883  2.1311 -0.6041 -0.3277
  420SOL    HW2 1260   0.411   0.873   0.987 -0.8362 -0.4167  1.0020
  421SOL     OW 1261   0.340   1.872   0.550 -0.1017 -0.2241 -0.0862
  421SOL    HW1 1262   0.434   1.880   0.510  1.2747 -3.5593  0.1796
  421SOL    HW2 1263   0.276   1.950   0.517  2.1476  0.1257  0.1475
  422SOL     OW 1264   2.525   0.260   1.702 -0.2791 -0.0882 -0.9573
  422SOL    HW1 1265   2.510   0.189   1.773 -2.2221  0.2075 -0.8973
  422SOL    HW2 1266   2.464   0.246   1.624  1.8730  0.7889  0.4919
  423SOL     OW 1267   1.872   1.837   0.180 -0.2111 -0.1970  0.5092
  423SOL    HW1 1268   1.887   1.775   0.261  1.1804 -1.3560  0.6216
  423SOL    HW2 1269   1.962   1.850   0.129 -1.0505  0.5013  1.3327
  424SOL     OW 1270   1.788   1.713   2.716 -0.0780  0.1902  0.3517
  424SOL    HW1 1271   1.858   1.727   2.640  0.5464  0.2391  0.2377
  424SOL    HW2 1272   1.830   1.709   2.805 -0.5450 -0.3968  2.0858
  425SOL     OW 1273   0.251   3.078   2.058 -0.3867 -0.1228 -0.3987
  425SOL    HW1 1274   0.293   3.008   1.999 -2.7095 -0.4443  1.2371
  425SOL    HW2 1275   0.255   0.065   2.022  3.0903 -0.2583  1.8067
  426SOL     OW 1276   2.336   2.742   0.048  0.0416 -1.0120 -0.1357
  426SOL    HW1 1277   2.345   2.687   0.132 -0.8997 -2.8148  0.6131
  426SOL    HW2 1278   2.247   2.746   3.104 -1.7370  1.8030 -1.8675
  427SOL     OW 1279   0.412   1.570   2.343  0.0764 -0.2816 -0.4166
  427SOL    HW1 1280   0.474   1.640   2.380  1.8943  0.5860  1.1997
  427SOL    HW2 1281   0.331   1.553   2.413 -4.0398  0.4207  0.1818
  428SOL     OW 1282   2.027   1.635   2.570  0.7583 -0.1525 -0.3620
  428SOL    HW1 1283   2.045   1.543   2.527  1.4485 -0.6801 -1.0744
  428SOL    HW2 1284   2.101   1.656   2.634  0.8639  0.0087  1.3420
  429SOL     OW 1285   2.390   3.063   0.450 -0.9383  0.6031 -0.1143
  429SOL    HW1 1286   2.463   3.049   0.382 -0.2419 -0.8230 -0.1519
  429SOL    HW2 1287   2.386   2.967   0.487  0.9141 -3.5631  1.2363
  430SOL     OW 1288   1.661   1.886   2.067  0.5520  0.2196  0.0824
  430SOL    HW1 1289   1.627   1.899   1.971  0.1531 -0.8074  0.9849
  430SOL    HW2 1290   1.740   1.949   2.084 -0.6082  0.0589 -0.9720
  431SOL     OW 1291   2.966   1.713   2.042  0.0880 -0.1277 -0.2156
  431SOL    HW1 1292   2.880   1.731   2.103 -4.2095 -0.4214  1.2526
  431SOL    HW2 1293   2.952   1.759   1.950  0.3785 -2.5240 -0.7828
  432SOL     OW 1294   1.149   2.303   2.254  1.0194  0.2189 -0.0285
  432SOL    HW1 1295   1.051   2.293   2.287 -0.2586  3.1099 -1.8187
  432SOL    HW2 1296   1.210   2.224   2.262  1.3188  3.3525 -1.8966
  433SOL     OW 1297   0.950   2.753   0.932 -0.1653 -0.5721  0.2246
  433SOL    HW1 1298   0.925   2.746   0.834 -1.5379 -4.0039  1.1678
  433SOL    HW2 1299   1.050   2.766   0.949 -0.0445  0.3683  0.4835
  434SOL     OW 1300   0.485   2.251   2.306  0.2271 -0.2747 -0.0817
  434SOL    HW1 1301   0.392   2.229   2.270 -0.4157  0.0078  0.9786
  434SOL    HW2 1302   0.545   2.298   2.244 -0.2543 -1.3776  3.6743
  435SOL     OW 1303   0.458   1.336   0.447 -0.0915  0.3993  0.2753
  435SOL    HW1 1304   0.370   1.388   0.461 -1.0423 -0.6273  0.5437
  435SOL    HW2 1305   0.520   1.401   0.403 -2.8012  0.7705  0.0730
  436SOL     OW 1306   0.623   2.079   1.851 -0.1428  0.1758  0.0854
  436SOL    HW1 1307   0.636   1.988   1.801 -0.4848 -1.1078 -0.9131
  436SOL    HW2 1308   0.692   2.143   1.812 -0.1749 -3.3113 -1.2144
  437SOL     OW 1309   1.190   0.387   0.352  0.6127 -0.3903  0.1056
  437SOL    HW1 1310   1.206   0.441   0.439  0.5007  1.8652  1.3159
  437SOL    HW2 1311   1.166   0.291   0.370 -1.7410 -1.9283 -1.3848
  438SOL     OW 1312   0.633   1.961   0.846 -0.1333 -0.1072  0.5629
  438SOL    HW1 1313   0.625   1.861   0.855  1.6640 -2.3089  1.1301
  438SOL    HW2 1314   0.716   1.992   0.902 -0.1049  0.7253  1.6883
  439SOL     OW 1315   1.365   2.328   1.826 -0.2731  0.5117  0.1076
  439SOL    HW1 1316   1.298   2.277   1.776  0.4029  2.6605 -3.5400
  439SOL    HW2 1317   1.456   2.326   1.771 -1.2237  1.4095 -2.3701
  440SOL     OW 1318   1.495   0.189   1.332  0.2201  0.7358 -0.0350
  440SOL    HW1 1319   1.499   0.205   1.432 -1.4042  2.2080  2.4875
  440SOL    HW2 1320   1.577   0.220   1.278 -0.5037 -0.6264 -0.4545
  441SOL     OW 1321   0.512   3.045   1.313 -0.7687  0.2203  0.6035
  441SOL    HW1 1322   0.522   0.001   1.390 -0.5962  0.0207  0.1075
  441SOL    HW2 1323   0.574   2.965   1.333 -0.5484 -0.0313  1.3947
  442SOL     OW 1324   2.412   1.852   0.541  0.1044  0.8146 -0.3613
  442SOL    HW1 1325   2.319   1.822   0.556  3.4307 -0.6026 -3.4670
  442SOL    HW2 1326   2.412   1.942   0.492 -0.2231  1.2918  1.0474
  443SOL     OW 1327   2.667   0.314   2.384 -0.2786 -0.1803  0.3092
  443SOL    HW1 1328   2.575   0.329   2.422 -2.1024 -3.6419 -2.3791
  443SOL    HW2 1329   2.727   0.400   2.387  1.1394  2.0464  1.7744
  444SOL     OW 1330   1.845   1.463   2.346  0.4639  0.0839  0.1009
  444SOL    HW1 1331   1.775   1.435   2.420 -0.6572 -1.6506 -0.5971
  444SOL    HW2 1332   1.878   1.557   2.366  2.9777 -0.3211  0.9111
  445SOL     OW 1333   2.577   2.073   1.610 -0.4072  0.1928 -0.0638
  445SOL    HW1 1334   2.528   2.091   1.698  1.3927 -1.1163 -0.3262
  445SOL    HW2 1335   2.673   2.043   1.621 -0.4037  3.6361  1.1914
  446SOL     OW 1336   0.094   0.880   0.583  1.1875  0.3866 -0.7867
  446SOL    HW1 1337   0.158   0.805   0.599 -2.3825  1.5294 -2.9411
  446SOL    HW2 1338   0.121   0.970   0.614 -1.1505 -0.5296 -1.6016
  447SOL     OW 1339   0.605   1.676   0.872 -0.3189  0.2526  0.0896
  447SOL    HW1 1340   0.627   1.583   0.833  0.9531  1.0404 -2.4468
  447SOL    HW2 1341   0.516   1.707   0.829 -0.2616  1.3613  1.9765
  448SOL     OW 1342   1.336   1.304   1.972 -0.4548 -0.4142  0.2718
  448SOL    HW1 1343   1.342   1.353   1.879 -1.3184 -0.8414 -2.7345
  448SOL    HW2 1344   1.290   1.215   1.973  1.5938 -0.1450  0.0459
  449SOL     OW 1345   0.236   1.773   0.021  0.1267 -0.4333  0.2223
  449SOL    HW1 1346   0.186   1.686   3.095 -2.8451 -2.0276  1.2243
  449SOL    HW2 1347   0.303   1.798   3.049  2.9249 -2.1730 -1.1242
  450SOL     OW 1348   2.545   2.302   1.984 -0.0527  0.2060 -0.0878
  450SOL    HW1 1349   2.482   2.362   1.935  1.2708 -1.1883 -1.3728
  450SOL    HW2 1350   2.585   2.338   2.070  1.3947  1.5712  0.2998
  451SOL     OW 1351   2.029   0.285   2.139  0.5900  0.3661 -0.3363
  451SOL    HW1 1352   1.988   0.259   2.224  1.9169 -0.9875 -0.8853
  451SOL    HW2 1353   1.965   0.267   2.059 -1.3743  0.2659  0.7336
  452SOL     OW 1354   1.081   3.059   1.208  0.3772  0.4879  0.5148
  452SOL    HW1 1355   1.099   2.972   1.253  0.6527 -0.2285 -1.2846
  452SOL    HW2 1356   1.058   0.026   1.277  0.5705  0.8294 -1.3063
  453SOL     OW 1357   0.849   1.357   1.172  0.5662  0.3190  0.5344
  453SOL    HW1 1358   0.929   1.407   1.131  0.7606 -0.5852 -1.9258
  453SOL    HW2 1359   0.769   1.414   1.152 -0.6048 -0.9319  0.4107
  454SOL     OW 1360   0.006   1.089   0.878  0.3119 -0.2667 -0.1603
  454SOL    HW1 1361   0.030   1.152   0.954 -0.5638 -2.2027  2.7084
  454SOL    HW2 1362   0.041   1.133   0.793  0.1038 -0.2794  0.1267
  455SOL     OW 1363   3.003   2.792   0.327  0.5768 -0.0113  0.4889
  455SOL    HW1 1364   2.957   2.767   0.239  1.4897 -2.6981 -4.4321
  455SOL    HW2 1365   3.101   2.822   0.309  0.4291 -0.4719  0.8750
  456SOL     OW 1366   2.320   2.308   0.730  0.1537  0.3893 -0.1825
  456SOL    HW1 1367   2.303   2.218   0.782 -2.1817 -1.8942  1.0337
  456SOL    HW2 1368   2.365   2.289   0.638  1.4469 -0.4614 -0.8313
  457SOL     OW 1369   1.670   0.258   0.076  0.1517  0.6505 -0.2486
  457SOL    HW1 1370   1.763   0.292   0.096 -0.0434 -0.4558  0.5708
  457SOL    HW2 1371   1.606   0.271   0.154 -0.4801  1.1334  0.5066
  458SOL     OW 1372   2.750   2.671   0.462 -0.0284  0.2181  0.1371
  458SOL    HW1 1373   2.819   2.729   0.509  1.7668 -0.5916  1.2521
  458SOL    HW2 1374   2.783   2.656   0.363 -0.8629  2.6600 -0.9818
  459SOL     OW 1375   2.119   0.101   2.768  0.0256 -0.0321 -0.1144
  459SOL    HW1 1376   2.076   0.186   2.729  1.2099  2.2832 -1.9091
  459SOL    HW2 1377   2.136   0.116   2.868  0.9503 -1.9329  3.4398
  460SOL     OW 1378   3.069   0.200   0.063 -0.1261  0.0826 -0.9279
  460SOL    HW1 1379   3.048   0.294   0.025 -0.3544 -0.3887 -0.6177
  460SOL    HW2 1380   3.029   0.187   0.156  2.6335 -0.1961  1.7057
  461SOL     OW 1381   0.534   1.743   1.447  0.1917  0.4001 -0.0067
  461SOL    HW1 1382   0.448   1.750   1.502  1.5807 -0.1974  0.0546
  461SOL    HW2 1383   0.514   1.759   1.347  1.6499 -0.1386 -1.2131
  462SOL     OW 1384   2.771   2.945   1.779  0.4579  0.0739  0.2367
  462SOL    HW1 1385   2.868   2.924   1.774 -1.5633 -1.3192  1.1366
  462SOL    HW2 1386   2.726   2.881   1.842  1.1407 -1.8113  0.6303
  463SOL     OW 1387   2.619   1.067   3.057  0.4238  0.5004  0.1537
  463SOL    HW1 1388   2.588   1.159   3.091 -0.4460  0.4685 -1.7547
  463SOL    HW2 1389   2.633   1.061   2.957 -1.1181  1.6256  0.0911
  464SOL     OW 1390   0.158   2.471   1.236  0.3319  0.2995 -0.6133
  464SOL    HW1 1391   0.197   2.387   1.202  1.2548 -0.8722 -2.1607
  464SOL    HW2 1392   0.233   2.538   1.251 -0.3991  1.4889  1.9606
  465SOL     OW 1393   0.365   0.792   0.633  0.3229 -0.2923 -0.1373
  465SOL    HW1 1394   0.385   0.886   0.608 -0.8380 -0.5214  1.8368
  465SOL    HW2 1395   0.367   0.784   0.736  1.5425  0.9896  0.9177
  466SOL     OW 1396   1.278   0.008   2.208 -0.0676  0.1796  0.4178
  466SOL    HW1 1397   1.349   3.038   2.221  4.0080  1.1598  0.6888
  466SOL    HW2 1398   1.279   0.075   2.283  1.7212  0.4074 -1.6418
  467SOL     OW 1399   0.851   0.453   2.169 -0.3445 -0.3653 -0.1071
  467SOL    HW1 1400   0.815   0.444   2.074 -0.4915 -2.1164 -1.3116
  467SOL    HW2 1401   0.774   0.476   2.227 -0.9623 -1.5358 -1.9937
  468SOL     OW 1402   3.021   1.035   2.209 -0.2601 -0.3465  0.0715
  468SOL    HW1 1403   3.039   1.134   2.230 -0.6920 -0.9621 -1.7773
  468SOL    HW2 1404   0.006   0.987   2.182 -1.7220 -1.4584 -0.5017
  469SOL     OW 1405   0.363   1.781   0.798 -0.0301 -0.1692 -0.3769
  469SOL    HW1 1406   0.327   1.801   0.704 -0.3674  2.4246 -0.1697
  469SOL    HW2 1407   0.302   1.824   0.868 -1.5095 -0.1707  0.2763
  470SOL     OW 1408   2.811   1.646   2.329  0.4333  0.2072 -0.4613
  470SOL    HW1 1409   2.751   1.626   2.409  0.4052  0.8849  0.6254
  470SOL    HW2 1410   2.766   1.713   2.268  2.9851  1.0598  0.3927
  471SOL     OW 1411   1.575   0.757   2.334 -0.0056  0.2284 -0.2399
  471SOL    HW1 1412   1.646   0.762   2.258  1.8213  3.5409 -1.5351
  471SOL    HW2 1413   1.613   0.728   2.424 -0.5969 -0.2067  1.3106
  472SOL     OW 1414   0.862   2.692   1.343 -0.1107  0.7404 -0.7976
  472SOL    HW1 1415   0.872   2.598   1.318  0.4742  0.3524 -0.6959
  472SOL    HW2 1416   0.863   2.745   1.259 -2.3239 -1.1325  1.2499
  473SOL     OW 1417   0.474   0.073   2.528  0.6944 -0.2332  0.2567
  473SOL    HW1 1418   0.566   0.106   2.505 -0.9741 -2.3331  1.0577
  473SOL    HW2 1419   0.485   3.081   2.545 -1.7765  3.4736 -1.4780
  474SOL     OW 1420   1.816   3.048   1.191  0.0809  0.1032  0.5278
  474SOL    HW1 1421   1.846   0.027   1.145 -0.5363 -0.0468  1.8412
  474SOL    HW2 1422   1.727   3.007   1.165 -0.3192 -1.6734 -1.7512
  475SOL     OW 1423   1.927   0.509   1.066  0.1626  0.3821 -0.5156
  475SOL    HW1 1424   1.850   0.528   1.002 -0.0076 -1.9202  1.6991
  475SOL    HW2 1425   1.990   0.455   1.008 -0.1169  1.2616 -0.4559
  476SOL     OW 1426   0.506   0.823   1.103  0.2279  0.1192 -0.1230
  476SOL    HW1 1427   0.529   0.920   1.115 -0.5809 -0.7094  1.8960
  476SOL    HW2 1428   0.537   0.771   1.187 -0.6926  0.3010  1.2615
  477SOL     OW 1429   1.427   2.660   0.516  0.7454  0.0452  0.4377
  477SOL    HW1 1430   1.371   2.727   0.467 -1.7504  0.1067 -2.2327
  477SOL    HW2 1431   1.437   2.681   0.615 -0.3186  3.1014 -0.0715
  478SOL     OW 1432   0.397   2.484   2.430 -0.5457 -0.2971  0.1484
  478SOL    HW1 1433   0.468   2.538   2.476 -1.5125  1.2920  0.6456
  478SOL    HW2 1434   0.424   2.392   2.401  1.0300  1.6028 -1.3451
  479SOL     OW 1435   2.539   0.250   1.244  0.0589 -0.1705  0.0276
  479SOL    HW1 1436   2.515   0.294   1.330 -0.5799 -0.3952 -1.1291
  479SOL    HW2 1437   2.495   0.289   1.161  0.6810 -0.2826 -0.3393
  480SOL     OW 1438   0.465   2.337   0.552 -0.0377  0.0259  0.2938
  480SOL    HW1 1439   0.539   2.310   0.486  0.5058 -0.8655 -2.9098
  480SOL    HW2 1440   0.379   2.357   0.503  1.0859 -0.5365  1.7123
  481SOL     OW 1441   1.981   2.119   1.373  0.2228 -0.4404  0.2025
  481SOL    HW1 1442   1.922   2.147   1.454 -0.6826  0.4499 -1.5092
  481SOL    HW2 1443   1.931   2.119   1.279  0.5780  0.4542 -0.7117
  482SOL     OW 1444   1.307   2.505   2.981 -0.1480 -0.1049  0.2114
  482SOL    HW1 1445   1.389   2.464   3.026 -1.4451 -2.4282  0.5492
  482SOL    HW2 1446   1.233   2.448   3.020 -0.0590 -1.0948  2.1978
  483SOL     OW 1447   1.051   2.178   1.873 -0.0860 -0.0899 -0.1612
  483SOL    HW1 1448   1.062   2.270   1.918  1.3456 -1.5113 -0.4195
  483SOL    HW2 1449   0.969   2.179   1.814  2.1899 -1.9692  1.7379
  484SOL     OW 1450   1.179   0.634   1.556  0.1245 -0.5493 -0.2649
  484SOL    HW1 1451   1.217   0.549   1.514  0.5790 -0.5570  0.2705
  484SOL    HW2 1452   1.237   0.665   1.630  0.0487 -0.6615 -0.4164
  485SOL     OW 1453   1.706   0.668   2.552 -0.1217  0.0574 -0.3494
  485SOL    HW1 1454   1.760   0.734   2.605 -0.1596  0.6828 -1.2029
  485SOL    HW2 1455   1.726   0.570   2.571  2.6160  3.1536 -0.4893
  486SOL     OW 1456   2.379   2.913   1.273 -0.0694 -0.2738  0.1518
  486SOL    HW1 1457   2.419   2.827   1.247 -0.6489  1.8049 -0.4702
  486SOL    HW2 1458   2.458   2.981   1.285  1.4246  2.4936 -1.2773
  487SOL     OW 1459   0.600   2.142   1.274  0.7147  0.5050  0.2802
  487SOL    HW1 1460   0.649   2.235   1.265 -0.9252 -1.1997  2.0240
  487SOL    HW2 1461   0.552   2.137   1.364 -0.9412  1.5000  2.5844
  488SOL     OW 1462   2.308   2.120   0.029 -0.0939 -0.3793 -0.6921
  488SOL    HW1 1463   2.381   2.072   0.079 -3.4893  0.3399 -1.1706
  488SOL    HW2 1464   2.315   2.088   3.039 -0.3478 -3.6953  0.3828
  489SOL     OW 1465   2.149   2.927   0.859 -0.4156 -0.1917  0.5982
  489SOL    HW1 1466   2.238   2.904   0.821 -0.9483  1.6110 -1.2919
  489SOL    HW2 1467   2.150   2.925   0.959 -1.3174 -1.9156  1.1803
  490SOL     OW 1468   0.905   1.629   0.221  0.0689 -0.1224 -0.5229
  490SOL    HW1 1469   0.974   1.704   0.220  2.8089 -0.0325 -1.3331
  490SOL    HW2 1470   0.838   1.660   0.292 -0.0723 -1.1549  1.4055
  491SOL     OW 1471   0.099   2.135   1.514 -0.0097 -0.7614  0.0155
  491SOL    HW1 1472   0.001   2.163   1.523  3.0614  0.4328 -1.9277
  491SOL    HW2 1473   0.165   2.188   1.567 -1.1978 -3.7032  1.0747
  492SOL     OW 1474   0.759   1.702   1.809 -0.6227  0.5094  0.5086
  492SOL    HW1 1475   0.853   1.676   1.779 -0.6384 -1.6043  0.8417
  492SOL    HW2 1476   0.723   1.766   1.740 -0.1947 -0.3507 -0.8233
  493SOL     OW 1477   2.671   2.099   0.881  0.7036 -0.1615 -0.1480
  493SOL    HW1 1478   2.704   2.036   0.805  0.3767 -2.3119 -0.4944
  493SOL    HW2 1479   2.735   2.097   0.958 -0.0435  0.9971  1.1778
  494SOL     OW 1480   2.778   1.912   0.722  0.2326  0.2240 -0.5942
  494SOL    HW1 1481   2.705   1.843   0.689  1.1516  1.6192 -0.2250
  494SOL    HW2 1482   2.870   1.868   0.723 -1.1135 -0.1118  0.3626
  495SOL     OW 1483   2.755   2.957   0.036  0.1632 -0.4291  0.0083
  495SOL    HW1 1484   2.848   2.930   0.011 -1.5201  3.5350 -0.0182
  495SOL    HW2 1485   2.727   3.045   3.094  1.5835  2.8246 -2.1745
  496SOL     OW 1486   2.576   3.092   1.289  0.1878 -0.3916 -0.2052
  496SOL    HW1 1487   2.541   0.087   1.279 -1.8020  1.6347  0.0874
  496SOL    HW2 1488   2.640   3.084   1.369  0.7079 -0.2791  2.5886
  497SOL     OW 1489   2.492   1.219   2.812  0.1097  0.5590 -0.1400
  497SOL    HW1 1490   2.442   1.133   2.841 -2.5387 -0.9159  0.2125
  497SOL    HW2 1491   2.586   1.194   2.785  0.6404 -0.3998 -2.4681
  498SOL     OW 1492   2.844   2.086   1.094 -0.7004  0.1096 -0.0573
  498SOL    HW1 1493   2.787   2.124   1.172  1.4888  0.6461  0.4418
  498SOL    HW2 1494   2.895   2.006   1.130 -1.1868  0.3152 -2.1739
  499SOL     OW 1495   1.000   2.487   2.562  0.3928  0.3504  0.1318
  499SOL    HW1 1496   0.966   2.392   2.578  2.0058 -1.6959  1.1879
  499SOL    HW2 1497   1.101   2.490   2.554 -0.6251 -2.0921  1.4524
  500SOL     OW 1498   1.533   1.066   0.490  0.2712  0.2351  1.0533
  500SOL    HW1 1499   1.531   1.154   0.535  0.9498 -1.2218 -2.0347
  500SOL    HW2 1500   1.603   1.001   0.524 -2.1555 -0.2621  1.8403
  501SOL     OW 1501   1.531   0.105   1.611  0.0942 -0.1222  0.0069
  501SOL    HW1 1502   1.473   0.077   1.690 -0.6801  1.7874  1.2431
  501SOL    HW2 1503   1.584   0.032   1.568 -1.5816 -2.6401  1.6134
  502SOL     OW 1504   2.591   0.657   1.592  0.0192 -0.9031  0.1370
  502SOL    HW1 1505   2.675   0.693   1.639 -2.1858 -0.1625  0.9894
  502SOL    HW2 1506   2.511   0.711   1.634  1.0481 -1.5583  2.9845
  503SOL     OW 1507   2.374   1.746   2.269  0.1538 -0.2089  0.0302
  503SOL    HW1 1508   2.274   1.742   2.262  0.4136 -1.2698 -0.1355
  503SOL    HW2 1509   2.418   1.702   2.186 -0.8605  0.5650 -3.7696
  504SOL     OW 1510   1.388   1.423   1.732  0.0502  0.5130 -0.4036
  504SOL    HW1 1511   1.367   1.345   1.670 -0.3179 -2.0130 -2.0897
  504SOL    HW2 1512   1.387   1.516   1.684  3.4855  1.9276 -1.3730
  505SOL     OW 1513   0.493   0.441   1.582  0.0184 -1.0314  0.0922
  505SOL    HW1 1514   0.427   0.479   1.515  3.3999 -1.7371  0.1740
  505SOL    HW2 1515   0.463   0.461   1.679  1.8719 -0.2640  3.2482
  506SOL     OW 1516   0.240   0.248   0.080 -0.3846 -0.2907  0.1658
  506SOL    HW1 1517   0.138   0.254   0.089 -1.0667 -0.2008  2.2188
  506SOL    HW2 1518   0.273   0.235   3.087  3.3240  0.1872 -2.3493
  507SOL     OW 1519   0.733   3.097   0.181  0.0322  0.3576 -0.1570
  507SOL    HW1 1520   0.684   0.015   0.095 -2.2292  0.5117  0.3673
  507SOL    HW2 1521   0.668   0.021   0.257  0.5006  1.7078 -1.7592
  508SOL     OW 1522   0.929   0.642   1.866  0.1363 -0.0101 -0.3548
  508SOL    HW1 1523   0.843   0.590   1.871  2.8255  0.3242 -2.5532
  508SOL    HW2 1524   0.959   0.673   1.957 -0.4689 -0.4967  0.1261
  509SOL     OW 1525   1.487   2.194   1.001  0.2071 -0.2210 -0.1853
  509SOL    HW1 1526   1.489   2.127   1.081 -1.8944 -1.2610 -0.9118
  509SOL    HW2 1527   1.520   2.281   1.039 -2.2186 -1.1141  2.8578
  510SOL     OW 1528   2.870   1.107   1.470  0.2065 -0.3375 -0.8330
  510SOL    HW1 1529   2.780   1.084   1.510 -2.0880 -3.1501 -1.4147
  510SOL    HW2 1530   2.870   1.096   1.371 -0.0483 -1.7837  3.4950
  511SOL     OW 1531   1.146   2.024   1.199  0.3098 -0.9283 -0.0864
  511SOL    HW1 1532   1.231   2.057   1.239  2.2428 -2.0364 -1.9856
  511SOL    HW2 1533   1.156   2.009   1.099 -2.3846 -1.9893 -1.6187
  512SOL     OW 1534   3.002   1.419   0.459  0.5813  0.1306 -0.0427
  512SOL    HW1 1535   2.940   1.338   0.464 -1.2535  1.3526 -2.5114
  512SOL    HW2 1536   2.986   1.487   0.388 -1.2088 -1.5519 -2.2904
  513SOL     OW 1537   3.102   1.559   2.814  0.1207  0.4778  0.1397
  513SOL    HW1 1538   0.079   1.498   2.818 -3.3393  1.4621  1.0810
  513SOL    HW2 1539   3.103   1.631   2.881  1.3799  1.3659  2.0280
  514SOL     OW 1540   2.274   2.253   2.616 -0.2211 -0.0052  0.4912
  514SOL    HW1 1541   2.183   2.213   2.599  0.6015 -2.1207  1.8943
  514SOL    HW2 1542   2.342   2.227   2.547 -0.4060 -0.5028 -3.8874
  515SOL     OW 1543   2.316   1.003   0.609  0.1061 -0.3090 -0.3590
  515SOL    HW1 1544   2.238   0.988   0.673 -1.8080 -2.0295  0.5621
  515SOL    HW2 1545   2.360   0.915   0.591  0.4254  0.2798  1.1219
  516SOL     OW 1546   2.777   2.171   0.169 -0.7127  0.5639 -0.3408
  516SOL    HW1 1547   2.690   2.209   0.197  0.4144  0.5486  0.5283
  516SOL    HW2 1548   2.779   2.161   0.067 -1.8221 -4.1618  1.5714
  517SOL     OW 1549   0.563   1.534   3.015  0.3169  0.2391  0.8048
  517SOL    HW1 1550   0.624   1.514   3.095 -1.3201  1.5885 -2.2043
  517SOL    HW2 1551   0.470   1.524   3.049  2.4640  1.8407 -1.2456
  518SOL     OW 1552   2.810   0.143   2.262 -0.5220  0.4185 -0.6977
  518SOL    HW1 1553   2.746   0.211   2.311 -3.1308  2.9420  0.5366
  518SOL    HW2 1554   2.798   0.053   2.303 -0.5675 -0.1828  1.8967
  519SOL     OW 1555   1.733   1.222   0.004 -0.1953 -0.0200  0.2537
  519SOL    HW1 1556   1.670   1.159   0.061  0.1164 -3.0577  1.8996
  519SOL    HW2 1557   1.687   1.304   3.070 -1.5807 -0.4835 -1.2151
  520SOL     OW 1558   2.869   2.839   2.348  0.1929  1.1527 -0.3318
  520SOL    HW1 1559   2.785   2.892   2.374 -0.9760 -1.3366  0.7344
  520SOL    HW2 1560   2.909   2.785   2.428  0.2148 -0.5202  0.0999
  521SOL     OW 1561   0.415   1.959   2.274  0.6487 -0.8330  0.0721
  521SOL    HW1 1562   0.507   1.925   2.277  0.3135  0.5974  1.4234
  521SOL    HW2 1563   0.419   2.062   2.264  0.9413 -0.7713 -1.7951
  522SOL     OW 1564   1.218   2.938   1.695  0.1577 -0.4113 -0.3924
  522SOL    HW1 1565   1.117   2.918   1.673 -1.2329  1.7760 -1.0078
  522SOL    HW2 1566   1.264   2.854   1.725 -1.4790  2.0921 -1.6688
  523SOL     OW 1567   2.285   2.075   0.887  0.1794 -0.2908  0.9288
  523SOL    HW1 1568   2.271   1.981   0.922 -0.2443  1.4709  1.0968
  523SOL    HW2 1569   2.272   2.143   0.959  0.7522  0.3538 -1.7926
  524SOL     OW 1570   1.223   2.030   0.710 -0.0547 -0.4620 -0.3601
  524SOL    HW1 1571   1.309   2.081   0.723 -1.9168 -1.8338  0.9034
  524SOL    HW2 1572   1.163   2.063   0.632 -1.3980 -0.5503  0.4378
  525SOL     OW 1573   2.601   0.529   0.555  0.7357 -0.0783 -0.1614
  525SOL    HW1 1574   2.632   0.457   0.615 -0.3408  1.1472  1.1700
  525SOL    HW2 1575   2.674   0.596   0.530  0.6985 -0.3919  2.8507
  526SOL     OW 1576   1.683   2.995   0.617  0.2019  0.0512 -0.7892
  526SOL    HW1 1577   1.736   2.918   0.576 -0.3615  2.6406 -2.9099
  526SOL    HW2 1578   1.700   3.012   0.718  0.8241  0.9969  2.2730
  527SOL     OW 1579   2.053   1.737   0.849  0.2024 -0.1380 -0.1124
  527SOL    HW1 1580   2.012   1.812   0.900  0.9045 -1.5665  2.3419
  527SOL    HW2 1581   2.103   1.675   0.912 -1.3107 -0.4439 -1.6865
  528SOL     OW 1582   2.972   2.721   2.561 -0.3133 -0.5533  0.0113
  528SOL    HW1 1583   2.985   2.624   2.541 -0.4945  0.1488  0.2769
  528SOL    HW2 1584   2.916   2.737   2.643  4.5430  0.1512 -1.4553
  529SOL     OW 1585   1.056   1.423   2.494 -0.4012 -0.0856 -0.2824
  529SOL    HW1 1586   1.111   1.452   2.576  0.2085 -1.0700  3.2847
  529SOL    HW2 1587   0.956   1.441   2.511  0.1660 -1.0604  4.0793
  530SOL     OW 1588   1.986   0.928   2.296 -0.6826  0.2221 -0.1350
  530SOL    HW1 1589   1.929   0.978   2.363  1.3470  0.4255  1.1843
  530SOL    HW2 1590   1.957   0.834   2.271  1.9240 -0.5135 -1.6048
  531SOL     OW 1591   0.351   0.676   3.072 -0.3572 -0.3326  0.0426
  531SOL    HW1 1592   0.374   0.737   0.045 -1.0183 -0.6196 -1.6790
  531SOL    HW2 1593   0.257   0.698   3.038  0.2121 -0.7325  0.1386
  532SOL     OW 1594   1.743   1.131   0.794 -0.2641 -0.1982  0.0193
  532SOL    HW1 1595   1.768   1.068   0.870  0.6333  0.0730  0.0435
  532SOL    HW2 1596   1.658   1.181   0.816  0.3348 -0.9826 -1.1206
  533SOL     OW 1597   0.296   0.389   2.370 -0.1489  0.9594 -0.2139
  533SOL    HW1 1598   0.301   0.285   2.364 -0.0926 -3.5223 -0.3063
  533SOL    HW2 1599   0.365   0.414   2.437 -0.0787  0.3342 -1.5044
  534SOL     OW 1600   1.114   0.515   2.544 -0.3954 -0.5466 -0.3187
  534SOL    HW1 1601   1.079   0.441   2.598  0.8821 -0.2760 -0.4619
  534SOL    HW2 1602   1.093   0.603   2.586  0.5532  0.8645  0.1314
  535SOL     OW 1603   0.575   0.520   3.041  0.1970 -0.1904 -0.0022
  535SOL    HW1 1604   0.656   0.569   3.075 -1.9706 -1.1945  2.9963
  535SOL    HW2 1605   0.492   0.586   3.049 -1.9194  0.3220 -1.4020
  536SOL     OW 1606   0.699   0.788   2.750 -0.0599 -0.5327  0.3499
  536SOL    HW1 1607   0.720   0.875   2.700  1.2801  0.2678  1.2361
  536SOL    HW2 1608   0.756   0.791   2.834  0.7581 -0.5064 -1.6342
  537SOL     OW 1609   1.365   2.963   1.457 -0.1581  0.1572  0.2845
  537SOL    HW1 1610   1.319   2.958   1.547  1.8631 -2.2637  0.4747
  537SOL    HW2 1611   1.386   3.058   1.440 -1.1339 -2.4255  2.6924
  538SOL     OW 1612   0.406   2.571   0.053 -0.2665  0.2285 -0.3187
  538SOL    HW1 1613   0.403   2.658   3.105 -1.4450  1.9196  0.7177
  538SOL    HW2 1614   0.327   2.511   0.034 -1.1745 -2.4645 -1.5587
  539SOL     OW 1615   2.777   1.392   1.852 -0.6976 -0.0087  0.1028
  539SOL    HW1 1616   2.791   1.403   1.955  0.9527  1.2492 -0.9447
  539SOL    HW2 1617   2.686   1.348   1.830 -0.0506 -2.6329  0.7438
  540SOL     OW 1618   1.932   1.653   1.426 -0.5095 -0.1679  0.2878
  540SOL    HW1 1619   1.896   1.576   1.375  0.3871  0.9159  0.2718
  540SOL    HW2 1620   1.984   1.620   1.507 -2.3861 -0.3794 -2.3198
  541SOL     OW 1621   0.456   2.076   1.497  0.1344 -0.5666 -0.3339
  541SOL    HW1 1622   0.403   2.143   1.554  0.3296  3.5210 -0.6725
  541SOL    HW2 1623   0.516   2.024   1.557  1.1559  1.3697  0.5778
  542SOL     OW 1624   1.832   1.151   1.934  0.1027  0.2643  0.1518
  542SOL    HW1 1625   1.749   1.193   1.883  0.9604  1.5663  1.4429
  542SOL    HW2 1626   1.832   1.052   1.925 -0.0884 -0.2626  1.6274
  543SOL     OW 1627   1.075   0.473   0.706 -0.1975 -0.4038  0.2465
  543SOL    HW1 1628   0.991   0.467   0.651 -3.1851  0.7926 -0.2396
  543SOL    HW2 1629   1.045   0.493   0.802 -0.8301 -1.0007  3.8089
  544SOL     OW 1630   1.912   1.690   1.751  0.1194  0.2715 -0.1085
  544SOL    HW1 1631   1.904   1.706   1.849 -2.0160 -2.1183 -1.6370
  544SOL    HW2 1632   2.001   1.649   1.726 -2.5800  0.9743  0.5905
  545SOL     OW 1633   1.575   1.763   1.116 -0.2611  0.3795 -0.5540
  545SOL    HW1 1634   1.638   1.843   1.125  0.4156 -1.2544  1.0305
  545SOL    HW2 1635   1.628   1.676   1.097 -2.9864 -1.7735  1.6997
  546SOL     OW 1636   0.273   3.004   2.927 -0.2953  0.1352  0.0714
  546SOL    HW1 1637   0.296   3.056   2.839 -0.0155 -0.3775  1.6068
  546SOL    HW2 1638   0.339   3.029   3.002  0.2579 -0.4816 -0.0669
  547SOL     OW 1639   2.227   0.752   2.882  0.5854  0.7522 -0.4065
  547SOL    HW1 1640   2.144   0.801   2.919 -0.9070  0.6084  3.0509
  547SOL    HW2 1641   2.267   0.686   2.946 -0.7164  1.6087 -1.5302
  548SOL     OW 1642   2.205   2.210   2.186  0.1541  0.0128  0.3434
  548SOL    HW1 1643   2.126   2.252   2.239  1.8809  1.8748  1.3246
  548SOL    HW2 1644   2.229   2.272   2.109  0.2069 -1.9605  1.7377
  549SOL     OW 1645   2.499   2.771   0.861 -0.5813 -0.1112 -0.8789
  549SOL    HW1 1646   2.496   2.683   0.916  0.6079 -1.1354 -1.1894
  549SOL    HW2 1647   2.437   2.766   0.778 -0.9884 -1.4078  0.2204
  550SOL     OW 1648   2.161   1.497   3.079  0.4972 -1.0032 -0.4009
  550SOL    HW1 1649   2.134   1.420   0.030 -0.8237  1.7727  1.7623
  550SOL    HW2 1650   2.199   1.574   0.028 -1.9546 -0.0863 -1.6302
  551SOL     OW 1651   1.361   0.040   1.811  0.2482  0.6355  0.4580
  551SOL    HW1 1652   1.436   0.012   1.873  0.4592  0.5853 -2.2693
  551SOL    HW2 1653   1.309   3.065   1.775 -0.4087  3.4101 -0.8675
  552SOL     OW 1654   2.846   2.503   2.883  0.0095  0.2249  0.1788
  552SOL    HW1 1655   2.883   2.434   2.813  0.1290  0.8017  0.1480
  552SOL    HW2 1656   2.860   2.597   2.844  1.4757  1.3416 -0.8830
  553SOL     OW 1657   0.580   0.024   0.795 -0.3852 -0.7318 -0.3873
  553SOL    HW1 1658   0.612   0.020   0.890  1.4329 -2.1577  1.1402
  553SOL    HW2 1659   0.608   0.115   0.755 -1.0070 -0.2583 -1.7750
  554SOL     OW 1660   1.842   2.222   1.572 -0.0152 -0.0872  0.3389
  554SOL    HW1 1661   1.759   2.175   1.607 -0.0578  2.6995  1.9739
  554SOL    HW2 1662   1.881   2.284   1.643  1.6500 -2.9548  1.5906
  555SOL     OW 1663   1.420   1.982   1.513 -0.2919  0.2607  0.5260
  555SOL    HW1 1664   1.489   2.000   1.586  3.1146  1.8328 -0.4701
  555SOL    HW2 1665   1.336   2.035   1.539  1.7440 -4.9210 -1.7848
  556SOL     OW 1666   1.740   1.439   0.532 -0.0460 -0.7640  0.5909
  556SOL    HW1 1667   1.809   1.375   0.565 -2.1634  1.2000  1.1732
  556SOL    HW2 1668   1.699   1.433   0.438  0.9730  1.7567  3.3572
  557SOL     OW 1669   1.408   2.118   2.012 -0.4860  0.0147  0.1906
  557SOL    HW1 1670   1.370   2.194   1.950  0.8037  3.3109 -1.8976
  557SOL    HW2 1671   1.353   2.102   2.095  2.0307 -1.1739 -0.5787
  558SOL     OW 1672   2.924   0.410   1.883  0.1095  0.2140 -0.0001
  558SOL    HW1 1673   3.008   0.471   1.886  1.1890  0.9654  0.6240
  558SOL    HW2 1674   2.889   0.392   1.786 -2.0988  1.2869 -2.2310
  559SOL     OW 1675   2.309   2.820   1.782 -0.0034 -0.4714 -0.1935
  559SOL    HW1 1676   2.331   2.799   1.684 -3.2723  0.0649 -0.5515
  559SOL    HW2 1677   2.389   2.828   1.847  0.7048  1.2128  1.4811
  560SOL     OW 1678   0.608   0.064   3.052 -0.5495  0.6915 -0.1217
  560SOL    HW1 1679   0.628   3.094   2.990 -2.0478  2.0461  2.5735
  560SOL    HW2 1680   0.514   0.051   3.095 -1.3023 -0.6354 -0.8099
  561SOL     OW 1681   1.329   0.963   0.365 -0.6403  0.2237  0.0874
  561SOL    HW1 1682   1.245   0.951   0.418 -0.6039 -1.9151  0.9809
  561SOL    HW2 1683   1.399   1.013   0.414  0.4392 -2.1807  0.9308
  562SOL     OW 1684   0.915   0.862   2.449  0.0396  0.0327 -0.0731
  562SOL    HW1 1685   0.863   0.932   2.498  0.6837 -0.7327  0.3128
  562SOL    HW2 1686   0.972   0.812   2.514 -0.5149  1.0181 -2.2918
  563SOL     OW 1687   1.822   2.476   2.721 -0.2214  0.0130  0.0347
  563SOL    HW1 1688   1.724   2.462   2.707 -3.1118 -0.6595 -2.3956
  563SOL    HW2 1689   1.853   2.573   2.719  0.8564 -1.9423  0.0653
  564SOL     OW 1690   3.052   1.590   0.259 -0.4250  0.1866 -0.4051
  564SOL    HW1 1691   0.008   1.662   0.297  0.6435  1.2828  0.7022
  564SOL    HW2 1692   3.094   1.552   0.174  3.1550  0.6614 -2.6398
  565SOL     OW 1693   1.550   3.018   2.821 -0.2519 -0.3344 -0.3986
  565SOL    HW1 1694   1.548   3.065   2.733  0.8206  0.2250 -0.1980
  565SOL    HW2 1695   1.488   3.066   2.886 -2.7839  1.0520 -1.0111
  566SOL     OW 1696   1.949   2.969   2.444 -0.0021 -0.0371 -0.0878
  566SOL    HW1 1697   1.996   2.890   2.488  3.6154  0.4109 -0.0955
  566SOL    HW2 1698   1.926   3.032   2.522  1.9565  1.4015 -0.6244
  567SOL     OW 1699   2.460   1.251   0.924  0.2741 -0.2243 -0.2677
  567SOL    HW1 1700   2.430   1.179   0.992 -3.4399 -0.8864  1.9507
  567SOL    HW2 1701   2.507   1.331   0.967 -0.6878 -0.8150  0.6909
  568SOL     OW 1702   1.944   1.471   2.918  0.3042 -0.3894 -0.2314
  568SOL    HW1 1703   1.924   1.419   2.829 -3.9943  4.0701 -0.1544
  568SOL    HW2 1704   2.035   1.453   2.961  1.7726 -2.1783  3.0083
  569SOL     OW 1705   2.245   1.917   2.516 -0.3780  0.1216 -0.3196
  569SOL    HW1 1706   2.185   1.944   2.439 -2.7217 -1.9972  1.1891
  569SOL    HW2 1707   2.196   1.888   2.600  1.8513  0.8538 -2.4370
  570SOL     OW 1708   2.912   2.492   1.978 -0.2956 -0.3939  0.1947
  570SOL    HW1 1709   2.871   2.398   1.974 -2.6849 -0.4695 -0.8301
  570SOL    HW2 1710   2.999   2.504   1.921  1.8675  2.1355 -0.8713
  571SOL     OW 1711   0.303   0.122   2.308 -0.3634  0.0406  0.1673
  571SOL    HW1 1712   0.355   0.084   2.386 -0.3380  1.9128  1.2981
  571SOL    HW2 1713   0.290   0.058   2.232  0.0426  0.8292  1.2175
  572SOL     OW 1714   1.053   1.669   0.864  0.3904 -0.5631 -0.5407
  572SOL    HW1 1715   1.030   1.599   0.937 -3.9515 -1.0540 -0.2511
  572SOL    HW2 1716   1.017   1.642   0.776 -2.9963 -1.8421  1.1452
  573SOL     OW 1717   1.092   0.299   0.098  0.3712 -0.0761 -0.5208
  573SOL    HW1 1718   1.146   0.309   0.016  0.0474  0.4452 -0.1857
  573SOL    HW2 1719   1.126   0.368   0.169  0.6323  1.7164  0.4143
  574SOL     OW 1720   0.667   3.016   0.540  0.4357  0.5178  0.1735
  574SOL    HW1 1721   0.639   3.097   0.486 -1.0717 -1.5579 -0.3411
  574SOL    HW2 1722   0.673   3.035   0.637 -0.2943  1.9026 -0.5898
  575SOL     OW 1723   0.062   1.403   1.653 -0.1146 -0.0300  0.1767
  575SOL    HW1 1724   0.022   1.460   1.731 -3.2947 -2.0650  2.3552
  575SOL    HW2 1725   0.123   1.458   1.594 -1.9660  0.2867  2.2439
  576SOL     OW 1726   2.145   0.402   1.730  0.3572 -0.7004  0.0059
  576SOL    HW1 1727   2.205   0.441   1.651  2.7125  1.1797 -0.6525
  576SOL    HW2 1728   2.195   0.404   1.818  0.6010  0.4778  1.0387
  577SOL     OW 1729   2.826   1.422   2.141  0.0677  0.2720 -0.0584
  577SOL    HW1 1730   2.746   1.353   2.148 -1.6859 -0.6320  1.0063
  577SOL    HW2 1731   2.812   1.493   2.215  2.0781  1.2812 -0.1155
  578SOL     OW 1732   1.450   2.890   2.238 -0.3227 -0.2085 -0.4980
  578SOL    HW1 1733   1.359   2.845   2.247  0.3879  1.7196  1.3445
  578SOL    HW2 1734   1.492   2.907   2.331 -1.8781  0.8292  0.4322
  579SOL     OW 1735   1.878   2.042   2.098  0.0678 -0.0818  0.2138
  579SOL    HW1 1736   1.932   2.031   2.015  1.5399  0.9210 -0.0140
  579SOL    HW2 1737   1.941   2.013   2.182  2.6476 -0.5009  2.5174
  580SOL     OW 1738   1.748   1.401   2.108 -0.0778 -0.0939 -0.3315
  580SOL    HW1 1739   1.815   1.344   2.058 -0.7434  3.9168  1.3078
  580SOL    HW2 1740   1.786   1.436   2.197  0.1303 -0.3123  1.4494
  581SOL     OW 1741   1.451   1.326   2.389 -0.4150 -0.3601  0.4564
  581SOL    HW1 1742   1.469   1.297   2.290 -0.5172 -1.0531 -0.3734
  581SOL    HW2 1743   1.541   1.337   2.439 -0.8157  1.9346 -0.5749
  582SOL     OW 1744   0.085   2.051   2.046 -0.1183  0.2314 -0.0843
  582SOL    HW1 1745   0.148   1.971   2.047 -1.7234 -1.5237  2.3462
  582SOL    HW2 1746   3.092   2.029   2.051 -1.4526  0.4856 -0.7637
  583SOL     OW 1747   1.475   0.986   0.819 -0.2284  0.0341 -0.3878
  583SOL    HW1 1748   1.395   1.031   0.779  0.6180  0.4746  0.2535
  583SOL    HW2 1749   1.477   0.982   0.917  1.7061  1.4649 -2.8975
  584SOL     OW 1750   1.089   2.550   0.413  0.4410 -0.3286  0.4453
  584SOL    HW1 1751   1.158   2.626   0.423 -0.9321 -0.5335  1.5993
  584SOL    HW2 1752   1.023   2.589   0.343  1.1330  0.1310 -0.5931
  585SOL     OW 1753   0.004   2.667   0.048 -0.0331 -0.0787  0.2703
  585SOL    HW1 1754   0.066   2.705   0.123  1.9384 -1.6063 -0.2757
  585SOL    HW2 1755   0.063   2.625   3.080 -0.0781  3.5559  1.4162
  586SOL     OW 1756   2.360   1.278   0.660  0.2880  0.3346 -0.0830
  586SOL    HW1 1757   2.345   1.183   0.625  0.2589 -1.0470  1.2952
  586SOL    HW2 1758   2.387   1.275   0.762  0.3119 -1.0243  3.6602
  587SOL     OW 1759   0.730   1.472   0.099 -0.7503 -0.6580 -0.2757
  587SOL    HW1 1760   0.763   1.375   0.078 -1.1095 -0.4421 -1.6160
  587SOL    HW2 1761   0.807   1.537   0.107 -1.1756  0.5554  0.8772
  588SOL     OW 1762   0.221   0.147   0.713  0.0290 -0.3350  0.6116
  588SOL    HW1 1763   0.168   0.200   0.643 -0.5100 -1.8466  2.3421
  588SOL    HW2 1764   0.290   0.203   0.764 -0.7275  0.8875 -0.5903
  589SOL     OW 1765   1.363   0.032   0.867 -0.5572 -0.4732  0.2051
  589SOL    HW1 1766   1.316   0.105   0.814 -0.5722 -2.4166  5.0368
  589SOL    HW2 1767   1.344   0.037   0.964 -1.6892  0.4979 -2.1576
  590SOL     OW 1768   2.462   2.319   0.468 -0.1512 -0.4610  0.5449
  590SOL    HW1 1769   2.510   2.380   0.532 -3.3145 -1.9110  2.2058
  590SOL    HW2 1770   2.482   2.339   0.371 -0.3311  1.2833  0.5518
  591SOL     OW 1771   0.277   2.462   2.027  0.6878  0.4166 -0.6825
  591SOL    HW1 1772   0.265   2.524   2.106  0.1429 -0.3027  1.1906
  591SOL    HW2 1773   0.324   2.504   1.952  1.0995 -3.1981  0.4519
  592SOL     OW 1774   0.181   1.890   2.379  0.0376 -0.3401 -0.2005
  592SOL    HW1 1775   0.140   1.806   2.345  3.0239  2.0282  0.0030
  592SOL    HW2 1776   0.258   1.921   2.318  0.2428 -1.3466  0.2500
  593SOL     OW 1777   1.299   1.383   1.272 -0.3915 -0.3055 -0.4276
  593SOL    HW1 1778   1.253   1.455   1.325  4.4802 -1.4348 -2.4873
  593SOL    HW2 1779   1.283   1.389   1.171  1.0340  4.9033  1.9878
  594SOL     OW 1780   0.492   1.278   2.839 -0.3884 -0.0056  0.0877
  594SOL    HW1 1781   0.459   1.223   2.915  2.7295  1.7981  1.0769
  594SOL    HW2 1782   0.549   1.348   2.888  0.3263 -0.9640 -1.2693
  595SOL     OW 1783   1.342   0.730   0.985 -0.0095  0.1225 -0.1136
  595SOL    HW1 1784   1.387   0.807   1.036 -0.5522  0.3293  0.7316
  595SOL    HW2 1785   1.262   0.771   0.945 -0.7429 -0.2281  3.5961
  596SOL     OW 1786   0.499   1.104   1.124 -0.2284 -0.2453  0.1255
  596SOL    HW1 1787   0.601   1.109   1.116 -0.1233 -1.2878  0.1530
  596SOL    HW2 1788   0.452   1.182   1.077  0.4144 -0.1272 -2.8017
  597SOL     OW 1789   0.640   2.382   2.119 -0.5612  0.2646  0.1098
  597SOL    HW1 1790   0.639   2.468   2.166 -0.5726 -0.5204 -1.7672
  597SOL    HW2 1791   0.655   2.397   2.019 -0.8207 -0.2602  2.1836
  598SOL     OW 1792   2.362   2.544   2.159 -0.0096 -0.2864 -0.6664
  598SOL    HW1 1793   2.346   2.626   2.213  0.1151  1.0129  0.0787
  598SOL    HW2 1794   2.440   2.564   2.101 -2.3143 -1.8930 -0.3476
  599SOL     OW 1795   1.039   1.174   0.478  0.5044 -0.3960 -0.2392
  599SOL    HW1 1796   1.055   1.256   0.542 -4.8160  4.9905  2.9253
  599SOL    HW2 1797   1.023   1.214   0.381  0.9719  2.2414  0.5017
  600SOL     OW 1798   1.749   0.442   0.403  0.1783 -0.1613 -0.4257
  600SOL    HW1 1799   1.708   0.353   0.375  0.5415  0.0822 -2.2841
  600SOL    HW2 1800   1.847   0.428   0.422  0.6515 -0.9108 -1.5269
  601SOL     OW 1801   0.588   0.160   1.517  0.3016 -0.3135 -0.1703
  601SOL    HW1 1802   0.577   0.099   1.597 -1.3234  0.0045  1.7374
  601SOL    HW2 1803   0.543   0.249   1.525  1.2580 -0.3712 -2.0980
  602SOL     OW 1804   0.319   2.235   0.781 -0.1643 -0.6949  0.3974
  602SOL    HW1 1805   0.386   2.201   0.851  0.5589 -0.7525 -0.3056
  602SOL    HW2 1806   0.366   2.249   0.694  0.8621 -1.1833 -1.8532
  603SOL     OW 1807   1.125   2.836   2.920 -0.7467  0.0399  0.4235
  603SOL    HW1 1808   1.150   2.739   2.903 -1.0296  1.5932  2.1721
  603SOL    HW2 1809   1.085   2.873   2.836  0.8697 -0.0288 -0.7198
  604SOL     OW 1810   0.628   2.333   0.344  0.4772  0.2157 -0.0166
  604SOL    HW1 1811   0.536   2.325   0.298  0.0966  0.4452  1.8495
  604SOL    HW2 1812   0.686   2.412   0.308  1.9805 -0.5164  3.3796
  605SOL     OW 1813   1.540   1.486   1.467 -0.1767 -0.5788  0.1809
  605SOL    HW1 1814   1.507   1.395   1.430 -0.1073 -3.8900 -1.2182
  605SOL    HW2 1815   1.486   1.566   1.435 -0.2062 -1.1595  1.5898
  606SOL     OW 1816   0.759   1.225   2.796 -0.2235  0.3061  0.2963
  606SOL    HW1 1817   0.769   1.175   2.884  0.0809  0.4568 -1.9498
  606SOL    HW2 1818   0.666   1.260   2.784  1.1479  0.3578  0.5301
  607SOL     OW 1819   1.029   0.929   1.343  0.4808  0.5873  0.3319
  607SOL    HW1 1820   0.926   0.938   1.357  2.3877  1.3945  0.8291
  607SOL    HW2 1821   1.065   0.835   1.354  2.3959 -0.6639 -1.6967
  608SOL     OW 1822   2.819   2.224   1.987 -0.2321  0.6580 -0.1027
  608SOL    HW1 1823   2.858   2.149   2.042 -2.0416 -0.2119 -1.4554
  608SOL    HW2 1824   2.721   2.237   2.009  1.7941  0.1578 -0.7464
  609SOL     OW 1825   2.313   0.212   0.165 -0.1739 -0.0577 -0.2826
  609SOL    HW1 1826   2.328   0.263   0.253 -2.5390  1.9367  0.5782
  609SOL    HW2 1827   2.354   0.120   0.165  0.2435 -1.2768  0.6483
  610SOL     OW 1828   0.108   2.644   1.599  0.0405 -0.0889 -0.3507
  610SOL    HW1 1829   0.153   2.723   1.549  0.0903 -0.3888  0.8566
  610SOL    HW2 1830   0.078   2.578   1.526 -0.1250 -3.2845  0.2526
  611SOL     OW 1831   1.559   1.695   0.703  0.0645  0.1273 -0.0999
  611SOL    HW1 1832   1.478   1.678   0.760  3.0961  1.7257 -0.8721
  611SOL    HW2 1833   1.647   1.661   0.743 -2.1093 -0.1093  0.9600
  612SOL     OW 1834   0.556   0.169   2.004 -0.5907  0.1308  0.4326
  612SOL    HW1 1835   0.601   0.253   2.040  1.4944  1.4720  3.2911
  612SOL    HW2 1836   0.467   0.185   1.962  5.1057 -1.2215  0.6551
  613SOL     OW 1837   2.497   1.245   0.350  0.3330  0.7777  0.1777
  613SOL    HW1 1838   2.432   1.319   0.366 -1.0035  0.7271  1.1648
  613SOL    HW2 1839   2.549   1.226   0.435  1.3375 -0.7292  0.6653
  614SOL     OW 1840   1.873   0.344   1.750 -0.0905 -0.8914  0.1878
  614SOL    HW1 1841   1.965   0.383   1.741 -2.8884 -0.2495 -0.9165
  614SOL    HW2 1842   1.867   0.259   1.700 -0.6048  3.4193  3.9856
  615SOL     OW 1843   0.679   1.510   1.501  0.0023 -0.6082  0.3338
  615SOL    HW1 1844   0.769   1.550   1.518  1.3745 -1.3858 -2.0571
  615SOL    HW2 1845   0.621   1.587   1.472 -0.6091 -2.7288  1.5775
  616SOL     OW 1846   1.514   1.957   3.058  0.0289 -0.0996  0.4563
  616SOL    HW1 1847   1.493   1.879   0.013 -1.0004  1.5563 -1.5581
  616SOL    HW2 1848   1.616   1.966   3.066 -2.7580 -0.8192  1.6985
  617SOL     OW 1849   2.336   3.006   0.121  0.4560 -0.3890 -0.0902
  617SOL    HW1 1850   2.345   3.049   0.028  3.1609  0.6513 -1.2828
  617SOL    HW2 1851   2.308   2.910   0.113 -2.0878  1.8062  1.3277
  618SOL     OW 1852   0.728   0.565   2.575 -0.1604  0.5579  0.3695
  618SOL    HW1 1853   0.728   0.620   2.489 -2.2936  0.0197  0.2246
  618SOL    HW2 1854   0.705   0.625   2.657 -0.5535 -0.1762  1.7634
  619SOL     OW 1855   2.886   1.370   0.900 -0.1616  0.5765 -0.1020
  619SOL    HW1 1856   2.815   1.310   0.852 -2.1958  0.2162 -0.9876
  619SOL    HW2 1857   2.941   1.427   0.834  2.5067  0.1676 -0.6769
  620SOL     OW 1858   2.333   3.052   2.928 -0.6142 -0.0140  0.7543
  620SOL    HW1 1859   2.384   2.969   2.898  2.2982 -0.8501  1.4373
  620SOL    HW2 1860   2.233   3.042   2.919 -1.3206  0.0957  0.1798
  621SOL     OW 1861   2.334   1.451   2.862 -0.0050 -0.4350  0.3998
  621SOL    HW1 1862   2.280   1.443   2.947  0.6277 -1.8577  1.2921
  621SOL    HW2 1863   2.365   1.361   2.826  3.3454 -1.3957  1.0488
  622SOL     OW 1864   1.656   2.711   2.213 -0.6629  0.0974  0.1265
  622SOL    HW1 1865   1.712   2.707   2.299  2.2725  0.5128  1.5145
  622SOL    HW2 1866   1.612   2.800   2.204  1.8023 -0.4844 -1.2889
  623SOL     OW 1867   1.187   1.797   0.503  0.4681 -0.3318 -0.2715
  623SOL    HW1 1868   1.200   1.847   0.592  0.7068  2.6481  2.2204
  623SOL    HW2 1869   1.131   1.847   0.440  0.2423  0.9450  2.2517
  624SOL     OW 1870   0.384   3.069   0.049 -0.4672  0.1621 -0.1601
  624SOL    HW1 1871   0.368   3.015   0.133  0.3557  0.4435 -1.4744
  624SOL    HW2 1872   0.347   0.061   0.056 -1.6416 -0.0319 -0.0656
  625SOL     OW 1873   0.751   1.665   0.448  0.6415  0.2774 -0.2229
  625SOL    HW1 1874   0.711   1.732   0.513 -1.8465 -0.4822  0.1934
  625SOL    HW2 1875   0.676   1.619   0.394  0.2010  0.0742 -1.5460
  626SOL     OW 1876   2.980   2.861   3.025  0.1034 -0.0418 -0.0847
  626SOL    HW1 1877   3.033   2.785   3.075  1.7564 -1.6949  0.8829
  626SOL    HW2 1878   3.036   2.939   2.985  0.3845  0.5160 -1.7567
  627SOL     OW 1879   0.976   1.927   2.558 -0.1739  0.3947 -0.5331
  627SOL    HW1 1880   0.905   1.859   2.527  0.8928 -1.5628 -0.1790
  627SOL    HW2 1881   1.066   1.885   2.552 -1.4699  0.2774 -1.7896
  628SOL     OW 1882   0.282   0.055   2.716 -0.5186 -0.3290  0.0340
  628SOL    HW1 1883   0.362   0.060   2.650  1.2910  0.9069  0.7719
  628SOL    HW2 1884   0.192   0.064   2.664 -0.0164  1.6787 -0.6557
  629SOL     OW 1885   0.545   2.889   2.251 -0.1212 -0.3553  0.3700
  629SOL    HW1 1886   0.577   2.945   2.170  0.2517 -1.6528  0.7847
  629SOL    HW2 1887   0.463   2.837   2.221 -2.1600  0.9706  0.0604
  630SOL     OW 1888   1.505   0.987   1.878  0.4455 -0.1492 -0.5182
  630SOL    HW1 1889   1.529   0.919   1.807  0.6583 -0.4166 -0.7939
  630SOL    HW2 1890   1.405   1.010   1.890  5.2688  2.6095  0.8425
  631SOL     OW 1891   2.161   0.969   0.339  0.1386  0.6924 -0.4688
  631SOL    HW1 1892   2.220   0.931   0.260  2.4015 -0.1275 -2.3264
  631SOL    HW2 1893   2.212   0.998   0.420 -1.9414  0.7151  0.2757
  632SOL     OW 1894   2.200   0.677   1.898  0.2711 -0.5532  0.0573
  632SOL    HW1 1895   2.209   0.720   1.990  0.5773 -2.2230  0.1910
  632SOL    HW2 1896   2.217   0.577   1.918  4.0520 -3.8360  1.8483
  633SOL     OW 1897   0.773   2.550   0.266 -0.1681 -0.0708  0.2906
  633SOL    HW1 1898   0.851   2.563   0.205  0.3428 -0.1323  4.2224
  633SOL    HW2 1899   0.746   2.637   0.312  1.4550 -1.0208 -0.6360
  634SOL     OW 1900   1.731   2.674   2.480 -0.2592 -0.4923 -0.3758
  634SOL    HW1 1901   1.689   2.586   2.504  2.2375  3.3803 -2.4560
  634SOL    HW2 1902   1.667   2.757   2.488 -0.9898  3.1633 -0.6029
  635SOL     OW 1903   2.308   0.563   3.050 -0.3800  0.3989 -0.3837
  635SOL    HW1 1904   2.392   0.542   3.103 -0.1180  2.0926  0.4779
  635SOL    HW2 1905   2.236   0.585   0.016  1.1067 -0.4357 -0.4542
  636SOL     OW 1906   0.575   1.028   0.763 -0.1214  0.4755  0.0637
  636SOL    HW1 1907   0.496   0.985   0.813 -1.8111  2.7417 -0.9185
  636SOL    HW2 1908   0.665   1.027   0.814  1.5777  0.1296 -1.2519
  637SOL     OW 1909   3.026   1.802   0.760  0.4401  0.1431  0.3195
  637SOL    HW1 1910   3.002   1.825   0.860  1.9521 -0.3366  0.8657
  637SOL    HW2 1911   3.103   1.861   0.725  1.1228  0.3877 -1.7498
  638SOL     OW 1912   1.013   0.035   0.146 -0.3590  0.1542 -0.4358
  638SOL    HW1 1913   0.914   0.021   0.160  2.0525  1.4865 -1.9480
  638SOL    HW2 1914   1.032   0.134   0.136 -1.2242  1.3881 -1.0777
  639SOL     OW 1915   1.436   1.749   0.138 -0.2011 -0.1075 -0.1282
  639SOL    HW1 1916   1.368   1.671   0.143 -1.4083 -2.1016 -1.7717
  639SOL    HW2 1917   1.436   1.797   0.229  2.3925 -2.1027  1.8379
  640SOL     OW 1918   1.912   2.790   0.787 -0.3887 -0.1546 -0.0168
  640SOL    HW1 1919   1.917   2.766   0.688 -0.0381 -1.5580  3.7499
  640SOL    HW2 1920   1.994   2.840   0.814  0.1856 -2.2499 -1.5635
  641SOL     OW 1921   0.200   2.503   0.833  0.1588 -0.0634  0.3138
  641SOL    HW1 1922   0.233   2.412   0.796 -0.4641  0.5282 -0.3385
  641SOL    HW2 1923   0.236   2.574   0.771  1.3648  0.2274  1.8626
  642SOL     OW 1924   0.808   0.246   1.719 -0.0582 -0.0708  0.3327
  642SOL    HW1 1925   0.785   0.218   1.622 -0.7558  0.1390 -1.1740
  642SOL    HW2 1926   0.905   0.285   1.729  0.8727  0.8329  1.2754
  643SOL     OW 1927   0.671   2.043   2.104  0.3025 -0.4164 -0.2494
  643SOL    HW1 1928   0.660   2.127   2.162  0.3995  1.0385  0.0934
  643SOL    HW2 1929   0.640   2.059   2.007  0.5357  1.9517  1.3108
  644SOL     OW 1930   0.547   2.749   0.470  0.4668 -0.1676  0.3579
  644SOL    HW1 1931   0.575   2.849   0.465  2.7587 -0.1647  0.4279
  644SOL    HW2 1932   0.611   2.701   0.533 -1.1641  1.9084 -0.9563
  645SOL     OW 1933   1.222   2.058   0.376  0.0176  0.0821  0.2676
  645SOL    HW1 1934   1.186   2.152   0.400 -2.0152 -0.1906  2.1817
  645SOL    HW2 1935   1.326   2.057   0.364  2.1802  1.4495 -1.3818
  646SOL     OW 1936   0.388   1.177   0.231  0.2599 -0.2174  0.3226
  646SOL    HW1 1937   0.433   1.197   0.317 -0.8997 -1.0439 -3.9427
  646SOL    HW2 1938   0.325   1.099   0.244  1.2948  3.2394  1.6741
  647SOL     OW 1939   0.984   0.153   1.044 -0.3828 -0.2171  0.3235
  647SOL    HW1 1940   1.031   0.235   1.079  1.9711  1.3471  0.3430
  647SOL    HW2 1941   1.020   0.064   1.086 -0.3160 -2.0826 -1.0271
  648SOL     OW 1942   2.365   0.095   1.534  0.0059  0.2145  0.3061
  648SOL    HW1 1943   2.313   0.077   1.448  4.7009  2.0562  0.6392
  648SOL    HW2 1944   2.431   0.021   1.548 -3.8804  2.0690 -1.5110
  649SOL     OW 1945   0.857   2.174   2.835  0.0385 -0.5005  0.1052
  649SOL    HW1 1946   0.808   2.088   2.822  2.1012  0.9651 -0.2392
  649SOL    HW2 1947   0.890   2.189   2.741  1.4041  0.6679 -0.2965
  650SOL     OW 1948   2.921   1.810   1.790 -0.1497  0.2414 -0.1997
  650SOL    HW1 1949   2.837   1.755   1.760 -1.8517  0.3673  0.0253
  650SOL    HW2 1950   2.999   1.820   1.721  0.0359 -0.6275 -1.7867
  651SOL     OW 1951   1.236   0.094   0.374  0.1032  0.4139  0.8148
  651SOL    HW1 1952   1.282   0.034   0.307 -1.4046  0.4524 -0.0443
  651SOL    HW2 1953   1.308   0.119   0.448 -1.0326  0.6854 -0.9783
  652SOL     OW 1954   2.897   1.946   0.253  0.4758  0.7908  0.4668
  652SOL    HW1 1955   2.807   1.900   0.261 -0.7573 -0.1841  0.3955
  652SOL    HW2 1956   2.884   2.041   0.227 -0.6326 -1.2896  1.0647
  653SOL     OW 1957   0.055   0.112   0.953  0.2806  0.4134 -0.3420
  653SOL    HW1 1958   0.067   0.014   0.983 -2.6784 -2.1575  0.7613
  653SOL    HW2 1959   0.128   0.142   0.885  1.7239  1.4374  0.3428
  654SOL     OW 1960   1.994   0.332   2.673 -1.0982  0.3456 -0.3651
  654SOL    HW1 1961   2.041   0.347   2.767  3.8752 -0.6663  2.2213
  654SOL    HW2 1962   1.893   0.355   2.665  1.0878  0.7581  1.8896
  655SOL     OW 1963   0.441   2.466   0.982  0.3284 -0.1009  0.4513
  655SOL    HW1 1964   0.367   2.516   0.933 -0.7361 -0.7728 -1.5620
  655SOL    HW2 1965   0.410   2.373   1.009  2.1377  1.7282 -1.3389
  656SOL     OW 1966   0.141   0.090   1.648  0.2531 -0.0611 -0.1196
  656SOL    HW1 1967   0.056   0.081   1.700  1.0083  0.1948 -1.4285
  656SOL    HW2 1968   0.147   0.165   1.583  0.9573 -1.6731  0.6883
  657SOL     OW 1969   2.267   0.720   2.150 -0.1865 -0.2499 -0.4320
  657SOL    HW1 1970   2.342   0.645   2.145  0.7961 -1.4267  2.0652
  657SOL    HW2 1971   2.185   0.671   2.178  1.7434  2.5658  0.8726
  658SOL     OW 1972   2.387   1.684   1.042 -0.0823 -0.3673  0.2169
  658SOL    HW1 1973   2.391   1.717   1.136  2.4851  3.1043 -0.3541
  658SOL    HW2 1974   2.427   1.760   0.990 -2.0256 -0.1931  1.3640
  659SOL     OW 1975   2.478   0.139   2.844 -0.1312  0.2780 -0.1247
  659SOL    HW1 1976   2.537   0.110   2.764 -1.4394 -2.7061  0.2233
  659SOL    HW2 1977   2.414   0.062   2.866  0.3312 -2.2047 -1.2843
  660SOL     OW 1978   1.202   1.503   2.717  1.0917  0.2627 -0.5525
  660SOL    HW1 1979   1.269   1.563   2.671 -2.7416  1.3951  0.3265
  660SOL    HW2 1980   1.237   1.448   2.796 -1.0666 -0.6639 -0.3861
  661SOL     OW 1981   2.702   2.360   0.875 -0.1529 -0.1501 -0.3557
  661SOL    HW1 1982   2.665   2.268   0.884 -1.5231  0.5849  1.1748
  661SOL    HW2 1983   2.810   2.362   0.877  4.0086 -0.7556 -0.7107
  662SOL     OW 1984   0.756   0.726   0.113  0.2408 -0.2015 -0.4566
  662SOL    HW1 1985   0.841   0.737   0.163 -2.6021  1.4854 -0.6569
  662SOL    HW2 1986   0.686   0.784   0.154  1.3264 -1.6502  0.9750
  663SOL     OW 1987   1.752   2.032   0.320  0.1327 -0.0766  0.0850
  663SOL    HW1 1988   1.824   2.098   0.345  1.3124 -0.6342  0.5186
  663SOL    HW2 1989   1.784   1.957   0.262  0.0590  1.7142  0.9399
  664SOL     OW 1990   0.686   2.326   1.550  0.0300  0.2611  0.0659
  664SOL    HW1 1991   0.735   2.332   1.463 -2.8981 -0.5012  1.3977
  664SOL    HW2 1992   0.611   2.399   1.547  0.3922 -0.7797  0.3424
  665SOL     OW 1993   2.022   1.985   1.851  0.0784 -0.3049  0.4351
  665SOL    HW1 1994   2.015   2.087   1.840 -1.8574  2.2123  0.6479
  665SOL    HW2 1995   2.001   1.942   1.757  0.5953 -4.9051 -0.9246
  666SOL     OW 1996   0.356   2.613   0.323 -0.0922  0.0964  0.0948
  666SOL    HW1 1997   0.430   2.667   0.373  1.5539 -1.7746 -0.1185
  666SOL    HW2 1998   0.382   2.601   0.226  0.4685  0.3777 -4.1302
  667SOL     OW 1999   2.000   1.272   1.677  0.5371 -0.4332 -0.9711
  667SOL    HW1 2000   1.940   1.272   1.597 -0.4608 -2.0224 -0.2845
  667SOL    HW2 2001   1.953   1.262   1.765  1.3518  1.2835  0.2596
  668SOL     OW 2002   0.487   0.411   2.562  0.8981 -0.4984 -0.2646
  668SOL    HW1 2003   0.572   0.466   2.563 -0.6301  0.6608 -1.6538
  668SOL    HW2 2004   0.500   0.309   2.578  0.7260 -1.6627  2.0106
  669SOL     OW 2005   1.821   2.232   2.502 -0.3953  0.1591  0.3057
  669SOL    HW1 2006   1.793   2.321   2.525 -1.0835 -1.8395 -1.5625
  669SOL    HW2 2007   1.750   2.179   2.452  1.7031 -0.4344 -1.5434
  670SOL     OW 2008   2.338   2.374   3.104 -0.3067  0.5150  0.2669
  670SOL    HW1 2009   2.246   2.415   3.098  1.0460 -0.7242  0.3213
  670SOL    HW2 2010   2.322   2.274   3.094 -0.3947  2.5200  0.0577
  671SOL     OW 2011   0.768   1.093   1.134  0.0615 -0.0208 -0.5115
  671SOL    HW1 2012   0.802   1.189   1.147 -1.2291 -1.4119  1.8941
  671SOL    HW2 2013   0.755   1.052   1.226  0.0108 -3.1440 -2.2842
  672SOL     OW 2014   2.648   0.940   2.300  0.2692  0.0550  0.3330
  672SOL    HW1 2015   2.693   0.946   2.209  1.6583  0.2213 -1.7645
  672SOL    HW2 2016   2.648   1.033   2.342  0.0964  0.2621  0.6032
  673SOL     OW 2017   2.632   2.382   2.254 -0.1578 -0.2837  0.0906
  673SOL    HW1 2018   2.684   2.327   2.322 -3.0228 -1.9082  0.1394
  673SOL    HW2 2019   2.673   2.474   2.246  1.2107  0.3228 -2.3753
  674SOL     OW 2020   1.217   2.771   2.290 -0.3711 -0.3866 -0.0921
  674SOL    HW1 2021   1.237   2.779   2.391  0.4920  3.6701 -1.9431
  674SOL    HW2 2022   1.210   2.676   2.258  1.2198  2.0466  0.2093
  675SOL     OW 2023   0.724   0.915   1.682 -0.1919  0.6460  0.0072
  675SOL    HW1 2024   0.814   0.864   1.666  2.2205 -1.0460  1.8110
  675SOL    HW2 2025   0.726   1.013   1.655 -0.2068 -0.4999  2.1139
  676SOL     OW 2026   1.903   0.882   0.548  0.1234 -0.0020  0.7635
  676SOL    HW1 2027   1.805   0.883   0.583 -1.1899 -0.6263  0.8129
  676SOL    HW2 2028   1.918   0.968   0.496  0.0700 -1.6095 -0.2087
  677SOL     OW 2029   2.955   1.735   2.625  0.0684 -0.4074  0.0925
  677SOL    HW1 2030   3.028   1.695   2.683  0.9859  1.4608  0.5001
  677SOL    HW2 2031   2.968   1.836   2.607 -1.1460  4.5927  3.6199
  678SOL     OW 2032   2.738   2.185   1.323  0.3214  0.0371 -0.3465
  678SOL    HW1 2033   2.700   2.276   1.330  0.0378 -0.9655 -1.7666
  678SOL    HW2 2034   2.676   2.118   1.373  1.1994 -1.2852  0.3888
  679SOL     OW 2035   1.954   2.597   0.566  0.1637  0.3017 -0.3799
  679SOL    HW1 2036   2.054   2.581   0.554  0.4586  1.3733  0.7930
  679SOL    HW2 2037   1.903   2.526   0.511 -0.8396 -0.3506 -0.7509
  680SOL     OW 2038   0.595   2.625   2.601 -0.1458 -0.7250 -0.4958
  680SOL    HW1 2039   0.533   2.704   2.583  0.1132  1.4825 -2.5312
  680SOL    HW2 2040   0.693   2.660   2.585  1.6674  0.3311  2.2726
  681SOL     OW 2041   3.075   1.124   1.635 -0.3367 -0.7911  0.4705
  681SOL    HW1 2042   3.100   1.224   1.633 -0.7486  1.7349 -2.7012
  681SOL    HW2 2043   2.999   1.105   1.568 -2.0934 -2.6388  0.5206
  682SOL     OW 2044   0.160   2.022   1.269 -0.1642  0.3439  0.2468
  682SOL    HW1 2045   0.141   2.064   1.361  0.1494 -0.5609 -2.2668
  682SOL    HW2 2046   0.250   1.974   1.271 -0.2031 -0.2712 -1.1205
  683SOL     OW 2047   2.599   1.297   1.229  0.0562 -0.0046  0.3308
  683SOL    HW1 2048   2.611   1.373   1.159  1.2268  2.1230 -1.2484
  683SOL    HW2 2049   2.586   1.336   1.320 -0.6056 -2.4273 -3.3919
  684SOL     OW 2050   2.592   1.511   2.914  0.0878  0.7123  0.2708
  684SOL    HW1 2051   2.674   1.451   2.905 -1.0335  3.7919 -1.8018
  684SOL    HW2 2052   2.507   1.466   2.875 -1.0815  0.7265  1.0633
  685SOL     OW 2053   1.170   1.332   3.086  0.1684  0.0302  0.3935
  685SOL    HW1 2054   1.084   1.313   3.034 -0.3418 -3.2133 -0.0894
  685SOL    HW2 2055   1.252   1.343   3.021  0.6530 -1.8259  0.8273
  686SOL     OW 2056   0.212   0.281   1.120 -0.1931  0.6107  0.1912
  686SOL    HW1 2057   0.225   0.225   1.201  0.4882  1.4325 -0.0436
  686SOL    HW2 2058   0.147   0.233   1.060  2.7016  3.1149  0.0575
  687SOL     OW 2059   0.761   1.767   2.489 -0.0292  0.1941  0.4456
  687SOL    HW1 2060   0.768   1.663   2.503 -0.4359  1.0332  0.5944
  687SOL    HW2 2061   0.734   1.800   2.394  0.5720 -0.6026 -2.8450
  688SOL     OW 2062   0.420   1.916   1.255 -0.0230 -0.0331  0.7612
  688SOL    HW1 2063   0.479   1.948   1.178 -0.9253  0.1877 -0.9500
  688SOL    HW2 2064   0.458   1.962   1.339  1.9079 -1.3680 -1.4700
  689SOL     OW 2065   1.539   0.908   1.467 -0.1313  0.2943 -0.5343
  689SOL    HW1 2066   1.486   0.988   1.430 -1.7152  0.7091  3.3882
  689SOL    HW2 2067   1.636   0.908   1.427  2.1868  1.9987 -0.3737
  690SOL     OW 2068   2.542   0.854   1.102  0.7344 -0.2560 -0.4351
  690SOL    HW1 2069   2.508   0.827   1.008 -0.1348  2.6840  0.5336
  690SOL    HW2 2070   2.646   0.840   1.105  3.6898  1.2068 -0.3793
  691SOL     OW 2071   0.254   2.225   1.902  0.1544  0.3097 -0.1257
  691SOL    HW1 2072   0.254   2.314   1.949 -0.3256  0.3058 -1.8869
  691SOL    HW2 2073   0.188   2.163   1.949  0.3329  0.0004  1.0784
  692SOL     OW 2074   1.743   3.000   0.885 -0.0714  0.4484  0.5213
  692SOL    HW1 2075   1.828   2.942   0.874 -0.8170  2.1090  0.0995
  692SOL    HW2 2076   1.696   2.979   0.974 -0.3197  1.9677 -0.2511
  693SOL     OW 2077   0.219   1.573   2.553 -0.8018 -0.5737 -0.2615
  693SOL    HW1 2078   0.239   1.670   2.576  0.6249 -2.0675 -2.5348
  693SOL    HW2 2079   0.133   1.563   2.497  1.2831 -2.0450  1.5702
  694SOL     OW 2080   2.211   0.699   1.141  0.0617  0.3762 -0.1118
  694SOL    HW1 2081   2.296   0.646   1.158  2.0217 -0.2166  0.7647
  694SOL    HW2 2082   2.158   0.713   1.225 -1.7526 -2.0399  1.1829
  695SOL     OW 2083   0.747   1.159   1.579  0.2944  0.7363  0.4883
  695SOL    HW1 2084   0.688   1.234   1.613  1.5804 -1.1909 -1.7094
  695SOL    HW2 2085   0.805   1.188   1.498 -1.8976  0.8264 -0.3926
  696SOL     OW 2086   1.661   0.080   0.429  0.6658  0.3710 -0.2373
  696SOL    HW1 2087   1.674   0.002   0.492 -0.6796  3.3203 -0.8396
  696SOL    HW2 2088   1.567   0.120   0.441 -0.1372 -0.1974  0.5307
  697SOL     OW 2089   0.727   0.212   0.999  0.0970 -0.4334  0.5497
  697SOL    HW1 2090   0.713   0.308   0.969 -3.7986 -2.5861  2.1138
  697SOL    HW2 2091   0.824   0.187   1.020 -1.7030 -0.1539 -0.8687
  698SOL     OW 2092   1.522   1.668   2.721  0.7450  0.1704  0.3562
  698SOL    HW1 2093   1.487   1.669   2.624 -1.2805 -2.0238  1.9836
  698SOL    HW2 2094   1.617   1.698   2.723 -1.5565 -1.7881  0.4478
  699SOL     OW 2095   1.189   1.031   1.152  0.7169 -0.0592  0.1657
  699SOL    HW1 2096   1.133   0.994   1.229 -0.6161  1.2622 -1.4242
  699SOL    HW2 2097   1.151   0.999   1.061 -2.7136 -0.2260 -3.6034
  700SOL     OW 2098   1.166   2.959   0.615  0.2461  0.1702 -0.0488
  700SOL    HW1 2099   1.184   3.028   0.542  1.3150  1.0934  0.2000
  700SOL    HW2 2100   1.254   2.937   0.662 -0.7738 -0.1186 -0.2385
  701SOL     OW 2101   2.621   2.873   2.717  0.0526 -0.4533  0.0808
  701SOL    HW1 2102   2.539   2.839   2.770 -0.3669  2.8517 -1.3328
  701SOL    HW2 2103   2.593   2.961   2.674  0.0284 -0.0211  0.1791
  702SOL     OW 2104   0.995   0.186   0.451  0.4152  0.2369  0.2546
  702SOL    HW1 2105   1.065   0.136   0.402  0.9891  1.2920 -0.5619
  702SOL    HW2 2106   0.982   0.155   0.548 -0.5123  0.9463 -0.3576
  703SOL     OW 2107   2.461   0.414   2.100  0.4188  0.3890  0.0148
  703SOL    HW1 2108   2.441   0.455   2.186  2.1848  1.9503  1.1044
  703SOL    HW2 2109   2.548   0.451   2.059 -0.8066 -3.3417 -0.3799
  704SOL     OW 2110   2.998   1.528   0.713  1.0276  0.0328  0.1842
  704SOL    HW1 2111   2.972   1.499   0.618  2.3575 -2.4225 -0.9132
  704SOL    HW2 2112   3.015   1.629   0.728 -0.3433  0.0718  0.9478
  705SOL     OW 2113   3.038   2.972   2.178 -0.2290 -0.2173 -0.0633
  705SOL    HW1 2114   3.033   3.074   2.191 -0.5560  2.6557 -0.7849
  705SOL    HW2 2115   2.966   2.924   2.232  1.1225  2.3946  0.2360
  706SOL     OW 2116   2.472   2.461   0.954  0.2066  0.4463  0.5034
  706SOL    HW1 2117   2.564   2.424   0.929 -2.3049 -1.4866  0.7957
  706SOL    HW2 2118   2.412   2.432   0.873 -0.6304  2.4160 -2.0404
  707SOL     OW 2119   1.230   2.136   1.633  0.4134  0.4383 -0.3529
  707SOL    HW1 2120   1.187   2.199   1.564 -0.4930  1.1732  2.7710
  707SOL    HW2 2121   1.164   2.134   1.714  1.2221  0.3889 -0.7331
  708SOL     OW 2122   0.043   2.504   1.848  0.1423  0.4470  0.3778
  708SOL    HW1 2123   0.077   2.562   1.770  2.4189 -1.5217  1.3865
  708SOL    HW2 2124   0.097   2.416   1.851  1.7049  0.7014  1.3395
  709SOL     OW 2125   2.142   2.948   2.137 -0.0584  0.2260 -0.1485
  709SOL    HW1 2126   2.043   2.915   2.147 -1.9577 -1.8250  0.2052
  709SOL    HW2 2127   2.164   2.990   2.047 -0.8459 -1.2110  2.8680
  710SOL     OW 2128   1.886   0.896   2.649  0.2289  0.0265  0.0735
  710SOL    HW1 2129   1.974   0.845   2.635 -0.9116  1.7773  1.4734
  710SOL    HW2 2130   1.881   0.966   2.578 -0.0897  0.3555  0.5192
  711SOL     OW 2131   1.110   2.369   0.012  0.2838 -0.2637 -0.4207
  711SOL    HW1 2132   1.136   2.385   0.109  1.2795  1.4056  2.8780
  711SOL    HW2 2133   1.008   2.365   0.005  1.0623 -0.8637  1.7254
  712SOL     OW 2134   0.780   2.519   2.791 -0.1944 -0.1314  0.6027
  712SOL    HW1 2135   0.832   2.437   2.765 -1.4563  0.2651  1.5782
  712SOL    HW2 2136   0.704   2.540   2.724 -2.9800  0.4563 -1.3341
  713SOL     OW 2137   1.606   1.451   2.994 -0.2528  0.1787 -0.2432
  713SOL    HW1 2138   1.657   1.461   2.907 -0.0654  0.1203 -0.2503
  713SOL    HW2 2139   1.620   1.531   3.059 -0.6799 -0.0630 -2.5270
  714SOL     OW 2140   0.945   1.641   1.518 -0.1840 -0.2490  0.3838
  714SOL    HW1 2141   0.959   1.686   1.428 -0.9436  1.6453  1.2832
  714SOL    HW2 2142   1.015   1.690   1.576  1.8521 -0.7140  0.0735
  715SOL     OW 2143   1.881   0.530   2.964 -0.0340  0.2561 -0.1685
  715SOL    HW1 2144   1.908   0.625   2.974 -0.2299 -3.3440  0.0634
  715SOL    HW2 2145   1.956   0.467   2.929 -1.8125 -0.2124 -0.2109
  716SOL     OW 2146   0.257   2.618   2.245 -0.0024 -0.0096  0.5370
  716SOL    HW1 2147   0.282   2.572   2.332  0.7985  0.1636  2.7338
  716SOL    HW2 2148   0.239   2.715   2.262  0.3359 -1.1130  0.3401
  717SOL     OW 2149   2.893   0.568   0.924 -0.3203 -0.0957 -0.3009
  717SOL    HW1 2150   2.841   0.647   0.886  1.7502  0.1853  0.8510
  717SOL    HW2 2151   2.842   0.534   1.005 -1.8767 -1.2277 -0.6887
  718SOL     OW 2152   0.781   1.475   2.541  0.1263  0.7977 -0.4730
  718SOL    HW1 2153   0.760   1.471   2.641 -3.4569 -0.2270  0.4169
  718SOL    HW2 2154   0.716   1.413   2.489  0.3552 -2.9060  0.8031
  719SOL     OW 2155   2.140   1.174   2.866 -0.4415  0.4267  0.3185
  719SOL    HW1 2156   2.049   1.134   2.884  0.6103  0.3773  0.7406
  719SOL    HW2 2157   2.173   1.160   2.772  0.5808 -0.2388  0.4266
  720SOL     OW 2158   0.934   0.558   0.957 -0.1124 -0.3133 -0.2731
  720SOL    HW1 2159   0.953   0.543   1.056  2.0261  0.2919 -0.1122
  720SOL    HW2 2160   0.840   0.523   0.937 -0.0966 -0.2640 -0.2384
  721SOL     OW 2161   2.582   0.154   0.552  0.6277 -0.2444 -0.2434
  721SOL    HW1 2162   2.613   0.109   0.636  0.8242  3.9758 -0.5306
  721SOL    HW2 2163   2.558   0.096   0.472  0.3790 -0.4070  0.9984
  722SOL     OW 2164   2.139   0.788   2.614 -0.4463  0.4162 -0.2555
  722SOL    HW1 2165   2.198   0.862   2.577  1.9716  0.0992 -0.0388
  722SOL    HW2 2166   2.178   0.748   2.703 -1.8399 -0.1989  0.9708
  723SOL     OW 2167   2.339   0.340   0.559 -0.3689 -0.1896 -0.5223
  723SOL    HW1 2168   2.380   0.248   0.574  1.7711 -1.8321 -1.0135
  723SOL    HW2 2169   2.407   0.402   0.511 -1.5759 -2.8185  0.5068
  724SOL     OW 2170   0.790   1.561   2.049  0.4281 -0.4566 -0.3604
  724SOL    HW1 2171   0.772   1.459   2.044  0.1602  0.3046  0.5751
  724SOL    HW2 2172   0.752   1.611   1.971  0.3794 -1.2694 -2.3963
  725SOL     OW 2173   1.728   0.309   1.229 -0.5844  0.1003 -0.2864
  725SOL    HW1 2174   1.769   0.379   1.293  1.2095 -2.6700  0.6378
  725SOL    HW2 2175   1.803   0.250   1.185 -0.2562  2.3399 -1.8002
  726SOL     OW 2176   2.201   2.860   0.350 -0.3390  0.0676  0.2116
  726SOL    HW1 2177   2.216   2.962   0.346 -3.5786 -0.5451 -1.9896
  726SOL    HW2 2178   2.284   2.804   0.335  1.9785  0.8748  1.1152
  727SOL     OW 2179   1.637   1.604   1.713  0.1188 -0.3373 -0.2528
  727SOL    HW1 2180   1.734   1.624   1.701 -2.4046 -3.6267 -2.5520
  727SOL    HW2 2181   1.596   1.564   1.631  0.4361  1.0950 -0.9722
  728SOL     OW 2182   2.054   2.696   1.400 -0.2217  0.3969 -0.2929
  728SOL    HW1 2183   2.011   2.606   1.381  1.2458  1.1344  0.4155
  728SOL    HW2 2184   2.011   2.749   1.473  2.4764 -3.6980 -0.8403
  729SOL     OW 2185   2.578   1.731   0.693  0.0079 -0.1013  0.5006
  729SOL    HW1 2186   2.506   1.782   0.640 -0.1686  2.1848 -2.5690
  729SOL    HW2 2187   2.611   1.656   0.636 -0.4924  0.8548 -2.7345
  730SOL     OW 2188   0.756   1.044   2.569  0.3297  0.2537  0.4579
  730SOL    HW1 2189   0.661   1.066   2.542  0.6762  0.9423  2.8727
  730SOL    HW2 2190   0.787   1.114   2.638  1.5028 -2.3069 -1.1756
  731SOL     OW 2191   0.225   2.989   0.593 -0.0619 -0.1767 -0.4822
  731SOL    HW1 2192   0.284   3.064   0.628  2.1799  0.9322 -0.7245
  731SOL    HW2 2193   0.277   2.902   0.607 -0.3279 -0.8650 -0.6878
  732SOL     OW 2194   1.550   0.630   0.462  0.2006 -0.3622 -0.6695
  732SOL    HW1 2195   1.606   0.576   0.402  0.0292  1.0919  2.8359
  732SOL    HW2 2196   1.455   0.600   0.467  2.0511  0.6507 -2.3619
  733SOL     OW 2197   0.491   2.137   0.984  0.4465 -0.3524 -0.2899
  733SOL    HW1 2198   0.557   2.155   1.060 -1.3711 -0.6472  0.1254
  733SOL    HW2 2199   0.523   2.067   0.920 -1.2491  0.3713  0.4590
  734SOL     OW 2200   0.232   2.495   0.516 -0.1198 -0.3676  0.0964
  734SOL    HW1 2201   0.285   2.535   0.440  1.5732  0.8801 -0.1586
  734SOL    HW2 2202   0.138   2.540   0.527 -3.1630  2.1654 -2.4276
  735SOL     OW 2203   1.340   0.033   1.151  0.0377  0.5175  0.4699
  735SOL    HW1 2204   1.239   0.037   1.163  2.4609  2.4254  1.5447
  735SOL    HW2 2205   1.393   0.094   1.216 -1.2417 -1.6604  1.9891
  736SOL     OW 2206   2.079   2.487   3.043  0.1870 -0.2514 -0.3383
  736SOL    HW1 2207   2.023   2.575   3.064 -0.2327  0.1185  2.3916
  736SOL    HW2 2208   2.036   2.426   2.972  1.4550  1.3897 -1.0920
  737SOL     OW 2209   0.120   0.845   0.878 -0.4949 -0.4183 -0.1373
  737SOL    HW1 2210   0.069   0.927   0.905  0.0096  1.3977  0.3776
  737SOL    HW2 2211   0.088   0.825   0.786 -0.4139  0.2290  3.6069
  738SOL     OW 2212   2.520   2.809   1.951 -0.3422  0.3303 -0.2090
  738SOL    HW1 2213   2.587   2.742   1.911 -0.3402 -1.5974 -2.6411
  738SOL    HW2 2214   2.548   2.825   2.044 -0.6495 -0.0271 -2.1596
  739SOL     OW 2215   1.492   2.372   0.004  0.2691  0.1772 -0.4921
  739SOL    HW1 2216   1.464   2.296   3.044 -0.2655  0.9390 -0.3300
  739SOL    HW2 2217   1.508   2.336   0.099 -0.0546 -1.5185 -1.9318
  740SOL     OW 2218   1.567   0.373   1.014 -0.5562 -0.0048  0.7343
  740SOL    HW1 2219   1.647   0.365   1.078  0.5472 -1.5595 -0.5148
  740SOL    HW2 2220   1.563   0.284   0.970 -0.7606  2.7465 -2.5788
  741SOL     OW 2221   2.810   0.683   0.494  0.5023 -0.2577  0.6079
  741SOL    HW1 2222   2.869   0.761   0.461 -0.4071  2.2789 -0.4994
  741SOL    HW2 2223   2.861   0.623   0.558 -1.0352  0.6662  0.7483
  742SOL     OW 2224   0.744   1.517   2.808 -0.3712  0.6476  0.3079
  742SOL    HW1 2225   0.835   1.542   2.850 -0.9491 -0.9862  0.2598
  742SOL    HW2 2226   0.669   1.539   2.875  0.6894  2.2844  0.3476
  743SOL     OW 2227   1.252   0.607   2.101  0.3119 -0.6998 -0.5610
  743SOL    HW1 2228   1.313   0.622   2.019  1.5477 -0.0788  2.4515
  743SOL    HW2 2229   1.154   0.645   2.088 -3.1450  2.5521 -1.4643
  744SOL     OW 2230   2.109   0.721   1.379  0.3616 -0.3272 -0.0862
  744SOL    HW1 2231   2.166   0.803   1.394 -1.0456  3.0256 -2.3958
  744SOL    HW2 2232   2.018   0.731   1.421 -0.3679 -1.1324  0.7296
  745SOL     OW 2233   1.093   1.409   1.487 -0.4829 -0.0982 -1.0281
  745SOL    HW1 2234   1.034   1.491   1.496 -1.2762 -4.4096 -0.7517
  745SOL    HW2 2235   1.041   1.337   1.444  0.8956  0.8878  2.2099
  746SOL     OW 2236   2.164   1.520   1.027  0.8055  0.3879 -0.2487
  746SOL    HW1 2237   2.251   1.571   1.014 -1.1916  0.5569 -0.9127
  746SOL    HW2 2238   2.138   1.471   0.943 -1.1691  0.8643  0.5482
  747SOL     OW 2239   2.599   1.500   1.036  0.1882  0.8165  0.4230
  747SOL    HW1 2240   2.681   1.559   1.037 -2.2976 -1.0178  0.9609
  747SOL    HW2 2241   2.518   1.560   1.035  0.1676  1.4973  1.2203
  748SOL     OW 2242   0.859   2.011   0.987  0.1636 -0.2113 -0.5182
  748SOL    HW1 2243   0.844   2.110   0.965  2.5386 -2.0915 -0.4204
  748SOL    HW2 2244   0.956   1.989   0.969 -0.2001 -1.3452 -0.1068
  749SOL     OW 2245   2.585   2.822   2.200  0.3304 -0.3487 -0.0442
  749SOL    HW1 2246   2.653   2.744   2.190  0.0103  1.2811 -0.2069
  749SOL    HW2 2247   2.615   2.895   2.261 -2.2691 -2.7417 -2.9831
  750SOL     OW 2248   2.314   0.403   0.811  0.2148  0.1163 -0.0978
  750SOL    HW1 2249   2.319   0.409   0.710 -0.7323 -0.9223  1.1999
  750SOL    HW2 2250   2.275   0.492   0.844  0.1148  3.8909 -2.0951
  751SOL     OW 2251   2.512   2.793   0.442  0.4613 -0.4367 -0.7207
  751SOL    HW1 2252   2.610   2.776   0.469  0.8992 -0.7109 -2.8655
  751SOL    HW2 2253   2.464   2.715   0.389 -1.4016  0.6640  0.3090
  752SOL     OW 2254   0.000   2.951   0.736 -0.4995 -0.0568  0.3423
  752SOL    HW1 2255   3.057   2.859   0.730  1.1265 -0.7506  2.5491
  752SOL    HW2 2256   0.084   2.958   0.675  0.0508 -3.0120  0.3582
  753SOL     OW 2257   1.639   1.055   2.290 -0.1591 -0.8590  0.0062
  753SOL    HW1 2258   1.602   1.117   2.221 -1.3236  1.6939  0.9514
  753SOL    HW2 2259   1.574   0.982   2.312  1.4266  0.9378  1.5185
  754SOL     OW 2260   1.650   2.064   1.654 -0.1548  0.8347 -0.6033
  754SOL    HW1 2261   1.592   2.031   1.731  1.1968 -2.0981 -1.9027
  754SOL    HW2 2262   1.675   1.982   1.602 -0.0428  1.2768 -0.4329
  755SOL     OW 2263   2.518   0.668   0.857  0.4176  0.0276 -0.0769
  755SOL    HW1 2264   2.543   0.572   0.831 -1.9014 -0.6373 -1.5214
  755SOL    HW2 2265   2.418   0.662   0.880 -0.0215 -0.0076 -1.3273
  756SOL     OW 2266   1.005   1.586   2.891  0.7206 -0.3081  0.6096
  756SOL    HW1 2267   1.068   1.549   2.820  1.2371 -2.6648  1.2218
  756SOL    HW2 2268   1.053   1.628   2.966  1.5618  1.3994 -0.2643
  757SOL     OW 2269   1.423   2.506   0.782  0.0999  0.2418 -0.1598
  757SOL    HW1 2270   1.469   2.594   0.809  1.2751  1.1942  1.1976
  757SOL    HW2 2271   1.492   2.435   0.751  1.0102  1.3962  0.7838
  758SOL     OW 2272   1.253   2.665   1.550  0.3173  0.2890  0.1954
  758SOL    HW1 2273   1.328   2.698   1.610 -0.4518  0.2509 -0.4380
  758SOL    HW2 2274   1.193   2.598   1.603 -2.1246 -1.2052 -1.4368
  759SOL     OW 2275   0.160   0.545   0.620  0.5430  0.1072  0.3020
  759SOL    HW1 2276   0.059   0.527   0.635 -1.7600  1.2018 -0.5675
  759SOL    HW2 2277   0.173   0.586   0.528 -0.4074 -0.2596 -2.1839
  760SOL     OW 2278   2.408   1.095   1.146  1.0210 -0.1777 -0.6309
  760SOL    HW1 2279   2.470   1.015   1.140  0.1071  0.1317 -2.3576
  760SOL    HW2 2280   2.461   1.178   1.182 -0.3231  0.2867  2.5323
  761SOL     OW 2281   1.912   0.144   0.578  0.7545 -0.5025 -0.2852
  761SOL    HW1 2282   1.825   0.099   0.535 -3.6283 -1.5272  1.2045
  761SOL    HW2 2283   1.934   0.102   0.669  0.2091 -0.3954  1.1982
  762SOL     OW 2284   2.114   1.844   0.044  0.3604  0.1167 -0.0969
  762SOL    HW1 2285   2.176   1.768   0.079  0.5118 -0.0801 -1.7062
  762SOL    HW2 2286   2.145   1.937   0.077 -0.7102 -0.3598  0.4235
  763SOL     OW 2287   0.652   1.902   1.631  0.7660 -0.4754  0.6700
  763SOL    HW1 2288   0.741   1.930   1.595 -0.3856  0.8805  0.7929
  763SOL    HW2 2289   0.599   1.846   1.569  1.1239 -1.3511  0.2119
  764SOL     OW 2290   2.732   2.105   2.564 -0.3266 -0.6050 -0.0154
  764SOL    HW1 2291   2.787   2.111   2.651 -1.4212 -0.2049  0.5525
  764SOL    HW2 2292   2.655   2.176   2.578 -3.8303  2.7730 -0.5526
  765SOL     OW 2293   0.632   2.584   1.164 -0.6950  0.1003  0.5644
  765SOL    HW1 2294   0.692   2.657   1.135 -2.0856  0.6802 -1.1962
  765SOL    HW2 2295   0.597   2.537   1.082  2.1400 -0.1911 -0.5718
  766SOL     OW 2296   0.065   2.221   2.416 -0.2037 -0.4662 -0.1253
  766SOL    HW1 2297   0.119   2.210   2.500  1.0807  1.2077  0.6302
  766SOL    HW2 2298   0.120   2.247   2.337 -1.6874  0.1908 -1.0192
  767SOL     OW 2299   2.335   0.917   2.460 -0.2701 -0.2678 -0.0102
  767SOL    HW1 2300   2.314   0.930   2.359  0.3516 -4.2856 -2.9904
  767SOL    HW2 2301   2.375   0.826   2.469  1.4874 -0.6378  2.8993
  768SOL     OW 2302   1.390   0.261   2.674  0.1831  0.4774  0.5908
  768SOL    HW1 2303   1.421   0.356   2.665 -1.5777 -2.0722 -2.2646
  768SOL    HW2 2304   1.353   0.247   2.769 -0.1372  0.4353  1.8775
  769SOL     OW 2305   0.012   2.493   1.009  0.4536 -0.0560 -0.1074
  769SOL    HW1 2306   0.091   2.491   0.941  1.1115 -0.1580  0.0765
  769SOL    HW2 2307   0.043   2.477   1.103  1.3771 -1.1042 -0.2298
  770SOL     OW 2308   0.607   0.304   2.917  0.0248 -0.4376  0.4275
  770SOL    HW1 2309   0.593   0.394   2.964 -0.5751  0.6201 -0.0936
  770SOL    HW2 2310   0.623   0.233   2.991 -0.1931 -3.0110 -1.5437
  771SOL     OW 2311   1.223   1.823   2.497 -0.0396  0.3656  0.2578
  771SOL    HW1 2312   1.273   1.734   2.500  1.1075  0.9027 -0.9863
  771SOL    HW2 2313   1.177   1.835   2.405  1.8136 -0.1174 -1.6882
  772SOL     OW 2314   1.879   2.901   2.167 -0.4876  0.0245  0.3868
  772SOL    HW1 2315   1.882   2.904   2.269  0.1066  0.5342 -1.1848
  772SOL    HW2 2316   1.822   2.978   2.134 -1.3984 -1.1838  1.0876
  773SOL     OW 2317   1.589   0.802   1.710  0.2333 -0.0562  0.0841
  773SOL    HW1 2318   1.582   0.840   1.618  2.0431 -1.1794  0.6591
  773SOL    HW2 2319   1.630   0.708   1.711  0.3142  0.0170 -0.8288
  774SOL     OW 2320   1.096   0.365   1.168 -0.3647 -0.0752  0.2700
  774SOL    HW1 2321   1.198   0.382   1.158 -1.5324 -0.3852 -0.3853
  774SOL    HW2 2322   1.060   0.409   1.252  0.1301 -0.6180 -0.7514
  775SOL     OW 2323   2.131   2.777   2.995 -0.1630  0.2845 -0.0230
  775SOL    HW1 2324   2.048   2.745   3.040  0.3727  1.4710  0.9926
  775SOL    HW2 2325   2.141   2.734   2.903 -1.0747  0.1608 -0.8789
  776SOL     OW 2326   1.867   0.709   1.513  0.3920 -0.1941  0.5904
  776SOL    HW1 2327   1.798   0.643   1.548  1.2447  0.1461 -2.4562
  776SOL    HW2 2328   1.914   0.748   1.592 -1.8735 -1.9609  0.3066
  777SOL     OW 2329   3.031   1.307   2.270  0.1264  0.1316  0.3903
  777SOL    HW1 2330   3.062   1.382   2.332  1.7233 -3.1867 -0.0627
  777SOL    HW2 2331   2.962   1.344   2.203  0.4181  0.6345  0.8139
  778SOL     OW 2332   2.673   1.181   2.399  0.4983 -0.0994  0.2137
  778SOL    HW1 2333   2.764   1.170   2.441 -0.7142  2.1872  1.2033
  778SOL    HW2 2334   2.644   1.279   2.412 -2.6084  1.3704  1.0023
  779SOL     OW 2335   0.123   0.695   2.915 -0.2026  0.4702  0.3522
  779SOL    HW1 2336   0.125   0.621   2.846 -0.0029  2.7503 -0.6409
  779SOL    HW2 2337   0.041   0.684   2.977 -0.8622 -0.6071  0.6565
  780SOL     OW 2338   2.425   2.219   2.355 -0.3815 -0.1493  0.1020
  780SOL    HW1 2339   2.484   2.296   2.317 -0.2533  0.4958  0.7588
  780SOL    HW2 2340   2.352   2.197   2.289 -1.8803  0.3100 -0.5931
  781SOL     OW 2341   2.894   1.132   1.866  0.3561  0.0771 -0.5817
  781SOL    HW1 2342   2.876   1.231   1.885 -1.2354  1.1539 -0.5387
  781SOL    HW2 2343   2.970   1.116   1.798  1.6416 -1.7663  1.2332
  782SOL     OW 2344   1.415   2.232   2.673  0.4647  0.3420 -0.2019
  782SOL    HW1 2345   1.421   2.140   2.626 -0.7555  1.9642  0.5754
  782SOL    HW2 2346   1.410   2.220   2.778  1.1915  0.0732  3.4654
  783SOL     OW 2347   1.004   2.462   0.923 -0.3575 -0.3817  0.0680
  783SOL    HW1 2348   1.052   2.481   0.834 -0.7889 -1.9088 -2.1259
  783SOL    HW2 2349   0.982   2.550   0.969  0.9184  2.7408 -0.3473
  784SOL     OW 2350   2.041   0.576   2.222 -0.1752 -0.7799 -0.2680
  784SOL    HW1 2351   2.039   0.568   2.322  1.2901  0.7482 -1.2117
  784SOL    HW2 2352   2.048   0.483   2.187 -0.8130  0.4223  0.3659
  785SOL     OW 2353   2.952   0.112   1.614 -0.1069  0.0117 -0.2260
  785SOL    HW1 2354   2.880   0.183   1.633 -0.2446 -0.6575  1.0808
  785SOL    HW2 2355   3.000   0.068   1.694 -1.4860 -2.0455 -0.4244
  786SOL     OW 2356   1.547   2.290   0.240  0.7690 -0.3512  0.1898
  786SOL    HW1 2357   1.570   2.191   0.247 -2.3777 -0.4746 -0.2043
  786SOL    HW2 2358   1.480   2.321   0.312 -1.0968 -0.5114 -3.8212
  787SOL     OW 2359   1.210   0.220   0.739 -0.9146 -0.4061 -0.4127
  787SOL    HW1 2360   1.125   0.166   0.742  0.9200  0.7021  1.8219
  787SOL    HW2 2361   1.184   0.318   0.733 -0.9279 -0.9484  0.2384
  788SOL     OW 2362   0.119   1.244   1.065  0.7210 -0.5465  0.5008
  788SOL    HW1 2363   0.074   1.329   1.094  0.2332  0.6245 -0.6155
  788SOL    HW2 2364   0.216   1.254   1.056  0.6194 -0.3701 -0.2914
  789SOL     OW 2365   2.413   1.198   2.279 -0.1216 -0.7528  0.9318
  789SOL    HW1 2366   2.396   1.106   2.237 -1.0596  1.7717 -1.1892
  789SOL    HW2 2367   2.431   1.195   2.381  0.1156  0.4324  0.7555
  790SOL     OW 2368   1.363   0.567   2.865 -0.5976 -0.3400 -0.0674
  790SOL    HW1 2369   1.367   0.559   2.764  0.0271  2.6882 -1.2319
  790SOL    HW2 2370   1.271   0.591   2.902 -1.4705  0.0284 -0.2839
  791SOL     OW 2371   0.156   2.792   0.232 -0.5547 -0.3828 -0.1283
  791SOL    HW1 2372   0.192   2.883   0.252 -1.4717 -1.5312  2.1551
  791SOL    HW2 2373   0.218   2.719   0.269  2.6167 -1.1177 -0.4708
  792SOL     OW 2374   1.252   1.015   1.945 -0.0138 -0.2208 -0.4241
  792SOL    HW1 2375   1.212   0.983   2.032 -1.1670  1.7229 -0.8439
  792SOL    HW2 2376   1.182   1.034   1.878  2.6701  1.1298  0.3170
  793SOL     OW 2377   2.904   0.187   0.880  0.0498  0.1630  0.3610
  793SOL    HW1 2378   2.996   0.142   0.894  1.7754 -2.9175 -1.1010
  793SOL    HW2 2379   2.860   0.203   0.971  0.2611  2.7215  0.6379
  794SOL     OW 2380   3.094   0.109   2.298  0.4829  0.8316  0.4866
  794SOL    HW1 2381   0.063   0.154   2.241 -0.2882 -0.3037 -0.0280
  794SOL    HW2 2382   3.001   0.150   2.293 -2.0096 -0.8492 -3.0455
  795SOL     OW 2383   0.547   1.549   0.299 -0.8040  0.0965  0.5151
  795SOL    HW1 2384   0.608   1.537   0.215  0.0870  2.3330  1.7117
  795SOL    HW2 2385   0.489   1.635   0.290 -2.3118  3.2148  1.9202
  796SOL     OW 2386   0.118   0.943   2.776  0.3120 -0.3167 -0.0199
  796SOL    HW1 2387   0.139   0.863   2.829 -1.1997 -0.7864 -2.2674
  796SOL    HW2 2388   0.016   0.960   2.774  0.9597  2.2198 -0.9462
  797SOL     OW 2389   2.197   0.067   2.283  0.3685  0.2462  0.4358
  797SOL    HW1 2390   2.160   3.104   2.219 -2.6274 -2.0058 -1.3787
  797SOL    HW2 2391   2.293   0.085   2.263 -2.0352 -1.0936  0.7410
  798SOL     OW 2392   0.141   2.975   1.283 -0.2569  0.0110  0.1067
  798SOL    HW1 2393   0.117   2.989   1.184 -0.9598 -0.3328  1.3471
  798SOL    HW2 2394   0.056   2.984   1.339  0.9328  0.1495 -2.5022
  799SOL     OW 2395   2.822   0.798   1.659 -0.2079  0.2544 -0.4442
  799SOL    HW1 2396   2.874   0.741   1.588  0.1124 -0.7320 -2.1234
  799SOL    HW2 2397   2.810   0.890   1.629  0.1643  1.3758  0.9278
  800SOL     OW 2398   0.462   1.252   0.728 -0.5821 -0.0798  0.7622
  800SOL    HW1 2399   0.460   1.277   0.632  2.2335  0.8226  3.9608
  800SOL    HW2 2400   0.501   1.156   0.731 -0.8973 -0.3958 -1.0789
  801SOL     OW 2401   1.916   1.664   0.410 -0.0037 -0.1705  0.5412
  801SOL    HW1 2402   1.896   1.750   0.464  1.7972  0.2942 -0.6859
  801SOL    HW2 2403   1.864   1.585   0.442 -3.8216  0.4291 -0.5833
  802SOL     OW 2404   1.202   1.130   2.752 -0.3720 -1.3058 -0.2160
  802SOL    HW1 2405   1.209   1.167   2.656  1.8748  0.9119  5.8998
  802SOL    HW2 2406   1.293   1.112   2.794 -1.0628  0.4412  3.0115
  803SOL     OW 2407   1.089   1.758   1.702 -0.5667  0.0046 -0.3190
  803SOL    HW1 2408   1.064   1.710   1.789  0.0798 -0.2715 -0.2858
  803SOL    HW2 2409   1.188   1.735   1.679 -1.0622  1.3081 -1.6835
  804SOL     OW 2410   1.709   2.333   0.852  0.1358  0.0593  0.4910
  804SOL    HW1 2411   1.755   2.239   0.862 -0.3710 -1.1862  3.0516
  804SOL    HW2 2412   1.690   2.351   0.756 -0.9953  1.0456  0.3071
  805SOL     OW 2413   2.949   2.460   2.422  1.2757  0.0374  0.2240
  805SOL    HW1 2414   2.932   2.361   2.410  1.2047 -1.8802 -3.1451
  805SOL    HW2 2415   3.007   2.493   2.346 -0.9569 -1.7394  3.1867
  806SOL     OW 2416   2.879   3.049   0.406  0.3992  0.2484  0.2992
  806SOL    HW1 2417   2.881   3.067   0.506  2.5712 -0.1753  1.2723
  806SOL    HW2 2418   2.933   2.966   0.384  3.4027 -1.2379  3.3455
  807SOL     OW 2419   2.408   0.958   2.845 -0.5254  0.2300  0.1603
  807SOL    HW1 2420   2.496   0.915   2.811 -0.5302  2.2013 -0.3479
  807SOL    HW2 2421   2.331   0.890   2.849  0.8712 -0.5288 -0.6744
  808SOL     OW 2422   1.158   2.506   0.716  0.6424 -0.2984 -0.2662
  808SOL    HW1 2423   1.256   2.511   0.743  0.4733 -0.1200  0.0185
  808SOL    HW2 2424   1.151   2.501   0.613 -2.1337 -0.0911 -2.2450
  809SOL     OW 2425   2.737   0.210   2.690 -0.3398  0.2283  0.2792
  809SOL    HW1 2426   2.804   0.135   2.711 -1.7256  1.4525  0.1676
  809SOL    HW2 2427   2.769   0.282   2.625 -0.4565  0.7802  2.0348
  810SOL     OW 2428   1.252   1.047   0.693 -0.2038  0.0639  0.0341
  810SOL    HW1 2429   1.271   1.135   0.648 -1.6227 -1.3145  0.5496
  810SOL    HW2 2430   1.222   0.976   0.625  0.0261  1.4760 -4.5003
  811SOL     OW 2431   1.720   3.039   1.446 -0.3995 -0.2212  0.2179
  811SOL    HW1 2432   1.761   3.035   1.354 -0.7188 -0.9155  3.8505
  811SOL    HW2 2433   1.688   2.945   1.468 -2.5214  4.1910 -1.4528
  812SOL     OW 2434   1.801   3.010   0.148 -0.0021 -0.4376  0.7706
  812SOL    HW1 2435   1.840   3.099   0.171 -0.6389  0.0789  0.3008
  812SOL    HW2 2436   1.699   3.014   0.138  0.6467 -0.6378  0.0157
  813SOL     OW 2437   1.311   0.347   2.083  0.6240  0.6553 -0.2903
  813SOL    HW1 2438   1.268   0.433   2.115  1.2987 -1.5787  1.7502
  813SOL    HW2 2439   1.300   0.283   2.153 -2.0669  0.7563 -0.1528
  814SOL     OW 2440   0.296   0.103   1.305  0.2345 -0.0017 -0.5169
  814SOL    HW1 2441   0.230   0.024   1.318 -0.8320 -0.6572  1.1104
  814SOL    HW2 2442   0.383   0.057   1.272  0.9368 -0.0304 -2.8053
  815SOL     OW 2443   0.298   2.814   1.035  0.1793 -0.3921 -0.0418
  815SOL    HW1 2444   0.214   2.871   1.031  1.5877 -1.8285 -2.0899
  815SOL    HW2 2445   0.350   2.826   0.950 -2.0322  0.0426 -0.4146
  816SOL     OW 2446   2.702   1.633   2.594 -0.0412 -0.2714 -0.3051
  816SOL    HW1 2447   2.633   1.707   2.585  1.6448 -1.1377 -0.3440
  816SOL    HW2 2448   2.793   1.676   2.618 -0.6615 -0.2944  1.6333
  817SOL     OW 2449   1.484   0.092   3.065 -0.3932  0.2802 -0.1650
  817SOL    HW1 2450   1.544   0.157   0.015 -2.7649 -0.6910  0.7660
  817SOL    HW2 2451   1.446   0.026   0.026  1.6350 -1.5690  0.7564
  818SOL     OW 2452   1.569   1.081   0.154  0.3229 -0.2230 -0.3195
  818SOL    HW1 2453   1.617   1.014   0.209  2.7649  3.3593  0.9155
  818SOL    HW2 2454   1.496   1.126   0.211 -2.1370  0.4481  4.3049
  819SOL     OW 2455   1.859   2.763   2.717  0.3541 -0.3722  0.1615
  819SOL    HW1 2456   1.820   2.734   2.624  1.8945 -2.6869  0.6495
  819SOL    HW2 2457   1.879   2.862   2.723 -2.7348  1.7201  0.0298
  820SOL     OW 2458   1.313   1.034   3.091  0.5429  0.7869 -0.1365
  820SOL    HW1 2459   1.363   0.982   0.061  2.0153 -0.2076 -2.4912
  820SOL    HW2 2460   1.297   1.128   0.014  2.6725 -1.1911 -1.0952
  821SOL     OW 2461   0.297   0.548   1.402 -0.1655 -0.2290  0.1468
  821SOL    HW1 2462   0.347   0.637   1.434 -0.3590  2.8055 -1.5515
  821SOL    HW2 2463   0.284   0.547   1.300  2.4498 -0.4962 -1.3371
  822SOL     OW 2464   1.212   2.551   2.138  0.4972  0.5261 -0.4411
  822SOL    HW1 2465   1.304   2.560   2.092 -2.5762 -0.8359  0.9052
  822SOL    HW2 2466   1.214   2.465   2.191  2.0558  2.0495 -0.7946
  823SOL     OW 2467   0.642   1.201   2.177  0.5875 -0.3538  0.0004
  823SOL    HW1 2468   0.674   1.240   2.089 -0.2337 -0.0396 -0.4506
  823SOL    HW2 2469   0.722   1.147   2.219 -1.4580 -0.9430 -0.0704
  824SOL     OW 2470   2.178   3.036   1.876 -0.0840 -0.0732  0.2563
  824SOL    HW1 2471   2.222   2.963   1.821  1.0060  2.3694  3.8061
  824SOL    HW2 2472   2.146   0.010   1.818 -1.9510  0.1033  0.8941
  825SOL     OW 2473   0.960   1.341   0.257  0.0121  0.1522  0.1402
  825SOL    HW1 2474   0.971   1.440   0.239 -0.1097  3.3137 -0.0687
  825SOL    HW2 2475   0.912   1.298   0.179  0.8734  0.2913  3.0356
  826SOL     OW 2476   2.069   0.557   2.489 -0.0680  0.0454 -0.2753
  826SOL    HW1 2477   2.098   0.644   2.539 -2.2944  0.4834 -0.5661
  826SOL    HW2 2478   2.050   0.478   2.546 -0.9771  0.2069 -2.7123
  827SOL     OW 2479   0.453   2.234   2.907  0.1450 -0.2386  0.1101
  827SOL    HW1 2480   0.526   2.296   2.942  0.4354 -1.2877  2.1657
  827SOL    HW2 2481   0.445   2.241   2.807  1.1116  2.9321 -0.9830
  828SOL     OW 2482   2.802   0.158   1.140  0.5950 -0.4476  0.4525
  828SOL    HW1 2483   2.716   0.178   1.190 -1.7908 -0.1605 -0.5589
  828SOL    HW2 2484   2.875   0.152   1.207 -0.1448  3.0346 -0.0163
  829SOL     OW 2485   1.049   1.528   1.100  0.2067  0.1445  0.3871
  829SOL    HW1 2486   1.103   1.576   1.168 -1.7677 -1.6199 -0.7293
  829SOL    HW2 2487   1.089   1.441   1.074  0.0930  1.8406  3.0346
  830SOL     OW 2488   0.250   1.209   1.772 -0.0353  0.5526  0.2272
  830SOL    HW1 2489   0.163   1.257   1.739  1.3466 -1.4090  0.3288
  830SOL    HW2 2490   0.218   1.118   1.808 -1.3806 -1.4866 -0.3853
  831SOL     OW 2491   0.423   1.774   0.227  0.2597  0.5859  0.2817
  831SOL    HW1 2492   0.365   1.753   0.146  1.9814 -1.7761 -0.5121
  831SOL    HW2 2493   0.455   1.871   0.238 -0.2401  2.4085  1.0312
  832SOL     OW 2494   1.020   0.107   2.965 -0.3866 -0.1986 -0.2454
  832SOL    HW1 2495   0.982   0.056   3.045  1.9174 -1.2085  1.3199
  832SOL    HW2 2496   0.949   0.132   2.897 -2.4672  1.1713  0.2879
  833SOL     OW 2497   0.032   0.573   1.848 -0.5672  0.0261  0.2561
  833SOL    HW1 2498   0.078   0.578   1.757 -1.7247  3.5003  0.7010
  833SOL    HW2 2499   3.080   0.659   1.859 -1.8313  0.2942 -1.9318
  834SOL     OW 2500   0.032   0.650   1.037  0.2764  0.1952  0.1214
  834SOL    HW1 2501   0.067   0.719   0.976 -0.5491 -0.0812  0.2148
  834SOL    HW2 2502   3.051   0.608   0.998 -0.3056  0.6167 -3.8349
  835SOL     OW 2503   2.736   2.770   1.144  0.4515 -0.2707  0.1699
  835SOL    HW1 2504   2.776   2.862   1.122 -1.8827 -1.6661  1.5213
  835SOL    HW2 2505   2.724   2.757   1.246 -1.2666  0.5085 -1.9498
  836SOL     OW 2506   0.538   2.023   3.056 -0.0627  0.1356  0.5053
  836SOL    HW1 2507   0.525   2.028   0.049  3.3254 -2.3145 -1.8689
  836SOL    HW2 2508   0.508   2.110   3.012 -1.5252 -1.6409 -0.3449
  837SOL     OW 2509   1.905   2.225   0.020  0.6803 -0.6123 -0.6461
  837SOL    HW1 2510   1.931   2.289   3.050  2.3949 -0.3883  1.4764
  837SOL    HW2 2511   1.821   2.267   0.063  4.6435  1.9141  0.5799
  838SOL     OW 2512   2.633   1.247   2.106 -0.6440 -0.2154 -0.1773
  838SOL    HW1 2513   2.574   1.237   2.188  2.7331  0.7792  0.7347
  838SOL    HW2 2514   2.657   1.153   2.074  0.3547  0.7360  0.5729
  839SOL     OW 2515   1.094   0.928   0.506 -0.0039 -0.0944 -0.4632
  839SOL    HW1 2516   1.014   0.866   0.510 -1.1360 -1.0917  0.7679
  839SOL    HW2 2517   1.061   1.029   0.498  0.7477 -2.0956  1.4786
  840SOL     OW 2518   1.768   0.622   0.874  0.1743  0.2066 -0.2190
  840SOL    HW1 2519   1.827   0.597   0.797  1.2037  0.4402  1.4196
  840SOL    HW2 2520   1.668   0.612   0.854 -2.7962  1.8585  0.6114
  841SOL     OW 2521   0.525   2.844   0.809 -0.0684  0.5385 -0.2163
  841SOL    HW1 2522   0.514   2.943   0.813  1.2357  1.1114 -0.4074
  841SOL    HW2 2523   0.616   2.812   0.777  0.5591  1.8754 -0.2084
  842SOL     OW 2524   0.637   0.497   0.258 -0.3222 -0.6118 -0.3888
  842SOL    HW1 2525   0.691   0.569   0.209 -1.4241 -1.0245 -2.9472
  842SOL    HW2 2526   0.543   0.490   0.223  0.6455  0.8192  1.3364
  843SOL     OW 2527   0.498   0.518   1.836 -0.7661 -0.6907  0.1385
  843SOL    HW1 2528   0.515   0.614   1.810 -0.8873 -1.7243 -1.2807
  843SOL    HW2 2529   0.402   0.514   1.869  0.8507 -1.9661 -0.5944
  844SOL     OW 2530   1.569   2.648   0.037 -0.0903  0.3240  0.0495
  844SOL    HW1 2531   1.604   2.705   3.068 -0.7213 -1.8215  2.0553
  844SOL    HW2 2532   1.537   2.555   0.003 -0.3818 -2.1804  0.2940
  845SOL     OW 2533   2.770   2.638   2.167 -0.1462 -0.0278  0.3441
  845SOL    HW1 2534   2.830   2.572   2.113  0.7655  2.4599  0.8881
  845SOL    HW2 2535   2.827   2.698   2.226 -1.4193  2.0067  1.2274
  846SOL     OW 2536   1.635   1.945   2.706 -0.0355  0.0744  0.1528
  846SOL    HW1 2537   1.648   1.994   2.793 -0.1150  1.0786 -0.8709
  846SOL    HW2 2538   1.709   1.878   2.699  0.8526  0.7681 -1.3703
  847SOL     OW 2539   2.318   2.799   2.286 -0.4387  0.6748  0.0282
  847SOL    HW1 2540   2.412   2.806   2.244  1.7866  0.6499  0.5768
  847SOL    HW2 2541   2.257   2.873   2.248  0.4551  1.1318 -1.0343
  848SOL     OW 2542   0.570   0.117   0.382 -0.0455  0.0824 -0.5867
  848SOL    HW1 2543   0.479   0.156   0.354  2.6659  2.2287 -1.1494
  848SOL    HW2 2544   0.654   0.178   0.388 -1.2936  2.0384 -2.0911
  849SOL     OW 2545   0.682   2.860   1.462 -0.5577  0.0160  0.0292
  849SOL    HW1 2546   0.737   2.790   1.414  1.5037  0.7800 -0.8936
  849SOL    HW2 2547   0.733   2.906   1.539 -0.3503 -1.3338 -1.0188
  850SOL     OW 2548   0.060   1.260   0.292  0.5638  0.8003 -0.4945
  850SOL    HW1 2549   0.002   1.286   0.211 -2.4060  0.3937 -2.9069
  850SOL    HW2 2550   0.068   1.334   0.356  3.5561 -0.0249 -0.4877
  851SOL     OW 2551   0.114   0.461   2.759 -0.3511  0.3951  0.0447
  851SOL    HW1 2552   0.146   0.529   2.693  0.1120 -1.4926 -0.6090
  851SOL    HW2 2553   0.082   0.378   2.717 -0.8279 -0.2054  1.5380
  852SOL     OW 2554   1.508   1.944   1.835  0.2096 -0.0629 -0.7560
  852SOL    HW1 2555   1.494   1.844   1.857  0.3438  1.3638  0.7334
  852SOL    HW2 2556   1.452   2.005   1.895  1.3874  1.1199 -0.2560
  853SOL     OW 2557   0.612   1.903   0.545  0.4714  0.4569  0.1404
  853SOL    HW1 2558   0.621   1.902   0.645 -1.5139  0.4260 -4.3283
  853SOL    HW2 2559   0.646   1.993   0.510  1.6104  0.3317  0.3346
  854SOL     OW 2560   1.483   1.210   1.361 -0.6618  0.6871  0.3157
  854SOL    HW1 2561   1.417   1.265   1.309  1.7499  1.1722 -1.5445
  854SOL    HW2 2562   1.561   1.188   1.299 -0.8199 -0.7194  2.5520
  855SOL     OW 2563   0.504   2.043   0.266 -0.5624 -0.1436  0.3047
  855SOL    HW1 2564   0.594   2.049   0.314  1.3214 -4.0917  1.0998
  855SOL    HW2 2565   0.447   2.128   0.276 -0.5755 -0.4226  0.6514
  856SOL     OW 2566   3.053   0.014   1.843 -0.0944  0.4175  0.2337
  856SOL    HW1 2567   0.003   3.042   1.878 -1.7500  1.7916 -0.0013
  856SOL    HW2 2568   3.002   0.063   1.919  1.0144  0.2257 -1.9736
  857SOL     OW 2569   0.310   0.182   1.892  0.0950  0.4853 -0.2413
  857SOL    HW1 2570   0.257   0.150   1.810  0.5666 -1.4807 -0.9683
  857SOL    HW2 2571   0.291   0.278   1.915  1.2677  0.3885 -0.8944
  858SOL     OW 2572   2.929   2.041   2.132  0.2398 -0.1826 -0.2159
  858SOL    HW1 2573   2.863   1.962   2.140 -1.7287 -1.5607 -1.8154
  858SOL    HW2 2574   2.941   2.098   2.218  1.9198  3.9293  0.9562
  859SOL     OW 2575   2.318   2.777   0.664 -0.1980  0.1997  0.1082
  859SOL    HW1 2576   2.387   2.794   0.589  0.3038  0.5638  1.0865
  859SOL    HW2 2577   2.252   2.704   0.630  1.7040 -1.6975 -1.0915
  860SOL     OW 2578   2.090   0.387   0.146 -0.1776  0.7208  0.2788
  860SOL    HW1 2579   2.170   0.325   0.137 -0.3705 -0.7334 -1.3776
  860SOL    HW2 2580   2.019   0.333   0.195 -1.3900 -0.0343  1.1316
  861SOL     OW 2581   0.354   0.400   0.753 -0.4981 -0.1732 -0.6547
  861SOL    HW1 2582   0.267   0.437   0.711 -0.2655  0.0272  0.4792
  861SOL    HW2 2583   0.373   0.455   0.837  1.8384 -0.6905  0.6563
  862SOL     OW 2584   2.229   0.487   1.492 -0.2410  0.6379  0.1929
  862SOL    HW1 2585   2.178   0.422   1.431 -0.5431 -0.8931 -0.3465
  862SOL    HW2 2586   2.198   0.579   1.464 -1.2192 -2.0767 -0.4100
  863SOL     OW 2587   0.488   1.459   1.287  0.2805  0.1687  0.7190
  863SOL    HW1 2588   0.554   1.485   1.214  0.3600 -0.1871 -0.3356
  863SOL    HW2 2589   0.542   1.441   1.370 -0.5782 -1.1670 -1.7881
  864SOL     OW 2590   2.446   3.081   1.993 -0.5182  0.3181 -0.2400
  864SOL    HW1 2591   2.348   3.082   1.963  0.6696  0.9308 -0.4505
  864SOL    HW2 2592   2.481   2.986   1.983  0.2842 -0.9876  1.4818
  865SOL     OW 2593   1.479   0.382   1.609  0.0353  0.4322  0.6546
  865SOL    HW1 2594   1.540   0.298   1.603 -0.3814 -0.2805 -1.9048
  865SOL    HW2 2595   1.416   0.377   1.688  1.6071  2.8301 -0.5350
  866SOL     OW 2596   2.734   2.893   0.832  0.8252 -0.0435 -0.5669
  866SOL    HW1 2597   2.796   2.827   0.782 -2.3027 -0.9000 -1.0233
  866SOL    HW2 2598   2.645   2.848   0.851 -0.3110  0.5151  0.4460
  867SOL     OW 2599   2.602   2.484   0.633 -0.1978  0.5029  0.4859
  867SOL    HW1 2600   2.633   2.477   0.729  1.2261  0.2077  1.9343
  867SOL    HW2 2601   2.665   2.540   0.576 -1.4137 -0.9303  2.4233
  868SOL     OW 2602   1.400   2.002   2.538  0.6068  0.0911  0.0913
  868SOL    HW1 2603   1.315   1.943   2.531  1.0983 -0.9827  0.4464
  868SOL    HW2 2604   1.468   1.951   2.599 -3.2837 -2.2681  2.2886
  869SOL     OW 2605   2.402   1.474   0.480  0.0272  0.5070 -0.7005
  869SOL    HW1 2606   2.318   1.519   0.442  1.0509 -0.2294  2.0200
  869SOL    HW2 2607   2.377   1.391   0.541 -0.6652  0.1494  1.6455
  870SOL     OW 2608   2.717   1.570   0.258 -0.6399 -0.0803 -0.1122
  870SOL    HW1 2609   2.636   1.561   0.195 -1.3321  0.8115  1.7082
  870SOL    HW2 2610   2.811   1.574   0.212  3.6747  2.4827 -2.8012
  871SOL     OW 2611   2.968   0.661   1.471 -0.6144  0.0587  0.2557
  871SOL    HW1 2612   2.999   0.714   1.388  2.1683 -1.6001 -2.3425
  871SOL    HW2 2613   3.052   0.636   1.518 -1.2914 -0.0031 -0.2689
  872SOL     OW 2614   0.590   1.924   2.670 -0.3023  0.0042  0.0777
  872SOL    HW1 2615   0.622   1.935   2.766  1.2965  1.5667  0.0080
  872SOL    HW2 2616   0.661   1.877   2.616 -2.5510  2.2958 -0.4458
  873SOL     OW 2617   0.428   2.608   1.855 -0.1317  0.4004  0.0549
  873SOL    HW1 2618   0.498   2.539   1.868 -2.4864  2.9600  0.9435
  873SOL    HW2 2619   0.449   2.655   1.766  0.8547  0.1766 -0.5291
  874SOL     OW 2620   1.190   0.932   2.204  0.2683 -0.1260  0.0605
  874SOL    HW1 2621   1.144   0.990   2.269  2.4380 -1.0189  0.0875
  874SOL    HW2 2622   1.256   0.872   2.259 -1.3982 -1.2954  3.5054
  875SOL     OW 2623   2.728   2.789   1.413 -0.3234  0.2914  0.1836
  875SOL    HW1 2624   2.761   2.714   1.474 -0.9802  0.1996 -1.3156
  875SOL    HW2 2625   2.761   2.883   1.438  0.1085 -2.0401  0.5490
  876SOL     OW 2626   0.935   1.313   0.868 -0.2917  0.1948 -0.7175
  876SOL    HW1 2627   0.916   1.212   0.864  2.0894  1.1295 -0.5863
  876SOL    HW2 2628   0.847   1.361   0.837 -1.5074  0.0496 -2.7892
  877SOL     OW 2629   0.730   0.464   1.443 -0.2015 -0.4984 -0.2875
  877SOL    HW1 2630   0.639   0.457   1.493  1.2368 -1.6146 -2.6960
  877SOL    HW2 2631   0.731   0.391   1.373 -1.0208  2.5155  0.8593
  878SOL     OW 2632   2.567   1.773   2.841 -0.6212 -0.2883 -0.0187
  878SOL    HW1 2633   2.585   1.677   2.854  0.5219  1.7621  1.4171
  878SOL    HW2 2634   2.547   1.795   2.745  0.9004  2.6264 -0.8491
  879SOL     OW 2635   2.187   1.955   1.598  0.4021 -0.8478 -0.0121
  879SOL    HW1 2636   2.228   2.045   1.619 -2.5512 -0.8673  1.9461
  879SOL    HW2 2637   2.145   1.958   1.505 -0.2951  0.1553 -0.1860
  880SOL     OW 2638   0.961   2.290   1.171  0.0373  0.4582  0.5121
  880SOL    HW1 2639   1.012   2.212   1.209  0.4834  0.5889  2.2476
  880SOL    HW2 2640   0.999   2.329   1.085 -1.6111  1.8894  1.2310
  881SOL     OW 2641   1.116   1.925   0.928  0.4334 -0.3281  0.3653
  881SOL    HW1 2642   1.155   1.973   0.843 -0.1024  3.3027 -1.1711
  881SOL    HW2 2643   1.094   1.831   0.904  0.5363  1.8799 -2.8144
  882SOL     OW 2644   1.897   1.846   2.471  0.4445  0.0678  0.1657
  882SOL    HW1 2645   1.964   1.778   2.507  2.6097 -0.1096 -1.1781
  882SOL    HW2 2646   1.937   1.922   2.415 -1.0540  0.9648  0.7910
  883SOL     OW 2647   1.374   0.501   1.175  0.5842 -0.4697  0.2597
  883SOL    HW1 2648   1.378   0.597   1.144  0.4189 -0.6508  0.6044
  883SOL    HW2 2649   1.446   0.448   1.123  1.1745 -0.5055  2.3970
  884SOL     OW 2650   0.023   2.945   1.007 -0.2138  0.1681  0.0641
  884SOL    HW1 2651   0.013   2.934   0.907  1.1265 -1.0053 -1.0815
  884SOL    HW2 2652   3.036   2.970   1.044  0.6393  1.4077 -1.1830
  885SOL     OW 2653   1.045   1.231   2.132  0.6095  0.0823  0.4722
  885SOL    HW1 2654   1.009   1.191   2.043 -1.1322  0.9398 -4.5285
  885SOL    HW2 2655   1.142   1.258   2.119 -0.1057 -0.4385 -1.8398
  886SOL     OW 2656   1.005   1.228   2.916  0.2007  0.2050 -0.6291
  886SOL    HW1 2657   0.927   1.253   2.851 -2.8884 -1.1275 -0.6632
  886SOL    HW2 2658   1.091   1.186   2.873  2.2678 -3.3964 -1.5734
  887SOL     OW 2659   1.594   0.173   0.838  0.4164  0.0460  0.5025
  887SOL    HW1 2660   1.612   0.199   0.741  1.0576 -1.4757 -0.4588
  887SOL    HW2 2661   1.508   0.117   0.840  1.1439  0.1088 -0.0083
  888SOL     OW 2662   2.061   1.100   2.105 -0.2753  1.2368  0.1930
  888SOL    HW1 2663   2.025   1.043   2.185  0.4957  0.5958  1.7000
  888SOL    HW2 2664   1.997   1.124   2.031  0.8290  1.0214  0.0079
  889SOL     OW 2665   3.064   2.015   0.935  0.3977  0.1781 -0.4991
  889SOL    HW1 2666   3.091   2.072   0.858  0.7563 -1.9149  2.0025
  889SOL    HW2 2667   2.970   2.042   0.972 -0.6316  2.9044  0.1399
  890SOL     OW 2668   1.394   2.402   0.434  0.1378  0.1750 -0.3773
  890SOL    HW1 2669   1.302   2.364   0.430  2.9067  0.4032  1.3532
  890SOL    HW2 2670   1.391   2.502   0.442  2.3616  1.0302  0.0390
  891SOL     OW 2671   2.799   0.568   2.356 -0.6449 -0.3519 -0.0185
  891SOL    HW1 2672   2.777   0.551   2.258  1.0947  0.4445 -2.7221
  891SOL    HW2 2673   2.880   0.632   2.363 -0.5701 -3.0141 -0.6971
  892SOL     OW 2674   3.075   2.449   1.462  0.1219 -0.3503  0.3276
  892SOL    HW1 2675   0.022   2.440   1.375 -0.4859  1.8083 -1.0023
  892SOL    HW2 2676   3.061   2.363   1.516 -1.8303 -1.9808  1.9790
  893SOL     OW 2677   1.092   0.260   1.492  0.3178  0.1485  0.1281
  893SOL    HW1 2678   1.183   0.292   1.468 -0.0956  0.2264  2.5744
  893SOL    HW2 2679   1.049   0.327   1.557  0.9446 -0.1121  0.7589
  894SOL     OW 2680   2.839   3.006   1.046 -0.7504  0.3137  0.5927
  894SOL    HW1 2681   2.792   2.974   0.961  0.5781 -0.4082  1.3133
  894SOL    HW2 2682   2.823   0.001   1.067 -2.2100 -0.1304  1.1779
  895SOL     OW 2683   1.621   2.094   2.371  0.0670 -0.3204  0.1120
  895SOL    HW1 2684   1.625   2.037   2.286 -0.7963 -2.0091 -2.0852
  895SOL    HW2 2685   1.559   2.057   2.447 -0.8629  0.0162 -0.1158
  896SOL     OW 2686   1.901   0.505   1.328 -0.0871 -0.2573  0.4901
  896SOL    HW1 2687   1.886   0.593   1.377  1.6202 -0.8388  3.2881
  896SOL    HW2 2688   1.921   0.520   1.227  3.9203  1.7271 -0.7221
  897SOL     OW 2689   0.440   1.553   1.832  0.1666 -0.0575  0.1143
  897SOL    HW1 2690   0.518   1.499   1.800 -0.0635 -0.5969  1.1909
  897SOL    HW2 2691   0.428   1.529   1.930  0.7356 -0.4129  0.9635
  898SOL     OW 2692   1.796   2.303   2.123  0.1046  0.2701  0.2956
  898SOL    HW1 2693   1.804   2.202   2.095  2.4856  0.3328 -1.5591
  898SOL    HW2 2694   1.877   2.328   2.177  1.3730  0.4237  1.9307
  899SOL     OW 2695   1.467   2.146   0.729  0.7422  0.3915 -0.4567
  899SOL    HW1 2696   1.498   2.224   0.676 -0.1912 -0.2955 -1.7345
  899SOL    HW2 2697   1.486   2.164   0.828 -1.9429  0.1943  4.6312
  900SOL     OW 2698   0.958   3.101   2.514 -0.5267  0.6072  0.3079
  900SOL    HW1 2699   0.867   3.074   2.545  0.1803 -1.2693  2.9651
  900SOL    HW2 2700   0.955   0.084   2.459  0.9321 -1.2804 -0.3498
  901SOL     OW 2701   1.095   1.585   2.268  0.2794  0.1614  0.6652
  901SOL    HW1 2702   1.010   1.595   2.219  0.8736  1.5486  0.4439
  901SOL    HW2 2703   1.090   1.538   2.355  1.8270 -0.3793  0.2017
  902SOL     OW 2704   1.995   0.818   3.030 -0.3843 -0.3016  0.1158
  902SOL    HW1 2705   1.965   0.909   3.000  0.5010  0.8027  2.4407
  902SOL    HW2 2706   1.989   0.816   0.030  0.8255  2.4578  0.8550
  903SOL     OW 2707   1.830   1.107   2.467  0.7407 -1.0441 -0.0330
  903SOL    HW1 2708   1.881   1.189   2.430 -1.3712 -0.0785 -2.1227
  903SOL    HW2 2709   1.743   1.091   2.408 -2.0764 -2.4444  1.3874
  904SOL     OW 2710   1.609   1.266   1.793  0.3085  0.5395  0.0489
  904SOL    HW1 2711   1.579   1.171   1.780  0.8338 -0.5833  2.3041
  904SOL    HW2 2712   1.536   1.331   1.766 -0.5410 -1.4244  1.8360
  905SOL     OW 2713   2.644   0.386   0.795 -0.1893 -0.3598 -0.2596
  905SOL    HW1 2714   2.562   0.330   0.811  0.7565  1.3276 -0.6909
  905SOL    HW2 2715   2.728   0.338   0.818 -2.8521  0.4402  0.0010
  906SOL     OW 2716   0.214   1.457   0.486 -0.2565 -0.1767  0.0719
  906SOL    HW1 2717   0.201   1.443   0.583  2.5878  0.3087  1.4735
  906SOL    HW2 2718   0.188   1.552   0.454 -1.7359 -0.5347 -2.0418
  907SOL     OW 2719   1.399   0.210   0.546  0.4047 -0.3853  0.1308
  907SOL    HW1 2720   1.316   0.209   0.609 -0.7050  3.0786  1.4160
  907SOL    HW2 2721   1.470   0.269   0.589  3.5742  1.3554  0.1528
  908SOL     OW 2722   1.401   2.764   1.764 -0.7321 -0.0600  0.0760
  908SOL    HW1 2723   1.495   2.791   1.734 -1.1635 -0.6314 -2.0009
  908SOL    HW2 2724   1.405   2.687   1.829  2.2644  0.0542  1.3195
  909SOL     OW 2725   2.400   0.793   1.738  0.4386 -0.0750  0.3159
  909SOL    HW1 2726   2.333   0.722   1.774 -0.5059 -1.4141 -2.0414
  909SOL    HW2 2727   2.363   0.891   1.752  0.0577  2.0480  0.4259
  910SOL     OW 2728   1.301   0.239   2.379 -0.7759 -0.1717  0.1740
  910SOL    HW1 2729   1.316   0.221   2.479  0.3207  1.1361  1.1224
  910SOL    HW2 2730   1.206   0.257   2.355  0.5086 -2.0147 -0.4666
  911SOL     OW 2731   2.354   1.562   2.472  0.1671  0.3360  0.2191
  911SOL    HW1 2732   2.365   1.621   2.394  0.1452  1.1208  3.4325
  911SOL    HW2 2733   2.258   1.514   2.479 -2.1884 -0.0170 -1.2092
  912SOL     OW 2734   2.461   2.046   1.373 -0.0768 -0.1732 -0.5136
  912SOL    HW1 2735   2.494   2.051   1.471 -0.1137 -2.2908 -0.3649
  912SOL    HW2 2736   2.404   2.128   1.350 -0.1480 -0.3354  0.1153
  913SOL     OW 2737   2.413   2.093   1.839 -0.2717 -0.4823  0.6473
  913SOL    HW1 2738   2.454   2.143   1.911 -1.4757 -0.8141 -1.2189
  913SOL    HW2 2739   2.322   2.133   1.817 -0.3851  1.2654  0.3583
  914SOL     OW 2740   2.064   2.071   0.672  0.0004  0.3842  0.6682
  914SOL    HW1 2741   2.118   2.088   0.759  0.2491  1.3240  0.5457
  914SOL    HW2 2742   2.088   1.980   0.634  2.1188 -0.9653  0.3928
  915SOL     OW 2743   1.029   2.446   1.945  0.2457 -0.3861 -0.2558
  915SOL    HW1 2744   0.950   2.509   1.945 -0.2791  0.5538  1.6028
  915SOL    HW2 2745   1.096   2.483   2.012 -1.9656  0.4729 -1.8555
  916SOL     OW 2746   0.066   2.164   0.738 -0.0859 -0.9131  0.2704
  916SOL    HW1 2747   0.140   2.205   0.790 -1.7026 -0.7955 -1.8958
  916SOL    HW2 2748   0.103   2.139   0.643 -0.5910 -1.8685 -3.1462
  917SOL     OW 2749   2.685   1.028   2.796 -0.0607 -0.3376  0.7143
  917SOL    HW1 2750   2.667   0.948   2.733 -0.9641 -0.2113 -0.5556
  917SOL    HW2 2751   2.785   1.051   2.787 -0.5448 -2.9157  0.6549
  918SOL     OW 2752   1.540   2.343   2.285  0.9052 -0.2829  0.6577
  918SOL    HW1 2753   1.591   2.360   2.199  0.2464  1.5020 -2.1371
  918SOL    HW2 2754   1.557   2.252   2.327 -1.0274  0.6219  1.4151
  919SOL     OW 2755   1.832   2.093   0.810  0.0061  0.3989  0.2030
  919SOL    HW1 2756   1.765   2.019   0.787 -0.1337 -0.5314  1.8151
  919SOL    HW2 2757   1.904   2.088   0.745 -2.1269  3.0609  1.7861
  920SOL     OW 2758   1.394   0.521   2.604  0.1472  0.0680 -0.8103
  920SOL    HW1 2759   1.473   0.540   2.543 -0.3785  4.1692  2.0558
  920SOL    HW2 2760   1.309   0.518   2.550 -0.4429  1.3036  0.5474
  921SOL     OW 2761   3.054   0.275   2.625 -0.4696  0.2068 -0.2291
  921SOL    HW1 2762   3.086   0.318   2.537  1.2543  2.1504  1.4114
  921SOL    HW2 2763   3.083   0.179   2.629 -0.0313  1.0602 -1.7116
  922SOL     OW 2764   2.637   1.768   1.684  0.5797  0.2749  0.5987
  922SOL    HW1 2765   2.538   1.757   1.676  1.1617 -0.2235 -1.1993
  922SOL    HW2 2766   2.683   1.723   1.603  0.5168 -2.1118 -1.7767
  923SOL     OW 2767   0.345   1.801   2.595  0.0113  0.5715 -0.2748
  923SOL    HW1 2768   0.291   1.870   2.543 -2.7256  2.6312  2.3913
  923SOL    HW2 2769   0.426   1.842   2.646 -0.7831 -0.1086  0.9914
  924SOL     OW 2770   1.660   0.484   2.112 -0.3387 -0.3355 -0.1542
  924SOL    HW1 2771   1.608   0.480   2.199  0.0383 -2.4394  2.3524
  924SOL    HW2 2772   1.698   0.578   2.097 -0.4736  2.2780 -1.5912
  925SOL     OW 2773   3.083   0.906   0.048  0.2088  0.3545  0.0881
  925SOL    HW1 2774   3.050   0.815   0.017  0.3119 -0.4163 -0.4964
  925SOL    HW2 2775   3.016   0.982   0.067 -2.1854 -0.2123  0.6913
  926SOL     OW 2776   2.667   0.075   0.814 -0.3668  0.4683 -0.2467
  926SOL    HW1 2777   2.772   0.077   0.820 -0.8664 -2.3429 -0.3046
  926SOL    HW2 2778   2.621   0.045   0.901  1.8158 -2.4479  0.5929
  927SOL     OW 2779   1.164   0.885   0.896 -0.2095 -0.3329  0.3946
  927SOL    HW1 2780   1.192   0.939   0.814 -0.5609 -0.7069 -1.2316
  927SOL    HW2 2781   1.072   0.850   0.892  3.1800  1.3394  0.3585
  928SOL     OW 2782   2.934   0.165   2.026 -0.3114 -0.3828  0.2768
  928SOL    HW1 2783   2.864   0.175   2.102 -0.7334 -1.2407  0.3470
  928SOL    HW2 2784   2.928   0.244   1.966 -0.9538 -1.5869  1.2144
  929SOL     OW 2785   2.497   0.870   1.377 -0.2794  0.1924  0.6030
  929SOL    HW1 2786   2.507   0.881   1.277  1.1928  1.8146 -1.9774
  929SOL    HW2 2787   2.549   0.791   1.410 -2.2972  2.8961  0.3159
  930SOL     OW 2788   2.009   2.639   1.006 -0.0392  0.0297 -0.2329
  930SOL    HW1 2789   1.972   2.685   0.926 -0.3457 -0.8968 -1.5043
  930SOL    HW2 2790   2.092   2.690   1.039 -0.0938  1.9104  1.5375
  931SOL     OW 2791   1.895   0.999   1.241 -0.1662 -0.2959  0.0976
  931SOL    HW1 2792   1.908   0.913   1.184 -1.5531 -1.8676  1.6605
  931SOL    HW2 2793   1.978   1.057   1.236  1.3439 -1.5163 -0.7657
  932SOL     OW 2794   3.070   0.792   1.274 -0.0098  0.0554  0.1449
  932SOL    HW1 2795   3.103   0.887   1.273 -1.2699 -1.7049  1.5770
  932SOL    HW2 2796   3.101   0.747   1.188  0.0236  0.4208  0.9837
  933SOL     OW 2797   2.102   1.744   2.172 -0.5217 -0.0050  0.5900
  933SOL    HW1 2798   2.006   1.714   2.149  0.6030  1.0278 -0.7042
  933SOL    HW2 2799   2.158   1.732   2.085  1.8884  3.2095  1.0099
  934SOL     OW 2800   1.571   2.780   1.432 -1.0017 -0.1602 -0.6003
  934SOL    HW1 2801   1.556   2.761   1.332  3.1225  0.3797 -0.5768
  934SOL    HW2 2802   1.495   2.846   1.457 -2.8524  0.0330  0.8610
  935SOL     OW 2803   0.442   0.751   1.521  0.2116  0.0106 -0.1878
  935SOL    HW1 2804   0.439   0.847   1.488 -0.0127  0.6420 -0.5216
  935SOL    HW2 2805   0.440   0.745   1.626  0.8110  0.2596  1.4461
  936SOL     OW 2806   2.448   0.575   1.199 -0.0066 -0.1665 -0.1457
  936SOL    HW1 2807   2.461   0.531   1.293 -0.2234 -3.1714  1.7506
  936SOL    HW2 2808   2.487   0.667   1.192  0.9542  0.0626 -0.9108
  937SOL     OW 2809   0.913   0.068   1.431  0.0252 -0.0744  0.2901
  937SOL    HW1 2810   0.837   0.110   1.382 -0.2839  1.4192  1.3124
  937SOL    HW2 2811   0.975   0.142   1.453 -1.2067  0.5822  0.4225
  938SOL     OW 2812   2.971   2.335   0.837 -0.0032  0.3888  0.2908
  938SOL    HW1 2813   3.019   2.384   0.908 -1.3667 -0.6956 -1.0567
  938SOL    HW2 2814   3.038   2.278   0.785  2.0309 -1.3858 -0.2896
  939SOL     OW 2815   3.070   1.973   2.590  0.2143 -0.4893  1.0200
  939SOL    HW1 2816   0.006   1.996   2.494 -0.5760  2.9379 -1.1025
  939SOL    HW2 2817   0.040   1.944   2.650 -2.7741 -1.5382 -1.2315
  940SOL     OW 2818   1.990   2.315   2.850  0.1664 -0.0413 -0.3970
  940SOL    HW1 2819   1.925   2.381   2.809 -3.7956  1.6857 -1.0109
  940SOL    HW2 2820   2.010   2.236   2.784 -2.8989  1.1536 -1.6623
  941SOL     OW 2821   1.792   2.801   0.476 -0.1081  0.1235  0.5726
  941SOL    HW1 2822   1.813   2.715   0.519 -0.3519  0.1153 -0.5495
  941SOL    HW2 2823   1.839   2.807   0.388 -2.4826  0.1854  2.4243
  942SOL     OW 2824   1.687   1.986   1.212  0.1448  0.2207  0.4443
  942SOL    HW1 2825   1.746   2.067   1.184 -3.5417 -0.6676  1.1945
  942SOL    HW2 2826   1.589   2.013   1.233  2.5241  0.1043  4.8206
  943SOL     OW 2827   1.813   0.850   1.901 -0.0557  0.9116  0.3503
  943SOL    HW1 2828   1.713   0.845   1.880  0.9027 -3.3455  0.7199
  943SOL    HW2 2829   1.868   0.841   1.817 -0.1483  1.5773 -1.0232
  944SOL     OW 2830   1.693   0.559   1.674 -0.4691  0.4570  0.0563
  944SOL    HW1 2831   1.605   0.515   1.667  0.0941  2.2638 -0.9565
  944SOL    HW2 2832   1.764   0.496   1.712  1.5580 -2.2562 -0.1235
  945SOL     OW 2833   2.640   2.429   1.323  0.5345  0.2634  0.1768
  945SOL    HW1 2834   2.597   2.477   1.242 -1.7751  2.8503 -0.9624
  945SOL    HW2 2835   2.690   2.492   1.383  1.4205 -1.4249 -0.5522
  946SOL     OW 2836   0.411   1.235   1.565 -0.3347  0.1211 -0.3716
  946SOL    HW1 2837   0.391   1.321   1.510 -0.5676  0.0713 -3.1760
  946SOL    HW2 2838   0.343   1.218   1.642 -3.8000  1.3076  0.3678
  947SOL     OW 2839   0.611   2.435   0.758  0.1153 -0.3483  0.5004
  947SOL    HW1 2840   0.543   2.454   0.833 -1.7368 -0.7256  0.6763
  947SOL    HW2 2841   0.568   2.396   0.676  1.0624 -0.3007  0.0402
  948SOL     OW 2842   3.103   1.501   1.921 -0.0758 -0.6754  0.1755
  948SOL    HW1 2843   0.074   1.458   1.977 -3.0798 -0.4812 -2.5540
  948SOL    HW2 2844   3.045   1.568   1.971 -1.2217  0.5071 -3.2030
  949SOL     OW 2845   0.715   0.664   2.301 -0.0061  0.5032  0.7867
  949SOL    HW1 2846   0.796   0.721   2.323  0.2640 -0.7264  0.9833
  949SOL    HW2 2847   0.634   0.715   2.271  0.4958 -2.2375  1.1471
  950SOL     OW 2848   0.240   0.529   1.138 -0.2033 -0.3373 -0.1552
  950SOL    HW1 2849   0.159   0.583   1.097 -1.2542 -0.2418 -1.6430
  950SOL    HW2 2850   0.221   0.426   1.124 -0.5780 -0.8987  0.6218
  951SOL     OW 2851   1.164   1.847   2.235 -0.1082 -0.1683  0.6167
  951SOL    HW1 2852   1.159   1.740   2.237 -1.6201 -0.1508 -1.1058
  951SOL    HW2 2853   1.116   1.885   2.146 -2.4007 -1.6580 -0.6048
  952SOL     OW 2854   1.167   1.730   3.068 -0.1210 -0.4995 -0.1103
  952SOL    HW1 2855   1.238   1.748   3.000  1.7772 -1.2529  2.2254
  952SOL    HW2 2856   1.208   1.663   0.037  2.9518 -0.3095  1.5617
  953SOL     OW 2857   1.184   3.036   2.662 -0.0031  0.1397  0.0440
  953SOL    HW1 2858   1.115   3.075   2.598 -1.1054  0.2278 -0.5249
  953SOL    HW2 2859   1.207   3.097   2.741  4.2114 -1.0810 -1.9056
  954SOL     OW 2860   2.162   1.539   0.343  0.3763 -0.4690 -0.0550
  954SOL    HW1 2861   2.080   1.601   0.345  0.7132  0.0105  1.5041
  954SOL    HW2 2862   2.146   1.455   0.290 -0.2414  0.0227 -0.8351
  955SOL     OW 2863   0.203   2.565   2.901  0.9137  0.8091  0.5623
  955SOL    HW1 2864   0.197   2.554   2.801  0.3779 -0.0771  1.5980
  955SOL    HW2 2865   0.240   2.477   2.941 -1.2364  2.1791  0.5400
  956SOL     OW 2866   1.096   1.031   1.711 -0.2324  0.0318  0.0891
  956SOL    HW1 2867   1.075   0.936   1.684 -3.3886 -0.4686 -0.3790
  956SOL    HW2 2868   1.159   1.078   1.648  0.5706 -1.0525  2.6840
  957SOL     OW 2869   1.849   1.673   2.081 -0.5860 -0.2278 -0.6956
  957SOL    HW1 2870   1.792   1.596   2.048  0.1808  2.9668 -2.9673
  957SOL    HW2 2871   1.784   1.747   2.092  0.5297 -0.8595  2.3888
  958SOL     OW 2872   1.479   2.348   1.302 -0.0754  0.1253 -0.8010
  958SOL    HW1 2873   1.402   2.412   1.304  2.5597 -0.7478 -1.9112
  958SOL    HW2 2874   1.540   2.374   1.224 -1.2906 -1.0529  0.0348
  959SOL     OW 2875   1.202   1.669   1.295  0.5014 -0.0580 -0.0304
  959SOL    HW1 2876   1.142   1.751   1.318 -0.5546  1.6276 -0.5400
  959SOL    HW2 2877   1.294   1.706   1.302  0.5801 -2.0744 -1.3526
  960SOL     OW 2878   0.179   1.173   2.931 -0.0997  0.1654 -0.1804
  960SOL    HW1 2879   0.158   1.092   2.867  1.5972 -2.4934 -1.9993
  960SOL    HW2 2880   0.208   1.258   2.881  1.0484 -0.1175  1.8339
  961SOL     OW 2881   0.473   0.786   2.200 -0.0735  0.2204 -0.1343
  961SOL    HW1 2882   0.435   0.838   2.279  2.4013 -0.0756  0.4588
  961SOL    HW2 2883   0.435   0.827   2.114 -0.5446 -1.0487  2.7152
  962SOL     OW 2884   1.447   1.757   0.431  0.3083  0.7315 -0.2609
  962SOL    HW1 2885   1.344   1.753   0.447 -2.0573  1.0686  0.3933
  962SOL    HW2 2886   1.510   1.727   0.503  2.0072  0.3839  0.9257
  963SOL     OW 2887   1.256   2.400   2.493  0.2833 -0.0378  0.1401
  963SOL    HW1 2888   1.238   2.382   2.391 -0.0563 -0.3723 -2.9694
  963SOL    HW2 2889   1.272   2.318   2.549 -3.2248  2.1129 -1.2821
  964SOL     OW 2890   0.755   2.862   0.307  0.2480 -0.0760  0.1328
  964SOL    HW1 2891   0.740   2.890   0.401  1.7062  3.2704 -0.9080
  964SOL    HW2 2892   0.745   2.941   0.241 -1.4575  0.1111  0.3558
  965SOL     OW 2893   0.643   3.065   1.077  0.1904 -0.2352 -0.0186
  965SOL    HW1 2894   0.684   0.049   1.045 -0.4844 -0.5978  0.3135
  965SOL    HW2 2895   0.584   3.073   1.158  1.4921  1.4190 -2.7768
  966SOL     OW 2896   0.311   1.464   0.098  0.2461  0.0493 -0.1010
  966SOL    HW1 2897   0.337   1.427   0.189 -1.2841 -1.5203 -0.4100
  966SOL    HW2 2898   0.218   1.443   0.077  4.4799 -0.5148  1.4312
  967SOL     OW 2899   0.967   2.896   2.316 -0.2230  0.7375  0.2968
  967SOL    HW1 2900   0.978   2.971   2.384 -0.0202  1.0863  2.1124
  967SOL    HW2 2901   1.057   2.869   2.278 -3.8645  0.4033 -0.6352
  968SOL     OW 2902   2.157   0.651   0.154  0.7185 -0.3619  0.0385
  968SOL    HW1 2903   2.131   0.552   0.173  1.2240 -1.3317 -0.4543
  968SOL    HW2 2904   2.080   0.708   0.184 -2.2033  0.2340 -1.9033
  969SOL     OW 2905   0.080   1.713   2.191 -0.3116  0.7699 -0.5801
  969SOL    HW1 2906   3.103   1.744   2.145 -0.1581 -1.0745 -0.0385
  969SOL    HW2 2907   0.141   1.682   2.113  1.1511  2.1356 -1.4803
  970SOL     OW 2908   2.124   1.423   1.274  0.3077 -0.3884 -0.4228
  970SOL    HW1 2909   2.136   1.480   1.190 -0.8580  0.8963  0.2976
  970SOL    HW2 2910   2.191   1.452   1.340 -4.0419 -1.1711 -2.5342
  971SOL     OW 2911   1.935   0.180   1.110 -0.5209  0.1988 -0.7781
  971SOL    HW1 2912   2.016   0.191   1.164 -1.2744 -2.4867 -1.8483
  971SOL    HW2 2913   1.945   0.215   1.014 -0.7195 -1.2855 -0.4608
  972SOL     OW 2914   0.292   2.968   1.659 -0.7440  0.6965  0.1819
  972SOL    HW1 2915   0.242   3.057   1.655 -0.7062  0.4813 -1.7201
  972SOL    HW2 2916   0.282   2.924   1.567  1.4207  2.8430 -2.6691
  973SOL     OW 2917   2.546   0.915   0.327 -0.2260  0.7399  0.1871
  973SOL    HW1 2918   2.560   0.874   0.235  0.3722  0.0135 -2.5799
  973SOL    HW2 2919   2.477   0.993   0.328 -0.1159  3.4871  0.4996
  974SOL     OW 2920   1.640   1.715   2.462 -0.1660 -0.0168 -0.3985
  974SOL    HW1 2921   1.728   1.771   2.467  1.4902 -0.4419 -0.6379
  974SOL    HW2 2922   1.599   1.710   2.370 -0.8761 -0.5420  0.1544
  975SOL     OW 2923   0.256   2.803   1.441  0.4889 -0.6266  0.2002
  975SOL    HW1 2924   0.305   2.732   1.386 -2.3830  2.2722  0.8968
  975SOL    HW2 2925   0.214   2.874   1.379 -0.4624  1.8747  1.3390
  976SOL     OW 2926   0.259   1.941   1.761 -0.6666 -0.4964  0.4899
  976SOL    HW1 2927   0.269   2.044   1.743  1.2503  1.1391 -1.6050
  976SOL    HW2 2928   0.265   1.921   1.857  0.8209  0.5122 -4.3115
  977SOL     OW 2929   0.970   2.624   0.093  0.0060 -0.5264  0.4318
  977SOL    HW1 2930   1.069   2.653   0.087  3.1107  0.8079  0.9573
  977SOL    HW2 2931   0.918   2.641   0.007 -1.1814 -0.0679 -3.2891
  978SOL     OW 2932   0.423   1.806   2.946  0.0584 -0.0825 -0.0474
  978SOL    HW1 2933   0.472   1.882   2.994 -0.2237 -2.6729  0.9172
  978SOL    HW2 2934   0.489   1.734   2.938  0.5026  4.1082 -0.7768
  979SOL     OW 2935   1.608   2.434   1.071 -0.0509  0.6476 -0.2231
  979SOL    HW1 2936   1.687   2.489   1.104  1.1906 -5.1152 -0.8815
  979SOL    HW2 2937   1.633   2.411   0.973 -0.2139 -1.2006 -1.7426
  980SOL     OW 2938   1.010   1.948   3.022 -0.2988  0.2248 -0.2478
  980SOL    HW1 2939   1.052   1.855   3.019 -0.9493 -1.4304  0.9591
  980SOL    HW2 2940   1.069   2.014   2.972 -1.5393  1.2480  2.5116
  981SOL     OW 2941   2.644   3.018   2.352 -0.2795  0.4363 -0.0815
  981SOL    HW1 2942   2.610   3.094   2.293  2.2166 -1.0296 -0.7439
  981SOL    HW2 2943   2.606   3.029   2.451  0.8664 -1.1609  1.8258
  982SOL     OW 2944   0.241   2.828   2.526  0.4244  0.4808  0.6087
  982SOL    HW1 2945   0.166   2.854   2.592  1.5429 -1.5383  0.0994
  982SOL    HW2 2946   0.213   2.861   2.433 -2.7299 -0.4650  0.5354
  983SOL     OW 2947   2.454   1.226   1.717 -0.1522 -0.2740 -0.1248
  983SOL    HW1 2948   2.455   1.311   1.774  3.8159  0.3218  0.1734
  983SOL    HW2 2949   2.369   1.174   1.730  1.5552  1.2329 -0.6846
  984SOL     OW 2950   1.452   0.531   1.934 -0.1284 -0.1900 -0.5868
  984SOL    HW1 2951   1.392   0.452   1.959 -0.2032  0.3935 -0.8313
  984SOL    HW2 2952   1.547   0.520   1.978  1.7814 -0.9147 -1.2553
  985SOL     OW 2953   1.444   1.752   2.235  0.1797  0.5489  0.1888
  985SOL    HW1 2954   1.388   1.711   2.158 -0.3743 -0.1478 -0.7800
  985SOL    HW2 2955   1.504   1.818   2.195 -0.9396 -1.0781  0.6506
  986SOL     OW 2956   1.802   0.272   2.001  0.4654  0.2215  0.4414
  986SOL    HW1 2957   1.836   0.302   1.908  0.3561 -0.7877  2.2011
  986SOL    HW2 2958   1.745   0.344   2.047 -0.6304  0.5787  0.9639
  987SOL     OW 2959   2.038   0.822   1.745  0.3558  0.5904  0.1559
  987SOL    HW1 2960   2.101   0.761   1.795  0.1538  3.5650 -1.3744
  987SOL    HW2 2961   2.081   0.913   1.731  1.4339  0.5634 -0.4426
  988SOL     OW 2962   2.548   0.722   2.419 -0.3293 -0.3614  0.5209
  988SOL    HW1 2963   2.630   0.663   2.418  0.4419  2.4524 -1.0407
  988SOL    HW2 2964   2.575   0.812   2.365  3.4765  3.0907 -2.2496
  989SOL     OW 2965   2.285   2.464   2.784  0.1695  0.1772  0.5046
  989SOL    HW1 2966   2.290   2.389   2.716 -0.6714 -0.5237 -1.3998
  989SOL    HW2 2967   2.223   2.440   2.861  1.4310  3.7748  0.0016
  990SOL     OW 2968   0.881   0.356   2.616  0.2769  0.2831 -0.4327
  990SOL    HW1 2969   0.856   0.305   2.701  1.0305  2.2971 -1.3972
  990SOL    HW2 2970   0.829   0.442   2.601  1.4938 -2.2001 -0.5517
  991SOL     OW 2971   1.333   0.521   0.162  0.0588 -0.4136  0.3944
  991SOL    HW1 2972   1.324   0.622   0.151 -0.5271  1.3939  0.1701
  991SOL    HW2 2973   1.264   0.480   0.226 -0.5671 -1.0956 -1.0642
  992SOL     OW 2974   2.560   2.301   2.662 -0.2649  0.0571 -0.8436
  992SOL    HW1 2975   2.470   2.340   2.632  1.1114 -0.3051  1.2391
  992SOL    HW2 2976   2.574   2.335   2.759 -0.7443 -2.1302  0.6518
  993SOL     OW 2977   0.317   0.186   0.330  0.1751 -0.5648  0.0199
  993SOL    HW1 2978   0.278   0.217   0.241 -2.6110 -2.2879  2.2125
  993SOL    HW2 2979   0.258   0.214   0.404  1.7751 -0.8326 -1.4330
  994SOL     OW 2980   0.346   2.274   1.648 -0.0592  0.6457 -0.2853
  994SOL    HW1 2981   0.336   2.270   1.750  0.2468  2.5441  1.3147
  994SOL    HW2 2982   0.390   2.362   1.624  0.3873  0.6758  4.5276
  995SOL     OW 2983   1.907   1.728   2.955  0.4929  0.3381 -0.4963
  995SOL    HW1 2984   1.975   1.769   3.023 -0.5809  0.8912  0.5980
  995SOL    HW2 2985   1.910   1.627   2.953  0.4767  1.5717 -0.2475
  996SOL     OW 2986   1.365   1.798   2.898 -0.0290 -0.2765 -0.6216
  996SOL    HW1 2987   1.411   1.747   2.829 -1.6692 -1.0096  2.6832
  996SOL    HW2 2988   1.430   1.858   2.946 -2.3564  1.6526 -0.5029
  997SOL     OW 2989   1.648   1.132   1.169 -0.1125 -0.4174  0.1022
  997SOL    HW1 2990   1.623   1.190   1.087 -0.4541 -0.0196 -0.7911
  997SOL    HW2 2991   1.738   1.084   1.165  1.1476 -2.5620 -0.7840
  998SOL     OW 2992   2.531   1.548   0.062  0.4205 -0.2742  0.2946
  998SOL    HW1 2993   2.495   1.453   0.084 -2.9870 -1.5192 -0.1957
  998SOL    HW2 2994   2.555   1.553   3.066 -0.1019  0.5992 -1.3942
  999SOL     OW 2995   2.964   2.273   0.332  0.3794  0.1948 -0.3095
  999SOL    HW1 2996   2.912   2.270   0.422  1.2321 -0.0260 -0.2486
  999SOL    HW2 2997   2.906   2.242   0.252 -0.6299  2.3174 -0.2583
 1000SOL     OW 2998   0.675   3.030   2.046 -0.4649  0.1065 -0.0362
 1000SOL    HW1 2999   0.613   0.004   2.037 -0.3477 -1.0498 -1.8881
 1000SOL    HW2 3000   0.752   3.038   1.979  3.0892 -1.1120 -1.1887
   3.10494   3.10494   3.10494
