1000 SPC/Fw water molecules t= 345.00000 step= 345000
 3000
    1SOL     OW    1   2.384   0.153   1.346  0.0256 -0.4553 -0.4612
    1SOL    HW1    2   2.361   0.235   1.409 -0.2579  3.1457  0.4872
    1SOL    HW2    3   2.461   0.091   1.376 -1.7309  0.5701  0.7889
    2SOL     OW    4   2.694   2.500   1.000 -0.4203 -0.3708 -0.4219
    2SOL    HW1    5   2.651   2.555   1.074 -2.4096 -0.2507  0.3193
    2SOL    HW2    6   2.630   2.426   0.982 -0.3059  0.2843  1.0528
    3SOL     OW    7   1.306   2.875   2.700 -0.2899  0.2280  0.3591
    3SOL    HW1    8   1.337   2.961   2.747 -1.4754 -0.5643  1.6512
    3SOL    HW2    9   1.207   2.879   2.675  0.1032 -1.5313  1.5308
    4SOL     OW   10   1.776   2.536   2.355 -0.1145 -0.2240 -0.3428
    4SOL    HW1   11   1.866   2.575   2.334  0.1751 -1.3519 -0.9842
    4SOL    HW2   12   1.789   2.436   2.366  1.7538  3.1712  3.5332
    5SOL     OW   13   1.816   0.804   1.806 -0.0978 -0.2050  0.3098
    5SOL    HW1   14   1.916   0.809   1.837  1.5999 -1.8571  4.2345
    5SOL    HW2   15   1.808   0.791   1.708 -1.1218  0.6440  0.4864
    6SOL     OW   16   2.113   2.699   0.675 -0.1549 -0.4158 -0.1619
    6SOL    HW1   17   2.055   2.656   0.604  1.5044  0.4436  0.1432
    6SOL    HW2   18   2.173   2.771   0.640  0.0885  0.3902  1.0130
    7SOL     OW   19   1.755   1.200   1.137  0.0708  0.0485  0.2883
    7SOL    HW1   20   1.760   1.282   1.193 -2.4836 -2.7151 -1.2346
    7SOL    HW2   21   1.675   1.201   1.073  0.2952 -0.9050 -1.1418
    8SOL     OW   22   0.788   1.974   1.458 -0.1465 -0.0691 -0.4125
    8SOL    HW1   23   0.739   1.887   1.485 -1.7672 -0.5990  0.3131
    8SOL    HW2   24   0.890   1.971   1.480  1.4802  0.6853  1.3554
    9SOL     OW   25   1.212   2.459   2.069 -0.7672 -0.3831 -0.0058
    9SOL    HW1   26   1.116   2.429   2.064  0.4826 -2.1705 -0.5695
    9SOL    HW2   27   1.263   2.450   1.981  2.4629 -1.2624  2.0325
   10SOL     OW   28   0.452   2.178   0.772  0.1819 -0.4123  0.6707
   10SOL    HW1   29   0.525   2.112   0.783 -2.4918  0.4703 -0.5783
   10SOL    HW2   30   0.425   2.229   0.854  1.9496 -0.9455  0.9701
   11SOL     OW   31   1.435   2.326   1.415  0.5020 -0.1038 -0.1255
   11SOL    HW1   32   1.483   2.382   1.344  0.4440 -0.7902  1.2734
   11SOL    HW2   33   1.390   2.241   1.373  0.4260 -2.1397 -0.9819
   12SOL     OW   34   2.576   0.343   2.348 -0.3556 -0.7080  0.2774
   12SOL    HW1   35   2.626   0.262   2.384 -1.9181 -0.2259 -1.7601
   12SOL    HW2   36   2.515   0.303   2.281  0.0522 -1.0282  1.5049
   13SOL     OW   37   2.721   2.905   0.671 -0.2142 -0.9686  0.1771
   13SOL    HW1   38   2.720   2.852   0.757  2.1683  1.1644 -1.3397
   13SOL    HW2   39   2.778   2.987   0.677 -2.5196 -1.3520 -2.5664
   14SOL     OW   40   1.459   1.711   2.702  0.1578  0.1578 -0.3686
   14SOL    HW1   41   1.491   1.622   2.657  2.0463 -2.2319  1.0737
   14SOL    HW2   42   1.534   1.782   2.709 -1.5551 -0.4146 -1.2620
   15SOL     OW   43   2.598   2.784   1.644  0.2590  0.5557 -0.1014
   15SOL    HW1   44   2.538   2.734   1.708 -0.2126  1.4917 -0.3992
   15SOL    HW2   45   2.593   2.739   1.554  1.1488 -3.6671 -1.7064
   16SOL     OW   46   2.806   2.829   0.414 -0.5637  0.6285  0.0540
   16SOL    HW1   47   2.760   2.851   0.504 -1.6296  1.4269  1.1386
   16SOL    HW2   48   2.870   2.749   0.421 -0.9397  1.4040 -0.9948
   17SOL     OW   49   0.223   0.461   1.097  0.3530 -0.2921  0.3506
   17SOL    HW1   50   0.230   0.558   1.075 -1.5547 -0.8243  0.9694
   17SOL    HW2   51   0.312   0.416   1.118 -1.0037  1.4923 -1.7735
   18SOL     OW   52   2.120   0.420   0.235  0.5002  0.2284 -0.4191
   18SOL    HW1   53   2.024   0.456   0.234 -1.6250 -1.0657  0.6945
   18SOL    HW2   54   2.135   0.366   0.321  1.9429  0.5740  0.5423
   19SOL     OW   55   1.946   1.721   3.091 -0.0290 -0.5134  0.1645
   19SOL    HW1   56   1.865   1.782   3.065 -3.4172  2.4933 -0.6200
   19SOL    HW2   57   1.904   1.640   0.021 -1.0440  1.2655  1.6528
   20SOL     OW   58   2.546   1.956   2.222  0.7044 -0.7233  0.1429
   20SOL    HW1   59   2.514   1.859   2.219 -1.2148 -1.6413  1.1958
   20SOL    HW2   60   2.476   2.013   2.277 -0.6374 -0.2259 -0.3939
   21SOL     OW   61   1.798   0.045   0.464  0.7826 -0.4294  0.1567
   21SOL    HW1   62   1.852   3.075   0.494  0.9966  0.9751 -1.5874
   21SOL    HW2   63   1.858   0.093   0.395  0.9923  0.5974 -0.1668
   22SOL     OW   64   2.757   0.466   1.878  0.5244  0.1118 -0.1073
   22SOL    HW1   65   2.661   0.448   1.850 -2.9126 -1.9784  1.1936
   22SOL    HW2   66   2.784   0.551   1.831  0.7000  1.6976  1.4093
   23SOL     OW   67   0.289   0.776   1.936  0.5779 -0.1739 -0.0189
   23SOL    HW1   68   0.192   0.780   1.959  1.2257 -0.6276  2.8683
   23SOL    HW2   69   0.319   0.679   1.934  0.7615 -0.2868  1.5234
   24SOL     OW   70   2.769   2.617   0.632 -0.1225 -0.1361  0.1069
   24SOL    HW1   71   2.847   2.681   0.656 -3.0247  3.6874  0.9623
   24SOL    HW2   72   2.678   2.660   0.624  2.7063 -1.2980 -0.5370
   25SOL     OW   73   1.023   2.948   2.721 -0.1727 -0.0629 -0.3971
   25SOL    HW1   74   0.964   2.866   2.725 -0.5813  0.6820 -0.4060
   25SOL    HW2   75   1.015   2.998   2.813 -0.1374  1.1531 -1.1897
   26SOL     OW   76   1.022   2.791   0.261  0.3485 -0.6480  1.0100
   26SOL    HW1   77   1.052   2.768   0.168 -1.6621 -0.1694  0.2586
   26SOL    HW2   78   1.100   2.813   0.322  2.2742  0.5531  2.9290
   27SOL     OW   79   2.288   0.864   0.097  0.1672 -0.2244  0.3577
   27SOL    HW1   80   2.209   0.920   0.133 -1.5966  3.7291 -0.1198
   27SOL    HW2   81   2.346   0.919   0.033  0.0700 -0.9850 -1.3877
   28SOL     OW   82   0.957   1.533   0.951 -0.0358 -0.2134 -0.3038
   28SOL    HW1   83   0.933   1.462   0.885  2.2014  0.0672  1.1609
   28SOL    HW2   84   1.062   1.531   0.960  1.0291 -2.9184  0.7337
   29SOL     OW   85   2.821   2.910   1.718 -0.4328 -0.1422 -0.7178
   29SOL    HW1   86   2.882   2.907   1.641  0.7079 -2.0306  1.3242
   29SOL    HW2   87   2.730   2.869   1.693  0.8876  1.1415 -0.6474
   30SOL     OW   88   1.233   0.023   1.211  0.4362  0.2693  0.4001
   30SOL    HW1   89   1.287   3.051   1.179  1.0667 -2.0615  1.4632
   30SOL    HW2   90   1.248   0.100   1.150  4.2890  0.7803 -2.8836
   31SOL     OW   91   2.284   2.903   2.333  0.8846 -0.4708  0.4801
   31SOL    HW1   92   2.244   2.935   2.423  2.4900 -0.9840 -2.3143
   31SOL    HW2   93   2.231   2.946   2.256 -0.2372  0.9535 -0.4046
   32SOL     OW   94   0.942   1.234   0.376 -0.3558  0.4254 -0.1741
   32SOL    HW1   95   0.948   1.334   0.346  2.7806  2.0176  0.5097
   32SOL    HW2   96   0.881   1.228   0.455  1.5708  1.0955 -1.6879
   33SOL     OW   97   0.057   1.121   2.610  0.3043  0.2343  0.4249
   33SOL    HW1   98   3.102   1.088   2.533 -1.5818 -3.4830  1.3274
   33SOL    HW2   99   0.102   1.210   2.575  0.4478  0.2274 -1.0442
   34SOL     OW  100   2.532   0.034   0.576 -0.0339  0.6312 -0.5048
   34SOL    HW1  101   2.575   3.089   0.653  1.7957  0.4573 -0.7646
   34SOL    HW2  102   2.429   0.042   0.597 -2.1150 -1.2710 -0.4427
   35SOL     OW  103   2.432   2.958   1.950 -0.2073  0.5875  0.4256
   35SOL    HW1  104   2.521   2.906   1.966  2.4467 -0.0969  0.1733
   35SOL    HW2  105   2.378   2.930   2.030  0.4073  3.3206 -0.2847
   36SOL     OW  106   2.157   2.223   3.080  0.0868  0.3051  0.3458
   36SOL    HW1  107   2.235   2.287   3.062  2.5039 -1.2629 -1.2879
   36SOL    HW2  108   2.148   2.163   2.998  0.1216  0.9484  1.8006
   37SOL     OW  109   1.839   3.085   2.067 -0.3204  0.3561 -0.5447
   37SOL    HW1  110   1.901   0.046   2.102 -1.7824 -1.0849  0.4592
   37SOL    HW2  111   1.849   3.079   1.962  1.4189  0.5456 -5.0863
   38SOL     OW  112   0.169   0.515   2.941 -0.3056  0.4175  0.3400
   38SOL    HW1  113   0.268   0.511   2.962 -5.1344 -1.9956  1.0600
   38SOL    HW2  114   0.119   0.588   2.992 -0.2777 -1.5699  1.2344
   39SOL     OW  115   1.937   1.359   1.502 -0.1223 -0.5575  0.1346
   39SOL    HW1  116   2.024   1.325   1.464  0.8129 -2.1204  0.8995
   39SOL    HW2  117   1.887   1.291   1.552  0.3500 -0.2471 -1.1485
   40SOL     OW  118   1.173   2.453   0.332  0.3669  0.2601 -0.0296
   40SOL    HW1  119   1.179   2.478   0.235  1.5343 -0.2373  2.7807
   40SOL    HW2  120   1.209   2.362   0.356 -0.0116 -3.2228  2.6865
   41SOL     OW  121   2.120   1.256   0.747 -0.6588  0.4704  0.5139
   41SOL    HW1  122   2.094   1.354   0.762  2.1881 -1.4011  1.1150
   41SOL    HW2  123   2.172   1.243   0.659  0.3108 -1.0198  0.0325
   42SOL     OW  124   0.800   0.250   1.145  0.2816 -0.1208 -0.0144
   42SOL    HW1  125   0.790   0.247   1.040  0.2181 -1.0425  0.8897
   42SOL    HW2  126   0.840   0.165   1.180 -0.3727  2.9306 -3.5580
   43SOL     OW  127   0.178   1.809   2.434 -0.6442  0.2622  0.2934
   43SOL    HW1  128   0.178   1.754   2.521 -0.8841 -1.2191 -2.2115
   43SOL    HW2  129   0.271   1.839   2.414 -0.2941 -1.4791 -1.3421
   44SOL     OW  130   2.208   3.032   1.609  0.1554 -0.2205  0.0053
   44SOL    HW1  131   2.131   3.022   1.544 -1.1880 -0.3744 -1.4240
   44SOL    HW2  132   2.304   3.026   1.569 -0.1379  2.9738 -0.7982
   45SOL     OW  133   1.105   0.056   2.249  0.1764  0.2079 -0.2940
   45SOL    HW1  134   1.200   0.032   2.276  2.4596 -0.3725 -2.1245
   45SOL    HW2  135   1.039   0.036   2.322  2.4709  0.0520  0.8069
   46SOL     OW  136   1.064   2.374   2.407 -0.3139  0.3603  0.0736
   46SOL    HW1  137   1.153   2.341   2.446 -0.5484  0.1935  0.6206
   46SOL    HW2  138   1.047   2.473   2.414 -1.0936  2.7655 -1.2204
   47SOL     OW  139   1.210   1.659   0.689  0.2601 -0.2784  0.0999
   47SOL    HW1  140   1.288   1.657   0.625 -1.6249  2.2857  1.6583
   47SOL    HW2  141   1.229   1.607   0.772 -0.5504 -0.7032 -1.6218
   48SOL     OW  142   1.211   2.313   0.837  0.7761  0.1655 -0.1974
   48SOL    HW1  143   1.175   2.288   0.745  0.5288  0.0602  0.3130
   48SOL    HW2  144   1.192   2.236   0.904  0.0804  0.0226 -1.4064
   49SOL     OW  145   2.309   0.139   2.973  0.7360  0.1873 -0.0611
   49SOL    HW1  146   2.241   0.068   3.006 -1.6615  0.7246  0.6521
   49SOL    HW2  147   2.286   0.227   3.018  0.8081 -2.0134 -2.3397
   50SOL     OW  148   1.639   0.145   0.037  0.1897  0.1480 -0.3076
   50SOL    HW1  149   1.725   0.146   3.090 -0.8496 -0.0539 -2.3041
   50SOL    HW2  150   1.553   0.160   3.092 -1.6412  1.2716  0.9907
   51SOL     OW  151   2.305   0.663   1.479 -0.2836  0.4932 -0.1275
   51SOL    HW1  152   2.334   0.761   1.462  3.6076  0.4748 -2.5673
   51SOL    HW2  153   2.377   0.604   1.435 -2.6616  2.8416 -0.6969
   52SOL     OW  154   1.017   1.503   0.294  0.3043  0.2046 -0.0456
   52SOL    HW1  155   0.993   1.510   0.397 -0.1067  1.5766  1.1829
   52SOL    HW2  156   1.062   1.591   0.259  1.9258 -1.0854 -1.7908
   53SOL     OW  157   0.105   1.594   2.765  0.0609 -0.3599  0.0139
   53SOL    HW1  158   0.116   1.541   2.850 -2.0728  0.7059 -0.3114
   53SOL    HW2  159   0.025   1.652   2.780  2.2496 -2.4363  1.4632
   54SOL     OW  160   2.903   1.295   1.759  0.1900 -0.6405 -0.0306
   54SOL    HW1  161   2.887   1.394   1.735  0.7871 -0.9629 -1.0901
   54SOL    HW2  162   2.868   1.285   1.855  2.5228  1.4871  2.8947
   55SOL     OW  163   2.222   1.986   0.569 -0.8277 -0.0902 -0.0619
   55SOL    HW1  164   2.254   1.919   0.639  1.3209 -0.7489 -0.9700
   55SOL    HW2  165   2.175   2.063   0.617 -0.8915  0.8423 -1.6319
   56SOL     OW  166   1.762   0.200   1.684  0.1208 -0.5229 -0.3547
   56SOL    HW1  167   1.786   0.300   1.686 -1.2521  0.6853  2.1823
   56SOL    HW2  168   1.660   0.185   1.695 -2.5153  1.3843  0.5367
   57SOL     OW  169   1.359   1.138   2.511 -0.1511 -0.6248  0.0411
   57SOL    HW1  170   1.360   1.222   2.455 -0.0120 -0.9918  1.0605
   57SOL    HW2  171   1.453   1.118   2.547  0.7133  2.0639 -0.4647
   58SOL     OW  172   2.974   0.664   1.281 -0.0794  0.7348  0.6743
   58SOL    HW1  173   3.041   0.616   1.337  3.2328  0.1185 -2.3593
   58SOL    HW2  174   2.916   0.598   1.230 -3.0466  2.2070 -0.8222
   59SOL     OW  175   1.600   2.959   0.077 -0.1609 -0.0625 -0.2460
   59SOL    HW1  176   1.620   3.053   0.045 -0.3889  0.9471  1.1163
   59SOL    HW2  177   1.591   2.963   0.177 -0.6621 -1.3338 -1.2249
   60SOL     OW  178   2.858   2.003   2.793  0.1896  0.2733  0.0506
   60SOL    HW1  179   2.844   2.100   2.806 -1.0872 -1.1134 -2.1539
   60SOL    HW2  180   2.768   1.957   2.815 -2.4067 -1.8954  0.1804
   61SOL     OW  181   0.726   2.665   0.948 -0.3239  0.1425 -0.2425
   61SOL    HW1  182   0.784   2.711   0.878 -0.5938 -0.9777 -1.9205
   61SOL    HW2  183   0.746   2.701   1.043 -0.6624  0.3156  0.4034
   62SOL     OW  184   1.595   1.493   2.579  0.3312  0.1369 -0.2894
   62SOL    HW1  185   1.609   1.490   2.481 -0.9547 -2.7949 -0.3566
   62SOL    HW2  186   1.596   1.401   2.624 -1.9114 -0.8295  1.4564
   63SOL     OW  187   2.228   2.089   0.221 -0.3395 -0.7996 -0.0223
   63SOL    HW1  188   2.137   2.096   0.272 -1.1331  1.0716  0.2360
   63SOL    HW2  189   2.222   2.109   0.119 -1.6229  1.2086 -0.1902
   64SOL     OW  190   1.890   0.968   2.930  0.4011 -0.0229  0.2369
   64SOL    HW1  191   1.794   0.930   2.894 -1.2530  0.0064  0.4427
   64SOL    HW2  192   1.879   1.070   2.948  0.9352  0.5972 -2.3058
   65SOL     OW  193   2.157   1.734   2.261  0.9071 -0.1860  0.1428
   65SOL    HW1  194   2.254   1.730   2.226 -2.3857  0.4484  0.1193
   65SOL    HW2  195   2.090   1.710   2.187 -2.4381 -0.4266  0.8869
   66SOL     OW  196   0.362   1.171   1.170  0.3613  0.3754 -0.9824
   66SOL    HW1  197   0.293   1.108   1.212  2.7967 -0.4339  1.8555
   66SOL    HW2  198   0.365   1.265   1.206  2.1920  0.5510 -2.1719
   67SOL     OW  199   2.157   3.004   2.565  0.1172  0.2096 -0.3434
   67SOL    HW1  200   2.156   3.103   2.575 -0.9741 -0.0698  2.3841
   67SOL    HW2  201   2.070   2.963   2.528  4.3377  0.5890  0.7308
   68SOL     OW  202   1.122   2.397   1.452 -0.5928  0.3705 -0.2470
   68SOL    HW1  203   1.203   2.415   1.389 -0.2660  1.2297  0.1041
   68SOL    HW2  204   1.125   2.303   1.490 -2.7096  0.5033 -1.3886
   69SOL     OW  205   0.747   2.418   0.008 -0.4321 -0.0615 -0.6090
   69SOL    HW1  206   0.677   2.479   0.044  0.3036 -2.0943  0.6296
   69SOL    HW2  207   0.787   2.363   0.083  3.4413 -1.7307 -2.1176
   70SOL     OW  208   0.171   0.763   2.342  0.6006  0.2569 -0.1607
   70SOL    HW1  209   0.180   0.794   2.242  2.6219  0.1135 -1.8402
   70SOL    HW2  210   0.221   0.819   2.409 -2.0039 -2.1618  2.6852
   71SOL     OW  211   0.637   1.496   2.874  0.4908 -0.4843  0.4517
   71SOL    HW1  212   0.675   1.517   2.781  0.7182 -0.7838  0.9816
   71SOL    HW2  213   0.615   1.578   2.925 -1.9662  1.0384  3.8128
   72SOL     OW  214   2.905   1.491   2.290 -0.3305  0.2741  0.0754
   72SOL    HW1  215   3.002   1.530   2.279  1.9230 -1.6455  1.2386
   72SOL    HW2  216   2.846   1.545   2.224  0.4620  1.1425  0.6296
   73SOL     OW  217   1.599   1.289   0.596 -0.1981 -0.2256 -0.7286
   73SOL    HW1  218   1.696   1.313   0.571  0.3306 -0.6292  2.0924
   73SOL    HW2  219   1.579   1.189   0.581  0.7499 -0.3003  1.0703
   74SOL     OW  220   2.513   2.729   2.648 -0.4170 -0.4818  0.1402
   74SOL    HW1  221   2.539   2.795   2.571  0.4824 -1.9112 -3.2094
   74SOL    HW2  222   2.422   2.759   2.683  2.7060 -0.1168  0.4129
   75SOL     OW  223   2.150   2.022   1.178 -0.2923 -0.0420  0.2695
   75SOL    HW1  224   2.125   2.117   1.155  1.0282 -2.4660  1.1485
   75SOL    HW2  225   2.069   1.971   1.213 -1.5556  0.6933 -3.4608
   76SOL     OW  226   2.739   2.125   2.149  1.1523  0.5514 -0.3882
   76SOL    HW1  227   2.656   2.072   2.182  0.5587  1.1577 -0.7126
   76SOL    HW2  228   2.714   2.183   2.066 -2.1354 -0.3179 -0.8729
   77SOL     OW  229   3.080   0.208   2.111  0.2526 -0.2700 -0.2775
   77SOL    HW1  230   3.006   0.216   2.039  0.7498  1.9055 -1.7301
   77SOL    HW2  231   3.053   0.262   2.193 -1.1619 -1.3443  0.2114
   78SOL     OW  232   2.228   1.209   3.061 -0.2795 -0.0398 -0.4141
   78SOL    HW1  233   2.247   1.271   2.983 -1.0655 -0.5166  1.4075
   78SOL    HW2  234   2.133   1.176   3.048  1.8638  0.3651 -0.7566
   79SOL     OW  235   2.874   1.531   2.564 -0.2592 -0.0015  0.4166
   79SOL    HW1  236   2.890   1.496   2.467 -0.7101  1.4740 -0.2634
   79SOL    HW2  237   2.810   1.608   2.560  1.7887 -0.5105 -1.3761
   80SOL     OW  238   1.502   1.463   1.459 -0.0347  0.3936  0.3611
   80SOL    HW1  239   1.513   1.562   1.451  1.7412 -1.9347 -0.9008
   80SOL    HW2  240   1.521   1.421   1.552  0.7027 -0.4468  1.5334
   81SOL     OW  241   2.096   0.786   1.852  0.4091  0.0757  0.5752
   81SOL    HW1  242   2.136   0.793   1.943 -0.2595  1.2099 -3.8300
   81SOL    HW2  243   2.126   0.856   1.794  0.0672  0.7204  2.2031
   82SOL     OW  244   1.693   1.682   1.620  0.4614 -0.1590 -0.5765
   82SOL    HW1  245   1.763   1.665   1.686 -1.3616  0.3582 -1.1489
   82SOL    HW2  246   1.733   1.727   1.535  0.7789  0.1631  1.5670
   83SOL     OW  247   0.135   0.019   0.225  0.4957  0.3166 -0.2178
   83SOL    HW1  248   0.161   0.017   0.127 -0.2780 -1.8354  1.4983
   83SOL    HW2  249   0.064   0.092   0.239 -0.0888  1.1932 -0.3992
   84SOL     OW  250   0.439   0.817   0.016 -0.3220  0.3054 -0.5641
   84SOL    HW1  251   0.357   0.841   3.067 -0.4343 -1.9397 -0.5320
   84SOL    HW2  252   0.411   0.801   0.114 -2.1294  0.5152  2.3753
   85SOL     OW  253   2.657   1.837   1.342  0.3398 -0.4041  0.0591
   85SOL    HW1  254   2.610   1.848   1.254  2.3944 -2.1310  2.3345
   85SOL    HW2  255   2.730   1.903   1.352 -0.2786 -1.1447  0.2893
   86SOL     OW  256   0.465   2.591   1.304 -0.0572  0.1877 -0.3333
   86SOL    HW1  257   0.503   2.495   1.306  1.0890 -2.3341  0.8120
   86SOL    HW2  258   0.446   2.624   1.209 -1.0630 -0.3974  0.4311
   87SOL     OW  259   0.671   2.377   2.332 -0.0689  0.4454  0.2324
   87SOL    HW1  260   0.709   2.466   2.293  0.4499  0.2413 -2.4840
   87SOL    HW2  261   0.734   2.337   2.401 -0.7419  4.1320 -0.1381
   88SOL     OW  262   0.013   1.982   0.515  0.5528  0.4130  0.2124
   88SOL    HW1  263   0.025   1.917   0.437 -0.0787 -6.3592  1.2491
   88SOL    HW2  264   3.046   1.949   0.574  0.7974  0.5667 -0.2022
   89SOL     OW  265   0.932   0.975   1.075 -0.0499  0.2879 -0.1672
   89SOL    HW1  266   0.993   0.925   1.009  2.1525 -0.0724  1.6368
   89SOL    HW2  267   0.899   0.918   1.148 -0.9308  3.1524 -1.5852
   90SOL     OW  268   0.443   1.425   1.983  0.2275 -0.1720 -0.2867
   90SOL    HW1  269   0.476   1.511   1.938 -0.0340  2.1454  4.0416
   90SOL    HW2  270   0.508   1.349   1.958  1.0906  0.4233 -1.0207
   91SOL     OW  271   1.078   0.815   0.928 -0.2592  0.5679 -0.0434
   91SOL    HW1  272   1.020   0.735   0.916  3.6782  1.1738  0.6867
   91SOL    HW2  273   1.154   0.809   0.994 -2.1867  2.3116  0.6161
   92SOL     OW  274   1.979   1.085   1.057 -0.2088  0.0609 -0.1357
   92SOL    HW1  275   1.895   1.132   1.092  0.0765 -0.1502  1.1429
   92SOL    HW2  276   2.047   1.154   1.036 -1.2440 -1.2517  0.8839
   93SOL     OW  277   2.701   1.057   2.424  0.7362  0.2626  0.2368
   93SOL    HW1  278   2.759   0.974   2.411 -0.4025 -0.9858 -1.1874
   93SOL    HW2  279   2.605   1.034   2.446 -1.9155  0.0449 -0.5239
   94SOL     OW  280   2.003   1.587   2.639  0.2152 -0.3779 -0.3338
   94SOL    HW1  281   1.962   1.667   2.587  0.4364  3.1601 -2.7626
   94SOL    HW2  282   2.097   1.560   2.606  1.0477 -2.0952  0.0471
   95SOL     OW  283   2.730   0.670   1.449 -0.9136  0.2000  0.2493
   95SOL    HW1  284   2.816   0.680   1.395  1.4844 -0.0439 -1.2316
   95SOL    HW2  285   2.708   0.569   1.462 -1.1973 -3.7420  0.1495
   96SOL     OW  286   2.471   3.014   1.588  0.1234  0.1144 -0.4790
   96SOL    HW1  287   2.441   3.078   1.663  0.9451  0.6976 -0.0418
   96SOL    HW2  288   2.531   2.937   1.622  0.8748  0.4225  1.5583
   97SOL     OW  289   2.605   1.079   1.486  0.5974 -0.3874 -0.3030
   97SOL    HW1  290   2.606   1.021   1.405  0.9038  1.5134  1.1098
   97SOL    HW2  291   2.700   1.109   1.495 -1.4599 -1.3443  2.4616
   98SOL     OW  292   1.623   2.291   1.889 -0.3603  0.5050 -0.0047
   98SOL    HW1  293   1.645   2.247   1.804 -2.3057  0.9364 -2.5272
   98SOL    HW2  294   1.706   2.323   1.933 -0.9164 -0.0909 -2.2981
   99SOL     OW  295   0.250   2.575   1.461 -0.0769  0.2448  0.1377
   99SOL    HW1  296   0.333   2.573   1.401  0.4959 -1.5909 -1.7376
   99SOL    HW2  297   0.269   2.648   1.525 -0.4828  1.2340  0.0356
  100SOL     OW  298   1.471   0.550   2.612  0.4854 -0.1196  0.0972
  100SOL    HW1  299   1.542   0.493   2.569  1.0168  1.1284 -0.9372
  100SOL    HW2  300   1.474   0.535   2.714  0.7470 -1.2940  0.2376
  101SOL     OW  301   2.396   0.116   2.527 -0.2787 -0.0998  0.1282
  101SOL    HW1  302   2.416   0.155   2.622  1.1426 -0.0569  0.4735
  101SOL    HW2  303   2.415   0.013   2.523  1.0788 -2.9467 -1.4572
  102SOL     OW  304   0.454   0.575   1.410 -0.5916  0.2653 -0.4292
  102SOL    HW1  305   0.497   0.640   1.476 -2.5256  0.7075 -3.3618
  102SOL    HW2  306   0.530   0.521   1.361  0.6925  0.0147  3.8114
  103SOL     OW  307   0.776   0.906   2.379 -0.4119  0.2709  0.2433
  103SOL    HW1  308   0.705   0.839   2.346  0.3769  0.9204  1.7147
  103SOL    HW2  309   0.791   0.903   2.480 -0.2644 -0.1816  1.1155
  104SOL     OW  310   0.844   0.890   2.642 -0.2155  0.3605 -0.0214
  104SOL    HW1  311   0.809   0.820   2.705  0.5641 -1.2639 -1.9000
  104SOL    HW2  312   0.913   0.953   2.690  0.3775  3.9403  1.5535
  105SOL     OW  313   2.070   2.087   1.626  0.4547 -0.1373  0.1739
  105SOL    HW1  314   2.074   1.988   1.596 -1.0268  1.7829 -0.0508
  105SOL    HW2  315   2.020   2.142   1.558  0.5872 -0.4420 -0.3010
  106SOL     OW  316   1.578   3.005   0.365  0.4857  0.0728  0.2899
  106SOL    HW1  317   1.557   2.937   0.434 -0.3483 -1.1081 -0.4088
  106SOL    HW2  318   1.649   3.063   0.400 -1.2801 -0.5736 -2.1540
  107SOL     OW  319   2.278   1.992   0.912  0.7061  0.1906  0.0311
  107SOL    HW1  320   2.221   1.992   0.999 -0.4665 -0.4132  2.6787
  107SOL    HW2  321   2.283   1.899   0.874  1.7783 -1.2536 -1.0483
  108SOL     OW  322   2.618   3.070   1.374  0.2428 -0.4514  0.3963
  108SOL    HW1  323   2.571   3.005   1.435 -1.3231 -0.3205 -1.2585
  108SOL    HW2  324   2.697   3.107   1.421  0.1613  1.7445 -2.4311
  109SOL     OW  325   1.864   2.581   0.906 -0.7499  0.4900 -0.2688
  109SOL    HW1  326   1.844   2.594   1.003 -1.3216  1.5683  3.8144
  109SOL    HW2  327   1.964   2.585   0.892  3.0944 -2.1247  0.9126
  110SOL     OW  328   0.890   1.771   1.979  0.0132  0.0824 -0.3656
  110SOL    HW1  329   0.849   1.680   1.961 -1.1239 -1.4194 -0.0877
  110SOL    HW2  330   0.825   1.833   2.018  0.7535 -2.1994 -3.0281
  111SOL     OW  331   1.846   2.099   2.113  0.1044  0.0708 -0.1052
  111SOL    HW1  332   1.868   2.103   2.010 -0.7642  2.0000 -0.6610
  111SOL    HW2  333   1.762   2.156   2.126  0.6703 -0.6251  0.2304
  112SOL     OW  334   1.760   1.749   2.511 -0.0073  0.1595  0.2225
  112SOL    HW1  335   1.754   1.658   2.468 -0.1694  0.3882 -1.9139
  112SOL    HW2  336   1.852   1.791   2.493  0.2339  3.2532 -0.3862
  113SOL     OW  337   1.547   2.001   1.759 -0.3785 -0.1858  0.8373
  113SOL    HW1  338   1.632   1.990   1.811 -2.0722 -0.1750  1.9654
  113SOL    HW2  339   1.488   1.920   1.772  1.0786 -0.8763  1.1975
  114SOL     OW  340   3.014   1.135   1.147 -0.0890  0.2789 -0.5360
  114SOL    HW1  341   0.005   1.117   1.153  1.5050  0.5653  0.9340
  114SOL    HW2  342   2.961   1.052   1.131 -0.0309  1.0735 -0.1130
  115SOL     OW  343   0.393   0.542   0.306  0.1979 -0.0522  0.0970
  115SOL    HW1  344   0.375   0.564   0.402 -0.4317 -2.3692 -1.0849
  115SOL    HW2  345   0.493   0.512   0.302  1.0477  1.7059 -1.0775
  116SOL     OW  346   2.762   1.768   2.505 -0.4983 -0.2911 -0.1519
  116SOL    HW1  347   2.687   1.836   2.524  3.5025  2.0283  1.9683
  116SOL    HW2  348   2.855   1.809   2.515  2.7907 -0.6631 -0.4865
  117SOL     OW  349   3.048   2.691   0.738  0.0648 -0.2527  0.4345
  117SOL    HW1  350   3.063   2.599   0.699  0.8284 -0.1397  0.5999
  117SOL    HW2  351   3.071   2.695   0.838 -3.0089  1.7824  1.1329
  118SOL     OW  352   0.723   1.517   2.603  0.0409  0.3049  0.5582
  118SOL    HW1  353   0.786   1.582   2.557  0.2338  0.5324 -1.5165
  118SOL    HW2  354   0.653   1.479   2.541  0.6506  0.2715  0.9991
  119SOL     OW  355   0.437   2.139   0.503 -0.2399 -0.0534  0.5111
  119SOL    HW1  356   0.437   2.140   0.602  0.9845 -1.0359 -0.1130
  119SOL    HW2  357   0.426   2.234   0.465 -2.1367  0.8801  3.7881
  120SOL     OW  358   1.323   0.492   0.262 -0.0759  0.3079 -0.1704
  120SOL    HW1  359   1.402   0.430   0.256  0.6475  0.3081  2.6801
  120SOL    HW2  360   1.347   0.569   0.322 -1.6327 -1.8524  1.8042
  121SOL     OW  361   1.564   2.370   0.810  0.2731  0.2969  0.3058
  121SOL    HW1  362   1.564   2.326   0.902  1.4893  2.1300 -0.6588
  121SOL    HW2  363   1.557   2.304   0.738 -2.7736 -0.3802  0.6142
  122SOL     OW  364   2.495   2.369   1.829 -0.0870  0.2935  0.2637
  122SOL    HW1  365   2.414   2.305   1.837  0.7747 -1.2864 -0.7281
  122SOL    HW2  366   2.581   2.318   1.853  1.7197  1.3881 -0.0375
  123SOL     OW  367   0.754   1.507   0.546 -0.1427  0.4752 -0.3469
  123SOL    HW1  368   0.703   1.544   0.467 -0.7072 -0.5855 -2.2507
  123SOL    HW2  369   0.852   1.532   0.541  0.0357 -1.3820 -1.0669
  124SOL     OW  370   2.925   0.728   0.366  0.3606  0.1233  0.1325
  124SOL    HW1  371   2.869   0.647   0.341 -1.5697  0.7541 -0.7453
  124SOL    HW2  372   2.877   0.812   0.345 -0.0336  0.9902 -0.9236
  125SOL     OW  373   0.428   0.668   0.543 -0.3536 -0.1490 -0.1246
  125SOL    HW1  374   0.414   0.683   0.644  1.6926  0.0791  2.2910
  125SOL    HW2  375   0.477   0.748   0.499  2.3296  0.9748 -3.6297
  126SOL     OW  376   2.942   1.863   0.689 -0.4663  0.3758 -0.1778
  126SOL    HW1  377   2.880   1.820   0.759 -0.3912  1.1494 -0.9097
  126SOL    HW2  378   2.940   1.964   0.702 -0.4922  0.4034  0.0507
  127SOL     OW  379   1.370   2.371   1.849 -0.0170  0.8196  0.2433
  127SOL    HW1  380   1.463   2.337   1.871 -2.2431  0.8313  1.8888
  127SOL    HW2  381   1.306   2.293   1.858  2.4884 -0.2194  0.8933
  128SOL     OW  382   0.896   1.109   0.142  0.2520 -0.1621  0.6546
  128SOL    HW1  383   0.807   1.138   0.103  1.1353 -1.0783  0.9799
  128SOL    HW2  384   0.910   1.145   0.228  2.1497 -0.3071 -5.5561
  129SOL     OW  385   1.735   1.928   1.431 -0.3520  0.5584 -0.3224
  129SOL    HW1  386   1.687   1.876   1.499  2.8331 -2.4965 -0.4126
  129SOL    HW2  387   1.731   2.027   1.451 -3.9805  0.8675 -0.7577
  130SOL     OW  388   2.343   1.670   1.428  0.6189 -0.3287  0.3285
  130SOL    HW1  389   2.365   1.744   1.361  0.5353  2.4839 -0.4950
  130SOL    HW2  390   2.259   1.692   1.479  0.4817  1.8398  0.1747
  131SOL     OW  391   3.004   2.868   2.916 -0.1987  0.0674 -0.5311
  131SOL    HW1  392   2.967   2.833   2.833  2.1044  1.5816  0.5823
  131SOL    HW2  393   3.061   2.799   2.963 -0.6827 -0.2288 -2.2480
  132SOL     OW  394   2.578   1.740   0.720 -0.3239  0.2923 -0.2279
  132SOL    HW1  395   2.606   1.666   0.657 -2.9339 -0.2471  1.4214
  132SOL    HW2  396   2.647   1.748   0.795 -1.9810  1.3065 -1.0552
  133SOL     OW  397   0.543   0.112   1.787  0.5301 -0.2280  0.2972
  133SOL    HW1  398   0.461   0.094   1.848 -0.4510  1.5182  3.7798
  133SOL    HW2  399   0.581   0.206   1.801  2.0738 -1.6011 -0.5827
  134SOL     OW  400   3.098   1.845   0.024  0.2043 -0.0474  0.6942
  134SOL    HW1  401   2.995   1.824   0.030 -2.5660  0.3653  1.1023
  134SOL    HW2  402   0.002   1.922   3.071 -0.6979 -0.6515 -0.4718
  135SOL     OW  403   1.688   0.635   1.996  0.2040  0.2509  0.0503
  135SOL    HW1  404   1.716   0.690   1.912  1.0437  0.4471 -2.1956
  135SOL    HW2  405   1.656   0.700   2.070  0.7922 -4.5429 -2.4803
  136SOL     OW  406   2.626   1.556   0.517 -0.0063 -0.5971  0.3146
  136SOL    HW1  407   2.715   1.544   0.477 -0.5895  0.4427  4.9211
  136SOL    HW2  408   2.583   1.462   0.516 -1.5076  0.2490  0.3833
  137SOL     OW  409   2.773   1.738   0.923 -0.3412 -0.1638  0.3406
  137SOL    HW1  410   2.769   1.640   0.950  0.8591 -0.4599  0.2982
  137SOL    HW2  411   2.844   1.782   0.979 -0.6563  0.2635  2.4588
  138SOL     OW  412   2.696   0.582   0.962 -0.1449  0.1904  0.4430
  138SOL    HW1  413   2.630   0.564   0.890 -1.4732 -3.1276 -0.8779
  138SOL    HW2  414   2.690   0.680   0.985 -0.2811 -0.1483  1.0787
  139SOL     OW  415   1.100   2.679   0.001  0.0224  0.2014 -0.2007
  139SOL    HW1  416   1.183   2.708   3.055 -0.9980  2.2355  2.0261
  139SOL    HW2  417   1.013   2.725   3.077 -0.2640  3.2920  0.6065
  140SOL     OW  418   1.063   1.914   1.046  0.2524  0.2371  0.0563
  140SOL    HW1  419   1.132   1.912   0.973  0.9602 -1.3329  2.0454
  140SOL    HW2  420   0.978   1.872   1.011  0.6158  1.4434 -1.1687
  141SOL     OW  421   1.617   2.217   0.582  0.3818 -0.0178  0.1064
  141SOL    HW1  422   1.526   2.191   0.543 -0.4155 -1.0098 -0.3191
  141SOL    HW2  423   1.645   2.153   0.656  0.0223 -2.1859  2.1257
  142SOL     OW  424   1.005   0.421   1.017  0.0711 -0.0896 -0.5286
  142SOL    HW1  425   0.958   0.504   0.979  0.0982 -0.4843  0.4445
  142SOL    HW2  426   0.940   0.350   1.049  3.4180 -1.9147  0.4006
  143SOL     OW  427   0.835   1.381   2.986 -1.0283  0.1373 -0.0445
  143SOL    HW1  428   0.758   1.418   2.929 -2.2381 -2.7315 -0.3161
  143SOL    HW2  429   0.835   1.279   2.989  0.6322  0.2591  2.2798
  144SOL     OW  430   1.750   2.777   0.728 -0.0371  0.9690 -0.2851
  144SOL    HW1  431   1.650   2.752   0.740 -3.2292  1.7212 -1.5495
  144SOL    HW2  432   1.815   2.746   0.800  3.5611 -2.0613 -0.4576
  145SOL     OW  433   1.910   0.598   2.667 -0.0541  0.3695 -0.2994
  145SOL    HW1  434   1.921   0.574   2.570 -0.3484 -0.0453  0.8504
  145SOL    HW2  435   2.003   0.598   2.720  2.3042 -1.0280 -0.0995
  146SOL     OW  436   0.049   2.890   0.313  0.1517 -0.3294  0.4338
  146SOL    HW1  437   0.016   2.901   0.411 -0.6610 -1.8735  2.3771
  146SOL    HW2  438   0.073   2.982   0.279 -1.9572 -3.9179  0.6774
  147SOL     OW  439   2.045   0.171   2.152  0.5049 -0.2477  0.0704
  147SOL    HW1  440   2.115   0.188   2.227 -0.0822 -0.4004  0.9039
  147SOL    HW2  441   2.035   0.243   2.083 -0.2072 -0.9262 -1.3622
  148SOL     OW  442   1.426   0.250   1.966 -0.3130 -0.4826  0.3098
  148SOL    HW1  443   1.478   0.315   2.024  1.7214 -0.3903 -1.7804
  148SOL    HW2  444   1.446   0.151   1.984  0.2698  0.4886  3.0931
  149SOL     OW  445   1.551   0.186   2.305  0.3516  0.3949  0.0823
  149SOL    HW1  446   1.591   0.205   2.211  2.0889  1.3942 -0.5603
  149SOL    HW2  447   1.459   0.147   2.303  0.4211 -0.3955  1.1810
  150SOL     OW  448   2.988   0.066   2.922 -0.4421  0.9208 -0.1026
  150SOL    HW1  449   2.987   3.076   2.905 -2.6474  0.8762  0.9033
  150SOL    HW2  450   2.902   0.106   2.889  0.5139  2.0406 -1.1614
  151SOL     OW  451   0.580   1.278   0.228  0.2219 -0.1334  0.0579
  151SOL    HW1  452   0.503   1.310   0.166 -2.0900  0.1442 -0.1704
  151SOL    HW2  453   0.671   1.319   0.201 -1.3667 -0.4231  0.3021
  152SOL     OW  454   3.092   0.210   0.642  0.7516  0.2833 -0.2759
  152SOL    HW1  455   0.054   0.191   0.568  1.1948  1.2309  1.3516
  152SOL    HW2  456   3.064   0.305   0.645  0.2305 -0.3273 -0.5416
  153SOL     OW  457   2.483   0.489   1.353  0.5546  0.3485 -0.5407
  153SOL    HW1  458   2.533   0.436   1.424  1.5586 -0.5189  0.9547
  153SOL    HW2  459   2.497   0.448   1.262  2.1429  0.1350  1.7863
  154SOL     OW  460   1.528   0.014   2.034  0.1285  0.1697  0.1462
  154SOL    HW1  461   1.629   0.002   2.027 -0.5642 -0.1154  2.0410
  154SOL    HW2  462   1.488   3.032   2.046  1.7859  0.6978  0.0373
  155SOL     OW  463   3.042   1.643   0.563 -0.5942  0.2627 -0.0419
  155SOL    HW1  464   3.013   1.713   0.627  0.1945 -1.3089 -1.1244
  155SOL    HW2  465   0.008   1.583   0.599  1.7472 -2.1690 -2.8677
  156SOL     OW  466   2.419   1.954   2.991 -0.0342  0.4229 -0.2980
  156SOL    HW1  467   2.473   2.012   3.051  2.5177 -0.4369 -0.6092
  156SOL    HW2  468   2.345   1.901   3.040 -0.5170  0.4220  1.5852
  157SOL     OW  469   0.692   0.093   0.569  0.4050  0.2089  0.4593
  157SOL    HW1  470   0.636   0.179   0.550 -0.1000  2.2698 -0.6512
  157SOL    HW2  471   0.789   0.112   0.570 -2.7543 -0.9609  2.9393
  158SOL     OW  472   2.339   0.456   2.078 -0.6697  0.0196 -0.0479
  158SOL    HW1  473   2.404   0.375   2.067  1.0770  0.5999  4.8227
  158SOL    HW2  474   2.397   0.543   2.068  0.5812  1.0556  0.3696
  159SOL     OW  475   0.288   0.356   0.502  0.1114  0.1074  0.6188
  159SOL    HW1  476   0.212   0.395   0.451 -2.3753  0.9566  2.3020
  159SOL    HW2  477   0.291   0.254   0.491 -0.9531 -2.4047  2.0453
  160SOL     OW  478   1.739   1.889   1.935  0.0320 -0.2833  0.0411
  160SOL    HW1  479   1.747   1.887   2.037  0.0048 -0.5317  2.1894
  160SOL    HW2  480   1.744   1.793   1.896  0.7739 -0.6934  0.3199
  161SOL     OW  481   2.907   0.602   2.516 -0.2398  0.1994  0.7936
  161SOL    HW1  482   2.904   0.636   2.612 -1.0477  0.5339  2.2276
  161SOL    HW2  483   2.940   0.504   2.512  2.8929  0.7630  2.8693
  162SOL     OW  484   1.160   2.771   1.862  0.3980  0.3570 -0.5518
  162SOL    HW1  485   1.118   2.694   1.810 -1.2497  1.0725  1.0096
  162SOL    HW2  486   1.116   2.856   1.834  3.8715 -0.5776 -0.5942
  163SOL     OW  487   2.721   0.129   2.421  0.3418  0.1590 -0.3429
  163SOL    HW1  488   2.758   0.049   2.368 -0.4437 -2.4363  0.5868
  163SOL    HW2  489   2.670   0.101   2.506  1.1024 -0.3082  1.9607
  164SOL     OW  490   2.235   1.738   0.192 -0.4215  0.2768  0.2130
  164SOL    HW1  491   2.211   1.811   0.122 -1.1464  1.0754 -0.5149
  164SOL    HW2  492   2.314   1.681   0.162  0.1247 -0.6573  3.8211
  165SOL     OW  493   2.919   0.354   1.507 -0.1407  0.1600  0.2841
  165SOL    HW1  494   2.978   0.401   1.576  1.4853 -0.6198  0.0360
  165SOL    HW2  495   2.966   0.354   1.417 -0.0653  0.3935 -1.1978
  166SOL     OW  496   2.302   0.614   3.011  0.1139  0.0385  0.5313
  166SOL    HW1  497   2.400   0.597   3.028 -0.9336 -1.0094  1.1076
  166SOL    HW2  498   2.286   0.706   3.056  0.4653  0.1306 -1.9487
  167SOL     OW  499   2.842   0.793   0.072 -0.2060  0.1173 -0.2631
  167SOL    HW1  500   2.834   0.852   0.155 -3.2641 -0.5919 -0.2763
  167SOL    HW2  501   2.869   0.839   3.093  2.7374 -2.1907  1.9728
  168SOL     OW  502   1.766   2.904   2.853 -0.5715 -0.2298 -0.3223
  168SOL    HW1  503   1.842   2.922   2.918 -0.2662 -0.4481  0.0570
  168SOL    HW2  504   1.712   2.990   2.837 -2.8929  2.2477  3.2302
  169SOL     OW  505   0.102   1.525   0.752 -0.4876 -0.0727  0.1154
  169SOL    HW1  506   0.049   1.468   0.816  0.3842  2.1865 -2.2302
  169SOL    HW2  507   0.200   1.490   0.748  0.2466  0.4544  2.0897
  170SOL     OW  508   3.067   0.939   1.447  0.0297  0.2403 -0.2684
  170SOL    HW1  509   3.104   0.874   1.512 -2.8411 -0.4315 -0.1135
  170SOL    HW2  510   2.998   0.895   1.389  0.5368  1.6220 -0.4409
  171SOL     OW  511   2.430   2.065   2.005  0.0422 -0.3296  0.0055
  171SOL    HW1  512   2.446   2.027   1.912  0.3078 -0.7855 -0.9443
  171SOL    HW2  513   2.456   2.002   2.077  0.2170  1.2709 -3.3727
  172SOL     OW  514   0.200   2.320   1.528 -0.0212 -0.5369  0.6277
  172SOL    HW1  515   0.193   2.273   1.436 -1.8225  1.5656 -0.8648
  172SOL    HW2  516   0.240   2.415   1.516  3.4768  0.4520  2.0270
  173SOL     OW  517   1.391   1.103   3.080 -0.1805  0.0380 -0.1070
  173SOL    HW1  518   1.413   1.008   3.041  0.9965 -3.4638 -0.9483
  173SOL    HW2  519   1.401   1.174   3.007  1.6872 -2.3978  2.1521
  174SOL     OW  520   1.357   0.145   2.569  0.2499  0.1243 -0.8036
  174SOL    HW1  521   1.388   0.242   2.579  3.2118  2.3411 -0.0694
  174SOL    HW2  522   1.375   0.091   2.657 -0.4432 -0.3092  1.1551
  175SOL     OW  523   1.589   1.831   0.996 -0.2173  0.2341  0.2502
  175SOL    HW1  524   1.683   1.800   1.012 -1.6050 -3.0130 -0.6896
  175SOL    HW2  525   1.527   1.756   1.020  1.6468 -0.1729 -0.0974
  176SOL     OW  526   1.357   0.051   0.274  0.0375 -0.1773  0.1287
  176SOL    HW1  527   1.435   3.106   0.307 -1.6947  1.4487 -0.6191
  176SOL    HW2  528   1.390   0.131   0.232 -0.5458 -1.0787  0.8741
  177SOL     OW  529   0.775   1.107   2.963 -0.2763 -0.0334 -0.0978
  177SOL    HW1  530   0.772   1.019   3.015  4.4527  0.9924  1.4932
  177SOL    HW2  531   0.682   1.142   2.934 -2.8725 -4.2704  0.7000
  178SOL     OW  532   2.402   2.400   2.368 -0.2973 -0.7274 -0.6919
  178SOL    HW1  533   2.377   2.418   2.271  0.3723  0.0880 -2.4536
  178SOL    HW2  534   2.451   2.310   2.378 -0.1016 -1.8401 -0.7113
  179SOL     OW  535   2.897   0.356   2.794 -0.3498 -0.4003 -0.2986
  179SOL    HW1  536   2.811   0.309   2.828  0.2714 -0.3993 -2.6351
  179SOL    HW2  537   2.902   0.359   2.692  0.3775 -1.0549 -0.6200
  180SOL     OW  538   1.934   1.061   0.664  0.0733  0.4106  0.4095
  180SOL    HW1  539   1.848   1.043   0.721  0.7517  0.4523  2.3574
  180SOL    HW2  540   1.988   1.131   0.713 -2.9506 -0.4388 -0.1842
  181SOL     OW  541   1.878   1.332   2.619 -0.0546 -0.3995 -0.3711
  181SOL    HW1  542   1.923   1.426   2.594 -0.5540  0.1858 -0.5030
  181SOL    HW2  543   1.784   1.344   2.654 -0.0231  1.5057  0.6285
  182SOL     OW  544   2.645   2.588   2.348 -0.3866 -0.1906 -0.2416
  182SOL    HW1  545   2.544   2.588   2.326  0.1278  3.3119 -0.2053
  182SOL    HW2  546   2.679   2.490   2.329  1.7170 -3.6140 -0.6482
  183SOL     OW  547   1.896   0.735   2.305 -0.1160  0.0752 -0.3471
  183SOL    HW1  548   1.936   0.771   2.391 -0.6935 -0.7436 -0.8955
  183SOL    HW2  549   1.950   0.749   2.223 -0.5996 -1.8587 -0.4500
  184SOL     OW  550   0.250   1.546   1.558  0.1882  0.3536  0.6571
  184SOL    HW1  551   0.341   1.517   1.518  1.2305 -0.0899 -0.4822
  184SOL    HW2  552   0.262   1.597   1.646 -1.3588  1.2991  1.6008
  185SOL     OW  553   1.847   0.216   0.750  0.3234 -0.4481  0.0305
  185SOL    HW1  554   1.762   0.239   0.803  0.4330  0.3737  0.7049
  185SOL    HW2  555   1.848   0.115   0.729 -0.5270 -0.4615 -0.3023
  186SOL     OW  556   0.158   2.495   2.830  0.0682  0.1856 -0.0790
  186SOL    HW1  557   0.091   2.493   2.757  1.3780  0.5112  0.6232
  186SOL    HW2  558   0.249   2.520   2.787  0.8618  0.4227  1.0904
  187SOL     OW  559   2.719   1.155   0.496  0.2328  0.0002 -0.0145
  187SOL    HW1  560   2.778   1.231   0.516 -0.5708  1.4138  0.7039
  187SOL    HW2  561   2.649   1.174   0.427  0.6062 -0.6155  1.3591
  188SOL     OW  562   2.413   1.402   1.081 -1.1072 -0.1764  0.1587
  188SOL    HW1  563   2.479   1.389   1.157  2.1649 -0.7701  0.3673
  188SOL    HW2  564   2.453   1.357   0.999  0.5583 -0.4776  0.6023
  189SOL     OW  565   2.930   0.307   2.534 -0.2244 -0.1628 -0.1441
  189SOL    HW1  566   2.874   0.224   2.522  0.3264 -3.4805 -4.2730
  189SOL    HW2  567   3.015   0.300   2.483 -1.1166 -1.2341 -1.3739
  190SOL     OW  568   1.391   1.000   1.433  0.4249  0.0680 -0.2857
  190SOL    HW1  569   1.415   0.902   1.406  1.8922 -0.3653 -1.0500
  190SOL    HW2  570   1.431   1.020   1.526 -0.6768  1.3195  1.1003
  191SOL     OW  571   0.909   0.452   1.885 -0.2041  0.6424  0.3635
  191SOL    HW1  572   0.998   0.402   1.900  1.6773  0.4485  2.9565
  191SOL    HW2  573   0.919   0.547   1.914 -1.2544 -2.4634 -0.6236
  192SOL     OW  574   1.632   2.203   1.572  0.6020 -0.3943  0.2517
  192SOL    HW1  575   1.602   2.137   1.640  1.1616  2.0333 -2.5947
  192SOL    HW2  576   1.554   2.232   1.514  1.2956  1.1522  0.3947
  193SOL     OW  577   1.702   0.454   1.100 -0.1489  0.0735  0.7336
  193SOL    HW1  578   1.652   0.404   1.179 -1.3882 -0.1610  1.9411
  193SOL    HW2  579   1.661   0.543   1.078  1.8725 -1.9030  1.5992
  194SOL     OW  580   0.583   2.123   1.381  0.2859  0.2700 -0.0804
  194SOL    HW1  581   0.527   2.043   1.366  1.4246  0.7525  1.4655
  194SOL    HW2  582   0.668   2.090   1.429  0.1216  1.9147 -1.7584
  195SOL     OW  583   1.512   0.286   0.211 -0.2364  0.0146 -0.1809
  195SOL    HW1  584   1.586   0.238   0.156  0.0043  0.5040 -0.8752
  195SOL    HW2  585   1.527   0.270   0.316  1.2894 -1.4070  2.9774
  196SOL     OW  586   0.514   1.500   1.451 -0.1090  0.4283  0.1764
  196SOL    HW1  587   0.585   1.570   1.441 -2.3142 -1.1119 -2.6113
  196SOL    HW2  588   0.536   1.443   1.535  0.1866 -1.0135  0.5402
  197SOL     OW  589   1.052   0.249   1.647  0.0177 -0.3675 -0.4137
  197SOL    HW1  590   1.103   0.171   1.601 -1.2403 -2.9384 -1.6395
  197SOL    HW2  591   1.093   0.261   1.739  0.2165 -0.8361 -1.4572
  198SOL     OW  592   0.702   1.286   1.320 -0.0535  0.0563  0.5976
  198SOL    HW1  593   0.716   1.380   1.275  0.8079  0.5983 -0.7196
  198SOL    HW2  594   0.647   1.295   1.408  1.5926  0.0161  0.4144
  199SOL     OW  595   3.101   2.489   1.608 -0.1552  0.1174 -0.0549
  199SOL    HW1  596   0.051   2.568   1.630 -1.2700 -4.4802  0.4023
  199SOL    HW2  597   0.039   2.411   1.567 -1.2241 -0.6772  1.2540
  200SOL     OW  598   1.822   1.358   1.865 -0.7535 -0.2882  0.1483
  200SOL    HW1  599   1.918   1.328   1.852  0.3347  0.7675 -0.6171
  200SOL    HW2  600   1.761   1.281   1.890 -0.6849 -0.7502  0.0565
  201SOL     OW  601   0.734   1.887   2.172 -0.4294 -0.6474  0.3823
  201SOL    HW1  602   0.759   1.904   2.269  0.5314 -2.3687 -0.2754
  201SOL    HW2  603   0.644   1.841   2.168  0.2931 -1.3132  1.6381
  202SOL     OW  604   1.462   0.489   2.900  0.0367 -0.1158  0.0116
  202SOL    HW1  605   1.559   0.516   2.915 -1.3391  0.3562 -0.0747
  202SOL    HW2  606   1.397   0.547   2.951  0.9724 -1.7727 -0.4302
  203SOL     OW  607   1.446   2.809   2.037 -0.3506 -0.2086 -0.2903
  203SOL    HW1  608   1.511   2.753   2.095  2.2423 -1.3242 -0.8532
  203SOL    HW2  609   1.348   2.792   2.058 -2.9226 -3.7479  1.3564
  204SOL     OW  610   0.589   1.842   1.738 -0.3481  0.5011 -0.3389
  204SOL    HW1  611   0.602   1.939   1.760 -0.0886 -0.6804  1.6818
  204SOL    HW2  612   0.589   1.781   1.823  1.5465 -0.3127 -0.0461
  205SOL     OW  613   1.748   1.628   1.902  0.4378  0.4662 -0.0404
  205SOL    HW1  614   1.788   1.537   1.875 -0.3847 -2.5667 -2.1120
  205SOL    HW2  615   1.647   1.614   1.929 -2.5913 -2.8611  2.5237
  206SOL     OW  616   0.030   1.605   2.291  0.2737  0.7977  0.3588
  206SOL    HW1  617   0.123   1.600   2.247  0.6244 -1.3470 -2.2487
  206SOL    HW2  618   0.034   1.653   2.381  0.1181  1.4216  2.5384
  207SOL     OW  619   0.779   3.023   2.030 -0.1064  0.7550 -0.5632
  207SOL    HW1  620   0.777   3.016   1.932  0.9180  0.9599  0.3609
  207SOL    HW2  621   0.702   3.094   2.054 -1.8713  2.1448  0.8347
  208SOL     OW  622   0.592   2.624   1.947  0.1372  0.1410  0.7062
  208SOL    HW1  623   0.674   2.680   1.915  0.7699 -0.7079  0.9832
  208SOL    HW2  624   0.540   2.583   1.867 -1.9492 -0.4935 -1.6522
  209SOL     OW  625   1.242   2.904   0.388  0.0354  0.3578 -0.3408
  209SOL    HW1  626   1.318   2.864   0.440 -1.8191 -1.0373  0.0484
  209SOL    HW2  627   1.282   2.982   0.328  1.6386 -0.9432 -0.9004
  210SOL     OW  628   2.546   0.536   0.725  0.4276 -0.3030  0.1483
  210SOL    HW1  629   2.623   0.478   0.701  1.4984 -0.1901  1.7652
  210SOL    HW2  630   2.546   0.623   0.671  0.6204 -0.3719  1.5467
  211SOL     OW  631   0.660   0.399   1.813 -0.1558 -0.7593  0.8004
  211SOL    HW1  632   0.755   0.414   1.851 -0.4207 -2.8967  0.1893
  211SOL    HW2  633   0.597   0.463   1.853  2.6934 -2.5581  1.1139
  212SOL     OW  634   1.384   2.510   1.611 -0.4561  0.0320  0.6199
  212SOL    HW1  635   1.354   2.468   1.697  1.5655  3.1823  2.7005
  212SOL    HW2  636   1.402   2.440   1.536  0.3765 -3.3029 -2.8875
  213SOL     OW  637   2.879   0.244   1.942 -0.1335  0.1873  0.1700
  213SOL    HW1  638   2.835   0.334   1.915  2.0201 -0.0955 -1.4888
  213SOL    HW2  639   2.835   0.170   1.889  1.2521 -0.1876  1.0919
  214SOL     OW  640   0.702   2.613   2.204 -0.1580 -0.6581  0.6173
  214SOL    HW1  641   0.663   2.605   2.112 -1.3405 -0.7221  2.7895
  214SOL    HW2  642   0.745   2.705   2.214 -1.2351 -0.8277  1.2406
  215SOL     OW  643   2.823   1.574   1.633  0.6080 -0.3044 -0.1398
  215SOL    HW1  644   2.914   1.618   1.629  0.6144 -0.0690 -0.8196
  215SOL    HW2  645   2.760   1.598   1.556 -1.2626  0.3932 -0.6627
  216SOL     OW  646   0.538   1.133   2.110 -0.1988  0.2339  0.0890
  216SOL    HW1  647   0.540   1.031   2.109  1.0116  0.9967 -0.7452
  216SOL    HW2  648   0.479   1.176   2.179  2.6806  0.0244  1.0962
  217SOL     OW  649   2.526   0.310   1.103  0.0317 -0.0766  0.1065
  217SOL    HW1  650   2.476   0.241   1.161 -2.1446  0.4107  0.3630
  217SOL    HW2  651   2.614   0.276   1.060  1.4177  0.7386 -0.4217
  218SOL     OW  652   1.427   2.061   1.059  0.3608 -0.1636  0.2367
  218SOL    HW1  653   1.480   1.971   1.066 -0.3753 -1.7591  1.2422
  218SOL    HW2  654   1.401   2.071   0.960  0.9244 -0.3935  1.6420
  219SOL     OW  655   1.895   2.630   0.488  0.4676 -0.3917  0.2085
  219SOL    HW1  656   1.830   2.695   0.541  0.2663  1.8941  1.3843
  219SOL    HW2  657   1.863   2.535   0.494  1.8922  0.4676  2.0753
  220SOL     OW  658   1.706   2.425   0.169 -0.2382  0.1815  0.2057
  220SOL    HW1  659   1.690   2.523   0.144 -1.2870 -2.1106  0.8254
  220SOL    HW2  660   1.798   2.394   0.132 -2.2092 -0.8677  1.5257
  221SOL     OW  661   2.652   1.909   0.175  0.5402  0.2245 -0.7789
  221SOL    HW1  662   2.619   1.996   0.147 -0.8348 -1.2095  3.6494
  221SOL    HW2  663   2.580   1.859   0.236 -2.2185 -2.2123  1.4303
  222SOL     OW  664   0.837   2.428   0.866  0.4277 -0.4712 -0.5478
  222SOL    HW1  665   0.776   2.507   0.878  0.3353 -2.3488 -0.4758
  222SOL    HW2  666   0.890   2.413   0.950  0.2285  2.0121 -0.6047
  223SOL     OW  667   0.773   0.092   0.136  0.1493 -0.4088  0.3101
  223SOL    HW1  668   0.841   0.059   0.202  0.2271 -0.0878  0.2444
  223SOL    HW2  669   0.713   0.015   0.102 -2.1389 -0.5301  0.5119
  224SOL     OW  670   2.699   0.861   1.076  0.6318 -0.2932 -0.3185
  224SOL    HW1  671   2.659   0.936   1.016 -0.5791  1.7278  1.0874
  224SOL    HW2  672   2.644   0.846   1.161  0.4737  1.2027  0.5845
  225SOL     OW  673   2.967   1.925   1.026 -0.1926 -0.3256 -0.4660
  225SOL    HW1  674   3.039   1.939   0.956  0.9235 -1.9026  0.8484
  225SOL    HW2  675   3.012   1.895   1.113  3.4506  0.3592  0.7980
  226SOL     OW  676   0.861   2.993   0.987 -0.5166  0.1747 -0.0413
  226SOL    HW1  677   0.862   2.943   0.898 -1.2936  0.2389 -2.6610
  226SOL    HW2  678   0.767   3.017   1.012  2.4664  1.2513  0.9587
  227SOL     OW  679   1.236   1.455   1.593  0.5759 -0.0323  0.3171
  227SOL    HW1  680   1.314   1.396   1.566 -0.6132 -1.1910 -1.6965
  227SOL    HW2  681   1.171   1.477   1.515  0.4691  1.5069 -1.0387
  228SOL     OW  682   1.159   0.274   1.897 -0.7458 -0.4826 -0.1342
  228SOL    HW1  683   1.117   0.189   1.940 -0.4820 -1.3917  2.0586
  228SOL    HW2  684   1.261   0.273   1.916 -0.1569 -3.6252 -0.6044
  229SOL     OW  685   3.104   1.032   2.372 -0.3403 -0.4508  0.4794
  229SOL    HW1  686   3.093   1.129   2.345 -0.2859 -2.4630  1.4093
  229SOL    HW2  687   0.059   0.984   2.310  0.5463  0.4265 -0.8250
  230SOL     OW  688   2.977   0.859   1.082 -0.6611  0.2548 -0.4308
  230SOL    HW1  689   3.009   0.789   1.152  1.4640  0.3900 -0.5594
  230SOL    HW2  690   2.876   0.852   1.073  1.9617  2.5004  0.3481
  231SOL     OW  691   1.342   3.107   2.342  0.0839 -0.1490  0.5086
  231SOL    HW1  692   1.370   3.009   2.326  1.8924  1.9960 -0.7134
  231SOL    HW2  693   1.329   0.021   2.442 -1.6378  0.5834  0.8842
  232SOL     OW  694   0.004   1.790   0.304 -0.4891  0.0364  0.4809
  232SOL    HW1  695   0.023   1.699   0.349 -3.6124 -2.3806  2.7522
  232SOL    HW2  696   3.049   1.786   0.225  2.0429  2.2599 -0.5857
  233SOL     OW  697   1.529   2.588   2.983  0.5695  0.2116  0.4937
  233SOL    HW1  698   1.461   2.519   2.947  2.5028 -0.6941  2.2939
  233SOL    HW2  699   1.476   2.673   2.976 -1.8189 -0.5458 -1.1508
  234SOL     OW  700   0.861   1.124   1.810 -0.3620 -0.5422  0.3257
  234SOL    HW1  701   0.865   1.156   1.713 -3.0131  1.4765 -2.0386
  234SOL    HW2  702   0.937   1.174   1.855  0.2140 -1.0485 -0.9358
  235SOL     OW  703   0.315   2.506   2.190  0.4796  0.2067  0.4974
  235SOL    HW1  704   0.257   2.472   2.115 -0.3512 -0.5970 -0.3894
  235SOL    HW2  705   0.365   2.589   2.158  2.2878 -0.6838  2.1606
  236SOL     OW  706   1.667   1.890   2.735 -0.3922 -0.5858 -0.1433
  236SOL    HW1  707   1.692   1.838   2.651 -0.9799  1.4522 -0.3560
  236SOL    HW2  708   1.669   1.987   2.706  1.2910 -0.3297  0.0871
  237SOL     OW  709   1.366   0.726   0.408  0.5065  0.2961  0.2003
  237SOL    HW1  710   1.438   0.729   0.480 -0.6263 -0.9042 -0.8709
  237SOL    HW2  711   1.361   0.815   0.364 -0.6105 -0.5893  2.5092
  238SOL     OW  712   0.917   2.848   2.187 -0.0335 -0.1173  0.3046
  238SOL    HW1  713   0.863   2.906   2.123  3.6810 -0.6187  2.1912
  238SOL    HW2  714   1.013   2.838   2.156 -1.4516  1.0512 -0.0531
  239SOL     OW  715   1.144   2.727   2.121  0.7414  0.6577 -0.3889
  239SOL    HW1  716   1.145   2.753   2.019  0.7905  0.9189 -0.7059
  239SOL    HW2  717   1.167   2.627   2.133 -0.4575  2.0710  2.2957
  240SOL     OW  718   1.904   2.949   0.600  0.4492 -0.6616  0.1233
  240SOL    HW1  719   1.857   2.866   0.636  0.3586 -1.7606 -2.4346
  240SOL    HW2  720   1.976   2.920   0.533 -1.8422 -3.5526  0.2534
  241SOL     OW  721   1.049   1.211   2.313  0.2151  0.7005  0.4049
  241SOL    HW1  722   1.059   1.107   2.307  0.7845  0.9993  1.5445
  241SOL    HW2  723   1.015   1.241   2.407  0.4637  1.9399 -2.0707
  242SOL     OW  724   2.580   0.627   3.041  0.1269 -0.1427 -0.3228
  242SOL    HW1  725   2.634   0.699   3.093  0.6537  1.5110  1.1083
  242SOL    HW2  726   2.561   0.646   2.944 -2.5028 -1.6006  1.9456
  243SOL     OW  727   0.923   0.761   1.239 -0.0714 -0.1227 -0.2959
  243SOL    HW1  728   0.973   0.671   1.243 -0.8510  0.1131 -0.1408
  243SOL    HW2  729   0.952   0.822   1.318 -3.3119  2.1140  1.4064
  244SOL     OW  730   1.408   3.097   2.791 -0.7368 -0.2884  0.4132
  244SOL    HW1  731   1.393   0.058   2.862  0.1806  3.1065 -0.2917
  244SOL    HW2  732   1.510   3.086   2.772  0.1359 -0.8854 -0.0504
  245SOL     OW  733   1.961   2.941   3.038 -0.2475  0.3370 -0.3473
  245SOL    HW1  734   1.941   2.851   3.083  0.5513  0.4221  0.2597
  245SOL    HW2  735   2.064   2.960   3.056  1.6681 -0.8436 -2.0408
  246SOL     OW  736   0.831   0.673   1.546  0.0915 -0.5839 -0.0922
  246SOL    HW1  737   0.825   0.684   1.644  2.5032 -1.4222 -0.6716
  246SOL    HW2  738   0.888   0.594   1.525  2.4042 -1.7218 -0.8958
  247SOL     OW  739   0.321   0.504   1.932  0.0949 -0.2013 -0.7290
  247SOL    HW1  740   0.298   0.425   1.990 -0.5341 -0.6443  0.2541
  247SOL    HW2  741   0.324   0.483   1.833 -0.4297 -0.2425  0.8498
  248SOL     OW  742   3.074   1.835   1.976  0.1179 -0.3274 -1.0031
  248SOL    HW1  743   3.101   1.735   1.973  0.9371  0.4502 -0.6661
  248SOL    HW2  744   0.002   1.889   2.055  2.5935  2.6354 -1.3323
  249SOL     OW  745   3.085   0.222   0.026  0.5000 -0.2759  0.1059
  249SOL    HW1  746   3.060   0.315   0.004  0.8662  0.9345 -2.0443
  249SOL    HW2  747   3.052   0.157   3.067  0.4197  2.0904  1.0982
  250SOL     OW  748   3.034   0.186   0.302 -0.0420 -0.0430 -0.0368
  250SOL    HW1  749   3.039   0.198   0.201 -0.8576  0.7909  0.9063
  250SOL    HW2  750   2.953   0.130   0.330  2.2425 -0.6665 -1.3427
  251SOL     OW  751   1.077   1.793   1.761  0.0454  0.0599  0.4846
  251SOL    HW1  752   1.070   1.860   1.683 -0.3786  1.9166 -1.9877
  251SOL    HW2  753   0.999   1.802   1.826  0.1995  0.7617  1.9444
  252SOL     OW  754   1.934   2.481   1.385  0.2219 -0.5015 -0.1304
  252SOL    HW1  755   1.882   2.544   1.450 -2.2627  3.6949  0.9043
  252SOL    HW2  756   2.007   2.433   1.434 -1.1010  1.2833 -0.4091
  253SOL     OW  757   2.006   1.827   2.477  0.4520  0.0267 -0.8009
  253SOL    HW1  758   2.064   1.799   2.401  0.8023 -1.0786  3.3422
  253SOL    HW2  759   2.038   1.917   2.518 -0.2726  0.7776  0.8254
  254SOL     OW  760   0.780   2.178   2.137  0.2044 -0.6898  0.1642
  254SOL    HW1  761   0.745   2.086   2.133 -0.7710  0.4823 -0.0118
  254SOL    HW2  762   0.716   2.237   2.190  0.5741 -1.8054  1.8856
  255SOL     OW  763   1.178   0.060   1.474  0.4920  0.8524 -0.2289
  255SOL    HW1  764   1.204   0.043   1.374  1.0973  0.4837 -1.2311
  255SOL    HW2  765   1.257   0.020   1.533  3.0666 -1.7503  1.8117
  256SOL     OW  766   2.473   2.009   1.505  0.0746  0.1239  0.2452
  256SOL    HW1  767   2.419   1.978   1.425 -1.5897  1.9784  0.4188
  256SOL    HW2  768   2.564   2.048   1.472 -0.4691 -0.1285  0.4360
  257SOL     OW  769   0.563   2.154   2.895  0.6393 -0.2366  0.3231
  257SOL    HW1  770   0.662   2.160   2.885 -0.2343 -0.3234  0.3262
  257SOL    HW2  771   0.530   2.231   2.955 -0.0004 -0.9534  0.0961
  258SOL     OW  772   0.362   1.283   0.033 -0.6680 -0.0949 -0.5803
  258SOL    HW1  773   0.424   1.281   3.064 -1.8003  3.3341 -1.9785
  258SOL    HW2  774   0.275   1.241   0.014  0.4211  3.5448 -0.5687
  259SOL     OW  775   0.708   1.556   2.292 -0.5429  0.3603  0.4982
  259SOL    HW1  776   0.744   1.476   2.240 -0.5759  0.1526  0.3848
  259SOL    HW2  777   0.783   1.609   2.337 -0.4985  0.3787  3.5583
  260SOL     OW  778   1.995   0.999   1.322 -0.0273  0.2385 -0.5037
  260SOL    HW1  779   1.895   0.988   1.339 -1.1544  0.1892 -1.3020
  260SOL    HW2  780   2.006   1.024   1.222 -2.3564  2.5540 -1.5283
  261SOL     OW  781   1.079   0.278   0.795  0.1116 -0.1960 -0.5560
  261SOL    HW1  782   1.020   0.260   0.715  1.0337  1.0922 -0.6221
  261SOL    HW2  783   1.029   0.313   0.878 -1.1120  0.5529  0.7159
  262SOL     OW  784   2.187   2.052   2.560 -0.5012  0.5225  0.9213
  262SOL    HW1  785   2.253   2.040   2.639  1.7993  1.0623 -1.2485
  262SOL    HW2  786   2.127   2.131   2.582 -0.0461  0.9021  1.7904
  263SOL     OW  787   2.971   1.522   3.065 -0.0027  0.4596  0.4496
  263SOL    HW1  788   2.960   1.599   0.022  0.9732 -0.2703 -0.0413
  263SOL    HW2  789   3.064   1.513   3.024 -1.9974 -1.8837  2.9613
  264SOL     OW  790   0.450   1.910   1.087  0.0085 -0.0027  0.5251
  264SOL    HW1  791   0.554   1.921   1.099 -0.3146 -0.5305 -1.6234
  264SOL    HW2  792   0.432   1.843   1.014 -1.8715  0.0884 -1.7022
  265SOL     OW  793   0.606   0.941   0.930 -0.5045 -0.1983 -0.3056
  265SOL    HW1  794   0.547   1.013   0.890  0.6902  0.4516 -0.9726
  265SOL    HW2  795   0.650   0.968   1.018  0.2265  2.8433  0.6384
  266SOL     OW  796   1.533   1.774   0.122  0.2400 -0.4322 -0.5970
  266SOL    HW1  797   1.604   1.818   0.069 -2.5678 -0.4319  0.2528
  266SOL    HW2  798   1.578   1.747   0.209 -1.4044  0.7990 -2.0166
  267SOL     OW  799   0.712   1.172   2.373  0.1925  0.4322 -0.2149
  267SOL    HW1  800   0.800   1.208   2.424  4.8443  1.9285  0.1183
  267SOL    HW2  801   0.718   1.070   2.360 -0.3722  2.8393 -0.1791
  268SOL     OW  802   0.707   0.844   3.105  0.1509 -0.0939 -0.1983
  268SOL    HW1  803   0.749   0.829   0.088  0.3759 -0.1779 -1.1923
  268SOL    HW2  804   0.605   0.852   0.004  1.4850 -2.6372  0.8332
  269SOL     OW  805   1.900   2.903   2.517 -0.0498 -0.3835  0.3970
  269SOL    HW1  806   1.866   2.906   2.419 -1.4183 -0.7161 -3.3589
  269SOL    HW2  807   1.822   2.923   2.575 -1.7973 -0.9001 -0.1879
  270SOL     OW  808   1.145   1.266   2.671  0.0267  0.0906  0.0298
  270SOL    HW1  809   1.250   1.281   2.659  0.5675 -0.2010 -0.7890
  270SOL    HW2  810   1.118   1.183   2.722 -0.0998 -1.2392 -1.1846
  271SOL     OW  811   2.928   0.484   0.117  0.0636  0.0359 -0.3722
  271SOL    HW1  812   3.031   0.480   0.116  1.0417 -1.6481  1.6919
  271SOL    HW2  813   2.904   0.585   0.112 -0.3416  3.4304  1.8771
  272SOL     OW  814   2.338   0.905   2.666  0.0856  0.0902  0.2599
  272SOL    HW1  815   2.245   0.918   2.712 -2.0998 -0.2839 -0.3412
  272SOL    HW2  816   2.405   0.977   2.689 -1.2723 -1.1032  2.1466
  273SOL     OW  817   0.207   0.335   2.092  0.4277 -0.2131  0.2674
  273SOL    HW1  818   0.121   0.283   2.091  1.3102 -1.2825 -0.1901
  273SOL    HW2  819   0.217   0.375   2.184 -2.7028 -0.0975 -4.0742
  274SOL     OW  820   3.063   0.510   1.944 -0.6426 -0.1640 -0.2075
  274SOL    HW1  821   0.024   0.464   2.000 -0.0831 -0.1526  0.2936
  274SOL    HW2  822   2.968   0.486   1.970 -0.6311  1.0834  1.7617
  275SOL     OW  823   1.902   1.743   0.617  0.1736 -0.3099 -0.4926
  275SOL    HW1  824   1.933   1.672   0.555 -0.5390  4.4766 -2.2766
  275SOL    HW2  825   1.807   1.777   0.602 -2.6990 -2.0503  0.1990
  276SOL     OW  826   0.451   1.270   2.355  0.1565 -0.1281  0.1676
  276SOL    HW1  827   0.546   1.235   2.364 -2.9537 -3.9393  0.4565
  276SOL    HW2  828   0.448   1.372   2.337  1.9886 -0.1696 -0.4677
  277SOL     OW  829   2.068   2.667   2.466 -0.1901  0.5087 -0.1841
  277SOL    HW1  830   2.045   2.652   2.368  0.6751 -0.1558 -0.9558
  277SOL    HW2  831   2.017   2.746   2.497 -1.0214 -0.0923 -1.6112
  278SOL     OW  832   2.114   2.948   1.844  0.1648  0.3553  0.3050
  278SOL    HW1  833   2.019   2.986   1.837  0.8764  3.4776 -1.8440
  278SOL    HW2  834   2.166   2.976   1.764 -1.0557 -0.3962 -0.7683
  279SOL     OW  835   1.640   1.326   0.006 -0.0881  0.4862 -0.3365
  279SOL    HW1  836   1.552   1.375   3.110  3.2908 -1.5830 -1.6462
  279SOL    HW2  837   1.638   1.245   0.064  0.0880  0.4224  1.0546
  280SOL     OW  838   0.781   1.434   0.148  0.3445 -0.3960 -0.0793
  280SOL    HW1  839   0.864   1.462   0.200 -0.1732 -0.2717  1.4651
  280SOL    HW2  840   0.804   1.422   0.047  3.1844  0.3276  0.0669
  281SOL     OW  841   2.995   2.996   1.480  0.0547  0.0716  0.4017
  281SOL    HW1  842   3.089   3.014   1.516 -1.2770 -0.7029  0.2220
  281SOL    HW2  843   2.917   3.056   1.503  0.8616 -1.2572 -1.4387
  282SOL     OW  844   2.931   2.140   0.725 -0.4634 -0.5548 -0.0005
  282SOL    HW1  845   3.011   2.199   0.708 -1.2639  0.4888  2.8271
  282SOL    HW2  846   2.851   2.201   0.739  0.0106  0.0693  1.2138
  283SOL     OW  847   1.294   1.975   2.073  0.3116  0.1815 -0.2379
  283SOL    HW1  848   1.332   2.056   2.118  0.0942 -1.3092  0.8042
  283SOL    HW2  849   1.210   1.944   2.126  0.2268 -0.8227  0.9391
  284SOL     OW  850   1.960   0.125   0.253 -0.0115 -0.2598 -0.4724
  284SOL    HW1  851   2.052   0.170   0.249  1.2718 -1.5324  0.9891
  284SOL    HW2  852   1.918   0.152   0.164  1.3318  2.0449 -0.2382
  285SOL     OW  853   0.191   2.808   2.632  0.0746  0.4656  0.1751
  285SOL    HW1  854   0.232   2.772   2.546  2.2370 -0.4716  3.2706
  285SOL    HW2  855   0.266   2.839   2.694 -1.4422 -1.9524 -0.1106
  286SOL     OW  856   2.126   2.377   1.513  0.4911  0.5161  0.3645
  286SOL    HW1  857   2.130   2.404   1.607  0.8262  0.1759 -2.9619
  286SOL    HW2  858   2.216   2.347   1.489  0.2783  0.7147  2.4678
  287SOL     OW  859   0.597   1.512   0.788 -0.9340  0.3493 -0.1404
  287SOL    HW1  860   0.625   1.488   0.881 -0.3752  1.1675 -0.0548
  287SOL    HW2  861   0.673   1.506   0.717  2.0518 -0.6369 -0.1966
  288SOL     OW  862   2.078   2.056   2.883 -0.0332 -0.1890  0.4702
  288SOL    HW1  863   1.975   2.068   2.886  0.7562  1.9144  0.5791
  288SOL    HW2  864   2.124   2.082   2.795  1.3860  0.2093  2.9232
  289SOL     OW  865   0.462   1.885   2.417  0.4504 -0.2815 -0.5246
  289SOL    HW1  866   0.480   1.987   2.413  2.2363  1.9380 -1.5083
  289SOL    HW2  867   0.527   1.837   2.478  0.1445 -1.3668  0.9427
  290SOL     OW  868   1.135   2.183   1.098 -0.6653  0.1582 -0.3445
  290SOL    HW1  869   1.207   2.195   1.174  0.6994 -3.1593  3.2197
  290SOL    HW2  870   1.095   2.091   1.100 -1.1172  1.8928 -2.1723
  291SOL     OW  871   1.838   1.249   2.958  0.6584  0.3213 -0.2524
  291SOL    HW1  872   1.887   1.336   2.927  1.6518  0.6325  0.8777
  291SOL    HW2  873   1.767   1.276   3.023  1.1945 -0.0288 -0.7407
  292SOL     OW  874   0.967   1.328   0.743  0.0337  0.0086 -0.1057
  292SOL    HW1  875   0.924   1.275   0.814  0.5737  1.7128 -1.4622
  292SOL    HW2  876   1.056   1.290   0.715 -3.6319 -0.2904 -0.8731
  293SOL     OW  877   1.351   2.888   1.152  0.4562  0.1139  0.4621
  293SOL    HW1  878   1.451   2.870   1.163  0.3494  3.6369  1.2316
  293SOL    HW2  879   1.307   2.846   1.067  1.5866  1.8008  2.3985
  294SOL     OW  880   2.920   0.949   2.951  0.1392  0.0129  0.1538
  294SOL    HW1  881   2.988   1.017   2.920 -1.3279  0.1238 -2.4433
  294SOL    HW2  882   2.846   0.934   2.881  0.2475 -2.9815  0.8734
  295SOL     OW  883   1.658   2.162   2.695  0.4177 -0.1332  0.0312
  295SOL    HW1  884   1.733   2.163   2.771  1.3655  1.4718  0.1691
  295SOL    HW2  885   1.689   2.198   2.602 -0.3321  1.0062 -1.4685
  296SOL     OW  886   2.009   1.070   2.153 -0.4500 -0.4531  0.0633
  296SOL    HW1  887   1.931   1.067   2.094  1.5384  0.0815 -1.3619
  296SOL    HW2  888   1.984   1.093   2.246  1.7573  0.6363 -0.8941
  297SOL     OW  889   0.140   0.937   2.132 -0.1822  0.3247  1.2464
  297SOL    HW1  890   0.060   0.899   2.079  0.8391  0.6542 -2.0837
  297SOL    HW2  891   0.182   1.016   2.085  0.1785 -0.1643  0.5113
  298SOL     OW  892   1.367   2.224   2.201 -0.8417  0.1850 -0.2461
  298SOL    HW1  893   1.345   2.300   2.134 -0.4715  1.4047  0.7138
  298SOL    HW2  894   1.317   2.227   2.289 -1.2985  0.0116 -2.0425
  299SOL     OW  895   0.572   2.857   2.525  0.2869  0.4061  0.7659
  299SOL    HW1  896   0.629   2.899   2.456 -1.8350 -1.0046  0.4326
  299SOL    HW2  897   0.548   2.763   2.501 -1.0906  2.2649 -1.1885
  300SOL     OW  898   0.278   1.003   2.713 -1.0172 -0.0902 -0.5124
  300SOL    HW1  899   0.313   0.932   2.651 -0.2767 -0.2138 -1.5984
  300SOL    HW2  900   0.192   1.050   2.677 -2.3260 -1.0018 -2.0972
  301SOL     OW  901   1.741   1.158   1.625 -0.5179 -0.0062 -0.9493
  301SOL    HW1  902   1.740   1.075   1.685  1.2324 -5.1663 -1.2662
  301SOL    HW2  903   1.666   1.222   1.633  2.5076 -0.1111 -2.3699
  302SOL     OW  904   2.529   1.885   2.558 -0.1622 -0.1186  0.6943
  302SOL    HW1  905   2.551   1.913   2.653  0.1306  1.0742 -0.2535
  302SOL    HW2  906   2.461   1.945   2.516  0.2889  0.8462 -0.6247
  303SOL     OW  907   0.032   0.087   2.453 -0.0873  0.6985  0.0948
  303SOL    HW1  908   0.043   0.030   2.539 -2.7124 -2.0814 -0.9038
  303SOL    HW2  909   0.063   0.183   2.465 -0.4812 -0.8297 -1.1612
  304SOL     OW  910   0.088   0.734   1.600  0.0412 -0.2444  0.3139
  304SOL    HW1  911   0.139   0.797   1.669  1.0137  1.6418  1.5352
  304SOL    HW2  912   0.078   0.643   1.640 -0.8454  2.1961 -2.1245
  305SOL     OW  913   2.814   0.077   1.559  0.3286  0.2062  0.3052
  305SOL    HW1  914   2.790   0.068   1.658  1.8315 -1.3408  1.4237
  305SOL    HW2  915   2.865   0.163   1.543  2.2417 -0.4890  1.9254
  306SOL     OW  916   2.609   1.361   1.290  0.3469 -0.0809 -0.1136
  306SOL    HW1  917   2.569   1.408   1.372 -0.6359 -1.6191  3.7432
  306SOL    HW2  918   2.704   1.324   1.305 -1.4704  2.4361  0.4158
  307SOL     OW  919   1.932   0.148   1.000 -0.7054 -0.0122 -0.0209
  307SOL    HW1  920   2.023   0.168   1.043  0.0932  0.1549 -1.3337
  307SOL    HW2  921   1.929   0.184   0.906 -0.0245  3.3392 -1.0384
  308SOL     OW  922   2.880   2.041   1.298 -0.3945  0.2146 -0.2236
  308SOL    HW1  923   2.861   2.081   1.206 -1.5465 -1.5217 -2.2284
  308SOL    HW2  924   2.946   1.963   1.295  1.0883  0.3652 -1.8435
  309SOL     OW  925   2.047   1.842   1.540  0.6231  0.0638 -0.0985
  309SOL    HW1  926   2.018   1.860   1.447 -0.3923 -3.1993  1.6350
  309SOL    HW2  927   2.025   1.744   1.560 -2.0892 -1.2748 -0.4180
  310SOL     OW  928   2.486   1.506   2.986 -0.4628 -0.5431  0.1338
  310SOL    HW1  929   2.474   1.534   3.082  1.5581 -0.8577  0.7142
  310SOL    HW2  930   2.395   1.490   2.944 -0.0317  1.9241 -0.4805
  311SOL     OW  931   2.121   1.182   2.695 -0.2201  0.5746  0.1194
  311SOL    HW1  932   2.040   1.238   2.666 -2.4124  0.8727  1.2214
  311SOL    HW2  933   2.120   1.084   2.661 -2.5963  0.6801 -0.4023
  312SOL     OW  934   1.618   2.234   2.196  0.0131  0.2752 -0.1330
  312SOL    HW1  935   1.650   2.247   2.296 -1.0073  3.8830 -0.1567
  312SOL    HW2  936   1.516   2.231   2.194  1.2881 -0.3250 -0.3711
  313SOL     OW  937   0.369   2.904   1.149  0.3417  0.0709  0.1446
  313SOL    HW1  938   0.269   2.890   1.175  0.0936  0.7728 -0.0678
  313SOL    HW2  939   0.420   2.824   1.113 -2.6534 -1.1891 -0.2807
  314SOL     OW  940   0.839   1.648   1.362 -0.2078  0.1254  0.6956
  314SOL    HW1  941   0.771   1.690   1.433 -1.5024  0.9645  0.5416
  314SOL    HW2  942   0.789   1.625   1.277  0.6678  0.3882  1.2571
  315SOL     OW  943   0.565   0.036   2.135  0.2457 -0.0260  0.0368
  315SOL    HW1  944   0.600   0.088   2.218 -0.6453 -1.4381 -1.1473
  315SOL    HW2  945   0.483   3.090   2.161  0.1971  0.8712  0.5350
  316SOL     OW  946   0.095   2.020   0.875 -0.5155 -0.3792  0.0502
  316SOL    HW1  947   0.106   2.082   0.796  1.7073 -2.0803  4.0886
  316SOL    HW2  948   0.145   2.055   0.950 -3.8836 -1.7509 -2.5902
  317SOL     OW  949   1.759   0.522   0.457 -0.2074  0.0778  0.1840
  317SOL    HW1  950   1.740   0.466   0.375 -0.7924  0.0580 -0.8827
  317SOL    HW2  951   1.826   0.470   0.512 -2.9311  1.8264 -0.2302
  318SOL     OW  952   2.801   2.571   0.033  0.0002 -0.2166  0.2581
  318SOL    HW1  953   2.734   2.553   0.106 -0.3178  0.5477 -1.2705
  318SOL    HW2  954   2.805   2.672   0.019 -0.9434  0.1344  0.6214
  319SOL     OW  955   1.684   1.592   0.296  0.5476  0.0578  0.5694
  319SOL    HW1  956   1.611   1.532   0.333  0.2315  2.5908 -0.2030
  319SOL    HW2  957   1.742   1.541   0.232 -1.3259  0.9473 -3.6235
  320SOL     OW  958   0.772   2.228   2.563 -0.7984 -0.6590  0.0811
  320SOL    HW1  959   0.703   2.157   2.556 -0.6526  4.2875  0.4432
  320SOL    HW2  960   0.833   2.211   2.644  0.6666 -1.1150 -0.4165
  321SOL     OW  961   0.927   3.048   0.339  0.3377 -0.0182 -0.3558
  321SOL    HW1  962   0.972   2.967   0.294 -0.3267  0.0752  2.5894
  321SOL    HW2  963   0.847   3.020   0.392  1.7471 -0.1424 -0.8464
  322SOL     OW  964   2.173   0.852   2.133  0.0507  0.3417  0.6483
  322SOL    HW1  965   2.095   0.914   2.164 -0.7321  0.0208 -1.8565
  322SOL    HW2  966   2.260   0.905   2.116  0.9815 -0.3707 -0.7343
  323SOL     OW  967   2.734   0.914   0.620  0.2016  0.5320 -0.0572
  323SOL    HW1  968   2.815   0.914   0.685 -0.7553 -0.3775  0.2838
  323SOL    HW2  969   2.725   0.993   0.557  1.9177 -2.6822 -1.6441
  324SOL     OW  970   0.255   0.498   2.333  0.3756  0.6374 -0.8778
  324SOL    HW1  971   0.230   0.596   2.331  1.4714 -1.1421 -1.9125
  324SOL    HW2  972   0.356   0.483   2.322 -3.7719 -0.6993  0.2557
  325SOL     OW  973   0.722   0.164   2.324 -0.9618  0.1325  0.4679
  325SOL    HW1  974   0.745   0.250   2.274 -1.6905 -0.8315 -0.5141
  325SOL    HW2  975   0.738   0.185   2.424  0.5054 -1.9158 -2.3987
  326SOL     OW  976   2.336   2.713   1.040 -0.1458 -0.3718 -0.4507
  326SOL    HW1  977   2.413   2.680   1.092 -0.0425  2.0219  0.9893
  326SOL    HW2  978   2.375   2.775   0.971  1.9340  2.2413  1.3003
  327SOL     OW  979   1.688   1.022   0.080 -0.4511 -0.2999  0.2251
  327SOL    HW1  980   1.593   0.999   0.115  2.0838  1.1198  1.9095
  327SOL    HW2  981   1.732   0.953   0.018  0.6577 -0.4071 -1.1637
  328SOL     OW  982   0.278   2.065   2.097  0.3028 -0.2673 -0.2112
  328SOL    HW1  983   0.309   2.137   2.164 -1.3181  2.5895 -0.2228
  328SOL    HW2  984   0.189   2.026   2.124  2.0447  0.3221 -0.9435
  329SOL     OW  985   2.408   2.602   1.748 -0.2566  0.1879 -0.0566
  329SOL    HW1  986   2.441   2.507   1.777 -0.4472  0.7897 -1.5382
  329SOL    HW2  987   2.363   2.600   1.657  1.2345 -1.1354  0.0381
  330SOL     OW  988   2.513   1.341   1.834 -0.1445  0.3841  0.5143
  330SOL    HW1  989   2.457   1.374   1.915 -0.3077  1.7356  2.7865
  330SOL    HW2  990   2.599   1.393   1.839 -0.3358 -1.4988  0.8104
  331SOL     OW  991   2.815   2.167   1.042 -0.3879  0.1703 -0.0884
  331SOL    HW1  992   2.841   2.072   1.012 -2.2711  1.9698  1.8317
  331SOL    HW2  993   2.722   2.195   1.019 -0.6898 -1.7294  0.3242
  332SOL     OW  994   0.622   2.619   0.147  0.0437 -0.0040 -0.0076
  332SOL    HW1  995   0.597   2.693   0.090 -0.5420 -0.8800  2.4275
  332SOL    HW2  996   0.659   2.644   0.239 -0.9059  1.9504  0.4860
  333SOL     OW  997   1.903   0.152   2.417  0.2018 -0.3724 -0.3312
  333SOL    HW1  998   1.817   0.104   2.437  0.3712  0.0669  0.9410
  333SOL    HW2  999   1.907   0.206   2.334 -0.6252  0.3626  0.5281
  334SOL     OW 1000   0.662   0.853   0.441  0.4381 -0.5008  0.2308
  334SOL    HW1 1001   0.703   0.883   0.529  0.1560 -0.4356 -0.8182
  334SOL    HW2 1002   0.602   0.930   0.404  1.1012 -0.5880 -1.6424
  335SOL     OW 1003   0.327   2.990   2.179 -0.3434 -0.0777 -0.6587
  335SOL    HW1 1004   0.356   2.998   2.276  0.1635 -0.4027  2.2257
  335SOL    HW2 1005   0.226   2.997   2.168  0.4366  0.2046 -1.8659
  336SOL     OW 1006   2.910   3.071   2.177  0.0820  0.5225 -0.1387
  336SOL    HW1 1007   2.890   2.978   2.212 -1.7409  1.4797 -0.4165
  336SOL    HW2 1008   3.009   3.091   2.175 -5.1522  0.3566  0.3048
  337SOL     OW 1009   1.241   1.531   0.953  0.3063 -0.1587  0.0311
  337SOL    HW1 1010   1.311   1.576   1.011 -4.5024 -2.1582  2.5866
  337SOL    HW2 1011   1.278   1.444   0.916  3.4930 -0.3615  0.0466
  338SOL     OW 1012   0.869   1.791   0.872 -0.0425  0.2746  0.0177
  338SOL    HW1 1013   0.873   1.693   0.879 -1.4431  2.2909  1.8004
  338SOL    HW2 1014   0.773   1.829   0.867  0.4635  0.1570  0.5395
  339SOL     OW 1015   0.147   1.027   1.243 -0.3065 -0.3229  0.2978
  339SOL    HW1 1016   0.209   0.946   1.259  1.1659 -0.3903  0.1610
  339SOL    HW2 1017   0.085   1.029   1.325  1.2226 -1.1629  2.2203
  340SOL     OW 1018   1.641   2.689   2.180  0.0802 -0.0020 -0.1907
  340SOL    HW1 1019   1.684   2.646   2.101  0.1878  1.4402  2.6382
  340SOL    HW2 1020   1.670   2.636   2.260 -0.1042  1.4022 -1.2355
  341SOL     OW 1021   2.018   1.497   0.843  0.2564  0.6819  0.1470
  341SOL    HW1 1022   2.001   1.485   0.945  0.2106  0.4080  0.0541
  341SOL    HW2 1023   1.937   1.544   0.803 -0.3235  0.8289  0.9737
  342SOL     OW 1024   2.885   1.354   0.654  0.1334  0.4181 -0.3906
  342SOL    HW1 1025   2.874   1.409   0.571  0.1017  0.4985  1.2399
  342SOL    HW2 1026   2.844   1.400   0.736  0.1547  1.7560 -1.0687
  343SOL     OW 1027   2.870   1.141   1.537  0.3048 -0.3019 -0.3110
  343SOL    HW1 1028   2.863   1.199   1.622 -0.2432  0.6372  3.3273
  343SOL    HW2 1029   2.938   1.064   1.557 -2.3252 -5.1700 -3.5870
  344SOL     OW 1030   1.986   0.495   1.001 -0.0891  0.1074  0.3067
  344SOL    HW1 1031   1.897   0.479   1.041  0.9305  1.4957 -0.7672
  344SOL    HW2 1032   2.040   0.573   1.046 -0.3408 -1.0650  1.1497
  345SOL     OW 1033   0.467   3.099   2.414  0.1175  0.0241 -0.3401
  345SOL    HW1 1034   0.508   3.031   2.481 -1.9340  0.2922  1.1331
  345SOL    HW2 1035   0.478   0.085   2.453  0.3151  2.1691  1.7629
  346SOL     OW 1036   2.323   1.290   0.186  0.0741 -0.2617 -0.1404
  346SOL    HW1 1037   2.272   1.378   0.204  2.0993  0.4083  0.7938
  346SOL    HW2 1038   2.294   1.247   0.103  0.6199 -0.5640  0.6294
  347SOL     OW 1039   2.005   2.712   1.948  0.1320  0.0982  0.6232
  347SOL    HW1 1040   1.920   2.651   1.946 -1.3126 -3.4187 -1.4963
  347SOL    HW2 1041   1.994   2.788   1.884  0.7126 -3.7498 -0.1669
  348SOL     OW 1042   0.951   1.260   1.532 -0.0870 -0.0876 -0.0303
  348SOL    HW1 1043   0.982   1.324   1.459 -1.3613 -0.3756 -0.9488
  348SOL    HW2 1044   0.903   1.182   1.489  1.2882 -1.7591 -0.7020
  349SOL     OW 1045   2.424   1.062   1.891  0.2033 -0.3523 -0.6219
  349SOL    HW1 1046   2.472   0.974   1.894 -2.2200 -0.0064  0.8599
  349SOL    HW2 1047   2.484   1.138   1.859 -0.5807 -0.8646  0.6135
  350SOL     OW 1048   2.254   2.421   0.378 -0.4425  0.1157  0.4415
  350SOL    HW1 1049   2.207   2.335   0.394  1.0623 -0.7662  0.2415
  350SOL    HW2 1050   2.318   2.450   0.454 -0.5369  0.5575 -1.0215
  351SOL     OW 1051   0.215   0.198   1.567 -0.2728  0.2128 -0.5434
  351SOL    HW1 1052   0.169   0.149   1.489 -1.7493 -4.4922 -2.1725
  351SOL    HW2 1053   0.200   0.147   1.657  0.8881  1.1844  2.4129
  352SOL     OW 1054   1.877   2.337   1.976 -0.5080  0.0481 -0.2126
  352SOL    HW1 1055   1.911   2.317   2.072  0.6759  2.1858  0.2777
  352SOL    HW2 1056   1.906   2.260   1.910  1.6367 -0.7685 -2.5509
  353SOL     OW 1057   0.822   1.321   2.166 -0.3032  0.2664  0.0053
  353SOL    HW1 1058   0.755   1.247   2.179 -0.3799  0.5298 -0.1691
  353SOL    HW2 1059   0.889   1.306   2.237 -3.9549  0.4836 -1.4632
  354SOL     OW 1060   1.420   1.660   0.509  0.1631 -0.9712 -0.0069
  354SOL    HW1 1061   1.450   1.576   0.457 -1.2961 -5.5122  0.6547
  354SOL    HW2 1062   1.392   1.732   0.440 -1.1136  0.7309  0.8645
  355SOL     OW 1063   1.962   3.013   0.871  0.6778 -0.5903  0.3393
  355SOL    HW1 1064   1.935   2.999   0.772  1.5472  0.6086 -0.4607
  355SOL    HW2 1065   1.947   3.105   0.911  0.1316 -1.1728  3.3237
  356SOL     OW 1066   2.699   1.106   3.097 -0.3740  0.2257  0.4442
  356SOL    HW1 1067   2.787   1.135   0.030  2.3765  0.2750 -0.7621
  356SOL    HW2 1068   2.726   1.018   3.043 -0.8678 -0.3284 -1.5269
  357SOL     OW 1069   0.081   3.106   2.194 -0.4013  0.3344 -0.1286
  357SOL    HW1 1070   0.105   0.014   2.290 -0.3439  0.6939 -2.4658
  357SOL    HW2 1071   0.036   0.079   2.148 -2.6110  2.1719 -0.2989
  358SOL     OW 1072   0.112   1.144   0.398 -0.2712 -0.1522 -0.4943
  358SOL    HW1 1073   0.186   1.074   0.404  3.1713  1.0689 -0.7403
  358SOL    HW2 1074   0.063   1.155   0.486  2.9241  1.0843 -1.4344
  359SOL     OW 1075   2.641   3.047   2.651  0.2077 -0.8756  0.0176
  359SOL    HW1 1076   2.620   2.965   2.594  2.0345 -1.4629  1.7189
  359SOL    HW2 1077   2.582   3.049   2.739  0.2203 -1.8133 -1.9028
  360SOL     OW 1078   1.582   0.871   1.205  0.3931 -0.2784  0.0160
  360SOL    HW1 1079   1.648   0.931   1.261  0.3020  1.4834  0.4749
  360SOL    HW2 1080   1.546   0.925   1.128 -1.1174 -1.7406 -1.0157
  361SOL     OW 1081   2.372   2.312   1.153 -0.3481  0.3363 -0.8022
  361SOL    HW1 1082   2.288   2.366   1.145  1.1598  0.6053  1.8507
  361SOL    HW2 1083   2.382   2.287   1.253 -0.2841 -0.2305  1.9011
  362SOL     OW 1084   1.340   0.408   1.198  0.4934 -0.6086  0.2106
  362SOL    HW1 1085   1.427   0.375   1.237 -2.0314 -1.6140 -1.7658
  362SOL    HW2 1086   1.294   0.330   1.148 -0.5862  0.2239 -2.2240
  363SOL     OW 1087   2.039   2.234   0.434 -0.6975 -0.2936  0.3027
  363SOL    HW1 1088   2.070   2.215   0.530 -0.1894  0.8066  0.7018
  363SOL    HW2 1089   1.963   2.303   0.439  1.2164  2.1505 -0.0232
  364SOL     OW 1090   0.004   0.383   0.915 -0.0323  0.4589 -0.0536
  364SOL    HW1 1091   3.049   0.325   0.970  0.2460 -0.4587  1.2705
  364SOL    HW2 1092   0.081   0.406   0.979  1.1851  3.0427 -1.7363
  365SOL     OW 1093   0.273   3.028   0.694  0.1174  0.0164  0.0950
  365SOL    HW1 1094   0.206   3.054   0.766 -1.7406 -0.5482  1.7875
  365SOL    HW2 1095   0.363   3.078   0.715 -0.8023  0.5182  0.0667
  366SOL     OW 1096   3.094   1.365   0.273 -0.4877  0.8068  0.3487
  366SOL    HW1 1097   0.021   1.293   0.333 -0.3291  1.4633 -1.7210
  366SOL    HW2 1098   0.058   1.425   0.248 -2.5981 -1.4784 -0.1780
  367SOL     OW 1099   2.644   2.493   2.642  0.2749 -0.1180 -0.1628
  367SOL    HW1 1100   2.591   2.582   2.639  0.5312 -0.5532  1.9540
  367SOL    HW2 1101   2.620   2.434   2.564 -1.3571 -1.1158  1.5758
  368SOL     OW 1102   2.307   1.782   0.734 -0.1466 -0.0272  0.0560
  368SOL    HW1 1103   2.249   1.708   0.714  1.1607  0.9095 -0.0687
  368SOL    HW2 1104   2.407   1.761   0.732  1.2367 -1.4735 -0.1992
  369SOL     OW 1105   1.297   0.640   0.004  0.6497 -0.4230  0.3362
  369SOL    HW1 1106   1.210   0.664   3.060 -2.8501  0.4227  0.4440
  369SOL    HW2 1107   1.273   0.598   0.093  0.0238 -0.8176 -3.8769
  370SOL     OW 1108   0.590   3.055   1.047 -0.0060 -0.2131 -0.1812
  370SOL    HW1 1109   0.555   0.035   1.084  0.0868  0.7117  0.8030
  370SOL    HW2 1110   0.518   2.986   1.058 -0.4121  0.2066 -2.8619
  371SOL     OW 1111   2.902   1.365   2.793 -0.4200 -0.5249  0.3021
  371SOL    HW1 1112   2.909   1.423   2.708  0.1513  0.0876  1.7646
  371SOL    HW2 1113   2.814   1.364   2.837  0.4787 -1.2817 -0.5748
  372SOL     OW 1114   0.580   0.652   2.564 -0.3259 -0.2941  0.1379
  372SOL    HW1 1115   0.621   0.659   2.472  1.4721 -2.0215  0.1289
  372SOL    HW2 1116   0.652   0.652   2.636 -2.1645 -0.2172  1.3643
  373SOL     OW 1117   0.476   0.188   3.050 -1.0185  0.1275 -0.2378
  373SOL    HW1 1118   0.496   0.242   2.962  1.2918 -0.4298 -0.8766
  373SOL    HW2 1119   0.543   0.110   3.055  0.4830 -0.2641  1.4431
  374SOL     OW 1120   1.258   2.201   0.132  0.4365  0.1194  0.1125
  374SOL    HW1 1121   1.192   2.283   0.131 -3.5855 -0.6945  0.3580
  374SOL    HW2 1122   1.261   2.153   0.041 -0.3940  2.1715 -1.0979
  375SOL     OW 1123   0.957   3.043   1.544 -0.6291 -0.5668 -0.3745
  375SOL    HW1 1124   0.902   3.036   1.459  2.1977  0.3747 -1.0403
  375SOL    HW2 1125   1.052   3.082   1.524  3.0800 -0.6022  0.6869
  376SOL     OW 1126   0.122   2.692   1.983  0.0839 -0.4841  0.1697
  376SOL    HW1 1127   0.112   2.594   2.012  1.3052 -1.9884  0.2918
  376SOL    HW2 1128   0.208   2.739   2.017  0.5322  0.4624 -1.0771
  377SOL     OW 1129   2.862   2.159   3.058 -0.0979  0.1410 -0.3779
  377SOL    HW1 1130   2.906   2.184   0.035 -0.2561  0.6880  2.5808
  377SOL    HW2 1131   2.764   2.125   3.070  0.7474  0.3913  0.7039
  378SOL     OW 1132   2.165   0.269   0.490 -0.5502  0.4753  0.0427
  378SOL    HW1 1133   2.225   0.318   0.555  0.7698 -0.9306 -1.3411
  378SOL    HW2 1134   2.164   0.167   0.504  1.0497  0.2833 -1.2181
  379SOL     OW 1135   1.130   0.698   0.581  0.2063  0.3307  0.1674
  379SOL    HW1 1136   1.195   0.711   0.506  1.6464  1.4345  1.1082
  379SOL    HW2 1137   1.097   0.789   0.611 -0.2850 -0.8955 -1.4356
  380SOL     OW 1138   2.733   2.234   1.888  0.4500 -0.1575 -0.1684
  380SOL    HW1 1139   2.786   2.307   1.831  0.3876  0.9535 -1.8835
  380SOL    HW2 1140   2.742   2.143   1.841 -1.1236  2.3214 -0.5986
  381SOL     OW 1141   2.765   1.358   1.981  0.0680 -0.2935 -0.0178
  381SOL    HW1 1142   2.777   1.456   1.982  1.7662 -1.5927 -1.5841
  381SOL    HW2 1143   2.741   1.319   2.077 -0.8485  0.9728  6.9889
  382SOL     OW 1144   2.891   2.271   2.815  0.0022 -0.1435 -0.1192
  382SOL    HW1 1145   2.887   2.257   2.915 -1.6045  0.7115 -1.2771
  382SOL    HW2 1146   2.914   2.368   2.789 -0.8682  1.8783 -1.1772
  383SOL     OW 1147   1.230   0.898   2.512 -0.2644 -0.3365  0.4835
  383SOL    HW1 1148   1.159   0.904   2.441  3.0681 -0.0570  0.6035
  383SOL    HW2 1149   1.282   0.987   2.525  1.9276  5.7567  0.2673
  384SOL     OW 1150   1.643   1.943   2.243  0.2213  0.0035 -0.0027
  384SOL    HW1 1151   1.726   1.998   2.250 -0.3272 -1.8396  2.4308
  384SOL    HW2 1152   1.561   1.998   2.222 -0.9361 -2.1512 -1.9730
  385SOL     OW 1153   2.600   2.731   0.232 -0.2311  0.3658  0.3800
  385SOL    HW1 1154   2.628   2.627   0.233  0.8539 -2.8081 -0.1406
  385SOL    HW2 1155   2.665   2.790   0.277 -1.0602 -0.3730  0.0476
  386SOL     OW 1156   1.581   1.000   0.565  0.0554  0.2116 -0.3155
  386SOL    HW1 1157   1.536   0.947   0.636 -0.1522  1.3841 -0.3141
  386SOL    HW2 1158   1.648   0.937   0.519 -1.1043 -2.1346 -0.7972
  387SOL     OW 1159   3.054   1.829   1.279  0.1995 -0.0233 -0.3563
  387SOL    HW1 1160   0.017   1.851   1.350  1.5055  0.1132  2.4713
  387SOL    HW2 1161   3.016   1.739   1.295 -1.2620 -1.1539  1.2350
  388SOL     OW 1162   0.594   1.393   1.671 -0.4496  0.6151 -0.2202
  388SOL    HW1 1163   0.686   1.427   1.692 -4.1757  0.5085 -1.4729
  388SOL    HW2 1164   0.568   1.314   1.729 -1.1649 -2.2914 -0.8937
  389SOL     OW 1165   2.244   0.751   2.459 -0.4973 -0.2462 -0.1918
  389SOL    HW1 1166   2.296   0.780   2.544  1.3240  0.6992  1.9073
  389SOL    HW2 1167   2.151   0.802   2.461  0.0678  1.2408 -0.1804
  390SOL     OW 1168   1.114   1.741   0.158  0.1254 -0.2123 -0.1654
  390SOL    HW1 1169   1.033   1.808   0.172 -0.2139  2.7355  0.7496
  390SOL    HW2 1170   1.158   1.763   0.066 -0.4718  0.2495 -0.2120
  391SOL     OW 1171   1.323   1.830   0.316  0.2257  0.1728  0.8024
  391SOL    HW1 1172   1.361   1.861   0.231 -0.9732 -0.7505  1.1659
  391SOL    HW2 1173   1.235   1.782   0.298  0.6739  0.8909  2.7990
  392SOL     OW 1174   2.741   2.820   2.238 -0.1120  0.6782 -0.2998
  392SOL    HW1 1175   2.689   2.824   2.146 -0.2964  0.2310 -1.4726
  392SOL    HW2 1176   2.722   2.727   2.274  1.2897 -3.5439 -1.3685
  393SOL     OW 1177   1.537   2.180   0.176 -0.2767  0.1195 -0.5547
  393SOL    HW1 1178   1.581   2.268   0.156 -1.3386  1.2025  2.7208
  393SOL    HW2 1179   1.433   2.179   0.180 -1.0017 -1.5387 -0.4392
  394SOL     OW 1180   0.763   0.372   2.156 -0.1556 -0.1604  0.3166
  394SOL    HW1 1181   0.822   0.453   2.154 -2.8077  1.9215 -0.6825
  394SOL    HW2 1182   0.757   0.328   2.061  0.3623  1.7992  2.1022
  395SOL     OW 1183   0.425   1.869   1.336  0.4261  0.0224  0.8731
  395SOL    HW1 1184   0.332   1.839   1.368  3.0402 -0.9562 -0.8282
  395SOL    HW2 1185   0.424   1.881   1.235 -2.7423 -0.4753  1.0854
  396SOL     OW 1186   2.238   1.384   2.854 -0.0646 -0.0972 -0.0662
  396SOL    HW1 1187   2.226   1.320   2.777 -0.6785  0.7363 -0.3777
  396SOL    HW2 1188   2.147   1.427   2.883  1.5616 -3.1920  0.7199
  397SOL     OW 1189   0.085   0.533   0.115 -0.0996 -0.7457  0.3297
  397SOL    HW1 1190   0.148   0.453   0.113 -2.4944 -1.0965 -0.8032
  397SOL    HW2 1191   0.133   0.616   0.152  0.8347  3.7067 -0.0226
  398SOL     OW 1192   0.731   2.380   0.435 -0.4323 -0.3322 -0.2383
  398SOL    HW1 1193   0.763   2.315   0.362  1.2029 -4.2755  1.6015
  398SOL    HW2 1194   0.746   2.481   0.411  0.0058  2.1496  0.6417
  399SOL     OW 1195   2.008   2.284   2.606  0.4211 -0.0983 -0.1870
  399SOL    HW1 1196   1.960   2.296   2.692  2.2074 -1.3824  0.0767
  399SOL    HW2 1197   2.094   2.339   2.589 -2.3009 -0.6314 -0.1709
  400SOL     OW 1198   0.085   1.327   1.559 -0.8500 -0.4709 -0.7523
  400SOL    HW1 1199   0.025   1.345   1.483  3.2128 -1.3774  1.5079
  400SOL    HW2 1200   0.160   1.397   1.558  1.6760 -0.6925  1.4140
  401SOL     OW 1201   0.847   0.632   0.930  0.0112 -0.6070 -0.4201
  401SOL    HW1 1202   0.807   0.647   0.839  2.6959 -0.8217 -1.3699
  401SOL    HW2 1203   0.803   0.671   1.010  2.4875 -3.2307 -1.8295
  402SOL     OW 1204   0.708   0.221   2.605 -0.5127  0.4137 -0.7034
  402SOL    HW1 1205   0.765   0.291   2.655 -0.0442  1.1911  1.2456
  402SOL    HW2 1206   0.706   0.134   2.661  0.0048  1.2808  2.1003
  403SOL     OW 1207   2.709   1.623   1.887 -0.1746  0.3237  0.2555
  403SOL    HW1 1208   2.733   1.717   1.925  1.3872  1.6277 -0.0949
  403SOL    HW2 1209   2.752   1.604   1.794  3.5172 -1.2410 -2.0567
  404SOL     OW 1210   2.735   2.106   1.493  0.9683 -0.2717 -0.1865
  404SOL    HW1 1211   2.738   2.202   1.514  3.0170  1.4851 -2.3865
  404SOL    HW2 1212   2.810   2.086   1.427  0.2440 -2.6975  0.2413
  405SOL     OW 1213   2.085   0.182   2.616 -0.1329 -0.1400  0.2017
  405SOL    HW1 1214   2.024   0.177   2.533  1.7412  0.3217 -1.4524
  405SOL    HW2 1215   2.163   0.242   2.591 -0.0303  2.0006  0.6126
  406SOL     OW 1216   1.304   1.818   3.078 -0.2466 -0.1720 -0.6868
  406SOL    HW1 1217   1.393   1.819   0.012 -1.5902  2.7418 -3.5857
  406SOL    HW2 1218   1.300   1.730   3.025 -0.5820  1.4919  2.1343
  407SOL     OW 1219   1.993   1.938   0.832 -0.2140  0.2473  0.8459
  407SOL    HW1 1220   1.984   1.870   0.766  0.8620  2.4619  2.7387
  407SOL    HW2 1221   2.033   2.022   0.794 -1.1398 -0.4807 -1.7283
  408SOL     OW 1222   3.109   0.352   1.285  0.2832  0.0184 -0.0360
  408SOL    HW1 1223   0.061   0.405   1.229  1.4867  0.5959  0.9504
  408SOL    HW2 1224   0.032   0.257   1.301  1.0765 -1.2789 -1.5335
  409SOL     OW 1225   1.845   1.228   0.448  0.2611 -0.1280 -0.0234
  409SOL    HW1 1226   1.940   1.252   0.412  1.6860  0.5019  0.2304
  409SOL    HW2 1227   1.868   1.190   0.540 -0.5459  0.1428  0.9551
  410SOL     OW 1228   2.380   2.424   0.644 -0.0173  0.4584 -0.8587
  410SOL    HW1 1229   2.299   2.432   0.704  1.2876 -0.6913 -0.5958
  410SOL    HW2 1230   2.441   2.358   0.687  0.7082  1.6054 -0.3944
  411SOL     OW 1231   0.282   0.090   0.481  0.5406  0.3503 -0.0678
  411SOL    HW1 1232   0.243   0.037   0.400  2.0139  1.2573  0.2626
  411SOL    HW2 1233   0.289   0.018   0.562  1.3213 -0.8909  1.3813
  412SOL     OW 1234   1.448   2.852   0.549 -0.1677 -0.0764  0.2901
  412SOL    HW1 1235   1.430   2.908   0.634 -0.6389 -1.5681  1.5255
  412SOL    HW2 1236   1.477   2.757   0.579 -1.9780 -0.0797 -1.9205
  413SOL     OW 1237   1.684   3.108   2.467 -0.4691 -0.1684  0.5632
  413SOL    HW1 1238   1.618   0.056   2.408 -0.9069 -1.7655 -0.0547
  413SOL    HW2 1239   1.734   3.046   2.402  0.2792 -2.8528 -2.0897
  414SOL     OW 1240   3.034   0.732   0.608  0.5124 -0.2907 -0.0226
  414SOL    HW1 1241   2.986   0.725   0.516  4.2496  0.6672  2.1291
  414SOL    HW2 1242   0.003   0.794   0.610 -3.8583 -2.4815 -2.1444
  415SOL     OW 1243   3.069   1.342   0.936  0.2892  0.0891  0.0455
  415SOL    HW1 1244   3.048   1.306   1.030  0.8202 -2.7744  1.2829
  415SOL    HW2 1245   2.992   1.324   0.874 -0.7867  0.2804  1.0718
  416SOL     OW 1246   0.234   0.891   2.965  0.0849  0.2095  0.5817
  416SOL    HW1 1247   0.143   0.851   2.994 -1.6869 -1.4530  2.0468
  416SOL    HW2 1248   0.247   0.875   2.865  2.0529  2.0395  0.2710
  417SOL     OW 1249   2.480   0.155   0.831 -0.3902  0.1874  0.3402
  417SOL    HW1 1250   2.555   0.217   0.797  3.6581  1.1311  0.8282
  417SOL    HW2 1251   2.388   0.202   0.821 -2.8054  0.0860  0.2210
  418SOL     OW 1252   0.712   0.017   2.783 -0.3267 -0.6573 -0.0972
  418SOL    HW1 1253   0.670   3.105   2.874 -0.7493  4.2068 -3.0925
  418SOL    HW2 1254   0.774   3.055   2.750  1.2429 -0.3617 -2.8775
  419SOL     OW 1255   0.250   1.244   0.941  0.6150 -0.0484 -1.0659
  419SOL    HW1 1256   0.157   1.280   0.928 -0.0773 -1.5738 -0.5170
  419SOL    HW2 1257   0.273   1.230   1.040  2.2573  0.3366  0.5810
  420SOL     OW 1258   2.959   1.565   1.319  0.1270  0.3152  0.1930
  420SOL    HW1 1259   3.005   1.586   1.407  2.3140 -1.7424  2.3539
  420SOL    HW2 1260   2.927   1.470   1.318  0.7250  1.2543  0.4154
  421SOL     OW 1261   1.267   2.078   2.999  0.0571  0.1504  0.1152
  421SOL    HW1 1262   1.311   2.101   2.907 -1.7542 -0.4024 -2.2814
  421SOL    HW2 1263   1.274   1.980   3.027 -0.5126 -1.2480  1.3199
  422SOL     OW 1264   2.531   0.710   2.755 -0.1504  0.1361  0.1185
  422SOL    HW1 1265   2.438   0.738   2.725  0.8750 -0.5201 -0.7793
  422SOL    HW2 1266   2.583   0.661   2.684 -1.1159 -1.7253  2.4996
  423SOL     OW 1267   1.826   1.477   0.088 -0.7105 -0.1233 -0.2247
  423SOL    HW1 1268   1.894   1.410   0.128  1.3097 -2.8540  3.8001
  423SOL    HW2 1269   1.755   1.426   0.036  0.6476 -0.9015  0.3071
  424SOL     OW 1270   0.707   0.896   1.828 -0.0198 -0.6237  0.1184
  424SOL    HW1 1271   0.654   0.914   1.910 -0.0864  1.2517 -0.0855
  424SOL    HW2 1272   0.782   0.969   1.815  1.5274  0.7109 -0.6557
  425SOL     OW 1273   3.013   2.652   2.198  0.3454 -0.3856 -0.3770
  425SOL    HW1 1274   3.068   2.673   2.117 -0.3793  1.6031  0.6915
  425SOL    HW2 1275   2.984   2.733   2.250 -0.4830 -0.6104 -4.5143
  426SOL     OW 1276   2.050   2.578   0.279  0.2123 -0.0322 -0.1227
  426SOL    HW1 1277   2.131   2.528   0.319  0.0655  1.0386  0.4190
  426SOL    HW2 1278   1.976   2.593   0.344  3.0673  0.6078 -1.0647
  427SOL     OW 1279   0.709   0.681   2.847 -0.5071  0.0919 -0.0977
  427SOL    HW1 1280   0.758   0.592   2.855 -0.3116 -0.1247  0.1281
  427SOL    HW2 1281   0.731   0.734   2.929 -2.2072  1.8661 -1.2416
  428SOL     OW 1282   2.662   1.293   2.887 -0.0865 -0.6259  0.2359
  428SOL    HW1 1283   2.671   1.210   2.945  3.9559 -1.8042 -0.4162
  428SOL    HW2 1284   2.599   1.363   2.926 -0.3863 -1.7573  0.0851
  429SOL     OW 1285   2.485   0.334   0.235 -0.3781 -0.8389 -0.5504
  429SOL    HW1 1286   2.412   0.403   0.218  1.3976  5.1786  0.8199
  429SOL    HW2 1287   2.546   0.328   0.155  0.0078 -1.1696 -1.7815
  430SOL     OW 1288   1.182   2.682   2.421 -0.1408  0.1755  0.1018
  430SOL    HW1 1289   1.245   2.756   2.397 -3.3040 -2.7254  3.6715
  430SOL    HW2 1290   1.171   2.617   2.345  1.5448  0.7729 -2.2703
  431SOL     OW 1291   0.154   1.887   1.416 -0.2029  0.0503 -1.1294
  431SOL    HW1 1292   0.167   1.978   1.372  0.8713  3.6628  0.9288
  431SOL    HW2 1293   0.164   1.904   1.518  0.7443 -1.0705 -2.3339
  432SOL     OW 1294   2.277   2.666   1.968 -0.0643 -0.7780  0.2315
  432SOL    HW1 1295   2.178   2.687   1.958 -2.7579  1.9376  1.1151
  432SOL    HW2 1296   2.318   2.646   1.874  0.5609 -1.9371 -0.2658
  433SOL     OW 1297   1.385   2.121   0.483  0.9095  0.0125  0.2215
  433SOL    HW1 1298   1.300   2.141   0.536  0.9394 -0.5602  0.6126
  433SOL    HW2 1299   1.386   2.025   0.447 -2.2729 -0.1413 -0.6825
  434SOL     OW 1300   0.105   1.970   2.714  0.2993 -0.5532 -0.0026
  434SOL    HW1 1301   0.202   1.945   2.736 -3.2613  1.0325  2.2325
  434SOL    HW2 1302   0.063   2.001   2.803 -0.3977 -2.4608 -0.4010
  435SOL     OW 1303   3.057   1.140   0.618  0.2308  0.0247 -0.2665
  435SOL    HW1 1304   2.999   1.223   0.622  0.8809 -0.9503  0.0552
  435SOL    HW2 1305   3.027   1.071   0.689 -0.8094  0.1219 -0.1211
  436SOL     OW 1306   0.781   2.767   1.743  0.5648 -0.6029 -0.2757
  436SOL    HW1 1307   0.702   2.741   1.688 -0.0005 -1.3016 -0.0821
  436SOL    HW2 1308   0.789   2.869   1.739  1.0464  1.6471 -0.4000
  437SOL     OW 1309   0.852   2.835   0.751 -0.5766 -0.1291  0.1420
  437SOL    HW1 1310   0.796   2.847   0.669  0.0838 -1.1286  3.5471
  437SOL    HW2 1311   0.949   2.823   0.715  3.6431 -1.8209 -1.3198
  438SOL     OW 1312   0.092   2.226   0.660 -0.4749 -0.8082  0.2561
  438SOL    HW1 1313   0.067   2.159   0.590  3.0054  1.0228 -0.5976
  438SOL    HW2 1314   0.177   2.280   0.636  0.4041  0.9949 -2.9113
  439SOL     OW 1315   0.986   2.351   1.827 -0.2463  0.2893  0.4769
  439SOL    HW1 1316   0.996   2.437   1.775  1.0673 -0.0742 -1.6207
  439SOL    HW2 1317   0.956   2.367   1.921  2.3841 -1.3304  0.1613
  440SOL     OW 1318   2.166   3.003   2.118  0.4080 -0.0472  0.6132
  440SOL    HW1 1319   2.120   3.097   2.115 -1.3578  1.9932  3.1781
  440SOL    HW2 1320   2.159   2.967   2.022 -1.0858 -1.4560  0.0752
  441SOL     OW 1321   0.009   0.480   1.659 -0.1371 -0.2199 -0.3004
  441SOL    HW1 1322   0.086   0.435   1.611 -3.4846  0.4220 -1.7539
  441SOL    HW2 1323   0.015   0.486   1.762  0.0645  0.7540  0.6805
  442SOL     OW 1324   1.872   2.327   0.807  0.1825  0.1981  0.4897
  442SOL    HW1 1325   1.791   2.331   0.746  1.6619 -1.3473 -1.4232
  442SOL    HW2 1326   1.868   2.410   0.867  1.0699 -1.4791 -2.8712
  443SOL     OW 1327   2.888   0.835   2.369 -0.3873  0.2068  0.2860
  443SOL    HW1 1328   2.894   0.742   2.414 -2.3876  1.3130 -0.2635
  443SOL    HW2 1329   2.974   0.889   2.364 -0.2353 -0.3687  0.4280
  444SOL     OW 1330   1.793   1.012   1.992  0.1295  0.5423 -0.0367
  444SOL    HW1 1331   1.760   0.924   1.959 -0.8914 -0.9003 -0.0715
  444SOL    HW2 1332   1.735   1.088   1.957  1.5178  0.6234  1.5393
  445SOL     OW 1333   2.898   2.529   1.404 -0.0217  0.3263 -0.0041
  445SOL    HW1 1334   2.959   2.541   1.487  3.9929 -1.3029  0.9268
  445SOL    HW2 1335   2.856   2.615   1.378  0.5479 -1.5513  4.1103
  446SOL     OW 1336   2.740   1.535   1.130 -0.6688  0.1499 -0.4038
  446SOL    HW1 1337   2.682   1.477   1.188  1.6010 -1.0624 -3.1587
  446SOL    HW2 1338   2.803   1.593   1.189  1.5008  1.3820 -0.0567
  447SOL     OW 1339   0.469   1.151   0.815  0.0290  0.2021  0.0841
  447SOL    HW1 1340   0.374   1.160   0.853  0.4447  2.2034  0.4924
  447SOL    HW2 1341   0.472   1.181   0.717  0.1918  2.2157 -1.0711
  448SOL     OW 1342   1.489   1.608   1.953 -0.0752  0.3463  0.1331
  448SOL    HW1 1343   1.426   1.680   1.927  1.5274 -0.2762 -1.9987
  448SOL    HW2 1344   1.446   1.520   1.968  3.2280  2.4693  1.1916
  449SOL     OW 1345   1.490   1.443   0.378  0.0811  0.3755  0.0262
  449SOL    HW1 1346   1.516   1.381   0.454  1.0198 -1.6918 -1.3488
  449SOL    HW2 1347   1.421   1.397   0.315 -0.8635  0.4091  0.7918
  450SOL     OW 1348   2.674   2.779   1.971 -0.0345 -0.5080  0.2387
  450SOL    HW1 1349   2.665   2.680   1.977 -1.4447 -3.2061 -1.0031
  450SOL    HW2 1350   2.752   2.807   1.915 -1.7235 -0.2007  1.0354
  451SOL     OW 1351   2.296   0.415   2.594  0.1264  0.1717  0.5239
  451SOL    HW1 1352   2.279   0.464   2.503 -0.1813  0.1048 -1.9310
  451SOL    HW2 1353   2.392   0.381   2.588 -3.2105  1.2350 -1.3520
  452SOL     OW 1354   1.640   0.318   0.871 -0.1617  0.2011 -0.0578
  452SOL    HW1 1355   1.594   0.378   0.804  0.1346  0.8007  0.0335
  452SOL    HW2 1356   1.663   0.372   0.953  0.5821  0.4554 -0.7538
  453SOL     OW 1357   1.835   0.757   1.506 -0.0536  0.6289 -0.0497
  453SOL    HW1 1358   1.777   0.822   1.453 -0.1605  0.5449 -0.2926
  453SOL    HW2 1359   1.927   0.742   1.462 -3.5050 -1.3718  0.3011
  454SOL     OW 1360   2.871   1.493   0.408  0.1040  0.6125 -0.4987
  454SOL    HW1 1361   2.892   1.434   0.330  0.1975  0.8479  1.6843
  454SOL    HW2 1362   2.944   1.547   0.452  1.7170  0.3331 -1.2069
  455SOL     OW 1363   2.900   0.014   0.607 -0.1634  0.2671 -0.3400
  455SOL    HW1 1364   2.975   0.077   0.624 -0.9928 -0.5823  2.3074
  455SOL    HW2 1365   2.875   0.014   0.508 -0.9453 -0.0827  0.6348
  456SOL     OW 1366   0.134   2.859   1.281 -0.6970 -0.7487  0.2712
  456SOL    HW1 1367   0.122   2.886   1.377 -0.1431  0.2989  2.0555
  456SOL    HW2 1368   0.106   2.762   1.263  0.9755  2.3115 -3.2627
  457SOL     OW 1369   1.361   0.153   0.625 -0.5758 -0.1801 -0.6705
  457SOL    HW1 1370   1.261   0.168   0.611  0.6078  1.0638 -2.5855
  457SOL    HW2 1371   1.423   0.188   0.555  0.6625 -2.2679 -0.7628
  458SOL     OW 1372   2.199   2.983   0.742  0.3052 -0.3109 -0.0180
  458SOL    HW1 1373   2.132   2.988   0.817  1.0273  1.3763 -2.0111
  458SOL    HW2 1374   2.287   2.936   0.770  2.3215  0.3009  0.0668
  459SOL     OW 1375   2.167   0.615   2.784 -0.1270  0.3735  0.0274
  459SOL    HW1 1376   2.228   0.562   2.718  1.4956  0.4455 -2.3120
  459SOL    HW2 1377   2.220   0.621   2.871  0.5646 -0.1061 -1.1266
  460SOL     OW 1378   2.784   2.856   3.084  0.3210  0.4290  0.7505
  460SOL    HW1 1379   2.722   2.822   3.015  3.8817  1.2775  1.6349
  460SOL    HW2 1380   2.877   2.884   3.043  2.7895  0.0875  0.8399
  461SOL     OW 1381   0.941   1.929   0.472  0.2020  0.0681  0.1196
  461SOL    HW1 1382   0.990   1.928   0.561  0.4821  0.3461  0.3760
  461SOL    HW2 1383   0.838   1.938   0.478 -1.2469  0.1305  1.2282
  462SOL     OW 1384   2.223   2.356   0.882 -0.9829 -0.5578 -0.9154
  462SOL    HW1 1385   2.299   2.335   0.951  0.7919 -0.1161 -1.6771
  462SOL    HW2 1386   2.169   2.442   0.895  0.6079  0.9103 -1.4610
  463SOL     OW 1387   2.305   0.901   0.648  0.4304 -0.1329 -0.1068
  463SOL    HW1 1388   2.258   0.876   0.735  3.3047 -2.5546 -0.2170
  463SOL    HW2 1389   2.371   0.829   0.614 -1.3919 -0.5785 -0.3891
  464SOL     OW 1390   0.346   0.067   1.297 -0.9440  0.3837 -0.8683
  464SOL    HW1 1391   0.361   3.088   1.253 -0.0207  1.1999  0.7209
  464SOL    HW2 1392   0.397   0.068   1.384 -0.3769 -0.3220  2.4320
  465SOL     OW 1393   2.682   1.420   0.168  0.2648  0.4419  0.4554
  465SOL    HW1 1394   2.638   1.353   0.234 -1.6016  0.1987  1.8396
  465SOL    HW2 1395   2.752   1.383   0.104  2.1884 -0.8407 -1.5852
  466SOL     OW 1396   1.769   0.295   2.764  0.0912 -0.0251  0.0587
  466SOL    HW1 1397   1.855   0.294   2.817  2.4186  2.0745 -1.8846
  466SOL    HW2 1398   1.712   0.361   2.809  0.1155 -3.6655  0.2674
  467SOL     OW 1399   0.992   0.463   1.495 -0.0059  0.2941 -0.0022
  467SOL    HW1 1400   0.999   0.390   1.570  0.1456 -2.7746 -0.0163
  467SOL    HW2 1401   1.002   0.424   1.403  1.4508 -0.4991  0.3541
  468SOL     OW 1402   0.535   1.227   2.911 -0.1181  0.4786  0.4751
  468SOL    HW1 1403   0.444   1.194   2.877  0.3714 -0.2005  0.2712
  468SOL    HW2 1404   0.545   1.323   2.896  0.2179  0.8860  0.8682
  469SOL     OW 1405   0.197   2.198   0.103 -0.0467 -0.6436 -0.1294
  469SOL    HW1 1406   0.177   2.238   0.194 -0.7283  0.2747 -1.4159
  469SOL    HW2 1407   0.135   2.239   0.033  0.8688  1.0649 -0.6961
  470SOL     OW 1408   2.470   1.595   2.516 -0.1030  0.4632 -0.2188
  470SOL    HW1 1409   2.520   1.564   2.599 -0.4067  2.7746 -2.2213
  470SOL    HW2 1410   2.502   1.688   2.491  0.1374  1.0651 -1.8079
  471SOL     OW 1411   2.750   1.255   2.248  0.2962  0.1338 -0.6136
  471SOL    HW1 1412   2.748   1.188   2.321 -1.0286 -1.1596  1.8111
  471SOL    HW2 1413   2.833   1.311   2.269 -0.8093 -2.5495 -0.5839
  472SOL     OW 1414   0.332   2.806   0.558 -0.3585  0.3816 -0.3594
  472SOL    HW1 1415   0.288   2.816   0.467 -1.2400 -2.5003 -1.0598
  472SOL    HW2 1416   0.295   2.882   0.620  0.5467 -0.4811  2.0780
  473SOL     OW 1417   0.612   3.050   3.024 -0.2820  0.6670  0.1951
  473SOL    HW1 1418   0.659   2.979   3.086 -0.5910 -0.7718  4.9354
  473SOL    HW2 1419   0.522   3.013   3.005  0.9843 -0.8205  0.5860
  474SOL     OW 1420   1.787   2.920   2.272  0.1955  0.3373 -0.3456
  474SOL    HW1 1421   1.719   2.853   2.232 -0.6760 -1.1241 -1.9984
  474SOL    HW2 1422   1.813   2.984   2.199  0.1425 -1.6215  0.8915
  475SOL     OW 1423   1.795   2.381   0.467  0.7370 -0.7728  0.1204
  475SOL    HW1 1424   1.730   2.317   0.515 -2.0655 -0.4194  0.6897
  475SOL    HW2 1425   1.779   2.370   0.366  2.0230  0.6374  1.8416
  476SOL     OW 1426   0.088   0.884   0.927  0.4859  0.1084  0.0118
  476SOL    HW1 1427   0.016   0.886   1.000 -1.7359 -1.3142  3.1479
  476SOL    HW2 1428   0.172   0.839   0.968  0.8572 -0.1697 -1.5738
  477SOL     OW 1429   1.627   2.244   1.085 -0.2603  0.3884  0.2819
  477SOL    HW1 1430   1.555   2.173   1.081 -2.1623  1.8877  0.4299
  477SOL    HW2 1431   1.717   2.199   1.065 -1.4874  1.5653 -2.1751
  478SOL     OW 1432   0.520   2.157   2.454  0.2804 -0.5549 -0.7769
  478SOL    HW1 1433   0.597   2.220   2.436  4.0522 -0.5734 -2.5032
  478SOL    HW2 1434   0.434   2.185   2.408 -3.0429 -0.7861 -2.6804
  479SOL     OW 1435   2.393   0.531   1.024  0.3167 -0.1372  0.5027
  479SOL    HW1 1436   2.417   0.538   0.929 -1.5341 -2.7411 -0.1635
  479SOL    HW2 1437   2.447   0.460   1.064 -2.8069  0.8425  1.3081
  480SOL     OW 1438   3.074   2.702   0.137  0.1551 -0.1002  0.5195
  480SOL    HW1 1439   3.077   2.801   0.162 -0.5802  0.5423  1.1661
  480SOL    HW2 1440   0.017   2.689   0.053  2.0539 -0.7647  3.7333
  481SOL     OW 1441   2.585   2.649   1.184  0.5165 -0.6100 -0.4210
  481SOL    HW1 1442   2.563   2.614   1.277 -0.5849  1.7437 -0.2699
  481SOL    HW2 1443   2.627   2.739   1.192 -0.4775 -0.3308 -1.1252
  482SOL     OW 1444   1.350   2.393   2.889  0.0843  0.1529  0.4724
  482SOL    HW1 1445   1.377   2.320   2.825  3.2714 -0.9283 -1.4699
  482SOL    HW2 1446   1.251   2.423   2.887 -1.8718  4.3663  0.6563
  483SOL     OW 1447   0.402   2.026   2.688  0.6127  0.0545 -0.0738
  483SOL    HW1 1448   0.438   2.084   2.764  1.8612  1.4240 -0.8537
  483SOL    HW2 1449   0.389   2.085   2.608  0.0039 -1.8268  0.0602
  484SOL     OW 1450   0.976   0.936   1.429 -0.1828  0.1617  0.2772
  484SOL    HW1 1451   1.016   0.900   1.515 -0.9032 -0.2272 -0.7388
  484SOL    HW2 1452   1.034   1.002   1.379 -1.0604  1.5526  0.3889
  485SOL     OW 1453   2.329   0.601   0.212 -0.8422 -0.2625 -0.6745
  485SOL    HW1 1454   2.237   0.562   0.230  0.5528  2.9969  1.4090
  485SOL    HW2 1455   2.314   0.694   0.181  1.3645 -1.3450  2.8853
  486SOL     OW 1456   1.696   0.048   1.133  0.4485  0.5736 -0.1843
  486SOL    HW1 1457   1.691   0.065   1.232 -1.1927 -1.9902  0.3291
  486SOL    HW2 1458   1.782   0.081   1.089 -1.4440  0.3997  0.2338
  487SOL     OW 1459   0.429   2.306   1.011  0.0318  0.0367 -0.0097
  487SOL    HW1 1460   0.410   2.393   0.959 -0.3608 -0.7312  0.2631
  487SOL    HW2 1461   0.481   2.322   1.092 -0.5447 -0.5028 -2.0632
  488SOL     OW 1462   2.330   1.160   0.578 -0.1821 -0.3038  0.1510
  488SOL    HW1 1463   2.388   1.174   0.494 -0.1123 -2.4155 -5.8943
  488SOL    HW2 1464   2.339   1.065   0.606  2.5075  0.4120  0.8080
  489SOL     OW 1465   1.518   0.086   0.949  0.8108  0.5131 -0.1006
  489SOL    HW1 1466   1.551   0.167   0.900 -0.2463  1.9491  1.0087
  489SOL    HW2 1467   1.573   0.070   1.035  2.0493  0.7289  4.5491
  490SOL     OW 1468   0.853   0.487   0.491  0.6254  0.1903 -0.2183
  490SOL    HW1 1469   0.782   0.476   0.567 -2.3632 -1.5852  1.6940
  490SOL    HW2 1470   0.896   0.578   0.485 -0.0950 -1.3253 -1.1647
  491SOL     OW 1471   0.246   2.524   0.553  0.0128  0.1907  0.5130
  491SOL    HW1 1472   0.317   2.506   0.481  1.3734 -3.2751 -0.6617
  491SOL    HW2 1473   0.253   2.622   0.579  0.3100  0.7997  0.4938
  492SOL     OW 1474   0.904   1.302   2.511  0.9663  0.3547 -0.3448
  492SOL    HW1 1475   0.974   1.276   2.582  0.9984 -1.5319  0.7551
  492SOL    HW2 1476   0.853   1.386   2.541 -0.9938  2.3492 -1.2791
  493SOL     OW 1477   0.039   2.607   0.995  0.2725 -0.0075  0.2087
  493SOL    HW1 1478   3.081   2.539   1.024  1.0148 -0.3964 -1.4518
  493SOL    HW2 1479   0.069   2.648   1.082 -4.4653 -1.0091  1.3875
  494SOL     OW 1480   2.576   2.153   0.014  0.4060 -0.0770  0.8691
  494SOL    HW1 1481   2.510   2.221   3.076 -1.8457  2.0622 -1.6370
  494SOL    HW2 1482   2.558   2.159   0.114  0.8194  0.4575  0.9407
  495SOL     OW 1483   2.634   1.839   2.833 -0.2240  0.2883 -0.3439
  495SOL    HW1 1484   2.553   1.842   2.892 -0.5103 -0.9334  3.2152
  495SOL    HW2 1485   2.634   1.749   2.784 -0.8021 -0.1799 -1.1496
  496SOL     OW 1486   2.645   0.372   1.523  0.8881 -0.3449  0.4757
  496SOL    HW1 1487   2.751   0.355   1.521  0.8370 -0.3513  1.1465
  496SOL    HW2 1488   2.604   0.316   1.598 -0.7043  2.7559  0.2410
  497SOL     OW 1489   2.540   0.960   0.266  0.2058 -0.4295  0.0238
  497SOL    HW1 1490   2.535   0.960   0.164  0.8995 -0.1445 -1.1525
  497SOL    HW2 1491   2.567   0.868   0.302  1.4701 -0.0906  0.3219
  498SOL     OW 1492   0.300   2.244   2.308 -0.3814  0.9858  0.2391
  498SOL    HW1 1493   0.289   2.334   2.268  2.6085 -2.7683  0.2435
  498SOL    HW2 1494   0.231   2.218   2.377 -0.5410 -0.6521 -1.6809
  499SOL     OW 1495   0.892   2.293   0.205  0.6426 -0.2040 -0.2050
  499SOL    HW1 1496   0.937   2.203   0.235  0.3765 -0.9632  2.3182
  499SOL    HW2 1497   0.964   2.362   0.190  0.0757  1.0927  1.0709
  500SOL     OW 1498   1.313   3.024   3.106 -0.2230  0.3158  0.0617
  500SOL    HW1 1499   1.407   2.991   0.001  0.2627 -1.2123 -1.9110
  500SOL    HW2 1500   1.292   3.094   0.069  1.4668  1.2921  0.8103
  501SOL     OW 1501   1.880   3.083   1.789  0.0298 -0.3632  0.5754
  501SOL    HW1 1502   1.856   2.996   1.741 -1.0175  0.3043 -0.8870
  501SOL    HW2 1503   1.827   0.055   1.751 -1.8045 -0.7763 -0.1133
  502SOL     OW 1504   2.812   0.788   2.118 -0.5557 -0.2635 -0.2742
  502SOL    HW1 1505   2.851   0.806   2.212 -0.8405  1.3653 -0.4092
  502SOL    HW2 1506   2.764   0.700   2.120  1.3869  1.2977 -0.1944
  503SOL     OW 1507   2.357   2.079   2.350 -0.3895 -0.3434 -0.7503
  503SOL    HW1 1508   2.322   2.078   2.256  0.1440 -1.3590  1.3395
  503SOL    HW2 1509   2.280   2.076   2.417 -0.7329  0.9507 -0.3643
  504SOL     OW 1510   1.556   0.501   1.578 -0.3285 -0.0206  0.1837
  504SOL    HW1 1511   1.657   0.501   1.596 -2.0118  1.2374  0.7545
  504SOL    HW2 1512   1.507   0.417   1.618  1.6665 -1.6992  1.2587
  505SOL     OW 1513   1.086   0.879   1.670  0.1134 -0.1786 -0.4536
  505SOL    HW1 1514   1.125   0.785   1.659  0.5287  0.3347  0.5255
  505SOL    HW2 1515   1.080   0.898   1.773  2.5286 -0.4401 -2.4833
  506SOL     OW 1516   0.416   0.862   2.520 -0.0477 -0.1171 -0.0967
  506SOL    HW1 1517   0.476   0.943   2.506 -0.2188 -0.7387  1.0064
  506SOL    HW2 1518   0.465   0.786   2.563  1.6534  0.4090 -0.0788
  507SOL     OW 1519   0.343   2.974   2.967  0.2925  0.3193  0.5462
  507SOL    HW1 1520   0.351   2.952   2.865  0.4279 -2.0318 -0.8569
  507SOL    HW2 1521   0.288   3.056   2.985 -0.4179  0.4690  0.7682
  508SOL     OW 1522   1.451   0.722   1.452  0.4690  0.2952  0.2697
  508SOL    HW1 1523   1.506   0.691   1.529 -0.9404  1.4785 -0.5546
  508SOL    HW2 1524   1.489   0.697   1.361  0.0530 -0.9573 -4.5795
  509SOL     OW 1525   1.043   1.945   1.532 -0.4895 -0.1094 -0.6881
  509SOL    HW1 1526   1.113   2.016   1.559  0.7970  1.0913  1.1002
  509SOL    HW2 1527   1.071   1.893   1.447 -0.2913 -1.8225  2.1803
  510SOL     OW 1528   2.283   1.188   2.429  0.2242 -0.2391 -0.1530
  510SOL    HW1 1529   2.368   1.214   2.475 -0.1349 -1.3604  0.0888
  510SOL    HW2 1530   2.299   1.155   2.336  1.1657  1.6681 -2.0372
  511SOL     OW 1531   0.705   1.964   1.112 -0.1082 -0.2570 -0.2096
  511SOL    HW1 1532   0.746   2.043   1.057  0.9839  1.2108 -1.1098
  511SOL    HW2 1533   0.751   1.960   1.202 -1.6015 -2.4136 -0.2487
  512SOL     OW 1534   2.490   2.173   0.270  0.2300  0.3967 -0.0127
  512SOL    HW1 1535   2.388   2.155   0.275 -1.8604  0.3030  0.8356
  512SOL    HW2 1536   2.526   2.170   0.369 -1.5411  0.9213  1.6019
  513SOL     OW 1537   2.984   1.925   2.538  0.0535  0.4492 -0.1617
  513SOL    HW1 1538   3.081   1.893   2.530 -1.2010 -0.3177 -1.0884
  513SOL    HW2 1539   2.961   1.946   2.637 -0.1695 -1.8915  1.2212
  514SOL     OW 1540   0.248   2.627   2.418  0.2730 -0.5660  0.3532
  514SOL    HW1 1541   0.206   2.555   2.477  0.3251  1.4986  1.3676
  514SOL    HW2 1542   0.256   2.594   2.323 -0.8967  2.4656  0.6640
  515SOL     OW 1543   2.211   1.272   1.445 -0.1996 -0.1596 -0.1434
  515SOL    HW1 1544   2.196   1.340   1.369 -1.6049  0.7433  0.8398
  515SOL    HW2 1545   2.309   1.287   1.486  3.4030  1.7501  0.7458
  516SOL     OW 1546   2.623   2.494   2.917  0.2846  0.7354  0.2535
  516SOL    HW1 1547   2.633   2.481   2.816 -0.1156 -2.8275 -0.2188
  516SOL    HW2 1548   2.709   2.489   2.965  0.4371 -0.4904 -0.5442
  517SOL     OW 1549   1.391   0.852   2.997 -0.6819  0.5974 -0.1766
  517SOL    HW1 1550   1.336   0.828   2.914  1.7597  0.0286  0.7873
  517SOL    HW2 1551   1.388   0.776   3.065 -2.8254 -2.8856  0.0118
  518SOL     OW 1552   3.091   2.886   2.384 -0.3454 -0.1586  0.0421
  518SOL    HW1 1553   3.071   2.983   2.372 -1.4542 -0.0528  0.5218
  518SOL    HW2 1554   0.079   2.870   2.393  0.7564 -0.0201 -1.9600
  519SOL     OW 1555   1.625   1.681   2.182  0.4530 -0.5561  0.1390
  519SOL    HW1 1556   1.565   1.654   2.103  0.0392  1.9132 -0.1279
  519SOL    HW2 1557   1.641   1.783   2.180 -1.3130  0.9611  0.3195
  520SOL     OW 1558   3.023   2.777   2.620 -0.3456 -0.3486 -0.3435
  520SOL    HW1 1559   3.024   2.806   2.522 -1.0775  2.5670 -1.6361
  520SOL    HW2 1560   0.009   2.772   2.659  1.2211 -0.6751  0.8705
  521SOL     OW 1561   0.562   1.686   1.959  0.1889  0.2603  0.1125
  521SOL    HW1 1562   0.513   1.719   2.040  1.4922 -0.9467  0.9017
  521SOL    HW2 1563   0.643   1.632   1.987 -0.7213  1.0931  1.2186
  522SOL     OW 1564   1.070   3.008   1.795  0.7687  0.0438  0.0045
  522SOL    HW1 1565   1.007   2.996   1.717  0.1182 -0.1991  2.8235
  522SOL    HW2 1566   1.050   3.100   1.838 -0.0353  1.0555  0.6626
  523SOL     OW 1567   0.053   2.610   1.286 -0.0526 -0.1338  0.3510
  523SOL    HW1 1568   3.079   2.550   1.292 -0.0691  0.3596 -0.0596
  523SOL    HW2 1569   0.113   2.599   1.370  1.3274  1.1753  3.0801
  524SOL     OW 1570   1.519   2.639   0.726 -0.2158 -0.0729 -0.6001
  524SOL    HW1 1571   1.537   2.536   0.730 -0.3043 -1.6897 -1.9932
  524SOL    HW2 1572   1.500   2.673   0.816 -0.3935 -1.4224 -1.3190
  525SOL     OW 1573   2.257   0.954   0.941  0.2642  0.8539 -0.0360
  525SOL    HW1 1574   2.237   1.055   0.930  1.0122  1.1016 -0.4823
  525SOL    HW2 1575   2.168   0.903   0.929 -0.6546  1.6670 -1.3109
  526SOL     OW 1576   1.145   2.153   0.638 -0.2998  0.2863 -0.4563
  526SOL    HW1 1577   1.066   2.211   0.621  2.6152  1.8660 -0.3250
  526SOL    HW2 1578   1.128   2.057   0.662  0.9354  0.0823  1.5181
  527SOL     OW 1579   2.441   2.153   0.754 -0.1449  0.3217  0.0294
  527SOL    HW1 1580   2.478   2.093   0.686 -0.8376 -1.0236  1.1890
  527SOL    HW2 1581   2.370   2.097   0.810  0.4257 -0.1787 -2.0209
  528SOL     OW 1582   2.244   0.350   3.101 -0.7900 -0.0926  0.0997
  528SOL    HW1 1583   2.279   0.433   3.059  0.0680 -1.5344  2.1502
  528SOL    HW2 1584   2.203   0.376   0.081 -1.7895 -0.4402  0.7275
  529SOL     OW 1585   1.204   1.158   1.663 -0.2031 -0.0600 -0.2192
  529SOL    HW1 1586   1.141   1.079   1.657  2.0305  2.9453 -2.2484
  529SOL    HW2 1587   1.174   1.239   1.612  0.9182  0.9811 -1.1848
  530SOL     OW 1588   2.525   1.151   2.678  0.1105 -0.1694  0.1133
  530SOL    HW1 1589   2.578   1.183   2.754 -3.5112 -1.5951 -4.1912
  530SOL    HW2 1590   2.519   1.222   2.606  1.2650 -1.6544 -0.8064
  531SOL     OW 1591   1.066   0.976   3.068  0.3002 -0.0591  0.6741
  531SOL    HW1 1592   1.158   0.992   3.098 -4.1660  0.8932 -1.1797
  531SOL    HW2 1593   1.002   1.040   0.009  2.0584  0.0237  0.5136
  532SOL     OW 1594   1.950   0.402   0.576  0.3422  0.1822 -0.0272
  532SOL    HW1 1595   2.030   0.356   0.530 -0.3720  0.9985 -2.1995
  532SOL    HW2 1596   1.914   0.351   0.659 -1.0861 -0.5610  0.4882
  533SOL     OW 1597   0.549   0.855   2.057  0.4646 -0.2343 -0.5392
  533SOL    HW1 1598   0.455   0.813   2.035 -1.1835 -0.0661  0.3677
  533SOL    HW2 1599   0.586   0.804   2.137 -0.3260 -0.4559  0.4998
  534SOL     OW 1600   1.692   0.040   2.747 -0.2811  0.3106  0.2188
  534SOL    HW1 1601   1.694   0.008   2.650 -1.4855  1.5523 -4.1222
  534SOL    HW2 1602   1.699   0.141   2.754  0.0040  0.4196  2.4185
  535SOL     OW 1603   0.700   2.972   0.453  0.5564  0.6387 -0.1723
  535SOL    HW1 1604   0.683   3.065   0.489  1.1488 -1.2822 -0.0087
  535SOL    HW2 1605   0.647   2.909   0.512 -0.9456  0.9959  1.6975
  536SOL     OW 1606   1.201   2.778   1.361  0.4627 -0.3517 -0.3380
  536SOL    HW1 1607   1.224   2.848   1.284 -0.0157  0.5656 -2.1335
  536SOL    HW2 1608   1.226   2.685   1.331  1.2464 -0.3685 -0.0653
  537SOL     OW 1609   2.034   2.624   2.206  0.2800  0.0177 -0.4993
  537SOL    HW1 1610   2.015   2.667   2.116  0.8875  0.1909  1.8227
  537SOL    HW2 1611   2.128   2.588   2.203 -1.9206  2.0513 -1.2901
  538SOL     OW 1612   0.427   2.555   2.774 -0.7010 -0.2672 -1.0790
  538SOL    HW1 1613   0.511   2.533   2.832  3.3803  1.3109 -0.1080
  538SOL    HW2 1614   0.441   2.541   2.672  0.2896  0.6604 -1.9059
  539SOL     OW 1615   2.997   1.861   1.718  0.5083 -0.1382 -0.3732
  539SOL    HW1 1616   3.028   1.941   1.665 -0.9775 -2.2081  1.8505
  539SOL    HW2 1617   3.033   1.852   1.813 -0.2656 -0.3121  1.6124
  540SOL     OW 1618   2.586   2.527   2.053  0.1949  0.2711 -0.4404
  540SOL    HW1 1619   2.555   2.588   2.132  0.0911 -2.9302  2.7553
  540SOL    HW2 1620   2.508   2.476   2.010 -1.7460  0.6415 -0.5566
  541SOL     OW 1621   0.149   2.981   1.598 -0.0513  0.0322  0.0939
  541SOL    HW1 1622   0.132   3.029   1.687  1.4689  0.7031 -1.8968
  541SOL    HW2 1623   0.243   2.946   1.592  0.2123  3.0725  3.9552
  542SOL     OW 1624   3.065   0.774   1.995  0.2805  0.0739  0.1790
  542SOL    HW1 1625   2.974   0.781   2.032  4.3599 -0.4705 -1.1714
  542SOL    HW2 1626   3.084   0.675   1.969  3.4007 -3.3149  1.6260
  543SOL     OW 1627   0.681   0.656   1.210  0.5779 -0.1832 -0.4712
  543SOL    HW1 1628   0.770   0.700   1.219 -3.5308 -2.1011 -1.6307
  543SOL    HW2 1629   0.677   0.566   1.259 -1.5252 -1.1954  0.9608
  544SOL     OW 1630   2.354   1.886   1.274  0.1770  0.1289  0.1261
  544SOL    HW1 1631   2.428   1.876   1.207 -1.3955 -0.4509 -0.4564
  544SOL    HW2 1632   2.270   1.937   1.239  0.8866  0.9173 -3.5741
  545SOL     OW 1633   1.020   1.519   0.565 -0.2223 -0.6698  0.8598
  545SOL    HW1 1634   1.099   1.564   0.602 -0.6837 -2.5833 -2.3718
  545SOL    HW2 1635   0.984   1.449   0.630 -1.5047 -0.0731 -0.3121
  546SOL     OW 1636   3.000   0.467   2.234 -0.4918 -0.1337  0.0777
  546SOL    HW1 1637   2.906   0.489   2.265  2.1376  1.0747  1.9286
  546SOL    HW2 1638   3.077   0.509   2.284 -1.4704  0.4592  2.6799
  547SOL     OW 1639   0.095   0.353   2.492  0.0012  0.1028  0.1574
  547SOL    HW1 1640   0.104   0.377   2.590 -0.6004  1.3347 -0.9703
  547SOL    HW2 1641   0.171   0.394   2.440 -3.0703  0.1609  0.6361
  548SOL     OW 1642   2.286   2.335   2.821  0.2376 -0.1520  0.1643
  548SOL    HW1 1643   2.273   2.408   2.893  0.5602  1.2599  2.3912
  548SOL    HW2 1644   2.264   2.373   2.729  3.5827 -1.5953 -1.8976
  549SOL     OW 1645   2.304   0.423   0.704  0.1341  0.7248  0.3797
  549SOL    HW1 1646   2.230   0.490   0.733  0.3577  3.1772  4.9267
  549SOL    HW2 1647   2.393   0.471   0.716 -1.3984  0.4384  0.5807
  550SOL     OW 1648   2.097   1.283   0.400  0.0759 -0.3219  0.7210
  550SOL    HW1 1649   2.124   1.365   0.341  1.0909 -1.4933 -1.7200
  550SOL    HW2 1650   2.190   1.241   0.421  0.1832  0.7565 -0.0313
  551SOL     OW 1651   1.381   2.800   1.573  0.4256 -0.1104 -0.1955
  551SOL    HW1 1652   1.393   2.700   1.576  1.4246 -0.9507 -0.1463
  551SOL    HW2 1653   1.298   2.810   1.512  3.1113  0.9778  1.8367
  552SOL     OW 1654   2.237   2.464   2.583  0.1386  0.1630 -0.6501
  552SOL    HW1 1655   2.310   2.444   2.516 -1.5937  0.3308  0.7599
  552SOL    HW2 1656   2.181   2.545   2.562 -1.4295 -1.0710 -1.6979
  553SOL     OW 1657   0.588   2.750   0.618 -0.1958  0.0472  0.2760
  553SOL    HW1 1658   0.590   2.673   0.687 -0.9761 -0.1503 -1.9398
  553SOL    HW2 1659   0.488   2.768   0.600 -2.0301 -3.0739 -1.4072
  554SOL     OW 1660   1.779   2.579   1.961 -0.3614  0.8471  0.0397
  554SOL    HW1 1661   1.803   2.482   1.980 -0.0518 -0.2225 -0.7535
  554SOL    HW2 1662   1.709   2.587   1.885  1.3027 -0.3322  1.4151
  555SOL     OW 1663   2.069   2.301   2.295  0.3364  0.3458  0.0764
  555SOL    HW1 1664   2.148   2.361   2.270 -0.6868  1.8065  3.8976
  555SOL    HW2 1665   2.083   2.202   2.275 -0.4093 -1.6234 -1.8547
  556SOL     OW 1666   0.921   0.223   0.583  0.0303  0.1506  0.5302
  556SOL    HW1 1667   0.867   0.302   0.544 -1.8230 -0.5969  0.5259
  556SOL    HW2 1668   0.990   0.177   0.522 -1.2824 -0.8602 -1.0051
  557SOL     OW 1669   0.925   2.100   1.768  0.7055  0.1618  0.3868
  557SOL    HW1 1670   0.952   2.090   1.669  0.4639 -1.9333 -0.1575
  557SOL    HW2 1671   0.927   2.197   1.805 -1.5864 -0.5110  0.4073
  558SOL     OW 1672   2.511   1.345   2.482  0.2258 -0.8366  0.2845
  558SOL    HW1 1673   2.557   1.318   2.398  0.2017  0.8943  0.0490
  558SOL    HW2 1674   2.501   1.448   2.485  1.4300 -1.3872 -0.1006
  559SOL     OW 1675   2.260   2.458   2.129  0.2305  0.1090 -0.0612
  559SOL    HW1 1676   2.254   2.370   2.067  0.7276 -1.0599 -1.5432
  559SOL    HW2 1677   2.251   2.545   2.076  0.6245  1.8139 -1.7185
  560SOL     OW 1678   0.513   0.439   2.281  0.2322 -0.3621  0.3816
  560SOL    HW1 1679   0.588   0.393   2.235 -1.1598 -0.9174 -0.1283
  560SOL    HW2 1680   0.492   0.387   2.365  2.6506  2.0396 -1.4878
  561SOL     OW 1681   1.085   0.344   0.246  0.0573 -0.4685  0.5988
  561SOL    HW1 1682   1.169   0.402   0.257 -0.0358  0.6288  0.3968
  561SOL    HW2 1683   1.093   0.253   0.293 -0.6020  1.5248  1.7662
  562SOL     OW 1684   1.118   1.526   1.822 -0.0856  0.1126 -0.0363
  562SOL    HW1 1685   1.117   1.628   1.835  0.8764  0.5422 -1.5952
  562SOL    HW2 1686   1.180   1.505   1.747 -1.5859  0.4009  0.6765
  563SOL     OW 1687   1.963   2.329   0.129 -0.2170  0.2264  0.1567
  563SOL    HW1 1688   2.022   2.284   0.064 -0.4140  2.8934  2.9282
  563SOL    HW2 1689   2.009   2.416   0.156 -0.3759 -2.7295 -1.3399
  564SOL     OW 1690   2.659   2.221   0.523  0.0938 -0.1301  0.6036
  564SOL    HW1 1691   2.684   2.280   0.604  3.1001 -2.5604 -0.1466
  564SOL    HW2 1692   2.623   2.134   0.558 -0.5467  0.4933 -0.7967
  565SOL     OW 1693   0.464   0.280   2.491 -0.0794 -0.1774  0.1930
  565SOL    HW1 1694   0.401   0.291   2.571  1.6132  1.0758  1.7497
  565SOL    HW2 1695   0.565   0.278   2.524  3.0168  0.3376  2.6534
  566SOL     OW 1696   1.652   2.714   2.518 -0.4795 -0.0941 -0.6196
  566SOL    HW1 1697   1.673   2.698   2.611 -2.9102  0.4932  1.0866
  566SOL    HW2 1698   1.707   2.654   2.457  1.3766  0.1942  0.6525
  567SOL     OW 1699   1.933   1.890   1.250 -0.2331  0.2897  0.2249
  567SOL    HW1 1700   1.893   1.841   1.168  0.6784  0.0835 -1.0438
  567SOL    HW2 1701   1.855   1.923   1.306 -0.3643  2.5230  1.8471
  568SOL     OW 1702   2.077   0.887   2.768  0.2057  0.2675  0.2821
  568SOL    HW1 1703   2.012   0.933   2.831  0.9186  0.6072  2.3912
  568SOL    HW2 1704   2.083   0.784   2.781  0.9374 -1.9551 -2.2001
  569SOL     OW 1705   2.407   1.715   2.185  0.3238 -0.0846  0.2308
  569SOL    HW1 1706   2.410   1.724   2.084  1.9220 -2.6294 -1.9195
  569SOL    HW2 1707   2.451   1.626   2.214 -0.9521  0.1880 -0.2290
  570SOL     OW 1708   2.773   0.027   1.838  0.5292  0.4453 -0.0636
  570SOL    HW1 1709   2.701   0.008   1.904 -0.8678  0.0181 -0.5246
  570SOL    HW2 1710   2.815   3.052   1.792  2.4213  0.2466 -2.0700
  571SOL     OW 1711   0.218   0.719   1.363 -0.4129 -0.4009  0.0670
  571SOL    HW1 1712   0.299   0.664   1.388  0.6871  1.7751  1.1370
  571SOL    HW2 1713   0.158   0.738   1.444 -0.8228  0.9652 -0.9814
  572SOL     OW 1714   0.204   1.807   0.727 -0.5925  0.3886 -0.1202
  572SOL    HW1 1715   0.138   1.760   0.673  1.6209  2.8056 -2.0100
  572SOL    HW2 1716   0.168   1.893   0.767  0.4902 -1.2434  2.0348
  573SOL     OW 1717   0.864   0.475   0.137 -0.2269  0.0748  0.1888
  573SOL    HW1 1718   0.860   0.562   0.195  1.9632  0.4507 -2.6939
  573SOL    HW2 1719   0.953   0.432   0.161  1.1991 -1.5061 -1.6320
  574SOL     OW 1720   0.225   0.103   3.058  0.4236 -0.1840  0.5163
  574SOL    HW1 1721   0.320   0.136   3.079 -0.3859  0.6478  0.6529
  574SOL    HW2 1722   0.161   0.184   3.067  0.8675  2.1897 -1.6658
  575SOL     OW 1723   1.007   2.407   1.074  0.1963  0.1495  0.3149
  575SOL    HW1 1724   1.055   2.316   1.089 -0.5583  0.9855  2.1988
  575SOL    HW2 1725   1.061   2.471   1.017  0.8756 -2.3461 -1.1537
  576SOL     OW 1726   2.871   2.798   1.315  0.1930 -0.4338 -0.0503
  576SOL    HW1 1727   2.803   2.846   1.265  2.4022  0.4323  0.6151
  576SOL    HW2 1728   2.932   2.851   1.373 -1.3398 -2.4742  0.5210
  577SOL     OW 1729   2.805   1.844   2.014 -0.0726 -0.4430 -0.0718
  577SOL    HW1 1730   2.776   1.921   2.071  0.7996 -2.1534  2.0341
  577SOL    HW2 1731   2.905   1.834   2.002 -0.5447 -1.3648  2.7865
  578SOL     OW 1732   0.966   3.082   2.483  0.1207  0.2247 -0.0381
  578SOL    HW1 1733   0.870   3.061   2.452 -2.8071 -1.8411 -3.6195
  578SOL    HW2 1734   0.990   3.023   2.561 -1.4095  0.0981 -3.4018
  579SOL     OW 1735   1.982   1.668   2.038  0.1595  0.2711 -0.0942
  579SOL    HW1 1736   1.894   1.656   1.985 -0.7465  0.9504 -1.7298
  579SOL    HW2 1737   2.058   1.676   1.972  2.0309 -1.7237 -0.7073
  580SOL     OW 1738   1.894   0.509   2.114 -0.2002  0.1127 -0.1012
  580SOL    HW1 1739   1.811   0.545   2.060 -2.1857 -0.1000 -1.7022
  580SOL    HW2 1740   1.871   0.506   2.212 -0.7034  0.7766 -1.4907
  581SOL     OW 1741   1.027   1.278   1.961 -0.1237 -0.2627 -0.1430
  581SOL    HW1 1742   0.952   1.291   2.031  1.8235  0.2286 -1.4219
  581SOL    HW2 1743   1.044   1.367   1.915 -0.4096  2.4824 -0.8553
  582SOL     OW 1744   0.140   2.696   1.704 -0.0798 -0.0714 -0.3583
  582SOL    HW1 1745   0.117   2.695   1.806  1.2368  0.5171 -1.2013
  582SOL    HW2 1746   0.155   2.787   1.671  1.9809 -2.5900 -0.4694
  583SOL     OW 1747   1.398   1.386   1.209 -0.0095  0.2739  0.0404
  583SOL    HW1 1748   1.420   1.384   1.308 -1.3478  0.8220  0.6535
  583SOL    HW2 1749   1.307   1.342   1.185  0.1495 -1.9069 -1.0680
  584SOL     OW 1750   1.397   2.151   2.766  0.3020  0.1733 -0.2970
  584SOL    HW1 1751   1.376   2.058   2.721  1.6113 -1.6946 -1.7118
  584SOL    HW2 1752   1.494   2.179   2.749  2.5065 -1.8731 -1.3522
  585SOL     OW 1753   0.036   2.249   0.324 -0.0743  0.4737 -0.3839
  585SOL    HW1 1754   0.013   2.156   0.354  0.5894  2.2805  0.1380
  585SOL    HW2 1755   3.065   2.298   0.285 -0.3618  0.9183  2.0588
  586SOL     OW 1756   1.911   2.051   0.279 -0.7240 -0.0307 -0.2233
  586SOL    HW1 1757   1.948   2.128   0.336  0.0030  1.8171 -0.2645
  586SOL    HW2 1758   1.973   1.971   0.289  2.2984  0.4087 -0.0658
  587SOL     OW 1759   2.550   1.977   0.571  0.8853 -0.2890  0.2391
  587SOL    HW1 1760   2.575   1.902   0.637 -1.4631  3.0169 -1.2617
  587SOL    HW2 1761   2.516   1.936   0.485  2.4998 -1.0692 -0.4455
  588SOL     OW 1762   2.170   0.290   1.080 -0.3334  0.1913  0.2646
  588SOL    HW1 1763   2.116   0.367   1.052  2.5490 -1.7010 -1.6282
  588SOL    HW2 1764   2.267   0.319   1.079  2.4986  1.3865 -1.6730
  589SOL     OW 1765   0.529   0.694   0.999  0.2717 -0.5127 -0.1740
  589SOL    HW1 1766   0.586   0.673   1.081  0.9767 -0.0142 -0.9400
  589SOL    HW2 1767   0.557   0.783   0.958 -1.6860 -1.0897 -2.3053
  590SOL     OW 1768   2.634   2.457   0.225  0.1534 -0.3358  0.0828
  590SOL    HW1 1769   2.582   2.379   0.187 -1.9155 -0.6433 -0.6907
  590SOL    HW2 1770   2.712   2.415   0.274 -1.7587 -1.0656 -1.1904
  591SOL     OW 1771   0.455   2.554   1.722  0.0280 -0.0934  0.0524
  591SOL    HW1 1772   0.491   2.466   1.688 -1.4714  1.0438  0.9377
  591SOL    HW2 1773   0.359   2.552   1.748  2.7553 -0.7567 -1.9651
  592SOL     OW 1774   0.891   1.439   1.727  0.5250  0.1885 -0.1744
  592SOL    HW1 1775   0.975   1.475   1.764 -3.1873 -0.0295 -0.4206
  592SOL    HW2 1776   0.908   1.394   1.641 -1.6596 -0.2893  0.4580
  593SOL     OW 1777   1.077   1.801   1.305 -0.5181 -0.3651 -0.1857
  593SOL    HW1 1778   0.998   1.738   1.322 -1.1640 -2.0820  2.4971
  593SOL    HW2 1779   1.093   1.823   1.205  1.8900 -0.3849  0.3675
  594SOL     OW 1780   0.400   1.668   2.921  0.2928  0.4059 -0.6266
  594SOL    HW1 1781   0.371   1.679   3.016  0.9874 -2.7597  0.4453
  594SOL    HW2 1782   0.322   1.641   2.864  2.2621  4.3122  1.4377
  595SOL     OW 1783   1.335   0.615   0.934 -0.4094  0.3592  0.0899
  595SOL    HW1 1784   1.290   0.581   0.846  0.4355 -1.0764  3.1404
  595SOL    HW2 1785   1.303   0.559   1.010  0.0372  1.0138 -0.7224
  596SOL     OW 1786   0.353   1.416   0.751  0.3025 -0.1911  0.2675
  596SOL    HW1 1787   0.449   1.443   0.755 -1.3492 -0.7080  2.4100
  596SOL    HW2 1788   0.336   1.347   0.830  0.5704 -2.3543  1.0734
  597SOL     OW 1789   3.105   2.066   2.959  0.4012 -0.1279 -0.2188
  597SOL    HW1 1790   3.000   2.067   2.956 -0.1702 -1.2401 -0.8086
  597SOL    HW2 1791   0.030   2.157   2.993 -0.0233 -0.4608 -0.6883
  598SOL     OW 1792   2.103   2.041   2.213 -0.4234  0.2354 -0.4343
  598SOL    HW1 1793   2.013   2.035   2.169  0.2353  2.9193 -1.0349
  598SOL    HW2 1794   2.139   1.943   2.223  2.6002 -1.2404 -1.7409
  599SOL     OW 1795   1.501   0.465   0.702 -0.2365  0.0630 -0.0776
  599SOL    HW1 1796   1.546   0.549   0.661  0.2442 -0.1023  2.5921
  599SOL    HW2 1797   1.402   0.481   0.701  1.1015  0.0322 -0.6506
  600SOL     OW 1798   0.764   2.654   0.404  0.0901  0.0079  0.0735
  600SOL    HW1 1799   0.705   2.695   0.478 -1.1247  0.3201 -0.4357
  600SOL    HW2 1800   0.860   2.689   0.406  1.9914 -0.9832  1.1953
  601SOL     OW 1801   0.661   0.407   1.312  0.0396  0.0392  0.3358
  601SOL    HW1 1802   0.699   0.382   1.408  2.2413  2.2231  2.7676
  601SOL    HW2 1803   0.720   0.366   1.245 -0.3583  3.8130 -0.0774
  602SOL     OW 1804   3.096   2.903   0.585  0.2230 -0.2546 -0.2936
  602SOL    HW1 1805   3.091   2.817   0.637  2.6346 -0.2385 -0.4406
  602SOL    HW2 1806   3.016   2.964   0.598  2.9419 -0.2053  2.2825
  603SOL     OW 1807   0.803   2.485   2.654  0.4315  0.3726  0.2251
  603SOL    HW1 1808   0.846   2.572   2.627  0.6459  0.2720  2.9071
  603SOL    HW2 1809   0.797   2.412   2.588  0.3507  1.4476  2.1517
  604SOL     OW 1810   0.774   2.804   2.826 -0.1905 -0.1068 -0.0085
  604SOL    HW1 1811   0.722   2.715   2.827  0.1843 -0.2455  0.9799
  604SOL    HW2 1812   0.779   2.848   2.918 -2.7313  1.7024  0.0933
  605SOL     OW 1813   0.909   0.724   1.946  0.5236 -0.1590 -0.2399
  605SOL    HW1 1814   0.997   0.773   1.952  2.3159 -2.0197 -2.4339
  605SOL    HW2 1815   0.838   0.786   1.911  2.0617 -1.0681  0.7149
  606SOL     OW 1816   1.643   0.355   2.531  0.6678  0.0219 -0.4836
  606SOL    HW1 1817   1.701   0.304   2.597  0.2845 -2.8345  0.8518
  606SOL    HW2 1818   1.610   0.297   2.454  0.1877  0.3950  3.3383
  607SOL     OW 1819   0.392   1.425   1.216  0.3902 -0.1791  0.0485
  607SOL    HW1 1820   0.422   1.471   1.304  1.4545  1.3222  1.2783
  607SOL    HW2 1821   0.322   1.480   1.167  1.7166  1.3532 -0.5079
  608SOL     OW 1822   3.032   2.429   2.367 -0.6815 -0.1108 -0.5287
  608SOL    HW1 1823   2.958   2.417   2.435 -1.5121 -0.8268 -1.3866
  608SOL    HW2 1824   3.028   2.517   2.321 -2.7200 -0.9006  1.5524
  609SOL     OW 1825   1.749   0.444   0.209  0.8233  0.2022 -0.1715
  609SOL    HW1 1826   1.832   0.462   0.151  1.3115 -1.6719  1.5177
  609SOL    HW2 1827   1.677   0.402   0.159  2.3495 -0.7566 -1.4703
  610SOL     OW 1828   0.794   2.719   1.189  0.9299  0.3613 -0.2540
  610SOL    HW1 1829   0.823   2.803   1.241  1.1054  0.7331  1.7562
  610SOL    HW2 1830   0.837   2.638   1.229  0.1063  3.1097 -2.3345
  611SOL     OW 1831   0.832   0.713   0.266 -0.3714  0.2269 -0.1768
  611SOL    HW1 1832   0.766   0.746   0.338 -0.0269  1.2238 -1.6394
  611SOL    HW2 1833   0.922   0.756   0.284  0.0623  0.9487  0.7848
  612SOL     OW 1834   1.246   0.627   2.471  0.7078 -0.2245  0.5631
  612SOL    HW1 1835   1.241   0.729   2.496  0.9386  0.9362 -3.7900
  612SOL    HW2 1836   1.320   0.579   2.525  0.6496 -1.0431  1.8917
  613SOL     OW 1837   1.954   0.703   0.322 -0.4736 -0.3017 -0.0878
  613SOL    HW1 1838   1.997   0.773   0.387 -2.9575  1.3648  0.7518
  613SOL    HW2 1839   1.860   0.681   0.361 -0.7565 -0.5027  1.1984
  614SOL     OW 1840   2.068   0.535   1.761  0.0088  0.1558 -0.2210
  614SOL    HW1 1841   2.090   0.477   1.845 -0.0782  0.7958  3.3341
  614SOL    HW2 1842   2.061   0.631   1.798 -0.1379 -0.8517  2.8405
  615SOL     OW 1843   0.797   2.145   0.946 -0.3267 -0.0334  0.4291
  615SOL    HW1 1844   0.752   2.106   0.862  0.6464 -1.6592 -1.0411
  615SOL    HW2 1845   0.792   2.245   0.941  1.4643  1.7834  0.5415
  616SOL     OW 1846   1.698   1.049   2.256  0.4459 -0.5536  0.5450
  616SOL    HW1 1847   1.647   1.135   2.238 -0.4447  0.0492  0.5177
  616SOL    HW2 1848   1.743   1.012   2.171  0.7222  0.6784  0.5925
  617SOL     OW 1849   1.955   2.694   0.043  0.1822 -0.5941 -0.1981
  617SOL    HW1 1850   1.853   2.669   0.065 -3.0835  2.4998  2.1128
  617SOL    HW2 1851   2.010   2.670   0.124  1.7600  1.9978 -0.7464
  618SOL     OW 1852   1.007   1.059   2.813  0.0372  0.2126 -0.4922
  618SOL    HW1 1853   0.916   1.099   2.819  3.0783 -0.5699  0.6578
  618SOL    HW2 1854   1.019   1.008   2.901 -1.6967 -0.6525  1.3977
  619SOL     OW 1855   2.522   1.292   0.852 -0.1101  0.2173  0.6885
  619SOL    HW1 1856   2.539   1.193   0.831  1.1492  0.6324 -0.9779
  619SOL    HW2 1857   2.441   1.326   0.798 -2.7128  2.9858  0.9804
  620SOL     OW 1858   2.437   2.848   0.026 -0.3688  0.0750  0.1811
  620SOL    HW1 1859   2.483   2.844   3.044 -2.5053  2.2740 -0.4126
  620SOL    HW2 1860   2.503   2.820   0.101 -1.8279  2.9466  0.8379
  621SOL     OW 1861   2.079   0.999   0.201 -0.0872  0.0838  0.2858
  621SOL    HW1 1862   2.062   1.098   0.201  0.1121 -2.2005  1.3581
  621SOL    HW2 1863   2.052   0.958   0.287  1.8773  0.6926 -1.8551
  622SOL     OW 1864   1.003   2.468   2.888  0.0563 -0.5784 -0.2844
  622SOL    HW1 1865   0.994   2.549   2.829 -0.3292  1.6638 -0.7326
  622SOL    HW2 1866   0.934   2.467   2.965 -0.3008 -1.6093  1.7663
  623SOL     OW 1867   0.241   1.744   0.023 -0.1780 -0.3149 -0.4357
  623SOL    HW1 1868   0.142   1.763   0.017  1.2500  0.8022 -1.5771
  623SOL    HW2 1869   0.295   1.826   0.059  1.1343  1.5849  2.5438
  624SOL     OW 1870   0.294   0.250   2.695 -0.1753 -0.1089  0.4796
  624SOL    HW1 1871   0.203   0.288   2.732  0.4747  0.5514 -2.2932
  624SOL    HW2 1872   0.284   0.152   2.671 -0.0203 -0.8830  1.6744
  625SOL     OW 1873   0.849   1.936   0.135  0.3211  0.2665  0.1116
  625SOL    HW1 1874   0.853   1.941   0.236 -0.8124  1.0821  0.2743
  625SOL    HW2 1875   0.754   1.939   0.097  1.4852 -1.7682  0.6825
  626SOL     OW 1876   2.794   0.470   0.343 -0.1904  0.3728  0.0578
  626SOL    HW1 1877   2.841   0.448   0.253  0.6217  1.0913 -3.4507
  626SOL    HW2 1878   2.746   0.396   0.385  1.1957  4.3313 -1.6824
  627SOL     OW 1879   1.412   1.320   2.904 -0.6893  0.3971  0.2850
  627SOL    HW1 1880   1.379   1.415   2.923  1.2584  1.0113 -1.6825
  627SOL    HW2 1881   1.499   1.320   2.846 -0.1020 -0.1296  0.2685
  628SOL     OW 1882   1.231   0.790   2.787 -1.3426  0.0360 -0.2625
  628SOL    HW1 1883   1.157   0.723   2.792  1.5379 -2.9112 -1.6474
  628SOL    HW2 1884   1.238   0.830   2.693  1.7073  1.7368  0.8149
  629SOL     OW 1885   0.135   0.038   1.808  0.0624  0.1032 -0.9430
  629SOL    HW1 1886   0.057   0.028   1.875  2.3254  0.2014  0.1058
  629SOL    HW2 1887   0.209   0.095   1.853 -0.1035  2.1200  2.0594
  630SOL     OW 1888   2.569   0.922   2.160 -0.7285 -0.1526  0.1904
  630SOL    HW1 1889   2.561   0.878   2.252  0.5881  2.1373  0.0854
  630SOL    HW2 1890   2.668   0.924   2.132 -1.5995  0.7139  2.6997
  631SOL     OW 1891   1.992   0.840   0.951 -0.2554 -0.0081 -0.0253
  631SOL    HW1 1892   1.967   0.937   0.978  1.7973  1.0808 -3.2950
  631SOL    HW2 1893   2.028   0.783   1.025 -0.0961  3.6875  2.6553
  632SOL     OW 1894   2.784   0.725   1.724 -0.6843 -0.2407 -0.1563
  632SOL    HW1 1895   2.856   0.800   1.730  0.7525  0.9330 -1.6997
  632SOL    HW2 1896   2.766   0.688   1.627  0.2389 -1.4910 -2.5773
  633SOL     OW 1897   0.867   2.871   3.067  0.5255  0.3713  0.3466
  633SOL    HW1 1898   0.940   2.936   3.074 -2.9826 -3.5339 -1.2659
  633SOL    HW2 1899   0.820   2.863   0.045 -0.0794  1.1307 -0.5745
  634SOL     OW 1900   1.334   2.781   2.966  0.0655 -0.0872  0.1895
  634SOL    HW1 1901   1.301   2.861   3.016 -1.2096 -0.4981 -0.8539
  634SOL    HW2 1902   1.321   2.790   2.864 -1.9781  1.2870  0.5930
  635SOL     OW 1903   0.042   0.434   0.442  0.1328 -0.3061  0.1459
  635SOL    HW1 1904   3.078   0.468   0.504 -1.8299  1.6450 -0.5191
  635SOL    HW2 1905   3.107   0.384   0.366 -0.8127  0.4542  0.3576
  636SOL     OW 1906   0.512   1.160   0.481 -0.3870 -1.1512  0.3567
  636SOL    HW1 1907   0.529   1.218   0.399 -0.3242  1.2396  1.2852
  636SOL    HW2 1908   0.437   1.095   0.453 -2.9775 -0.0111 -1.9414
  637SOL     OW 1909   0.293   2.741   0.271  0.4948 -0.0562  0.1303
  637SOL    HW1 1910   0.294   2.646   0.237  3.0741 -3.5954 -0.8495
  637SOL    HW2 1911   0.198   2.774   0.288 -1.7025  0.5637 -0.1149
  638SOL     OW 1912   2.969   2.616   0.387 -0.0087  0.0794 -0.1100
  638SOL    HW1 1913   3.026   2.657   0.311 -1.8787  1.7597 -0.9027
  638SOL    HW2 1914   3.024   2.581   0.465 -0.4651  3.5016  0.5938
  639SOL     OW 1915   1.326   1.274   0.158 -0.0104  0.3940  0.5951
  639SOL    HW1 1916   1.342   1.194   0.094 -0.8829  1.4041 -2.1379
  639SOL    HW2 1917   1.361   1.359   0.117 -0.5588  0.5861 -0.2192
  640SOL     OW 1918   1.568   2.478   1.233 -0.0385 -0.5696  0.2169
  640SOL    HW1 1919   1.649   2.539   1.228  0.0330 -1.1647 -3.1114
  640SOL    HW2 1920   1.580   2.394   1.179  1.2543  0.3418  0.3054
  641SOL     OW 1921   2.960   2.393   1.051  0.3366  0.5316  0.1232
  641SOL    HW1 1922   2.940   2.291   1.062 -0.9873 -2.2699  2.2223
  641SOL    HW2 1923   2.874   2.440   1.031 -0.3644 -4.1112 -0.0702
  642SOL     OW 1924   0.758   3.042   1.756 -0.0044 -0.1871  0.4014
  642SOL    HW1 1925   0.814   3.041   1.670  1.4024 -2.2624  0.6680
  642SOL    HW2 1926   0.693   0.011   1.759 -1.2654  0.1874 -4.6798
  643SOL     OW 1927   0.833   2.228   2.855 -0.1444  0.4375  0.1847
  643SOL    HW1 1928   0.883   2.314   2.836  0.4355  0.3116  0.2059
  643SOL    HW2 1929   0.889   2.168   2.917  0.2255 -0.8851 -0.0425
  644SOL     OW 1930   1.051   2.527   0.559 -0.0273 -0.7728 -0.2041
  644SOL    HW1 1931   1.108   2.523   0.477  0.3827  1.3069 -0.1561
  644SOL    HW2 1932   1.020   2.437   0.590 -0.0708  1.4362 -2.4561
  645SOL     OW 1933   1.321   1.367   1.895 -0.5810 -0.6432 -0.4573
  645SOL    HW1 1934   1.233   1.405   1.908  1.1824 -0.0353 -0.7422
  645SOL    HW2 1935   1.320   1.272   1.927  1.0232 -2.1402  0.3575
  646SOL     OW 1936   0.311   0.965   0.449  0.5256  0.0239  0.4673
  646SOL    HW1 1937   0.249   0.939   0.530 -1.8055 -0.5515  0.3307
  646SOL    HW2 1938   0.315   0.885   0.386  1.3408  1.6662  1.6507
  647SOL     OW 1939   1.232   0.491   0.709  0.1285  0.5703 -0.5589
  647SOL    HW1 1940   1.171   0.559   0.669  0.3075 -1.3240  3.5785
  647SOL    HW2 1941   1.199   0.396   0.725 -2.0564  0.8058  1.2045
  648SOL     OW 1942   2.470   2.609   1.458 -0.1872  0.3585 -0.0282
  648SOL    HW1 1943   2.382   2.656   1.481  0.9644 -2.0421 -0.8779
  648SOL    HW2 1944   2.460   2.506   1.464 -0.9048 -0.2281 -1.9302
  649SOL     OW 1945   0.605   2.004   0.007  0.1785  0.3505  0.3420
  649SOL    HW1 1946   0.582   2.058   3.034 -0.6492 -0.0084  3.1094
  649SOL    HW2 1947   0.525   2.008   0.071  2.1203  1.6890 -0.3096
  650SOL     OW 1948   2.501   1.939   1.772  0.4152  0.2525  0.0906
  650SOL    HW1 1949   2.479   1.932   1.671 -2.2146  1.4484 -1.0883
  650SOL    HW2 1950   2.601   1.940   1.787  1.0685  0.8915 -0.4034
  651SOL     OW 1951   0.090   0.021   2.719 -0.7525 -0.1440 -0.2028
  651SOL    HW1 1952   0.076   3.030   2.739  1.2117 -2.9660  0.5824
  651SOL    HW2 1953   0.047   0.085   2.790 -1.0203  5.3498  1.3284
  652SOL     OW 1954   2.468   1.574   0.143  0.2606 -0.0720 -0.1016
  652SOL    HW1 1955   2.479   1.646   0.219  3.8520  3.9587 -0.2117
  652SOL    HW2 1956   2.548   1.517   0.146  0.5124  0.1718 -1.2696
  653SOL     OW 1957   0.118   0.067   0.863  0.1537  0.1842 -0.2850
  653SOL    HW1 1958   0.203   0.115   0.901  0.6037  0.7625  2.4364
  653SOL    HW2 1959   0.069   0.125   0.795  0.1266 -0.5675  1.0654
  654SOL     OW 1960   1.115   0.119   0.416 -0.5426 -0.6477  0.3115
  654SOL    HW1 1961   1.057   0.041   0.396 -1.5155  2.9149  0.2982
  654SOL    HW2 1962   1.207   0.098   0.382 -0.4795 -1.0473  1.3053
  655SOL     OW 1963   0.641   2.749   1.496  0.4237 -0.3530  0.6567
  655SOL    HW1 1964   0.741   2.742   1.484 -1.3376 -1.0167 -0.1989
  655SOL    HW2 1965   0.603   2.709   1.412 -1.2891  0.4654  1.5028
  656SOL     OW 1966   0.361   0.148   1.969 -0.3293 -0.1251 -0.6541
  656SOL    HW1 1967   0.446   0.119   2.017  2.0494  1.1211 -0.0244
  656SOL    HW2 1968   0.317   0.225   2.021 -0.3951 -0.3666 -2.2158
  657SOL     OW 1969   1.976   0.437   2.418 -0.1542  0.2772  0.5510
  657SOL    HW1 1970   1.989   0.361   2.488 -1.6130  0.7700  0.9707
  657SOL    HW2 1971   2.055   0.454   2.354 -1.4848  0.2768 -1.0306
  658SOL     OW 1972   1.966   1.496   1.123  0.1396 -0.4396  0.2287
  658SOL    HW1 1973   1.887   1.479   1.187  2.1600 -0.6615  2.0260
  658SOL    HW2 1974   2.050   1.486   1.178 -2.0499  0.9376 -0.2133
  659SOL     OW 1975   2.593   2.762   2.899  0.1066  0.0568  0.3004
  659SOL    HW1 1976   2.567   2.773   2.799 -0.9359  3.1170  0.1823
  659SOL    HW2 1977   2.587   2.662   2.921 -0.2931 -3.6165  0.1900
  660SOL     OW 1978   1.012   0.685   3.036  0.0293  0.1101  0.0039
  660SOL    HW1 1979   0.950   0.678   0.008 -0.4069  1.5964  0.5318
  660SOL    HW2 1980   1.017   0.777   2.997 -0.1833  0.8839 -0.4979
  661SOL     OW 1981   2.426   2.881   0.828 -0.0973 -0.2557 -0.1002
  661SOL    HW1 1982   2.464   2.832   0.751 -0.6100  2.0508  1.5183
  661SOL    HW2 1983   2.496   2.928   0.879 -1.3052 -0.9358  2.1157
  662SOL     OW 1984   0.548   0.424   0.869 -0.2594  0.2832 -0.6233
  662SOL    HW1 1985   0.453   0.434   0.835 -1.8122  1.1884 -2.6925
  662SOL    HW2 1986   0.561   0.491   0.951  1.2601  1.1076  3.2266
  663SOL     OW 1987   1.437   2.524   2.546 -0.4514 -0.1518  0.6532
  663SOL    HW1 1988   1.506   2.599   2.556  1.0704  0.2627  2.4921
  663SOL    HW2 1989   1.352   2.558   2.500  3.0244 -0.6257  1.7968
  664SOL     OW 1990   0.586   2.345   1.229  0.1169  0.0830  0.1443
  664SOL    HW1 1991   0.670   2.403   1.245  2.8136  1.2950 -2.2002
  664SOL    HW2 1992   0.596   2.258   1.279 -0.4093  1.0103  0.1212
  665SOL     OW 1993   1.188   2.171   1.590 -0.0389  0.0359 -0.7233
  665SOL    HW1 1994   1.204   2.162   1.687  0.5209 -0.5533 -1.1968
  665SOL    HW2 1995   1.277   2.190   1.544 -1.5238 -2.8232  0.1068
  666SOL     OW 1996   0.436   2.835   2.758 -0.0068  0.5321 -0.1923
  666SOL    HW1 1997   0.512   2.862   2.700 -0.9393 -0.5358  3.0081
  666SOL    HW2 1998   0.431   2.731   2.765  0.7076 -1.9587  1.2597
  667SOL     OW 1999   1.437   1.645   1.128 -0.1428 -0.2796  0.2018
  667SOL    HW1 2000   1.418   1.549   1.157 -1.1915  0.0088  1.4199
  667SOL    HW2 2001   1.411   1.709   1.204  2.1488  0.9965  0.8086
  668SOL     OW 2002   1.126   0.341   2.211  0.2271  0.1608 -0.4790
  668SOL    HW1 2003   1.091   0.395   2.288  0.9569  3.2097  3.1964
  668SOL    HW2 2004   1.137   0.245   2.229 -2.7185 -0.7280 -2.1141
  669SOL     OW 2005   2.195   2.247   1.943 -0.3525 -0.9558  0.4738
  669SOL    HW1 2006   2.215   2.225   1.846  2.3995 -0.3905  1.1209
  669SOL    HW2 2007   2.212   2.166   2.001 -0.4540 -2.3272  2.9632
  670SOL     OW 2008   2.069   1.848   0.376 -0.2747  0.2851 -0.2094
  670SOL    HW1 2009   2.124   1.915   0.434  0.5118  1.7138 -0.1526
  670SOL    HW2 2010   2.124   1.804   0.306  0.9749  4.2856  4.7819
  671SOL     OW 2011   1.519   0.993   0.963  0.0540  0.3552 -0.3981
  671SOL    HW1 2012   1.474   0.947   0.883 -3.0910  0.0554 -0.6335
  671SOL    HW2 2013   1.515   1.094   0.954 -1.3095 -2.2828  1.0567
  672SOL     OW 2014   2.567   1.443   2.210 -0.0952  0.0043  0.4172
  672SOL    HW1 2015   2.626   1.529   2.220 -0.1257 -0.4230 -2.4936
  672SOL    HW2 2016   2.634   1.365   2.204  1.5340  0.4717 -0.6823
  673SOL     OW 2017   2.726   1.667   2.213  0.4468  0.3954 -0.2419
  673SOL    HW1 2018   2.749   1.732   2.135  1.9366 -3.0391 -1.0671
  673SOL    HW2 2019   2.737   1.709   2.306  1.4264 -1.3929 -0.3576
  674SOL     OW 2020   0.915   2.671   2.503 -0.6189 -0.8298  0.1655
  674SOL    HW1 2021   1.010   2.700   2.484 -2.3031 -2.3312  1.1659
  674SOL    HW2 2022   0.859   2.682   2.417 -0.9348 -2.4596 -0.2647
  675SOL     OW 2023   0.706   0.967   1.442 -0.3298  0.0687  0.2238
  675SOL    HW1 2024   0.656   0.988   1.355 -4.4060  1.3503 -0.3856
  675SOL    HW2 2025   0.808   0.965   1.436 -2.8252  0.8769  1.5409
  676SOL     OW 2026   2.077   0.564   0.749 -0.2800  0.5149 -0.4927
  676SOL    HW1 2027   2.018   0.531   0.672 -0.3133  0.1699 -0.0129
  676SOL    HW2 2028   2.039   0.531   0.839  2.1147 -1.7755  1.1040
  677SOL     OW 2029   2.591   1.569   2.761 -0.1701  0.5388 -0.0825
  677SOL    HW1 2030   2.685   1.531   2.770 -0.3242  1.0409 -0.8793
  677SOL    HW2 2031   2.552   1.567   2.852  2.1043 -1.4229  0.2666
  678SOL     OW 2032   0.019   3.000   1.044  0.3170  0.3189  0.3859
  678SOL    HW1 2033   0.064   2.964   1.126 -1.2564  1.6027 -0.3571
  678SOL    HW2 2034   0.071   3.066   0.983 -0.2098  2.3406 -0.1964
  679SOL     OW 2035   2.452   3.063   0.333 -0.0257  0.6914 -0.0872
  679SOL    HW1 2036   2.525   3.032   0.268  0.0470  2.9085  0.6107
  679SOL    HW2 2037   2.498   3.090   0.418  0.4719 -0.4817  2.7226
  680SOL     OW 2038   0.099   2.406   2.026  0.2003  0.3778 -0.3689
  680SOL    HW1 2039   0.107   2.379   1.930  0.1595  3.1173  3.4096
  680SOL    HW2 2040   0.025   2.353   2.076  0.5293 -1.3747  1.2150
  681SOL     OW 2041   2.612   1.605   1.451  0.1174 -0.2493 -0.0270
  681SOL    HW1 2042   2.628   1.699   1.406 -0.4566  0.1795 -1.9053
  681SOL    HW2 2043   2.511   1.580   1.456 -3.0773 -0.3915 -2.6976
  682SOL     OW 2044   3.034   2.203   2.238 -0.4692 -0.3142  0.0851
  682SOL    HW1 2045   2.944   2.181   2.205  2.0410 -0.1628 -0.9373
  682SOL    HW2 2046   3.036   2.285   2.300  1.8493 -1.0044 -1.6547
  683SOL     OW 2047   3.021   2.285   1.371  0.4019 -0.0159  0.6161
  683SOL    HW1 2048   2.973   2.222   1.302 -0.1738  0.0198  0.0823
  683SOL    HW2 2049   2.957   2.364   1.382 -1.5899 -0.5280 -0.6106
  684SOL     OW 2050   2.018   1.134   2.406  0.2199 -0.0687 -0.5199
  684SOL    HW1 2051   1.959   1.203   2.452  4.8731 -0.2910  1.9135
  684SOL    HW2 2052   2.115   1.152   2.435  1.0440 -1.0744  1.8426
  685SOL     OW 2053   1.460   1.056   0.334 -0.0852 -0.5059  0.8045
  685SOL    HW1 2054   1.376   1.105   0.355 -2.1309 -0.1348  1.7920
  685SOL    HW2 2055   1.511   1.033   0.417 -3.1231 -0.0143 -4.2777
  686SOL     OW 2056   0.516   0.043   0.770  0.4892  0.2329 -0.2992
  686SOL    HW1 2057   0.563   3.097   0.841  1.7152 -0.1438 -1.4540
  686SOL    HW2 2058   0.583   0.067   0.696  0.8598  0.4429  1.3810
  687SOL     OW 2059   1.537   1.281   2.185 -0.4063 -0.0823 -0.2495
  687SOL    HW1 2060   1.606   1.326   2.249 -2.3086  3.8177 -1.4290
  687SOL    HW2 2061   1.441   1.296   2.217  1.0336  0.0142 -1.4713
  688SOL     OW 2062   1.350   1.809   1.345  0.6031 -0.3683  0.2043
  688SOL    HW1 2063   1.252   1.790   1.334  2.4521  2.7963  2.2026
  688SOL    HW2 2064   1.381   1.791   1.441  2.2487 -2.0008  1.4174
  689SOL     OW 2065   2.055   0.169   1.348 -0.2258  0.3038  0.3046
  689SOL    HW1 2066   2.096   0.181   1.257 -0.8364  0.7815 -0.8136
  689SOL    HW2 2067   2.122   0.217   1.415 -1.8337  0.7890  0.8629
  690SOL     OW 2068   0.200   1.543   1.087 -0.1290  0.8000  0.2325
  690SOL    HW1 2069   0.145   1.514   1.005  1.4263  1.1015  0.6749
  690SOL    HW2 2070   0.141   1.589   1.155  0.5184 -0.0835 -0.0740
  691SOL     OW 2071   0.454   2.676   1.036 -0.0044 -0.2151 -0.0151
  691SOL    HW1 2072   0.540   2.651   0.994 -3.4399  2.1305  1.6724
  691SOL    HW2 2073   0.369   2.643   0.987 -1.6531  1.3303  2.7877
  692SOL     OW 2074   2.333   0.466   1.738 -0.2208  0.2268 -0.1566
  692SOL    HW1 2075   2.373   0.556   1.750 -1.2158 -0.0355 -1.0699
  692SOL    HW2 2076   2.229   0.464   1.744 -0.5867  1.2945 -0.0582
  693SOL     OW 2077   0.326   2.113   1.846  0.6243 -0.8307  0.5906
  693SOL    HW1 2078   0.423   2.114   1.819 -3.2182 -1.8722 -0.8818
  693SOL    HW2 2079   0.324   2.093   1.951  0.1623 -3.2701 -1.7303
  694SOL     OW 2080   1.574   1.378   1.711 -0.8697  0.6677 -0.2865
  694SOL    HW1 2081   1.653   1.413   1.767  3.3619  0.1414  1.5875
  694SOL    HW2 2082   1.508   1.338   1.776 -0.2092 -0.8907  0.7295
  695SOL     OW 2083   0.622   1.067   1.201  0.2126 -0.0294 -0.1105
  695SOL    HW1 2084   0.522   1.096   1.190  0.8350  0.2784 -0.9086
  695SOL    HW2 2085   0.678   1.139   1.249 -0.1010  1.0824  2.1644
  696SOL     OW 2086   1.440   3.027   0.755 -0.4038  0.2349 -0.2054
  696SOL    HW1 2087   1.408   3.097   0.690  0.8535 -2.1693  0.3151
  696SOL    HW2 2088   1.478   3.079   0.836 -2.5193  1.3013 -2.4572
  697SOL     OW 2089   1.476   0.192   1.673 -0.0388 -0.2368 -0.1203
  697SOL    HW1 2090   1.474   0.241   1.765 -0.2446 -0.8625 -0.1524
  697SOL    HW2 2091   1.421   0.109   1.679  2.6528  1.5077 -1.9702
  698SOL     OW 2092   2.151   1.321   2.102 -0.3229 -0.7123 -0.7150
  698SOL    HW1 2093   2.126   1.222   2.126  0.6065 -0.4543 -0.1055
  698SOL    HW2 2094   2.099   1.397   2.149  0.6546 -0.0998 -2.5031
  699SOL     OW 2095   2.198   0.320   1.521 -0.5890 -0.4277  0.2689
  699SOL    HW1 2096   2.216   0.422   1.519  1.1280 -0.5548  0.2432
  699SOL    HW2 2097   2.206   0.288   1.616 -0.3370 -0.1284 -1.0557
  700SOL     OW 2098   1.050   2.102   0.285  0.5264 -0.2161  0.1144
  700SOL    HW1 2099   1.019   2.044   0.361 -0.8628  1.0516 -0.4921
  700SOL    HW2 2100   1.144   2.098   0.251  1.8857 -2.9324  1.5203
  701SOL     OW 2101   2.290   2.830   2.759 -0.6188 -0.2730 -0.3627
  701SOL    HW1 2102   2.238   2.898   2.701  1.4006  1.2784 -1.2176
  701SOL    HW2 2103   2.228   2.775   2.816  1.3237 -1.4257 -0.3308
  702SOL     OW 2104   0.961   0.026   1.198 -0.1289  0.6236  0.4225
  702SOL    HW1 2105   0.942   3.077   1.115  0.7751 -2.4567 -0.5124
  702SOL    HW2 2106   1.055   0.058   1.200 -4.5623 -3.7077  1.6327
  703SOL     OW 2107   2.246   0.221   2.321  0.1210 -0.3755  0.1173
  703SOL    HW1 2108   2.301   0.169   2.395  2.4886 -1.1351  1.1869
  703SOL    HW2 2109   2.274   0.315   2.313 -0.2317 -1.7315 -3.8594
  704SOL     OW 2110   2.844   2.338   0.362  0.3022  0.0804 -0.5406
  704SOL    HW1 2111   2.876   2.421   0.411 -0.1445  1.5720  0.6677
  704SOL    HW2 2112   2.770   2.286   0.419 -0.6113 -2.6252  0.5377
  705SOL     OW 2113   2.523   0.276   2.039 -0.4638 -0.0035  0.1133
  705SOL    HW1 2114   2.535   0.280   1.939  0.6833  0.7258  0.5552
  705SOL    HW2 2115   2.586   0.205   2.071 -0.8930  1.0538 -2.4442
  706SOL     OW 2116   2.180   2.920   1.208  0.2389 -0.0090  0.2529
  706SOL    HW1 2117   2.228   2.850   1.148  1.8946 -0.2414 -1.6491
  706SOL    HW2 2118   2.213   3.006   1.171  1.7236 -1.0790 -1.3260
  707SOL     OW 2119   0.751   2.967   2.365  0.4101 -0.5816 -0.3170
  707SOL    HW1 2120   0.819   2.912   2.317 -2.0146  2.2046  1.4067
  707SOL    HW2 2121   0.740   3.048   2.305 -0.3375  0.7384  0.3029
  708SOL     OW 2122   2.857   2.451   1.752  0.8166  0.4025  0.7548
  708SOL    HW1 2123   2.862   2.483   1.850 -0.1786  0.8731 -2.8359
  708SOL    HW2 2124   2.949   2.462   1.706  0.5557 -0.8544  1.6768
  709SOL     OW 2125   1.829   0.461   1.651 -0.1703 -0.0895  0.1410
  709SOL    HW1 2126   1.839   0.488   1.552  0.9471  2.9352 -2.4460
  709SOL    HW2 2127   1.917   0.487   1.690 -1.5252  1.3029 -2.9466
  710SOL     OW 2128   1.065   0.180   2.606  0.0751  0.0505 -0.0211
  710SOL    HW1 2129   1.014   0.105   2.562  1.4140 -2.1321  0.3174
  710SOL    HW2 2130   1.164   0.171   2.585 -1.8386 -2.1875  0.1268
  711SOL     OW 2131   0.677   1.921   2.661 -0.1076 -0.7801 -0.6807
  711SOL    HW1 2132   0.582   1.940   2.686  0.3805 -0.5523 -4.0170
  711SOL    HW2 2133   0.734   1.904   2.744 -0.2811 -0.6501  1.0097
  712SOL     OW 2134   0.973   2.053   3.011 -0.2301  0.4269  0.1078
  712SOL    HW1 2135   0.947   1.988   3.088 -1.4134 -0.7861 -0.5054
  712SOL    HW2 2136   1.072   2.061   3.002 -2.3931 -2.8731  1.5796
  713SOL     OW 2137   2.001   0.883   2.497  0.1117  0.2724 -0.4845
  713SOL    HW1 2138   1.997   0.978   2.463  0.0592  3.5487  0.9480
  713SOL    HW2 2139   2.017   0.881   2.599  3.5640  1.2389 -0.6908
  714SOL     OW 2140   1.339   1.825   1.870 -0.2904  0.2949 -0.2757
  714SOL    HW1 2141   1.354   1.879   1.957  0.6777 -1.8057  1.3601
  714SOL    HW2 2142   1.244   1.824   1.832 -0.6663 -1.8535 -0.7994
  715SOL     OW 2143   2.040   0.290   2.894  0.2082 -0.0209  0.0743
  715SOL    HW1 2144   2.119   0.295   2.955 -0.1123 -0.5100  1.3781
  715SOL    HW2 2145   2.062   0.259   2.801 -0.2569  0.5404  1.6603
  716SOL     OW 2146   2.703   2.380   1.530 -0.0722  0.2773 -0.5379
  716SOL    HW1 2147   2.744   2.380   1.622  0.1422 -1.0876 -2.7234
  716SOL    HW2 2148   2.750   2.446   1.470  1.6316  3.3723  1.3691
  717SOL     OW 2149   2.540   1.015   0.860  0.0090 -0.2044  0.1521
  717SOL    HW1 2150   2.444   0.980   0.860  0.1029 -2.5784 -0.6803
  717SOL    HW2 2151   2.588   0.973   0.785  0.7905 -3.2092 -2.1332
  718SOL     OW 2152   1.422   1.754   1.605 -0.2331  0.1278  1.1473
  718SOL    HW1 2153   1.522   1.737   1.606 -1.5015  2.5479 -1.9313
  718SOL    HW2 2154   1.383   1.719   1.691  2.2853 -1.1718  4.2231
  719SOL     OW 2155   2.684   0.381   3.107  0.3684  0.9091  0.1006
  719SOL    HW1 2156   2.634   0.469   3.097  1.5287  2.7257 -0.4609
  719SOL    HW2 2157   2.784   0.410   0.001  1.7622 -0.0797 -0.7756
  720SOL     OW 2158   0.774   0.270   0.876  0.0619  0.4500 -0.0974
  720SOL    HW1 2159   0.690   0.328   0.873 -0.6961  4.0652  1.0614
  720SOL    HW2 2160   0.808   0.243   0.784 -3.9031 -1.3983 -1.6604
  721SOL     OW 2161   2.514   0.755   0.585  0.2456  0.6316 -0.0982
  721SOL    HW1 2162   2.507   0.723   0.487  0.3464  3.2361 -1.0073
  721SOL    HW2 2163   2.604   0.806   0.590  2.6924  0.0201 -3.3208
  722SOL     OW 2164   0.498   2.582   2.496 -0.1236 -0.0596 -0.1285
  722SOL    HW1 2165   0.541   2.518   2.432  2.3470 -1.0619  3.3875
  722SOL    HW2 2166   0.403   2.598   2.472  0.7584  3.3488  3.5479
  723SOL     OW 2167   1.569   0.264   0.473  0.7690  0.3389  0.2241
  723SOL    HW1 2168   1.635   0.187   0.492  1.3817  0.7797  1.6660
  723SOL    HW2 2169   1.570   0.338   0.543  0.9289  0.9147 -0.4326
  724SOL     OW 2170   1.052   1.922   2.151 -0.2474  0.1213  0.0797
  724SOL    HW1 2171   1.012   2.006   2.191 -2.4889 -0.0514 -2.7414
  724SOL    HW2 2172   0.981   1.855   2.115 -3.7673 -1.5915  1.7080
  725SOL     OW 2173   1.677   0.098   1.426  0.4096 -0.1128  0.0999
  725SOL    HW1 2174   1.718   0.145   1.508 -1.1955  2.1788  1.3547
  725SOL    HW2 2175   1.620   0.015   1.454  0.3967  2.0644  0.7842
  726SOL     OW 2176   2.367   2.794   0.366 -0.3364  0.0825  0.3389
  726SOL    HW1 2177   2.361   2.901   0.373  1.4277  2.2600 -0.6607
  726SOL    HW2 2178   2.439   2.769   0.298 -2.4029  0.3728 -1.4953
  727SOL     OW 2179   1.389   2.083   0.818  0.4486 -0.2937 -0.8035
  727SOL    HW1 2180   1.474   2.063   0.767 -0.6111 -0.4079  1.2075
  727SOL    HW2 2181   1.313   2.111   0.757  0.3292  1.5402  1.1591
  728SOL     OW 2182   2.432   2.726   2.184  0.7690  0.1059 -0.8531
  728SOL    HW1 2183   2.395   2.705   2.092 -2.5321 -0.4459  0.0849
  728SOL    HW2 2184   2.358   2.764   2.245  1.8121  1.2604  1.6263
  729SOL     OW 2185   1.841   2.211   1.411 -0.2203  0.6369 -0.2909
  729SOL    HW1 2186   1.884   2.291   1.364  2.3048  0.8774  0.1077
  729SOL    HW2 2187   1.752   2.228   1.463 -1.5432 -1.3009  1.3749
  730SOL     OW 2188   1.649   0.895   2.857  0.3462 -0.4115  0.0765
  730SOL    HW1 2189   1.549   0.893   2.890  0.4176 -0.1471 -0.6651
  730SOL    HW2 2190   1.653   0.847   2.766 -0.7658 -0.5221  2.1643
  731SOL     OW 2191   0.726   3.025   1.342 -0.1394 -0.4137 -0.1249
  731SOL    HW1 2192   0.790   3.068   1.275  1.9442  0.8276  1.1119
  731SOL    HW2 2193   0.654   2.973   1.292 -0.5831  2.0476  1.3016
  732SOL     OW 2194   1.260   0.207   0.984 -0.6972  0.6464  0.2614
  732SOL    HW1 2195   1.187   0.218   0.912  0.0887 -0.8007 -3.3678
  732SOL    HW2 2196   1.350   0.178   0.937  1.7709 -0.8850 -0.4614
  733SOL     OW 2197   0.850   1.224   0.988 -0.6058  0.2406 -0.0081
  733SOL    HW1 2198   0.877   1.134   1.027 -3.1925  2.5360 -0.1964
  733SOL    HW2 2199   0.768   1.260   1.040  1.3515  2.8272  1.3196
  734SOL     OW 2200   2.902   2.515   2.679 -0.4100  0.4408 -0.4523
  734SOL    HW1 2201   2.803   2.528   2.677  2.8484 -0.0448  1.5422
  734SOL    HW2 2202   2.953   2.592   2.632  0.0288  3.3648 -0.1430
  735SOL     OW 2203   0.931   2.797   1.446  0.2395 -0.2906  0.6652
  735SOL    HW1 2204   1.030   2.787   1.416  0.2614  0.1923  0.4858
  735SOL    HW2 2205   0.917   2.884   1.494 -2.4716  0.2596  1.1910
  736SOL     OW 2206   1.714   1.870   3.023 -0.4439  0.1439  0.0874
  736SOL    HW1 2207   1.695   1.870   2.927  0.6093  0.2012  1.5022
  736SOL    HW2 2208   1.734   1.962   3.062  0.0976  1.5542  0.2501
  737SOL     OW 2209   0.153   2.155   1.307  0.0076  0.3207  0.3322
  737SOL    HW1 2210   0.201   2.147   1.214  0.9465 -0.5861  0.5834
  737SOL    HW2 2211   0.065   2.201   1.302  2.5979 -0.4937  0.7458
  738SOL     OW 2212   1.892   2.442   2.874  0.5735  0.2299  0.1200
  738SOL    HW1 2213   1.830   2.517   2.845  4.6795  1.2803  2.3994
  738SOL    HW2 2214   1.987   2.470   2.888 -3.4997  2.2842 -2.1367
  739SOL     OW 2215   1.322   2.277   2.475  0.4391 -0.7489  0.1272
  739SOL    HW1 2216   1.388   2.351   2.487 -2.2266 -0.8378 -2.8872
  739SOL    HW2 2217   1.341   2.209   2.550  0.1920 -0.2863  0.0697
  740SOL     OW 2218   1.229   2.553   0.960 -0.6741  0.5161  0.1770
  740SOL    HW1 2219   1.250   2.469   0.903 -1.3268 -1.6677 -2.5647
  740SOL    HW2 2220   1.283   2.633   0.922 -0.7803  0.3244 -0.1895
  741SOL     OW 2221   2.905   1.006   0.249  0.2614 -0.4557  0.1916
  741SOL    HW1 2222   2.876   1.090   0.300 -1.0525 -0.4561  0.0913
  741SOL    HW2 2223   2.994   1.023   0.203 -2.6077  2.9375  0.9545
  742SOL     OW 2224   0.894   1.688   2.464 -0.2443  0.0630 -0.3142
  742SOL    HW1 2225   0.990   1.709   2.427  2.1321 -2.7056  2.0235
  742SOL    HW2 2226   0.844   1.776   2.462 -0.5099 -2.6143  2.0284
  743SOL     OW 2227   1.046   0.928   2.299  0.0468  0.7439 -0.3729
  743SOL    HW1 2228   0.951   0.945   2.324  1.6464  0.5686 -0.0708
  743SOL    HW2 2229   1.064   0.834   2.264 -2.2085  3.9019 -0.7579
  744SOL     OW 2230   2.238   2.695   1.556  0.1309 -0.1032 -0.5319
  744SOL    HW1 2231   2.145   2.658   1.575 -0.7634 -1.6177  1.6055
  744SOL    HW2 2232   2.252   2.778   1.607  1.9465 -3.0714 -1.5176
  745SOL     OW 2233   1.764   1.416   1.313 -0.3351  0.1894 -0.2669
  745SOL    HW1 2234   1.664   1.422   1.334 -1.1441 -2.3339  1.3915
  745SOL    HW2 2235   1.817   1.403   1.402 -0.8720 -1.7866  3.1598
  746SOL     OW 2236   1.735   0.760   0.817 -0.4875 -0.0767 -0.4328
  746SOL    HW1 2237   1.829   0.769   0.859 -0.9596  2.9561 -0.4249
  746SOL    HW2 2238   1.668   0.744   0.891 -0.4243  0.6932  0.1579
  747SOL     OW 2239   2.330   1.498   0.840  0.7070 -0.0027 -0.0309
  747SOL    HW1 2240   2.229   1.489   0.837 -2.8943  1.3772 -0.3839
  747SOL    HW2 2241   2.370   1.532   0.928 -1.4121 -1.0535 -0.2817
  748SOL     OW 2242   0.191   1.524   0.178 -0.4410  0.6666 -0.2001
  748SOL    HW1 2243   0.208   1.602   0.114 -1.1271  0.4331 -2.6944
  748SOL    HW2 2244   0.273   1.486   0.223 -0.1802  0.1215  2.7784
  749SOL     OW 2245   0.108   2.429   2.543  0.6116 -0.1111 -0.9484
  749SOL    HW1 2246   0.129   2.331   2.563 -2.2757 -0.4724 -1.8648
  749SOL    HW2 2247   0.051   2.430   2.459 -0.3497  3.1218  3.5434
  750SOL     OW 2248   2.131   0.683   1.107 -0.3242 -0.0511  0.3563
  750SOL    HW1 2249   2.222   0.647   1.077 -1.6405  0.3449  0.5355
  750SOL    HW2 2250   2.132   0.705   1.207  1.4462 -0.7994 -1.7041
  751SOL     OW 2251   2.832   3.090   0.355  0.2573  0.0113  0.1514
  751SOL    HW1 2252   2.772   3.103   0.276  3.1539 -0.6611  1.1251
  751SOL    HW2 2253   2.838   2.989   0.374  0.2127  0.3027  1.6263
  752SOL     OW 2254   2.501   2.673   0.588  0.3770 -0.2560  0.2876
  752SOL    HW1 2255   2.470   2.708   0.500 -0.5638 -1.1687  1.4771
  752SOL    HW2 2256   2.460   2.582   0.599  2.4992  2.8444 -0.7167
  753SOL     OW 2257   2.000   1.469   2.345 -0.5531 -0.1329 -0.1536
  753SOL    HW1 2258   2.077   1.465   2.413  0.2772  0.2335  3.4790
  753SOL    HW2 2259   2.006   1.557   2.291 -1.2272  3.7961 -1.7995
  754SOL     OW 2260   2.318   2.169   1.693 -0.9020 -0.0207 -0.3021
  754SOL    HW1 2261   2.390   2.098   1.672  1.4397 -0.8902  1.8876
  754SOL    HW2 2262   2.229   2.132   1.669  2.1541  2.0653  1.4731
  755SOL     OW 2263   2.341   0.907   1.279  0.0436  0.1914 -0.4637
  755SOL    HW1 2264   2.333   0.940   1.184  0.5076 -1.9022  1.5317
  755SOL    HW2 2265   2.265   0.935   1.348 -0.3916  3.3787  2.2434
  756SOL     OW 2266   1.101   1.444   2.890  0.1668 -0.0470 -0.8609
  756SOL    HW1 2267   1.107   1.391   2.805  0.0526 -0.3483  0.5189
  756SOL    HW2 2268   1.006   1.441   2.934 -0.6504  2.2676  0.7510
  757SOL     OW 2269   1.804   2.642   1.186  0.6265 -0.1610  0.0110
  757SOL    HW1 2270   1.857   2.730   1.176 -0.7804 -1.3896  1.1503
  757SOL    HW2 2271   1.856   2.576   1.240 -1.1818 -0.6037  0.3508
  758SOL     OW 2272   0.840   2.452   1.268 -0.0692  0.3459 -0.2339
  758SOL    HW1 2273   0.880   2.407   1.348 -0.3432  0.0818 -4.4220
  758SOL    HW2 2274   0.905   2.436   1.189  0.4198 -0.6029 -0.1650
  759SOL     OW 2275   2.199   1.247   0.994 -0.0940  0.9567 -0.2362
  759SOL    HW1 2276   2.280   1.303   1.016  0.9740 -0.5392  2.5957
  759SOL    HW2 2277   2.159   1.263   0.901 -0.2207 -3.1497  0.5026
  760SOL     OW 2278   2.194   1.011   1.492 -0.5313  0.1784 -0.1160
  760SOL    HW1 2279   2.104   0.983   1.460  0.8489  1.9884 -0.2766
  760SOL    HW2 2280   2.210   1.105   1.454  0.0891  0.2161 -0.0479
  761SOL     OW 2281   2.083   2.854   0.411 -0.2773 -0.3858 -0.2875
  761SOL    HW1 2282   2.014   2.780   0.408  2.9853  2.6266  2.9529
  761SOL    HW2 2283   2.173   2.814   0.381 -0.0687 -2.0489  2.5225
  762SOL     OW 2284   1.986   1.480   2.895 -0.0844  0.0189  0.0843
  762SOL    HW1 2285   1.984   1.524   2.803  0.1926 -0.9953  0.9202
  762SOL    HW2 2286   1.965   1.548   2.965  2.3522  0.2129  0.5663
  763SOL     OW 2287   0.630   1.759   1.489 -0.4280 -0.5243  0.7728
  763SOL    HW1 2288   0.546   1.801   1.451  0.1047 -0.2274  2.6964
  763SOL    HW2 2289   0.625   1.772   1.590  1.3452  0.5765  2.0850
  764SOL     OW 2290   0.045   2.332   3.044  0.0926 -0.0589  0.4486
  764SOL    HW1 2291   3.087   2.371   0.006 -1.8127  1.1086  4.2714
  764SOL    HW2 2292   0.067   2.401   2.972  0.1192  0.8137  1.8821
  765SOL     OW 2293   0.523   0.043   1.515 -0.0244  0.5188  0.0606
  765SOL    HW1 2294   0.603   0.032   1.461 -2.4675 -0.6793  0.7062
  765SOL    HW2 2295   0.550   0.076   1.607  3.3999 -4.4111  0.2529
  766SOL     OW 2296   0.069   1.969   2.200  0.7109 -0.3173 -0.2385
  766SOL    HW1 2297   0.019   2.059   2.212  0.2081 -0.5824 -0.9982
  766SOL    HW2 2298   0.071   1.917   2.288 -1.1873  0.0248  1.6631
  767SOL     OW 2299   0.016   1.285   1.989  0.0293  0.1368  0.1649
  767SOL    HW1 2300   0.099   1.233   1.966 -0.8028  0.6724 -1.0188
  767SOL    HW2 2301   3.050   1.252   1.928 -1.8650  3.3878  0.6021
  768SOL     OW 2302   0.774   0.419   2.821  0.5877 -0.4075 -0.4580
  768SOL    HW1 2303   0.795   0.374   2.908 -1.6640  0.6052 -2.1187
  768SOL    HW2 2304   0.680   0.393   2.794  1.1710 -1.3716 -0.2023
  769SOL     OW 2305   2.120   2.607   0.916 -0.0686  0.2166 -0.3301
  769SOL    HW1 2306   2.199   2.632   0.973  1.3950 -1.0836  1.4216
  769SOL    HW2 2307   2.130   2.644   0.821  1.5614 -2.6391 -1.0748
  770SOL     OW 2308   2.737   0.131   2.844  0.4392  0.1211  0.2473
  770SOL    HW1 2309   2.697   0.126   2.938  0.4051  3.2175 -0.4456
  770SOL    HW2 2310   2.682   0.077   2.774 -2.7063 -2.7304 -1.2194
  771SOL     OW 2311   1.900   2.094   1.851  0.1653 -0.4744 -0.3688
  771SOL    HW1 2312   1.966   2.094   1.769 -1.3323  0.3438 -1.8937
  771SOL    HW2 2313   1.857   1.999   1.864 -1.3779 -4.2941  2.1793
  772SOL     OW 2314   1.179   0.220   0.004 -0.5420 -0.1232 -0.5055
  772SOL    HW1 2315   1.127   0.274   0.077 -1.2684 -2.4683  0.2679
  772SOL    HW2 2316   1.133   0.221   3.023 -0.4959  1.0796  1.2617
  773SOL     OW 2317   2.967   0.937   1.784 -0.4767  0.1128 -0.1538
  773SOL    HW1 2318   2.993   0.873   1.859  1.4816  1.7093  2.4870
  773SOL    HW2 2319   3.027   1.018   1.778 -1.0569  0.4155 -1.4620
  774SOL     OW 2320   1.060   0.891   0.308 -0.0378  0.0112 -0.1047
  774SOL    HW1 2321   1.158   0.891   0.271 -0.1120 -2.1510  0.0967
  774SOL    HW2 2322   1.038   0.974   0.364  1.4492  1.6045  0.3049
  775SOL     OW 2323   2.658   3.033   0.144  0.6642 -0.2114 -0.0109
  775SOL    HW1 2324   2.606   3.096   0.087  0.0811 -2.4435 -1.8095
  775SOL    HW2 2325   2.708   2.968   0.089 -3.3148  1.8838 -0.2114
  776SOL     OW 2326   2.367   1.097   2.179  0.8885 -0.1521  0.6610
  776SOL    HW1 2327   2.381   1.088   2.078  1.7094  0.5589 -1.4109
  776SOL    HW2 2328   2.444   1.049   2.225 -0.5733  0.3017 -1.2134
  777SOL     OW 2329   3.061   1.164   2.837 -0.5890 -0.6710 -0.8545
  777SOL    HW1 2330   3.108   1.134   2.752  2.0166  3.1644  0.5840
  777SOL    HW2 2331   2.989   1.233   2.810  1.8484  0.6950 -1.1772
  778SOL     OW 2332   0.657   0.329   0.265 -0.6847  0.2923  0.0221
  778SOL    HW1 2333   0.739   0.391   0.242  0.8019  0.5069 -1.1007
  778SOL    HW2 2334   0.684   0.234   0.234  0.1275 -0.0052 -3.2683
  779SOL     OW 2335   0.471   0.612   2.952  0.3607  0.3349  0.0741
  779SOL    HW1 2336   0.464   0.683   3.027 -0.8734  0.3805  0.5325
  779SOL    HW2 2337   0.544   0.639   2.882  0.4896  1.4008 -1.9133
  780SOL     OW 2338   1.667   0.764   2.626  0.4471  0.3707 -0.2946
  780SOL    HW1 2339   1.583   0.706   2.617  0.8788 -2.0362  0.0804
  780SOL    HW2 2340   1.746   0.716   2.584 -1.7340  1.0218  0.1382
  781SOL     OW 2341   0.061   1.116   1.699  0.5172  0.4274  0.2189
  781SOL    HW1 2342   0.140   1.064   1.676 -2.3072  0.2849  2.1017
  781SOL    HW2 2343   0.054   1.203   1.649  0.5497 -0.3816  2.1405
  782SOL     OW 2344   0.647   1.800   2.940  0.0385 -0.1409 -0.1712
  782SOL    HW1 2345   0.644   1.853   3.029 -1.3772 -0.3591  0.5978
  782SOL    HW2 2346   0.556   1.770   2.905  1.0138  0.1921 -2.1331
  783SOL     OW 2347   0.992   2.611   1.692 -0.7222  0.4171 -0.3226
  783SOL    HW1 2348   0.915   2.676   1.703 -1.0191 -3.3249  1.4480
  783SOL    HW2 2349   1.028   2.613   1.600 -0.7827 -2.3280  1.1161
  784SOL     OW 2350   1.413   0.222   2.970 -0.6614 -0.4393 -0.8918
  784SOL    HW1 2351   1.336   0.221   3.043 -0.9068 -0.4365  2.9537
  784SOL    HW2 2352   1.423   0.309   2.925  0.8361 -3.0061  2.1429
  785SOL     OW 2353   1.259   0.530   2.099  0.0726 -0.5394 -0.3880
  785SOL    HW1 2354   1.203   0.460   2.145 -0.9695  3.4080  1.4112
  785SOL    HW2 2355   1.357   0.499   2.086  1.0764 -2.2856 -0.2152
  786SOL     OW 2356   0.655   1.961   0.482 -0.4187  0.5791  0.3147
  786SOL    HW1 2357   0.629   1.873   0.447 -0.2277  2.7152  0.4495
  786SOL    HW2 2358   0.583   2.032   0.463  0.1691 -1.3356 -0.9133
  787SOL     OW 2359   1.290   0.898   0.196  0.0542 -0.7316  0.1351
  787SOL    HW1 2360   1.298   0.866   0.099 -0.2530 -0.3904  0.8338
  787SOL    HW2 2361   1.354   0.969   0.215 -0.2295 -1.0208  2.7441
  788SOL     OW 2362   2.205   1.472   1.268 -0.1170  0.1885  0.2887
  788SOL    HW1 2363   2.280   1.439   1.208  0.0566 -1.3408 -0.1355
  788SOL    HW2 2364   2.249   1.542   1.328 -1.1453 -0.5042 -0.4691
  789SOL     OW 2365   0.057   1.569   1.974  0.0411 -0.5211  0.3932
  789SOL    HW1 2366   0.103   1.589   2.065  1.0786  0.3085  0.7127
  789SOL    HW2 2367   0.055   1.468   1.957 -0.0081 -1.3910  0.4125
  790SOL     OW 2368   0.680   2.922   0.169  0.1043 -0.3085 -0.0722
  790SOL    HW1 2369   0.583   2.898   0.157  1.6281  1.6756 -0.3136
  790SOL    HW2 2370   0.702   2.946   0.267 -0.5076 -0.8085 -0.5281
  791SOL     OW 2371   0.306   0.376   0.083  0.3191 -0.3652  0.0506
  791SOL    HW1 2372   0.348   0.432   0.160 -2.0131  1.3136  0.2193
  791SOL    HW2 2373   0.374   0.309   0.054  0.3894  2.2517  1.0994
  792SOL     OW 2374   1.661   0.574   2.346  0.5787 -0.4801 -0.1259
  792SOL    HW1 2375   1.673   0.486   2.394 -1.9698  1.7010  0.4697
  792SOL    HW2 2376   1.748   0.633   2.345 -4.4231 -0.0998 -0.2312
  793SOL     OW 2377   2.982   0.455   0.686  0.2419  0.4080  0.0230
  793SOL    HW1 2378   2.994   0.553   0.651 -0.7966  1.1686  1.1054
  793SOL    HW2 2379   3.036   0.434   0.767 -3.2351 -0.5597 -1.5763
  794SOL     OW 2380   0.285   0.475   1.619  0.0129 -0.2894  0.3329
  794SOL    HW1 2381   0.344   0.531   1.556  0.5621  0.7040  1.0125
  794SOL    HW2 2382   0.301   0.378   1.599 -1.4349 -0.6407 -2.2602
  795SOL     OW 2383   0.027   1.050   0.158  0.0570  0.0221 -0.2616
  795SOL    HW1 2384   0.087   1.086   0.234 -0.1858 -0.7982  2.1458
  795SOL    HW2 2385   0.055   1.092   0.070  0.0118  1.0545  0.6163
  796SOL     OW 2386   0.308   0.794   0.248 -0.4931 -0.4347 -0.8531
  796SOL    HW1 2387   0.338   0.695   0.271  1.8483 -0.5542  0.4512
  796SOL    HW2 2388   0.208   0.792   0.227 -4.6338 -0.6399 -1.1580
  797SOL     OW 2389   1.671   2.691   0.093 -0.1951 -0.3844 -0.8483
  797SOL    HW1 2390   1.624   2.784   0.097 -1.3441  1.2542  0.9636
  797SOL    HW2 2391   1.627   2.652   0.015  1.3424  2.3499  2.2637
  798SOL     OW 2392   2.828   0.457   1.160 -0.4111 -0.0483  0.0010
  798SOL    HW1 2393   2.828   0.354   1.167 -1.4706 -0.6519  0.3266
  798SOL    HW2 2394   2.771   0.494   1.081  0.0915 -1.8685 -2.1377
  799SOL     OW 2395   2.457   0.707   2.036 -0.3305  0.0928  0.1173
  799SOL    HW1 2396   2.510   0.783   2.086 -1.6930  0.8955  2.0043
  799SOL    HW2 2397   2.460   0.710   1.933  0.6666  1.0558 -1.2140
  800SOL     OW 2398   0.286   1.931   0.409  0.1015  0.6025  0.4629
  800SOL    HW1 2399   0.208   1.935   0.473  2.2251  2.0800  0.9668
  800SOL    HW2 2400   0.340   2.016   0.419  0.0760 -0.9470 -1.3343
  801SOL     OW 2401   1.647   1.998   0.779 -0.2744  0.5958  0.4054
  801SOL    HW1 2402   1.651   1.943   0.690  0.2016 -4.0100 -0.7458
  801SOL    HW2 2403   1.637   1.937   0.861  1.7659  0.6619 -1.2872
  802SOL     OW 2404   1.336   1.597   2.913  0.3495  0.3216  0.4115
  802SOL    HW1 2405   1.242   1.557   2.909  2.0152 -0.6547 -0.1835
  802SOL    HW2 2406   1.363   1.636   2.824  1.1308 -0.2691 -0.1602
  803SOL     OW 2407   3.049   2.106   1.595  0.0604  0.3198 -0.0999
  803SOL    HW1 2408   3.032   2.179   1.525  2.1188  1.8628  1.4271
  803SOL    HW2 2409   0.015   2.121   1.660 -1.1881  0.0663 -0.7552
  804SOL     OW 2410   1.294   2.541   1.250 -0.2196 -0.0283  0.2367
  804SOL    HW1 2411   1.396   2.524   1.240  0.7978 -0.8246 -3.1106
  804SOL    HW2 2412   1.243   2.523   1.162 -0.1970 -2.4477  2.1294
  805SOL     OW 2413   2.352   2.076   2.762 -0.0745  0.2512 -0.6192
  805SOL    HW1 2414   2.349   2.171   2.796 -0.5874  0.3271 -0.6874
  805SOL    HW2 2415   2.395   2.017   2.825 -4.6425  2.5998 -2.0294
  806SOL     OW 2416   2.174   0.003   0.502 -0.4916 -0.9566  0.5679
  806SOL    HW1 2417   2.187   3.085   0.598  2.9768  0.9552 -0.7017
  806SOL    HW2 2418   2.131   3.038   0.445  2.0502 -1.0993 -0.5755
  807SOL     OW 2419   2.669   0.942   2.829  0.2912  0.6338 -0.1812
  807SOL    HW1 2420   2.612   0.860   2.824 -0.6418  0.2217 -0.2026
  807SOL    HW2 2421   2.636   1.015   2.767 -2.2810 -0.7556  0.7743
  808SOL     OW 2422   0.765   1.207   0.586 -0.0204 -0.3550  0.1158
  808SOL    HW1 2423   0.667   1.197   0.553 -0.2413  1.9002 -2.7046
  808SOL    HW2 2424   0.777   1.290   0.638  1.8290 -1.8816 -2.6387
  809SOL     OW 2425   2.710   0.526   2.175 -0.5232  0.5356 -0.5130
  809SOL    HW1 2426   2.657   0.484   2.251 -1.0250  1.6466  0.8104
  809SOL    HW2 2427   2.676   0.511   2.080 -2.5082  1.8508 -0.7433
  810SOL     OW 2428   1.097   0.568   1.223  0.0577  0.0846 -0.0344
  810SOL    HW1 2429   1.060   0.522   1.149  1.0348 -1.4850  2.0783
  810SOL    HW2 2430   1.189   0.527   1.241 -0.1586  0.9773 -0.8744
  811SOL     OW 2431   2.408   0.055   1.788 -0.5762 -0.2686 -0.6710
  811SOL    HW1 2432   2.318   0.109   1.784 -0.1490  3.4366  1.4336
  811SOL    HW2 2433   2.406   3.091   1.858 -1.0143  2.7136 -0.1014
  812SOL     OW 2434   1.755   2.094   0.054 -0.2660  0.2174  0.0360
  812SOL    HW1 2435   1.664   2.133   0.090 -3.0860  1.9656 -0.9221
  812SOL    HW2 2436   1.831   2.085   0.123  1.8482  2.3829 -1.5560
  813SOL     OW 2437   1.200   0.648   1.601  0.0053 -0.3144 -0.6956
  813SOL    HW1 2438   1.125   0.592   1.563 -0.8123  1.5503  2.9877
  813SOL    HW2 2439   1.279   0.658   1.535 -2.6466 -0.4692  1.4248
  814SOL     OW 2440   0.423   0.303   1.168 -0.3682 -0.3697 -0.3625
  814SOL    HW1 2441   0.502   0.343   1.224 -0.4991  0.6258 -0.1932
  814SOL    HW2 2442   0.373   0.232   1.220  2.6757 -0.1413 -2.7794
  815SOL     OW 2443   0.567   0.331   0.515 -0.3473 -0.0362 -0.0854
  815SOL    HW1 2444   0.585   0.345   0.418  0.3540  1.1761  1.3880
  815SOL    HW2 2445   0.470   0.354   0.533  0.1347 -0.2593 -2.6000
  816SOL     OW 2446   2.224   1.471   2.492 -0.4666 -0.1660  0.4149
  816SOL    HW1 2447   2.237   1.374   2.460  1.9305  0.5787 -1.6236
  816SOL    HW2 2448   2.314   1.514   2.494 -2.8855 -2.6464 -0.3568
  817SOL     OW 2449   1.097   2.798   0.619  0.2494  0.0294  0.0790
  817SOL    HW1 2450   1.078   2.697   0.606  0.1779  0.0595  0.4833
  817SOL    HW2 2451   1.158   2.831   0.542  0.2999 -0.7356 -1.3381
  818SOL     OW 2452   1.719   0.553   2.917  0.0840 -0.2627  0.5178
  818SOL    HW1 2453   1.765   0.600   2.837  1.1492 -0.9028 -2.2885
  818SOL    HW2 2454   1.760   0.599   3.004  0.0225  1.5773  2.2297
  819SOL     OW 2455   1.902   0.113   3.089  0.0679  0.1133  0.4228
  819SOL    HW1 2456   1.921   0.013   3.089 -2.0772 -0.7186 -0.6962
  819SOL    HW2 2457   1.947   0.159   3.017 -1.9148 -0.4724  1.3143
  820SOL     OW 2458   1.945   0.496   0.018 -0.3691 -0.0226  0.2571
  820SOL    HW1 2459   1.963   0.595   0.007 -1.7907  0.8687 -1.1681
  820SOL    HW2 2460   1.981   0.446   3.045  1.5576 -2.7342 -3.5152
  821SOL     OW 2461   2.742   0.343   0.708 -0.3200 -0.2750 -0.1905
  821SOL    HW1 2462   2.832   0.388   0.720 -0.4618  0.0625 -1.0911
  821SOL    HW2 2463   2.740   0.269   0.637 -0.6562 -1.9752  3.1637
  822SOL     OW 2464   0.922   2.409   2.099 -0.1286  0.3311  0.1151
  822SOL    HW1 2465   0.897   2.466   2.176 -2.0501 -0.8453  0.0193
  822SOL    HW2 2466   0.863   2.325   2.089  0.0518  0.2867 -0.6037
  823SOL     OW 2467   0.231   1.686   1.802  0.0050  0.1875 -0.2866
  823SOL    HW1 2468   0.304   1.706   1.865  1.6642  0.7958 -0.6125
  823SOL    HW2 2469   0.149   1.647   1.852 -0.7116 -0.9289  3.7036
  824SOL     OW 2470   1.418   2.841   2.443 -0.2401 -0.1049 -0.7871
  824SOL    HW1 2471   1.513   2.801   2.447  6.2522 -1.2540 -0.0811
  824SOL    HW2 2472   1.378   2.859   2.535 -2.0371  2.8907  0.3053
  825SOL     OW 2473   1.603   0.693   0.593  0.4092  0.0462  0.2981
  825SOL    HW1 2474   1.663   0.642   0.530 -0.3502 -0.6004 -0.8085
  825SOL    HW2 2475   1.658   0.721   0.674 -3.5319 -2.0985 -0.2977
  826SOL     OW 2476   1.941   0.768   0.011 -0.6301 -0.2070  0.0775
  826SOL    HW1 2477   1.959   0.782   0.110  0.4802  1.7090 -0.2956
  826SOL    HW2 2478   1.951   0.850   3.066 -0.6397 -2.4289  1.1714
  827SOL     OW 2479   0.468   1.849   2.145  0.1146 -0.0169  0.1251
  827SOL    HW1 2480   0.411   1.929   2.108 -1.3059  2.7060  0.0617
  827SOL    HW2 2481   0.436   1.831   2.240  2.2576  0.2801 -0.3892
  828SOL     OW 2482   2.450   1.285   1.572  0.0330 -0.7322  0.3150
  828SOL    HW1 2483   2.461   1.297   1.676  1.5087 -0.8103  0.6251
  828SOL    HW2 2484   2.498   1.205   1.539 -4.2008  0.0857 -0.8653
  829SOL     OW 2485   0.369   1.682   0.351  0.2449  0.4388 -0.0286
  829SOL    HW1 2486   0.327   1.590   0.361 -0.5182  0.5914  0.7611
  829SOL    HW2 2487   0.301   1.752   0.388  0.2114  3.8888  0.8733
  830SOL     OW 2488   1.371   0.886   0.758 -0.0737  0.5213  0.0866
  830SOL    HW1 2489   1.294   0.908   0.695 -1.0703 -1.6855 -2.1420
  830SOL    HW2 2490   1.381   0.785   0.778 -0.2646  0.5790 -0.0345
  831SOL     OW 2491   2.844   1.731   0.106 -0.0069  0.1312  0.1409
  831SOL    HW1 2492   2.769   1.796   0.109  2.3367 -1.8781  0.7769
  831SOL    HW2 2493   2.814   1.649   0.155  2.8980 -0.4199 -2.2950
  832SOL     OW 2494   0.835   0.282   3.059  0.0380 -0.8225  0.4730
  832SOL    HW1 2495   0.834   0.365   0.011  0.6011  1.2479  1.2537
  832SOL    HW2 2496   0.790   0.202   3.109 -2.2218 -3.2443  2.1268
  833SOL     OW 2497   0.585   0.690   2.264  0.4674 -0.0828 -0.0203
  833SOL    HW1 2498   0.687   0.674   2.253  1.7735  0.3513  3.1325
  833SOL    HW2 2499   0.542   0.598   2.266 -0.0467 -1.2813 -1.0026
  834SOL     OW 2500   0.282   0.417   0.757 -0.3658  0.0716 -0.2381
  834SOL    HW1 2501   0.266   0.324   0.802 -0.6084 -2.9459  1.1923
  834SOL    HW2 2502   0.294   0.399   0.657  1.5970  1.7439  0.6688
  835SOL     OW 2503   2.673   2.914   1.162  0.1345 -0.2876 -0.0772
  835SOL    HW1 2504   2.642   2.984   1.230  1.4105 -1.2963 -0.1960
  835SOL    HW2 2505   2.661   2.945   1.067  0.1680  0.6990 -0.6195
  836SOL     OW 2506   0.352   1.960   0.147  0.2969  0.3515  0.0014
  836SOL    HW1 2507   0.291   2.039   0.137  0.4582 -2.0466  1.9963
  836SOL    HW2 2508   0.345   1.930   0.244  1.5788  0.5735  0.7946
  837SOL     OW 2509   1.731   1.452   2.321  0.1527 -0.3148  0.1126
  837SOL    HW1 2510   1.709   1.532   2.263  2.0799  1.8514 -1.2607
  837SOL    HW2 2511   1.830   1.443   2.332 -2.8489  1.8833 -0.9612
  838SOL     OW 2512   0.559   0.785   1.609 -0.0739  0.0247 -0.0945
  838SOL    HW1 2513   0.625   0.812   1.533  1.4033 -2.8497 -0.2783
  838SOL    HW2 2514   0.601   0.824   1.694 -0.4242  1.1506 -1.5478
  839SOL     OW 2515   0.580   1.347   1.007 -0.3587 -0.4286  0.9289
  839SOL    HW1 2516   0.515   1.352   1.084  1.4778  0.3121 -0.2179
  839SOL    HW2 2517   0.545   1.297   0.926 -0.8335 -0.0382 -1.6247
  840SOL     OW 2518   2.165   0.186   1.794 -0.4577 -0.0289  0.2411
  840SOL    HW1 2519   2.086   0.133   1.762 -1.9467  0.6842  0.4504
  840SOL    HW2 2520   2.138   0.248   1.875 -1.4437  2.1525  2.3463
  841SOL     OW 2521   0.458   2.399   0.406  0.4252 -0.0776  0.2699
  841SOL    HW1 2522   0.558   2.403   0.430 -1.9058 -0.8340  1.2827
  841SOL    HW2 2523   0.446   2.431   0.314  1.0474 -0.7452  2.7405
  842SOL     OW 2524   0.349   0.190   0.936 -0.1683 -0.4075 -0.4230
  842SOL    HW1 2525   0.392   0.248   1.010  0.3843 -0.6158 -0.9576
  842SOL    HW2 2526   0.415   0.156   0.872  0.7401  1.8763  2.3658
  843SOL     OW 2527   0.132   1.437   2.986 -0.5004 -0.7232  0.6311
  843SOL    HW1 2528   0.220   1.471   3.026  0.3334 -2.6540 -1.7330
  843SOL    HW2 2529   0.106   1.343   3.019  0.0521 -1.0192 -1.2360
  844SOL     OW 2530   1.096   2.412   0.073  0.1630 -0.4511  0.1751
  844SOL    HW1 2531   1.046   2.354   0.008 -0.3114  1.2547  0.1097
  844SOL    HW2 2532   1.102   2.511   0.044  0.1122  0.5207 -0.9874
  845SOL     OW 2533   2.548   2.895   2.439  0.2638  0.3861 -0.2906
  845SOL    HW1 2534   2.628   2.881   2.371 -1.0843 -0.4239 -3.1062
  845SOL    HW2 2535   2.460   2.890   2.389 -0.8652  0.6730 -1.8322
  846SOL     OW 2536   2.156   1.884   3.085 -0.3573 -0.4700 -0.0557
  846SOL    HW1 2537   2.139   1.944   3.003 -0.5472  0.2513 -2.2766
  846SOL    HW2 2538   2.074   1.821   3.079  0.2008 -3.2973  0.3110
  847SOL     OW 2539   2.584   0.117   3.065 -0.3313 -0.7682 -0.5310
  847SOL    HW1 2540   2.487   0.123   3.037 -1.7655 -0.4668  0.4623
  847SOL    HW2 2541   2.616   0.208   3.100  1.4572 -0.1116  1.7530
  848SOL     OW 2542   0.344   0.682   0.794  0.0147  0.1829  0.5073
  848SOL    HW1 2543   0.369   0.708   0.889 -1.5003  1.8006 -1.1976
  848SOL    HW2 2544   0.315   0.582   0.789 -1.5654 -1.8406 -1.1843
  849SOL     OW 2545   1.492   2.879   1.795 -0.0920 -0.0360 -0.1561
  849SOL    HW1 2546   1.465   2.855   1.890  1.1723 -1.1045  1.1952
  849SOL    HW2 2547   1.424   2.843   1.726 -0.4790 -0.3302  0.6269
  850SOL     OW 2548   0.628   1.656   0.341 -0.4824 -0.0120 -0.2671
  850SOL    HW1 2549   0.528   1.669   0.339  1.1998  0.0516 -1.6060
  850SOL    HW2 2550   0.656   1.617   0.253 -1.4568 -2.1167  0.2642
  851SOL     OW 2551   0.298   1.417   0.420  0.1427 -0.7237  0.2635
  851SOL    HW1 2552   0.362   1.443   0.494  0.9077 -1.0132 -2.2420
  851SOL    HW2 2553   0.278   1.319   0.411 -1.8448 -1.3288 -2.1455
  852SOL     OW 2554   1.602   2.598   1.752 -0.3283 -0.1028  0.3976
  852SOL    HW1 2555   1.521   2.545   1.715 -2.5289  1.7893 -3.4804
  852SOL    HW2 2556   1.581   2.696   1.761 -0.4838  0.0044  0.4875
  853SOL     OW 2557   2.934   1.253   0.064 -0.5344  0.1781 -0.1890
  853SOL    HW1 2558   2.952   1.308   3.092 -1.0995 -3.3662  1.2727
  853SOL    HW2 2559   3.005   1.278   0.137  1.9847  1.7764  0.1306
  854SOL     OW 2560   1.609   1.189   1.934 -0.0711  0.7458  0.2522
  854SOL    HW1 2561   1.570   1.231   2.021 -2.1684 -1.8936 -1.4733
  854SOL    HW2 2562   1.536   1.164   1.867  1.8148  1.2452  1.9363
  855SOL     OW 2563   0.363   2.308   3.009  0.5275  0.2752  0.2553
  855SOL    HW1 2564   0.301   2.238   3.051  1.0930  0.9362 -2.5998
  855SOL    HW2 2565   0.311   2.364   2.950  0.8225 -1.8992  1.1872
  856SOL     OW 2566   0.270   0.939   1.696 -0.1275  0.4207 -0.3476
  856SOL    HW1 2567   0.272   0.899   1.788  1.0667 -1.3876 -3.2955
  856SOL    HW2 2568   0.358   0.917   1.648 -0.3407  1.2098 -0.8979
  857SOL     OW 2569   1.221   1.123   2.089  0.1028 -0.0308 -0.5693
  857SOL    HW1 2570   1.218   1.148   2.186  0.2837  1.2108 -3.3047
  857SOL    HW2 2571   1.144   1.172   2.039 -2.3037 -0.6530  0.0272
  858SOL     OW 2572   0.271   1.558   2.566 -0.4075 -0.2704 -0.5953
  858SOL    HW1 2573   0.215   1.577   2.651  0.2827  1.9836  3.4895
  858SOL    HW2 2574   0.267   1.463   2.530 -2.8024  1.1530  0.3089
  859SOL     OW 2575   2.612   3.059   0.923 -0.8458  0.2106 -0.1412
  859SOL    HW1 2576   2.551   0.023   0.886  1.6270 -1.9784  1.0496
  859SOL    HW2 2577   2.707   3.094   0.934  2.1436 -0.3656  1.6711
  860SOL     OW 2578   2.225   3.020   3.109 -0.1474  0.3382  0.2775
  860SOL    HW1 2579   2.217   3.091   0.073 -0.4101 -0.4337  0.1344
  860SOL    HW2 2580   2.304   2.948   0.009  1.1358 -1.6415  2.1185
  861SOL     OW 2581   0.672   0.604   0.692 -0.0050  0.1290  0.0759
  861SOL    HW1 2582   0.626   0.550   0.765  2.4950 -1.2396 -0.2829
  861SOL    HW2 2583   0.606   0.640   0.623  0.8936 -1.9780  2.2887
  862SOL     OW 2584   1.518   0.452   2.110 -0.2382 -0.1105 -0.4789
  862SOL    HW1 2585   1.583   0.509   2.047 -1.0124  0.1835 -1.0376
  862SOL    HW2 2586   1.519   0.486   2.210  1.2539 -0.6836  3.9120
  863SOL     OW 2587   2.561   2.237   0.970 -0.0274  0.1353 -0.0881
  863SOL    HW1 2588   2.497   2.262   1.045 -1.2529 -0.3694  0.9656
  863SOL    HW2 2589   2.516   2.217   0.884  4.5871  0.3308  4.3832
  864SOL     OW 2590   2.670   0.048   2.085  0.1524  0.8562 -0.4157
  864SOL    HW1 2591   2.603   3.099   2.130  0.1044  0.6147 -1.2833
  864SOL    HW2 2592   2.759   0.040   2.135  0.8455 -2.4284 -0.9345
  865SOL     OW 2593   1.289   0.673   1.853 -0.2246  0.0016  0.6332
  865SOL    HW1 2594   1.282   0.591   1.916 -2.6719  0.3697  0.5051
  865SOL    HW2 2595   1.268   0.658   1.754 -1.2768 -1.6177  1.0911
  866SOL     OW 2596   1.925   2.857   1.107 -0.2688 -0.0618 -0.2482
  866SOL    HW1 2597   2.017   2.881   1.145  0.0405  1.7929  0.1324
  866SOL    HW2 2598   1.909   2.905   1.016  1.2830  1.0000 -1.8523
  867SOL     OW 2599   2.763   2.366   0.730 -0.5238 -0.5701  0.1862
  867SOL    HW1 2600   2.765   2.464   0.692  0.4943  5.1709 -1.9682
  867SOL    HW2 2601   2.774   2.363   0.829 -1.5967 -0.0275 -3.0583
  868SOL     OW 2602   0.493   2.322   1.553  0.4242  0.0816 -0.6733
  868SOL    HW1 2603   0.391   2.329   1.555  0.1302  1.6156  2.7001
  868SOL    HW2 2604   0.523   2.261   1.475 -1.6909 -1.6914 -1.5101
  869SOL     OW 2605   2.435   2.392   3.065  0.1647 -0.1832 -0.3144
  869SOL    HW1 2606   2.506   2.421   3.002 -2.3405  4.5693  0.4884
  869SOL    HW2 2607   2.406   2.470   0.011  1.9507 -1.2692  2.2676
  870SOL     OW 2608   1.854   1.756   1.026  0.0152  0.1094  0.7417
  870SOL    HW1 2609   1.912   1.800   0.955  3.4377  1.2539 -2.1156
  870SOL    HW2 2610   1.903   1.671   1.055  0.2324  1.8312 -1.6059
  871SOL     OW 2611   0.199   1.925   1.680  0.5002 -0.4857 -0.2173
  871SOL    HW1 2612   0.213   1.834   1.719  0.3189  0.6600 -1.2434
  871SOL    HW2 2613   0.255   1.998   1.727 -1.6500  1.4279 -1.4398
  872SOL     OW 2614   0.443   1.580   2.361  0.0353  0.2975 -0.6808
  872SOL    HW1 2615   0.545   1.588   2.348 -0.3300  1.8997 -1.2849
  872SOL    HW2 2616   0.407   1.580   2.458  1.5457  1.5882  0.4650
  873SOL     OW 2617   1.203   2.163   1.864 -0.3552 -0.2680 -0.1241
  873SOL    HW1 2618   1.227   2.087   1.927  0.0243  3.0772 -0.1893
  873SOL    HW2 2619   1.106   2.191   1.874 -1.5070  1.7114  0.5174
  874SOL     OW 2620   1.456   1.083   1.701  0.5200  0.2757 -0.1527
  874SOL    HW1 2621   1.371   1.140   1.678 -5.1173  3.5718  0.7036
  874SOL    HW2 2622   1.438   0.995   1.749 -1.0582  1.6312  0.5206
  875SOL     OW 2623   2.775   2.765   0.919 -0.8816 -0.6315  0.3328
  875SOL    HW1 2624   2.808   2.819   0.998 -0.8998  0.8939 -1.5995
  875SOL    HW2 2625   2.762   2.667   0.929 -1.3136  3.1723  0.4668
  876SOL     OW 2626   1.209   1.183   0.381  0.2571  0.2744 -0.0622
  876SOL    HW1 2627   1.251   1.222   0.294  2.4457 -1.6029  1.2668
  876SOL    HW2 2628   1.110   1.212   0.385  0.3729 -2.2373 -2.2448
  877SOL     OW 2629   2.756   0.227   0.951 -0.0927  0.3784 -0.4692
  877SOL    HW1 2630   2.816   0.143   0.943  0.2448  2.2338  4.3555
  877SOL    HW2 2631   2.758   0.287   0.870 -4.1331 -0.7856  1.2169
  878SOL     OW 2632   2.133   1.495   0.250 -0.2056  0.6752  0.1839
  878SOL    HW1 2633   2.044   1.537   0.282 -3.4600  0.9496 -4.2700
  878SOL    HW2 2634   2.193   1.572   0.229 -2.0144 -0.6018 -1.8878
  879SOL     OW 2635   2.546   1.867   1.080 -0.1257 -0.8695 -0.0985
  879SOL    HW1 2636   2.515   1.942   1.017  0.5477 -1.4101  0.6608
  879SOL    HW2 2637   2.620   1.811   1.041  1.4445 -0.9839  1.7184
  880SOL     OW 2638   0.283   2.509   0.895  0.1268 -0.1507  0.1509
  880SOL    HW1 2639   0.186   2.541   0.913 -0.3504  0.7642 -1.2199
  880SOL    HW2 2640   0.287   2.475   0.801 -0.8135  1.2532 -1.5989
  881SOL     OW 2641   1.072   0.943   0.690  0.0110 -0.2534 -0.3974
  881SOL    HW1 2642   0.976   0.974   0.681  2.3599 -1.9598  0.6805
  881SOL    HW2 2643   1.081   0.911   0.787  1.0179  2.4337  2.5667
  882SOL     OW 2644   2.436   1.016   3.047  0.1940  0.2616 -0.8614
  882SOL    HW1 2645   2.361   1.084   3.030 -3.3428 -0.6840 -0.5077
  882SOL    HW2 2646   2.530   1.054   3.046  1.0261  1.1181 -0.2413
  883SOL     OW 2647   1.314   3.079   1.698 -0.2689  0.0238 -0.5160
  883SOL    HW1 2648   1.237   3.044   1.751 -0.2033 -0.7392  1.0099
  883SOL    HW2 2649   1.400   3.024   1.722  0.9301  0.0311 -0.8433
  884SOL     OW 2650   2.898   3.110   0.894  0.2006  0.0883  0.1230
  884SOL    HW1 2651   2.977   3.062   0.933 -0.6265 -1.0208 -0.6030
  884SOL    HW2 2652   2.906   0.001   0.794  1.1167  1.8134  0.5298
  885SOL     OW 2653   1.174   1.049   1.288 -0.5424 -0.7341  0.1483
  885SOL    HW1 2654   1.252   1.042   1.351  0.1478 -2.1175 -1.8664
  885SOL    HW2 2655   1.176   0.980   1.212 -2.6656 -1.4760 -0.7948
  886SOL     OW 2656   1.640   1.038   2.541 -0.0838 -0.5153 -0.2358
  886SOL    HW1 2657   1.643   1.046   2.439  2.5434  0.0526  1.4303
  886SOL    HW2 2658   1.655   0.944   2.572 -0.6266  1.2343 -0.8104
  887SOL     OW 2659   1.565   0.673   1.029  0.2766  0.8295 -0.5656
  887SOL    HW1 2660   1.475   0.663   0.976 -1.8616  0.3713 -1.0769
  887SOL    HW2 2661   1.566   0.747   1.100  2.1783 -0.4079  1.2992
  888SOL     OW 2662   2.179   1.597   1.870  0.1627 -0.5940 -0.5387
  888SOL    HW1 2663   2.163   1.496   1.859  0.1687  0.1180  0.1340
  888SOL    HW2 2664   2.276   1.615   1.894  1.0656 -0.3422 -2.0605
  889SOL     OW 2665   2.084   2.206   0.710 -0.2469 -0.3298 -0.0383
  889SOL    HW1 2666   2.157   2.242   0.775  1.6243  1.3571  0.8570
  889SOL    HW2 2667   1.994   2.239   0.739 -0.7252  0.4703 -0.1930
  890SOL     OW 2668   1.062   1.909   0.708 -0.7437 -0.9147 -0.4573
  890SOL    HW1 2669   1.127   1.829   0.705  3.1379  1.0578  0.5773
  890SOL    HW2 2670   0.975   1.885   0.752 -1.0652 -0.7554 -0.5665
  891SOL     OW 2671   2.628   0.585   2.511 -0.3913 -0.2285 -0.3748
  891SOL    HW1 2672   2.729   0.595   2.505  1.4679 -1.3885  2.9465
  891SOL    HW2 2673   2.596   0.502   2.461 -0.4881 -0.3569 -1.4753
  892SOL     OW 2674   1.102   0.673   2.252  0.2506 -0.2448  0.7932
  892SOL    HW1 2675   1.139   0.643   2.342 -2.0084 -2.5635  1.6280
  892SOL    HW2 2676   1.158   0.619   2.182 -1.2064  0.7598  2.5376
  893SOL     OW 2677   1.585   0.356   1.325  0.1898 -0.4252  0.0492
  893SOL    HW1 2678   1.618   0.267   1.356 -0.3002  1.8191  0.6072
  893SOL    HW2 2679   1.538   0.413   1.398 -0.0395  3.1822  0.3061
  894SOL     OW 2680   2.653   0.253   0.431  0.1311  0.3111 -0.7679
  894SOL    HW1 2681   2.624   0.159   0.467 -0.1072  0.9063  0.3655
  894SOL    HW2 2682   2.587   0.283   0.357  0.5432 -0.3055  1.5051
  895SOL     OW 2683   2.121   2.575   2.978  0.1888 -1.1207 -0.1880
  895SOL    HW1 2684   2.037   2.617   3.017  1.3927  0.7150 -1.0426
  895SOL    HW2 2685   2.195   2.574   3.044 -0.5290 -1.7931  0.4870
  896SOL     OW 2686   1.813   2.916   1.580  0.0425  0.1520  1.0367
  896SOL    HW1 2687   1.884   2.951   1.515 -0.1182  1.6902 -0.4156
  896SOL    HW2 2688   1.720   2.937   1.553  0.3310  0.4252  0.6132
  897SOL     OW 2689   0.113   2.257   1.784 -0.1368 -0.1714  0.3313
  897SOL    HW1 2690   0.137   2.284   1.687 -0.7547  0.3170  1.1712
  897SOL    HW2 2691   0.177   2.189   1.827 -0.9671 -1.5044 -0.7078
  898SOL     OW 2692   2.460   1.716   1.921 -0.0350  0.2109 -0.4615
  898SOL    HW1 2693   2.535   1.652   1.902  1.2434 -0.6689 -0.9295
  898SOL    HW2 2694   2.469   1.804   1.875 -2.0953 -0.2227 -1.8998
  899SOL     OW 2695   1.863   2.130   0.984  0.3966  0.0757  0.3046
  899SOL    HW1 2696   1.890   2.042   0.952  1.9798  3.4407 -0.0517
  899SOL    HW2 2697   1.848   2.204   0.909  1.0491 -0.4468 -2.5131
  900SOL     OW 2698   1.034   0.180   2.885  0.1667 -0.9128 -0.8637
  900SOL    HW1 2699   0.945   0.204   2.920  2.2635 -1.0194 -1.2579
  900SOL    HW2 2700   1.038   0.189   2.783  0.0683 -2.7122 -1.0115
  901SOL     OW 2701   1.136   1.779   2.375 -0.2844  0.3032 -0.8827
  901SOL    HW1 2702   1.236   1.785   2.394 -2.6485 -1.2893  0.3284
  901SOL    HW2 2703   1.117   1.819   2.283 -1.7976  2.2262 -2.0157
  902SOL     OW 2704   2.958   0.626   2.784 -0.0650  0.4665  0.1120
  902SOL    HW1 2705   3.046   0.645   2.822 -2.1128  1.0878 -2.7640
  902SOL    HW2 2706   2.930   0.529   2.803  2.6984 -1.3096 -0.0468
  903SOL     OW 2707   2.265   0.529   2.333 -0.7184  0.4873  0.1212
  903SOL    HW1 2708   2.250   0.625   2.358  1.3023 -2.5367 -2.2045
  903SOL    HW2 2709   2.293   0.523   2.237  1.0221  1.2443 -2.0551
  904SOL     OW 2710   1.583   0.794   2.202  0.6589  0.0065 -0.3064
  904SOL    HW1 2711   1.590   0.721   2.276  1.4317  1.7377 -1.7653
  904SOL    HW2 2712   1.632   0.886   2.223  1.8332  1.1561  1.9100
  905SOL     OW 2713   2.111   2.478   1.757 -0.0491 -0.3433  0.4694
  905SOL    HW1 2714   2.011   2.492   1.747 -0.2027 -0.8757  0.8040
  905SOL    HW2 2715   2.143   2.453   1.849  1.1676 -0.1997  0.2396
  906SOL     OW 2716   1.655   1.987   0.362  0.0604  0.4392 -0.3820
  906SOL    HW1 2717   1.754   2.008   0.349 -0.5367  0.7200 -1.7528
  906SOL    HW2 2718   1.598   2.069   0.342 -0.8529 -0.7997 -1.5396
  907SOL     OW 2719   1.277   2.819   0.857 -0.5536 -0.5102 -0.3088
  907SOL    HW1 2720   1.329   2.886   0.812 -2.5126 -3.3575 -0.5696
  907SOL    HW2 2721   1.195   2.802   0.803  2.5430 -0.4993 -0.2363
  908SOL     OW 2722   1.805   2.263   2.422  0.1060  0.3300  0.0963
  908SOL    HW1 2723   1.876   2.284   2.491  0.5346 -0.0104 -1.9080
  908SOL    HW2 2724   1.853   2.213   2.349  2.5213  1.2690 -0.2689
  909SOL     OW 2725   2.095   0.378   1.982  0.3803 -0.2611 -0.1143
  909SOL    HW1 2726   2.013   0.421   2.023 -1.3274  0.4874 -0.0125
  909SOL    HW2 2727   2.180   0.402   2.032 -2.6020  1.6545  0.0118
  910SOL     OW 2728   1.024   0.601   2.790 -0.2728  0.2842  0.3109
  910SOL    HW1 2729   0.969   0.518   2.773 -1.4556 -0.8671  0.2603
  910SOL    HW2 2730   1.020   0.629   2.891 -2.2526  1.4194 -0.0386
  911SOL     OW 2731   0.046   0.784   0.203 -0.4210 -0.3346 -0.7894
  911SOL    HW1 2732   0.027   0.885   0.190  0.4169  0.5246 -0.2876
  911SOL    HW2 2733   3.096   0.748   0.273 -0.9252 -2.0885  1.1591
  912SOL     OW 2734   3.099   2.476   0.589 -0.1324 -0.2311 -0.0341
  912SOL    HW1 2735   3.104   2.377   0.618  1.4642  0.6408 -0.5292
  912SOL    HW2 2736   0.084   2.491   0.558 -1.1906 -0.5630 -1.1898
  913SOL     OW 2737   2.704   2.322   2.332 -0.4794  0.4381  0.4105
  913SOL    HW1 2738   2.699   2.257   2.257  1.5342  1.9673  1.9511
  913SOL    HW2 2739   2.743   2.273   2.415 -2.6663 -0.1999 -1.3710
  914SOL     OW 2740   1.331   2.105   1.319  0.0642 -0.3080 -0.0964
  914SOL    HW1 2741   1.316   2.013   1.359  1.4832  1.8869  0.4783
  914SOL    HW2 2742   1.345   2.085   1.222 -0.8504  0.8248  5.3481
  915SOL     OW 2743   0.383   2.744   2.079  0.4518  0.2619 -0.8318
  915SOL    HW1 2744   0.457   2.726   2.014 -1.1338  2.8588 -1.6032
  915SOL    HW2 2745   0.394   2.836   2.125 -2.5116  1.2277 -3.1429
  916SOL     OW 2746   0.754   0.246   1.582  0.0857 -0.1430  0.1020
  916SOL    HW1 2747   0.855   0.230   1.580  0.1690 -1.3054 -0.3404
  916SOL    HW2 2748   0.729   0.276   1.676 -0.0626  0.0721  1.1219
  917SOL     OW 2749   2.561   0.686   0.322  0.1598 -0.4694  0.1157
  917SOL    HW1 2750   2.637   0.625   0.336 -1.9574 -1.1519 -0.4943
  917SOL    HW2 2751   2.476   0.636   0.302 -1.4368  1.4030  1.8526
  918SOL     OW 2752   1.822   2.192   2.918  0.3774 -0.0802  0.0903
  918SOL    HW1 2753   1.827   2.294   2.913 -0.4552  0.9028  1.5170
  918SOL    HW2 2754   1.794   2.170   3.012  1.2621  4.4400 -0.4178
  919SOL     OW 2755   1.628   2.893   1.216 -0.1182 -0.2477 -0.2905
  919SOL    HW1 2756   1.679   2.966   1.163  1.1282 -2.2734 -0.4950
  919SOL    HW2 2757   1.688   2.814   1.218 -0.6771  0.2704  0.2587
  920SOL     OW 2758   1.005   0.405   2.444 -0.1761 -0.0038  0.2506
  920SOL    HW1 2759   1.016   0.325   2.502  0.3648  1.7418 -2.4636
  920SOL    HW2 2760   1.065   0.481   2.481  1.4884  1.6049  0.4502
  921SOL     OW 2761   0.011   0.740   2.998 -0.1006  0.2305 -0.0353
  921SOL    HW1 2762   3.041   0.799   2.975  1.8397  1.3250 -0.2999
  921SOL    HW2 2763   0.004   0.699   3.094 -1.6206  0.7537  3.3073
  922SOL     OW 2764   0.273   2.105   1.085 -0.3791 -0.1877 -0.7351
  922SOL    HW1 2765   0.337   2.025   1.089 -0.3863 -2.2710 -0.1758
  922SOL    HW2 2766   0.330   2.183   1.046  2.1609  0.5106 -0.3013
  923SOL     OW 2767   0.774   1.530   1.966 -0.5303  0.0245  0.2417
  923SOL    HW1 2768   0.801   1.486   1.877 -1.6311 -1.4451  0.3071
  923SOL    HW2 2769   0.783   1.461   2.041 -0.2934 -2.4007  0.7945
  924SOL     OW 2770   1.713   2.640   2.787 -0.4351  0.1725  0.1285
  924SOL    HW1 2771   1.644   2.602   2.857 -0.3816 -0.6345  3.8221
  924SOL    HW2 2772   1.735   2.737   2.809  0.7274  1.9436  2.2535
  925SOL     OW 2773   2.752   1.448   0.865 -0.2625 -0.3836  0.2774
  925SOL    HW1 2774   2.665   1.401   0.852 -0.4202  1.6897 -1.2269
  925SOL    HW2 2775   2.770   1.456   0.967  1.5023  1.6434 -0.6839
  926SOL     OW 2776   2.068   0.662   1.387 -0.1672 -0.1409 -0.0407
  926SOL    HW1 2777   2.155   0.655   1.441 -0.5323  1.5298 -1.9542
  926SOL    HW2 2778   2.009   0.577   1.381  1.8851 -1.8893  1.3326
  927SOL     OW 2779   2.001   3.009   1.401 -0.2986  0.4175  0.3010
  927SOL    HW1 2780   2.036   3.105   1.390 -0.1677 -0.7388 -2.0209
  927SOL    HW2 2781   2.050   2.952   1.327  2.4186 -1.8876 -2.0899
  928SOL     OW 2782   0.202   1.309   2.469  0.3972  0.1691  0.1980
  928SOL    HW1 2783   0.135   1.328   2.393  1.9604 -0.0142 -0.2823
  928SOL    HW2 2784   0.294   1.266   2.436  2.6437 -1.4712 -2.2008
  929SOL     OW 2785   2.400   0.906   1.614  0.3147  0.2551 -0.0224
  929SOL    HW1 2786   2.309   0.948   1.591  0.2426 -1.7787 -0.4352
  929SOL    HW2 2787   2.479   0.967   1.582  2.0143 -1.3564 -0.6937
  930SOL     OW 2788   2.851   2.482   2.042  0.3081 -0.4260  0.8534
  930SOL    HW1 2789   2.890   2.529   2.123  0.5853  0.7622  0.0703
  930SOL    HW2 2790   2.745   2.476   2.042  0.4219 -2.1196 -0.7334
  931SOL     OW 2791   1.736   1.031   1.359 -0.1990 -0.7626  0.0118
  931SOL    HW1 2792   1.684   1.066   1.437  1.1790 -1.1625 -1.8457
  931SOL    HW2 2793   1.748   1.111   1.293  0.5287  2.2847 -0.2611
  932SOL     OW 2794   0.599   1.215   1.873 -0.3450 -0.3516 -0.1696
  932SOL    HW1 2795   0.586   1.173   1.964  1.1062 -0.7166 -1.7557
  932SOL    HW2 2796   0.696   1.195   1.850 -0.4497 -1.3386  1.5719
  933SOL     OW 2797   2.759   2.006   1.750  0.0403 -0.3399 -0.0709
  933SOL    HW1 2798   2.744   2.035   1.652 -3.2467  0.9345  1.5234
  933SOL    HW2 2799   2.841   1.948   1.760 -1.5359  4.0293 -1.0787
  934SOL     OW 2800   0.606   2.113   1.758  0.5087  0.4379  0.3781
  934SOL    HW1 2801   0.708   2.094   1.761 -0.1126 -0.1811 -0.3027
  934SOL    HW2 2802   0.584   2.192   1.699 -2.2696 -0.0356  0.5133
  935SOL     OW 2803   3.058   1.685   1.542  0.5122  0.1197 -0.2496
  935SOL    HW1 2804   3.028   1.754   1.609  0.7202 -0.5460 -0.8711
  935SOL    HW2 2805   0.050   1.684   1.536  1.6731 -0.6197 -1.8309
  936SOL     OW 2806   2.886   1.296   1.317  0.0042 -0.1769  0.7364
  936SOL    HW1 2807   2.886   1.245   1.406 -0.4510 -0.4106 -0.8431
  936SOL    HW2 2808   2.922   1.237   1.243 -1.3659 -0.3221  1.3846
  937SOL     OW 2809   1.909   0.420   1.380 -0.8337  0.4105  0.3071
  937SOL    HW1 2810   1.962   0.336   1.359 -0.1746  0.6044 -1.3005
  937SOL    HW2 2811   1.839   0.430   1.309 -0.2136 -1.3529  1.7575
  938SOL     OW 2812   0.460   2.835   0.065 -0.2694 -0.0926  0.0439
  938SOL    HW1 2813   0.396   2.802   0.141  1.6388  2.8426 -1.7125
  938SOL    HW2 2814   0.403   2.886   3.109 -0.3660  0.9127 -1.6330
  939SOL     OW 2815   2.842   2.197   2.510  0.3422  0.1971 -0.0759
  939SOL    HW1 2816   2.892   2.118   2.487 -1.8932  0.2994  2.5588
  939SOL    HW2 2817   2.863   2.239   2.598  0.4959 -0.3230 -1.8421
  940SOL     OW 2818   1.654   1.822   0.574  0.5011  0.3981 -0.2159
  940SOL    HW1 2819   1.578   1.756   0.569  0.7792  1.6634  0.8221
  940SOL    HW2 2820   1.651   1.880   0.489 -1.2912 -0.2488 -0.1660
  941SOL     OW 2821   2.319   2.596   0.086 -0.5674  0.3006  0.3249
  941SOL    HW1 2822   2.271   2.566   0.174 -0.7563  1.9456 -0.5343
  941SOL    HW2 2823   2.342   2.695   0.081  2.7950  0.4211 -0.6531
  942SOL     OW 2824   2.043   2.280   1.135  0.8612  0.3553  0.1425
  942SOL    HW1 2825   1.968   2.226   1.091  1.1366  0.0209 -0.3164
  942SOL    HW2 2826   2.020   2.372   1.160  0.9988 -2.3669  1.0575
  943SOL     OW 2827   2.185   1.067   1.772  0.2725 -0.1744 -0.0925
  943SOL    HW1 2828   2.195   1.068   1.672 -0.8920 -1.7894 -0.1649
  943SOL    HW2 2829   2.273   1.074   1.821 -1.1174  1.9646  1.6617
  944SOL     OW 2830   1.486   0.870   1.919  0.2467  0.0941  0.6918
  944SOL    HW1 2831   1.517   0.891   2.014  1.8720 -0.4044 -0.3608
  944SOL    HW2 2832   1.454   0.774   1.914  0.9027 -0.0532  0.8907
  945SOL     OW 2833   2.425   2.341   1.468 -0.4840  0.1751  0.4461
  945SOL    HW1 2834   2.527   2.338   1.482  1.6190  1.2689 -2.1189
  945SOL    HW2 2835   2.379   2.287   1.545  0.0004 -2.2566  2.7837
  946SOL     OW 2836   0.161   0.876   0.650  0.1312  0.2549 -0.1473
  946SOL    HW1 2837   0.133   0.946   0.720 -0.2901  2.6638  0.5248
  946SOL    HW2 2838   0.203   0.792   0.695 -0.4784 -0.6193 -1.7387
  947SOL     OW 2839   1.827   2.625   1.597 -0.2715 -0.4355  0.0583
  947SOL    HW1 2840   1.739   2.596   1.640 -0.4712  1.8778 -0.2479
  947SOL    HW2 2841   1.838   2.725   1.602 -0.0028 -0.2667 -0.9692
  948SOL     OW 2842   0.447   1.756   0.830 -0.6596  0.3826  0.6360
  948SOL    HW1 2843   0.352   1.774   0.790 -0.5399  1.7961 -1.0967
  948SOL    HW2 2844   0.500   1.680   0.789  1.5825  0.7305 -1.8199
  949SOL     OW 2845   1.115   1.293   1.150  0.3111 -0.0749  0.1871
  949SOL    HW1 2846   1.033   1.300   1.092  2.0275 -1.9373  1.3839
  949SOL    HW2 2847   1.129   1.200   1.192  2.2183 -0.1851 -4.4366
  950SOL     OW 2848   0.255   0.731   1.091  0.2859 -0.2031  0.3663
  950SOL    HW1 2849   0.354   0.738   1.087 -1.2698  1.9624  1.8783
  950SOL    HW2 2850   0.220   0.726   1.191  2.6043 -1.8498  2.7068
  951SOL     OW 2851   0.971   2.127   2.308  0.0258 -0.0035 -0.1916
  951SOL    HW1 2852   0.906   2.160   2.238  3.7047  1.8608 -0.4155
  951SOL    HW2 2853   1.015   2.207   2.354  1.4081 -0.5617  1.5702
  952SOL     OW 2854   1.441   1.521   0.053  0.1212 -0.4566 -0.2149
  952SOL    HW1 2855   1.481   1.595   0.111  0.2818  3.2168  0.5679
  952SOL    HW2 2856   1.399   1.558   3.071 -1.4073  1.7958 -2.5368
  953SOL     OW 2857   1.060   3.052   3.010 -0.0332 -0.7079  0.2376
  953SOL    HW1 2858   1.151   3.055   3.055 -3.1717 -1.1691 -0.6227
  953SOL    HW2 2859   1.054   0.029   2.959  1.7477  2.0174 -1.6668
  954SOL     OW 2860   1.895   1.186   0.169  0.6828 -0.2076 -0.3454
  954SOL    HW1 2861   1.821   1.126   0.125  0.7031 -3.1396  0.1133
  954SOL    HW2 2862   1.869   1.188   0.270 -0.3368 -0.3390  2.3803
  955SOL     OW 2863   0.121   2.718   3.001  0.9336  0.5936  0.2093
  955SOL    HW1 2864   0.193   2.787   3.000  0.1875  1.5729 -0.6114
  955SOL    HW2 2865   0.146   2.642   2.940 -0.4658  0.7002 -1.9799
  956SOL     OW 2866   1.254   0.817   1.152 -0.2796 -0.0213  0.1609
  956SOL    HW1 2867   1.352   0.802   1.151  0.2625  0.5840 -2.8791
  956SOL    HW2 2868   1.208   0.742   1.197  1.5235 -1.5664 -1.8661
  957SOL     OW 2869   1.048   1.468   1.372 -0.6864 -0.3354  0.3804
  957SOL    HW1 2870   0.978   1.540   1.381 -1.7681 -0.7487 -0.2188
  957SOL    HW2 2871   1.051   1.424   1.280 -0.2673  0.7064  1.0221
  958SOL     OW 2872   0.627   1.955   0.766  0.3229 -0.3424 -0.2076
  958SOL    HW1 2873   0.561   1.882   0.793 -1.0355 -0.4803 -0.1092
  958SOL    HW2 2874   0.631   1.965   0.662 -0.9859 -1.1502 -2.4525
  959SOL     OW 2875   1.521   1.258   1.006  0.0296  0.1706  0.5767
  959SOL    HW1 2876   1.480   1.292   0.919 -0.7882 -0.4260 -1.6837
  959SOL    HW2 2877   1.471   1.296   1.086  0.7239  0.9867 -2.8295
  960SOL     OW 2878   0.135   1.143   3.034  0.6340 -0.2881  0.5593
  960SOL    HW1 2879   0.067   1.169   2.965  0.2138 -0.7564  2.0245
  960SOL    HW2 2880   0.184   1.061   3.001 -0.9077  2.9252  0.6139
  961SOL     OW 2881   0.736   1.520   1.148 -0.1391  0.0861 -0.6265
  961SOL    HW1 2882   0.665   1.479   1.085 -1.7335 -0.0365 -0.6095
  961SOL    HW2 2883   0.821   1.528   1.094  1.9130 -0.6032 -0.5703
  962SOL     OW 2884   0.798   0.973   0.708  0.7056  0.0289  0.5642
  962SOL    HW1 2885   0.783   1.064   0.664 -0.2040 -0.7398 -1.3340
  962SOL    HW2 2886   0.744   0.962   0.796  1.4717  0.4594  0.5719
  963SOL     OW 2887   1.390   1.810   2.457  0.1550 -0.3884  0.1009
  963SOL    HW1 2888   1.478   1.798   2.407  1.9628  1.6529  3.2858
  963SOL    HW2 2889   1.392   1.763   2.546  0.4645  1.4696 -1.4617
  964SOL     OW 2890   0.689   2.539   2.886  0.1975 -0.0671  0.0752
  964SOL    HW1 2891   0.731   2.500   2.802 -1.0943  0.6495  0.9878
  964SOL    HW2 2892   0.709   2.480   2.969 -1.5374 -0.7492  4.0631
  965SOL     OW 2893   0.367   2.492   0.152  0.1624  0.0971  0.5862
  965SOL    HW1 2894   0.456   2.536   0.146  1.8991  1.2865 -2.1978
  965SOL    HW2 2895   0.353   2.423   0.073 -0.6577 -2.8909 -1.4497
  966SOL     OW 2896   2.940   1.703   2.860  0.2098  0.1503 -0.3200
  966SOL    HW1 2897   2.908   1.632   2.925  0.2786 -1.7845  3.4038
  966SOL    HW2 2898   2.889   1.790   2.866  0.3227  0.0892 -1.5221
  967SOL     OW 2899   2.444   3.077   2.828  0.4272  0.1952  0.4432
  967SOL    HW1 2900   2.399   2.988   2.849 -1.7219 -0.6642 -0.4948
  967SOL    HW2 2901   2.389   0.041   2.876 -0.8037  2.4267 -1.4968
  968SOL     OW 2902   2.244   0.124   0.201 -0.2275 -0.1513 -0.4005
  968SOL    HW1 2903   2.330   0.178   0.213  1.0868 -0.8693 -1.7467
  968SOL    HW2 2904   2.228   0.067   0.280 -0.6624  0.7429 -1.2003
  969SOL     OW 2905   0.259   1.561   2.146  0.3411 -0.1914  0.4451
  969SOL    HW1 2906   0.291   1.483   2.091  0.1890  1.1971  1.5547
  969SOL    HW2 2907   0.333   1.598   2.207 -0.4592 -0.4514 -3.6718
  970SOL     OW 2908   1.384   1.360   0.751 -0.0749  0.0963  0.3771
  970SOL    HW1 2909   1.466   1.353   0.694  1.2766 -0.9050  1.9545
  970SOL    HW2 2910   1.318   1.292   0.713 -0.5245 -0.1652 -0.0658
  971SOL     OW 2911   2.285   0.037   1.121 -0.1130 -0.2415  0.0833
  971SOL    HW1 2912   2.335   0.041   1.210 -0.7864 -1.0254  1.6144
  971SOL    HW2 2913   2.262   0.129   1.097  1.0680 -1.7675 -0.5584
  972SOL     OW 2914   0.413   2.894   1.530 -0.2434  0.4868  0.2087
  972SOL    HW1 2915   0.498   2.845   1.520 -2.6577  0.0473 -1.2203
  972SOL    HW2 2916   0.420   2.992   1.518  2.5315 -1.3492  0.3140
  973SOL     OW 2917   0.483   0.363   2.851 -0.1054  0.5896  0.2825
  973SOL    HW1 2918   0.454   0.440   2.912 -1.6925  0.4116 -1.9184
  973SOL    HW2 2919   0.414   0.331   2.788  0.0311  3.0712  1.1083
  974SOL     OW 2920   2.376   1.434   2.037 -0.5607 -0.0378  0.7022
  974SOL    HW1 2921   2.306   1.371   2.070 -2.1923 -2.3617  2.6597
  974SOL    HW2 2922   2.447   1.449   2.108 -1.6309  0.3312  0.8001
  975SOL     OW 2923   0.101   0.109   1.345 -0.2342 -0.2314  0.0561
  975SOL    HW1 2924   0.202   0.092   1.325 -1.1961 -1.6724  1.1252
  975SOL    HW2 2925   0.048   0.035   1.306  5.3648 -0.4451  0.7045
  976SOL     OW 2926   0.802   1.937   2.422  0.3459 -0.5507  0.2234
  976SOL    HW1 2927   0.764   1.947   2.515  1.4247  1.7531 -0.3490
  976SOL    HW2 2928   0.877   2.008   2.404  0.0194 -1.7965 -1.1172
  977SOL     OW 2929   0.924   2.291   0.635 -0.0696 -0.3565 -0.9293
  977SOL    HW1 2930   0.909   2.343   0.724 -0.3506 -2.8884 -0.5590
  977SOL    HW2 2931   0.851   2.321   0.573 -0.9125  0.2638  1.9724
  978SOL     OW 2932   0.020   1.304   2.250  0.3102 -0.0500 -0.3415
  978SOL    HW1 2933   0.029   1.285   2.146  0.6207 -2.1611  0.5088
  978SOL    HW2 2934   0.003   1.403   2.278 -2.9334 -0.3169 -0.9514
  979SOL     OW 2935   1.546   2.980   1.478 -0.1154  0.1859  0.2609
  979SOL    HW1 2936   1.549   2.951   1.382 -2.3079  1.0923 -0.0783
  979SOL    HW2 2937   1.489   2.910   1.527 -0.0942  1.1984 -1.9769
  980SOL     OW 2938   1.305   1.371   2.333  0.2789  0.0327 -0.8674
  980SOL    HW1 2939   1.215   1.329   2.351 -2.2278  3.2078 -1.3732
  980SOL    HW2 2940   1.288   1.473   2.336 -2.0710  0.3134 -0.8278
  981SOL     OW 2941   2.547   0.278   1.756 -0.0182  0.9715 -0.3420
  981SOL    HW1 2942   2.477   0.347   1.738 -1.9743  0.7292 -0.0478
  981SOL    HW2 2943   2.508   0.186   1.746  2.5699  0.5502 -0.5906
  982SOL     OW 2944   0.060   0.347   2.786 -0.1218  0.2402 -0.2069
  982SOL    HW1 2945   3.070   0.330   2.811 -2.9558 -0.2087  3.7842
  982SOL    HW2 2946   0.103   0.407   2.856 -1.0236 -0.1117 -1.1383
  983SOL     OW 2947   2.521   0.814   2.420 -0.2924 -0.3969  0.4174
  983SOL    HW1 2948   2.418   0.802   2.423 -0.6315 -2.1131  4.5503
  983SOL    HW2 2949   2.562   0.728   2.447 -0.5672 -2.0063 -0.1901
  984SOL     OW 2950   1.027   0.073   2.006  0.4680  0.1743  0.2423
  984SOL    HW1 2951   1.063   0.078   2.102  0.6307  2.6535  0.8072
  984SOL    HW2 2952   0.949   0.009   2.014 -2.4301 -0.5437  2.8375
  985SOL     OW 2953   2.007   1.590   1.650  0.3253  0.4787 -0.2428
  985SOL    HW1 2954   1.992   1.502   1.606 -0.0721  1.0660 -0.0613
  985SOL    HW2 2955   2.066   1.577   1.729 -0.6937 -0.3668 -2.0244
  986SOL     OW 2956   2.515   0.714   1.776 -0.2983  0.1655  0.4493
  986SOL    HW1 2957   2.611   0.742   1.760 -1.1947  0.2904 -1.9233
  986SOL    HW2 2958   2.457   0.764   1.714 -1.1278 -0.4997 -2.0628
  987SOL     OW 2959   2.608   0.869   1.320  0.2865  0.1566  0.2133
  987SOL    HW1 2960   2.632   0.806   1.396 -1.3200 -0.0675 -3.9343
  987SOL    HW2 2961   2.509   0.870   1.299 -0.2430  0.6091 -1.1409
  988SOL     OW 2962   0.224   1.161   1.916  0.2060  0.3696 -0.3842
  988SOL    HW1 2963   0.318   1.192   1.895 -0.7170 -3.3131  0.4244
  988SOL    HW2 2964   0.168   1.132   1.835  0.1865 -0.7756  1.5177
  989SOL     OW 2965   1.944   1.607   0.385  0.6890  0.5406 -0.5821
  989SOL    HW1 2966   1.976   1.703   0.377  0.8829  0.1321  0.5761
  989SOL    HW2 2967   1.841   1.608   0.387  1.5938 -3.0045  1.2630
  990SOL     OW 2968   0.836   0.647   2.211  0.0921 -0.4637 -0.1835
  990SOL    HW1 2969   0.924   0.641   2.256 -2.4865 -1.0236  0.4560
  990SOL    HW2 2970   0.858   0.672   2.115  2.6463 -1.4117 -3.9049
  991SOL     OW 2971   1.192   1.183   0.643  0.2631 -0.2143  0.3817
  991SOL    HW1 2972   1.148   1.097   0.680  0.7969 -0.1331 -0.7757
  991SOL    HW2 2973   1.200   1.177   0.543 -1.4374  0.3535 -0.1397
  992SOL     OW 2974   2.074   0.897   0.495 -0.2421 -0.0305 -0.0868
  992SOL    HW1 2975   2.170   0.895   0.524 -1.5437  1.7351  2.8493
  992SOL    HW2 2976   2.019   0.969   0.545 -0.2141 -0.5615  1.0938
  993SOL     OW 2977   2.951   0.922   0.790  0.6516 -0.3969  0.2251
  993SOL    HW1 2978   2.970   0.908   0.888 -1.7307  2.5895 -2.4201
  993SOL    HW2 2979   2.978   0.840   0.736 -0.3499  2.0401  1.3967
  994SOL     OW 2980   0.143   2.137   2.496 -0.0529 -0.4594 -0.1022
  994SOL    HW1 2981   0.112   2.087   2.412 -2.2557 -3.1092 -0.8405
  994SOL    HW2 2982   0.142   2.074   2.577  0.7266 -1.0816  0.5606
  995SOL     OW 2983   1.638   1.244   2.712  0.1254  0.2054 -0.0125
  995SOL    HW1 2984   1.644   1.165   2.648  0.0851  3.0448  2.0636
  995SOL    HW2 2985   1.706   1.224   2.786  1.2972 -0.3816 -0.7829
  996SOL     OW 2986   2.559   1.217   0.295 -0.0388 -0.1628 -0.5465
  996SOL    HW1 2987   2.468   1.251   0.260 -1.8691  0.4060 -0.0302
  996SOL    HW2 2988   2.557   1.113   0.289  0.1057 -1.3999  0.8172
  997SOL     OW 2989   2.112   1.334   1.820 -0.1218  0.1010 -0.2105
  997SOL    HW1 2990   2.138   1.252   1.768  1.3780  0.4064 -3.3344
  997SOL    HW2 2991   2.129   1.313   1.921 -1.8257 -0.3210  2.2449
  998SOL     OW 2992   2.469   1.777   0.337 -0.4986 -0.3734 -0.5291
  998SOL    HW1 2993   2.376   1.805   0.311  3.6499 -0.2190  0.4373
  998SOL    HW2 2994   2.475   1.754   0.435 -0.4469 -0.1892  1.7781
  999SOL     OW 2995   2.987   2.388   0.144 -0.5808 -0.3291  0.8714
  999SOL    HW1 2996   2.916   2.368   0.217 -1.4133  1.7898 -1.4442
  999SOL    HW2 2997   2.963   2.485   0.111  1.3330  0.2657 -0.3203
 1000SOL     OW 2998   1.149   0.876   1.973 -0.1095  0.1383 -0.0401
 1000SOL    HW1 2999   1.229   0.819   1.940 -0.1942 -4.2100  0.3806
 1000SOL    HW2 3000   1.182   0.949   2.038  1.3211  1.6058 -1.5228
   3.10979   3.10979   3.10979
