1000 SPC/Fw water molecules t= 443.00000 step= 443000
 3000
    1SOL     OW    1   0.034   0.115   1.453 -0.2719  0.0677  0.0111
    1SOL    HW1    2   0.052   0.161   1.366  0.1149 -0.9617  1.0404
    1SOL    HW2    3   0.120   0.075   1.489 -0.0074 -1.2605 -0.8448
    2SOL     OW    4   2.904   3.126   0.058  0.3724  0.3575  0.1738
    2SOL    HW1    5   2.968   3.056   0.100  0.5531 -0.2035  0.1540
    2SOL    HW2    6   2.812   3.127   0.108 -0.9116  0.9771  2.6375
    3SOL     OW    7   1.296   2.787   0.085  0.0983  0.0299  0.3267
    3SOL    HW1    8   1.292   2.700   0.035  1.2635 -3.2257  2.5127
    3SOL    HW2    9   1.388   2.803   0.121 -1.8828 -0.3992  0.8093
    4SOL     OW   10   1.246   2.735   2.440  0.2372 -0.3172 -0.3170
    4SOL    HW1   11   1.275   2.638   2.424  0.7409 -1.3296  2.2867
    4SOL    HW2   12   1.214   2.747   2.537  0.6928 -1.2597  3.5810
    5SOL     OW   13   2.355   0.445   1.645 -0.5304 -0.0074  0.1605
    5SOL    HW1   14   2.389   0.537   1.619  0.7014 -0.2621 -1.2123
    5SOL    HW2   15   2.386   0.384   1.568 -2.2328  1.2462 -1.6756
    6SOL     OW   16   2.683   2.524   0.985 -0.8185  0.5299 -0.3226
    6SOL    HW1   17   2.781   2.528   0.960 -0.0611 -1.5612  0.9310
    6SOL    HW2   18   2.668   2.511   1.086  2.3291 -0.2594  1.1342
    7SOL     OW   19   1.440   1.904   0.627  0.3308 -0.3557 -0.2248
    7SOL    HW1   20   1.347   1.897   0.574 -1.6693  1.7746 -2.6065
    7SOL    HW2   21   1.450   1.839   0.702 -0.1102  2.0506 -0.8616
    8SOL     OW   22   0.393   0.950   0.817 -0.5083  0.1329  0.1180
    8SOL    HW1   23   0.455   1.031   0.836  2.6952  1.0304 -2.3173
    8SOL    HW2   24   0.443   0.885   0.756  1.5758 -1.3611  0.7831
    9SOL     OW   25   0.161   2.981   1.515 -0.3196  0.4509  0.4094
    9SOL    HW1   26   0.195   3.054   1.579 -0.9167 -0.8095 -0.0420
    9SOL    HW2   27   0.090   2.927   1.564 -0.5585 -0.7858  3.6899
   10SOL     OW   28   1.200   2.367   0.618  0.9084  0.3454 -0.3682
   10SOL    HW1   29   1.288   2.391   0.653 -0.8007 -0.4238 -3.8068
   10SOL    HW2   30   1.129   2.442   0.632  0.8173  0.5497 -1.8303
   11SOL     OW   31   2.184   1.681   1.218 -0.0983 -0.0207  0.2511
   11SOL    HW1   32   2.223   1.677   1.125  2.5922 -0.7550  1.1037
   11SOL    HW2   33   2.086   1.701   1.214 -0.1409  1.7674 -2.8727
   12SOL     OW   34   0.154   0.977   2.013 -0.3156 -0.2224 -0.2435
   12SOL    HW1   35   0.158   0.973   1.912 -0.8403  1.1093  0.7577
   12SOL    HW2   36   0.224   0.908   2.050  0.7763 -0.5386 -0.1052
   13SOL     OW   37   2.408   3.059   0.112  0.4009  0.0841 -0.2841
   13SOL    HW1   38   2.400   2.957   0.139 -1.0571 -3.0682  0.8446
   13SOL    HW2   39   2.325   3.080   0.052 -2.1297 -1.1048 -0.4740
   14SOL     OW   40   1.415   1.991   0.215 -0.2039  0.0804 -0.1212
   14SOL    HW1   41   1.375   1.969   0.305  1.0047 -2.1768  0.0382
   14SOL    HW2   42   1.409   2.089   0.190 -1.3999 -1.6837 -0.9027
   15SOL     OW   43   2.920   2.438   1.820 -0.6740 -0.5295 -0.1734
   15SOL    HW1   44   2.986   2.467   1.747  0.7787  0.2072  1.2766
   15SOL    HW2   45   2.921   2.509   1.891  0.6181 -2.2086  0.0358
   16SOL     OW   46   2.864   0.467   0.924  0.5551  0.3868 -0.7880
   16SOL    HW1   47   2.940   0.405   0.926  0.1260 -1.1971  1.3621
   16SOL    HW2   48   2.857   0.512   1.015 -1.0301 -0.1881 -1.3890
   17SOL     OW   49   0.920   0.178   0.953 -0.2319  0.1966 -0.3445
   17SOL    HW1   50   0.948   0.192   0.854 -0.1274 -0.2883  1.0230
   17SOL    HW2   51   0.889   0.082   0.978 -1.0651  0.6022  1.7961
   18SOL     OW   52   1.107   2.990   0.903  0.1948  0.0453 -0.2916
   18SOL    HW1   53   1.162   2.909   0.915 -1.7584 -0.2008 -0.4123
   18SOL    HW2   54   1.008   2.962   0.898 -0.2087  1.7254 -0.8149
   19SOL     OW   55   1.681   1.091   0.958  0.2415 -0.0301  0.5815
   19SOL    HW1   56   1.586   1.098   0.920  1.7271  0.3312 -1.6182
   19SOL    HW2   57   1.681   1.036   1.049 -1.5113 -3.6139  2.6775
   20SOL     OW   58   2.267   1.816   2.641  0.5587  0.6041  0.1200
   20SOL    HW1   59   2.167   1.797   2.629  0.8865 -0.0335  3.2234
   20SOL    HW2   60   2.283   1.904   2.679  1.2566 -2.8416 -2.7752
   21SOL     OW   61   1.561   3.001   0.448  0.1916  0.7467 -0.1080
   21SOL    HW1   62   1.534   2.932   0.380  1.2957  2.8394  2.7820
   21SOL    HW2   63   1.618   3.079   0.416 -2.1166 -0.4633  3.2606
   22SOL     OW   64   2.639   0.912   0.369 -0.1589 -0.0219 -0.1499
   22SOL    HW1   65   2.620   0.932   0.467  2.3058  0.0107  2.2700
   22SOL    HW2   66   2.576   0.962   0.305  1.4134 -0.0789 -0.7130
   23SOL     OW   67   0.867   0.218   1.808 -0.2681  0.2017 -0.0943
   23SOL    HW1   68   0.971   0.214   1.812 -0.2634 -1.8394  0.7855
   23SOL    HW2   69   0.830   0.308   1.775  1.0580 -0.3000 -1.8556
   24SOL     OW   70   1.931   2.436   0.542  0.1513  0.4605  0.1840
   24SOL    HW1   71   2.002   2.390   0.597 -2.0105 -0.6109 -0.4761
   24SOL    HW2   72   1.861   2.370   0.515  1.7821  2.1299 -0.9463
   25SOL     OW   73   1.946   0.138   2.502  0.3166  0.1265  0.4069
   25SOL    HW1   74   1.912   0.073   2.571  1.7839 -1.8284 -2.2349
   25SOL    HW2   75   1.899   0.120   2.409 -0.4887 -0.2413  1.2335
   26SOL     OW   76   1.489   2.772   2.808  0.0704  0.9750 -0.4713
   26SOL    HW1   77   1.567   2.770   2.875 -0.3005  1.3537  0.1546
   26SOL    HW2   78   1.479   2.680   2.763 -1.5294 -2.1026 -0.6581
   27SOL     OW   79   1.401   0.305   1.040 -0.3078  0.3585  0.3463
   27SOL    HW1   80   1.329   0.325   0.974 -2.7745 -0.6007 -1.8640
   27SOL    HW2   81   1.389   0.220   1.083  2.6507  1.5540 -3.6169
   28SOL     OW   82   0.569   1.579   0.916 -0.3454 -0.3247 -0.2089
   28SOL    HW1   83   0.602   1.498   0.971 -1.9354  1.7907 -0.9372
   28SOL    HW2   84   0.478   1.612   0.962 -0.7893  1.6358  1.2230
   29SOL     OW   85   2.497   0.548   1.279 -0.0496 -0.0183 -0.5541
   29SOL    HW1   86   2.543   0.596   1.203 -1.2577 -1.1032  0.5380
   29SOL    HW2   87   2.544   0.456   1.294  0.5166 -4.0970 -0.1021
   30SOL     OW   88   1.660   2.478   1.418 -0.0394  0.4143 -0.2580
   30SOL    HW1   89   1.689   2.380   1.410 -1.9649  1.6996 -0.1044
   30SOL    HW2   90   1.586   2.498   1.351  0.3296 -0.1032  1.1742
   31SOL     OW   91   1.680   2.850   1.352 -0.0291 -0.0805  0.0209
   31SOL    HW1   92   1.765   2.809   1.385 -1.4193  2.6334 -1.7772
   31SOL    HW2   93   1.681   2.856   1.252 -2.1173  2.5201 -0.2904
   32SOL     OW   94   2.066   1.456   2.116  0.5287  0.2109 -0.4700
   32SOL    HW1   95   2.102   1.396   2.040 -2.5435  0.5550 -1.1201
   32SOL    HW2   96   2.110   1.549   2.113  0.8387  0.0020  2.4934
   33SOL     OW   97   2.586   0.086   2.384  0.3144 -0.2724  0.3229
   33SOL    HW1   98   2.570   0.162   2.318 -0.2039  0.3105  1.0241
   33SOL    HW2   99   2.530   0.002   2.366 -0.2989 -2.0299 -1.2904
   34SOL     OW  100   2.050   0.450   0.704  0.4508  0.4801  0.2149
   34SOL    HW1  101   2.052   0.445   0.603 -1.8690 -0.6979 -1.9684
   34SOL    HW2  102   1.952   0.464   0.737 -0.4932 -0.5749  0.6564
   35SOL     OW  103   0.109   1.617   1.817  0.3590  0.3096  0.0698
   35SOL    HW1  104   0.112   1.526   1.768  2.1560 -1.8325 -0.6145
   35SOL    HW2  105   0.197   1.629   1.868  1.0726  1.2062 -0.5982
   36SOL     OW  106   2.563   2.175   2.714 -0.4929  0.5319  0.4718
   36SOL    HW1  107   2.619   2.097   2.753  1.5585  0.7033 -1.4251
   36SOL    HW2  108   2.614   2.263   2.711  0.5078  1.6237 -0.4202
   37SOL     OW  109   1.370   3.089   1.831 -0.0471 -0.0946  0.3502
   37SOL    HW1  110   1.427   0.045   1.836 -1.6239  0.8223 -0.9615
   37SOL    HW2  111   1.431   3.002   1.830  2.4937  0.2784 -1.3970
   38SOL     OW  112   1.004   0.590   2.492 -0.3490  0.4921  0.3306
   38SOL    HW1  113   1.071   0.661   2.520 -2.2287  3.6878 -2.2920
   38SOL    HW2  114   0.923   0.582   2.557 -1.5242  1.2741 -0.2734
   39SOL     OW  115   1.848   0.951   1.550 -0.4386  0.1364 -0.3265
   39SOL    HW1  116   1.952   0.957   1.571  1.6579 -1.3701  1.2874
   39SOL    HW2  117   1.841   0.932   1.450 -1.4434  1.2845 -2.7779
   40SOL     OW  118   0.927   2.318   0.932 -0.0261 -0.2825  0.1373
   40SOL    HW1  119   0.963   2.279   0.846  1.4421  0.5401  1.3736
   40SOL    HW2  120   0.941   2.254   1.010 -0.0087 -0.1539 -1.6840
   41SOL     OW  121   2.286   2.165   1.129  0.3844 -0.6816 -0.3114
   41SOL    HW1  122   2.216   2.236   1.156  1.0801  1.1469  0.9172
   41SOL    HW2  123   2.245   2.100   1.063  1.1640  2.0508 -0.4041
   42SOL     OW  124   2.691   0.349   0.270 -0.0576 -0.1378  0.3323
   42SOL    HW1  125   2.605   0.297   0.298 -1.0934 -0.3775  1.6418
   42SOL    HW2  126   2.697   0.368   0.171 -0.5801  1.0224  1.5214
   43SOL     OW  127   0.891   1.089   2.683  0.1237 -0.1278  0.2971
   43SOL    HW1  128   0.827   1.008   2.698  1.2997 -1.5723  0.0923
   43SOL    HW2  129   0.839   1.174   2.675  1.5928 -2.0680  0.9006
   44SOL     OW  130   1.890   2.662   1.440  0.1352  0.6059  1.0361
   44SOL    HW1  131   1.817   2.592   1.413 -3.5981  0.0593  0.5141
   44SOL    HW2  132   1.982   2.638   1.396 -1.7127 -0.1613 -0.1130
   45SOL     OW  133   0.819   2.626   2.899 -0.2728 -0.5613  0.3728
   45SOL    HW1  134   0.806   2.674   2.990  1.1334 -0.7679  0.6007
   45SOL    HW2  135   0.882   2.682   2.844 -1.1885 -2.5271 -1.0151
   46SOL     OW  136   0.512   2.611   2.068 -0.0794 -0.1026 -0.0327
   46SOL    HW1  137   0.539   2.708   2.063 -1.0585 -0.0430 -1.4500
   46SOL    HW2  138   0.519   2.575   2.163  0.2695 -1.9487 -1.3997
   47SOL     OW  139   0.598   2.071   0.733  0.1350  0.1315  0.4880
   47SOL    HW1  140   0.616   1.969   0.746  0.3385 -2.4116 -0.2168
   47SOL    HW2  141   0.498   2.092   0.740  0.0247 -0.7549  1.9315
   48SOL     OW  142   0.821   2.873   1.386  0.0288  0.5532 -0.2544
   48SOL    HW1  143   0.834   2.827   1.479  1.3008 -0.9288 -1.4037
   48SOL    HW2  144   0.814   2.808   1.309 -0.5144 -2.1613  0.0557
   49SOL     OW  145   2.980   2.822   2.834 -0.2218  0.0207  0.4362
   49SOL    HW1  146   2.893   2.813   2.778  0.8957  2.5257  3.1436
   49SOL    HW2  147   3.009   2.919   2.845 -0.7121  1.8486 -1.7977
   50SOL     OW  148   1.388   1.194   0.298 -0.2578  0.3084  0.6432
   50SOL    HW1  149   1.292   1.172   0.293  0.9839  0.1065 -0.2968
   50SOL    HW2  150   1.435   1.135   0.362 -3.2909  2.3989  0.9242
   51SOL     OW  151   2.008   0.035   0.551 -0.0470 -0.4221  0.0507
   51SOL    HW1  152   2.004   0.088   0.466  1.6818  1.6176 -1.0317
   51SOL    HW2  153   1.993   0.088   0.637  1.5786  0.7189 -1.4395
   52SOL     OW  154   0.616   1.803   0.759 -0.3576 -0.0063  0.0607
   52SOL    HW1  155   0.588   1.728   0.816  1.0632 -0.7168 -0.8165
   52SOL    HW2  156   0.711   1.797   0.725  0.9629 -1.6595 -0.5350
   53SOL     OW  157   0.408   1.165   2.918 -0.0508 -0.3191 -0.0601
   53SOL    HW1  158   0.311   1.140   2.895 -0.0931  1.6433  1.6636
   53SOL    HW2  159   0.415   1.177   3.018  0.9602  2.3667  1.7733
   54SOL     OW  160   2.469   1.991   3.073  0.7491 -0.2706  0.2919
   54SOL    HW1  161   2.547   1.951   3.125 -3.0740  1.1006 -0.3549
   54SOL    HW2  162   2.482   1.973   2.970 -1.1045  1.5379 -1.6642
   55SOL     OW  163   2.668   2.297   1.235  0.1648  0.5051  0.1373
   55SOL    HW1  164   2.655   2.276   1.335 -2.0439  0.5778 -0.4559
   55SOL    HW2  165   2.712   2.220   1.184 -0.0747 -0.0075 -3.1762
   56SOL     OW  166   1.628   0.116   1.663 -0.0533  0.3119 -0.0583
   56SOL    HW1  167   1.661   0.207   1.622  0.3901  1.2159 -0.7186
   56SOL    HW2  168   1.680   0.083   1.741 -1.7400 -0.2130 -4.2922
   57SOL     OW  169   1.921   1.729   1.151  0.2043 -0.0043 -0.1868
   57SOL    HW1  170   1.917   1.817   1.206 -0.5343 -0.4175  0.6674
   57SOL    HW2  171   1.862   1.655   1.193 -1.2060  0.2671  1.7401
   58SOL     OW  172   2.654   0.249   1.871  0.7206  0.8787  0.2562
   58SOL    HW1  173   2.609   0.337   1.899 -0.2054  0.4509 -0.8995
   58SOL    HW2  174   2.749   0.235   1.906  0.1636  0.2371 -2.4790
   59SOL     OW  175   1.081   2.531   2.202 -0.5213  0.5396  0.1623
   59SOL    HW1  176   1.032   2.600   2.255 -3.1179 -1.4285 -0.0190
   59SOL    HW2  177   1.030   2.511   2.110 -2.1160 -0.3389 -1.9911
   60SOL     OW  178   0.913   2.903   2.731  0.0682  0.1171 -0.3223
   60SOL    HW1  179   0.834   2.871   2.674  0.2894 -0.7897 -2.1892
   60SOL    HW2  180   0.887   2.914   2.829  0.2500  1.2607 -0.3024
   61SOL     OW  181   0.768   2.263   0.562 -0.7373  0.3468 -0.1539
   61SOL    HW1  182   0.740   2.273   0.467  0.4835 -4.0059  0.0343
   61SOL    HW2  183   0.709   2.200   0.617 -3.0024  2.0877  0.1815
   62SOL     OW  184   1.140   1.430   1.848 -0.1448  0.2348  0.3449
   62SOL    HW1  185   1.054   1.440   1.795  2.4047  1.0494 -0.7481
   62SOL    HW2  186   1.158   1.516   1.901 -1.0845  0.3396 -0.6990
   63SOL     OW  187   1.020   1.983   0.820 -0.2607 -0.4179  0.7029
   63SOL    HW1  188   0.982   1.910   0.760  3.1292  1.4149  1.7179
   63SOL    HW2  189   1.020   2.069   0.766  0.1876  1.1286 -0.9741
   64SOL     OW  190   1.344   1.542   2.930 -0.0214  0.5722  0.2055
   64SOL    HW1  191   1.256   1.591   2.941  0.3317  1.8008  0.3407
   64SOL    HW2  192   1.343   1.459   2.987 -1.9512  0.0473  0.2476
   65SOL     OW  193   1.533   2.053   2.268 -0.4739  0.0309  0.4348
   65SOL    HW1  194   1.552   2.004   2.185 -1.3541  0.9354  2.8817
   65SOL    HW2  195   1.618   2.066   2.326  0.2330  0.9325  0.8510
   66SOL     OW  196   0.056   0.749   0.958 -0.4116  0.0414 -0.1909
   66SOL    HW1  197   0.132   0.765   1.031  1.6413 -0.3609  4.2767
   66SOL    HW2  198   0.041   0.656   0.920 -0.4079  3.7527  0.7483
   67SOL     OW  199   2.345   2.327   0.437 -0.2425 -0.5745  0.3361
   67SOL    HW1  200   2.328   2.239   0.483 -3.6360  0.4264  1.5246
   67SOL    HW2  201   2.291   2.329   0.352  3.6803  1.5151  1.2067
   68SOL     OW  202   2.664   2.616   1.266  0.4328 -0.5387  0.1497
   68SOL    HW1  203   2.703   2.649   1.353  1.3496  1.1717 -0.5293
   68SOL    HW2  204   2.664   2.513   1.270  2.6880  0.4762 -0.3574
   69SOL     OW  205   2.646   2.512   2.840 -0.0292  0.2069 -0.4063
   69SOL    HW1  206   2.697   2.501   2.753 -1.7898 -0.6310  0.5989
   69SOL    HW2  207   2.589   2.594   2.834  1.1234  1.4009 -0.5002
   70SOL     OW  208   0.483   1.361   2.755 -0.2806  0.3470  0.2780
   70SOL    HW1  209   0.579   1.345   2.720 -0.4522 -1.0577  0.4560
   70SOL    HW2  210   0.450   1.283   2.818 -2.1525 -0.6632  2.0283
   71SOL     OW  211   0.771   1.177   2.157 -0.0294  0.9433 -0.5388
   71SOL    HW1  212   0.713   1.170   2.071 -2.3865  3.2411  1.7079
   71SOL    HW2  213   0.833   1.254   2.147  1.3765  0.4306  0.3152
   72SOL     OW  214   2.680   1.282   1.860  0.5977 -0.1339  0.3368
   72SOL    HW1  215   2.729   1.214   1.914 -1.1730  2.9617 -0.9157
   72SOL    HW2  216   2.719   1.377   1.873  0.3769  1.0370  1.9831
   73SOL     OW  217   0.647   2.039   2.765  0.5624 -0.1419 -0.1949
   73SOL    HW1  218   0.575   2.068   2.699 -5.3673  0.4462 -0.7409
   73SOL    HW2  219   0.702   1.962   2.729  0.0899  0.3424  0.4251
   74SOL     OW  220   1.503   2.835   1.831  0.1139 -0.0580 -0.2247
   74SOL    HW1  221   1.424   2.811   1.894 -2.1379 -0.6944 -0.6645
   74SOL    HW2  222   1.590   2.787   1.851  1.9539  0.4567 -0.6881
   75SOL     OW  223   1.229   2.724   0.856  0.5096  0.2925  0.1246
   75SOL    HW1  224   1.259   2.631   0.898  0.5499 -3.8086 -2.2995
   75SOL    HW2  225   1.305   2.789   0.859 -2.4772  1.4668  0.2659
   76SOL     OW  226   0.490   1.895   2.912 -0.4372  0.1107  0.2829
   76SOL    HW1  227   0.563   1.955   2.874  0.0115 -4.5020 -1.0553
   76SOL    HW2  228   0.492   1.797   2.874 -0.9926 -4.9185 -0.9887
   77SOL     OW  229   0.511   2.445   1.248  0.0723  0.7802 -0.1715
   77SOL    HW1  230   0.502   2.544   1.226 -1.8734 -2.8059  0.1840
   77SOL    HW2  231   0.608   2.417   1.272  0.9496 -3.4175  0.6929
   78SOL     OW  232   2.658   1.285   0.205 -0.2430 -0.4779  0.4056
   78SOL    HW1  233   2.729   1.302   0.136 -0.6767  1.3555  1.0408
   78SOL    HW2  234   2.702   1.241   0.281  1.8129  0.9444 -0.5984
   79SOL     OW  235   0.430   1.790   0.053  0.1031 -0.1189  0.2920
   79SOL    HW1  236   0.380   1.707   0.015 -2.7236 -0.3768  0.0416
   79SOL    HW2  237   0.470   1.839   3.099  1.8186  0.9853  1.1804
   80SOL     OW  238   1.899   1.761   1.559 -0.0372 -0.3428  0.5824
   80SOL    HW1  239   1.871   1.764   1.659  0.6253  1.7107  2.6491
   80SOL    HW2  240   1.860   1.834   1.504 -0.1105  0.9437  0.3443
   81SOL     OW  241   2.277   0.865   2.269 -0.1324  0.2174 -0.0041
   81SOL    HW1  242   2.239   0.781   2.316  1.2504 -1.3718  2.5916
   81SOL    HW2  243   2.266   0.950   2.328  1.4942  4.7479  2.4785
   82SOL     OW  244   1.575   1.540   1.523 -0.2699 -0.6986 -0.0345
   82SOL    HW1  245   1.651   1.513   1.586  1.9166 -0.6298 -1.6221
   82SOL    HW2  246   1.493   1.489   1.556  2.9267  1.6638  0.9565
   83SOL     OW  247   0.254   0.237   2.974  0.1392  0.1204  0.0481
   83SOL    HW1  248   0.195   0.179   2.911 -0.0266 -0.7449  0.1386
   83SOL    HW2  249   0.313   0.177   3.026  1.3212  1.3157 -1.3121
   84SOL     OW  250   0.762   1.354   0.343 -0.3376 -0.2614  0.2787
   84SOL    HW1  251   0.739   1.276   0.288 -1.8118  2.2377  0.6401
   84SOL    HW2  252   0.862   1.375   0.344 -0.6103 -1.0198  1.4561
   85SOL     OW  253   2.381   1.878   1.315 -0.0507 -0.5714  0.0670
   85SOL    HW1  254   2.345   1.810   1.251  0.0867 -0.3295  2.2086
   85SOL    HW2  255   2.474   1.905   1.293 -0.2204 -0.6458  2.0238
   86SOL     OW  256   0.594   0.495   1.034 -0.0005  0.6394 -0.0942
   86SOL    HW1  257   0.607   0.564   0.960  0.7474 -0.2752 -1.0692
   86SOL    HW2  258   0.623   0.527   1.125 -1.4168  0.3852 -1.2417
   87SOL     OW  259   2.545   2.233   2.432 -0.7403 -0.4009  0.4810
   87SOL    HW1  260   2.521   2.181   2.514 -1.0159  1.1358 -2.4369
   87SOL    HW2  261   2.512   2.328   2.436 -1.3532  0.0546  0.8269
   88SOL     OW  262   0.170   3.022   0.066  0.4755  0.6803 -0.4473
   88SOL    HW1  263   0.223   3.090   0.123  0.3674  0.7645  0.2468
   88SOL    HW2  264   0.218   3.008   3.102  0.2097 -2.0003 -1.9143
   89SOL     OW  265   1.689   3.127   0.133  0.7745 -0.1187 -0.2280
   89SOL    HW1  266   1.605   3.112   0.071 -0.2041  0.1769 -1.5938
   89SOL    HW2  267   1.660   0.022   0.226 -0.6201  2.0424  0.9988
   90SOL     OW  268   3.023   1.552   2.350 -0.5990 -0.0540  0.2079
   90SOL    HW1  269   2.982   1.534   2.439 -0.5632 -1.5469 -1.1061
   90SOL    HW2  270   3.044   1.459   2.307 -0.2566  0.2094 -1.9052
   91SOL     OW  271   2.068   2.892   1.204 -0.2332  0.0055  0.2655
   91SOL    HW1  272   2.162   2.901   1.241 -0.5596 -2.6171  0.2232
   91SOL    HW2  273   2.070   2.897   1.102  2.0012  1.4252 -0.6454
   92SOL     OW  274   1.756   1.353   0.724  0.2985  0.1179 -0.2559
   92SOL    HW1  275   1.731   1.257   0.697 -2.6758  0.3431  0.7528
   92SOL    HW2  276   1.690   1.395   0.793 -0.3720 -0.2107 -0.2255
   93SOL     OW  277   0.455   1.677   0.294  0.0400 -0.5884  0.5809
   93SOL    HW1  278   0.360   1.690   0.323  0.1519 -1.5074 -1.4589
   93SOL    HW2  279   0.465   1.714   0.195  0.8282 -2.4570 -2.6730
   94SOL     OW  280   1.029   2.549   1.371  0.2184  0.0806 -0.0717
   94SOL    HW1  281   1.112   2.515   1.423  2.9494 -1.6844  2.7967
   94SOL    HW2  282   0.973   2.615   1.430  0.5634 -1.4904  0.7625
   95SOL     OW  283   0.056   0.750   0.629  0.2927 -0.0855  0.2649
   95SOL    HW1  284   0.085   0.849   0.632 -1.3002  0.9011  0.8701
   95SOL    HW2  285   0.083   0.696   0.708 -1.1991  0.5452  0.3359
   96SOL     OW  286   0.614   2.905   1.825  0.2047  0.3724 -0.2926
   96SOL    HW1  287   0.699   2.960   1.805  0.8509 -0.4108 -2.7993
   96SOL    HW2  288   0.594   2.836   1.755  0.4711  1.2398 -1.2639
   97SOL     OW  289   2.231   0.570   0.845 -0.3083 -0.7570  0.1863
   97SOL    HW1  290   2.164   0.517   0.793  0.8365  0.9785  2.5063
   97SOL    HW2  291   2.207   0.673   0.836 -0.9863  3.9817 -1.3483
   98SOL     OW  292   3.100   2.484   1.607  0.0264 -0.3436 -0.0268
   98SOL    HW1  293   3.050   2.481   1.516 -2.9342 -2.5444  0.2195
   98SOL    HW2  294   0.032   2.568   1.615  2.4169  0.3486  1.1554
   99SOL     OW  295   2.887   0.353   1.555 -0.4225  0.0699  0.5030
   99SOL    HW1  296   2.934   0.286   1.617  3.1008 -1.4593  0.0983
   99SOL    HW2  297   2.851   0.429   1.614  2.1217  0.3001  0.5671
  100SOL     OW  298   2.065   0.339   2.644 -0.1827 -0.1343 -0.5423
  100SOL    HW1  299   2.156   0.347   2.599 -0.7589 -2.8468  0.5562
  100SOL    HW2  300   2.011   0.281   2.584  2.5118  0.7175 -1.5890
  101SOL     OW  301   0.818   0.003   2.210 -0.1673  0.9641  0.4369
  101SOL    HW1  302   0.811   3.028   2.188 -1.7619  2.2277  0.2311
  101SOL    HW2  303   0.897   0.006   2.268 -4.6998 -2.2743 -1.0662
  102SOL     OW  304   0.990   0.530   1.478 -0.0801  0.1659  0.1535
  102SOL    HW1  305   1.055   0.522   1.401 -0.9501  1.4334 -0.2353
  102SOL    HW2  306   0.911   0.588   1.449  3.3471 -0.7456 -0.8987
  103SOL     OW  307   1.025   0.795   2.797 -0.4812 -0.4536 -0.0881
  103SOL    HW1  308   1.089   0.793   2.716 -0.0518 -2.0050 -0.1941
  103SOL    HW2  309   0.935   0.821   2.763  1.2827 -0.9016 -1.6266
  104SOL     OW  310   0.416   0.175   2.006  0.3182  0.3191 -0.0049
  104SOL    HW1  311   0.517   0.183   2.004  1.2342  0.8856 -0.2813
  104SOL    HW2  312   0.379   0.112   1.935 -0.8831  0.2188 -0.3514
  105SOL     OW  313   2.702   2.426   1.506 -0.2611 -0.0182 -0.0561
  105SOL    HW1  314   2.639   2.346   1.486 -1.2192 -1.4323 -1.7444
  105SOL    HW2  315   2.698   2.452   1.604  0.1070 -2.6988  3.2704
  106SOL     OW  316   0.962   0.006   0.550 -0.0567 -0.3348  0.4458
  106SOL    HW1  317   1.048   0.021   0.493  3.7709  2.9186  2.4923
  106SOL    HW2  318   0.978   3.056   0.617 -2.9146  0.1857  1.7350
  107SOL     OW  319   2.840   2.057   1.136  0.4600 -0.1606  0.2853
  107SOL    HW1  320   2.912   2.125   1.157  2.8389  0.5461  0.6029
  107SOL    HW2  321   2.862   2.019   1.043 -1.0126  0.8931 -3.1868
  108SOL     OW  322   0.080   2.291   0.612  0.2992 -0.3633  0.2636
  108SOL    HW1  323   0.169   2.258   0.568  1.6720 -0.5470  0.3849
  108SOL    HW2  324   0.104   2.358   0.687  0.9830  0.6359 -0.2898
  109SOL     OW  325   1.657   3.020   0.707 -0.2514 -0.3961  0.4227
  109SOL    HW1  326   1.696   2.929   0.694  1.8910 -0.4788  0.3060
  109SOL    HW2  327   1.610   3.038   0.616  0.1608 -0.3315 -1.2240
  110SOL     OW  328   1.616   1.459   0.950 -0.0283  0.4183 -0.0712
  110SOL    HW1  329   1.601   1.545   1.002  0.8204  2.0009  2.2483
  110SOL    HW2  330   1.542   1.395   0.962  0.2804  1.9827  0.2361
  111SOL     OW  331   1.650   2.469   1.924  0.2106 -0.6998  0.0357
  111SOL    HW1  332   1.719   2.397   1.895  1.3699 -3.0054  2.0162
  111SOL    HW2  333   1.631   2.456   2.026 -0.1654 -1.2185  1.1200
  112SOL     OW  334   1.993   2.328   2.718 -0.0892  0.0797  0.8965
  112SOL    HW1  335   2.053   2.278   2.778  0.6380  2.9350 -0.7037
  112SOL    HW2  336   1.999   2.426   2.737  1.4354 -2.8239 -2.7871
  113SOL     OW  337   2.024   1.877   1.915  0.2509 -0.0084  0.0811
  113SOL    HW1  338   2.082   1.801   1.947 -2.3489  0.5966  1.4404
  113SOL    HW2  339   2.061   1.909   1.829 -1.9598 -0.5096  2.2181
  114SOL     OW  340   0.004   0.861   1.238  0.3831  0.3351 -0.0982
  114SOL    HW1  341   3.062   0.802   1.281 -2.0397 -1.4183 -0.9862
  114SOL    HW2  342   3.089   0.929   1.178  0.1215 -2.9001  1.9876
  115SOL     OW  343   2.873   0.836   2.815  0.2246  0.3058  0.0490
  115SOL    HW1  344   2.965   0.867   2.794 -2.9028  2.4097 -1.3143
  115SOL    HW2  345   2.804   0.854   2.745  2.2550  1.5942  0.3640
  116SOL     OW  346   2.654   0.453   2.755 -0.1801  0.1431 -0.3908
  116SOL    HW1  347   2.739   0.510   2.771 -1.3754  0.3188  0.1866
  116SOL    HW2  348   2.646   0.431   2.652  0.8573 -0.1044 -3.3851
  117SOL     OW  349   2.727   2.832   0.400 -0.5616 -0.1261  0.5545
  117SOL    HW1  350   2.688   2.738   0.410  0.8117 -0.5470  0.7433
  117SOL    HW2  351   2.744   2.840   0.298  1.7955 -1.5656  0.1744
  118SOL     OW  352   0.505   1.903   2.158  0.1241 -0.0568  0.5443
  118SOL    HW1  353   0.487   1.997   2.196  1.3146  2.9401  0.9415
  118SOL    HW2  354   0.562   1.913   2.069 -0.9380  0.7410 -0.4323
  119SOL     OW  355   0.607   2.966   0.382 -0.2246 -0.2311  0.0397
  119SOL    HW1  356   0.623   2.952   0.477  1.7977  1.0453 -4.2568
  119SOL    HW2  357   0.685   2.934   0.326 -1.2291 -0.8450 -3.1142
  120SOL     OW  358   1.487   0.795   0.447  0.4671  0.6390 -0.7316
  120SOL    HW1  359   1.415   0.769   0.511  3.2518  2.2922  0.4787
  120SOL    HW2  360   1.525   0.890   0.470 -0.6636 -3.0021  0.1128
  121SOL     OW  361   1.800   0.505   0.781  0.0580  0.8091 -0.0794
  121SOL    HW1  362   1.794   0.486   0.880 -0.3714  0.4207 -1.0862
  121SOL    HW2  363   1.784   0.605   0.765 -2.8970  1.5046  2.0571
  122SOL     OW  364   2.101   1.329   2.396  0.0421  0.0739 -0.3552
  122SOL    HW1  365   2.033   1.390   2.442 -1.3121  2.9218  0.7442
  122SOL    HW2  366   2.150   1.386   2.331  2.0606 -1.0458 -2.1171
  123SOL     OW  367   0.941   1.063   0.916 -0.1546 -0.0436 -0.1191
  123SOL    HW1  368   1.015   0.994   0.921  0.2937  1.4506 -0.4740
  123SOL    HW2  369   0.949   1.118   0.831 -2.5488 -1.2080  0.4031
  124SOL     OW  370   0.813   0.571   2.673  0.2444  0.0288  0.0818
  124SOL    HW1  371   0.728   0.529   2.636  1.9424  1.4147 -0.6522
  124SOL    HW2  372   0.860   0.507   2.738  2.3429 -2.5444  0.0225
  125SOL     OW  373   0.966   0.301   0.150 -0.8044 -1.0179 -0.4546
  125SOL    HW1  374   0.886   0.313   0.089  0.4703  3.7292  0.2049
  125SOL    HW2  375   0.948   0.241   0.235 -0.7319 -1.9719  0.7766
  126SOL     OW  376   0.453   1.858   0.516 -0.3464  0.5811 -0.1459
  126SOL    HW1  377   0.504   1.791   0.459  0.3783 -1.1087  0.6336
  126SOL    HW2  378   0.474   1.837   0.615  2.3836 -0.2936  0.9130
  127SOL     OW  379   1.053   2.528   1.764  0.0565  0.0224 -0.0990
  127SOL    HW1  380   1.020   2.603   1.705 -1.6970 -0.6408 -0.7436
  127SOL    HW2  381   1.156   2.533   1.771  0.6621  3.3950 -1.2922
  128SOL     OW  382   0.975   1.816   0.403 -0.2385  0.1479 -0.7409
  128SOL    HW1  383   0.933   1.754   0.336  1.0220 -0.4085 -1.8945
  128SOL    HW2  384   0.968   1.913   0.385 -1.6552 -0.3339  0.6492
  129SOL     OW  385   1.836   1.508   2.300  0.0817 -0.4421  0.3491
  129SOL    HW1  386   1.740   1.489   2.263 -3.7497 -1.8689 -1.2203
  129SOL    HW2  387   1.904   1.479   2.231 -3.8263  2.5567 -0.4179
  130SOL     OW  388   2.115   2.011   1.689 -0.0769 -0.1133 -0.4961
  130SOL    HW1  389   2.137   2.108   1.698 -1.8584  0.6857 -1.0657
  130SOL    HW2  390   2.122   1.989   1.588  0.6989 -1.9998  1.6832
  131SOL     OW  391   0.244   2.209   2.051 -0.1294 -0.1901  0.3194
  131SOL    HW1  392   0.194   2.119   2.038 -2.0037  0.8933  1.4425
  131SOL    HW2  393   0.185   2.288   2.031 -1.7868 -0.8010 -2.9143
  132SOL     OW  394   2.457   1.888   0.432 -0.7883  0.3028  0.1954
  132SOL    HW1  395   2.526   1.813   0.420  0.7223  2.5359  1.5694
  132SOL    HW2  396   2.504   1.977   0.458  0.8654 -1.5416  0.9405
  133SOL     OW  397   0.413   0.971   1.736  0.5109 -0.1886  0.1003
  133SOL    HW1  398   0.473   1.054   1.733 -3.6848 -0.0908 -0.5662
  133SOL    HW2  399   0.315   0.990   1.718  0.9783  0.3109 -0.1691
  134SOL     OW  400   2.923   1.428   0.698 -0.1941 -0.3094 -0.4250
  134SOL    HW1  401   2.905   1.330   0.681  0.3742  1.5568  0.6816
  134SOL    HW2  402   2.981   1.460   0.624  2.1964 -2.5843  2.6055
  135SOL     OW  403   1.893   1.099   2.898  0.3212 -0.4444 -0.4330
  135SOL    HW1  404   1.871   1.187   2.947  0.0357 -2.6360  0.8722
  135SOL    HW2  405   1.897   1.112   2.800 -2.1898 -0.8422  2.1571
  136SOL     OW  406   2.815   1.744   1.039 -0.2601  0.5427  0.1321
  136SOL    HW1  407   2.767   1.813   0.982  0.6849  1.1831  2.4251
  136SOL    HW2  408   2.769   1.734   1.129  0.9829 -0.7501  1.8857
  137SOL     OW  409   2.242   1.762   0.458  0.3004  0.0520  0.3989
  137SOL    HW1  410   2.261   1.661   0.481 -0.8165 -3.2836  1.7888
  137SOL    HW2  411   2.332   1.815   0.469  0.5946 -2.5020  0.4394
  138SOL     OW  412   2.596   0.385   0.614  0.1051 -0.2362  0.1676
  138SOL    HW1  413   2.638   0.304   0.661 -1.4168 -1.2059 -0.5325
  138SOL    HW2  414   2.601   0.369   0.515  0.0674  0.1175 -0.0197
  139SOL     OW  415   2.988   3.095   2.923 -0.2257  0.2228 -0.5136
  139SOL    HW1  416   2.985   3.102   3.023  0.9624 -2.9916 -2.0861
  139SOL    HW2  417   2.909   0.015   2.881 -1.2299  1.1360 -0.0164
  140SOL     OW  418   0.751   1.152   1.650 -0.0692 -0.1444 -0.2854
  140SOL    HW1  419   0.748   1.105   1.743  0.3101  0.6612  0.9749
  140SOL    HW2  420   0.745   1.252   1.669  0.1390 -1.1913 -0.0091
  141SOL     OW  421   1.337   1.554   0.823 -0.3790 -0.2046  0.6790
  141SOL    HW1  422   1.348   1.508   0.912 -1.2384 -1.4736 -1.4959
  141SOL    HW2  423   1.378   1.648   0.829 -2.0517  2.5158  0.9507
  142SOL     OW  424   1.430   0.850   1.129  0.4333 -0.2576 -0.6704
  142SOL    HW1  425   1.424   0.749   1.121 -2.0662  0.9957  2.2578
  142SOL    HW2  426   1.398   0.903   1.049  1.9781 -0.4165  2.5846
  143SOL     OW  427   0.759   0.832   2.707 -0.4123 -0.0288 -0.9416
  143SOL    HW1  428   0.706   0.840   2.790  2.0378 -0.2384 -2.9826
  143SOL    HW2  429   0.787   0.735   2.693  0.1699  0.7993 -0.7646
  144SOL     OW  430   2.644   0.011   0.166 -0.3576  0.3471  0.9512
  144SOL    HW1  431   2.629   0.004   0.262  1.7482 -0.8373 -2.5033
  144SOL    HW2  432   2.560   3.100   0.123 -1.2816 -2.3453  2.1750
  145SOL     OW  433   2.094   0.138   2.808  0.1707 -0.2949 -0.7457
  145SOL    HW1  434   2.092   0.178   2.903  2.1263 -2.8098 -0.4320
  145SOL    HW2  435   2.080   0.209   2.739 -1.3541 -0.1188 -0.8173
  146SOL     OW  436   3.036   3.051   0.386 -0.3393  0.2837 -0.0945
  146SOL    HW1  437   3.059   3.006   0.296  0.6199 -0.5460 -1.5562
  146SOL    HW2  438   2.963   3.120   0.371  0.6499  3.0110  2.8685
  147SOL     OW  439   1.550   1.159   2.755  0.3780  0.1048 -0.3126
  147SOL    HW1  440   1.581   1.093   2.828 -1.8443 -1.6844 -1.4438
  147SOL    HW2  441   1.451   1.169   2.770  1.6622 -0.2860  1.8835
  148SOL     OW  442   1.194   0.065   0.404  0.1925 -0.3207 -0.1318
  148SOL    HW1  443   1.257   0.122   0.462 -1.5020 -1.6247  0.6636
  148SOL    HW2  444   1.204   0.083   0.305  1.1277  0.8664  2.2256
  149SOL     OW  445   1.388   0.970   2.056 -0.4131 -0.1318  0.0489
  149SOL    HW1  446   1.311   1.016   2.101  0.6820  0.6682 -0.0401
  149SOL    HW2  447   1.425   1.028   1.977 -1.9604  0.4364  2.4548
  150SOL     OW  448   1.890   3.038   2.831  0.4361  0.4689  0.3384
  150SOL    HW1  449   1.870   3.083   2.921 -1.9258  0.9524  2.3332
  150SOL    HW2  450   1.986   3.001   2.835  2.3981 -0.5713 -0.7597
  151SOL     OW  451   0.598   1.506   0.472  0.2462  0.3392 -0.0673
  151SOL    HW1  452   0.547   1.566   0.410 -1.2777  0.7406  2.0807
  151SOL    HW2  453   0.674   1.455   0.428 -1.7232  2.6255 -1.2216
  152SOL     OW  454   0.664   0.500   1.319  0.5270 -0.2790  0.0773
  152SOL    HW1  455   0.585   0.496   1.386 -3.2651  2.2895  0.8646
  152SOL    HW2  456   0.729   0.425   1.339 -0.4329 -2.0955  1.8543
  153SOL     OW  457   2.504   2.978   2.097 -0.4928  0.3160 -0.2403
  153SOL    HW1  458   2.465   3.064   2.055 -1.1925  1.0194  1.0783
  153SOL    HW2  459   2.514   2.994   2.200  0.3472  0.0705  0.5323
  154SOL     OW  460   2.159   3.012   2.257 -0.6430  0.3591 -0.5294
  154SOL    HW1  461   2.198   3.100   2.229  3.4301 -4.0160 -0.5133
  154SOL    HW2  462   2.108   2.967   2.186 -1.9979  0.9977  2.4996
  155SOL     OW  463   0.157   0.980   0.701  0.0652 -0.2919 -0.0876
  155SOL    HW1  464   0.173   1.044   0.627 -1.1084  0.7343  0.8605
  155SOL    HW2  465   0.239   0.959   0.761 -0.2392 -2.4011  1.5255
  156SOL     OW  466   2.265   1.497   0.528 -0.0620  0.1946 -0.4798
  156SOL    HW1  467   2.329   1.435   0.482  0.9296 -0.0366  1.1618
  156SOL    HW2  468   2.172   1.463   0.507  1.4744  0.8041  2.4812
  157SOL     OW  469   0.892   0.145   2.956 -0.4473 -0.0110 -0.3011
  157SOL    HW1  470   0.912   0.052   2.993  1.5163 -2.6224  3.5208
  157SOL    HW2  471   0.835   0.204   3.020  0.3300  2.1760 -1.5480
  158SOL     OW  472   1.925   1.192   1.316  0.0359  0.0051  0.3764
  158SOL    HW1  473   2.022   1.219   1.337 -0.2387 -1.1745  0.4667
  158SOL    HW2  474   1.895   1.222   1.221  0.0068 -1.3497  0.1728
  159SOL     OW  475   3.070   0.389   0.221  0.3288 -0.7059 -0.3681
  159SOL    HW1  476   3.112   0.300   0.250 -0.3031 -0.3879  0.2655
  159SOL    HW2  477   3.005   0.422   0.294  1.9618 -1.8404 -1.5589
  160SOL     OW  478   2.373   2.418   1.804  0.0166  0.0458 -0.3997
  160SOL    HW1  479   2.475   2.446   1.805  3.8198  1.3791  2.0255
  160SOL    HW2  480   2.315   2.460   1.880 -2.2417 -1.4462 -0.1072
  161SOL     OW  481   0.504   0.720   3.051  0.0747 -0.5780 -0.3600
  161SOL    HW1  482   0.540   0.802   2.997  0.6222  2.2684 -0.1017
  161SOL    HW2  483   0.403   0.696   3.035 -0.5454  2.0511 -0.5646
  162SOL     OW  484   0.793   0.470   1.688 -0.0341 -0.1640 -0.0422
  162SOL    HW1  485   0.708   0.526   1.667 -3.3257  2.1397  0.4377
  162SOL    HW2  486   0.870   0.474   1.622  0.1407 -1.5151  0.1246
  163SOL     OW  487   2.819   0.129   2.563  0.3143 -0.3360 -0.4136
  163SOL    HW1  488   2.733   0.118   2.511 -0.2021  1.6550  0.4265
  163SOL    HW2  489   2.867   0.212   2.525  0.9984  1.4316 -0.0052
  164SOL     OW  490   2.202   1.758   0.183 -0.8218 -0.1433  0.6145
  164SOL    HW1  491   2.142   1.829   0.142 -1.4808 -0.1713 -1.5981
  164SOL    HW2  492   2.225   1.781   0.280  3.0587 -0.8091  0.9030
  165SOL     OW  493   0.353   0.002   1.175 -0.5928  0.1891 -0.5798
  165SOL    HW1  494   0.372   0.008   1.075  2.2898  2.6435 -0.7455
  165SOL    HW2  495   0.393   3.048   1.225 -2.3497 -1.4350  0.6850
  166SOL     OW  496   2.829   0.206   3.049  0.2080  0.3086 -0.0849
  166SOL    HW1  497   2.801   0.177   2.958 -2.9102  0.0077  2.0782
  166SOL    HW2  498   2.852   0.130   3.110  0.0562  0.9942 -1.7924
  167SOL     OW  499   2.011   0.566   0.163 -0.3214  0.0659 -0.1075
  167SOL    HW1  500   2.002   0.664   0.187  0.9015  1.3927  0.6227
  167SOL    HW2  501   2.098   0.552   0.111  2.2074  0.6600  3.3818
  168SOL     OW  502   1.483   3.074   2.176 -0.3792  0.4484  0.2407
  168SOL    HW1  503   1.467   0.020   2.245 -0.3209 -0.2118 -2.4809
  168SOL    HW2  504   1.410   3.000   2.189  0.4365  1.2786 -0.2567
  169SOL     OW  505   0.324   2.152   0.735 -0.6545 -0.0741 -0.4701
  169SOL    HW1  506   0.235   2.124   0.772 -1.0155  0.6433 -0.6456
  169SOL    HW2  507   0.350   2.246   0.779 -0.6825  0.0003  0.0074
  170SOL     OW  508   0.280   0.326   1.501  0.3553  0.2961  0.4996
  170SOL    HW1  509   0.219   0.356   1.581 -1.8294 -2.4826  0.5941
  170SOL    HW2  510   0.324   0.236   1.518  1.6965  0.8447 -2.4283
  171SOL     OW  511   2.690   1.487   2.510  0.3348  0.2088  0.2845
  171SOL    HW1  512   2.692   1.425   2.424  1.5431  1.8535  1.1268
  171SOL    HW2  513   2.612   1.547   2.521  0.3685 -3.6293  2.2273
  172SOL     OW  514   0.799   1.673   1.182 -0.1147 -0.3817  0.2038
  172SOL    HW1  515   0.844   1.628   1.103  0.3070 -1.6073  0.0705
  172SOL    HW2  516   0.837   1.648   1.274  0.1955  1.4442 -1.6409
  173SOL     OW  517   1.893   2.185   3.064  0.4923  0.2216 -0.3436
  173SOL    HW1  518   1.832   2.106   3.050 -0.9650 -0.6773  0.7458
  173SOL    HW2  519   1.893   2.225   0.030  0.8369  0.5219  2.1616
  174SOL     OW  520   1.823   0.729   2.848 -0.0878 -0.7567  0.2182
  174SOL    HW1  521   1.782   0.669   2.778 -2.7284  4.0124  0.4942
  174SOL    HW2  522   1.787   0.721   2.943  1.7920  0.0595 -1.3733
  175SOL     OW  523   0.530   1.712   1.841 -0.1215 -0.2026  0.1118
  175SOL    HW1  524   0.504   1.736   1.747 -0.1133 -0.7858 -0.4789
  175SOL    HW2  525   0.453   1.681   1.901 -0.7680  0.4974 -0.0823
  176SOL     OW  526   0.688   0.459   0.616 -0.2712  0.1070  0.4192
  176SOL    HW1  527   0.787   0.446   0.586  1.0512 -0.8034  2.7581
  176SOL    HW2  528   0.674   0.522   0.689  1.9768  1.6152  0.8259
  177SOL     OW  529   0.113   1.557   3.111 -0.3310 -0.0977  0.3244
  177SOL    HW1  530   0.049   1.497   3.056 -0.2288  0.4386 -1.7271
  177SOL    HW2  531   0.211   1.518   3.113  2.0574 -0.9527  0.6480
  178SOL     OW  532   0.059   2.153   2.315 -0.1712  0.1834 -0.2549
  178SOL    HW1  533   0.135   2.087   2.286  0.9420 -3.1133  0.8186
  178SOL    HW2  534   3.105   2.140   2.258 -1.7260 -0.2579 -0.7161
  179SOL     OW  535   2.457   3.097   2.912 -0.2790  0.4708 -0.9461
  179SOL    HW1  536   2.480   0.061   2.885  1.3640 -2.0401  0.8557
  179SOL    HW2  537   2.376   3.096   2.973 -0.9286 -1.5592  0.3593
  180SOL     OW  538   2.486   0.505   0.833  0.3475 -0.2479  0.5514
  180SOL    HW1  539   2.391   0.545   0.836  1.7131  0.4885 -2.4848
  180SOL    HW2  540   2.510   0.465   0.741  1.4016 -0.5792  0.9386
  181SOL     OW  541   3.071   3.066   2.432 -0.0719  0.1842  0.0550
  181SOL    HW1  542   2.994   3.053   2.494  2.6181 -1.1040  0.0311
  181SOL    HW2  543   0.012   2.989   2.437  0.0883 -1.4930  1.3260
  182SOL     OW  544   2.383   2.473   2.442 -0.3803 -0.1772 -0.0366
  182SOL    HW1  545   2.380   2.463   2.542  1.6831  1.2659 -2.4686
  182SOL    HW2  546   2.293   2.447   2.396  1.8692 -0.8433 -0.7019
  183SOL     OW  547   2.648   1.331   1.580  0.0723 -0.2988  0.2167
  183SOL    HW1  548   2.654   1.289   1.671 -2.7674 -2.1347 -2.8148
  183SOL    HW2  549   2.602   1.262   1.519 -0.3579 -0.6386 -1.1417
  184SOL     OW  550   2.903   1.458   0.978  0.1401 -0.0497  0.7512
  184SOL    HW1  551   2.884   1.558   0.974  0.1818 -0.7291  0.7357
  184SOL    HW2  552   2.940   1.419   0.887  0.1713  0.9822 -2.9126
  185SOL     OW  553   0.072   0.287   0.632  0.1794 -0.1460 -0.2778
  185SOL    HW1  554   0.171   0.308   0.631  1.5889 -0.0136  2.3692
  185SOL    HW2  555   0.056   0.203   0.681 -0.2276  1.6925 -3.2138
  186SOL     OW  556   2.096   2.352   2.428  0.4149  0.5222  0.1003
  186SOL    HW1  557   2.038   2.355   2.514 -1.0844 -0.3685  1.5744
  186SOL    HW2  558   2.114   2.255   2.405 -1.4053  1.1688  1.2859
  187SOL     OW  559   0.409   1.519   0.678 -0.1262  0.5314 -0.3101
  187SOL    HW1  560   0.476   1.508   0.603  1.3242  2.0001 -0.7150
  187SOL    HW2  561   0.454   1.522   0.769 -0.1321 -0.3848  0.0657
  188SOL     OW  562   1.702   1.800   0.535 -0.2437  0.0677  0.1657
  188SOL    HW1  563   1.699   1.705   0.491 -0.2630 -0.0261 -1.5425
  188SOL    HW2  564   1.606   1.829   0.552  1.2298  1.6765 -2.6094
  189SOL     OW  565   3.071   1.482   2.914 -0.1657  0.6947  0.1569
  189SOL    HW1  566   3.104   1.426   2.835 -2.5591 -0.7565  0.7748
  189SOL    HW2  567   2.983   1.447   2.950 -0.1298 -0.1815  0.8436
  190SOL     OW  568   2.515   0.325   2.221 -0.4613 -0.0696  0.4036
  190SOL    HW1  569   2.473   0.415   2.237  2.2901  0.5971 -0.2610
  190SOL    HW2  570   2.619   0.335   2.243  3.1894  5.1485  0.1514
  191SOL     OW  571   0.898   0.915   2.191 -0.2288 -0.0079  0.2692
  191SOL    HW1  572   0.844   0.850   2.248  0.5937  0.5753 -2.6663
  191SOL    HW2  573   0.841   1.001   2.185 -0.5792  1.5439 -0.3163
  192SOL     OW  574   1.547   1.437   2.243 -0.6665 -0.2813 -0.4267
  192SOL    HW1  575   1.487   1.488   2.182  1.6946  2.6377  1.1115
  192SOL    HW2  576   1.559   1.351   2.195  1.3664 -0.1079 -0.1077
  193SOL     OW  577   1.531   2.679   1.016  0.2904 -0.6900 -0.1104
  193SOL    HW1  578   1.576   2.763   0.986 -0.0323  1.3037 -0.8911
  193SOL    HW2  579   1.534   2.614   0.936 -1.2155  0.1373  3.1624
  194SOL     OW  580   1.581   1.426   1.944 -0.4409  0.4067 -0.4899
  194SOL    HW1  581   1.637   1.443   1.861  1.5365 -1.8506 -2.2965
  194SOL    HW2  582   1.585   1.332   1.977  1.1630 -0.3502 -1.6646
  195SOL     OW  583   2.045   0.163   0.805 -0.6094 -0.0669 -0.0689
  195SOL    HW1  584   2.043   0.257   0.846  0.6477  1.7704 -2.2543
  195SOL    HW2  585   2.048   0.088   0.878 -0.3736  1.0637  0.7945
  196SOL     OW  586   1.263   1.468   2.568  0.0243  0.4084  0.0708
  196SOL    HW1  587   1.175   1.512   2.584  0.7906 -3.1260 -0.5297
  196SOL    HW2  588   1.259   1.364   2.585  1.6273 -1.4986 -0.9890
  197SOL     OW  589   0.393   0.164   2.268  0.6110 -0.4279  0.2849
  197SOL    HW1  590   0.377   0.174   2.167  0.6418 -1.5491 -0.6367
  197SOL    HW2  591   0.405   0.066   2.295  1.1041 -1.0299  0.1925
  198SOL     OW  592   3.081   1.052   1.014  0.3076 -0.4414  0.3575
  198SOL    HW1  593   3.037   0.988   0.946  1.3685 -1.7321 -1.8886
  198SOL    HW2  594   0.015   1.115   0.963  1.7577  2.5729 -1.4618
  199SOL     OW  595   0.411   2.361   0.859  0.2584 -0.0778 -0.8033
  199SOL    HW1  596   0.482   2.422   0.820  0.2524 -3.3510 -0.5451
  199SOL    HW2  597   0.435   2.328   0.954 -2.5686 -0.7672 -2.9168
  200SOL     OW  598   2.583   1.895   2.833  0.2956 -0.4312  0.1164
  200SOL    HW1  599   2.686   1.891   2.841 -0.8529 -1.1047  1.2221
  200SOL    HW2  600   2.548   1.802   2.854  0.5806 -2.2706  1.2299
  201SOL     OW  601   0.878   2.004   1.397  0.4667 -0.5584 -0.2601
  201SOL    HW1  602   0.896   1.935   1.466  3.9874 -0.2814 -0.4056
  201SOL    HW2  603   0.805   1.979   1.328 -0.9292  0.3956 -2.5142
  202SOL     OW  604   1.090   2.399   0.063  0.1947  0.1296 -0.2373
  202SOL    HW1  605   1.069   2.440   0.154 -0.5989  1.6254 -2.0016
  202SOL    HW2  606   1.172   2.445   0.028 -2.0192 -0.5937  1.2429
  203SOL     OW  607   1.882   0.132   2.226  0.0681  0.0719  0.0382
  203SOL    HW1  608   1.936   0.203   2.178  0.0113 -0.8597 -0.5896
  203SOL    HW2  609   1.793   0.132   2.180 -0.6187  1.0105 -1.2409
  204SOL     OW  610   0.286   1.272   1.519  0.6345 -0.1057  0.3820
  204SOL    HW1  611   0.235   1.329   1.453 -1.1914 -0.8100 -0.7713
  204SOL    HW2  612   0.274   1.174   1.498  1.9497  1.2517 -0.3311
  205SOL     OW  613   2.598   1.591   2.816 -0.2901  0.5294  0.5003
  205SOL    HW1  614   2.564   1.632   2.725  0.2819 -0.7770 -0.1323
  205SOL    HW2  615   2.523   1.584   2.889 -1.0627  0.2436 -1.8771
  206SOL     OW  616   3.003   2.149   2.508  0.1132 -0.0204 -0.3247
  206SOL    HW1  617   2.995   2.051   2.479  0.8267 -0.4804  2.4475
  206SOL    HW2  618   3.075   2.200   2.455 -1.1225  0.6182 -0.2730
  207SOL     OW  619   0.885   2.949   1.712  0.3397 -0.3356  0.2741
  207SOL    HW1  620   0.981   2.928   1.728 -1.8581 -0.6616  2.0351
  207SOL    HW2  621   0.868   3.047   1.680 -0.0437  0.9896 -0.4098
  208SOL     OW  622   0.699   2.529   1.575 -0.6585  0.3173  0.1860
  208SOL    HW1  623   0.640   2.449   1.604 -0.0998 -1.3361  1.0489
  208SOL    HW2  624   0.728   2.514   1.475  2.4436 -1.8064 -1.3907
  209SOL     OW  625   1.128   2.700   2.709  0.3079  0.6876  0.0089
  209SOL    HW1  626   1.052   2.729   2.653  0.3063 -0.5113  1.0647
  209SOL    HW2  627   1.181   2.783   2.743  1.7527 -0.0454  1.2549
  210SOL     OW  628   2.732   1.600   2.210  0.3003  0.0732  0.3722
  210SOL    HW1  629   2.815   1.615   2.259 -2.2599 -0.3740 -1.2836
  210SOL    HW2  630   2.671   1.679   2.217 -0.9542 -0.6342  0.4064
  211SOL     OW  631   1.145   0.040   2.017 -0.2182  0.0510  0.5128
  211SOL    HW1  632   1.155   0.090   2.103 -0.8456 -2.6770 -0.3762
  211SOL    HW2  633   1.231   0.038   1.958  4.9692 -0.9166  1.3986
  212SOL     OW  634   1.312   2.479   1.812 -0.0485  0.0262  0.1132
  212SOL    HW1  635   1.319   2.472   1.914 -0.8098  2.2520  0.4236
  212SOL    HW2  636   1.399   2.442   1.773 -0.7325 -2.6961  0.1117
  213SOL     OW  637   2.538   0.793   1.926  0.2043 -0.2092  0.2923
  213SOL    HW1  638   2.454   0.847   1.911  0.2411 -3.5044 -1.4168
  213SOL    HW2  639   2.588   0.793   1.836  0.4048 -1.3392 -1.0927
  214SOL     OW  640   0.948   1.773   1.600 -0.4734 -0.1436 -0.1155
  214SOL    HW1  641   1.040   1.789   1.555  1.7398 -0.2475  1.5494
  214SOL    HW2  642   0.936   1.823   1.691 -2.5250  0.4944  1.0971
  215SOL     OW  643   2.578   2.264   0.901 -0.2424 -0.1420  0.2169
  215SOL    HW1  644   2.537   2.359   0.904 -0.1375 -1.3196 -0.0820
  215SOL    HW2  645   2.566   2.221   0.990  3.0557  1.7148 -1.7999
  216SOL     OW  646   3.032   0.740   1.519  0.5211 -0.2222 -0.1411
  216SOL    HW1  647   2.991   0.672   1.456  0.6009 -0.1642 -0.5799
  216SOL    HW2  648   2.960   0.809   1.535  0.5181  0.4659  0.5859
  217SOL     OW  649   2.044   0.270   1.456  0.3197  0.3483  0.4086
  217SOL    HW1  650   2.121   0.252   1.389  2.6118  1.5247 -0.6738
  217SOL    HW2  651   1.952   0.256   1.418  1.0359 -1.3733 -2.2572
  218SOL     OW  652   1.712   2.332   1.123 -0.5951  0.3738 -0.2405
  218SOL    HW1  653   1.771   2.412   1.100  0.5641  3.0982  1.5967
  218SOL    HW2  654   1.637   2.364   1.181  0.7471 -0.6169 -0.0084
  219SOL     OW  655   1.366   2.238   0.121 -0.0761  0.2181  0.1532
  219SOL    HW1  656   1.418   2.326   0.097  2.6520  2.6013  0.0319
  219SOL    HW2  657   1.310   2.264   0.209 -2.7219 -0.3744 -0.2616
  220SOL     OW  658   1.617   2.409   2.848  0.1680 -0.7767 -0.6485
  220SOL    HW1  659   1.559   2.455   2.776 -0.8040  1.9661 -1.6076
  220SOL    HW2  660   1.605   2.309   2.850 -2.8914  1.5328 -0.8303
  221SOL     OW  661   0.225   2.526   1.298  0.2763 -0.5956 -0.1300
  221SOL    HW1  662   0.318   2.497   1.264 -0.8150  0.5685 -0.9487
  221SOL    HW2  663   0.203   2.459   1.375  0.7650 -1.8245  1.3453
  222SOL     OW  664   2.122   2.602   0.944 -0.1900  0.3585 -0.0555
  222SOL    HW1  665   2.029   2.598   0.985 -2.5249  0.0463 -1.7837
  222SOL    HW2  666   2.158   2.694   0.924  0.1673 -0.4088  1.6515
  223SOL     OW  667   0.701   2.236   1.960  0.1618 -0.0873  0.6099
  223SOL    HW1  668   0.683   2.143   1.923  0.5435  1.0623  0.2234
  223SOL    HW2  669   0.631   2.299   1.931  1.2823  0.2901  1.0181
  224SOL     OW  670   2.976   2.453   1.372  0.2359  0.6263 -0.9931
  224SOL    HW1  671   2.952   2.544   1.335  0.9468 -0.1785 -1.7964
  224SOL    HW2  672   2.904   2.421   1.436 -1.4571  0.8113 -1.1426
  225SOL     OW  673   2.284   2.167   0.651  0.3160  0.3770 -0.2560
  225SOL    HW1  674   2.382   2.142   0.649 -0.3600 -0.5859 -0.3393
  225SOL    HW2  675   2.220   2.092   0.639  3.2737 -0.6660 -1.6530
  226SOL     OW  676   1.503   2.407   0.434  0.1330 -0.1569  0.3968
  226SOL    HW1  677   1.412   2.391   0.391  0.7188  0.5777 -1.0785
  226SOL    HW2  678   1.491   2.397   0.536 -1.2133  0.4403 -0.0458
  227SOL     OW  679   1.935   0.882   0.913  0.6262  0.7823  0.0408
  227SOL    HW1  680   2.026   0.856   0.878  0.5366  2.5127 -1.4794
  227SOL    HW2  681   1.945   0.938   1.001 -1.5304  2.3957  1.4625
  228SOL     OW  682   1.204   0.562   2.316  0.0176 -0.2567  0.1321
  228SOL    HW1  683   1.283   0.610   2.355  2.3796  1.5287  0.0801
  228SOL    HW2  684   1.126   0.537   2.378  0.6822 -0.3657  1.7313
  229SOL     OW  685   0.158   1.155   2.810 -0.0977  0.4456  0.0650
  229SOL    HW1  686   0.123   1.059   2.790 -0.5739 -2.1509 -0.0193
  229SOL    HW2  687   0.097   1.219   2.757  0.3589  0.7490  0.7006
  230SOL     OW  688   0.697   1.260   1.289 -0.0037  0.3319  0.1649
  230SOL    HW1  689   0.643   1.185   1.251  1.3094  1.8646  1.0105
  230SOL    HW2  690   0.783   1.226   1.331  1.4930  0.7683  0.3960
  231SOL     OW  691   2.511   2.951   2.697 -0.3075  0.0199  0.1050
  231SOL    HW1  692   2.493   2.999   2.785 -0.7532  1.8235  1.3743
  231SOL    HW2  693   2.469   3.002   2.617  0.8502 -0.2687 -2.6013
  232SOL     OW  694   0.317   2.473   0.238  0.2075  0.7604 -0.6373
  232SOL    HW1  695   0.235   2.471   0.299  1.3360 -2.2106 -2.3392
  232SOL    HW2  696   0.322   2.378   0.192  1.2563 -3.7096 -0.6753
  233SOL     OW  697   1.082   2.252   2.290 -0.1973 -0.6841  0.1462
  233SOL    HW1  698   1.073   2.350   2.277  2.1671  0.2451  1.2925
  233SOL    HW2  699   1.142   2.233   2.368 -1.8252  1.5716  1.5094
  234SOL     OW  700   1.375   1.408   1.675 -0.4041 -0.7429  0.6207
  234SOL    HW1  701   1.381   1.307   1.655  0.6140 -1.8562 -1.4220
  234SOL    HW2  702   1.309   1.441   1.746 -1.6151  1.5064  1.3631
  235SOL     OW  703   0.921   1.873   1.835 -0.0602 -0.0377  0.0924
  235SOL    HW1  704   0.930   1.973   1.855  3.2017 -1.2834 -3.5728
  235SOL    HW2  705   0.944   1.818   1.919 -2.3938 -0.8656  0.6179
  236SOL     OW  706   1.524   3.057   2.775  0.0200  0.5869 -0.0540
  236SOL    HW1  707   1.604   3.078   2.717  2.3734  0.8578  0.2508
  236SOL    HW2  708   1.533   2.961   2.808  0.4003 -0.9070 -1.0341
  237SOL     OW  709   1.378   0.184   1.299  0.0553 -0.9282  0.0254
  237SOL    HW1  710   1.380   0.278   1.336 -1.5475 -1.7569 -0.1589
  237SOL    HW2  711   1.396   0.116   1.375  1.2915  2.0283 -0.3587
  238SOL     OW  712   1.405   0.565   2.789 -0.4578 -1.2036  0.5233
  238SOL    HW1  713   1.417   0.607   2.693  3.1526 -0.0912  2.4690
  238SOL    HW2  714   1.308   0.564   2.822 -3.9461 -0.4000 -0.8767
  239SOL     OW  715   3.106   0.943   2.464 -0.0666 -0.2066 -0.1278
  239SOL    HW1  716   3.015   0.977   2.491 -0.3050  0.2886  0.3543
  239SOL    HW2  717   0.053   1.010   2.450 -1.9599 -1.2421  1.6519
  240SOL     OW  718   2.372   2.536   0.622 -0.5505 -0.8470 -0.4801
  240SOL    HW1  719   2.395   2.514   0.720  0.2345 -1.1942 -0.7716
  240SOL    HW2  720   2.356   2.449   0.572 -0.8917 -0.1345  2.7456
  241SOL     OW  721   1.204   1.156   1.038  0.0569  0.1775  0.1381
  241SOL    HW1  722   1.195   1.081   1.113 -0.8961  0.1197  1.3808
  241SOL    HW2  723   1.115   1.182   0.998 -2.3320 -0.0626 -0.6459
  242SOL     OW  724   0.608   0.688   0.858  0.1585 -0.2650  0.0243
  242SOL    HW1  725   0.644   0.780   0.885  1.7928 -0.3931  0.3582
  242SOL    HW2  726   0.578   0.697   0.758 -1.0619  0.9918  2.0485
  243SOL     OW  727   0.394   0.296   0.921 -0.2853 -0.6639  0.3818
  243SOL    HW1  728   0.464   0.375   0.945 -0.8459  2.5849  0.8882
  243SOL    HW2  729   0.434   0.206   0.947 -0.9832 -0.3426 -0.5155
  244SOL     OW  730   0.808   0.176   0.313 -0.5374 -0.1016 -0.0240
  244SOL    HW1  731   0.732   0.205   0.255  1.4095  0.9789  1.1178
  244SOL    HW2  732   0.810   0.231   0.400  1.2388  1.1587 -0.6010
  245SOL     OW  733   1.984   0.865   0.223  0.3495  0.0678 -0.2664
  245SOL    HW1  734   1.934   0.933   0.167 -0.0086 -1.5361 -2.5729
  245SOL    HW2  735   2.086   0.871   0.214  0.5814  2.6462 -0.5923
  246SOL     OW  736   0.087   0.684   1.705  0.6103 -0.2578 -0.3780
  246SOL    HW1  737   0.180   0.723   1.689 -5.0568 -0.6486 -1.9409
  246SOL    HW2  738   0.024   0.719   1.629 -2.5786  0.7357 -1.5795
  247SOL     OW  739   0.566   2.880   2.093 -0.1352 -0.2111 -0.0093
  247SOL    HW1  740   0.564   2.893   1.991 -0.8860 -0.0264 -0.7238
  247SOL    HW2  741   0.661   2.890   2.139  1.2870 -0.7378  1.7934
  248SOL     OW  742   0.481   1.368   2.303  0.6936 -0.1591  0.2556
  248SOL    HW1  743   0.565   1.411   2.338 -2.5712  1.9241 -1.0938
  248SOL    HW2  744   0.472   1.267   2.324 -2.1342 -0.1406  1.2401
  249SOL     OW  745   0.747   2.916   2.966  0.1374  0.4215 -0.2752
  249SOL    HW1  746   0.660   2.948   2.919  0.0440 -0.1531 -0.5833
  249SOL    HW2  747   0.732   2.837   3.029  1.3793 -1.7079 -0.0487
  250SOL     OW  748   0.585   0.292   2.405  0.3093  0.0238 -0.0176
  250SOL    HW1  749   0.675   0.269   2.370 -1.9082  2.5430  2.6401
  250SOL    HW2  750   0.513   0.246   2.349 -1.0193 -0.2748  1.2231
  251SOL     OW  751   3.026   1.650   1.185 -0.0331 -1.0440  0.0938
  251SOL    HW1  752   2.957   1.702   1.127 -0.8556 -0.7053  1.2407
  251SOL    HW2  753   3.000   1.548   1.183  1.6466 -2.6637 -0.1007
  252SOL     OW  754   1.846   2.955   1.950 -0.3662  0.0726 -0.0515
  252SOL    HW1  755   1.791   2.891   1.893 -0.0879  0.4847 -0.0804
  252SOL    HW2  756   1.935   2.910   1.979  1.5388 -3.1708 -1.8638
  253SOL     OW  757   2.271   1.536   2.723  0.3534 -0.5354  0.0552
  253SOL    HW1  758   2.334   1.524   2.800 -1.3742  2.8694  1.5430
  253SOL    HW2  759   2.236   1.629   2.721 -0.7706  1.2846  1.3442
  254SOL     OW  760   0.707   1.593   2.007  0.1792 -0.1734  0.0869
  254SOL    HW1  761   0.650   1.648   1.939 -1.4360  2.0508  0.7190
  254SOL    HW2  762   0.655   1.509   2.026  1.7661 -0.7114 -1.0677
  255SOL     OW  763   0.880   0.075   1.601  0.3863 -0.0917  0.3418
  255SOL    HW1  764   0.977   0.053   1.569 -0.5951  1.5212 -2.2248
  255SOL    HW2  765   0.876   0.136   1.684  0.3341  1.2493 -3.8051
  256SOL     OW  766   0.168   2.461   0.835 -0.3440 -0.2155 -0.0973
  256SOL    HW1  767   0.264   2.422   0.844  1.0331  0.2810 -0.8884
  256SOL    HW2  768   0.131   2.482   0.928  0.4638  0.0195 -1.1316
  257SOL     OW  769   0.206   2.676   2.291 -0.4002  0.0417 -0.1486
  257SOL    HW1  770   0.172   2.581   2.311  1.5402 -0.7115  0.3040
  257SOL    HW2  771   0.300   2.670   2.241 -0.1283  0.8633 -2.4065
  258SOL     OW  772   1.523   1.745   1.921  0.2790 -0.0301 -0.0485
  258SOL    HW1  773   1.521   1.648   1.895 -0.3599 -0.7386 -0.8281
  258SOL    HW2  774   1.445   1.791   1.877  0.2130 -0.8801 -0.0182
  259SOL     OW  775   1.034   1.470   2.314 -0.1567  0.0021  0.9657
  259SOL    HW1  776   1.011   1.477   2.218 -1.0173  0.0061 -0.7819
  259SOL    HW2  777   1.103   1.538   2.345 -0.1340  0.8482 -1.5039
  260SOL     OW  778   2.428   0.584   2.190  0.3670 -0.4228  0.2215
  260SOL    HW1  779   2.447   0.683   2.195  1.3897 -0.7169  0.5141
  260SOL    HW2  780   2.337   0.570   2.138 -1.0363  1.4241  0.3486
  261SOL     OW  781   0.908   1.184   0.669  0.0203  0.3588 -0.0584
  261SOL    HW1  782   0.850   1.267   0.680  0.0748  0.9370  1.4653
  261SOL    HW2  783   0.861   1.111   0.620  0.9689 -0.5632  0.4061
  262SOL     OW  784   2.287   2.077   2.718  0.0053 -0.2505 -0.1295
  262SOL    HW1  785   2.383   2.089   2.725 -4.9401 -2.7963 -1.3280
  262SOL    HW2  786   2.241   2.120   2.795  1.6804  1.9603  0.3686
  263SOL     OW  787   0.883   2.198   1.186  0.1372 -0.3250  0.2777
  263SOL    HW1  788   0.929   2.139   1.255  1.2538  0.8623 -2.3049
  263SOL    HW2  789   0.834   2.143   1.117  0.9588 -1.4491  1.8178
  264SOL     OW  790   3.094   2.442   0.401 -0.5221 -0.4973  0.0923
  264SOL    HW1  791   3.114   2.541   0.433 -1.0240  0.9177 -0.7228
  264SOL    HW2  792   3.110   2.378   0.479  1.8804  2.7249 -3.4032
  265SOL     OW  793   1.322   1.364   3.117  0.1887  0.5332 -0.6795
  265SOL    HW1  794   1.392   1.297   3.079  2.2196  0.3942 -2.8650
  265SOL    HW2  795   1.241   1.304   0.016  0.6236 -0.6257  1.1700
  266SOL     OW  796   0.773   1.908   2.305 -0.2555 -0.4005  0.1248
  266SOL    HW1  797   0.779   2.010   2.300 -2.0548  0.4815  0.4053
  266SOL    HW2  798   0.687   1.876   2.262  2.5800  1.4650  2.1802
  267SOL     OW  799   2.232   1.098   2.405  0.1073  0.7411 -0.1617
  267SOL    HW1  800   2.249   1.065   2.500  0.1320  1.2307  0.4107
  267SOL    HW2  801   2.164   1.176   2.404 -2.2540 -1.3302 -1.7288
  268SOL     OW  802   1.060   1.396   0.286  0.5909 -0.0943  0.7291
  268SOL    HW1  803   1.065   1.316   0.225 -0.3296 -0.0013  1.3847
  268SOL    HW2  804   1.114   1.378   0.370  2.5194 -3.8073 -2.2257
  269SOL     OW  805   2.695   1.890   2.476  0.0837 -0.1347  0.0013
  269SOL    HW1  806   2.710   1.930   2.569  2.2908 -0.6588  0.2029
  269SOL    HW2  807   2.792   1.869   2.440  3.0094  0.6481 -0.6136
  270SOL     OW  808   0.684   2.255   0.040 -0.2724  0.0746 -0.1512
  270SOL    HW1  809   0.601   2.299   0.003 -1.2927  1.8640  1.9642
  270SOL    HW2  810   0.772   2.284   3.122 -0.1584 -1.3625 -0.4035
  271SOL     OW  811   0.231   0.571   0.208 -0.1949 -0.2226 -0.6897
  271SOL    HW1  812   0.172   0.490   0.223 -1.0935  0.0571  2.0690
  271SOL    HW2  813   0.228   0.602   0.109  0.0017  3.1955 -2.6464
  272SOL     OW  814   2.817   0.118   0.379 -0.1880  0.2804 -0.1117
  272SOL    HW1  815   2.862   0.186   0.439 -0.0565  4.3788  1.4877
  272SOL    HW2  816   2.791   0.151   0.284  0.0114  1.6495  1.4724
  273SOL     OW  817   0.389   3.105   1.822  0.3811 -0.9577 -0.1775
  273SOL    HW1  818   0.480   3.072   1.841 -0.7621  1.2096  2.0869
  273SOL    HW2  819   0.325   3.028   1.836  0.1099  1.4868  0.8730
  274SOL     OW  820   3.011   0.484   1.363 -0.1815 -0.2374  0.5145
  274SOL    HW1  821   2.962   0.427   1.432 -0.5139  1.9498 -0.7238
  274SOL    HW2  822   3.097   0.438   1.329  1.0659 -3.3683 -0.0083
  275SOL     OW  823   0.719   1.393   1.024  0.0651 -0.1205 -0.3520
  275SOL    HW1  824   0.801   1.456   1.010 -4.0552  5.4050 -0.1747
  275SOL    HW2  825   0.710   1.349   1.115 -0.9556 -0.0563 -0.8579
  276SOL     OW  826   0.620   1.149   1.897 -0.1231  0.1840 -0.2589
  276SOL    HW1  827   0.614   1.241   1.931 -1.7231 -2.0592  0.7245
  276SOL    HW2  828   0.570   1.089   1.964 -1.6332 -1.4453  0.5681
  277SOL     OW  829   1.209   1.947   1.940  0.4819  0.2925  0.3670
  277SOL    HW1  830   1.248   1.967   2.036  1.0887  0.1670  1.0547
  277SOL    HW2  831   1.137   2.017   1.922  0.7256 -0.5684 -0.0277
  278SOL     OW  832   2.474   2.698   2.311 -0.0287  0.2253 -0.7498
  278SOL    HW1  833   2.443   2.706   2.216  2.5794 -0.3440  1.8031
  278SOL    HW2  834   2.443   2.612   2.359 -0.5835  2.2051  1.8733
  279SOL     OW  835   1.183   1.901   0.084  0.0529 -0.4554 -0.1557
  279SOL    HW1  836   1.275   1.914   0.127 -0.2742  3.9498 -1.9160
  279SOL    HW2  837   1.117   1.971   0.119 -1.6507 -1.3333 -0.5952
  280SOL     OW  838   1.205   0.363   0.381  1.0787 -0.0121  0.3443
  280SOL    HW1  839   1.256   0.324   0.457 -1.9340 -1.1691 -5.8030
  280SOL    HW2  840   1.267   0.386   0.305  0.5909 -2.2009  0.1038
  281SOL     OW  841   0.455   0.530   1.494  0.5768 -0.3366  0.0960
  281SOL    HW1  842   0.417   0.601   1.561  0.9439 -0.6066  0.7519
  281SOL    HW2  843   0.389   0.453   1.473 -0.8730  0.3535  0.9023
  282SOL     OW  844   0.279   2.713   0.678  0.2585 -0.3927 -0.9655
  282SOL    HW1  845   0.258   2.643   0.749 -0.0463  0.7764 -0.8703
  282SOL    HW2  846   0.239   2.685   0.590 -0.7059  0.2325  1.4565
  283SOL     OW  847   1.361   1.872   1.738  0.4881 -0.0177  1.2285
  283SOL    HW1  848   1.308   1.839   1.660 -1.4311 -0.5037 -1.0769
  283SOL    HW2  849   1.294   1.914   1.799 -2.2239 -0.2714 -1.8116
  284SOL     OW  850   2.819   2.871   1.570 -0.1616 -0.1529  0.1402
  284SOL    HW1  851   2.767   2.950   1.534  0.0886 -1.0454 -0.6835
  284SOL    HW2  852   2.858   2.823   1.488 -1.4436 -1.8259  0.5493
  285SOL     OW  853   0.165   2.702   0.165 -0.1001 -0.6705  0.0739
  285SOL    HW1  854   0.073   2.679   0.128  1.9443  1.3824  1.4888
  285SOL    HW2  855   0.210   2.614   0.194 -0.1495  2.9230  0.5917
  286SOL     OW  856   0.512   2.734   1.204  0.4993  0.5924 -0.0266
  286SOL    HW1  857   0.471   2.762   1.293  0.3728  1.1992 -2.6337
  286SOL    HW2  858   0.456   2.776   1.125 -2.2165 -0.1350 -1.0096
  287SOL     OW  859   0.755   1.404   0.677 -0.1725  0.5957 -0.1919
  287SOL    HW1  860   0.724   1.473   0.611 -0.1715  0.5768 -4.0766
  287SOL    HW2  861   0.724   1.432   0.775 -0.5190  2.2292  0.1763
  288SOL     OW  862   1.769   2.200   2.627  0.1955 -0.3990  0.2483
  288SOL    HW1  863   1.710   2.173   2.702 -0.5300 -0.6358 -2.3287
  288SOL    HW2  864   1.850   2.249   2.665 -1.9269  1.2209 -1.8464
  289SOL     OW  865   2.447   1.648   0.172 -0.1919  0.1045  0.3433
  289SOL    HW1  866   2.358   1.688   0.186  2.2550 -3.4237  2.4158
  289SOL    HW2  867   2.447   1.554   0.129  2.9081 -3.2293  0.6565
  290SOL     OW  868   1.367   1.364   1.031  0.5103  0.1172  0.1308
  290SOL    HW1  869   1.376   1.394   1.129  1.4301  1.5211  0.3906
  290SOL    HW2  870   1.300   1.286   1.022 -0.6600  0.4384 -4.0433
  291SOL     OW  871   1.525   1.163   3.123  0.3389 -0.1677  0.5864
  291SOL    HW1  872   1.510   1.118   0.090 -0.5951 -0.3882  1.2099
  291SOL    HW2  873   1.555   1.094   3.055 -1.9625  0.7379 -0.6573
  292SOL     OW  874   1.328   1.622   0.232 -0.2488 -0.0495 -0.4041
  292SOL    HW1  875   1.279   1.558   0.172  0.2250 -1.0009 -0.8841
  292SOL    HW2  876   1.413   1.647   0.186  0.8674 -1.2025  1.4940
  293SOL     OW  877   1.413   3.121   1.097  0.1580  0.5798 -0.5372
  293SOL    HW1  878   1.409   0.064   1.170 -2.2887 -1.6159 -1.4943
  293SOL    HW2  879   1.373   3.037   1.142  0.0742  2.4787  1.4405
  294SOL     OW  880   2.229   1.011   2.679 -0.3553  0.4772  0.2584
  294SOL    HW1  881   2.190   0.954   2.753 -0.9810  0.5009  2.6482
  294SOL    HW2  882   2.231   1.107   2.714 -0.5814 -0.0587 -0.6496
  295SOL     OW  883   1.720   1.957   2.957 -0.5220  0.4553  0.0608
  295SOL    HW1  884   1.683   1.914   3.041 -1.2684  1.8499 -3.0797
  295SOL    HW2  885   1.764   1.891   2.893  3.4665 -1.5616 -0.1028
  296SOL     OW  886   1.219   1.005   1.285 -0.4102  0.0523 -0.3377
  296SOL    HW1  887   1.145   0.974   1.350 -0.1639 -0.6648  0.3259
  296SOL    HW2  888   1.295   0.934   1.283 -1.0475  0.7118 -0.5113
  297SOL     OW  889   0.314   0.766   2.083  0.0516 -0.0213 -0.1424
  297SOL    HW1  890   0.344   0.692   2.019  1.7225 -1.5339 -3.1152
  297SOL    HW2  891   0.248   0.730   2.151 -1.1673 -1.7777  2.5506
  298SOL     OW  892   1.462   1.739   1.397 -0.2258  0.0729  0.5769
  298SOL    HW1  893   1.514   1.821   1.435  0.3061 -2.3892 -0.6503
  298SOL    HW2  894   1.497   1.661   1.449  1.8575  3.2815 -3.8680
  299SOL     OW  895   1.103   3.096   2.670  0.2218 -0.4580  0.3554
  299SOL    HW1  896   1.191   3.064   2.629 -2.2300  1.3952 -2.3481
  299SOL    HW2  897   1.045   3.013   2.681  0.8697  0.5193 -2.0192
  300SOL     OW  898   2.723   2.161   0.419  0.3196  0.1760 -0.1886
  300SOL    HW1  899   2.789   2.179   0.492 -1.4484 -2.6806 -4.5548
  300SOL    HW2  900   2.686   2.244   0.379 -0.4979 -0.2529  3.5238
  301SOL     OW  901   2.290   0.417   2.524 -0.0045 -1.1226 -0.2903
  301SOL    HW1  902   2.367   0.348   2.501  1.4844 -4.3097 -0.2773
  301SOL    HW2  903   2.318   0.490   2.593 -0.6297 -1.4274 -2.0780
  302SOL     OW  904   2.332   2.225   3.103  0.6530 -0.8859 -0.9989
  302SOL    HW1  905   2.383   2.138   3.122 -2.6840 -2.3212 -0.9351
  302SOL    HW2  906   2.384   2.307   3.065 -0.8259 -0.4966  3.7613
  303SOL     OW  907   0.021   2.496   2.605 -0.4314 -0.2325  0.7396
  303SOL    HW1  908   0.019   2.599   2.594  0.4388  1.0580  0.2302
  303SOL    HW2  909   3.092   2.472   2.685  2.3799  0.8114 -1.0957
  304SOL     OW  910   0.084   1.611   0.966 -0.1196 -0.2495 -0.7132
  304SOL    HW1  911   0.012   1.626   1.042 -2.9094 -0.2155  0.0774
  304SOL    HW2  912   0.173   1.656   0.987  0.0983 -1.7280 -0.1489
  305SOL     OW  913   2.981   0.707   1.807 -0.2710  0.1293  0.0065
  305SOL    HW1  914   3.081   0.696   1.782 -1.8235 -1.3973 -1.7989
  305SOL    HW2  915   2.921   0.640   1.762  0.4837  1.2702  2.8359
  306SOL     OW  916   1.363   1.377   0.625  0.9565  0.7199 -0.3494
  306SOL    HW1  917   1.384   1.429   0.713  0.0640  0.8455  0.6662
  306SOL    HW2  918   1.413   1.420   0.543 -0.2762  3.8976 -0.8266
  307SOL     OW  919   0.278   0.053   0.662  0.2991 -0.4533 -0.0153
  307SOL    HW1  920   0.252   0.018   0.569 -2.7605 -1.5912  1.2581
  307SOL    HW2  921   0.297   0.153   0.665  0.4043  2.5343 -1.8795
  308SOL     OW  922   0.166   1.206   2.185  0.0152 -0.5160 -0.0636
  308SOL    HW1  923   0.210   1.188   2.276 -1.8626 -0.3387 -1.6078
  308SOL    HW2  924   0.166   1.120   2.124  2.3352 -0.7433  1.1636
  309SOL     OW  925   2.981   1.895   2.444 -0.0261 -0.0125  0.3315
  309SOL    HW1  926   3.015   1.860   2.356 -0.5554  0.4366 -0.3294
  309SOL    HW2  927   3.010   1.835   2.522  0.1091 -0.3150  0.4106
  310SOL     OW  928   2.263   0.587   0.057  0.7597 -0.3081  0.1826
  310SOL    HW1  929   2.343   0.639   0.088 -0.3954  1.0884 -0.6602
  310SOL    HW2  930   2.237   0.611   3.087  0.5900 -0.9365 -1.3893
  311SOL     OW  931   2.085   0.882   2.877 -0.3301 -0.1642  0.4008
  311SOL    HW1  932   2.044   0.966   2.915 -0.6112 -0.3200  0.1007
  311SOL    HW2  933   2.012   0.806   2.854 -2.1440 -0.2941 -1.3249
  312SOL     OW  934   1.383   1.986   2.700  0.0676 -0.0910  0.1472
  312SOL    HW1  935   1.428   1.936   2.625 -2.8207  1.3791  0.7651
  312SOL    HW2  936   1.450   2.059   2.732  3.4642  1.8226 -0.8805
  313SOL     OW  937   0.311   0.645   0.465 -0.4764 -0.1788 -0.0900
  313SOL    HW1  938   0.304   0.639   0.367  2.0270 -1.1771 -0.0662
  313SOL    HW2  939   0.225   0.676   0.512  1.5918  2.0294  0.6797
  314SOL     OW  940   0.525   1.644   1.257  0.0784 -0.0077  0.1118
  314SOL    HW1  941   0.600   1.628   1.192 -1.8828 -0.4153 -0.4765
  314SOL    HW2  942   0.536   1.590   1.342  0.2700  0.4306  0.2444
  315SOL     OW  943   0.908   1.734   2.110 -0.5034  0.1763  0.2792
  315SOL    HW1  944   0.826   1.682   2.088 -1.1700  0.5575 -1.1208
  315SOL    HW2  945   0.886   1.802   2.183 -0.2379  2.4718 -0.7115
  316SOL     OW  946   0.574   2.695   0.630 -0.0813 -0.3802 -0.0926
  316SOL    HW1  947   0.473   2.718   0.622 -1.1084 -0.5732  0.9053
  316SOL    HW2  948   0.595   2.724   0.723  1.0586 -0.5146 -2.1185
  317SOL     OW  949   2.241   0.227   1.269 -0.0092 -0.1052 -0.4545
  317SOL    HW1  950   2.287   0.160   1.211  0.2400  0.6296  0.2694
  317SOL    HW2  951   2.240   0.319   1.225 -0.5076  0.2167  2.0940
  318SOL     OW  952   1.704   0.101   0.398  0.0226  0.2514 -0.2588
  318SOL    HW1  953   1.674   0.183   0.452 -1.0999  4.7023  0.3786
  318SOL    HW2  954   1.797   0.112   0.361  0.6328 -1.2066  1.1239
  319SOL     OW  955   1.895   0.582   2.617  0.0884  0.5085 -0.2098
  319SOL    HW1  956   1.947   0.666   2.592 -1.8931 -0.2464 -1.1538
  319SOL    HW2  957   1.947   0.495   2.604 -0.6822  1.6121  2.8876
  320SOL     OW  958   2.855   2.176   1.885 -0.2628 -0.4820 -0.0359
  320SOL    HW1  959   2.870   2.277   1.896 -1.4695 -1.0002  1.9550
  320SOL    HW2  960   2.780   2.140   1.943  1.2272 -0.8824  2.0418
  321SOL     OW  961   0.165   2.346   2.903 -0.8734 -0.1095 -0.8283
  321SOL    HW1  962   0.201   2.439   2.879 -0.5040 -1.1134  0.8489
  321SOL    HW2  963   0.097   2.354   2.978  2.2385  0.2403 -2.5751
  322SOL     OW  964   2.526   0.647   2.455 -0.1518 -0.7196  0.2084
  322SOL    HW1  965   2.506   0.654   2.355 -0.5965  0.2693 -1.3877
  322SOL    HW2  966   2.595   0.571   2.472  0.5608  1.1138 -1.5732
  323SOL     OW  967   2.443   1.040   0.651  0.4746  0.4768 -0.1326
  323SOL    HW1  968   2.514   0.967   0.653 -0.0889  0.5215  0.7674
  323SOL    HW2  969   2.357   0.999   0.613  1.7969  1.0686 -0.8584
  324SOL     OW  970   0.148   0.339   1.019  0.4510 -0.5152 -0.2293
  324SOL    HW1  971   0.241   0.314   0.996 -3.7581 -1.7487 -1.0166
  324SOL    HW2  972   0.143   0.398   1.103 -2.3358  3.1639 -0.4909
  325SOL     OW  973   2.550   0.085   1.680  0.0110  0.0522 -0.2238
  325SOL    HW1  974   2.625   0.129   1.735  2.9166 -1.2569  1.1662
  325SOL    HW2  975   2.502   0.153   1.620  0.9772  2.2156  0.6443
  326SOL     OW  976   1.531   2.828   0.215  0.5884 -0.0479  0.9949
  326SOL    HW1  977   1.547   2.745   0.272 -1.2588  3.2001 -0.5517
  326SOL    HW2  978   1.623   2.853   0.177  1.2821 -1.5530  2.3021
  327SOL     OW  979   1.757   1.973   0.318 -0.7387  0.0396 -0.0799
  327SOL    HW1  980   1.776   2.069   0.349  0.9465  0.0955 -1.8285
  327SOL    HW2  981   1.733   1.913   0.397 -2.0110  0.5403 -2.0528
  328SOL     OW  982   2.955   2.128   2.181  0.0346  0.2557  0.2332
  328SOL    HW1  983   2.907   2.054   2.133  3.8074  2.9847  0.0619
  328SOL    HW2  984   2.899   2.210   2.176 -0.7718 -0.6490  1.9988
  329SOL     OW  985   3.038   2.220   1.248  0.1072  0.3746  0.2474
  329SOL    HW1  986   3.038   2.307   1.306 -0.6642  1.5001  1.8467
  329SOL    HW2  987   3.084   2.147   1.304  1.7026  4.9026  0.2108
  330SOL     OW  988   2.668   0.841   2.595  0.0362  0.1213 -0.1835
  330SOL    HW1  989   2.608   0.768   2.568 -0.3449  2.3389  0.8034
  330SOL    HW2  990   2.681   0.894   2.508  0.0458  2.3499  0.3691
  331SOL     OW  991   2.387   1.941   0.867 -0.4798 -0.1855  0.0091
  331SOL    HW1  992   2.286   1.946   0.888 -2.6169 -0.7583  0.3897
  331SOL    HW2  993   2.412   2.015   0.803  1.8553  1.2771  0.1027
  332SOL     OW  994   0.377   2.847   0.999 -0.1409  0.5907 -0.2760
  332SOL    HW1  995   0.375   2.940   0.959  1.1359  0.7547 -0.4928
  332SOL    HW2  996   0.279   2.817   1.009  0.5058  2.9760 -1.9945
  333SOL     OW  997   2.537   1.909   2.269  0.8399 -0.3494  0.3934
  333SOL    HW1  998   2.518   2.009   2.255  0.7727  0.0360 -1.5822
  333SOL    HW2  999   2.587   1.885   2.354 -0.4601  4.8485 -3.1746
  334SOL     OW 1000   0.712   0.938   0.849 -0.0657 -0.4137 -0.1027
  334SOL    HW1 1001   0.800   0.939   0.901  0.9255  0.5811  0.7612
  334SOL    HW2 1002   0.651   1.017   0.869  0.3762  1.8416 -1.7659
  335SOL     OW 1003   0.003   1.761   2.218 -0.0523 -0.3200  0.3889
  335SOL    HW1 1004   3.095   1.676   2.261 -1.2991  3.5907  1.3764
  335SOL    HW2 1005   3.111   1.760   2.117 -2.0476  1.9555 -1.2515
  336SOL     OW 1006   2.417   2.972   2.362 -0.3180  0.0399  0.2898
  336SOL    HW1 1007   2.425   2.871   2.371  1.2471 -1.2032 -1.1313
  336SOL    HW2 1008   2.327   2.994   2.326  0.3873  1.7946  1.1650
  337SOL     OW 1009   0.869   0.649   0.821  0.4300 -0.2413 -0.1588
  337SOL    HW1 1010   0.770   0.637   0.830  1.0248 -0.2456 -1.5179
  337SOL    HW2 1011   0.918   0.597   0.894 -1.4107  0.0403  0.5208
  338SOL     OW 1012   1.537   1.672   1.131  0.3960 -0.3000  0.5859
  338SOL    HW1 1013   1.491   1.701   1.214  0.2139 -0.8639 -1.7547
  338SOL    HW2 1014   1.636   1.651   1.151  2.0534 -1.6802 -1.8492
  339SOL     OW 1015   0.351   1.672   1.028 -0.2227 -0.1379 -0.1282
  339SOL    HW1 1016   0.382   1.660   1.127  2.0836 -0.4428  0.1520
  339SOL    HW2 1017   0.359   1.770   1.003 -2.2274 -0.3816 -0.2273
  340SOL     OW 1018   1.028   2.906   2.030  0.1127  0.1313  0.5094
  340SOL    HW1 1019   1.033   2.883   1.930 -1.5616  0.0007 -1.3319
  340SOL    HW2 1020   1.059   3.002   2.030  1.7461 -1.3773 -0.9542
  341SOL     OW 1021   2.164   1.579   0.778  0.1128  0.7953 -0.2763
  341SOL    HW1 1022   2.111   1.497   0.808 -0.3413 -1.1896 -1.8314
  341SOL    HW2 1023   2.212   1.557   0.689 -0.3552 -0.7958 -0.3566
  342SOL     OW 1024   2.238   1.003   0.259  0.1023  0.3484  0.3953
  342SOL    HW1 1025   2.337   1.026   0.247  0.5163  1.4494  1.4329
  342SOL    HW2 1026   2.187   1.084   0.220 -1.9234  1.2575  0.6732
  343SOL     OW 1027   2.025   0.037   1.038 -0.1416  0.6371 -0.0807
  343SOL    HW1 1028   1.925   0.049   1.060 -0.2236 -3.8033  1.2431
  343SOL    HW2 1029   2.084   0.065   1.115 -0.3475  0.9613 -0.8646
  344SOL     OW 1030   2.611   0.363   3.122  0.0374 -0.0292  0.0255
  344SOL    HW1 1031   2.661   0.279   3.087  0.5675 -2.3789 -2.7805
  344SOL    HW2 1032   2.513   0.358   3.104  4.1348  0.5054 -0.1353
  345SOL     OW 1033   0.938   2.392   1.987  0.0126 -0.2613  0.1011
  345SOL    HW1 1034   0.995   2.441   1.915  0.7154  2.4255 -0.3869
  345SOL    HW2 1035   0.841   2.373   1.957  0.6304  0.9848  1.9352
  346SOL     OW 1036   2.422   2.483   0.909  0.4035 -0.2816  0.5764
  346SOL    HW1 1037   2.344   2.532   0.955  0.9841  0.0287  1.0491
  346SOL    HW2 1038   2.515   2.527   0.922  0.6332 -0.3377 -3.4292
  347SOL     OW 1039   2.004   2.986   1.478  0.5274  0.6301 -0.2321
  347SOL    HW1 1040   2.037   2.982   1.381  0.4486 -0.4458 -1.6103
  347SOL    HW2 1041   1.912   3.030   1.482  1.8655  2.1629 -0.6520
  348SOL     OW 1042   0.791   0.717   1.436  0.3936  0.6931 -0.5029
  348SOL    HW1 1043   0.726   0.764   1.498 -1.2973 -0.0180  1.1892
  348SOL    HW2 1044   0.733   0.655   1.377 -1.0045  0.0514 -1.2170
  349SOL     OW 1045   2.401   0.583   2.718  0.5626  0.0202  0.0835
  349SOL    HW1 1046   2.430   0.644   2.641  0.5435  0.6344  0.3612
  349SOL    HW2 1047   2.482   0.558   2.773  1.1917 -2.7491 -0.5438
  350SOL     OW 1048   2.132   2.184   2.914  0.2026  0.0768  0.9951
  350SOL    HW1 1049   2.034   2.185   2.931  0.8064  0.8829  1.0476
  350SOL    HW2 1050   2.190   2.190   2.999  0.1274 -0.2378 -1.4755
  351SOL     OW 1051   0.958   0.459   0.500 -0.0371  0.7218  0.0395
  351SOL    HW1 1052   0.970   0.558   0.525  1.3887  1.2417  0.4461
  351SOL    HW2 1053   1.045   0.425   0.453  0.1066  1.9537  0.9319
  352SOL     OW 1054   1.545   2.162   2.891 -0.0468  0.1025 -0.0684
  352SOL    HW1 1055   1.602   2.091   2.942  2.3609  0.6679 -1.2993
  352SOL    HW2 1056   1.450   2.149   2.930  0.9119  0.0203  0.5270
  353SOL     OW 1057   0.607   0.965   2.899 -0.1978  0.2945 -0.2603
  353SOL    HW1 1058   0.522   1.017   2.893 -2.5776 -1.9957  0.6204
  353SOL    HW2 1059   0.671   1.018   2.962 -1.2085  0.9817  0.9737
  354SOL     OW 1060   0.542   2.578   2.766  0.0530  0.4961  0.2469
  354SOL    HW1 1061   0.544   2.482   2.735 -1.9505  1.3051 -1.8205
  354SOL    HW2 1062   0.634   2.612   2.806  0.6909  0.5156  1.9408
  355SOL     OW 1063   2.648   2.741   1.727 -0.3584 -0.5831  0.0423
  355SOL    HW1 1064   2.677   2.766   1.825 -0.3202  0.4283  0.8749
  355SOL    HW2 1065   2.722   2.779   1.666  0.1630  0.1427  0.0813
  356SOL     OW 1066   2.725   1.320   1.319  0.5373  0.2321 -0.1347
  356SOL    HW1 1067   2.717   1.359   1.410  0.7005 -1.5789 -0.3740
  356SOL    HW2 1068   2.634   1.301   1.274 -0.2039 -0.6326 -0.0663
  357SOL     OW 1069   2.656   0.305   1.329  0.1379 -0.2843 -0.3107
  357SOL    HW1 1070   2.712   0.302   1.414 -0.8635  1.7835 -1.7883
  357SOL    HW2 1071   2.701   0.259   1.252 -3.3670  1.7243 -0.3491
  358SOL     OW 1072   0.423   1.849   1.623  0.4506  1.3357  0.1048
  358SOL    HW1 1073   0.464   1.891   1.540 -1.0559  2.0763 -0.5784
  358SOL    HW2 1074   0.357   1.908   1.676  1.3140  0.9190 -2.1612
  359SOL     OW 1075   2.733   2.803   2.717 -0.1623  0.5240 -0.4377
  359SOL    HW1 1076   2.654   2.869   2.717  1.1767 -2.6456  0.4647
  359SOL    HW2 1077   2.719   2.744   2.635  1.4282 -2.8739  2.0959
  360SOL     OW 1078   1.158   0.715   1.619  0.2880  0.1650 -0.5176
  360SOL    HW1 1079   1.099   0.636   1.588 -0.5619 -1.8963 -1.0558
  360SOL    HW2 1080   1.179   0.704   1.717 -0.2669  1.8439 -2.1792
  361SOL     OW 1081   2.296   0.023   0.808  0.0010 -0.5092  0.1305
  361SOL    HW1 1082   2.222   0.077   0.769 -2.4025  3.0222  2.0637
  361SOL    HW2 1083   2.367   0.012   0.740 -1.1766  0.2520  2.3273
  362SOL     OW 1084   0.692   0.078   0.575 -0.1837  0.0901 -0.2375
  362SOL    HW1 1085   0.639   0.127   0.502  1.9042 -3.6901 -2.1906
  362SOL    HW2 1086   0.779   0.038   0.542  0.0047  0.4120 -1.7571
  363SOL     OW 1087   1.054   1.563   0.761  0.2609  0.3681 -0.3495
  363SOL    HW1 1088   1.058   1.480   0.701 -0.3819  1.4734  0.8175
  363SOL    HW2 1089   1.140   1.564   0.822 -0.6065  0.3218  0.4524
  364SOL     OW 1090   0.360   0.721   1.675  0.0208  0.0173  0.6096
  364SOL    HW1 1091   0.385   0.654   1.749 -0.4745  1.3173  0.1000
  364SOL    HW2 1092   0.397   0.813   1.703  1.9043  2.3563 -1.9539
  365SOL     OW 1093   2.964   0.860   0.863 -0.0445 -0.1446 -0.1645
  365SOL    HW1 1094   3.047   0.819   0.910  3.2703  0.0523  0.9620
  365SOL    HW2 1095   2.963   0.814   0.768  1.2998 -4.0935 -1.0725
  366SOL     OW 1096   2.762   1.697   0.693  0.0050 -0.7831 -0.3455
  366SOL    HW1 1097   2.714   1.700   0.603  1.1928  1.6165  2.0562
  366SOL    HW2 1098   2.829   1.621   0.697 -2.8076  1.4361  0.5944
  367SOL     OW 1099   2.077   2.018   2.170  0.7087 -0.2734  0.1814
  367SOL    HW1 1100   2.054   1.965   2.088  0.4268 -1.2179  3.3060
  367SOL    HW2 1101   2.029   2.108   2.172  0.3702 -0.8358  0.4315
  368SOL     OW 1102   2.653   1.876   0.869  0.2933  0.4562 -0.1179
  368SOL    HW1 1103   2.686   1.804   0.806 -0.4748  2.9986 -1.6772
  368SOL    HW2 1104   2.554   1.890   0.860  5.8276 -0.4522 -0.0307
  369SOL     OW 1105   2.037   2.582   2.781  0.7936 -0.6554 -0.4718
  369SOL    HW1 1106   2.017   2.669   2.728 -0.0623 -0.6909 -4.3679
  369SOL    HW2 1107   1.982   2.586   2.865  1.3341  0.5572 -1.3272
  370SOL     OW 1108   0.112   0.126   1.182 -0.0934 -0.1097  0.1851
  370SOL    HW1 1109   0.119   0.214   1.133 -0.1410 -1.9410  0.8940
  370SOL    HW2 1110   0.205   0.080   1.184  4.1905 -3.5764  0.0633
  371SOL     OW 1111   0.683   2.123   0.264  0.0230  0.4041  0.0785
  371SOL    HW1 1112   0.687   2.178   0.176  1.2508  2.2406 -1.6265
  371SOL    HW2 1113   0.590   2.077   0.274 -0.8583  1.3666  2.3560
  372SOL     OW 1114   1.104   1.214   0.087 -0.0370 -0.0905 -0.1598
  372SOL    HW1 1115   1.108   1.114   0.107 -0.4038  3.0150  0.0819
  372SOL    HW2 1116   1.055   1.237   0.001 -2.6068  0.2432  0.9796
  373SOL     OW 1117   1.363   2.464   2.426 -0.3224  0.1859  0.0805
  373SOL    HW1 1118   1.307   2.382   2.441 -0.8909  1.8785 -1.1034
  373SOL    HW2 1119   1.437   2.449   2.357 -2.0334 -2.3718 -0.6820
  374SOL     OW 1120   0.442   2.344   3.061 -0.4570  0.2443 -0.3284
  374SOL    HW1 1121   0.413   2.289   0.013 -2.8080 -1.5332 -1.7048
  374SOL    HW2 1122   0.362   2.374   3.015  1.8246 -2.3611 -0.8366
  375SOL     OW 1123   0.611   0.900   1.572 -0.3948  0.0935 -0.1617
  375SOL    HW1 1124   0.670   0.978   1.566 -3.9750 -2.2265  0.4039
  375SOL    HW2 1125   0.554   0.905   1.652  4.1533 -0.4821 -2.5215
  376SOL     OW 1126   0.514   2.359   1.641  0.4506  0.4230 -0.6273
  376SOL    HW1 1127   0.446   2.327   1.567  1.6080 -0.1410 -3.0030
  376SOL    HW2 1128   0.482   2.346   1.737 -0.5860 -1.2215  2.1910
  377SOL     OW 1129   2.922   1.474   2.637  0.1704  0.0377 -0.0324
  377SOL    HW1 1130   2.836   1.468   2.578 -0.2222 -0.3165 -0.5544
  377SOL    HW2 1131   2.898   1.482   2.736  0.1446  0.2464  1.6083
  378SOL     OW 1132   1.489   3.101   3.084 -0.0661 -0.2365 -0.0727
  378SOL    HW1 1133   1.499   0.030   3.000  0.3902  2.0260 -2.2289
  378SOL    HW2 1134   1.386   3.081   3.095 -3.5673 -3.0130  1.5020
  379SOL     OW 1135   1.728   0.775   0.700 -0.3072  0.3079  0.0598
  379SOL    HW1 1136   1.766   0.861   0.731  1.9551 -1.0670 -0.6765
  379SOL    HW2 1137   1.768   0.758   0.605  3.0859  1.0306  1.7893
  380SOL     OW 1138   0.261   2.097   1.281 -0.3345  0.2263 -0.1173
  380SOL    HW1 1139   0.179   2.051   1.307  1.4592  0.3410  1.3713
  380SOL    HW2 1140   0.342   2.046   1.317  1.8231  3.4180 -2.2688
  381SOL     OW 1141   2.518   1.697   2.599  0.1124 -0.1390 -0.4387
  381SOL    HW1 1142   2.578   1.774   2.564  0.4937 -1.0754 -1.0215
  381SOL    HW2 1143   2.428   1.725   2.632  0.7393 -1.9875 -1.4388
  382SOL     OW 1144   0.061   0.184   2.550  0.6273 -0.0590  1.0251
  382SOL    HW1 1145   0.027   0.104   2.495 -1.3750 -2.4034 -1.0410
  382SOL    HW2 1146   0.120   0.243   2.490  2.2246  1.2885 -1.3445
  383SOL     OW 1147   1.851   1.306   3.072 -0.4433 -0.0001  0.4124
  383SOL    HW1 1148   1.913   1.385   3.072 -0.6669  1.0525  1.1119
  383SOL    HW2 1149   1.776   1.328   0.005 -0.7447 -0.2711 -0.5965
  384SOL     OW 1150   1.204   2.103   1.529 -0.5007 -0.2220  0.2163
  384SOL    HW1 1151   1.136   2.149   1.592 -0.1382  1.6892  0.2925
  384SOL    HW2 1152   1.280   2.164   1.514 -1.9813 -1.7649  0.4014
  385SOL     OW 1153   1.843   2.563   1.047 -0.1092 -0.5660  0.3299
  385SOL    HW1 1154   1.825   2.662   1.076  0.1183 -0.1562 -0.0020
  385SOL    HW2 1155   1.837   2.557   0.944 -0.4990 -2.1404 -0.2889
  386SOL     OW 1156   1.893   2.121   1.133  0.1620  0.2821 -0.0827
  386SOL    HW1 1157   1.931   2.113   1.042 -0.4655  1.1612  2.2401
  386SOL    HW2 1158   1.809   2.179   1.132  0.5595 -0.3487 -0.0922
  387SOL     OW 1159   2.869   2.078   1.630  0.1653 -0.1441 -0.0870
  387SOL    HW1 1160   2.875   2.128   1.719 -0.1106  2.9366 -1.7179
  387SOL    HW2 1161   2.776   2.098   1.588 -1.2177 -1.2370 -0.2692
  388SOL     OW 1162   2.671   0.794   1.674 -0.4810  0.2661  0.3576
  388SOL    HW1 1163   2.718   0.885   1.667  1.5837  0.2435  0.0341
  388SOL    HW2 1164   2.596   0.789   1.606  2.3236  2.0538  0.4254
  389SOL     OW 1165   1.831   0.762   0.425  0.3743 -0.3835 -0.5556
  389SOL    HW1 1166   1.901   0.801   0.361  0.4459 -0.0794 -0.4197
  389SOL    HW2 1167   1.751   0.720   0.372 -0.2100 -0.7087 -1.0941
  390SOL     OW 1168   1.111   1.918   2.782 -0.6093  0.1849  0.2069
  390SOL    HW1 1169   1.048   1.997   2.769  2.8789  0.5525  0.2954
  390SOL    HW2 1170   1.199   1.941   2.740 -2.2581  1.0847 -0.3914
  391SOL     OW 1171   1.011   2.135   0.086  0.0141 -0.2331 -0.0043
  391SOL    HW1 1172   1.041   2.232   0.082  0.1050  0.0923 -0.1828
  391SOL    HW2 1173   0.980   2.097   3.123 -1.2619 -0.9622 -0.1295
  392SOL     OW 1174   0.126   2.707   1.680  0.1772  0.2061  0.0333
  392SOL    HW1 1175   0.216   2.690   1.731  0.3587 -1.4325 -1.8659
  392SOL    HW2 1176   0.050   2.745   1.741 -2.2482  0.4811  3.0106
  393SOL     OW 1177   1.624   2.617   0.337 -0.0845 -0.3763 -0.1518
  393SOL    HW1 1178   1.688   2.576   0.265  0.2078 -2.9521  1.1722
  393SOL    HW2 1179   1.571   2.536   0.369  0.2722  1.0076  0.0747
  394SOL     OW 1180   0.517   0.567   2.319  0.0156 -0.0670 -0.2984
  394SOL    HW1 1181   0.444   0.624   2.370  1.2074  0.3437 -1.2230
  394SOL    HW2 1182   0.528   0.472   2.361 -0.5490  0.4922 -0.4646
  395SOL     OW 1183   0.277   1.075   1.050  0.1646 -0.2254 -0.2741
  395SOL    HW1 1184   0.213   1.041   1.120 -1.5699  2.3900 -0.7207
  395SOL    HW2 1185   0.227   1.149   0.999 -0.6121  0.6369  1.1002
  396SOL     OW 1186   1.868   1.175   2.191 -0.1077  0.0602 -0.0196
  396SOL    HW1 1187   1.936   1.246   2.167 -0.5262  1.6490 -1.4569
  396SOL    HW2 1188   1.845   1.191   2.289  0.2029 -0.6780 -0.8476
  397SOL     OW 1189   0.772   0.345   3.101  0.5728  0.0317 -0.0683
  397SOL    HW1 1190   0.774   0.448   3.075  1.2066  2.3138  0.9161
  397SOL    HW2 1191   0.680   0.322   0.008 -2.4417  1.0776 -2.1045
  398SOL     OW 1192   0.919   2.147   2.806  0.1246 -0.3770  0.2441
  398SOL    HW1 1193   0.929   2.216   2.882 -1.0072  1.6174  0.9881
  398SOL    HW2 1194   0.830   2.091   2.805 -0.7189  1.8248 -0.9280
  399SOL     OW 1195   2.275   1.591   2.440  0.6236 -0.2779  0.0406
  399SOL    HW1 1196   2.254   1.553   2.532  0.7389 -1.1204 -0.9443
  399SOL    HW2 1197   2.280   1.695   2.444 -0.6505 -0.7602 -3.9760
  400SOL     OW 1198   2.265   1.407   1.250 -0.6266  0.4779  0.5435
  400SOL    HW1 1199   2.341   1.384   1.190 -3.7792  1.2661 -0.3989
  400SOL    HW2 1200   2.249   1.509   1.242  0.5168 -0.8099  0.8891
  401SOL     OW 1201   1.111   1.548   1.197 -0.2551 -0.7037 -0.5393
  401SOL    HW1 1202   1.209   1.532   1.205 -3.7795  0.1033  2.3317
  401SOL    HW2 1203   1.064   1.501   1.276 -0.8118  1.2382 -0.4691
  402SOL     OW 1204   0.129   2.440   1.949 -0.1218 -0.5359 -0.3412
  402SOL    HW1 1205   0.053   2.455   2.020 -0.3241  0.8252 -1.6933
  402SOL    HW2 1206   0.145   2.524   1.898 -3.5035  1.3320 -1.6191
  403SOL     OW 1207   0.239   1.127   2.434 -0.4603 -0.0751 -0.4652
  403SOL    HW1 1208   0.258   1.214   2.482  1.4454 -0.5304 -2.2441
  403SOL    HW2 1209   0.331   1.081   2.414  1.0749 -2.0374 -0.3395
  404SOL     OW 1210   2.179   2.014   1.427  0.1422 -0.2717 -0.1495
  404SOL    HW1 1211   2.232   2.100   1.451  1.1988  1.4955 -0.4224
  404SOL    HW2 1212   2.250   1.947   1.392  1.1477 -0.4929 -0.6158
  405SOL     OW 1213   2.693   0.412   2.488 -0.4002 -0.4222 -0.1293
  405SOL    HW1 1214   2.781   0.395   2.441 -3.0053 -1.6770  2.6369
  405SOL    HW2 1215   2.625   0.350   2.449 -0.7013  1.4740  0.8344
  406SOL     OW 1216   0.735   1.143   3.083 -0.1650  0.4724 -0.7087
  406SOL    HW1 1217   0.645   1.189   3.074 -2.7536 -2.9133 -1.4627
  406SOL    HW2 1218   0.819   1.178   3.035  1.2749 -2.2786 -0.6444
  407SOL     OW 1219   1.814   2.578   2.965  0.1951  0.3205 -0.1743
  407SOL    HW1 1220   1.753   2.517   2.911 -0.7364  2.7114 -0.5494
  407SOL    HW2 1221   1.767   2.672   2.970 -0.7897  0.5628  0.5229
  408SOL     OW 1222   0.416   0.069   3.120 -0.3456  0.0231  0.4063
  408SOL    HW1 1223   0.460   0.061   0.088 -4.3978  0.2761 -1.0877
  408SOL    HW2 1224   0.465   0.001   3.058  1.3064  0.6578 -1.0364
  409SOL     OW 1225   2.343   1.694   0.972  0.5800 -0.2243 -0.1491
  409SOL    HW1 1226   2.272   1.652   0.907  0.7550  1.3665 -2.0230
  409SOL    HW2 1227   2.364   1.789   0.945  0.1806  0.3185 -0.2301
  410SOL     OW 1228   2.211   1.907   2.997  0.4133  0.5627  0.1922
  410SOL    HW1 1229   2.300   1.943   3.034 -0.2000 -0.4313  0.9483
  410SOL    HW2 1230   2.166   1.977   2.943 -1.1658 -3.6440 -0.4500
  411SOL     OW 1231   0.103   1.266   0.921 -0.1170 -0.4454 -0.0282
  411SOL    HW1 1232   0.103   1.362   0.959  0.6895  0.5902  1.0707
  411SOL    HW2 1233   0.137   1.272   0.826 -1.5728  2.8936  0.5477
  412SOL     OW 1234   1.742   2.762   0.583 -0.0128  0.7215 -0.7897
  412SOL    HW1 1235   1.827   2.808   0.583 -4.1950 -1.0902  1.1412
  412SOL    HW2 1236   1.721   2.715   0.497 -0.2836  2.5052  0.0539
  413SOL     OW 1237   1.967   0.697   2.212 -0.2080 -0.6202  0.3987
  413SOL    HW1 1238   1.948   0.782   2.165 -1.0955 -2.3207  0.1508
  413SOL    HW2 1239   1.877   0.651   2.221 -2.0395 -0.5315 -3.1827
  414SOL     OW 1240   2.889   0.478   0.414  0.1791 -0.1621  0.0787
  414SOL    HW1 1241   2.804   0.449   0.367 -0.6389  2.2987  0.7243
  414SOL    HW2 1242   2.910   0.415   0.491  2.4808  0.0164  2.3107
  415SOL     OW 1243   0.929   1.522   1.699  0.1744  0.7188 -0.0481
  415SOL    HW1 1244   0.921   1.618   1.664  0.7754 -0.4508 -1.7360
  415SOL    HW2 1245   0.840   1.475   1.678  0.7478 -1.5421 -1.2597
  416SOL     OW 1246   0.515   3.034   2.903  0.2475 -0.3486 -0.0125
  416SOL    HW1 1247   0.534   3.124   2.857 -0.1428  1.5394 -1.5821
  416SOL    HW2 1248   0.425   3.000   2.867 -0.7319 -1.5246  0.7614
  417SOL     OW 1249   2.531   3.023   1.214 -0.3987  0.2178 -0.0172
  417SOL    HW1 1250   2.525   2.924   1.185  0.2607 -1.7955  0.9782
  417SOL    HW2 1251   2.576   3.033   1.306  0.3357 -0.1745  2.0496
  418SOL     OW 1252   0.572   0.460   2.611 -0.7135 -0.3387  0.1108
  418SOL    HW1 1253   0.507   0.449   2.689  0.6685 -0.2316  0.3416
  418SOL    HW2 1254   0.580   0.382   2.550 -1.8713 -1.5256 -0.5549
  419SOL     OW 1255   0.152   1.459   1.349  0.3347 -0.5492  0.5264
  419SOL    HW1 1256   0.163   1.559   1.347 -2.0513 -1.9795 -1.8233
  419SOL    HW2 1257   0.076   1.435   1.288  1.4296  1.1526  1.3314
  420SOL     OW 1258   0.686   1.918   1.227 -0.0921  0.0618 -0.0860
  420SOL    HW1 1259   0.697   1.820   1.199  0.7348 -0.7237  0.5490
  420SOL    HW2 1260   0.706   1.978   1.146  0.4091 -0.5879  0.9856
  421SOL     OW 1261   1.916   2.270   2.152  0.2986 -0.1698 -0.3345
  421SOL    HW1 1262   1.893   2.205   2.075  0.3822 -1.9563  0.4911
  421SOL    HW2 1263   1.836   2.314   2.195 -0.0899 -2.6991  1.7890
  422SOL     OW 1264   3.097   0.471   2.756 -0.2624  0.3680 -0.1738
  422SOL    HW1 1265   3.126   0.375   2.782  0.7028 -1.2942  0.3479
  422SOL    HW2 1266   3.003   0.493   2.778  2.0596 -4.0726 -1.5256
  423SOL     OW 1267   1.302   2.188   0.956  0.0729  0.0297 -0.2702
  423SOL    HW1 1268   1.271   2.106   0.912 -0.5633  1.2408 -0.4825
  423SOL    HW2 1269   1.277   2.179   1.052 -0.0822 -2.4883 -1.0386
  424SOL     OW 1270   0.678   1.454   1.692  0.7361  0.4393 -0.1549
  424SOL    HW1 1271   0.630   1.518   1.752 -0.4965  2.0154  1.6704
  424SOL    HW2 1272   0.631   1.418   1.609 -0.0159 -0.1139  3.6557
  425SOL     OW 1273   2.929   2.734   2.048  0.0760 -0.4306 -0.0107
  425SOL    HW1 1274   2.998   2.662   2.054 -1.3086  0.4181  0.3980
  425SOL    HW2 1275   2.941   2.784   1.958  1.4514  3.4045 -0.2012
  426SOL     OW 1276   1.606   0.346   0.534  0.0412 -0.6884 -0.4015
  426SOL    HW1 1277   1.621   0.395   0.448  0.6709  0.3389  1.0956
  426SOL    HW2 1278   1.688   0.356   0.593  1.0923 -2.1280  0.2593
  427SOL     OW 1279   1.158   0.558   2.888 -0.1378  0.2418 -0.2331
  427SOL    HW1 1280   1.184   0.560   2.986 -0.3451 -0.3539  0.5839
  427SOL    HW2 1281   1.086   0.634   2.870 -3.1531  1.8883 -0.2563
  428SOL     OW 1282   1.694   1.157   0.234 -0.1307  0.2268 -0.8077
  428SOL    HW1 1283   1.657   1.245   0.192 -1.0693 -1.0089 -0.0958
  428SOL    HW2 1284   1.726   1.102   0.157  1.7400  0.6703  0.3140
  429SOL     OW 1285   3.057   2.878   0.599 -0.1413 -0.2366 -0.4885
  429SOL    HW1 1286   3.125   2.909   0.668  0.6212 -4.5673  0.3404
  429SOL    HW2 1287   3.039   2.951   0.528 -0.3422  1.2973 -2.5579
  430SOL     OW 1288   0.392   3.014   2.264 -0.2368 -0.7994  0.2380
  430SOL    HW1 1289   0.435   2.985   2.352 -1.6381 -0.3923  1.5326
  430SOL    HW2 1290   0.442   2.975   2.184 -2.5577  1.8098  1.2254
  431SOL     OW 1291   2.534   0.919   1.355 -0.1599  0.5855 -0.4756
  431SOL    HW1 1292   2.479   0.854   1.410 -0.0664 -0.9959 -0.9940
  431SOL    HW2 1293   2.516   1.019   1.382 -1.1613  2.2701  1.0037
  432SOL     OW 1294   1.943   2.555   2.181 -0.2632  0.5781  0.2150
  432SOL    HW1 1295   1.995   2.501   2.253 -1.6127 -2.6609  1.0042
  432SOL    HW2 1296   1.953   2.511   2.093  0.6089 -0.3495  1.3504
  433SOL     OW 1297   1.453   2.428   0.693 -0.0140 -0.0078  0.1829
  433SOL    HW1 1298   1.484   2.376   0.776 -1.5046  0.4168 -1.6035
  433SOL    HW2 1299   1.467   2.529   0.703  0.3030 -0.2625  1.6942
  434SOL     OW 1300   0.109   1.983   2.000  0.4897 -0.2832  0.2446
  434SOL    HW1 1301   0.158   1.954   2.090  0.7513 -1.5663  2.3498
  434SOL    HW2 1302   0.022   1.939   1.978  0.2740  1.8787  1.0634
  435SOL     OW 1303   0.211   0.922   0.196  0.3686 -0.5395  0.4538
  435SOL    HW1 1304   0.160   0.875   0.121  0.2912 -2.2455 -1.6442
  435SOL    HW2 1305   0.311   0.922   0.186  0.7049 -0.0184 -1.6117
  436SOL     OW 1306   0.338   2.652   1.846 -0.3001  0.3694  0.4490
  436SOL    HW1 1307   0.388   2.629   1.930 -1.6442 -0.8771 -0.0647
  436SOL    HW2 1308   0.402   2.669   1.769 -0.5337 -0.2525  2.5626
  437SOL     OW 1309   1.540   2.437   1.654 -0.8163 -0.5004 -0.5014
  437SOL    HW1 1310   1.604   2.473   1.578  3.8848  2.3112 -1.5981
  437SOL    HW2 1311   1.589   2.459   1.741  0.3774  3.0725 -0.7142
  438SOL     OW 1312   0.203   1.761   0.307  0.2009  0.2561  0.1041
  438SOL    HW1 1313   0.151   1.753   0.219 -2.3237  1.7358 -1.4840
  438SOL    HW2 1314   0.143   1.800   0.377  0.4201 -2.0849 -2.8669
  439SOL     OW 1315   0.052   0.519   0.813  0.2755  0.3458 -0.3799
  439SOL    HW1 1316   0.050   0.463   0.897 -1.9581 -0.6316 -0.2054
  439SOL    HW2 1317   0.039   0.454   0.735 -1.5432 -3.5642 -3.2167
  440SOL     OW 1318   0.062   2.823   2.479  0.2655 -0.0352  0.0952
  440SOL    HW1 1319   0.086   2.815   2.575  0.8837  0.5361  0.4390
  440SOL    HW2 1320   0.119   2.767   2.414 -1.8887  0.9097  0.8804
  441SOL     OW 1321   2.923   0.281   0.581  0.2261  0.0520  0.5061
  441SOL    HW1 1322   3.011   0.299   0.631  0.0639  2.2439  1.3875
  441SOL    HW2 1323   2.855   0.242   0.650  0.5699 -0.2340  0.0195
  442SOL     OW 1324   1.244   2.192   2.486  0.4550 -0.2214 -0.2872
  442SOL    HW1 1325   1.232   2.228   2.581 -0.1071  3.8728  1.3402
  442SOL    HW2 1326   1.273   2.091   2.492  3.0917 -4.0920  1.7126
  443SOL     OW 1327   0.741   1.089   0.224 -0.2225  0.3515 -0.6605
  443SOL    HW1 1328   0.724   1.081   0.126  0.0464 -2.7298  1.0469
  443SOL    HW2 1329   0.814   1.022   0.246  0.8762  4.1337  2.1013
  444SOL     OW 1330   1.699   1.377   2.698  0.3631 -0.5899 -0.0006
  444SOL    HW1 1331   1.653   1.471   2.714 -2.0224 -0.0330  1.8478
  444SOL    HW2 1332   1.665   1.302   2.755  2.9642  1.1066  0.2559
  445SOL     OW 1333   0.007   0.065   0.784 -0.1890  0.6760 -0.2217
  445SOL    HW1 1334   0.086   3.125   0.774  0.4267 -1.3773  1.5672
  445SOL    HW2 1335   3.049   0.009   0.790 -1.5232 -1.6362 -2.3406
  446SOL     OW 1336   2.130   0.438   1.096 -0.2345 -0.3709  0.5561
  446SOL    HW1 1337   2.189   0.482   1.020  3.5556 -1.3742 -1.3483
  446SOL    HW2 1338   2.034   0.434   1.075  2.0622  3.3498 -1.7776
  447SOL     OW 1339   0.243   0.706   2.990 -0.4722 -0.3296  0.1005
  447SOL    HW1 1340   0.200   0.615   3.017 -2.4750 -0.2764 -0.1693
  447SOL    HW2 1341   0.180   0.786   3.018  1.5348  1.5695  1.5163
  448SOL     OW 1342   1.529   1.957   1.544  0.0873  0.0070 -0.1488
  448SOL    HW1 1343   1.625   1.986   1.561 -2.8343  0.6208 -0.6827
  448SOL    HW2 1344   1.485   1.926   1.631  0.1223 -1.5657 -2.4491
  449SOL     OW 1345   0.937   1.545   1.003 -0.2932 -0.0911  0.2726
  449SOL    HW1 1346   1.010   1.553   1.077  1.3008  1.8786  1.0250
  449SOL    HW2 1347   0.978   1.571   0.912  0.5369 -0.0516 -2.1470
  450SOL     OW 1348   2.776   2.460   2.134  0.2073  0.2300 -0.0688
  450SOL    HW1 1349   2.694   2.522   2.131  1.1426  2.9320  1.3915
  450SOL    HW2 1350   2.767   2.395   2.214 -0.7118 -2.1871 -0.0169
  451SOL     OW 1351   2.594   1.201   2.707 -0.4145  0.4819  0.1644
  451SOL    HW1 1352   2.630   1.219   2.800  1.7533  3.2115 -1.1128
  451SOL    HW2 1353   2.582   1.284   2.645  0.9078  1.4057 -1.6959
  452SOL     OW 1354   1.915   0.839   1.299  0.2510 -0.2437 -0.0348
  452SOL    HW1 1355   1.841   0.886   1.246 -3.6424 -1.7812  1.5922
  452SOL    HW2 1356   2.014   0.865   1.294  1.0971  0.8515  3.4832
  453SOL     OW 1357   2.131   1.008   1.521 -0.1450  0.0415  0.0907
  453SOL    HW1 1358   2.158   1.102   1.543  0.5794  0.5213  0.9083
  453SOL    HW2 1359   2.144   0.991   1.419 -0.2550 -0.9222  0.6737
  454SOL     OW 1360   3.080   1.103   0.230  0.1396  0.2705 -0.6508
  454SOL    HW1 1361   0.037   1.053   0.200 -0.2413  2.0381 -0.0948
  454SOL    HW2 1362   3.032   1.045   0.299  4.8034  0.7273 -1.2132
  455SOL     OW 1363   2.504   1.507   1.092  0.0197 -0.5785  0.3866
  455SOL    HW1 1364   2.563   1.463   1.024 -1.9367  0.1205  0.8743
  455SOL    HW2 1365   2.446   1.572   1.039  0.9369 -2.8588  1.1183
  456SOL     OW 1366   0.811   0.254   1.400  0.5008  0.5542  0.0230
  456SOL    HW1 1367   0.831   0.184   1.474 -2.7746 -1.8643 -2.2453
  456SOL    HW2 1368   0.879   0.259   1.323 -0.6400  0.7009 -0.4507
  457SOL     OW 1369   1.795   2.821   1.092 -0.2160 -0.5586 -0.4758
  457SOL    HW1 1370   1.877   2.875   1.113  0.9265  0.9833 -0.5970
  457SOL    HW2 1371   1.729   2.885   1.047 -2.3883  1.4403 -0.1338
  458SOL     OW 1372   2.452   0.237   0.388 -0.5833 -0.4832 -0.0735
  458SOL    HW1 1373   2.392   0.298   0.438 -2.2976 -1.7760 -2.7197
  458SOL    HW2 1374   2.415   0.143   0.390  0.5255  0.6860  1.4652
  459SOL     OW 1375   1.733   0.724   3.116 -0.0191  0.0448 -0.4219
  459SOL    HW1 1376   1.722   0.703   0.088  0.0879  0.4003 -1.0044
  459SOL    HW2 1377   1.640   0.701   3.076 -2.4404  1.2326 -2.4862
  460SOL     OW 1378   0.091   2.735   2.736 -0.6294 -0.0169  0.3456
  460SOL    HW1 1379   0.014   2.748   2.800 -1.1397 -3.5860 -2.5339
  460SOL    HW2 1380   0.141   2.654   2.761 -2.6390  0.3346  2.8496
  461SOL     OW 1381   0.433   1.976   0.291  0.1853  0.6778  0.2920
  461SOL    HW1 1382   0.442   1.934   0.384  1.9494  0.8594  0.6047
  461SOL    HW2 1383   0.446   1.903   0.217  0.4561 -0.1804 -1.6461
  462SOL     OW 1384   2.111   2.371   0.762 -0.1678 -0.6910 -0.1227
  462SOL    HW1 1385   2.181   2.308   0.720  1.1276 -0.2254 -1.1276
  462SOL    HW2 1386   2.161   2.427   0.828  1.1318 -0.8782 -0.3573
  463SOL     OW 1387   3.008   0.724   0.435  0.4531  0.0701 -0.0669
  463SOL    HW1 1388   3.086   0.742   0.499 -0.2778 -0.0090 -1.2185
  463SOL    HW2 1389   2.950   0.644   0.466 -0.0586 -0.3572  0.0287
  464SOL     OW 1390   0.684   2.677   0.389 -0.1009 -0.3078  0.1566
  464SOL    HW1 1391   0.644   2.677   0.486 -0.3176 -3.7996  3.1703
  464SOL    HW2 1392   0.784   2.652   0.386 -1.2697 -2.0909 -0.9371
  465SOL     OW 1393   2.300   0.401   0.521 -0.2909 -0.1489 -0.0154
  465SOL    HW1 1394   2.359   0.471   0.561  1.0621  3.3376 -1.6104
  465SOL    HW2 1395   2.207   0.432   0.490  2.1767 -0.1629  1.6790
  466SOL     OW 1396   1.971   0.168   0.283 -0.2445  0.1816  0.0538
  466SOL    HW1 1397   1.923   0.226   0.216 -0.6952  2.0643  1.8566
  466SOL    HW2 1398   1.998   0.077   0.247 -1.7802 -0.3295  0.4835
  467SOL     OW 1399   1.314   0.279   1.925 -0.2100 -0.0294  0.2135
  467SOL    HW1 1400   1.278   0.240   2.012  0.3324 -2.6353 -0.7652
  467SOL    HW2 1401   1.389   0.346   1.940 -1.2685 -2.6133 -1.2067
  468SOL     OW 1402   3.067   0.938   2.194 -0.2106  0.1052 -0.2036
  468SOL    HW1 1403   0.012   0.954   2.129 -2.7853 -1.7205 -0.3739
  468SOL    HW2 1404   3.096   0.919   2.288 -1.0674  0.1741  1.4731
  469SOL     OW 1405   0.777   2.434   2.363  0.8284 -0.1552  0.4106
  469SOL    HW1 1406   0.786   2.426   2.467 -1.0005 -1.0786  0.6244
  469SOL    HW2 1407   0.789   2.342   2.326  1.2638 -2.1995  1.2816
  470SOL     OW 1408   2.150   1.283   1.930 -0.3679  0.7338  0.3379
  470SOL    HW1 1409   2.231   1.316   1.877  2.1905  1.1209  3.1118
  470SOL    HW2 1410   2.165   1.182   1.951 -0.7949  0.1274  3.3302
  471SOL     OW 1411   2.908   1.277   0.049  0.5421  0.1094 -0.1149
  471SOL    HW1 1412   2.869   1.206   3.116  0.1837 -1.9275 -1.2897
  471SOL    HW2 1413   2.996   1.241   0.089  1.8637 -2.3336 -0.2348
  472SOL     OW 1414   0.341   2.895   0.323  0.2383  0.1417 -0.3320
  472SOL    HW1 1415   0.319   2.804   0.283  1.2415  1.5635  0.8265
  472SOL    HW2 1416   0.440   2.916   0.331  1.3870  1.6705  1.7012
  473SOL     OW 1417   0.898   2.667   2.372  0.0669  0.0884 -0.0349
  473SOL    HW1 1418   0.854   2.579   2.349 -1.6122  1.8239  1.5521
  473SOL    HW2 1419   0.849   2.713   2.446  0.3537 -1.5966 -0.3517
  474SOL     OW 1420   1.381   0.103   2.386 -0.2450  0.7069 -0.0914
  474SOL    HW1 1421   1.338   0.028   2.433  1.5379  0.1364 -1.4684
  474SOL    HW2 1422   1.457   0.144   2.444 -0.5183 -2.0565  0.0759
  475SOL     OW 1423   1.042   2.546   0.289  0.3532 -0.0640  0.0435
  475SOL    HW1 1424   1.055   2.639   0.246  0.3712 -1.4814  0.3626
  475SOL    HW2 1425   0.984   2.544   0.375  1.2033 -1.4867 -3.8851
  476SOL     OW 1426   0.645   0.212   1.092 -0.0188 -0.2719  0.2184
  476SOL    HW1 1427   0.599   0.301   1.103 -1.4250 -1.0379 -1.5085
  476SOL    HW2 1428   0.740   0.224   1.059  2.4808 -0.2359  1.6726
  477SOL     OW 1429   1.971   1.932   1.291  0.0134  0.0310  0.4778
  477SOL    HW1 1430   1.942   2.010   1.225  0.1286  3.0237 -1.3980
  477SOL    HW2 1431   2.050   1.971   1.343  2.0510 -2.2628 -2.6185
  478SOL     OW 1432   0.050   0.891   2.741  0.0271  0.4192  0.1430
  478SOL    HW1 1433   3.119   0.930   2.667 -0.9174 -0.3945 -3.3630
  478SOL    HW2 1434   0.094   0.808   2.709  1.4209  0.4262  1.1166
  479SOL     OW 1435   0.644   3.041   1.102  0.3518 -0.2125  0.3660
  479SOL    HW1 1436   0.647   0.015   1.108  0.0417 -2.0411 -2.9127
  479SOL    HW2 1437   0.630   3.014   1.198 -1.6291  3.6747  1.0825
  480SOL     OW 1438   2.714   2.762   0.117  0.1268 -0.5624  0.5378
  480SOL    HW1 1439   2.733   2.801   0.024  0.9430  1.2791  0.6161
  480SOL    HW2 1440   2.730   2.661   0.124 -1.1642 -2.8715  1.5625
  481SOL     OW 1441   2.856   0.623   1.177 -0.1560  0.0298  0.3531
  481SOL    HW1 1442   2.825   0.689   1.250 -1.6516 -3.0954 -2.0031
  481SOL    HW2 1443   2.914   0.554   1.227 -0.3921  0.4422  2.8920
  482SOL     OW 1444   1.250   2.484   1.507 -0.0907 -0.1150 -0.2829
  482SOL    HW1 1445   1.276   2.395   1.466  0.0591  0.0347  0.6452
  482SOL    HW2 1446   1.275   2.490   1.599 -1.3526  0.4319 -1.1832
  483SOL     OW 1447   0.392   1.551   3.023  0.0562  0.2547 -0.1529
  483SOL    HW1 1448   0.396   1.598   2.930  2.2263  2.2338 -1.5182
  483SOL    HW2 1449   0.414   1.453   3.014 -0.0748 -1.0838  3.0431
  484SOL     OW 1450   1.509   1.551   2.489 -0.1758  0.4007  0.3907
  484SOL    HW1 1451   1.416   1.518   2.521 -1.1060 -0.7682  3.3364
  484SOL    HW2 1452   1.529   1.518   2.395 -1.4755 -0.1452  0.7543
  485SOL     OW 1453   0.136   0.328   2.351  0.0996 -0.6629 -0.1985
  485SOL    HW1 1454   0.137   0.416   2.299 -0.8924 -0.4310  1.5861
  485SOL    HW2 1455   0.210   0.265   2.331 -2.6541  1.1262  3.2201
  486SOL     OW 1456   1.363   2.927   0.604  0.8779 -0.6415 -0.0677
  486SOL    HW1 1457   1.324   2.999   0.667 -1.3005  0.9524  1.3836
  486SOL    HW2 1458   1.417   2.970   0.531  4.9480 -0.9444 -0.1060
  487SOL     OW 1459   1.604   2.950   0.954  0.2534  0.6811 -0.9265
  487SOL    HW1 1460   1.527   2.995   1.003 -0.5393 -0.1620 -0.9497
  487SOL    HW2 1461   1.617   2.987   0.858  1.6300 -0.7428 -0.2125
  488SOL     OW 1462   2.187   0.842   0.792 -0.2006  0.7119 -0.5051
  488SOL    HW1 1463   2.233   0.919   0.832 -1.1097  0.0154 -0.0305
  488SOL    HW2 1464   2.177   0.854   0.695 -2.5861 -1.5103  3.8212
  489SOL     OW 1465   1.082   2.964   1.339 -0.2348  0.3312  0.1832
  489SOL    HW1 1466   1.124   2.888   1.394 -3.7667 -3.0355  1.1543
  489SOL    HW2 1467   0.982   2.947   1.329  1.3343 -2.1846 -1.2056
  490SOL     OW 1468   0.910   0.909   0.416 -0.4892  0.0948  0.0003
  490SOL    HW1 1469   0.831   0.943   0.473 -0.7287  1.4560  0.6466
  490SOL    HW2 1470   0.967   0.839   0.468 -0.7235  1.6370  3.3715
  491SOL     OW 1471   1.100   2.831   0.272 -0.2785 -0.0163  0.6391
  491SOL    HW1 1472   1.125   2.809   0.368 -0.3043 -0.1176 -1.7117
  491SOL    HW2 1473   1.177   2.816   0.210 -1.7358 -1.0922  1.9272
  492SOL     OW 1474   1.182   1.222   2.364  0.4180 -0.5476  0.5044
  492SOL    HW1 1475   1.115   1.300   2.358 -1.9339 -1.3297 -0.6402
  492SOL    HW2 1476   1.170   1.157   2.288 -0.1696  3.2885  1.1982
  493SOL     OW 1477   3.122   1.951   0.188  0.3591 -0.4438  0.0856
  493SOL    HW1 1478   0.027   2.014   0.118 -3.0754 -1.4667 -2.7422
  493SOL    HW2 1479   3.035   1.974   0.233 -0.1653 -2.0585  2.9629
  494SOL     OW 1480   2.007   1.421   0.498  0.3916  0.0024 -0.1906
  494SOL    HW1 1481   1.932   1.492   0.499 -2.6791  2.1895 -1.0369
  494SOL    HW2 1482   1.959   1.335   0.464 -0.1842  0.7175 -0.3686
  495SOL     OW 1483   0.511   1.086   2.349 -0.2251  0.0375 -0.6628
  495SOL    HW1 1484   0.517   1.057   2.251 -1.2315  1.7830  0.9006
  495SOL    HW2 1485   0.541   1.010   2.412 -1.0781  0.0816  1.1937
  496SOL     OW 1486   3.068   0.010   2.179 -0.5780 -0.4990  0.0478
  496SOL    HW1 1487   3.054   3.107   2.277 -0.8080  1.5754 -3.6471
  496SOL    HW2 1488   0.008   3.076   2.134  1.4933  3.8560  0.5337
  497SOL     OW 1489   2.218   0.925   0.510  0.2263 -0.3493  0.2114
  497SOL    HW1 1490   2.236   0.911   0.411 -1.4059  1.0506 -0.9392
  497SOL    HW2 1491   2.135   0.981   0.510  1.1289 -2.1681 -4.5089
  498SOL     OW 1492   2.884   2.622   3.001 -0.0326 -0.5994 -0.0830
  498SOL    HW1 1493   2.784   2.620   3.021 -2.0744 -1.1744 -0.5583
  498SOL    HW2 1494   2.912   2.704   2.949 -2.4081 -1.2802  1.0386
  499SOL     OW 1495   1.832   2.537   0.775 -0.2325  0.1193 -0.4206
  499SOL    HW1 1496   1.802   2.614   0.718 -0.0051 -2.7425 -0.6495
  499SOL    HW2 1497   1.902   2.478   0.735 -3.1665  1.3342  2.8941
  500SOL     OW 1498   1.440   0.693   2.523 -0.1042  0.0941 -0.5050
  500SOL    HW1 1499   1.504   0.642   2.458  1.7810  0.8167  0.0577
  500SOL    HW2 1500   1.449   0.794   2.510 -1.1201 -0.8349 -0.0222
  501SOL     OW 1501   1.107   0.131   1.318  0.7450  0.6285  0.3987
  501SOL    HW1 1502   1.205   0.147   1.306 -1.1042  1.7248  2.6010
  501SOL    HW2 1503   1.083   0.032   1.316 -3.0036 -0.1428 -0.7858
  502SOL     OW 1504   0.042   3.078   1.760 -0.1272 -0.0040 -0.5711
  502SOL    HW1 1505   0.097   3.066   1.845  0.9599 -2.8156  0.0173
  502SOL    HW2 1506   3.118   0.037   1.759  0.1803  1.5745  0.7333
  503SOL     OW 1507   1.551   2.462   2.212 -0.1321  0.4573 -0.5251
  503SOL    HW1 1508   1.559   2.561   2.244 -0.0881 -3.1146  0.1830
  503SOL    HW2 1509   1.623   2.416   2.263  0.0598  2.7388 -1.2102
  504SOL     OW 1510   1.951   0.286   1.827  0.2203  0.0488  0.1844
  504SOL    HW1 1511   2.030   0.258   1.768 -0.4938  0.9322  0.4099
  504SOL    HW2 1512   1.893   0.206   1.845  1.0237 -0.9930  0.5625
  505SOL     OW 1513   2.635   1.593   1.535  0.8201 -0.1640 -0.2952
  505SOL    HW1 1514   2.625   1.495   1.556 -0.0548  2.2196  0.2965
  505SOL    HW2 1515   2.555   1.654   1.567  0.4087  1.6552 -0.8141
  506SOL     OW 1516   0.252   1.316   1.963 -0.2692  0.1391 -0.5665
  506SOL    HW1 1517   0.215   1.282   2.055 -0.5725  2.0137  1.1368
  506SOL    HW2 1518   0.188   1.310   1.885  1.7931 -0.2236  1.2864
  507SOL     OW 1519   0.028   2.990   1.226 -0.6206 -0.4296 -0.1753
  507SOL    HW1 1520   0.069   3.073   1.192 -3.3101 -1.8185 -0.8139
  507SOL    HW2 1521   0.075   2.965   1.309  0.1478 -0.0514 -0.6687
  508SOL     OW 1522   1.336   0.726   1.406 -0.0256  0.0341  0.0875
  508SOL    HW1 1523   1.291   0.667   1.333 -1.7207 -1.9578  0.4556
  508SOL    HW2 1524   1.294   0.718   1.499  1.2323  2.1326  2.4513
  509SOL     OW 1525   1.443   2.233   1.495  0.3422  0.3984  0.5686
  509SOL    HW1 1526   1.489   2.301   1.559  0.5087 -0.4160 -1.9557
  509SOL    HW2 1527   1.480   2.139   1.506  0.5307 -0.8218  0.0284
  510SOL     OW 1528   2.443   1.400   0.050  0.3260 -0.0738  0.1660
  510SOL    HW1 1529   2.524   1.373   0.103  0.6187 -1.0245 -3.2027
  510SOL    HW2 1530   2.397   1.316   0.012  1.5627 -1.0560 -2.7108
  511SOL     OW 1531   0.543   1.388   1.468 -0.1400  0.4600  0.0913
  511SOL    HW1 1532   0.601   1.342   1.395  1.6043  1.6308 -1.0270
  511SOL    HW2 1533   0.449   1.344   1.480 -0.6139 -0.6721 -1.9067
  512SOL     OW 1534   2.708   2.487   0.105 -0.2274 -0.1140 -0.0748
  512SOL    HW1 1535   2.793   2.431   0.106  1.5909 -3.3166 -0.0054
  512SOL    HW2 1536   2.651   2.445   0.179  0.8340 -1.5425  0.5461
  513SOL     OW 1537   0.777   1.817   2.684  0.4567  0.0148 -0.2067
  513SOL    HW1 1538   0.835   1.775   2.762  2.7541  3.6758  1.1089
  513SOL    HW2 1539   0.842   1.829   2.603  0.2759 -2.4680 -3.7852
  514SOL     OW 1540   0.087   2.430   2.343 -0.0974 -0.2751  0.0812
  514SOL    HW1 1541   0.111   2.333   2.312 -0.4389 -1.5893  1.2722
  514SOL    HW2 1542   0.090   2.437   2.448  1.2440  1.8053  1.3147
  515SOL     OW 1543   1.987   1.339   1.694  0.3275  1.1004  0.2195
  515SOL    HW1 1544   2.052   1.357   1.770 -2.0233  2.4436 -0.3521
  515SOL    HW2 1545   2.023   1.327   1.597 -1.3669 -0.2361 -2.6554
  516SOL     OW 1546   1.747   2.466   0.105 -0.3221  0.5438  0.2064
  516SOL    HW1 1547   1.779   2.514   0.021 -2.1798 -0.6685 -1.0382
  516SOL    HW2 1548   1.820   2.396   0.137  2.4515 -2.7267  2.4025
  517SOL     OW 1549   0.885   1.770   0.654  0.4267  0.0782 -0.0786
  517SOL    HW1 1550   0.928   1.786   0.562  2.6295  0.6780 -3.0102
  517SOL    HW2 1551   0.920   1.681   0.696  0.5146  1.9398  1.4713
  518SOL     OW 1552   1.984   2.531   1.888 -0.0444 -0.2578 -0.0055
  518SOL    HW1 1553   1.983   2.612   1.822 -0.5283  0.6269 -0.5942
  518SOL    HW2 1554   1.923   2.460   1.849 -1.1914 -0.9998 -0.2037
  519SOL     OW 1555   2.161   2.420   1.162 -0.6391 -0.2592 -0.2463
  519SOL    HW1 1556   2.175   2.491   1.238 -0.2249 -1.5651  2.2521
  519SOL    HW2 1557   2.167   2.460   1.072 -2.4002  0.0415  3.7222
  520SOL     OW 1558   2.798   2.299   2.345 -0.2938  0.0578 -0.0611
  520SOL    HW1 1559   2.717   2.240   2.372 -0.9215  1.6695  0.3983
  520SOL    HW2 1560   2.886   2.241   2.357  1.7236 -2.7716  2.5600
  521SOL     OW 1561   2.873   1.171   2.327  0.5796  0.4253  0.8177
  521SOL    HW1 1562   2.949   1.227   2.285  0.8312  0.0746 -3.0416
  521SOL    HW2 1563   2.785   1.219   2.295 -0.6724 -0.3315  0.1656
  522SOL     OW 1564   0.904   0.529   1.979 -0.1107 -0.0305  0.7755
  522SOL    HW1 1565   1.003   0.512   2.004  0.5346  0.4462  1.8806
  522SOL    HW2 1566   0.893   0.532   1.878  0.2989 -1.5731  0.5675
  523SOL     OW 1567   0.368   1.945   0.977  0.3757 -0.2877 -0.3186
  523SOL    HW1 1568   0.408   2.022   1.031 -0.4559 -1.8239  1.2004
  523SOL    HW2 1569   0.279   1.973   0.926 -3.0492  0.0870  0.5934
  524SOL     OW 1570   2.017   2.758   0.136  0.6024 -0.5472  0.4567
  524SOL    HW1 1571   1.996   2.706   0.221  1.0125  3.3826 -2.8261
  524SOL    HW2 1572   2.059   2.707   0.063 -0.6001  3.3901  3.1637
  525SOL     OW 1573   2.162   0.925   1.271 -0.2424  0.6289 -0.3758
  525SOL    HW1 1574   2.198   0.830   1.287 -0.4922  1.5940  0.7364
  525SOL    HW2 1575   2.203   0.966   1.186 -1.2848  1.9092  0.7412
  526SOL     OW 1576   1.026   2.568   0.768 -0.1661 -0.1166  0.1116
  526SOL    HW1 1577   1.079   2.624   0.828 -0.7274 -1.5287 -0.9137
  526SOL    HW2 1578   0.969   2.505   0.825 -0.1010 -1.7618  2.5497
  527SOL     OW 1579   2.225   2.770   0.638 -0.4135  0.1948  0.4522
  527SOL    HW1 1580   2.293   2.844   0.621 -0.8399 -2.0034 -1.1070
  527SOL    HW2 1581   2.265   2.674   0.629  1.9331 -5.5500 -0.9118
  528SOL     OW 1582   1.614   0.681   0.261  0.0518  0.6182  1.1120
  528SOL    HW1 1583   1.560   0.732   0.332 -1.2391  2.8292  2.0345
  528SOL    HW2 1584   1.625   0.580   0.287  1.8405 -1.4201  1.4608
  529SOL     OW 1585   1.570   1.617   2.754 -0.3661 -0.0760  0.0857
  529SOL    HW1 1586   1.520   1.587   2.834  3.6023 -1.0702 -0.4211
  529SOL    HW2 1587   1.517   1.598   2.667 -0.5844 -2.0362 -0.3217
  530SOL     OW 1588   2.328   0.323   0.099  0.0387  0.1377  0.1105
  530SOL    HW1 1589   2.326   0.424   0.110  0.7044 -0.2601 -0.7284
  530SOL    HW2 1590   2.350   0.278   0.187 -1.6279 -0.8003  2.6954
  531SOL     OW 1591   1.612   0.950   2.913  0.0107 -0.4646  0.0778
  531SOL    HW1 1592   1.698   0.918   2.873 -1.3162  0.8501  0.5657
  531SOL    HW2 1593   1.561   0.872   2.955 -1.3995 -2.0989  1.6173
  532SOL     OW 1594   1.504   0.623   0.716  0.4419  0.5860 -0.1335
  532SOL    HW1 1595   1.513   0.563   0.632  2.0893  1.5822  0.7937
  532SOL    HW2 1596   1.578   0.692   0.709 -1.2616 -2.7559  1.5645
  533SOL     OW 1597   0.571   0.861   2.498  1.1540  0.0229  0.1381
  533SOL    HW1 1598   0.642   0.837   2.432 -0.9751  0.6369 -0.6913
  533SOL    HW2 1599   0.615   0.866   2.591 -2.2902 -0.4158  0.7839
  534SOL     OW 1600   1.609   0.202   2.556  0.3031 -0.0425 -0.7828
  534SOL    HW1 1601   1.663   0.117   2.568 -2.1344 -0.7143 -1.0748
  534SOL    HW2 1602   1.563   0.222   2.642  2.0362 -0.6961  0.5825
  535SOL     OW 1603   0.242   2.990   2.742  0.1502  0.5136  0.9461
  535SOL    HW1 1604   0.197   2.896   2.739 -0.8764  1.3509  0.3088
  535SOL    HW2 1605   0.189   3.070   2.775  3.5218 -1.3972  0.5017
  536SOL     OW 1606   0.332   0.343   0.645  0.3665 -0.4080  0.3366
  536SOL    HW1 1607   0.397   0.417   0.615  0.7185  2.3637 -3.4965
  536SOL    HW2 1608   0.355   0.323   0.744 -1.5049  0.9369  0.3748
  537SOL     OW 1609   1.427   0.355   0.100 -0.3757  0.5454 -0.9653
  537SOL    HW1 1610   1.456   0.367   0.004  1.2361  0.0948  3.4196
  537SOL    HW2 1611   1.366   0.276   0.113 -0.3648  0.7510 -0.0855
  538SOL     OW 1612   2.824   2.077   2.725 -0.3164 -0.0468  0.0577
  538SOL    HW1 1613   2.867   2.038   2.809  1.5578 -0.6218  3.8972
  538SOL    HW2 1614   2.883   2.102   2.649 -0.5257  2.3297 -0.1803
  539SOL     OW 1615   1.999   1.958   0.124  0.0763  0.2837 -0.0011
  539SOL    HW1 1616   1.921   1.983   0.187 -3.1076 -2.3288  1.0711
  539SOL    HW2 1617   1.956   1.901   0.047 -3.3843  0.9381 -0.4105
  540SOL     OW 1618   0.522   2.713   1.659  0.1985  0.1399  0.0884
  540SOL    HW1 1619   0.600   2.651   1.630 -1.5769 -2.1112 -2.9597
  540SOL    HW2 1620   0.466   2.732   1.572 -2.4677 -1.1538  1.6011
  541SOL     OW 1621   2.237   0.124   2.157 -0.6637 -0.6813 -0.2771
  541SOL    HW1 1622   2.327   0.139   2.107 -2.2087  0.5372  1.3640
  541SOL    HW2 1623   2.160   0.189   2.129  0.9433  0.9055 -1.3275
  542SOL     OW 1624   0.165   0.653   2.715 -0.5397  0.0380 -0.3584
  542SOL    HW1 1625   0.084   0.593   2.740 -1.0013 -1.3092 -0.9294
  542SOL    HW2 1626   0.225   0.677   2.798  3.4634  1.7910  1.6116
  543SOL     OW 1627   0.224   0.694   1.264  0.0321  0.2290  0.2360
  543SOL    HW1 1628   0.278   0.703   1.178  2.0437  2.2831 -0.2449
  543SOL    HW2 1629   0.137   0.747   1.251 -0.7989 -0.6806  0.4875
  544SOL     OW 1630   2.606   0.636   1.035  0.1329 -0.3828 -0.1825
  544SOL    HW1 1631   2.703   0.637   1.063  3.4697 -0.2739  0.0286
  544SOL    HW2 1632   2.593   0.606   0.936  0.7213  0.3158 -2.8714
  545SOL     OW 1633   1.619   2.120   0.628 -0.1979  0.3148 -0.3372
  545SOL    HW1 1634   1.551   2.044   0.624 -0.0868  1.1680 -1.7523
  545SOL    HW2 1635   1.607   2.176   0.707  1.9683  0.4373 -3.2451
  546SOL     OW 1636   2.197   2.930   1.668 -0.3473 -0.3073 -0.5527
  546SOL    HW1 1637   2.238   3.018   1.705  1.5440  2.0485  0.1002
  546SOL    HW2 1638   2.132   2.941   1.593  3.9693  0.8994  1.5530
  547SOL     OW 1639   0.444   2.999   2.545 -0.4067  0.2763  0.5125
  547SOL    HW1 1640   0.382   3.043   2.606  1.6089  0.9974 -1.3225
  547SOL    HW2 1641   0.525   3.057   2.525  0.1294  1.7922  0.8367
  548SOL     OW 1642   1.830   1.006   0.063  0.3070 -0.1087 -0.1226
  548SOL    HW1 1643   1.839   1.088   0.006  2.3029 -0.5554  1.7240
  548SOL    HW2 1644   1.792   0.930   0.006 -0.2645  3.3218 -2.2360
  549SOL     OW 1645   2.887   0.979   0.420  0.5284 -0.3334  0.2695
  549SOL    HW1 1646   2.944   0.905   0.463 -0.8859  0.0400 -0.4463
  549SOL    HW2 1647   2.799   0.939   0.388 -0.8642 -0.6256 -0.9258
  550SOL     OW 1648   1.872   1.935   0.716 -0.2303 -0.1785 -0.8201
  550SOL    HW1 1649   1.805   1.911   0.645 -1.2949  1.1125 -1.1362
  550SOL    HW2 1650   1.894   1.857   0.780 -0.6444  0.5507  1.9964
  551SOL     OW 1651   1.305   0.010   0.800  0.4110  0.1193 -0.0040
  551SOL    HW1 1652   1.358   0.044   0.879 -1.4930 -0.4348  0.6864
  551SOL    HW2 1653   1.224   3.088   0.840  1.2320 -0.1337 -1.1418
  552SOL     OW 1654   2.951   2.781   2.356  0.2509 -0.0459  0.0989
  552SOL    HW1 1655   3.028   2.812   2.415 -0.0021  0.4951 -0.5388
  552SOL    HW2 1656   2.971   2.780   2.257 -2.4902  0.0149 -1.5823
  553SOL     OW 1657   0.161   2.930   2.181  0.7333  0.0076  0.0272
  553SOL    HW1 1658   0.158   2.829   2.190  2.1189 -1.8516  1.1129
  553SOL    HW2 1659   0.250   2.965   2.214  1.1889  0.9878 -0.6157
  554SOL     OW 1660   0.575   3.038   1.390  0.0655  0.0423 -0.2931
  554SOL    HW1 1661   0.553   0.008   1.384  0.3579 -0.7589 -1.2356
  554SOL    HW2 1662   0.675   3.018   1.411 -0.3330 -0.6657  0.9142
  555SOL     OW 1663   2.462   2.170   2.176  0.0237  0.0432 -0.1997
  555SOL    HW1 1664   2.489   2.194   2.270  0.5461 -2.0700 -0.0943
  555SOL    HW2 1665   2.372   2.209   2.149  0.6350  3.0869 -0.4234
  556SOL     OW 1666   1.157   0.156   2.855  0.0744  0.1274 -0.8231
  556SOL    HW1 1667   1.075   0.174   2.916 -2.0609 -0.2048 -0.1623
  556SOL    HW2 1668   1.123   0.093   2.780 -2.7914 -1.5486 -0.4774
  557SOL     OW 1669   0.292   1.620   2.238  0.2842 -0.0837  0.4665
  557SOL    HW1 1670   0.255   1.626   2.336  0.8385 -0.1815  0.7612
  557SOL    HW2 1671   0.372   1.554   2.239 -0.0340  0.7151 -2.3049
  558SOL     OW 1672   2.424   0.891   3.042 -0.5627  0.1756  0.4126
  558SOL    HW1 1673   2.433   0.885   2.945 -0.6632 -0.8263  0.1702
  558SOL    HW2 1674   2.450   0.810   3.089  2.2017  2.2500 -0.3139
  559SOL     OW 1675   2.449   2.109   1.709 -0.1817  0.4951  1.0809
  559SOL    HW1 1676   2.505   2.158   1.777  0.4358  1.0977  0.9388
  559SOL    HW2 1677   2.352   2.154   1.695 -3.5091 -0.0324 -1.5324
  560SOL     OW 1678   2.624   0.990   2.093  0.1388 -0.0625 -0.4740
  560SOL    HW1 1679   2.591   0.917   2.032  0.8974 -1.0888  0.4460
  560SOL    HW2 1680   2.714   1.028   2.060  0.6247  2.9380 -2.8336
  561SOL     OW 1681   0.088   0.099   2.802  0.3619  0.3322  0.5338
  561SOL    HW1 1682   0.070   0.133   2.706  0.0541 -0.6025 -0.7688
  561SOL    HW2 1683   0.012   0.049   2.845  3.3724 -0.3466  1.2795
  562SOL     OW 1684   0.919   1.176   1.444  0.7233  0.2710 -0.0319
  562SOL    HW1 1685   0.977   1.096   1.423 -2.3312 -0.0704 -0.0961
  562SOL    HW2 1686   0.862   1.162   1.527 -1.5006 -0.1543 -1.3247
  563SOL     OW 1687   1.435   0.167   2.820 -0.5195 -0.2741  0.0044
  563SOL    HW1 1688   1.464   0.075   2.785 -0.3853  2.6405 -1.8490
  563SOL    HW2 1689   1.333   0.178   2.838  0.3012 -0.0910  2.2834
  564SOL     OW 1690   2.994   2.383   1.032 -0.2264 -0.1650  0.3557
  564SOL    HW1 1691   3.013   2.342   1.121 -0.4390  0.4227  2.0095
  564SOL    HW2 1692   2.936   2.330   0.964 -1.1131  0.5045 -2.6893
  565SOL     OW 1693   0.750   2.164   1.620  0.0877 -0.3241 -0.8677
  565SOL    HW1 1694   0.674   2.233   1.606 -0.6583  1.0562  0.9049
  565SOL    HW2 1695   0.760   2.103   1.542  0.6583 -1.3370  0.4372
  566SOL     OW 1696   1.321   2.503   2.077 -0.3549  0.2525  0.5064
  566SOL    HW1 1697   1.234   2.492   2.132 -3.1799 -2.4542 -1.1732
  566SOL    HW2 1698   1.409   2.503   2.132  0.4322 -1.4887  0.4575
  567SOL     OW 1699   2.236   2.925   0.956  0.1157 -0.3571 -0.0390
  567SOL    HW1 1700   2.311   2.928   1.023 -2.6052 -1.3473 -2.3213
  567SOL    HW2 1701   2.239   3.005   0.894 -0.5280 -1.4040  1.9478
  568SOL     OW 1702   1.958   0.977   0.540 -0.3321  0.1104  0.1135
  568SOL    HW1 1703   1.923   0.893   0.500  0.3759  3.1284  2.8665
  568SOL    HW2 1704   1.940   1.061   0.486  2.3064  3.1584 -1.9347
  569SOL     OW 1705   3.040   1.748   2.648 -0.2988  0.2298 -0.0701
  569SOL    HW1 1706   3.068   1.794   2.733 -1.5667  0.6050  1.0279
  569SOL    HW2 1707   2.994   1.662   2.667  1.9422  0.1304 -0.1477
  570SOL     OW 1708   2.900   0.040   1.307  0.3071 -0.1175 -0.1950
  570SOL    HW1 1709   2.894   0.073   1.210  0.0388 -0.3059  2.7249
  570SOL    HW2 1710   2.995   0.052   1.337 -2.0160  1.6899 -0.9222
  571SOL     OW 1711   0.144   0.408   1.707  0.0198 -0.9537  0.4894
  571SOL    HW1 1712   0.185   0.399   1.799  0.2156  0.8979 -1.6582
  571SOL    HW2 1713   0.115   0.508   1.688  0.5586  2.4652 -1.8600
  572SOL     OW 1714   0.048   2.571   1.084 -0.6847 -0.0994 -0.6388
  572SOL    HW1 1715   3.100   2.508   1.069 -0.0973  1.6829 -2.1772
  572SOL    HW2 1716   0.100   2.562   1.171 -0.0614  2.0904 -1.7657
  573SOL     OW 1717   1.073   0.543   0.044  0.3610  0.0931  0.1224
  573SOL    HW1 1718   0.992   0.590   0.001 -1.7206 -1.6594 -0.4049
  573SOL    HW2 1719   1.035   0.467   0.102 -0.0690 -1.2827  1.3021
  574SOL     OW 1720   2.678   2.845   2.976 -0.0359  0.0221 -0.8282
  574SOL    HW1 1721   2.731   2.866   2.894 -0.3833 -1.9976  0.9398
  574SOL    HW2 1722   2.591   2.897   2.982 -0.2620  0.7694 -2.5402
  575SOL     OW 1723   1.462   2.469   1.214 -0.1015  0.2898  0.3547
  575SOL    HW1 1724   1.377   2.458   1.163  1.7496 -1.1720  0.3370
  575SOL    HW2 1725   1.510   2.556   1.188  0.9861 -3.0747 -1.3966
  576SOL     OW 1726   1.315   2.854   1.158 -0.2353  0.2716 -0.6324
  576SOL    HW1 1727   1.325   2.756   1.138 -0.1054  0.0780  2.6953
  576SOL    HW2 1728   1.235   2.859   1.222 -1.2471 -1.0869 -1.2422
  577SOL     OW 1729   2.669   1.257   0.968 -0.2586 -0.2679 -0.0331
  577SOL    HW1 1730   2.737   1.329   0.987 -0.0993 -2.4916  0.3455
  577SOL    HW2 1731   2.717   1.181   0.923 -0.3197  0.6932  0.4901
  578SOL     OW 1732   1.354   0.249   0.575  0.0383  0.0700 -0.4444
  578SOL    HW1 1733   1.449   0.283   0.572 -1.1673  0.8158  0.1249
  578SOL    HW2 1734   1.340   0.191   0.661  2.1568  0.1864 -1.2138
  579SOL     OW 1735   2.228   0.662   2.916  0.0247 -0.2580  0.2786
  579SOL    HW1 1736   2.274   0.628   2.829  2.0904 -2.4006  2.4547
  579SOL    HW2 1737   2.197   0.759   2.912  0.6713  0.3921  1.5830
  580SOL     OW 1738   1.749   0.835   2.424 -0.0507  0.0253 -0.3197
  580SOL    HW1 1739   1.843   0.824   2.464 -1.0922 -1.2618  1.9303
  580SOL    HW2 1740   1.696   0.907   2.474  1.0647 -2.0780 -1.9655
  581SOL     OW 1741   0.351   0.782   1.041  0.6142  0.4190  0.1741
  581SOL    HW1 1742   0.340   0.876   1.009  2.0548 -0.5503  0.1905
  581SOL    HW2 1743   0.408   0.730   0.971  0.9060 -2.8251  0.0670
  582SOL     OW 1744   2.918   0.143   1.979 -0.1010  0.0210 -0.5028
  582SOL    HW1 1745   2.965   0.082   2.048  0.3587  0.4999 -1.8579
  582SOL    HW2 1746   2.957   0.126   1.881 -1.1054 -1.5449 -0.4516
  583SOL     OW 1747   0.235   0.380   1.958  0.2076  0.1839 -0.0525
  583SOL    HW1 1748   0.146   0.360   2.005  0.8923 -0.0494 -1.0648
  583SOL    HW2 1749   0.310   0.329   2.004 -0.6346  1.0887  4.9012
  584SOL     OW 1750   1.307   2.102   3.004 -0.0825 -0.2551 -0.4347
  584SOL    HW1 1751   1.293   2.002   3.006  0.1927 -0.9664  0.5551
  584SOL    HW2 1752   1.295   2.142   3.096 -1.6860 -0.9628  1.9062
  585SOL     OW 1753   0.290   2.577   2.856 -0.3903  0.3067  0.5918
  585SOL    HW1 1754   0.288   2.657   2.917  1.2001  1.5044  1.5008
  585SOL    HW2 1755   0.386   2.556   2.824  0.5587  3.5421  0.1709
  586SOL     OW 1756   1.977   1.771   2.640 -0.4686  0.0797  0.3401
  586SOL    HW1 1757   1.941   1.856   2.586 -0.8834  0.6901  2.4370
  586SOL    HW2 1758   1.982   1.686   2.585  0.4022  0.4658  1.6550
  587SOL     OW 1759   2.187   2.400   0.146 -0.4335 -0.9406 -0.0492
  587SOL    HW1 1760   2.247   2.348   0.087 -2.0675  0.6768 -0.3745
  587SOL    HW2 1761   2.097   2.359   0.130  2.4995 -0.0150  0.5236
  588SOL     OW 1762   2.588   0.292   0.971 -0.5048 -0.7855  0.3289
  588SOL    HW1 1763   2.516   0.237   1.013 -0.5294  1.7998  3.2565
  588SOL    HW2 1764   2.548   0.383   0.942 -1.3268 -0.3985  0.7256
  589SOL     OW 1765   0.505   0.787   0.616  0.0241  0.4738 -0.0765
  589SOL    HW1 1766   0.575   0.843   0.561 -0.5847 -0.2918 -2.5309
  589SOL    HW2 1767   0.437   0.739   0.563  0.2686  2.6673  0.3492
  590SOL     OW 1768   2.150   2.080   0.328 -0.2636 -0.5337  0.1615
  590SOL    HW1 1769   2.143   2.031   0.418 -2.4381 -3.4619  1.3552
  590SOL    HW2 1770   2.099   2.027   0.261  0.2809  3.1056  0.4272
  591SOL     OW 1771   0.415   2.240   1.105 -0.0231 -0.0046 -0.3748
  591SOL    HW1 1772   0.325   2.210   1.148  0.9586 -0.9403  0.2463
  591SOL    HW2 1773   0.458   2.316   1.160 -1.0870  1.4592  0.6022
  592SOL     OW 1774   1.218   0.514   1.271  0.4616  0.2814 -0.2904
  592SOL    HW1 1775   1.284   0.507   1.191 -2.5955 -0.5937 -1.1820
  592SOL    HW2 1776   1.240   0.447   1.349  1.4224  0.3406 -0.7054
  593SOL     OW 1777   1.001   1.435   1.428 -0.1066 -0.0640  0.0742
  593SOL    HW1 1778   0.977   1.337   1.419 -1.9142 -2.1376  1.7011
  593SOL    HW2 1779   0.995   1.475   1.522  1.3307  2.4682 -2.9620
  594SOL     OW 1780   1.005   2.190   0.662  0.3579 -0.0855  0.2958
  594SOL    HW1 1781   0.939   2.208   0.582 -1.2008 -0.2378 -3.9353
  594SOL    HW2 1782   1.094   2.236   0.651 -1.4649  0.6717  3.4366
  595SOL     OW 1783   1.585   0.651   1.423 -0.5029 -0.4190  0.1588
  595SOL    HW1 1784   1.627   0.697   1.510 -0.1232  1.8239  2.8460
  595SOL    HW2 1785   1.490   0.687   1.406  1.0406 -0.4181  1.4980
  596SOL     OW 1786   2.783   0.834   1.329  0.2338  0.2769  0.0724
  596SOL    HW1 1787   2.817   0.909   1.270  2.8906  1.1418  0.2473
  596SOL    HW2 1788   2.688   0.857   1.360 -0.5801 -1.5447  0.2624
  597SOL     OW 1789   0.538   2.554   2.342  0.1834  0.1977 -0.0436
  597SOL    HW1 1790   0.521   2.607   2.429 -0.3680 -1.1110  2.1939
  597SOL    HW2 1791   0.634   2.514   2.347  0.7403  0.4210 -0.1202
  598SOL     OW 1792   2.444   1.819   1.615  0.2758 -0.1226 -0.2855
  598SOL    HW1 1793   2.426   1.905   1.669 -0.1337  0.2270  0.7951
  598SOL    HW2 1794   2.410   1.833   1.518 -2.3304 -2.9918 -0.6565
  599SOL     OW 1795   0.966   3.043   3.091  0.1643 -0.4932  0.2970
  599SOL    HW1 1796   0.884   2.999   3.057  1.6559  1.4270 -0.5007
  599SOL    HW2 1797   0.980   3.023   0.064 -0.2588 -1.4337 -0.4616
  600SOL     OW 1798   0.072   2.192   2.675 -0.1209 -0.0757  0.0214
  600SOL    HW1 1799   0.111   2.273   2.733  1.2077  3.5316 -0.0172
  600SOL    HW2 1800   3.108   2.219   2.642 -0.5345  0.6764 -1.0576
  601SOL     OW 1801   0.425   0.855   1.369 -0.2352  0.0047  0.5317
  601SOL    HW1 1802   0.355   0.785   1.374  1.1055  1.0242 -0.6773
  601SOL    HW2 1803   0.507   0.839   1.434  2.5382  0.8965 -0.8987
  602SOL     OW 1804   0.581   3.013   0.726  0.5171 -0.2186 -0.0022
  602SOL    HW1 1805   0.625   3.090   0.671  3.7447  3.8786 -1.6658
  602SOL    HW2 1806   0.649   2.955   0.769 -1.1125  2.7636 -1.7534
  603SOL     OW 1807   0.365   0.378   2.764  0.8633 -0.7012 -0.2409
  603SOL    HW1 1808   0.272   0.402   2.720 -1.7232 -0.3336 -2.9841
  603SOL    HW2 1809   0.345   0.335   2.856 -1.8670  0.9119  3.1903
  604SOL     OW 1810   0.905   2.694   1.597 -0.1095 -0.2748  0.2489
  604SOL    HW1 1811   0.888   2.782   1.653 -1.2329 -0.8184  2.7324
  604SOL    HW2 1812   0.841   2.618   1.616  1.6973  1.1386 -0.7819
  605SOL     OW 1813   1.462   1.143   2.365  0.4385  0.4675  0.1421
  605SOL    HW1 1814   1.367   1.182   2.374 -0.3019  0.5064 -0.3212
  605SOL    HW2 1815   1.492   1.130   2.270 -0.8966  0.8123  1.1652
  606SOL     OW 1816   2.286   2.782   2.993  0.2642 -0.1236 -0.1210
  606SOL    HW1 1817   2.338   2.811   3.080 -0.1686 -0.2302  0.8123
  606SOL    HW2 1818   2.348   2.742   2.922 -0.0135  0.2495  0.6020
  607SOL     OW 1819   0.962   0.314   1.186  0.1146  0.3919 -0.3241
  607SOL    HW1 1820   1.049   0.267   1.226  3.7218 -1.1357  1.9906
  607SOL    HW2 1821   0.936   0.263   1.103 -2.7076  2.5256  0.7923
  608SOL     OW 1822   0.202   1.661   2.507  0.1387 -0.0885  0.2200
  608SOL    HW1 1823   0.208   1.761   2.522 -0.2994 -0.0320  0.9277
  608SOL    HW2 1824   0.121   1.622   2.556 -1.1650 -0.5342  1.7033
  609SOL     OW 1825   1.464   1.439   0.371 -0.6234  0.1765  0.1597
  609SOL    HW1 1826   1.413   1.503   0.314  0.8098 -1.0419  0.0027
  609SOL    HW2 1827   1.434   1.343   0.347 -0.3194 -0.8355 -2.6847
  610SOL     OW 1828   3.029   0.264   0.934  0.0475 -0.1232  0.1024
  610SOL    HW1 1829   3.040   0.198   0.861 -1.4693 -2.5408  1.9418
  610SOL    HW2 1830   3.118   0.279   0.982 -1.2868  0.1600 -0.2468
  611SOL     OW 1831   1.299   1.087   0.619 -0.2331  0.2258  0.1686
  611SOL    HW1 1832   1.331   1.181   0.631 -0.7261 -3.6463 -3.2005
  611SOL    HW2 1833   1.270   1.070   0.523 -1.5817  3.3085  0.0837
  612SOL     OW 1834   2.140   1.479   0.200 -0.2017 -0.7973  0.3390
  612SOL    HW1 1835   2.059   1.483   0.260  0.0913  2.1813 -0.9519
  612SOL    HW2 1836   2.180   1.577   0.198  2.0119  0.4941 -2.4040
  613SOL     OW 1837   1.582   1.050   0.488 -0.7550  0.4677 -0.1537
  613SOL    HW1 1838   1.649   1.077   0.562 -1.0622 -0.1653 -0.7784
  613SOL    HW2 1839   1.618   1.088   0.399 -1.3688  1.0296 -1.4751
  614SOL     OW 1840   2.784   0.310   2.217  0.4832  0.4541 -0.7776
  614SOL    HW1 1841   2.829   0.239   2.159 -1.3216 -0.8428 -0.0510
  614SOL    HW2 1842   2.839   0.392   2.230  0.7405  0.8170  0.4267
  615SOL     OW 1843   0.774   2.026   0.985  0.5508 -0.3637 -0.0697
  615SOL    HW1 1844   0.863   2.000   0.952 -0.0028 -0.8578  2.3218
  615SOL    HW2 1845   0.702   2.038   0.915  2.9103 -0.8819  2.4274
  616SOL     OW 1846   1.891   1.104   2.629  0.1499 -0.4066  0.0818
  616SOL    HW1 1847   1.824   1.163   2.577 -3.3476  1.2025 -1.6854
  616SOL    HW2 1848   1.930   1.032   2.570 -1.8992  2.9668  1.5967
  617SOL     OW 1849   1.186   0.149   0.118 -0.8008 -0.2378  0.3339
  617SOL    HW1 1850   1.093   0.182   0.106  0.8302 -2.3113 -0.0315
  617SOL    HW2 1851   1.201   0.065   0.062  0.0567  1.7768 -1.0629
  618SOL     OW 1852   2.146   2.053   2.496  0.3893  0.5395  0.1164
  618SOL    HW1 1853   2.192   2.005   2.416  1.5932 -0.4134 -0.3906
  618SOL    HW2 1854   2.207   2.057   2.573 -0.6995  0.3697 -2.2626
  619SOL     OW 1855   2.134   1.964   0.959 -0.0269 -0.3206 -0.3249
  619SOL    HW1 1856   2.081   2.038   0.906 -2.2506 -0.1913 -0.5021
  619SOL    HW2 1857   2.084   1.879   0.965  0.4138  1.1208  1.5773
  620SOL     OW 1858   2.062   2.815   2.071  0.3777 -0.5636 -0.0965
  620SOL    HW1 1859   2.155   2.809   2.029 -1.2147  1.4239  1.5133
  620SOL    HW2 1860   2.038   2.737   2.129  0.2426  4.2785 -0.5757
  621SOL     OW 1861   3.104   1.921   0.702  0.6268  0.1765  0.1187
  621SOL    HW1 1862   3.106   1.820   0.683  0.9053 -1.0335  2.6439
  621SOL    HW2 1863   3.125   1.972   0.618 -2.7651 -1.8236 -1.0846
  622SOL     OW 1864   1.144   1.758   2.984 -0.0350  0.1092 -0.0395
  622SOL    HW1 1865   1.130   1.806   2.895 -0.7183 -1.8034  2.4324
  622SOL    HW2 1866   1.161   1.822   3.061 -1.4116  0.0501  0.4950
  623SOL     OW 1867   2.698   2.694   2.469 -0.1682 -0.1335  0.0467
  623SOL    HW1 1868   2.616   2.704   2.410  1.3181  1.4642  0.7258
  623SOL    HW2 1869   2.786   2.731   2.429  1.0828 -0.1436 -1.5795
  624SOL     OW 1870   0.890   2.531   0.522  0.1067  0.5616  0.4717
  624SOL    HW1 1871   0.912   2.605   0.589  0.4366  1.8173  0.8627
  624SOL    HW2 1872   0.841   2.451   0.569  1.0377 -0.0610  0.5203
  625SOL     OW 1873   0.221   1.917   2.251  0.0986 -0.2733 -0.2087
  625SOL    HW1 1874   0.152   1.845   2.225 -2.0751 -0.9870 -0.7095
  625SOL    HW2 1875   0.312   1.881   2.229 -0.7343  1.6079 -1.1368
  626SOL     OW 1876   0.745   2.735   0.026 -0.5862  0.0259 -0.5216
  626SOL    HW1 1877   0.827   2.737   0.084 -1.1208 -0.5216  0.7162
  626SOL    HW2 1878   0.661   2.708   0.075  1.5545  2.3828 -1.7280
  627SOL     OW 1879   1.542   1.636   0.025 -0.6679  0.7164 -0.3927
  627SOL    HW1 1880   1.484   1.593   3.081  1.8974  0.7084  0.7234
  627SOL    HW2 1881   1.588   1.722   3.119  0.2323  1.1059  1.4538
  628SOL     OW 1882   1.561   2.291   0.894 -0.1486  0.2568 -0.3596
  628SOL    HW1 1883   1.475   2.254   0.937  0.7145 -2.9552  1.0654
  628SOL    HW2 1884   1.634   2.309   0.964 -0.1321  2.0213 -1.1997
  629SOL     OW 1885   0.341   0.071   1.578 -0.1700 -0.1023  0.2153
  629SOL    HW1 1886   0.352   0.041   1.678  0.4020 -1.2113  0.6937
  629SOL    HW2 1887   0.433   0.097   1.537 -0.4030  2.5052  1.1745
  630SOL     OW 1888   2.463   0.716   1.515  0.1945  0.0106  0.7165
  630SOL    HW1 1889   2.367   0.703   1.553  0.2326 -1.8387  0.8507
  630SOL    HW2 1890   2.475   0.661   1.430 -2.0603 -0.6807 -1.8177
  631SOL     OW 1891   1.453   0.562   1.070 -0.4586  0.7999  0.4400
  631SOL    HW1 1892   1.548   0.596   1.050 -0.5816 -0.7093 -2.4867
  631SOL    HW2 1893   1.443   0.461   1.046 -0.4956 -1.0864 -1.4768
  632SOL     OW 1894   2.876   1.085   2.015  0.8197 -0.1483 -0.9011
  632SOL    HW1 1895   2.902   1.038   1.930 -2.7888 -0.1553  1.0221
  632SOL    HW2 1896   2.954   1.070   2.083  0.9279  0.7674 -1.9283
  633SOL     OW 1897   1.484   0.706   3.009 -0.3771 -0.3851 -0.0941
  633SOL    HW1 1898   1.417   0.672   3.080 -1.3063 -0.8754  1.1598
  633SOL    HW2 1899   1.460   0.682   2.911  1.4409 -0.3482  1.0747
  634SOL     OW 1900   0.527   2.633   0.160  0.6279 -0.1885 -0.4529
  634SOL    HW1 1901   0.572   2.668   0.239 -2.7799  1.8095 -0.4887
  634SOL    HW2 1902   0.455   2.569   0.184 -0.3923  1.5766  0.1823
  635SOL     OW 1903   2.904   1.642   1.597 -0.0907 -0.5665  0.5968
  635SOL    HW1 1904   2.817   1.611   1.559  0.2949  0.9310  2.1344
  635SOL    HW2 1905   2.884   1.719   1.666 -2.3979  1.4620  1.1907
  636SOL     OW 1906   3.049   1.709   0.092 -0.3458  0.0239 -0.2774
  636SOL    HW1 1907   3.117   1.663   0.030  0.1844  1.1298  0.3204
  636SOL    HW2 1908   3.082   1.800   0.123 -0.4712  0.9004  1.7707
  637SOL     OW 1909   0.096   2.680   0.458 -0.1389 -0.8473 -0.6568
  637SOL    HW1 1910   0.040   2.754   0.508 -0.7894  1.0165  0.9589
  637SOL    HW2 1911   0.112   2.696   0.356  0.9507 -0.3147  1.7654
  638SOL     OW 1912   3.068   2.924   0.156 -0.2424 -0.2507  0.1048
  638SOL    HW1 1913   3.043   2.829   0.131 -4.2101 -0.6465 -0.7958
  638SOL    HW2 1914   0.037   2.944   0.129  0.9985 -1.1679 -1.2110
  639SOL     OW 1915   1.521   0.368   2.980  0.6323  0.1781 -0.2249
  639SOL    HW1 1916   1.478   0.457   2.965  0.3233  0.0677  1.8849
  639SOL    HW2 1917   1.485   0.301   2.908 -0.5318 -1.9047 -2.5943
  640SOL     OW 1918   2.362   2.247   1.403 -0.0444  0.0084 -0.4728
  640SOL    HW1 1919   2.346   2.216   1.307  0.5566 -1.8918  0.8009
  640SOL    HW2 1920   2.393   2.345   1.416 -0.0592  3.9334 -1.4004
  641SOL     OW 1921   2.922   2.907   1.109 -0.4436 -0.4396 -0.4882
  641SOL    HW1 1922   2.984   2.955   1.171  0.5373 -1.4671 -1.0287
  641SOL    HW2 1923   2.920   2.949   1.016 -1.0941 -0.4313  1.2725
  642SOL     OW 1924   1.685   1.181   1.402  0.1318  0.5004  0.1156
  642SOL    HW1 1925   1.772   1.178   1.352  0.1392 -1.3562  1.2170
  642SOL    HW2 1926   1.703   1.197   1.501 -1.3813  1.1441  0.4939
  643SOL     OW 1927   0.963   1.859   2.492  0.2110 -0.2471 -0.0273
  643SOL    HW1 1928   1.039   1.929   2.477  2.1389  3.9143  1.6872
  643SOL    HW2 1929   0.888   1.869   2.426  1.1564  2.2825  2.8260
  644SOL     OW 1930   1.929   2.984   2.398  0.3056 -0.3287  0.1554
  644SOL    HW1 1931   2.019   2.994   2.349  1.8274 -2.1786  0.5311
  644SOL    HW2 1932   1.854   2.989   2.328  0.9496 -0.6366 -1.3355
  645SOL     OW 1933   1.535   1.107   1.872 -0.4407 -0.0842  0.0882
  645SOL    HW1 1934   1.457   1.092   1.809 -0.4845 -2.5554  0.3419
  645SOL    HW2 1935   1.612   1.128   1.813 -0.6067  0.5534  1.0603
  646SOL     OW 1936   1.283   2.562   3.074 -0.1679  0.9078  0.4644
  646SOL    HW1 1937   1.262   2.546   2.978 -0.7297 -0.0562  1.1199
  646SOL    HW2 1938   1.377   2.524   3.094 -1.5965 -1.8536  0.0472
  647SOL     OW 1939   1.229   2.477   0.980  0.3160 -0.1829  0.2279
  647SOL    HW1 1940   1.130   2.502   1.006 -1.4287 -0.0467  2.8315
  647SOL    HW2 1941   1.247   2.377   0.974  0.6755  2.1930  0.3905
  648SOL     OW 1942   2.934   2.733   1.339  0.2730 -0.5007  0.2265
  648SOL    HW1 1943   3.036   2.739   1.356 -3.7298 -1.4271 -1.2242
  648SOL    HW2 1944   2.904   2.782   1.254  0.5110 -0.7850 -0.2840
  649SOL     OW 1945   0.782   2.308   2.616  0.6165  0.1985  0.6390
  649SOL    HW1 1946   0.851   2.269   2.676  1.3699  3.8180 -0.8336
  649SOL    HW2 1947   0.686   2.299   2.650 -0.3248 -1.6817  1.4675
  650SOL     OW 1948   2.848   1.867   2.904  0.2448  0.6659  0.2956
  650SOL    HW1 1949   2.808   1.811   2.979 -4.0152  1.9789 -2.5919
  650SOL    HW2 1950   2.951   1.876   2.918 -1.0488  2.7277  0.9495
  651SOL     OW 1951   2.235   2.340   2.175  0.1239 -0.1911  0.6557
  651SOL    HW1 1952   2.147   2.364   2.214  0.7779  1.3788  1.2054
  651SOL    HW2 1953   2.252   2.392   2.088 -1.2080  3.6456 -0.8034
  652SOL     OW 1954   2.323   2.827   1.304 -0.0625  0.0165  0.0328
  652SOL    HW1 1955   2.371   2.807   1.392  3.0383  0.7908 -3.3951
  652SOL    HW2 1956   2.386   2.816   1.223  0.4579 -1.1902 -0.5911
  653SOL     OW 1957   3.006   1.385   1.218  0.6037  0.4844 -0.2949
  653SOL    HW1 1958   2.938   1.350   1.285 -0.2533 -0.6218  2.2746
  653SOL    HW2 1959   2.966   1.407   1.121 -0.7275  0.7092 -2.6376
  654SOL     OW 1960   0.959   0.388   2.797 -0.4471  0.5134 -0.2873
  654SOL    HW1 1961   1.035   0.452   2.813 -1.3718  1.6738  0.1770
  654SOL    HW2 1962   0.967   0.304   2.859  0.4645  0.6035  2.2014
  655SOL     OW 1963   0.969   0.541   1.057  0.1163  0.3457  0.6216
  655SOL    HW1 1964   0.996   0.638   1.093 -0.9821 -0.3570  0.1624
  655SOL    HW2 1965   0.969   0.467   1.126  2.9703 -0.2656  0.8458
  656SOL     OW 1966   0.466   2.376   1.923 -0.3659 -0.4431  0.0296
  656SOL    HW1 1967   0.378   2.329   1.944  1.8582  1.6397 -1.5148
  656SOL    HW2 1968   0.497   2.445   1.986  1.9525  0.4812 -0.1788
  657SOL     OW 1969   2.492   1.040   0.178 -0.0892 -0.1955 -0.0027
  657SOL    HW1 1970   2.461   0.998   0.092 -1.0905 -0.6468  0.6843
  657SOL    HW2 1971   2.546   1.122   0.160 -0.2715  0.2905 -0.0957
  658SOL     OW 1972   1.804   2.022   1.496  0.3417 -0.4722 -0.3967
  658SOL    HW1 1973   1.868   2.095   1.525 -3.5274 -1.7601  2.8018
  658SOL    HW2 1974   1.836   1.986   1.409 -0.2270  2.3121  2.7320
  659SOL     OW 1975   2.648   1.843   0.130  0.1950  0.3628  0.2682
  659SOL    HW1 1976   2.714   1.777   0.084 -0.8274 -1.4234  0.1145
  659SOL    HW2 1977   2.567   1.788   0.158 -1.8045 -0.6951  1.3549
  660SOL     OW 1978   1.006   0.264   0.705  0.5861  0.8859 -0.0479
  660SOL    HW1 1979   1.017   0.182   0.645  2.1544  0.3038 -3.2803
  660SOL    HW2 1980   0.973   0.345   0.656 -1.9891 -1.9594  1.1508
  661SOL     OW 1981   1.628   0.419   0.274 -0.0713 -0.7142 -0.1740
  661SOL    HW1 1982   1.544   0.418   0.218  0.3246  0.2893 -0.5409
  661SOL    HW2 1983   1.703   0.367   0.220  0.4569  0.5174 -1.3242
  662SOL     OW 1984   0.394   3.124   0.899  0.4862  0.1664 -0.0850
  662SOL    HW1 1985   0.482   3.081   0.866  0.2706  0.6921  0.1102
  662SOL    HW2 1986   0.332   3.127   0.818  0.8172  0.0771 -1.3716
  663SOL     OW 1987   1.263   2.911   2.247  0.3302 -0.0918 -0.1901
  663SOL    HW1 1988   1.174   2.925   2.199  0.6622  0.5057 -2.3772
  663SOL    HW2 1989   1.261   2.838   2.320  0.4497 -0.4339  1.1313
  664SOL     OW 1990   1.004   2.273   1.680 -0.0301  0.1540  0.1377
  664SOL    HW1 1991   0.910   2.250   1.656  1.7885 -0.6460 -0.7741
  664SOL    HW2 1992   1.013   2.365   1.721 -0.2752 -3.2497  0.2566
  665SOL     OW 1993   1.019   2.119   1.925  0.4042  0.6872  0.1308
  665SOL    HW1 1994   0.981   2.200   1.978 -1.2854 -0.7881  0.7468
  665SOL    HW2 1995   1.036   2.149   1.830  2.9178 -0.3709 -0.2002
  666SOL     OW 1996   0.745   2.811   2.543  0.0216 -0.1723 -0.0585
  666SOL    HW1 1997   0.762   2.892   2.487  0.5810  0.3591 -1.5887
  666SOL    HW2 1998   0.651   2.778   2.544  2.9078 -0.4641  0.9222
  667SOL     OW 1999   2.456   1.173   1.433  0.0457 -0.4645 -0.2272
  667SOL    HW1 2000   2.460   1.179   1.331  1.7777 -0.2552 -1.6243
  667SOL    HW2 2001   2.374   1.216   1.473 -1.7049 -1.0953  2.3446
  668SOL     OW 2002   1.800   0.068   1.862 -0.2165  0.4131 -0.1599
  668SOL    HW1 2003   1.854   3.109   1.887  2.1464 -0.5518 -0.6398
  668SOL    HW2 2004   1.718   0.085   1.913  5.2406 -0.4810  0.5022
  669SOL     OW 2005   2.525   2.782   1.100 -0.1161  0.1464 -0.0848
  669SOL    HW1 2006   2.584   2.720   1.156 -1.5782  1.3084 -0.5094
  669SOL    HW2 2007   2.555   2.791   1.001 -1.2803 -0.5270  1.9851
  670SOL     OW 2008   1.441   2.518   2.693  0.0243  0.1227  0.6132
  670SOL    HW1 2009   1.354   2.511   2.744 -2.3880  4.9623  1.4364
  670SOL    HW2 2010   1.426   2.493   2.597 -2.7428 -0.1337  0.6038
  671SOL     OW 2011   0.539   1.192   0.569 -0.0879 -0.4383 -0.4113
  671SOL    HW1 2012   0.583   1.276   0.528  1.8680  0.0771  2.4116
  671SOL    HW2 2013   0.456   1.165   0.517  3.0105 -1.1225 -1.7578
  672SOL     OW 2014   2.658   1.232   2.979  0.1034 -0.0103 -0.7162
  672SOL    HW1 2015   2.556   1.231   2.999 -2.2709 -0.7759  0.5150
  672SOL    HW2 2016   2.695   1.139   2.999 -1.4351 -0.2993 -0.5201
  673SOL     OW 2017   3.103   2.050   1.461  0.0356  0.1476 -0.2171
  673SOL    HW1 2018   3.021   2.084   1.508 -0.0228 -0.1135 -0.5845
  673SOL    HW2 2019   3.097   1.948   1.465  0.0519  2.3568 -0.4493
  674SOL     OW 2020   0.834   2.164   2.228  0.6761  0.1710 -0.1954
  674SOL    HW1 2021   0.931   2.174   2.256  0.7801  0.5489  1.1971
  674SOL    HW2 2022   0.806   2.211   2.143  2.6904 -1.8041 -1.8480
  675SOL     OW 2023   1.017   0.892   1.435  0.2156  0.0129  0.6041
  675SOL    HW1 2024   1.077   0.833   1.493 -3.1147  0.7158  0.5763
  675SOL    HW2 2025   0.922   0.851   1.427  0.0587 -1.9112  1.7484
  676SOL     OW 2026   1.797   0.208   1.352 -0.4916  0.0886  0.1353
  676SOL    HW1 2027   1.753   0.216   1.259 -1.5971  2.0375 -1.2523
  676SOL    HW2 2028   1.784   0.119   1.402  1.8019 -2.0683  1.3360
  677SOL     OW 2029   2.750   0.836   0.114  0.1263  0.1854  0.0246
  677SOL    HW1 2030   2.839   0.793   0.109 -1.7067  0.8490 -0.3483
  677SOL    HW2 2031   2.725   0.874   0.204  0.9156 -0.9182 -1.6840
  678SOL     OW 2032   2.512   1.172   1.169  0.4405 -0.4671  0.2179
  678SOL    HW1 2033   2.592   1.208   1.117  1.3018  0.2946 -0.5807
  678SOL    HW2 2034   2.438   1.146   1.103 -0.8512  0.7662 -1.7871
  679SOL     OW 2035   2.879   0.566   2.868 -0.2702 -0.1927  0.3283
  679SOL    HW1 2036   2.861   0.667   2.849 -1.3014  1.6579  0.2487
  679SOL    HW2 2037   2.914   0.546   2.963 -1.9555 -1.4147 -0.0658
  680SOL     OW 2038   0.525   1.372   2.022 -0.5261  0.5837  0.1556
  680SOL    HW1 2039   0.515   1.353   2.124  1.7956  0.3178 -0.0253
  680SOL    HW2 2040   0.437   1.370   1.974 -0.1724  0.6375 -1.4669
  681SOL     OW 2041   2.635   2.132   1.475 -0.1848  0.9220 -0.3547
  681SOL    HW1 2042   2.566   2.112   1.543  0.9356  2.1583  0.2034
  681SOL    HW2 2043   2.632   2.066   1.395  0.9686 -3.4015  0.2503
  682SOL     OW 2044   0.102   2.121   3.125  0.0959 -0.6921 -0.0610
  682SOL    HW1 2045   0.045   2.200   3.093  1.0387  1.7574 -1.4841
  682SOL    HW2 2046   0.148   2.073   3.045 -0.0171 -1.6205 -0.5123
  683SOL     OW 2047   2.832   2.280   0.843 -0.2178  0.1666  0.2964
  683SOL    HW1 2048   2.853   2.181   0.855  1.0949 -1.0193 -2.5010
  683SOL    HW2 2049   2.729   2.291   0.863  0.8005 -0.2167  0.7949
  684SOL     OW 2050   3.049   1.330   2.215  0.0301 -0.3204 -0.6660
  684SOL    HW1 2051   0.015   1.285   2.204  3.9636 -1.1440  2.4437
  684SOL    HW2 2052   2.999   1.344   2.130 -3.1310 -1.1495 -0.9611
  685SOL     OW 2053   1.283   0.664   0.864 -0.0673  0.5339 -0.0839
  685SOL    HW1 2054   1.231   0.573   0.855 -1.8886 -0.5671 -1.8830
  685SOL    HW2 2055   1.379   0.654   0.833  0.9388  1.1913  0.0175
  686SOL     OW 2056   0.557   0.501   0.357  0.1885 -0.1247 -0.1674
  686SOL    HW1 2057   0.617   0.478   0.435 -1.4836 -0.0857  1.9114
  686SOL    HW2 2058   0.462   0.531   0.386 -0.8340 -0.5792 -1.9561
  687SOL     OW 2059   0.458   2.096   2.539 -0.1730 -0.2463 -0.3190
  687SOL    HW1 2060   0.485   2.175   2.478  2.2084 -0.5315  2.2622
  687SOL    HW2 2061   0.369   2.054   2.516  2.2528 -0.1674  1.1453
  688SOL     OW 2062   1.968   0.541   1.516 -0.2794 -0.6773 -0.4117
  688SOL    HW1 2063   1.998   0.442   1.536 -1.2090 -1.1450  1.8271
  688SOL    HW2 2064   1.939   0.545   1.420 -1.6446  1.8407  1.0514
  689SOL     OW 2065   1.696   0.664   1.002  0.0802  0.0293 -0.7388
  689SOL    HW1 2066   1.782   0.717   0.997 -0.1528 -0.9453  1.4344
  689SOL    HW2 2067   1.655   0.676   0.911 -0.5691 -0.5719  1.7702
  690SOL     OW 2068   2.900   1.095   1.227 -0.0049 -0.1259 -0.7749
  690SOL    HW1 2069   2.842   1.176   1.234  0.4310 -0.2749  0.7949
  690SOL    HW2 2070   2.955   1.099   1.142 -0.1529  1.0237  1.2154
  691SOL     OW 2071   3.014   1.348   1.583 -0.7071 -0.2257 -0.2470
  691SOL    HW1 2072   3.041   1.443   1.563 -0.9857 -1.6566 -0.9383
  691SOL    HW2 2073   2.916   1.336   1.602 -0.5395 -1.7791 -1.9652
  692SOL     OW 2074   1.275   0.369   1.485  0.2256 -0.1911  0.5903
  692SOL    HW1 2075   1.316   0.438   1.549  0.7322 -1.0151  0.4752
  692SOL    HW2 2076   1.214   0.295   1.521 -0.6463  2.9277 -1.5550
  693SOL     OW 2077   0.793   1.334   2.398 -0.0718  0.1165  0.4265
  693SOL    HW1 2078   0.866   1.400   2.376 -0.7717  0.2728 -1.2023
  693SOL    HW2 2079   0.798   1.258   2.329 -0.1753  0.4021  1.1595
  694SOL     OW 2080   1.683   1.523   0.502  0.7526 -0.5180 -0.3126
  694SOL    HW1 2081   1.725   1.462   0.574  0.3012 -0.6325 -3.3393
  694SOL    HW2 2082   1.594   1.485   0.470 -1.2720  0.4475  0.8530
  695SOL     OW 2083   0.547   1.050   1.183  0.0876  0.4031  0.6665
  695SOL    HW1 2084   0.466   1.092   1.142  1.9176 -0.6286  0.4844
  695SOL    HW2 2085   0.527   0.966   1.238 -0.0461 -1.2914 -1.0123
  696SOL     OW 2086   0.174   3.092   0.414  0.1302 -0.0068 -0.2724
  696SOL    HW1 2087   0.079   3.062   0.406  1.7311 -1.2502 -0.3149
  696SOL    HW2 2088   0.239   3.018   0.387  1.3654 -1.5623 -0.5518
  697SOL     OW 2089   1.873   0.412   1.055  0.3323 -0.0908 -0.2523
  697SOL    HW1 2090   1.860   0.480   1.135 -0.9477  0.3016  1.1965
  697SOL    HW2 2091   1.811   0.329   1.067 -1.1860 -0.2548  0.6654
  698SOL     OW 2092   1.756   1.494   1.739 -0.4126  0.3915 -0.3097
  698SOL    HW1 2093   1.778   1.585   1.764 -1.4380 -4.5999  0.0839
  698SOL    HW2 2094   1.839   1.447   1.708 -1.9138 -1.1136  3.4395
  699SOL     OW 2095   0.003   0.317   2.079 -1.0280  0.1745  0.2779
  699SOL    HW1 2096   0.022   0.272   2.167 -1.9574  3.3156 -2.8837
  699SOL    HW2 2097   3.044   0.286   2.038 -1.3943 -0.5226  2.7082
  700SOL     OW 2098   1.505   2.708   0.702  0.0566 -0.4873  0.3579
  700SOL    HW1 2099   1.601   2.726   0.674  0.6790 -2.1443  0.6020
  700SOL    HW2 2100   1.442   2.785   0.680  0.7612 -1.6796  0.5951
  701SOL     OW 2101   0.280   1.362   2.566  0.3707 -0.7313 -0.1652
  701SOL    HW1 2102   0.283   1.446   2.504  1.0477 -0.1245 -1.6272
  701SOL    HW2 2103   0.355   1.360   2.642 -0.4065 -0.1213  3.7963
  702SOL     OW 2104   0.583   0.286   0.185 -0.5243 -0.2545  0.1637
  702SOL    HW1 2105   0.561   0.379   0.221 -1.2251 -0.0295  0.6294
  702SOL    HW2 2106   0.508   0.224   0.204  0.1210  1.2750  0.2502
  703SOL     OW 2107   1.754   3.099   2.607  0.4146 -0.0996  0.0573
  703SOL    HW1 2108   1.807   3.069   2.693  0.8875  3.5898  1.4234
  703SOL    HW2 2109   1.780   3.037   2.530 -1.0130  0.9417  1.7885
  704SOL     OW 2110   2.546   2.123   0.672  0.1845 -0.2183 -0.5811
  704SOL    HW1 2111   2.562   2.186   0.753 -1.1789  1.7047 -0.2867
  704SOL    HW2 2112   2.617   2.126   0.601 -0.6879  0.7536  0.7561
  705SOL     OW 2113   2.664   2.055   2.013 -0.0271  0.1087  0.1937
  705SOL    HW1 2114   2.625   1.971   1.974  0.3783 -0.2352 -1.1547
  705SOL    HW2 2115   2.596   2.106   2.074  0.7629  0.1748  0.4571
  706SOL     OW 2116   2.801   2.735   0.697 -0.0797 -0.4690 -0.0002
  706SOL    HW1 2117   2.862   2.692   0.767  2.4248  0.4986 -0.0449
  706SOL    HW2 2118   2.863   2.771   0.624 -4.0770  0.2311 -0.7826
  707SOL     OW 2119   0.879   3.028   0.229  0.2824 -0.1887 -0.2531
  707SOL    HW1 2120   0.952   2.971   0.274  1.0672  2.8960  0.2943
  707SOL    HW2 2121   0.875   3.117   0.279  2.0755  0.6434  4.4194
  708SOL     OW 2122   0.276   2.305   1.479 -0.5018 -0.3045  0.1391
  708SOL    HW1 2123   0.224   2.295   1.565  0.5747 -3.8645 -0.4241
  708SOL    HW2 2124   0.266   2.225   1.410 -1.3056 -2.8453  0.0704
  709SOL     OW 2125   1.280   2.754   1.971  0.1636 -0.2204 -0.1161
  709SOL    HW1 2126   1.314   2.655   1.972  0.1641 -0.3331  2.1000
  709SOL    HW2 2127   1.255   2.788   2.064 -0.2101  2.4792  0.4153
  710SOL     OW 2128   1.808   2.607   2.526  0.1961  0.0105 -0.2110
  710SOL    HW1 2129   1.888   2.664   2.559  1.3410 -0.0180 -2.3545
  710SOL    HW2 2130   1.745   2.657   2.464 -0.6232 -2.9500  1.5615
  711SOL     OW 2131   1.212   2.480   2.827 -0.4867 -0.2057 -0.9038
  711SOL    HW1 2132   1.162   2.549   2.772 -2.4023 -0.1278 -3.0540
  711SOL    HW2 2133   1.183   2.389   2.798 -0.3404  0.6676  3.6543
  712SOL     OW 2134   1.178   2.230   2.753  0.3253 -0.3142 -0.3483
  712SOL    HW1 2135   1.240   2.190   2.822  0.8894  2.5998 -0.4884
  712SOL    HW2 2136   1.086   2.194   2.767  1.5808 -1.0283  0.9828
  713SOL     OW 2137   1.312   0.991   1.762  0.3332  0.2019  0.0738
  713SOL    HW1 2138   1.325   0.903   1.809 -1.4649  1.9231  1.0721
  713SOL    HW2 2139   1.281   0.985   1.664 -1.3431 -0.6047 -0.5174
  714SOL     OW 2140   1.396   1.202   1.432  0.1784  0.1693 -0.1677
  714SOL    HW1 2141   1.338   1.151   1.363 -1.0883  1.0925 -1.9640
  714SOL    HW2 2142   1.493   1.192   1.408 -1.7810 -1.7235 -0.2485
  715SOL     OW 2143   2.677   3.066   0.547 -0.5527  0.4121 -0.3008
  715SOL    HW1 2144   2.714   0.024   0.508 -0.2559 -0.6350  0.8019
  715SOL    HW2 2145   2.725   2.987   0.507  1.2708 -0.8369  1.1293
  716SOL     OW 2146   0.775   2.701   1.160 -0.0363 -0.4874  0.2123
  716SOL    HW1 2147   0.778   2.604   1.128  2.6806 -1.4742  1.4864
  716SOL    HW2 2148   0.678   2.727   1.182 -1.1002 -1.1571  0.0452
  717SOL     OW 2149   3.001   0.406   3.076  0.0251  0.0351  0.1942
  717SOL    HW1 2150   2.928   0.336   3.053 -1.7239  1.1034 -0.8619
  717SOL    HW2 2151   3.022   0.400   0.049 -2.5192 -0.3767 -1.4063
  718SOL     OW 2152   1.777   1.533   1.281  0.4957  0.2253 -0.5696
  718SOL    HW1 2153   1.741   1.562   1.374  0.6781 -2.4621 -1.8845
  718SOL    HW2 2154   1.795   1.435   1.284  0.5602  2.5311  1.8043
  719SOL     OW 2155   3.033   2.644   0.091 -0.2507 -0.0395 -0.2660
  719SOL    HW1 2156   2.989   2.632   3.126 -0.8130  0.9951  0.2672
  719SOL    HW2 2157   2.981   2.600   0.163  0.1143 -0.4043 -1.8815
  720SOL     OW 2158   1.121   0.857   0.945  0.8972  0.5494 -0.0181
  720SOL    HW1 2159   1.195   0.792   0.914 -0.2153 -3.9862 -1.5660
  720SOL    HW2 2160   1.076   0.822   1.032 -1.0679  0.6484  1.0782
  721SOL     OW 2161   1.677   0.209   1.084 -0.0759 -0.1766 -0.6294
  721SOL    HW1 2162   1.687   0.167   0.989  2.1880 -1.6349 -1.6653
  721SOL    HW2 2163   1.583   0.246   1.104  0.1423  0.8633  1.6872
  722SOL     OW 2164   1.132   1.693   1.965  0.6039  0.3044 -0.1773
  722SOL    HW1 2165   1.061   1.682   2.036 -0.3607 -1.7320  1.6210
  722SOL    HW2 2166   1.169   1.786   1.961 -0.4635  0.5471 -0.1153
  723SOL     OW 2167   1.151   0.016   1.617  0.5896  0.0515  0.3389
  723SOL    HW1 2168   1.225   0.035   1.552  1.1210  1.4159  3.7382
  723SOL    HW2 2169   1.189   3.114   1.708 -0.4987 -1.5930 -0.1935
  724SOL     OW 2170   1.832   2.096   1.941 -0.4644  0.5132 -0.8843
  724SOL    HW1 2171   1.763   2.057   2.007 -1.3678 -0.5794  0.7645
  724SOL    HW2 2172   1.893   2.016   1.916  0.4186 -0.7942 -0.1681
  725SOL     OW 2173   1.238   2.772   1.511  0.1700 -0.0618 -0.3030
  725SOL    HW1 2174   1.336   2.799   1.499  2.0213 -0.1827 -0.9689
  725SOL    HW2 2175   1.231   2.673   1.490 -1.0052 -1.2519  0.0747
  726SOL     OW 2176   1.776   2.866   0.100  0.2790 -0.8697 -0.0607
  726SOL    HW1 2177   1.775   2.968   0.122  2.4731  0.6479  0.0771
  726SOL    HW2 2178   1.868   2.827   0.109  1.7149 -0.7931  1.6948
  727SOL     OW 2179   1.454   1.787   0.892  0.2813  0.7887  0.0078
  727SOL    HW1 2180   1.368   1.835   0.918  0.4926 -1.0301  0.1661
  727SOL    HW2 2181   1.490   1.744   0.980  1.8433  0.0252 -0.2616
  728SOL     OW 2182   2.001   2.804   2.584 -0.2571 -0.1042  0.3313
  728SOL    HW1 2183   1.978   2.871   2.506 -0.6429 -0.3968  0.3969
  728SOL    HW2 2184   2.067   2.847   2.648 -0.0008  0.0499 -0.7082
  729SOL     OW 2185   2.211   2.266   1.641  0.2493  0.2484 -0.0876
  729SOL    HW1 2186   2.239   2.336   1.707  3.1331 -0.7055 -1.7399
  729SOL    HW2 2187   2.256   2.277   1.552  0.2716 -0.3132  1.1458
  730SOL     OW 2188   2.146   0.643   2.415 -0.4380  0.1016  0.0137
  730SOL    HW1 2189   2.079   0.653   2.335 -1.4092  1.0897 -0.3058
  730SOL    HW2 2190   2.183   0.550   2.435 -0.7288 -0.5641  0.3441
  731SOL     OW 2191   0.547   0.180   1.407 -0.7274 -0.1761  0.5163
  731SOL    HW1 2192   0.640   0.223   1.399 -2.0818 -1.2669 -0.9254
  731SOL    HW2 2193   0.499   0.205   1.320  0.8405  2.1121 -0.2002
  732SOL     OW 2194   1.786   0.099   0.846  0.7185 -0.6229 -0.3845
  732SOL    HW1 2195   1.746   0.022   0.794  0.8007 -0.9103 -3.0120
  732SOL    HW2 2196   1.875   0.129   0.813 -1.4080  2.4164  2.3601
  733SOL     OW 2197   0.815   1.018   1.162  0.1702  0.1981  0.7954
  733SOL    HW1 2198   0.712   1.012   1.160  1.0630 -1.6562 -2.3067
  733SOL    HW2 2199   0.854   1.060   1.075  0.4049  3.3506 -2.6607
  734SOL     OW 2200   2.609   2.389   0.325  0.0322 -0.0680 -0.0582
  734SOL    HW1 2201   2.512   2.354   0.344 -0.1705 -2.4808  1.6832
  734SOL    HW2 2202   2.632   2.466   0.391 -0.2038 -0.4910  1.3742
  735SOL     OW 2203   0.592   0.703   0.190 -0.5457  0.6219  0.2219
  735SOL    HW1 2204   0.571   0.696   0.087  2.3627  1.7417 -1.8628
  735SOL    HW2 2205   0.562   0.626   0.253 -1.9824 -0.9510  0.7789
  736SOL     OW 2206   1.769   2.385   2.389 -0.4096 -0.3728  0.4954
  736SOL    HW1 2207   1.796   2.465   2.449  3.2386  0.3805  0.8952
  736SOL    HW2 2208   1.748   2.309   2.450  1.0097  2.4013  0.8008
  737SOL     OW 2209   1.302   2.092   1.225  0.1508 -0.4875  0.0191
  737SOL    HW1 2210   1.242   2.006   1.213 -0.6858 -1.2427 -2.7245
  737SOL    HW2 2211   1.343   2.101   1.317  1.2318  1.5510  0.7359
  738SOL     OW 2212   1.727   2.987   2.234 -0.6023 -0.0038  0.3102
  738SOL    HW1 2213   1.631   3.021   2.216 -2.1118 -0.9405  0.1645
  738SOL    HW2 2214   1.788   2.982   2.152  1.0284 -0.7814 -1.5486
  739SOL     OW 2215   1.265   2.036   2.185  0.1067  0.1200  0.0975
  739SOL    HW1 2216   1.357   2.054   2.224  0.4640  1.6621 -1.7966
  739SOL    HW2 2217   1.203   2.106   2.228 -1.2996 -1.2843 -2.9279
  740SOL     OW 2218   1.944   2.242   1.569  0.1476 -0.3215  0.1080
  740SOL    HW1 2219   2.035   2.252   1.616  1.3528 -0.9816  0.7614
  740SOL    HW2 2220   1.941   2.285   1.477  0.8296  0.0966  0.5660
  741SOL     OW 2221   1.994   1.755   3.048  0.7535  0.4008 -0.0328
  741SOL    HW1 2222   1.931   1.747   2.963  1.2122 -0.2173 -4.1798
  741SOL    HW2 2223   2.078   1.815   3.032 -1.3433  1.7325  2.2565
  742SOL     OW 2224   0.997   1.257   2.960 -0.7526  0.5124  0.6851
  742SOL    HW1 2225   0.977   1.301   2.871  2.4687 -2.5256  1.5088
  742SOL    HW2 2226   1.024   1.158   2.939 -1.1638  2.0158 -0.6947
  743SOL     OW 2227   2.485   0.931   2.780  0.1793 -0.3679  0.2532
  743SOL    HW1 2228   2.544   0.895   2.706  2.8077 -0.0871 -1.7952
  743SOL    HW2 2229   2.449   1.029   2.760 -1.5118  0.9712 -1.5801
  744SOL     OW 2230   1.971   2.707   1.683  0.0247 -0.1591 -0.1273
  744SOL    HW1 2231   1.931   2.692   1.591  1.8612 -1.3070 -0.9247
  744SOL    HW2 2232   2.043   2.778   1.683  2.2470 -2.3439  0.9241
  745SOL     OW 2233   2.648   1.940   1.294  0.2583 -0.3416 -0.1327
  745SOL    HW1 2234   2.712   1.995   1.229  1.7430  2.3481  0.0944
  745SOL    HW2 2235   2.652   1.841   1.277 -0.5275  0.3093  1.7529
  746SOL     OW 2236   2.893   1.998   0.867  0.3205  0.5621  0.1099
  746SOL    HW1 2237   2.809   1.943   0.845 -2.3514  0.3126  1.7173
  746SOL    HW2 2238   2.975   1.959   0.823 -2.1733 -0.1618 -0.3084
  747SOL     OW 2239   1.981   2.648   0.395 -0.0302  0.1129 -0.0734
  747SOL    HW1 2240   1.948   2.566   0.442 -0.8455 -0.2682 -2.5952
  747SOL    HW2 2241   1.987   2.729   0.458 -0.1723 -1.5386 -0.1208
  748SOL     OW 2242   0.961   2.076   0.342 -0.9127  0.2330 -0.1839
  748SOL    HW1 2243   1.001   2.096   0.255  0.4398 -1.8675 -0.5806
  748SOL    HW2 2244   0.863   2.095   0.329  2.9869 -0.1703  0.6607
  749SOL     OW 2245   2.990   0.355   2.454  0.1533 -0.0382  0.5754
  749SOL    HW1 2246   3.065   0.294   2.483 -0.7016 -0.4296 -0.6799
  749SOL    HW2 2247   3.026   0.449   2.448 -0.7527 -1.2133 -1.5644
  750SOL     OW 2248   1.316   0.726   1.845  0.2409 -0.4280  0.8035
  750SOL    HW1 2249   1.321   0.692   1.942 -1.5995 -4.0489 -1.6726
  750SOL    HW2 2250   1.369   0.666   1.784 -0.8544 -1.0959 -1.2646
  751SOL     OW 2251   2.225   2.543   2.001 -0.2593 -0.1314 -0.4295
  751SOL    HW1 2252   2.131   2.527   1.956 -0.6081 -1.2025 -1.5867
  751SOL    HW2 2253   2.247   2.642   1.984  2.4028  1.3578  1.2444
  752SOL     OW 2254   1.967   1.745   0.881 -0.1762 -0.1856 -0.1594
  752SOL    HW1 2255   1.945   1.730   0.980 -2.5619  0.6379 -1.0433
  752SOL    HW2 2256   2.030   1.674   0.841 -2.0667  0.5275  2.0285
  753SOL     OW 2257   1.490   0.954   2.558 -0.1753  0.3889 -0.6581
  753SOL    HW1 2258   1.486   1.017   2.477  2.7288 -2.8285  0.9754
  753SOL    HW2 2259   1.489   1.013   2.641 -1.2294  1.0781 -0.0802
  754SOL     OW 2260   0.120   2.815   1.028 -0.0238  0.0143 -0.4126
  754SOL    HW1 2261   0.092   2.866   1.117 -1.3144  2.1399 -0.6566
  754SOL    HW2 2262   0.080   2.722   1.026 -0.4894  1.5152  0.0652
  755SOL     OW 2263   2.164   0.228   1.696  0.0920 -0.0240 -0.2497
  755SOL    HW1 2264   2.242   0.293   1.686 -0.2568 -3.1417 -1.5044
  755SOL    HW2 2265   2.119   0.212   1.605  0.8307  0.0792 -3.0182
  756SOL     OW 2266   1.737   1.256   2.452 -0.0216 -0.0605 -0.2555
  756SOL    HW1 2267   1.688   1.303   2.530  0.4319  0.3583  0.8567
  756SOL    HW2 2268   1.661   1.248   2.384 -1.9727  1.2867  0.6682
  757SOL     OW 2269   3.022   2.836   1.782  0.0631  0.8936 -0.7604
  757SOL    HW1 2270   3.098   2.910   1.782  2.3232  2.6677 -2.1622
  757SOL    HW2 2271   2.936   2.869   1.736  1.1334  1.7640  0.3285
  758SOL     OW 2272   0.391   2.844   1.422 -0.4400 -0.1763 -0.2446
  758SOL    HW1 2273   0.296   2.869   1.444  1.4203  0.8913 -2.6342
  758SOL    HW2 2274   0.465   2.915   1.426  0.3918  1.2931 -1.0636
  759SOL     OW 2275   2.401   1.187   0.886 -0.0299 -0.1476  0.7795
  759SOL    HW1 2276   2.501   1.213   0.898  0.4451  1.1337 -0.8099
  759SOL    HW2 2277   2.392   1.142   0.794 -2.3679  1.8171 -1.0292
  760SOL     OW 2278   1.567   0.118   1.993  0.1855 -0.2914 -0.2460
  760SOL    HW1 2279   1.493   0.187   1.981 -0.4367  0.4489  0.5201
  760SOL    HW2 2280   1.536   0.037   2.045 -0.5500 -0.8555 -2.3677
  761SOL     OW 2281   2.064   0.432   0.396 -0.2670  0.5755  0.8923
  761SOL    HW1 2282   2.041   0.334   0.372 -1.1759  0.7013  3.0788
  761SOL    HW2 2283   2.038   0.497   0.319  2.0355  0.0523 -1.3665
  762SOL     OW 2284   2.428   2.792   0.104 -0.3152 -0.2802  0.3768
  762SOL    HW1 2285   2.530   2.802   0.112  1.9917  1.0934  3.3146
  762SOL    HW2 2286   2.393   2.728   0.179  0.1737 -1.9604 -0.9017
  763SOL     OW 2287   0.980   0.795   1.160  0.1620 -0.3376 -0.2518
  763SOL    HW1 2288   0.988   0.784   1.262  2.5380  0.5414  1.3810
  763SOL    HW2 2289   0.931   0.884   1.149 -0.5013  0.1966  0.5724
  764SOL     OW 2290   2.312   2.438   2.704  0.1504 -0.4348 -0.1129
  764SOL    HW1 2291   2.352   2.388   2.785  0.3388  0.0543  1.3808
  764SOL    HW2 2292   2.213   2.470   2.720 -0.0155 -0.3989  1.5937
  765SOL     OW 2293   0.144   0.624   2.281  0.4275  0.3635 -0.0006
  765SOL    HW1 2294   0.050   0.615   2.321  0.1468 -0.5142  0.4478
  765SOL    HW2 2295   0.214   0.654   2.347 -0.9082  0.2187 -0.5166
  766SOL     OW 2296   2.801   1.433   2.885 -0.5757  0.0549 -0.0928
  766SOL    HW1 2297   2.726   1.492   2.849  0.7391  0.9329 -0.2068
  766SOL    HW2 2298   2.760   1.358   2.937  0.0327  2.5008  1.5303
  767SOL     OW 2299   3.037   1.762   1.958  0.1793 -0.3323 -0.2714
  767SOL    HW1 2300   2.956   1.777   1.904  2.7816 -1.9736  1.1310
  767SOL    HW2 2301   3.115   1.716   1.908 -1.0120  1.7492 -0.0445
  768SOL     OW 2302   1.068   0.928   0.085 -0.8227 -0.2137 -0.3591
  768SOL    HW1 2303   0.972   0.888   0.084 -1.3402  0.3740  0.1847
  768SOL    HW2 2304   1.141   0.867   0.123  2.2680  1.8099  2.1381
  769SOL     OW 2305   1.723   2.825   2.965 -0.0092  0.0853 -0.2204
  769SOL    HW1 2306   1.796   2.866   2.905  1.0347  0.6667  1.5642
  769SOL    HW2 2307   1.719   2.871   3.057  2.3969 -0.8813 -0.0635
  770SOL     OW 2308   0.686   3.111   2.460 -0.2322 -0.0898 -0.5503
  770SOL    HW1 2309   0.736   0.018   2.386 -2.2419 -1.8073  1.5253
  770SOL    HW2 2310   0.728   0.010   2.544  0.2384  0.7936 -2.7148
  771SOL     OW 2311   0.717   2.472   0.980  0.4537  0.2193 -0.2818
  771SOL    HW1 2312   0.684   2.470   0.884  1.8355 -0.6153  0.8170
  771SOL    HW2 2313   0.802   2.412   0.985 -0.3670 -1.0513 -0.3652
  772SOL     OW 2314   2.996   0.702   0.156  0.6927 -0.4948 -0.3045
  772SOL    HW1 2315   3.023   0.603   0.135  0.2779  0.9111 -0.7011
  772SOL    HW2 2316   2.984   0.719   0.255  0.1105  2.4930  0.7529
  773SOL     OW 2317   1.894   0.923   2.059  0.0721  0.4158 -0.0452
  773SOL    HW1 2318   1.815   0.884   2.001 -1.4379  0.9563  0.8685
  773SOL    HW2 2319   1.874   1.014   2.106 -0.5805  1.3760  3.3142
  774SOL     OW 2320   0.705   0.982   0.590  0.2610 -0.2690  0.1074
  774SOL    HW1 2321   0.640   1.055   0.566 -0.2392  0.2452 -0.7232
  774SOL    HW2 2322   0.702   0.964   0.691 -0.4289 -0.1039 -3.7779
  775SOL     OW 2323   1.876   0.022   3.059 -0.1747 -0.5451  0.5108
  775SOL    HW1 2324   1.811   0.006   0.006 -0.0718  1.9211 -2.8657
  775SOL    HW2 2325   1.885   0.121   3.035 -0.1415  2.0773  0.2734
  776SOL     OW 2326   2.219   0.130   2.434  0.0073 -0.5903  0.4594
  776SOL    HW1 2327   2.119   0.130   2.455  1.4536  1.9526 -2.5558
  776SOL    HW2 2328   2.222   0.121   2.329 -2.2919 -0.9937 -3.3527
  777SOL     OW 2329   0.782   1.659   0.019 -0.6649 -0.3552  0.5901
  777SOL    HW1 2330   0.858   1.642   0.089  0.8270 -1.3441  1.7218
  777SOL    HW2 2331   0.712   1.725   0.057 -2.2159  0.3958 -1.1468
  778SOL     OW 2332   0.334   2.754   3.065  0.1805  0.6410  0.3276
  778SOL    HW1 2333   0.278   2.741   0.018  0.9388 -0.6908 -1.6613
  778SOL    HW2 2334   0.431   2.733   3.075 -0.0268 -0.3290  0.4974
  779SOL     OW 2335   0.433   1.212   0.051  0.0522 -0.3413 -0.2891
  779SOL    HW1 2336   0.378   1.276   0.106 -0.5289 -0.3609  0.2126
  779SOL    HW2 2337   0.430   1.117   0.092 -1.5915 -0.7478  0.8879
  780SOL     OW 2338   2.057   0.294   2.077 -0.6620 -0.4154 -0.2166
  780SOL    HW1 2339   2.103   0.377   2.114 -0.4249  0.1697 -1.2384
  780SOL    HW2 2340   2.031   0.299   1.978  0.1219 -0.2408 -0.1826
  781SOL     OW 2341   1.759   1.176   1.668  0.0983  0.1369  0.3685
  781SOL    HW1 2342   1.839   1.235   1.682  1.6346 -1.0036 -0.2301
  781SOL    HW2 2343   1.780   1.081   1.628  0.4257 -1.2188 -0.3810
  782SOL     OW 2344   1.790   1.801   2.299 -0.2308 -0.4051 -0.3010
  782SOL    HW1 2345   1.837   1.864   2.363 -0.1848 -0.8894 -3.2443
  782SOL    HW2 2346   1.807   1.704   2.325  1.9501 -0.9757 -2.7459
  783SOL     OW 2347   1.409   0.024   1.502 -0.0143  0.1105 -0.7894
  783SOL    HW1 2348   1.481   0.075   1.556 -3.7163  2.0351  1.2056
  783SOL    HW2 2349   1.423   3.055   1.520  1.2877  1.6994  1.5945
  784SOL     OW 2350   2.008   0.851   2.547  0.2252  0.4182  0.0933
  784SOL    HW1 2351   2.062   0.902   2.617 -2.5279 -0.6561  1.4199
  784SOL    HW2 2352   2.074   0.796   2.492  0.0366 -0.4787 -1.3959
  785SOL     OW 2353   1.845   0.343   0.130  0.2603 -0.2134 -0.3753
  785SOL    HW1 2354   1.841   0.323   0.032  2.7210  0.3420 -1.7110
  785SOL    HW2 2355   1.901   0.431   0.147 -0.2768  3.8735  0.0742
  786SOL     OW 2356   0.048   2.038   0.469  0.1817  0.4330 -0.5140
  786SOL    HW1 2357   0.031   2.014   0.372  0.0196  0.4729 -2.0269
  786SOL    HW2 2358   0.134   2.088   0.475  1.6841 -0.5204 -0.9116
  787SOL     OW 2359   1.770   2.237   0.437 -0.3140 -0.4527 -0.3896
  787SOL    HW1 2360   1.729   2.183   0.514 -3.5196 -0.8657  0.9280
  787SOL    HW2 2361   1.698   2.293   0.392 -0.7906 -0.8487  1.9838
  788SOL     OW 2362   2.130   1.632   1.480  0.3648 -0.5493 -0.6985
  788SOL    HW1 2363   2.161   1.684   1.396 -1.1198  2.1486  1.0446
  788SOL    HW2 2364   2.039   1.675   1.516  0.0536  1.9657  1.7391
  789SOL     OW 2365   0.014   1.351   2.692 -0.0097  0.6286  0.3138
  789SOL    HW1 2366   0.098   1.358   2.635 -0.1049  1.8427 -0.9430
  789SOL    HW2 2367   3.054   1.377   2.647  0.8696 -1.4709  0.3257
  790SOL     OW 2368   0.478   0.129   2.712 -0.1822 -0.1501  0.0676
  790SOL    HW1 2369   0.432   0.215   2.692 -0.7367 -4.4671 -2.6159
  790SOL    HW2 2370   0.581   0.135   2.702  3.5857  1.8284  1.8842
  791SOL     OW 2371   0.769   0.155   2.689  0.5598 -0.0516 -0.2199
  791SOL    HW1 2372   0.793   0.173   2.784  0.3347  1.4290  0.1273
  791SOL    HW2 2373   0.801   0.232   2.632  2.5278 -0.7385  0.6944
  792SOL     OW 2374   1.612   0.634   2.301  0.4766 -0.8983 -0.1395
  792SOL    HW1 2375   1.620   0.544   2.347  0.9365 -1.3161 -1.0803
  792SOL    HW2 2376   1.669   0.704   2.346 -1.3634  0.2562  1.7977
  793SOL     OW 2377   2.756   0.537   1.694  0.8736  0.5739  0.1849
  793SOL    HW1 2378   2.704   0.620   1.666  1.8740 -2.0619 -0.4965
  793SOL    HW2 2379   2.717   0.493   1.781 -2.1523 -0.9721  3.3082
  794SOL     OW 2380   0.416   0.583   1.881  0.1199  0.1499  0.3592
  794SOL    HW1 2381   0.505   0.590   1.931 -1.8662 -1.3902 -2.6018
  794SOL    HW2 2382   0.368   0.497   1.909  1.7113 -2.4597  0.5325
  795SOL     OW 2383   3.076   1.529   0.492 -0.0634 -0.4262 -0.2176
  795SOL    HW1 2384   3.025   1.589   0.432  3.9401 -1.7321  3.3174
  795SOL    HW2 2385   3.126   1.585   0.563  0.2101  2.3511 -0.1603
  796SOL     OW 2386   3.068   2.345   3.078  0.4997  1.0471 -0.2409
  796SOL    HW1 2387   3.012   2.376   0.029 -3.6279 -0.9990  0.0885
  796SOL    HW2 2388   3.023   2.358   2.989 -3.6279 -1.3195  0.9519
  797SOL     OW 2389   2.372   2.615   0.291  0.0857 -0.3068  0.5340
  797SOL    HW1 2390   2.362   2.609   0.389 -0.9363 -1.5168  2.2287
  797SOL    HW2 2391   2.298   2.556   0.255 -0.8860  1.1424  1.5065
  798SOL     OW 2392   0.170   1.004   1.429  0.0911  0.1434 -0.2657
  798SOL    HW1 2393   0.256   0.962   1.402 -1.8168 -0.7048  1.3038
  798SOL    HW2 2394   0.096   0.937   1.412  1.3955 -0.8566 -1.4815
  799SOL     OW 2395   2.863   0.564   2.298  0.2787 -0.2103  0.0613
  799SOL    HW1 2396   2.911   0.580   2.386  2.0572  2.8438  0.1348
  799SOL    HW2 2397   2.900   0.625   2.224  1.8297  0.2369  2.9282
  800SOL     OW 2398   2.922   2.199   0.584  0.1018 -0.3671 -0.0563
  800SOL    HW1 2399   3.021   2.170   0.578  1.5318  0.0256 -2.3995
  800SOL    HW2 2400   2.904   2.233   0.675 -0.0823 -0.8270 -0.5340
  801SOL     OW 2401   1.415   1.067   0.882  0.2086 -0.1315 -0.0463
  801SOL    HW1 2402   1.385   1.058   0.785  0.5991 -1.3341  4.7669
  801SOL    HW2 2403   1.343   1.115   0.939  2.2711 -0.3129  2.9391
  802SOL     OW 2404   1.199   1.838   1.504  0.5734  0.5646 -0.3589
  802SOL    HW1 2405   1.274   1.798   1.445 -1.3341 -2.2265  0.2675
  802SOL    HW2 2406   1.214   1.936   1.526 -0.9334 -0.8865  0.8674
  803SOL     OW 2407   2.934   1.691   0.343 -0.0851 -0.2571  0.1225
  803SOL    HW1 2408   2.981   1.679   0.249  0.0328  0.4637 -2.0400
  803SOL    HW2 2409   2.897   1.783   0.352  0.3009  0.4808  0.9901
  804SOL     OW 2410   1.017   2.611   1.089 -0.3263 -0.1995 -0.0073
  804SOL    HW1 2411   1.014   2.573   1.180  3.9483  0.3201 -1.1457
  804SOL    HW2 2412   0.940   2.678   1.078 -1.1377  0.0741  0.4426
  805SOL     OW 2413   1.642   1.390   0.111 -0.3200 -0.1798  0.0367
  805SOL    HW1 2414   1.603   1.485   0.127 -2.5846  0.5648  1.6581
  805SOL    HW2 2415   1.567   1.338   0.073 -0.2984 -0.1169  1.2549
  806SOL     OW 2416   1.484   2.901   1.547  0.1269  1.0294  0.0454
  806SOL    HW1 2417   1.510   2.880   1.645  0.9770  1.2052 -2.2739
  806SOL    HW2 2418   1.556   2.867   1.479  0.6593 -0.3552 -2.0069
  807SOL     OW 2419   2.130   2.912   2.834 -0.5584 -0.3349  0.3079
  807SOL    HW1 2420   2.188   2.975   2.776  2.7301  0.0868 -0.7981
  807SOL    HW2 2421   2.184   2.847   2.896 -0.0984 -1.1824  2.7541
  808SOL     OW 2422   0.297   1.370   0.231  0.1584 -0.2171 -0.2245
  808SOL    HW1 2423   0.203   1.366   0.270  2.6077 -1.7907 -1.1925
  808SOL    HW2 2424   0.327   1.464   0.222 -0.1171  0.2994 -1.3152
  809SOL     OW 2425   2.710   0.922   2.339 -0.3049 -0.1523 -0.2946
  809SOL    HW1 2426   2.788   0.987   2.352  0.6806  0.1264  0.0216
  809SOL    HW2 2427   2.672   0.925   2.244  2.8485  0.6401  2.0164
  810SOL     OW 2428   2.459   0.142   2.023  0.0629 -0.0300 -0.0707
  810SOL    HW1 2429   2.495   0.212   2.092 -1.1061 -0.3007  0.3417
  810SOL    HW2 2430   2.503   0.167   1.934  1.2738  1.5820 -3.2533
  811SOL     OW 2431   2.353   2.511   1.534 -0.5758 -0.0050  0.0665
  811SOL    HW1 2432   2.383   2.467   1.627  0.7018 -1.5479  1.3954
  811SOL    HW2 2433   2.376   2.611   1.540 -1.1395 -0.3561  0.3926
  812SOL     OW 2434   1.817   0.333   3.002 -0.4476  0.2267  0.1785
  812SOL    HW1 2435   1.722   0.364   2.985  0.3998  1.6414  0.3090
  812SOL    HW2 2436   1.885   0.406   2.966  0.2275  1.1289 -0.2698
  813SOL     OW 2437   1.765   0.504   1.853 -0.3582 -0.1816  0.3635
  813SOL    HW1 2438   1.847   0.450   1.871 -1.4744 -0.0463 -0.0084
  813SOL    HW2 2439   1.788   0.564   1.775  1.0025 -0.2352 -0.0566
  814SOL     OW 2440   2.109   1.360   1.456 -0.2179  0.2047 -0.0795
  814SOL    HW1 2441   2.178   1.362   1.377  1.5886  0.3371 -2.4876
  814SOL    HW2 2442   2.089   1.455   1.479 -1.1013 -1.1310 -1.2712
  815SOL     OW 2443   0.335   1.153   0.398  0.0611  0.4632 -0.3249
  815SOL    HW1 2444   0.332   1.236   0.348 -0.6405 -1.6732  2.2322
  815SOL    HW2 2445   0.310   1.075   0.335 -0.9761 -3.0521 -2.1241
  816SOL     OW 2446   1.805   1.730   2.858  0.6252 -0.3428  0.1898
  816SOL    HW1 2447   1.872   1.731   2.781  0.9298  0.4195 -0.9396
  816SOL    HW2 2448   1.711   1.698   2.821  2.1119 -1.4282 -1.4847
  817SOL     OW 2449   0.133   2.926   0.778 -0.4018 -0.3618  0.1818
  817SOL    HW1 2450   0.112   2.896   0.875  2.2979 -0.2177 -0.8631
  817SOL    HW2 2451   0.194   2.862   0.733  0.3450  2.1463  1.5493
  818SOL     OW 2452   1.686   0.449   2.467 -0.0543  0.3633 -0.1750
  818SOL    HW1 2453   1.745   0.508   2.528 -1.3975  2.3253 -1.4954
  818SOL    HW2 2454   1.673   0.349   2.496  2.1891 -0.1659 -2.2346
  819SOL     OW 2455   1.173   1.015   0.375  0.8763  0.0706  0.5762
  819SOL    HW1 2456   1.199   0.929   0.324  0.0258 -1.6114 -2.4808
  819SOL    HW2 2457   1.075   1.016   0.400 -0.3539 -0.6057  1.1257
  820SOL     OW 2458   2.283   1.005   1.045 -0.0567 -0.4059  0.2325
  820SOL    HW1 2459   2.371   0.950   1.047 -1.9794 -0.8313 -1.0932
  820SOL    HW2 2460   2.298   1.083   0.981 -0.1671 -1.5912  3.8368
  821SOL     OW 2461   2.297   3.105   0.353 -0.4359  0.1104 -0.5213
  821SOL    HW1 2462   2.305   3.088   0.258  1.7138 -2.7439  2.3058
  821SOL    HW2 2463   2.200   0.010   0.368 -0.7258  0.4723 -0.2926
  822SOL     OW 2464   0.476   2.733   2.553 -0.3317 -0.1556 -0.2622
  822SOL    HW1 2465   0.485   2.678   2.635 -0.7433  1.3884  0.5559
  822SOL    HW2 2466   0.460   2.835   2.570  0.7290  2.4155  0.2838
  823SOL     OW 2467   0.151   2.279   1.709 -0.0063  0.0062 -0.4131
  823SOL    HW1 2468   0.079   2.325   1.662  2.5472  2.8536  2.4903
  823SOL    HW2 2469   0.134   2.308   1.808 -1.7164 -4.1037  2.2366
  824SOL     OW 2470   0.841   2.847   2.184  0.1640  0.5554  0.1891
  824SOL    HW1 2471   0.911   2.869   2.116 -1.7982 -1.8357 -0.7361
  824SOL    HW2 2472   0.871   2.785   2.259  0.5266  1.1199  0.6096
  825SOL     OW 2473   1.261   1.818   0.407  0.8802 -0.1217  0.2975
  825SOL    HW1 2474   1.287   1.745   0.339 -0.4818  1.0217 -4.5451
  825SOL    HW2 2475   1.159   1.821   0.425 -3.3271  2.9428 -0.9850
  826SOL     OW 2476   1.237   3.047   3.096  0.4391 -0.6772  0.2377
  826SOL    HW1 2477   1.142   3.043   3.058 -1.0863 -2.1111 -2.1052
  826SOL    HW2 2478   1.270   2.957   3.108 -0.4806  1.7233  1.2567
  827SOL     OW 2479   0.235   1.748   1.406  0.3056  0.2613  0.8946
  827SOL    HW1 2480   0.136   1.767   1.424  0.6844  0.3913  3.8729
  827SOL    HW2 2481   0.275   1.727   1.498 -0.0612  0.9762  1.1464
  828SOL     OW 2482   2.644   1.666   1.263 -0.9505  0.1369 -0.2680
  828SOL    HW1 2483   2.599   1.581   1.229  0.2994  0.7822  1.5644
  828SOL    HW2 2484   2.642   1.657   1.363 -1.2290 -0.1849 -1.7817
  829SOL     OW 2485   2.931   2.327   0.198  0.0208  0.4342  0.0033
  829SOL    HW1 2486   2.978   2.355   0.286 -2.9045 -1.0502 -0.4640
  829SOL    HW2 2487   2.861   2.256   0.216 -3.9553 -3.2995 -0.1189
  830SOL     OW 2488   1.020   0.734   0.606 -0.0656  0.3987  0.6829
  830SOL    HW1 2489   1.121   0.736   0.620  1.6231 -0.3648  1.7835
  830SOL    HW2 2490   0.980   0.732   0.699 -1.0133  0.9903 -2.1839
  831SOL     OW 2491   2.821   1.933   0.318  0.9591 -0.5168  0.5837
  831SOL    HW1 2492   2.751   1.912   0.247 -1.7268  2.4375  1.0779
  831SOL    HW2 2493   2.800   2.031   0.349 -2.0113  3.4146 -1.5707
  832SOL     OW 2494   1.153   2.782   0.534  0.2956 -0.6534 -0.0079
  832SOL    HW1 2495   1.148   2.722   0.611 -0.8959  2.2890 -3.1229
  832SOL    HW2 2496   1.235   2.845   0.544  0.2589  0.4497 -0.9632
  833SOL     OW 2497   1.211   0.797   2.601  0.1364  1.2643 -0.0195
  833SOL    HW1 2498   1.201   0.885   2.555  2.4816 -2.3277  0.7688
  833SOL    HW2 2499   1.301   0.751   2.587  3.7065  0.9406  0.1759
  834SOL     OW 2500   2.790   0.618   0.678 -0.2354 -0.7008  0.1235
  834SOL    HW1 2501   2.728   0.551   0.632  0.4122 -0.0603  0.1058
  834SOL    HW2 2502   2.828   0.576   0.765  0.7808 -0.8902  0.1570
  835SOL     OW 2503   2.580   0.496   1.941  0.1720 -0.2031 -0.6227
  835SOL    HW1 2504   2.594   0.600   1.925 -0.4195  3.7665 -0.7718
  835SOL    HW2 2505   2.527   0.486   2.027  2.0414  1.7426 -2.1164
  836SOL     OW 2506   0.619   2.455   0.730  0.3733 -0.2871  0.1304
  836SOL    HW1 2507   0.601   2.530   0.662 -1.2038  1.6963 -3.3119
  836SOL    HW2 2508   0.647   2.370   0.679  1.2573  1.1091 -0.0824
  837SOL     OW 2509   2.265   1.922   2.311  0.6855 -0.0595  0.0473
  837SOL    HW1 2510   2.360   1.920   2.280 -0.2453 -1.2648  0.5163
  837SOL    HW2 2511   2.199   1.963   2.242 -1.2434  1.1453 -1.3638
  838SOL     OW 2512   0.124   1.355   1.717 -0.6474 -0.0967  0.0516
  838SOL    HW1 2513   0.189   1.310   1.654 -1.5678 -2.4770 -0.4949
  838SOL    HW2 2514   0.027   1.336   1.683 -1.8530  0.9526 -1.7215
  839SOL     OW 2515   0.057   0.195   0.358 -0.2439 -1.0298  0.2487
  839SOL    HW1 2516   0.015   0.257   0.427 -1.0201  0.6351  0.7960
  839SOL    HW2 2517   0.094   0.110   0.400  0.0866 -1.7007 -1.3518
  840SOL     OW 2518   3.078   0.639   2.482 -0.1502  0.3556 -0.1837
  840SOL    HW1 2519   3.068   0.739   2.475 -1.8226 -0.7554  0.6652
  840SOL    HW2 2520   0.008   0.604   2.561 -1.1301 -0.4864 -1.2822
  841SOL     OW 2521   0.539   2.304   2.762  0.1691 -0.2603  0.5659
  841SOL    HW1 2522   0.542   2.246   2.845 -0.1049  0.1084 -0.0290
  841SOL    HW2 2523   0.460   2.280   2.699  0.7998 -1.6928 -3.0900
  842SOL     OW 2524   0.861   2.891   0.931 -0.8836  0.1856 -0.3432
  842SOL    HW1 2525   0.794   2.826   0.885 -4.8793 -1.1102 -1.9012
  842SOL    HW2 2526   0.811   2.950   0.994  1.3984 -0.7418  0.3415
  843SOL     OW 2527   0.481   1.641   2.790  0.3692  0.1444  0.1879
  843SOL    HW1 2528   0.513   1.676   2.699 -0.2263  1.4503  0.7633
  843SOL    HW2 2529   0.494   1.536   2.797  1.0723 -0.9319 -0.2916
  844SOL     OW 2530   1.313   1.909   2.439 -0.1334 -0.4503  0.4995
  844SOL    HW1 2531   1.292   1.924   2.344  2.3689  1.3174  1.8433
  844SOL    HW2 2532   1.405   1.868   2.451 -2.4677  1.9936 -0.1290
  845SOL     OW 2533   2.434   2.673   2.761 -0.0833 -0.4288  0.4338
  845SOL    HW1 2534   2.445   2.767   2.716  0.1997  1.8220  1.1820
  845SOL    HW2 2535   2.386   2.599   2.707  3.0025 -4.5596 -0.5345
  846SOL     OW 2536   2.038   1.498   3.081 -0.7961 -0.1285 -0.1788
  846SOL    HW1 2537   2.012   1.596   3.051 -0.6416  1.9606 -0.9134
  846SOL    HW2 2538   2.088   1.498   0.046 -0.1729  1.3116  1.0022
  847SOL     OW 2539   2.496   0.257   2.850 -0.2487  0.2570 -0.2850
  847SOL    HW1 2540   2.571   0.325   2.834  0.5972 -0.8722  0.8513
  847SOL    HW2 2541   2.404   0.297   2.844 -0.6053  1.7393 -1.3918
  848SOL     OW 2542   0.011   0.840   3.081 -0.0124 -0.1981 -0.5648
  848SOL    HW1 2543   3.091   0.884   3.002  1.4501  1.9134  0.5736
  848SOL    HW2 2544   3.073   0.796   0.022  0.2907  1.2337  0.3389
  849SOL     OW 2545   1.245   0.220   2.194 -0.4457  0.1049  0.3696
  849SOL    HW1 2546   1.288   0.164   2.266 -0.3401 -0.5828 -2.9410
  849SOL    HW2 2547   1.230   0.310   2.232  1.0413  0.5506 -2.2102
  850SOL     OW 2548   2.900   1.150   0.673 -0.2837  0.0310  0.4345
  850SOL    HW1 2549   2.914   1.056   0.712  0.7767 -1.7686  2.3809
  850SOL    HW2 2550   2.908   1.138   0.571 -0.3458 -1.1464  0.3403
  851SOL     OW 2551   0.230   1.329   0.697  0.5712  0.4526 -0.2439
  851SOL    HW1 2552   0.215   1.315   0.598  1.9703 -0.5465 -1.8871
  851SOL    HW2 2553   0.305   1.400   0.715  0.7737  1.1326 -1.5983
  852SOL     OW 2554   1.167   1.167   1.902 -0.4034 -0.5079  0.4898
  852SOL    HW1 2555   1.168   1.264   1.867 -0.5720  0.7659 -0.1704
  852SOL    HW2 2556   1.212   1.105   1.834 -1.1461 -2.1663 -0.8476
  853SOL     OW 2557   2.109   1.219   0.169 -0.3674  0.2008  0.0340
  853SOL    HW1 2558   2.073   1.187   0.080  1.0081 -2.2974  2.0539
  853SOL    HW2 2559   2.131   1.319   0.160  0.1218 -0.0787 -1.2763
  854SOL     OW 2560   1.604   1.187   2.117  0.1563  0.5252 -0.1139
  854SOL    HW1 2561   1.702   1.190   2.130 -0.5955 -0.7520 -0.0717
  854SOL    HW2 2562   1.581   1.137   2.034  1.2519  0.3660  2.6722
  855SOL     OW 2563   0.514   2.200   2.204 -0.0773  0.0064  0.3269
  855SOL    HW1 2564   0.425   2.230   2.165 -2.8819  0.9280  1.1987
  855SOL    HW2 2565   0.591   2.192   2.138  0.8722  0.2016 -1.9408
  856SOL     OW 2566   1.134   1.062   2.162 -0.4458  0.0652  0.0742
  856SOL    HW1 2567   1.053   0.998   2.178 -1.9124 -2.1304  0.5385
  856SOL    HW2 2568   1.146   1.095   2.063  1.7929 -1.2390 -2.4358
  857SOL     OW 2569   1.140   1.086   2.614  0.1899 -0.4329  0.3948
  857SOL    HW1 2570   1.037   1.077   2.633 -1.3099 -0.9705 -1.1542
  857SOL    HW2 2571   1.158   1.145   2.538 -3.9662 -0.5606  2.0742
  858SOL     OW 2572   2.901   0.963   1.780  0.0793  0.3850 -0.5326
  858SOL    HW1 2573   2.926   1.011   1.692  1.8353  2.5616  1.2574
  858SOL    HW2 2574   2.928   0.868   1.782 -0.6337 -0.2765 -0.3511
  859SOL     OW 2575   2.655   3.082   0.926 -0.4918  0.2258  0.1307
  859SOL    HW1 2576   2.594   3.026   0.865 -2.2195 -2.4261 -1.5574
  859SOL    HW2 2577   2.629   3.069   1.022  3.3753 -0.4881  0.5557
  860SOL     OW 2578   1.600   0.391   1.513  0.4374  0.2568  0.5587
  860SOL    HW1 2579   1.606   0.489   1.489 -0.3802  1.3169 -0.1979
  860SOL    HW2 2580   1.666   0.331   1.455 -1.7173  0.4894 -1.5522
  861SOL     OW 2581   1.851   0.570   1.292 -0.4882 -0.3070 -0.0026
  861SOL    HW1 2582   1.886   0.665   1.272  2.9980 -2.0896  0.2044
  861SOL    HW2 2583   1.756   0.573   1.328 -0.3760 -1.8511  1.6035
  862SOL     OW 2584   1.334   2.987   2.562 -0.3622  0.0401 -0.0770
  862SOL    HW1 2585   1.343   2.911   2.495  1.4312 -0.1293 -0.3829
  862SOL    HW2 2586   1.392   2.981   2.648  1.3366 -0.3924 -0.8332
  863SOL     OW 2587   2.676   3.082   1.451  0.7013 -0.2730  0.5588
  863SOL    HW1 2588   2.621   0.020   1.502  1.1560 -0.2304 -3.5694
  863SOL    HW2 2589   2.755   3.121   1.395 -3.9275  0.9316  2.0613
  864SOL     OW 2590   2.683   2.807   1.989  0.1682 -0.1941  0.3619
  864SOL    HW1 2591   2.757   2.766   2.046  0.8726 -0.3827 -1.0591
  864SOL    HW2 2592   2.621   2.869   2.051 -2.2493  2.2173  2.0026
  865SOL     OW 2593   1.295   1.138   2.824  0.5067 -0.3327 -0.5646
  865SOL    HW1 2594   1.238   1.099   2.904 -3.4896 -2.1682  3.7951
  865SOL    HW2 2595   1.255   1.102   2.743  1.8000 -0.7224  3.3038
  866SOL     OW 2596   2.354   0.074   1.085  0.1248  0.3264 -0.2705
  866SOL    HW1 2597   2.309   0.051   0.993 -1.1908  0.2234 -0.7500
  866SOL    HW2 2598   2.406   3.121   1.114 -4.4673  0.8094 -0.4011
  867SOL     OW 2599   2.968   2.642   0.886  0.0483  0.6153 -0.3783
  867SOL    HW1 2600   2.988   2.692   0.975 -1.4439  0.4079  1.9639
  867SOL    HW2 2601   2.966   2.539   0.894 -0.8833 -1.6959 -2.8529
  868SOL     OW 2602   3.069   1.775   1.428  0.1111  0.1623  0.0355
  868SOL    HW1 2603   3.077   1.728   1.340 -2.4694  2.1294  1.9964
  868SOL    HW2 2604   3.000   1.728   1.485  0.5817  1.1552 -0.7697
  869SOL     OW 2605   1.888   1.990   2.507 -0.1312 -0.5691 -0.1037
  869SOL    HW1 2606   1.818   2.056   2.542 -1.8490 -1.8423 -2.4167
  869SOL    HW2 2607   1.975   2.040   2.499 -1.6712 -1.7369 -0.4156
  870SOL     OW 2608   1.286   0.815   0.622 -0.3052  0.7721  0.2181
  870SOL    HW1 2609   1.276   0.916   0.612 -2.0527  0.5581  0.6362
  870SOL    HW2 2610   1.297   0.790   0.724 -0.1822 -0.5417  1.1991
  871SOL     OW 2611   2.595   1.814   1.887 -0.7641  0.5106  0.4443
  871SOL    HW1 2612   2.551   1.774   1.804 -0.1919  0.9445 -2.0088
  871SOL    HW2 2613   2.563   1.768   1.974  0.2313 -0.4878  1.8559
  872SOL     OW 2614   0.883   1.725   2.917 -0.2216  0.0033 -0.5194
  872SOL    HW1 2615   0.985   1.727   2.949  2.9034 -0.1872 -0.0547
  872SOL    HW2 2616   0.826   1.708   3.002 -1.5781  0.0435  1.2215
  873SOL     OW 2617   0.913   1.391   2.043  0.2002 -0.3827 -0.5956
  873SOL    HW1 2618   0.844   1.449   2.002  1.1984 -0.4592  3.1829
  873SOL    HW2 2619   0.989   1.365   1.987 -1.5554  0.3484  2.6744
  874SOL     OW 2620   1.651   0.967   1.216  0.1058  0.2683 -0.1085
  874SOL    HW1 2621   1.633   1.019   1.300  1.6422 -1.3401  0.8462
  874SOL    HW2 2622   1.569   0.910   1.188 -2.1746 -1.7522 -1.7636
  875SOL     OW 2623   2.761   0.074   2.826  0.1090  0.4618  0.6320
  875SOL    HW1 2624   2.675   0.031   2.856 -0.1180  0.6592  1.6538
  875SOL    HW2 2625   2.767   0.083   2.725  0.0958 -0.7168  0.7555
  876SOL     OW 2626   1.099   1.369   0.579 -0.1813 -0.6505 -0.6777
  876SOL    HW1 2627   1.042   1.287   0.591  1.1935 -0.7805 -0.3665
  876SOL    HW2 2628   1.198   1.353   0.599 -0.6258 -0.6582 -0.1329
  877SOL     OW 2629   1.990   2.879   0.554  0.0441 -0.6902 -0.6735
  877SOL    HW1 2630   1.981   2.980   0.536  0.1711 -2.4682 -0.4348
  877SOL    HW2 2631   2.082   2.856   0.596 -0.8033 -3.1171 -0.9410
  878SOL     OW 2632   1.936   2.277   0.209  0.1448  0.0004 -0.7481
  878SOL    HW1 2633   2.033   2.247   0.231  2.6369  0.4972 -1.4115
  878SOL    HW2 2634   1.881   2.268   0.292  0.8654  0.3123 -1.9836
  879SOL     OW 2635   0.246   2.021   1.747  0.1748 -0.0968  0.2819
  879SOL    HW1 2636   0.203   2.103   1.709  0.1947  0.2564 -0.2959
  879SOL    HW2 2637   0.209   2.009   1.842  2.4681  0.5445  0.1098
  880SOL     OW 2638   0.119   2.035   0.912 -0.1227  0.2149  0.1194
  880SOL    HW1 2639   0.050   2.093   0.955  2.1230  3.1219  0.4026
  880SOL    HW2 2640   0.080   1.982   0.834  2.4995  0.0736  5.7313
  881SOL     OW 2641   1.002   0.040   2.421 -0.5436  0.0163 -0.4092
  881SOL    HW1 2642   1.019   0.027   2.522 -3.4940 -0.0236  3.1539
  881SOL    HW2 2643   0.983   0.137   2.401 -0.8170 -1.6940  0.9502
  882SOL     OW 2644   2.709   0.974   0.902 -0.6285  0.2272  0.2815
  882SOL    HW1 2645   2.803   0.940   0.907 -1.7712 -1.6252  3.1558
  882SOL    HW2 2646   2.649   0.920   0.966  0.5936 -0.2943 -1.2952
  883SOL     OW 2647   1.506   0.476   1.967  0.6211 -0.3006 -0.1857
  883SOL    HW1 2648   1.467   0.550   2.029 -2.0266  1.7877  1.0185
  883SOL    HW2 2649   1.608   0.483   1.962 -3.1108  1.9885 -1.1401
  884SOL     OW 2650   3.063   0.195   1.704 -0.6882  0.1153  0.1056
  884SOL    HW1 2651   3.089   0.157   1.612  1.1754  1.1596 -3.4380
  884SOL    HW2 2652   3.116   0.281   1.716  2.7014  2.8838 -1.2242
  885SOL     OW 2653   2.139   1.289   2.709 -0.0874 -0.3247  0.3302
  885SOL    HW1 2654   2.148   1.384   2.683 -0.7803  2.0279 -0.6822
  885SOL    HW2 2655   2.093   1.244   2.632  1.9465 -0.2669  3.1522
  886SOL     OW 2656   2.118   0.258   3.061  0.7333 -0.2133  0.6226
  886SOL    HW1 2657   2.186   0.267   0.008 -1.0391 -1.2963 -1.1609
  886SOL    HW2 2658   2.077   0.352   3.029 -2.2134  1.9832 -1.3015
  887SOL     OW 2659   1.107   2.840   1.782 -0.2768 -0.0160 -0.2868
  887SOL    HW1 2660   1.172   2.817   1.857 -2.7812  1.2900  0.1545
  887SOL    HW2 2661   1.156   2.837   1.694  1.1195 -0.3215  3.0272
  888SOL     OW 2662   2.189   1.706   2.096 -0.6979 -0.4354  0.1967
  888SOL    HW1 2663   2.180   1.763   2.178  0.5040  1.7959  1.8395
  888SOL    HW2 2664   2.283   1.670   2.091 -5.1992  2.0050  0.0771
  889SOL     OW 2665   1.922   2.328   1.316 -0.3440  0.1039  0.1817
  889SOL    HW1 2666   1.966   2.403   1.263  1.3554  0.8762 -1.2612
  889SOL    HW2 2667   1.926   2.237   1.268  2.1300  0.4982  2.2407
  890SOL     OW 2668   1.219   1.911   0.974 -0.3463  0.1411 -0.7286
  890SOL    HW1 2669   1.193   1.887   1.071  2.3057 -0.7896 -2.5165
  890SOL    HW2 2670   1.139   1.927   0.912  0.2731 -0.7560 -2.4914
  891SOL     OW 2671   0.062   1.343   0.327  0.3791 -0.1050 -0.2484
  891SOL    HW1 2672   0.016   1.256   0.308  4.3010 -1.1271 -0.7651
  891SOL    HW2 2673   0.018   1.396   0.401  1.8382 -0.7251 -3.1020
  892SOL     OW 2674   2.403   1.603   2.988  0.0373  0.5910  0.2701
  892SOL    HW1 2675   2.428   1.532   3.059  0.2802  0.9764 -1.1020
  892SOL    HW2 2676   2.345   1.678   3.030 -1.0185  3.3837  2.5482
  893SOL     OW 2677   2.148   2.602   1.367  0.2310  0.0098  0.5393
  893SOL    HW1 2678   2.178   2.697   1.334 -0.5726  0.9831  2.8824
  893SOL    HW2 2679   2.228   2.573   1.424  0.0094  1.4533 -0.0876
  894SOL     OW 2680   2.724   0.192   0.733 -0.6638 -0.1790  0.0743
  894SOL    HW1 2681   2.714   0.090   0.724  0.1132  1.3191  0.5615
  894SOL    HW2 2682   2.689   0.235   0.817 -0.6784  3.9470 -0.3274
  895SOL     OW 2683   2.791   2.424   2.595  0.0222 -0.2950  0.5689
  895SOL    HW1 2684   2.804   2.507   2.537 -0.4329  1.5320  1.1406
  895SOL    HW2 2685   2.803   2.340   2.538  1.8092 -1.8496  2.4198
  896SOL     OW 2686   2.234   3.108   2.655 -0.0389  0.4108 -0.2915
  896SOL    HW1 2687   2.235   0.025   2.566 -1.9703 -1.5305  1.7174
  896SOL    HW2 2688   2.176   0.032   2.723  0.3292  4.2452 -3.2681
  897SOL     OW 2689   0.326   1.602   1.966  0.3626  0.0729  0.5052
  897SOL    HW1 2690   0.295   1.506   1.977  1.4818 -1.4829 -0.1929
  897SOL    HW2 2691   0.311   1.655   2.051 -2.3470 -1.2034  2.7750
  898SOL     OW 2692   2.836   1.836   1.768  0.5345 -0.2212  0.3860
  898SOL    HW1 2693   2.740   1.830   1.809 -0.8259  2.1869 -1.4659
  898SOL    HW2 2694   2.862   1.929   1.737 -0.9262  2.0270 -1.9083
  899SOL     OW 2695   1.739   3.087   1.464 -0.1977 -0.0502 -0.0023
  899SOL    HW1 2696   1.683   3.109   1.547 -1.6104  0.0383  0.0346
  899SOL    HW2 2697   1.714   2.998   1.424  1.8905  1.7317 -1.0119
  900SOL     OW 2698   1.283   0.810   0.262 -0.3554 -0.2515  0.3310
  900SOL    HW1 2699   1.297   0.735   0.198 -1.2243 -3.2421 -0.9757
  900SOL    HW2 2700   1.354   0.814   0.335  0.0740  1.1077 -1.0902
  901SOL     OW 2701   1.064   1.006   2.958  0.4361  0.0139 -0.4532
  901SOL    HW1 2702   1.060   0.979   3.058 -0.5562 -1.1771  2.0579
  901SOL    HW2 2703   1.071   0.918   2.904 -2.3862 -2.5306  1.4352
  902SOL     OW 2704   2.647   2.603   0.525  0.0241 -0.0469 -0.0552
  902SOL    HW1 2705   2.719   2.641   0.585 -2.7381 -0.2100  1.4453
  902SOL    HW2 2706   2.554   2.603   0.564  0.1398 -1.9867  1.2089
  903SOL     OW 2707   2.801   1.526   1.917 -0.3741  0.0417 -0.4819
  903SOL    HW1 2708   2.839   1.600   1.862  0.4827  1.3668  1.4809
  903SOL    HW2 2709   2.795   1.548   2.020 -3.0671  3.5841  1.1281
  904SOL     OW 2710   1.756   1.067   0.689 -0.1963 -0.2227 -0.0675
  904SOL    HW1 2711   1.739   1.050   0.786  0.7864 -0.0824 -2.0886
  904SOL    HW2 2712   1.851   1.029   0.662  1.9214 -1.5857 -0.9463
  905SOL     OW 2713   2.414   2.770   1.571 -0.0320 -0.0520  0.0291
  905SOL    HW1 2714   2.342   2.839   1.596  1.8110  1.0087 -1.3820
  905SOL    HW2 2715   2.495   2.775   1.631 -2.6191 -0.0702 -0.7716
  906SOL     OW 2716   1.502   2.429   3.116  0.0568 -0.2388 -0.0495
  906SOL    HW1 2717   1.590   2.437   0.036 -2.0326  0.5205  1.2702
  906SOL    HW2 2718   1.519   2.381   3.029  0.6763  0.7786  0.5767
  907SOL     OW 2719   0.618   2.759   0.887  0.0738  0.6173 -0.9930
  907SOL    HW1 2720   0.654   2.680   0.945  1.0945  0.0185  0.4318
  907SOL    HW2 2721   0.559   2.821   0.939  2.9837 -0.8907 -0.6479
  908SOL     OW 2722   0.705   0.145   2.023  0.9944 -0.2286  0.5892
  908SOL    HW1 2723   0.743   0.078   2.093  0.0013 -0.3298  0.5211
  908SOL    HW2 2724   0.766   0.152   1.944 -0.0627 -0.1909  3.9955
  909SOL     OW 2725   2.195   0.742   1.562  0.2668 -0.7002 -0.1603
  909SOL    HW1 2726   2.119   0.680   1.519  0.4025  1.0721 -0.0008
  909SOL    HW2 2727   2.170   0.844   1.561 -0.6502  4.2251 -1.0777
  910SOL     OW 2728   1.327   0.609   0.071  0.2248  0.5898  0.4352
  910SOL    HW1 2729   1.230   0.576   0.086  0.4774  0.5371  0.9245
  910SOL    HW2 2730   1.393   0.539   0.112  2.8645 -1.2095  1.1660
  911SOL     OW 2731   0.138   0.479   3.050  0.4064  0.1198  0.1206
  911SOL    HW1 2732   0.037   0.455   3.045 -2.3428  0.3346  0.9779
  911SOL    HW2 2733   0.192   0.397   3.023 -0.7912 -1.8590  1.7099
  912SOL     OW 2734   2.966   2.456   2.798  0.2410  0.1932  0.1998
  912SOL    HW1 2735   2.913   2.501   2.873 -3.5864  1.6755 -2.3922
  912SOL    HW2 2736   2.905   2.437   2.716 -4.2411 -0.9322 -2.4595
  913SOL     OW 2737   2.486   2.425   3.045 -0.1350  0.1576  0.1358
  913SOL    HW1 2738   2.541   2.463   3.116 -2.3324  1.0129 -2.1018
  913SOL    HW2 2739   2.545   2.424   2.963 -0.0606 -0.0521  0.3608
  914SOL     OW 2740   1.790   1.742   1.821  0.0950 -0.3352 -0.3580
  914SOL    HW1 2741   1.699   1.755   1.860  0.9880  0.2078  0.5002
  914SOL    HW2 2742   1.861   1.777   1.887  2.9905 -0.5884  0.2023
  915SOL     OW 2743   3.046   2.502   2.118 -0.4043  0.0677 -0.3780
  915SOL    HW1 2744   3.095   2.446   2.186  0.2724  0.2717  0.8151
  915SOL    HW2 2745   2.945   2.488   2.137 -2.1213 -3.5975  2.3044
  916SOL     OW 2746   2.953   1.083   1.537  0.3816 -0.0656  0.0195
  916SOL    HW1 2747   3.012   1.163   1.556 -0.8706  1.3950  3.3089
  916SOL    HW2 2748   2.940   1.069   1.436 -1.2659  1.1129  0.4405
  917SOL     OW 2749   2.212   3.110   3.053  0.5050  0.7607 -0.2265
  917SOL    HW1 2750   2.157   3.044   2.997  1.3348  0.0983  1.6552
  917SOL    HW2 2751   2.191   0.079   3.035  0.9636 -1.9901 -0.4680
  918SOL     OW 2752   1.693   2.707   2.301 -0.0250  0.1105 -0.7369
  918SOL    HW1 2753   1.790   2.679   2.285  0.9020 -1.4597  2.4156
  918SOL    HW2 2754   1.684   2.804   2.277  0.4611 -0.8635 -0.4021
  919SOL     OW 2755   1.829   2.326   1.798  0.2794  0.2143 -0.0040
  919SOL    HW1 2756   1.862   2.300   1.703  1.2148 -1.3111  0.7118
  919SOL    HW2 2757   1.829   2.240   1.856  2.5162  0.8490 -1.0244
  920SOL     OW 2758   0.489   0.980   0.188  0.1180  0.1593  0.1222
  920SOL    HW1 2759   0.569   1.042   0.207  1.4424 -0.3070 -2.0739
  920SOL    HW2 2760   0.501   0.887   0.229 -0.4880 -1.7141 -0.8859
  921SOL     OW 2761   2.896   1.048   2.581  0.4602 -0.1709  0.0060
  921SOL    HW1 2762   2.819   1.061   2.646 -0.7130 -0.5688  0.5563
  921SOL    HW2 2763   2.885   1.105   2.499 -2.2490  1.6289  1.4555
  922SOL     OW 2764   0.327   2.197   0.128  0.1468 -0.3507  0.3483
  922SOL    HW1 2765   0.235   2.176   0.090  1.5929 -3.1867  2.8285
  922SOL    HW2 2766   0.348   2.137   0.205 -1.7538  3.8572 -0.8620
  923SOL     OW 2767   0.544   0.963   2.089  0.7572 -0.0102  0.2718
  923SOL    HW1 2768   0.474   0.892   2.058 -0.4069  1.6953 -2.6137
  923SOL    HW2 2769   0.628   0.910   2.110 -0.3410 -0.7718 -1.8320
  924SOL     OW 2770   1.254   2.888   2.841 -0.3573  0.2727  0.3913
  924SOL    HW1 2771   1.247   2.990   2.843  0.6861  3.8825  0.4141
  924SOL    HW2 2772   1.344   2.847   2.841  0.8566 -1.3111 -1.3136
  925SOL     OW 2773   2.026   1.373   0.837 -0.4404 -0.0742  0.1463
  925SOL    HW1 2774   1.929   1.362   0.800 -0.5031  0.6373  1.9117
  925SOL    HW2 2775   2.050   1.313   0.913  1.2932  0.8741 -2.1570
  926SOL     OW 2776   1.692   0.842   1.885  0.3856 -0.2301 -0.2975
  926SOL    HW1 2777   1.718   0.767   1.821 -0.5836 -0.8686  0.4795
  926SOL    HW2 2778   1.593   0.858   1.881  0.0216  0.2823 -1.2622
  927SOL     OW 2779   2.636   2.456   1.767  0.4304  0.8578 -0.2479
  927SOL    HW1 2780   2.730   2.415   1.776  5.2655 -2.5945 -1.9790
  927SOL    HW2 2781   2.634   2.557   1.760 -1.1722  0.0737 -2.1730
  928SOL     OW 2782   0.318   0.711   2.472 -0.0286  0.1884  0.6212
  928SOL    HW1 2783   0.274   0.672   2.552  0.7501  2.2732 -1.1120
  928SOL    HW2 2784   0.396   0.772   2.500 -0.2728  0.2994  0.1675
  929SOL     OW 2785   2.896   3.041   0.838  0.0398 -0.0092  0.2044
  929SOL    HW1 2786   2.806   3.064   0.884 -0.3946  1.0970 -2.3210
  929SOL    HW2 2787   2.888   2.966   0.769 -0.1394  1.4683  1.1015
  930SOL     OW 2788   2.436   0.260   1.474  0.1720 -0.2331  0.8779
  930SOL    HW1 2789   2.371   0.226   1.402 -0.8643 -2.6915  1.1779
  930SOL    HW2 2790   2.526   0.273   1.428 -2.1810 -0.4186 -0.6510
  931SOL     OW 2791   2.393   1.175   3.031  0.2098 -0.1016  0.2459
  931SOL    HW1 2792   2.400   1.075   3.035  0.4909 -1.7055 -0.5755
  931SOL    HW2 2793   2.295   1.202   3.010 -0.7718 -0.3771 -0.6403
  932SOL     OW 2794   2.325   1.544   1.684  0.1147 -0.2982  0.0998
  932SOL    HW1 2795   2.353   1.636   1.701 -0.7755 -1.0039  1.1201
  932SOL    HW2 2796   2.261   1.534   1.604 -2.2691 -0.4375 -0.0462
  933SOL     OW 2797   0.072   2.731   1.417  0.3203  0.1970  0.1380
  933SOL    HW1 2798   0.131   2.666   1.371 -0.3537 -0.2129  0.0797
  933SOL    HW2 2799   0.094   2.738   1.517  1.4162  0.3823 -0.1287
  934SOL     OW 2800   0.793   2.422   1.334  0.3540 -0.2387 -0.2581
  934SOL    HW1 2801   0.801   2.336   1.282  0.1957  0.7742 -1.4432
  934SOL    HW2 2802   0.885   2.464   1.341 -0.9371  1.5813  0.5869
  935SOL     OW 2803   2.414   1.467   2.256 -0.3864  0.1469  0.1527
  935SOL    HW1 2804   2.364   1.512   2.334  0.8993  2.7548  0.7791
  935SOL    HW2 2805   2.401   1.365   2.254  0.1373 -0.5072  3.1758
  936SOL     OW 2806   2.394   1.306   1.818 -0.5196  0.5469  0.2562
  936SOL    HW1 2807   2.380   1.376   1.743 -0.1631  3.0769 -1.3868
  936SOL    HW2 2808   2.491   1.316   1.848  0.2958  0.9479 -0.5055
  937SOL     OW 2809   2.174   0.996   1.991  0.2350 -0.2364 -0.0723
  937SOL    HW1 2810   2.075   0.988   1.968 -2.0618 -1.1850 -1.8184
  937SOL    HW2 2811   2.190   0.956   2.081 -0.0541 -3.8889 -2.1064
  938SOL     OW 2812   0.918   2.361   2.977 -0.1258  0.3277 -0.4852
  938SOL    HW1 2813   0.985   2.401   3.046  0.8448  2.8833  2.4967
  938SOL    HW2 2814   0.875   2.439   2.927  0.8713 -0.6643  2.1972
  939SOL     OW 2815   2.802   1.015   3.018 -0.1957  0.0624 -0.2817
  939SOL    HW1 2816   2.766   0.974   2.930  0.1885  1.0766 -1.1132
  939SOL    HW2 2817   2.785   0.945   3.098 -2.4974 -1.8781  2.2183
  940SOL     OW 2818   1.137   1.862   1.228 -0.5156  0.6294 -0.1545
  940SOL    HW1 2819   1.133   1.758   1.225 -1.7051 -1.0823 -1.4063
  940SOL    HW2 2820   1.128   1.894   1.325  1.0074  1.8922  1.4695
  941SOL     OW 2821   0.631   1.967   1.887  0.2319  0.3017 -0.3685
  941SOL    HW1 2822   0.586   1.877   1.871  0.4066 -0.0358 -1.1946
  941SOL    HW2 2823   0.713   1.977   1.826  1.6328  1.6174 -0.4772
  942SOL     OW 2824   0.198   2.007   2.908 -0.9664  0.2153 -0.1319
  942SOL    HW1 2825   0.182   2.043   2.815  1.4017 -0.3324 -4.2270
  942SOL    HW2 2826   0.296   1.967   2.919  2.5952 -1.8476 -0.0614
  943SOL     OW 2827   1.737   2.722   1.840 -0.2198 -0.0548 -0.4088
  943SOL    HW1 2828   1.726   2.624   1.871 -2.5269 -1.7800 -1.9904
  943SOL    HW2 2829   1.817   2.719   1.772  0.3519  0.0173 -0.4911
  944SOL     OW 2830   0.995   1.661   0.169 -0.3837 -0.2831 -0.1906
  944SOL    HW1 2831   1.078   1.700   0.132  1.4550 -5.2874  0.0043
  944SOL    HW2 2832   1.015   1.572   0.219  2.4681 -2.3122  2.1416
  945SOL     OW 2833   2.561   2.846   0.822 -0.4894 -0.0872 -0.5576
  945SOL    HW1 2834   2.649   2.799   0.800  0.5176  0.6356  0.6429
  945SOL    HW2 2835   2.509   2.868   0.740  0.1267 -1.0615  1.1842
  946SOL     OW 2836   0.907   1.470   2.804  0.0021  0.2498  0.2108
  946SOL    HW1 2837   0.952   1.519   2.730 -2.3944 -2.7690  1.0563
  946SOL    HW2 2838   0.883   1.532   2.883 -1.4277 -0.4404  1.3207
  947SOL     OW 2839   2.949   0.711   2.102  0.1057 -0.0092 -0.0010
  947SOL    HW1 2840   2.984   0.801   2.123  0.5080 -1.6805  1.5218
  947SOL    HW2 2841   2.960   0.692   2.006  0.6117  0.5516  0.7639
  948SOL     OW 2842   0.086   1.643   0.699  0.2839 -0.0809  0.7439
  948SOL    HW1 2843   0.183   1.610   0.671  0.8870 -0.1712 -1.8984
  948SOL    HW2 2844   0.084   1.656   0.799 -1.3520 -0.5951 -1.6874
  949SOL     OW 2845   0.748   0.719   2.331  0.2364 -0.1687  0.1249
  949SOL    HW1 2846   0.667   0.664   2.356  2.7909  1.1687 -0.7777
  949SOL    HW2 2847   0.834   0.675   2.360 -3.3442  0.2494  2.1155
  950SOL     OW 2848   0.153   0.437   1.278  0.0892 -0.0181  0.4626
  950SOL    HW1 2849   0.161   0.538   1.264  0.8856 -3.6636  0.1038
  950SOL    HW2 2850   0.201   0.400   1.358  0.4926 -2.8959  1.0864
  951SOL     OW 2851   0.737   1.320   2.652  0.1502  0.5436 -0.0970
  951SOL    HW1 2852   0.808   1.384   2.692  1.2946  2.6015 -1.7400
  951SOL    HW2 2853   0.746   1.317   2.552 -0.5477 -0.1280  3.0668
  952SOL     OW 2854   1.966   2.149   0.847  0.8919 -0.3625  0.3746
  952SOL    HW1 2855   1.918   2.080   0.790  0.0644  0.4337  2.6843
  952SOL    HW2 2856   1.985   2.238   0.800 -3.3765  1.8353 -0.0263
  953SOL     OW 2857   0.843   0.804   0.176 -0.5231 -0.0230  0.0240
  953SOL    HW1 2858   0.882   0.842   0.268 -0.5309  1.9671  3.1509
  953SOL    HW2 2859   0.749   0.772   0.194  0.1303 -0.4853  3.2576
  954SOL     OW 2860   2.240   0.643   1.268 -0.0590  0.3193  0.8356
  954SOL    HW1 2861   2.342   0.624   1.268 -0.8254 -0.6917 -2.0280
  954SOL    HW2 2862   2.179   0.585   1.203 -2.0451 -0.2958 -5.0475
  955SOL     OW 2863   1.934   1.190   0.363 -0.1626  0.1185 -0.0856
  955SOL    HW1 2864   2.016   1.204   0.300  1.1684  0.7139  0.5356
  955SOL    HW2 2865   1.849   1.179   0.303 -3.4242 -0.1752 -0.1357
  956SOL     OW 2866   1.158   0.503   2.052  0.0716 -0.5712 -0.2829
  956SOL    HW1 2867   1.242   0.476   2.001 -1.6547  0.3094 -0.0787
  956SOL    HW2 2868   1.179   0.523   2.150 -1.0561  0.3068  1.1754
  957SOL     OW 2869   1.419   0.502   1.692  0.0174  0.1832 -0.4379
  957SOL    HW1 2870   1.441   0.486   1.790  0.7625  3.0157  1.1747
  957SOL    HW2 2871   1.493   0.459   1.636 -1.6299  2.5607  2.1422
  958SOL     OW 2872   0.283   2.166   0.467  0.1898 -0.2319  0.3343
  958SOL    HW1 2873   0.354   2.109   0.418  2.3214 -2.9091  1.9526
  958SOL    HW2 2874   0.299   2.147   0.568 -0.7014  0.0167  2.0292
  959SOL     OW 2875   2.371   1.004   1.822 -0.2227  0.1867 -0.4931
  959SOL    HW1 2876   2.396   1.098   1.787 -1.0989  0.9746  2.6094
  959SOL    HW2 2877   2.296   1.007   1.892 -0.6156  0.9564 -0.5370
  960SOL     OW 2878   3.114   1.823   2.910  0.0446  0.3709  0.3793
  960SOL    HW1 2879   0.064   1.892   2.914 -1.5821 -1.7101 -2.3899
  960SOL    HW2 2880   0.017   1.729   2.926  0.8485 -1.9521 -1.7746
  961SOL     OW 2881   0.467   1.929   1.361 -0.0685  0.5260 -0.3363
  961SOL    HW1 2882   0.415   1.842   1.334  3.2323 -0.7194 -0.7790
  961SOL    HW2 2883   0.559   1.933   1.314  0.7641 -1.6616  1.5354
  962SOL     OW 2884   0.587   1.180   0.851 -0.9600 -0.3661  0.4152
  962SOL    HW1 2885   0.582   1.220   0.757  0.0935 -0.7511  1.9505
  962SOL    HW2 2886   0.641   1.241   0.918  2.9949 -1.1266  0.1656
  963SOL     OW 2887   1.565   1.839   2.490 -0.0583 -0.0636  0.1815
  963SOL    HW1 2888   1.576   1.758   2.550 -0.4470 -0.8176  0.0141
  963SOL    HW2 2889   1.622   1.828   2.407  1.9287 -1.6459  0.1508
  964SOL     OW 2890   0.209   2.917   1.904  0.5896 -0.1943 -0.5569
  964SOL    HW1 2891   0.252   2.828   1.878 -1.7028  2.5602  3.0983
  964SOL    HW2 2892   0.205   2.920   2.003  1.0984  0.0656 -0.3858
  965SOL     OW 2893   0.189   1.958   2.539  0.7511  0.3209  0.2881
  965SOL    HW1 2894   0.142   2.039   2.581  1.5610  0.8993 -1.2496
  965SOL    HW2 2895   0.158   1.940   2.444 -2.0761 -2.3856  2.4684
  966SOL     OW 2896   2.791   1.652   3.105 -0.8160 -0.0394  0.3219
  966SOL    HW1 2897   2.786   1.578   3.034  0.8999  1.8627  0.2503
  966SOL    HW2 2898   2.885   1.634   0.016 -1.5464  0.2465  2.8554
  967SOL     OW 2899   2.053   3.061   0.177 -0.0277 -0.1812  0.1580
  967SOL    HW1 2900   2.050   2.959   0.185 -0.7990  0.3918 -3.0290
  967SOL    HW2 2901   2.101   3.084   0.090 -1.5608 -1.6276 -2.1956
  968SOL     OW 2902   2.414   2.992   0.590 -0.3389 -0.3464  0.8114
  968SOL    HW1 2903   2.511   3.005   0.554  1.7378 -0.6823 -2.4752
  968SOL    HW2 2904   2.343   3.030   0.529  0.1013 -2.2495  0.8439
  969SOL     OW 2905   0.139   1.012   1.714 -0.3492 -0.5461 -0.2684
  969SOL    HW1 2906   0.055   0.966   1.747  1.9193 -1.4842 -0.0643
  969SOL    HW2 2907   0.135   1.018   1.612  1.2965  1.1715 -2.1986
  970SOL     OW 2908   1.645   1.897   0.089  0.5450 -1.0128  0.2702
  970SOL    HW1 2909   1.706   1.932   0.166 -0.5822  1.0316  1.1284
  970SOL    HW2 2910   1.547   1.914   0.120  0.3955  0.7164 -1.3744
  971SOL     OW 2911   2.356   3.074   1.849 -0.0820  0.7710 -0.1152
  971SOL    HW1 2912   2.438   3.090   1.797  0.3311  0.5070  0.1471
  971SOL    HW2 2913   2.309   0.028   1.879 -1.2145 -1.2148  0.6996
  972SOL     OW 2914   2.815   0.192   1.090 -0.5132  0.1243 -0.2616
  972SOL    HW1 2915   2.900   0.226   1.045 -1.3407 -1.1246  2.6817
  972SOL    HW2 2916   2.730   0.229   1.047  0.0245 -0.6410 -0.9540
  973SOL     OW 2917   0.811   0.339   2.162 -0.3341 -0.2436  0.6943
  973SOL    HW1 2918   0.763   0.264   2.108  0.6480  1.1641  0.2532
  973SOL    HW2 2919   0.837   0.418   2.101 -1.4118 -0.2572 -1.2330
  974SOL     OW 2920   2.683   1.341   2.260  0.0762 -0.3442 -0.1593
  974SOL    HW1 2921   2.588   1.310   2.263 -2.0085  2.4691  0.0770
  974SOL    HW2 2922   2.689   1.433   2.218  0.6108 -1.7675 -0.9983
  975SOL     OW 2923   1.140   0.269   1.723  0.2222 -0.7199  0.3427
  975SOL    HW1 2924   1.216   0.276   1.791 -0.2004 -2.4892  0.5084
  975SOL    HW2 2925   1.139   0.173   1.683 -1.1679 -1.4925 -1.2628
  976SOL     OW 2926   1.358   1.440   1.295 -0.7549  0.0299  0.2797
  976SOL    HW1 2927   1.422   1.503   1.338 -1.7130 -0.4536 -0.2505
  976SOL    HW2 2928   1.353   1.351   1.341 -0.0742  1.4872 -3.1074
  977SOL     OW 2929   0.459   0.054   0.265 -0.0957  0.3403  0.0981
  977SOL    HW1 2930   0.367   0.050   0.308 -0.5773  0.3410 -0.1553
  977SOL    HW2 2931   0.515   3.107   0.308  2.9760 -0.9196 -0.6645
  978SOL     OW 2932   2.459   1.198   2.254  0.3102  0.6983 -0.4084
  978SOL    HW1 2933   2.511   1.135   2.190 -1.8298 -0.0426 -0.8989
  978SOL    HW2 2934   2.368   1.154   2.271  0.4045 -0.2686  3.0434
  979SOL     OW 2935   1.439   0.715   2.108  0.2718  0.1486 -0.3448
  979SOL    HW1 2936   1.515   0.712   2.178 -1.4900 -2.7963 -3.6272
  979SOL    HW2 2937   1.415   0.816   2.087 -1.2558 -0.5868  2.8241
  980SOL     OW 2938   1.923   1.506   2.551  0.0258  0.8031 -0.3034
  980SOL    HW1 2939   1.876   1.496   2.461  2.9831  0.0615 -1.6418
  980SOL    HW2 2940   1.850   1.472   2.620 -1.3894 -0.7395 -0.2748
  981SOL     OW 2941   1.784   0.700   1.627  0.9281 -0.1688  0.2551
  981SOL    HW1 2942   1.819   0.796   1.610 -0.0423  1.1322  2.4088
  981SOL    HW2 2943   1.839   0.627   1.578 -3.1322 -1.5742 -0.7178
  982SOL     OW 2944   0.827   0.638   3.090  0.2605  0.7398 -0.1067
  982SOL    HW1 2945   0.822   0.699   0.042  0.1039 -3.9461 -1.9448
  982SOL    HW2 2946   0.738   0.631   3.047  1.7996  2.0584  1.0500
  983SOL     OW 2947   2.565   0.647   0.043  0.1533  0.1102 -0.1470
  983SOL    HW1 2948   2.640   0.708   0.077 -1.5812  0.6787  0.7908
  983SOL    HW2 2949   2.594   0.553   0.018 -0.9848 -0.1216  1.3049
  984SOL     OW 2950   0.896   0.295   2.402  0.7640 -0.4552  0.6681
  984SOL    HW1 2951   0.912   0.386   2.450 -0.2542  2.3256 -1.3975
  984SOL    HW2 2952   0.873   0.313   2.303 -1.6770 -1.2952  0.0576
  985SOL     OW 2953   1.672   1.914   2.085 -0.7007  0.2421  0.3754
  985SOL    HW1 2954   1.614   1.852   2.031 -0.2648  2.1010 -0.7131
  985SOL    HW2 2955   1.705   1.865   2.168 -1.8664  2.0652 -2.1325
  986SOL     OW 2956   2.326   2.808   1.955  0.0834  0.1983 -0.0898
  986SOL    HW1 2957   2.299   2.868   1.879  0.7568 -2.9071  0.3193
  986SOL    HW2 2958   2.418   2.839   1.985 -2.2486 -0.3263 -0.5405
  987SOL     OW 2959   1.823   1.290   1.083 -0.6704 -0.5420  0.4390
  987SOL    HW1 2960   1.787   1.385   1.072  0.2151 -0.0894 -0.8246
  987SOL    HW2 2961   1.764   1.221   1.035 -0.9986 -0.7853  2.1909
  988SOL     OW 2962   2.469   1.682   2.104  0.0329  0.2168 -0.2826
  988SOL    HW1 2963   2.472   1.758   2.170 -1.5051 -1.5653 -0.0189
  988SOL    HW2 2964   2.476   1.596   2.152 -0.6734  2.0507 -1.7140
  989SOL     OW 2965   1.242   2.332   0.343 -0.5532 -0.0565  0.1966
  989SOL    HW1 2966   1.177   2.408   0.341  0.7239 -0.9696 -0.9682
  989SOL    HW2 2967   1.235   2.282   0.432 -1.9119 -1.1309  0.7491
  990SOL     OW 2968   2.038   0.495   2.933 -0.2067 -0.3405 -0.2080
  990SOL    HW1 2969   2.120   0.560   2.940  0.6494  0.9841 -0.4602
  990SOL    HW2 2970   2.000   0.483   2.837 -0.9226  1.5485 -0.4745
  991SOL     OW 2971   1.166   0.390   0.914 -0.0117 -0.0580  0.4239
  991SOL    HW1 2972   1.119   0.334   0.844 -3.8013 -2.4415 -2.1147
  991SOL    HW2 2973   1.107   0.438   0.979 -0.8425 -0.1024  1.2229
  992SOL     OW 2974   2.515   0.879   1.088  0.1990  0.4593 -0.1137
  992SOL    HW1 2975   2.536   0.902   1.185 -0.3316 -1.1243  1.5024
  992SOL    HW2 2976   2.548   0.782   1.069 -2.4971  1.2867  1.2686
  993SOL     OW 2977   2.173   0.593   1.828 -0.5275  0.0810  0.6445
  993SOL    HW1 2978   2.243   0.532   1.784 -1.9667 -0.8910 -0.0677
  993SOL    HW2 2979   2.130   0.651   1.759  2.5801 -2.0706 -1.2399
  994SOL     OW 2980   1.038   1.616   2.620  0.3217 -0.0513 -0.5043
  994SOL    HW1 2981   1.084   1.679   2.679 -2.3756  0.3428 -1.2307
  994SOL    HW2 2982   1.016   1.657   2.531  1.2711 -1.3203  0.9374
  995SOL     OW 2983   2.149   1.248   2.993 -0.1693  0.0013 -0.0661
  995SOL    HW1 2984   2.159   1.244   2.895 -0.9064  1.4180  1.2850
  995SOL    HW2 2985   2.095   1.331   3.020 -1.2319  0.5498 -1.4614
  996SOL     OW 2986   2.092   1.967   0.560  0.3555  0.2752 -0.0791
  996SOL    HW1 2987   2.012   1.969   0.625 -0.7687  0.2354 -2.7084
  996SOL    HW2 2988   2.113   1.872   0.533  1.5298  1.3136  1.3224
  997SOL     OW 2989   2.173   0.543   2.086  0.2017 -0.1611 -0.7794
  997SOL    HW1 2990   2.141   0.614   2.149 -0.6718  1.1949 -0.2296
  997SOL    HW2 2991   2.158   0.568   1.986 -1.3186  1.8096 -0.5733
  998SOL     OW 2992   2.615   0.843   0.692 -0.5216  0.5884  0.1125
  998SOL    HW1 2993   2.661   0.755   0.680 -2.6398 -1.5792  0.9207
  998SOL    HW2 2994   2.649   0.890   0.774  1.0408 -2.0230 -0.0327
  999SOL     OW 2995   2.650   1.665   0.434  0.2231 -0.1633 -0.1962
  999SOL    HW1 2996   2.594   1.588   0.394 -1.5817  1.2752 -0.4616
  999SOL    HW2 2997   2.729   1.696   0.378  1.0589  2.0948 -0.5013
 1000SOL     OW 2998   0.607   0.617   2.069  0.0095 -0.1005  0.1923
 1000SOL    HW1 2999   0.709   0.625   2.072  2.0352 -0.0325  0.9199
 1000SOL    HW2 3000   0.568   0.595   2.162 -0.5399 -0.8990 -0.7006
   3.12752   3.12752   3.12752
