1000 SPC/Fw water molecules t= 210.00000 step= 210000
 3000
    1SOL     OW    1   2.852   2.969   0.910 -0.1868  0.0020 -0.3092
    1SOL    HW1    2   2.875   2.876   0.879 -0.1986  0.6344 -2.3214
    1SOL    HW2    3   2.914   3.033   0.859 -1.1457  0.5168  2.0623
    2SOL     OW    4   1.760   1.624   2.059 -0.1568 -0.2557 -0.9669
    2SOL    HW1    5   1.857   1.648   2.031  2.2074 -0.4991  1.1487
    2SOL    HW2    6   1.755   1.621   2.161  1.1101  0.1169 -0.3632
    3SOL     OW    7   1.942   2.545   2.233  0.1846  0.2846  0.1924
    3SOL    HW1    8   1.871   2.574   2.163  2.7104  1.8059 -0.2834
    3SOL    HW2    9   1.937   2.444   2.253  2.5489 -0.8205 -1.2480
    4SOL     OW   10   2.010   1.681   2.389  0.1474 -0.3395 -0.2741
    4SOL    HW1   11   2.007   1.678   2.287  1.6246 -0.5542  1.5196
    4SOL    HW2   12   2.008   1.588   2.435  0.1343  0.9309 -1.0696
    5SOL     OW   13   1.315   0.581   1.775  0.2705  0.2028 -0.1929
    5SOL    HW1   14   1.347   0.497   1.727 -1.0739 -0.0348  1.0906
    5SOL    HW2   15   1.219   0.599   1.751  2.2341 -0.7700  1.1568
    6SOL     OW   16   2.750   0.649   2.850  0.5767 -0.4112 -0.6620
    6SOL    HW1   17   2.826   0.585   2.844 -3.5206  4.4937 -0.7569
    6SOL    HW2   18   2.663   0.611   2.890 -1.1333  0.9208 -0.0095
    7SOL     OW   19   0.744   1.303   1.276  0.7468 -0.5659 -0.5887
    7SOL    HW1   20   0.723   1.401   1.253  0.5650  2.0215 -0.4162
    7SOL    HW2   21   0.809   1.268   1.206  1.3330 -0.3824 -2.0121
    8SOL     OW   22   1.190   0.621   0.910 -0.0796 -0.2087  0.3508
    8SOL    HW1   23   1.110   0.605   0.848 -4.1659 -0.9219 -0.5163
    8SOL    HW2   24   1.231   0.538   0.944  0.2707  1.4763 -3.1578
    9SOL     OW   25   0.981   0.646   2.377  0.3383  0.0278 -0.2163
    9SOL    HW1   26   1.049   0.655   2.306 -1.7281  1.1526 -0.3793
    9SOL    HW2   27   0.979   0.553   2.417  2.5767  0.0314  1.8186
   10SOL     OW   28   0.394   2.611   0.267  0.7475 -0.1945 -0.3236
   10SOL    HW1   29   0.497   2.603   0.276 -0.3975  1.9276  1.0415
   10SOL    HW2   30   0.366   2.633   0.173  0.9735 -1.1801  1.3045
   11SOL     OW   31   0.740   1.314   3.002  0.2310 -0.4561 -0.2368
   11SOL    HW1   32   0.655   1.267   2.969 -0.8148  0.3160 -1.1931
   11SOL    HW2   33   0.722   1.356   0.036  1.6932  1.7530 -0.9147
   12SOL     OW   34   0.459   0.305   1.466 -0.4579  0.8649 -0.0247
   12SOL    HW1   35   0.391   0.235   1.441  0.6956 -0.1872  1.5758
   12SOL    HW2   36   0.514   0.271   1.543  0.6029  1.4685 -1.8385
   13SOL     OW   37   0.970   0.182   0.301  0.0905 -0.2949  0.5656
   13SOL    HW1   38   1.027   0.162   0.220 -0.0804 -3.4387  2.6773
   13SOL    HW2   39   0.984   0.111   0.375 -0.9639 -1.0970  1.6671
   14SOL     OW   40   1.199   2.341   1.335  0.3555 -0.1490 -0.1151
   14SOL    HW1   41   1.094   2.346   1.319 -0.1560 -0.1803  1.6846
   14SOL    HW2   42   1.222   2.298   1.429 -0.1840 -0.1952  0.5935
   15SOL     OW   43   2.672   1.048   1.829 -0.1990  0.3310  0.1601
   15SOL    HW1   44   2.698   0.968   1.767 -2.2070 -0.6996 -0.1080
   15SOL    HW2   45   2.750   1.110   1.842  0.4102 -0.4761 -2.3791
   16SOL     OW   46   1.313   3.020   0.131  0.1723  0.2523  0.4590
   16SOL    HW1   47   1.282   0.049   0.088  3.6195 -0.0483  1.5817
   16SOL    HW2   48   1.412   3.013   0.122 -1.2429 -0.5781  1.5780
   17SOL     OW   49   0.735   0.221   1.346  0.5269 -0.5340  0.1985
   17SOL    HW1   50   0.709   0.152   1.275 -0.5804 -1.1568 -0.7284
   17SOL    HW2   51   0.660   0.288   1.363 -0.5919 -0.3796  1.4323
   18SOL     OW   52   1.127   0.794   3.043 -0.1375  0.4946 -0.5163
   18SOL    HW1   53   1.173   0.706   0.024  0.7262 -0.0493  0.7229
   18SOL    HW2   54   1.045   0.818   0.044 -1.9142  1.2499 -0.0574
   19SOL     OW   55   2.072   1.605   3.020  0.0367 -0.1448  0.4088
   19SOL    HW1   56   2.048   1.705   3.010 -0.6261  2.2345  0.2754
   19SOL    HW2   57   1.998   1.541   3.038  2.9455  1.6364  0.3884
   20SOL     OW   58   1.973   1.659   1.618  0.2237 -0.0082 -0.0250
   20SOL    HW1   59   1.946   1.738   1.673 -0.2617 -0.8411 -2.2445
   20SOL    HW2   60   1.889   1.602   1.602 -0.1547 -0.0684 -1.6029
   21SOL     OW   61   0.944   1.098   3.027  0.1914  0.1820 -0.0356
   21SOL    HW1   62   0.983   1.059   2.939  0.4232 -0.3229 -2.5896
   21SOL    HW2   63   0.890   1.188   3.010  1.7600  1.0118 -1.1210
   22SOL     OW   64   2.199   3.050   1.212  0.2294  0.2338 -0.1290
   22SOL    HW1   65   2.114   0.011   1.159 -0.8693 -0.6299 -2.0208
   22SOL    HW2   66   2.253   2.983   1.161  3.0096  0.1471  1.1403
   23SOL     OW   67   0.010   0.781   1.762  0.2416  0.2447 -0.1759
   23SOL    HW1   68   0.108   0.794   1.784 -0.6513 -0.6918  0.9872
   23SOL    HW2   69   0.001   0.758   1.661  0.8497 -2.7125 -1.9165
   24SOL     OW   70   2.160   2.494   1.193  0.5313  0.1287  0.0969
   24SOL    HW1   71   2.073   2.446   1.173 -2.0218  0.5831  0.6257
   24SOL    HW2   72   2.179   2.566   1.123 -0.4388  2.7895 -0.7124
   25SOL     OW   73   1.806   2.762   2.801 -0.0704 -0.3652 -0.2811
   25SOL    HW1   74   1.720   2.742   2.750 -0.4621 -0.5958  2.2550
   25SOL    HW2   75   1.880   2.795   2.739  1.7110 -1.3855  0.5238
   26SOL     OW   76   1.399   2.717   0.357 -0.3338  0.4343  0.1725
   26SOL    HW1   77   1.470   2.646   0.386  1.5059  1.7984  1.7472
   26SOL    HW2   78   1.311   2.673   0.333 -1.0911  1.4567  1.4047
   27SOL     OW   79   0.555   1.752   2.461 -0.1628  0.1673  0.0111
   27SOL    HW1   80   0.475   1.752   2.519 -0.5364 -0.2475 -1.6085
   27SOL    HW2   81   0.567   1.669   2.399  1.1142 -2.0624  0.5400
   28SOL     OW   82   0.010   1.214   1.586  0.0884 -0.0197 -0.7780
   28SOL    HW1   83   3.032   1.266   1.501 -1.2369  0.0320 -1.9878
   28SOL    HW2   84   0.110   1.243   1.606  2.0132  1.5444  0.2476
   29SOL     OW   85   2.594   2.229   2.211 -0.2820  0.1215 -0.9308
   29SOL    HW1   86   2.669   2.282   2.255 -1.7536  0.3710 -0.8776
   29SOL    HW2   87   2.626   2.191   2.126 -1.5556  0.5966  0.6690
   30SOL     OW   88   1.378   0.255   0.093 -0.0229 -0.2122 -0.3308
   30SOL    HW1   89   1.445   0.227   0.021  0.0700 -2.8469 -0.9666
   30SOL    HW2   90   1.421   0.263   0.185  0.4957 -0.9124 -0.4467
   31SOL     OW   91   2.566   2.492   1.730 -0.2552 -0.1134 -0.4496
   31SOL    HW1   92   2.512   2.548   1.796 -0.5113  0.3968  0.0168
   31SOL    HW2   93   2.653   2.456   1.771  0.0871 -2.4131  2.7759
   32SOL     OW   94   1.385   1.365   1.307 -0.0784 -0.2250 -0.3313
   32SOL    HW1   95   1.291   1.324   1.301 -0.6628 -0.4829  2.6275
   32SOL    HW2   96   1.380   1.458   1.353 -0.2554 -0.0412  0.4316
   33SOL     OW   97   3.022   2.572   2.625  0.1653  0.4502  0.3124
   33SOL    HW1   98   3.048   2.584   2.530  1.2062 -1.4096 -1.0786
   33SOL    HW2   99   2.925   2.601   2.646 -0.3061 -0.3510  3.6733
   34SOL     OW  100   1.908   0.233   0.804 -0.8438 -0.3043 -0.7015
   34SOL    HW1  101   1.941   0.303   0.743  1.2226 -2.1027  0.7749
   34SOL    HW2  102   1.918   0.137   0.769  0.2137  0.6764 -1.6604
   35SOL     OW  103   2.266   0.137   0.754  0.9297  0.6726 -0.2214
   35SOL    HW1  104   2.191   0.068   0.753  0.4981 -0.3286 -1.4873
   35SOL    HW2  105   2.349   0.099   0.711  0.3882  0.6746  0.3487
   36SOL     OW  106   1.987   2.813   2.619 -0.6354  0.3231 -0.0111
   36SOL    HW1  107   2.061   2.742   2.612 -0.9870 -0.7817 -0.2598
   36SOL    HW2  108   1.941   2.822   2.530  1.7202 -2.8236  1.2278
   37SOL     OW  109   1.103   2.536   2.485 -0.4281  0.6332  0.0281
   37SOL    HW1  110   1.050   2.553   2.570 -1.0103 -0.5516  1.1500
   37SOL    HW2  111   1.202   2.565   2.503  1.0078 -0.7831  0.4318
   38SOL     OW  112   2.810   0.251   2.805  0.3213 -0.0607 -0.0383
   38SOL    HW1  113   2.741   0.247   2.877  0.9571 -1.2835 -1.4993
   38SOL    HW2  114   2.874   0.167   2.797  0.5338  1.1210 -0.5231
   39SOL     OW  115   2.105   1.459   1.743  0.5277  0.0321  0.2037
   39SOL    HW1  116   2.194   1.445   1.695 -1.7547  1.5793  0.0605
   39SOL    HW2  117   2.064   1.543   1.702  1.8639 -0.3194  0.1944
   40SOL     OW  118   0.187   2.960   2.642 -0.6063  0.0741  0.1350
   40SOL    HW1  119   0.268   3.007   2.679  1.0078 -1.4583  2.0756
   40SOL    HW2  120   0.173   2.875   2.692  1.0647  2.7136  0.3594
   41SOL     OW  121   1.691   0.520   0.709  0.0512 -0.1331 -0.1773
   41SOL    HW1  122   1.630   0.589   0.746  1.1004 -0.9766 -1.0628
   41SOL    HW2  123   1.791   0.550   0.722  1.9948  1.0135  1.7255
   42SOL     OW  124   0.532   0.728   1.365 -0.2730  0.2032  0.2738
   42SOL    HW1  125   0.441   0.681   1.368  0.4299 -2.2506  1.4491
   42SOL    HW2  126   0.563   0.736   1.463  0.8798 -0.6283  2.0037
   43SOL     OW  127   2.691   1.469   2.401  0.1622  0.3559  0.2754
   43SOL    HW1  128   2.660   1.443   2.307 -1.9058  0.1090 -3.8661
   43SOL    HW2  129   2.665   1.388   2.461 -0.4469  1.2248  2.1847
   44SOL     OW  130   2.714   2.881   0.646 -0.7701  0.1294  0.1301
   44SOL    HW1  131   2.775   2.947   0.594 -1.0720 -0.8525 -1.4508
   44SOL    HW2  132   2.773   2.821   0.700  0.8983  0.4751  1.3414
   45SOL     OW  133   0.019   2.402   1.974  0.0821 -0.3011 -0.1976
   45SOL    HW1  134   3.001   2.470   1.960 -0.9207 -0.3268  1.4438
   45SOL    HW2  135   0.006   2.318   1.918 -0.1538  0.2003  1.6723
   46SOL     OW  136   2.289   2.441   2.397 -0.0344  0.7370 -0.5834
   46SOL    HW1  137   2.346   2.383   2.456 -0.4502  3.4844  1.9462
   46SOL    HW2  138   2.272   2.398   2.308  0.2180 -1.0652  1.9593
   47SOL     OW  139   1.931   2.045   1.634  0.0861  0.6146  0.2169
   47SOL    HW1  140   1.932   1.965   1.695  0.9879 -1.1114 -2.0754
   47SOL    HW2  141   1.852   2.026   1.571 -0.5814  1.5603  0.7947
   48SOL     OW  142   0.657   1.696   0.368  0.0877 -0.1710 -0.0973
   48SOL    HW1  143   0.592   1.681   0.295  1.0135 -0.1038  2.8593
   48SOL    HW2  144   0.753   1.701   0.333  2.0126 -0.8602 -1.1807
   49SOL     OW  145   2.520   0.383   2.510 -0.2522  0.1360  0.1832
   49SOL    HW1  146   2.481   0.356   2.599 -0.4536  1.1614 -0.9528
   49SOL    HW2  147   2.506   0.482   2.491  0.5750 -0.1151 -1.8036
   50SOL     OW  148   2.353   1.020   0.197 -0.0943  0.2925 -0.5824
   50SOL    HW1  149   2.273   0.977   0.243 -0.3648 -0.3021 -0.5286
   50SOL    HW2  150   2.398   0.946   0.143 -2.0017 -0.8678  1.0005
   51SOL     OW  151   1.915   0.621   1.049  0.0198  0.8200  0.1613
   51SOL    HW1  152   1.851   0.560   1.100  0.4105 -0.3586  2.2813
   51SOL    HW2  153   2.006   0.609   1.088 -1.2966  0.3081 -1.2292
   52SOL     OW  154   1.221   1.237   2.940  0.4082 -1.2900  0.0279
   52SOL    HW1  155   1.194   1.237   3.040  0.0773 -0.4894  1.6001
   52SOL    HW2  156   1.322   1.231   2.926  0.0110 -0.0152  0.4101
   53SOL     OW  157   0.952   1.433   1.961 -0.0750  0.2565 -0.1668
   53SOL    HW1  158   0.901   1.522   1.966 -0.4803 -1.7166  0.1030
   53SOL    HW2  159   0.948   1.400   1.863  1.1202 -1.1266 -1.0735
   54SOL     OW  160   2.130   0.295   1.104  0.4805  0.0210 -0.0592
   54SOL    HW1  161   2.060   0.220   1.082 -1.3807 -4.2548  1.9314
   54SOL    HW2  162   2.175   0.343   1.028  2.7120  1.5927  1.6425
   55SOL     OW  163   2.518   2.565   0.932 -0.3732 -0.1361  0.3869
   55SOL    HW1  164   2.416   2.553   0.932  0.9514  2.6637 -0.3072
   55SOL    HW2  165   2.536   2.654   0.979  2.0399 -0.5818 -2.7087
   56SOL     OW  166   0.764   2.721   1.561 -0.1067 -0.4670 -0.6278
   56SOL    HW1  167   0.741   2.698   1.461  1.1612 -2.0169 -0.0435
   56SOL    HW2  168   0.869   2.722   1.575  2.3262 -0.3134 -0.9599
   57SOL     OW  169   1.497   1.299   0.307 -0.2566 -0.2039  0.2736
   57SOL    HW1  170   1.433   1.287   0.386 -0.5366  0.2323  1.4385
   57SOL    HW2  171   1.574   1.359   0.327 -3.6065 -1.8894  0.9107
   58SOL     OW  172   3.009   0.439   2.403  0.5030  0.5174  0.0168
   58SOL    HW1  173   3.008   0.533   2.363  0.2937  0.4702  0.7583
   58SOL    HW2  174   2.919   0.415   2.449 -1.0283  1.1675  2.0820
   59SOL     OW  175   0.982   2.764   2.711  0.5750  0.3209  0.5429
   59SOL    HW1  176   1.049   2.812   2.775 -0.3299  1.3126  0.5995
   59SOL    HW2  177   0.978   2.668   2.739 -0.1013 -0.7633  0.4568
   60SOL     OW  178   2.250   2.706   0.698  0.6318  0.0713 -0.2370
   60SOL    HW1  179   2.234   2.623   0.640 -0.4970 -2.5479 -1.9491
   60SOL    HW2  180   2.208   2.784   0.647 -2.7080 -0.2027 -1.1330
   61SOL     OW  181   1.186   2.258   0.712 -0.3303  0.0347 -0.6009
   61SOL    HW1  182   1.174   2.290   0.617  1.2525 -0.9421  0.0407
   61SOL    HW2  183   1.215   2.336   0.768 -2.3848 -1.5255 -2.2317
   62SOL     OW  184   2.403   2.046   2.691  0.0276  0.0318  0.7205
   62SOL    HW1  185   2.304   2.023   2.696 -0.6860 -1.6380  0.3340
   62SOL    HW2  186   2.469   1.972   2.723  0.7026 -1.4814  1.5061
   63SOL     OW  187   2.373   0.617   2.763  0.5188 -0.0499  0.1953
   63SOL    HW1  188   2.359   0.523   2.731  1.8626  0.2697  3.2638
   63SOL    HW2  189   2.388   0.613   2.860 -2.6981  1.8616 -4.4901
   64SOL     OW  190   1.138   0.713   2.607 -0.2227 -0.0199  0.2124
   64SOL    HW1  191   1.113   0.712   2.704  0.7153  0.5359 -1.2090
   64SOL    HW2  192   1.051   0.687   2.556 -1.1921 -0.0602 -0.5148
   65SOL     OW  193   1.007   1.921   0.464  0.3898  0.4782 -0.2203
   65SOL    HW1  194   0.945   1.958   0.390 -1.9689 -0.1707 -2.7990
   65SOL    HW2  195   1.105   1.919   0.437 -0.2815 -0.4946  0.5389
   66SOL     OW  196   0.251   1.082   1.943 -0.3710 -0.1052 -0.3719
   66SOL    HW1  197   0.279   1.172   1.984 -2.3130 -1.1208  2.0765
   66SOL    HW2  198   0.331   1.026   1.914  2.7664 -1.3498  1.1755
   67SOL     OW  199   2.330   2.969   2.397 -0.3288  0.0438  0.4094
   67SOL    HW1  200   2.400   3.043   2.416  1.6396  1.6627  1.4724
   67SOL    HW2  201   2.372   2.879   2.364 -2.2975  1.2647  0.7259
   68SOL     OW  202   0.633   2.054   1.121 -0.5795  0.2926  0.3836
   68SOL    HW1  203   0.656   1.985   1.048  0.1878 -1.1254  0.4582
   68SOL    HW2  204   0.540   2.036   1.158 -1.3919  0.9861 -1.0240
   69SOL     OW  205   1.058   2.591   0.526 -0.0029  0.3460 -0.1914
   69SOL    HW1  206   1.004   2.664   0.486 -0.9722  0.0338 -3.4434
   69SOL    HW2  207   1.130   2.617   0.598  2.5312 -0.8459 -1.0010
   70SOL     OW  208   2.928   1.038   2.786 -0.1702  0.0807 -0.4713
   70SOL    HW1  209   2.882   1.129   2.810  0.0020 -1.0240 -0.0218
   70SOL    HW2  210   2.914   1.018   2.688  0.3407  0.3865  0.5984
   71SOL     OW  211   0.017   1.321   2.659  0.3573 -0.2739 -0.0974
   71SOL    HW1  212   0.108   1.362   2.669  0.5398 -2.3278 -0.8091
   71SOL    HW2  213   0.001   1.302   2.561  0.5211 -0.5446 -1.2950
   72SOL     OW  214   2.899   2.238   0.444  0.2666  0.0792 -0.2317
   72SOL    HW1  215   2.894   2.155   0.380 -0.6525 -1.7283 -0.7228
   72SOL    HW2  216   2.972   2.222   0.515 -0.9363 -2.6473  0.0257
   73SOL     OW  217   0.819   1.349   0.288  0.0236 -0.0143 -0.2576
   73SOL    HW1  218   0.896   1.285   0.294 -1.8129  0.0843  0.7352
   73SOL    HW2  219   0.848   1.440   0.316 -1.8324 -0.8329 -0.2291
   74SOL     OW  220   2.923   0.435   0.085 -0.2988 -0.7727 -0.3344
   74SOL    HW1  221   2.877   0.343   0.103 -2.2974 -1.0614  0.0365
   74SOL    HW2  222   2.930   0.444   3.040 -0.2647 -0.4739  2.8147
   75SOL     OW  223   2.012   1.439   1.984 -0.6759 -0.2894  0.2281
   75SOL    HW1  224   2.030   1.461   1.884  1.3839  0.2325 -1.9122
   75SOL    HW2  225   2.026   1.523   2.036 -1.4142 -2.4012 -2.1026
   76SOL     OW  226   1.962   2.695   1.546  0.0960  0.5263 -0.1590
   76SOL    HW1  227   2.023   2.643   1.491 -2.1436 -0.0520 -1.3618
   76SOL    HW2  228   1.923   2.637   1.622 -4.0594 -0.1738  0.9700
   77SOL     OW  229   2.731   0.338   1.182  0.3478  0.6566  0.3084
   77SOL    HW1  230   2.824   0.310   1.164 -1.6996 -0.6913  2.5811
   77SOL    HW2  231   2.679   0.253   1.190 -0.0219 -1.0272 -1.5728
   78SOL     OW  232   1.421   0.959   2.976  0.6213  0.2070  0.7626
   78SOL    HW1  233   1.451   0.861   2.980 -1.2216  1.6324 -0.1560
   78SOL    HW2  234   1.368   0.979   2.889  0.4390 -0.5566 -0.0058
   79SOL     OW  235   0.530   1.942   1.759  0.2220 -0.1722 -0.4285
   79SOL    HW1  236   0.588   2.026   1.764  0.9657 -2.3189 -1.7745
   79SOL    HW2  237   0.590   1.862   1.773 -0.0089 -0.9222  1.2078
   80SOL     OW  238   1.651   0.963   0.939  0.2197 -0.3650  0.2118
   80SOL    HW1  239   1.592   0.990   1.019 -0.1106 -2.4733  1.1125
   80SOL    HW2  240   1.726   1.025   0.916 -2.3133  3.4817 -0.2088
   81SOL     OW  241   0.348   0.197   1.080  0.0586 -0.2456  0.0868
   81SOL    HW1  242   0.265   0.171   1.023 -1.3386  0.6249 -2.2960
   81SOL    HW2  243   0.432   0.165   1.031  0.2890 -0.0476  1.3259
   82SOL     OW  244   1.586   2.745   1.718  0.4433  0.3028  0.0380
   82SOL    HW1  245   1.490   2.727   1.691  0.7096 -0.1056  1.5821
   82SOL    HW2  246   1.590   2.797   1.805  1.4131  1.8190  0.6350
   83SOL     OW  247   0.494   2.815   1.287 -0.1793 -0.1478 -0.4926
   83SOL    HW1  248   0.427   2.767   1.229  0.2050  0.3878 -1.6000
   83SOL    HW2  249   0.572   2.756   1.322 -0.1068  1.4261 -0.8194
   84SOL     OW  250   0.288   1.257   2.804 -0.1961  0.1271 -0.1051
   84SOL    HW1  251   0.292   1.352   2.759 -1.0317  0.1566 -3.4614
   84SOL    HW2  252   0.301   1.181   2.733 -0.8091 -0.6470 -0.2788
   85SOL     OW  253   2.967   2.229   1.543 -0.4931  0.0479  0.4325
   85SOL    HW1  254   3.001   2.311   1.490 -0.8906  1.1991  2.4187
   85SOL    HW2  255   2.865   2.219   1.546 -0.0521 -0.6164 -3.6465
   86SOL     OW  256   2.589   2.561   1.434  0.8066 -0.3941 -0.5343
   86SOL    HW1  257   2.588   2.538   1.534 -2.5491  1.7909  1.4210
   86SOL    HW2  258   2.588   2.478   1.374 -0.3511  0.2266 -0.9253
   87SOL     OW  259   2.668   2.394   2.748  0.0260  0.2869  0.1333
   87SOL    HW1  260   2.717   2.467   2.805 -0.5867  0.8180  0.0617
   87SOL    HW2  261   2.726   2.334   2.698 -1.8931 -0.5644  1.2762
   88SOL     OW  262   0.416   1.871   1.284 -0.3765  0.4526  0.1676
   88SOL    HW1  263   0.487   1.866   1.359  2.5096  1.2673  1.3373
   88SOL    HW2  264   0.438   1.806   1.212  1.1487  0.8437  0.7990
   89SOL     OW  265   0.853   0.078   1.846 -0.5138  0.6902  0.2306
   89SOL    HW1  266   0.863   0.086   1.747 -0.2362  0.3101  1.4926
   89SOL    HW2  267   0.866   3.035   1.867 -0.7799  2.5467  1.1044
   90SOL     OW  268   0.267   1.909   1.757 -0.6141 -0.7345 -0.2256
   90SOL    HW1  269   0.240   1.978   1.829  2.9095  0.1265 -1.8896
   90SOL    HW2  270   0.369   1.915   1.754 -1.3329  1.0857  0.1082
   91SOL     OW  271   1.049   1.660   0.598  0.1558 -0.0915 -0.3898
   91SOL    HW1  272   1.083   1.593   0.526 -1.9916 -1.9931 -0.6529
   91SOL    HW2  273   1.021   1.752   0.564  1.1284  0.8257  1.5970
   92SOL     OW  274   2.519   0.159   1.228  0.2134 -0.6282 -0.3029
   92SOL    HW1  275   2.450   0.146   1.300 -0.7870  2.1748  0.2631
   92SOL    HW2  276   2.469   0.177   1.142  0.3963  1.3394  0.3447
   93SOL     OW  277   2.505   1.401   2.937 -0.4323  0.3120 -0.2518
   93SOL    HW1  278   2.549   1.333   3.003  1.2337 -2.3998  2.9095
   93SOL    HW2  279   2.434   1.356   2.875 -2.3622  0.4946 -0.8285
   94SOL     OW  280   2.498   2.509   2.571  0.2615 -0.1339 -0.1281
   94SOL    HW1  281   2.546   2.474   2.651 -2.5977  2.0961 -1.1802
   94SOL    HW2  282   2.561   2.519   2.490 -0.0432 -0.5003  2.5292
   95SOL     OW  283   1.779   0.471   1.246 -0.2927  0.0700  0.3552
   95SOL    HW1  284   1.705   0.447   1.317  0.7998 -0.4970  0.4132
   95SOL    HW2  285   1.756   0.418   1.161 -1.4594 -0.0124 -0.5473
   96SOL     OW  286   2.872   2.624   1.577  0.2559 -0.2886 -0.4427
   96SOL    HW1  287   2.906   2.565   1.502  1.5298  1.3972 -0.2675
   96SOL    HW2  288   2.836   2.713   1.546  1.4443 -0.6639 -0.7823
   97SOL     OW  289   2.334   0.123   1.405  0.1458 -0.3548  0.0304
   97SOL    HW1  290   2.281   0.046   1.361  0.2875  0.2352  1.9669
   97SOL    HW2  291   2.281   0.212   1.388 -0.2532 -0.2442 -1.5902
   98SOL     OW  292   1.551   2.270   1.603  0.2282 -0.0462 -0.1297
   98SOL    HW1  293   1.632   2.258   1.545 -1.7156  1.3833  2.0810
   98SOL    HW2  294   1.552   2.212   1.692 -0.7367  1.1042  2.2588
   99SOL     OW  295   0.012   2.773   1.722 -0.4790 -0.1180 -0.0097
   99SOL    HW1  296   0.081   2.806   1.655  1.1323  0.0800  0.2166
   99SOL    HW2  297   3.004   2.716   1.679  1.6018  2.3912  2.9786
  100SOL     OW  298   0.078   0.929   2.439  0.0413  0.2261 -0.1179
  100SOL    HW1  299   0.069   0.892   2.343 -0.4403 -0.8438  0.0025
  100SOL    HW2  300   0.138   1.006   2.436 -1.8610 -2.0953 -0.1473
  101SOL     OW  301   1.877   0.624   3.029 -0.0882 -0.6720  0.1955
  101SOL    HW1  302   1.871   0.535   0.020 -1.6298  1.4162 -4.5720
  101SOL    HW2  303   1.828   0.697   0.027 -2.3327  0.0080  2.6002
  102SOL     OW  304   0.221   0.456   1.159  0.5424  1.1667  0.0047
  102SOL    HW1  305   0.293   0.404   1.104  0.2559 -0.8553 -2.6468
  102SOL    HW2  306   0.231   0.549   1.133  0.1540 -4.8266 -3.4171
  103SOL     OW  307   2.570   0.619   2.009  0.1912 -0.4003  0.2540
  103SOL    HW1  308   2.607   0.691   2.071  0.9104 -0.9222 -2.1443
  103SOL    HW2  309   2.632   0.591   1.938 -2.0430  2.0877 -2.8759
  104SOL     OW  310   0.326   0.237   2.488  0.7965  0.3744  0.0143
  104SOL    HW1  311   0.323   0.211   2.391 -0.3529 -0.6377 -1.1395
  104SOL    HW2  312   0.423   0.257   2.517 -2.4321  1.5028  0.1729
  105SOL     OW  313   2.013   1.225   1.493  0.3299 -0.3244  0.1615
  105SOL    HW1  314   1.938   1.157   1.474 -2.4458  0.1874  0.5750
  105SOL    HW2  315   1.976   1.322   1.499 -0.5444  2.7753  1.7001
  106SOL     OW  316   1.073   3.010   0.555 -0.0145 -0.0865  0.2139
  106SOL    HW1  317   1.071   0.026   0.630  1.7900  3.4859  0.8731
  106SOL    HW2  318   0.989   2.952   0.558  0.4831 -0.1064 -0.7561
  107SOL     OW  319   0.430   1.552   1.445  0.1375 -0.3524  0.2689
  107SOL    HW1  320   0.378   1.608   1.514  2.4277 -0.6316 -2.0283
  107SOL    HW2  321   0.522   1.590   1.433  0.5476 -0.4889  0.8743
  108SOL     OW  322   0.084   2.882   2.183 -0.2838  0.1054 -0.5033
  108SOL    HW1  323   0.160   2.851   2.244  1.6362  2.4441  0.8724
  108SOL    HW2  324   0.054   2.975   2.215  2.5781 -1.7274 -1.1699
  109SOL     OW  325   1.846   0.401   0.109 -0.1216  0.0133 -0.2969
  109SOL    HW1  326   1.760   0.429   0.158 -0.1138 -0.2650 -2.5877
  109SOL    HW2  327   1.833   0.306   0.075  4.0185 -0.0304  1.5435
  110SOL     OW  328   0.308   2.393   2.487  0.2132  0.5506 -0.8559
  110SOL    HW1  329   0.338   2.365   2.391 -0.1394 -2.4994 -2.4279
  110SOL    HW2  330   0.368   2.460   2.541  0.4313  0.0495  0.6952
  111SOL     OW  331   1.323   2.507   2.230 -0.3366 -0.0392 -0.3413
  111SOL    HW1  332   1.372   2.551   2.303 -0.1876  3.5890 -2.0576
  111SOL    HW2  333   1.283   2.581   2.172  0.2335 -0.0474  0.1992
  112SOL     OW  334   1.979   2.112   2.513 -0.1346  0.6222  0.1245
  112SOL    HW1  335   2.035   2.059   2.582  2.7416 -0.1837 -0.1352
  112SOL    HW2  336   1.905   2.048   2.486 -1.7189 -0.0537 -2.4293
  113SOL     OW  337   2.212   2.705   1.707 -0.0211 -0.0454  0.0874
  113SOL    HW1  338   2.268   2.644   1.652  0.7769  1.5607 -0.0829
  113SOL    HW2  339   2.126   2.721   1.661  3.1317  0.6049  2.7823
  114SOL     OW  340   2.958   0.889   0.864 -0.2361 -0.1855 -0.1654
  114SOL    HW1  341   3.039   0.947   0.841 -1.4003  0.3365  1.6963
  114SOL    HW2  342   2.871   0.910   0.813 -1.0981  1.1501  0.7921
  115SOL     OW  343   0.388   1.574   2.902  0.6702 -0.2182 -0.7318
  115SOL    HW1  344   0.459   1.646   2.897  0.4994 -0.1369  2.5318
  115SOL    HW2  345   0.405   1.517   2.982  2.9201  1.0782 -0.0088
  116SOL     OW  346   0.334   1.325   2.033  0.1649 -0.2597 -0.2918
  116SOL    HW1  347   0.336   1.371   1.943 -2.1715  0.9945 -1.8246
  116SOL    HW2  348   0.267   1.377   2.093 -1.3641 -2.3656 -0.8251
  117SOL     OW  349   2.498   0.048   0.662  0.0690 -0.4839  0.0782
  117SOL    HW1  350   2.566   0.102   0.717 -1.2420 -0.0187 -1.1324
  117SOL    HW2  351   2.497   0.078   0.563 -0.0881  0.5581 -0.8325
  118SOL     OW  352   1.237   1.821   1.733  0.2750 -0.1929 -0.1915
  118SOL    HW1  353   1.247   1.724   1.713 -0.5756 -0.2370 -0.8750
  118SOL    HW2  354   1.188   1.830   1.823  0.8019  0.0811  4.0292
  119SOL     OW  355   1.013   2.211   0.284  0.6914  0.8461  0.2670
  119SOL    HW1  356   0.971   2.225   0.379 -0.0868 -0.4381  1.0774
  119SOL    HW2  357   1.106   2.169   0.281  1.7197 -0.2868  2.7929
  120SOL     OW  358   0.225   1.157   2.410 -0.8604  0.0890 -0.0979
  120SOL    HW1  359   0.238   1.251   2.381 -0.5933  0.0761 -0.7934
  120SOL    HW2  360   0.294   1.130   2.483 -0.9257 -0.7481  1.6479
  121SOL     OW  361   2.050   2.808   1.100  0.4343  0.4403  0.7228
  121SOL    HW1  362   2.057   2.866   1.012  0.6676  1.8863 -0.7006
  121SOL    HW2  363   2.135   2.818   1.155 -2.2334 -0.2144 -0.5410
  122SOL     OW  364   2.230   2.056   1.975  0.7804 -0.5461  0.2529
  122SOL    HW1  365   2.253   2.060   2.072 -1.5208  0.1734 -0.5396
  122SOL    HW2  366   2.201   2.149   1.941 -0.1738 -0.2126  2.4308
  123SOL     OW  367   2.931   3.023   0.513  0.7754  0.8314  0.3826
  123SOL    HW1  368   2.937   0.042   0.450  1.8357 -2.7866  0.8534
  123SOL    HW2  369   3.008   2.959   0.508 -0.4435  5.0590  0.4244
  124SOL     OW  370   1.853   0.744   2.294 -0.0349  0.3117 -0.2217
  124SOL    HW1  371   1.782   0.779   2.233 -0.1713 -1.3571  0.0364
  124SOL    HW2  372   1.940   0.715   2.248  0.5686  1.5504 -1.8929
  125SOL     OW  373   0.383   1.355   0.488  0.2686  0.1938  0.2191
  125SOL    HW1  374   0.446   1.317   0.418 -1.3961 -2.9696 -0.1267
  125SOL    HW2  375   0.428   1.413   0.555 -1.2546  1.2968 -2.2611
  126SOL     OW  376   2.425   1.581   0.584 -0.0687 -0.1111 -0.0411
  126SOL    HW1  377   2.396   1.501   0.533  1.0394  5.8107  2.1626
  126SOL    HW2  378   2.403   1.566   0.685  0.9066 -1.0034 -1.2064
  127SOL     OW  379   0.105   1.978   1.531  0.4025  0.0868 -0.2701
  127SOL    HW1  380   0.156   1.965   1.619  0.0645 -0.8323  1.2072
  127SOL    HW2  381   0.049   2.063   1.525 -1.8766 -1.4749 -0.3451
  128SOL     OW  382   0.719   0.747   2.422 -0.1000  0.2229  0.4073
  128SOL    HW1  383   0.653   0.752   2.346 -0.2193 -0.9627 -0.5284
  128SOL    HW2  384   0.801   0.694   2.392  1.3924  0.5972 -0.4982
  129SOL     OW  385   2.268   1.130   1.237  0.3894  0.2702  0.1023
  129SOL    HW1  386   2.247   1.043   1.299 -1.0180 -0.1942  1.6586
  129SOL    HW2  387   2.275   1.207   1.297 -1.1080 -2.2875  0.4640
  130SOL     OW  388   2.371   1.412   1.623  0.1414  0.1587  0.2211
  130SOL    HW1  389   2.433   1.347   1.671 -3.2767  0.2400  2.2499
  130SOL    HW2  390   2.425   1.479   1.565  2.7889 -0.5719 -1.4827
  131SOL     OW  391   2.686   0.903   2.856  0.5429  0.3446  0.2905
  131SOL    HW1  392   2.779   0.940   2.883  0.7547  0.8812  1.5267
  131SOL    HW2  393   2.687   0.800   2.857  1.7084 -1.8109 -0.9263
  132SOL     OW  394   2.580   2.126   1.901  0.2077  0.6693 -0.0286
  132SOL    HW1  395   2.485   2.142   1.880  0.9482 -2.1529  0.5702
  132SOL    HW2  396   2.614   2.039   1.859  0.6965 -0.2685  1.2611
  133SOL     OW  397   0.527   1.151   0.744  0.2533 -0.1177 -0.4098
  133SOL    HW1  398   0.452   1.217   0.728 -1.2021 -1.5856 -2.8122
  133SOL    HW2  399   0.542   1.149   0.844  0.9411  1.8925  0.2459
  134SOL     OW  400   0.194   1.238   0.005 -0.2727  0.7729  0.3998
  134SOL    HW1  401   0.105   1.293   0.007  0.1320 -3.9537 -2.9954
  134SOL    HW2  402   0.226   1.237   2.967 -0.2930  2.4277  1.5459
  135SOL     OW  403   2.116   1.531   1.338 -0.1814  0.0879 -0.4003
  135SOL    HW1  404   2.178   1.455   1.357  0.6027  1.0671 -2.4024
  135SOL    HW2  405   2.044   1.513   1.273  1.4532  1.5434  1.0603
  136SOL     OW  406   2.358   1.078   0.703  0.3722  0.1160 -0.1637
  136SOL    HW1  407   2.402   1.096   0.615 -3.8761 -0.9243 -1.1928
  136SOL    HW2  408   2.264   1.044   0.681  0.6574  0.0513  0.3424
  137SOL     OW  409   2.604   1.757   0.988 -0.0470 -0.3672  0.1644
  137SOL    HW1  410   2.592   1.838   1.045  0.8717  0.0489 -0.2378
  137SOL    HW2  411   2.678   1.696   1.026  0.6524 -0.2191 -2.2281
  138SOL     OW  412   1.622   0.477   1.500 -0.2625 -0.6149 -0.5954
  138SOL    HW1  413   1.662   0.390   1.533 -1.4956 -1.5326  1.5889
  138SOL    HW2  414   1.530   0.482   1.533  3.9612 -0.6993 -0.6079
  139SOL     OW  415   2.229   2.930   2.719 -0.3654  0.1269 -0.4616
  139SOL    HW1  416   2.282   2.978   2.645 -0.3598  0.0269 -0.1308
  139SOL    HW2  417   2.138   2.905   2.685 -1.3716 -0.1056 -0.7980
  140SOL     OW  418   1.531   1.786   2.044 -0.5275 -0.2155  0.1746
  140SOL    HW1  419   1.435   1.781   2.022  2.5637  0.6876  2.0430
  140SOL    HW2  420   1.588   1.712   2.004  3.9152 -0.0755 -0.8884
  141SOL     OW  421   1.901   1.796   1.101  0.5083 -0.2125  0.0335
  141SOL    HW1  422   1.958   1.874   1.131  0.4701  0.9745  1.8019
  141SOL    HW2  423   1.831   1.779   1.172 -0.2232  2.2751 -1.3109
  142SOL     OW  424   3.020   0.709   0.109  0.1039 -0.1123 -0.0570
  142SOL    HW1  425   2.981   0.617   0.101  0.4710 -0.2525 -3.7639
  142SOL    HW2  426   3.032   0.744   0.199 -0.7463 -2.0009 -3.2526
  143SOL     OW  427   0.462   2.208   2.925  0.1175  0.2505  0.0331
  143SOL    HW1  428   0.444   2.121   2.976 -1.9097  1.8528  1.6435
  143SOL    HW2  429   0.551   2.209   2.876  0.2699 -1.0179  0.8975
  144SOL     OW  430   0.954   2.860   1.824 -0.2414  0.1725  0.0395
  144SOL    HW1  431   1.001   2.837   1.739  2.1288  0.5437  1.9995
  144SOL    HW2  432   0.900   2.785   1.864 -2.1215  0.5700  1.7516
  145SOL     OW  433   2.068   1.338   0.323  0.3521 -0.0968  0.2874
  145SOL    HW1  434   2.025   1.429   0.306  0.2383 -2.3105 -0.7659
  145SOL    HW2  435   2.171   1.348   0.315  2.7142  1.4161  2.1802
  146SOL     OW  436   2.395   0.061   2.837 -0.6262 -0.4736  0.0522
  146SOL    HW1  437   2.331   3.046   2.822  0.5326  3.9935  1.2343
  146SOL    HW2  438   2.488   0.025   2.816 -0.1249  0.3051 -2.5636
  147SOL     OW  439   2.880   2.530   1.011  0.0111 -0.5560  0.9265
  147SOL    HW1  440   2.811   2.501   0.940 -2.7123  1.3653  0.1674
  147SOL    HW2  441   2.836   2.590   1.080  0.6005  0.0271 -1.9609
  148SOL     OW  442   1.551   2.780   2.721 -0.1943  0.0221  0.0955
  148SOL    HW1  443   1.527   2.705   2.780  0.6820 -0.6845  0.7104
  148SOL    HW2  444   1.482   2.856   2.727 -1.1654  2.8922  1.0654
  149SOL     OW  445   1.077   0.344   2.396 -0.1390  0.1469  0.2160
  149SOL    HW1  446   1.163   0.347   2.451 -0.6270  1.3328  0.9854
  149SOL    HW2  447   0.999   0.326   2.459  2.1944  0.1597  1.4375
  150SOL     OW  448   0.842   2.849   0.567 -0.6203  0.6716 -0.2442
  150SOL    HW1  449   0.818   2.807   0.479 -1.4250 -0.5758  0.8249
  150SOL    HW2  450   0.766   2.858   0.634  0.6054  3.2837 -0.0648
  151SOL     OW  451   2.925   1.803   0.091 -0.0591  0.1845  0.4828
  151SOL    HW1  452   2.852   1.756   0.041  2.5485  0.2885  1.0847
  151SOL    HW2  453   3.005   1.833   0.032  1.8346 -0.0985  2.3866
  152SOL     OW  454   0.136   1.023   0.800 -0.3215  0.0576 -0.2797
  152SOL    HW1  455   0.130   1.102   0.734  1.9491  0.1390  1.1056
  152SOL    HW2  456   0.187   0.948   0.752  0.5758 -0.1764  0.6491
  153SOL     OW  457   2.133   2.853   0.483  0.3914  0.4495  0.3839
  153SOL    HW1  458   2.155   2.939   0.432 -0.6845 -0.9878 -1.1543
  153SOL    HW2  459   2.088   2.792   0.415 -1.6231 -1.2489 -0.4567
  154SOL     OW  460   0.882   0.454   1.506  0.3421 -0.4321  0.4590
  154SOL    HW1  461   0.913   0.546   1.536 -0.0775 -0.7773 -0.4853
  154SOL    HW2  462   0.810   0.416   1.569 -1.9674  1.6144  2.5701
  155SOL     OW  463   2.970   1.856   1.067  0.1204  0.0404 -0.5389
  155SOL    HW1  464   2.919   1.772   1.098 -2.8914  0.9833  0.6706
  155SOL    HW2  465   2.916   1.894   0.987 -1.7614 -0.0718  2.1859
  156SOL     OW  466   2.157   2.138   0.233 -0.0751 -0.1815  0.3429
  156SOL    HW1  467   2.242   2.109   0.282 -2.4108 -0.9585  0.5991
  156SOL    HW2  468   2.176   2.133   0.134  0.8466  0.4550  1.9882
  157SOL     OW  469   0.808   2.784   1.005 -0.1861  0.1560  0.1967
  157SOL    HW1  470   0.725   2.774   0.945  0.3146 -0.4589 -3.2743
  157SOL    HW2  471   0.880   2.717   0.981 -0.1045  2.7693 -1.0002
  158SOL     OW  472   2.477   0.615   2.394  0.6933  0.3612 -0.1056
  158SOL    HW1  473   2.397   0.659   2.437 -1.1468  2.2453  0.3557
  158SOL    HW2  474   2.496   0.656   2.303  4.1879  0.2102 -0.8924
  159SOL     OW  475   0.605   0.430   0.013  0.1542  1.0086  0.5480
  159SOL    HW1  476   0.639   0.490   0.084  0.2305 -0.6670 -0.8025
  159SOL    HW2  477   0.515   0.459   3.032 -0.8941  1.1140  1.1372
  160SOL     OW  478   0.743   2.039   0.070 -0.1183 -0.1941  0.5222
  160SOL    HW1  479   0.790   2.115   0.023 -0.2100 -1.6282 -2.4213
  160SOL    HW2  480   0.807   1.969   0.098 -2.7771  1.4323 -0.4018
  161SOL     OW  481   0.006   1.983   2.805  0.4072 -0.4069 -0.6117
  161SOL    HW1  482   0.028   1.988   2.706  1.4552  1.1849 -2.3432
  161SOL    HW2  483   0.007   2.067   2.862  1.7507 -0.9420 -1.6160
  162SOL     OW  484   0.348   2.690   1.090  0.2135 -0.1243  0.2787
  162SOL    HW1  485   0.249   2.655   1.105 -1.2790 -1.3649  0.3118
  162SOL    HW2  486   0.352   2.773   1.030  0.5679 -2.7480  1.6376
  163SOL     OW  487   2.167   0.438   2.907  0.5521  0.2019  0.2155
  163SOL    HW1  488   2.113   0.524   2.923  0.4522  2.4680 -0.5142
  163SOL    HW2  489   2.112   0.352   2.933 -3.1934 -3.1246  2.7721
  164SOL     OW  490   2.839   1.943   0.834  0.4049 -0.4291 -0.2023
  164SOL    HW1  491   2.881   1.920   0.743  0.9712  0.4306 -0.7685
  164SOL    HW2  492   2.824   2.044   0.838  2.0830 -0.1586  2.0176
  165SOL     OW  493   2.860   2.913   1.476 -0.2986  0.2741  0.4767
  165SOL    HW1  494   2.886   2.989   1.538 -1.3577 -1.0772 -2.2480
  165SOL    HW2  495   2.775   2.944   1.432 -0.5920 -0.2656 -0.5658
  166SOL     OW  496   2.144   0.346   0.599 -0.1048  0.5430  0.4238
  166SOL    HW1  497   2.135   0.444   0.621  0.8868  0.4130 -5.1016
  166SOL    HW2  498   2.192   0.294   0.674  1.9509  0.8577 -0.7551
  167SOL     OW  499   0.461   0.456   0.880 -0.1065  0.3418  0.4174
  167SOL    HW1  500   0.534   0.416   0.945  2.0929  0.2771 -0.0391
  167SOL    HW2  501   0.463   0.404   0.790 -0.9895 -1.8954 -1.6418
  168SOL     OW  502   2.102   2.858   1.897  0.4542 -0.3148 -0.1545
  168SOL    HW1  503   2.087   2.832   1.993 -0.0326  0.3276 -0.4346
  168SOL    HW2  504   2.164   2.791   1.852 -0.7006  0.1726  2.2542
  169SOL     OW  505   0.105   1.274   0.693 -0.1740 -0.5631 -0.7953
  169SOL    HW1  506   0.187   1.311   0.742 -3.2051 -1.3224  2.7066
  169SOL    HW2  507   0.104   1.294   0.590 -0.3269  0.1114 -1.3755
  170SOL     OW  508   2.672   0.828   1.182  0.4480 -0.7584 -1.4204
  170SOL    HW1  509   2.693   0.734   1.146  0.2857  1.1690  0.9936
  170SOL    HW2  510   2.583   0.843   1.237 -2.6996  1.7318  3.6222
  171SOL     OW  511   1.140   2.488   1.665  0.1779  0.5866 -0.3749
  171SOL    HW1  512   1.169   2.397   1.631 -2.0614  0.2871 -1.2954
  171SOL    HW2  513   1.101   2.494   1.759  1.3202  3.3260 -1.9566
  172SOL     OW  514   0.257   2.427   1.343  0.3417  0.0703  0.3556
  172SOL    HW1  515   0.342   2.418   1.395 -2.8111  0.9907 -1.5222
  172SOL    HW2  516   0.216   2.517   1.360  1.4053 -2.4912 -1.2930
  173SOL     OW  517   1.577   0.260   2.946 -0.0297 -0.3154  0.7163
  173SOL    HW1  518   1.588   0.224   2.854  1.4254 -0.4058  1.5636
  173SOL    HW2  519   1.555   0.358   2.951  0.1837 -1.3116 -2.8597
  174SOL     OW  520   1.192   2.591   3.011 -0.2458  0.2988  0.1978
  174SOL    HW1  521   1.209   2.500   3.056  2.6455 -2.1267  0.8063
  174SOL    HW2  522   1.105   2.584   2.955  0.4134 -0.3194  0.5917
  175SOL     OW  523   1.577   2.709   0.067 -0.1742  0.2284 -0.5214
  175SOL    HW1  524   1.644   2.758   0.011  1.3886 -1.9219  3.3368
  175SOL    HW2  525   1.526   2.766   0.131  0.5537 -1.9106 -1.4292
  176SOL     OW  526   1.613   0.138   2.700 -0.2108 -0.1116  0.1037
  176SOL    HW1  527   1.701   0.108   2.666  0.1449  0.8594  0.8842
  176SOL    HW2  528   1.541   0.068   2.685 -0.7685  1.0778  3.5150
  177SOL     OW  529   0.886   1.471   0.739 -0.0140  0.2258  0.4107
  177SOL    HW1  530   0.951   1.464   0.819  2.5099  0.5615  0.2559
  177SOL    HW2  531   0.917   1.548   0.682 -1.0341  0.8937  1.1423
  178SOL     OW  532   2.867   1.665   2.143 -0.3380 -0.1586 -0.2368
  178SOL    HW1  533   2.789   1.618   2.094  1.1016  0.1126 -0.4223
  178SOL    HW2  534   2.914   1.599   2.211  1.5133 -1.3889 -1.8484
  179SOL     OW  535   0.433   2.589   2.666  0.3380  0.0834 -0.4186
  179SOL    HW1  536   0.349   2.650   2.667  0.2144 -0.1141 -1.9060
  179SOL    HW2  537   0.496   2.610   2.587  0.3062  0.0304 -1.1419
  180SOL     OW  538   1.866   1.842   1.787 -0.0742  0.0176  0.2760
  180SOL    HW1  539   1.921   1.865   1.874  0.7308 -0.1327  0.3039
  180SOL    HW2  540   1.766   1.855   1.802 -0.4141  0.4340  0.8799
  181SOL     OW  541   1.161   1.108   2.224  0.5662  0.0642  0.1032
  181SOL    HW1  542   1.150   1.089   2.322  0.2974 -1.9440 -2.0953
  181SOL    HW2  543   1.132   1.201   2.206  0.0076 -0.3706  0.3862
  182SOL     OW  544   0.102   0.310   2.604  0.3765 -0.7404 -0.2671
  182SOL    HW1  545   0.030   0.326   2.532  2.2429 -0.4581  0.2652
  182SOL    HW2  546   0.194   0.306   2.564  1.2200  0.8700 -1.8804
  183SOL     OW  547   1.168   0.348   2.809 -0.2129  0.1419 -0.4511
  183SOL    HW1  548   1.220   0.302   2.734 -1.6795 -1.7795 -0.4829
  183SOL    HW2  549   1.236   0.385   2.873 -0.5484  0.1031  0.6104
  184SOL     OW  550   1.119   1.258   1.289 -0.3335 -0.2435 -0.4150
  184SOL    HW1  551   1.088   1.174   1.333 -0.3001  1.6836 -1.1946
  184SOL    HW2  552   1.056   1.290   1.216 -1.1539 -0.0124  2.0372
  185SOL     OW  553   2.834   1.179   1.294  0.2472  0.1554 -0.0350
  185SOL    HW1  554   2.894   1.263   1.289 -0.0961 -1.1216  1.4380
  185SOL    HW2  555   2.850   1.137   1.386 -1.3655  0.5143  2.6060
  186SOL     OW  556   0.792   1.614   2.603 -0.7558 -0.2820  0.4702
  186SOL    HW1  557   0.850   1.559   2.539  0.7719  0.7220 -1.2088
  186SOL    HW2  558   0.722   1.669   2.556 -1.5153  0.8732 -3.4146
  187SOL     OW  559   2.705   1.512   0.157 -0.0444 -0.9102  0.1483
  187SOL    HW1  560   2.653   1.430   0.135  1.8187  3.2270  0.0054
  187SOL    HW2  561   2.731   1.508   0.253  1.2014  0.8652 -1.6406
  188SOL     OW  562   0.056   2.139   0.579 -0.6662  0.6501 -0.5371
  188SOL    HW1  563   0.146   2.121   0.627 -1.6353 -2.3840  1.8086
  188SOL    HW2  564   3.051   2.065   0.605 -1.2891  2.1988 -2.4470
  189SOL     OW  565   2.538   0.895   0.053 -0.4674 -0.4069  0.0328
  189SOL    HW1  566   2.593   0.919   3.026  0.4300  2.8503 -1.1181
  189SOL    HW2  567   2.596   0.862   0.128 -2.9639  0.4834 -1.5270
  190SOL     OW  568   1.101   1.363   2.186 -0.5948 -0.4895 -0.0145
  190SOL    HW1  569   1.201   1.392   2.180  4.8191 -0.8989  0.3398
  190SOL    HW2  570   1.049   1.368   2.095 -0.0526  1.2189 -1.5187
  191SOL     OW  571   2.251   0.269   1.775 -0.5284 -0.7890  0.1749
  191SOL    HW1  572   2.337   0.265   1.728 -0.9996  1.2606  2.5480
  191SOL    HW2  573   2.198   0.184   1.767  0.9759  1.4160  0.0998
  192SOL     OW  574   1.950   0.237   1.536 -0.0035 -0.4203  0.4674
  192SOL    HW1  575   1.871   0.175   1.547 -3.0658  1.4161 -2.7629
  192SOL    HW2  576   1.960   0.306   1.613  1.1320  2.0830  3.3070
  193SOL     OW  577   0.730   0.472   0.610 -0.3596  0.2377 -0.4343
  193SOL    HW1  578   0.725   0.485   0.710 -2.1232  0.9225 -0.5324
  193SOL    HW2  579   0.772   0.557   0.570 -0.2275  0.8877 -2.5729
  194SOL     OW  580   1.092   3.023   1.256 -0.5597 -0.5664  0.1815
  194SOL    HW1  581   1.192   3.029   1.263 -0.0475 -1.6005  1.4017
  194SOL    HW2  582   1.056   0.059   1.252 -1.0868  1.9970 -0.6141
  195SOL     OW  583   2.534   0.842   0.366 -0.1908  0.0325  0.2672
  195SOL    HW1  584   2.616   0.848   0.305 -0.6852  1.8177  2.9462
  195SOL    HW2  585   2.548   0.831   0.467  1.7298  0.0799 -0.3139
  196SOL     OW  586   1.487   1.643   1.741 -0.4906 -0.2861 -0.1145
  196SOL    HW1  587   1.552   1.570   1.771 -3.6354  0.0107  0.3575
  196SOL    HW2  588   1.407   1.648   1.806  1.6493  1.5082  2.5755
  197SOL     OW  589   0.085   2.872   0.409  0.4453 -0.3757  0.2426
  197SOL    HW1  590   0.105   2.776   0.385  1.0290  2.4662 -1.6092
  197SOL    HW2  591   0.152   2.920   0.470 -1.5470  0.6921 -0.2363
  198SOL     OW  592   0.943   1.222   0.618  0.0727 -0.5640 -0.5718
  198SOL    HW1  593   0.911   1.301   0.676 -2.4287 -0.7379 -2.3034
  198SOL    HW2  594   0.867   1.173   0.576  0.8053  0.5785 -1.8012
  199SOL     OW  595   2.969   0.528   1.852 -0.0796 -0.4157 -0.0924
  199SOL    HW1  596   2.958   0.507   1.956 -0.5248 -1.8853  5.2973
  199SOL    HW2  597   3.004   0.625   1.840  1.8692  2.5018 -0.8455
  200SOL     OW  598   2.143   1.947   2.684  0.7902 -0.4007 -0.0007
  200SOL    HW1  599   2.179   1.904   2.601  0.2300 -0.2942  2.6791
  200SOL    HW2  600   2.093   1.881   2.740  2.0645  0.7347 -1.7288
  201SOL     OW  601   2.382   2.899   0.814 -0.1243 -0.0377 -0.3037
  201SOL    HW1  602   2.459   2.945   0.764  0.4325 -0.8444  1.1791
  201SOL    HW2  603   2.337   2.823   0.763 -2.2960  0.5784  1.9533
  202SOL     OW  604   2.722   0.512   0.276 -0.7665  0.3225  0.1013
  202SOL    HW1  605   2.632   0.552   0.245 -0.9524  2.2174 -0.6111
  202SOL    HW2  606   2.780   0.470   0.202 -1.4175 -1.8254  0.3320
  203SOL     OW  607   1.382   1.413   2.180  0.0156 -0.0073  0.0774
  203SOL    HW1  608   1.448   1.373   2.107  3.2185 -2.0430 -4.2689
  203SOL    HW2  609   1.401   1.350   2.258  0.6434 -0.5401 -0.4557
  204SOL     OW  610   0.795   1.651   2.008  0.5987  0.0611 -0.6596
  204SOL    HW1  611   0.832   1.709   2.082 -1.4780 -0.8250 -0.8845
  204SOL    HW2  612   0.722   1.595   2.047  1.6948  0.1354  0.8288
  205SOL     OW  613   1.389   1.902   1.475 -0.0107 -0.0184  0.0746
  205SOL    HW1  614   1.362   1.849   1.556 -0.6464  1.5482 -0.1639
  205SOL    HW2  615   1.490   1.903   1.460 -0.6151  0.0033 -0.1607
  206SOL     OW  616   0.145   0.527   2.762  0.1698  0.2019  0.0423
  206SOL    HW1  617   0.147   0.453   2.696  0.4612 -0.6154 -3.6002
  206SOL    HW2  618   0.090   0.606   2.727 -1.0484  0.2230 -0.7421
  207SOL     OW  619   1.821   2.767   2.378  0.1274  0.4142 -0.0596
  207SOL    HW1  620   1.856   2.684   2.325  1.5410 -1.9534  0.6810
  207SOL    HW2  621   1.839   2.851   2.330 -0.8327 -2.8932  0.3904
  208SOL     OW  622   0.303   2.241   1.709  0.5753  0.1988  0.2893
  208SOL    HW1  623   0.337   2.192   1.629 -1.2662  0.4020  0.2213
  208SOL    HW2  624   0.338   2.335   1.716 -2.6332 -0.6569 -1.4209
  209SOL     OW  625   1.710   0.830   2.764 -0.1267 -0.0707  0.1041
  209SOL    HW1  626   1.640   0.843   2.688  1.3775 -0.5016 -0.2958
  209SOL    HW2  627   1.765   0.747   2.736  1.9397 -0.4656  0.6335
  210SOL     OW  628   2.615   0.801   0.643 -0.2641 -0.2345  0.4579
  210SOL    HW1  629   2.677   0.881   0.668 -0.2628  0.5786 -1.2821
  210SOL    HW2  630   2.584   0.749   0.727 -1.7573  0.7596  0.4617
  211SOL     OW  631   0.789   0.611   0.880  0.1005 -0.7911  0.3973
  211SOL    HW1  632   0.819   0.709   0.891  1.6432  1.2250 -1.8024
  211SOL    HW2  633   0.728   0.583   0.957 -2.5616  1.0501  0.2360
  212SOL     OW  634   1.132   1.502   0.360 -0.0645  0.4830 -0.5663
  212SOL    HW1  635   1.101   1.405   0.340 -0.7922  0.5200  1.4424
  212SOL    HW2  636   1.205   1.534   0.289  0.3853  1.1830 -1.9376
  213SOL     OW  637   1.297   2.918   1.727 -0.0236 -0.2456 -0.8392
  213SOL    HW1  638   1.241   2.987   1.678  2.1143  3.0143  0.5824
  213SOL    HW2  639   1.360   2.968   1.794  3.5739  2.2267  2.6522
  214SOL     OW  640   1.400   1.262   2.404  0.0015  0.1721  0.4745
  214SOL    HW1  641   1.312   1.207   2.404 -0.7396 -1.9347  1.8288
  214SOL    HW2  642   1.393   1.342   2.464 -0.0236 -0.2678  0.9543
  215SOL     OW  643   0.403   1.671   1.047  0.5764 -0.4943 -0.4601
  215SOL    HW1  644   0.412   1.585   1.096  0.2111  0.9892 -0.5626
  215SOL    HW2  645   0.326   1.666   0.974 -3.0514 -2.0561  1.4982
  216SOL     OW  646   0.485   2.920   2.371 -0.1323  0.6446  0.1594
  216SOL    HW1  647   0.513   2.954   2.276 -1.5790 -1.9298 -1.4815
  216SOL    HW2  648   0.527   2.980   2.445 -1.6788  3.4195  0.8508
  217SOL     OW  649   2.328   0.713   3.052  0.2771 -0.2557 -0.1610
  217SOL    HW1  650   2.348   0.647   0.076 -1.4257 -0.5368 -0.1265
  217SOL    HW2  651   2.390   0.794   3.054 -1.6198  1.2108  1.6748
  218SOL     OW  652   2.027   1.664   2.122  0.4290 -0.6935 -0.6230
  218SOL    HW1  653   2.109   1.633   2.178 -0.6560 -0.4090  0.2000
  218SOL    HW2  654   2.049   1.755   2.083  1.4392  0.5466  1.9268
  219SOL     OW  655   1.585   1.053   0.247  0.4881 -0.4789 -0.0557
  219SOL    HW1  656   1.536   1.142   0.270  0.7696  2.3072  0.5609
  219SOL    HW2  657   1.652   1.068   0.168  2.1461  0.6412 -0.7222
  220SOL     OW  658   1.458   1.690   1.076 -0.0706 -0.2381 -0.7626
  220SOL    HW1  659   1.467   1.787   1.065 -0.4915 -3.0297  3.5527
  220SOL    HW2  660   1.481   1.643   0.987  2.9076 -0.4037 -0.7602
  221SOL     OW  661   0.361   0.519   2.928  0.3669  0.0993 -0.2208
  221SOL    HW1  662   0.275   0.523   2.869 -0.1183  0.6472  1.2565
  221SOL    HW2  663   0.377   0.613   2.967  0.8054  0.8065  2.5903
  222SOL     OW  664   1.275   2.270   1.576 -0.3400  0.6669  0.0058
  222SOL    HW1  665   1.262   2.166   1.566  2.1220 -1.7873 -1.1965
  222SOL    HW2  666   1.374   2.283   1.575 -0.3645  0.8244 -2.4078
  223SOL     OW  667   1.438   2.614   2.896  0.0760 -0.1019 -0.3095
  223SOL    HW1  668   1.512   2.565   2.946 -3.7411 -0.6082  0.2801
  223SOL    HW2  669   1.359   2.638   2.961 -1.2064  1.4342  4.0648
  224SOL     OW  670   2.596   1.289   1.118  0.1792  0.1265  0.3115
  224SOL    HW1  671   2.631   1.192   1.134  0.3779 -1.7033 -0.3370
  224SOL    HW2  672   2.576   1.306   1.023  1.7046 -0.3120  0.0305
  225SOL     OW  673   1.390   1.180   1.106 -0.0534  0.0663 -0.2991
  225SOL    HW1  674   1.409   1.260   1.168  1.2312 -2.7517 -1.1528
  225SOL    HW2  675   1.462   1.112   1.118 -0.1516  2.1667 -0.2128
  226SOL     OW  676   1.451   2.282   2.958  0.3789  0.4516 -0.7150
  226SOL    HW1  677   1.482   2.191   2.995 -1.9511 -0.1780 -0.1297
  226SOL    HW2  678   1.447   2.277   2.856 -0.1081 -0.7840 -0.0118
  227SOL     OW  679   0.892   2.058   1.166 -0.2468  0.6658  0.3694
  227SOL    HW1  680   0.790   2.051   1.160  0.4914 -0.8640  0.3868
  227SOL    HW2  681   0.924   2.151   1.168  1.2668 -0.8245  0.2787
  228SOL     OW  682   0.352   2.093   1.077 -0.2905 -0.1657 -0.0146
  228SOL    HW1  683   0.340   2.080   1.178  0.6106 -0.3361 -0.6610
  228SOL    HW2  684   0.277   2.038   1.029 -1.2370 -0.6731  1.0418
  229SOL     OW  685   2.080   0.791   2.988 -0.2146 -0.4814 -0.2485
  229SOL    HW1  686   2.181   0.779   3.009  3.6153  0.8582 -1.0500
  229SOL    HW2  687   2.024   0.739   3.051 -1.7008  1.0005  0.4941
  230SOL     OW  688   1.020   0.879   1.841 -0.4532  0.8585 -0.0471
  230SOL    HW1  689   0.933   0.938   1.849 -5.4878  0.1551 -0.2659
  230SOL    HW2  690   1.090   0.893   1.913  0.3253 -0.6920 -1.2016
  231SOL     OW  691   1.324   1.616   1.989 -0.6729 -0.4013 -0.3921
  231SOL    HW1  692   1.273   1.578   1.910 -1.0678 -0.2575  3.1240
  231SOL    HW2  693   1.328   1.554   2.069 -3.0282 -3.0044 -1.5548
  232SOL     OW  694   2.092   2.233   1.454 -0.3657 -0.0481  0.0364
  232SOL    HW1  695   2.135   2.193   1.536 -3.3470  0.1696  0.1811
  232SOL    HW2  696   2.037   2.314   1.478  0.2385  1.9108 -2.4379
  233SOL     OW  697   1.828   2.328   2.586  0.1504  0.2105 -0.0984
  233SOL    HW1  698   1.872   2.236   2.563  2.6932  1.9793  1.2813
  233SOL    HW2  699   1.837   2.341   2.687 -0.5455 -0.2465  1.0972
  234SOL     OW  700   1.170   2.821   2.894 -0.1407  0.0075 -0.0069
  234SOL    HW1  701   1.183   2.735   2.957 -0.3976 -2.0953  1.3167
  234SOL    HW2  702   1.126   2.899   2.951 -1.5070  1.7083  1.9398
  235SOL     OW  703   2.322   2.849   0.007 -0.5393  0.4343  0.5440
  235SOL    HW1  704   2.377   2.798   2.995 -0.5384  3.5874 -1.3875
  235SOL    HW2  705   2.360   2.844   0.104  0.6727  0.2480 -2.9768
  236SOL     OW  706   2.221   2.611   2.626 -0.0503  0.4373  0.4856
  236SOL    HW1  707   2.232   2.562   2.535  0.2316 -2.1273 -1.2639
  236SOL    HW2  708   2.307   2.629   2.676 -0.7237 -0.4913 -0.1401
  237SOL     OW  709   1.510   1.251   1.497 -0.1131  0.3097 -0.0809
  237SOL    HW1  710   1.498   1.148   1.491  0.4773 -1.7528 -0.0246
  237SOL    HW2  711   1.500   1.299   1.406  2.3816  3.5858  0.9517
  238SOL     OW  712   2.014   0.163   2.164  0.0743 -0.4291 -0.1514
  238SOL    HW1  713   2.112   0.169   2.168 -2.0980 -0.1051  3.5116
  238SOL    HW2  714   1.983   0.068   2.185 -0.2226  2.1136  0.3349
  239SOL     OW  715   0.518   1.584   2.062 -0.3036 -0.0230 -0.4093
  239SOL    HW1  716   0.474   1.532   1.987  0.8721  0.9222  1.4806
  239SOL    HW2  717   0.472   1.680   2.078 -1.7121  0.0285  0.3327
  240SOL     OW  718   2.913   2.739   0.784  0.0708  0.1848  0.5084
  240SOL    HW1  719   3.002   2.726   0.733 -0.1955  1.0389  0.7968
  240SOL    HW2  720   2.902   2.671   0.859 -1.5304 -2.0153 -0.0259
  241SOL     OW  721   1.682   2.009   0.997 -0.7129 -0.4665  0.4140
  241SOL    HW1  722   1.730   1.924   1.023  2.1534  0.2701 -0.7195
  241SOL    HW2  723   1.744   2.071   0.945  0.8422  2.2523  2.0341
  242SOL     OW  724   1.290   1.704   2.995  0.4036  0.1928 -0.0494
  242SOL    HW1  725   1.352   1.659   2.928  0.5740  0.6712  0.1824
  242SOL    HW2  726   1.336   1.783   3.037 -2.1110  1.5758 -0.1825
  243SOL     OW  727   0.897   2.624   2.303  0.0245  0.2889  0.0380
  243SOL    HW1  728   0.825   2.558   2.271 -0.3026  2.1061 -1.2314
  243SOL    HW2  729   0.962   2.586   2.374 -3.3817  0.8395  1.7798
  244SOL     OW  730   1.821   0.068   2.540  0.0226 -0.4699  0.4387
  244SOL    HW1  731   1.902   0.041   2.598 -0.4246 -0.7330  3.0797
  244SOL    HW2  732   1.850   0.153   2.487  0.1444  0.2514 -2.9687
  245SOL     OW  733   1.335   2.886   0.673 -0.0872 -0.3489  0.0923
  245SOL    HW1  734   1.408   2.898   0.603 -0.5044 -1.9808 -1.4947
  245SOL    HW2  735   1.251   2.935   0.638  0.5657  0.0314 -0.5191
  246SOL     OW  736   1.037   3.044   2.972  0.0138  0.0219  0.7067
  246SOL    HW1  737   0.937   3.026   2.998 -1.0845  1.8513 -0.1311
  246SOL    HW2  738   1.082   0.058   3.028 -0.8995  0.4332 -0.0237
  247SOL     OW  739   0.281   0.763   2.126 -0.0863  0.1164 -0.4954
  247SOL    HW1  740   0.281   0.764   2.024 -0.7441 -0.8964  2.5810
  247SOL    HW2  741   0.317   0.671   2.155 -0.2824 -4.5174  1.6431
  248SOL     OW  742   0.817   1.043   1.902  0.0521  0.3388  0.1311
  248SOL    HW1  743   0.846   1.013   1.994 -0.7617  1.9851 -1.1910
  248SOL    HW2  744   0.755   1.126   1.918  1.6070 -2.7922  0.7691
  249SOL     OW  745   2.091   0.473   0.194  0.6259  0.0708 -0.4253
  249SOL    HW1  746   2.164   0.434   0.131  0.8429 -1.4538 -1.2131
  249SOL    HW2  747   2.003   0.424   0.186  1.7663 -2.3073  2.0513
  250SOL     OW  748   0.616   0.066   0.544 -0.7355 -0.2020 -0.0432
  250SOL    HW1  749   0.616   3.043   0.606 -0.6906 -1.1699  1.5569
  250SOL    HW2  750   0.554   0.048   0.463  0.0146 -0.4444  2.3836
  251SOL     OW  751   1.364   2.998   2.718 -0.3452 -0.6660  0.3270
  251SOL    HW1  752   1.292   2.950   2.771  2.0818  0.5210  1.1763
  251SOL    HW2  753   1.334   3.013   2.622  2.1660 -1.6226  3.4477
  252SOL     OW  754   1.840   1.304   2.256  0.4537 -0.3727  0.2251
  252SOL    HW1  755   1.854   1.231   2.326 -0.2667  2.1370 -1.0153
  252SOL    HW2  756   1.800   1.261   2.172  0.9491  1.0634  1.8961
  253SOL     OW  757   2.293   2.335   2.157 -0.4004 -0.5252 -0.2952
  253SOL    HW1  758   2.372   2.277   2.173  2.8437 -2.3749  0.0937
  253SOL    HW2  759   2.271   2.341   2.060  0.8602  0.0624  0.2996
  254SOL     OW  760   1.128   2.045   1.601  0.4693  0.0399 -0.0242
  254SOL    HW1  761   1.027   2.043   1.572 -3.6422 -0.7044  0.8891
  254SOL    HW2  762   1.155   1.951   1.631  1.2164 -1.1073  2.2637
  255SOL     OW  763   1.045   1.011   0.745  0.6051  0.2884 -0.3240
  255SOL    HW1  764   1.085   1.043   0.834 -1.6202 -0.5580 -1.3396
  255SOL    HW2  765   1.022   1.094   0.690  0.3002  1.1715  1.3902
  256SOL     OW  766   1.682   1.920   2.219  0.1507 -0.7602  0.2496
  256SOL    HW1  767   1.750   1.980   2.173  0.8445 -0.5543 -0.2076
  256SOL    HW2  768   1.629   1.873   2.145 -1.2938 -3.4181 -1.7114
  257SOL     OW  769   0.540   2.524   2.909  0.4852 -0.3799 -0.1848
  257SOL    HW1  770   0.526   2.566   2.814 -0.3073  1.6343 -0.1377
  257SOL    HW2  771   0.502   2.430   2.914  0.3222 -0.5531  0.3325
  258SOL     OW  772   0.743   0.172   2.081  0.0006 -0.4182 -0.4196
  258SOL    HW1  773   0.831   0.162   2.133  1.2301  0.0537  2.6085
  258SOL    HW2  774   0.758   0.156   1.981 -2.5077  2.3035  2.4634
  259SOL     OW  775   0.999   0.114   2.174 -0.6982 -0.2884 -0.6221
  259SOL    HW1  776   1.028   0.032   2.126  2.2683 -1.0133  0.0107
  259SOL    HW2  777   1.047   0.195   2.134  1.0058  0.0936  0.4495
  260SOL     OW  778   1.566   0.724   0.839 -0.1918  0.6318  0.2512
  260SOL    HW1  779   1.614   0.801   0.893  1.0393 -0.1339  1.0131
  260SOL    HW2  780   1.476   0.755   0.801 -0.6837 -0.9089 -1.4696
  261SOL     OW  781   0.526   0.165   2.711  0.5281  0.0621 -0.1427
  261SOL    HW1  782   0.442   0.159   2.765  2.9225  0.1088 -2.4773
  261SOL    HW2  783   0.597   0.237   2.744  0.7341  0.1639  2.2429
  262SOL     OW  784   2.580   2.758   2.123 -0.7818 -0.7424 -0.4288
  262SOL    HW1  785   2.662   2.728   2.071 -1.0539  1.8670  0.2710
  262SOL    HW2  786   2.579   2.859   2.132 -1.5258 -2.1215 -0.1205
  263SOL     OW  787   0.319   1.980   2.289 -0.4553  0.4590  0.0629
  263SOL    HW1  788   0.231   1.928   2.270 -1.6580 -1.0112  2.1428
  263SOL    HW2  789   0.317   2.030   2.379 -1.4859 -0.9827  2.0602
  264SOL     OW  790   0.902   1.204   1.070  1.0159  0.6259  0.1788
  264SOL    HW1  791   0.948   1.283   1.023  1.7867  1.0734 -0.3805
  264SOL    HW2  792   0.965   1.126   1.065 -0.2740  3.0389  1.4693
  265SOL     OW  793   0.482   1.978   0.033 -0.4330  0.0919  0.2692
  265SOL    HW1  794   0.422   2.004   0.110  1.5658 -0.7529 -1.9617
  265SOL    HW2  795   0.580   1.997   0.061  0.0736  0.9948 -2.8898
  266SOL     OW  796   1.097   0.950   0.371 -0.2197 -0.0339 -0.3361
  266SOL    HW1  797   1.173   0.949   0.309 -3.7632  0.3373  1.2468
  266SOL    HW2  798   1.110   0.874   0.440 -0.1438 -3.0305 -0.8386
  267SOL     OW  799   2.843   1.176   0.129  0.0518 -0.7313  0.2261
  267SOL    HW1  800   2.912   1.210   0.200 -0.5653  1.8936  1.0742
  267SOL    HW2  801   2.883   1.097   0.077  0.5676 -2.8129 -1.2759
  268SOL     OW  802   2.359   0.310   2.758  0.3351 -0.0159 -0.3647
  268SOL    HW1  803   2.376   0.211   2.779 -2.7761 -1.3465  0.0952
  268SOL    HW2  804   2.295   0.350   2.828 -1.6764 -0.0864  1.3263
  269SOL     OW  805   1.485   0.458   2.459  0.6194  0.4850 -0.6299
  269SOL    HW1  806   1.496   0.376   2.399 -0.7509 -1.8064 -0.8024
  269SOL    HW2  807   1.469   0.535   2.399 -0.9695 -0.0098  1.6173
  270SOL     OW  808   0.859   1.043   2.426 -0.4588  0.0150  0.0677
  270SOL    HW1  809   0.953   1.087   2.442 -0.8644  0.6935  1.4771
  270SOL    HW2  810   0.850   0.960   2.482  1.4352 -2.4862 -2.3524
  271SOL     OW  811   2.739   1.141   0.431  0.3875  0.3536  0.1791
  271SOL    HW1  812   2.840   1.117   0.428  3.1481 -0.8403 -3.3016
  271SOL    HW2  813   2.723   1.233   0.395 -0.3122  0.1921 -1.3636
  272SOL     OW  814   2.743   1.527   2.772  0.2576 -0.1313 -0.2238
  272SOL    HW1  815   2.696   1.497   2.683 -3.8086  4.5443 -0.5994
  272SOL    HW2  816   2.823   1.590   2.756  0.8986  1.1104 -1.6508
  273SOL     OW  817   2.205   3.045   0.301  0.0142  0.1073  0.8237
  273SOL    HW1  818   2.251   0.076   0.336  2.0959 -1.1327 -0.9174
  273SOL    HW2  819   2.188   0.003   0.202 -0.8217 -1.0823  0.5381
  274SOL     OW  820   0.358   2.393   1.069  0.2419 -0.0409 -0.1962
  274SOL    HW1  821   0.346   2.294   1.085  0.5239  1.3527 -1.2399
  274SOL    HW2  822   0.333   2.454   1.144 -0.0944 -0.6329 -0.6437
  275SOL     OW  823   2.357   1.400   0.387  0.0572 -0.1545  0.0193
  275SOL    HW1  824   2.393   1.421   0.291 -0.4752 -1.9865 -3.4668
  275SOL    HW2  825   2.390   1.305   0.417  0.5163 -2.8881 -2.4115
  276SOL     OW  826   3.004   1.258   2.394 -0.1839  0.3475 -0.1265
  276SOL    HW1  827   0.021   1.186   2.407  1.4569  0.5293 -0.6601
  276SOL    HW2  828   2.915   1.219   2.366  0.0029  1.3871 -1.2340
  277SOL     OW  829   1.805   2.790   1.246 -0.6353  0.1775  0.0453
  277SOL    HW1  830   1.752   2.879   1.240 -2.6423  2.1295  2.0564
  277SOL    HW2  831   1.891   2.799   1.195 -1.5271 -1.1740 -2.3037
  278SOL     OW  832   1.120   3.004   2.010 -0.3584  0.1158  0.4916
  278SOL    HW1  833   1.074   2.944   1.945  1.4432  1.8881 -0.2775
  278SOL    HW2  834   1.218   3.012   1.997 -2.1580  2.3726  1.3606
  279SOL     OW  835   1.758   1.710   0.515  0.3656  0.2084 -0.3021
  279SOL    HW1  836   1.721   1.761   0.599 -0.0642  1.0102  2.2421
  279SOL    HW2  837   1.836   1.647   0.535  2.3480  0.0316 -1.7432
  280SOL     OW  838   0.426   1.571   0.726  0.0249 -0.0330  0.0335
  280SOL    HW1  839   0.487   1.642   0.688  0.6392  1.2369  0.4854
  280SOL    HW2  840   0.333   1.610   0.757  0.4655  0.8873 -0.1700
  281SOL     OW  841   2.791   0.379   2.555  0.0533 -0.3197  0.1677
  281SOL    HW1  842   2.694   0.372   2.528  1.9690  1.8343 -0.4132
  281SOL    HW2  843   2.814   0.325   2.637  0.2193 -0.3218 -1.3230
  282SOL     OW  844   0.381   0.881   0.468 -0.5379  0.3301 -0.4265
  282SOL    HW1  845   0.369   0.872   0.569 -1.9821  2.4990  0.7534
  282SOL    HW2  846   0.313   0.815   0.425 -2.3679 -3.7991  0.0408
  283SOL     OW  847   1.841   1.807   0.152 -0.4908 -0.3125  0.6305
  283SOL    HW1  848   1.872   1.860   0.231 -0.6706 -1.5449  0.6791
  283SOL    HW2  849   1.871   1.851   0.065 -2.1799  2.0093 -1.1140
  284SOL     OW  850   1.330   0.941   0.194  0.1861 -0.3783 -0.3609
  284SOL    HW1  851   1.309   0.911   0.095  0.0104 -0.3675 -0.4177
  284SOL    HW2  852   1.392   1.019   0.198 -0.5908  0.6970 -1.0123
  285SOL     OW  853   2.196   0.670   2.446  0.2376  0.0452  0.4120
  285SOL    HW1  854   2.134   0.693   2.370  2.7585  0.2550  0.0934
  285SOL    HW2  855   2.155   0.708   2.536 -2.0547  1.8844  0.8099
  286SOL     OW  856   1.610   2.637   1.319  0.3768 -0.1844 -0.2338
  286SOL    HW1  857   1.619   2.584   1.408  0.0594  0.7321  0.5969
  286SOL    HW2  858   1.692   2.688   1.295  0.1493 -1.8204  1.0470
  287SOL     OW  859   1.136   1.081   0.981 -0.4270  0.3973  0.5926
  287SOL    HW1  860   1.175   0.984   0.986 -0.0261  1.5258 -1.2789
  287SOL    HW2  861   1.212   1.139   1.021  0.5702  2.1344  1.7607
  288SOL     OW  862   0.935   2.757   0.031  0.3300 -0.2135 -0.6224
  288SOL    HW1  863   0.873   2.824   3.042 -2.4019 -1.7907  1.5931
  288SOL    HW2  864   1.015   2.802   0.070  0.7647 -0.7068 -1.4441
  289SOL     OW  865   0.374   1.485   1.813  0.1947 -0.0038  0.1811
  289SOL    HW1  866   0.461   1.478   1.759 -1.3894 -2.3146  0.6007
  289SOL    HW2  867   0.321   1.563   1.777  1.2918  0.3043  1.0439
  290SOL     OW  868   1.573   2.260   1.152  0.0009  0.2915  0.0464
  290SOL    HW1  869   1.557   2.189   1.086 -2.6983 -1.2089  2.6591
  290SOL    HW2  870   1.490   2.312   1.170  1.6858 -2.5894 -0.5573
  291SOL     OW  871   1.855   2.321   2.860  0.0329 -0.5897 -0.4752
  291SOL    HW1  872   1.826   2.369   2.947  0.6015  2.6125  0.2269
  291SOL    HW2  873   1.937   2.368   2.827 -0.9646 -2.8065  2.0225
  292SOL     OW  874   0.943   0.718   1.654 -0.5024 -0.1881  0.1445
  292SOL    HW1  875   0.972   0.773   1.735 -2.9379 -2.3890 -2.1617
  292SOL    HW2  876   1.023   0.688   1.597 -0.1289 -1.9420  0.2007
  293SOL     OW  877   1.846   2.657   0.970 -0.4081  0.0485 -0.6072
  293SOL    HW1  878   1.762   2.715   0.978 -0.2065 -2.9483  1.3321
  293SOL    HW2  879   1.915   2.674   1.037  1.1250 -1.9111  0.4343
  294SOL     OW  880   0.409   0.825   2.567 -0.4806  0.3970 -0.1097
  294SOL    HW1  881   0.338   0.757   2.536 -0.9453  0.8968 -1.9125
  294SOL    HW2  882   0.480   0.775   2.619 -0.5002 -1.4787 -1.5133
  295SOL     OW  883   1.459   1.633   0.795 -0.0009  0.2095  0.1883
  295SOL    HW1  884   1.470   1.539   0.752  1.4304  2.2732  0.1431
  295SOL    HW2  885   1.364   1.668   0.778  0.5325 -1.5047 -1.1308
  296SOL     OW  886   2.382   2.061   0.357 -0.2838  0.1640  0.5732
  296SOL    HW1  887   2.418   2.089   0.263 -2.6900  0.6130 -0.9855
  296SOL    HW2  888   2.380   1.965   0.379 -1.9321  2.8186 -1.1703
  297SOL     OW  889   2.257   0.065   0.053  0.2086 -0.3991 -0.3113
  297SOL    HW1  890   2.268   3.030   0.015  1.1594 -0.5102 -0.9782
  297SOL    HW2  891   2.184   0.116   0.000  0.3333  0.3201 -1.4213
  298SOL     OW  892   1.231   2.295   2.646 -0.0886  0.5249 -0.7840
  298SOL    HW1  893   1.278   2.388   2.642 -0.4734 -3.0853 -0.2950
  298SOL    HW2  894   1.131   2.310   2.663 -1.2755  1.2320 -2.7073
  299SOL     OW  895   1.345   2.546   2.630  0.5090 -0.1097  0.3544
  299SOL    HW1  896   1.349   2.579   2.725 -1.1281  1.0074 -2.2297
  299SOL    HW2  897   1.422   2.586   2.574 -1.7584 -0.1288 -0.5320
  300SOL     OW  898   2.102   0.046   2.476 -0.5766  0.1509  0.4250
  300SOL    HW1  899   2.123   0.133   2.522 -0.8040  0.2421  1.2630
  300SOL    HW2  900   2.182   0.001   2.424  3.2959  0.5794 -1.0150
  301SOL     OW  901   1.468   1.050   1.898  0.8154  0.6405 -0.2534
  301SOL    HW1  902   1.500   1.131   1.956  1.8504 -0.0603 -1.1479
  301SOL    HW2  903   1.548   0.986   1.882 -0.3886  0.3302  1.6396
  302SOL     OW  904   2.830   2.243   0.098  0.1670  0.8026 -0.1486
  302SOL    HW1  905   2.843   2.334   0.056 -0.1241 -1.1425 -0.8234
  302SOL    HW2  906   2.896   2.179   0.049 -1.1104  1.6660  0.9791
  303SOL     OW  907   2.820   2.399   2.264  0.1542 -0.4811 -0.1574
  303SOL    HW1  908   2.910   2.377   2.299  0.6941 -1.4626 -0.6869
  303SOL    HW2  909   2.826   2.392   2.164  0.6762 -0.0578 -0.4856
  304SOL     OW  910   2.719   0.514   1.770  0.9543  0.1049  0.5552
  304SOL    HW1  911   2.814   0.508   1.811 -1.4196  1.1459  1.7342
  304SOL    HW2  912   2.709   0.439   1.702  1.2031 -0.3367 -2.6572
  305SOL     OW  913   0.753   2.097   1.803 -0.0453 -0.0068  0.1957
  305SOL    HW1  914   0.778   2.196   1.802  1.3340 -0.5444  1.4154
  305SOL    HW2  915   0.778   2.049   1.719  1.0206  1.0017  1.2604
  306SOL     OW  916   2.670   0.795   1.677 -0.3870 -0.1994  0.0983
  306SOL    HW1  917   2.570   0.787   1.650 -1.0688 -3.2100 -0.5052
  306SOL    HW2  918   2.705   0.705   1.703  0.5349 -2.6533 -0.7401
  307SOL     OW  919   1.671   0.877   1.926  0.3149 -0.0241 -0.0375
  307SOL    HW1  920   1.766   0.893   1.955 -0.1645 -1.2399  1.2716
  307SOL    HW2  921   1.657   0.773   1.906 -1.0615 -2.5275 -0.3941
  308SOL     OW  922   2.806   1.627   1.101 -0.2220  0.1414  0.0001
  308SOL    HW1  923   2.878   1.570   1.056  2.7011 -0.6737 -0.0994
  308SOL    HW2  924   2.750   1.568   1.160  1.9228 -1.5238 -0.6203
  309SOL     OW  925   2.628   1.506   1.268 -0.0861  0.6542  0.2920
  309SOL    HW1  926   2.547   1.563   1.251  0.5921 -2.1839  3.0156
  309SOL    HW2  927   2.615   1.412   1.223  1.9007 -0.0198 -4.2073
  310SOL     OW  928   2.717   1.840   2.506 -0.2164  0.1191  0.0821
  310SOL    HW1  929   2.621   1.808   2.516  0.0506  1.0862  0.6611
  310SOL    HW2  930   2.743   1.877   2.598 -0.0082  1.4310  0.9765
  311SOL     OW  931   0.013   2.600   0.235  0.3233  0.8505  0.0795
  311SOL    HW1  932   2.998   2.635   0.302 -0.5993  0.3682  1.3125
  311SOL    HW2  933   0.021   2.498   0.234 -0.0433  2.1101 -1.2388
  312SOL     OW  934   1.964   1.554   0.616 -0.1296 -0.0988  0.2677
  312SOL    HW1  935   1.939   1.577   0.713 -2.0007  1.6769  2.9698
  312SOL    HW2  936   2.045   1.602   0.585 -1.2349 -1.5164  1.7084
  313SOL     OW  937   2.445   0.195   0.956 -0.0145 -0.0889  0.0563
  313SOL    HW1  938   2.371   0.163   0.905  1.6343  4.6526  0.3605
  313SOL    HW2  939   2.533   0.190   0.902  1.4361  2.6546  0.1030
  314SOL     OW  940   1.327   1.525   0.167  0.2446 -0.1005  0.0980
  314SOL    HW1  941   1.428   1.524   0.164 -1.9085  1.3178 -1.7360
  314SOL    HW2  942   1.296   1.570   0.077 -0.0137  3.5771  0.0543
  315SOL     OW  943   1.335   2.222   2.137  0.0267 -0.0503 -0.1773
  315SOL    HW1  944   1.316   2.318   2.148  0.7101 -1.5739  0.2568
  315SOL    HW2  945   1.321   2.182   2.045  0.7909  3.3644  2.7847
  316SOL     OW  946   3.016   1.072   0.539  0.3459 -0.2629  0.3676
  316SOL    HW1  947   2.994   1.136   0.614 -1.2312  1.6433  1.7689
  316SOL    HW2  948   0.052   1.082   0.500 -1.7009  1.9430 -0.2465
  317SOL     OW  949   0.379   0.054   0.330 -0.4721 -0.3538 -0.7214
  317SOL    HW1  950   0.351   3.047   0.406 -0.6610 -1.8487 -0.3212
  317SOL    HW2  951   0.429   0.002   0.255  2.5553  0.1998 -1.4010
  318SOL     OW  952   2.640   2.202   0.495  0.1042 -0.0634 -0.2706
  318SOL    HW1  953   2.606   2.181   0.590  1.6425 -0.3519  0.6688
  318SOL    HW2  954   2.744   2.211   0.489  2.2240 -0.3723 -0.2062
  319SOL     OW  955   0.823   1.237   2.738  0.8576 -0.4404  0.3554
  319SOL    HW1  956   0.781   1.290   2.808  0.9014 -1.2869 -3.0054
  319SOL    HW2  957   0.923   1.250   2.723  0.8080  0.3396 -0.3953
  320SOL     OW  958   0.809   2.380   1.773  0.3831 -0.1074 -0.8354
  320SOL    HW1  959   0.739   2.456   1.781 -1.1286  0.8235 -0.9245
  320SOL    HW2  960   0.900   2.408   1.818  0.3780  0.8521  1.0186
  321SOL     OW  961   1.592   2.054   3.039  0.2365 -0.5796  0.4051
  321SOL    HW1  962   1.643   2.059   0.070 -2.1373  1.1450 -3.8564
  321SOL    HW2  963   1.661   2.045   2.967  0.5712 -0.3782  1.2893
  322SOL     OW  964   2.987   1.352   2.087 -0.5200  0.6405  0.4939
  322SOL    HW1  965   2.935   1.289   2.141  1.1256  0.8873  0.3409
  322SOL    HW2  966   2.956   1.353   1.988  1.2185 -1.8646  1.2858
  323SOL     OW  967   2.448   1.141   0.436 -0.2781  0.0864 -0.1716
  323SOL    HW1  968   2.401   1.096   0.357 -2.6730 -1.6242  0.1972
  323SOL    HW2  969   2.548   1.135   0.423 -1.4822 -1.0777  3.6191
  324SOL     OW  970   0.152   2.715   2.750 -0.1770  0.0796 -0.4607
  324SOL    HW1  971   0.083   2.650   2.708 -3.2406  1.4583 -0.0828
  324SOL    HW2  972   0.148   2.711   2.852 -0.5143 -1.2447  2.2511
  325SOL     OW  973   1.481   0.251   2.305 -0.2136 -0.7583  0.0594
  325SOL    HW1  974   1.573   0.219   2.282  0.8369  0.2846  1.9238
  325SOL    HW2  975   1.439   0.171   2.348  2.5964  0.8718 -1.0216
  326SOL     OW  976   2.192   2.512   1.458 -0.0635 -0.6224 -0.3356
  326SOL    HW1  977   2.232   2.439   1.516 -1.0835  0.8196  1.0495
  326SOL    HW2  978   2.180   2.484   1.359  2.5938  0.5545  0.3409
  327SOL     OW  979   1.801   0.165   3.050  0.4659 -0.4343 -0.4996
  327SOL    HW1  980   1.792   0.063   3.051 -0.8130  0.1496  1.0701
  327SOL    HW2  981   1.714   0.211   3.016 -0.7261 -0.8574  0.2980
  328SOL     OW  982   2.876   0.662   2.262  0.2330  0.3057  0.0314
  328SOL    HW1  983   2.934   0.733   2.217  2.5882  0.8115 -0.5649
  328SOL    HW2  984   2.788   0.702   2.294  1.7894  2.7493 -0.6929
  329SOL     OW  985   1.378   3.020   1.967 -0.0925  0.2885 -0.0254
  329SOL    HW1  986   1.355   0.048   1.915  0.4115 -0.4190 -1.2836
  329SOL    HW2  987   1.446   3.040   2.039  1.2933 -2.2684  0.5134
  330SOL     OW  988   2.783   1.943   1.332  0.2787 -0.1369 -0.4767
  330SOL    HW1  989   2.881   1.930   1.340  0.3624 -1.1326 -1.2772
  330SOL    HW2  990   2.736   1.858   1.369  0.3583  0.1816 -1.0734
  331SOL     OW  991   0.565   1.511   2.312  0.0030 -0.0897  0.3465
  331SOL    HW1  992   0.549   1.517   2.211  2.7128  0.1777 -1.5538
  331SOL    HW2  993   0.640   1.442   2.328  1.1995  1.3399 -0.5096
  332SOL     OW  994   0.163   2.887   1.523  0.2830  0.0815 -0.1143
  332SOL    HW1  995   0.260   2.922   1.541 -1.6870 -0.0813  0.8075
  332SOL    HW2  996   0.100   2.961   1.490 -3.6628  1.0885 -0.0196
  333SOL     OW  997   2.367   2.700   1.412  0.0569  0.1145 -0.0815
  333SOL    HW1  998   2.458   2.652   1.432 -3.1570 -0.6857 -0.6919
  333SOL    HW2  999   2.284   2.631   1.418 -4.7278 -0.8874  0.4241
  334SOL     OW 1000   0.936   1.826   0.961 -0.2707  0.2485 -0.4956
  334SOL    HW1 1001   0.896   1.904   1.013 -2.6939 -1.1061 -1.7549
  334SOL    HW2 1002   0.979   1.860   0.873  0.3346  2.5782 -0.5976
  335SOL     OW 1003   0.492   2.256   0.157  0.0987  0.4587  0.3084
  335SOL    HW1 1004   0.481   2.253   0.058 -0.8491 -1.2377  0.1556
  335SOL    HW2 1005   0.417   2.201   0.210 -0.8181 -2.6353 -2.3860
  336SOL     OW 1006   0.377   0.087   1.770  0.3346 -0.8353  0.9593
  336SOL    HW1 1007   0.280   0.122   1.753 -1.8581  1.1657 -0.0958
  336SOL    HW2 1008   0.450   0.144   1.726 -0.3785  3.1778  0.3117
  337SOL     OW 1009   2.564   1.859   2.908  0.4157  0.4818  0.1042
  337SOL    HW1 1010   2.528   1.914   2.987 -1.8432 -0.2438  0.9991
  337SOL    HW2 1011   2.620   1.781   2.947  0.2841 -0.7831  0.8197
  338SOL     OW 1012   1.036   1.615   1.094 -0.0910  0.2477  0.4578
  338SOL    HW1 1013   1.118   1.642   1.148 -0.5545  0.4317 -0.4879
  338SOL    HW2 1014   1.001   1.697   1.042 -3.0278  3.0654 -1.0695
  339SOL     OW 1015   0.022   0.237   1.985  0.0608 -0.2533 -0.1480
  339SOL    HW1 1016   2.989   0.280   1.979  0.1471 -2.3456  1.5868
  339SOL    HW2 1017   0.077   0.279   2.058 -0.3980 -1.0805 -0.6823
  340SOL     OW 1018   1.547   2.502   0.463  0.1302 -0.5175 -0.2585
  340SOL    HW1 1019   1.574   2.409   0.419 -0.8208 -1.2876  0.4018
  340SOL    HW2 1020   1.555   2.484   0.562 -3.2435 -0.8717  1.7245
  341SOL     OW 1021   1.958   1.473   1.115  0.5292  0.0949  0.5488
  341SOL    HW1 1022   1.990   1.376   1.113  1.8406 -1.2967  0.4035
  341SOL    HW2 1023   1.856   1.478   1.111  0.6174  0.2473 -3.1753
  342SOL     OW 1024   2.967   1.893   0.574  0.3840  0.2534 -0.3770
  342SOL    HW1 1025   2.884   1.899   0.514  1.0040 -2.2339  2.3883
  342SOL    HW2 1026   3.049   1.844   0.541  2.3953  0.0605  2.3488
  343SOL     OW 1027   1.388   2.476   1.178 -0.7617 -0.1192 -0.1589
  343SOL    HW1 1028   1.464   2.502   1.236 -1.2832 -2.7682  2.5777
  343SOL    HW2 1029   1.305   2.443   1.233  1.0041  0.1996 -0.4797
  344SOL     OW 1030   2.115   2.947   0.864  0.8733  0.6848 -0.4788
  344SOL    HW1 1031   2.060   2.958   0.778 -1.0724 -0.5928  0.3980
  344SOL    HW2 1032   2.209   2.908   0.833  0.8110 -3.2101 -1.9943
  345SOL     OW 1033   2.783   1.965   2.754 -0.1491  1.0421 -0.1580
  345SOL    HW1 1034   2.715   1.943   2.825  2.6818  1.3333 -3.3738
  345SOL    HW2 1035   2.880   1.966   2.795 -1.5317 -0.3968 -1.3615
  346SOL     OW 1036   0.184   1.683   0.823  0.5875 -0.3405  0.4363
  346SOL    HW1 1037   0.106   1.633   0.780 -0.1359 -0.6720 -2.9598
  346SOL    HW2 1038   0.149   1.771   0.854  0.8804 -2.5424  0.7998
  347SOL     OW 1039   1.889   2.415   1.449 -0.3277 -0.8595 -0.0445
  347SOL    HW1 1040   1.831   2.470   1.514 -1.0104  0.8176  1.8976
  347SOL    HW2 1041   1.880   2.445   1.353  2.1123  0.3813  0.2853
  348SOL     OW 1042   1.164   1.565   2.667 -0.0891 -0.2480  0.5400
  348SOL    HW1 1043   1.112   1.605   2.749  0.3717 -2.4201 -0.5138
  348SOL    HW2 1044   1.213   1.639   2.617 -0.5873  0.2236  1.0747
  349SOL     OW 1045   2.387   1.331   2.072  0.0588 -0.0498 -0.0701
  349SOL    HW1 1046   2.301   1.338   2.127 -0.0859 -0.2638 -2.0575
  349SOL    HW2 1047   2.387   1.391   1.991 -0.9601 -1.5770 -0.1830
  350SOL     OW 1048   3.020   2.448   1.380 -0.2976 -0.8811 -0.0424
  350SOL    HW1 1049   0.040   2.515   1.401 -0.1285 -0.2711  0.1453
  350SOL    HW2 1050   3.018   2.401   1.290  0.3167 -1.0045  0.9335
  351SOL     OW 1051   0.486   0.519   2.654  0.1437 -0.1142 -0.6262
  351SOL    HW1 1052   0.530   0.444   2.603 -1.9682  2.0976 -1.4986
  351SOL    HW2 1053   0.450   0.481   2.745 -1.0190  0.6776  0.0903
  352SOL     OW 1054   0.779   2.310   1.495  0.1844  0.0124  0.4018
  352SOL    HW1 1055   0.778   2.322   1.594 -1.9917  1.4385 -2.5661
  352SOL    HW2 1056   0.690   2.333   1.451 -1.0067 -2.8430 -0.7156
  353SOL     OW 1057   0.959   1.491   2.397  0.2931 -0.4080 -0.1695
  353SOL    HW1 1058   0.869   1.441   2.391 -1.4895 -0.2562 -0.2540
  353SOL    HW2 1059   1.018   1.454   2.323  3.8815 -1.7081  0.2622
  354SOL     OW 1060   1.605   1.013   0.542  0.2002 -0.6127 -0.3666
  354SOL    HW1 1061   1.508   1.020   0.570 -1.7132  1.3670 -0.3697
  354SOL    HW2 1062   1.617   0.987   0.441 -0.0081 -2.1713 -1.3993
  355SOL     OW 1063   2.872   0.742   0.605  0.1253  0.9643 -0.2012
  355SOL    HW1 1064   2.769   0.738   0.617  1.8162 -4.1711  1.4244
  355SOL    HW2 1065   2.900   0.816   0.540 -3.5677 -1.0176 -0.8945
  356SOL     OW 1066   2.618   0.949   2.428 -0.6636 -0.7641  0.1061
  356SOL    HW1 1067   2.713   0.985   2.428  1.1412 -2.7183 -0.0871
  356SOL    HW2 1068   2.580   0.934   2.522 -1.6320  0.1680 -0.0481
  357SOL     OW 1069   0.642   2.599   1.772 -0.2635  0.5502  0.2706
  357SOL    HW1 1070   0.688   2.663   1.706  0.0459  1.9098 -1.0401
  357SOL    HW2 1071   0.622   2.657   1.856  0.5446  1.5880 -0.0045
  358SOL     OW 1072   2.118   1.168   1.955  0.3322 -0.4613 -0.1328
  358SOL    HW1 1073   2.098   1.269   1.952  3.1892 -2.7846 -0.4961
  358SOL    HW2 1074   2.132   1.132   1.863 -3.5978 -2.3061  0.8801
  359SOL     OW 1075   2.181   2.181   2.981  0.5412 -0.7269  0.4821
  359SOL    HW1 1076   2.135   2.226   2.898  0.5886  2.2027 -0.7776
  359SOL    HW2 1077   2.264   2.235   3.000  1.2248  0.3327 -0.7386
  360SOL     OW 1078   2.169   0.591   0.692 -0.4049  0.5725 -0.7092
  360SOL    HW1 1079   2.204   0.544   0.778 -0.7151  0.3774  2.4393
  360SOL    HW2 1080   2.243   0.607   0.625  0.8033 -2.4543 -0.3538
  361SOL     OW 1081   1.752   3.017   0.929 -0.0809  0.8615 -0.0779
  361SOL    HW1 1082   1.774   3.019   0.832  0.4825  2.0913 -0.3685
  361SOL    HW2 1083   1.697   2.937   0.942  0.7794 -1.5472 -1.0478
  362SOL     OW 1084   1.307   1.242   0.508  0.1275  0.1755 -0.2912
  362SOL    HW1 1085   1.211   1.250   0.474  0.9036  3.2976  2.5946
  362SOL    HW2 1086   1.318   1.158   0.568  1.2108 -2.5490  3.0325
  363SOL     OW 1087   2.498   1.659   2.292  0.1118 -0.3686 -0.8086
  363SOL    HW1 1088   2.524   1.566   2.261 -0.9820 -0.0189  0.8966
  363SOL    HW2 1089   2.538   1.679   2.386  0.2412 -0.7392 -0.8532
  364SOL     OW 1090   1.144   0.622   1.502  0.3109  0.4759 -0.5897
  364SOL    HW1 1091   1.084   0.632   1.421  2.3129 -1.6980  0.1411
  364SOL    HW2 1092   1.146   0.528   1.542 -0.4973  1.2620 -3.1320
  365SOL     OW 1093   0.149   0.080   0.926  0.6203  0.4462  0.5264
  365SOL    HW1 1094   0.087   0.099   0.847 -2.2624  0.2643  0.5222
  365SOL    HW2 1095   0.122   3.044   0.958  1.2334 -0.6619 -1.9478
  366SOL     OW 1096   2.756   1.479   0.428 -0.8620  0.3744 -0.3885
  366SOL    HW1 1097   2.732   1.465   0.525  0.9030  2.6079 -1.2972
  366SOL    HW2 1098   2.814   1.556   0.412  2.2979 -3.3591 -0.7193
  367SOL     OW 1099   0.018   2.156   3.017  0.6671  0.0950  0.3007
  367SOL    HW1 1100   0.077   2.229   2.978 -1.6463  0.7083 -2.1667
  367SOL    HW2 1101   0.059   2.114   0.044  2.2770 -0.5893 -0.1994
  368SOL     OW 1102   0.049   2.228   0.937  0.1900  0.2681  0.6860
  368SOL    HW1 1103   0.135   2.266   0.895 -0.8055 -1.3310  3.2528
  368SOL    HW2 1104   3.013   2.251   0.888 -3.5301  0.4644 -3.5850
  369SOL     OW 1105   0.469   0.306   0.348  0.4717 -0.1212  0.3061
  369SOL    HW1 1106   0.434   0.212   0.341 -0.0870  2.8438  2.5599
  369SOL    HW2 1107   0.573   0.312   0.348  0.6213 -1.6482  1.8292
  370SOL     OW 1108   0.453   1.061   1.383 -0.3827 -0.3865  0.0061
  370SOL    HW1 1109   0.466   1.057   1.483 -0.9997  1.2889  0.2300
  370SOL    HW2 1110   0.436   1.158   1.357 -2.6525  1.1501  0.9468
  371SOL     OW 1111   2.072   2.300   0.982 -0.2584 -0.1061 -0.1354
  371SOL    HW1 1112   2.118   2.227   1.037  0.9298  0.4058 -0.8220
  371SOL    HW2 1113   1.981   2.269   0.943 -0.5716  0.4138  0.2933
  372SOL     OW 1114   2.885   0.951   2.551  0.2189 -0.1735 -0.4862
  372SOL    HW1 1115   2.840   0.857   2.571 -0.0082 -3.7958 -0.5695
  372SOL    HW2 1116   2.982   0.947   2.523  1.1169  0.7115 -0.1528
  373SOL     OW 1117   2.734   1.714   0.691 -0.1635 -0.3482 -0.5122
  373SOL    HW1 1118   2.740   1.759   0.784 -0.4084 -0.2803  1.8343
  373SOL    HW2 1119   2.690   1.620   0.704 -3.2724 -3.0550 -0.6424
  374SOL     OW 1120   0.268   2.360   0.339 -0.2122  0.4960 -0.1186
  374SOL    HW1 1121   0.319   2.440   0.299  0.7554  1.9860 -2.3014
  374SOL    HW2 1122   0.178   2.353   0.299 -0.6990  0.1584 -0.1645
  375SOL     OW 1123   0.724   0.262   0.287  0.2428 -0.2347 -0.3135
  375SOL    HW1 1124   0.818   0.222   0.304 -0.2565  0.3233  0.0465
  375SOL    HW2 1125   0.734   0.359   0.257  1.3101 -0.3273  0.3193
  376SOL     OW 1126   0.325   3.015   2.006 -0.2614 -0.2031 -0.3470
  376SOL    HW1 1127   0.336   3.038   1.907  0.3442  1.5749 -2.5946
  376SOL    HW2 1128   0.279   2.924   2.008 -1.0386 -1.1759 -0.6709
  377SOL     OW 1129   1.091   2.305   2.322  0.4528 -0.4584  0.5439
  377SOL    HW1 1130   1.169   2.252   2.296  1.7827  0.8495  0.2536
  377SOL    HW2 1131   1.106   2.379   2.392 -1.2825  0.4106 -0.6517
  378SOL     OW 1132   1.061   0.792   0.591  0.3539  0.5584  0.9984
  378SOL    HW1 1133   1.062   0.878   0.648 -0.2919  0.9901  0.5694
  378SOL    HW2 1134   1.023   0.720   0.650  1.3548  2.0295 -0.1041
  379SOL     OW 1135   1.050   1.681   2.891 -0.2034  0.1324  0.0523
  379SOL    HW1 1136   1.018   1.613   2.957 -0.4803  1.7505 -1.9219
  379SOL    HW2 1137   1.141   1.720   2.929  3.8599  0.9918  2.3681
  380SOL     OW 1138   2.975   1.774   1.653 -0.1196  0.2072 -0.1755
  380SOL    HW1 1139   2.974   1.762   1.756 -0.0744 -4.3270  1.8849
  380SOL    HW2 1140   3.024   1.855   1.629 -0.6898 -1.1394  0.3415
  381SOL     OW 1141   0.010   0.978   1.963  0.2685  0.3122  0.2575
  381SOL    HW1 1142   0.104   1.020   1.944 -2.1342  2.3571  1.3049
  381SOL    HW2 1143   3.056   0.894   1.905 -0.0854 -1.0278 -0.3382
  382SOL     OW 1144   2.453   2.343   0.061  0.1448 -0.5416  0.1768
  382SOL    HW1 1145   2.466   2.326   3.017  1.3566 -2.6288  2.7568
  382SOL    HW2 1146   2.505   2.274   0.116  1.2599  0.3366 -0.9107
  383SOL     OW 1147   2.331   2.028   2.246  0.1664  0.0047  0.0528
  383SOL    HW1 1148   2.416   1.973   2.225 -2.2757  0.5566  0.0507
  383SOL    HW2 1149   2.354   2.110   2.303 -2.2165  0.5305 -1.2849
  384SOL     OW 1150   0.909   2.327   2.112 -0.2324 -0.2562 -0.3878
  384SOL    HW1 1151   0.957   2.307   2.197 -2.1685  0.4613  1.9155
  384SOL    HW2 1152   0.807   2.312   2.121 -1.2321  1.2315 -1.4015
  385SOL     OW 1153   2.633   2.215   1.060  0.0845 -0.5303 -0.1644
  385SOL    HW1 1154   2.548   2.263   1.026 -1.2632 -0.9050  0.1644
  385SOL    HW2 1155   2.613   2.116   1.085 -0.0640 -1.1568 -0.0643
  386SOL     OW 1156   1.826   0.586   2.765  0.3426  0.0422  0.2760
  386SOL    HW1 1157   1.741   0.531   2.746  1.9429  1.9116 -1.9543
  386SOL    HW2 1158   1.852   0.584   2.863 -3.1021 -2.3703  0.4712
  387SOL     OW 1159   0.546   0.483   1.889 -0.1912 -0.3285 -0.1692
  387SOL    HW1 1160   0.498   0.494   1.803 -0.0924  0.9583  4.8796
  387SOL    HW2 1161   0.495   0.424   1.951 -0.2617  0.2579 -1.6920
  388SOL     OW 1162   2.819   1.002   1.539  0.2235  0.2739 -0.5858
  388SOL    HW1 1163   2.787   0.918   1.586  0.5615  0.6732 -1.5515
  388SOL    HW2 1164   2.871   1.060   1.605  1.6328  0.0826  0.0989
  389SOL     OW 1165   1.589   0.909   2.193 -0.1081  0.7349 -0.0734
  389SOL    HW1 1166   1.590   0.994   2.255  1.8823  0.3214 -0.9729
  389SOL    HW2 1167   1.602   0.937   2.097 -0.3890  0.6936  3.0444
  390SOL     OW 1168   2.055   2.247   0.628  0.7695  0.6239 -0.1699
  390SOL    HW1 1169   2.146   2.218   0.591 -1.8948  1.0386 -0.1241
  390SOL    HW2 1170   2.029   2.338   0.589 -0.7795 -1.0904  0.1862
  391SOL     OW 1171   1.605   2.767   0.931 -0.4163 -0.4188 -0.0170
  391SOL    HW1 1172   1.635   2.758   0.833  0.8192 -1.2838 -0.1937
  391SOL    HW2 1173   1.507   2.790   0.930 -0.5954  1.7447 -3.4252
  392SOL     OW 1174   2.716   2.681   1.195 -0.1297  0.9007  0.4078
  392SOL    HW1 1175   2.658   2.749   1.143 -0.1003  2.4733 -0.4079
  392SOL    HW2 1176   2.671   2.640   1.284 -0.8666  0.3880  1.8106
  393SOL     OW 1177   1.771   1.644   2.865 -0.0847  0.5446  0.1395
  393SOL    HW1 1178   1.845   1.715   2.862 -1.3118  1.4366 -3.1297
  393SOL    HW2 1179   1.798   1.560   2.919  0.8934 -1.1188 -1.0951
  394SOL     OW 1180   0.405   2.741   3.037  0.0923  0.3828  0.0295
  394SOL    HW1 1181   0.441   2.653   2.997  0.3381 -2.7456 -0.7616
  394SOL    HW2 1182   0.302   2.747   3.023 -2.4259  0.6718  1.5428
  395SOL     OW 1183   1.322   1.333   0.874 -0.2079  0.6507  0.5985
  395SOL    HW1 1184   1.371   1.278   0.946 -0.1957 -2.3622  3.3486
  395SOL    HW2 1185   1.380   1.402   0.829  1.3068 -1.1552 -0.2372
  396SOL     OW 1186   2.139   0.758   2.706  0.0664 -0.0783  0.5391
  396SOL    HW1 1187   2.091   0.761   2.798  0.9981  2.8258  0.4536
  396SOL    HW2 1188   2.231   0.718   2.711 -1.3257 -0.5679 -0.7618
  397SOL     OW 1189   0.036   0.718   2.601 -0.3328 -0.5802 -0.3148
  397SOL    HW1 1190   2.991   0.713   2.611 -0.8712  2.0555  0.0838
  397SOL    HW2 1191   0.062   0.799   2.539  2.3272  0.7875  0.4205
  398SOL     OW 1192   1.252   0.553   0.063  0.2038 -0.0647 -0.4302
  398SOL    HW1 1193   1.330   0.510   0.014  0.2301  0.5546  0.8440
  398SOL    HW2 1194   1.168   0.493   0.053 -0.0853 -0.7295 -1.3539
  399SOL     OW 1195   1.883   2.973   1.781 -0.1128 -0.0858 -0.4754
  399SOL    HW1 1196   1.961   2.927   1.826 -0.6507  0.2733  1.0993
  399SOL    HW2 1197   1.879   2.952   1.683  1.2692 -1.7275 -2.0506
  400SOL     OW 1198   0.106   1.828   2.281  0.3727  0.2066 -0.3802
  400SOL    HW1 1199   0.138   1.742   2.238  0.2151 -0.1007 -0.0495
  400SOL    HW2 1200   0.049   1.817   2.363  0.4733  0.3839  1.3217
  401SOL     OW 1201   0.652   0.136   0.036 -0.2998 -0.2751  0.5918
  401SOL    HW1 1202   0.689   0.158   0.129  1.0522 -0.9567  0.3441
  401SOL    HW2 1203   0.630   0.219   3.043  0.2693 -2.7973  0.0373
  402SOL     OW 1204   0.512   2.380   1.466 -0.7895 -1.1136 -0.2327
  402SOL    HW1 1205   0.486   2.284   1.463 -1.5959 -1.9839  1.7295
  402SOL    HW2 1206   0.497   2.426   1.555 -1.6612  0.7885  0.7091
  403SOL     OW 1207   0.358   1.303   1.333 -0.8083 -0.3867  0.2770
  403SOL    HW1 1208   0.259   1.299   1.354  1.7311  1.1770  0.7412
  403SOL    HW2 1209   0.390   1.384   1.389 -3.7555  1.8763 -1.8843
  404SOL     OW 1210   2.840   2.523   1.839  0.2341  0.1456  0.2713
  404SOL    HW1 1211   2.839   2.571   1.746 -1.1856 -0.4356 -0.8870
  404SOL    HW2 1212   2.830   2.595   1.911  0.7045 -0.5485  0.7398
  405SOL     OW 1213   2.657   0.328   2.189  0.1753  0.1597 -0.2348
  405SOL    HW1 1214   2.563   0.350   2.225 -3.5919  0.2352  1.8974
  405SOL    HW2 1215   2.712   0.265   2.253  0.1594 -0.5665  3.1850
  406SOL     OW 1216   1.963   2.412   0.267 -0.5057  0.3625 -0.3847
  406SOL    HW1 1217   2.056   2.372   0.262  1.8943  1.7763 -1.1534
  406SOL    HW2 1218   1.943   2.440   0.362  1.3535  0.3638  0.2428
  407SOL     OW 1219   1.940   1.704   0.849  0.2728  0.1393  0.2067
  407SOL    HW1 1220   1.925   1.713   0.950 -0.6141  0.7134  1.4238
  407SOL    HW2 1221   2.010   1.766   0.805  1.5742 -1.9742  1.4765
  408SOL     OW 1222   0.600   0.350   2.211  0.1998 -0.5683 -0.2989
  408SOL    HW1 1223   0.656   0.429   2.172 -0.5568 -2.5930 -0.6398
  408SOL    HW2 1224   0.645   0.267   2.172  0.0079  0.3709 -1.4512
  409SOL     OW 1225   2.449   1.860   0.651 -0.1027 -0.0098 -0.3144
  409SOL    HW1 1226   2.504   1.782   0.683 -0.9504  1.8205 -0.8952
  409SOL    HW2 1227   2.410   1.842   0.561  0.5619  0.0821  2.1568
  410SOL     OW 1228   2.429   1.585   0.857  0.1285  0.2199 -0.3352
  410SOL    HW1 1229   2.348   1.568   0.920 -0.9018  0.1673 -0.2933
  410SOL    HW2 1230   2.510   1.616   0.909  2.2125 -1.7015 -1.2664
  411SOL     OW 1231   3.045   0.841   0.369  0.3088 -0.5582  0.0700
  411SOL    HW1 1232   0.074   0.801   0.414  2.6893 -1.9316  1.8597
  411SOL    HW2 1233   3.025   0.941   0.382 -0.5051 -0.4269  0.2431
  412SOL     OW 1234   1.619   0.465   0.282  0.1617  0.1643  0.5520
  412SOL    HW1 1235   1.544   0.421   0.332  1.6208 -0.0383  0.8570
  412SOL    HW2 1236   1.602   0.564   0.281 -2.9895 -1.3520  0.5878
  413SOL     OW 1237   0.909   0.892   1.162 -0.0105 -0.2309  0.8288
  413SOL    HW1 1238   0.820   0.918   1.199 -1.4558 -0.0757  1.6225
  413SOL    HW2 1239   0.901   0.870   1.059 -2.2229  1.5456 -1.8551
  414SOL     OW 1240   2.862   1.283   2.830  0.1078 -0.3544  0.2830
  414SOL    HW1 1241   2.790   1.355   2.819 -1.2696 -0.1804  0.0277
  414SOL    HW2 1242   2.941   1.318   2.773  2.1935  0.4699 -1.1670
  415SOL     OW 1243   0.117   1.573   2.863 -0.4491 -0.4247  0.4715
  415SOL    HW1 1244   0.216   1.575   2.885  0.2273 -0.9980  1.2618
  415SOL    HW2 1245   0.064   1.499   2.905  0.7914  0.3460  1.5064
  416SOL     OW 1246   1.631   0.801   0.156  0.0201 -0.1551  0.0365
  416SOL    HW1 1247   1.723   0.798   0.197  0.2535  3.0025  0.6879
  416SOL    HW2 1248   1.582   0.877   0.199 -0.4076  0.9041 -0.7851
  417SOL     OW 1249   0.261   0.704   1.067 -0.5283  0.4863 -0.1024
  417SOL    HW1 1250   0.290   0.775   1.128 -0.2205 -1.2438  0.6142
  417SOL    HW2 1251   0.319   0.703   0.980  0.2922 -1.3890 -2.8344
  418SOL     OW 1252   2.267   1.030   2.682 -0.1625 -0.3353  0.0119
  418SOL    HW1 1253   2.192   0.970   2.718 -1.4194 -3.6319  0.8680
  418SOL    HW2 1254   2.357   0.979   2.668  2.6993 -0.3375 -0.7189
  419SOL     OW 1255   0.382   0.527   0.228 -0.1373 -0.3051 -0.2847
  419SOL    HW1 1256   0.411   0.470   0.308  0.4988 -0.7893  1.5798
  419SOL    HW2 1257   0.311   0.476   0.178  1.8207  1.8681  1.2702
  420SOL     OW 1258   0.329   1.336   0.825 -0.8918  0.0865  0.3785
  420SOL    HW1 1259   0.345   1.321   0.923  0.2958  3.3211  1.1050
  420SOL    HW2 1260   0.373   1.427   0.803  2.3671 -0.9741 -0.7226
  421SOL     OW 1261   0.345   2.100   0.323 -0.6361  0.1336 -0.6002
  421SOL    HW1 1262   0.318   2.197   0.353 -0.5785  0.9982 -0.6308
  421SOL    HW2 1263   0.354   2.042   0.406  1.8937  0.7824 -1.6608
  422SOL     OW 1264   2.600   0.449   1.400  0.0641  0.3148 -0.5879
  422SOL    HW1 1265   2.652   0.410   1.319 -0.1856  2.7469 -0.8546
  422SOL    HW2 1266   2.610   0.397   1.483  0.0850  0.5627 -0.9581
  423SOL     OW 1267   2.053   1.353   0.862 -0.3910  0.3905  0.2651
  423SOL    HW1 1268   2.013   1.418   0.924 -1.1966 -2.3691  0.0461
  423SOL    HW2 1269   2.139   1.319   0.898 -2.1597  2.4680 -1.3743
  424SOL     OW 1270   1.681   1.105   3.042 -0.3808 -0.2104 -0.5137
  424SOL    HW1 1271   1.766   1.075   2.993  0.6780 -0.4480 -0.2983
  424SOL    HW2 1272   1.598   1.069   2.996  2.2568  0.1510  0.2678
  425SOL     OW 1273   0.178   2.767   1.982  0.1223 -0.3657 -0.2862
  425SOL    HW1 1274   0.126   2.818   2.052  0.9148  0.9638  0.5779
  425SOL    HW2 1275   0.127   2.775   1.893  1.7257 -1.3070 -0.8526
  426SOL     OW 1276   2.487   2.679   2.898 -0.4023  0.0706  0.0163
  426SOL    HW1 1277   2.507   2.720   2.805  2.4566 -0.1005 -2.5231
  426SOL    HW2 1278   2.397   2.627   2.908 -0.4664  0.9554  2.6672
  427SOL     OW 1279   0.701   0.819   2.141 -0.5758 -0.2403  0.5241
  427SOL    HW1 1280   0.616   0.843   2.190  0.5092  3.5667  0.2039
  427SOL    HW2 1281   0.772   0.891   2.157 -0.0089  1.3241  0.8591
  428SOL     OW 1282   2.129   0.733   2.179 -0.1541 -0.2092  0.3474
  428SOL    HW1 1283   2.179   0.678   2.106 -0.5813 -0.3786 -0.4264
  428SOL    HW2 1284   2.150   0.833   2.178 -0.3736 -0.5520  1.6410
  429SOL     OW 1285   2.286   0.205   0.415 -0.6383 -0.0271  0.3518
  429SOL    HW1 1286   2.384   0.203   0.443 -0.4735  0.3992  2.9933
  429SOL    HW2 1287   2.230   0.256   0.483 -2.6492  2.5263  2.8485
  430SOL     OW 1288   1.916   0.921   1.973 -0.6531 -0.3986 -0.0318
  430SOL    HW1 1289   2.005   0.939   2.025  0.1528  0.4936 -1.0826
  430SOL    HW2 1290   1.924   0.948   1.877 -1.8428 -1.2342 -1.4736
  431SOL     OW 1291   2.696   2.155   1.515 -0.0369  0.4251 -0.1265
  431SOL    HW1 1292   2.736   2.079   1.460  2.2128 -1.5572  1.7730
  431SOL    HW2 1293   2.657   2.219   1.452  1.1987 -0.6004  1.3400
  432SOL     OW 1294   1.250   2.732   2.109 -0.0651  0.0270 -0.2745
  432SOL    HW1 1295   1.264   2.778   2.019  1.6028  1.2155 -2.2149
  432SOL    HW2 1296   1.234   2.800   2.177  1.0816 -3.3228 -0.6894
  433SOL     OW 1297   1.387   0.003   1.268  0.1440  0.0924 -0.3268
  433SOL    HW1 1298   1.448   0.010   1.190 -1.2652 -3.1885  2.8880
  433SOL    HW2 1299   1.406   2.970   1.313 -0.5362  0.6424  1.3575
  434SOL     OW 1300   0.018   2.300   2.241  0.5315  0.0021 -0.0298
  434SOL    HW1 1301   0.006   2.343   2.151 -1.8045 -0.9638 -0.3371
  434SOL    HW2 1302   0.118   2.306   2.259 -0.0930 -1.8431 -1.6512
  435SOL     OW 1303   0.228   1.789   0.178 -0.1149  0.4752  0.0076
  435SOL    HW1 1304   0.322   1.787   0.147 -1.2113  0.5495 -0.5762
  435SOL    HW2 1305   0.169   1.791   0.097 -0.0865 -1.2968 -2.5347
  436SOL     OW 1306   0.459   1.164   1.654 -0.6807 -0.3499  0.2784
  436SOL    HW1 1307   0.529   1.218   1.603 -2.2063 -1.5773  0.8645
  436SOL    HW2 1308   0.504   1.108   1.729  2.6775  0.8493 -0.2634
  437SOL     OW 1309   0.971   0.559   2.833  0.4690  0.1622  0.3281
  437SOL    HW1 1310   0.876   0.589   2.810  0.6069 -1.0819 -0.4617
  437SOL    HW2 1311   1.003   0.473   2.787  2.0109 -0.2336 -2.2029
  438SOL     OW 1312   0.586   1.873   1.492  0.0937 -0.2551 -0.0145
  438SOL    HW1 1313   0.643   1.787   1.463 -0.1669 -1.3076 -2.4460
  438SOL    HW2 1314   0.575   1.881   1.595  0.8535 -0.9069  1.0616
  439SOL     OW 1315   1.869   1.434   3.032 -0.0416  0.0352  0.2041
  439SOL    HW1 1316   1.931   1.353   3.051  1.2151 -1.4410  0.6836
  439SOL    HW2 1317   1.777   1.425   0.023 -1.5242 -1.4537  0.2898
  440SOL     OW 1318   1.348   0.749   0.413  0.1109 -0.2977 -0.2370
  440SOL    HW1 1319   1.326   0.821   0.341  0.4859 -0.6566  1.0976
  440SOL    HW2 1320   1.310   0.664   0.377  0.1580  2.4551 -0.1786
  441SOL     OW 1321   0.414   2.481   1.735  0.0703 -0.0416 -0.0112
  441SOL    HW1 1322   0.507   2.521   1.738  1.2094 -0.3837  2.5513
  441SOL    HW2 1323   0.359   2.521   1.809 -0.1193 -2.2269 -1.7660
  442SOL     OW 1324   2.246   2.531   0.911 -0.6759  0.3236  0.0919
  442SOL    HW1 1325   2.167   2.467   0.901 -1.9063  1.9244  0.2514
  442SOL    HW2 1326   2.240   2.600   0.838 -1.3655  2.1771  0.8515
  443SOL     OW 1327   2.578   1.225   2.435  0.3692  0.1066  0.6851
  443SOL    HW1 1328   2.474   1.239   2.437  0.2105 -2.0289 -0.7676
  443SOL    HW2 1329   2.590   1.124   2.430 -1.7188  3.1074  2.1837
  444SOL     OW 1330   1.453   0.699   2.316  0.1682  0.5780 -0.3245
  444SOL    HW1 1331   1.502   0.760   2.254 -0.7952 -2.2831 -0.0076
  444SOL    HW2 1332   1.355   0.697   2.290 -0.3509  1.3008 -0.7003
  445SOL     OW 1333   2.350   2.379   1.642  0.3347 -0.7532  0.0655
  445SOL    HW1 1334   2.373   2.285   1.609 -1.3173 -0.2341  1.1570
  445SOL    HW2 1335   2.438   2.422   1.675  1.8492 -0.8955  1.5310
  446SOL     OW 1336   2.943   1.651   0.327  0.1548 -0.4242 -0.2146
  446SOL    HW1 1337   2.940   1.702   0.240 -0.2882 -1.2324 -2.3748
  446SOL    HW2 1338   3.014   1.698   0.388 -0.5598  0.1367  1.2409
  447SOL     OW 1339   0.996   2.609   0.947 -0.2784  0.1669  0.7130
  447SOL    HW1 1340   1.089   2.635   0.980 -1.6765 -1.0287 -3.0364
  447SOL    HW2 1341   0.984   2.512   0.949 -1.4027  2.5174  1.4638
  448SOL     OW 1342   1.678   1.497   1.843 -0.2241  0.9268 -0.6968
  448SOL    HW1 1343   1.719   1.542   1.928 -2.5155  0.9326 -0.1241
  448SOL    HW2 1344   1.717   1.402   1.837  0.2288 -0.0895  0.0370
  449SOL     OW 1345   0.694   2.001   2.556  0.1715  0.2279 -0.5292
  449SOL    HW1 1346   0.697   2.018   2.658  1.3809 -0.0447  2.3809
  449SOL    HW2 1347   0.671   1.902   2.535  0.6384 -1.2801  3.0580
  450SOL     OW 1348   2.998   1.752   2.497 -0.0547 -0.1955 -0.1807
  450SOL    HW1 1349   2.972   1.668   2.443  1.1928  2.9964  2.0889
  450SOL    HW2 1350   2.926   1.818   2.499  0.9837 -2.3625  2.3908
  451SOL     OW 1351   2.110   0.669   1.499  0.3661 -0.3614 -0.0276
  451SOL    HW1 1352   2.199   0.620   1.490 -0.5489 -1.3007  2.7914
  451SOL    HW2 1353   2.069   0.668   1.593 -1.6730  0.6242  0.2729
  452SOL     OW 1354   0.947   2.352   1.297 -0.4049 -0.8853  0.3801
  452SOL    HW1 1355   0.891   2.354   1.384  0.3040  2.6998  2.7679
  452SOL    HW2 1356   0.889   2.380   1.223  2.8871 -0.5994 -0.1577
  453SOL     OW 1357   1.261   2.015   0.860 -0.0985 -0.5566  0.3340
  453SOL    HW1 1358   1.318   2.027   0.945 -0.2986  1.1909  2.1585
  453SOL    HW2 1359   1.248   2.107   0.817 -1.2940  0.7508  1.9196
  454SOL     OW 1360   2.905   1.225   0.796  0.2046 -0.0550  0.0850
  454SOL    HW1 1361   2.924   1.196   0.890 -0.3686  0.6065 -1.5944
  454SOL    HW2 1362   2.992   1.274   0.768  2.7564 -1.6240  4.3877
  455SOL     OW 1363   0.612   0.907   0.321 -0.1711  0.2424 -0.0541
  455SOL    HW1 1364   0.600   0.974   0.247  2.6262 -0.7856 -0.4054
  455SOL    HW2 1365   0.527   0.900   0.378  2.2237 -1.2895 -0.4353
  456SOL     OW 1366   1.853   2.468   1.184  0.2592  0.2207  0.2636
  456SOL    HW1 1367   1.773   2.412   1.190 -0.3466  0.0600  1.6526
  456SOL    HW2 1368   1.836   2.549   1.121 -1.5063 -0.3428  2.4814
  457SOL     OW 1369   1.538   2.414   0.126 -0.3858  0.2526 -0.3970
  457SOL    HW1 1370   1.493   2.368   0.046 -0.3051 -2.6720 -1.4492
  457SOL    HW2 1371   1.527   2.516   0.119 -0.0504 -0.5073 -0.9118
  458SOL     OW 1372   2.623   0.257   3.010  0.8794 -0.2439 -0.1500
  458SOL    HW1 1373   2.562   0.177   2.982  0.2296  0.4964  0.2871
  458SOL    HW2 1374   2.678   0.236   0.035 -1.5665  0.3699 -4.1406
  459SOL     OW 1375   2.172   0.008   1.736  0.1417  0.0925  0.0929
  459SOL    HW1 1376   2.137   3.046   1.642  0.6042 -1.6425  2.7910
  459SOL    HW2 1377   2.148   2.987   1.801  0.8939 -3.2840  0.3118
  460SOL     OW 1378   2.958   0.466   2.871  0.6353 -0.3356 -0.2118
  460SOL    HW1 1379   0.001   0.484   2.845 -0.0497 -1.2262  0.8101
  460SOL    HW2 1380   2.918   0.376   2.842 -1.7708 -1.9918  0.5582
  461SOL     OW 1381   0.151   1.973   0.948  0.5383  0.0411  0.5825
  461SOL    HW1 1382   0.107   1.927   1.024  0.1846  1.4688 -1.9425
  461SOL    HW2 1383   0.107   2.063   0.929  0.1141 -2.6343  0.5841
  462SOL     OW 1384   3.017   0.106   0.738 -1.0643  0.0737 -0.5841
  462SOL    HW1 1385   2.962   0.063   0.666 -0.6042  0.5758  0.6485
  462SOL    HW2 1386   2.971   0.191   0.768  0.2810  2.8362 -0.8906
  463SOL     OW 1387   2.293   1.529   0.073  0.5423 -0.3555 -0.0278
  463SOL    HW1 1388   2.210   1.562   0.024  0.3037 -1.2578  1.0749
  463SOL    HW2 1389   2.365   1.496   0.012 -0.8140  1.6180 -1.4333
  464SOL     OW 1390   0.667   3.038   1.186  0.1398  0.1733 -0.2962
  464SOL    HW1 1391   0.583   2.982   1.207  0.3082 -0.0907  1.9456
  464SOL    HW2 1392   0.754   2.990   1.215  1.0089  2.3559  1.6533
  465SOL     OW 1393   1.006   0.672   1.273 -0.4493 -0.0678 -0.3761
  465SOL    HW1 1394   0.983   0.760   1.229  0.2742  0.6442  0.1182
  465SOL    HW2 1395   0.921   0.619   1.288 -2.6066  0.3092 -0.6840
  466SOL     OW 1396   1.620   2.472   2.149 -0.2744 -0.0540  0.4157
  466SOL    HW1 1397   1.523   2.485   2.159 -0.4705 -1.9554 -0.2303
  466SOL    HW2 1398   1.647   2.415   2.229 -0.8033 -2.2382  0.8550
  467SOL     OW 1399   0.660   2.735   2.033 -0.9764 -0.3841  0.3432
  467SOL    HW1 1400   0.631   2.808   2.101  2.2638 -0.1466  1.0617
  467SOL    HW2 1401   0.761   2.724   2.044 -0.2005 -1.6342  0.0784
  468SOL     OW 1402   0.158   1.497   2.152  0.4844 -0.4733 -0.0568
  468SOL    HW1 1403   0.066   1.464   2.123 -0.9557  1.3074 -3.2044
  468SOL    HW2 1404   0.192   1.567   2.086 -0.2108  1.4559  0.6214
  469SOL     OW 1405   1.012   1.978   0.742 -0.2217  0.6098  0.6418
  469SOL    HW1 1406   1.039   1.982   0.646  0.5739  2.9542 -2.0850
  469SOL    HW2 1407   1.089   2.017   0.803  1.2259  0.3281  2.6512
  470SOL     OW 1408   2.151   1.009   2.153  0.2227  0.6461  0.4456
  470SOL    HW1 1409   2.131   1.071   2.073 -2.3005  0.1785  1.0729
  470SOL    HW2 1410   2.189   1.059   2.233  0.5961  1.8306  0.4682
  471SOL     OW 1411   0.646   2.488   0.224  0.5231 -0.2303 -0.1277
  471SOL    HW1 1412   0.613   2.394   0.218 -0.6535  2.7910 -0.9139
  471SOL    HW2 1413   0.681   2.506   0.128  2.1476  1.0484 -1.3598
  472SOL     OW 1414   2.958   2.708   2.270 -0.7103 -0.3221  0.0414
  472SOL    HW1 1415   3.016   2.646   2.329  0.3768 -2.0094  2.1811
  472SOL    HW2 1416   3.014   2.780   2.230  0.9185 -1.7354 -0.3368
  473SOL     OW 1417   0.776   2.972   2.974 -0.2699 -0.2836  0.4827
  473SOL    HW1 1418   0.729   2.919   2.904  1.7797 -1.4418 -0.4959
  473SOL    HW2 1419   0.727   0.005   2.977 -2.2150  0.9875 -0.4371
  474SOL     OW 1420   1.553   0.296   0.683 -0.1942 -0.8469  0.5082
  474SOL    HW1 1421   1.570   0.248   0.597 -0.3977  1.4910  0.9730
  474SOL    HW2 1422   1.614   0.376   0.702 -0.6591 -1.5052  1.0000
  475SOL     OW 1423   1.299   0.217   1.420  0.1929  0.4979  0.0492
  475SOL    HW1 1424   1.268   0.304   1.379  1.6141  1.4328  0.8130
  475SOL    HW2 1425   1.321   0.147   1.348  1.3039 -0.4688 -2.4329
  476SOL     OW 1426   0.154   1.077   1.057  0.0938  0.2417 -0.0276
  476SOL    HW1 1427   0.218   1.007   1.104  2.2679 -1.2013  0.2098
  476SOL    HW2 1428   0.150   1.055   0.956 -2.0170  0.9936  3.4499
  477SOL     OW 1429   0.746   1.928   0.750 -0.4194  0.1460  0.3539
  477SOL    HW1 1430   0.847   1.940   0.751 -2.1025 -1.2733  0.6973
  477SOL    HW2 1431   0.717   1.915   0.845 -0.0996 -0.2230  0.3061
  478SOL     OW 1432   0.097   2.571   2.399 -0.1683 -0.1880  0.0109
  478SOL    HW1 1433   0.137   2.481   2.418  0.1366  1.4802 -0.2732
  478SOL    HW2 1434   0.176   2.641   2.395  4.3852 -2.7298  0.0811
  479SOL     OW 1435   2.962   0.307   1.439 -0.6060 -0.3272 -0.1152
  479SOL    HW1 1436   2.939   0.384   1.378 -1.6504 -2.4750 -1.0837
  479SOL    HW2 1437   3.033   0.327   1.511  4.5851  0.8325  3.2570
  480SOL     OW 1438   2.887   2.509   0.016  0.1654 -0.0350  0.0819
  480SOL    HW1 1439   2.862   2.564   2.986 -1.6024  1.0425 -0.5195
  480SOL    HW2 1440   2.966   2.552   0.059 -1.7443 -1.7290 -1.1224
  481SOL     OW 1441   2.382   1.950   1.749  0.3212  0.1888 -0.5794
  481SOL    HW1 1442   2.386   2.001   1.663  2.1205 -1.7434 -0.7527
  481SOL    HW2 1443   2.306   1.988   1.815 -0.7706  1.6599 -0.5510
  482SOL     OW 1444   1.702   1.536   2.355 -0.3192 -0.0264  0.1710
  482SOL    HW1 1445   1.735   1.451   2.307 -1.0213 -0.7160 -2.2398
  482SOL    HW2 1446   1.669   1.514   2.445 -0.2523  1.6953 -2.3871
  483SOL     OW 1447   0.958   1.401   1.695  0.1110 -0.4940 -0.6063
  483SOL    HW1 1448   1.002   1.448   1.620 -2.1002 -0.9656  0.8201
  483SOL    HW2 1449   0.940   1.305   1.669  2.3377  2.6716  0.5708
  484SOL     OW 1450   0.338   0.524   1.393 -0.4034 -0.2959 -0.4060
  484SOL    HW1 1451   0.390   0.441   1.427 -1.1622  1.4304  1.2422
  484SOL    HW2 1452   0.285   0.497   1.309  0.4999  1.1838 -2.9362
  485SOL     OW 1453   2.259   1.168   3.052 -0.0273  0.2136  0.0865
  485SOL    HW1 1454   2.312   1.168   2.967  0.5107 -2.3034 -0.1787
  485SOL    HW2 1455   2.290   1.102   0.062  1.3824  1.8219  0.0356
  486SOL     OW 1456   1.153   0.048   1.589  0.3460 -0.4605 -0.0475
  486SOL    HW1 1457   1.057   0.069   1.561  0.7727  0.9526 -1.0692
  486SOL    HW2 1458   1.218   0.107   1.543  0.0086  0.7902  0.3204
  487SOL     OW 1459   0.847   2.042   1.544  0.3411 -0.1881  0.5316
  487SOL    HW1 1460   0.829   2.143   1.545  0.2843  0.3884 -1.5853
  487SOL    HW2 1461   0.805   2.000   1.458 -1.3596 -0.0814 -3.2778
  488SOL     OW 1462   2.441   1.650   2.776  0.4513 -0.1144 -0.0438
  488SOL    HW1 1463   2.496   1.728   2.812 -1.0844  0.8595  0.2635
  488SOL    HW2 1464   2.456   1.564   2.832  0.7258 -0.2898 -0.5748
  489SOL     OW 1465   1.926   2.928   0.658  0.4547 -0.3205  0.1556
  489SOL    HW1 1466   1.837   2.872   0.669 -0.0712 -0.6256 -1.2076
  489SOL    HW2 1467   1.957   2.918   0.564 -1.6279 -1.7202 -0.2700
  490SOL     OW 1468   0.896   2.272   0.069 -0.4318 -0.0431 -0.0150
  490SOL    HW1 1469   0.844   2.360   0.080  0.0184  2.3018 -0.0846
  490SOL    HW2 1470   0.936   2.235   0.159  2.4730 -1.7730  0.5239
  491SOL     OW 1471   0.698   1.245   1.537 -0.4384 -0.0518  0.0549
  491SOL    HW1 1472   0.702   1.270   1.438 -0.1912 -0.2919  0.8196
  491SOL    HW2 1473   0.776   1.187   1.568 -0.3219 -0.5012 -0.4760
  492SOL     OW 1474   0.982   0.532   1.949  0.0356  0.0698 -1.1158
  492SOL    HW1 1475   1.001   0.461   2.022  0.3932 -0.0340 -0.0699
  492SOL    HW2 1476   1.026   0.620   1.972  0.9779 -0.0102  0.9324
  493SOL     OW 1477   2.249   1.872   0.890 -0.0584  0.3468 -0.2796
  493SOL    HW1 1478   2.178   1.882   0.820  1.5678  1.1939 -0.5661
  493SOL    HW2 1479   2.341   1.856   0.847  1.5491 -2.2768 -2.1133
  494SOL     OW 1480   0.677   1.577   0.881  0.0646 -0.1255  0.5148
  494SOL    HW1 1481   0.760   1.552   0.824  0.2438  2.0478 -1.5220
  494SOL    HW2 1482   0.592   1.558   0.824 -0.0553  2.5708 -2.8289
  495SOL     OW 1483   2.249   2.486   0.539 -0.0867  0.1173  0.1070
  495SOL    HW1 1484   2.327   2.532   0.495  0.4307 -1.4132  0.1636
  495SOL    HW2 1485   2.257   2.383   0.523  2.1222 -2.2903  0.8401
  496SOL     OW 1486   2.637   3.001   1.366  0.2105  0.0856  0.2131
  496SOL    HW1 1487   2.593   0.021   1.312  1.2239  1.0849 -0.1504
  496SOL    HW2 1488   2.571   2.977   1.439  1.6824  1.6903  0.3900
  497SOL     OW 1489   2.310   1.207   2.443 -0.5844 -0.2635  0.2529
  497SOL    HW1 1490   2.242   1.276   2.416  0.3866 -0.0677 -2.1520
  497SOL    HW2 1491   2.290   1.151   2.524  0.5146 -4.1051 -1.3683
  498SOL     OW 1492   0.212   2.159   1.308  0.3752  0.4477  0.0949
  498SOL    HW1 1493   0.120   2.121   1.298 -1.9636  0.3451 -1.5423
  498SOL    HW2 1494   0.208   2.261   1.316 -0.5362 -0.1233 -1.1467
  499SOL     OW 1495   1.043   2.445   1.917  0.4797  0.1453  0.2875
  499SOL    HW1 1496   0.991   2.388   1.984 -0.4674  0.9716  0.4932
  499SOL    HW2 1497   1.142   2.433   1.928 -2.4025 -0.0875  2.7563
  500SOL     OW 1498   0.676   1.988   0.364 -0.1954  0.1754 -0.0446
  500SOL    HW1 1499   0.709   2.019   0.273  0.2256 -0.7936  0.5532
  500SOL    HW2 1500   0.635   1.894   0.359  1.3128 -2.0123 -1.8280
  501SOL     OW 1501   1.958   0.060   1.089  0.1035  0.2910  0.5072
  501SOL    HW1 1502   1.891   0.019   1.015 -2.8841 -2.3870 -4.1601
  501SOL    HW2 1503   1.897   0.084   1.166  2.0396 -1.5897  0.5838
  502SOL     OW 1504   2.711   0.293   1.604 -0.1725  0.0563  0.3393
  502SOL    HW1 1505   2.779   0.270   1.531  3.6430 -1.7429 -2.4624
  502SOL    HW2 1506   2.748   0.260   1.692  4.7474 -0.1139  0.8794
  503SOL     OW 1507   2.459   1.140   1.683 -0.2210  0.6764 -0.0270
  503SOL    HW1 1508   2.487   1.135   1.583  0.3748  0.4306 -2.1877
  503SOL    HW2 1509   2.530   1.099   1.744  0.1649 -0.2437 -0.7910
  504SOL     OW 1510   1.558   0.979   1.503  0.0122  0.0621 -0.1019
  504SOL    HW1 1511   1.462   0.942   1.503  1.6267  0.5767 -0.5328
  504SOL    HW2 1512   1.616   0.906   1.548  1.7739 -1.6162  0.7303
  505SOL     OW 1513   0.671   2.988   1.591 -0.0598 -0.3221  0.4339
  505SOL    HW1 1514   0.698   2.889   1.600 -2.2925 -1.5320 -0.3398
  505SOL    HW2 1515   0.575   2.983   1.550 -2.9601  0.1032  2.1146
  506SOL     OW 1516   0.147   0.244   0.356  0.0027 -0.5272  0.7154
  506SOL    HW1 1517   0.163   0.317   0.291  1.5484 -1.4247  0.3114
  506SOL    HW2 1518   0.206   0.252   0.433 -2.6686 -0.0686 -0.8120
  507SOL     OW 1519   2.457   0.551   0.193  0.0169 -0.1098  0.1251
  507SOL    HW1 1520   2.433   0.454   0.193 -1.5415  2.7365 -1.7125
  507SOL    HW2 1521   2.410   0.590   0.269  0.0754 -0.0412 -1.4789
  508SOL     OW 1522   1.334   0.225   1.879 -0.3454 -0.0134 -0.0787
  508SOL    HW1 1523   1.232   0.239   1.870 -0.6130  0.4923  1.9608
  508SOL    HW2 1524   1.389   0.260   1.800 -1.3637 -1.7433 -1.1765
  509SOL     OW 1525   1.655   1.762   1.267 -0.0092  0.0851  0.2552
  509SOL    HW1 1526   1.590   1.720   1.204 -1.9571  1.3125 -0.4603
  509SOL    HW2 1527   1.646   1.723   1.357 -0.8233  2.4382 -1.0588
  510SOL     OW 1528   2.557   1.086   1.431 -1.0976  0.4067  0.6194
  510SOL    HW1 1529   2.653   1.055   1.439 -0.1145 -0.5928  1.7789
  510SOL    HW2 1530   2.514   1.056   1.345  0.3783  1.0436 -1.3260
  511SOL     OW 1531   1.682   1.955   1.480 -0.0248 -0.4763 -0.1472
  511SOL    HW1 1532   1.693   1.880   1.421  0.5665  1.3524  0.5478
  511SOL    HW2 1533   1.695   2.044   1.431  3.4674  0.0718 -0.0599
  512SOL     OW 1534   0.152   1.471   0.461 -0.3295  0.3683  0.5058
  512SOL    HW1 1535   0.253   1.451   0.472  0.4544 -0.3029 -2.1980
  512SOL    HW2 1536   0.141   1.560   0.413  0.3066 -1.9219  4.8780
  513SOL     OW 1537   0.110   1.812   2.989  0.2433 -0.2257 -0.1674
  513SOL    HW1 1538   0.075   1.869   2.911  0.8450 -1.3981 -3.2291
  513SOL    HW2 1539   0.122   1.716   2.959 -0.9700  1.7743  3.1966
  514SOL     OW 1540   2.846   1.890   2.260  0.3948 -0.8628 -0.1896
  514SOL    HW1 1541   2.784   1.883   2.341  0.5403  1.1520 -1.1072
  514SOL    HW2 1542   2.872   1.807   2.209  0.3655  2.1722  1.2144
  515SOL     OW 1543   2.100   1.036   0.632  0.5742 -0.1473 -0.1107
  515SOL    HW1 1544   2.068   1.130   0.608 -1.3590 -2.9020 -0.9172
  515SOL    HW2 1545   2.018   0.983   0.661  2.5971  0.6004 -1.0879
  516SOL     OW 1546   2.102   2.647   0.274 -0.0864  0.0526  0.1626
  516SOL    HW1 1547   2.026   2.575   0.270 -0.4370 -0.6861 -1.9986
  516SOL    HW2 1548   2.189   2.617   0.227  1.5550 -1.1861  1.2492
  517SOL     OW 1549   1.027   2.019   2.452 -0.1151 -0.7495 -0.4358
  517SOL    HW1 1550   1.124   2.053   2.462  1.4490  0.3165  0.1018
  517SOL    HW2 1551   1.014   1.932   2.398  1.4418  1.2931  0.4669
  518SOL     OW 1552   0.217   0.114   2.230  0.1797  0.1601 -0.6447
  518SOL    HW1 1553   0.262   0.057   2.155 -0.2390  2.0602 -2.0572
  518SOL    HW2 1554   0.206   0.212   2.197 -0.8200  1.4335  1.4130
  519SOL     OW 1555   0.406   1.422   0.091 -0.3358 -0.1508 -0.1394
  519SOL    HW1 1556   0.318   1.373   0.083 -0.7036 -1.2280  1.0089
  519SOL    HW2 1557   0.481   1.362   0.123  1.0843  0.5631  0.3290
  520SOL     OW 1558   2.915   2.034   2.036  0.2062  0.6596  0.0238
  520SOL    HW1 1559   2.905   1.989   2.125 -2.5109 -0.1503 -1.3842
  520SOL    HW2 1560   2.933   2.136   2.044  3.2568  0.1204 -1.1711
  521SOL     OW 1561   0.739   2.407   2.586 -0.0740  0.1616 -0.1061
  521SOL    HW1 1562   0.755   2.342   2.509  0.1865 -0.4432  0.8944
  521SOL    HW2 1563   0.684   2.487   2.549  0.4678 -0.9823  1.3863
  522SOL     OW 1564   1.656   2.880   1.950  0.1079 -0.2097 -0.3717
  522SOL    HW1 1565   1.638   2.929   2.037  0.2982  0.3812 -0.3587
  522SOL    HW2 1566   1.722   2.936   1.895 -0.7077 -1.9622  1.1343
  523SOL     OW 1567   2.014   1.909   2.006  0.1412  0.1452  0.0326
  523SOL    HW1 1568   2.109   1.937   1.980 -1.8237  1.1391 -2.1903
  523SOL    HW2 1569   1.963   1.988   2.038  2.1602 -3.1758  0.3458
  524SOL     OW 1570   0.608   2.833   0.340  0.0471 -0.1006 -0.6503
  524SOL    HW1 1571   0.692   2.787   0.313  0.1905 -1.4187  2.1463
  524SOL    HW2 1572   0.567   2.891   0.270  2.1914 -0.2507 -0.7873
  525SOL     OW 1573   0.212   0.678   0.402 -1.0095 -0.6938  0.1329
  525SOL    HW1 1574   0.267   0.647   0.319  1.8704  3.7632  1.4638
  525SOL    HW2 1575   0.190   0.598   0.460  0.6268  0.6751  0.3890
  526SOL     OW 1576   0.646   2.899   0.731 -0.7188 -0.4706  0.3952
  526SOL    HW1 1577   0.596   2.816   0.751 -0.2484  0.8575 -2.7964
  526SOL    HW2 1578   0.591   2.977   0.767 -1.4857  1.5236  1.5977
  527SOL     OW 1579   2.195   1.650   1.056  0.0211 -0.2162  0.1811
  527SOL    HW1 1580   2.209   1.742   1.020  2.0854 -1.1533 -0.3034
  527SOL    HW2 1581   2.094   1.635   1.064 -1.8424 -0.6484 -1.7550
  528SOL     OW 1582   2.771   2.695   2.589 -0.5769  0.1610  0.0187
  528SOL    HW1 1583   2.726   2.664   2.503 -0.0966 -0.3332 -1.5414
  528SOL    HW2 1584   2.828   2.783   2.570  0.4731  1.9684  1.8261
  529SOL     OW 1585   1.445   1.663   2.317  0.8603 -0.2317  0.7505
  529SOL    HW1 1586   1.399   1.577   2.282 -0.6587 -0.8364  0.4082
  529SOL    HW2 1587   1.547   1.652   2.296  2.8034  0.1490 -2.2533
  530SOL     OW 1588   1.447   1.251   2.798  0.0870 -0.0891 -0.1152
  530SOL    HW1 1589   1.442   1.301   2.713 -0.3918 -2.3236  2.0362
  530SOL    HW2 1590   1.400   1.161   2.779  1.1533 -1.7875 -1.5285
  531SOL     OW 1591   0.531   1.190   2.886 -0.0815  0.1452  0.0316
  531SOL    HW1 1592   0.442   1.236   2.866 -2.4851  0.7766  1.1433
  531SOL    HW2 1593   0.521   1.088   2.887 -0.7663 -0.9335 -0.1532
  532SOL     OW 1594   1.711   1.463   0.375 -0.0557  0.1171  0.0837
  532SOL    HW1 1595   1.730   1.388   0.445  0.1448 -1.3018 -0.6201
  532SOL    HW2 1596   1.676   1.549   0.414 -0.0005  1.7427 -1.0759
  533SOL     OW 1597   0.607   0.355   2.483  0.0750  0.2752 -0.1062
  533SOL    HW1 1598   0.596   0.370   2.382 -1.1937  0.6329  0.6259
  533SOL    HW2 1599   0.703   0.329   2.515 -1.4986  2.5082  0.4000
  534SOL     OW 1600   0.796   2.535   0.001 -0.1209 -0.3818 -0.1218
  534SOL    HW1 1601   0.727   2.556   2.981 -0.4307 -1.3870 -2.5578
  534SOL    HW2 1602   0.862   2.615   0.012 -0.9781  2.3808  2.0309
  535SOL     OW 1603   0.092   0.016   0.215  0.4602 -0.6060 -0.0118
  535SOL    HW1 1604   0.105   2.992   0.272 -1.0975  2.6712 -0.4688
  535SOL    HW2 1605   0.068   0.101   0.266 -2.8215  2.4766  0.7472
  536SOL     OW 1606   0.026   0.830   2.188 -0.2136 -0.0702 -0.5253
  536SOL    HW1 1607   0.008   0.911   2.122  0.7424  2.3549 -3.7863
  536SOL    HW2 1608   0.111   0.785   2.159 -2.1622 -1.0966  0.6038
  537SOL     OW 1609   1.005   0.223   1.271  0.0098 -0.0620  0.6229
  537SOL    HW1 1610   0.917   0.250   1.306  0.3165  1.6212 -0.6825
  537SOL    HW2 1611   1.059   0.308   1.261 -0.9097  1.6270 -0.5848
  538SOL     OW 1612   0.128   1.783   0.435 -0.0682  0.0614 -0.1149
  538SOL    HW1 1613   0.166   1.758   0.344  0.9427  0.2431 -2.7519
  538SOL    HW2 1614   0.205   1.826   0.483 -1.0234 -0.6444 -1.6139
  539SOL     OW 1615   2.515   1.060   2.055  0.3086 -0.6428  0.3361
  539SOL    HW1 1616   2.433   1.111   2.060 -0.2981 -1.4086 -0.6277
  539SOL    HW2 1617   2.551   1.041   1.966  0.5606  0.0131  0.0919
  540SOL     OW 1618   1.811   1.216   2.002 -0.3500 -0.1763  0.9902
  540SOL    HW1 1619   1.869   1.136   1.981 -0.2019  1.0579  1.6017
  540SOL    HW2 1620   1.863   1.305   1.986 -2.3292  0.5756 -2.4272
  541SOL     OW 1621   0.957   1.119   1.664 -0.3006 -0.1762 -0.2647
  541SOL    HW1 1622   0.885   1.060   1.711 -1.3806  2.2439  0.1387
  541SOL    HW2 1623   1.052   1.103   1.700 -0.0008 -0.3460 -0.1618
  542SOL     OW 1624   1.733   0.231   2.183  0.0558  0.1619  0.0264
  542SOL    HW1 1625   1.781   0.256   2.272  1.6246  0.9228  1.3115
  542SOL    HW2 1626   1.800   0.196   2.116  0.7429 -1.6922  1.7427
  543SOL     OW 1627   1.000   0.457   0.454 -0.4326  0.0119  0.0931
  543SOL    HW1 1628   0.981   0.358   0.443  3.1893  0.7966  3.9297
  543SOL    HW2 1629   1.089   0.481   0.410 -1.0952  1.1914  0.0988
  544SOL     OW 1630   2.565   1.878   2.143 -0.7003  0.5114  0.7242
  544SOL    HW1 1631   2.542   1.801   2.208 -0.1652 -0.3366  2.5257
  544SOL    HW2 1632   2.662   1.914   2.156 -0.1857  3.0193  1.7595
  545SOL     OW 1633   1.841   2.104   2.115 -1.0766  0.1321  0.4648
  545SOL    HW1 1634   1.868   2.147   2.205 -0.3667 -0.8543  1.3061
  545SOL    HW2 1635   1.801   2.175   2.050  1.0964 -0.9288 -0.4845
  546SOL     OW 1636   0.320   0.122   2.885 -0.0257 -0.3794 -0.4865
  546SOL    HW1 1637   0.317   0.154   2.986 -0.1291  0.7165 -0.6958
  546SOL    HW2 1638   0.387   0.045   2.874  0.2844  0.7762  2.0624
  547SOL     OW 1639   1.907   0.804   0.216 -0.2291  0.3700  0.3991
  547SOL    HW1 1640   1.929   0.747   0.300  2.0626  0.1842  0.0307
  547SOL    HW2 1641   1.963   0.888   0.223  1.8794  0.8440  2.3507
  548SOL     OW 1642   2.242   1.563   2.248  0.0423 -0.1441  0.9601
  548SOL    HW1 1643   2.214   1.482   2.303 -0.7274  1.9410 -1.5509
  548SOL    HW2 1644   2.327   1.612   2.284 -0.6141 -1.9117 -1.3151
  549SOL     OW 1645   1.903   0.342   0.462 -0.3247 -0.6967 -0.1093
  549SOL    HW1 1646   1.863   0.435   0.436 -0.6190  0.0638 -0.3534
  549SOL    HW2 1647   1.997   0.360   0.497  3.0904 -0.2714 -1.3070
  550SOL     OW 1648   2.383   2.289   0.997 -0.1275  0.2009  0.2276
  550SOL    HW1 1649   2.317   2.229   1.044  3.0994  2.5971 -2.8502
  550SOL    HW2 1650   2.331   2.370   0.963  0.3598  1.1295  0.4096
  551SOL     OW 1651   1.037   2.720   1.574 -0.3201 -0.0561 -0.2101
  551SOL    HW1 1652   1.090   2.634   1.576  4.2672  0.3529 -1.7867
  551SOL    HW2 1653   1.079   2.785   1.514  2.8961 -2.5769  3.7083
  552SOL     OW 1654   2.830   2.204   2.623  0.3443 -0.7850  0.2139
  552SOL    HW1 1655   2.787   2.124   2.665  1.0531  0.9805 -1.9198
  552SOL    HW2 1656   2.879   2.180   2.537  1.9984  0.0447 -0.6761
  553SOL     OW 1657   0.328   2.961   0.547  0.3069  0.6827 -0.2154
  553SOL    HW1 1658   0.356   3.004   0.638  4.2753  0.5143  1.9510
  553SOL    HW2 1659   0.334   2.861   0.544 -0.4022  0.0394  1.2525
  554SOL     OW 1660   2.232   2.337   1.884 -0.3944  0.2870  0.6023
  554SOL    HW1 1661   2.135   2.319   1.867  1.3883 -0.9350  0.6525
  554SOL    HW2 1662   2.278   2.376   1.802 -1.7613  1.2921  0.9051
  555SOL     OW 1663   1.274   2.131   1.878 -0.5480  0.5782  0.4338
  555SOL    HW1 1664   1.222   2.167   1.799 -1.3625 -1.6062 -2.7925
  555SOL    HW2 1665   1.224   2.046   1.908  0.8322  1.8645 -2.0305
  556SOL     OW 1666   1.360   1.577   1.465  0.2120 -0.2391 -0.7005
  556SOL    HW1 1667   1.326   1.664   1.433  3.5396 -3.2756  1.4268
  556SOL    HW2 1668   1.455   1.591   1.500 -1.6393 -0.4749  0.6295
  557SOL     OW 1669   1.952   2.267   2.310 -0.1483 -0.0207  0.0142
  557SOL    HW1 1670   2.047   2.291   2.273 -0.3113  1.9534 -0.3142
  557SOL    HW2 1671   1.956   2.226   2.407  1.4754  1.7587 -4.1557
  558SOL     OW 1672   0.583   3.017   2.132  0.7312 -0.1397  0.3420
  558SOL    HW1 1673   0.499   3.016   2.071 -2.7151 -1.2037 -0.1815
  558SOL    HW2 1674   0.656   0.026   2.101  0.9670 -0.1393  0.6797
  559SOL     OW 1675   2.335   2.819   1.166 -0.5335 -0.2005 -0.1451
  559SOL    HW1 1676   2.355   2.773   1.253 -0.1002  2.1990 -4.3361
  559SOL    HW2 1677   2.420   2.846   1.122  0.7651 -0.3836  1.8735
  560SOL     OW 1678   0.969   2.299   0.525  0.0964  0.3977 -0.5331
  560SOL    HW1 1679   0.981   2.391   0.562  1.7744  1.2907 -0.3772
  560SOL    HW2 1680   0.874   2.265   0.536  1.3457 -0.6045 -0.2847
  561SOL     OW 1681   1.011   0.428   0.014 -0.1603  0.2732  0.6585
  561SOL    HW1 1682   1.009   0.505   3.004 -1.4703  0.2202  1.5620
  561SOL    HW2 1683   0.927   0.434   0.072  1.9518  0.2728  1.4201
  562SOL     OW 1684   0.705   0.330   2.832  0.8548  0.5094 -0.1331
  562SOL    HW1 1685   0.679   0.376   2.915  2.0801 -4.9458 -0.3632
  562SOL    HW2 1686   0.793   0.280   2.835 -0.0226  1.2821  1.0277
  563SOL     OW 1687   1.495   1.647   2.822 -0.5832  0.7130 -0.4192
  563SOL    HW1 1688   1.597   1.651   2.838 -1.6379 -0.7978  1.4959
  563SOL    HW2 1689   1.474   1.736   2.777  0.7043  2.3441  0.1218
  564SOL     OW 1690   2.545   1.225   0.848  0.4365  0.0317  0.2953
  564SOL    HW1 1691   2.603   1.150   0.887 -1.6676 -2.6400 -0.6139
  564SOL    HW2 1692   2.483   1.181   0.778  2.8881 -2.0441  0.1808
  565SOL     OW 1693   0.940   0.206   2.829 -0.2332  0.2303  0.0460
  565SOL    HW1 1694   0.968   0.113   2.861 -1.5084 -1.1768  0.4248
  565SOL    HW2 1695   1.019   0.268   2.818  2.3412  3.0544 -1.5018
  566SOL     OW 1696   1.366   0.033   2.443 -0.1040 -0.3576 -0.4444
  566SOL    HW1 1697   1.292   3.042   2.393 -1.0889 -1.5406  2.7535
  566SOL    HW2 1698   1.455   3.039   2.449  0.7801 -0.7837  2.1393
  567SOL     OW 1699   1.993   1.270   0.568  0.0904  0.5014 -0.3562
  567SOL    HW1 1700   2.019   1.282   0.470  0.8119 -0.6609  0.2687
  567SOL    HW2 1701   1.997   1.355   0.621 -0.3731 -1.1676 -1.4115
  568SOL     OW 1702   2.075   1.865   0.677 -0.3919  0.5909  0.5546
  568SOL    HW1 1703   2.093   1.826   0.584 -1.0266 -0.9753 -2.1296
  568SOL    HW2 1704   2.022   1.951   0.671  0.5548 -0.6836  2.1687
  569SOL     OW 1705   1.990   1.200   3.024 -0.0260  0.3125 -0.8592
  569SOL    HW1 1706   1.956   1.122   2.973  2.7705 -0.0102  2.5815
  569SOL    HW2 1707   2.091   1.193   3.027 -2.0042  1.5414  1.1467
  570SOL     OW 1708   0.248   2.514   1.965  0.2105  0.5122 -0.5038
  570SOL    HW1 1709   0.164   2.457   1.963  1.4058  0.5611  2.5978
  570SOL    HW2 1710   0.224   2.613   1.967 -1.1885  2.4600 -1.2827
  571SOL     OW 1711   0.131   0.362   2.192 -0.0320  0.1895 -0.0475
  571SOL    HW1 1712   0.218   0.413   2.187 -1.5311 -0.3964  0.9691
  571SOL    HW2 1713   0.069   0.407   2.258 -0.9048  2.5588  2.9330
  572SOL     OW 1714   1.227   1.753   0.803 -0.1840 -0.0841  0.3760
  572SOL    HW1 1715   1.226   1.847   0.843 -0.6890  0.6075  1.5342
  572SOL    HW2 1716   1.141   1.727   0.751 -0.2031 -0.5562  0.3176
  573SOL     OW 1717   1.219   2.011   0.243 -0.1114 -0.3610 -0.2205
  573SOL    HW1 1718   1.276   2.017   0.160 -4.9829  0.1071  1.4302
  573SOL    HW2 1719   1.272   1.975   0.323 -0.3703  0.7574  3.0189
  574SOL     OW 1720   0.876   3.005   0.847 -0.4319  0.1764  0.3470
  574SOL    HW1 1721   0.902   2.941   0.923  0.7575  0.3987 -0.6633
  574SOL    HW2 1722   0.799   2.975   0.790  1.3086  0.9299  0.5388
  575SOL     OW 1723   0.073   0.946   1.410  0.7310  0.2242  0.3093
  575SOL    HW1 1724   3.034   0.943   1.363  0.4846 -0.3999 -1.5548
  575SOL    HW2 1725   0.081   1.030   1.465 -1.4022 -1.0435  1.4119
  576SOL     OW 1726   1.603   0.055   1.467  0.2528  0.4027  0.5080
  576SOL    HW1 1727   1.635   3.014   1.479  0.1741 -1.0738 -0.1883
  576SOL    HW2 1728   1.525   0.053   1.397 -1.0623  1.1903 -1.3453
  577SOL     OW 1729   0.499   0.993   1.857 -0.1660 -0.2118 -0.1929
  577SOL    HW1 1730   0.538   1.064   1.917 -0.3189  0.7419 -2.7503
  577SOL    HW2 1731   0.564   0.918   1.859 -0.1163  0.8980  2.5774
  578SOL     OW 1732   2.134   0.291   2.591  0.3340  0.3632  0.1518
  578SOL    HW1 1733   2.210   0.311   2.651 -1.9763 -0.5100  0.4781
  578SOL    HW2 1734   2.074   0.371   2.576  0.1275 -1.7597 -0.2796
  579SOL     OW 1735   2.533   1.758   1.890 -0.2390 -0.3155  0.4198
  579SOL    HW1 1736   2.481   1.827   1.836 -2.6665 -2.0011 -0.7919
  579SOL    HW2 1737   2.558   1.803   1.978 -2.0024  0.0860  0.5611
  580SOL     OW 1738   1.842   1.162   2.493  0.2271  0.5544  0.4832
  580SOL    HW1 1739   1.830   1.199   2.585  4.2324 -2.8648 -0.1184
  580SOL    HW2 1740   1.887   1.071   2.496 -3.9532  1.5492  2.1866
  581SOL     OW 1741   1.315   1.022   2.734  0.2424 -0.7033  0.4209
  581SOL    HW1 1742   1.219   0.995   2.762  0.8165 -0.9807  1.2827
  581SOL    HW2 1743   1.330   1.004   2.635 -0.6878 -0.3614  2.8538
  582SOL     OW 1744   1.093   1.478   1.466  0.1059  0.1700 -0.3247
  582SOL    HW1 1745   1.079   1.403   1.401 -0.9621  0.2930 -0.7072
  582SOL    HW2 1746   1.191   1.496   1.470 -2.8948 -1.5311 -4.1585
  583SOL     OW 1747   1.755   1.282   1.322 -0.1843  0.2854  0.5051
  583SOL    HW1 1748   1.837   1.228   1.293 -0.4256  0.3197 -0.5492
  583SOL    HW2 1749   1.715   1.339   1.246  0.0993  1.6095 -2.9460
  584SOL     OW 1750   1.824   2.536   0.735  0.1567  0.1215 -0.5773
  584SOL    HW1 1751   1.740   2.488   0.764 -1.8986 -1.2275 -0.9819
  584SOL    HW2 1752   1.855   2.600   0.806 -0.0729 -4.0686 -0.9661
  585SOL     OW 1753   1.968   2.581   2.921  0.1148 -0.0506 -0.5168
  585SOL    HW1 1754   1.906   2.647   2.871  1.3389  0.4301 -3.2199
  585SOL    HW2 1755   1.916   2.549   3.002 -0.9874  1.3920 -1.1088
  586SOL     OW 1756   2.842   2.235   0.851  0.1979  0.0121 -0.2840
  586SOL    HW1 1757   2.829   2.321   0.805  0.8786 -2.4129  3.3038
  586SOL    HW2 1758   2.790   2.230   0.937  2.8377 -0.3583  0.8775
  587SOL     OW 1759   1.005   1.923   0.077 -0.2186 -0.0751  0.1325
  587SOL    HW1 1760   1.080   1.985   0.107  1.7700 -0.2217  0.1863
  587SOL    HW2 1761   1.037   1.859   0.012  0.6039  0.5396  0.2658
  588SOL     OW 1762   0.589   0.120   0.970 -0.1203 -0.3412  0.6370
  588SOL    HW1 1763   0.623   0.062   1.051  0.1875 -0.1126 -0.2193
  588SOL    HW2 1764   0.660   0.191   0.955 -0.1016  1.1196 -0.2332
  589SOL     OW 1765   1.338   0.768   0.704 -0.6306 -0.1173 -0.2742
  589SOL    HW1 1766   1.318   0.774   0.606  0.2151 -1.0252  2.0208
  589SOL    HW2 1767   1.267   0.717   0.757  1.1142  0.1791  1.0046
  590SOL     OW 1768   1.801   2.476   0.051  0.6976  0.1177 -0.2666
  590SOL    HW1 1769   1.861   2.451   0.133 -0.5574 -1.5980  1.3126
  590SOL    HW2 1770   1.705   2.451   0.060  1.4820  3.7847  0.3978
  591SOL     OW 1771   0.123   2.279   2.642  0.2835  0.1447  0.1274
  591SOL    HW1 1772   0.195   2.331   2.591 -0.8853 -0.5325 -0.7140
  591SOL    HW2 1773   0.032   2.316   2.624  1.0304 -0.2913 -0.4146
  592SOL     OW 1774   2.704   1.563   1.926 -0.3770 -0.8899 -0.2653
  592SOL    HW1 1775   2.624   1.628   1.913 -1.6798 -0.3488  3.2486
  592SOL    HW2 1776   2.723   1.506   1.841 -1.9652 -1.7931  0.6103
  593SOL     OW 1777   1.619   1.659   1.511 -0.4561 -0.1192  0.3024
  593SOL    HW1 1778   1.692   1.584   1.502  0.9766 -2.8158  0.7379
  593SOL    HW2 1779   1.612   1.686   1.608 -0.0714  2.0443  1.1103
  594SOL     OW 1780   2.594   1.257   0.126 -0.7170  0.1176  0.1258
  594SOL    HW1 1781   2.696   1.230   0.122  2.7220 -0.5791  1.1058
  594SOL    HW2 1782   2.537   1.178   0.150  0.3158  2.8157 -0.9581
  595SOL     OW 1783   0.790   0.777   0.497  0.0734 -0.2224  0.7419
  595SOL    HW1 1784   0.735   0.828   0.430  0.9958 -1.5503  0.2909
  595SOL    HW2 1785   0.891   0.799   0.490 -0.1237 -1.0141  0.0668
  596SOL     OW 1786   3.031   1.346   1.357  0.1061  0.2499  0.1394
  596SOL    HW1 1787   0.031   1.326   1.274 -0.2232 -0.5076 -1.3179
  596SOL    HW2 1788   3.045   1.448   1.380  3.1425  2.4663 -0.1299
  597SOL     OW 1789   1.013   1.888   1.331  0.0951  1.0506 -0.1298
  597SOL    HW1 1790   0.957   1.893   1.246  1.0680  0.8375 -1.1288
  597SOL    HW2 1791   1.047   1.978   1.363 -1.3354  0.6755  4.1814
  598SOL     OW 1792   2.872   2.935   1.885 -0.2700  0.0558 -0.2778
  598SOL    HW1 1793   2.938   2.906   1.816 -2.0704  0.9049 -0.4495
  598SOL    HW2 1794   2.778   2.941   1.849  2.7059 -0.2332  1.7917
  599SOL     OW 1795   0.275   1.453   2.638  0.1410 -0.1637 -0.0031
  599SOL    HW1 1796   0.276   1.542   2.684  1.6764  0.2831 -1.9205
  599SOL    HW2 1797   0.299   1.464   2.538 -0.9474 -1.4916 -2.4014
  600SOL     OW 1798   0.548   0.916   2.927  0.7425  0.0806  0.0251
  600SOL    HW1 1799   0.575   0.857   2.846 -1.3539  0.8135 -0.5758
  600SOL    HW2 1800   0.492   0.869   3.001  1.2829  0.3083  1.3696
  601SOL     OW 1801   0.645   0.733   1.617  0.0013 -0.6194 -0.1644
  601SOL    HW1 1802   0.743   0.709   1.595  2.0395 -2.0461 -0.0769
  601SOL    HW2 1803   0.632   0.751   1.715 -0.4449 -0.5431  0.4135
  602SOL     OW 1804   0.310   0.209   0.074  0.2506  0.2696 -0.5318
  602SOL    HW1 1805   0.389   0.251   0.124 -0.9171 -2.4764 -0.4756
  602SOL    HW2 1806   0.264   0.143   0.139  0.1270 -1.8960  0.6696
  603SOL     OW 1807   1.553   2.610   2.445 -0.7190 -0.7894  0.1546
  603SOL    HW1 1808   1.581   2.521   2.406 -0.8074  1.2156  0.0863
  603SOL    HW2 1809   1.639   2.664   2.465  1.8075  1.0032  4.1570
  604SOL     OW 1810   0.212   2.317   2.901 -0.6645  0.1267  0.3595
  604SOL    HW1 1811   0.302   2.274   2.897 -2.5039  2.8909 -1.2423
  604SOL    HW2 1812   0.175   2.318   2.808  1.8746 -3.2946 -0.2239
  605SOL     OW 1813   2.183   0.880   1.332 -0.2884 -0.1901  0.3626
  605SOL    HW1 1814   2.124   0.890   1.251  0.3115 -2.9030 -0.0389
  605SOL    HW2 1815   2.153   0.806   1.394  0.2228  1.4442 -2.3892
  606SOL     OW 1816   0.626   1.139   2.567 -0.0556 -0.4612  0.2347
  606SOL    HW1 1817   0.698   1.180   2.634  4.7334  0.5557  1.2235
  606SOL    HW2 1818   0.675   1.078   2.497  0.5230  0.4774  0.4796
  607SOL     OW 1819   0.659   0.410   1.036  0.5412  0.1230 -0.8474
  607SOL    HW1 1820   0.694   0.458   1.120  1.9844  0.2129  0.4745
  607SOL    HW2 1821   0.721   0.343   1.002 -1.8336 -0.0840 -0.3533
  608SOL     OW 1822   2.987   1.791   1.940 -0.2124 -0.3693 -0.4923
  608SOL    HW1 1823   2.959   1.719   2.008  0.5657 -1.3682 -0.2968
  608SOL    HW2 1824   2.948   1.882   1.972 -0.1564 -2.8801  1.2488
  609SOL     OW 1825   2.426   0.599   0.514  0.4851  0.3555  0.1020
  609SOL    HW1 1826   2.477   0.687   0.532  0.4164 -2.6273 -0.0725
  609SOL    HW2 1827   2.348   0.620   0.446  0.7363 -1.1545  1.2081
  610SOL     OW 1828   0.130   2.655   1.357  0.1950  0.2153 -0.0304
  610SOL    HW1 1829   0.163   2.732   1.415 -3.2863  0.3804 -1.6381
  610SOL    HW2 1830   0.071   2.695   1.282  0.4878  0.7442 -1.2204
  611SOL     OW 1831   1.677   2.027   0.258  0.0800  0.2754  0.1205
  611SOL    HW1 1832   1.776   2.024   0.293  1.7836 -2.8196  0.7616
  611SOL    HW2 1833   1.624   1.948   0.290 -1.3797 -1.1618 -0.1237
  612SOL     OW 1834   0.784   0.427   1.775 -0.5367 -0.3572 -0.6445
  612SOL    HW1 1835   0.856   0.467   1.835 -0.5099 -0.1344  0.1624
  612SOL    HW2 1836   0.690   0.442   1.813 -2.6121  0.7110 -0.4316
  613SOL     OW 1837   0.260   2.082   0.733 -0.3965 -0.8426 -0.5646
  613SOL    HW1 1838   0.223   2.036   0.819 -0.1040 -1.0012 -0.3497
  613SOL    HW2 1839   0.354   2.126   0.748  0.5640 -1.3897 -2.5763
  614SOL     OW 1840   1.665   0.233   1.647  0.1064  0.6467  0.1492
  614SOL    HW1 1841   1.700   0.206   1.737 -2.0588 -0.6626 -3.1430
  614SOL    HW2 1842   1.633   0.154   1.596 -0.0628 -0.7520  1.8573
  615SOL     OW 1843   1.506   1.396   0.661 -0.2046  0.3131 -0.1687
  615SOL    HW1 1844   1.590   1.350   0.623  1.6184 -0.0790 -0.9599
  615SOL    HW2 1845   1.418   1.359   0.615  1.2470  0.1138  0.6727
  616SOL     OW 1846   1.942   1.564   0.276  0.3942 -0.3624 -0.3983
  616SOL    HW1 1847   1.859   1.519   0.320 -1.8965  0.7832  1.8613
  616SOL    HW2 1848   1.918   1.629   0.201 -0.1356  0.6401 -0.9899
  617SOL     OW 1849   1.550   0.694   2.963  0.2421 -0.7322  0.5784
  617SOL    HW1 1850   1.574   0.710   0.005 -1.0929 -1.6223  0.6512
  617SOL    HW2 1851   1.627   0.734   2.904  1.5598 -0.2204 -1.0079
  618SOL     OW 1852   0.635   0.746   1.873  0.4145  0.7478  0.1058
  618SOL    HW1 1853   0.666   0.784   1.967 -2.1621  1.4875  1.7120
  618SOL    HW2 1854   0.598   0.652   1.880  0.1771  3.1050  0.6488
  619SOL     OW 1855   3.053   1.606   1.427  0.0613  0.1584  0.1899
  619SOL    HW1 1856   2.999   1.665   1.486 -0.6522  3.6784 -0.4736
  619SOL    HW2 1857   0.064   1.664   1.372 -0.6084  0.0601  0.3266
  620SOL     OW 1858   2.490   2.806   2.659  0.4489 -0.6327 -0.0840
  620SOL    HW1 1859   2.509   2.724   2.605  0.3125  1.7921 -1.4916
  620SOL    HW2 1860   2.394   2.838   2.661  1.1915 -1.8608  0.1667
  621SOL     OW 1861   2.476   1.954   0.085 -0.3372  0.0034  0.0144
  621SOL    HW1 1862   2.481   1.859   0.121  0.0273  0.7829  3.7774
  621SOL    HW2 1863   2.548   2.013   0.123 -1.0454  2.1182  1.4113
  622SOL     OW 1864   1.314   0.265   2.592  0.0603  0.5493  0.0922
  622SOL    HW1 1865   1.317   0.177   2.541 -0.6679  3.3030  0.9357
  622SOL    HW2 1866   1.369   0.335   2.539  0.4992  0.1378  1.5272
  623SOL     OW 1867   0.704   1.663   1.389 -0.6538  0.1375 -0.4819
  623SOL    HW1 1868   0.800   1.674   1.427  0.0011  2.6283  0.2143
  623SOL    HW2 1869   0.713   1.627   1.297 -0.9678 -1.5586  2.0395
  624SOL     OW 1870   2.758   2.990   0.003 -0.1597 -0.1006  0.8295
  624SOL    HW1 1871   2.713   2.977   2.969 -0.3940 -0.8316  0.1786
  624SOL    HW2 1872   2.862   3.000   3.053  2.5643  0.7416  0.2312
  625SOL     OW 1873   0.740   2.135   0.572  0.3189  0.1593  0.0249
  625SOL    HW1 1874   0.766   2.074   0.650  0.3249  1.9839 -3.0222
  625SOL    HW2 1875   0.724   2.079   0.488  3.9625 -0.0189 -1.4140
  626SOL     OW 1876   2.825   0.706   2.599 -0.4295  0.6222 -0.0457
  626SOL    HW1 1877   2.826   0.623   2.538  1.4173 -2.4620 -0.4840
  626SOL    HW2 1878   2.785   0.688   2.690  2.4194  0.3698 -1.0020
  627SOL     OW 1879   1.305   2.029   3.041  0.7332  0.4289 -0.4233
  627SOL    HW1 1880   1.406   2.025   3.042 -3.5845  2.1750 -0.2290
  627SOL    HW2 1881   1.274   2.053   2.946 -0.5030 -0.5268 -1.4352
  628SOL     OW 1882   2.756   2.627   2.853  0.1609  0.0903  0.1557
  628SOL    HW1 1883   2.755   2.656   2.755  0.5494 -2.0955 -1.2890
  628SOL    HW2 1884   2.669   2.649   2.893 -0.4089  0.7750 -1.4581
  629SOL     OW 1885   0.728   2.861   2.718  0.0240  0.2029 -0.1102
  629SOL    HW1 1886   0.829   2.841   2.716  0.4227 -5.3311  0.8513
  629SOL    HW2 1887   0.698   2.897   2.630 -0.4587  2.4616 -0.0813
  630SOL     OW 1888   1.068   0.229   1.863 -0.7298  0.1560  0.0331
  630SOL    HW1 1889   0.998   0.168   1.829 -1.5115  0.5084  2.8588
  630SOL    HW2 1890   1.033   0.287   1.939 -1.9746 -0.7479 -0.6063
  631SOL     OW 1891   2.121   0.941   0.347  0.2549 -0.7448 -0.5098
  631SOL    HW1 1892   2.070   1.020   0.296 -1.6168  0.8296 -0.5540
  631SOL    HW2 1893   2.153   0.964   0.436 -0.3818 -2.6292 -3.4109
  632SOL     OW 1894   2.466   0.177   1.643  0.1069 -0.1201 -0.5265
  632SOL    HW1 1895   2.427   0.138   1.559  0.5299  0.9553  1.3880
  632SOL    HW2 1896   2.558   0.222   1.633  2.3771  1.8947  0.4887
  633SOL     OW 1897   1.077   1.218   0.388 -0.0863  0.5385  0.3894
  633SOL    HW1 1898   1.013   1.261   0.460  1.5283  0.3449  2.3914
  633SOL    HW2 1899   1.057   1.114   0.385 -1.2882  0.3124 -0.5141
  634SOL     OW 1900   2.652   2.617   2.347 -0.2614 -0.3703 -0.1296
  634SOL    HW1 1901   2.700   2.535   2.309 -1.8537  0.2811 -2.7249
  634SOL    HW2 1902   2.626   2.677   2.269  1.2952  0.2896  4.8698
  635SOL     OW 1903   1.874   0.612   0.462  0.0833 -0.1793  0.4294
  635SOL    HW1 1904   1.916   0.616   0.554 -0.5420  1.7175 -0.8630
  635SOL    HW2 1905   1.782   0.649   0.458  2.6429 -1.4232  2.6040
  636SOL     OW 1906   0.712   1.095   0.544  0.2883  0.2015 -0.3966
  636SOL    HW1 1907   0.654   1.133   0.618 -1.1823 -1.9980 -1.1104
  636SOL    HW2 1908   0.663   1.042   0.473  1.1508  0.9995 -0.6339
  637SOL     OW 1909   2.608   2.159   0.211  0.0386  0.1352  0.1846
  637SOL    HW1 1910   2.618   2.147   0.310 -1.5416 -0.2972 -1.8764
  637SOL    HW2 1911   2.694   2.200   0.179  1.5064  2.9698  0.8111
  638SOL     OW 1912   1.635   2.360   2.400  0.1246  0.3619  0.3413
  638SOL    HW1 1913   1.624   2.264   2.360  0.1461 -1.8408 -1.0988
  638SOL    HW2 1914   1.706   2.358   2.472  0.7693  0.0896 -0.7769
  639SOL     OW 1915   1.501   1.979   0.684  0.8126  0.3949 -0.3014
  639SOL    HW1 1916   1.444   1.990   0.765  0.7171 -0.6835 -2.7210
  639SOL    HW2 1917   1.581   1.913   0.712  0.2903 -3.5289  1.5356
  640SOL     OW 1918   1.946   0.080   0.408  0.0392  0.0051 -0.0534
  640SOL    HW1 1919   2.042   0.060   0.381 -1.1443 -0.0667  2.3108
  640SOL    HW2 1920   1.923   0.182   0.403 -1.2056  0.2596  0.6977
  641SOL     OW 1921   2.821   0.200   0.145 -0.4040  0.2619 -0.2902
  641SOL    HW1 1922   2.830   0.107   0.119 -0.2834 -0.3281  1.2858
  641SOL    HW2 1923   2.870   0.206   0.236  1.6437 -1.9548  0.8359
  642SOL     OW 1924   0.583   0.818   1.102  0.3441 -0.4231 -0.1412
  642SOL    HW1 1925   0.504   0.775   1.055  2.5700  0.1816  3.1566
  642SOL    HW2 1926   0.587   0.781   1.196  2.7199  0.5947 -3.3571
  643SOL     OW 1927   0.730   1.304   2.338  0.0476  0.1806  0.4202
  643SOL    HW1 1928   0.739   1.262   2.429  3.0989 -2.9292  2.6766
  643SOL    HW2 1929   0.684   1.246   2.271  0.7615 -1.2182 -0.3267
  644SOL     OW 1930   1.624   2.204   0.615  0.2367 -0.3253  0.2471
  644SOL    HW1 1931   1.585   2.111   0.621  1.8331  0.1291 -1.1672
  644SOL    HW2 1932   1.643   2.228   0.520  0.3386 -0.5671  2.3036
  645SOL     OW 1933   1.340   1.912   0.465  0.3158 -0.0741 -1.0056
  645SOL    HW1 1934   1.406   1.871   0.407  0.4263  1.3804  2.3328
  645SOL    HW2 1935   1.364   1.900   0.562  0.0445 -0.2828 -0.4498
  646SOL     OW 1936   2.957   1.687   2.759  0.3197  0.6813  0.2511
  646SOL    HW1 1937   2.962   1.719   2.663 -1.0874 -1.8875  1.0839
  646SOL    HW2 1938   3.051   1.660   2.785  2.8287  0.1511 -0.9637
  647SOL     OW 1939   0.852   0.195   0.982 -0.0522  0.0173  0.3288
  647SOL    HW1 1940   0.871   0.124   0.912 -0.9984 -0.9808  1.0970
  647SOL    HW2 1941   0.924   0.202   1.052 -0.6596 -0.0262  3.0513
  648SOL     OW 1942   1.577   0.556   1.048 -0.3458 -0.3293 -0.0528
  648SOL    HW1 1943   1.570   0.619   0.969  1.7924  1.4652 -1.3792
  648SOL    HW2 1944   1.619   0.470   1.019  0.7356  0.6775  1.0344
  649SOL     OW 1945   0.909   1.659   0.277  0.1471 -0.4038  0.4004
  649SOL    HW1 1946   0.954   1.722   0.212  2.9582  1.0144  0.5446
  649SOL    HW2 1947   0.984   1.613   0.329  2.4203  1.2281 -2.0021
  650SOL     OW 1948   2.389   1.514   1.890 -0.6168 -0.0237 -0.4336
  650SOL    HW1 1949   2.418   1.616   1.898  0.0595  1.8284  0.8362
  650SOL    HW2 1950   2.353   1.497   1.798 -2.1874  0.8347  2.3955
  651SOL     OW 1951   1.545   2.215   2.690 -0.3049  0.2631  0.2379
  651SOL    HW1 1952   1.558   2.304   2.641 -0.0630 -0.4996  0.1486
  651SOL    HW2 1953   1.603   2.139   2.656  1.3109 -2.3098  1.0804
  652SOL     OW 1954   2.479   1.693   0.190 -0.0162 -0.0404  0.1209
  652SOL    HW1 1955   2.406   1.648   0.141 -0.2088  1.3801 -0.8675
  652SOL    HW2 1956   2.562   1.633   0.197 -0.5592 -0.9037  0.4767
  653SOL     OW 1957   0.238   0.250   0.606  0.2900  0.4712 -0.6724
  653SOL    HW1 1958   0.329   0.297   0.601  0.1089  2.2124  1.4832
  653SOL    HW2 1959   0.243   0.179   0.682 -1.0359 -0.4511  5.1957
  654SOL     OW 1960   2.561   3.030   2.132 -0.0371  0.0693  0.3030
  654SOL    HW1 1961   2.556   0.052   2.199 -2.4546  0.3684  2.2587
  654SOL    HW2 1962   2.512   3.056   2.048  2.3906 -2.5093  0.4120
  655SOL     OW 1963   0.555   2.671   0.838 -0.5152 -0.3559  0.0572
  655SOL    HW1 1964   0.484   2.618   0.897 -1.2222 -2.8727 -1.5505
  655SOL    HW2 1965   0.636   2.611   0.820  0.2292 -1.2563 -0.1972
  656SOL     OW 1966   2.902   3.033   2.698 -0.4038 -0.2076 -0.2692
  656SOL    HW1 1967   2.924   2.999   2.607  3.5790  0.5174  0.7467
  656SOL    HW2 1968   2.983   0.010   2.752  0.1374  1.0067 -1.2496
  657SOL     OW 1969   2.923   0.933   3.052 -0.2504 -0.2111 -0.0665
  657SOL    HW1 1970   2.952   0.976   2.960 -2.0141 -1.0310  0.4750
  657SOL    HW2 1971   2.978   0.852   0.022 -0.7240 -1.8451  0.4258
  658SOL     OW 1972   2.366   1.968   1.339  0.0767  0.1141 -0.5389
  658SOL    HW1 1973   2.340   2.027   1.258 -1.0141 -0.1239 -0.0133
  658SOL    HW2 1974   2.302   1.888   1.345 -0.8147  0.4081  2.9061
  659SOL     OW 1975   1.804   2.738   0.376 -0.0492  0.4525  0.1679
  659SOL    HW1 1976   1.860   2.671   0.431  2.4712 -0.0342 -0.0214
  659SOL    HW2 1977   1.741   2.690   0.311 -3.0800 -0.2136 -1.0805
  660SOL     OW 1978   1.578   0.850   2.519 -0.2032  0.0381 -0.1007
  660SOL    HW1 1979   1.655   0.898   2.480 -1.1568  1.3986 -0.0368
  660SOL    HW2 1980   1.547   0.771   2.465 -2.3992  0.3542  2.7083
  661SOL     OW 1981   3.030   2.057   1.239 -0.0338  0.2479 -0.1332
  661SOL    HW1 1982   2.992   2.148   1.233  0.9658  0.6849  3.1441
  661SOL    HW2 1983   2.990   1.991   1.175 -1.7210  1.8386 -3.6682
  662SOL     OW 1984   0.441   0.726   0.042  0.1501 -0.3183 -0.7840
  662SOL    HW1 1985   0.347   0.762   0.014 -3.9754  0.8176 -2.2317
  662SOL    HW2 1986   0.431   0.649   0.110 -0.5491  0.2677 -0.1103
  663SOL     OW 1987   2.046   1.990   1.270 -0.0179  0.0172 -0.1472
  663SOL    HW1 1988   2.037   2.076   1.326 -0.3489 -0.2773 -0.6841
  663SOL    HW2 1989   2.091   1.917   1.327 -0.8700 -0.4210  1.1983
  664SOL     OW 1990   0.766   1.544   1.142  0.1212 -0.1742 -0.0154
  664SOL    HW1 1991   0.710   1.540   1.055 -2.2130  0.1758  1.2507
  664SOL    HW2 1992   0.866   1.526   1.126  1.6555 -0.0130  0.2154
  665SOL     OW 1993   1.781   2.648   1.971 -0.1183  1.0715  0.0157
  665SOL    HW1 1994   1.732   2.735   1.942  2.1824  2.6914 -0.2482
  665SOL    HW2 1995   1.719   2.589   2.031  1.5659 -0.7590  0.2750
  666SOL     OW 1996   2.865   2.715   0.400 -0.2956 -0.0504  0.3461
  666SOL    HW1 1997   2.811   2.748   0.314 -0.4919 -1.6433  2.5112
  666SOL    HW2 1998   2.849   2.775   0.474 -0.1443 -0.6248  0.9331
  667SOL     OW 1999   2.750   1.387   1.734 -0.3542  0.5249 -0.3314
  667SOL    HW1 2000   2.701   1.382   1.644  0.4215 -1.3747  0.4657
  667SOL    HW2 2001   2.823   1.318   1.729 -1.5103 -1.5167 -0.7220
  668SOL     OW 2002   0.269   0.573   2.499 -0.2312  0.5532  0.2515
  668SOL    HW1 2003   0.334   0.545   2.570 -0.1314 -4.4854 -1.0627
  668SOL    HW2 2004   0.179   0.599   2.540 -1.9575 -1.7101  0.3210
  669SOL     OW 2005   2.210   1.851   2.461 -0.2433 -0.1012 -0.3240
  669SOL    HW1 2006   2.244   1.886   2.369  2.1701 -0.7755  0.0780
  669SOL    HW2 2007   2.148   1.767   2.451  2.6545 -0.2250 -0.2191
  670SOL     OW 2008   2.620   1.435   2.147 -0.2220  0.1443  0.1950
  670SOL    HW1 2009   2.526   1.400   2.124 -0.8489 -0.9292 -1.3141
  670SOL    HW2 2010   2.664   1.466   2.058  2.1558  2.4740 -1.0168
  671SOL     OW 2011   3.022   1.553   0.690 -0.1252  0.4473  0.1661
  671SOL    HW1 2012   3.055   1.539   0.598 -1.0428 -0.1842  0.6830
  671SOL    HW2 2013   2.930   1.599   0.696 -2.9775 -0.8077  1.0165
  672SOL     OW 2014   2.306   0.630   1.985  0.1839  0.4726 -0.5425
  672SOL    HW1 2015   2.291   0.693   1.907  0.2880 -0.4340  0.9147
  672SOL    HW2 2016   2.404   0.627   2.012  1.8572  0.9395 -4.0243
  673SOL     OW 2017   2.433   2.688   1.896  0.4752 -0.0984  0.9063
  673SOL    HW1 2018   2.482   2.734   1.976 -0.3137 -0.2298  0.6666
  673SOL    HW2 2019   2.350   2.734   1.859 -0.9230  1.7473  0.2222
  674SOL     OW 2020   1.636   2.523   1.566  0.1662 -0.7050  0.1866
  674SOL    HW1 2021   1.645   2.591   1.646 -1.0085 -0.5392  2.5605
  674SOL    HW2 2022   1.582   2.439   1.590 -0.5974 -2.2996 -4.0468
  675SOL     OW 2023   0.591   0.864   0.691 -0.2265 -0.7544 -0.3208
  675SOL    HW1 2024   0.578   0.964   0.704 -0.8131  0.5866 -1.5397
  675SOL    HW2 2025   0.648   0.845   0.613 -0.7890  0.5344 -0.5267
  676SOL     OW 2026   1.711   1.251   0.539 -0.5319  0.0189  0.4789
  676SOL    HW1 2027   1.681   1.153   0.538 -0.9311 -1.6247  1.5566
  676SOL    HW2 2028   1.815   1.249   0.560  1.4925 -2.6079  1.7144
  677SOL     OW 2029   2.942   1.536   2.355  0.2610  0.5006  0.7868
  677SOL    HW1 2030   2.840   1.520   2.369 -0.7201 -2.6942 -0.4851
  677SOL    HW2 2031   2.990   1.443   2.361 -0.0424 -1.6647  1.5914
  678SOL     OW 2032   2.584   1.971   1.148 -0.5478  0.0115  0.6098
  678SOL    HW1 2033   2.666   1.959   1.212  0.5628 -1.9120 -0.3563
  678SOL    HW2 2034   2.500   1.970   1.202 -0.1072 -1.5964 -1.1498
  679SOL     OW 2035   1.954   2.501   0.510 -0.0226  0.1275  0.0231
  679SOL    HW1 2036   2.048   2.531   0.529  0.4564  2.6187  1.5087
  679SOL    HW2 2037   1.891   2.523   0.587  2.3030  3.2145  0.0709
  680SOL     OW 2038   2.799   2.291   1.984 -0.0472 -0.3526  0.4461
  680SOL    HW1 2039   2.742   2.227   1.934  0.1851  2.8586 -0.8257
  680SOL    HW2 2040   2.820   2.373   1.927  1.3199 -2.3331  0.4883
  681SOL     OW 2041   0.247   1.316   1.616 -0.1034  0.1184  0.1406
  681SOL    HW1 2042   0.326   1.251   1.634  2.6269  0.1538  1.3336
  681SOL    HW2 2043   0.271   1.409   1.653 -0.7111  0.4439 -3.6382
  682SOL     OW 2044   1.216   2.652   0.723  0.1176 -0.3757 -0.1078
  682SOL    HW1 2045   1.167   2.682   0.812 -0.5054  0.3912  2.0406
  682SOL    HW2 2046   1.255   2.736   0.691 -1.3812 -3.4750 -1.6063
  683SOL     OW 2047   2.279   1.254   1.002  0.2652  0.1828 -0.0768
  683SOL    HW1 2048   2.287   1.207   1.092  1.8318  1.4335  1.7876
  683SOL    HW2 2049   2.366   1.262   0.954 -1.3035  1.8204  1.1780
  684SOL     OW 2050   0.578   2.022   2.305  0.3331 -0.5591  0.1846
  684SOL    HW1 2051   0.623   2.008   2.401 -1.1612  1.6891  2.3608
  684SOL    HW2 2052   0.484   1.994   2.307  0.3528  2.2803  1.1692
  685SOL     OW 2053   1.630   1.644   0.115  0.6067 -0.4505  0.5737
  685SOL    HW1 2054   1.658   1.544   0.124 -0.9757 -0.1431  0.9261
  685SOL    HW2 2055   1.705   1.713   0.107  1.2160  1.7625  1.0601
  686SOL     OW 2056   2.844   0.640   1.448  0.0044  0.1214 -0.6076
  686SOL    HW1 2057   2.748   0.614   1.444  2.0456 -0.8505  0.4177
  686SOL    HW2 2058   2.852   0.731   1.403 -1.0194 -1.6253 -0.7704
  687SOL     OW 2059   0.982   2.242   2.870 -0.3516 -0.0086  0.3889
  687SOL    HW1 2060   0.993   2.237   2.974  0.3491  1.8171 -1.3522
  687SOL    HW2 2061   0.983   2.148   2.827 -3.5560 -0.3084  1.7883
  688SOL     OW 2062   0.155   2.036   1.992 -0.5685 -0.1986 -0.1971
  688SOL    HW1 2063   0.072   2.084   1.953 -0.0127 -0.5445  1.0665
  688SOL    HW2 2064   0.129   1.958   2.050 -3.2338 -0.7603  0.1769
  689SOL     OW 2065   1.945   0.672   1.740 -0.4138 -0.0101 -0.6099
  689SOL    HW1 2066   1.861   0.689   1.681  2.7821 -1.4980 -3.0306
  689SOL    HW2 2067   1.912   0.659   1.835 -1.0486 -4.0165 -1.5690
  690SOL     OW 2068   2.336   0.700   0.973 -0.7636  0.2019  0.4801
  690SOL    HW1 2069   2.277   0.676   1.054  1.5732  0.2169  2.8995
  690SOL    HW2 2070   2.330   0.799   0.958 -0.3967  0.3423 -0.5984
  691SOL     OW 2071   0.728   1.721   1.764  0.7229  0.1731  0.2291
  691SOL    HW1 2072   0.743   1.673   1.855 -0.5432  0.6859  1.1145
  691SOL    HW2 2073   0.810   1.717   1.705  0.2720  1.1379  0.2882
  692SOL     OW 2074   2.158   0.318   1.370 -0.1026 -0.0848  0.0246
  692SOL    HW1 2075   2.089   0.275   1.434  0.5724  0.6007  1.6547
  692SOL    HW2 2076   2.137   0.291   1.271  0.0453  0.1069 -0.3354
  693SOL     OW 2077   0.512   1.180   2.173  0.3157 -0.0249  0.0751
  693SOL    HW1 2078   0.463   1.104   2.217 -1.4943  1.9099 -0.1618
  693SOL    HW2 2079   0.448   1.253   2.144  2.8272 -0.0202  2.7916
  694SOL     OW 2080   1.553   0.071   1.085  0.0897 -0.3585  0.3085
  694SOL    HW1 2081   1.495   0.122   1.020  2.8619  0.3243 -2.7365
  694SOL    HW2 2082   1.636   0.031   1.037  0.5542 -0.5616  3.1518
  695SOL     OW 2083   1.266   1.085   1.731 -0.3815 -0.1161 -0.0614
  695SOL    HW1 2084   1.253   1.005   1.671  0.6038  2.2998 -0.5617
  695SOL    HW2 2085   1.350   1.072   1.789  0.1317 -2.0039  1.6967
  696SOL     OW 2086   1.251   0.058   0.371  0.6175 -0.2961 -0.2927
  696SOL    HW1 2087   1.189   0.007   0.431  2.1155 -1.7585 -0.9997
  696SOL    HW2 2088   1.264   0.005   0.288  0.5135  0.2473  0.2048
  697SOL     OW 2089   0.987   0.564   0.721  0.5064 -0.4554  0.2480
  697SOL    HW1 2090   0.904   0.557   0.779  0.7855  0.7920 -2.3944
  697SOL    HW2 2091   0.964   0.509   0.637 -1.0719 -1.0867 -2.1724
  698SOL     OW 2092   1.117   1.103   2.475  0.2971  0.6950 -0.2069
  698SOL    HW1 2093   1.114   1.171   2.552 -0.0286 -0.4764  0.9520
  698SOL    HW2 2094   1.172   1.022   2.501 -0.5972 -2.6907  2.2881
  699SOL     OW 2095   1.682   1.441   1.131 -0.3336 -0.2665 -0.0984
  699SOL    HW1 2096   1.594   1.481   1.154  1.1870  0.6350 -2.1177
  699SOL    HW2 2097   1.670   1.399   1.040  0.4212  0.2517  4.0805
  700SOL     OW 2098   1.412   0.277   0.371  0.5385  0.6555 -0.1113
  700SOL    HW1 2099   1.342   0.205   0.392  0.5612  3.0695 -0.4766
  700SOL    HW2 2100   1.506   0.243   0.377 -2.4189  0.0504 -0.4345
  701SOL     OW 2101   2.790   0.121   2.315  0.1005 -0.5076 -0.2293
  701SOL    HW1 2102   2.819   0.091   2.220 -2.7677  0.5778 -1.2521
  701SOL    HW2 2103   2.849   0.076   2.380  0.3035 -0.1201  1.8626
  702SOL     OW 2104   1.121   0.195   0.067  0.2243  0.1413  0.3005
  702SOL    HW1 2105   1.076   0.286   0.045  0.3335 -0.1927  0.4947
  702SOL    HW2 2106   1.216   0.217   0.077 -2.1707  3.4363  1.3668
  703SOL     OW 2107   2.366   2.703   2.294 -0.2410 -0.1516 -0.4188
  703SOL    HW1 2108   2.348   2.611   2.326 -0.4544 -1.5456 -0.5091
  703SOL    HW2 2109   2.454   2.708   2.240  2.4613  0.3001 -1.5335
  704SOL     OW 2110   0.706   2.251   0.941  0.2570  0.7042 -0.1282
  704SOL    HW1 2111   0.626   2.266   0.882  2.0306 -2.5958 -1.0966
  704SOL    HW2 2112   0.677   2.174   1.007  3.9869 -3.2032  2.9558
  705SOL     OW 2113   2.768   0.210   1.881 -1.0929  0.2879  0.0442
  705SOL    HW1 2114   2.720   0.277   1.937  0.5517 -1.0210 -2.6337
  705SOL    HW2 2115   2.778   0.125   1.939 -2.2076 -1.4885 -0.6389
  706SOL     OW 2116   1.666   0.189   0.438 -0.3005 -0.0754  0.1575
  706SOL    HW1 2117   1.752   0.241   0.460 -0.6608  2.3494 -1.1040
  706SOL    HW2 2118   1.684   0.091   0.412  2.1526  0.2363 -0.6374
  707SOL     OW 2119   1.306   1.866   2.216 -0.1864 -0.4890 -0.2285
  707SOL    HW1 2120   1.366   1.784   2.230  0.7233  1.0934 -0.1156
  707SOL    HW2 2121   1.336   1.945   2.271  0.6045 -1.7674 -0.8714
  708SOL     OW 2122   0.046   2.212   1.807  0.4215  0.2877 -0.2399
  708SOL    HW1 2123   0.144   2.198   1.779 -0.4920  0.2711  0.1138
  708SOL    HW2 2124   3.046   2.208   1.724 -1.4416  2.0424  1.4949
  709SOL     OW 2125   1.807   0.183   1.887 -0.0559 -0.0527 -0.0613
  709SOL    HW1 2126   1.851   0.093   1.866 -2.5875 -0.7003 -0.6065
  709SOL    HW2 2127   1.878   0.259   1.894  2.8967  1.3934  0.4298
  710SOL     OW 2128   2.323   0.526   1.450  0.2514 -0.4480 -0.0079
  710SOL    HW1 2129   2.269   0.445   1.433  1.6465  4.1570  0.3450
  710SOL    HW2 2130   2.425   0.507   1.425  5.1864  0.0167 -0.1331
  711SOL     OW 2131   0.348   1.908   0.536 -0.2530  0.7884  0.4001
  711SOL    HW1 2132   0.330   1.990   0.588  0.4595 -0.8802  0.6832
  711SOL    HW2 2133   0.432   1.868   0.572  1.4568  2.9842  1.2450
  712SOL     OW 2134   0.625   2.623   2.478  0.4790  0.1642  0.2292
  712SOL    HW1 2135   0.594   2.585   2.390 -0.8363 -1.1771  5.0927
  712SOL    HW2 2136   0.627   2.724   2.464 -0.5355  1.7746 -3.2462
  713SOL     OW 2137   1.893   0.969   2.913 -0.0054  0.0332 -0.4804
  713SOL    HW1 2138   1.844   0.922   2.839 -1.1500  2.2784  2.6464
  713SOL    HW2 2139   1.958   0.906   2.960 -1.2115 -3.1544  2.0820
  714SOL     OW 2140   0.621   1.829   0.972 -0.4213 -0.2218  0.7003
  714SOL    HW1 2141   0.655   1.737   0.930  0.4326  1.9048 -2.0355
  714SOL    HW2 2142   0.523   1.812   1.000  0.8463  1.1839  0.0509
  715SOL     OW 2143   1.826   2.948   3.012  0.0493  0.0452  0.4640
  715SOL    HW1 2144   1.912   2.922   0.002  0.9422  2.0233  0.9455
  715SOL    HW2 2145   1.809   2.891   2.926 -0.1242 -0.5526 -1.0154
  716SOL     OW 2146   0.116   0.182   1.746 -0.2512 -0.2550  0.2567
  716SOL    HW1 2147   0.108   0.273   1.698  0.6888 -2.2113  0.1744
  716SOL    HW2 2148   0.091   0.176   1.845 -0.4446 -2.4674 -1.7208
  717SOL     OW 2149   0.277   1.027   0.152 -0.4007  0.1650  0.0393
  717SOL    HW1 2150   0.210   0.950   0.161 -1.1377 -0.7799  0.0234
  717SOL    HW2 2151   0.249   1.103   0.089 -1.5902  1.5681  0.0200
  718SOL     OW 2152   1.294   0.907   2.489  0.3492  0.1345 -0.3475
  718SOL    HW1 2153   1.244   0.821   2.525 -2.6828 -0.5105 -1.3167
  718SOL    HW2 2154   1.380   0.872   2.455 -3.3427  0.7534 -0.5005
  719SOL     OW 2155   2.732   1.656   3.004 -0.4382  0.4274  0.1690
  719SOL    HW1 2156   2.722   1.590   0.024 -1.4641 -2.0280 -1.6116
  719SOL    HW2 2157   2.725   1.606   2.915  2.7920  0.0097 -1.1402
  720SOL     OW 2158   1.263   0.854   1.022  0.2556 -0.5338 -0.1301
  720SOL    HW1 2159   1.232   0.768   0.977 -1.8920  0.3086 -0.1712
  720SOL    HW2 2160   1.305   0.842   1.116  1.6617 -0.0381 -1.8980
  721SOL     OW 2161   2.761   0.793   0.221 -0.0137 -0.4273 -0.0523
  721SOL    HW1 2162   2.777   0.693   0.251 -0.1536 -4.7518  1.0810
  721SOL    HW2 2163   2.843   0.832   0.173  0.6940  1.6035  0.0768
  722SOL     OW 2164   1.082   0.945   2.829  0.3024  0.2060  0.1887
  722SOL    HW1 2165   1.098   0.864   2.893 -0.3131  1.5588  2.5589
  722SOL    HW2 2166   0.984   0.947   2.794 -0.3972  1.4771 -0.0141
  723SOL     OW 2167   0.210   1.125   0.453  0.1049  0.1813  0.2101
  723SOL    HW1 2168   0.261   1.211   0.454 -1.0886 -1.5697 -0.7610
  723SOL    HW2 2169   0.281   1.052   0.439  0.5567  0.0024 -0.0235
  724SOL     OW 2170   0.890   2.042   2.017 -0.1537 -0.3763 -0.4907
  724SOL    HW1 2171   0.895   2.116   2.089 -0.4745  1.9423 -1.7904
  724SOL    HW2 2172   0.841   2.079   1.933  1.6628  2.9364 -2.6923
  725SOL     OW 2173   2.449   0.831   1.325 -0.6344 -0.3686  0.4548
  725SOL    HW1 2174   2.347   0.826   1.312 -0.5488 -0.3798 -0.6581
  725SOL    HW2 2175   2.475   0.804   1.417 -2.2774  2.5420 -0.9018
  726SOL     OW 2176   1.676   2.788   0.677  0.2467 -0.1260  0.1403
  726SOL    HW1 2177   1.661   2.689   0.660  0.0772 -1.5352 -2.2689
  726SOL    HW2 2178   1.611   2.835   0.622  1.4780 -2.9459  0.3405
  727SOL     OW 2179   1.213   0.906   2.035 -0.5083 -0.0658 -0.0185
  727SOL    HW1 2180   1.184   0.979   2.101  0.0594  1.4576  0.4747
  727SOL    HW2 2181   1.290   0.940   1.979  0.0763 -1.8763 -0.9828
  728SOL     OW 2182   1.259   2.678   1.030  0.3884  0.2779 -0.1601
  728SOL    HW1 2183   1.317   2.608   1.076 -1.2603  0.4438  1.8307
  728SOL    HW2 2184   1.299   2.773   1.041 -1.6146 -0.8538  0.8219
  729SOL     OW 2185   1.981   0.892   1.133  0.0896  0.7703  0.1879
  729SOL    HW1 2186   1.981   0.888   1.033 -0.4372 -0.9691  1.6317
  729SOL    HW2 2187   1.905   0.839   1.177 -1.3059  2.9779 -0.1967
  730SOL     OW 2188   0.824   1.848   2.197 -0.3388 -0.4790  0.0911
  730SOL    HW1 2189   0.818   1.932   2.137 -0.7187  2.1162  1.3150
  730SOL    HW2 2190   0.742   1.836   2.255  2.5083 -0.6655  0.0232
  731SOL     OW 2191   0.522   0.317   0.662  0.7527 -0.1838 -0.5064
  731SOL    HW1 2192   0.550   0.223   0.637 -1.1669  2.6103 -1.2477
  731SOL    HW2 2193   0.579   0.384   0.622 -2.9115 -1.8088  2.2076
  732SOL     OW 2194   0.719   0.713   0.091  0.0809  0.5493 -0.4385
  732SOL    HW1 2195   0.624   0.755   0.084  0.2122 -2.0448 -0.7563
  732SOL    HW2 2196   0.793   0.784   0.101 -0.1718 -1.1683 -0.0096
  733SOL     OW 2197   0.966   2.335   0.919 -0.2210  0.2288  0.4275
  733SOL    HW1 2198   1.028   2.292   0.850 -0.6782  0.2011  2.6745
  733SOL    HW2 2199   0.875   2.294   0.921  1.2368  1.0909  0.2325
  734SOL     OW 2200   0.130   2.004   2.541  0.1151  0.1313 -0.4468
  734SOL    HW1 2201   0.060   2.011   2.465  2.4773  0.0200 -0.2975
  734SOL    HW2 2202   0.146   2.098   2.575 -3.8369 -0.6600  2.1292
  735SOL     OW 2203   0.849   2.858   1.253  0.0050 -0.1255  0.4851
  735SOL    HW1 2204   0.928   2.922   1.262 -1.2729  1.8357  1.4494
  735SOL    HW2 2205   0.850   2.822   1.153 -1.4685 -1.2501 -2.6610
  736SOL     OW 2206   1.589   2.984   0.132  0.1439 -0.3237  0.0717
  736SOL    HW1 2207   1.632   2.993   0.221 -0.3033  1.3049 -0.7167
  736SOL    HW2 2208   1.652   2.968   0.054 -2.2825  1.4445  1.9351
  737SOL     OW 2209   2.938   0.217   0.384  0.3965 -0.2429  0.0937
  737SOL    HW1 2210   3.031   0.243   0.405 -0.5031 -0.3608  0.4940
  737SOL    HW2 2211   2.868   0.257   0.441  2.4659 -1.8562 -2.5471
  738SOL     OW 2212   2.566   2.873   1.037  0.1333  0.4378 -0.0922
  738SOL    HW1 2213   2.638   2.939   1.015  2.4348  0.1308  1.0764
  738SOL    HW2 2214   2.491   2.879   0.969 -0.0581  0.5876 -0.6943
  739SOL     OW 2215   1.603   2.255   0.348  0.1933  0.4184 -0.3203
  739SOL    HW1 2216   1.638   2.169   0.306 -0.8283  2.0654  1.0815
  739SOL    HW2 2217   1.571   2.313   0.274  1.5894 -0.7075  0.2645
  740SOL     OW 2218   1.397   0.189   0.905  0.2043  0.2638  0.5087
  740SOL    HW1 2219   1.310   0.133   0.902 -0.0531  1.2020  0.0832
  740SOL    HW2 2220   1.446   0.195   0.815  1.0714 -0.5487 -0.7840
  741SOL     OW 2221   2.220   0.671   0.359 -0.3014 -0.1932  0.5894
  741SOL    HW1 2222   2.188   0.766   0.344 -0.8795  2.0405 -2.1301
  741SOL    HW2 2223   2.161   0.604   0.304  0.4940 -3.0704  0.1410
  742SOL     OW 2224   1.312   2.093   2.466 -0.3411  0.1517  0.2017
  742SOL    HW1 2225   1.302   2.176   2.526 -2.9439  0.9082  1.8245
  742SOL    HW2 2226   1.408   2.090   2.427  0.0921  0.2017  1.3168
  743SOL     OW 2227   1.997   0.382   1.759 -0.2199  0.4385  0.2510
  743SOL    HW1 2228   1.986   0.445   1.836 -3.1131 -4.4962 -0.3138
  743SOL    HW2 2229   2.097   0.364   1.745 -0.3542 -0.5788  1.6970
  744SOL     OW 2230   2.295   0.444   0.895  0.1451  0.2724 -0.4237
  744SOL    HW1 2231   2.365   0.376   0.877 -1.0556 -1.1713 -0.7722
  744SOL    HW2 2232   2.323   0.529   0.941 -0.3072 -0.3536  0.8492
  745SOL     OW 2233   1.794   1.453   1.514  0.4581 -0.2667  0.6211
  745SOL    HW1 2234   1.772   1.391   1.593  2.1172 -0.3049 -0.2580
  745SOL    HW2 2235   1.780   1.406   1.425 -0.5080 -0.5118  0.3907
  746SOL     OW 2236   1.653   1.316   0.896  0.1579 -0.4408  0.0896
  746SOL    HW1 2237   1.612   1.314   0.803  1.0214 -0.0097  1.2641
  746SOL    HW2 2238   1.734   1.256   0.896  2.3226 -0.3534 -1.1878
  747SOL     OW 2239   2.004   1.184   1.182  0.0787  0.0689 -0.1526
  747SOL    HW1 2240   2.100   1.190   1.219 -0.1366  0.6134  1.8617
  747SOL    HW2 2241   1.984   1.096   1.137  0.8930  1.0314  0.6716
  748SOL     OW 2242   0.241   2.432   0.801  0.2913 -0.1387  0.7300
  748SOL    HW1 2243   0.288   2.427   0.890  1.9492  0.6497 -0.8213
  748SOL    HW2 2244   0.303   2.428   0.716 -2.5778  0.9415 -0.6006
  749SOL     OW 2245   2.932   2.871   2.489 -0.4232 -0.6273 -0.1052
  749SOL    HW1 2246   3.013   2.937   2.485  1.0163  0.4657  0.9119
  749SOL    HW2 2247   2.935   2.802   2.409  0.6978 -0.7780 -1.1993
  750SOL     OW 2248   2.569   0.637   0.884 -0.6540  0.2169  0.6565
  750SOL    HW1 2249   2.637   0.634   0.960 -1.3829  1.8107  2.3621
  750SOL    HW2 2250   2.485   0.672   0.920  3.3442 -2.0443 -2.0204
  751SOL     OW 2251   2.748   0.356   0.505 -0.3337  0.1179  0.0868
  751SOL    HW1 2252   2.767   0.424   0.434 -2.3313 -0.2480  0.9308
  751SOL    HW2 2253   2.690   0.388   0.584  0.0768 -0.8431  0.5660
  752SOL     OW 2254   0.229   2.855   0.869 -0.2380  0.0412 -0.1932
  752SOL    HW1 2255   0.155   2.871   0.938  2.0851  0.7567 -1.7520
  752SOL    HW2 2256   0.185   2.813   0.786 -1.5719 -1.8244 -0.4881
  753SOL     OW 2257   1.328   0.488   2.031  0.1455  0.1532 -0.5876
  753SOL    HW1 2258   1.422   0.446   2.041  1.2915 -1.0638  0.7386
  753SOL    HW2 2259   1.318   0.548   1.951 -2.4998 -3.2751  1.3503
  754SOL     OW 2260   1.761   2.294   1.922  0.5250 -0.8047 -0.1189
  754SOL    HW1 2261   1.738   2.393   1.941 -0.0963  1.2583 -0.9448
  754SOL    HW2 2262   1.683   2.237   1.891 -0.0062 -2.3413 -2.4275
  755SOL     OW 2263   2.762   1.022   0.688  0.3161  0.5423  0.5093
  755SOL    HW1 2264   2.807   1.102   0.731  1.8716  0.9866  2.5805
  755SOL    HW2 2265   2.724   1.053   0.597 -3.9213  0.6710  1.3117
  756SOL     OW 2266   1.402   1.441   2.604  0.5122 -0.3643 -0.0936
  756SOL    HW1 2267   1.321   1.497   2.640  0.1151  2.0620  0.6417
  756SOL    HW2 2268   1.487   1.490   2.627  0.5128  0.3138 -1.9707
  757SOL     OW 2269   1.518   2.898   0.480  0.2719  0.3210  0.1180
  757SOL    HW1 2270   1.457   2.842   0.415  0.8456  1.9945 -0.6852
  757SOL    HW2 2271   1.591   2.937   0.421 -1.2354  0.5247 -1.2746
  758SOL     OW 2272   0.285   0.137   1.353  0.0422 -0.2021  0.1560
  758SOL    HW1 2273   0.193   0.090   1.361  0.4839 -2.1405 -1.4218
  758SOL    HW2 2274   0.299   0.178   1.262  0.7155  0.7155  0.8761
  759SOL     OW 2275   0.272   0.926   1.236 -0.4820  0.4466 -0.2237
  759SOL    HW1 2276   0.341   0.971   1.298 -0.3270  2.7116  1.1357
  759SOL    HW2 2277   0.183   0.933   1.285 -0.9415 -0.8742  0.1086
  760SOL     OW 2278   2.325   0.956   0.969 -0.1695  0.4342 -0.0465
  760SOL    HW1 2279   2.355   0.994   0.880 -1.6536 -0.3950  0.7150
  760SOL    HW2 2280   2.262   1.015   1.024 -1.3620  1.9604  0.5568
  761SOL     OW 2281   1.367   1.037   0.693  0.0294  0.0675 -0.5112
  761SOL    HW1 2282   1.350   0.937   0.685  1.4336  0.1829 -3.7263
  761SOL    HW2 2283   1.353   1.070   0.788  1.8561  1.1134 -1.0993
  762SOL     OW 2284   2.315   2.299   1.292  0.0553 -0.5307 -0.0671
  762SOL    HW1 2285   2.245   2.256   1.356  1.7568  1.9302 -1.6592
  762SOL    HW2 2286   2.270   2.379   1.246 -0.3497  0.2274 -1.5769
  763SOL     OW 2287   1.538   1.289   1.976  0.0612 -0.5227 -0.2555
  763SOL    HW1 2288   1.637   1.262   1.976  1.0323  0.6744 -0.9395
  763SOL    HW2 2289   1.506   1.331   1.889 -0.1343  3.6008 -1.5003
  764SOL     OW 2290   0.279   1.755   2.562  0.3196 -0.0923  0.6722
  764SOL    HW1 2291   0.200   1.710   2.606  3.4969 -0.8032  0.6081
  764SOL    HW2 2292   0.240   1.849   2.542 -0.2664  0.5841 -0.5100
  765SOL     OW 2293   0.699   2.641   1.295 -0.1967  0.6078  0.2202
  765SOL    HW1 2294   0.765   2.710   1.258 -2.4646  0.8209  2.8970
  765SOL    HW2 2295   0.666   2.583   1.220  0.2693  1.1540 -0.5222
  766SOL     OW 2296   0.813   2.208   2.416 -0.0904 -0.0734  0.2563
  766SOL    HW1 2297   0.910   2.187   2.393  0.3042  1.3677  0.7086
  766SOL    HW2 2298   0.771   2.127   2.461  0.7587  0.8559  0.2172
  767SOL     OW 2299   1.883   0.288   2.398 -0.2796  0.2839  0.7955
  767SOL    HW1 2300   1.967   0.267   2.346 -0.8761 -1.6622  0.8552
  767SOL    HW2 2301   1.898   0.379   2.443  1.0355 -2.5784  2.3090
  768SOL     OW 2302   1.197   2.332   0.088 -0.1955 -0.5344 -0.0094
  768SOL    HW1 2303   1.107   2.296   0.101  3.6665 -0.4132  0.2859
  768SOL    HW2 2304   1.254   2.256   0.066 -0.3551 -1.2178  1.5680
  769SOL     OW 2305   0.103   2.596   1.043  0.0859  0.1767  0.3813
  769SOL    HW1 2306   0.012   2.543   1.040 -1.1982 -2.3957  2.4907
  769SOL    HW2 2307   0.161   2.566   0.964  2.9277  0.0755 -1.6000
  770SOL     OW 2308   0.500   2.937   2.871 -0.1907 -0.2960  0.1507
  770SOL    HW1 2309   0.505   2.848   2.924  1.2468 -1.0375  0.5322
  770SOL    HW2 2310   0.577   2.945   2.806  1.6060  1.3405 -0.6697
  771SOL     OW 2311   0.968   2.488   2.752  0.2749  0.5113 -0.4622
  771SOL    HW1 2312   0.980   2.412   2.820  0.7245 -1.7642  2.7567
  771SOL    HW2 2313   0.884   2.471   2.696  0.2883  2.0240  0.1922
  772SOL     OW 2314   2.431   0.033   1.909  0.2258 -0.4166 -0.1114
  772SOL    HW1 2315   2.353   0.071   1.964  2.0304  1.0281 -0.0600
  772SOL    HW2 2316   2.422   0.069   1.813  0.7049 -1.7454  2.3471
  773SOL     OW 2317   0.933   2.666   2.033  0.3266  0.1436 -0.3245
  773SOL    HW1 2318   0.983   2.586   2.001  0.3377  0.6575 -0.6776
  773SOL    HW2 2319   0.929   2.671   2.137 -1.0554  0.9273  3.7671
  774SOL     OW 2320   1.566   0.363   1.988 -0.0157  0.7270 -0.2639
  774SOL    HW1 2321   1.611   0.306   2.061 -0.5395 -0.6800  2.7227
  774SOL    HW2 2322   1.478   0.316   1.960 -0.8508  1.2768 -0.7782
  775SOL     OW 2323   2.053   2.870   0.081 -0.0643  0.2850 -0.6741
  775SOL    HW1 2324   2.012   2.805   0.146 -3.3337  0.5304 -1.5983
  775SOL    HW2 2325   2.144   2.844   0.037  0.7146  0.8303 -1.6964
  776SOL     OW 2326   2.209   0.814   1.772 -0.3729  0.4980 -0.3733
  776SOL    HW1 2327   2.122   0.755   1.765 -1.4269 -2.0836  0.4604
  776SOL    HW2 2328   2.193   0.910   1.757  2.4438 -1.3375 -2.0641
  777SOL     OW 2329   2.788   1.171   2.239 -0.1573 -0.0816 -0.0177
  777SOL    HW1 2330   2.703   1.228   2.253  0.5231  1.8634  1.6083
  777SOL    HW2 2331   2.766   1.101   2.167 -1.9971 -1.6731 -1.5834
  778SOL     OW 2332   2.195   0.397   2.013 -0.4090 -0.0387 -0.0470
  778SOL    HW1 2333   2.238   0.487   1.991 -0.5494 -1.1036  1.3037
  778SOL    HW2 2334   2.227   0.326   1.946  0.2884  2.6172 -1.2219
  779SOL     OW 2335   3.036   3.020   3.025  0.4189  0.6866 -0.3071
  779SOL    HW1 2336   0.012   0.032   2.959  0.3861 -3.3813  0.6121
  779SOL    HW2 2337   0.013   3.039   0.062 -1.4050 -1.4616  0.7592
  780SOL     OW 2338   1.953   2.988   2.254 -0.1974 -0.6756  1.0874
  780SOL    HW1 2339   2.013   2.910   2.232 -1.9033  1.4119  0.9726
  780SOL    HW2 2340   1.982   3.029   2.342 -1.6597 -1.5785  2.3255
  781SOL     OW 2341   0.412   0.580   1.652 -0.2089  0.7292 -0.6448
  781SOL    HW1 2342   0.350   0.569   1.576 -1.1651  0.8302 -0.3240
  781SOL    HW2 2343   0.497   0.619   1.622 -1.0728 -2.4918  0.6668
  782SOL     OW 2344   1.959   1.984   0.317 -0.0880  0.7753  0.0147
  782SOL    HW1 2345   2.030   2.051   0.286 -0.9583  1.1791 -2.2462
  782SOL    HW2 2346   2.000   1.898   0.361 -1.3067 -2.8960  1.2540
  783SOL     OW 2347   0.944   1.688   1.521 -0.0949 -0.3310  0.4888
  783SOL    HW1 2348   0.975   1.754   1.450  0.2837  1.0408 -0.2859
  783SOL    HW2 2349   0.997   1.603   1.513  0.8250  3.1708  1.5395
  784SOL     OW 2350   1.943   0.452   2.026  0.2284  0.4311 -0.1863
  784SOL    HW1 2351   1.935   0.405   2.115  0.4369 -0.4341  2.3133
  784SOL    HW2 2352   2.040   0.453   1.995  0.6107  0.1493 -0.2607
  785SOL     OW 2353   2.899   0.311   0.860  0.3795 -0.6342 -0.7967
  785SOL    HW1 2354   2.946   0.294   0.948 -0.4469  0.4854  1.9317
  785SOL    HW2 2355   2.909   0.407   0.828  1.0208 -2.2168 -0.0776
  786SOL     OW 2356   1.736   2.998   0.365 -0.1340  0.6812  0.0825
  786SOL    HW1 2357   1.816   0.003   0.383  0.3338 -0.5379  0.1327
  786SOL    HW2 2358   1.780   2.905   0.370 -0.0216 -2.5141  1.8075
  787SOL     OW 2359   1.073   0.180   0.766 -0.1660 -0.2289  0.9951
  787SOL    HW1 2360   1.138   0.249   0.722  0.5275  1.3712 -2.2969
  787SOL    HW2 2361   0.980   0.189   0.719  0.2946  1.5157  1.3563
  788SOL     OW 2362   0.158   1.808   1.321 -0.0407  0.1904 -0.8631
  788SOL    HW1 2363   0.124   1.881   1.378  0.0555 -2.1679 -0.4879
  788SOL    HW2 2364   0.245   1.838   1.286 -3.5536  0.1484  3.7401
  789SOL     OW 2365   2.879   0.468   2.091  0.1103  0.2617  0.2906
  789SOL    HW1 2366   2.823   0.402   2.144  0.9385  0.4269 -0.4352
  789SOL    HW2 2367   2.880   0.555   2.144 -0.2547 -1.9742  0.6935
  790SOL     OW 2368   0.647   0.739   2.702 -0.0220 -0.4921  0.3172
  790SOL    HW1 2369   0.702   0.753   2.617  1.9051 -1.3526 -2.0807
  790SOL    HW2 2370   0.597   0.649   2.686  0.2034 -3.2582 -0.5166
  791SOL     OW 2371   2.553   0.510   2.968 -0.3243 -0.4649  0.0564
  791SOL    HW1 2372   2.571   0.409   2.968  2.0870 -1.5417  2.1426
  791SOL    HW2 2373   2.509   0.525   0.005 -2.2788 -0.6645  2.6997
  792SOL     OW 2374   1.539   0.715   1.255 -0.0942  0.0776  0.0962
  792SOL    HW1 2375   1.558   0.660   1.168 -1.1558  1.6027  2.0729
  792SOL    HW2 2376   1.491   0.666   1.332  3.6841  0.6193  1.1894
  793SOL     OW 2377   2.935   0.066   1.637 -0.2342  0.2810 -0.0998
  793SOL    HW1 2378   2.870   0.066   1.714 -0.0413 -1.2048  0.9796
  793SOL    HW2 2379   3.022   0.105   1.676  0.3193 -0.2480  1.0832
  794SOL     OW 2380   2.911   0.057   2.081 -0.0829 -0.5153  0.8612
  794SOL    HW1 2381   2.963   0.123   2.029 -0.2782 -2.6088  0.9423
  794SOL    HW2 2382   2.904   3.029   2.023  1.6979 -1.3098 -0.1681
  795SOL     OW 2383   0.704   2.223   2.799  0.3118  0.5935  0.0870
  795SOL    HW1 2384   0.794   2.212   2.847  1.4308  0.5148 -0.2257
  795SOL    HW2 2385   0.704   2.296   2.723 -1.2036 -0.1138 -0.1025
  796SOL     OW 2386   1.899   0.548   2.482  0.1059  0.1095 -0.2553
  796SOL    HW1 2387   1.868   0.622   2.420  1.1711  3.7314  0.9597
  796SOL    HW2 2388   1.875   0.570   2.578  0.9820 -0.0522 -3.3230
  797SOL     OW 2389   2.203   1.921   3.046  0.2462  0.5585 -0.2594
  797SOL    HW1 2390   2.179   2.013   3.011  0.8105  0.4385  0.1330
  797SOL    HW2 2391   2.304   1.910   0.015  2.9306 -1.7730 -0.8326
  798SOL     OW 2392   0.076   0.693   1.487 -0.6049 -0.1974  0.1033
  798SOL    HW1 2393   0.099   0.788   1.456 -0.7307 -0.6990 -0.9454
  798SOL    HW2 2394   3.038   0.675   1.456  1.8462  0.8543 -0.7403
  799SOL     OW 2395   0.613   0.202   1.668 -0.5349 -0.3366 -0.1952
  799SOL    HW1 2396   0.691   0.265   1.681  0.1694 -1.6744 -3.9591
  799SOL    HW2 2397   0.646   0.122   1.612  0.2994 -0.2158  0.1279
  800SOL     OW 2398   0.025   2.346   0.238  0.1356  0.0279  0.4219
  800SOL    HW1 2399   3.011   2.308   0.296  0.9072  0.3881 -1.6402
  800SOL    HW2 2400   0.021   2.308   0.143  1.8467 -3.9470 -2.8453
  801SOL     OW 2401   1.690   1.794   0.768  0.1460 -0.4971 -0.3873
  801SOL    HW1 2402   1.781   1.748   0.781  0.8318  0.8556  1.0041
  801SOL    HW2 2403   1.609   1.726   0.781 -0.5365 -1.2549  2.0191
  802SOL     OW 2404   0.805   0.515   0.238  0.2351 -0.2339 -0.4043
  802SOL    HW1 2405   0.852   0.526   0.333 -2.1024 -2.0924  2.5215
  802SOL    HW2 2406   0.785   0.604   0.187  1.0699  3.2662 -2.4121
  803SOL     OW 2407   1.380   1.330   1.710 -0.0794 -0.2354 -0.6959
  803SOL    HW1 2408   1.313   1.254   1.728 -3.1916 -2.4451 -2.0497
  803SOL    HW2 2409   1.444   1.304   1.633 -0.5696 -0.1502  0.3539
  804SOL     OW 2410   1.724   2.199   1.384  0.5748  0.0340  0.1604
  804SOL    HW1 2411   1.791   2.277   1.397  0.1592 -0.0025  0.2024
  804SOL    HW2 2412   1.670   2.207   1.295  1.6446  1.9860 -0.1442
  805SOL     OW 2413   2.974   2.091   2.393  0.2067  0.0413 -0.2678
  805SOL    HW1 2414   2.935   2.009   2.350 -0.6667  1.7384  1.1930
  805SOL    HW2 2415   3.021   2.148   2.329 -0.0557 -3.2366  2.9727
  806SOL     OW 2416   0.837   2.683   0.312 -0.1017  0.0749 -0.1331
  806SOL    HW1 2417   0.880   2.717   0.225  0.1945 -0.2628 -0.3330
  806SOL    HW2 2418   0.772   2.608   0.297 -0.8334  0.7136 -0.7958
  807SOL     OW 2419   2.500   0.870   2.675 -0.7038 -0.3137 -0.0637
  807SOL    HW1 2420   2.574   0.891   2.745 -2.0802  0.8534  0.5261
  807SOL    HW2 2421   2.469   0.773   2.694 -1.4886 -1.0792  2.0661
  808SOL     OW 2422   1.426   1.963   1.063 -0.2057  0.1177 -0.3350
  808SOL    HW1 2423   1.515   1.999   1.032 -2.8181 -1.1459 -1.1383
  808SOL    HW2 2424   1.390   2.008   1.147  1.8780  2.4614 -0.2930
  809SOL     OW 2425   0.133   0.509   0.582  0.0650 -0.4374  0.2138
  809SOL    HW1 2426   0.037   0.516   0.605 -0.9711  0.1493  1.1370
  809SOL    HW2 2427   0.175   0.420   0.602 -0.6424 -1.5143 -2.5464
  810SOL     OW 2428   1.201   1.289   0.150  0.6743 -0.2067 -0.1771
  810SOL    HW1 2429   1.279   1.341   0.186  3.2725 -1.9522 -0.8158
  810SOL    HW2 2430   1.152   1.247   0.229  1.6105 -0.8208  0.5213
  811SOL     OW 2431   1.428   2.820   1.371  0.3982 -0.1010 -0.1660
  811SOL    HW1 2432   1.503   2.762   1.330  1.1093  0.9012 -0.9280
  811SOL    HW2 2433   1.372   2.772   1.435  3.7678  2.0437  0.3658
  812SOL     OW 2434   1.252   0.337   0.639 -0.2577 -0.3693  0.7022
  812SOL    HW1 2435   1.234   0.410   0.569  0.9368  1.6847  0.8819
  812SOL    HW2 2436   1.353   0.319   0.649 -0.2964 -0.6994 -1.8240
  813SOL     OW 2437   1.175   2.943   2.303 -0.1367  0.2712  0.2086
  813SOL    HW1 2438   1.114   2.899   2.374 -0.0810  1.4789 -3.5677
  813SOL    HW2 2439   1.124   2.996   2.235  1.8515  2.2139  1.9843
  814SOL     OW 2440   1.345   2.678   1.597 -0.0903 -0.5730 -0.2671
  814SOL    HW1 2441   1.295   2.600   1.637 -0.5829  1.3617  0.2728
  814SOL    HW2 2442   1.310   2.772   1.631 -0.7329  3.4788 -0.3461
  815SOL     OW 2443   0.112   2.747   3.027  0.0119 -0.4987  0.6827
  815SOL    HW1 2444   0.059   2.829   2.998  0.5693  0.8879 -1.7570
  815SOL    HW2 2445   0.084   2.716   0.064  1.3907  0.4946  2.3255
  816SOL     OW 2446   2.282   1.292   2.784 -0.0642 -0.4496 -0.0978
  816SOL    HW1 2447   2.215   1.351   2.745  2.9201 -0.8278 -0.6673
  816SOL    HW2 2448   2.277   1.198   2.743 -2.8964 -0.2814 -2.0580
  817SOL     OW 2449   2.437   2.188   2.469 -0.7721  0.6421 -0.3249
  817SOL    HW1 2450   2.535   2.206   2.455 -0.0150 -2.0376 -0.4074
  817SOL    HW2 2451   2.425   2.132   2.554 -0.2124  1.3527 -1.1018
  818SOL     OW 2452   0.930   0.894   0.146 -0.1479 -0.0444  0.0939
  818SOL    HW1 2453   0.967   0.921   0.236 -1.5178 -1.1129 -0.5397
  818SOL    HW2 2454   0.921   0.976   0.086 -1.7789  1.2814 -2.0192
  819SOL     OW 2455   1.594   1.372   3.051 -0.0043  0.0425 -0.3643
  819SOL    HW1 2456   1.576   1.410   2.960 -2.1089 -1.7734  2.8270
  819SOL    HW2 2457   1.618   1.274   3.048 -0.2942  0.3067 -3.6750
  820SOL     OW 2458   0.255   0.797   0.701  0.2972 -0.3411  0.0759
  820SOL    HW1 2459   0.323   0.754   0.761  0.5883  0.0377 -0.3072
  820SOL    HW2 2460   0.196   0.724   0.661 -0.1965  0.4928 -3.5103
  821SOL     OW 2461   0.433   2.984   1.490  0.0277 -0.3945 -0.0554
  821SOL    HW1 2462   0.375   3.053   1.441 -0.3822 -1.3852 -0.6372
  821SOL    HW2 2463   0.451   2.905   1.426  2.2929 -2.0068 -1.6035
  822SOL     OW 2464   1.817   2.070   2.870  0.0979  0.2085  0.0342
  822SOL    HW1 2465   1.828   2.173   2.873  0.4842 -0.3977 -0.2503
  822SOL    HW2 2466   1.778   2.029   2.782  1.6701 -0.4646 -0.2955
  823SOL     OW 2467   0.734   0.554   2.112  0.3330  0.0684 -0.2998
  823SOL    HW1 2468   0.819   0.546   2.058  3.8144 -3.1530  1.6488
  823SOL    HW2 2469   0.722   0.648   2.148  0.3065 -2.0434 -0.5918
  824SOL     OW 2470   2.449   2.903   1.546  0.0681 -0.3267 -0.4045
  824SOL    HW1 2471   2.378   2.949   1.601 -1.8636 -0.5506 -0.3763
  824SOL    HW2 2472   2.402   2.833   1.486 -1.8463 -0.7935  0.7410
  825SOL     OW 2473   0.321   1.398   2.361 -0.2221  0.1876  0.4863
  825SOL    HW1 2474   0.420   1.427   2.361 -1.5512 -0.7102 -0.4671
  825SOL    HW2 2475   0.272   1.440   2.285 -1.3956  0.8797  0.7893
  826SOL     OW 2476   1.608   0.441   2.684 -0.0776  0.2376 -0.4504
  826SOL    HW1 2477   1.563   0.463   2.591 -1.0715  1.2235  1.4531
  826SOL    HW2 2478   1.616   0.342   2.701  0.7098 -2.7313  3.5942
  827SOL     OW 2479   0.320   2.364   2.204  0.0806  0.1120 -0.4117
  827SOL    HW1 2480   0.353   2.275   2.168  0.1583  1.5257 -2.0837
  827SOL    HW2 2481   0.331   2.427   2.129 -2.8119 -2.0156  2.2505
  828SOL     OW 2482   0.028   0.055   1.351 -0.1375  0.4850 -0.0946
  828SOL    HW1 2483   3.047   0.119   1.424  0.8612 -0.8888  0.2524
  828SOL    HW2 2484   3.007   0.043   1.286 -0.6739  1.8615 -2.3949
  829SOL     OW 2485   1.214   1.534   1.771  0.3534  0.1544 -0.0086
  829SOL    HW1 2486   1.280   1.465   1.732 -3.2589  1.7250  0.2580
  829SOL    HW2 2487   1.119   1.495   1.773  1.0766 -1.2304 -1.5496
  830SOL     OW 2488   1.073   0.979   1.376 -0.2488  0.1626 -0.4650
  830SOL    HW1 2489   1.027   0.950   1.291  1.1704  0.2834  2.6888
  830SOL    HW2 2490   1.015   0.959   1.457  0.1587  2.5577  0.2529
  831SOL     OW 2491   2.906   1.999   0.305  0.1299 -0.2007  0.0566
  831SOL    HW1 2492   2.933   1.942   0.222 -0.3052 -0.1268 -2.8106
  831SOL    HW2 2493   2.820   1.963   0.343 -0.6358  1.0748 -0.2555
  832SOL     OW 2494   1.165   2.576   0.274  0.4697 -0.0454  0.4702
  832SOL    HW1 2495   1.109   2.548   0.355  1.2312  0.4203 -1.6954
  832SOL    HW2 2496   1.196   2.493   0.223  0.3752 -1.6742 -0.1076
  833SOL     OW 2497   0.048   0.430   1.641 -0.4715 -0.6892  0.2848
  833SOL    HW1 2498   0.082   0.514   1.592 -2.3348  2.1560  4.5841
  833SOL    HW2 2499   3.047   0.459   1.722  0.2218  1.2608 -2.9974
  834SOL     OW 2500   3.017   0.724   1.069 -0.4144 -0.1830 -0.0657
  834SOL    HW1 2501   0.058   0.698   1.071  1.8818  0.2999  0.4894
  834SOL    HW2 2502   3.004   0.803   1.010 -3.2586 -1.4671  1.1452
  835SOL     OW 2503   2.564   0.165   0.409 -0.2702 -0.6357  0.2542
  835SOL    HW1 2504   2.645   0.223   0.442  1.6738  2.5212  1.6566
  835SOL    HW2 2505   2.574   0.121   0.320  1.8369 -2.7017 -1.3438
  836SOL     OW 2506   0.991   1.984   2.722 -0.0054 -0.2021 -0.2804
  836SOL    HW1 2507   0.926   1.911   2.756 -1.2719 -2.8456  2.0702
  836SOL    HW2 2508   0.999   1.981   2.617 -0.2417 -2.0866 -0.7209
  837SOL     OW 2509   1.554   1.799   0.348 -0.2437  0.4111  0.0607
  837SOL    HW1 2510   1.618   1.769   0.418 -1.7758  3.3156 -0.3641
  837SOL    HW2 2511   1.575   1.753   0.256 -1.8292 -0.3742 -1.0667
  838SOL     OW 2512   2.579   0.827   2.184 -0.1033 -0.0909  0.3165
  838SOL    HW1 2513   2.592   0.855   2.282 -0.7835 -0.1661 -1.6685
  838SOL    HW2 2514   2.521   0.897   2.133  0.6059  0.2374 -1.5697
  839SOL     OW 2515   0.897   1.021   2.159 -0.2239  0.5695 -0.8201
  839SOL    HW1 2516   0.997   1.042   2.157 -0.2253 -0.2538  0.6092
  839SOL    HW2 2517   0.862   1.036   2.254  0.1376  0.5329  0.7693
  840SOL     OW 2518   0.826   0.962   2.717  0.8000 -0.2127  0.8014
  840SOL    HW1 2519   0.801   1.058   2.743  0.5146  0.2640  1.2658
  840SOL    HW2 2520   0.754   0.896   2.747 -0.3639 -0.8110  2.4306
  841SOL     OW 2521   0.784   2.561   0.712 -0.0009 -0.1795 -0.2696
  841SOL    HW1 2522   0.859   2.630   0.691  1.6747  0.4261 -0.4794
  841SOL    HW2 2523   0.810   2.464   0.697  3.1215 -2.9924  0.2857
  842SOL     OW 2524   0.435   0.708   0.864 -0.0808  0.2959  0.6974
  842SOL    HW1 2525   0.505   0.762   0.812 -2.2599 -0.8673  1.2548
  842SOL    HW2 2526   0.450   0.605   0.854  0.0590 -0.3440 -1.8684
  843SOL     OW 2527   0.701   0.941   1.339  0.1346 -0.4580 -0.2393
  843SOL    HW1 2528   0.644   0.859   1.358  0.9534  0.5164 -0.7049
  843SOL    HW2 2529   0.631   1.010   1.303 -1.0866 -0.2901 -0.9585
  844SOL     OW 2530   2.118   2.340   2.759  0.4819 -0.1701  0.2825
  844SOL    HW1 2531   2.194   2.410   2.762 -1.2304  1.3560 -1.5756
  844SOL    HW2 2532   2.106   2.300   2.670  0.7725  0.6620  4.5477
  845SOL     OW 2533   2.083   2.995   1.487  0.2193  0.4495  0.6437
  845SOL    HW1 2534   2.099   3.044   1.401 -1.0251 -1.8826 -0.3133
  845SOL    HW2 2535   2.030   2.913   1.470  1.0893  3.3020 -0.8465
  846SOL     OW 2536   1.943   0.918   2.516  0.2930 -0.1650  0.2588
  846SOL    HW1 2537   1.917   0.867   2.435 -1.6842  2.6236  3.0003
  846SOL    HW2 2538   2.028   0.882   2.562 -0.9937 -0.3052  1.4997
  847SOL     OW 2539   2.644   2.961   1.763  0.1742  0.5975  0.0686
  847SOL    HW1 2540   2.572   3.003   1.820  1.3690 -0.9254  0.0182
  847SOL    HW2 2541   2.596   2.925   1.680 -1.5873  1.7484 -0.4469
  848SOL     OW 2542   2.757   2.749   0.146  0.3997  0.2042 -0.4085
  848SOL    HW1 2543   2.753   2.667   0.091 -1.6204  0.7075  1.4600
  848SOL    HW2 2544   2.764   2.839   0.095  1.1815  1.4415 -0.4599
  849SOL     OW 2545   0.445   3.044   0.785 -0.2305  0.2530  0.0873
  849SOL    HW1 2546   0.348   3.032   0.828  0.5503 -0.9263  0.6077
  849SOL    HW2 2547   0.491   0.046   0.850 -2.4848  0.1196 -1.4664
  850SOL     OW 2548   0.516   2.206   0.715  0.5296 -0.0497 -0.3989
  850SOL    HW1 2549   0.477   2.280   0.658  0.3533  0.7488  0.9982
  850SOL    HW2 2550   0.604   2.172   0.676 -0.0420  0.1489  0.4975
  851SOL     OW 2551   2.068   0.190   2.948 -0.1524 -0.4849 -0.2171
  851SOL    HW1 2552   2.081   0.108   2.894 -0.6048  0.9105  0.7775
  851SOL    HW2 2553   1.975   0.189   2.984 -0.6703  1.3612  0.9808
  852SOL     OW 2554   1.677   1.969   2.661  0.1461  0.0809 -0.7338
  852SOL    HW1 2555   1.585   1.924   2.667 -2.7244 -0.8097 -0.7416
  852SOL    HW2 2556   1.729   1.931   2.586 -0.4998 -4.3147  1.6398
  853SOL     OW 2557   0.113   2.078   0.186 -0.4366  0.3217  0.1488
  853SOL    HW1 2558   0.043   2.071   0.260 -3.1026  0.2005 -0.4905
  853SOL    HW2 2559   0.209   2.081   0.224 -1.2978  0.1772  0.4308
  854SOL     OW 2560   1.719   0.588   1.941 -0.5365 -0.6557  0.0848
  854SOL    HW1 2561   1.647   0.514   1.928 -0.5557 -2.8994 -2.8390
  854SOL    HW2 2562   1.804   0.546   1.971  2.6713 -0.1040 -1.5302
  855SOL     OW 2563   0.327   2.692   0.514 -0.6373  0.4330  0.2630
  855SOL    HW1 2564   0.415   2.663   0.568  1.6022  0.8118  3.1652
  855SOL    HW2 2565   0.335   2.664   0.419 -1.3792  0.1958  1.6745
  856SOL     OW 2566   0.242   2.828   2.394 -0.1735  0.2191  0.0577
  856SOL    HW1 2567   0.210   2.893   2.464  1.0809 -0.5016  0.1679
  856SOL    HW2 2568   0.341   2.852   2.376  0.4632  0.1103 -0.3916
  857SOL     OW 2569   0.882   0.105   1.546  0.2301 -0.4052 -0.1275
  857SOL    HW1 2570   0.842   0.153   1.468  0.3650  2.6632  1.1604
  857SOL    HW2 2571   0.829   0.022   1.573  2.0970  2.7413 -2.2049
  858SOL     OW 2572   0.406   2.177   1.975  0.2615 -0.6115  0.5504
  858SOL    HW1 2573   0.315   2.137   1.997 -0.9125  0.9583 -0.5279
  858SOL    HW2 2574   0.403   2.209   1.876  0.2181  0.3529  0.2989
  859SOL     OW 2575   1.895   2.551   1.747  0.0350  0.6120  0.1978
  859SOL    HW1 2576   1.869   2.573   1.845 -2.2115  0.6150  4.1797
  859SOL    HW2 2577   1.956   2.471   1.751 -0.1681  1.1645 -0.7821
  860SOL     OW 2578   1.638   0.715   0.454 -0.2153  0.4110 -0.0176
  860SOL    HW1 2579   1.544   0.752   0.453  0.8426  1.1709  0.5305
  860SOL    HW2 2580   1.655   0.670   0.546 -3.2476  1.5493  1.3046
  861SOL     OW 2581   2.949   0.577   0.791  0.0344 -0.1617 -0.0866
  861SOL    HW1 2582   2.997   0.626   0.867 -0.8891  3.1807  0.4442
  861SOL    HW2 2583   2.918   0.636   0.714 -0.7305 -1.7384  1.7318
  862SOL     OW 2584   1.885   0.730   1.348  0.0826 -0.3863 -0.1899
  862SOL    HW1 2585   1.847   0.662   1.282  1.3721  0.7450  1.6664
  862SOL    HW2 2586   1.966   0.692   1.394 -0.2249  2.9733  0.1507
  863SOL     OW 2587   0.624   1.104   1.054 -0.0844 -0.2363  0.1670
  863SOL    HW1 2588   0.633   1.004   1.072  2.3735 -1.0153  1.9389
  863SOL    HW2 2589   0.714   1.149   1.065  1.6930  0.6264 -1.1723
  864SOL     OW 2590   2.843   2.702   2.020 -0.4132 -0.1408  0.1893
  864SOL    HW1 2591   2.885   2.684   2.113 -0.6020  1.8276 -0.9633
  864SOL    HW2 2592   2.857   2.802   1.980 -1.4437  4.9993  1.6338
  865SOL     OW 2593   1.111   0.359   2.125 -0.3131  0.0375  0.3174
  865SOL    HW1 2594   1.120   0.357   2.222  0.9540 -1.2757 -4.7622
  865SOL    HW2 2595   1.198   0.395   2.082  1.6950 -0.1382 -1.2392
  866SOL     OW 2596   2.417   2.853   0.253 -0.0452 -0.3596 -0.0566
  866SOL    HW1 2597   2.331   2.894   0.289 -0.8901 -0.3280 -0.9003
  866SOL    HW2 2598   2.479   2.815   0.326  0.7328  0.3035 -0.2064
  867SOL     OW 2599   2.528   2.758   0.478 -0.6145 -0.0060 -0.0420
  867SOL    HW1 2600   2.538   2.658   0.491 -3.9262  2.1595  1.3860
  867SOL    HW2 2601   2.585   2.814   0.543 -0.7948  0.9415  2.0057
  868SOL     OW 2602   1.754   1.261   2.777 -0.0688 -0.0657  0.4429
  868SOL    HW1 2603   1.774   1.240   2.876  1.9544  0.8140 -0.2140
  868SOL    HW2 2604   1.655   1.257   2.761  1.0391  1.1627 -0.7823
  869SOL     OW 2605   2.640   2.517   0.524  0.1156  0.3175 -0.3766
  869SOL    HW1 2606   2.627   2.414   0.525  2.8471  1.3551 -3.0492
  869SOL    HW2 2607   2.723   2.543   0.472  1.4718 -3.1463 -0.5780
  870SOL     OW 2608   2.519   2.171   0.732  0.1109  0.2501  0.2481
  870SOL    HW1 2609   2.552   2.225   0.807 -0.2513 -2.8047 -0.4067
  870SOL    HW2 2610   2.491   2.083   0.767 -0.5634 -1.1104 -1.9050
  871SOL     OW 2611   0.421   1.297   1.061  0.2268  0.0245 -0.2202
  871SOL    HW1 2612   0.495   1.223   1.060 -1.1139 -0.6682  1.5648
  871SOL    HW2 2613   0.391   1.305   1.162  0.8222  0.8411  4.0698
  872SOL     OW 2614   1.286   1.736   2.518  0.6501  0.2113  0.4504
  872SOL    HW1 2615   1.192   1.756   2.478 -0.1349  1.5633 -0.3621
  872SOL    HW2 2616   1.348   1.727   2.441 -1.1196  1.0955 -1.0382
  873SOL     OW 2617   0.628   2.512   2.213 -0.3028  0.3027  0.2619
  873SOL    HW1 2618   0.566   2.565   2.148 -1.8501  0.9797  0.0824
  873SOL    HW2 2619   0.617   2.413   2.197 -1.4331  1.2161  2.6234
  874SOL     OW 2620   0.732   0.555   1.267 -0.1629  0.2762  0.6526
  874SOL    HW1 2621   0.656   0.606   1.305  0.4516  0.0306 -1.3134
  874SOL    HW2 2622   0.772   0.495   1.339 -1.1453 -0.2561 -0.5318
  875SOL     OW 2623   3.007   0.288   1.137 -0.1918 -0.4082  0.0243
  875SOL    HW1 2624   0.040   0.332   1.164  4.0864  1.0778  0.9820
  875SOL    HW2 2625   2.999   0.186   1.150  1.1034 -2.5549 -0.8411
  876SOL     OW 2626   0.553   1.077   0.124  0.3626 -0.4277 -0.0432
  876SOL    HW1 2627   0.454   1.062   0.135 -1.3136 -0.3035 -0.7123
  876SOL    HW2 2628   0.589   1.030   0.044 -1.9108  1.4495  1.1838
  877SOL     OW 2629   1.307   0.876   1.519 -0.4369  0.2694 -0.0283
  877SOL    HW1 2630   1.284   0.780   1.535 -0.5117  1.0253 -2.6646
  877SOL    HW2 2631   1.241   0.911   1.450  0.1159  2.9000  1.3164
  878SOL     OW 2632   2.312   2.235   0.558 -0.3912 -0.3741  0.3555
  878SOL    HW1 2633   2.342   2.171   0.488 -0.2291  0.2603 -3.0208
  878SOL    HW2 2634   2.383   2.230   0.635  1.4283  1.6695 -2.5943
  879SOL     OW 2635   2.725   1.727   1.491 -0.2604 -0.0980  0.5778
  879SOL    HW1 2636   2.796   1.726   1.567  1.6963  0.6494  0.7806
  879SOL    HW2 2637   2.708   1.628   1.466 -0.3442  2.0198 -0.0266
  880SOL     OW 2638   1.558   2.434   0.725  0.6246  0.4628 -0.1385
  880SOL    HW1 2639   1.482   2.438   0.796 -1.1816 -0.4163 -0.7751
  880SOL    HW2 2640   1.567   2.334   0.698 -2.0464 -1.9839  1.0266
  881SOL     OW 2641   0.400   2.398   0.591 -0.0149 -0.7516  0.8380
  881SOL    HW1 2642   0.341   2.369   0.516 -2.8104  1.0749  2.0117
  881SOL    HW2 2643   0.490   2.440   0.551  1.3072  1.6055  0.7315
  882SOL     OW 2644   1.920   0.638   0.782  0.4275 -0.2029 -0.7247
  882SOL    HW1 2645   2.015   0.631   0.751  0.1891 -0.6366 -0.2125
  882SOL    HW2 2646   1.920   0.619   0.886  1.9614 -0.0719  1.1673
  883SOL     OW 2647   1.708   0.734   1.569 -0.7535  0.0305 -0.7181
  883SOL    HW1 2648   1.671   0.643   1.563 -1.3334  0.3203 -1.6750
  883SOL    HW2 2649   1.756   0.754   1.482 -0.1416  0.6040  1.0124
  884SOL     OW 2650   2.356   0.298   0.171  0.7253  0.6280  0.5801
  884SOL    HW1 2651   2.322   0.277   0.265 -0.8793  1.4352  1.1982
  884SOL    HW2 2652   2.334   0.215   0.113 -2.3127 -2.2975  0.7231
  885SOL     OW 2653   1.099   1.282   2.677  0.0639  0.3325 -0.3867
  885SOL    HW1 2654   1.134   1.260   2.766 -0.7326  0.0331 -1.3429
  885SOL    HW2 2655   1.101   1.382   2.662  1.4823 -2.0272  0.8291
  886SOL     OW 2656   1.416   1.890   2.730 -0.4866 -0.3122  0.1984
  886SOL    HW1 2657   1.386   1.827   2.656  1.0337  2.5074  4.3711
  886SOL    HW2 2658   1.344   1.962   2.749 -2.1351  2.6607 -0.3265
  887SOL     OW 2659   1.161   0.441   1.252 -0.2884  0.3719  0.5789
  887SOL    HW1 2660   1.225   0.432   1.170 -1.0144 -2.1037 -0.0942
  887SOL    HW2 2661   1.110   0.527   1.260  0.1781  0.2262  0.4571
  888SOL     OW 2662   2.406   0.728   1.622  0.7230 -0.3716 -0.0689
  888SOL    HW1 2663   2.338   0.768   1.680  1.4931 -0.8841 -0.5831
  888SOL    HW2 2664   2.363   0.650   1.574 -0.2610  0.6263 -0.4370
  889SOL     OW 2665   0.122   2.660   0.690  0.7347 -0.5007 -0.0447
  889SOL    HW1 2666   0.186   2.675   0.610  0.7696  0.8056  1.2864
  889SOL    HW2 2667   0.135   2.560   0.718 -0.1054  1.0491 -0.4256
  890SOL     OW 2668   1.851   2.173   0.816  0.7518 -0.2452 -0.0938
  890SOL    HW1 2669   1.928   2.201   0.759 -1.5515 -0.8108 -1.1156
  890SOL    HW2 2670   1.771   2.216   0.767  0.1666 -0.2432  0.5351
  891SOL     OW 2671   0.132   0.922   2.790 -0.3814 -0.1114  0.4295
  891SOL    HW1 2672   0.197   0.995   2.757  0.4175 -0.3492 -2.1128
  891SOL    HW2 2673   0.038   0.957   2.779  0.5533 -0.4551 -0.7740
  892SOL     OW 2674   2.978   2.317   1.151 -0.2905 -0.0295  0.0781
  892SOL    HW1 2675   3.020   2.263   1.073 -1.5220  1.7607 -2.1129
  892SOL    HW2 2676   2.921   2.397   1.117 -1.5721  3.8052 -0.2744
  893SOL     OW 2677   1.323   0.417   1.037  0.4229  0.2973 -0.2959
  893SOL    HW1 2678   1.343   0.338   0.980 -0.5499  0.7792 -0.3408
  893SOL    HW2 2679   1.405   0.471   1.053 -1.4288 -2.1776  1.8755
  894SOL     OW 2680   2.581   0.454   0.688  0.5923  0.6496 -0.6709
  894SOL    HW1 2681   2.580   0.510   0.775 -0.5654 -0.2552  0.5286
  894SOL    HW2 2682   2.525   0.501   0.621 -2.0446 -1.4240 -1.2524
  895SOL     OW 2683   1.609   1.135   2.349  0.2134 -0.5214 -0.4342
  895SOL    HW1 2684   1.522   1.187   2.369  1.4656 -0.7372  0.1939
  895SOL    HW2 2685   1.700   1.165   2.396  4.8027  1.5603  2.3237
  896SOL     OW 2686   1.402   0.354   1.644 -0.3329  0.0146 -0.0659
  896SOL    HW1 2687   1.493   0.317   1.626 -0.4207  2.3226  1.4278
  896SOL    HW2 2688   1.332   0.296   1.597  1.5141  0.9013 -0.0408
  897SOL     OW 2689   0.630   1.460   1.701 -0.2348  0.0285  0.5083
  897SOL    HW1 2690   0.658   1.386   1.631  1.2624 -0.4100 -1.9507
  897SOL    HW2 2691   0.688   1.542   1.699  0.5827  0.1293 -3.0365
  898SOL     OW 2692   2.122   2.786   2.185  0.2709 -0.5409 -0.3439
  898SOL    HW1 2693   2.086   2.692   2.181  0.3330 -0.6717 -0.5271
  898SOL    HW2 2694   2.221   2.774   2.217  4.7811  0.1748  2.4908
  899SOL     OW 2695   1.067   1.392   0.936  0.0325 -0.3213 -0.0345
  899SOL    HW1 2696   1.160   1.356   0.925 -4.3794 -1.9055 -2.2022
  899SOL    HW2 2697   1.067   1.482   0.989 -1.5684 -2.0516 -0.5011
  900SOL     OW 2698   1.236   2.064   2.793  0.8405 -0.5361 -0.1802
  900SOL    HW1 2699   1.152   2.028   2.746  0.3844 -0.5825 -0.3528
  900SOL    HW2 2700   1.257   2.153   2.754 -0.3156 -1.0420 -0.5167
  901SOL     OW 2701   1.014   1.746   2.383 -0.1104 -0.1553 -0.1337
  901SOL    HW1 2702   0.947   1.761   2.309 -0.6496 -0.2984 -0.5276
  901SOL    HW2 2703   1.009   1.644   2.412  0.3722 -0.0788  0.1013
  902SOL     OW 2704   2.372   1.785   0.410  0.5804 -0.1865 -0.1356
  902SOL    HW1 2705   2.414   1.750   0.324  1.0312  2.4484 -1.2920
  902SOL    HW2 2706   2.374   1.710   0.481 -1.0471 -1.8493  2.4439
  903SOL     OW 2707   2.085   1.743   0.422  0.0086  0.1096 -0.0139
  903SOL    HW1 2708   2.029   1.675   0.369 -0.1568 -4.3945 -2.2601
  903SOL    HW2 2709   2.182   1.736   0.403 -1.9071  1.6436  0.7886
  904SOL     OW 2710   1.153   0.649   2.179 -0.3400 -0.3812 -0.3768
  904SOL    HW1 2711   1.151   0.743   2.132 -1.6087  2.1288  0.4578
  904SOL    HW2 2712   1.201   0.582   2.121 -2.9332 -1.2539  0.6069
  905SOL     OW 2713   2.649   0.217   0.778 -0.1963 -0.2581 -0.1158
  905SOL    HW1 2714   2.609   0.309   0.752 -0.6809 -1.0286 -1.1649
  905SOL    HW2 2715   2.748   0.222   0.797 -1.0718 -1.1403 -0.2918
  906SOL     OW 2716   2.700   1.871   0.457  0.1172  0.1385 -0.1873
  906SOL    HW1 2717   2.704   1.797   0.530 -0.2299 -1.1693  0.5189
  906SOL    HW2 2718   2.610   1.920   0.461  0.3845  0.9640 -1.4097
  907SOL     OW 2719   1.249   0.488   0.331 -0.2253  0.0190  0.6244
  907SOL    HW1 2720   1.325   0.417   0.337  0.5661 -0.5639 -1.6652
  907SOL    HW2 2721   1.241   0.508   0.232  1.2882  2.9425  0.6914
  908SOL     OW 2722   1.819   0.133   1.302 -0.0092  0.1238  0.0201
  908SOL    HW1 2723   1.739   0.102   1.355  0.4152 -0.3700 -0.5996
  908SOL    HW2 2724   1.868   0.205   1.351 -0.2146 -0.5285  1.5851
  909SOL     OW 2725   2.749   0.590   1.087 -0.0242 -0.3638  0.2047
  909SOL    HW1 2726   2.844   0.617   1.066 -0.4125 -0.8494  1.0016
  909SOL    HW2 2727   2.741   0.496   1.126  0.3386 -0.0790  0.3154
  910SOL     OW 2728   0.973   2.839   2.453 -0.2641  0.3887 -0.0752
  910SOL    HW1 2729   0.984   2.809   2.552 -0.2585  0.2106 -0.2269
  910SOL    HW2 2730   0.943   2.763   2.387  2.3154  0.2968 -1.5918
  911SOL     OW 2731   2.192   1.086   1.719 -0.6093  0.0659 -0.2577
  911SOL    HW1 2732   2.280   1.116   1.757 -1.9713 -0.1943 -1.1392
  911SOL    HW2 2733   2.180   1.135   1.631 -1.9572  0.2412 -0.3019
  912SOL     OW 2734   2.410   2.134   1.536 -0.1589 -0.0538 -0.3239
  912SOL    HW1 2735   2.511   2.140   1.550  0.6855  0.0161 -1.4579
  912SOL    HW2 2736   2.397   2.068   1.457 -0.0585 -2.0686 -2.2587
  913SOL     OW 2737   2.591   2.322   1.300 -0.6213 -0.3420 -0.1243
  913SOL    HW1 2738   2.619   2.306   1.204  1.4853  0.9757  0.9303
  913SOL    HW2 2739   2.490   2.310   1.309  2.1611 -1.2682  1.3467
  914SOL     OW 2740   2.140   1.796   1.404 -0.5427  0.0822 -0.0544
  914SOL    HW1 2741   2.148   1.710   1.345  0.0289 -1.0649 -0.7521
  914SOL    HW2 2742   2.109   1.768   1.496 -1.2886 -2.0380 -1.3567
  915SOL     OW 2743   1.252   1.724   1.256 -0.2418  0.1938  0.3596
  915SOL    HW1 2744   1.223   1.819   1.248  1.2466 -0.5176 -2.6188
  915SOL    HW2 2745   1.325   1.695   1.186  3.5927 -2.3132 -1.2631
  916SOL     OW 2746   2.986   2.790   1.251  0.2099  0.6259 -0.0649
  916SOL    HW1 2747   2.894   2.769   1.204 -1.4805 -3.6400 -0.9623
  916SOL    HW2 2748   2.972   2.842   1.335  1.6233  2.1573 -0.2347
  917SOL     OW 2749   2.459   1.768   2.547  0.2115 -0.1165 -0.0693
  917SOL    HW1 2750   2.364   1.785   2.517  0.5614 -1.4192 -0.6241
  917SOL    HW2 2751   2.455   1.737   2.646 -0.5341 -1.3335  2.4442
  918SOL     OW 2752   1.838   1.908   2.443 -0.1190 -0.0109 -0.2640
  918SOL    HW1 2753   1.777   1.912   2.362  0.9745 -1.6893  2.0417
  918SOL    HW2 2754   1.899   1.827   2.435 -1.6134 -0.0044 -1.0672
  919SOL     OW 2755   1.556   2.128   1.859 -0.7005 -0.0852  0.2313
  919SOL    HW1 2756   1.459   2.151   1.871 -0.5118  0.9767  2.5694
  919SOL    HW2 2757   1.573   2.039   1.815  0.7751 -3.0189  2.1722
  920SOL     OW 2758   0.054   0.130   2.818  0.6338  0.4395 -0.0774
  920SOL    HW1 2759   0.066   0.186   2.733 -0.8799 -1.9031 -0.6071
  920SOL    HW2 2760   0.146   0.094   2.843  1.4518 -2.5792 -1.4396
  921SOL     OW 2761   2.515   0.135   2.391  0.4188  0.5336  0.1633
  921SOL    HW1 2762   2.614   0.145   2.385 -0.0155 -0.5087  0.6970
  921SOL    HW2 2763   2.468   0.224   2.418 -0.9463  0.0978  1.3907
  922SOL     OW 2764   2.414   1.676   1.309  0.4366 -0.0889 -0.0297
  922SOL    HW1 2765   2.400   1.694   1.409 -0.3528 -2.3787  1.2172
  922SOL    HW2 2766   2.343   1.612   1.277 -0.6651 -2.3713  0.3292
  923SOL     OW 2767   0.580   1.773   0.609  0.1465  0.3277  0.5963
  923SOL    HW1 2768   0.617   1.739   0.521  1.2898  2.4370 -0.7238
  923SOL    HW2 2769   0.656   1.814   0.664 -0.6930  0.6310  0.6839
  924SOL     OW 2770   1.430   0.484   2.887 -0.2502 -0.4387 -0.6758
  924SOL    HW1 2771   1.464   0.579   2.915  0.7607  0.6902 -0.1280
  924SOL    HW2 2772   1.466   0.473   2.792  2.1966  1.3457 -0.0776
  925SOL     OW 2773   2.730   1.415   0.705 -0.2737 -0.1760 -0.7779
  925SOL    HW1 2774   2.634   1.385   0.723 -2.5261  3.7317  0.1572
  925SOL    HW2 2775   2.794   1.340   0.729 -2.1865 -1.2806  3.6468
  926SOL     OW 2776   2.702   1.050   0.987  0.0103  0.8246 -0.3081
  926SOL    HW1 2777   2.663   0.961   1.020  1.4762 -2.0467 -0.9995
  926SOL    HW2 2778   2.799   1.061   1.017 -1.5153 -2.0532  1.4008
  927SOL     OW 2779   0.550   1.295   0.295  0.0278  0.7493  0.3640
  927SOL    HW1 2780   0.542   1.208   0.239 -1.1282  0.4637  1.8941
  927SOL    HW2 2781   0.644   1.325   0.291 -1.3702  1.4602  1.1803
  928SOL     OW 2782   0.037   0.024   2.451 -0.5161  0.5765  0.1962
  928SOL    HW1 2783   0.092   3.045   2.527 -0.0002 -0.7344 -0.4307
  928SOL    HW2 2784   0.089   0.065   2.373 -0.4183  1.1708 -0.9996
  929SOL     OW 2785   2.865   0.020   1.159 -0.7514  0.1234  0.1703
  929SOL    HW1 2786   2.869   3.034   1.065 -0.9402 -2.7483 -1.5710
  929SOL    HW2 2787   2.798   3.018   1.214 -2.3357  0.4232 -0.0750
  930SOL     OW 2788   1.989   2.267   1.756  0.5825  0.0934 -0.0956
  930SOL    HW1 2789   1.906   2.271   1.817 -0.6001 -0.5369  1.8366
  930SOL    HW2 2790   1.970   2.192   1.688 -0.7185 -1.3212 -1.7347
  931SOL     OW 2791   1.869   1.150   0.866 -0.0901  0.1883  0.4627
  931SOL    HW1 2792   1.952   1.210   0.874  0.8237  1.1071 -0.6181
  931SOL    HW2 2793   1.887   1.071   0.808  0.7268 -0.3564  0.7982
  932SOL     OW 2794   2.902   0.855   1.289 -0.0772  0.3309  0.1864
  932SOL    HW1 2795   2.804   0.860   1.258 -0.3124  0.8842  1.3320
  932SOL    HW2 2796   2.957   0.828   1.204  2.4904  1.9499 -2.1102
  933SOL     OW 2797   2.448   1.733   1.571 -0.0680  0.3783 -0.6015
  933SOL    HW1 2798   2.423   1.802   1.645  0.3392  1.1565  0.1852
  933SOL    HW2 2799   2.545   1.739   1.542  1.4430  1.7345 -1.1898
  934SOL     OW 2800   1.745   0.312   1.033  0.1079  0.6039  0.0333
  934SOL    HW1 2801   1.712   0.227   1.078  1.0257 -0.9155 -1.1265
  934SOL    HW2 2802   1.790   0.291   0.945  0.7397 -0.4437  0.6362
  935SOL     OW 2803   0.116   1.341   1.129  0.0749 -0.8059 -0.2189
  935SOL    HW1 2804   0.078   1.408   1.062 -0.3457  1.7131 -2.6160
  935SOL    HW2 2805   0.170   1.264   1.090  1.5069  0.6010  0.9888
  936SOL     OW 2806   2.961   1.157   1.055  0.4140  0.5450  0.1206
  936SOL    HW1 2807   2.912   1.158   1.146  2.1437  0.0085  2.1243
  936SOL    HW2 2808   0.007   1.139   1.064 -0.3475  1.6511 -2.3662
  937SOL     OW 2809   1.358   2.903   0.930  0.3853 -0.5617 -0.0033
  937SOL    HW1 2810   1.296   2.974   0.975 -1.8910 -1.1317  0.1273
  937SOL    HW2 2811   1.366   2.911   0.828  1.8023 -0.5027  0.2055
  938SOL     OW 2812   2.720   2.498   0.781  0.2994  0.0977 -0.5233
  938SOL    HW1 2813   2.720   2.522   0.683  1.6698  2.4115  0.8629
  938SOL    HW2 2814   2.640   2.535   0.834  0.7149 -0.2028  0.7690
  939SOL     OW 2815   0.560   1.792   2.885 -0.4496 -0.1431 -0.0155
  939SOL    HW1 2816   0.655   1.779   2.852  2.4737 -3.0174 -1.0023
  939SOL    HW2 2817   0.544   1.879   2.936 -4.3477  1.0633 -1.5435
  940SOL     OW 2818   2.636   2.972   2.805  0.9762  0.1489 -0.2969
  940SOL    HW1 2819   2.713   3.006   2.748  2.9481 -0.0927 -0.3193
  940SOL    HW2 2820   2.597   2.894   2.753  0.9295 -0.1471 -1.3091
  941SOL     OW 2821   1.131   2.828   0.195  0.0288  0.0524 -0.3484
  941SOL    HW1 2822   1.157   2.730   0.208  1.3736  0.7245 -2.5433
  941SOL    HW2 2823   1.212   2.887   0.187  0.6211 -0.5611  0.1227
  942SOL     OW 2824   1.602   1.888   1.730  0.2421  0.7413 -0.1769
  942SOL    HW1 2825   1.538   1.813   1.744 -1.1845  0.7828 -0.7601
  942SOL    HW2 2826   1.624   1.899   1.636 -2.4750 -3.7416  0.0751
  943SOL     OW 2827   2.249   1.319   1.402  0.2099 -0.2040 -0.2719
  943SOL    HW1 2828   2.311   1.352   1.473  0.3576 -1.3014 -2.8151
  943SOL    HW2 2829   2.162   1.285   1.440  0.7734  2.9998  0.0823
  944SOL     OW 2830   1.822   0.999   1.450 -0.1658 -0.1440 -0.0634
  944SOL    HW1 2831   1.723   1.012   1.461 -0.7254  1.5568  0.0683
  944SOL    HW2 2832   1.857   0.941   1.375  1.2615  1.0654  1.9259
  945SOL     OW 2833   0.073   2.906   1.064 -0.1084 -0.2639  0.5620
  945SOL    HW1 2834   0.106   2.960   1.147 -0.2908  3.5528 -2.1681
  945SOL    HW2 2835   0.010   2.826   1.099 -3.0241 -3.8904  0.7736
  946SOL     OW 2836   0.266   0.766   1.828 -0.4269  0.0232  0.8985
  946SOL    HW1 2837   0.327   0.836   1.784  3.7296  2.5435 -1.2983
  946SOL    HW2 2838   0.299   0.673   1.795 -0.2564 -1.1483 -1.7448
  947SOL     OW 2839   0.578   2.583   0.527 -0.0718 -0.1942  0.4807
  947SOL    HW1 2840   0.582   2.662   0.461  1.5570  1.8910 -2.8928
  947SOL    HW2 2841   0.662   2.569   0.579  0.0297  1.3122  1.9115
  948SOL     OW 2842   2.928   1.178   1.806  0.2760 -0.2525  0.5543
  948SOL    HW1 2843   2.986   1.210   1.726 -1.3430 -0.7141 -2.6378
  948SOL    HW2 2844   2.969   1.101   1.867  1.8166 -0.6197 -0.1883
  949SOL     OW 2845   0.481   0.862   2.295 -0.1844 -0.1999 -0.4407
  949SOL    HW1 2846   0.475   0.840   2.395 -0.0417  2.1146  2.6997
  949SOL    HW2 2847   0.400   0.837   2.241 -1.7326 -0.5917  0.3466
  950SOL     OW 2848   0.823   0.892   0.905  0.0305 -0.2950  0.5627
  950SOL    HW1 2849   0.734   0.885   0.861  2.2291 -0.8458 -2.8156
  950SOL    HW2 2850   0.890   0.939   0.845 -1.7018 -2.6013 -1.8138
  951SOL     OW 2851   1.127   1.908   1.978 -0.0179  0.7804 -0.0626
  951SOL    HW1 2852   1.194   1.904   2.053 -1.5172  1.0091  1.4375
  951SOL    HW2 2853   1.038   1.948   2.004 -1.4711 -1.8649 -0.8445
  952SOL     OW 2854   0.828   1.791   2.795  0.1834  0.6890 -0.5012
  952SOL    HW1 2855   0.903   1.771   2.858 -2.0116 -2.0750  0.7297
  952SOL    HW2 2856   0.819   1.715   2.729 -0.8291  1.5233 -0.8676
  953SOL     OW 2857   1.599   3.037   2.170  0.0057 -0.1865 -0.7780
  953SOL    HW1 2858   1.647   0.074   2.168  0.2184 -0.9556 -2.9361
  953SOL    HW2 2859   1.597   2.998   2.264 -0.9649 -0.4184 -2.4883
  954SOL     OW 2860   1.980   1.111   0.223  0.5555 -0.3708 -0.2880
  954SOL    HW1 2861   1.976   1.207   0.256  0.1931 -1.3884 -1.8718
  954SOL    HW2 2862   1.963   1.130   0.121 -1.2406  1.4460 -1.5822
  955SOL     OW 2863   0.627   2.248   2.148 -0.2415 -0.2517  0.8096
  955SOL    HW1 2864   0.632   2.170   2.219 -2.2201 -0.2851  3.2721
  955SOL    HW2 2865   0.569   2.215   2.076  0.0447 -0.3600  1.2274
  956SOL     OW 2866   1.576   0.969   1.219  0.5254 -0.4826 -0.0547
  956SOL    HW1 2867   1.582   0.868   1.221  2.7568  2.4016  2.8310
  956SOL    HW2 2868   1.567   0.995   1.320 -1.2751 -3.0027  0.5640
  957SOL     OW 2869   2.093   1.353   2.370 -0.0660 -0.1064 -0.6080
  957SOL    HW1 2870   2.046   1.383   2.457 -2.4330  0.6295 -0.0588
  957SOL    HW2 2871   2.022   1.344   2.297 -1.1590 -0.2172 -1.5209
  958SOL     OW 2872   1.347   2.407   0.907  0.0562  0.0325  0.0444
  958SOL    HW1 2873   1.318   2.496   0.859 -1.5128  3.7879 -2.2303
  958SOL    HW2 2874   1.383   2.432   0.997 -0.2912  1.0657  1.1685
  959SOL     OW 2875   1.705   1.500   2.647 -0.0058 -0.2026  0.0761
  959SOL    HW1 2876   1.726   1.404   2.685  0.4655 -1.0634 -1.8918
  959SOL    HW2 2877   1.696   1.569   2.719  0.2587 -0.9686  0.2161
  960SOL     OW 2878   0.140   0.427   0.152 -0.2877  0.3702  0.6262
  960SOL    HW1 2879   0.041   0.448   0.147 -2.5339  0.7612 -1.8699
  960SOL    HW2 2880   0.170   0.370   0.072  0.4088 -1.1195 -1.3468
  961SOL     OW 2881   0.358   0.476   2.224 -0.2727 -0.0119  0.1077
  961SOL    HW1 2882   0.442   0.415   2.225 -0.8187 -2.0508  0.2554
  961SOL    HW2 2883   0.336   0.503   2.321 -0.1905  0.3802  0.4622
  962SOL     OW 2884   1.005   1.481   0.005  0.2471 -0.0946  0.0340
  962SOL    HW1 2885   1.091   1.429   0.001 -1.5210  2.7293  0.4115
  962SOL    HW2 2886   0.922   1.419   0.005 -0.0373 -0.6785 -1.1837
  963SOL     OW 2887   1.970   1.862   2.923 -0.0459  0.4600 -0.0506
  963SOL    HW1 2888   1.915   1.947   2.908  2.0914  0.4245 -3.0035
  963SOL    HW2 2889   2.055   1.894   2.962 -2.0560 -1.2938 -0.5720
  964SOL     OW 2890   1.160   0.032   0.977 -0.7078  0.4572  0.8805
  964SOL    HW1 2891   1.112   0.096   0.912 -0.3119  1.1714 -1.2433
  964SOL    HW2 2892   1.112   0.020   1.067 -0.6777 -1.4522  0.1327
  965SOL     OW 2893   0.628   2.456   1.073 -0.2487  0.1283 -0.2995
  965SOL    HW1 2894   0.527   2.442   1.078  1.8009 -0.7654  2.4980
  965SOL    HW2 2895   0.679   2.384   1.021  1.0180 -2.9083  1.1680
  966SOL     OW 2896   3.028   1.403   3.017  0.8767 -0.1967 -0.9195
  966SOL    HW1 2897   2.959   1.348   2.970  0.1999 -0.5776  0.1003
  966SOL    HW2 2898   2.986   1.450   0.042 -3.0888  0.9405  1.1069
  967SOL     OW 2899   1.735   2.879   1.528 -0.0022 -0.0601 -0.3191
  967SOL    HW1 2900   1.808   2.815   1.498 -2.6453 -1.5645  0.6128
  967SOL    HW2 2901   1.668   2.824   1.581 -0.1266 -1.8409 -0.3620
  968SOL     OW 2902   1.862   0.911   0.725  0.5586 -0.2738 -0.2860
  968SOL    HW1 2903   1.781   0.940   0.673 -0.1557  0.3484  0.0318
  968SOL    HW2 2904   1.854   0.814   0.772  0.0195 -1.6218 -3.1196
  969SOL     OW 2905   0.440   1.853   2.041 -0.4903 -0.0755  0.1730
  969SOL    HW1 2906   0.504   1.912   1.988  0.2001  2.8248  1.8323
  969SOL    HW2 2907   0.414   1.909   2.124 -2.0396  1.6019 -2.0097
  970SOL     OW 2908   2.641   1.349   1.488  0.0785 -0.3614 -0.0578
  970SOL    HW1 2909   2.639   1.265   1.433 -1.5637 -1.3315 -0.6894
  970SOL    HW2 2910   2.626   1.429   1.427 -2.9713 -1.4950 -0.7767
  971SOL     OW 2911   1.120   0.363   1.615  0.1211 -0.8341  0.1130
  971SOL    HW1 2912   1.123   0.298   1.692  1.9740  1.0936  0.8872
  971SOL    HW2 2913   1.034   0.357   1.564 -3.0234 -0.5861 -0.8748
  972SOL     OW 2914   0.874   0.239   2.557 -0.2495  0.6367 -0.7072
  972SOL    HW1 2915   0.911   0.225   2.652  0.7723  1.4519  0.1271
  972SOL    HW2 2916   0.880   0.150   2.509  0.8724  0.0146  0.3863
  973SOL     OW 2917   2.971   1.466   0.934 -0.1214  0.4899 -0.1284
  973SOL    HW1 2918   2.923   1.378   0.916 -0.2181 -0.6387 -0.6900
  973SOL    HW2 2919   3.017   1.492   0.847  0.3397 -1.3355  3.0167
  974SOL     OW 2920   1.947   0.991   1.678  0.7128 -0.1089  0.1524
  974SOL    HW1 2921   2.047   1.006   1.685 -1.4923 -0.6890  0.4225
  974SOL    HW2 2922   1.907   0.994   1.584 -0.9397 -0.2808  1.5892
  975SOL     OW 2923   2.566   0.029   0.178 -0.0767 -0.2268 -0.4202
  975SOL    HW1 2924   2.499   3.025   0.223  2.9071  1.7681  0.7935
  975SOL    HW2 2925   2.622   3.039   0.107  0.4334  0.8502 -0.9480
  976SOL     OW 2926   0.265   1.672   1.623 -0.5236  0.9741  0.1358
  976SOL    HW1 2927   0.256   1.770   1.651 -2.4266 -0.6466  1.2607
  976SOL    HW2 2928   0.183   1.632   1.585  1.7537 -0.5856  0.3417
  977SOL     OW 2929   0.509   2.974   0.131  0.0148 -0.7306 -0.1753
  977SOL    HW1 2930   0.574   3.047   0.096  0.4636  0.4157 -2.5141
  977SOL    HW2 2931   0.484   2.911   0.059  0.9710  3.1502  0.4887
  978SOL     OW 2932   0.500   1.688   0.123  0.2379  0.2987 -1.2320
  978SOL    HW1 2933   0.468   1.591   0.124 -2.6066  0.8501  0.6856
  978SOL    HW2 2934   0.536   1.722   0.037 -1.0465 -0.9661  0.0296
  979SOL     OW 2935   1.298   2.059   1.278 -0.1556  0.5239  0.4158
  979SOL    HW1 2936   1.273   2.155   1.305 -1.4135  0.0597  1.2153
  979SOL    HW2 2937   1.331   2.002   1.354  0.7883 -0.8997 -0.5796
  980SOL     OW 2938   0.643   1.245   1.925  0.6616  0.0635 -0.4576
  980SOL    HW1 2939   0.591   1.314   1.872  0.9795 -3.8655 -0.7320
  980SOL    HW2 2940   0.609   1.232   2.019 -1.1309  0.2815 -0.0294
  981SOL     OW 2941   2.982   1.308   0.317  0.5180 -0.0817 -0.1889
  981SOL    HW1 2942   0.023   1.313   0.337 -2.4665 -0.2063  1.6484
  981SOL    HW2 2943   2.938   1.400   0.334  0.4203  1.6212 -0.6816
  982SOL     OW 2944   2.246   2.543   2.936 -0.0130  0.3205 -0.3332
  982SOL    HW1 2945   2.259   2.537   3.038 -3.2812 -1.6373  1.6541
  982SOL    HW2 2946   2.146   2.545   2.911 -1.9233  1.2597 -0.2244
  983SOL     OW 2947   2.153   0.562   1.184  0.0339  0.1082 -0.2760
  983SOL    HW1 2948   2.211   0.577   1.267 -0.7302  0.8971  0.1192
  983SOL    HW2 2949   2.141   0.461   1.161  0.8441 -0.2575  0.4793
  984SOL     OW 2950   0.885   0.025   2.412 -0.2598 -0.8807  0.3571
  984SOL    HW1 2951   0.926   0.065   2.325 -1.4541 -0.2758  0.3688
  984SOL    HW2 2952   0.879   2.978   2.416  1.3345  1.6988 -1.5335
  985SOL     OW 2953   1.518   2.118   2.302 -0.3320  0.1181 -0.2388
  985SOL    HW1 2954   1.452   2.149   2.234  0.9004  1.8971  0.8357
  985SOL    HW2 2955   1.574   2.039   2.264 -1.3021 -0.5868 -1.7700
  986SOL     OW 2956   1.604   2.951   2.429  0.0033  0.0637 -0.0061
  986SOL    HW1 2957   1.666   3.020   2.476  1.4127  1.3248  2.3693
  986SOL    HW2 2958   1.596   2.874   2.491  2.7677  0.5083 -0.0789
  987SOL     OW 2959   2.295   0.124   2.167  0.5137 -0.2370  0.2066
  987SOL    HW1 2960   2.331   0.219   2.180  1.8148  1.3119 -2.8752
  987SOL    HW2 2961   2.337   0.059   2.228  0.4386  0.7715 -1.6824
  988SOL     OW 2962   2.372   0.373   2.234  0.2325  0.3265 -0.1142
  988SOL    HW1 2963   2.365   0.440   2.312 -0.3357  0.6164  2.0776
  988SOL    HW2 2964   2.318   0.405   2.158  0.7677  0.8231 -0.3654
  989SOL     OW 2965   2.488   2.247   2.876  0.6301  0.2915 -0.6303
  989SOL    HW1 2966   2.560   2.299   2.824  0.3390  2.2347 -1.0716
  989SOL    HW2 2967   2.456   2.165   2.826  0.7411 -0.4714  4.1043
  990SOL     OW 2968   0.188   0.789   3.013  0.5092 -0.0623  0.2201
  990SOL    HW1 2969   0.117   0.735   3.055  4.8775  2.9523 -3.1662
  990SOL    HW2 2970   0.161   0.840   2.926  1.6862 -1.2291 -3.3792
  991SOL     OW 2971   0.357   1.071   2.625 -0.5040 -0.3769  0.1603
  991SOL    HW1 2972   0.453   1.107   2.616 -0.1075 -0.0980  0.7641
  991SOL    HW2 2973   0.356   0.971   2.609  0.3588 -0.7728  1.6990
  992SOL     OW 2974   0.224   1.693   1.999  0.3122 -0.3917 -0.1486
  992SOL    HW1 2975   0.298   1.761   1.997  2.8437  1.0474 -1.1717
  992SOL    HW2 2976   0.150   1.726   1.941  1.2792 -0.5163  3.0590
  993SOL     OW 2977   0.835   0.215   0.610 -0.8384  0.0683  0.0395
  993SOL    HW1 2978   0.785   0.300   0.599  1.0197  1.4215  1.1424
  993SOL    HW2 2979   0.785   0.137   0.571  0.9035  1.3202  1.7534
  994SOL     OW 2980   0.430   2.125   1.494 -0.2946  0.4906  0.0039
  994SOL    HW1 2981   0.348   2.117   1.441  1.9348  3.1230  0.8849
  994SOL    HW2 2982   0.480   2.035   1.493 -0.7212 -2.3386  0.2719
  995SOL     OW 2983   2.173   1.601   2.738  0.3846 -0.3710  0.0037
  995SOL    HW1 2984   2.273   1.633   2.736  3.0268  3.0494  0.5066
  995SOL    HW2 2985   2.141   1.588   2.835 -1.3606  0.9414 -0.9230
  996SOL     OW 2986   1.985   1.487   2.585 -0.0780 -0.1989  0.1421
  996SOL    HW1 2987   1.885   1.508   2.591  0.1573  1.4967 -1.2611
  996SOL    HW2 2988   2.037   1.561   2.638 -2.0212  0.6924 -3.4767
  997SOL     OW 2989   1.741   1.230   1.667 -0.2037 -0.3811  0.2047
  997SOL    HW1 2990   1.744   1.138   1.703 -0.2512 -1.7419 -0.8410
  997SOL    HW2 2991   1.660   1.237   1.604 -2.3312 -0.2274  1.6060
  998SOL     OW 2992   2.216   2.068   1.068  0.4282  0.0348  0.0200
  998SOL    HW1 2993   2.141   2.042   1.137  0.4601 -0.2763 -0.4877
  998SOL    HW2 2994   2.234   1.996   0.999 -0.8172  3.7413  1.8345
  999SOL     OW 2995   2.340   2.559   0.166 -0.2106 -0.0599  0.2207
  999SOL    HW1 2996   2.408   2.636   0.183  0.9070  1.0603  2.1893
  999SOL    HW2 2997   2.388   2.479   0.135  0.6245  3.0166 -0.4308
 1000SOL     OW 2998   0.634   3.051   2.545  0.2140 -0.1008  0.3084
 1000SOL    HW1 2999   0.596   0.059   2.611 -1.7012 -2.4466 -1.5440
 1000SOL    HW2 3000   0.705   0.040   2.492 -2.9965 -0.2992 -0.1233
   3.05657   3.05657   3.05657
