1000 SPC/Fw water molecules t= 373.00000 step= 373000
 3000
    1SOL     OW    1   2.437   2.675   1.701 -0.2710  0.0616 -0.2265
    1SOL    HW1    2   2.449   2.736   1.782 -1.3247  0.1976  1.2402
    1SOL    HW2    3   2.475   2.724   1.622  1.6919  2.1402 -0.5634
    2SOL     OW    4   2.351   2.508   0.462 -0.1610  0.0611 -0.6383
    2SOL    HW1    5   2.436   2.509   0.406  3.7962 -0.3218  0.0752
    2SOL    HW2    6   2.333   2.601   0.495 -0.1817  0.8565  1.0142
    3SOL     OW    7   1.151   0.249   0.202 -0.1873  0.7758 -0.3600
    3SOL    HW1    8   1.220   0.302   0.252  1.2416  0.2193 -2.2506
    3SOL    HW2    9   1.137   0.288   0.109 -1.1560  1.8098 -1.2367
    4SOL     OW   10   1.338   2.856   2.145  0.0314 -0.0009  0.0014
    4SOL    HW1   11   1.318   2.770   2.094  1.2165  0.8018 -0.0894
    4SOL    HW2   12   1.255   2.905   2.173 -1.5064 -0.5125  3.2445
    5SOL     OW   13   2.377   0.371   1.643  0.9358 -0.3266 -0.4047
    5SOL    HW1   14   2.285   0.397   1.668  0.8555  0.7462 -2.2119
    5SOL    HW2   15   2.418   0.321   1.720  1.0461  2.9557 -2.2987
    6SOL     OW   16   2.175   2.379   0.302 -0.2181 -0.2212  0.4938
    6SOL    HW1   17   2.238   2.431   0.363  1.1209 -1.5628 -0.2117
    6SOL    HW2   18   2.079   2.412   0.312 -0.0487 -1.0165 -0.3226
    7SOL     OW   19   1.870   1.155   1.083  0.5136 -0.2094 -0.2120
    7SOL    HW1   20   1.935   1.118   1.154  1.2928 -0.3706  1.8725
    7SOL    HW2   21   1.776   1.141   1.112 -2.2113  1.0134  0.6932
    8SOL     OW   22   1.003   1.203   1.144 -0.0523  0.2743  0.0834
    8SOL    HW1   23   0.947   1.283   1.118  0.8402  1.1236 -1.6468
    8SOL    HW2   24   0.952   1.149   1.213  0.7324  1.6787  0.7300
    9SOL     OW   25   1.039   2.394   1.507 -0.0565  0.1090  0.4050
    9SOL    HW1   26   0.971   2.439   1.572 -2.7070 -1.0536 -1.9427
    9SOL    HW2   27   0.999   2.312   1.463  0.1720 -0.5145  0.9431
   10SOL     OW   28   1.050   2.361   0.628  0.0264  0.1151  0.1089
   10SOL    HW1   29   1.057   2.375   0.526  1.5421  1.1017  1.5883
   10SOL    HW2   30   1.118   2.293   0.656 -2.4272  4.1011  1.7841
   11SOL     OW   31   1.601   1.650   1.381  0.4887 -0.0087 -0.3842
   11SOL    HW1   32   1.578   1.749   1.374  1.5079 -2.4110  0.0873
   11SOL    HW2   33   1.609   1.608   1.292  2.3504 -2.1071  1.9487
   12SOL     OW   34   2.556   0.532   2.187 -0.5001  0.4374  0.8359
   12SOL    HW1   35   2.642   0.504   2.140 -1.8647  2.3004  1.0227
   12SOL    HW2   36   2.534   0.628   2.158 -1.1453 -2.8354 -2.1306
   13SOL     OW   37   2.590   0.177   0.543 -0.4421  0.0048 -0.1677
   13SOL    HW1   38   2.494   0.168   0.577 -1.4829  1.0992 -0.3675
   13SOL    HW2   39   2.657   0.144   0.615 -3.8659 -2.9713  1.1288
   14SOL     OW   40   1.654   1.342   0.123  0.2428  0.3216 -0.2638
   14SOL    HW1   41   1.716   1.265   0.136  1.8492 -0.8553  1.7842
   14SOL    HW2   42   1.571   1.326   0.060  0.9148  1.1233  2.4597
   15SOL     OW   43   2.390   2.472   1.555 -0.1356  0.0111 -0.3450
   15SOL    HW1   44   2.393   2.505   1.457  1.4204  0.4489 -1.2581
   15SOL    HW2   45   2.415   2.549   1.615 -0.8467  1.8297 -1.0444
   16SOL     OW   46   2.310   3.006   0.984  0.0237  0.2714  0.1460
   16SOL    HW1   47   2.330   0.018   0.997  0.9421  0.3359 -1.7020
   16SOL    HW2   48   2.390   2.954   1.014 -2.0625 -3.8511  0.1099
   17SOL     OW   49   0.984   0.326   1.294 -0.1681 -0.0756 -0.3986
   17SOL    HW1   50   0.963   0.404   1.226  0.1953  1.7758 -3.9112
   17SOL    HW2   51   0.920   0.248   1.280 -2.2709  0.3419  0.2708
   18SOL     OW   52   2.049   0.349   0.501  0.2135 -0.2763 -0.3065
   18SOL    HW1   53   1.982   0.301   0.560 -0.2239  1.4997 -0.2173
   18SOL    HW2   54   2.047   0.298   0.415  1.9658  1.6107  0.9792
   19SOL     OW   55   2.050   1.521   0.261  0.0746  0.2372 -0.2348
   19SOL    HW1   56   2.020   1.513   0.164 -2.8736 -2.5697  1.0644
   19SOL    HW2   57   2.034   1.616   0.299 -2.0041  1.4752  1.5561
   20SOL     OW   58   2.171   1.418   2.377 -0.6752  0.4652  0.3482
   20SOL    HW1   59   2.265   1.413   2.332  0.7526 -2.8147 -0.6808
   20SOL    HW2   60   2.108   1.394   2.301 -1.0102  0.8713 -0.2148
   21SOL     OW   61   1.467   0.268   0.595 -0.4908 -0.7368 -0.1107
   21SOL    HW1   62   1.436   0.311   0.685 -2.1835 -1.7822  0.3053
   21SOL    HW2   63   1.459   0.339   0.518  0.2414  1.4924 -1.6142
   22SOL     OW   64   2.516   0.581   1.520  0.2519 -0.6026  0.0364
   22SOL    HW1   65   2.519   0.676   1.555  0.1376 -3.2380 -1.5829
   22SOL    HW2   66   2.475   0.520   1.590 -2.2768 -1.8678  3.0616
   23SOL     OW   67   0.225   0.293   1.963 -0.0373  0.0637  0.4297
   23SOL    HW1   68   0.286   0.288   1.882  0.2639 -2.7679  2.3729
   23SOL    HW2   69   0.264   0.339   2.046 -2.2674 -0.9132  2.9464
   24SOL     OW   70   2.538   2.570   0.289  0.3458 -0.6047 -0.0518
   24SOL    HW1   71   2.571   2.479   0.254 -0.7477 -1.1875 -0.2285
   24SOL    HW2   72   2.491   2.628   0.224  0.9168 -0.5379  0.6942
   25SOL     OW   73   1.353   0.042   2.508 -0.0453 -0.0235 -0.5620
   25SOL    HW1   74   1.433   3.066   2.493  0.2123 -1.0661 -1.7839
   25SOL    HW2   75   1.295   3.082   2.580  1.8754 -0.5268 -0.7143
   26SOL     OW   76   1.411   2.644   0.188 -0.1734  0.5647  0.1468
   26SOL    HW1   77   1.341   2.694   0.132  0.8821  0.6928 -0.5366
   26SOL    HW2   78   1.365   2.613   0.273  2.0274  2.5468 -0.3602
   27SOL     OW   79   1.533   0.668   0.998 -0.1327 -0.0941 -0.0208
   27SOL    HW1   80   1.462   0.690   0.927  0.9153 -1.7984  0.3719
   27SOL    HW2   81   1.574   0.578   0.991  1.2151  1.5178 -1.8529
   28SOL     OW   82   1.309   1.385   0.828  1.0003 -0.2663  0.1314
   28SOL    HW1   83   1.250   1.463   0.801  1.2503  1.7380  0.2942
   28SOL    HW2   84   1.402   1.399   0.790 -3.6713 -1.0957  2.3723
   29SOL     OW   85   0.049   2.970   1.927 -0.1676  0.0532  0.5028
   29SOL    HW1   86   3.033   2.986   1.926 -1.0409 -2.5035  2.9584
   29SOL    HW2   87   0.081   2.934   1.839 -1.4000  0.1847 -1.2754
   30SOL     OW   88   1.122   0.053   1.172 -0.1223  0.5412  0.0294
   30SOL    HW1   89   1.197   0.018   1.113 -3.4528 -1.4262 -1.9906
   30SOL    HW2   90   1.136   0.042   1.272 -1.4875  1.7437 -1.4637
   31SOL     OW   91   1.804   2.749   2.101 -0.1218 -0.5513  0.2416
   31SOL    HW1   92   1.859   2.810   2.158  0.9004 -1.6622  0.2202
   31SOL    HW2   93   1.834   2.653   2.095 -0.2872  2.9548  1.2086
   32SOL     OW   94   0.835   1.706   0.124  0.1861 -0.4432  0.1898
   32SOL    HW1   95   0.858   1.777   0.053 -0.4263 -1.1144  0.8464
   32SOL    HW2   96   0.789   1.753   0.203 -3.5907  1.6481 -0.6466
   33SOL     OW   97   3.017   0.879   2.186  0.0258 -0.6229 -0.1972
   33SOL    HW1   98   2.979   0.829   2.265  2.5459 -0.5075  1.4701
   33SOL    HW2   99   0.012   0.823   2.148  2.5780  1.4818  1.5251
   34SOL     OW  100   2.336   0.105   0.604 -0.4688  0.2739  0.3961
   34SOL    HW1  101   2.277   0.144   0.674 -0.4910 -2.3416  1.5788
   34SOL    HW2  102   2.290   0.060   0.523 -2.5157 -0.0283 -1.6939
   35SOL     OW  103   2.561   2.246   1.970  0.4285 -0.0252 -0.2299
   35SOL    HW1  104   2.485   2.252   2.036  2.5643  1.9495  1.5719
   35SOL    HW2  105   2.568   2.334   1.922 -2.2153 -0.6008  1.7212
   36SOL     OW  106   2.417   2.168   0.045 -0.0693  0.1802  0.4488
   36SOL    HW1  107   2.420   2.250   3.070 -5.0029  0.5527 -1.8893
   36SOL    HW2  108   2.405   2.083   3.074 -0.8160  0.9249  2.3657
   37SOL     OW  109   2.034   0.201   1.686  0.1411  0.3959 -0.3600
   37SOL    HW1  110   1.985   0.164   1.605  2.7683 -0.2672 -0.1882
   37SOL    HW2  111   1.992   0.289   1.722 -3.7855 -0.2517 -0.8907
   38SOL     OW  112   3.044   0.283   2.801 -0.0463  0.1782  0.4271
   38SOL    HW1  113   3.007   0.371   2.765  0.0463 -3.0625  0.9691
   38SOL    HW2  114   0.034   0.288   2.875 -0.1264  2.7289  1.1259
   39SOL     OW  115   1.881   1.184   1.858 -0.7584  0.0194 -0.3539
   39SOL    HW1  116   1.912   1.156   1.952 -0.5279 -0.0856  1.5190
   39SOL    HW2  117   1.884   1.285   1.847 -2.3688 -0.5265 -0.7327
   40SOL     OW  118   1.261   2.053   0.811 -0.7356  0.3453 -0.2405
   40SOL    HW1  119   1.304   1.963   0.823  1.1590  0.4021 -1.9493
   40SOL    HW2  120   1.300   2.095   0.724 -1.4569  0.2017  1.8151
   41SOL     OW  121   2.011   1.907   0.933  0.2686  0.2207 -0.1456
   41SOL    HW1  122   2.042   1.991   0.976 -0.9798 -3.9680  0.3974
   41SOL    HW2  123   2.068   1.882   0.854 -0.8414  0.0019  0.3631
   42SOL     OW  124   0.322   0.494   1.241  0.3526  0.1750  0.0080
   42SOL    HW1  125   0.342   0.445   1.327 -0.7106  0.1163 -1.9633
   42SOL    HW2  126   0.317   0.595   1.261 -0.0945  1.6353  1.8665
   43SOL     OW  127   0.145   1.614   2.600  0.2520 -0.1063  0.2249
   43SOL    HW1  128   0.185   1.685   2.665 -1.4779  0.4854 -2.0765
   43SOL    HW2  129   0.175   1.518   2.615  3.2679  1.6222 -1.0742
   44SOL     OW  130   1.747   2.765   1.313  0.3363  0.0321 -0.0552
   44SOL    HW1  131   1.838   2.746   1.359 -1.2189 -0.6270 -0.0881
   44SOL    HW2  132   1.674   2.788   1.377 -0.6094  0.1736 -1.0393
   45SOL     OW  133   1.168   3.056   2.293  0.0164  0.6323  0.2205
   45SOL    HW1  134   1.069   3.060   2.318 -1.4525  0.0792 -2.0970
   45SOL    HW2  135   1.225   3.070   2.376  1.0511  3.0627  0.1708
   46SOL     OW  136   0.692   2.770   2.285 -0.2316 -0.3664 -0.2242
   46SOL    HW1  137   0.681   2.832   2.205  0.5264 -1.8684  0.0018
   46SOL    HW2  138   0.642   2.802   2.367  0.7895  0.3638 -1.6783
   47SOL     OW  139   0.832   2.384   0.853 -0.2849 -0.1045  0.4730
   47SOL    HW1  140   0.877   2.335   0.776  0.2408  0.4657  0.1816
   47SOL    HW2  141   0.834   2.486   0.835 -0.8770 -0.0510  2.8804
   48SOL     OW  142   1.070   2.391   1.058 -0.2245 -0.6195 -0.3516
   48SOL    HW1  143   0.978   2.380   1.016 -0.3568  1.1299  1.0092
   48SOL    HW2  144   1.064   2.448   1.144 -0.3201  0.6958 -3.3143
   49SOL     OW  145   2.298   0.312   3.065 -0.1492 -0.3389 -0.3792
   49SOL    HW1  146   2.218   0.248   3.071  0.7716  1.3337  0.0950
   49SOL    HW2  147   2.385   0.288   3.013  1.6799 -0.4712 -4.0020
   50SOL     OW  148   1.736   0.163   0.275  0.0494  0.5884  0.4021
   50SOL    HW1  149   1.835   0.178   0.263 -2.0875 -1.4542  2.4337
   50SOL    HW2  150   1.677   0.247   0.264 -1.2897 -1.6214 -1.2105
   51SOL     OW  151   2.279   0.879   1.350 -0.0056 -0.7326 -0.2856
   51SOL    HW1  152   2.268   0.954   1.284 -0.0316 -0.6544 -1.3334
   51SOL    HW2  153   2.220   0.892   1.426  0.6060 -0.2470 -1.5306
   52SOL     OW  154   0.494   1.610   0.114  0.0603 -0.2562 -0.4791
   52SOL    HW1  155   0.558   1.563   0.175 -0.8407 -1.2535 -2.1133
   52SOL    HW2  156   0.542   1.683   0.063  3.0478  2.0370  2.0803
   53SOL     OW  157   0.137   1.339   2.718 -0.1803  0.2306  0.3270
   53SOL    HW1  158   0.148   1.298   2.619  2.8411 -2.2809  0.4073
   53SOL    HW2  159   0.210   1.304   2.778 -0.3749 -2.3152 -0.2022
   54SOL     OW  160   2.642   1.376   1.981 -0.3371  0.1741 -0.2838
   54SOL    HW1  161   2.576   1.294   1.975 -3.5528 -3.9038  1.7103
   54SOL    HW2  162   2.694   1.381   2.072  1.8350 -0.3852  0.4803
   55SOL     OW  163   2.375   1.822   0.240 -0.2624  0.2127  0.5119
   55SOL    HW1  164   2.473   1.845   0.207  0.5318  3.6062  1.1607
   55SOL    HW2  165   2.365   1.720   0.228 -2.4465 -1.0204  0.3465
   56SOL     OW  166   1.879   0.139   1.476 -0.3236  0.1317  0.2637
   56SOL    HW1  167   1.802   0.109   1.539  1.5555  0.0321 -1.4029
   56SOL    HW2  168   1.886   0.074   1.401  0.7183 -0.0508 -1.3293
   57SOL     OW  169   1.544   1.135   2.833 -0.5989  0.4838  0.0221
   57SOL    HW1  170   1.578   1.067   2.894 -0.3064  2.5194 -0.2661
   57SOL    HW2  171   1.606   1.151   2.753 -0.2081 -1.7355 -0.0798
   58SOL     OW  172   2.696   0.214   1.507 -0.6060  0.0300  0.0631
   58SOL    HW1  173   2.704   0.280   1.429  0.5064 -1.0328  2.8895
   58SOL    HW2  174   2.779   0.224   1.566 -1.1903 -3.3761 -1.0242
   59SOL     OW  175   1.193   2.783   0.072  0.3209  0.3539 -0.3334
   59SOL    HW1  176   1.222   2.723   3.082 -2.8497  1.9339  0.3346
   59SOL    HW2  177   1.181   2.879   0.035 -0.1876  0.3015 -0.8819
   60SOL     OW  178   0.105   2.154   2.760  0.2662  0.5346  1.1475
   60SOL    HW1  179   0.062   2.061   2.748 -1.8938 -1.2242  1.4494
   60SOL    HW2  180   0.172   2.156   2.838  2.9716  1.4362  0.5221
   61SOL     OW  181   0.507   2.617   0.826 -0.5408 -0.5315  0.1719
   61SOL    HW1  182   0.587   2.617   0.887 -0.0708 -1.2048  1.0251
   61SOL    HW2  183   0.498   2.706   0.778  0.6801  0.6657 -2.4611
   62SOL     OW  184   1.759   1.644   2.707  0.5877 -0.0762 -0.0150
   62SOL    HW1  185   1.696   1.713   2.658 -2.7959  0.1620 -1.9450
   62SOL    HW2  186   1.698   1.569   2.732 -1.6544  0.5666  1.3573
   63SOL     OW  187   1.798   1.878   0.234 -0.3893 -0.4655 -0.0080
   63SOL    HW1  188   1.764   1.965   0.192 -1.3822  1.3884  1.6229
   63SOL    HW2  189   1.786   1.800   0.166  2.8222  2.8896  0.0081
   64SOL     OW  190   2.093   0.905   0.090  0.0941 -0.2596 -0.2476
   64SOL    HW1  191   2.029   0.977   0.057 -1.8657 -1.1778  0.2087
   64SOL    HW2  192   2.146   0.939   0.173 -0.6786  0.7502  0.7757
   65SOL     OW  193   1.941   2.082   2.061  0.1209 -0.2373 -0.0720
   65SOL    HW1  194   1.977   2.136   2.137 -0.4650 -1.5169 -3.3414
   65SOL    HW2  195   2.015   2.063   1.995  0.2279  0.9681  1.3182
   66SOL     OW  196   0.217   0.748   1.400 -0.5272  0.3020 -0.0294
   66SOL    HW1  197   0.309   0.764   1.353 -0.4921  1.2367 -0.9300
   66SOL    HW2  198   0.182   0.843   1.417  1.4020  1.4311 -2.0621
   67SOL     OW  199   2.059   0.131   3.065  0.3855  0.2595 -0.0250
   67SOL    HW1  200   2.049   0.031   3.079  3.1492  0.4841  1.6773
   67SOL    HW2  201   2.044   0.155   2.966  0.7714 -3.4739  0.6982
   68SOL     OW  202   1.484   1.901   1.406  0.5014 -0.2416  0.2967
   68SOL    HW1  203   1.415   1.911   1.328 -4.3890  1.8886 -2.8997
   68SOL    HW2  204   1.529   1.992   1.417  2.6906 -2.1777 -1.0430
   69SOL     OW  205   0.283   2.876   0.293  0.5287  0.4575  0.0986
   69SOL    HW1  206   0.290   2.789   0.236  1.5414 -0.2742 -1.1161
   69SOL    HW2  207   0.200   2.874   0.353  1.1681  1.7671  0.0749
   70SOL     OW  208   0.370   0.610   1.954 -0.1893 -0.2263 -0.0083
   70SOL    HW1  209   0.268   0.620   1.945 -1.0207 -0.7551 -0.1450
   70SOL    HW2  210   0.429   0.658   1.887  1.9866 -1.7966 -0.2937
   71SOL     OW  211   0.908   1.098   2.520 -0.3217 -0.2788  0.0224
   71SOL    HW1  212   0.960   1.057   2.601  1.2252  0.5182  1.3651
   71SOL    HW2  213   0.958   1.071   2.439  2.5133 -0.2973  0.6448
   72SOL     OW  214   2.979   1.800   1.972 -0.5788 -0.4398  0.6214
   72SOL    HW1  215   2.909   1.739   1.929  1.2750  0.1387  0.5256
   72SOL    HW2  216   3.052   1.837   1.906 -1.4102  1.1792 -0.9768
   73SOL     OW  217   1.478   1.742   0.192 -0.5928  0.2618  0.2674
   73SOL    HW1  218   1.521   1.788   0.108 -2.2310  0.2181  1.5036
   73SOL    HW2  219   1.378   1.722   0.180 -2.3419 -1.1675  1.2975
   74SOL     OW  220   2.262   3.034   2.860  0.2698  0.0479 -0.6619
   74SOL    HW1  221   2.272   0.052   2.871 -1.1128  1.0774 -1.2920
   74SOL    HW2  222   2.340   2.990   2.910  0.3263  1.8082  2.9824
   75SOL     OW  223   1.614   2.102   1.033 -0.4243 -0.2037  0.0749
   75SOL    HW1  224   1.530   2.126   0.989  1.6322  0.0067 -0.1857
   75SOL    HW2  225   1.675   2.054   0.959  1.9883  1.2711 -0.2907
   76SOL     OW  226   2.919   2.042   1.638 -0.1826  0.3165  0.2109
   76SOL    HW1  227   2.840   2.053   1.574  1.2950  0.2307  0.6197
   76SOL    HW2  228   2.888   2.069   1.729 -0.2707  2.0077  0.6668
   77SOL     OW  229   0.691   2.856   1.882 -0.0672  0.1932 -0.1754
   77SOL    HW1  230   0.676   2.927   1.811 -0.1242 -0.2594 -0.4211
   77SOL    HW2  231   0.695   2.897   1.975  2.4838  0.7674 -0.2169
   78SOL     OW  232   2.502   0.815   0.296 -0.2403 -0.8851  0.0591
   78SOL    HW1  233   2.404   0.828   0.272 -1.5583 -2.0075 -1.6532
   78SOL    HW2  234   2.546   0.903   0.283 -3.5274  0.5086  0.1489
   79SOL     OW  235   2.975   1.489   2.597  0.0741  0.4036 -0.0493
   79SOL    HW1  236   2.998   1.436   2.681  0.5424  0.7088 -0.3870
   79SOL    HW2  237   3.047   1.556   2.562 -0.5010  3.2439 -1.6742
   80SOL     OW  238   1.718   1.534   1.788 -0.2062 -0.1239 -0.4224
   80SOL    HW1  239   1.627   1.580   1.798  2.3057 -1.3851 -1.7115
   80SOL    HW2  240   1.730   1.495   1.698 -1.0935  4.7505  0.9424
   81SOL     OW  241   2.033   1.354   2.125  0.3913  0.0014  0.4764
   81SOL    HW1  242   1.969   1.275   2.144 -1.3636 -0.3330 -0.6354
   81SOL    HW2  243   1.986   1.447   2.099 -1.8331  2.0761  1.8471
   82SOL     OW  244   1.531   1.464   2.050 -0.1631  0.5423 -0.3457
   82SOL    HW1  245   1.500   1.553   2.013 -0.9426 -2.7689  2.3362
   82SOL    HW2  246   1.566   1.402   1.980 -2.1089 -3.0037  2.0016
   83SOL     OW  247   0.346   0.515   0.290 -0.0036  0.6296 -0.1685
   83SOL    HW1  248   0.420   0.450   0.317  0.9793 -0.0539  0.7242
   83SOL    HW2  249   0.282   0.515   0.369  2.2356  0.8658  0.8562
   84SOL     OW  250   0.078   0.745   0.313  0.1144 -0.3996 -0.0396
   84SOL    HW1  251   0.000   0.812   0.327 -1.9372  1.1864  0.9273
   84SOL    HW2  252   0.170   0.798   0.319  1.7938  3.0474  0.1142
   85SOL     OW  253   2.377   2.525   1.282 -0.8003  0.5233  0.8464
   85SOL    HW1  254   2.277   2.546   1.259 -4.0242 -1.4491 -0.3467
   85SOL    HW2  255   2.395   2.439   1.234 -1.5617  0.2544 -1.7975
   86SOL     OW  256   0.288   0.119   1.609  0.0329  0.0884  0.1736
   86SOL    HW1  257   0.359   0.084   1.547 -3.1301 -0.0047  0.1583
   86SOL    HW2  258   0.208   0.060   1.615  1.9148  3.4382  1.6653
   87SOL     OW  259   0.405   2.481   1.806  0.0885 -0.2641 -0.4642
   87SOL    HW1  260   0.494   2.430   1.787  0.1086 -2.5948  1.2010
   87SOL    HW2  261   0.329   2.445   1.752 -0.2758  1.2560 -0.0963
   88SOL     OW  262   0.253   2.151   2.997  0.8183 -0.5811  0.0651
   88SOL    HW1  263   0.225   2.055   3.024 -2.1019 -0.1762 -0.6980
   88SOL    HW2  264   0.332   2.191   3.048  0.1499  1.9042  2.0104
   89SOL     OW  265   1.071   0.940   0.605 -0.1536  0.1554  0.2309
   89SOL    HW1  266   1.173   0.923   0.612  1.6496 -0.7335 -0.0750
   89SOL    HW2  267   1.010   0.860   0.605 -0.9549  1.7858  1.7808
   90SOL     OW  268   0.148   1.536   2.246 -0.0438 -0.4442 -0.1083
   90SOL    HW1  269   0.117   1.555   2.153  1.4363  0.7305 -0.1956
   90SOL    HW2  270   0.156   1.625   2.297 -0.0216  0.1278  0.7426
   91SOL     OW  271   1.691   0.864   0.841 -0.5304 -0.8689  0.0240
   91SOL    HW1  272   1.647   0.788   0.892  0.8181  1.3819 -0.3347
   91SOL    HW2  273   1.755   0.831   0.773 -2.2923  0.9489  0.2136
   92SOL     OW  274   2.289   1.166   0.850  0.1638 -0.5512  0.2849
   92SOL    HW1  275   2.241   1.200   0.766 -0.5077 -1.0985  3.0491
   92SOL    HW2  276   2.272   1.229   0.932 -1.6805  0.5187  0.6561
   93SOL     OW  277   0.248   1.039   2.617  0.4663 -0.4667  0.1021
   93SOL    HW1  278   0.309   0.983   2.561  0.4476 -1.0399  2.3378
   93SOL    HW2  279   0.207   1.116   2.566 -0.7365 -0.5280  3.8134
   94SOL     OW  280   1.898   2.221   2.519  0.4567 -0.3651 -0.0248
   94SOL    HW1  281   1.962   2.171   2.580 -2.1006  0.9328  1.3148
   94SOL    HW2  282   1.936   2.220   2.428 -0.8423 -0.6111 -1.5782
   95SOL     OW  283   0.064   0.045   1.179  0.0346 -0.3802  0.4150
   95SOL    HW1  284   0.102   3.049   1.225  1.3028 -0.4585  0.7081
   95SOL    HW2  285   3.072   0.083   1.237 -1.8068  0.7593  2.3251
   96SOL     OW  286   2.951   2.636   1.133  0.6098  0.3521 -0.2675
   96SOL    HW1  287   2.871   2.648   1.070 -1.3256  0.6821  0.4375
   96SOL    HW2  288   2.941   2.695   1.220 -2.5074 -4.4693 -0.2589
   97SOL     OW  289   2.505   0.849   1.537 -0.5072  0.2148 -0.2694
   97SOL    HW1  290   2.436   0.822   1.469  3.0934 -0.0750  3.1090
   97SOL    HW2  291   2.554   0.936   1.511 -0.7222  0.8383 -0.0982
   98SOL     OW  292   1.858   2.512   1.893  0.1622 -0.5807 -0.6227
   98SOL    HW1  293   1.867   2.430   1.836  0.1790  2.0429  2.6767
   98SOL    HW2  294   1.789   2.570   1.848  1.0121  0.0484  1.5921
   99SOL     OW  295   0.370   2.842   1.406  0.3234  0.1514  0.3027
   99SOL    HW1  296   0.387   2.784   1.484  0.7754 -0.6132 -0.1278
   99SOL    HW2  297   0.445   2.824   1.333 -2.0695 -2.3758  0.6140
  100SOL     OW  298   1.662   0.302   2.630 -0.4210 -0.0338 -0.0867
  100SOL    HW1  299   1.710   0.388   2.664 -0.5386 -0.8441  1.3925
  100SOL    HW2  300   1.727   0.222   2.639  3.1798 -0.3562 -0.7550
  101SOL     OW  301   2.745   0.455   2.558  0.0774 -0.0368  0.2054
  101SOL    HW1  302   2.760   0.381   2.489  0.8585 -1.7086 -0.9780
  101SOL    HW2  303   2.649   0.490   2.555 -2.7626 -0.1615 -1.1901
  102SOL     OW  304   0.179   0.563   1.615 -0.0547  0.1066 -0.3143
  102SOL    HW1  305   0.116   0.599   1.685  0.0422  1.0304  1.4362
  102SOL    HW2  306   0.190   0.636   1.545 -0.2813  0.8236 -2.3260
  103SOL     OW  307   0.780   0.426   2.664  0.3324  0.4474  0.1168
  103SOL    HW1  308   0.835   0.346   2.693 -1.4688 -0.0329  3.7546
  103SOL    HW2  309   0.834   0.497   2.616  1.8785  1.9485 -0.5057
  104SOL     OW  310   0.405   0.845   2.423 -0.3607 -0.2022  0.6478
  104SOL    HW1  311   0.411   0.753   2.472  0.1146 -0.2575  2.2886
  104SOL    HW2  312   0.392   0.831   2.324  1.3905  0.6284  1.9371
  105SOL     OW  313   2.340   2.106   1.461  0.2387  0.2357 -0.3642
  105SOL    HW1  314   2.296   2.152   1.541 -2.8027 -0.7483 -0.3449
  105SOL    HW2  315   2.273   2.086   1.386 -0.3977  1.1219 -0.7687
  106SOL     OW  316   1.735   2.915   0.558  0.0294  0.1958 -0.4989
  106SOL    HW1  317   1.706   3.013   0.555 -0.7491  0.1959 -1.8654
  106SOL    HW2  318   1.720   2.868   0.469  1.9996  0.5384  1.8845
  107SOL     OW  319   1.774   2.331   1.074 -0.0351  0.5814 -0.3337
  107SOL    HW1  320   1.713   2.252   1.082 -2.7499  2.3305 -0.0227
  107SOL    HW2  321   1.722   2.421   1.090 -2.3799  1.3647  1.0393
  108SOL     OW  322   2.952   2.339   1.064  0.2646  0.3197 -0.4618
  108SOL    HW1  323   2.953   2.341   0.963 -0.1896 -0.3930  2.0498
  108SOL    HW2  324   2.976   2.427   1.110  0.2868  0.8990 -1.3451
  109SOL     OW  325   2.165   2.359   0.910 -0.1780  0.0480 -0.4612
  109SOL    HW1  326   2.186   2.336   0.812 -2.1424 -1.0751 -0.5871
  109SOL    HW2  327   2.106   2.446   0.910 -1.3998  2.2492 -0.4824
  110SOL     OW  328   1.071   1.699   2.056 -0.5295  0.4512  0.4064
  110SOL    HW1  329   1.031   1.612   2.024  1.0242  0.5342  2.8237
  110SOL    HW2  330   1.001   1.741   2.120  2.3384 -1.4550 -0.8233
  111SOL     OW  331   1.567   2.322   2.085  0.5753  0.4945  0.2006
  111SOL    HW1  332   1.492   2.331   2.012 -2.5456 -0.4997 -4.7891
  111SOL    HW2  333   1.566   2.410   2.139  2.2833  2.1869 -1.1257
  112SOL     OW  334   1.485   1.946   2.786  0.0453 -0.7096  0.4187
  112SOL    HW1  335   1.497   2.047   2.771  2.1334  2.1855 -2.1082
  112SOL    HW2  336   1.548   1.899   2.720  0.6787  2.9019 -0.7630
  113SOL     OW  337   1.689   1.901   1.793 -0.3092 -0.2775  0.1087
  113SOL    HW1  338   1.605   1.846   1.810 -1.9672 -1.2432  1.2525
  113SOL    HW2  339   1.706   1.970   1.868  0.0605 -0.9875 -0.6706
  114SOL     OW  340   3.010   1.255   1.444 -0.4255 -0.0191  0.1901
  114SOL    HW1  341   3.041   1.253   1.350 -2.6525  0.7040  1.5189
  114SOL    HW2  342   2.992   1.167   1.495  1.5745  1.4231 -0.6120
  115SOL     OW  343   0.763   0.693   0.054 -0.3764  0.0838  0.3120
  115SOL    HW1  344   0.706   0.673   3.058  1.3977  0.9781 -0.6197
  115SOL    HW2  345   0.742   0.623   0.124 -1.0412  1.5887 -0.8613
  116SOL     OW  346   2.671   1.864   2.482  0.2506  0.0223  0.1202
  116SOL    HW1  347   2.695   1.810   2.397  0.3347 -2.1371  2.0529
  116SOL    HW2  348   2.576   1.897   2.478  2.4530 -0.1837  0.8873
  117SOL     OW  349   0.027   2.404   0.381  0.1160 -0.2047  0.2011
  117SOL    HW1  350   0.100   2.360   0.438  0.5189  3.4950  0.3115
  117SOL    HW2  351   3.016   2.383   0.414 -2.3558  1.0102  1.6184
  118SOL     OW  352   0.720   1.932   2.797  0.2872  0.6707  0.3042
  118SOL    HW1  353   0.618   1.948   2.771 -2.2665  0.4783  0.4503
  118SOL    HW2  354   0.770   1.872   2.732 -2.3629  2.3476  0.8077
  119SOL     OW  355   0.660   2.251   0.587  0.0008 -0.5040  0.1938
  119SOL    HW1  356   0.577   2.300   0.612  3.2596 -1.6320  0.9177
  119SOL    HW2  357   0.658   2.205   0.494  0.8269  2.2347 -2.0951
  120SOL     OW  358   1.342   0.793   0.190  0.1651 -0.2732  0.1337
  120SOL    HW1  359   1.370   0.751   0.278 -1.1108 -1.3348 -3.0307
  120SOL    HW2  360   1.298   0.726   0.126 -0.8780  1.0249  1.1340
  121SOL     OW  361   1.309   2.309   0.930 -0.1446 -0.5619  0.2863
  121SOL    HW1  362   1.221   2.345   0.973 -1.4752  1.0150 -1.3507
  121SOL    HW2  363   1.297   2.209   0.907 -1.5814 -2.9402  0.4814
  122SOL     OW  364   2.815   2.163   1.872  0.0420  0.1876 -0.3708
  122SOL    HW1  365   2.869   2.111   1.938 -0.1091  0.3906 -4.7391
  122SOL    HW2  366   2.724   2.182   1.918  2.5539 -0.5426 -1.2924
  123SOL     OW  367   0.968   1.725   0.810  0.1456  0.5041 -0.3476
  123SOL    HW1  368   1.013   1.803   0.857  1.4863 -0.5751  3.2333
  123SOL    HW2  369   0.893   1.686   0.870  0.5044  1.1208  0.7432
  124SOL     OW  370   2.990   0.924   0.426  0.0039 -0.1135 -0.4390
  124SOL    HW1  371   3.008   1.018   0.388 -1.0603 -1.5244  0.9575
  124SOL    HW2  372   2.905   0.894   0.384  0.7368 -0.3574 -0.6348
  125SOL     OW  373   0.063   0.528   0.104  0.3520 -0.1270 -0.2871
  125SOL    HW1  374   0.137   0.584   0.142  1.3434 -1.2761  0.9537
  125SOL    HW2  375   0.083   0.431   0.110 -0.8473  0.4426 -2.3789
  126SOL     OW  376   0.116   1.767   0.703  0.4685  0.3304  0.2689
  126SOL    HW1  377   0.179   1.805   0.636 -1.0081 -0.8087  1.9685
  126SOL    HW2  378   0.164   1.725   0.779 -1.7280  1.9750  3.0144
  127SOL     OW  379   1.350   2.613   1.527 -0.0080 -0.2075  0.5804
  127SOL    HW1  380   1.281   2.613   1.600  0.3972 -0.8769  1.8552
  127SOL    HW2  381   1.311   2.653   1.440 -0.4456 -1.5807 -1.4712
  128SOL     OW  382   1.241   1.443   3.007 -0.6609 -0.9054  0.1067
  128SOL    HW1  383   1.198   1.454   0.014 -2.6455 -0.1236 -0.7235
  128SOL    HW2  384   1.326   1.382   3.013 -1.3441 -0.2132 -2.9835
  129SOL     OW  385   1.917   2.185   1.459 -0.1898 -0.1238 -0.0379
  129SOL    HW1  386   1.904   2.122   1.377  1.4845 -1.2912 -2.4394
  129SOL    HW2  387   1.950   2.277   1.433 -1.4759  0.6289 -0.8019
  130SOL     OW  388   1.903   1.967   1.640 -0.0773 -0.3152  0.1301
  130SOL    HW1  389   1.817   1.929   1.683  1.4261  0.1213  1.3598
  130SOL    HW2  390   1.880   2.028   1.565 -0.1590  1.9893 -0.6254
  131SOL     OW  391   2.947   2.674   2.537  0.5490 -0.0513 -0.0166
  131SOL    HW1  392   2.927   2.773   2.533  2.2629  0.5165  1.4597
  131SOL    HW2  393   2.913   2.625   2.621 -1.3980  0.9235 -0.3200
  132SOL     OW  394   2.874   1.976   0.586  0.4098  0.3156 -0.1400
  132SOL    HW1  395   2.946   2.018   0.648  2.9658 -0.8238  0.1922
  132SOL    HW2  396   2.888   1.878   0.579 -1.7166  1.3336 -0.8973
  133SOL     OW  397   0.887   0.255   2.170  0.6035 -0.3687  0.3361
  133SOL    HW1  398   0.916   0.196   2.090 -1.4559 -0.0225 -0.2835
  133SOL    HW2  399   0.886   0.352   2.139  0.2234 -3.5718  0.3829
  134SOL     OW  400   2.916   2.005   0.157  0.7495  0.2777  0.1119
  134SOL    HW1  401   2.967   2.090   0.135  0.6098 -0.9792 -4.0653
  134SOL    HW2  402   2.838   2.019   0.228 -1.4037 -1.4536 -0.2315
  135SOL     OW  403   1.583   0.909   2.383  0.0897 -0.4108 -0.0290
  135SOL    HW1  404   1.499   0.964   2.397 -0.6783 -0.2774  0.3789
  135SOL    HW2  405   1.588   0.887   2.284 -0.1115  3.6238  3.8674
  136SOL     OW  406   2.604   1.660   0.888  0.0010 -0.4260  0.4303
  136SOL    HW1  407   2.553   1.664   0.796 -5.6898 -0.0301 -3.3343
  136SOL    HW2  408   2.600   1.749   0.941  0.0987 -0.3522 -0.0688
  137SOL     OW  409   2.821   1.587   0.765 -0.0382 -0.3779  0.3444
  137SOL    HW1  410   2.798   1.496   0.718  1.4745  0.5352  3.3093
  137SOL    HW2  411   2.738   1.618   0.821  0.1876  2.6843  2.4893
  138SOL     OW  412   2.834   0.579   1.187  0.2283  0.2577  0.1074
  138SOL    HW1  413   2.796   0.664   1.228  1.0632 -2.1582 -2.0457
  138SOL    HW2  414   2.853   0.601   1.089  1.7160 -2.8247  2.0628
  139SOL     OW  415   3.069   2.633   2.865 -0.0752  0.0722 -0.1211
  139SOL    HW1  416   3.042   2.536   2.885 -0.8594  0.6809  1.3200
  139SOL    HW2  417   0.034   2.635   2.779  0.6428  2.3356  1.3146
  140SOL     OW  418   0.709   1.708   1.709  0.2734 -0.3815  0.0915
  140SOL    HW1  419   0.787   1.752   1.654  1.4355 -1.1837 -1.4989
  140SOL    HW2  420   0.731   1.610   1.741  1.7123  0.0918  0.5250
  141SOL     OW  421   1.407   1.830   0.838 -0.2011 -0.4689 -0.7166
  141SOL    HW1  422   1.500   1.839   0.793  0.2540  1.2745 -0.1718
  141SOL    HW2  423   1.406   1.775   0.922 -0.2958 -0.1620  1.1901
  142SOL     OW  424   1.019   0.766   1.081 -0.7163  0.1759  0.1237
  142SOL    HW1  425   0.992   0.850   1.035  1.2297 -1.2159  0.2355
  142SOL    HW2  426   1.100   0.789   1.134 -2.4081 -0.3307  1.9505
  143SOL     OW  427   0.823   1.087   2.840  0.3151 -0.8977  0.1264
  143SOL    HW1  428   0.767   1.028   2.899 -1.2897  2.2341 -0.4573
  143SOL    HW2  429   0.905   1.041   2.808  0.1593 -1.2111 -0.3105
  144SOL     OW  430   1.802   2.576   0.777  1.0672  0.2351 -0.2698
  144SOL    HW1  431   1.738   2.505   0.753 -0.2967  1.9057  0.6831
  144SOL    HW2  432   1.746   2.665   0.790 -4.4324  0.0323  0.7877
  145SOL     OW  433   2.040   0.525   2.710  0.8087  0.5810 -0.1464
  145SOL    HW1  434   2.104   0.542   2.789 -0.3396  1.1249 -0.1234
  145SOL    HW2  435   2.075   0.565   2.623  0.8629 -0.8414 -0.7340
  146SOL     OW  436   2.753   2.477   0.654 -0.4046 -0.0076  0.2613
  146SOL    HW1  437   2.662   2.488   0.701  1.3807  2.3439  0.9563
  146SOL    HW2  438   2.750   2.550   0.581  0.9754  1.1173 -2.5952
  147SOL     OW  439   1.285   1.018   2.142  0.2228  0.5571 -0.0244
  147SOL    HW1  440   1.248   1.051   2.054  0.9995  1.5437  0.7800
  147SOL    HW2  441   1.387   1.038   2.150  0.2412  1.2836 -0.0121
  148SOL     OW  442   1.497   0.493   2.169 -0.5440  0.0014  0.2621
  148SOL    HW1  443   1.528   0.531   2.082  1.6745 -1.4843  1.7665
  148SOL    HW2  444   1.405   0.514   2.206  2.2498  2.5972  0.8579
  149SOL     OW  445   1.951   2.916   2.250 -0.7054  0.6035  0.1501
  149SOL    HW1  446   1.906   2.992   2.302  0.2519  0.4566 -2.5696
  149SOL    HW2  447   1.969   2.837   2.309 -3.0734 -1.8514 -1.9412
  150SOL     OW  448   2.470   2.936   3.007 -0.1916  0.6305  0.7626
  150SOL    HW1  449   2.526   2.855   2.980  1.6655  0.6993 -0.5978
  150SOL    HW2  450   2.525   2.982   3.079  0.1287 -0.5461 -1.1924
  151SOL     OW  451   0.398   1.387   2.843 -0.0807  0.4383  0.2441
  151SOL    HW1  452   0.386   1.365   2.942  1.5299  1.5547  3.6085
  151SOL    HW2  453   0.424   1.487   2.838  1.1893  3.2205  1.1067
  152SOL     OW  454   0.043   0.222   0.943  0.3333  0.7042 -0.1250
  152SOL    HW1  455   0.032   0.162   1.026 -1.4481 -0.1725  1.5368
  152SOL    HW2  456   0.058   0.318   0.972  0.5179 -3.2211 -4.1875
  153SOL     OW  457   2.503   0.029   1.573  0.5223 -0.2922 -0.1759
  153SOL    HW1  458   2.408   0.053   1.544 -0.3487  0.4361  0.8477
  153SOL    HW2  459   2.565   0.090   1.518 -1.1177 -0.5179  2.1392
  154SOL     OW  460   1.995   0.347   2.323 -0.3475  0.5548  0.2582
  154SOL    HW1  461   1.936   0.412   2.376 -2.4851 -1.4297  0.7103
  154SOL    HW2  462   1.969   0.338   2.224  0.4190  1.6474  0.3123
  155SOL     OW  463   0.152   1.713   0.188  0.1900 -0.0460 -0.1293
  155SOL    HW1  464   0.215   1.675   0.259  0.4909 -0.2120  1.6215
  155SOL    HW2  465   0.064   1.743   0.238  1.9045  1.8172 -1.1132
  156SOL     OW  466   2.915   1.709   0.027 -0.2827 -0.5334  0.3276
  156SOL    HW1  467   2.899   1.792   3.055 -0.9192  0.2278  0.3902
  156SOL    HW2  468   2.975   1.734   0.108  2.4316  1.5891  1.6971
  157SOL     OW  469   0.575   0.339   0.654  0.0083 -0.0750 -0.0847
  157SOL    HW1  470   0.480   0.316   0.683 -0.3926 -0.0662 -3.4900
  157SOL    HW2  471   0.599   0.439   0.666  0.3811  2.4459 -2.0052
  158SOL     OW  472   2.152   0.825   1.593 -0.1396  1.0118 -0.6738
  158SOL    HW1  473   2.128   0.921   1.609 -1.7848 -2.4752 -0.4482
  158SOL    HW2  474   2.220   0.789   1.655 -1.9543  2.3726 -0.9759
  159SOL     OW  475   0.100   0.516   0.427  0.2810 -0.5581  0.6210
  159SOL    HW1  476   0.032   0.446   0.426  5.0027 -1.0193 -0.6904
  159SOL    HW2  477   0.082   0.599   0.374 -1.7497 -1.0091 -0.4438
  160SOL     OW  478   2.151   2.276   1.918 -0.1484  0.1248 -0.0550
  160SOL    HW1  479   2.176   2.355   1.977 -0.1242 -1.6531 -0.1057
  160SOL    HW2  480   2.076   2.308   1.853 -0.0908  0.2886  1.4172
  161SOL     OW  481   0.045   0.693   2.589 -0.4738  0.2937 -0.9760
  161SOL    HW1  482   0.105   0.612   2.607 -0.9070 -4.0012  0.5498
  161SOL    HW2  483   0.084   0.773   2.637 -2.1180 -0.3865 -0.2353
  162SOL     OW  484   0.686   2.711   1.394  0.1904  0.0540 -0.2407
  162SOL    HW1  485   0.731   2.758   1.474  0.6634  0.4664 -1.5573
  162SOL    HW2  486   0.701   2.771   1.309 -0.1902  1.8152 -1.8066
  163SOL     OW  487   2.730   0.292   2.351  0.2026  0.1623 -0.3995
  163SOL    HW1  488   2.765   0.200   2.319  0.2250 -0.0690  0.2912
  163SOL    HW2  489   2.713   0.349   2.272  4.1678 -1.7609  1.9197
  164SOL     OW  490   2.156   1.912   0.107  0.0396  0.2599 -0.7063
  164SOL    HW1  491   2.251   1.892   0.134 -2.0190  0.2211  0.3839
  164SOL    HW2  492   2.139   1.895   0.009 -0.1636  0.6180  2.2863
  165SOL     OW  493   2.935   0.164   1.288  0.1588 -0.2505  0.3884
  165SOL    HW1  494   2.964   0.255   1.320  1.8515 -1.2337  2.3630
  165SOL    HW2  495   2.836   0.164   1.257 -1.4748  0.1059  1.0769
  166SOL     OW  496   1.949   0.830   0.707  0.2045  0.3365 -0.3832
  166SOL    HW1  497   1.996   0.906   0.760  0.5941 -0.7499 -2.1441
  166SOL    HW2  498   1.916   0.877   0.620  0.5355 -2.0581  2.2892
  167SOL     OW  499   2.683   1.036   0.078  0.3512  0.2655 -0.0935
  167SOL    HW1  500   2.645   0.956   0.032  0.1804  1.2397 -0.7399
  167SOL    HW2  501   2.614   1.073   0.142 -0.9626 -0.8468  0.3999
  168SOL     OW  502   1.463   0.235   2.787  0.2512 -0.5224 -0.1304
  168SOL    HW1  503   1.498   0.152   2.835  2.4665  0.4026  1.8178
  168SOL    HW2  504   1.535   0.260   2.722 -0.1796  1.5159 -1.2878
  169SOL     OW  505   0.289   1.308   0.836 -0.2231 -0.1137  0.8555
  169SOL    HW1  506   0.220   1.336   0.905 -0.9762  2.5445 -0.0475
  169SOL    HW2  507   0.268   1.355   0.748 -1.0973 -2.4954  1.3118
  170SOL     OW  508   2.970   0.933   1.122 -0.5413 -0.1666 -0.2289
  170SOL    HW1  509   3.010   0.864   1.187 -0.7717  0.0633  2.5506
  170SOL    HW2  510   2.896   0.892   1.063  1.4047  1.5933 -0.1727
  171SOL     OW  511   2.359   2.125   2.114  0.1649 -0.0923  0.1012
  171SOL    HW1  512   2.430   2.050   2.108 -1.6435  0.1411  3.5770
  171SOL    HW2  513   2.304   2.143   2.028  1.2005  0.2204 -1.3707
  172SOL     OW  514   0.347   1.908   1.288 -0.1591  0.3958 -0.5878
  172SOL    HW1  515   0.335   2.009   1.310 -1.8659 -0.8427 -0.4652
  172SOL    HW2  516   0.431   1.872   1.336  3.0385  0.6156  0.4911
  173SOL     OW  517   1.595   1.416   2.779  0.4986  0.4291 -0.1694
  173SOL    HW1  518   1.560   1.326   2.770  0.0576  0.1690 -0.7794
  173SOL    HW2  519   1.519   1.484   2.805  2.7679 -1.8351 -2.6086
  174SOL     OW  520   1.308   0.609   2.736 -0.4027 -0.4997 -0.3744
  174SOL    HW1  521   1.361   0.624   2.651 -1.7074 -1.7923 -1.3044
  174SOL    HW2  522   1.377   0.618   2.817  4.7616  0.9568  0.8904
  175SOL     OW  523   1.312   1.391   1.385 -0.5670  0.0028  0.4384
  175SOL    HW1  524   1.241   1.446   1.433  0.2204  1.8266 -1.0375
  175SOL    HW2  525   1.286   1.290   1.387 -0.6100 -0.6642 -1.6884
  176SOL     OW  526   1.267   0.078   0.519 -0.0882 -0.6002  0.7265
  176SOL    HW1  527   1.258   0.049   0.422  1.7688  0.2750  0.5760
  176SOL    HW2  528   1.341   0.151   0.526  2.5864 -1.3415 -1.8123
  177SOL     OW  529   0.191   0.873   3.042 -0.0794 -0.0504 -0.1181
  177SOL    HW1  530   0.156   0.917   0.040 -1.4930 -0.2406  0.4996
  177SOL    HW2  531   0.235   0.783   3.073  0.9473 -2.9558 -0.7187
  178SOL     OW  532   2.657   2.481   2.339 -0.0898  0.1171  0.2053
  178SOL    HW1  533   2.683   2.398   2.395 -0.8995  2.4493  1.4771
  178SOL    HW2  534   2.740   2.516   2.294 -0.4799 -2.9743 -2.1475
  179SOL     OW  535   0.046   0.099   2.587  0.3676 -0.1662  0.1449
  179SOL    HW1  536   0.008   0.141   2.673  0.2036  2.7881 -0.2266
  179SOL    HW2  537   0.009   0.140   2.503 -2.9114  0.3067 -1.9309
  180SOL     OW  538   2.116   0.457   1.036 -0.4032 -0.0607  0.1510
  180SOL    HW1  539   2.212   0.439   1.001  1.7940  1.6292  0.0778
  180SOL    HW2  540   2.085   0.550   1.017  0.0706 -1.3881  0.4205
  181SOL     OW  541   2.036   0.950   2.558 -0.1401  0.4864 -0.7187
  181SOL    HW1  542   2.122   0.896   2.571  1.3263 -0.1349 -1.6585
  181SOL    HW2  543   2.002   0.982   2.651  0.9728  0.8724 -0.2170
  182SOL     OW  544   2.791   2.647   2.014  0.2461 -0.1069 -0.1615
  182SOL    HW1  545   2.829   2.608   2.096 -1.5153 -1.1648  0.8217
  182SOL    HW2  546   2.727   2.582   1.963 -2.1605 -0.2047 -1.0229
  183SOL     OW  547   2.108   0.554   1.929  0.0753 -0.3350  0.2821
  183SOL    HW1  548   2.179   0.515   1.992  1.2676  0.3793  0.6865
  183SOL    HW2  549   2.166   0.603   1.860 -0.5637  0.8937  1.5191
  184SOL     OW  550   0.053   1.396   1.051  0.2178  0.2287 -0.3765
  184SOL    HW1  551   0.001   1.312   1.084 -0.4539  0.0686 -1.0154
  184SOL    HW2  552   0.052   1.469   1.127  1.4777  2.4694 -1.4808
  185SOL     OW  553   2.369   0.188   0.990 -0.2168  0.0130  0.6529
  185SOL    HW1  554   2.307   0.198   0.910 -0.0332 -1.2530 -1.9728
  185SOL    HW2  555   2.465   0.221   0.968  0.1570  0.9596  1.7246
  186SOL     OW  556   2.795   2.509   2.722  0.2793  0.0666  0.6003
  186SOL    HW1  557   2.738   2.586   2.753  1.0424 -2.2561  1.9598
  186SOL    HW2  558   2.746   2.447   2.654 -2.7439 -0.9932 -1.1513
  187SOL     OW  559   0.367   1.345   0.332  0.5770 -0.3009 -0.2135
  187SOL    HW1  560   0.314   1.372   0.251  0.1058  0.4648  0.9388
  187SOL    HW2  561   0.317   1.295   0.404  1.1212 -0.3309  1.3405
  188SOL     OW  562   2.233   1.377   1.395 -0.2928 -0.2507 -0.3708
  188SOL    HW1  563   2.289   1.319   1.462  3.5545 -0.7951  3.9937
  188SOL    HW2  564   2.270   1.473   1.384 -1.3446 -0.9064  2.2262
  189SOL     OW  565   0.239   0.538   2.382 -0.3243  0.6452 -0.5846
  189SOL    HW1  566   0.247   0.637   2.375  0.9858 -4.3918 -1.3963
  189SOL    HW2  567   0.298   0.507   2.458 -1.3658  1.8980 -1.3849
  190SOL     OW  568   1.932   0.788   1.901  0.1151 -0.5452 -0.2584
  190SOL    HW1  569   1.905   0.789   1.803 -1.6263 -0.0639 -0.4119
  190SOL    HW2  570   1.950   0.693   1.930 -1.4496 -1.1016 -2.3768
  191SOL     OW  571   1.160   0.178   2.120 -0.1875 -0.4684 -0.3164
  191SOL    HW1  572   1.094   0.149   2.054  0.2284  0.8718  1.1314
  191SOL    HW2  573   1.167   0.107   2.196  0.3162 -1.6013  1.0208
  192SOL     OW  574   1.040   2.022   1.772 -0.6794 -0.1747 -0.0137
  192SOL    HW1  575   1.095   2.016   1.858 -0.6934 -0.2747  1.3931
  192SOL    HW2  576   1.094   2.088   1.711  0.8041  0.4494 -2.0528
  193SOL     OW  577   1.353   0.365   0.825 -0.3264 -0.1796  0.4551
  193SOL    HW1  578   1.284   0.444   0.823  0.0459  2.0206  1.4829
  193SOL    HW2  579   1.304   0.286   0.864 -1.8468  1.1375 -1.4391
  194SOL     OW  580   0.908   2.152   1.448 -0.0186  0.8139  0.3080
  194SOL    HW1  581   0.835   2.174   1.378  1.7785 -0.2698  1.6389
  194SOL    HW2  582   0.975   2.081   1.417  2.3048 -1.0415  2.3515
  195SOL     OW  583   1.485   0.454   0.359  0.1944  0.1527  0.3063
  195SOL    HW1  584   1.546   0.527   0.402 -1.8652  0.6016 -1.0233
  195SOL    HW2  585   1.514   0.430   0.259  0.8509 -2.5879 -0.3435
  196SOL     OW  586   0.555   1.497   2.139 -0.1384 -0.2245  0.0898
  196SOL    HW1  587   0.584   1.454   2.048 -1.5133 -3.7054 -3.6133
  196SOL    HW2  588   0.589   1.439   2.211 -0.2651  0.0289 -0.5323
  197SOL     OW  589   0.942   0.519   1.594 -0.8020  0.2565  0.5465
  197SOL    HW1  590   0.870   0.452   1.567  1.6580 -0.1504  0.0937
  197SOL    HW2  591   1.028   0.495   1.542 -0.0597 -0.7400 -0.6624
  198SOL     OW  592   0.717   1.033   0.899 -0.2529  0.3463  0.1929
  198SOL    HW1  593   0.817   1.012   0.894 -2.4707  2.3084  1.9244
  198SOL    HW2  594   0.702   1.114   0.956 -1.0116 -0.1086 -1.1029
  199SOL     OW  595   0.297   2.146   1.402  0.6445 -0.2787  0.0113
  199SOL    HW1  596   0.235   2.155   1.485  0.9707  0.3360  1.1795
  199SOL    HW2  597   0.292   2.230   1.344  2.5098 -0.5077 -2.2092
  200SOL     OW  598   1.559   1.090   2.107 -0.4101  0.2865 -0.0518
  200SOL    HW1  599   1.557   1.161   2.039  0.3431 -2.4589  3.0383
  200SOL    HW2  600   1.624   1.013   2.083 -0.5284 -3.5363  0.7764
  201SOL     OW  601   0.580   2.106   1.940 -0.0352  0.0109  0.1545
  201SOL    HW1  602   0.670   2.061   1.922  1.5217  0.9334  0.4948
  201SOL    HW2  603   0.515   2.104   1.857  0.2026 -0.0208 -0.4427
  202SOL     OW  604   1.242   0.009   0.259  0.4489  0.2334  0.2817
  202SOL    HW1  605   1.213   0.094   0.208 -1.7171  0.7938 -0.8013
  202SOL    HW2  606   1.170   3.024   0.242 -0.9109 -0.8398  0.5437
  203SOL     OW  607   1.834   0.045   2.367  0.3021  0.1768 -0.2712
  203SOL    HW1  608   1.763   3.085   2.424  1.8852  3.7844  0.4454
  203SOL    HW2  609   1.913   0.081   2.423  1.8534  1.6332 -1.3520
  204SOL     OW  610   0.436   1.739   1.659  0.8203 -0.6259 -0.0685
  204SOL    HW1  611   0.536   1.755   1.654 -0.2443  0.8887  1.9184
  204SOL    HW2  612   0.414   1.654   1.616  0.3116  0.2380  2.3157
  205SOL     OW  613   2.252   1.321   2.637 -0.5818  0.0412  0.3411
  205SOL    HW1  614   2.301   1.233   2.607  1.7313  0.7555 -0.3210
  205SOL    HW2  615   2.206   1.359   2.555  3.0853  0.6812  2.0078
  206SOL     OW  616   0.121   1.759   2.385 -0.4976  0.3204  0.4989
  206SOL    HW1  617   0.158   1.849   2.402  1.0845 -1.3129  0.3841
  206SOL    HW2  618   0.131   1.697   2.467  1.8099 -0.2051  1.1752
  207SOL     OW  619   1.182   2.894   1.410  0.0708 -0.1191  0.2690
  207SOL    HW1  620   1.231   2.930   1.491  0.9164 -2.8462 -2.4375
  207SOL    HW2  621   1.082   2.912   1.420  0.7897  0.5997  0.2695
  208SOL     OW  622   0.297   2.399   1.301 -0.2841 -0.2207  0.0663
  208SOL    HW1  623   0.356   2.458   1.368  3.2438  1.0579  1.8972
  208SOL    HW2  624   0.246   2.464   1.245 -1.1536  1.6234  1.8035
  209SOL     OW  625   1.331   2.845   0.441 -0.4326  0.1423  0.0111
  209SOL    HW1  626   1.317   2.743   0.445  0.8287 -0.7968  1.0092
  209SOL    HW2  627   1.289   2.889   0.523 -1.2353 -2.1006  1.3177
  210SOL     OW  628   2.689   1.313   0.991  0.2057 -0.3130  0.0340
  210SOL    HW1  629   2.648   1.238   0.936  0.0414  0.9892 -2.7448
  210SOL    HW2  630   2.786   1.320   0.961 -0.4290 -2.1535  2.1562
  211SOL     OW  631   0.614   0.700   1.801  1.1879  0.0860  0.2776
  211SOL    HW1  632   0.633   0.601   1.823  2.1529 -1.6486  1.6109
  211SOL    HW2  633   0.677   0.763   1.853  0.1196 -1.6717 -3.1259
  212SOL     OW  634   1.465   2.175   1.710  0.0968 -0.0084 -0.1725
  212SOL    HW1  635   1.458   2.236   1.630 -0.0518  2.3330  0.5710
  212SOL    HW2  636   1.560   2.161   1.751 -1.0443  0.2863  0.8981
  213SOL     OW  637   2.911   0.147   1.664  0.0581  0.0622 -0.2970
  213SOL    HW1  638   3.001   0.121   1.628 -0.4098 -0.4919 -1.7173
  213SOL    HW2  639   2.845   0.072   1.678 -0.2791  0.9014 -3.7064
  214SOL     OW  640   0.862   2.536   1.681 -0.1594  0.4909  0.1206
  214SOL    HW1  641   0.832   2.513   1.779 -1.6249 -1.8473  0.6802
  214SOL    HW2  642   0.848   2.633   1.649 -1.4488  1.2926 -2.5509
  215SOL     OW  643   2.353   1.826   1.591 -0.2276 -0.4069 -0.4507
  215SOL    HW1  644   2.347   1.917   1.546 -0.6604 -1.1145  0.4801
  215SOL    HW2  645   2.340   1.754   1.522 -1.3827  0.9431  4.1241
  216SOL     OW  646   0.251   0.861   1.683  0.0230 -0.4576  0.2509
  216SOL    HW1  647   0.221   0.884   1.777  0.7336 -0.5296 -0.3963
  216SOL    HW2  648   0.246   0.944   1.628  0.2793 -1.8235  2.7096
  217SOL     OW  649   2.714   3.033   1.027 -0.2957 -0.0817 -0.9998
  217SOL    HW1  650   2.694   0.020   1.097  0.7340 -1.8742  0.9752
  217SOL    HW2  651   2.814   3.027   1.022 -1.1305  1.1819 -0.6422
  218SOL     OW  652   1.405   2.200   1.310  0.0180  0.0743  0.1179
  218SOL    HW1  653   1.395   2.115   1.250  2.0707 -2.9730 -0.9821
  218SOL    HW2  654   1.416   2.289   1.251  0.4758 -0.4450  2.6496
  219SOL     OW  655   1.574   2.853   0.325  0.3364 -0.1472  0.1169
  219SOL    HW1  656   1.487   2.872   0.376 -0.7587 -0.3430  2.8987
  219SOL    HW2  657   1.546   2.802   0.240 -1.1702  0.5107 -2.3261
  220SOL     OW  658   1.555   2.481   0.027 -0.7961 -0.9304 -0.3510
  220SOL    HW1  659   1.498   2.526   0.101  1.6976 -2.3408  0.3457
  220SOL    HW2  660   1.608   2.555   3.059  1.0617 -0.1580 -3.9931
  221SOL     OW  661   2.676   2.137   0.757  0.6075  0.3158  0.4084
  221SOL    HW1  662   2.585   2.153   0.715 -1.4600  0.9784  0.9927
  221SOL    HW2  663   2.727   2.073   0.702 -1.2106  1.5020  3.5858
  222SOL     OW  664   0.771   2.054   0.722  0.1514 -0.1924 -0.9379
  222SOL    HW1  665   0.781   2.052   0.820  1.1521  0.9194 -4.1992
  222SOL    HW2  666   0.719   2.134   0.694  2.5989  2.2023  0.6798
  223SOL     OW  667   1.098   2.799   2.650 -0.3567  0.2610  0.3080
  223SOL    HW1  668   1.115   2.759   2.555 -1.2368 -0.8105 -1.0267
  223SOL    HW2  669   1.079   2.722   2.714 -0.8287 -1.7833  0.5319
  224SOL     OW  670   2.669   1.148   1.201 -0.0652  0.3525  0.1383
  224SOL    HW1  671   2.681   1.213   1.116  1.2956  3.9304 -0.9588
  224SOL    HW2  672   2.671   1.054   1.163 -0.3185 -0.6520 -1.6646
  225SOL     OW  673   2.884   1.615   1.071  0.5759  0.0973  0.5028
  225SOL    HW1  674   2.964   1.676   1.059  0.3944 -1.5389 -1.1941
  225SOL    HW2  675   2.858   1.576   0.982 -2.6743  0.3869  0.0024
  226SOL     OW  676   1.096   2.731   0.959  0.2513 -0.5441  0.4088
  226SOL    HW1  677   1.078   2.686   0.869  0.8501 -0.5077  2.1640
  226SOL    HW2  678   1.194   2.744   0.972 -0.4686 -0.1441  0.4806
  227SOL     OW  679   1.192   1.151   1.333 -0.1516  0.2810 -0.1660
  227SOL    HW1  680   1.138   1.090   1.393  0.4015  1.4489 -1.2161
  227SOL    HW2  681   1.130   1.184   1.256 -0.9968  1.9228 -1.0640
  228SOL     OW  682   1.685   0.213   2.192 -0.3023 -0.5888 -0.4188
  228SOL    HW1  683   1.715   0.153   2.265 -0.7190 -2.6535 -0.1731
  228SOL    HW2  684   1.585   0.219   2.182  1.1066 -1.7859 -2.5665
  229SOL     OW  685   2.946   0.703   2.380  0.4488  0.1592  0.1040
  229SOL    HW1  686   2.859   0.660   2.409 -1.7507  2.3164 -0.1453
  229SOL    HW2  687   3.003   0.697   2.462 -1.2223  0.2642 -0.1460
  230SOL     OW  688   0.251   1.047   0.762  0.6375  0.6218  0.0061
  230SOL    HW1  689   0.155   1.035   0.723 -3.1372  3.0763 -0.3792
  230SOL    HW2  690   0.269   1.146   0.777 -0.0103  3.1036 -0.8189
  231SOL     OW  691   2.040   0.065   2.542 -0.1666 -0.1355  0.4987
  231SOL    HW1  692   2.115   3.078   2.533  0.6232 -1.3775  0.3094
  231SOL    HW2  693   2.090   0.151   2.547 -1.8297  1.3600 -1.4921
  232SOL     OW  694   0.458   1.663   2.853 -0.2848 -0.7965  0.3160
  232SOL    HW1  695   0.482   1.735   2.923  1.0917 -0.0302 -0.3883
  232SOL    HW2  696   0.422   1.706   2.771 -0.9566 -0.4867 -0.2544
  233SOL     OW  697   1.334   2.648   2.967 -0.8460 -0.5227  0.0331
  233SOL    HW1  698   1.360   2.550   2.976  2.5010 -0.1107 -1.5744
  233SOL    HW2  699   1.357   2.692   2.877 -1.3775  3.1420  0.6695
  234SOL     OW  700   0.988   1.436   1.977 -0.4083 -0.0886  0.5125
  234SOL    HW1  701   1.085   1.443   2.012 -0.7652 -1.6626 -1.5462
  234SOL    HW2  702   0.942   1.353   2.013 -1.4499  0.9954  0.7799
  235SOL     OW  703   0.079   1.923   1.812 -0.0967  0.5190 -0.3193
  235SOL    HW1  704   0.104   1.930   1.713  1.3187  0.1502  2.5011
  235SOL    HW2  705   0.163   1.876   1.854  2.0166  1.4306  2.5904
  236SOL     OW  706   1.609   2.212   2.760 -1.0246 -0.0374  0.0496
  236SOL    HW1  707   1.644   2.175   2.847 -0.6377  0.1428 -2.3149
  236SOL    HW2  708   1.658   2.296   2.738 -2.0883 -1.3656  0.7012
  237SOL     OW  709   1.589   0.391   0.963 -0.0196 -0.2041  0.4481
  237SOL    HW1  710   1.664   0.408   0.898  0.5404  1.6439 -0.7878
  237SOL    HW2  711   1.510   0.360   0.903 -1.7942 -1.6160 -0.8147
  238SOL     OW  712   1.036   0.381   2.367 -0.2856  0.1307 -0.2694
  238SOL    HW1  713   0.996   0.314   2.298  0.0892 -0.9921 -1.3523
  238SOL    HW2  714   1.138   0.370   2.380  0.1236 -0.4551 -1.6730
  239SOL     OW  715   0.820   2.821   1.617 -0.4545  0.5434  0.4935
  239SOL    HW1  716   0.789   2.846   1.707  3.1540 -2.0790  2.6783
  239SOL    HW2  717   0.870   2.900   1.575  0.8782  0.2617 -0.5275
  240SOL     OW  718   2.378   2.761   0.838 -0.3956  0.0485 -0.3360
  240SOL    HW1  719   2.434   2.824   0.780 -0.6772 -0.9918 -1.7546
  240SOL    HW2  720   2.296   2.806   0.875  1.7155  0.1483  2.1871
  241SOL     OW  721   0.999   1.431   1.705  0.1615 -0.9833  0.1201
  241SOL    HW1  722   0.911   1.405   1.664  0.9254 -0.5126  1.9238
  241SOL    HW2  723   1.000   1.423   1.806 -0.4939 -1.1031  0.2077
  242SOL     OW  724   2.788   0.779   0.619 -0.0160  0.1920 -0.4441
  242SOL    HW1  725   2.870   0.826   0.586  1.1020  2.4415 -1.7043
  242SOL    HW2  726   2.796   0.678   0.621 -0.8688 -0.1915  0.6829
  243SOL     OW  727   0.677   0.652   1.242  0.0630  0.0388 -0.1096
  243SOL    HW1  728   0.746   0.689   1.310  0.2671  1.1275 -0.4591
  243SOL    HW2  729   0.718   0.641   1.152  0.1683  2.0872 -3.1276
  244SOL     OW  730   1.086   0.336   3.003  0.5124  0.5256 -0.0065
  244SOL    HW1  731   0.994   0.377   2.987 -0.3381 -0.7465  0.1065
  244SOL    HW2  732   1.134   0.332   2.916 -1.2476  3.1809  1.6940
  245SOL     OW  733   2.216   0.541   2.904 -0.0388  0.1163  0.7871
  245SOL    HW1  734   2.298   0.570   2.843 -0.0381 -1.6731 -3.2963
  245SOL    HW2  735   2.244   0.462   2.965 -1.7914 -3.3542  1.0616
  246SOL     OW  736   0.900   0.809   1.394  0.0346  0.4036  0.5279
  246SOL    HW1  737   0.880   0.824   1.495 -0.9964  2.9044  2.1569
  246SOL    HW2  738   0.987   0.758   1.376 -1.8238  1.6967 -0.9137
  247SOL     OW  739   0.703   2.971   2.122 -0.4214  0.1485 -0.7982
  247SOL    HW1  740   0.617   3.032   2.144 -0.5012 -0.2703 -0.6173
  247SOL    HW2  741   0.789   3.013   2.151  0.8543 -0.6678 -0.9935
  248SOL     OW  742   0.097   1.583   1.998 -0.3742 -0.5969 -0.2892
  248SOL    HW1  743   0.021   1.596   1.929 -0.0179 -0.3179 -0.7206
  248SOL    HW2  744   0.174   1.640   1.966  0.0839  0.1591  0.1887
  249SOL     OW  745   0.027   0.026   2.919 -0.1111 -0.9945  0.2022
  249SOL    HW1  746   0.103   3.072   2.857  3.3377  1.7386  2.0966
  249SOL    HW2  747   0.065   0.044   3.015  0.9476  1.2005 -0.7215
  250SOL     OW  748   2.875   0.197   0.264 -0.0247  0.0760 -0.0708
  250SOL    HW1  749   2.837   0.111   0.304 -0.1412 -0.1308  0.7951
  250SOL    HW2  750   2.860   0.199   0.162 -0.5435 -0.3636  1.1578
  251SOL     OW  751   0.695   1.295   1.031  0.2799 -0.0716  0.0276
  251SOL    HW1  752   0.753   1.371   1.066  0.0761  0.6243 -0.8348
  251SOL    HW2  753   0.652   1.313   0.938 -0.4290 -1.1331 -1.9133
  252SOL     OW  754   1.552   2.801   1.492 -0.1081 -0.6267 -0.0162
  252SOL    HW1  755   1.498   2.881   1.526  3.4423 -2.3788  1.2906
  252SOL    HW2  756   1.487   2.721   1.500 -0.7622 -0.4289 -0.8406
  253SOL     OW  757   2.066   2.037   2.701 -0.3980 -0.0315  0.5520
  253SOL    HW1  758   2.116   2.097   2.772  0.5650  1.3722  0.2961
  253SOL    HW2  759   2.004   1.975   2.750 -1.2500  0.4096  2.0510
  254SOL     OW  760   0.291   1.758   1.889  0.7005  0.0342  0.0624
  254SOL    HW1  761   0.351   1.750   1.807  0.1281 -0.1773 -0.7733
  254SOL    HW2  762   0.347   1.760   1.979 -1.0126  0.7630 -0.5280
  255SOL     OW  763   0.927   3.043   1.497  0.1397 -0.0183  0.0385
  255SOL    HW1  764   0.881   3.084   1.413 -1.6229  0.8029 -2.9459
  255SOL    HW2  765   0.962   0.036   1.555 -0.6536  1.7307  0.7786
  256SOL     OW  766   2.353   2.288   1.103  0.6800  0.5262 -0.3097
  256SOL    HW1  767   2.435   2.288   1.042  0.3130  1.9193  1.2184
  256SOL    HW2  768   2.270   2.319   1.044  1.3554 -0.0212  2.6968
  257SOL     OW  769   0.498   2.158   0.024 -0.0765  0.5490 -0.5719
  257SOL    HW1  770   0.538   2.215   0.096  0.8491 -0.9395 -2.8215
  257SOL    HW2  771   0.551   2.180   3.022  2.6228  0.8370 -2.0073
  258SOL     OW  772   0.876   2.026   2.537 -0.4076  0.5100 -0.1315
  258SOL    HW1  773   0.837   2.089   2.605  0.1789 -2.5530  2.3878
  258SOL    HW2  774   0.848   1.928   2.556 -0.9121 -1.2498 -3.8504
  259SOL     OW  775   0.824   1.743   2.618 -0.0487  0.2067 -0.0401
  259SOL    HW1  776   0.803   1.732   2.517  0.6099  0.8911  3.3311
  259SOL    HW2  777   0.762   1.678   2.669 -0.9457 -0.5882  1.0010
  260SOL     OW  778   2.277   1.359   2.037 -0.2200 -0.2149 -0.6070
  260SOL    HW1  779   2.291   1.437   1.970 -0.0541  1.0011 -0.7342
  260SOL    HW2  780   2.177   1.357   2.048  2.2826 -4.3136  0.0606
  261SOL     OW  781   1.331   0.745   0.815  0.3643  0.2270 -0.1913
  261SOL    HW1  782   1.238   0.695   0.814 -1.0155  0.1235  0.2841
  261SOL    HW2  783   1.326   0.815   0.891 -0.8945  1.9397  0.3659
  262SOL     OW  784   1.643   2.141   2.494 -0.4323 -0.0450  0.9499
  262SOL    HW1  785   1.737   2.174   2.475  0.3345 -1.8990  0.4887
  262SOL    HW2  786   1.617   2.161   2.589  0.1861  0.8229 -1.0751
  263SOL     OW  787   0.171   1.554   2.909 -0.2727 -0.0530  0.1946
  263SOL    HW1  788   0.202   1.508   2.999 -0.3873 -1.2259 -0.5582
  263SOL    HW2  789   0.163   1.485   2.831  3.0495 -0.1672 -2.4850
  264SOL     OW  790   0.407   2.046   0.934  0.2602  0.0484  0.0554
  264SOL    HW1  791   0.441   2.140   0.941 -0.2884 -2.2618 -1.9772
  264SOL    HW2  792   0.306   2.041   0.966 -0.8561 -1.9215  2.5060
  265SOL     OW  793   0.639   1.228   0.097  0.0091  0.0493  0.0018
  265SOL    HW1  794   0.678   1.130   0.088 -1.4633 -0.6998 -1.2062
  265SOL    HW2  795   0.703   1.298   0.130 -0.5656 -0.5245  0.7024
  266SOL     OW  796   1.340   1.726   2.982  0.5037 -0.0450  0.3574
  266SOL    HW1  797   1.274   1.649   2.988 -0.2018 -0.1100 -1.7807
  266SOL    HW2  798   1.312   1.799   3.047  0.3992  0.4950  2.1459
  267SOL     OW  799   0.905   0.989   2.100 -0.1280  0.7005 -0.3885
  267SOL    HW1  800   0.956   0.944   2.177  0.6491  3.6276  1.1417
  267SOL    HW2  801   0.912   1.092   2.116 -0.3138  5.9555 -1.2735
  268SOL     OW  802   0.468   0.588   2.604 -0.6390  0.5699  0.1393
  268SOL    HW1  803   0.536   0.550   2.536  0.8003  1.7360 -0.6880
  268SOL    HW2  804   0.503   0.674   2.643 -2.5396 -2.1039  0.7992
  269SOL     OW  805   1.888   2.856   2.682  0.2478 -0.3704  0.7841
  269SOL    HW1  806   1.879   2.846   2.579  0.8758  0.6293 -1.0737
  269SOL    HW2  807   1.823   2.789   2.727  1.2863 -0.6489 -1.3554
  270SOL     OW  808   0.903   1.497   2.319  0.1234  0.3569 -0.1130
  270SOL    HW1  809   0.866   1.445   2.398 -0.0817  1.6328 -0.0395
  270SOL    HW2  810   0.868   1.592   2.317 -0.5448 -0.2795 -0.5012
  271SOL     OW  811   0.168   0.299   2.982  0.3819  0.2096 -0.0034
  271SOL    HW1  812   0.250   0.309   2.921  0.5274 -0.1993  0.1129
  271SOL    HW2  813   0.203   0.260   3.075 -0.1878  2.1368  1.8570
  272SOL     OW  814   2.409   0.686   0.539  0.0385 -0.1215  0.3704
  272SOL    HW1  815   2.355   0.599   0.520 -0.7059 -2.6845  0.4959
  272SOL    HW2  816   2.451   0.720   0.453  1.6164 -0.1793 -1.7914
  273SOL     OW  817   0.267   0.029   1.983 -0.5521 -0.5202 -0.2025
  273SOL    HW1  818   0.182   3.057   1.977  3.1407 -2.2323 -1.4902
  273SOL    HW2  819   0.245   0.120   1.946  0.8664 -1.8101  0.6411
  274SOL     OW  820   2.819   0.410   2.105  0.2384  0.8250 -0.6696
  274SOL    HW1  821   2.918   0.426   2.139  2.4878  3.0463 -1.1108
  274SOL    HW2  822   2.818   0.417   2.007 -0.6528  1.8887  2.5038
  275SOL     OW  823   1.659   1.756   0.718  0.1274  0.7021  0.7760
  275SOL    HW1  824   1.647   1.662   0.751  0.4879  3.3884 -0.9563
  275SOL    HW2  825   1.649   1.755   0.615 -0.4526 -1.5382 -0.0613
  276SOL     OW  826   0.598   1.063   1.914 -0.2028 -0.5397 -0.2129
  276SOL    HW1  827   0.661   0.985   1.925 -0.8142 -1.7450 -2.7262
  276SOL    HW2  828   0.546   1.078   1.998  0.5852  1.0724  2.5229
  277SOL     OW  829   1.575   2.591   2.164 -0.3611 -0.2193 -0.4866
  277SOL    HW1  830   1.491   2.624   2.211  1.7233  0.1043 -1.9757
  277SOL    HW2  831   1.641   2.669   2.155 -1.7296 -3.2930 -1.7197
  278SOL     OW  832   1.986   2.709   2.449  0.1908  0.4277 -0.2146
  278SOL    HW1  833   1.954   2.620   2.409 -0.8408 -0.1962  2.0872
  278SOL    HW2  834   2.090   2.706   2.451  1.7452  1.9095  0.7181
  279SOL     OW  835   1.896   1.131   0.293 -0.0064 -0.3518  0.4251
  279SOL    HW1  836   1.902   1.228   0.317 -2.8070 -0.9260 -1.6134
  279SOL    HW2  837   1.859   1.116   0.203  1.1789 -2.0109  0.6792
  280SOL     OW  838   0.823   1.445   0.055 -0.7116  0.5595  0.5290
  280SOL    HW1  839   0.827   1.541   0.079 -3.3607 -3.9931 -2.2601
  280SOL    HW2  840   0.835   1.426   3.039  1.2358 -0.9468 -1.4256
  281SOL     OW  841   0.042   3.053   1.605 -0.0289 -0.3615  0.3857
  281SOL    HW1  842   0.081   2.961   1.628 -1.0623  1.6222  2.3574
  281SOL    HW2  843   3.060   3.046   1.533 -1.6702 -0.0155  0.6072
  282SOL     OW  844   2.969   2.369   0.790  0.5614  0.9211 -0.5402
  282SOL    HW1  845   3.049   2.421   0.761 -1.4043 -3.5374 -0.0588
  282SOL    HW2  846   2.884   2.397   0.740 -0.2104 -0.3786  1.6740
  283SOL     OW  847   1.559   1.842   2.164  0.1988 -0.1832 -0.0643
  283SOL    HW1  848   1.547   1.943   2.173  3.2449 -1.3818  0.3545
  283SOL    HW2  849   1.470   1.797   2.142 -0.7583 -0.1400 -0.8222
  284SOL     OW  850   1.672   0.091   0.553 -0.7922  0.4715  0.2644
  284SOL    HW1  851   1.702   0.099   0.456 -2.0024 -1.3219  2.0056
  284SOL    HW2  852   1.577   0.124   0.566  1.8475 -0.8426 -1.2251
  285SOL     OW  853   0.117   2.657   2.620 -0.2473  0.0052  0.1614
  285SOL    HW1  854   0.019   2.653   2.595  0.9669  0.1042  2.3073
  285SOL    HW2  855   0.159   2.571   2.614 -1.5908  4.4945  1.0814
  286SOL     OW  856   2.762   2.461   1.415  0.2524 -0.1575 -0.3106
  286SOL    HW1  857   2.854   2.476   1.375 -0.1774  0.2808  0.6781
  286SOL    HW2  858   2.766   2.395   1.494 -1.0728 -0.9949  1.4849
  287SOL     OW  859   0.554   1.358   0.783 -0.2705 -0.3615 -0.6958
  287SOL    HW1  860   0.458   1.343   0.811 -2.9729 -1.2185 -0.8069
  287SOL    HW2  861   0.563   1.462   0.774 -1.8482  3.7477  1.7281
  288SOL     OW  862   2.230   1.775   2.897  0.5078 -0.3554 -0.6903
  288SOL    HW1  863   2.222   1.754   2.803  2.0441  2.0809  3.7935
  288SOL    HW2  864   2.267   1.702   2.952 -2.9860  4.2088 -0.4303
  289SOL     OW  865   0.216   1.817   2.799  0.0839 -0.1950 -0.1441
  289SOL    HW1  866   0.120   1.858   2.783 -0.7206 -0.5720  2.9572
  289SOL    HW2  867   0.202   1.734   2.858 -0.5599  0.3103 -2.2858
  290SOL     OW  868   1.088   1.667   1.106  0.0395  0.6610 -0.7192
  290SOL    HW1  869   1.151   1.589   1.101 -3.7336  2.2159  0.8698
  290SOL    HW2  870   1.111   1.740   1.035 -1.2131  0.4967  0.5816
  291SOL     OW  871   1.644   0.956   2.983 -0.0550  0.0353 -0.2897
  291SOL    HW1  872   1.655   0.877   2.916 -1.4572  2.0418 -0.4945
  291SOL    HW2  873   1.610   0.920   3.071 -1.1636  2.6761  0.1690
  292SOL     OW  874   1.144   1.390   0.427  0.2919 -0.0090  0.1947
  292SOL    HW1  875   1.083   1.421   0.505 -0.7066 -1.0979  1.2005
  292SOL    HW2  876   1.235   1.433   0.442 -1.3257 -0.3018 -1.0996
  293SOL     OW  877   1.372   2.748   0.989 -0.2395  0.5777  0.3250
  293SOL    HW1  878   1.446   2.690   1.029 -0.7755  0.9840  0.3444
  293SOL    HW2  879   1.405   2.766   0.894  0.1085 -5.3186  1.7747
  294SOL     OW  880   2.327   1.291   3.063  0.8047  0.0355 -0.1193
  294SOL    HW1  881   2.249   1.247   3.016  1.1104  0.3594  1.0952
  294SOL    HW2  882   2.412   1.245   3.032 -0.3707 -0.5682  0.9472
  295SOL     OW  883   1.516   2.125   2.263 -0.2944  0.1776 -0.0796
  295SOL    HW1  884   1.568   2.138   2.350  4.1027 -0.6212 -0.1841
  295SOL    HW2  885   1.538   2.202   2.194 -0.7988  2.2954 -0.0679
  296SOL     OW  886   1.929   0.439   1.730  0.0238 -0.3066 -0.0243
  296SOL    HW1  887   1.988   0.488   1.795 -2.3570  1.4447  0.8923
  296SOL    HW2  888   1.922   0.486   1.639  0.4206 -0.7908  1.1776
  297SOL     OW  889   0.097   0.711   2.042  0.5790  0.0494 -0.1036
  297SOL    HW1  890   0.079   0.634   2.106  1.8323 -1.9498  1.7647
  297SOL    HW2  891   0.052   0.692   1.952  0.3797 -0.1805  0.7817
  298SOL     OW  892   1.102   2.396   1.802 -1.2049 -0.2389 -0.3729
  298SOL    HW1  893   1.112   2.381   1.702  1.1436 -2.1070 -2.7162
  298SOL    HW2  894   1.006   2.381   1.838  1.3200  2.3705 -1.7085
  299SOL     OW  895   1.353   2.755   2.699 -0.4599  1.3359 -0.1500
  299SOL    HW1  896   1.418   2.831   2.713  1.0399 -0.7202  0.0529
  299SOL    HW2  897   1.261   2.796   2.695  0.5646 -2.7493  1.2232
  300SOL     OW  898   2.816   1.126   2.882 -0.3551 -0.0137 -0.7729
  300SOL    HW1  899   2.739   1.104   2.822  0.0030 -1.4254  0.4396
  300SOL    HW2  900   2.832   1.041   2.939 -0.7194 -0.4760  0.4175
  301SOL     OW  901   1.822   1.089   1.602  0.0535 -0.2278  0.3097
  301SOL    HW1  902   1.781   0.995   1.607 -1.0436 -1.7422 -1.8376
  301SOL    HW2  903   1.861   1.116   1.696  1.3387  2.0951  0.7499
  302SOL     OW  904   2.408   1.927   2.414 -0.3581 -0.2515  0.0065
  302SOL    HW1  905   2.428   1.931   2.314  0.2005  0.7563 -1.1918
  302SOL    HW2  906   2.356   2.010   2.438  1.6120 -2.1747 -2.1551
  303SOL     OW  907   0.479   2.541   2.063 -0.1089 -0.4779  0.1688
  303SOL    HW1  908   0.464   2.634   2.105  1.3888 -0.4892 -0.8318
  303SOL    HW2  909   0.448   2.531   1.970  1.7725  0.3154 -2.0546
  304SOL     OW  910   3.053   0.742   1.285  0.4938 -0.5315 -0.7995
  304SOL    HW1  911   0.062   0.710   1.301  0.0019 -1.7427  2.5906
  304SOL    HW2  912   2.989   0.667   1.260 -1.1218 -0.7509  3.6777
  305SOL     OW  913   2.787   0.795   1.859  0.7364 -0.6283  0.1475
  305SOL    HW1  914   2.868   0.738   1.836  1.4221  1.1460  0.2119
  305SOL    HW2  915   2.815   0.886   1.898  0.3338 -0.1816 -0.0003
  306SOL     OW  916   2.369   1.234   1.580 -0.4734  0.2555 -0.1788
  306SOL    HW1  917   2.279   1.189   1.598  0.8294 -0.6863 -1.9118
  306SOL    HW2  918   2.389   1.303   1.658 -1.8286  0.3882 -0.9061
  307SOL     OW  919   2.697   0.137   0.813  0.5473 -0.6229 -0.4247
  307SOL    HW1  920   2.661   0.224   0.857  1.6492 -1.2937  2.3289
  307SOL    HW2  921   2.676   0.054   0.865  0.7172  0.0941  0.0591
  308SOL     OW  922   2.947   1.769   1.604  0.0654 -0.3146  0.1317
  308SOL    HW1  923   2.938   1.870   1.606  0.5176  0.3877 -0.2742
  308SOL    HW2  924   2.860   1.716   1.592  0.5179 -0.8193  0.1566
  309SOL     OW  925   2.301   2.234   1.689 -0.2148  0.7189 -0.0562
  309SOL    HW1  926   2.357   2.313   1.655 -0.7906  0.2575  1.7844
  309SOL    HW2  927   2.284   2.229   1.786 -0.3643 -1.3128 -3.8833
  310SOL     OW  928   2.095   1.477   2.770  0.5706  0.0129 -0.1899
  310SOL    HW1  929   2.075   1.537   2.694  3.1571 -2.4075  1.4065
  310SOL    HW2  930   2.173   1.418   2.735 -0.5785  1.1390  1.5481
  311SOL     OW  931   1.863   1.112   3.081 -0.0680  0.1755 -0.1451
  311SOL    HW1  932   1.811   1.043   3.029  0.0421 -1.4122 -2.0788
  311SOL    HW2  933   1.884   1.190   3.012 -0.0574  0.0242  2.1671
  312SOL     OW  934   0.935   2.286   2.170  0.2703 -0.1009 -0.1808
  312SOL    HW1  935   0.876   2.223   2.224 -0.1409 -1.0779 -1.3161
  312SOL    HW2  936   0.890   2.371   2.134  1.1462  0.8968 -1.2563
  313SOL     OW  937   0.271   0.487   0.870 -0.1731 -0.1523 -0.4715
  313SOL    HW1  938   0.233   0.552   0.799  0.1952  1.3997 -0.8841
  313SOL    HW2  939   0.275   0.388   0.837 -0.1500 -0.2178  0.3677
  314SOL     OW  940   0.586   1.875   1.080 -0.2657 -0.1075  0.0937
  314SOL    HW1  941   0.566   1.869   1.180 -2.1197 -0.9706  2.3350
  314SOL    HW2  942   0.518   1.933   1.037 -0.5013 -1.3544 -2.5727
  315SOL     OW  943   0.544   2.285   2.159  0.4109 -0.1781 -0.0557
  315SOL    HW1  944   0.543   2.217   2.078 -0.1784 -4.4019 -0.6726
  315SOL    HW2  945   0.520   2.380   2.125 -2.1215 -1.0436  0.3283
  316SOL     OW  946   0.136   2.061   0.982  0.6166 -0.2646 -0.1106
  316SOL    HW1  947   0.058   2.097   1.035  1.5955 -0.9648 -1.1220
  316SOL    HW2  948   0.145   1.966   1.007 -0.8613 -0.7527 -0.5852
  317SOL     OW  949   1.926   0.575   0.624  0.0126  0.8200  0.1988
  317SOL    HW1  950   1.950   0.669   0.644  2.2526  0.1405 -0.0758
  317SOL    HW2  951   1.984   0.537   0.546 -0.4031  1.1699 -1.0260
  318SOL     OW  952   2.175   2.466   3.062 -0.1943  0.2162  0.0123
  318SOL    HW1  953   2.128   2.404   0.037 -0.5200 -1.5418 -1.0031
  318SOL    HW2  954   2.244   2.518   0.031 -0.0000 -2.4412 -1.2914
  319SOL     OW  955   1.598   1.814   3.014 -0.1996  0.7897  0.7326
  319SOL    HW1  956   1.511   1.762   3.001 -0.0262  1.3470  1.0635
  319SOL    HW2  957   1.601   1.895   2.953  1.9224 -1.1526 -1.2907
  320SOL     OW  958   0.634   2.673   2.626 -0.3201  0.4232 -0.3933
  320SOL    HW1  959   0.595   2.592   2.572 -1.0369 -1.3694 -1.7743
  320SOL    HW2  960   0.648   2.654   2.725  1.4918  3.6898 -0.6895
  321SOL     OW  961   0.906   2.603   3.014 -0.4592 -0.2235 -0.0586
  321SOL    HW1  962   0.941   2.594   2.919  0.6991  0.7235  1.3503
  321SOL    HW2  963   0.944   2.690   3.058  1.6009  0.0672  0.4268
  322SOL     OW  964   2.233   0.412   2.120  0.0964  0.0881 -0.2032
  322SOL    HW1  965   2.311   0.345   2.109 -0.6154 -0.8463  1.4549
  322SOL    HW2  966   2.157   0.375   2.174 -2.9707 -2.1161  0.1050
  323SOL     OW  967   2.879   1.013   0.847  0.3877 -0.2074 -0.3394
  323SOL    HW1  968   2.946   1.025   0.923  1.4612  1.1900  2.7633
  323SOL    HW2  969   2.785   1.005   0.894 -0.2039 -2.2469 -0.0758
  324SOL     OW  970   0.394   0.777   2.172  0.3028  0.6563  0.6143
  324SOL    HW1  971   0.375   0.717   2.089  0.5533 -0.5544 -0.5010
  324SOL    HW2  972   0.494   0.787   2.188  1.1903  2.0524  1.6975
  325SOL     OW  973   0.461   0.015   2.153 -0.5616 -0.3975 -0.0788
  325SOL    HW1  974   0.472   0.104   2.208 -1.2362  2.6765  0.7922
  325SOL    HW2  975   0.381   0.025   2.093  1.3121  0.2336  0.5951
  326SOL     OW  976   2.737   2.360   0.201 -0.3879  0.5281 -0.1396
  326SOL    HW1  977   2.761   2.330   0.104  2.8318 -0.7836  0.5600
  326SOL    HW2  978   2.824   2.370   0.256  1.5187 -0.6311  1.2619
  327SOL     OW  979   2.145   1.230   0.629 -0.1167 -0.2090 -0.1210
  327SOL    HW1  980   2.082   1.288   0.686 -0.9991  0.5533 -0.8014
  327SOL    HW2  981   2.194   1.285   0.561 -2.4014 -0.8435 -1.2657
  328SOL     OW  982   2.946   1.763   2.277 -0.5899 -0.6120  0.2268
  328SOL    HW1  983   3.038   1.760   2.308 -4.3170  1.6671 -1.8062
  328SOL    HW2  984   2.941   1.769   2.174 -0.7468 -0.7443 -3.1900
  329SOL     OW  985   0.045   2.203   1.492  0.7053 -0.0860 -0.0094
  329SOL    HW1  986   0.025   2.185   1.393 -0.1962  2.2671 -1.4281
  329SOL    HW2  987   3.066   2.154   1.557 -2.0489 -2.7718  1.9891
  330SOL     OW  988   2.547   1.251   2.404  0.3499 -0.0028  0.4008
  330SOL    HW1  989   2.473   1.179   2.427 -1.0035 -2.8200 -0.5533
  330SOL    HW2  990   2.508   1.334   2.358 -0.8197 -0.3559 -0.8626
  331SOL     OW  991   2.537   2.538   0.822  0.0419  0.1908  0.3570
  331SOL    HW1  992   2.505   2.452   0.864  0.6780  0.8767 -1.2070
  331SOL    HW2  993   2.465   2.612   0.821 -2.5139  1.8445 -2.0290
  332SOL     OW  994   0.571   2.919   0.826  0.1540  0.0993 -0.3556
  332SOL    HW1  995   0.496   2.923   0.760 -1.2007 -0.4672  1.9203
  332SOL    HW2  996   0.529   2.924   0.918  0.9488  0.8314  0.0532
  333SOL     OW  997   2.258   2.735   2.508  0.3491  0.6818  0.2655
  333SOL    HW1  998   2.257   2.681   2.595  0.8159 -1.0865  0.6832
  333SOL    HW2  999   2.260   2.834   2.535  0.4101  0.6335  2.9974
  334SOL     OW 1000   0.975   1.014   0.165 -0.4882 -0.0199  0.0690
  334SOL    HW1 1001   1.021   1.052   0.248  3.3975 -0.0897 -1.7867
  334SOL    HW2 1002   0.876   0.986   0.177 -1.2771 -2.2301  0.7576
  335SOL     OW 1003   0.083   2.131   2.193  0.1432  0.3710  0.5980
  335SOL    HW1 1004   0.140   2.055   2.158 -0.9005 -2.3059 -1.7141
  335SOL    HW2 1005   0.134   2.218   2.194 -2.0502 -1.6134 -0.2108
  336SOL     OW 1006   2.933   2.978   2.486 -0.7968  0.2806  0.2298
  336SOL    HW1 1007   3.029   2.995   2.455 -2.0218 -1.2502 -1.5051
  336SOL    HW2 1008   2.870   3.001   2.412  1.7326  0.4168 -0.2102
  337SOL     OW 1009   1.162   1.174   0.911 -0.0680  0.4327 -0.2926
  337SOL    HW1 1010   1.200   1.263   0.879  2.1990  0.7473 -1.7523
  337SOL    HW2 1011   1.122   1.182   1.002  0.1593 -1.7031 -2.1446
  338SOL     OW 1012   1.100   1.958   0.994 -0.0342  0.4465 -0.1699
  338SOL    HW1 1013   1.151   2.022   0.931  1.3572  3.0772  0.1497
  338SOL    HW2 1014   1.000   1.976   0.996 -0.2830 -1.5825  3.8931
  339SOL     OW 1015   0.069   1.450   1.560 -0.2580  0.5909 -0.1272
  339SOL    HW1 1016   0.001   1.381   1.526 -2.3910  0.3320 -1.5261
  339SOL    HW2 1017   0.037   1.502   1.640  0.3925  0.0506 -1.0519
  340SOL     OW 1018   1.603   2.947   2.042 -0.4207 -0.0402 -0.5165
  340SOL    HW1 1019   1.677   2.880   2.051  0.2304  1.6330 -0.5898
  340SOL    HW2 1020   1.525   2.927   2.100 -1.0068 -0.2320 -0.8020
  341SOL     OW 1021   1.665   1.630   1.099 -0.5212  0.3102 -0.0636
  341SOL    HW1 1022   1.652   1.538   1.058 -0.6251  0.7782 -0.1957
  341SOL    HW2 1023   1.768   1.650   1.118  0.5708  1.0519  1.0758
  342SOL     OW 1024   2.927   1.337   0.893 -0.2032 -0.0558 -0.9615
  342SOL    HW1 1025   2.932   1.306   0.795 -2.1565 -0.1227 -0.2153
  342SOL    HW2 1026   3.014   1.381   0.923  0.7629  0.9754  1.9163
  343SOL     OW 1027   2.886   0.474   1.592 -0.2592 -0.4010  0.3622
  343SOL    HW1 1028   2.875   0.573   1.571  0.5377  1.3902 -0.0982
  343SOL    HW2 1029   2.923   0.431   1.508  1.0308  2.7751  1.5392
  344SOL     OW 1030   1.718   0.146   1.043  0.7878 -0.2256 -0.5800
  344SOL    HW1 1031   1.810   0.171   1.077 -3.7004  4.3039  1.7359
  344SOL    HW2 1032   1.655   0.225   1.027 -1.5210 -1.2074 -1.1745
  345SOL     OW 1033   0.584   3.023   2.508 -0.2650  0.1330 -0.1111
  345SOL    HW1 1034   0.656   2.964   2.539  0.0324  0.9999 -3.9198
  345SOL    HW2 1035   0.625   0.019   2.466 -0.5296 -2.3347  0.7385
  346SOL     OW 1036   2.534   1.480   0.490 -0.0172  0.5030 -0.2148
  346SOL    HW1 1037   2.557   1.503   0.396  1.0851  0.4667 -0.1276
  346SOL    HW2 1038   2.542   1.559   0.555 -0.7396 -5.8124  0.9996
  347SOL     OW 1039   2.517   0.206   1.833 -0.3478 -0.1873  0.2375
  347SOL    HW1 1040   2.535   0.139   1.757  0.3400 -0.1458  1.5043
  347SOL    HW2 1041   2.439   0.160   1.884  0.6845 -3.9888 -0.0492
  348SOL     OW 1042   1.182   1.224   1.653 -0.0964 -0.1957  0.1451
  348SOL    HW1 1043   1.152   1.142   1.601  0.4737 -0.5126  0.6504
  348SOL    HW2 1044   1.110   1.296   1.650  0.0009  2.6489  0.8090
  349SOL     OW 1045   2.536   0.870   1.851  0.2377  0.3718  0.1836
  349SOL    HW1 1046   2.632   0.829   1.850 -1.0227 -2.7085  1.7357
  349SOL    HW2 1047   2.497   0.862   1.756  1.3728  1.7796  0.0742
  350SOL     OW 1048   2.113   2.212   0.125  0.1848  0.3646  0.4089
  350SOL    HW1 1049   2.144   2.279   0.200  1.5488  0.9626  2.3812
  350SOL    HW2 1050   2.164   2.121   0.136 -0.7279 -3.3134  0.2690
  351SOL     OW 1051   0.820   0.488   2.003 -0.4890  0.1661  0.6936
  351SOL    HW1 1052   0.896   0.501   1.938  2.0249  1.6620 -0.1162
  351SOL    HW2 1053   0.746   0.453   1.944  0.6085  4.3399  0.0996
  352SOL     OW 1054   2.040   2.723   1.798 -0.1056 -0.2093 -0.4030
  352SOL    HW1 1055   2.098   2.717   1.883 -3.8481  1.1887 -1.3584
  352SOL    HW2 1056   1.966   2.653   1.813 -1.4122  0.2305 -0.7653
  353SOL     OW 1057   0.660   0.904   2.228 -0.4415 -0.5985 -0.3590
  353SOL    HW1 1058   0.747   0.934   2.181 -3.1862 -1.4129 -0.9849
  353SOL    HW2 1059   0.663   0.914   2.332 -1.5173 -0.1611 -0.9297
  354SOL     OW 1060   0.860   1.919   3.046  0.1676 -0.0362 -0.0624
  354SOL    HW1 1061   0.943   1.961   3.009 -1.3232 -2.4336  2.7857
  354SOL    HW2 1062   0.781   1.935   2.984  1.3414  0.5732  0.6619
  355SOL     OW 1063   1.607   2.641   1.083 -0.1211 -0.4449  0.0390
  355SOL    HW1 1064   1.635   2.674   0.991 -0.4308  0.2357  0.0284
  355SOL    HW2 1065   1.666   2.692   1.150  2.8961 -1.2943  0.0551
  356SOL     OW 1066   2.264   0.975   0.306 -0.3722 -0.0926  0.0827
  356SOL    HW1 1067   2.352   1.021   0.297 -3.7396 -0.2024 -1.0748
  356SOL    HW2 1068   2.207   1.004   0.383 -0.6855  1.3664 -2.0704
  357SOL     OW 1069   0.044   0.131   2.162  0.1055 -0.1958 -0.2673
  357SOL    HW1 1070   0.112   0.186   2.115  0.1695  1.2212  0.4593
  357SOL    HW2 1071   3.076   0.082   2.091  0.2303 -1.7080  0.4533
  358SOL     OW 1072   0.175   1.425   0.632 -0.3232 -0.0483 -0.1814
  358SOL    HW1 1073   0.177   1.332   0.594 -0.3710 -1.6383  2.4256
  358SOL    HW2 1074   0.122   1.487   0.575  1.9254  0.1229  2.7086
  359SOL     OW 1075   2.783   0.234   2.789  0.1572 -0.1553 -0.1484
  359SOL    HW1 1076   2.885   0.234   2.806 -1.2431  1.8850 -3.1511
  359SOL    HW2 1077   2.768   0.233   2.692 -0.6224  1.9598  2.7443
  360SOL     OW 1078   1.236   0.881   1.255 -0.1409 -0.8619  0.1280
  360SOL    HW1 1079   1.332   0.848   1.278 -1.8391  1.2159  0.8850
  360SOL    HW2 1080   1.221   0.980   1.270 -1.2854  1.5521  0.8071
  361SOL     OW 1081   2.622   2.658   1.266 -0.7387 -0.2682  0.1296
  361SOL    HW1 1082   2.689   2.618   1.331  0.9026  2.7022 -1.5403
  361SOL    HW2 1083   2.529   2.612   1.278 -0.3817 -2.5836  0.1778
  362SOL     OW 1084   1.115   0.537   0.770  0.5912  0.9389 -0.0010
  362SOL    HW1 1085   1.129   0.460   0.706 -0.5918 -2.9163  2.1949
  362SOL    HW2 1086   1.020   0.553   0.784  2.3746  0.2188  0.8937
  363SOL     OW 1087   2.135   1.831   0.698 -0.1644  0.2159  0.1976
  363SOL    HW1 1088   2.205   1.761   0.682 -2.8499 -2.9744 -0.1296
  363SOL    HW2 1089   2.046   1.801   0.654  0.0275  0.0316  0.6064
  364SOL     OW 1090   0.543   0.542   1.460 -0.0754 -0.0458 -0.6111
  364SOL    HW1 1091   0.508   0.625   1.503  1.9720 -1.1844  1.7726
  364SOL    HW2 1092   0.576   0.565   1.370 -1.4946 -0.9867  1.9655
  365SOL     OW 1093   0.339   0.117   1.235 -0.6057  0.3217  0.1806
  365SOL    HW1 1094   0.242   0.104   1.208 -0.3642 -0.0615  3.3624
  365SOL    HW2 1095   0.386   0.180   1.173 -0.4237 -0.7593  0.4377
  366SOL     OW 1096   2.819   1.270   0.177 -1.0276 -0.3287 -0.4229
  366SOL    HW1 1097   2.784   1.184   0.151  2.4751  2.7087 -1.7834
  366SOL    HW2 1098   2.774   1.342   0.120  0.1963  1.8971 -1.1662
  367SOL     OW 1099   2.242   2.604   2.754 -0.3811  0.2235  0.2588
  367SOL    HW1 1100   2.170   2.639   2.819 -3.1031  2.0990 -1.2349
  367SOL    HW2 1101   2.301   2.529   2.794  0.9612  0.8258  1.6871
  368SOL     OW 1102   2.463   1.679   0.656 -0.1359  0.5271 -0.5840
  368SOL    HW1 1103   2.428   1.766   0.620  1.6294 -1.5996  1.3041
  368SOL    HW2 1104   2.376   1.622   0.675 -0.8835  1.2410  4.4392
  369SOL     OW 1105   1.795   0.513   2.825 -0.6705  0.2802  0.0384
  369SOL    HW1 1106   1.890   0.530   2.793  0.0378  0.6130  0.1302
  369SOL    HW2 1107   1.728   0.591   2.807  0.2398  2.2271  0.8425
  370SOL     OW 1108   0.447   0.270   1.045 -0.1778 -0.0849 -0.1463
  370SOL    HW1 1109   0.439   0.374   1.053 -1.4073 -0.6066  2.9282
  370SOL    HW2 1110   0.548   0.254   1.030 -0.1219  1.5599 -2.1855
  371SOL     OW 1111   2.807   1.440   3.016  0.5693 -0.1638  0.1636
  371SOL    HW1 1112   2.876   1.391   2.956 -2.7340 -1.0247 -0.4243
  371SOL    HW2 1113   2.831   1.534   3.048 -0.9383 -0.0389 -2.3408
  372SOL     OW 1114   0.656   0.635   2.179  0.2490 -0.1620  0.3062
  372SOL    HW1 1115   0.730   0.607   2.116  0.6715 -0.6236  0.5378
  372SOL    HW2 1116   0.667   0.732   2.204 -2.2367  1.8441  1.9814
  373SOL     OW 1117   0.563   2.903   2.934 -0.0010 -0.3950  0.1581
  373SOL    HW1 1118   0.539   2.965   2.860  0.3961 -0.7343  2.4497
  373SOL    HW2 1119   0.615   2.942   3.006 -0.1904 -0.7387 -1.4594
  374SOL     OW 1120   0.848   1.391   2.879 -0.3954 -0.1360  0.5131
  374SOL    HW1 1121   0.939   1.434   2.850  0.7820  0.7587  1.9840
  374SOL    HW2 1122   0.851   1.292   2.869 -2.3991 -1.0279 -0.7832
  375SOL     OW 1123   1.161   0.468   2.094 -0.8680 -0.1780  0.2823
  375SOL    HW1 1124   1.132   0.460   1.996 -0.6253 -2.2583 -1.4056
  375SOL    HW2 1125   1.147   0.375   2.135  1.6755 -1.4416 -2.4877
  376SOL     OW 1126   0.406   2.772   1.740 -0.1940 -0.1134  0.9900
  376SOL    HW1 1127   0.460   2.826   1.811  1.7200  1.0979  1.8917
  376SOL    HW2 1128   0.416   2.672   1.753  1.7000  3.0629  1.8035
  377SOL     OW 1129   2.627   2.079   2.900  0.1043  0.3582 -0.0649
  377SOL    HW1 1130   2.602   2.096   2.801 -0.8492 -0.5762  0.4226
  377SOL    HW2 1131   2.561   2.019   2.948 -0.0294 -0.3582  1.2410
  378SOL     OW 1132   2.011   0.179   0.275 -0.1259 -0.2514 -0.4143
  378SOL    HW1 1133   2.069   0.118   0.331 -0.2451 -1.0957  0.5069
  378SOL    HW2 1134   2.044   0.177   0.181  1.1076 -1.8114  2.2047
  379SOL     OW 1135   1.693   0.612   0.467  0.1356 -0.1265 -0.0448
  379SOL    HW1 1136   1.740   0.573   0.549  1.4387 -3.8282  2.6428
  379SOL    HW2 1137   1.735   0.565   0.382  2.4927 -0.8612 -0.1269
  380SOL     OW 1138   2.561   1.915   1.861 -0.4993 -0.2073  0.5123
  380SOL    HW1 1139   2.592   1.990   1.800 -1.5013  0.3909 -1.3218
  380SOL    HW2 1140   2.467   1.890   1.830  0.7187 -0.7591  0.6063
  381SOL     OW 1141   2.426   1.438   2.242  0.3511  0.0882  0.3482
  381SOL    HW1 1142   2.487   1.516   2.205 -0.0662  0.6780  0.4962
  381SOL    HW2 1143   2.373   1.400   2.166  2.8873  1.1933  0.3073
  382SOL     OW 1144   2.981   2.201   2.590  0.1219  0.1361  0.2570
  382SOL    HW1 1145   2.959   2.101   2.572 -1.5843 -2.1914 -2.0098
  382SOL    HW2 1146   3.046   2.216   2.669 -1.3753  0.2375  1.0627
  383SOL     OW 1147   1.050   0.994   2.720 -0.3008 -0.3174 -0.5039
  383SOL    HW1 1148   1.048   0.892   2.726  2.5796 -0.1777 -1.1194
  383SOL    HW2 1149   1.122   1.045   2.772  0.7894  2.7372 -0.9676
  384SOL     OW 1150   1.633   1.862   2.579  0.2984  0.5247  0.1047
  384SOL    HW1 1151   1.649   1.950   2.536 -2.0641 -0.5336  0.2485
  384SOL    HW2 1152   1.630   1.792   2.506  2.1137 -0.1241  0.5137
  385SOL     OW 1153   1.964   2.677   0.440 -0.1842  0.0482 -0.9300
  385SOL    HW1 1154   1.864   2.670   0.460 -3.5506 -1.3964  0.5064
  385SOL    HW2 1155   1.998   2.733   0.516  0.0259 -0.2565 -1.5920
  386SOL     OW 1156   1.780   1.378   0.641 -0.2913  0.1509 -0.0241
  386SOL    HW1 1157   1.755   1.282   0.648  0.9807  2.7504  0.1662
  386SOL    HW2 1158   1.825   1.397   0.548  0.6190  1.7905  0.1285
  387SOL     OW 1159   2.663   1.835   1.380 -0.0417  0.1027  0.4860
  387SOL    HW1 1160   2.576   1.782   1.373  1.4010 -1.0335  1.2686
  387SOL    HW2 1161   2.747   1.777   1.365 -1.5863  3.1921 -0.6584
  388SOL     OW 1162   0.138   1.021   1.449 -0.2455 -0.2275 -0.1652
  388SOL    HW1 1163   0.040   1.023   1.469  0.9146 -1.4066  0.1308
  388SOL    HW2 1164   0.158   1.065   1.358  2.7352 -3.2737 -0.5775
  389SOL     OW 1165   2.309   0.979   2.862  0.0820 -0.0400 -0.8995
  389SOL    HW1 1166   2.291   0.901   2.928  0.6048  2.1010  1.2942
  389SOL    HW2 1167   2.250   1.054   2.901  1.6448 -2.2845 -0.1251
  390SOL     OW 1168   0.678   1.561   2.746  0.2216 -0.0104  0.3927
  390SOL    HW1 1169   0.738   1.505   2.803 -1.8696  1.2268 -0.0925
  390SOL    HW2 1170   0.600   1.599   2.803 -1.0597  1.0353  2.1078
  391SOL     OW 1171   0.921   2.090   0.188  0.1971  0.0495 -0.5321
  391SOL    HW1 1172   0.899   2.024   0.115 -1.7787  1.3115  0.1798
  391SOL    HW2 1173   0.897   2.184   0.156 -0.4875  3.7529  0.3048
  392SOL     OW 1174   2.895   2.579   2.261  0.6460  0.1957  0.4832
  392SOL    HW1 1175   2.967   2.530   2.211 -1.1411 -0.4504  0.5746
  392SOL    HW2 1176   2.921   2.612   2.351 -0.7024  0.2746  1.7111
  393SOL     OW 1177   1.407   2.117   0.366  0.1843 -0.1496  0.3140
  393SOL    HW1 1178   1.479   2.104   0.441  1.9293  0.8186  1.8122
  393SOL    HW2 1179   1.449   2.116   0.272 -0.5618 -1.9601 -3.6332
  394SOL     OW 1180   0.717   0.168   2.369  0.0862  0.4217  0.5392
  394SOL    HW1 1181   0.626   0.211   2.354 -0.0471 -0.9114 -1.7785
  394SOL    HW2 1182   0.787   0.227   2.325  2.0940  0.1195  2.3170
  395SOL     OW 1183   0.439   1.283   1.168  0.0399  0.4413  0.5511
  395SOL    HW1 1184   0.528   1.279   1.115 -0.6871 -1.2971 -1.1487
  395SOL    HW2 1185   0.417   1.378   1.189 -2.2926  1.0672 -1.3232
  396SOL     OW 1186   1.847   1.347   2.856 -0.2399  0.1826 -0.1856
  396SOL    HW1 1187   1.758   1.362   2.809 -0.3283  1.1718 -0.0138
  396SOL    HW2 1188   1.922   1.400   2.814 -1.5102 -3.8034 -0.9341
  397SOL     OW 1189   0.118   0.605   2.912 -0.2567  0.0415 -0.2787
  397SOL    HW1 1190   0.116   0.530   2.977  2.1686  0.6898 -1.8442
  397SOL    HW2 1191   0.147   0.693   2.955  1.9199  0.5899  1.1745
  398SOL     OW 1192   1.046   2.440   0.356 -0.2225 -0.2490 -0.3306
  398SOL    HW1 1193   1.065   2.378   0.284  0.5428  0.6362 -0.4867
  398SOL    HW2 1194   0.956   2.486   0.347 -2.7921  0.4128  0.9980
  399SOL     OW 1195   1.888   2.463   2.156  0.4085  0.3895 -0.2479
  399SOL    HW1 1196   1.878   2.482   2.056 -4.5072  1.5695  0.3672
  399SOL    HW2 1197   1.954   2.392   2.178 -0.5479 -1.8931 -1.9528
  400SOL     OW 1198   2.543   1.469   1.499  0.7822  0.1811  0.0648
  400SOL    HW1 1199   2.536   1.433   1.591  1.0497 -0.3027 -0.2267
  400SOL    HW2 1200   2.616   1.413   1.448  2.8397 -1.2936 -0.7321
  401SOL     OW 1201   1.569   1.086   0.951 -0.1224  0.1378 -0.1626
  401SOL    HW1 1202   1.594   1.003   0.900 -0.3838  0.6505 -3.3494
  401SOL    HW2 1203   1.565   1.063   1.050  0.7710 -0.3585 -1.4870
  402SOL     OW 1204   0.305   3.007   2.420  0.2118  0.0579  0.1401
  402SOL    HW1 1205   0.382   3.036   2.368 -1.6135  1.9687  0.2099
  402SOL    HW2 1206   0.327   2.950   2.502 -2.9018 -0.0835 -2.2981
  403SOL     OW 1207   2.740   1.579   1.632 -0.1901 -0.2786 -0.3302
  403SOL    HW1 1208   2.775   1.491   1.677 -2.5522  1.2630  1.4254
  403SOL    HW2 1209   2.672   1.556   1.563  1.9032 -2.9505  2.0017
  404SOL     OW 1210   2.303   1.856   1.844 -0.0895  0.2806  0.1784
  404SOL    HW1 1211   2.217   1.910   1.877 -2.1260  0.7892  0.3943
  404SOL    HW2 1212   2.306   1.834   1.745 -2.1788 -1.1338 -0.4954
  405SOL     OW 1213   2.187   0.300   2.517  0.1044 -0.7054 -0.1504
  405SOL    HW1 1214   2.131   0.326   2.435 -1.5392 -0.3080  0.6528
  405SOL    HW2 1215   2.277   0.251   2.498  1.6088  0.0888  0.3494
  406SOL     OW 1216   0.832   1.388   2.533 -0.1594 -0.0142 -0.1327
  406SOL    HW1 1217   0.858   1.295   2.556  1.8486  1.2580 -0.8035
  406SOL    HW2 1218   0.801   1.437   2.623 -1.1384 -0.6981  2.9943
  407SOL     OW 1219   2.062   2.218   0.523 -0.5341 -0.4827 -0.0650
  407SOL    HW1 1220   2.102   2.215   0.431  1.4709  1.1294  2.7295
  407SOL    HW2 1221   2.135   2.259   0.588  0.7846 -0.4307  1.8104
  408SOL     OW 1222   0.235   3.008   0.744  0.4627  0.6351  0.1435
  408SOL    HW1 1223   0.222   2.969   0.837  0.2047  2.6331 -0.5465
  408SOL    HW2 1224   0.163   2.978   0.675 -0.0156  0.7665 -0.8747
  409SOL     OW 1225   2.023   1.417   0.798 -0.3563 -0.2743  0.6066
  409SOL    HW1 1226   2.025   1.407   0.901  0.4518 -0.7269 -0.1841
  409SOL    HW2 1227   1.928   1.419   0.752  0.4498  1.2208  1.8321
  410SOL     OW 1228   1.928   2.345   2.928  0.2317  0.0290  0.2805
  410SOL    HW1 1229   2.013   2.292   2.937  2.5054 -0.4921  0.4344
  410SOL    HW2 1230   1.887   2.359   3.017 -0.3312  4.2876 -0.3719
  411SOL     OW 1231   0.057   2.803   0.448  0.6054 -0.0257  0.2433
  411SOL    HW1 1232   0.016   2.877   0.512 -0.9437  3.7540  2.0936
  411SOL    HW2 1233   3.067   2.752   0.402 -2.2785  0.4675  1.3159
  412SOL     OW 1234   1.438   2.749   0.735  0.1240  0.1978  0.1692
  412SOL    HW1 1235   1.378   2.831   0.723 -1.5362 -0.0125 -0.1535
  412SOL    HW2 1236   1.518   2.735   0.674 -0.1722 -2.5138  0.4330
  413SOL     OW 1237   1.822   0.106   2.699  0.0069  1.2061 -0.7011
  413SOL    HW1 1238   1.901   0.084   2.637 -1.2962  2.3526  1.5743
  413SOL    HW2 1239   1.815   0.044   2.784 -0.9833 -0.1945  1.7484
  414SOL     OW 1240   0.561   0.676   0.388  0.3035 -0.2426  0.5059
  414SOL    HW1 1241   0.575   0.600   0.454  0.6885 -0.3666  0.9243
  414SOL    HW2 1242   0.491   0.651   0.318 -1.4342  0.2501 -0.2772
  415SOL     OW 1243   0.237   1.108   1.214 -0.2718 -0.0335 -0.6893
  415SOL    HW1 1244   0.250   1.029   1.151  0.0794 -1.4753  3.8021
  415SOL    HW2 1245   0.314   1.177   1.201  0.4818 -0.3073  1.7678
  416SOL     OW 1246   0.302   0.250   0.119 -0.2624  0.4292 -0.6601
  416SOL    HW1 1247   0.332   0.347   0.117  1.3127  1.0472  0.8155
  416SOL    HW2 1248   0.281   0.227   0.214  1.9199  0.0830 -1.3002
  417SOL     OW 1249   2.135   0.185   0.788  0.2387 -0.4650  0.0478
  417SOL    HW1 1250   2.167   0.282   0.776  0.8309  1.5827 -0.8613
  417SOL    HW2 1251   2.032   0.175   0.773  2.9577  2.7721 -1.2199
  418SOL     OW 1252   0.629   0.497   2.402  0.2659 -0.0618  0.2990
  418SOL    HW1 1253   0.722   0.488   2.449  3.1463  0.3036  0.2925
  418SOL    HW2 1254   0.636   0.534   2.308 -1.4239 -0.1354  2.5542
  419SOL     OW 1255   0.708   0.900   0.420 -0.1750  0.6506  0.9849
  419SOL    HW1 1256   0.657   0.812   0.421  1.6001  0.8250  0.8706
  419SOL    HW2 1257   0.683   0.957   0.504 -0.6488  0.1088  0.4729
  420SOL     OW 1258   2.129   1.813   1.285  0.3174 -0.0389 -0.0800
  420SOL    HW1 1259   2.139   1.913   1.303  0.9457  1.8388 -0.3987
  420SOL    HW2 1260   2.211   1.772   1.249 -0.1936  1.1614  0.6660
  421SOL     OW 1261   1.064   1.771   2.717 -0.1192 -0.2356  0.2114
  421SOL    HW1 1262   0.963   1.773   2.694 -1.1733  1.6274 -2.2965
  421SOL    HW2 1263   1.092   1.682   2.757 -0.8534  0.9853  0.7724
  422SOL     OW 1264   2.658   0.580   0.025  0.2493  0.2087  0.0365
  422SOL    HW1 1265   2.638   0.545   0.121 -2.9234  0.4152 -0.3683
  422SOL    HW2 1266   2.753   0.604   0.008 -3.4312  1.2717  0.6106
  423SOL     OW 1267   1.909   1.732   0.555  0.4429  0.6956 -0.0316
  423SOL    HW1 1268   1.950   1.744   0.464 -0.9156 -0.6634 -1.0962
  423SOL    HW2 1269   1.855   1.649   0.560 -0.2877  1.3133  0.7144
  424SOL     OW 1270   0.311   1.537   1.534  0.0683 -0.4228 -0.1761
  424SOL    HW1 1271   0.325   1.550   1.434  0.1474  0.3195 -0.2681
  424SOL    HW2 1272   0.226   1.492   1.563  0.4083 -2.2692  0.3060
  425SOL     OW 1273   2.677   2.814   2.275  0.4514 -0.4518 -0.1222
  425SOL    HW1 1274   2.614   2.794   2.352 -0.6295  0.2826  0.4121
  425SOL    HW2 1275   2.748   2.747   2.254  0.5668  0.5247  0.6169
  426SOL     OW 1276   1.695   2.606   0.492  0.0252  0.2693 -0.0098
  426SOL    HW1 1277   1.633   2.601   0.411 -0.2884  4.3147  0.9492
  426SOL    HW2 1278   1.677   2.525   0.551  0.0461 -2.6128 -0.0979
  427SOL     OW 1279   0.235   0.499   2.694  0.1000  0.3178  0.1840
  427SOL    HW1 1280   0.330   0.539   2.692  0.1305 -2.0002  1.3214
  427SOL    HW2 1281   0.186   0.522   2.776 -0.3958  0.0579 -0.1404
  428SOL     OW 1282   2.140   1.185   2.868  0.2065  0.0343 -0.9959
  428SOL    HW1 1283   2.170   1.248   2.800 -0.8616 -1.0983  0.0231
  428SOL    HW2 1284   2.043   1.160   2.858  3.3323  1.0004 -1.6954
  429SOL     OW 1285   3.040   0.263   0.505  0.1238 -0.0676 -0.1413
  429SOL    HW1 1286   2.993   0.211   0.429 -0.5426  0.2925  1.3032
  429SOL    HW2 1287   3.026   0.209   0.591  1.9636 -1.3847 -0.4249
  430SOL     OW 1288   1.086   2.905   1.970  0.4016  0.3336  0.3577
  430SOL    HW1 1289   1.043   2.859   2.052  0.1891  1.5572  1.3063
  430SOL    HW2 1290   1.133   2.830   1.913 -0.0364  0.8945 -1.0381
  431SOL     OW 1291   3.032   1.842   1.126 -0.0510  0.1139 -0.1730
  431SOL    HW1 1292   2.938   1.882   1.130 -1.9856  1.2699  1.6800
  431SOL    HW2 1293   3.066   1.832   1.219  0.2446 -1.4139 -0.4647
  432SOL     OW 1294   2.417   2.887   2.155  0.3640 -0.2955 -0.1142
  432SOL    HW1 1295   2.501   2.907   2.208  1.0924 -0.2636 -0.4905
  432SOL    HW2 1296   2.349   2.959   2.176  1.1516  0.2255  0.8677
  433SOL     OW 1297   1.277   1.977   0.059 -0.3407  0.0278 -0.2372
  433SOL    HW1 1298   1.364   2.025   0.072 -1.0637  1.0473  2.4651
  433SOL    HW2 1299   1.262   1.920   0.140  1.8388 -0.8247  0.6058
  434SOL     OW 1300   0.292   2.417   2.569 -0.1180  0.4444  0.0137
  434SOL    HW1 1301   0.209   2.385   2.517 -0.7496 -0.4627  1.0530
  434SOL    HW2 1302   0.335   2.341   2.622 -2.4932  0.4911 -1.1703
  435SOL     OW 1303   0.014   0.973   0.694  0.0698 -0.4271 -0.4469
  435SOL    HW1 1304   3.012   0.968   0.746 -1.1837 -2.6506  0.4807
  435SOL    HW2 1305   3.080   0.945   0.598  1.1316 -1.4954  2.5161
  436SOL     OW 1306   0.715   2.582   1.918  0.2063  0.5764 -0.4741
  436SOL    HW1 1307   0.724   2.676   1.881 -2.1927  0.4928  0.2478
  436SOL    HW2 1308   0.627   2.569   1.965  0.1242  0.3472 -1.4779
  437SOL     OW 1309   1.175   2.083   1.480 -0.3549  0.9483 -0.2859
  437SOL    HW1 1310   1.239   2.144   1.433 -0.0324  1.4273  0.7386
  437SOL    HW2 1311   1.227   2.012   1.529  0.1435  2.1181  0.2438
  438SOL     OW 1312   0.242   2.288   0.529 -0.0174  0.0809  0.0815
  438SOL    HW1 1313   0.292   2.323   0.447  2.0796 -0.4361 -0.1227
  438SOL    HW2 1314   0.227   2.185   0.521 -2.3416 -2.8884 -1.3647
  439SOL     OW 1315   0.480   0.009   1.451 -0.0673 -0.3052 -0.0644
  439SOL    HW1 1316   0.442   0.047   1.362 -2.0397  0.9713 -0.3830
  439SOL    HW2 1317   0.457   2.996   1.456 -2.8452  0.7975  0.5484
  440SOL     OW 1318   2.542   2.691   2.484 -0.1274  0.0091 -0.3131
  440SOL    HW1 1319   2.572   2.604   2.441 -1.3028 -0.4019 -1.2741
  440SOL    HW2 1320   2.441   2.713   2.494  0.2573  1.8571 -3.3697
  441SOL     OW 1321   2.992   0.361   1.863  0.2927  0.2485 -0.2418
  441SOL    HW1 1322   2.985   0.321   1.771  1.9404  0.2108 -1.1107
  441SOL    HW2 1323   0.005   0.347   1.889 -0.6213  1.1007 -0.3429
  442SOL     OW 1324   1.833   2.422   0.084  0.0115 -0.0049 -0.3877
  442SOL    HW1 1325   1.882   2.444   0.173 -0.3259  1.6566  1.3131
  442SOL    HW2 1326   1.730   2.421   0.090 -0.4863  0.4719  1.1165
  443SOL     OW 1327   0.107   0.900   2.792  0.6200  0.0660 -0.0600
  443SOL    HW1 1328   0.143   0.897   2.891 -0.4528  0.5110  3.1263
  443SOL    HW2 1329   0.158   0.968   2.732 -0.6119 -0.9594  3.0380
  444SOL     OW 1330   1.628   1.255   2.326 -0.2648  0.2243  0.6423
  444SOL    HW1 1331   1.617   1.177   2.259  0.6509 -2.0193 -2.2820
  444SOL    HW2 1332   1.697   1.324   2.294 -1.4350  1.0262  1.1721
  445SOL     OW 1333   0.118   2.546   1.150 -0.3106  0.3870  0.0039
  445SOL    HW1 1334   0.024   2.582   1.140  0.3106 -2.0070 -2.7712
  445SOL    HW2 1335   0.178   2.575   1.076 -2.7732  1.2853 -0.4656
  446SOL     OW 1336   2.816   1.619   1.329  0.4385  0.0900  0.3082
  446SOL    HW1 1337   2.788   1.527   1.360  1.6069 -0.3934 -0.0653
  446SOL    HW2 1338   2.831   1.615   1.227  0.4269 -0.8568 -2.6891
  447SOL     OW 1339   0.327   0.865   0.375  0.3367 -0.2899  0.3820
  447SOL    HW1 1340   0.372   0.947   0.331  4.1685 -0.7648 -3.9575
  447SOL    HW2 1341   0.388   0.822   0.442 -1.2664  0.6030 -3.0085
  448SOL     OW 1342   1.210   2.053   1.989  0.3099 -0.2103  0.1739
  448SOL    HW1 1343   1.270   2.132   1.964 -0.9233  0.5283 -0.2860
  448SOL    HW2 1344   1.212   2.040   2.088  0.4895  0.9345 -2.8095
  449SOL     OW 1345   1.094   1.459   0.158 -0.5378  0.3771 -0.4495
  449SOL    HW1 1346   1.086   1.417   0.251 -1.4196  0.8475  1.4018
  449SOL    HW2 1347   1.015   1.423   0.106 -1.7306 -0.8925  1.0624
  450SOL     OW 1348   2.986   2.426   1.781 -0.6105  0.3675  0.3385
  450SOL    HW1 1349   3.046   2.355   1.817 -0.8568  3.3419  3.8575
  450SOL    HW2 1350   2.897   2.384   1.748 -1.7799 -1.7837  0.3588
  451SOL     OW 1351   2.318   0.857   2.631  0.2297  0.0553 -0.3969
  451SOL    HW1 1352   2.302   0.896   2.727  0.5600 -0.2710  0.8383
  451SOL    HW2 1353   2.412   0.826   2.609  1.5435 -0.1939 -2.2340
  452SOL     OW 1354   1.845   0.469   0.860  0.0774  0.0653 -0.2292
  452SOL    HW1 1355   1.874   0.514   0.777 -0.6649 -2.2038  2.9548
  452SOL    HW2 1356   1.903   0.486   0.941  3.0190 -0.8826 -0.4369
  453SOL     OW 1357   1.608   1.014   1.221  0.0276 -0.0470 -0.7086
  453SOL    HW1 1358   1.599   0.917   1.239 -0.7855  1.6700 -1.7202
  453SOL    HW2 1359   1.613   1.069   1.308 -1.2594 -0.2974  2.2361
  454SOL     OW 1360   3.018   1.228   0.391  0.0498  0.2748 -0.1635
  454SOL    HW1 1361   2.952   1.222   0.469 -0.2503  1.2495 -2.8335
  454SOL    HW2 1362   2.981   1.276   0.314  3.7126 -3.6363  1.8042
  455SOL     OW 1363   2.537   2.812   1.509  0.0173 -0.5575  0.2218
  455SOL    HW1 1364   2.551   2.815   1.410 -0.3151 -1.6169  0.5935
  455SOL    HW2 1365   2.537   2.908   1.545  3.9874 -0.8756  1.3281
  456SOL     OW 1366   0.150   2.890   1.257  0.3092  0.7248  0.3656
  456SOL    HW1 1367   0.234   2.869   1.311  0.9159 -0.7910 -2.3458
  456SOL    HW2 1368   0.071   2.834   1.294 -1.3640 -1.1202  2.9926
  457SOL     OW 1369   1.264   2.956   0.690  0.4933 -0.1346  0.0695
  457SOL    HW1 1370   1.279   3.047   0.646 -0.0842  2.0722  0.0399
  457SOL    HW2 1371   1.178   2.960   0.740  1.8776  3.0527  1.2431
  458SOL     OW 1372   2.530   2.875   1.158 -0.0243 -0.2852  0.2806
  458SOL    HW1 1373   2.577   2.792   1.189 -1.4515 -1.5654 -1.4761
  458SOL    HW2 1374   2.591   2.947   1.109  0.6342  2.7059 -0.1848
  459SOL     OW 1375   2.574   0.371   2.937  0.4740 -0.3469  0.5574
  459SOL    HW1 1376   2.601   0.444   3.003 -1.9184 -3.2807 -0.4366
  459SOL    HW2 1377   2.657   0.336   2.890  1.3267  1.2200 -0.3692
  460SOL     OW 1378   2.524   2.438   3.022  0.2010  0.0887 -0.2143
  460SOL    HW1 1379   2.543   2.539   3.030  0.6085 -4.0629  0.9133
  460SOL    HW2 1380   2.613   2.392   3.041 -1.8376 -0.2724  0.1629
  461SOL     OW 1381   0.675   1.697   0.425  0.0792 -0.0839 -0.4312
  461SOL    HW1 1382   0.716   1.679   0.520  1.1182  0.4148  3.1123
  461SOL    HW2 1383   0.679   1.609   0.374  1.3909  0.7271  0.3793
  462SOL     OW 1384   1.990   2.193   1.025  0.0553  0.1813  0.4216
  462SOL    HW1 1385   1.905   2.254   1.039 -2.1871  1.3906 -0.7640
  462SOL    HW2 1386   2.064   2.247   0.979  2.1898 -0.8156 -0.0989
  463SOL     OW 1387   2.561   1.122   0.850  0.8420 -0.5740  0.0642
  463SOL    HW1 1388   2.569   1.024   0.848 -3.1619  0.5349 -0.0952
  463SOL    HW2 1389   2.468   1.153   0.875 -0.6826 -1.6064  1.8644
  464SOL     OW 1390   1.015   3.027   0.904  0.8567  0.1357  0.3809
  464SOL    HW1 1391   0.920   3.031   0.862 -1.4027  0.6712 -0.4590
  464SOL    HW2 1392   1.045   2.931   0.909 -0.6902  1.0135  0.3586
  465SOL     OW 1393   2.233   1.422   0.431  0.4428  0.7778  0.4533
  465SOL    HW1 1394   2.168   1.457   0.358  1.0842  1.7384 -0.7774
  465SOL    HW2 1395   2.324   1.400   0.385  1.7402  0.2612 -1.6913
  466SOL     OW 1396   2.035   0.242   2.820 -0.2552 -0.1130 -0.1001
  466SOL    HW1 1397   2.062   0.338   2.807  3.4117 -0.4154  1.8363
  466SOL    HW2 1398   1.950   0.214   2.772 -0.1268 -1.8420 -0.4349
  467SOL     OW 1399   1.068   1.004   1.531 -1.3776  0.1347  0.1995
  467SOL    HW1 1400   1.103   0.910   1.514 -0.0704 -1.1977  1.1578
  467SOL    HW2 1401   0.976   1.004   1.578 -1.2075  1.3718  0.0041
  468SOL     OW 1402   0.507   1.113   2.448 -0.5426 -0.1185 -0.8356
  468SOL    HW1 1403   0.485   1.017   2.435  2.5946  2.0524  0.6295
  468SOL    HW2 1404   0.549   1.136   2.542 -0.0161 -0.2279  3.2457
  469SOL     OW 1405   0.661   2.141   0.326  0.3923  0.8109 -0.3904
  469SOL    HW1 1406   0.630   2.224   0.279 -0.5497 -0.6278  1.1615
  469SOL    HW2 1407   0.763   2.154   0.342  3.1278  0.9420  0.6712
  470SOL     OW 1408   2.556   1.263   2.933  0.0015 -0.4176 -0.1196
  470SOL    HW1 1409   2.656   1.263   2.946 -3.4207 -1.2806 -1.3305
  470SOL    HW2 1410   2.526   1.231   2.844 -0.1794  0.6085  1.2459
  471SOL     OW 1411   2.623   1.064   2.202  0.0923 -0.1869  0.5508
  471SOL    HW1 1412   2.597   1.139   2.268  3.4737  0.3913 -0.7665
  471SOL    HW2 1413   2.575   1.073   2.111 -2.0849 -1.2644  0.7021
  472SOL     OW 1414   0.413   2.792   0.624 -0.3430 -0.0268  0.6190
  472SOL    HW1 1415   0.348   2.725   0.585  2.0822 -0.8530 -0.8004
  472SOL    HW2 1416   0.438   2.864   0.556 -1.3929 -0.9296 -0.7449
  473SOL     OW 1417   0.514   0.077   0.056 -0.1595  0.3972 -0.2182
  473SOL    HW1 1418   0.437   0.143   0.071 -0.5938  0.0776 -0.3863
  473SOL    HW2 1419   0.479   3.068   0.068 -0.3258  2.6809 -0.1201
  474SOL     OW 1420   1.929   0.284   2.071 -0.7867  0.1579  0.1196
  474SOL    HW1 1421   1.917   0.356   1.998 -0.8961  3.7767 -1.1346
  474SOL    HW2 1422   1.844   0.256   2.121  0.7341 -3.2899  3.7763
  475SOL     OW 1423   1.209   2.254   0.208 -0.2460 -0.3570  0.8605
  475SOL    HW1 1424   1.136   2.182   0.202  0.0638 -1.0869  2.4599
  475SOL    HW2 1425   1.272   2.229   0.281 -0.1414 -0.1491 -3.2451
  476SOL     OW 1426   0.610   1.070   0.631 -0.5158 -0.7470 -0.1439
  476SOL    HW1 1427   0.659   1.077   0.724  3.9741  0.2338  4.7501
  476SOL    HW2 1428   0.541   1.144   0.623  1.3163 -0.9469 -1.9844
  477SOL     OW 1429   1.692   2.498   1.473 -0.2249  0.8615 -0.0197
  477SOL    HW1 1430   1.610   2.446   1.511  0.6804  1.7191 -0.8234
  477SOL    HW2 1431   1.663   2.571   1.410 -1.2020  1.0389 -1.0441
  478SOL     OW 1432   0.501   1.638   2.355  0.6904 -0.6478  0.0242
  478SOL    HW1 1433   0.511   1.586   2.270 -2.2320  2.7681  2.9311
  478SOL    HW2 1434   0.487   1.575   2.433  1.3065 -2.0371 -2.2913
  479SOL     OW 1435   2.993   3.025   0.956  0.1416 -0.6653  0.0061
  479SOL    HW1 1436   3.037   3.053   1.043  0.2824  0.2192  0.6134
  479SOL    HW2 1437   3.061   3.012   0.879  0.4034  1.0573 -0.6414
  480SOL     OW 1438   2.765   3.040   0.338 -0.6957  0.0911  0.8299
  480SOL    HW1 1439   2.735   2.999   0.425 -1.1159 -1.6331  0.8913
  480SOL    HW2 1440   2.811   2.970   0.282 -1.0470  4.2654  2.1895
  481SOL     OW 1441   2.723   2.630   0.982 -0.0228 -0.0317 -0.5472
  481SOL    HW1 1442   2.647   2.607   0.919  1.3866  2.3540  1.5396
  481SOL    HW2 1443   2.680   2.662   1.069  1.7722  1.3510 -0.1252
  482SOL     OW 1444   1.146   2.324   2.328  0.5387  0.2738 -0.1649
  482SOL    HW1 1445   1.084   2.297   2.253  1.3676 -1.4696  0.8350
  482SOL    HW2 1446   1.166   2.246   2.385 -1.5816  2.7137  0.6186
  483SOL     OW 1447   0.506   1.879   2.471  0.3137 -0.1613 -0.1179
  483SOL    HW1 1448   0.473   1.791   2.439 -0.8297  1.0609  0.1872
  483SOL    HW2 1449   0.467   1.957   2.415 -0.4343  1.3741 -0.0717
  484SOL     OW 1450   0.877   1.245   2.155  0.7309  0.0800  0.2625
  484SOL    HW1 1451   0.782   1.272   2.172  2.8318  0.2942  0.0805
  484SOL    HW2 1452   0.944   1.300   2.210 -1.2120 -1.2614 -2.5389
  485SOL     OW 1453   2.760   0.388   0.457 -0.6599 -0.4579 -0.3168
  485SOL    HW1 1454   2.697   0.311   0.488 -0.2080 -0.5237  0.1175
  485SOL    HW2 1455   2.818   0.350   0.381 -0.4354 -0.7514  0.3188
  486SOL     OW 1456   1.720   2.820   0.813  0.4845 -0.0864 -1.1855
  486SOL    HW1 1457   1.779   2.883   0.865 -1.7788 -0.4330 -0.3660
  486SOL    HW2 1458   1.715   2.858   0.717 -1.3808  1.1973 -2.1084
  487SOL     OW 1459   0.604   2.279   0.910 -0.1110  0.7732 -0.4222
  487SOL    HW1 1460   0.700   2.305   0.890  0.1108 -1.1901  1.7526
  487SOL    HW2 1461   0.543   2.315   0.837  2.3084 -0.8254  1.4655
  488SOL     OW 1462   2.412   1.355   0.229 -0.4147 -0.0190  0.0724
  488SOL    HW1 1463   2.466   1.442   0.233 -0.0116  2.0480  0.5997
  488SOL    HW2 1464   2.395   1.319   0.134 -0.6748 -0.4995  0.6066
  489SOL     OW 1465   1.335   3.034   1.051 -0.4468 -0.6512 -0.7512
  489SOL    HW1 1466   1.420   3.061   1.107  0.7623  2.6726  1.1771
  489SOL    HW2 1467   1.327   2.932   1.054 -2.3228 -0.6498 -0.2015
  490SOL     OW 1468   1.123   1.128   3.040  0.5059  0.4182 -0.3390
  490SOL    HW1 1469   1.207   1.133   0.013  0.8108 -0.8068  1.0505
  490SOL    HW2 1470   1.046   1.095   0.012 -1.9259  1.5579 -2.0537
  491SOL     OW 1471   0.786   2.638   0.736  0.0684  0.0828  0.6247
  491SOL    HW1 1472   0.689   2.632   0.710  1.7088  0.8108  0.2416
  491SOL    HW2 1473   0.791   2.682   0.828 -1.4708  2.3542  1.1073
  492SOL     OW 1474   1.273   1.335   2.095 -0.2950 -0.1158  0.1687
  492SOL    HW1 1475   1.236   1.324   2.188  0.8527 -0.3208  1.3306
  492SOL    HW2 1476   1.366   1.374   2.105  0.1958 -1.6214 -1.6033
  493SOL     OW 1477   0.130   2.475   0.740  0.0560 -0.1574 -0.8313
  493SOL    HW1 1478   0.154   2.393   0.690  0.6358 -0.9402 -0.7592
  493SOL    HW2 1479   0.145   2.549   0.672  0.6673 -0.1118  1.8445
  494SOL     OW 1480   2.465   1.919   3.027 -0.6372  0.0592 -0.1426
  494SOL    HW1 1481   2.398   1.858   2.984  0.5984  0.7362  2.2106
  494SOL    HW2 1482   2.554   1.871   3.042  2.1780 -0.0132  0.9846
  495SOL     OW 1483   2.584   1.609   2.907  0.6558  0.2775  0.2341
  495SOL    HW1 1484   2.590   1.617   2.810  2.9379  1.3101  4.5585
  495SOL    HW2 1485   2.661   1.556   2.943  0.7311 -3.1727  1.5991
  496SOL     OW 1486   2.745   3.006   1.669 -0.3074  0.8458  0.3316
  496SOL    HW1 1487   2.653   3.047   1.654  2.5777  2.3598 -1.8680
  496SOL    HW2 1488   2.752   2.945   1.754 -1.1044 -2.4063 -1.1717
  497SOL     OW 1489   2.565   1.059   0.564 -0.0921  0.9495  0.2974
  497SOL    HW1 1490   2.491   0.991   0.585  0.1522 -1.8470 -0.7618
  497SOL    HW2 1491   2.612   1.099   0.647  1.1624  1.8787 -0.3839
  498SOL     OW 1492   0.076   2.344   2.431  0.2969  0.2804  0.6756
  498SOL    HW1 1493   0.082   2.369   2.333 -1.7461  1.9789  1.3696
  498SOL    HW2 1494   3.080   2.287   2.446 -0.4188 -0.1030  0.8760
  499SOL     OW 1495   1.068   1.910   0.324  0.1117 -0.2419  0.4139
  499SOL    HW1 1496   1.009   1.884   0.406 -0.8992  0.3854  0.7869
  499SOL    HW2 1497   1.017   1.974   0.264  2.4621  0.4822  0.0443
  500SOL     OW 1498   1.189   3.049   2.697  0.1036  0.5987  0.2031
  500SOL    HW1 1499   1.135   0.025   2.755  2.5346 -1.8892 -2.4159
  500SOL    HW2 1500   1.135   2.961   2.683 -0.7127  0.3354 -0.1301
  501SOL     OW 1501   1.441   0.106   1.393 -0.7151  0.1754 -0.3969
  501SOL    HW1 1502   1.491   0.035   1.339 -1.2048  1.1963  0.8669
  501SOL    HW2 1503   1.401   0.174   1.330 -0.3380 -2.5726 -0.7456
  502SOL     OW 1504   0.024   0.282   2.373  0.1742  0.2257  0.2844
  502SOL    HW1 1505   0.119   0.292   2.411  2.9617  0.8298  1.6149
  502SOL    HW2 1506   0.020   0.227   2.290  0.0568  0.0298 -0.2597
  503SOL     OW 1507   2.278   2.156   2.533 -0.2639  0.3469 -0.2147
  503SOL    HW1 1508   2.237   2.246   2.530  1.3951 -5.0713  1.1281
  503SOL    HW2 1509   2.216   2.103   2.593  2.1712 -0.6165 -0.9311
  504SOL     OW 1510   1.419   0.493   1.842 -0.2128  0.1032  0.1866
  504SOL    HW1 1511   1.361   0.409   1.822 -1.8791 -1.9199 -1.3017
  504SOL    HW2 1512   1.518   0.469   1.858 -0.2301  0.6234  1.2896
  505SOL     OW 1513   2.930   0.758   1.547  0.0830 -0.1500 -0.1416
  505SOL    HW1 1514   2.919   0.856   1.570 -1.3474 -2.2178  1.0500
  505SOL    HW2 1515   2.966   0.749   1.458  0.1370  1.0019  0.4997
  506SOL     OW 1516   0.429   1.105   2.122  0.0424 -0.2972 -0.0340
  506SOL    HW1 1517   0.395   1.204   2.126 -1.2324  0.1195  1.2373
  506SOL    HW2 1518   0.477   1.077   2.210  1.1837  0.0497  0.6558
  507SOL     OW 1519   0.359   2.805   2.633  0.6705  0.4211  0.0231
  507SOL    HW1 1520   0.452   2.766   2.651  1.4525 -0.4496 -2.2823
  507SOL    HW2 1521   0.285   2.734   2.621  1.6309 -2.2319 -1.2211
  508SOL     OW 1522   1.470   0.767   1.296 -0.0650 -0.4253 -0.1092
  508SOL    HW1 1523   1.489   0.685   1.356 -0.5334 -2.1780 -1.5269
  508SOL    HW2 1524   1.494   0.737   1.204 -2.0471  0.0762  3.3055
  509SOL     OW 1525   0.935   1.834   1.600  0.1149  0.2007  1.3813
  509SOL    HW1 1526   0.974   1.909   1.657  1.5368 -0.2152  0.0986
  509SOL    HW2 1527   0.986   1.833   1.508  0.8228 -0.4267 -4.0129
  510SOL     OW 1528   2.213   0.721   2.258 -0.1931 -0.8571  0.4515
  510SOL    HW1 1529   2.185   0.636   2.306  0.5589  0.9419 -1.0130
  510SOL    HW2 1530   2.311   0.725   2.229 -2.0319  2.3104  0.6908
  511SOL     OW 1531   0.749   1.675   0.957  0.1015 -0.1570  0.3169
  511SOL    HW1 1532   0.681   1.634   0.894  1.8087 -1.1905  0.8219
  511SOL    HW2 1533   0.710   1.758   1.003 -0.5335  1.5380  1.7290
  512SOL     OW 1534   2.466   2.145   0.582  0.1545 -0.7481 -0.5479
  512SOL    HW1 1535   2.416   2.056   0.573 -2.1526  1.3048 -2.1227
  512SOL    HW2 1536   2.471   2.188   0.491 -1.8025  3.5559 -2.2067
  513SOL     OW 1537   2.596   1.622   2.640  0.3582 -0.6620 -0.2243
  513SOL    HW1 1538   2.608   1.550   2.571  2.0507  0.9621  0.9247
  513SOL    HW2 1539   2.666   1.696   2.621 -2.1878 -0.4898  2.0268
  514SOL     OW 1540   0.413   2.201   2.677 -0.5616  0.2445 -0.0434
  514SOL    HW1 1541   0.380   2.103   2.677  0.0125 -1.2007 -1.7133
  514SOL    HW2 1542   0.470   2.203   2.762 -1.5801 -0.9355 -0.8757
  515SOL     OW 1543   1.915   1.586   2.058 -0.0786 -0.5796  0.2978
  515SOL    HW1 1544   1.910   1.593   1.956  1.3594 -2.1027 -0.9142
  515SOL    HW2 1545   1.896   1.674   2.100  1.2742 -3.9468  3.0644
  516SOL     OW 1546   2.175   2.207   2.889  0.1853 -0.4982 -0.1015
  516SOL    HW1 1547   2.167   2.196   2.986  0.3990  1.6932 -0.3891
  516SOL    HW2 1548   2.237   2.285   2.863  1.9617 -1.0420  0.3784
  517SOL     OW 1549   1.455   1.259   3.052 -0.0302 -0.2499  0.1574
  517SOL    HW1 1550   1.492   1.221   2.963  0.9117 -0.7574 -1.7880
  517SOL    HW2 1551   1.423   1.181   0.026 -0.4569 -2.2224  3.2575
  518SOL     OW 1552   2.788   0.002   2.278 -0.3454  0.2504  0.3954
  518SOL    HW1 1553   2.852   0.037   2.207  0.1664 -0.3091  0.0206
  518SOL    HW2 1554   2.749   2.994   2.258 -0.0073  1.4020  2.1415
  519SOL     OW 1555   1.724   2.157   1.921  0.5615 -0.3953  0.2124
  519SOL    HW1 1556   1.670   2.228   1.966  2.8157 -0.6538 -2.3708
  519SOL    HW2 1557   1.813   2.140   1.970 -0.4170  1.9922  0.6159
  520SOL     OW 1558   2.750   2.991   2.679  1.1455 -0.3833  0.6218
  520SOL    HW1 1559   2.797   2.975   2.769 -0.1265 -0.5284 -0.6297
  520SOL    HW2 1560   2.815   2.984   2.600 -0.9281  1.5807  3.7017
  521SOL     OW 1561   0.334   1.352   2.191  0.2472  1.0575 -0.2441
  521SOL    HW1 1562   0.257   1.406   2.227  0.2176 -0.5305  1.1638
  521SOL    HW2 1563   0.404   1.414   2.148  1.4321  1.0600 -0.8631
  522SOL     OW 1564   1.046   0.168   1.637  0.3197 -0.2466  0.2943
  522SOL    HW1 1565   1.107   0.161   1.714  0.6694 -2.6985 -1.7911
  522SOL    HW2 1566   1.043   0.266   1.595  0.8901  1.0839  1.0184
  523SOL     OW 1567   0.250   2.617   0.926 -0.3047 -0.5376  0.4634
  523SOL    HW1 1568   0.349   2.618   0.904 -1.3981 -0.9714  1.7470
  523SOL    HW2 1569   0.193   2.552   0.872  0.0207  1.5268 -0.0119
  524SOL     OW 1570   1.609   2.384   0.636  0.1637 -0.9382  0.4484
  524SOL    HW1 1571   1.611   2.285   0.609  1.5863 -0.4632  0.2942
  524SOL    HW2 1572   1.513   2.414   0.653 -2.3229 -1.1844 -0.8377
  525SOL     OW 1573   2.376   0.678   1.154 -0.1238  0.2592  0.0318
  525SOL    HW1 1574   2.352   0.676   1.251 -0.1986  0.9966  1.7992
  525SOL    HW2 1575   2.316   0.745   1.102 -3.5546  0.5703  0.0493
  526SOL     OW 1576   1.092   2.631   0.699  0.2971  0.4181 -0.6835
  526SOL    HW1 1577   1.065   2.538   0.671 -4.2964  0.2294 -1.1649
  526SOL    HW2 1578   1.061   2.693   0.621 -0.0505 -3.0491  1.9077
  527SOL     OW 1579   2.360   1.903   0.510 -0.1565  0.1055  0.1008
  527SOL    HW1 1580   2.357   1.897   0.407 -1.2890 -1.1356 -1.5621
  527SOL    HW2 1581   2.262   1.905   0.547 -2.3985 -2.8355 -0.0394
  528SOL     OW 1582   2.282   0.446   0.480  0.3973 -0.4342  0.1855
  528SOL    HW1 1583   2.186   0.402   0.479  1.2344  0.1187 -2.1488
  528SOL    HW2 1584   2.332   0.433   0.388 -0.9192  1.2448 -1.9742
  529SOL     OW 1585   1.103   1.334   2.315  0.3271 -0.1338  0.1695
  529SOL    HW1 1586   1.045   1.416   2.319  2.1782  0.0731 -1.3609
  529SOL    HW2 1587   1.102   1.292   2.408  0.2165  1.3298  1.1490
  530SOL     OW 1588   2.550   0.820   3.023  0.8983  0.2053 -0.5161
  530SOL    HW1 1589   2.588   0.740   3.072  1.1111  4.5291 -0.6521
  530SOL    HW2 1590   2.456   0.796   2.988  0.4232 -0.8896  0.2157
  531SOL     OW 1591   1.337   1.073   0.120 -0.7353 -0.7224 -0.5670
  531SOL    HW1 1592   1.351   0.975   0.145  0.5077  0.4485 -0.4752
  531SOL    HW2 1593   1.325   1.134   0.206  1.2363  3.2595 -0.5019
  532SOL     OW 1594   2.077   2.895   0.875 -0.3046  0.0405  0.1792
  532SOL    HW1 1595   1.984   2.937   0.897 -3.9303  2.8513 -0.5690
  532SOL    HW2 1596   2.151   2.943   0.927  0.3528  1.3423  2.7346
  533SOL     OW 1597   1.125   0.880   1.871  0.3370 -0.3546 -0.3929
  533SOL    HW1 1598   1.129   0.981   1.873 -1.2411 -1.8251  0.1474
  533SOL    HW2 1599   1.217   0.843   1.897 -1.4655 -2.7809  1.1347
  534SOL     OW 1600   1.862   3.022   2.912  0.6311  0.1361  0.5969
  534SOL    HW1 1601   1.881   2.966   2.829 -1.4708 -1.1070  0.1582
  534SOL    HW2 1602   1.926   2.991   2.985 -0.6637  0.9782  0.2163
  535SOL     OW 1603   0.501   2.965   0.410  0.0046 -0.1542 -0.5535
  535SOL    HW1 1604   0.486   3.064   0.446 -0.4592 -0.7532  1.2517
  535SOL    HW2 1605   0.426   2.936   0.350 -0.0700 -1.4129 -0.8586
  536SOL     OW 1606   0.730   2.675   0.999 -0.3988  0.3962 -0.9063
  536SOL    HW1 1607   0.681   2.721   1.075  0.4638  2.4072  0.1135
  536SOL    HW2 1608   0.820   2.632   1.038  0.1744 -0.0476 -1.8309
  537SOL     OW 1609   1.774   0.364   1.304 -0.0483 -0.5609 -0.0378
  537SOL    HW1 1610   1.816   0.342   1.215  1.1714  1.8598 -0.0053
  537SOL    HW2 1611   1.792   0.289   1.372  2.6244  1.0894  2.1867
  538SOL     OW 1612   2.966   2.623   0.308  0.1790 -0.1208 -0.3279
  538SOL    HW1 1613   3.045   2.559   0.301  2.5135  0.2449 -1.9766
  538SOL    HW2 1614   2.893   2.591   0.369  0.3687  3.5517 -0.1675
  539SOL     OW 1615   2.715   2.053   2.266 -0.1757  0.1146 -0.4452
  539SOL    HW1 1616   2.635   2.001   2.231  1.5331  1.5632  2.5658
  539SOL    HW2 1617   2.788   2.070   2.198  1.9345 -1.9928 -0.4485
  540SOL     OW 1618   3.064   2.591   1.589 -0.3728 -0.4336  0.1318
  540SOL    HW1 1619   3.055   2.538   1.501 -0.1381 -2.6286  0.6249
  540SOL    HW2 1620   3.039   2.537   1.671 -0.5938 -0.2755 -1.0660
  541SOL     OW 1621   2.739   2.915   1.962 -0.5995 -0.0223  0.3561
  541SOL    HW1 1622   2.640   2.907   1.938  0.0891 -1.5171 -1.5503
  541SOL    HW2 1623   2.775   2.827   2.001  0.0737 -0.6430  2.0083
  542SOL     OW 1624   3.056   0.520   2.218 -0.0719 -0.0608  0.1263
  542SOL    HW1 1625   3.069   0.435   2.278  1.2285 -3.1395  1.0139
  542SOL    HW2 1626   3.004   0.594   2.271 -4.9941  1.0520  3.5303
  543SOL     OW 1627   0.698   0.578   0.691 -0.1384  0.1058  0.0145
  543SOL    HW1 1628   0.778   0.624   0.647 -2.6632 -0.3535  1.6588
  543SOL    HW2 1629   0.644   0.647   0.745 -0.7310 -1.4726 -1.1516
  544SOL     OW 1630   2.578   2.302   0.957  0.2417 -0.0661  0.0758
  544SOL    HW1 1631   2.629   2.246   0.893 -2.5084  1.5911  0.5034
  544SOL    HW2 1632   2.630   2.300   1.043  3.4340 -1.5006 -0.9282
  545SOL     OW 1633   1.216   1.731   0.178 -0.4920  0.1358  0.3299
  545SOL    HW1 1634   1.161   1.782   0.246  0.7686 -3.0053  0.8845
  545SOL    HW2 1635   1.162   1.651   0.152 -0.7181  0.7870  1.0127
  546SOL     OW 1636   2.500   0.588   1.837  0.1489 -0.3690 -0.2461
  546SOL    HW1 1637   2.456   0.571   1.927 -0.0161  0.8889 -2.1334
  546SOL    HW2 1638   2.592   0.544   1.822  3.2159  2.1433  2.5296
  547SOL     OW 1639   0.450   0.231   2.320 -0.1909 -0.4841  0.1587
  547SOL    HW1 1640   0.388   0.226   2.403 -2.0759 -0.2386  4.0639
  547SOL    HW2 1641   0.423   0.309   2.259 -0.2698 -0.3074  2.0332
  548SOL     OW 1642   2.068   2.173   2.270  0.2417 -0.1384 -0.5217
  548SOL    HW1 1643   2.166   2.178   2.293 -3.0919  2.7636 -1.6353
  548SOL    HW2 1644   2.023   2.081   2.287 -3.3005 -0.3912  0.0107
  549SOL     OW 1645   2.493   0.562   0.953 -0.0232 -0.3106 -0.4850
  549SOL    HW1 1646   2.543   0.648   0.915 -0.8733  0.0203  1.0021
  549SOL    HW2 1647   2.425   0.584   1.037 -2.4616 -2.9112  2.5015
  550SOL     OW 1648   1.385   1.466   0.495  0.5303 -0.1901  0.1358
  550SOL    HW1 1649   1.460   1.485   0.431 -2.5634 -2.8554  2.2986
  550SOL    HW2 1650   1.394   1.518   0.584  2.1958  2.2125  0.4466
  551SOL     OW 1651   1.190   0.395   1.091 -0.3651 -0.1019  0.1053
  551SOL    HW1 1652   1.107   0.453   1.096 -0.2290  1.6616 -0.2609
  551SOL    HW2 1653   1.164   0.309   1.051 -1.7385  1.6326  0.8157
  552SOL     OW 1654   2.242   2.487   2.071  0.3356  0.3348  0.2570
  552SOL    HW1 1655   2.201   2.577   2.052  1.1576  2.3764 -0.5972
  552SOL    HW2 1656   2.297   2.496   2.157 -0.7179  2.7625  3.2548
  553SOL     OW 1657   0.065   2.995   0.143 -0.4937 -0.0597 -0.2731
  553SOL    HW1 1658   0.148   2.961   0.191 -3.3394 -2.2529 -0.2492
  553SOL    HW2 1659   3.063   2.951   0.160  2.1001  0.4865 -2.6359
  554SOL     OW 1660   1.459   2.754   1.860  0.9037 -0.2170 -0.2621
  554SOL    HW1 1661   1.532   2.699   1.818 -2.2634  1.1617  0.7212
  554SOL    HW2 1662   1.498   2.817   1.928  2.5334  0.3635 -1.6996
  555SOL     OW 1663   2.474   2.858   1.890 -0.1145 -0.0504  0.0908
  555SOL    HW1 1664   2.391   2.907   1.845 -0.5752  0.3412 -1.1910
  555SOL    HW2 1665   2.461   2.857   1.991  0.5900  1.8823  1.0431
  556SOL     OW 1666   0.744   2.913   0.061 -0.2974  0.3970 -0.0188
  556SOL    HW1 1667   0.780   2.921   0.153 -1.1341 -1.4678 -0.8221
  556SOL    HW2 1668   0.675   2.846   0.053 -0.2438  1.9268 -3.7642
  557SOL     OW 1669   0.415   2.071   2.302 -0.2736 -0.0418 -0.2904
  557SOL    HW1 1670   0.382   2.063   2.204  0.1887 -0.1697 -2.1342
  557SOL    HW2 1671   0.489   2.141   2.298  1.4402 -0.8735 -1.2031
  558SOL     OW 1672   2.610   1.138   2.694 -0.1937  0.3100 -0.2366
  558SOL    HW1 1673   2.636   1.039   2.678  1.6167 -1.0923 -0.0267
  558SOL    HW2 1674   2.557   1.173   2.612 -0.0820  2.8612 -1.2640
  559SOL     OW 1675   2.376   2.429   2.303  0.6808  0.1475  0.4852
  559SOL    HW1 1676   2.474   2.430   2.294 -0.7718 -0.7175  0.7749
  559SOL    HW2 1677   2.341   2.333   2.302 -2.0259 -1.7433 -0.4153
  560SOL     OW 1678   0.386   0.433   2.159 -0.1370  0.0845 -0.9621
  560SOL    HW1 1679   0.352   0.490   2.240  2.0361  2.4740 -1.0568
  560SOL    HW2 1680   0.422   0.496   2.086  1.9603 -0.3381 -1.6777
  561SOL     OW 1681   0.766   0.461   0.219 -0.2338 -0.0701 -0.1017
  561SOL    HW1 1682   0.679   0.443   0.268 -0.5796  0.4748 -0.5054
  561SOL    HW2 1683   0.770   0.406   0.133  2.7689  0.4013 -3.7448
  562SOL     OW 1684   0.738   1.433   1.589  0.2652  0.4293 -0.7917
  562SOL    HW1 1685   0.657   1.380   1.559  0.5692  2.6138 -0.6422
  562SOL    HW2 1686   0.761   1.490   1.509 -0.2071 -1.5889  2.9338
  563SOL     OW 1687   1.646   2.881   0.030  0.1033  0.2297  0.4671
  563SOL    HW1 1688   1.659   2.799   3.052  2.7892 -2.4466  1.9139
  563SOL    HW2 1689   1.734   2.902   0.076 -0.2641  0.0968  0.4789
  564SOL     OW 1690   0.137   2.016   0.479  0.4901 -0.7816  0.0481
  564SOL    HW1 1691   0.194   1.933   0.474  0.1619 -0.2576 -0.3903
  564SOL    HW2 1692   0.059   2.002   0.540  2.2619 -0.3893 -1.0460
  565SOL     OW 1693   0.517   2.513   2.415 -0.2403 -0.2562 -0.2866
  565SOL    HW1 1694   0.504   2.566   2.324 -1.2473 -0.8523 -0.3749
  565SOL    HW2 1695   0.430   2.485   2.462  3.3889  0.1836 -0.5408
  566SOL     OW 1696   1.326   2.528   2.323 -0.0474  1.1421 -0.2773
  566SOL    HW1 1697   1.368   2.500   2.414 -0.2914  0.6832  2.7551
  566SOL    HW2 1698   1.254   2.463   2.299 -0.4495 -1.9479  1.1765
  567SOL     OW 1699   1.809   2.017   1.258 -0.5831  1.0984 -0.2578
  567SOL    HW1 1700   1.736   2.047   1.199  3.8232  0.8181  2.1184
  567SOL    HW2 1701   1.859   1.933   1.223  0.7505 -2.2142 -1.0599
  568SOL     OW 1702   2.275   0.772   3.026 -0.0237  0.5731 -0.7604
  568SOL    HW1 1703   2.216   0.813   0.021 -0.6084  0.1715  1.6488
  568SOL    HW2 1704   2.243   0.682   2.992 -0.3868 -1.5686 -0.5036
  569SOL     OW 1705   2.775   1.558   2.428 -0.2176  0.2974  0.0100
  569SOL    HW1 1706   2.836   1.642   2.407  3.0026  0.4182 -0.0131
  569SOL    HW2 1707   2.815   1.512   2.509 -0.8416 -0.9668 -0.1853
  570SOL     OW 1708   2.598   2.485   1.824 -0.5180  0.4736  0.4660
  570SOL    HW1 1709   2.534   2.558   1.794  0.3391  1.4688  3.4967
  570SOL    HW2 1710   2.640   2.439   1.747 -1.6226 -0.4434  1.9600
  571SOL     OW 1711   0.369   0.338   1.729 -0.0643 -0.4301  0.5029
  571SOL    HW1 1712   0.348   0.249   1.674  0.1223 -1.8077 -0.5697
  571SOL    HW2 1713   0.314   0.421   1.705  0.3119  0.8342  2.0113
  572SOL     OW 1714   3.055   2.116   0.732 -0.2731  0.6187  0.1705
  572SOL    HW1 1715   3.016   2.207   0.759  0.4665 -2.8514 -0.3990
  572SOL    HW2 1716   0.055   2.088   0.782 -0.0293 -0.0551  1.1273
  573SOL     OW 1717   1.012   0.778   3.047  0.4413  0.0360  0.6165
  573SOL    HW1 1718   1.022   0.868   3.085  0.0178 -1.4521 -1.9381
  573SOL    HW2 1719   0.922   0.737   3.074  2.4495 -1.7303  0.1941
  574SOL     OW 1720   2.908   2.873   0.197 -1.0491  0.3032  0.4364
  574SOL    HW1 1721   2.897   2.839   0.098 -0.7635  0.9347  1.9020
  574SOL    HW2 1722   2.941   2.793   0.252 -0.2026  0.9449 -0.0437
  575SOL     OW 1723   1.076   1.814   1.366  0.5546 -0.4061  0.8738
  575SOL    HW1 1724   1.094   1.777   1.271 -1.0630  0.0472  1.9470
  575SOL    HW2 1725   1.139   1.894   1.386  1.7255  2.5361 -1.7424
  576SOL     OW 1726   3.018   2.779   1.361 -0.3415 -0.5374 -0.5124
  576SOL    HW1 1727   2.972   2.869   1.382  1.4034  2.1046  1.7002
  576SOL    HW2 1728   3.038   2.732   1.448  0.5322  0.2269 -1.6746
  577SOL     OW 1729   1.999   1.586   1.774  0.0880 -0.7669  0.1605
  577SOL    HW1 1730   1.898   1.572   1.759  0.6959 -0.7177  1.0453
  577SOL    HW2 1731   2.039   1.640   1.697  1.0549 -1.1520 -0.6747
  578SOL     OW 1732   1.170   2.998   3.000  0.8347 -0.0996  0.2097
  578SOL    HW1 1733   1.096   3.036   2.936 -1.4430  1.9108 -0.5144
  578SOL    HW2 1734   1.250   3.061   3.004  1.7947 -3.9097 -0.9175
  579SOL     OW 1735   2.532   1.902   2.142  0.0110  0.3443  0.4110
  579SOL    HW1 1736   2.557   1.919   2.044 -0.0841 -0.5947 -0.8341
  579SOL    HW2 1737   2.515   1.802   2.157 -0.1299  1.3648 -0.2921
  580SOL     OW 1738   1.906   0.552   1.468 -0.2998 -0.1530  0.2326
  580SOL    HW1 1739   1.873   0.488   1.397  0.7754  2.6454 -0.3218
  580SOL    HW2 1740   1.892   0.651   1.445  0.9903 -1.8873 -1.4415
  581SOL     OW 1741   0.792   1.574   1.353  0.4294  0.0777 -0.0358
  581SOL    HW1 1742   0.800   1.515   1.272  0.7820 -1.0260 -1.5644
  581SOL    HW2 1743   0.882   1.606   1.386 -1.5930 -0.2559  1.6630
  582SOL     OW 1744   0.119   2.791   2.116 -0.0269  0.0990 -0.5884
  582SOL    HW1 1745   0.093   2.853   2.039  1.9293  2.2493  1.9822
  582SOL    HW2 1746   0.073   2.813   2.204  1.7714 -1.9584 -1.6622
  583SOL     OW 1747   1.970   1.340   1.371 -0.3133 -0.1454  0.4482
  583SOL    HW1 1748   1.923   1.399   1.439  0.1469 -1.8659 -1.0995
  583SOL    HW2 1749   2.067   1.363   1.363  0.5099  0.0099  0.1389
  584SOL     OW 1750   1.221   1.986   2.737 -0.0381  0.0435  0.5418
  584SOL    HW1 1751   1.322   1.967   2.754  1.9783  0.4552 -1.7266
  584SOL    HW2 1752   1.170   1.897   2.715  0.9741  2.3395  1.2048
  585SOL     OW 1753   0.517   2.565   0.375 -0.3675  0.2713  0.1969
  585SOL    HW1 1754   0.609   2.565   0.419  0.8034 -1.9718 -0.8500
  585SOL    HW2 1755   0.503   2.470   0.339  0.8401 -3.7807  0.0998
  586SOL     OW 1756   1.796   2.397   2.706 -0.3982  0.6925 -0.2631
  586SOL    HW1 1757   1.850   2.381   2.790 -0.9465 -0.8922 -2.4890
  586SOL    HW2 1758   1.832   2.346   2.624  1.9416 -2.5451 -1.0484
  587SOL     OW 1759   2.641   1.831   0.157  1.0617  0.0757  0.0709
  587SOL    HW1 1760   2.682   1.879   0.237 -0.9525 -0.4707  0.4381
  587SOL    HW2 1761   2.725   1.808   0.105 -0.9734 -1.7628 -2.2481
  588SOL     OW 1762   2.211   0.188   1.247 -0.1889 -0.1096  0.6641
  588SOL    HW1 1763   2.251   0.189   1.152 -0.9462  2.5679 -0.6851
  588SOL    HW2 1764   2.277   0.202   1.320 -3.6988 -0.5738 -0.7302
  589SOL     OW 1765   0.889   0.729   0.568 -0.0531 -0.4776  0.2741
  589SOL    HW1 1766   0.832   0.782   0.500  0.0863  1.0310 -2.2674
  589SOL    HW2 1767   0.942   0.650   0.525  0.6363 -3.8551  2.0022
  590SOL     OW 1768   2.530   2.205   0.315  0.5447  0.9305  0.1643
  590SOL    HW1 1769   2.599   2.266   0.284 -0.9914 -1.1741  3.4973
  590SOL    HW2 1770   2.454   2.187   0.247 -1.0620 -0.9569 -1.8146
  591SOL     OW 1771   3.041   2.423   1.360  0.6308 -0.4871  0.9229
  591SOL    HW1 1772   0.013   2.429   1.278  0.4533  2.9274 -2.0470
  591SOL    HW2 1773   3.062   2.350   1.428  0.2515  0.5645  1.4818
  592SOL     OW 1774   0.827   1.064   1.293 -1.0306  0.2420  0.6597
  592SOL    HW1 1775   0.825   1.116   1.379 -0.5645 -2.6458 -0.0950
  592SOL    HW2 1776   0.842   0.960   1.305  0.9492 -3.0259 -3.1580
  593SOL     OW 1777   0.885   1.481   1.116  0.5932  0.1684  0.0205
  593SOL    HW1 1778   0.980   1.518   1.119  0.1935 -0.7594  0.0919
  593SOL    HW2 1779   0.824   1.543   1.066 -1.0581 -2.9449 -0.8505
  594SOL     OW 1780   0.457   1.921   2.731  0.3547  0.0903  0.0176
  594SOL    HW1 1781   0.354   1.909   2.750 -1.0125  0.6058 -3.5000
  594SOL    HW2 1782   0.481   1.893   2.633  0.4906 -1.7740  2.9020
  595SOL     OW 1783   1.432   0.342   1.204  0.1496  0.0502 -0.2336
  595SOL    HW1 1784   1.498   0.346   1.126 -0.5428 -0.7999 -2.3046
  595SOL    HW2 1785   1.340   0.378   1.178 -0.5801 -0.4692  1.9710
  596SOL     OW 1786   0.202   1.182   0.511 -0.2505 -0.1325 -0.3423
  596SOL    HW1 1787   0.110   1.206   0.477  0.0354 -1.8068  1.7971
  596SOL    HW2 1788   0.225   1.084   0.504  0.9438 -0.8633 -1.6870
  597SOL     OW 1789   3.031   2.353   2.936 -0.1574 -0.3148  0.2389
  597SOL    HW1 1790   0.005   2.289   2.888 -0.4717  1.4466  1.9985
  597SOL    HW2 1791   3.027   2.326   3.031  0.8159 -1.4789 -7.9111
  598SOL     OW 1792   1.942   1.958   2.363  0.3611  0.0228  0.1314
  598SOL    HW1 1793   1.956   1.897   2.441 -0.5251 -2.0241  1.0694
  598SOL    HW2 1794   1.883   1.916   2.292 -0.4212 -0.5084 -1.6751
  599SOL     OW 1795   0.987   0.513   0.407  0.1213  0.1169 -0.2042
  599SOL    HW1 1796   0.956   0.478   0.316  1.4611  0.2016 -0.2706
  599SOL    HW2 1797   1.068   0.572   0.396 -0.9701  0.1784  1.4185
  600SOL     OW 1798   0.712   2.850   0.335 -0.5144  0.2718 -0.2165
  600SOL    HW1 1799   0.632   2.904   0.378 -1.8052  4.0402  0.2836
  600SOL    HW2 1800   0.702   2.749   0.349  0.7575 -3.4151  1.7122
  601SOL     OW 1801   0.446   0.774   1.236  0.4709  0.5673  0.4235
  601SOL    HW1 1802   0.462   0.872   1.260 -2.4126  2.2923 -0.3393
  601SOL    HW2 1803   0.533   0.717   1.236  2.5611 -0.8974  0.1748
  602SOL     OW 1804   0.205   2.879   0.980 -0.1212 -0.1868  0.5030
  602SOL    HW1 1805   0.153   2.885   1.066  0.9864 -0.3404 -2.1661
  602SOL    HW2 1806   0.214   2.776   0.959  0.0053 -1.9931 -0.5005
  603SOL     OW 1807   1.127   2.720   2.397 -0.4638  0.1722 -0.4983
  603SOL    HW1 1808   1.097   2.775   2.314  1.0327 -2.6721 -1.1969
  603SOL    HW2 1809   1.210   2.659   2.374  5.0567 -1.6164  0.0093
  604SOL     OW 1810   0.823   2.867   2.568  0.0051 -0.7641  0.2512
  604SOL    HW1 1811   0.769   2.783   2.582  0.7261  0.1824  0.3942
  604SOL    HW2 1812   0.911   2.879   2.616  1.1750  2.6534 -1.0028
  605SOL     OW 1813   1.348   0.721   1.948  0.1157  0.9068 -0.2474
  605SOL    HW1 1814   1.375   0.636   1.901  1.2054 -1.1390 -0.4148
  605SOL    HW2 1815   1.343   0.717   2.050  1.8091 -2.0225  0.5895
  606SOL     OW 1816   2.383   0.224   2.787 -0.1920 -0.1570 -0.7009
  606SOL    HW1 1817   2.442   0.306   2.806 -1.5020 -0.3976 -0.0446
  606SOL    HW2 1818   2.287   0.247   2.769  4.2724 -1.7591  0.3568
  607SOL     OW 1819   0.586   0.800   0.806 -0.1012  0.0443 -0.3976
  607SOL    HW1 1820   0.620   0.896   0.836 -2.0055  2.9178  1.0693
  607SOL    HW2 1821   0.526   0.760   0.879 -1.2398  0.2504 -0.5754
  608SOL     OW 1822   0.173   2.403   2.185 -0.7821 -0.0499  0.3563
  608SOL    HW1 1823   0.272   2.410   2.156  1.4018 -2.2541  1.2283
  608SOL    HW2 1824   0.116   2.454   2.117 -1.3690 -1.3225  0.4925
  609SOL     OW 1825   1.473   0.616   2.959  0.1184 -0.3282  0.0431
  609SOL    HW1 1826   1.530   0.556   3.017 -1.1481  3.1397 -2.2217
  609SOL    HW2 1827   1.378   0.624   2.992  0.8780 -0.6291 -1.9471
  610SOL     OW 1828   0.714   2.907   1.184 -0.2449 -0.2722 -0.5027
  610SOL    HW1 1829   0.649   2.933   1.109  0.7503  0.0821  1.3135
  610SOL    HW2 1830   0.808   2.887   1.149  2.4605  0.9165 -0.6063
  611SOL     OW 1831   1.557   0.855   0.449  0.2022  0.2698 -0.2133
  611SOL    HW1 1832   1.612   0.915   0.389  1.4333  0.5192 -1.0666
  611SOL    HW2 1833   1.613   0.775   0.475  0.8564 -0.3397 -0.5248
  612SOL     OW 1834   1.640   0.739   2.792  0.2494  0.1390 -0.2118
  612SOL    HW1 1835   1.597   0.745   2.699 -1.8100  1.3983  0.0595
  612SOL    HW2 1836   1.572   0.719   2.865  0.0100 -0.5158 -1.2337
  613SOL     OW 1837   2.276   0.872   0.964  0.1596  0.7130 -0.1047
  613SOL    HW1 1838   2.191   0.812   0.953  2.2171 -0.3488  1.0128
  613SOL    HW2 1839   2.319   0.885   0.870 -2.5421  1.9633 -0.7331
  614SOL     OW 1840   2.491   0.285   2.123  0.3544 -0.0715 -0.1911
  614SOL    HW1 1841   2.513   0.380   2.158 -0.5683  2.7860  1.1189
  614SOL    HW2 1842   2.505   0.282   2.026 -1.7663  0.8459  2.9132
  615SOL     OW 1843   0.828   2.014   1.028 -0.0775 -0.4000 -0.4198
  615SOL    HW1 1844   0.753   1.956   1.064  0.0777  1.1427  2.4007
  615SOL    HW2 1845   0.809   2.112   1.054  0.9118  1.7064  1.0094
  616SOL     OW 1846   1.692   1.185   2.604 -0.4516  0.1715  0.7659
  616SOL    HW1 1847   1.636   1.175   2.521 -0.4651  2.9927  0.4171
  616SOL    HW2 1848   1.738   1.275   2.597 -0.7409 -0.7857  1.0535
  617SOL     OW 1849   1.481   3.075   0.099  0.2373 -0.7922 -0.0005
  617SOL    HW1 1850   1.533   2.996   0.067 -1.0738  0.0500  0.0404
  617SOL    HW2 1851   1.402   3.047   0.157  0.3782  1.1742  0.0889
  618SOL     OW 1852   1.650   1.676   2.387  0.0725  0.5472 -0.3517
  618SOL    HW1 1853   1.622   1.727   2.305 -0.6247  0.0307  0.2455
  618SOL    HW2 1854   1.703   1.594   2.353 -0.3705 -0.3202 -1.0402
  619SOL     OW 1855   2.498   1.505   1.071  0.1415  0.4059  0.0052
  619SOL    HW1 1856   2.531   1.579   1.012  0.3792 -3.3248  1.1280
  619SOL    HW2 1857   2.560   1.424   1.056  1.0865 -0.0375 -0.0613
  620SOL     OW 1858   2.079   2.831   2.851 -0.6331  0.0576  0.0471
  620SOL    HW1 1859   2.122   2.923   2.864  1.5461  3.0702  0.8702
  620SOL    HW2 1860   2.012   2.834   2.773  1.5320 -0.5330  2.6062
  621SOL     OW 1861   2.684   1.372   0.679  0.4428  0.2029 -0.4456
  621SOL    HW1 1862   2.629   1.411   0.605 -0.9409 -0.4169  0.1572
  621SOL    HW2 1863   2.621   1.323   0.743 -1.0671  0.8940  3.9815
  622SOL     OW 1864   0.980   2.482   2.488 -0.4401 -0.5137  0.7546
  622SOL    HW1 1865   1.013   2.404   2.426  3.0892  0.5496 -1.2846
  622SOL    HW2 1866   0.998   2.571   2.448 -1.1304 -0.6835  0.8377
  623SOL     OW 1867   0.310   2.432   0.030  0.0767 -1.2091  0.3316
  623SOL    HW1 1868   0.360   2.445   3.028 -1.4527  0.6905 -1.5579
  623SOL    HW2 1869   0.240   2.359   0.020 -0.7174  0.2531  1.6436
  624SOL     OW 1870   0.411   2.708   2.965 -0.3763 -0.0733 -0.2841
  624SOL    HW1 1871   0.308   2.719   2.952  0.3219  0.1439  2.9366
  624SOL    HW2 1872   0.462   2.790   2.942 -0.1434 -0.7558  2.5008
  625SOL     OW 1873   0.884   2.231   2.867 -0.3799  0.2776  0.3861
  625SOL    HW1 1874   0.869   2.248   2.767 -0.7810  2.3272 -0.7069
  625SOL    HW2 1875   0.972   2.181   2.887  2.4762 -2.6378 -1.6314
  626SOL     OW 1876   2.808   0.835   0.252  0.1771  0.2928 -0.1681
  626SOL    HW1 1877   2.764   0.920   0.205 -0.8771  2.5784  0.0460
  626SOL    HW2 1878   2.839   0.761   0.190  0.4352 -1.9080  0.0076
  627SOL     OW 1879   1.816   1.682   0.053 -0.4117 -0.7588 -0.2578
  627SOL    HW1 1880   1.862   1.596   0.030 -0.4506 -1.1712 -0.2342
  627SOL    HW2 1881   1.752   1.712   3.064  1.2883 -1.9693 -0.5704
  628SOL     OW 1882   1.189   1.301   2.603  0.1811  0.2250 -0.3435
  628SOL    HW1 1883   1.213   1.257   2.693  0.9610  1.8845  1.6220
  628SOL    HW2 1884   1.277   1.323   2.549  0.1996  0.6252 -1.9600
  629SOL     OW 1885   0.621   3.046   1.699 -0.1275  0.2681 -0.2182
  629SOL    HW1 1886   0.576   3.065   1.612 -0.5397 -1.5447  1.4243
  629SOL    HW2 1887   0.690   0.036   1.721  3.0134 -0.3663  1.1205
  630SOL     OW 1888   2.188   1.126   1.920  0.1242 -0.1881 -0.1555
  630SOL    HW1 1889   2.222   1.202   1.983  0.1553  1.0598  0.7762
  630SOL    HW2 1890   2.182   1.041   1.971 -1.4371 -2.8157 -3.2826
  631SOL     OW 1891   1.882   0.239   0.677 -0.0655  0.1510 -0.0177
  631SOL    HW1 1892   1.860   0.323   0.733  2.9394  0.3798  2.9103
  631SOL    HW2 1893   1.800   0.183   0.651  1.2563  0.6470  0.2316
  632SOL     OW 1894   3.045   0.621   1.789 -0.7540 -0.2953  0.0846
  632SOL    HW1 1895   3.014   0.653   1.696  1.7172 -1.3097 -0.5614
  632SOL    HW2 1896   3.021   0.525   1.805 -0.1223 -0.4574 -0.7970
  633SOL     OW 1897   0.804   0.374   3.041 -0.0372  0.5325 -0.7730
  633SOL    HW1 1898   0.761   0.421   2.964  3.8909 -0.1594 -0.6707
  633SOL    HW2 1899   0.808   0.271   3.027 -0.8762 -1.4524 -0.7092
  634SOL     OW 1900   0.629   2.547   2.902 -0.4662 -0.1533 -0.0364
  634SOL    HW1 1901   0.716   2.576   2.948  0.4389 -0.4091 -1.7225
  634SOL    HW2 1902   0.545   2.601   2.921 -0.3485 -0.0810  1.5388
  635SOL     OW 1903   0.150   0.619   0.675 -0.0923  0.6147 -0.5276
  635SOL    HW1 1904   0.128   0.572   0.587 -1.8768 -1.2108 -1.7288
  635SOL    HW2 1905   0.225   0.686   0.660  2.2473 -0.1778 -2.5072
  636SOL     OW 1906   0.372   1.278   3.081 -0.1958 -0.3666 -0.5295
  636SOL    HW1 1907   0.461   1.265   0.045  0.1244  0.9754 -1.2196
  636SOL    HW2 1908   0.320   1.361   0.032 -1.6157  1.8227 -0.8864
  637SOL     OW 1909   0.238   2.612   0.510 -0.1817 -0.9933 -0.4025
  637SOL    HW1 1910   0.318   2.590   0.450 -0.6322  0.5726  0.7875
  637SOL    HW2 1911   0.174   2.679   0.467  0.3592 -1.2780  2.0608
  638SOL     OW 1912   2.881   2.288   0.494 -0.1896  0.0325 -0.8567
  638SOL    HW1 1913   2.879   2.196   0.539  1.8477 -0.0006 -0.5385
  638SOL    HW2 1914   2.831   2.353   0.556  0.0876 -1.6078 -0.5248
  639SOL     OW 1915   1.621   0.867   0.161 -0.0590 -0.0763 -0.6387
  639SOL    HW1 1916   1.568   0.805   0.217  2.0389 -1.0949  0.9083
  639SOL    HW2 1917   1.594   0.963   0.186  0.6383  0.0882 -3.5664
  640SOL     OW 1918   1.878   2.303   1.747 -0.2006 -0.3773  0.0341
  640SOL    HW1 1919   1.888   2.289   1.645  2.1929  0.9891  0.4622
  640SOL    HW2 1920   1.810   2.237   1.779  0.5803 -0.5627 -0.4698
  641SOL     OW 1921   3.050   2.959   0.650  0.0753 -0.0659 -0.6182
  641SOL    HW1 1922   3.021   3.051   0.683 -2.7061  1.5837 -1.4629
  641SOL    HW2 1923   2.989   2.880   0.678  1.0005 -1.6407  0.4032
  642SOL     OW 1924   1.069   0.433   1.836 -0.0815 -0.1710 -0.1835
  642SOL    HW1 1925   1.043   0.495   1.756 -0.0216 -1.5258  1.7814
  642SOL    HW2 1926   1.143   0.364   1.817  0.7654 -2.3772  1.1778
  643SOL     OW 1927   0.821   2.302   2.619 -0.3065 -0.3443  0.5442
  643SOL    HW1 1928   0.725   2.299   2.580 -1.4943  1.3653 -1.9306
  643SOL    HW2 1929   0.878   2.367   2.567 -3.8335 -0.5498  2.4773
  644SOL     OW 1930   1.300   2.581   0.451  0.4603 -0.0475 -0.2503
  644SOL    HW1 1931   1.325   2.550   0.539 -0.2445  0.8258 -1.9721
  644SOL    HW2 1932   1.222   2.528   0.416  2.1288 -0.2372  1.3567
  645SOL     OW 1933   1.602   1.207   1.858  0.4123 -0.1852 -0.1849
  645SOL    HW1 1934   1.699   1.174   1.832  4.9686 -0.1722 -0.2535
  645SOL    HW2 1935   1.537   1.237   1.777 -0.7949  0.3445  0.4558
  646SOL     OW 1936   0.321   0.663   0.065  0.0128  0.4739  0.2398
  646SOL    HW1 1937   0.324   0.597   0.147 -1.9901 -3.9135  1.3117
  646SOL    HW2 1938   0.416   0.656   0.025  0.9724 -2.7356 -0.9395
  647SOL     OW 1939   1.118   0.300   0.595  0.0842  0.3103  0.2481
  647SOL    HW1 1940   1.071   0.360   0.527  0.0091 -2.2323 -0.2695
  647SOL    HW2 1941   1.146   0.210   0.555 -0.7702 -1.4362 -0.2246
  648SOL     OW 1942   2.270   2.837   1.274  0.4344 -0.2508 -0.1190
  648SOL    HW1 1943   2.356   2.860   1.226  1.0393  1.5282  0.6214
  648SOL    HW2 1944   2.215   2.763   1.244  1.4778  2.8337  4.1484
  649SOL     OW 1945   0.536   1.856   3.085  0.0912 -0.3675  0.2164
  649SOL    HW1 1946   0.549   1.943   3.031  1.3075  0.8786 -0.3048
  649SOL    HW2 1947   0.538   1.876   0.101  1.3601  0.8587  0.3135
  650SOL     OW 1948   2.094   2.010   1.852  0.4750 -0.3078  0.6142
  650SOL    HW1 1949   2.102   2.111   1.868 -0.9268 -0.3956  1.9421
  650SOL    HW2 1950   2.046   1.990   1.763  1.9860 -1.8833 -2.0621
  651SOL     OW 1951   0.199   3.019   2.737  0.4417 -0.2522  0.0726
  651SOL    HW1 1952   0.249   2.933   2.708  0.8065  3.0210  0.6193
  651SOL    HW2 1953   0.133   3.048   2.664 -1.6668  0.3633 -0.7606
  652SOL     OW 1954   2.959   1.726   0.576 -0.0466 -0.5918 -0.5463
  652SOL    HW1 1955   2.901   1.680   0.645  0.6560 -0.1182 -1.7382
  652SOL    HW2 1956   3.056   1.727   0.604  0.1541  1.8737 -1.0132
  653SOL     OW 1957   3.050   0.408   1.357 -0.6774  0.7058 -0.3191
  653SOL    HW1 1958   3.083   0.453   1.270 -0.0135  0.8606 -3.2359
  653SOL    HW2 1959   0.050   0.370   1.398  0.5259  0.4565 -3.3849
  654SOL     OW 1960   0.769   0.096   3.011  0.1830  0.0227  0.2876
  654SOL    HW1 1961   0.841   0.065   3.078 -0.1454 -2.6903  2.2615
  654SOL    HW2 1962   0.674   0.082   3.050 -4.3993 -2.3045 -1.5153
  655SOL     OW 1963   0.461   2.938   1.072  0.0855  0.7467 -0.0335
  655SOL    HW1 1964   0.432   3.017   1.124  0.8740 -1.0780 -1.8002
  655SOL    HW2 1965   0.382   2.911   1.011 -2.0158 -1.3266  1.8671
  656SOL     OW 1966   0.403   2.803   2.125  0.0212  0.2790 -0.3459
  656SOL    HW1 1967   0.451   2.889   2.149 -1.0123  2.1431  1.3597
  656SOL    HW2 1968   0.299   2.821   2.133 -0.1691  1.4946 -0.4886
  657SOL     OW 1969   2.441   0.579   2.725  0.4534  0.6826  0.0195
  657SOL    HW1 1970   2.527   0.569   2.775 -4.7340 -0.3172  2.1525
  657SOL    HW2 1971   2.456   0.582   2.623  0.9413 -2.6775  0.4485
  658SOL     OW 1972   1.940   1.701   1.142 -0.3644  0.4992 -0.0515
  658SOL    HW1 1973   1.953   1.731   1.045  1.3760 -0.1876 -1.1123
  658SOL    HW2 1974   2.009   1.749   1.203 -0.1303 -0.0364  1.4494
  659SOL     OW 1975   2.380   2.363   2.814 -0.6044  0.0783  0.0230
  659SOL    HW1 1976   2.422   2.406   2.898 -1.7646 -0.8889 -2.1597
  659SOL    HW2 1977   2.447   2.304   2.775  0.1567  3.8892 -1.9629
  660SOL     OW 1978   1.241   0.621   0.423 -0.4647  0.0905 -0.0781
  660SOL    HW1 1979   1.260   0.711   0.471  1.5176  1.4871 -0.8078
  660SOL    HW2 1980   1.325   0.568   0.408  1.2528 -0.1077 -0.5977
  661SOL     OW 1981   2.449   2.929   0.615  0.7077 -0.3925  0.2974
  661SOL    HW1 1982   2.375   2.881   0.574  2.1709 -0.6941  3.5283
  661SOL    HW2 1983   2.420   3.028   0.627  2.6114  0.5379  0.0199
  662SOL     OW 1984   0.856   0.092   1.256 -0.3762  0.4480  0.5220
  662SOL    HW1 1985   0.777   0.103   1.198  0.1554  3.9984  2.8494
  662SOL    HW2 1986   0.941   0.062   1.201  5.7601 -3.4384  1.2215
  663SOL     OW 1987   1.600   2.649   2.455  0.3057  0.1514 -0.5993
  663SOL    HW1 1988   1.611   2.616   2.360 -3.6726 -1.0405 -1.0120
  663SOL    HW2 1989   1.528   2.595   2.499 -0.5874 -1.5703 -1.5718
  664SOL     OW 1990   0.558   2.030   1.518 -0.0481 -0.1893  0.0191
  664SOL    HW1 1991   0.511   2.094   1.456 -0.2873 -0.0858  0.3514
  664SOL    HW2 1992   0.642   2.074   1.558  1.4668  2.4182 -0.9009
  665SOL     OW 1993   0.759   2.162   1.675 -0.6173 -0.2486 -0.6708
  665SOL    HW1 1994   0.793   2.090   1.736 -0.3240 -1.0604  0.7918
  665SOL    HW2 1995   0.813   2.162   1.589 -0.4771 -1.2602 -1.3120
  666SOL     OW 1996   0.145   2.782   3.021  0.3873  0.1849 -0.0711
  666SOL    HW1 1997   0.094   2.857   3.063 -0.4454  0.3743  0.7097
  666SOL    HW2 1998   0.084   2.730   2.959 -1.8683  1.7117  2.3836
  667SOL     OW 1999   1.435   1.594   1.601  0.0195  0.2068  0.0394
  667SOL    HW1 2000   1.332   1.592   1.586 -2.0000  0.3636  1.1065
  667SOL    HW2 2001   1.480   1.613   1.510 -0.5437 -1.3300 -1.0288
  668SOL     OW 2002   1.421   0.229   2.142 -0.3957 -0.3280 -0.0900
  668SOL    HW1 2003   1.319   0.216   2.121  0.5779  0.9988 -1.8006
  668SOL    HW2 2004   1.447   0.330   2.137 -2.2224 -0.8467 -1.6503
  669SOL     OW 2005   2.561   2.267   1.421 -0.0248  0.0392 -0.0526
  669SOL    HW1 2006   2.473   2.211   1.417  0.8406 -0.6453  0.3497
  669SOL    HW2 2007   2.536   2.362   1.437  0.3918 -1.6987 -0.3636
  670SOL     OW 2008   1.816   2.128   0.114 -0.2523  0.5654  0.1991
  670SOL    HW1 2009   1.824   2.113   0.014 -0.3631  0.8878 -1.5588
  670SOL    HW2 2010   1.895   2.182   0.144 -0.5998  0.9280  0.4217
  671SOL     OW 2011   1.310   0.947   0.999  0.4328  0.1550 -0.2982
  671SOL    HW1 2012   1.308   0.929   1.100  3.3814  1.6931 -1.6982
  671SOL    HW2 2013   1.291   1.044   0.984  2.1231  0.6649  1.8235
  672SOL     OW 2014   2.816   1.065   2.479 -0.7594 -0.2334 -0.9253
  672SOL    HW1 2015   2.766   1.148   2.489 -0.8108 -0.2691  1.8380
  672SOL    HW2 2016   2.903   1.076   2.429 -0.2606  1.4398  0.4907
  673SOL     OW 2017   0.022   1.823   1.395  0.0333  0.0862  0.0766
  673SOL    HW1 2018   3.047   1.798   1.470  3.4124  0.5180  1.0828
  673SOL    HW2 2019   0.108   1.861   1.440  3.0152  0.5922 -0.2420
  674SOL     OW 2020   0.838   2.551   2.180  0.0514  0.0046 -0.3352
  674SOL    HW1 2021   0.809   2.553   2.082  0.6491  1.7468 -0.5204
  674SOL    HW2 2022   0.766   2.594   2.239 -1.4094 -2.2998 -0.0201
  675SOL     OW 2023   0.825   1.143   1.565  0.3732 -0.3945  0.1220
  675SOL    HW1 2024   0.749   1.071   1.563 -0.1315 -0.2805 -0.9391
  675SOL    HW2 2025   0.812   1.198   1.649  1.0944  1.8921  0.6406
  676SOL     OW 2026   2.300   0.414   0.759  0.2601 -0.5969  0.1411
  676SOL    HW1 2027   2.319   0.430   0.657  0.2808  2.2155 -0.6226
  676SOL    HW2 2028   2.368   0.460   0.816 -0.0491  1.3287  1.3054
  677SOL     OW 2029   2.346   1.569   3.035  0.2683  0.6144 -0.3569
  677SOL    HW1 2030   2.335   1.468   3.026 -0.1158  1.2559 -1.4310
  677SOL    HW2 2031   2.415   1.602   2.965 -1.6856 -0.4589  1.1955
  678SOL     OW 2032   0.236   0.364   1.467 -0.3473 -0.0096  0.7393
  678SOL    HW1 2033   0.279   0.290   1.525 -2.2887 -0.7552 -0.0200
  678SOL    HW2 2034   0.221   0.445   1.525  2.1174 -2.3596  0.5209
  679SOL     OW 2035   2.399   0.410   0.238 -0.2142  0.0998 -0.2025
  679SOL    HW1 2036   2.486   0.463   0.250 -0.1895  1.7708 -1.1901
  679SOL    HW2 2037   2.373   0.400   0.137 -0.7033  0.9356  0.1292
  680SOL     OW 2038   0.079   2.188   1.872  0.2877 -0.1000 -0.0828
  680SOL    HW1 2039   0.067   2.090   1.851  1.3926 -0.3278 -3.0196
  680SOL    HW2 2040   0.073   2.205   1.973 -1.4418  3.6362  1.1879
  681SOL     OW 2041   2.201   2.076   1.224  0.0991 -0.0379 -0.5485
  681SOL    HW1 2042   2.111   2.115   1.197  1.4467 -0.4104 -2.8026
  681SOL    HW2 2043   2.278   2.133   1.188 -0.5665  1.2325 -0.1234
  682SOL     OW 2044   2.921   2.041   2.099 -0.3101  0.2448  0.0057
  682SOL    HW1 2045   2.936   1.944   2.058  0.1540 -7.5969 -1.5987
  682SOL    HW2 2046   3.007   2.065   2.148 -0.0775  2.8904  0.5599
  683SOL     OW 2047   3.010   2.146   1.252 -0.3024 -0.1354  0.7190
  683SOL    HW1 2048   2.977   2.212   1.178 -2.9207  1.0722  1.0734
  683SOL    HW2 2049   2.936   2.076   1.263 -0.5665  0.8312  2.3894
  684SOL     OW 2050   2.586   0.886   2.515  0.1202  0.1389  0.0926
  684SOL    HW1 2051   2.656   0.950   2.479 -0.8594 -1.7831  0.3716
  684SOL    HW2 2052   2.621   0.835   2.594  0.2860  0.1922 -2.3132
  685SOL     OW 2053   1.381   1.220   0.383 -0.3515 -0.1142  0.2890
  685SOL    HW1 2054   1.384   1.182   0.476 -2.5939  2.3182 -1.9142
  685SOL    HW2 2055   1.358   1.317   0.389  1.8989 -0.6553 -0.1041
  686SOL     OW 2056   0.373   0.112   0.512  0.8240 -0.2200  0.8465
  686SOL    HW1 2057   0.314   0.148   0.440 -0.7148 -1.0238 -2.0294
  686SOL    HW2 2058   0.343   0.136   0.605  2.5239 -0.8165  0.3708
  687SOL     OW 2059   1.410   1.332   2.464  0.1786 -0.4454 -0.0641
  687SOL    HW1 2060   1.402   1.436   2.462  0.9853 -0.5324  0.3752
  687SOL    HW2 2061   1.497   1.311   2.413 -1.3592 -2.0321 -1.2279
  688SOL     OW 2062   1.450   1.291   1.644  0.3894  0.2302 -0.0693
  688SOL    HW1 2063   1.453   1.393   1.617  2.0854  0.7754  1.3329
  688SOL    HW2 2064   1.352   1.256   1.650 -0.0163 -2.8989  1.6815
  689SOL     OW 2065   2.098   3.048   1.340  0.7833 -0.4530 -0.1736
  689SOL    HW1 2066   2.138   0.053   1.305 -2.2558  1.4414 -3.1973
  689SOL    HW2 2067   2.154   2.966   1.311  0.3294  0.6052 -1.9127
  690SOL     OW 2068   3.075   1.166   1.175  0.3573  0.4110  0.0473
  690SOL    HW1 2069   3.028   1.077   1.149  0.2135 -0.1886 -0.5649
  690SOL    HW2 2070   0.090   1.146   1.177  2.2474  0.7661  0.6078
  691SOL     OW 2071   0.490   2.260   1.154  0.2468 -0.1256  0.3060
  691SOL    HW1 2072   0.508   2.292   1.055 -1.5255 -2.8965 -2.4249
  691SOL    HW2 2073   0.413   2.309   1.196 -0.4037 -0.2206 -3.8040
  692SOL     OW 2074   2.282   0.730   1.802 -0.1295  0.5724 -0.3012
  692SOL    HW1 2075   2.274   0.810   1.861  2.0215 -1.6765  0.5580
  692SOL    HW2 2076   2.378   0.689   1.811 -0.0046 -2.5777 -0.7779
  693SOL     OW 2077   0.460   1.797   2.092 -0.2573 -0.1455 -0.5417
  693SOL    HW1 2078   0.511   1.717   2.055  0.7598 -1.4198 -0.2736
  693SOL    HW2 2079   0.456   1.799   2.195 -2.8540  0.0074  1.1894
  694SOL     OW 2080   1.567   1.385   1.249 -0.0379 -0.1211  0.0553
  694SOL    HW1 2081   1.609   1.308   1.296  0.8960  2.0723 -3.1697
  694SOL    HW2 2082   1.480   1.411   1.294 -0.8566 -0.4903  0.7430
  695SOL     OW 2083   0.809   1.342   0.643  0.3223 -0.6801 -0.1048
  695SOL    HW1 2084   0.724   1.331   0.700 -1.0765  1.2916 -0.0855
  695SOL    HW2 2085   0.792   1.302   0.550  0.5343 -0.9971 -1.7445
  696SOL     OW 2086   1.035   2.925   0.245 -0.8528  0.2103 -0.2942
  696SOL    HW1 2087   0.995   2.898   0.332 -0.1533 -2.1302 -0.9010
  696SOL    HW2 2088   1.094   2.852   0.209  1.8053 -1.6975  1.2649
  697SOL     OW 2089   1.683   0.412   1.819  0.2096  0.2660 -0.1353
  697SOL    HW1 2090   1.771   0.430   1.774 -2.5442  0.7699  0.1593
  697SOL    HW2 2091   1.682   0.311   1.829 -2.4661 -0.1531 -0.1868
  698SOL     OW 2092   1.746   1.467   2.225  0.3555 -0.4612 -0.4167
  698SOL    HW1 2093   1.819   1.501   2.160 -1.2011 -1.0390 -1.4996
  698SOL    HW2 2094   1.654   1.478   2.183  0.0169  0.3119 -0.7898
  699SOL     OW 2095   2.693   0.411   1.783  0.5488 -0.0795 -0.8193
  699SOL    HW1 2096   2.654   0.320   1.789  1.0336  0.4832 -0.4967
  699SOL    HW2 2097   2.769   0.419   1.712  1.8220  0.6960 -1.5548
  700SOL     OW 2098   1.225   2.153   0.557 -0.4919  0.1305  0.0187
  700SOL    HW1 2099   1.283   2.131   0.472  0.7783  0.0133 -1.5793
  700SOL    HW2 2100   1.166   2.073   0.584  0.1578 -0.8024  1.7109
  701SOL     OW 2101   2.273   3.004   2.579 -0.0160 -0.6331 -0.0192
  701SOL    HW1 2102   2.266   3.016   2.685 -0.8891 -0.9906  1.4425
  701SOL    HW2 2103   2.362   3.023   2.532  2.7457  0.3111 -1.1807
  702SOL     OW 2104   0.805   3.038   0.749  0.4112  0.1495  0.2278
  702SOL    HW1 2105   0.721   2.981   0.762  0.4462  0.0776  1.1109
  702SOL    HW2 2106   0.798   0.029   0.684  1.9377 -2.2629  0.1865
  703SOL     OW 2107   2.261   0.003   2.244  0.3650  0.5552  0.4061
  703SOL    HW1 2108   2.189   0.049   2.188  1.5054  0.1894  1.5103
  703SOL    HW2 2109   2.299   0.073   2.301 -1.4131 -0.9431  0.4858
  704SOL     OW 2110   2.723   1.986   0.366 -0.2257 -0.3015  0.3115
  704SOL    HW1 2111   2.634   2.032   0.387 -0.7362 -3.8241 -0.6459
  704SOL    HW2 2112   2.791   1.974   0.439 -0.7092  0.7379 -3.6127
  705SOL     OW 2113   2.627   2.770   2.745  0.6402  1.0636  0.3811
  705SOL    HW1 2114   2.677   2.856   2.728 -0.3315  0.5716 -1.3161
  705SOL    HW2 2115   2.586   2.734   2.662 -0.0321 -0.3675 -1.6270
  706SOL     OW 2116   2.696   0.170   1.173  0.4519 -0.5097 -0.3801
  706SOL    HW1 2117   2.610   0.169   1.227 -0.0022 -0.0839  2.2781
  706SOL    HW2 2118   2.703   0.260   1.120  0.7466  1.1399  0.8488
  707SOL     OW 2119   0.888   3.054   2.359  0.4071 -0.2135  0.0842
  707SOL    HW1 2120   0.891   3.007   2.451  1.4792  1.0483  0.3442
  707SOL    HW2 2121   0.829   0.051   2.361 -0.6526  1.6885 -0.7686
  708SOL     OW 2122   0.237   2.306   1.697 -0.0452  0.4218 -0.4588
  708SOL    HW1 2123   0.174   2.333   1.623 -0.5301  0.6492  1.9270
  708SOL    HW2 2124   0.180   2.260   1.768  1.2971  0.7395 -0.2073
  709SOL     OW 2125   1.435   0.299   1.594  0.0553 -0.2426 -0.4724
  709SOL    HW1 2126   1.502   0.375   1.615  1.4211  3.4776 -1.1340
  709SOL    HW2 2127   1.471   0.239   1.518  0.3683 -0.9293  1.3705
  710SOL     OW 2128   0.878   2.870   2.923  0.2829 -0.6554  0.1120
  710SOL    HW1 2129   0.821   2.879   3.010  0.9688 -1.0871 -0.1810
  710SOL    HW2 2130   0.862   2.953   2.863 -1.6051  1.9607  0.7779
  711SOL     OW 2131   1.123   2.091   2.495 -0.1373  0.0252  0.5845
  711SOL    HW1 2132   1.167   2.092   2.584  1.6498  1.0733 -3.1222
  711SOL    HW2 2133   1.021   2.069   2.504  0.1103  0.3850 -0.9947
  712SOL     OW 2134   1.074   2.040   2.965 -0.1051 -0.0791 -0.5553
  712SOL    HW1 2135   1.117   2.017   2.876  0.3832  0.0517 -0.3210
  712SOL    HW2 2136   1.145   2.021   3.038 -2.8180 -0.8352  0.1541
  713SOL     OW 2137   1.910   1.102   2.139 -0.2661 -0.3419  0.2549
  713SOL    HW1 2138   1.853   1.020   2.146  1.1290 -1.0445  1.0305
  713SOL    HW2 2139   1.986   1.103   2.205  0.7192 -0.2207  1.0037
  714SOL     OW 2140   0.657   1.400   1.912 -0.3303 -0.5379 -0.5758
  714SOL    HW1 2141   0.737   1.351   1.869  3.5092  0.5493  0.9025
  714SOL    HW2 2142   0.571   1.389   1.862 -0.1404 -2.1748  0.6892
  715SOL     OW 2143   2.632   0.549   0.291 -0.4325  0.3509 -0.1428
  715SOL    HW1 2144   2.707   0.508   0.355 -2.1536  2.2921 -1.9735
  715SOL    HW2 2145   2.606   0.642   0.319 -0.1553 -2.3664  0.4295
  716SOL     OW 2146   2.720   2.307   1.652  0.4158 -0.3015  0.7533
  716SOL    HW1 2147   2.655   2.248   1.596 -2.0285  0.5907 -3.6468
  716SOL    HW2 2148   2.781   2.253   1.710 -2.1300  2.3089  2.7090
  717SOL     OW 2149   2.222   1.081   1.166  0.4112  0.1748  0.2304
  717SOL    HW1 2150   2.285   1.154   1.154  0.0903 -0.8706  0.9508
  717SOL    HW2 2151   2.219   1.014   1.082 -1.4498 -1.5857  0.5663
  718SOL     OW 2152   1.162   1.561   1.533 -0.1232 -0.0649  0.3167
  718SOL    HW1 2153   1.112   1.526   1.613 -0.5037  0.5208  1.6485
  718SOL    HW2 2154   1.127   1.657   1.509 -3.2734  4.5958 -1.1337
  719SOL     OW 2155   2.916   0.659   0.051 -0.0695  0.2409  0.1476
  719SOL    HW1 2156   2.954   0.714   3.057  0.9910  2.4067  2.6459
  719SOL    HW2 2157   2.991   0.598   0.087  1.3025 -0.7392  0.8026
  720SOL     OW 2158   0.858   0.379   0.843 -0.1287  0.4662  0.0634
  720SOL    HW1 2159   0.932   0.344   0.778  1.2464 -1.8169 -0.9481
  720SOL    HW2 2160   0.779   0.413   0.790  1.2613  3.2323 -1.0470
  721SOL     OW 2161   2.582   0.812   0.801 -0.0588  0.3394  0.3472
  721SOL    HW1 2162   2.495   0.829   0.751 -2.0330 -2.4729  2.7026
  721SOL    HW2 2163   2.660   0.784   0.738  0.6786  1.8978  0.2064
  722SOL     OW 2164   0.593   2.265   2.489  0.5392  0.0240 -0.1621
  722SOL    HW1 2165   0.527   2.232   2.563  0.6083 -1.3310  0.0166
  722SOL    HW2 2166   0.573   2.359   2.453 -1.1234  1.9889 -2.1856
  723SOL     OW 2167   1.838   2.995   0.957  0.3187 -0.4376 -0.0526
  723SOL    HW1 2168   1.784   3.081   0.941 -0.6096  0.3705  1.1604
  723SOL    HW2 2169   1.864   2.989   1.058  1.4343 -2.0034  2.7308
  724SOL     OW 2170   1.246   1.813   1.882  0.5577  0.3091  0.1506
  724SOL    HW1 2171   1.250   1.907   1.921 -1.1769 -0.8848 -1.7506
  724SOL    HW2 2172   1.177   1.760   1.944 -1.9652  1.2627  1.4188
  725SOL     OW 2173   1.271   2.680   1.265  0.1377 -0.3852  0.1432
  725SOL    HW1 2174   1.233   2.766   1.312  0.8708  1.9789  0.7521
  725SOL    HW2 2175   1.317   2.701   1.175  1.2502 -1.7829  2.0926
  726SOL     OW 2176   2.101   2.698   0.176 -0.0509  0.5871  0.3794
  726SOL    HW1 2177   2.035   2.706   0.098 -2.1516 -0.6263  0.6237
  726SOL    HW2 2178   2.048   2.665   0.256  2.3466 -2.4926 -2.0368
  727SOL     OW 2179   1.415   1.692   1.062  0.2258 -0.4288 -0.1153
  727SOL    HW1 2180   1.514   1.676   1.081 -0.9256 -0.1014 -4.1021
  727SOL    HW2 2181   1.364   1.605   1.061  0.2234  0.2631  0.3115
  728SOL     OW 2182   2.163   2.782   2.037  0.3882 -0.5111  0.0434
  728SOL    HW1 2183   2.119   2.839   2.107  1.1539 -1.8408 -1.0792
  728SOL    HW2 2184   2.263   2.793   2.054  0.3104 -0.3337 -0.6279
  729SOL     OW 2185   1.967   2.428   1.416 -0.5309  0.3902  0.0923
  729SOL    HW1 2186   1.877   2.466   1.440  2.6869 -1.7263 -0.6608
  729SOL    HW2 2187   2.035   2.467   1.485  0.0409  4.4003  2.6366
  730SOL     OW 2188   1.850   0.798   2.441 -0.2777 -0.1065  0.5306
  730SOL    HW1 2189   1.760   0.836   2.420  0.6640  0.3786  1.2269
  730SOL    HW2 2190   1.908   0.860   2.493 -0.6832 -0.1574  1.6275
  731SOL     OW 2191   0.985   2.853   1.167  0.2145 -0.2011 -0.2995
  731SOL    HW1 2192   1.022   2.947   1.177  2.1938  0.1541  0.4255
  731SOL    HW2 2193   1.036   2.801   1.096 -3.8009 -0.4757  0.9858
  732SOL     OW 2194   1.224   0.155   0.922 -0.2530  0.3795  0.8320
  732SOL    HW1 2195   1.129   0.118   0.905 -2.1429 -1.8235  0.0201
  732SOL    HW2 2196   1.275   0.086   0.973 -0.8057 -1.1866 -1.5492
  733SOL     OW 2197   1.355   1.130   0.670 -0.2591  0.2081  0.3542
  733SOL    HW1 2198   1.336   1.216   0.722  3.0754 -0.7466  1.0213
  733SOL    HW2 2199   1.319   1.050   0.723 -1.0388 -0.3171  1.4856
  734SOL     OW 2200   2.545   2.176   2.659  0.0724  0.6103  0.0381
  734SOL    HW1 2201   2.614   2.231   2.608 -0.7675  3.2200  0.3910
  734SOL    HW2 2202   2.458   2.161   2.605  1.6643 -0.2321 -2.4203
  735SOL     OW 2203   0.718   0.175   1.003  0.0557  0.3474  0.5631
  735SOL    HW1 2204   0.730   0.092   0.949  0.6989  1.8871  0.3203
  735SOL    HW2 2205   0.772   0.252   0.960 -0.4217 -0.6029  0.4170
  736SOL     OW 2206   1.209   2.275   2.772 -0.0430 -0.4142 -0.1737
  736SOL    HW1 2207   1.261   2.297   2.857  0.5714 -0.3621 -0.7114
  736SOL    HW2 2208   1.206   2.174   2.766  1.1220 -1.6648  1.1114
  737SOL     OW 2209   0.727   2.221   1.273  0.9454 -0.0162  0.2690
  737SOL    HW1 2210   0.640   2.202   1.222 -1.9642  0.5213  0.5176
  737SOL    HW2 2211   0.739   2.320   1.288  0.2464  0.0669 -1.2777
  738SOL     OW 2212   1.474   2.999   2.749 -0.9979 -0.0913 -0.0151
  738SOL    HW1 2213   1.377   3.034   2.756  0.9249  1.1188  0.6360
  738SOL    HW2 2214   1.533   3.058   2.805 -0.8220  1.9815 -0.3669
  739SOL     OW 2215   0.857   2.318   1.914  0.5500  0.2845  0.0876
  739SOL    HW1 2216   0.893   2.279   2.003  0.6888  0.8947 -0.2001
  739SOL    HW2 2217   0.758   2.332   1.907 -0.2298  0.7229  1.3835
  740SOL     OW 2218   1.459   2.372   1.512  0.1992  0.8378  0.0360
  740SOL    HW1 2219   1.440   2.312   1.428 -1.1967 -1.0721  1.0511
  740SOL    HW2 2220   1.402   2.457   1.504  0.4021  0.8371 -0.3442
  741SOL     OW 2221   2.527   1.114   0.300  0.1245 -0.1083 -0.5841
  741SOL    HW1 2222   2.563   1.105   0.397  1.4663  0.6511  4.1585
  741SOL    HW2 2223   2.498   1.210   0.290 -1.2518 -1.9311 -0.5508
  742SOL     OW 2224   0.768   1.733   2.367 -0.0709  0.1210  0.1129
  742SOL    HW1 2225   0.795   1.783   2.283 -0.4998 -0.1598 -1.2406
  742SOL    HW2 2226   0.670   1.711   2.367  2.4685  1.6080  3.2049
  743SOL     OW 2227   0.594   1.206   2.690 -0.6679 -0.2064  0.2758
  743SOL    HW1 2228   0.648   1.144   2.748  0.9018  1.5296 -0.2582
  743SOL    HW2 2229   0.539   1.271   2.746  0.2378  2.5111  0.3265
  744SOL     OW 2230   2.095   2.569   1.204 -0.4761 -0.1325 -0.2471
  744SOL    HW1 2231   2.093   2.570   1.104  1.7495  1.5975 -1.6000
  744SOL    HW2 2232   2.030   2.508   1.257  1.1279 -1.2898  1.3402
  745SOL     OW 2233   1.989   1.724   1.537  0.4253  0.1952  0.1937
  745SOL    HW1 2234   2.055   1.728   1.460 -0.1972 -0.8388  2.3437
  745SOL    HW2 2235   1.980   1.814   1.589  1.3955  1.9640  0.0934
  746SOL     OW 2236   2.055   1.026   0.840  0.0200 -0.1901 -0.2589
  746SOL    HW1 2237   2.151   1.057   0.815 -0.5816 -0.3517  0.7599
  746SOL    HW2 2238   2.013   1.076   0.916  1.2379  2.5047 -1.6408
  747SOL     OW 2239   1.771   1.983   0.850  0.3743  0.6752  0.0991
  747SOL    HW1 2240   1.866   1.960   0.880  0.4781 -0.0385  0.4188
  747SOL    HW2 2241   1.730   1.901   0.804  0.5273  1.2946  0.0564
  748SOL     OW 2242   0.548   1.632   0.777  0.1067 -0.0176 -0.2936
  748SOL    HW1 2243   0.575   1.718   0.721 -1.6963  0.6270  0.1596
  748SOL    HW2 2244   0.459   1.657   0.821 -2.0154  0.1972 -0.5522
  749SOL     OW 2245   0.063   2.982   2.330 -0.5530 -0.0235 -0.3949
  749SOL    HW1 2246   0.050   3.071   2.280  2.2955  1.4732  2.0654
  749SOL    HW2 2247   0.159   2.977   2.364  0.8612 -2.5024  0.4250
  750SOL     OW 2248   1.953   0.263   1.105 -0.1352  0.3561  0.7006
  750SOL    HW1 2249   2.010   0.339   1.064  3.2863  1.5080 -1.1584
  750SOL    HW2 2250   2.008   0.220   1.177 -2.0254 -0.0579 -0.4457
  751SOL     OW 2251   2.321   3.034   0.223  0.0710  0.0299  0.4024
  751SOL    HW1 2252   2.382   2.988   0.153  4.2297 -2.7295 -1.8280
  751SOL    HW2 2253   2.366   0.032   0.258 -1.7014 -2.7744  0.4222
  752SOL     OW 2254   2.020   1.777   0.324 -0.2957  0.0110  0.6047
  752SOL    HW1 2255   1.936   1.830   0.297  1.1000 -3.4024  1.0766
  752SOL    HW2 2256   2.088   1.818   0.260 -2.6357  0.8989 -1.1625
  753SOL     OW 2257   1.824   1.433   2.561 -0.0709  0.2028  0.0637
  753SOL    HW1 2258   1.898   1.436   2.494  1.3884  0.9182  0.0371
  753SOL    HW2 2259   1.815   1.524   2.612 -1.2174  4.1772  1.5256
  754SOL     OW 2260   2.715   2.302   1.185  0.6790 -0.2576  0.2637
  754SOL    HW1 2261   2.703   2.342   1.274 -0.1219 -0.9803 -2.7466
  754SOL    HW2 2262   2.814   2.314   1.155  0.1403  0.8577 -1.8637
  755SOL     OW 2263   2.047   0.723   0.955  0.2536 -0.4718  0.1485
  755SOL    HW1 2264   1.997   0.744   0.866  1.6433  1.3370  0.2376
  755SOL    HW2 2265   1.993   0.756   1.033  0.5945 -0.7409 -2.9347
  756SOL     OW 2266   1.087   1.481   2.768  0.2681 -0.7640 -0.6618
  756SOL    HW1 2267   1.147   1.462   2.853  4.4574 -0.7840 -0.7840
  756SOL    HW2 2268   1.117   1.417   2.695 -0.9243  1.5647  0.0000
  757SOL     OW 2269   1.993   2.723   1.394  0.2146  0.1475  0.0135
  757SOL    HW1 2270   2.042   2.672   1.321 -2.5844 -0.6757 -0.1103
  757SOL    HW2 2271   2.058   2.775   1.452  0.0598  1.6657 -0.9998
  758SOL     OW 2272   0.778   2.485   1.275 -0.2487 -0.2139 -0.3813
  758SOL    HW1 2273   0.750   2.560   1.337  0.7617 -2.3794  0.3585
  758SOL    HW2 2274   0.880   2.488   1.257  1.6096  0.9947 -0.3815
  759SOL     OW 2275   2.259   1.337   1.048  0.0903  0.1628 -0.4235
  759SOL    HW1 2276   2.171   1.366   1.083  2.3184 -0.4839 -0.5063
  759SOL    HW2 2277   2.323   1.415   1.051  1.1106 -0.8616 -0.6937
  760SOL     OW 2278   2.002   1.075   1.307  0.1101 -0.2254 -0.1159
  760SOL    HW1 2279   1.977   1.160   1.361  1.0287  2.2466  1.5144
  760SOL    HW2 2280   2.081   1.075   1.247 -0.9622  2.0338 -0.0523
  761SOL     OW 2281   2.159   3.080   0.433 -0.2366 -0.5766  0.1307
  761SOL    HW1 2282   2.096   3.021   0.492 -2.4105 -0.1027  1.8367
  761SOL    HW2 2283   2.215   3.029   0.363 -0.0942  1.6912  3.1678
  762SOL     OW 2284   1.775   2.047   2.946  0.2746  0.0334 -0.2065
  762SOL    HW1 2285   1.808   1.959   2.900  0.3493 -1.8722  0.2246
  762SOL    HW2 2286   1.826   2.128   2.901  1.8009  2.7579  1.2417
  763SOL     OW 2287   0.533   1.034   1.285  0.1774  0.2750 -0.1701
  763SOL    HW1 2288   0.495   1.109   1.226  1.0564 -1.9865  0.1973
  763SOL    HW2 2289   0.634   1.039   1.286  1.7160  0.2326  1.7895
  764SOL     OW 2290   2.776   2.297   3.015  0.4584 -0.4812 -0.0184
  764SOL    HW1 2291   2.849   2.342   2.960 -0.9062 -2.2079  0.3848
  764SOL    HW2 2292   2.737   2.215   2.964  1.2621 -0.8826  0.5177
  765SOL     OW 2293   0.969   0.086   1.946  0.2603  0.2879  0.5371
  765SOL    HW1 2294   1.008   3.078   1.919 -1.3361 -2.4672  0.4199
  765SOL    HW2 2295   0.887   0.109   1.884  0.3225  0.2104 -0.7693
  766SOL     OW 2296   2.912   1.945   2.552 -0.3654 -0.0375 -0.4837
  766SOL    HW1 2297   2.817   1.935   2.528  0.1313 -0.2332 -1.7254
  766SOL    HW2 2298   2.965   1.902   2.474  1.9138  1.7410 -1.3001
  767SOL     OW 2299   3.038   1.580   1.763 -0.1733 -0.4641  0.1970
  767SOL    HW1 2300   2.966   1.508   1.773 -1.9784 -0.3585 -1.2985
  767SOL    HW2 2301   3.008   1.659   1.703  0.7804 -2.1284  3.4203
  768SOL     OW 2302   1.042   0.725   2.773  0.5811 -0.2615  0.8384
  768SOL    HW1 2303   1.022   0.726   2.876 -3.0950  1.4374  1.5582
  768SOL    HW2 2304   1.125   0.674   2.750 -2.0087  1.8724 -0.2513
  769SOL     OW 2305   1.886   2.397   0.335  0.0124  0.3135 -0.2498
  769SOL    HW1 2306   1.850   2.303   0.339 -0.5836  0.0346  2.0695
  769SOL    HW2 2307   1.862   2.439   0.428  4.7991  0.0879  1.0978
  770SOL     OW 2308   2.786   0.165   3.082 -0.4161 -0.3271 -0.2952
  770SOL    HW1 2309   2.695   0.149   0.041  0.1951  1.0299 -1.4409
  770SOL    HW2 2310   2.783   0.205   2.986 -0.8456 -0.6687 -0.1086
  771SOL     OW 2311   1.328   2.288   1.910  0.0843 -0.4912  0.0751
  771SOL    HW1 2312   1.241   2.340   1.903 -2.1833  1.7177 -0.8848
  771SOL    HW2 2313   1.363   2.259   1.822 -1.7797  1.3796  2.6799
  772SOL     OW 2314   0.606   0.427   2.866  0.4420  0.0533 -0.2136
  772SOL    HW1 2315   0.658   0.427   2.779 -3.1322 -0.1800 -2.7225
  772SOL    HW2 2316   0.542   0.349   2.877 -0.2025  0.0331  0.6781
  773SOL     OW 2317   2.883   1.030   1.548  0.6657 -0.4679 -0.0868
  773SOL    HW1 2318   2.787   1.039   1.512  0.1456 -0.6160 -0.4379
  773SOL    HW2 2319   2.885   1.069   1.642  0.7465 -1.8594 -2.2394
  774SOL     OW 2320   1.604   1.099   0.293  0.1453 -0.6370 -0.1197
  774SOL    HW1 2321   1.517   1.149   0.314  0.3518 -0.2769 -1.1629
  774SOL    HW2 2322   1.677   1.139   0.349  1.9315 -1.9493  3.3067
  775SOL     OW 2323   2.387   2.725   0.104 -0.0437 -0.5755 -0.6116
  775SOL    HW1 2324   2.420   2.787   0.029  0.0880  1.0745  1.5559
  775SOL    HW2 2325   2.287   2.728   0.103 -0.3067 -0.6931 -0.8080
  776SOL     OW 2326   2.469   0.795   2.137  0.2729 -0.0860  0.6065
  776SOL    HW1 2327   2.466   0.828   2.042  0.5847 -1.6706  1.5880
  776SOL    HW2 2328   2.483   0.877   2.194  1.3569 -1.5913 -0.5610
  777SOL     OW 2329   0.149   1.225   2.450  0.6238 -0.2045 -0.1069
  777SOL    HW1 2330   0.218   1.244   2.382  0.0420 -1.8725 -0.3388
  777SOL    HW2 2331   0.080   1.159   2.407 -0.1782 -0.1206 -1.7329
  778SOL     OW 2332   0.688   0.109   0.266 -0.7190 -0.4222 -0.3023
  778SOL    HW1 2333   0.765   0.067   0.221 -0.8541  1.5667 -0.4244
  778SOL    HW2 2334   0.619   0.122   0.192 -0.7631 -1.7905 -2.2152
  779SOL     OW 2335   0.708   0.892   2.538 -0.0206 -0.4489  0.3482
  779SOL    HW1 2336   0.764   0.975   2.535 -2.0396 -2.0309 -1.1195
  779SOL    HW2 2337   0.763   0.802   2.538 -0.0067  0.3081 -0.0566
  780SOL     OW 2338   2.122   1.070   2.314  0.5891  0.6225  0.5990
  780SOL    HW1 2339   2.066   1.053   2.393  3.4525 -1.1109 -0.9794
  780SOL    HW2 2340   2.148   0.979   2.270  1.6660  0.4692  1.1023
  781SOL     OW 2341   2.921   1.103   1.804 -0.3699 -0.7055  0.2464
  781SOL    HW1 2342   3.020   1.093   1.809 -2.1875  0.2542  1.7052
  781SOL    HW2 2343   2.883   1.087   1.894  2.7442  1.9046 -0.6068
  782SOL     OW 2344   0.825   1.908   2.166  0.0576 -0.2484 -0.7298
  782SOL    HW1 2345   0.824   1.942   2.069 -0.6406  1.6447  0.8839
  782SOL    HW2 2346   0.804   1.991   2.223 -2.2841  0.6184  0.1886
  783SOL     OW 2347   0.451   2.530   1.467 -0.4698  0.3404  0.0582
  783SOL    HW1 2348   0.488   2.458   1.525 -1.3103  0.0059  1.9499
  783SOL    HW2 2349   0.532   2.576   1.419  1.3829  1.6144 -2.5941
  784SOL     OW 2350   1.223   0.352   2.768 -0.5303 -0.1623  0.3231
  784SOL    HW1 2351   1.310   0.295   2.763 -0.4649 -0.7201 -1.5729
  784SOL    HW2 2352   1.250   0.448   2.756  0.8263  1.5447  2.5119
  785SOL     OW 2353   0.984   0.264   2.624 -0.2140  0.2874 -0.1469
  785SOL    HW1 2354   1.072   0.283   2.677  0.8701  0.0822  0.3441
  785SOL    HW2 2355   0.986   0.321   2.540  2.0832 -0.3892  1.0340
  786SOL     OW 2356   0.359   1.618   0.355  0.1897 -0.9234  0.3580
  786SOL    HW1 2357   0.364   1.520   0.375  1.5545  1.3185  2.0010
  786SOL    HW2 2358   0.401   1.632   0.261  1.8120  0.7994 -1.5149
  787SOL     OW 2359   1.831   1.388   0.382  0.2952 -0.4364 -0.1065
  787SOL    HW1 2360   1.915   1.443   0.355 -1.8363  1.7365 -0.6111
  787SOL    HW2 2361   1.750   1.437   0.348 -0.0300 -2.1377 -1.4136
  788SOL     OW 2362   1.819   1.520   1.532 -0.3393  0.0362  0.3137
  788SOL    HW1 2363   1.730   1.555   1.492  2.0003 -0.3183  1.3128
  788SOL    HW2 2364   1.889   1.594   1.520  0.5363 -2.5547  1.6665
  789SOL     OW 2365   0.381   1.374   1.745 -0.5472  0.0608 -0.3742
  789SOL    HW1 2366   0.345   1.464   1.712  0.1891  0.1851  2.0765
  789SOL    HW2 2367   0.431   1.322   1.669 -0.4549  0.4210 -0.5423
  790SOL     OW 2368   0.563   2.711   0.116  0.3798  0.0805  0.0399
  790SOL    HW1 2369   0.511   2.738   0.197  0.2411 -1.4924 -0.6865
  790SOL    HW2 2370   0.498   2.688   0.047 -0.4928  1.3285  4.1337
  791SOL     OW 2371   0.378   0.263   2.814  0.0451 -0.4970  0.2640
  791SOL    HW1 2372   0.359   0.316   2.731  0.3047  0.6135  1.8014
  791SOL    HW2 2373   0.418   0.175   2.777 -0.3602 -1.1433 -0.3983
  792SOL     OW 2374   1.859   0.530   2.486  0.4590 -0.0234  0.3183
  792SOL    HW1 2375   1.841   0.626   2.475  0.0124 -1.8523 -0.6916
  792SOL    HW2 2376   1.883   0.513   2.581 -1.1062 -0.2147  0.4839
  793SOL     OW 2377   0.411   0.695   0.974  0.0666 -0.1388  0.4090
  793SOL    HW1 2378   0.354   0.616   0.946 -1.4952 -1.6122  0.9370
  793SOL    HW2 2379   0.416   0.709   1.072 -1.0249 -0.6249 -1.6630
  794SOL     OW 2380   0.596   0.382   1.875  0.3034 -0.4222 -0.5308
  794SOL    HW1 2381   0.616   0.285   1.906  1.3128  1.9383  1.5949
  794SOL    HW2 2382   0.509   0.386   1.824  3.3095  0.8864  1.7154
  795SOL     OW 2383   0.194   1.454   0.086 -0.4540 -0.1223 -0.2208
  795SOL    HW1 2384   0.112   1.390   0.096  0.6146 -1.5630  0.2264
  795SOL    HW2 2385   0.180   1.551   0.114  1.8883 -0.9501  1.4678
  796SOL     OW 2386   0.161   0.167   0.346 -0.0320 -0.8587  0.5197
  796SOL    HW1 2387   0.097   0.204   0.416  1.1675 -2.1796  2.8450
  796SOL    HW2 2388   0.107   0.115   0.279  0.9972 -0.5651 -0.1354
  797SOL     OW 2389   1.401   2.484   2.604 -0.2475 -0.4232  0.1227
  797SOL    HW1 2390   1.348   2.560   2.647  1.2840  2.3006  0.1130
  797SOL    HW2 2391   1.344   2.401   2.599  0.2489  0.7800  0.4165
  798SOL     OW 2392   2.885   0.573   0.926 -0.3319  0.2746 -0.1007
  798SOL    HW1 2393   2.877   0.534   0.832 -0.3660 -1.3528 -1.2469
  798SOL    HW2 2394   2.962   0.642   0.928  0.1679 -0.4908  1.6769
  799SOL     OW 2395   2.216   0.566   2.494  0.1024 -0.4363 -0.4876
  799SOL    HW1 2396   2.222   0.465   2.516 -1.7383 -1.9928  2.1242
  799SOL    HW2 2397   2.303   0.604   2.468 -1.2287 -2.5488  0.5734
  800SOL     OW 2398   0.210   2.140   0.221 -0.4678 -0.0445 -0.0065
  800SOL    HW1 2399   0.195   2.078   0.297  0.8761 -2.2879 -3.7461
  800SOL    HW2 2400   0.240   2.084   0.139  1.3854 -1.6394 -1.5109
  801SOL     OW 2401   1.266   1.457   1.107 -0.3777  0.3903  0.5818
  801SOL    HW1 2402   1.279   1.427   1.204 -0.5988 -0.0147  1.2978
  801SOL    HW2 2403   1.316   1.400   1.035 -2.5141 -0.5926 -1.2594
  802SOL     OW 2404   1.311   1.747   2.214 -0.5739  0.4457 -0.5565
  802SOL    HW1 2405   1.292   1.846   2.230 -0.4538  3.5283 -1.4828
  802SOL    HW2 2406   1.223   1.710   2.186  0.6722  1.0920 -1.0993
  803SOL     OW 2407   0.205   1.794   1.078  0.0507  0.7989  0.1271
  803SOL    HW1 2408   0.103   1.793   1.092 -1.7838 -0.0606  1.3194
  803SOL    HW2 2409   0.254   1.831   1.160 -0.4398  0.5018 -1.6528
  804SOL     OW 2410   1.060   2.523   1.274  0.6575 -0.2818 -0.3502
  804SOL    HW1 2411   1.135   2.590   1.278 -0.1246 -1.2345  0.3044
  804SOL    HW2 2412   1.067   2.464   1.357  0.8783 -0.1000  0.0778
  805SOL     OW 2413   1.976   1.466   0.001 -0.2814  0.2227 -0.6877
  805SOL    HW1 2414   2.067   1.452   3.038 -0.2860 -0.0317  0.4146
  805SOL    HW2 2415   1.899   1.422   3.036  1.2229 -0.6626 -0.6352
  806SOL     OW 2416   2.022   2.607   0.921  0.5631  0.3521 -0.6881
  806SOL    HW1 2417   2.055   2.702   0.901  1.5002  0.5090 -5.0384
  806SOL    HW2 2418   1.944   2.589   0.858 -0.3470  1.0363  0.4044
  807SOL     OW 2419   2.948   0.547   2.729 -0.4720 -0.2482  0.1872
  807SOL    HW1 2420   2.873   0.518   2.669 -4.1919 -1.3610  0.6182
  807SOL    HW2 2421   3.007   0.619   2.686 -3.3530  1.4500 -2.9083
  808SOL     OW 2422   0.440   1.078   0.267  0.5497 -0.6308  0.6537
  808SOL    HW1 2423   0.465   1.180   0.284 -1.7551  0.7457 -2.8208
  808SOL    HW2 2424   0.481   1.042   0.183  0.2367 -0.3649  0.0470
  809SOL     OW 2425   2.494   1.128   1.972 -0.4701 -0.2940 -0.7715
  809SOL    HW1 2426   2.392   1.136   1.977  0.6114 -0.5477  1.3533
  809SOL    HW2 2427   2.524   1.079   1.890 -1.4073  1.8833  2.3503
  810SOL     OW 2428   1.172   0.407   1.494  0.3880  0.3380  0.9333
  810SOL    HW1 2429   1.129   0.362   1.412  0.4986  1.6372 -2.2430
  810SOL    HW2 2430   1.259   0.366   1.524 -0.4550 -1.5549  1.1862
  811SOL     OW 2431   2.241   2.928   1.764  0.3108 -0.1973 -0.9532
  811SOL    HW1 2432   2.215   2.983   1.687  2.0981 -1.8940  1.4845
  811SOL    HW2 2433   2.184   2.845   1.769 -0.2544 -2.0730 -1.4319
  812SOL     OW 2434   1.340   2.303   3.033  0.3126  0.2349 -0.0028
  812SOL    HW1 2435   1.282   2.291   0.030 -0.4763 -1.5015 -0.1878
  812SOL    HW2 2436   1.429   2.353   3.056 -0.3836  1.0873  0.5257
  813SOL     OW 2437   1.792   0.818   1.668 -0.2970 -0.4570  0.0006
  813SOL    HW1 2438   1.695   0.792   1.667  1.9825  3.2778 -2.2164
  813SOL    HW2 2439   1.836   0.794   1.580 -1.5596  1.3003  2.3990
  814SOL     OW 2440   0.791   0.152   1.748 -0.2624  0.2054  0.1391
  814SOL    HW1 2441   0.735   0.228   1.711  0.9947 -1.8154 -0.0030
  814SOL    HW2 2442   0.880   0.165   1.703  2.0630 -0.8109  0.3637
  815SOL     OW 2443   0.714   0.957   0.145 -0.1301  0.3150 -0.0970
  815SOL    HW1 2444   0.724   0.862   0.097  2.5520 -0.5904 -0.6013
  815SOL    HW2 2445   0.692   0.944   0.244  1.6723  2.9782  0.1932
  816SOL     OW 2446   2.072   1.624   2.531 -0.7362  0.1071  0.2369
  816SOL    HW1 2447   2.121   1.546   2.482 -0.8782  0.0590 -1.8527
  816SOL    HW2 2448   2.137   1.702   2.544  1.4489  1.5175  1.7375
  817SOL     OW 2449   0.756   2.556   0.496  0.1026  0.6823 -0.1039
  817SOL    HW1 2450   0.806   2.596   0.576 -0.5512 -3.0979 -2.2224
  817SOL    HW2 2451   0.767   2.458   0.496 -1.2794 -1.4571  3.7907
  818SOL     OW 2452   1.614   0.379   2.987  0.3942 -0.0047 -0.1663
  818SOL    HW1 2453   1.695   0.428   2.940  3.0448  3.3606 -1.9327
  818SOL    HW2 2454   1.580   0.299   2.932  3.4474 -0.9982  3.3994
  819SOL     OW 2455   1.519   0.313   0.148  0.4828  0.1669 -0.0941
  819SOL    HW1 2456   1.571   0.342   0.063  1.6006  0.1656 -2.1906
  819SOL    HW2 2457   1.503   0.206   0.144  0.0049 -4.2883 -0.3614
  820SOL     OW 2458   1.790   0.504   0.241 -0.0101  0.2339 -0.1972
  820SOL    HW1 2459   1.856   0.426   0.234  0.0704 -1.1761 -1.8293
  820SOL    HW2 2460   1.814   0.580   0.179  1.5467 -1.2524  2.1310
  821SOL     OW 2461   2.478   0.153   0.291 -0.2342  0.4521 -0.0043
  821SOL    HW1 2462   2.549   0.163   0.362  1.5624  2.8393 -0.5249
  821SOL    HW2 2463   2.448   0.245   0.260  0.6428 -1.2511 -3.0496
  822SOL     OW 2464   0.641   2.398   1.630  0.4108 -0.0807 -0.2530
  822SOL    HW1 2465   0.718   2.462   1.605  1.7628  0.1720  0.2051
  822SOL    HW2 2466   0.676   2.308   1.663 -0.6501  2.3651  0.0987
  823SOL     OW 2467   0.091   1.565   1.277  0.1827  0.1773  0.0361
  823SOL    HW1 2468   0.082   1.652   1.334 -2.3662 -0.4980  3.0985
  823SOL    HW2 2469   0.097   1.484   1.343  0.1240  0.6772  0.1447
  824SOL     OW 2470   1.662   2.952   2.483 -0.5759  0.1741  0.3129
  824SOL    HW1 2471   1.675   2.869   2.428 -0.0742  0.6253  2.3578
  824SOL    HW2 2472   1.615   2.938   2.573 -0.7557 -0.5333  1.2586
  825SOL     OW 2473   1.647   1.109   0.651 -0.0502  0.4091  0.4369
  825SOL    HW1 2474   1.665   1.035   0.718 -0.0459 -0.5190 -0.0285
  825SOL    HW2 2475   1.551   1.136   0.657  1.1450 -1.5159 -0.8969
  826SOL     OW 2476   1.874   0.733   0.142  0.0021  0.4343  0.3464
  826SOL    HW1 2477   1.954   0.788   0.127  1.0800 -1.3512  0.8676
  826SOL    HW2 2478   1.791   0.782   0.119  0.2741  1.7952 -2.2738
  827SOL     OW 2479   0.514   1.250   1.491  0.1413 -0.3958 -0.2537
  827SOL    HW1 2480   0.535   1.165   1.535 -1.1621  1.1362 -2.6266
  827SOL    HW2 2481   0.456   1.226   1.413  1.5508 -0.3171 -0.2807
  828SOL     OW 2482   2.259   1.594   1.877  0.5566 -0.1574  0.5984
  828SOL    HW1 2483   2.287   1.691   1.864 -0.4430  0.7194 -0.7025
  828SOL    HW2 2484   2.162   1.591   1.844 -1.4586  0.1692  0.6742
  829SOL     OW 2485   0.215   1.922   0.034 -0.4548  0.1070 -0.1503
  829SOL    HW1 2486   0.159   1.855   0.086  0.7760  1.2686 -1.9258
  829SOL    HW2 2487   0.274   1.865   3.061  0.6779  1.3657 -0.6764
  830SOL     OW 2488   1.855   0.994   0.520  0.1308  0.1119 -0.2171
  830SOL    HW1 2489   1.783   1.039   0.575 -1.7544 -1.7515 -0.3130
  830SOL    HW2 2490   1.868   1.040   0.430 -2.2480 -0.5395 -1.0468
  831SOL     OW 2491   2.848   1.938   2.992 -0.4071 -0.4242  0.2345
  831SOL    HW1 2492   2.779   1.969   2.924  1.2950  0.2134 -0.3404
  831SOL    HW2 2493   2.847   1.999   3.075  0.5470  2.0561  3.1844
  832SOL     OW 2494   0.936   0.072   0.166 -0.6721 -0.5572 -0.0021
  832SOL    HW1 2495   0.971   3.059   0.178 -0.6719 -0.1091 -2.0637
  832SOL    HW2 2496   1.009   0.141   0.187 -0.4062 -1.6306  1.0201
  833SOL     OW 2497   1.046   0.699   2.070  0.2213  0.0083  0.3078
  833SOL    HW1 2498   1.074   0.752   1.991  0.6304  1.7079  2.4582
  833SOL    HW2 2499   1.100   0.617   2.085 -2.8467 -0.0585 -2.1032
  834SOL     OW 2500   0.069   0.481   1.106  0.1690 -0.0887 -0.1063
  834SOL    HW1 2501   0.164   0.455   1.116 -0.7664  1.9680 -2.1379
  834SOL    HW2 2502   0.061   0.550   1.030  0.3064  0.4539 -1.3883
  835SOL     OW 2503   2.861   2.811   0.786 -0.3313  0.1546  0.0114
  835SOL    HW1 2504   2.815   2.732   0.836  0.2651  0.0553  0.0536
  835SOL    HW2 2505   2.912   2.875   0.850  2.3824  1.0139 -0.6696
  836SOL     OW 2506   0.573   1.887   0.264  0.4874  0.0765 -0.9653
  836SOL    HW1 2507   0.601   1.983   0.281  1.5270  0.3535 -0.3854
  836SOL    HW2 2508   0.624   1.828   0.332 -0.5409 -0.7176  0.4050
  837SOL     OW 2509   1.426   1.638   2.720  0.1771 -0.1356  0.1850
  837SOL    HW1 2510   1.393   1.708   2.786  1.0175  0.9251 -0.9727
  837SOL    HW2 2511   1.370   1.629   2.633 -0.0068  2.2642 -1.2256
  838SOL     OW 2512   0.225   0.974   1.972 -0.0710  0.1540  0.1295
  838SOL    HW1 2513   0.218   0.883   2.018 -0.8437  0.9153 -0.5334
  838SOL    HW2 2514   0.285   1.037   2.027 -2.0168  0.8340  0.0673
  839SOL     OW 2515   0.344   0.817   0.671 -0.2360 -0.1069 -0.2062
  839SOL    HW1 2516   0.431   0.790   0.720 -0.9834 -2.1468 -0.4999
  839SOL    HW2 2517   0.301   0.898   0.712 -0.2369 -1.2207 -1.3025
  840SOL     OW 2518   2.409   0.188   2.372 -0.0116  0.1982  0.2721
  840SOL    HW1 2519   2.475   0.157   2.446 -0.3053  0.1691  1.1031
  840SOL    HW2 2520   2.455   0.206   2.282  0.8835  0.3989 -0.8590
  841SOL     OW 2521   0.865   2.342   0.026  0.0153 -1.1876  0.1870
  841SOL    HW1 2522   0.887   2.434   3.076  0.5927  2.2071  0.2797
  841SOL    HW2 2523   0.867   2.280   3.034  0.4380  0.7249 -1.4283
  842SOL     OW 2524   0.318   0.212   0.790  0.0051  0.0323  0.4009
  842SOL    HW1 2525   0.380   0.200   0.873 -2.5917  0.2365 -1.0160
  842SOL    HW2 2526   0.238   0.152   0.798  0.3200 -0.6310 -1.9792
  843SOL     OW 2527   0.094   1.048   0.178 -0.7771 -0.4188 -0.0231
  843SOL    HW1 2528   0.161   1.101   0.232 -0.1122  1.6357 -3.8143
  843SOL    HW2 2529   0.040   1.107   0.114  0.0835  0.5852 -0.8815
  844SOL     OW 2530   1.068   2.534   2.757  0.3625  0.1311 -0.1163
  844SOL    HW1 2531   1.050   2.500   2.662 -2.0115  2.6928  1.9563
  844SOL    HW2 2532   1.133   2.474   2.801 -0.0205  0.4847 -1.4801
  845SOL     OW 2533   2.534   0.063   2.588  0.3825 -0.1928 -0.5541
  845SOL    HW1 2534   2.607   0.006   2.618 -2.8747 -0.0687 -0.9727
  845SOL    HW2 2535   2.496   0.112   2.667 -1.2157 -1.5232 -0.5679
  846SOL     OW 2536   1.925   1.836   2.839  0.4399 -0.4946 -0.4989
  846SOL    HW1 2537   1.874   1.764   2.790  1.6367  1.3114 -0.1522
  846SOL    HW2 2538   2.010   1.801   2.881  0.8096 -1.1893  0.1923
  847SOL     OW 2539   2.591   3.064   0.118 -0.5865 -0.5400  0.3018
  847SOL    HW1 2540   2.539   0.048   0.177 -0.9123  0.2481  2.1517
  847SOL    HW2 2541   2.668   3.034   0.182  0.6728  0.4454  1.6228
  848SOL     OW 2542   0.551   0.344   0.381 -0.2412  0.0602  0.3274
  848SOL    HW1 2543   0.574   0.351   0.480 -0.0897  1.2594 -1.6932
  848SOL    HW2 2544   0.576   0.250   0.345  0.0080 -1.8941  2.7461
  849SOL     OW 2545   1.337   2.909   1.666  0.7234  0.5096 -0.1655
  849SOL    HW1 2546   1.396   2.834   1.701 -0.5980 -1.6134 -1.3332
  849SOL    HW2 2547   1.351   2.993   1.717 -1.1350 -2.1337 -0.8312
  850SOL     OW 2548   0.771   1.242   0.398  0.2947 -0.0649 -0.0242
  850SOL    HW1 2549   0.866   1.215   0.367  3.6984 -1.8490 -0.2758
  850SOL    HW2 2550   0.716   1.161   0.415 -0.2818  4.0989  0.5340
  851SOL     OW 2551   0.412   1.026   2.921 -0.1614 -0.2790  0.4235
  851SOL    HW1 2552   0.341   0.964   2.954 -0.3268 -2.3434  0.8500
  851SOL    HW2 2553   0.408   1.120   2.961 -0.0779 -1.4058  0.8301
  852SOL     OW 2554   1.270   0.242   1.795  0.0410  0.6557  0.4816
  852SOL    HW1 2555   1.293   0.165   1.860  0.8845  0.2262  3.7176
  852SOL    HW2 2556   1.335   0.254   1.716 -0.9345 -1.5661 -0.8650
  853SOL     OW 2557   2.538   1.572   0.187  0.0769  0.1742 -0.0702
  853SOL    HW1 2558   2.498   1.563   0.092 -0.9077  0.1211 -1.5590
  853SOL    HW2 2559   2.587   1.663   0.195  1.4406  0.9098 -0.3192
  854SOL     OW 2560   0.858   1.195   1.848  0.9678  0.2315 -0.0835
  854SOL    HW1 2561   0.784   1.148   1.901  0.3806 -0.4347 -2.0339
  854SOL    HW2 2562   0.949   1.171   1.880 -1.3643  1.2355 -1.3711
  855SOL     OW 2563   0.273   2.669   0.144 -0.4604  0.4254 -0.1733
  855SOL    HW1 2564   0.220   2.712   0.073 -1.1768  0.0860  2.5642
  855SOL    HW2 2565   0.292   2.574   0.110  0.0641  0.1799  1.2318
  856SOL     OW 2566   0.783   0.860   1.899  0.4759  0.1800  0.1376
  856SOL    HW1 2567   0.840   0.815   1.825 -0.3300  0.8831 -1.1616
  856SOL    HW2 2568   0.845   0.901   1.971 -0.5502  0.1056 -2.4532
  857SOL     OW 2569   1.098   0.958   2.328  0.1245  0.6444 -0.1075
  857SOL    HW1 2570   1.167   0.983   2.255  0.1067  1.7821 -0.5713
  857SOL    HW2 2571   1.119   0.861   2.351  1.7174 -0.1494 -2.4880
  858SOL     OW 2572   3.070   1.306   2.090  0.6810 -0.2040 -0.1876
  858SOL    HW1 2573   0.041   1.387   2.121 -0.1314 -1.1504  0.8797
  858SOL    HW2 2574   0.028   1.253   2.013  1.4508 -1.1359 -1.6182
  859SOL     OW 2575   2.671   0.370   0.964 -0.0747 -0.1987  0.0204
  859SOL    HW1 2576   2.589   0.428   0.950 -0.6190 -2.5511  1.0725
  859SOL    HW2 2577   2.760   0.417   0.961  0.5825 -0.7823  0.1253
  860SOL     OW 2578   1.789   2.994   0.255 -0.2580 -0.4467 -0.0905
  860SOL    HW1 2579   1.775   0.008   0.247 -0.6298  0.6857  1.6558
  860SOL    HW2 2580   1.702   2.953   0.271  1.1710  2.8957  0.2717
  861SOL     OW 2581   0.938   0.521   1.084  0.0445  0.3273  0.3948
  861SOL    HW1 2582   0.908   0.473   0.997 -0.8180 -0.4180 -0.7818
  861SOL    HW2 2583   0.972   0.617   1.070  2.2281 -1.6902 -0.6737
  862SOL     OW 2584   1.298   0.298   2.382 -0.7408 -0.2871  0.4402
  862SOL    HW1 2585   1.328   0.236   2.455 -0.6578 -1.2694 -3.1024
  862SOL    HW2 2586   1.332   0.260   2.290  0.2574 -1.3142 -1.5820
  863SOL     OW 2587   2.266   2.319   0.667  0.6844 -0.4259 -0.1980
  863SOL    HW1 2588   2.280   2.394   0.599  1.4162 -0.7265  0.9395
  863SOL    HW2 2589   2.345   2.256   0.667 -0.6781  2.1304 -1.1147
  864SOL     OW 2590   2.906   0.056   2.017  0.1296  0.4482  0.0280
  864SOL    HW1 2591   2.900   0.135   1.951  1.3478 -2.3550 -0.9512
  864SOL    HW2 2592   2.829   3.075   2.004 -2.3382  2.1145 -0.7832
  865SOL     OW 2593   1.548   0.736   1.716  0.0859 -0.4573 -0.6896
  865SOL    HW1 2594   1.484   0.771   1.789 -3.6888 -2.0703  0.1957
  865SOL    HW2 2595   1.562   0.636   1.738 -0.5633  0.4149  1.2707
  866SOL     OW 2596   1.474   2.415   1.167 -0.2127 -0.7252 -0.1479
  866SOL    HW1 2597   1.433   2.378   1.080 -1.7560 -0.4072  1.5572
  866SOL    HW2 2598   1.547   2.488   1.153  0.5551 -0.5871 -0.6494
  867SOL     OW 2599   2.311   2.769   0.421  0.2926 -0.3285  0.7778
  867SOL    HW1 2600   2.216   2.736   0.397  1.0488 -1.7142 -0.8956
  867SOL    HW2 2601   2.343   2.843   0.355 -1.3427  1.6387 -1.9733
  868SOL     OW 2602   0.416   2.116   1.731 -0.0256 -0.1925 -0.3028
  868SOL    HW1 2603   0.457   2.076   1.650 -1.8772  0.3454  2.5827
  868SOL    HW2 2604   0.356   2.194   1.709  1.9663 -0.9511  1.3943
  869SOL     OW 2605   2.192   2.404   2.521  0.1437  0.2670  0.3775
  869SOL    HW1 2606   2.164   2.471   2.590  1.5494 -0.0732 -0.9529
  869SOL    HW2 2607   2.258   2.447   2.452 -0.9475  0.8502 -3.7667
  870SOL     OW 2608   1.556   1.484   0.728  0.2106  0.2559 -0.3066
  870SOL    HW1 2609   1.652   1.472   0.682  2.6365 -2.6373 -3.1274
  870SOL    HW2 2610   1.547   1.445   0.824 -0.3475  0.6238  1.9259
  871SOL     OW 2611   0.362   1.560   1.193 -0.0660 -0.3424  0.0435
  871SOL    HW1 2612   0.415   1.641   1.224 -0.7155  2.2628  0.4171
  871SOL    HW2 2613   0.265   1.583   1.176  1.4282 -1.7309  1.1371
  872SOL     OW 2614   0.454   1.521   2.594  0.4976 -0.4736 -0.4549
  872SOL    HW1 2615   0.444   1.426   2.563  3.1380  0.6386 -1.1477
  872SOL    HW2 2616   0.544   1.547   2.637 -0.4772  1.2704 -1.7429
  873SOL     OW 2617   0.798   1.952   1.872  0.6789  0.1792  0.1680
  873SOL    HW1 2618   0.898   1.953   1.863 -0.2036  1.5459 -1.1975
  873SOL    HW2 2619   0.753   1.884   1.809  0.2100 -0.2248  0.1654
  874SOL     OW 2620   0.960   0.771   1.687 -0.1063 -0.1246 -0.4260
  874SOL    HW1 2621   0.967   0.674   1.652  2.2898 -0.6957  0.5277
  874SOL    HW2 2622   1.025   0.791   1.760  1.9468 -1.1993 -0.6060
  875SOL     OW 2623   2.721   2.674   0.454 -0.1760  0.3744 -0.1063
  875SOL    HW1 2624   2.633   2.649   0.403 -0.6109  0.1327 -2.2354
  875SOL    HW2 2625   2.732   2.773   0.484 -0.9947 -2.4368  0.1346
  876SOL     OW 2626   0.627   1.458   0.306 -0.1494  0.2868 -0.1243
  876SOL    HW1 2627   0.701   1.404   0.359 -0.3497 -1.1698 -0.6443
  876SOL    HW2 2628   0.534   1.425   0.330  1.8092  0.6485  1.5021
  877SOL     OW 2629   2.998   0.132   0.740  0.5691  0.3851  0.0993
  877SOL    HW1 2630   3.052   0.165   0.821  0.7876 -1.1764 -1.2638
  877SOL    HW2 2631   2.897   0.127   0.755  3.2919 -1.6584  0.8004
  878SOL     OW 2632   2.219   1.561   0.677  0.1456 -0.1217 -0.2090
  878SOL    HW1 2633   2.235   1.532   0.580  1.7787  2.0160  2.2602
  878SOL    HW2 2634   2.136   1.524   0.721  1.3311 -1.3995 -0.9591
  879SOL     OW 2635   2.414   1.610   1.323 -0.6730 -0.1541  0.0076
  879SOL    HW1 2636   2.470   1.550   1.379  0.7638 -0.3056 -1.9938
  879SOL    HW2 2637   2.443   1.590   1.227 -1.1257  2.3961 -1.5949
  880SOL     OW 2638   0.447   2.382   0.692 -0.0919 -0.2478 -0.2879
  880SOL    HW1 2639   0.359   2.362   0.645 -1.0405  0.8597  0.6479
  880SOL    HW2 2640   0.444   2.476   0.728  0.2491  0.2255  1.4189
  881SOL     OW 2641   0.982   0.975   0.856  0.1076  0.1320 -0.6121
  881SOL    HW1 2642   1.001   0.946   0.761  0.0095  0.3526  2.0855
  881SOL    HW2 2643   1.043   1.056   0.880 -1.3045 -0.7719  0.4217
  882SOL     OW 2644   2.339   0.902   0.682  0.1507 -0.0658 -0.5060
  882SOL    HW1 2645   2.249   0.948   0.653 -0.8993  1.5994  2.0873
  882SOL    HW2 2646   2.352   0.823   0.617 -0.8778  1.2199 -0.2559
  883SOL     OW 2647   1.652   0.137   1.915 -0.5145  0.5196 -0.1847
  883SOL    HW1 2648   1.676   0.192   1.996 -0.8215  2.7713  0.8014
  883SOL    HW2 2649   1.602   0.049   1.935 -1.1931 -4.3466  2.3010
  884SOL     OW 2650   2.896   3.027   1.444  0.1352 -0.7463 -0.1377
  884SOL    HW1 2651   2.863   0.022   1.399 -0.7618 -2.8613  1.9561
  884SOL    HW2 2652   2.834   3.006   1.519 -2.1540  2.5993  0.5141
  885SOL     OW 2653   1.350   0.755   2.207  0.3425  0.2436  0.3239
  885SOL    HW1 2654   1.335   0.853   2.177  1.0328 -1.9374 -0.6858
  885SOL    HW2 2655   1.358   0.749   2.310  0.0953 -0.5958  1.4576
  886SOL     OW 2656   1.764   0.631   2.167 -0.3863  0.3451 -0.1720
  886SOL    HW1 2657   1.842   0.654   2.233  1.0678  0.9678 -0.1269
  886SOL    HW2 2658   1.713   0.552   2.204 -2.1226  0.7932  1.6632
  887SOL     OW 2659   1.531   0.501   1.402  0.1808  0.4863 -0.2788
  887SOL    HW1 2660   1.468   0.440   1.349  2.7035  0.0068 -0.8036
  887SOL    HW2 2661   1.626   0.482   1.367 -0.1251  0.3250 -1.7638
  888SOL     OW 2662   2.613   1.646   2.169  0.3739 -0.3492  0.3217
  888SOL    HW1 2663   2.639   1.667   2.068 -0.4080 -1.7007 -0.7581
  888SOL    HW2 2664   2.686   1.620   2.230 -3.7673 -1.6181 -0.8178
  889SOL     OW 2665   1.815   2.143   0.609  0.2301 -0.2782  0.3159
  889SOL    HW1 2666   1.803   2.129   0.709  0.3500 -1.9141 -0.2727
  889SOL    HW2 2667   1.910   2.165   0.577 -2.4147  0.9525  0.8012
  890SOL     OW 2668   0.889   1.833   0.582  0.3733  0.1266  0.1475
  890SOL    HW1 2669   0.927   1.786   0.662 -0.2871  1.8287 -1.4817
  890SOL    HW2 2670   0.836   1.908   0.616  0.6337 -2.0682 -0.9450
  891SOL     OW 2671   2.665   0.853   2.777 -0.6474 -0.0005 -0.3893
  891SOL    HW1 2672   2.758   0.818   2.793  0.7418  1.6856 -1.5121
  891SOL    HW2 2673   2.604   0.839   2.859 -1.1998  1.6477 -0.7958
  892SOL     OW 2674   0.991   0.657   2.330  0.3379 -0.6991  0.2116
  892SOL    HW1 2675   0.974   0.691   2.235  0.4510 -3.0117 -0.4128
  892SOL    HW2 2676   1.019   0.559   2.323 -0.5524  1.8679  0.6242
  893SOL     OW 2677   1.585   3.039   1.184  0.0002  0.2861  0.4510
  893SOL    HW1 2678   1.605   0.022   1.113 -0.4235 -2.3904  0.6012
  893SOL    HW2 2679   1.676   3.009   1.223 -1.6083 -0.0696 -1.1368
  894SOL     OW 2680   2.706   2.941   0.567 -0.2637  0.1618 -0.9719
  894SOL    HW1 2681   2.603   2.943   0.577  2.3291 -0.4273 -0.5893
  894SOL    HW2 2682   2.744   2.944   0.663 -0.8545 -1.7337 -0.2409
  895SOL     OW 2683   1.692   2.669   2.972  0.1578 -0.3046  0.1168
  895SOL    HW1 2684   1.692   2.679   2.867  0.9239  1.1513 -2.0061
  895SOL    HW2 2685   1.789   2.656   2.997  1.1690 -1.1724 -0.9042
  896SOL     OW 2686   2.053   0.044   2.052  0.1103  0.4145  0.2159
  896SOL    HW1 2687   2.023   3.056   2.115  3.8884 -1.0082 -1.4458
  896SOL    HW2 2688   1.993   0.127   2.053 -1.2948 -2.1140 -1.3279
  897SOL     OW 2689   0.223   1.880   1.566  0.0153 -0.1010  0.4689
  897SOL    HW1 2690   0.289   1.817   1.615  1.0266  0.6363  3.3397
  897SOL    HW2 2691   0.271   1.951   1.507  0.1956 -0.0373  0.1803
  898SOL     OW 2692   2.701   1.685   1.889  0.1596 -0.1016 -0.0552
  898SOL    HW1 2693   2.658   1.773   1.877 -0.0160 -2.6722 -0.5283
  898SOL    HW2 2694   2.732   1.652   1.801 -1.4225  2.0337 -0.3861
  899SOL     OW 2695   1.337   1.985   1.154 -0.6039 -0.0313  0.1197
  899SOL    HW1 2696   1.243   1.989   1.115  1.4553  1.6138 -1.1425
  899SOL    HW2 2697   1.403   1.941   1.092 -0.5955  0.5630  0.5566
  900SOL     OW 2698   0.947   0.063   2.813 -0.4487  0.1921  0.4162
  900SOL    HW1 2699   0.863   0.066   2.873 -0.1799  2.4665 -1.7116
  900SOL    HW2 2700   0.932   0.126   2.732  0.0002 -0.9858  0.4654
  901SOL     OW 2701   1.391   1.602   2.433  0.3518 -0.1270  0.7188
  901SOL    HW1 2702   1.368   1.654   2.349  1.6925 -0.5399  0.5169
  901SOL    HW2 2703   1.484   1.619   2.465 -1.5176 -0.0554 -0.3161
  902SOL     OW 2704   2.857   3.028   2.929 -0.2470 -0.1616 -0.3123
  902SOL    HW1 2705   2.797   3.079   2.997 -0.3119  0.5475 -0.0167
  902SOL    HW2 2706   2.949   3.069   2.919 -0.2855 -0.5797 -2.0538
  903SOL     OW 2707   2.143   0.892   2.044  0.2547  0.0343 -0.0803
  903SOL    HW1 2708   2.056   0.872   1.998 -0.1291  0.6841  0.6896
  903SOL    HW2 2709   2.161   0.822   2.117  2.4960  1.3316 -1.1881
  904SOL     OW 2710   1.535   0.500   2.451 -0.1694  0.4466  0.5927
  904SOL    HW1 2711   1.593   0.425   2.493 -1.7566 -2.5241  1.3684
  904SOL    HW2 2712   1.513   0.481   2.353 -0.3992  0.9610 -0.8221
  905SOL     OW 2713   2.120   2.518   1.609 -0.7317  0.4222  0.1108
  905SOL    HW1 2714   2.216   2.486   1.618  2.3297 -1.9266 -0.2258
  905SOL    HW2 2715   2.092   2.595   1.660  0.2392 -2.6218 -1.3897
  906SOL     OW 2716   1.592   1.810   0.435 -0.6207 -0.2366 -0.7711
  906SOL    HW1 2717   1.536   1.789   0.355 -2.9728  0.6444  1.0792
  906SOL    HW2 2718   1.692   1.819   0.410  1.5126 -1.6141  1.8091
  907SOL     OW 2719   0.935   2.826   0.505  0.3622  0.3979 -0.0351
  907SOL    HW1 2720   0.940   2.887   0.584  2.0504 -3.1759 -0.5734
  907SOL    HW2 2721   0.849   2.831   0.453 -1.3289  3.2119  0.2145
  908SOL     OW 2722   1.217   2.676   1.929  0.0520 -0.1485 -0.1552
  908SOL    HW1 2723   1.315   2.693   1.900  1.7646  0.1735 -1.6180
  908SOL    HW2 2724   1.198   2.580   1.911  1.6741  1.9475  0.4829
  909SOL     OW 2725   2.295   0.088   1.917  0.7520 -0.4370  0.2956
  909SOL    HW1 2726   2.312   0.006   1.862  1.1507  0.4981  1.3753
  909SOL    HW2 2727   2.207   0.086   1.965 -0.5405  1.1976  0.2384
  910SOL     OW 2728   1.241   1.173   2.825  0.4171 -0.3905  0.1522
  910SOL    HW1 2729   1.195   1.161   2.916  2.7365  0.3185 -2.7815
  910SOL    HW2 2730   1.335   1.138   2.824 -1.5605 -1.1644 -0.4771
  911SOL     OW 2731   3.063   1.277   0.041 -0.7175  0.7481 -0.4706
  911SOL    HW1 2732   2.977   1.257   0.094  1.4112  0.5694 -0.4471
  911SOL    HW2 2733   3.049   1.326   3.037 -0.5412  0.6420 -1.6480
  912SOL     OW 2734   0.372   2.341   0.280 -0.2325  0.5615 -0.7954
  912SOL    HW1 2735   0.339   2.240   0.265 -0.1382 -2.3927  1.3882
  912SOL    HW2 2736   0.368   2.388   0.190  2.0476 -0.6577  0.0461
  913SOL     OW 2737   2.736   2.254   2.467 -0.3709 -0.4860  0.6121
  913SOL    HW1 2738   2.712   2.174   2.406  2.1787 -0.2792 -2.2210
  913SOL    HW2 2739   2.827   2.242   2.516  0.3869 -0.1207  1.5080
  914SOL     OW 2740   1.285   1.892   1.636  0.2247 -0.3472 -0.6673
  914SOL    HW1 2741   1.381   1.871   1.601 -0.1222 -0.8114  0.2117
  914SOL    HW2 2742   1.266   1.860   1.733 -0.5213 -1.1767  0.2562
  915SOL     OW 2743   0.964   2.808   2.186  0.9189 -0.2671  0.0542
  915SOL    HW1 2744   0.904   2.890   2.215 -2.5069  2.9428  1.5573
  915SOL    HW2 2745   0.908   2.721   2.194  0.9930 -2.5531  1.1395
  916SOL     OW 2746   0.488   0.769   1.580  0.0109  0.4205  0.0587
  916SOL    HW1 2747   0.395   0.804   1.596 -2.6303  0.3312  0.8806
  916SOL    HW2 2748   0.536   0.760   1.673 -1.0172 -0.3304  0.9129
  917SOL     OW 2749   2.937   0.508   0.639 -0.0052  0.1721  0.5685
  917SOL    HW1 2750   2.875   0.474   0.565 -2.7559 -1.3533 -2.4529
  917SOL    HW2 2751   3.012   0.445   0.641  0.4507 -0.7284  1.0927
  918SOL     OW 2752   1.716   2.670   2.707  0.6406 -0.2601  0.1369
  918SOL    HW1 2753   1.749   2.573   2.697 -0.5249  1.3076 -2.6248
  918SOL    HW2 2754   1.650   2.674   2.628 -1.2434 -0.4102 -1.7359
  919SOL     OW 2755   1.713   2.656   1.695  0.4037  0.2587 -0.7250
  919SOL    HW1 2756   1.681   2.584   1.628  0.8672  0.2058 -1.0058
  919SOL    HW2 2757   1.729   2.743   1.648  0.5539 -1.1299  3.6198
  920SOL     OW 2758   0.540   0.672   2.971 -0.0587 -0.2863  0.2511
  920SOL    HW1 2759   0.534   0.738   2.893  0.3171  0.2688 -0.2468
  920SOL    HW2 2760   0.557   0.578   2.933  0.2246  1.1849 -0.8117
  921SOL     OW 2761   2.945   0.782   2.878  0.0390 -0.2320 -0.2615
  921SOL    HW1 2762   3.033   0.826   2.849 -2.6929  0.3647 -0.6945
  921SOL    HW2 2763   2.946   0.688   2.849 -1.6896  1.7919  0.3532
  922SOL     OW 2764   0.532   1.898   0.717  0.4208 -0.6664  0.5791
  922SOL    HW1 2765   0.503   1.938   0.807 -2.1375  0.4126  2.2871
  922SOL    HW2 2766   0.606   1.960   0.686 -3.1456  0.3671  1.6947
  923SOL     OW 2767   0.592   1.025   1.628  0.4462 -0.1652  0.0988
  923SOL    HW1 2768   0.584   1.054   1.723  0.0495 -1.6635 -1.1215
  923SOL    HW2 2769   0.538   0.936   1.613  0.0695  0.7136 -0.4335
  924SOL     OW 2770   1.606   0.070   2.939  0.3055  0.0978 -0.4869
  924SOL    HW1 2771   1.564   0.085   3.029  1.3904 -1.5169 -0.3974
  924SOL    HW2 2772   1.698   0.030   2.936  0.6865  3.2775  2.3070
  925SOL     OW 2773   2.745   1.344   1.384 -0.6563 -0.4870 -0.0030
  925SOL    HW1 2774   2.721   1.273   1.316  1.1717  0.3251 -0.1073
  925SOL    HW2 2775   2.834   1.316   1.421 -2.4540  1.6971 -1.3483
  926SOL     OW 2776   2.439   0.248   1.383 -0.1980  0.5338 -0.6266
  926SOL    HW1 2777   2.408   0.288   1.474  0.7633 -2.4579  0.8271
  926SOL    HW2 2778   2.523   0.296   1.354 -2.3494 -1.5397  0.3130
  927SOL     OW 2779   1.857   3.005   1.249  0.1652 -0.1038 -0.0791
  927SOL    HW1 2780   1.824   2.908   1.261  2.7749 -1.1849 -3.4135
  927SOL    HW2 2781   1.949   3.016   1.296  1.9823  0.0225 -0.6843
  928SOL     OW 2782   3.033   1.102   2.319 -0.6499 -0.4926  0.2127
  928SOL    HW1 2783   3.015   1.164   2.247  4.0036 -3.9135  1.3709
  928SOL    HW2 2784   3.032   1.007   2.279  0.2317  1.6572 -0.1556
  929SOL     OW 2785   2.655   0.894   1.061 -0.7561 -0.5940  0.1881
  929SOL    HW1 2786   2.605   0.856   0.982  0.5063  3.0742 -0.0035
  929SOL    HW2 2787   2.629   0.849   1.150 -0.6688 -2.2062 -1.6766
  930SOL     OW 2788   0.009   2.548   2.036 -0.2268 -0.6157 -0.2554
  930SOL    HW1 2789   0.066   2.630   2.051 -2.3599 -0.1273  1.8586
  930SOL    HW2 2790   3.041   2.546   1.951 -1.1717  2.3526 -0.4182
  931SOL     OW 2791   1.875   0.812   1.134  0.1160  1.0166 -0.6507
  931SOL    HW1 2792   1.790   0.864   1.129  0.5942 -0.9550 -2.2814
  931SOL    HW2 2793   1.910   0.794   1.233  1.0875 -0.2650  1.1871
  932SOL     OW 2794   0.111   1.168   1.834 -0.2530 -0.1337 -0.0868
  932SOL    HW1 2795   0.152   1.085   1.878  1.0987 -4.0656 -0.0153
  932SOL    HW2 2796   0.177   1.236   1.801 -1.2875 -1.1083 -1.5344
  933SOL     OW 2797   2.732   2.075   1.457  0.2271  0.1894 -0.4446
  933SOL    HW1 2798   2.670   2.144   1.422 -0.2758  0.3506 -2.0746
  933SOL    HW2 2799   2.705   1.980   1.434  1.7716  0.9134  0.8715
  934SOL     OW 2800   0.597   1.805   1.356 -0.4690  0.4624  0.0114
  934SOL    HW1 2801   0.665   1.736   1.347 -2.4762 -0.8169  1.5928
  934SOL    HW2 2802   0.623   1.870   1.430 -0.2296 -0.3459  0.1782
  935SOL     OW 2803   2.824   1.393   1.772  0.3925 -0.7695  0.3645
  935SOL    HW1 2804   2.866   1.301   1.778  0.7254  0.4555  1.6794
  935SOL    HW2 2805   2.779   1.428   1.858 -0.9895  1.3659  1.2541
  936SOL     OW 2806   2.449   1.419   1.774  0.3278  0.1914 -0.5908
  936SOL    HW1 2807   2.536   1.410   1.831 -1.2797  0.6494 -0.3015
  936SOL    HW2 2808   2.401   1.502   1.813 -0.5275  1.3601  1.1719
  937SOL     OW 2809   1.944   0.825   1.421  0.1870  0.1872  0.3544
  937SOL    HW1 2810   2.015   0.805   1.489  1.1276 -1.2707 -0.9124
  937SOL    HW2 2811   1.943   0.923   1.404 -1.6124  2.1424  0.5341
  938SOL     OW 2812   0.598   2.263   2.888  0.1114 -0.4995  0.3093
  938SOL    HW1 2813   0.599   2.364   2.867 -0.4115  0.9846  0.1902
  938SOL    HW2 2814   0.694   2.225   2.877  2.0179  0.4890  1.8855
  939SOL     OW 2815   2.342   1.755   2.628 -0.3161  0.1474  0.1954
  939SOL    HW1 2816   2.418   1.694   2.603 -1.4523  1.8883  2.1890
  939SOL    HW2 2817   2.347   1.840   2.570 -2.0330  1.3942 -1.7382
  940SOL     OW 2818   1.580   2.051   0.576  0.2581 -0.2810  0.2032
  940SOL    HW1 2819   1.575   1.959   0.532  1.4630  0.2956 -1.2278
  940SOL    HW2 2820   1.677   2.071   0.592  0.4004  0.2595 -0.7947
  941SOL     OW 2821   1.968   2.653   3.010 -0.3460 -0.1837 -0.0081
  941SOL    HW1 2822   2.001   2.555   3.001 -1.4773 -2.5614  0.6820
  941SOL    HW2 2823   2.011   2.714   2.943 -0.3747  0.6246  1.0454
  942SOL     OW 2824   1.369   2.474   0.712  0.0309 -0.1032 -0.5981
  942SOL    HW1 2825   1.361   2.576   0.723  1.0829 -1.2150 -2.5508
  942SOL    HW2 2826   1.328   2.429   0.792  0.5366  1.0556 -1.4460
  943SOL     OW 2827   2.126   1.129   1.632  0.2771  0.2603 -0.2300
  943SOL    HW1 2828   2.130   1.171   1.727 -2.2231  2.4698  3.0595
  943SOL    HW2 2829   2.029   1.126   1.595 -1.5171  0.5706  3.3261
  944SOL     OW 2830   1.356   1.013   2.430 -0.3184  0.0694 -0.1359
  944SOL    HW1 2831   1.262   0.997   2.393 -2.8200  0.0746  1.3715
  944SOL    HW2 2832   1.364   1.103   2.471  3.3870 -2.2608 -1.3225
  945SOL     OW 2833   2.762   2.022   1.170  0.1603 -0.1115 -0.1774
  945SOL    HW1 2834   2.743   1.942   1.233  3.0847 -0.1533  2.5329
  945SOL    HW2 2835   2.710   2.104   1.191 -2.4143  0.7929  0.1122
  946SOL     OW 2836   0.545   0.858   2.766  0.1433  0.0010 -0.4865
  946SOL    HW1 2837   0.483   0.927   2.813 -3.0471  0.2423 -1.2667
  946SOL    HW2 2838   0.599   0.888   2.686 -3.8342 -0.3091  1.3835
  947SOL     OW 2839   1.853   2.926   1.769  0.4351 -0.6283  0.4723
  947SOL    HW1 2840   1.849   2.985   1.850 -0.9295 -1.1976 -1.5768
  947SOL    HW2 2841   1.943   2.880   1.773  1.2378  2.5610 -0.2210
  948SOL     OW 2842   0.307   1.643   0.896 -0.0500 -0.0041  0.3253
  948SOL    HW1 2843   0.269   1.708   0.964 -1.9636 -0.1257  0.5059
  948SOL    HW2 2844   0.284   1.547   0.916  2.1687  0.5942  0.0693
  949SOL     OW 2845   1.178   1.170   1.926  0.3858  0.3867  0.1272
  949SOL    HW1 2846   1.179   1.211   1.833  0.1035  1.9164 -0.0080
  949SOL    HW2 2847   1.226   1.231   1.993  2.0143 -0.4730 -2.1708
  950SOL     OW 2848   0.248   0.906   1.015  0.0180 -0.5667  0.4774
  950SOL    HW1 2849   0.280   0.958   0.931  0.9095  0.1761  2.0729
  950SOL    HW2 2850   0.285   0.812   1.014  0.5528  0.3305 -0.0766
  951SOL     OW 2851   0.307   2.014   2.059 -0.3636  0.0729 -0.1656
  951SOL    HW1 2852   0.353   1.924   2.077 -0.0154  0.7369  0.2674
  951SOL    HW2 2853   0.336   2.050   1.970 -0.7200 -2.0594 -0.1507
  952SOL     OW 2854   1.599   1.529   0.325 -0.4501 -0.0570 -0.0377
  952SOL    HW1 2855   1.558   1.613   0.286 -0.4443  0.9835  2.3675
  952SOL    HW2 2856   1.599   1.453   0.253 -2.7251 -0.8101 -0.3026
  953SOL     OW 2857   1.224   0.608   3.049  0.0597  0.2083 -0.5345
  953SOL    HW1 2858   1.182   0.517   3.032  1.3520 -1.4561 -0.3097
  953SOL    HW2 2859   1.156   0.682   3.027 -0.0154 -3.2750 -0.5324
  954SOL     OW 2860   2.129   0.994   0.525 -0.4549  0.2356  0.1321
  954SOL    HW1 2861   2.127   1.088   0.569  0.4066  1.3014  0.8577
  954SOL    HW2 2862   2.037   0.966   0.495 -0.1468  0.1920 -1.9525
  955SOL     OW 2863   2.629   2.724   3.003  0.5716 -0.5278 -0.0503
  955SOL    HW1 2864   2.622   2.716   2.899  2.8795 -0.4384  0.1752
  955SOL    HW2 2865   2.725   2.752   3.028 -0.6753  1.0816 -0.4788
  956SOL     OW 2866   1.156   0.692   1.424  0.1235  0.8799  0.1367
  956SOL    HW1 2867   1.174   0.746   1.338  0.4410 -1.2425 -0.3756
  956SOL    HW2 2868   1.214   0.608   1.434 -0.7807  0.7408  2.6960
  957SOL     OW 2869   1.643   1.183   1.418 -0.3370 -0.6826  0.3892
  957SOL    HW1 2870   1.727   1.182   1.474 -0.9657  1.8205 -3.1644
  957SOL    HW2 2871   1.568   1.222   1.472  1.1027 -1.9637 -1.0993
  958SOL     OW 2872   0.338   1.836   0.521  0.6387  0.3965 -0.0302
  958SOL    HW1 2873   0.360   1.774   0.445  0.2881  2.2062  2.3242
  958SOL    HW2 2874   0.416   1.849   0.587 -0.4946  1.5849 -0.2007
  959SOL     OW 2875   1.974   1.411   1.068 -0.4122 -0.0932  0.4628
  959SOL    HW1 2876   1.954   1.486   1.136 -0.5245  1.5615 -1.1936
  959SOL    HW2 2877   1.936   1.328   1.101  0.0625  2.0611  0.0646
  960SOL     OW 2878   2.980   1.333   2.847 -0.3823 -0.5958  0.3192
  960SOL    HW1 2879   3.064   1.320   2.789  1.2100 -3.5003 -1.9000
  960SOL    HW2 2880   2.927   1.247   2.857  0.4633  2.5876 -0.3535
  961SOL     OW 2881   1.066   1.494   0.690 -0.0428 -0.0716 -0.0004
  961SOL    HW1 2882   0.993   1.422   0.669  3.7815 -3.0038 -0.3614
  961SOL    HW2 2883   1.025   1.579   0.732  1.3915  3.2588 -0.4508
  962SOL     OW 2884   1.023   1.136   0.403 -0.2934  0.0937  0.5008
  962SOL    HW1 2885   1.043   1.075   0.479 -0.5290  2.6615 -0.2034
  962SOL    HW2 2886   1.075   1.224   0.409 -1.6390 -2.4770 -0.5868
  963SOL     OW 2887   1.264   2.015   2.264 -0.0494 -0.3163 -0.1744
  963SOL    HW1 2888   1.349   2.073   2.279 -0.6007 -0.0600  1.7953
  963SOL    HW2 2889   1.208   2.014   2.345  1.1982  2.0910 -2.0884
  964SOL     OW 2890   2.923   2.787   3.035  0.3180  0.3658 -0.3590
  964SOL    HW1 2891   2.910   2.872   2.975  1.1919  0.7716  0.0844
  964SOL    HW2 2892   2.951   2.706   2.978  0.8218 -2.3839 -2.7514
  965SOL     OW 2893   0.640   2.371   0.141 -0.1811 -0.2903  0.5402
  965SOL    HW1 2894   0.724   2.361   0.082 -0.0408 -2.9280  0.7681
  965SOL    HW2 2895   0.618   2.473   0.155 -1.4270  2.3627  1.1542
  966SOL     OW 2896   3.047   1.937   2.797  0.0097  0.4487 -0.1492
  966SOL    HW1 2897   3.003   1.915   2.883  0.1530 -1.4644 -1.1959
  966SOL    HW2 2898   2.986   1.926   2.715  0.9195  0.5072  1.2987
  967SOL     OW 2899   2.008   2.953   0.078 -0.0813  0.1430 -0.1111
  967SOL    HW1 2900   1.936   2.942   0.147  0.0482  1.8735 -1.0161
  967SOL    HW2 2901   2.091   2.899   0.112  0.1201 -0.0969  1.2164
  968SOL     OW 2902   2.020   2.908   0.596  0.0553  0.4362 -0.7010
  968SOL    HW1 2903   1.921   2.891   0.583  0.5748  1.1133  0.1842
  968SOL    HW2 2904   2.046   2.903   0.695 -2.2028  0.5188 -2.7214
  969SOL     OW 2905   0.641   1.314   2.332 -0.1742  0.4053 -0.3283
  969SOL    HW1 2906   0.597   1.228   2.369 -0.6514  0.3961 -4.6911
  969SOL    HW2 2907   0.727   1.336   2.383  0.6469 -0.6359 -1.2354
  970SOL     OW 2908   1.564   1.363   0.981  0.2575 -0.0809  0.0885
  970SOL    HW1 2909   1.556   1.262   0.973 -2.2232 -0.3792  0.4366
  970SOL    HW2 2910   1.572   1.391   1.079  1.0097  0.2821  0.9593
  971SOL     OW 2911   2.217   0.029   1.587  0.3661  0.2461  0.0884
  971SOL    HW1 2912   2.170   0.104   1.646  0.5894  0.8878 -0.4371
  971SOL    HW2 2913   2.167   0.009   1.501  0.2719 -0.4588  1.6264
  972SOL     OW 2914   0.140   2.810   1.649  0.3307 -0.0248 -0.1271
  972SOL    HW1 2915   0.237   2.800   1.684 -2.0412 -2.5415  0.7318
  972SOL    HW2 2916   0.093   2.720   1.637  0.6955 -1.2902  0.8717
  973SOL     OW 2917   0.260   0.282   2.530 -0.9662  0.0938  0.0641
  973SOL    HW1 2918   0.206   0.197   2.542  1.4620 -0.9149  0.8663
  973SOL    HW2 2919   0.213   0.358   2.584 -2.3541 -0.0644  0.6775
  974SOL     OW 2920   2.339   1.090   2.479 -0.0736 -0.2041 -0.3200
  974SOL    HW1 2921   2.338   1.000   2.532 -0.6261 -0.3092 -1.7475
  974SOL    HW2 2922   2.253   1.109   2.425 -2.8761 -1.3237  0.5539
  975SOL     OW 2923   0.642   0.300   1.565  0.3646  0.1541  0.6706
  975SOL    HW1 2924   0.603   0.223   1.514 -3.0471  2.8049  0.4513
  975SOL    HW2 2925   0.607   0.388   1.521 -0.0831  0.6230 -0.0819
  976SOL     OW 2926   0.756   2.132   2.304 -0.5474 -0.3446 -0.6482
  976SOL    HW1 2927   0.668   2.184   2.319 -2.3624  1.2332 -0.9053
  976SOL    HW2 2928   0.786   2.082   2.389 -0.7119  0.9427 -0.0607
  977SOL     OW 2929   0.753   0.162   0.541  0.1538  0.8652  0.0030
  977SOL    HW1 2930   0.668   0.191   0.587  1.3566 -1.9639 -1.2706
  977SOL    HW2 2931   0.732   0.139   0.439  0.5526  0.3058 -2.4661
  978SOL     OW 2932   2.799   1.411   2.203 -0.3029  0.5276 -0.2182
  978SOL    HW1 2933   2.888   1.366   2.183  0.8456  2.5893  0.4756
  978SOL    HW2 2934   2.802   1.447   2.298  1.0628  0.5681 -3.4795
  979SOL     OW 2935   1.724   0.042   1.666 -0.1219 -0.6918  0.1157
  979SOL    HW1 2936   1.689   0.092   1.748 -1.1275  0.3588 -2.5459
  979SOL    HW2 2937   1.753   3.036   1.699  0.2207  0.2791 -1.4885
  980SOL     OW 2938   1.467   1.658   1.858  0.4898  0.0561  0.5652
  980SOL    HW1 2939   1.443   1.623   1.768  0.7051 -0.3549  1.6197
  980SOL    HW2 2940   1.384   1.709   1.892 -3.2458  0.8026 -1.5313
  981SOL     OW 2941   2.665   0.746   1.309 -0.4094  0.2260  0.3715
  981SOL    HW1 2942   2.595   0.679   1.282 -1.3045  0.0415 -0.3719
  981SOL    HW2 2943   2.660   0.782   1.402  2.8510  1.9759 -2.3192
  982SOL     OW 2944   0.466   0.020   2.764 -0.7732 -0.1770  0.0211
  982SOL    HW1 2945   0.512   3.060   2.682  2.1428  0.8287 -0.1926
  982SOL    HW2 2946   0.374   3.076   2.764 -1.1370  2.0169  1.7943
  983SOL     OW 2947   2.516   0.612   2.448 -0.0540  0.3437 -0.2123
  983SOL    HW1 2948   2.529   0.710   2.425 -0.0535 -2.5639  1.9190
  983SOL    HW2 2949   2.535   0.556   2.365 -0.3702  1.1970 -1.5328
  984SOL     OW 2950   1.303   3.054   1.938  0.3531  0.1010  0.1610
  984SOL    HW1 2951   1.364   3.044   2.017 -1.4357 -1.0335 -1.0557
  984SOL    HW2 2952   1.213   3.008   1.951  2.0090 -1.3274  1.3163
  985SOL     OW 2953   1.837   1.827   2.145 -0.5258  0.1957  0.2881
  985SOL    HW1 2954   1.883   1.908   2.110  1.6840 -1.9608  0.4008
  985SOL    HW2 2955   1.732   1.838   2.136 -3.2026  1.0221  2.5978
  986SOL     OW 2956   2.672   0.419   1.344 -0.7926  0.7811  0.3134
  986SOL    HW1 2957   2.738   0.471   1.287 -2.6391 -0.9760  0.6107
  986SOL    HW2 2958   2.626   0.483   1.411  2.1757 -0.4104 -0.7936
  987SOL     OW 2959   2.606   1.090   1.476 -0.1830  0.3138 -0.9766
  987SOL    HW1 2960   2.530   1.134   1.530 -1.9099 -1.5429  1.3697
  987SOL    HW2 2961   2.618   1.114   1.381  1.2940 -0.3437 -0.1264
  988SOL     OW 2962   2.843   1.020   2.029 -0.1073  0.0398 -0.3367
  988SOL    HW1 2963   2.926   0.970   2.069  0.9939 -2.2769  0.7515
  988SOL    HW2 2964   2.777   1.044   2.109 -1.0499  1.0478  5.2317
  989SOL     OW 2965   1.513   2.106   0.119 -0.2930  0.1248 -0.0016
  989SOL    HW1 2966   1.608   2.083   0.092  1.9378  2.0220  2.5611
  989SOL    HW2 2967   1.477   2.194   0.084 -1.4760 -1.2960 -2.2444
  990SOL     OW 2968   1.479   0.728   2.567  0.0873 -0.0560 -0.1169
  990SOL    HW1 2969   1.495   0.640   2.511  2.0405  2.0557 -1.2481
  990SOL    HW2 2970   1.507   0.807   2.510  0.0831 -1.1004  1.1675
  991SOL     OW 2971   1.311   0.835   0.576 -0.1504 -0.0918 -0.4574
  991SOL    HW1 2972   1.326   0.798   0.668  0.8290  1.2859  0.7093
  991SOL    HW2 2973   1.404   0.854   0.538  1.5727 -2.5579  1.3186
  992SOL     OW 2974   2.636   1.908   0.949  0.0099 -0.0698  0.0546
  992SOL    HW1 2975   2.648   1.972   0.869  1.4674 -0.3540  0.1781
  992SOL    HW2 2976   2.674   1.942   1.038  0.1167 -0.8608  2.4559
  993SOL     OW 2977   0.036   0.724   0.914 -0.5673 -0.6802  0.2134
  993SOL    HW1 2978   0.098   0.788   0.967  0.7800  0.6545  1.6921
  993SOL    HW2 2979   0.063   0.720   0.813 -0.1289 -2.5442 -1.6544
  994SOL     OW 2980   0.187   2.005   2.461  0.1900 -0.4007 -0.0134
  994SOL    HW1 2981   0.254   2.057   2.402  1.5864 -0.0918 -0.8488
  994SOL    HW2 2982   0.159   2.065   2.538 -0.5098 -1.2739 -3.7931
  995SOL     OW 2983   1.906   1.036   2.785  0.6541 -0.4452  0.2991
  995SOL    HW1 2984   1.867   0.949   2.824 -1.8944 -0.6909  0.1448
  995SOL    HW2 2985   1.833   1.081   2.735  1.6793 -4.6354  0.7080
  996SOL     OW 2986   2.894   1.208   0.644  0.6523 -0.5116 -0.0012
  996SOL    HW1 2987   2.880   1.121   0.693  1.2392 -0.2867 -0.3645
  996SOL    HW2 2988   2.808   1.267   0.657 -3.4939  1.6946  1.3549
  997SOL     OW 2989   1.735   0.890   2.121  0.3021 -0.1129 -0.2837
  997SOL    HW1 2990   1.722   0.789   2.147  0.6305  0.2582  1.9755
  997SOL    HW2 2991   1.788   0.895   2.033  0.0311 -1.1101 -1.4844
  998SOL     OW 2992   3.013   1.791   0.302  0.2562  0.0568 -0.0641
  998SOL    HW1 2993   2.980   1.869   0.248 -0.3888 -1.9302  1.1052
  998SOL    HW2 2994   2.988   1.791   0.400  0.3058  1.0234 -0.7623
  999SOL     OW 2995   3.072   2.270   0.132  0.0593 -0.1079 -0.0781
  999SOL    HW1 2996   0.072   2.218   0.148  0.1866  2.2131  1.3115
  999SOL    HW2 2997   3.047   2.323   0.217  0.3887  1.0950  1.1567
 1000SOL     OW 2998   0.875   0.668   2.567 -0.3336  0.5381  0.2243
 1000SOL    HW1 2999   0.945   0.678   2.642 -2.1812 -2.6369  0.7225
 1000SOL    HW2 3000   0.918   0.692   2.474  0.4002  2.6200 -2.8968
   3.08585   3.08585   3.08585
