1000 SPC/Fw water molecules t= 290.00000 step= 290000
 3000
    1SOL     OW    1   2.620   2.826   1.082 -0.0882  0.2489 -0.0357
    1SOL    HW1    2   2.641   2.760   1.011  3.8244  0.5794 -0.0675
    1SOL    HW2    3   2.687   2.896   1.103 -1.7570 -0.3036 -0.5657
    2SOL     OW    4   2.716   1.968   0.928  0.1818  0.4415  0.1289
    2SOL    HW1    5   2.675   1.947   0.833 -2.0778 -0.3834 -1.8635
    2SOL    HW2    6   2.773   1.891   0.961 -1.7210  0.6397  0.1463
    3SOL     OW    7   0.725   2.827   2.802  0.1848  0.1079  0.4738
    3SOL    HW1    8   0.710   2.917   2.763  0.5363 -1.2777 -1.3631
    3SOL    HW2    9   0.696   2.759   2.733 -0.9987 -2.3194 -0.8635
    4SOL     OW   10   2.063   2.296   1.336  0.1507  0.3392 -0.2243
    4SOL    HW1   11   2.129   2.374   1.355  2.6239 -0.1203  0.0895
    4SOL    HW2   12   2.112   2.207   1.345  2.0012  1.1091 -0.1550
    5SOL     OW   13   1.652   1.014   1.148 -0.1881 -0.1404 -0.3167
    5SOL    HW1   14   1.657   0.921   1.183 -0.2003 -1.4262 -1.6142
    5SOL    HW2   15   1.740   1.066   1.179  3.2300  0.4105  0.0552
    6SOL     OW   16   2.239   2.980   0.091 -0.6041  0.0296 -0.1448
    6SOL    HW1   17   2.293   2.968   0.175  0.7748 -0.9908 -3.2166
    6SOL    HW2   18   2.139   2.967   0.098  3.2622 -0.1559  0.5578
    7SOL     OW   19   2.744   1.211   1.400  0.0552  0.1450 -0.1876
    7SOL    HW1   20   2.834   1.201   1.452 -0.8461 -0.9105  0.9262
    7SOL    HW2   21   2.752   1.280   1.326  0.6334 -0.9683  1.2451
    8SOL     OW   22   1.459   2.597   1.230 -0.2049  0.0471 -0.0130
    8SOL    HW1   23   1.547   2.561   1.270  1.8033  0.6305 -2.0068
    8SOL    HW2   24   1.387   2.528   1.206  0.8553 -0.8154 -1.2764
    9SOL     OW   25   1.441   3.049   2.274  1.1919 -0.3390 -0.3470
    9SOL    HW1   26   1.403   2.958   2.250 -1.0854 -1.7532  2.6449
    9SOL    HW2   27   1.463   3.106   2.194 -0.7663  0.2422  2.0065
   10SOL     OW   28   0.582   2.185   0.876  0.4869 -0.0300 -0.6748
   10SOL    HW1   29   0.561   2.187   0.778  0.9686  1.1546  3.3589
   10SOL    HW2   30   0.654   2.121   0.902 -2.5256  1.3692  1.5648
   11SOL     OW   31   1.641   1.436   1.001 -0.3428 -0.0248 -0.0588
   11SOL    HW1   32   1.715   1.471   1.062 -1.0191 -1.9267  0.0573
   11SOL    HW2   33   1.563   1.410   1.060  0.5018 -0.7660 -0.0039
   12SOL     OW   34   2.609   2.411   1.734 -0.1795  0.1566  0.5199
   12SOL    HW1   35   2.645   2.493   1.681  1.5003  0.7272 -0.5521
   12SOL    HW2   36   2.681   2.376   1.799  0.6411  0.1423  0.3582
   13SOL     OW   37   2.281   3.009   0.516 -0.0432  0.2740 -0.2097
   13SOL    HW1   38   2.192   2.997   0.466 -0.8478 -1.0844  1.8413
   13SOL    HW2   39   2.283   3.087   0.579 -1.7870  1.1632 -1.8517
   14SOL     OW   40   1.800   2.354   0.770  0.1897  0.2094 -0.1791
   14SOL    HW1   41   1.839   2.267   0.733 -0.0836  0.2407 -0.0568
   14SOL    HW2   42   1.728   2.394   0.708  2.4468  0.3288  2.8319
   15SOL     OW   43   2.893   2.115   2.026 -0.1136  0.1779  0.0640
   15SOL    HW1   44   2.977   2.054   1.997  1.0585  0.0789 -1.0635
   15SOL    HW2   45   2.886   2.122   2.131  1.1203 -0.6937  2.9322
   16SOL     OW   46   2.070   2.429   0.525  0.1644  0.0938 -0.1314
   16SOL    HW1   47   2.147   2.471   0.477 -0.3122 -2.4009  4.2659
   16SOL    HW2   48   2.028   2.491   0.591  2.9888  0.9378 -1.4518
   17SOL     OW   49   0.692   0.032   1.217 -0.0787  0.5832 -0.2235
   17SOL    HW1   50   0.684   3.052   1.253  0.2623  0.0582  0.1723
   17SOL    HW2   51   0.771   0.032   1.150 -2.7871 -1.6419  0.3673
   18SOL     OW   52   1.297   1.067   0.087 -0.0620 -0.0719 -0.1746
   18SOL    HW1   53   1.206   1.116   0.080  1.4175  2.4154 -0.7667
   18SOL    HW2   54   1.292   0.986   0.142  2.4474  0.6342 -2.5429
   19SOL     OW   55   1.818   1.887   0.330  0.0170  0.0170 -0.7091
   19SOL    HW1   56   1.832   1.957   0.258 -0.0073 -2.0896  0.8233
   19SOL    HW2   57   1.762   1.809   0.296  1.6424  0.2658 -0.1570
   20SOL     OW   58   2.504   1.751   2.030  0.4433  0.0854  0.4307
   20SOL    HW1   59   2.500   1.853   2.024 -0.7943 -1.8969  0.3909
   20SOL    HW2   60   2.411   1.720   2.055  1.7553  0.4533 -2.4862
   21SOL     OW   61   1.004   1.375   0.511  0.1678 -0.6358 -0.2881
   21SOL    HW1   62   0.974   1.304   0.577  0.4656  1.4242  0.5917
   21SOL    HW2   63   0.933   1.429   0.455 -0.1353  0.2933 -0.0883
   22SOL     OW   64   2.094   2.975   1.524 -0.2626 -0.5046 -0.0054
   22SOL    HW1   65   2.038   2.965   1.613 -2.1879  0.2546  1.8161
   22SOL    HW2   66   2.150   3.061   1.528  0.3615  0.9495 -2.9643
   23SOL     OW   67   0.129   0.743   2.124 -0.3121  0.3580 -0.4443
   23SOL    HW1   68   0.101   0.693   2.206  1.7137  0.8167 -2.6813
   23SOL    HW2   69   0.201   0.810   2.150 -0.3719  1.3809  1.1564
   24SOL     OW   70   2.421   2.693   0.198  0.3944 -0.0739 -0.2114
   24SOL    HW1   71   2.436   2.787   0.234 -2.0654 -3.1866 -1.7425
   24SOL    HW2   72   2.492   2.652   0.137 -1.5300 -1.4055  3.0781
   25SOL     OW   73   1.202   3.096   2.407 -0.8462  0.4157 -0.4236
   25SOL    HW1   74   1.288   3.084   2.351  0.6917  2.2058 -2.5501
   25SOL    HW2   75   1.213   0.050   2.480 -0.8004  1.7973 -0.3820
   26SOL     OW   76   1.623   2.149   0.351 -0.3108 -0.3162 -0.0576
   26SOL    HW1   77   1.709   2.203   0.359  4.2573  0.5548  2.8052
   26SOL    HW2   78   1.580   2.164   0.258 -1.8535 -1.2233 -4.4879
   27SOL     OW   79   2.486   1.581   3.091 -0.4084  0.1288  0.0379
   27SOL    HW1   80   2.400   1.542   3.061  1.2456  1.3568  1.5012
   27SOL    HW2   81   2.564   1.516   3.088 -1.5137 -0.9632  0.9182
   28SOL     OW   82   0.192   1.391   1.631 -0.3404 -0.3320 -0.2093
   28SOL    HW1   83   0.139   1.397   1.718  0.4573  0.0244 -1.0280
   28SOL    HW2   84   0.147   1.444   1.553 -1.1144 -0.9496 -2.2602
   29SOL     OW   85   2.240   2.506   1.383  0.0541 -0.1209 -0.4436
   29SOL    HW1   86   2.222   2.602   1.408  1.1046 -1.7409  0.1815
   29SOL    HW2   87   2.342   2.488   1.392  2.3149 -1.3664  0.1546
   30SOL     OW   88   1.694   0.519   0.689  0.0251  0.0891  0.4571
   30SOL    HW1   89   1.719   0.558   0.782 -2.2301 -0.7691 -3.6192
   30SOL    HW2   90   1.602   0.557   0.653 -3.6463  0.1821 -0.2601
   31SOL     OW   91   2.041   2.476   1.763  0.1695  0.2268 -0.7205
   31SOL    HW1   92   1.971   2.511   1.694 -1.9975  2.1492 -1.6763
   31SOL    HW2   93   2.077   2.386   1.737 -2.6156 -1.2615 -0.1472
   32SOL     OW   94   0.836   1.605   1.011  0.2611 -0.5890 -0.0077
   32SOL    HW1   95   0.844   1.553   0.921 -0.1722 -0.9545 -0.1281
   32SOL    HW2   96   0.859   1.702   1.006 -0.5503  1.5080 -2.5022
   33SOL     OW   97   0.229   0.022   2.455  0.2546 -0.1697 -0.1475
   33SOL    HW1   98   0.293   0.065   2.516 -1.7590  0.2394 -3.1608
   33SOL    HW2   99   0.239   0.074   2.372  0.2231 -0.6091  2.1465
   34SOL     OW  100   1.714   2.928   0.539  0.5706  0.8430 -0.5459
   34SOL    HW1  101   1.777   3.004   0.514  1.2870 -1.0815  1.4485
   34SOL    HW2  102   1.636   2.913   0.478 -1.2719 -0.3661  4.9159
   35SOL     OW  103   2.210   2.775   1.385 -0.3125  0.4707 -0.7319
   35SOL    HW1  104   2.273   2.813   1.311 -1.5734  1.5006  1.2979
   35SOL    HW2  105   2.168   2.856   1.439  0.9676 -0.9426  1.8572
   36SOL     OW  106   1.700   2.425   2.208 -0.5975  0.2060 -0.0975
   36SOL    HW1  107   1.735   2.401   2.302 -0.5094 -0.1743  1.9343
   36SOL    HW2  108   1.651   2.512   2.218 -0.2870 -0.1877 -0.5347
   37SOL     OW  109   0.809   2.907   2.008 -0.4634 -0.4483 -0.0476
   37SOL    HW1  110   0.870   2.934   1.931  1.7610 -1.3552 -1.4233
   37SOL    HW2  111   0.864   2.927   2.096  1.2433  0.0688  1.0334
   38SOL     OW  112   3.099   0.054   2.633 -0.2616  0.0998 -0.6902
   38SOL    HW1  113   3.108   0.048   2.737 -0.2633  0.5472 -0.5015
   38SOL    HW2  114   0.054   0.012   2.578  0.7390  0.7648  0.9400
   39SOL     OW  115   2.392   0.843   1.550 -0.6154  0.5314  0.3843
   39SOL    HW1  116   2.460   0.919   1.533 -2.1038  1.8316 -0.7065
   39SOL    HW2  117   2.309   0.852   1.490 -1.5668 -2.7043  3.6859
   40SOL     OW  118   1.239   2.776   3.110 -0.2666 -0.0903 -0.1440
   40SOL    HW1  119   1.147   2.810   0.003 -1.8631 -1.9892  2.4472
   40SOL    HW2  120   1.304   2.844   0.022  0.3622  0.1994 -0.5792
   41SOL     OW  121   2.316   1.175   1.021 -0.1698  0.2957 -0.1399
   41SOL    HW1  122   2.417   1.157   1.029 -2.2324 -1.2171  2.2868
   41SOL    HW2  123   2.291   1.177   0.921 -2.3163  3.3216  2.4387
   42SOL     OW  124   0.454   0.500   0.929 -0.1302  0.7012  0.0285
   42SOL    HW1  125   0.549   0.514   0.896  0.0001 -0.0341 -1.4452
   42SOL    HW2  126   0.395   0.556   0.868  2.2981 -0.1805 -0.1066
   43SOL     OW  127   2.940   1.503   2.711 -0.0595 -0.0161 -0.2720
   43SOL    HW1  128   2.840   1.486   2.740 -2.6487  0.0781 -0.3555
   43SOL    HW2  129   2.962   1.467   2.621 -0.0868 -1.3619  0.3906
   44SOL     OW  130   2.831   0.145   1.677  0.0569 -0.0100 -0.0048
   44SOL    HW1  131   2.879   0.053   1.660  0.5844 -0.9777 -1.9523
   44SOL    HW2  132   2.816   0.156   1.776  0.1762  0.1087  0.9439
   45SOL     OW  133   0.638   0.157   1.781  0.2435 -0.4202 -0.2589
   45SOL    HW1  134   0.645   0.055   1.791  2.0402  1.8660  2.6485
   45SOL    HW2  135   0.540   0.180   1.803  1.3265 -0.9928  0.9648
   46SOL     OW  136   1.362   2.834   2.610 -0.3809 -0.3068 -0.1981
   46SOL    HW1  137   1.280   2.795   2.571 -0.6646  2.3878  2.1919
   46SOL    HW2  138   1.394   2.899   2.540 -1.8720 -1.9314  1.3793
   47SOL     OW  139   1.805   1.791   0.786 -0.2335 -0.2557 -0.4620
   47SOL    HW1  140   1.776   1.854   0.855  1.9208 -2.1873  0.7413
   47SOL    HW2  141   1.900   1.758   0.809  0.5414 -1.6178 -0.2563
   48SOL     OW  142   1.006   2.244   0.484 -0.1126  0.4413  0.5315
   48SOL    HW1  143   1.018   2.335   0.443 -0.6039 -1.8753  1.6295
   48SOL    HW2  144   0.947   2.250   0.566  1.5062 -0.7535 -0.6267
   49SOL     OW  145   2.181   0.073   2.451  0.2645  0.4408 -0.1273
   49SOL    HW1  146   2.242   3.108   2.444 -0.3444  0.9495  1.6107
   49SOL    HW2  147   2.143   0.068   2.542  1.8957  1.2007  0.5794
   50SOL     OW  148   2.002   0.282   0.227  0.2312 -0.0861 -0.0202
   50SOL    HW1  149   2.016   0.275   0.329 -1.7863 -1.0537  0.5354
   50SOL    HW2  150   1.933   0.355   0.206 -1.0542 -1.5022  0.4555
   51SOL     OW  151   2.028   0.871   0.668  0.3129  0.3057  0.1705
   51SOL    HW1  152   2.061   0.960   0.633  1.3619 -4.5886 -0.2358
   51SOL    HW2  153   1.996   0.884   0.765  0.9872  1.5552  0.1588
   52SOL     OW  154   1.117   1.611   1.375  0.2501 -0.2469 -0.1062
   52SOL    HW1  155   1.072   1.565   1.454  1.5834  2.3322 -2.3394
   52SOL    HW2  156   1.088   1.573   1.284  0.8016 -1.5804 -0.9032
   53SOL     OW  157   0.881   1.696   2.312 -0.3152  0.9132 -0.2308
   53SOL    HW1  158   0.814   1.629   2.273  0.4914 -2.2529  0.5275
   53SOL    HW2  159   0.880   1.773   2.243 -0.4734  1.2825 -0.9512
   54SOL     OW  160   2.635   0.154   1.481  0.1402  0.2693  0.4671
   54SOL    HW1  161   2.726   0.152   1.525 -2.5356  1.3005  1.5038
   54SOL    HW2  162   2.579   0.092   1.538 -0.4770  1.0584 -0.0260
   55SOL     OW  163   2.633   1.837   0.702  0.4547  0.2493 -0.1624
   55SOL    HW1  164   2.706   1.766   0.706 -0.9869  1.2764  0.0966
   55SOL    HW2  165   2.634   1.867   0.603  1.1756  0.1765 -2.4477
   56SOL     OW  166   1.045   0.330   2.062 -0.3195 -0.2836  0.6913
   56SOL    HW1  167   1.132   0.269   2.055  1.7049  0.9000 -1.3591
   56SOL    HW2  168   1.045   0.373   2.155  0.6234 -1.4510  0.6753
   57SOL     OW  169   1.481   1.282   0.129  0.3286  0.4008  0.3757
   57SOL    HW1  170   1.411   1.203   0.113 -2.4911 -4.1286 -1.3414
   57SOL    HW2  171   1.569   1.263   0.079 -1.3242 -0.4307 -0.3888
   58SOL     OW  172   0.278   1.091   1.861 -0.1163 -0.4637  0.4623
   58SOL    HW1  173   0.212   1.077   1.935  1.8497  0.7422 -0.7367
   58SOL    HW2  174   0.330   1.177   1.867 -1.6683 -3.7521  2.8220
   59SOL     OW  175   1.419   3.008   0.077 -0.6679  0.2005  0.1324
   59SOL    HW1  176   1.472   3.007   3.111 -1.0751 -3.3502  0.7694
   59SOL    HW2  177   1.356   3.090   0.082  1.1039 -0.0940 -1.1307
   60SOL     OW  178   2.967   2.161   0.325 -0.4859  0.1625  0.0672
   60SOL    HW1  179   2.907   2.095   0.275  1.3527 -1.0081 -2.0610
   60SOL    HW2  180   2.942   2.256   0.307 -1.4581  1.3677 -0.1192
   61SOL     OW  181   1.261   2.890   0.536 -0.6003  0.0616  0.8097
   61SOL    HW1  182   1.327   2.813   0.554  2.2193  0.1206  1.3709
   61SOL    HW2  183   1.308   2.982   0.552 -0.6907 -1.4024 -0.2292
   62SOL     OW  184   2.189   2.106   2.612 -0.1276  0.6159 -0.0373
   62SOL    HW1  185   2.132   2.040   2.562  0.3610  0.8037  4.2372
   62SOL    HW2  186   2.232   2.168   2.540  0.6352  0.7360 -0.9435
   63SOL     OW  187   2.531   2.322   0.536  0.4085  0.4795  0.0003
   63SOL    HW1  188   2.455   2.357   0.597 -1.5851  0.5132  0.0583
   63SOL    HW2  189   2.517   2.226   0.506  2.4299  0.5817  1.2536
   64SOL     OW  190   1.785   1.109   2.695  0.1415  0.0401 -0.3047
   64SOL    HW1  191   1.717   1.171   2.738  1.5085  1.7362 -1.6025
   64SOL    HW2  192   1.764   1.007   2.697 -0.3958 -3.0435 -1.2829
   65SOL     OW  193   1.488   1.899   2.885 -0.1743 -0.3762 -0.2136
   65SOL    HW1  194   1.475   1.900   2.986 -3.5494  0.6107  0.8978
   65SOL    HW2  195   1.405   1.852   2.848 -0.0783  0.9473 -1.2510
   66SOL     OW  196   0.472   1.142   2.080 -0.2573  0.3543 -0.3278
   66SOL    HW1  197   0.561   1.111   2.109  0.3686 -0.6019 -3.4963
   66SOL    HW2  198   0.469   1.200   1.996 -1.1559 -0.6314  0.2388
   67SOL     OW  199   2.280   2.962   2.823 -0.3241  0.1447 -0.1249
   67SOL    HW1  200   2.271   2.882   2.891 -0.4345  1.1029  2.2963
   67SOL    HW2  201   2.348   3.033   2.850  2.1660 -1.1053 -0.6457
   68SOL     OW  202   1.107   2.673   1.445 -0.0563  0.0583 -0.2511
   68SOL    HW1  203   1.151   2.581   1.456  3.7501 -2.1311  0.5737
   68SOL    HW2  204   1.184   2.731   1.410  1.7112 -2.0257 -2.7989
   69SOL     OW  205   0.831   2.707   0.350  0.4975  0.2033  0.7361
   69SOL    HW1  206   0.764   2.729   0.279  2.4853 -1.6045 -0.9285
   69SOL    HW2  207   0.804   2.714   0.446 -0.7441 -1.5375  0.4855
   70SOL     OW  208   2.553   0.364   2.593 -0.1889  0.0062 -0.0051
   70SOL    HW1  209   2.457   0.381   2.617  2.8328 -1.9853 -0.4120
   70SOL    HW2  210   2.572   0.351   2.494 -0.1623 -2.3947 -0.0475
   71SOL     OW  211   0.847   1.387   2.457 -0.4642  0.2071  0.1355
   71SOL    HW1  212   0.867   1.469   2.515  1.6736  1.4404 -0.6188
   71SOL    HW2  213   0.781   1.316   2.496  0.6047 -1.6659 -1.0119
   72SOL     OW  214   0.103   2.129   0.186  0.1812 -0.4576  0.0895
   72SOL    HW1  215   0.109   2.202   0.116 -3.1623 -0.7607 -1.4297
   72SOL    HW2  216   0.013   2.146   0.240 -1.2117  1.6064  0.4310
   73SOL     OW  217   1.237   1.294   0.395  0.6662 -0.3840  0.2382
   73SOL    HW1  218   1.273   1.360   0.330 -2.2079  0.5989  1.9298
   73SOL    HW2  219   1.147   1.321   0.434  1.0984 -1.5500  0.3178
   74SOL     OW  220   2.279   2.752   2.630  0.2220 -0.2083 -0.1357
   74SOL    HW1  221   2.212   2.679   2.650  0.2598 -2.2263  0.3319
   74SOL    HW2  222   2.273   2.828   2.700 -0.4479  0.5152  2.6865
   75SOL     OW  223   2.230   1.677   0.967 -0.3747 -0.0193 -0.5964
   75SOL    HW1  224   2.180   1.762   1.000 -1.6027 -0.1460  0.9226
   75SOL    HW2  225   2.330   1.702   0.950  4.7568 -0.8983 -0.1206
   76SOL     OW  226   1.947   2.687   1.402 -0.1096  0.1699  0.6214
   76SOL    HW1  227   2.045   2.721   1.401 -0.1987  1.2199 -1.1730
   76SOL    HW2  228   1.915   2.683   1.499 -1.5968 -1.0451  1.1471
   77SOL     OW  229   2.419   0.230   1.915  0.2741 -0.4218  1.1882
   77SOL    HW1  230   2.426   0.332   1.936 -0.0288  0.7758 -0.4154
   77SOL    HW2  231   2.325   0.200   1.899  1.9114  0.0703 -2.4922
   78SOL     OW  232   1.451   0.832   2.994 -0.3830 -0.1416 -0.4918
   78SOL    HW1  233   1.510   0.775   3.062  0.2237  0.6539  0.0711
   78SOL    HW2  234   1.477   0.817   2.898 -1.5920  0.6011 -0.7010
   79SOL     OW  235   2.398   1.394   2.291  0.1650  0.6198 -0.0157
   79SOL    HW1  236   2.369   1.485   2.332 -0.3050  3.5941 -1.2580
   79SOL    HW2  237   2.483   1.367   2.339 -0.3546 -0.6794 -0.9259
   80SOL     OW  238   1.989   1.537   1.820 -0.2819  0.2058  0.4561
   80SOL    HW1  239   2.004   1.473   1.742 -0.7705 -1.3380 -1.6053
   80SOL    HW2  240   1.887   1.562   1.821  0.1039 -1.7242  1.2175
   81SOL     OW  241   1.398   0.535   1.353 -0.4152  0.1560 -0.2764
   81SOL    HW1  242   1.318   0.558   1.413 -1.9318  0.7198  0.8876
   81SOL    HW2  243   1.380   0.482   1.270 -0.1876  1.2283 -1.4326
   82SOL     OW  244   1.581   2.612   1.659  0.0379 -0.2944 -0.3763
   82SOL    HW1  245   1.542   2.523   1.627 -0.2022  1.1983 -2.0425
   82SOL    HW2  246   1.508   2.680   1.632 -1.5245 -0.6510 -0.2079
   83SOL     OW  247   0.338   0.071   0.583  0.2529  0.1288 -0.1776
   83SOL    HW1  248   0.395   0.017   0.645  0.7748  0.4880 -2.4859
   83SOL    HW2  249   0.237   0.064   0.613 -2.0451  1.5310 -0.3001
   84SOL     OW  250   0.598   1.308   3.117  0.4183 -0.0284  0.6932
   84SOL    HW1  251   0.498   1.294   3.107  0.4295 -2.2025  3.1932
   84SOL    HW2  252   0.614   1.361   0.085  0.9010 -1.1593  0.0139
   85SOL     OW  253   2.668   2.012   1.659  0.2221 -0.0663 -0.3059
   85SOL    HW1  254   2.665   1.915   1.641  1.6974  2.0929 -0.4269
   85SOL    HW2  255   2.652   2.033   1.758  0.9884  0.9222  0.5436
   86SOL     OW  256   0.000   2.596   1.585 -0.0637  0.2677 -0.3118
   86SOL    HW1  257   3.079   2.503   1.587  0.9744  0.7113 -3.6939
   86SOL    HW2  258   0.021   2.626   1.487  2.4049  1.4705  0.0831
   87SOL     OW  259   0.628   0.337   2.506  0.0228 -0.6421 -0.1541
   87SOL    HW1  260   0.695   0.279   2.463 -0.3636  1.5794  0.1439
   87SOL    HW2  261   0.547   0.282   2.523 -0.3704  2.6671  2.2350
   88SOL     OW  262   0.446   2.336   1.062 -0.0520 -0.0107 -0.4493
   88SOL    HW1  263   0.495   2.274   0.999 -0.3659  0.1709 -0.7083
   88SOL    HW2  264   0.449   2.293   1.152  0.5931 -0.8882  0.7304
   89SOL     OW  265   1.036   0.782   1.411 -0.3325  0.4327 -0.0338
   89SOL    HW1  266   1.103   0.721   1.460 -0.1232 -1.5456  2.1650
   89SOL    HW2  267   0.942   0.780   1.454  0.1749 -1.7219 -1.6906
   90SOL     OW  268   2.997   1.585   1.687 -0.1285 -0.4919 -0.0176
   90SOL    HW1  269   2.965   1.665   1.744  0.5770 -0.1146  0.8073
   90SOL    HW2  270   3.068   1.535   1.744  2.6503  0.4035 -2.0240
   91SOL     OW  271   1.078   1.000   0.991 -0.5024 -0.6831  0.3993
   91SOL    HW1  272   1.116   0.921   1.050  0.2886  0.6140 -2.6443
   91SOL    HW2  273   1.054   0.961   0.899  0.5322  1.3573  0.6466
   92SOL     OW  274   2.691   0.625   0.970 -0.6619  0.8611  0.2363
   92SOL    HW1  275   2.619   0.656   1.030  0.9081 -0.2774 -1.0786
   92SOL    HW2  276   2.648   0.601   0.881  2.1513 -0.8243 -0.2786
   93SOL     OW  277   1.925   0.777   2.885  0.0398  0.1410 -0.3180
   93SOL    HW1  278   1.840   0.725   2.882  1.8314  0.5460  1.7879
   93SOL    HW2  279   1.977   0.773   2.799  3.1465  0.1252  1.0898
   94SOL     OW  280   2.329   1.648   2.374 -0.5959  0.7860 -0.1744
   94SOL    HW1  281   2.277   1.662   2.282 -3.1957  1.8934 -3.5082
   94SOL    HW2  282   2.407   1.713   2.379 -0.6961 -2.0392  2.0721
   95SOL     OW  283   2.183   0.590   1.249 -0.1409  0.2195  0.0959
   95SOL    HW1  284   2.097   0.634   1.229  0.7360 -5.0902  0.5701
   95SOL    HW2  285   2.173   0.491   1.259  0.6548  0.8603 -0.5013
   96SOL     OW  286   2.386   3.104   2.236 -0.3489  0.2614 -0.6612
   96SOL    HW1  287   2.323   3.089   2.159 -0.9010  0.7069 -0.5649
   96SOL    HW2  288   2.373   0.082   2.272  0.6237  3.7921 -0.7599
   97SOL     OW  289   2.533   0.473   1.380  0.0179 -0.4469 -0.2097
   97SOL    HW1  290   2.631   0.456   1.413  0.0449 -1.1117  1.2068
   97SOL    HW2  291   2.470   0.494   1.453 -0.9629  0.4263  0.0336
   98SOL     OW  292   1.475   2.380   1.564  0.1842 -0.1815 -0.7073
   98SOL    HW1  293   1.519   2.294   1.591 -1.1226  0.1626  1.5238
   98SOL    HW2  294   1.524   2.415   1.486 -0.1515 -2.1822  2.3489
   99SOL     OW  295   2.284   2.115   1.542 -0.2519 -0.0033 -0.3844
   99SOL    HW1  296   2.376   2.157   1.523  1.6083 -2.3307  0.7599
   99SOL    HW2  297   2.236   2.074   1.460  1.3171 -0.6533  3.2815
  100SOL     OW  298   0.577   1.035   2.764 -0.3138  0.3570 -0.2397
  100SOL    HW1  299   0.526   0.949   2.772  1.7562  1.4974 -0.0104
  100SOL    HW2  300   0.670   1.032   2.808  0.6317 -0.6168 -0.3267
  101SOL     OW  301   2.177   0.385   2.949 -0.6354 -0.3822  0.4684
  101SOL    HW1  302   2.239   0.323   3.006 -0.0133  0.1110 -3.2945
  101SOL    HW2  303   2.146   0.464   3.002  1.6295 -1.6297  0.9917
  102SOL     OW  304   0.472   0.907   1.751 -0.0184 -0.2666 -0.1287
  102SOL    HW1  305   0.546   0.881   1.817  0.7845 -1.0656  0.6611
  102SOL    HW2  306   0.392   0.949   1.799  0.5358 -0.5019  2.9212
  103SOL     OW  307   3.078   0.565   2.919  0.4522  0.5510 -0.8374
  103SOL    HW1  308   0.042   0.531   2.967  2.0461  0.2222 -0.7246
  103SOL    HW2  309   3.106   0.625   2.842 -1.6927 -1.1759 -1.2925
  104SOL     OW  310   0.786   0.434   2.700  0.0418 -0.5950  0.4611
  104SOL    HW1  311   0.750   0.530   2.729  0.9507  4.6804 -0.0263
  104SOL    HW2  312   0.727   0.398   2.625 -1.7230  0.7311 -1.4270
  105SOL     OW  313   2.246   1.849   1.691  0.4947 -0.5103 -0.1088
  105SOL    HW1  314   2.166   1.846   1.756 -2.6626  0.2417  0.3769
  105SOL    HW2  315   2.261   1.938   1.650 -0.9869 -0.1404 -0.7699
  106SOL     OW  316   2.078   0.616   0.668  0.0496 -0.5199 -0.3607
  106SOL    HW1  317   2.010   0.579   0.598  2.7218 -0.5397 -0.9345
  106SOL    HW2  318   2.053   0.715   0.692  2.3390 -0.7769  0.7107
  107SOL     OW  319   3.063   1.776   0.754 -0.3797 -0.3654 -0.1575
  107SOL    HW1  320   3.047   1.815   0.843 -0.5287  2.5436 -1.9863
  107SOL    HW2  321   3.046   1.840   0.675  0.3609  1.8048 -1.5918
  108SOL     OW  322   2.738   2.623   1.602 -0.1392 -0.0363  0.1871
  108SOL    HW1  323   2.822   2.573   1.582 -0.3687  0.0369  3.0645
  108SOL    HW2  324   2.747   2.721   1.571 -1.3373  2.4968  0.5485
  109SOL     OW  325   1.941   3.003   0.975  0.8404  0.6777  1.0154
  109SOL    HW1  326   1.904   3.054   0.896  0.0189  0.2827 -0.2279
  109SOL    HW2  327   2.037   2.974   0.951 -1.4940 -2.4132  1.5944
  110SOL     OW  328   0.638   2.124   2.783  0.0254  0.0933 -0.0720
  110SOL    HW1  329   0.580   2.067   2.721  1.6014  0.7168  2.6149
  110SOL    HW2  330   0.708   2.176   2.726  0.1636  1.6075 -2.2549
  111SOL     OW  331   1.479   2.282   2.097  0.2965  0.0573  0.1865
  111SOL    HW1  332   1.462   2.360   2.033 -1.6815  2.6645 -1.6778
  111SOL    HW2  333   1.561   2.303   2.157  1.4031 -0.2913  0.0494
  112SOL     OW  334   2.044   2.398   2.950 -0.4115 -0.4399 -0.1389
  112SOL    HW1  335   2.048   2.498   2.952 -0.5638 -1.3355 -1.9965
  112SOL    HW2  336   1.971   2.356   3.011  1.3619 -1.2121  3.4786
  113SOL     OW  337   1.468   2.287   1.224  0.2725 -0.3810  0.5967
  113SOL    HW1  338   1.549   2.328   1.272  1.2376  3.7353  0.9785
  113SOL    HW2  339   1.451   2.192   1.259  2.0787 -1.2852  0.9927
  114SOL     OW  340   3.089   0.933   0.710 -0.1064  0.5102  0.6040
  114SOL    HW1  341   3.045   0.969   0.791 -1.1202 -1.0391 -0.4866
  114SOL    HW2  342   3.037   0.860   0.670  0.8927 -0.5231 -0.5523
  115SOL     OW  343   0.734   1.059   3.031 -0.2782 -0.0959 -0.3077
  115SOL    HW1  344   0.676   1.141   3.033 -0.0904 -1.6221  0.2205
  115SOL    HW2  345   0.705   1.007   3.113 -0.9208 -0.5053 -0.3230
  116SOL     OW  346   2.596   1.287   2.439  0.6141  0.2414 -0.1796
  116SOL    HW1  347   2.566   1.268   2.535 -1.2050 -1.4617 -1.9217
  116SOL    HW2  348   2.588   1.202   2.383  0.7639 -0.4668  1.1954
  117SOL     OW  349   0.230   2.837   0.775 -0.3865 -0.0798 -0.3506
  117SOL    HW1  350   0.224   2.763   0.848 -2.8193  0.4385  2.6732
  117SOL    HW2  351   0.237   2.792   0.689 -0.3353  2.6334  0.5416
  118SOL     OW  352   0.930   1.958   2.448  0.3808 -0.4565  0.3022
  118SOL    HW1  353   0.956   1.875   2.393  2.9461 -0.8004  1.9445
  118SOL    HW2  354   0.938   1.943   2.551 -1.4159  0.0409 -1.7335
  119SOL     OW  355   0.098   2.428   2.677 -0.1523  0.2704 -0.0140
  119SOL    HW1  356   0.091   2.332   2.710  0.0581  1.3492  0.2938
  119SOL    HW2  357   0.159   2.480   2.738  0.6130 -0.1098  1.2726
  120SOL     OW  358   1.245   0.590   0.010 -0.1402 -0.4759  0.0708
  120SOL    HW1  359   1.241   0.681   3.083 -2.2032 -0.9432 -4.1419
  120SOL    HW2  360   1.153   0.557   0.042 -2.3589 -0.0335  0.8956
  121SOL     OW  361   1.291   2.934   1.076  0.2149 -0.5164  0.1567
  121SOL    HW1  362   1.343   2.858   1.036 -0.3770 -1.1843 -0.8058
  121SOL    HW2  363   1.351   3.014   1.097 -2.1738  2.4012  2.7400
  122SOL     OW  364   2.536   2.475   1.421  0.0325 -0.1147  0.1446
  122SOL    HW1  365   2.530   2.373   1.446  0.4630 -1.7913  0.5541
  122SOL    HW2  366   2.588   2.526   1.489 -2.6757  0.4654  1.7424
  123SOL     OW  367   0.652   2.519   0.700  0.5747  0.0428 -0.0906
  123SOL    HW1  368   0.669   2.605   0.647  0.6689 -1.0310 -1.7341
  123SOL    HW2  369   0.577   2.534   0.768 -0.5109  1.4159  1.1896
  124SOL     OW  370   2.402   0.571   0.244 -0.1712 -0.2094 -0.5866
  124SOL    HW1  371   2.308   0.545   0.217  3.4654  0.8097  1.6515
  124SOL    HW2  372   2.462   0.542   0.168 -0.6814 -1.0710 -0.5891
  125SOL     OW  373   0.546   1.047   0.424 -0.4294 -0.4331  0.3052
  125SOL    HW1  374   0.548   0.956   0.469  0.5448  1.3563 -1.5711
  125SOL    HW2  375   0.633   1.093   0.445 -4.1632 -1.7048  2.7235
  126SOL     OW  376   0.105   1.533   0.811  0.1001  0.4116  0.9705
  126SOL    HW1  377   0.085   1.462   0.884  3.3682 -1.9432  0.6348
  126SOL    HW2  378   0.054   1.621   0.816 -0.5318  0.6843  0.5000
  127SOL     OW  379   0.686   2.018   2.309  0.0689  0.0590  0.8854
  127SOL    HW1  380   0.728   1.973   2.226 -0.7972 -0.5977 -0.1689
  127SOL    HW2  381   0.748   2.027   2.389 -2.8707 -1.4145 -2.8464
  128SOL     OW  382   1.012   1.062   2.917  0.0558 -0.1297  0.1517
  128SOL    HW1  383   1.013   1.060   2.816 -2.0417  1.4177 -1.2408
  128SOL    HW2  384   0.916   1.063   2.952 -0.6456  2.5187  1.1029
  129SOL     OW  385   2.602   1.422   0.555 -0.4564  0.5494  0.3972
  129SOL    HW1  386   2.520   1.441   0.609  1.1409 -1.8073 -0.8180
  129SOL    HW2  387   2.648   1.511   0.527 -1.7726  2.2588 -1.2507
  130SOL     OW  388   2.375   1.254   1.418 -0.1710 -0.1313  0.4450
  130SOL    HW1  389   2.358   1.326   1.490  1.5558  0.6126 -0.0725
  130SOL    HW2  390   2.426   1.174   1.456 -1.3894 -1.2407  0.3488
  131SOL     OW  391   0.012   2.910   3.030 -0.2885 -0.7343  0.3702
  131SOL    HW1  392   0.027   2.809   3.015  0.5490  1.1214  0.6762
  131SOL    HW2  393   3.104   2.917   0.008  0.4958 -0.3132 -0.1592
  132SOL     OW  394   0.378   1.649   0.971  0.1309  0.8915  0.0290
  132SOL    HW1  395   0.429   1.657   0.884  1.2587 -0.6622  1.0274
  132SOL    HW2  396   0.304   1.718   0.978 -0.3616 -0.5707 -0.4908
  133SOL     OW  397   0.988   0.459   1.281  0.4071  0.0705  0.2823
  133SOL    HW1  398   1.025   0.385   1.339 -0.5015 -1.5673 -2.0369
  133SOL    HW2  399   0.997   0.546   1.326  2.1355 -2.0322  0.5155
  134SOL     OW  400   3.118   1.823   0.191  0.5291  0.2266  0.1392
  134SOL    HW1  401   3.063   1.781   0.115 -1.9603  0.0764  2.1369
  134SOL    HW2  402   0.042   1.909   0.155  0.3805  0.6816 -2.6929
  135SOL     OW  403   1.763   0.724   1.691  0.0766 -0.0902 -0.3182
  135SOL    HW1  404   1.799   0.808   1.639  0.4074  1.4268 -1.8187
  135SOL    HW2  405   1.709   0.671   1.625 -0.1355 -0.7943 -0.2359
  136SOL     OW  406   0.103   1.197   0.318 -0.2260  0.5433 -0.2797
  136SOL    HW1  407   0.080   1.284   0.373 -1.0402  0.4123  0.2268
  136SOL    HW2  408   0.059   1.117   0.368  0.9338 -0.8439  1.9110
  137SOL     OW  409   0.024   1.292   0.982  0.6665  0.3620  0.1452
  137SOL    HW1  410   0.083   1.212   0.992 -0.2462  2.0100  1.5653
  137SOL    HW2  411   0.036   1.354   1.063  1.0217 -0.6746  2.2434
  138SOL     OW  412   1.872   0.874   0.896  0.4586  0.3078  0.2630
  138SOL    HW1  413   1.841   0.778   0.915 -1.8634 -1.3624  1.3092
  138SOL    HW2  414   1.876   0.925   0.981 -0.1773 -2.7273  0.0934
  139SOL     OW  415   1.762   2.725   0.187  0.2953  0.1980  0.6745
  139SOL    HW1  416   1.685   2.799   0.201  0.0208 -0.5886  3.0906
  139SOL    HW2  417   1.775   2.664   0.271  0.6409 -2.1022  1.2605
  140SOL     OW  418   1.321   1.685   1.556 -0.0201 -0.2058 -1.0049
  140SOL    HW1  419   1.338   1.673   1.662  2.7135 -1.3076  2.8711
  140SOL    HW2  420   1.238   1.634   1.527  2.4561 -2.0472  2.7332
  141SOL     OW  421   1.718   1.923   0.585 -0.0806  0.1576 -0.3975
  141SOL    HW1  422   1.750   1.910   0.489  1.5059 -0.6365  2.6805
  141SOL    HW2  423   1.748   1.845   0.652 -0.2600  0.6982  1.2686
  142SOL     OW  424   0.964   0.536   0.066  0.0976  0.4794  0.3327
  142SOL    HW1  425   0.958   0.484   0.153 -0.7734  0.0349  2.7537
  142SOL    HW2  426   0.916   0.626   0.082  1.6347 -0.9677 -1.7591
  143SOL     OW  427   0.415   2.399   0.005  0.5629 -0.1241  0.4451
  143SOL    HW1  428   0.428   2.356   3.031 -1.6437 -2.5523 -0.1849
  143SOL    HW2  429   0.499   2.447   0.041  1.2268  0.9012  0.2005
  144SOL     OW  430   1.467   0.032   1.121  0.3268 -0.0162 -0.2099
  144SOL    HW1  431   1.439   0.043   1.218 -2.1422 -0.9490  1.5306
  144SOL    HW2  432   1.567   0.024   1.110 -1.1752 -3.5700  1.5646
  145SOL     OW  433   2.067   1.158   0.145 -0.5212 -0.1846 -0.4065
  145SOL    HW1  434   2.069   1.076   0.200  0.2718 -1.3681 -2.4442
  145SOL    HW2  435   1.980   1.198   0.168  2.7268 -2.3908 -2.2008
  146SOL     OW  436   0.088   2.285   0.927 -0.1506  0.2356  0.0700
  146SOL    HW1  437   0.022   2.262   0.850 -0.3937 -0.9477 -2.8401
  146SOL    HW2  438   0.041   2.337   1.005 -1.8108 -0.1255  0.1114
  147SOL     OW  439   2.453   3.090   1.564 -0.3166 -0.0340 -0.0500
  147SOL    HW1  440   2.435   3.057   1.659 -0.3351  2.5248  1.6682
  147SOL    HW2  441   2.472   3.011   1.499 -0.3627 -1.6619 -1.6827
  148SOL     OW  442   1.311   2.947   1.855  0.1839 -0.0161 -0.7808
  148SOL    HW1  443   1.256   3.009   1.797  0.4238 -1.4388 -1.5208
  148SOL    HW2  444   1.258   2.906   1.931  0.1591  1.4828 -0.7712
  149SOL     OW  445   1.813   0.272   2.236 -0.3335  0.3453  0.2781
  149SOL    HW1  446   1.743   0.309   2.300  0.0278 -2.1976  0.9023
  149SOL    HW2  447   1.805   0.311   2.143  1.5173  2.0836  2.0456
  150SOL     OW  448   0.005   2.815   0.349 -0.0281 -0.2382 -0.5917
  150SOL    HW1  449   0.024   2.904   0.300  0.3299  0.4113  0.6609
  150SOL    HW2  450   3.064   2.833   0.433  0.9921 -0.9195  2.7338
  151SOL     OW  451   0.655   2.511   0.099 -0.3498 -0.8575  0.4228
  151SOL    HW1  452   0.647   2.614   0.129  2.6210  3.1684 -1.3775
  151SOL    HW2  453   0.721   2.459   0.161 -0.6988  2.4521  0.4840
  152SOL     OW  454   2.862   3.007   0.783 -0.1933 -0.0470  0.3079
  152SOL    HW1  455   2.909   2.957   0.854  1.0567 -0.1388 -1.9397
  152SOL    HW2  456   2.864   3.108   0.793 -0.2151  0.6583  0.0523
  153SOL     OW  457   2.457   0.213   0.985  0.2128 -0.1393  0.3444
  153SOL    HW1  458   2.398   0.170   0.918 -0.9464  4.2109  2.5064
  153SOL    HW2  459   2.532   0.271   0.946  0.0089  1.5602 -1.3922
  154SOL     OW  460   0.726   0.513   2.206  0.1001 -0.1689  0.3491
  154SOL    HW1  461   0.777   0.570   2.266 -2.9627 -0.6116 -0.2467
  154SOL    HW2  462   0.774   0.492   2.123 -2.4477 -1.2664  2.5413
  155SOL     OW  463   0.079   1.237   1.355  0.4515 -0.2446 -0.3381
  155SOL    HW1  464   0.131   1.293   1.288  0.0111  1.6802  3.9607
  155SOL    HW2  465   0.143   1.195   1.423  1.8368  2.2772 -0.8103
  156SOL     OW  466   2.687   2.066   2.999 -0.5172  0.3105 -0.3093
  156SOL    HW1  467   2.706   1.974   3.032  1.3798  2.8711 -4.6965
  156SOL    HW2  468   2.593   2.096   3.012  2.6838  0.7736  0.2376
  157SOL     OW  469   0.806   0.754   0.155 -0.2881 -0.4332 -0.1458
  157SOL    HW1  470   0.768   0.700   0.237  0.4812 -0.8501  3.9344
  157SOL    HW2  471   0.846   0.840   0.192 -1.0866 -0.0258  1.6009
  158SOL     OW  472   2.480   0.078   2.623 -0.1833  0.1191  0.0513
  158SOL    HW1  473   2.496   0.043   2.530 -0.5657  2.2193 -0.8464
  158SOL    HW2  474   2.481   0.179   2.621  3.1827 -0.2219  2.2878
  159SOL     OW  475   0.549   0.266   0.518  0.0368  0.1142 -0.5137
  159SOL    HW1  476   0.453   0.228   0.521 -0.7147 -1.3111 -1.7909
  159SOL    HW2  477   0.588   0.233   0.606 -2.0940  4.1170 -1.8115
  160SOL     OW  478   1.240   1.770   2.728  0.3414  0.3158  0.1279
  160SOL    HW1  479   1.176   1.830   2.681  1.2030 -2.1457  0.3316
  160SOL    HW2  480   1.279   1.702   2.660 -3.6263 -2.5236 -1.1449
  161SOL     OW  481   0.085   1.239   2.733 -0.1013 -0.2325  0.3918
  161SOL    HW1  482   0.049   1.246   2.640  1.4027  2.0601  0.7518
  161SOL    HW2  483   0.009   1.246   2.800  0.3488  0.9774 -0.2966
  162SOL     OW  484   0.558   2.476   1.385  0.1532  0.2025 -0.0260
  162SOL    HW1  485   0.476   2.537   1.379 -0.5793  0.6482  1.3963
  162SOL    HW2  486   0.531   2.383   1.351  1.6067 -0.5483  2.5600
  163SOL     OW  487   2.312   0.275   2.316 -0.0154  0.4713  1.2622
  163SOL    HW1  488   2.254   0.211   2.370 -1.2050 -0.9886  0.0497
  163SOL    HW2  489   2.250   0.346   2.280  0.0441 -0.7609  0.6968
  164SOL     OW  490   2.474   1.279   0.388 -0.0978  0.9007  0.4593
  164SOL    HW1  491   2.544   1.336   0.448  3.5031  3.8215  3.0595
  164SOL    HW2  492   2.394   1.338   0.362 -0.8564 -2.3578 -0.4196
  165SOL     OW  493   0.269   0.472   1.547  0.1829  0.1401  0.2662
  165SOL    HW1  494   0.232   0.510   1.633 -1.6704  1.0297  1.8096
  165SOL    HW2  495   0.362   0.436   1.568 -2.6877  0.6965 -1.0673
  166SOL     OW  496   2.114   0.950   0.329  0.3577 -0.2918  0.0162
  166SOL    HW1  497   2.053   0.873   0.344  0.8939 -4.2288 -1.5451
  166SOL    HW2  498   2.198   0.924   0.275  0.2433  0.9468 -1.1626
  167SOL     OW  499   2.959   0.552   0.596  0.0266  0.2359  0.0259
  167SOL    HW1  500   2.890   0.495   0.550  0.6615  1.3458  0.8873
  167SOL    HW2  501   3.003   0.511   0.676  0.3391  2.2372  0.9319
  168SOL     OW  502   1.556   2.642   2.231  0.3170 -0.0642  0.2542
  168SOL    HW1  503   1.625   2.702   2.177  0.8185  1.9597 -2.5194
  168SOL    HW2  504   1.468   2.691   2.240  1.1231  0.4538  0.0025
  169SOL     OW  505   0.925   1.560   0.737 -0.1299 -0.0495 -0.4085
  169SOL    HW1  506   1.019   1.580   0.772  1.5595 -0.1531 -0.3681
  169SOL    HW2  507   0.937   1.506   0.648 -0.2559  0.6420 -3.0331
  170SOL     OW  508   0.106   0.581   1.172  0.3427  0.1277 -0.2637
  170SOL    HW1  509   0.094   0.607   1.070 -1.5344  0.0252 -2.5535
  170SOL    HW2  510   0.047   0.635   1.234 -0.8016  0.9826 -0.1044
  171SOL     OW  511   1.266   2.184   2.718  0.1069 -0.5487  0.0219
  171SOL    HW1  512   1.212   2.189   2.804  0.5507  2.0341 -3.4701
  171SOL    HW2  513   1.344   2.239   2.731 -2.8792 -0.9617  0.6563
  172SOL     OW  514   0.169   2.929   1.318 -0.1092 -0.0113 -0.1159
  172SOL    HW1  515   0.230   2.902   1.244 -2.6601 -0.1704  1.0645
  172SOL    HW2  516   0.186   3.022   1.361  1.5888 -1.7578  0.0383
  173SOL     OW  517   1.614   0.834   2.723  0.2578  0.0039  0.0861
  173SOL    HW1  518   1.621   0.738   2.759 -1.1555  0.4603  1.2588
  173SOL    HW2  519   1.643   0.835   2.626  2.7298 -0.3082  1.0941
  174SOL     OW  520   1.647   3.013   2.807  0.3207  0.2965 -0.0496
  174SOL    HW1  521   1.620   3.015   2.709 -0.2989 -1.2180  2.2411
  174SOL    HW2  522   1.581   2.957   2.859  0.5784  0.9836 -0.2082
  175SOL     OW  523   1.864   2.258   0.460  0.0383 -0.5623  0.5353
  175SOL    HW1  524   1.854   2.196   0.539  1.1382 -2.6798  2.8868
  175SOL    HW2  525   1.944   2.320   0.483 -0.4526  0.7822 -1.4195
  176SOL     OW  526   1.669   0.131   2.908  0.4994  0.0948 -0.3373
  176SOL    HW1  527   1.660   0.035   2.866  0.9138 -2.5039 -1.4945
  176SOL    HW2  528   1.763   0.160   2.889 -1.2536 -0.7311  0.4639
  177SOL     OW  529   1.037   1.940   0.753  0.0676  0.2514 -0.6051
  177SOL    HW1  530   0.963   1.937   0.676 -1.4130 -1.5836 -1.2605
  177SOL    HW2  531   1.105   2.008   0.732  0.3360  0.4200  1.7728
  178SOL     OW  532   2.734   2.320   0.050  0.2332  0.0510  0.5544
  178SOL    HW1  533   2.752   2.241   3.105  0.4159 -0.4286 -3.0525
  178SOL    HW2  534   2.636   2.320   0.078 -0.4853  1.9056 -1.9434
  179SOL     OW  535   0.103   2.772   2.636 -0.6055  0.5013  0.3723
  179SOL    HW1  536   0.004   2.768   2.655  0.5193  1.5699 -1.3511
  179SOL    HW2  537   0.115   2.767   2.540 -0.8830  1.1895 -3.2416
  180SOL     OW  538   1.695   1.289   0.773 -0.8661 -0.2678 -0.1758
  180SOL    HW1  539   1.701   1.345   0.854 -1.3863  1.9750 -0.6626
  180SOL    HW2  540   1.605   1.238   0.778 -1.2831 -1.3801 -1.3862
  181SOL     OW  541   2.057   0.963   1.991  0.4481  0.5449  0.3556
  181SOL    HW1  542   1.999   0.986   2.072  1.9066 -1.4709  0.1011
  181SOL    HW2  543   2.015   0.888   1.935 -0.6016  1.3989 -0.6373
  182SOL     OW  544   2.692   2.967   2.439 -0.0184  0.1140  0.0084
  182SOL    HW1  545   2.731   2.995   2.524 -0.8522  1.3925 -3.0010
  182SOL    HW2  546   2.718   2.870   2.415  1.4589 -2.3317 -0.6223
  183SOL     OW  547   1.457   0.768   2.019 -0.0485  0.3737  0.3566
  183SOL    HW1  548   1.482   0.859   1.981  0.7574  1.9935 -1.7064
  183SOL    HW2  549   1.493   0.688   1.971 -0.1755 -0.4684 -0.3215
  184SOL     OW  550   0.245   1.148   1.549 -0.1254  0.2639 -0.2376
  184SOL    HW1  551   0.237   1.247   1.579  1.0836  0.0725  1.9396
  184SOL    HW2  552   0.215   1.084   1.627 -1.8168 -0.0082 -0.1620
  185SOL     OW  553   1.895   0.504   0.501 -0.1251  0.6736 -0.0155
  185SOL    HW1  554   1.809   0.510   0.555  2.1488  0.8804 -2.1651
  185SOL    HW2  555   1.873   0.512   0.403 -1.0341  1.7917  1.4216
  186SOL     OW  556   0.555   2.760   3.007 -0.6755  0.0682  0.2382
  186SOL    HW1  557   0.453   2.786   3.007 -2.6145 -1.3149  0.6517
  186SOL    HW2  558   0.602   2.829   2.951 -0.9278  0.8627  2.0828
  187SOL     OW  559   2.555   0.831   2.972 -0.2130  0.6106  0.0257
  187SOL    HW1  560   2.456   0.845   3.000  0.4265 -2.1176  0.3132
  187SOL    HW2  561   2.577   0.734   2.949 -1.6002  1.9397  1.8036
  188SOL     OW  562   2.970   1.606   1.344 -0.5446 -0.0095  0.3634
  188SOL    HW1  563   3.055   1.584   1.289  0.6590 -0.9598  0.2633
  188SOL    HW2  564   2.994   1.627   1.444  0.0310  2.0639 -2.1550
  189SOL     OW  565   2.587   0.220   0.191  0.3466 -0.1594 -0.1021
  189SOL    HW1  566   2.637   0.138   0.161  2.6992 -1.8023 -1.8233
  189SOL    HW2  567   2.615   0.313   0.157  0.2220  0.3858 -2.0589
  190SOL     OW  568   1.239   1.464   2.129  0.6575 -0.0660 -0.6374
  190SOL    HW1  569   1.198   1.461   2.222  0.4365 -0.0908  0.2382
  190SOL    HW2  570   1.282   1.378   2.106 -1.2505  1.5574 -3.0918
  191SOL     OW  571   2.914   0.589   1.700 -0.2304 -0.1194 -0.1206
  191SOL    HW1  572   2.952   0.511   1.644 -0.7123 -1.5217 -1.4137
  191SOL    HW2  573   2.918   0.560   1.795 -0.7339 -1.0880 -0.6424
  192SOL     OW  574   2.035   1.383   1.302 -0.3552 -0.0341  0.5351
  192SOL    HW1  575   2.056   1.371   1.404  1.0050 -1.7955  0.9622
  192SOL    HW2  576   2.121   1.366   1.252  2.1652 -2.1154 -1.2440
  193SOL     OW  577   1.150   0.795   1.156 -0.2238 -0.4843  0.3248
  193SOL    HW1  578   1.111   0.806   1.250 -2.8328  0.0324 -0.2614
  193SOL    HW2  579   1.115   0.710   1.117 -0.4663  0.4845  2.1605
  194SOL     OW  580   1.269   2.596   1.735 -0.6271  0.7228  0.2746
  194SOL    HW1  581   1.294   2.674   1.676 -2.3917 -3.8127 -0.6819
  194SOL    HW2  582   1.182   2.623   1.782  2.0456  0.9092 -1.6986
  195SOL     OW  583   1.967   0.129   2.873 -0.2857 -0.4443  0.0001
  195SOL    HW1  584   1.967   0.053   2.806  1.2637  1.6604 -2.1534
  195SOL    HW2  585   2.046   0.189   2.861  1.4672 -1.2940 -0.5478
  196SOL     OW  586   1.164   2.324   1.793  0.2594 -0.4028 -0.1382
  196SOL    HW1  587   1.067   2.337   1.782  2.6181 -1.2542 -1.0825
  196SOL    HW2  588   1.216   2.409   1.775  0.2277 -2.7191  0.4610
  197SOL     OW  589   0.996   2.914   1.051  0.3980  0.0750 -0.2633
  197SOL    HW1  590   0.987   2.866   0.963 -1.1328 -1.3216  2.5523
  197SOL    HW2  591   1.094   2.936   1.069 -0.9828 -0.6914 -4.5518
  198SOL     OW  592   0.979   0.907   0.738  0.1323 -0.4064  0.3241
  198SOL    HW1  593   0.941   0.847   0.811 -1.6394 -3.9181  0.7528
  198SOL    HW2  594   0.921   0.890   0.653  1.9327  0.5070 -0.3705
  199SOL     OW  595   3.117   2.770   1.794 -0.4792 -0.5472 -0.3117
  199SOL    HW1  596   3.111   2.704   1.718  1.6293 -1.9562  3.2045
  199SOL    HW2  597   0.097   2.780   1.815 -3.1064 -0.0219  2.6354
  200SOL     OW  598   1.943   2.095   2.360 -0.4732 -0.6938 -0.1912
  200SOL    HW1  599   1.982   2.033   2.431 -0.7530 -1.6253 -4.1853
  200SOL    HW2  600   1.938   2.049   2.273 -1.6723  1.7383  2.3573
  201SOL     OW  601   0.066   2.112   1.751  0.5362  0.3858 -0.1430
  201SOL    HW1  602   0.162   2.072   1.758  0.9629  2.8238  1.5192
  201SOL    HW2  603   0.037   2.103   1.658 -0.7969  1.5959  2.6762
  202SOL     OW  604   2.515   0.148   0.646 -0.0313  0.1391 -0.2583
  202SOL    HW1  605   2.532   0.231   0.580  2.4036  1.8723 -2.6884
  202SOL    HW2  606   2.567   0.067   0.616 -0.0903  2.9565  0.8323
  203SOL     OW  607   0.975   2.199   2.176 -0.9536  0.5666  0.2782
  203SOL    HW1  608   0.918   2.199   2.257 -1.5857  3.1792 -0.5460
  203SOL    HW2  609   1.069   2.159   2.188 -2.2546 -0.2417 -0.0076
  204SOL     OW  610   1.278   2.072   1.741  0.1937 -0.2888 -0.0097
  204SOL    HW1  611   1.365   2.104   1.706 -0.6261  1.8173 -0.0444
  204SOL    HW2  612   1.231   2.143   1.792  0.7604  1.3855 -1.1217
  205SOL     OW  613   1.301   1.658   1.835  0.7094  0.0077  0.5058
  205SOL    HW1  614   1.279   1.573   1.883 -0.1707 -0.4233 -2.4294
  205SOL    HW2  615   1.319   1.734   1.900 -1.9779 -0.3272  0.6487
  206SOL     OW  616   0.320   0.989   2.453  0.0727  0.2019 -0.1011
  206SOL    HW1  617   0.321   0.975   2.353 -0.1012  0.6356  2.4398
  206SOL    HW2  618   0.333   1.087   2.477  2.3187  0.8610  0.2545
  207SOL     OW  619   1.213   3.098   1.676 -0.2140  0.1635 -0.0344
  207SOL    HW1  620   1.242   0.072   1.697 -1.5424  1.1919 -1.2015
  207SOL    HW2  621   1.166   3.104   1.587  3.0537  3.4095  0.1178
  208SOL     OW  622   0.578   2.710   1.892  0.2586  0.1151 -0.0399
  208SOL    HW1  623   0.635   2.777   1.847 -4.9726  0.5531  3.7411
  208SOL    HW2  624   0.476   2.727   1.879 -2.3419  0.5100  0.2986
  209SOL     OW  625   1.394   0.660   0.224 -0.1957 -0.2461 -0.5386
  209SOL    HW1  626   1.496   0.663   0.213 -2.4071  4.3284 -0.1618
  209SOL    HW2  627   1.358   0.623   0.135  1.5034 -1.0263  4.2267
  210SOL     OW  628   2.985   0.235   0.559 -0.0544  0.3393  0.4288
  210SOL    HW1  629   2.973   0.242   0.661 -1.4539  0.1322 -0.5411
  210SOL    HW2  630   2.930   0.312   0.520  1.3890  2.3547 -2.1314
  211SOL     OW  631   0.605   0.628   1.268  0.0566 -0.4104 -0.0222
  211SOL    HW1  632   0.531   0.699   1.249 -0.4250 -0.4413 -0.5367
  211SOL    HW2  633   0.639   0.621   1.364 -1.8051 -0.4434 -3.1384
  212SOL     OW  634   1.126   1.789   1.169 -0.3777  0.1427 -0.1866
  212SOL    HW1  635   1.212   1.735   1.183 -1.3520  1.3004  2.3829
  212SOL    HW2  636   1.126   1.855   1.246 -0.0334  1.7229 -2.0262
  213SOL     OW  637   2.124   0.106   1.865  0.3935 -0.2394 -0.0297
  213SOL    HW1  638   2.025   0.117   1.843  1.3926 -3.0731 -2.8408
  213SOL    HW2  639   2.151   0.029   1.926 -4.0804  2.0328 -1.7147
  214SOL     OW  640   0.793   2.344   2.394  0.3554 -0.2867 -0.4010
  214SOL    HW1  641   0.812   2.441   2.380 -0.6035 -2.1659  1.9197
  214SOL    HW2  642   0.702   2.311   2.367  3.2036  4.1185 -1.2541
  215SOL     OW  643   2.550   1.705   1.460 -0.4984 -0.1799  0.2183
  215SOL    HW1  644   2.512   1.748   1.543 -2.2971  0.5495 -1.4664
  215SOL    HW2  645   2.579   1.608   1.476  0.8487  1.0641  0.1551
  216SOL     OW  646   0.525   1.095   1.568  0.6549 -0.5418  0.4203
  216SOL    HW1  647   0.518   1.008   1.618  1.8045  1.4276 -1.4606
  216SOL    HW2  648   0.438   1.139   1.559  2.3107 -2.4029  0.4885
  217SOL     OW  649   3.105   0.249   0.334 -0.1838  0.2357  0.0483
  217SOL    HW1  650   3.092   0.175   0.264 -1.6298 -1.9903  1.2182
  217SOL    HW2  651   3.059   0.219   0.418  1.3521 -2.0370 -3.8140
  218SOL     OW  652   1.811   1.768   1.243 -0.3024 -0.0727 -0.3864
  218SOL    HW1  653   1.755   1.819   1.174 -1.4226  1.2169  0.1742
  218SOL    HW2  654   1.838   1.674   1.219 -0.3052  1.7377 -2.6025
  219SOL     OW  655   1.586   0.417   0.105 -0.0602  0.0613 -1.0456
  219SOL    HW1  656   1.509   0.405   0.035  0.0643  0.6892  0.9050
  219SOL    HW2  657   1.558   0.377   0.197  0.5373 -2.9528 -0.7308
  220SOL     OW  658   1.709   1.891   1.039  0.0500 -0.1412  0.1728
  220SOL    HW1  659   1.706   1.995   1.019 -0.3873 -1.1858  1.9488
  220SOL    HW2  660   1.619   1.868   1.078 -2.9084  0.2445  0.9182
  221SOL     OW  661   2.848   0.792   0.633  0.1278 -0.5172 -0.2887
  221SOL    HW1  662   2.877   0.696   0.634 -1.5408  0.2449 -1.5355
  221SOL    HW2  663   2.792   0.810   0.717 -2.6639  2.3136  1.2875
  222SOL     OW  664   0.941   2.783   1.634 -0.2693  0.7179 -0.2426
  222SOL    HW1  665   0.993   2.753   1.553 -1.3686  2.3142 -0.4465
  222SOL    HW2  666   0.839   2.791   1.611 -1.0228  2.3081  0.8912
  223SOL     OW  667   1.440   0.482   2.936  0.2396 -0.0101  0.0711
  223SOL    HW1  668   1.385   0.451   2.851 -1.7149  1.5640 -0.5332
  223SOL    HW2  669   1.379   0.541   2.994  0.1812  0.7917  2.4529
  224SOL     OW  670   2.783   0.333   1.300  0.0492  1.0865  0.0213
  224SOL    HW1  671   2.734   0.292   1.379 -1.3744  3.1553  0.7946
  224SOL    HW2  672   2.782   0.433   1.316 -1.5933 -0.0164  0.0113
  225SOL     OW  673   0.712   1.540   1.600  0.2041  0.2054 -0.3362
  225SOL    HW1  674   0.717   1.623   1.543  1.0066  0.2505  0.2078
  225SOL    HW2  675   0.617   1.507   1.604  1.0366 -0.1031 -2.3446
  226SOL     OW  676   1.068   2.991   0.680  0.1046 -0.4455  0.2658
  226SOL    HW1  677   1.082   3.087   0.683  3.0216 -2.4773 -1.2732
  226SOL    HW2  678   1.147   2.958   0.626  1.3966 -0.1024  0.9750
  227SOL     OW  679   1.140   1.876   1.637  0.1548  0.4177  0.7801
  227SOL    HW1  680   1.216   1.814   1.608 -0.2301  1.4000 -1.2714
  227SOL    HW2  681   1.175   1.955   1.686  1.4221 -1.3633 -0.5757
  228SOL     OW  682   0.412   0.088   2.073  0.4112 -0.5535  0.3742
  228SOL    HW1  683   0.494   0.121   2.123 -0.3979 -1.5459  0.4563
  228SOL    HW2  684   0.397   0.141   1.986 -1.0904 -1.1313  0.4240
  229SOL     OW  685   2.791   0.771   0.217 -0.0652 -0.2761  0.4211
  229SOL    HW1  686   2.711   0.829   0.186  1.6924  0.5478  0.2160
  229SOL    HW2  687   2.863   0.765   0.143  0.4487  0.7177  0.8832
  230SOL     OW  688   0.065   1.445   1.854 -0.3814  0.4570 -0.3589
  230SOL    HW1  689   0.142   1.466   1.911 -0.9496 -1.6404 -0.1672
  230SOL    HW2  690   0.007   1.372   1.897 -0.0134 -1.7942  1.2445
  231SOL     OW  691   0.933   2.842   1.336 -0.3754  0.1180 -0.2203
  231SOL    HW1  692   0.998   2.771   1.377 -2.6368 -0.5796  0.8960
  231SOL    HW2  693   0.961   2.861   1.244 -1.0404 -0.4219  4.7159
  232SOL     OW  694   2.625   2.604   0.024 -0.3703 -0.2577 -0.4430
  232SOL    HW1  695   2.715   2.558   3.110  2.6709 -0.2263 -0.4683
  232SOL    HW2  696   2.552   2.613   3.069 -0.0757 -0.0219 -0.1969
  233SOL     OW  697   1.265   2.535   2.957  0.2480 -0.0815  0.4907
  233SOL    HW1  698   1.162   2.515   2.958 -1.2316  1.3941 -0.7112
  233SOL    HW2  699   1.280   2.628   2.999  2.1547  1.6041  1.7864
  234SOL     OW  700   0.850   1.268   2.046 -0.1258  0.1708 -0.1226
  234SOL    HW1  701   0.802   1.358   2.057  2.7063  1.0074 -2.8406
  234SOL    HW2  702   0.888   1.246   2.134 -0.3778  1.1207 -2.2007
  235SOL     OW  703   0.158   2.312   3.111  0.6108 -0.2329  0.5509
  235SOL    HW1  704   0.256   2.342   3.117  0.9862  1.3984  0.5125
  235SOL    HW2  705   0.094   2.384   0.019 -0.7728 -0.8387 -1.7114
  236SOL     OW  706   2.023   2.545   2.446  0.2625  0.1830  0.3304
  236SOL    HW1  707   2.085   2.523   2.520 -1.8558  0.9476 -2.1736
  236SOL    HW2  708   1.952   2.472   2.436 -2.8912  1.6258  0.0850
  237SOL     OW  709   2.215   1.114   1.250 -0.2538 -0.6191  0.9222
  237SOL    HW1  710   2.255   1.177   1.318  0.8955 -1.3731  0.3112
  237SOL    HW2  711   2.258   1.130   1.156 -2.4327 -0.4780  1.3518
  238SOL     OW  712   1.300   2.797   2.257 -0.7627 -0.1314 -0.2212
  238SOL    HW1  713   1.259   2.737   2.326  1.1563  3.0391 -1.7592
  238SOL    HW2  714   1.243   2.807   2.173 -1.6133 -0.3849 -2.5027
  239SOL     OW  715   0.801   2.290   1.969 -0.3067 -0.6621  0.0624
  239SOL    HW1  716   0.864   2.271   2.043  1.8154  0.3697 -0.8773
  239SOL    HW2  717   0.840   2.354   1.900 -0.7276  0.3772 -1.9338
  240SOL     OW  718   2.986   2.827   0.613  0.1277 -0.4389 -0.7323
  240SOL    HW1  719   3.035   2.755   0.667  1.5654  1.2785 -0.7167
  240SOL    HW2  720   2.951   2.900   0.676 -2.1889  1.0441  0.7121
  241SOL     OW  721   1.290   1.716   0.029  0.3135 -0.3167 -0.3745
  241SOL    HW1  722   1.274   1.629   0.082  0.3999 -0.3092 -1.2373
  241SOL    HW2  723   1.375   1.762   0.053 -1.2118  1.2316  0.5953
  242SOL     OW  724   2.300   0.897   3.112 -0.1926 -0.5528  0.3163
  242SOL    HW1  725   2.305   1.001   3.096 -0.5571  2.3120  2.7988
  242SOL    HW2  726   2.325   0.876   0.092  0.9602 -2.0462  0.1873
  243SOL     OW  727   0.809   0.386   1.930  0.6763 -0.0091 -0.3056
  243SOL    HW1  728   0.899   0.360   1.974 -0.2123 -0.7241  3.7021
  243SOL    HW2  729   0.760   0.299   1.897 -0.3424 -2.5701 -1.7639
  244SOL     OW  730   1.482   2.371   2.825 -0.4897  0.4421  0.1405
  244SOL    HW1  731   1.532   2.442   2.774  1.5563 -0.5375 -0.6192
  244SOL    HW2  732   1.411   2.414   2.881  2.9817  0.0366 -0.6082
  245SOL     OW  733   1.834   2.545   3.115 -0.0984 -0.0579 -0.1948
  245SOL    HW1  734   1.803   2.450   0.011  1.1180  0.8289 -0.4993
  245SOL    HW2  735   1.802   2.611   0.067  0.3848 -0.5897 -2.9162
  246SOL     OW  736   1.361   0.999   2.407 -0.0841  0.8544 -0.1071
  246SOL    HW1  737   1.462   1.013   2.383  0.0368 -2.0951  0.1164
  246SOL    HW2  738   1.300   1.081   2.400  2.8816 -1.4681 -3.7472
  247SOL     OW  739   2.751   0.949   2.546 -0.1528 -0.0344 -0.0495
  247SOL    HW1  740   2.713   1.003   2.630  0.6562  1.1524  2.9411
  247SOL    HW2  741   2.854   0.953   2.553  0.4517  0.6631 -3.0151
  248SOL     OW  742   3.098   1.236   1.991  0.3450  0.4242 -0.3659
  248SOL    HW1  743   0.002   1.137   1.999  1.3280 -0.7544 -0.3830
  248SOL    HW2  744   0.039   1.280   2.061  0.1582 -1.5959 -1.4976
  249SOL     OW  745   2.860   0.470   0.128 -0.8001  0.4000  0.2002
  249SOL    HW1  746   2.914   0.552   0.115 -0.1356  0.2137  0.6256
  249SOL    HW2  747   2.871   0.411   0.048  0.3899 -2.1535 -0.0342
  250SOL     OW  748   2.838   0.025   0.407 -0.4970 -0.3707 -0.5054
  250SOL    HW1  749   2.901   0.094   0.452  1.0487  0.8735  1.5622
  250SOL    HW2  750   2.769   3.109   0.473 -0.9100  1.5490  0.2147
  251SOL     OW  751   0.742   1.504   1.899  0.0121 -0.0851 -0.3008
  251SOL    HW1  752   0.829   1.556   1.915 -2.2076  1.5586  1.2310
  251SOL    HW2  753   0.730   1.461   1.810  1.3116 -0.3334  1.2644
  252SOL     OW  754   1.665   1.702   1.485  0.8193 -0.0630  0.2489
  252SOL    HW1  755   1.728   1.715   1.408  6.3986 -2.6009 -0.6261
  252SOL    HW2  756   1.568   1.726   1.458 -0.1389 -0.6540 -2.7851
  253SOL     OW  757   1.666   2.192   1.919  0.2221  0.1106 -0.6559
  253SOL    HW1  758   1.585   2.219   1.975  3.0790  1.4140 -2.1729
  253SOL    HW2  759   1.738   2.262   1.932  0.9595 -1.2814  0.6112
  254SOL     OW  760   0.542   2.293   2.319 -0.3214 -0.2058  0.0098
  254SOL    HW1  761   0.534   2.190   2.315  1.3003 -1.1766 -0.0661
  254SOL    HW2  762   0.489   2.335   2.239 -1.0926 -0.2431  0.1117
  255SOL     OW  763   1.468   0.332   0.790  0.4861 -0.2803 -0.2034
  255SOL    HW1  764   1.563   0.358   0.778 -0.8909 -0.9183  2.1794
  255SOL    HW2  765   1.412   0.403   0.834  0.6863  1.1929  1.0209
  256SOL     OW  766   1.802   2.198   1.356 -0.3372 -0.0609  0.1946
  256SOL    HW1  767   1.899   2.217   1.365 -0.0581  0.8504 -2.1101
  256SOL    HW2  768   1.789   2.162   1.266  0.1061  1.8649  1.3133
  257SOL     OW  769   0.237   2.466   2.433 -0.0521 -0.2585 -0.0216
  257SOL    HW1  770   0.340   2.477   2.435 -1.6418 -4.2067 -1.9839
  257SOL    HW2  771   0.194   2.455   2.529 -1.0560 -4.5317  2.2425
  258SOL     OW  772   0.716   1.040   2.097  0.0524  0.7733  0.2780
  258SOL    HW1  773   0.711   1.049   2.202  0.7338 -2.2718 -2.4828
  258SOL    HW2  774   0.734   1.126   2.044 -1.2176  1.7683 -1.3744
  259SOL     OW  775   1.331   0.755   2.263  0.2994 -0.7430  0.1552
  259SOL    HW1  776   1.317   0.847   2.302 -2.0537 -2.1134 -1.5229
  259SOL    HW2  777   1.389   0.753   2.179 -3.0215 -1.7724 -0.6402
  260SOL     OW  778   2.350   0.745   0.757 -0.3948 -0.0287  0.2415
  260SOL    HW1  779   2.352   0.751   0.857 -1.1237 -1.8707 -2.2355
  260SOL    HW2  780   2.261   0.710   0.723 -0.4312 -3.2978  1.6265
  261SOL     OW  781   0.946   0.413   0.301  0.1020 -0.1625 -0.0014
  261SOL    HW1  782   0.940   0.496   0.358  0.9806  0.1479 -1.2043
  261SOL    HW2  783   0.855   0.374   0.302 -1.1814  1.5269 -0.4904
  262SOL     OW  784   1.766   2.747   2.494  0.0185 -0.6110 -0.2213
  262SOL    HW1  785   1.852   2.702   2.472 -2.5086  1.3406 -0.6557
  262SOL    HW2  786   1.745   2.829   2.430 -1.5848  4.3586 -0.0546
  263SOL     OW  787   0.685   1.628   2.975  0.3942  0.6649 -0.2228
  263SOL    HW1  788   0.700   1.530   2.948 -0.1997  0.4118  0.0057
  263SOL    HW2  789   0.590   1.657   2.943 -0.8203 -0.3115 -0.7855
  264SOL     OW  790   0.181   1.814   1.983 -0.7557 -0.7830 -0.5460
  264SOL    HW1  791   0.280   1.841   2.003  2.8441  1.0894 -0.3127
  264SOL    HW2  792   0.173   1.792   1.886  0.5604 -0.7336  1.2085
  265SOL     OW  793   0.816   1.155   0.442  0.0327 -0.1341  0.3716
  265SOL    HW1  794   0.824   1.163   0.543 -1.4258 -1.8312  1.1228
  265SOL    HW2  795   0.905   1.156   0.395 -0.2195 -1.3263 -1.2637
  266SOL     OW  796   1.621   1.717   0.198 -0.7690 -0.0148 -0.1278
  266SOL    HW1  797   1.689   1.645   0.185 -1.2707  0.5156 -0.2577
  266SOL    HW2  798   1.538   1.687   0.249 -1.1276  2.0396  1.3297
  267SOL     OW  799   3.078   0.140   0.070  0.0175  0.2624  0.0160
  267SOL    HW1  800   3.014   0.210   0.041  1.1832 -0.1428  0.6115
  267SOL    HW2  801   0.056   0.170   0.049  0.8865 -1.0053 -1.9441
  268SOL     OW  802   0.789   0.453   2.997  0.4475 -0.0074 -0.0794
  268SOL    HW1  803   0.804   0.444   2.897 -0.5398 -2.3005  0.6250
  268SOL    HW2  804   0.872   0.478   3.052 -1.1014 -0.0116 -1.1375
  269SOL     OW  805   1.620   0.430   2.420 -0.6225  0.4630 -0.2362
  269SOL    HW1  806   1.577   0.520   2.440  0.5358  0.6321 -1.4274
  269SOL    HW2  807   1.610   0.365   2.498 -0.2298  0.7965  0.4335
  270SOL     OW  808   0.962   0.937   2.410 -0.3640 -1.0276  0.1241
  270SOL    HW1  809   1.024   0.961   2.489  1.6379  0.6133 -2.4514
  270SOL    HW2  810   0.868   0.929   2.442 -0.5792  3.3672 -3.6648
  271SOL     OW  811   0.192   0.901   0.250  0.8792  0.1597 -0.0573
  271SOL    HW1  812   0.171   0.954   0.338 -4.1591 -0.6384  2.6746
  271SOL    HW2  813   0.115   0.911   0.188  0.4900  0.0502 -0.3536
  272SOL     OW  814   2.281   1.348   2.872 -0.0608  0.1995  0.2347
  272SOL    HW1  815   2.287   1.448   2.869 -0.5395 -2.9280  0.0213
  272SOL    HW2  816   2.198   1.316   2.827  1.3300  1.0080  0.6486
  273SOL     OW  817   2.924   0.183   2.479 -0.6526 -0.6376 -0.3709
  273SOL    HW1  818   2.953   0.273   2.442 -1.0292 -1.8169 -0.3936
  273SOL    HW2  819   2.996   0.144   2.542  1.2013 -2.9075  1.2898
  274SOL     OW  820   2.980   3.031   1.637 -0.4890  0.1988  0.1447
  274SOL    HW1  821   2.928   2.940   1.618 -0.8182  0.8457  0.2157
  274SOL    HW2  822   3.080   3.013   1.643  0.4116 -0.5614  0.6151
  275SOL     OW  823   2.098   1.103   0.549  0.5329  0.1029  0.2734
  275SOL    HW1  824   2.103   1.059   0.456 -2.3142 -1.7988 -1.3276
  275SOL    HW2  825   2.029   1.181   0.545  0.8013  2.1599 -0.1144
  276SOL     OW  826   0.288   1.253   2.887 -0.2671 -0.0512  0.3981
  276SOL    HW1  827   0.211   1.232   2.823 -1.8324 -0.8917 -1.3230
  276SOL    HW2  828   0.372   1.278   2.833 -0.9741 -0.2701  0.9374
  277SOL     OW  829   1.864   2.404   1.995  0.2063 -0.6040  0.0038
  277SOL    HW1  830   1.822   2.404   2.089  2.2101 -0.9115  0.9044
  277SOL    HW2  831   1.860   2.498   1.959  0.1596  2.4614  0.7329
  278SOL     OW  832   2.033   0.304   1.541  0.2000  0.3506  0.1366
  278SOL    HW1  833   2.104   0.239   1.582  1.4392 -1.4401 -1.3355
  278SOL    HW2  834   2.055   0.328   1.447 -2.4212 -1.8335  1.8325
  279SOL     OW  835   1.378   1.140   2.934  0.7226  0.0658  0.4868
  279SOL    HW1  836   1.386   1.089   2.845 -2.7844 -0.2633 -2.5339
  279SOL    HW2  837   1.345   1.084   3.015  1.7749  0.8092 -1.7008
  280SOL     OW  838   0.445   1.825   0.745 -0.0224 -0.2638 -0.7207
  280SOL    HW1  839   0.394   1.908   0.766  2.6048 -1.0288 -1.6216
  280SOL    HW2  840   0.544   1.835   0.735 -1.1159  2.3440  0.2205
  281SOL     OW  841   0.201   0.199   2.249  0.7800  0.6171  0.8285
  281SOL    HW1  842   0.278   0.161   2.193  1.4233 -3.1187  1.1910
  281SOL    HW2  843   0.122   0.239   2.202 -2.6564 -0.0622  0.4150
  282SOL     OW  844   0.101   1.543   1.429  0.0067 -0.0347 -0.0854
  282SOL    HW1  845   0.108   1.643   1.404 -1.8524 -0.3459 -0.4563
  282SOL    HW2  846   0.170   1.490   1.376 -0.4523  2.0447  0.1380
  283SOL     OW  847   1.690   2.176   2.601 -0.4587 -0.2844 -0.1981
  283SOL    HW1  848   1.777   2.135   2.630 -2.3235  1.7915  0.1263
  283SOL    HW2  849   1.621   2.102   2.624 -0.9105 -0.5232 -2.0845
  284SOL     OW  850   1.886   0.737   0.147  0.2409 -0.5502  0.3493
  284SOL    HW1  851   1.917   0.732   0.242 -0.1630  0.9860 -1.2500
  284SOL    HW2  852   1.970   0.757   0.092 -1.3569 -0.5105 -2.5217
  285SOL     OW  853   2.971   2.753   2.694  0.0886 -0.1513  0.2234
  285SOL    HW1  854   2.883   2.764   2.642  0.1523 -0.2129  0.8426
  285SOL    HW2  855   2.951   2.765   2.794  1.1773  3.5424 -0.4285
  286SOL     OW  856   1.839   2.562   1.169  0.7605  0.2395 -0.1801
  286SOL    HW1  857   1.910   2.577   1.239  2.3839  1.4191 -1.6951
  286SOL    HW2  858   1.812   2.646   1.118  0.6012  0.4089  0.4655
  287SOL     OW  859   0.749   0.890   1.105  0.0423 -0.3244  0.2594
  287SOL    HW1  860   0.686   0.879   1.184  0.6104  0.3136  0.1571
  287SOL    HW2  861   0.840   0.927   1.140  0.2156  0.0544  0.6529
  288SOL     OW  862   1.453   2.416   0.183  0.1189 -0.0167  0.4428
  288SOL    HW1  863   1.497   2.475   0.257  2.3692  1.3478  1.3846
  288SOL    HW2  864   1.387   2.469   0.123 -2.4026  2.1372  0.9629
  289SOL     OW  865   0.086   2.174   2.889 -0.6465  0.8518  0.6486
  289SOL    HW1  866   0.110   2.232   2.972  0.6177  3.4797  2.4901
  289SOL    HW2  867   3.105   2.155   2.887  0.4737  2.6249 -0.1974
  290SOL     OW  868   1.035   2.541   0.684 -0.4539 -0.4176  0.2242
  290SOL    HW1  869   1.001   2.463   0.735  1.5380  1.2237  2.2360
  290SOL    HW2  870   1.017   2.531   0.587  0.5811  0.7517  3.9569
  291SOL     OW  871   2.084   1.715   0.108  0.5330 -0.5235  0.5156
  291SOL    HW1  872   2.115   1.644   0.043  1.0904 -0.5076 -1.6554
  291SOL    HW2  873   2.088   1.806   0.056  0.1779  0.7194  0.0322
  292SOL     OW  874   1.011   1.514   1.592  0.5220  0.4202  0.0848
  292SOL    HW1  875   1.059   1.477   1.676 -0.6127  0.1863 -3.8206
  292SOL    HW2  876   0.910   1.529   1.608 -0.6294  1.5745  0.7454
  293SOL     OW  877   2.197   2.650   1.074  0.3588  0.1836  0.5109
  293SOL    HW1  878   2.172   2.618   0.984  1.0429 -2.3579  1.8585
  293SOL    HW2  879   2.211   2.574   1.139  0.0602 -0.8167 -3.2736
  294SOL     OW  880   3.045   0.936   2.576 -0.6993 -0.0529 -0.4614
  294SOL    HW1  881   3.088   1.005   2.640  1.0923 -0.9694  1.1657
  294SOL    HW2  882   3.062   0.969   2.481 -2.1317 -0.8439  0.3976
  295SOL     OW  883   1.118   1.950   3.100  0.2805  0.3478  0.3236
  295SOL    HW1  884   1.147   2.023   0.045 -0.6244 -1.8309 -2.7991
  295SOL    HW2  885   1.193   1.884   3.085 -0.6781 -2.9251 -0.1588
  296SOL     OW  886   2.086   1.872   2.456 -0.1469  0.0858  0.4517
  296SOL    HW1  887   2.145   1.806   2.403 -0.8679 -0.1653  5.0039
  296SOL    HW2  888   1.995   1.830   2.481 -2.3616 -1.2630 -1.5983
  297SOL     OW  889   2.554   0.575   2.906 -0.0558 -0.5339 -0.0630
  297SOL    HW1  890   2.592   0.479   2.911  2.3552 -1.5833 -1.3304
  297SOL    HW2  891   2.496   0.580   2.824 -0.3543  0.9056  1.2353
  298SOL     OW  892   0.765   2.151   3.015  0.2930  0.5596  0.8575
  298SOL    HW1  893   0.775   2.056   3.049 -1.5937 -3.8690  1.5341
  298SOL    HW2  894   0.700   2.151   2.934 -0.3018 -1.4393 -1.5146
  299SOL     OW  895   1.119   2.741   2.522  0.4812  0.6967  0.0958
  299SOL    HW1  896   1.030   2.763   2.564  0.7799 -0.1480 -0.9857
  299SOL    HW2  897   1.121   2.639   2.508  0.1754 -1.7389  1.7870
  300SOL     OW  898   2.797   0.406   0.459  0.1844 -0.2255 -0.0848
  300SOL    HW1  899   2.693   0.403   0.482 -3.0361 -0.8823  0.0456
  300SOL    HW2  900   2.809   0.412   0.358  2.5145 -0.3115 -1.1727
  301SOL     OW  901   1.229   1.066   1.352 -0.6156 -0.7814 -0.1481
  301SOL    HW1  902   1.157   0.995   1.361  0.2904 -1.0137 -1.0508
  301SOL    HW2  903   1.196   1.164   1.363 -0.9471  0.2690 -2.3047
  302SOL     OW  904   3.029   2.549   2.484  0.2285  0.0771 -0.5043
  302SOL    HW1  905   3.097   2.534   2.555 -1.0156  1.6262 -0.6561
  302SOL    HW2  906   3.025   2.646   2.450 -0.1546 -0.2285 -1.2386
  303SOL     OW  907   2.968   0.021   2.254  0.2736  0.2489  0.1373
  303SOL    HW1  908   2.950   0.059   2.347  1.7049 -0.7004 -1.9680
  303SOL    HW2  909   2.984   3.033   2.270 -0.4574 -0.8352 -0.4625
  304SOL     OW  910   2.966   0.343   1.535 -0.3707  0.4822  0.1056
  304SOL    HW1  911   2.915   0.275   1.594 -2.3876 -0.3342  0.8485
  304SOL    HW2  912   2.927   0.346   1.445  1.1100 -0.8295  1.1901
  305SOL     OW  913   0.366   2.946   2.042 -0.0580  0.0750 -0.3203
  305SOL    HW1  914   0.438   2.901   2.102  0.3932  2.1544 -0.5246
  305SOL    HW2  915   0.361   3.050   2.049  0.3006 -3.3079 -0.4075
  306SOL     OW  916   2.560   1.048   1.514  0.4963 -0.3004  0.7597
  306SOL    HW1  917   2.564   1.082   1.612 -2.5032 -0.2208 -2.8861
  306SOL    HW2  918   2.629   1.102   1.459  2.0537 -0.1828  0.1206
  307SOL     OW  919   1.681   0.760   1.267  0.7502  0.3270 -0.1124
  307SOL    HW1  920   1.682   0.703   1.353  0.1248 -1.3500  0.3145
  307SOL    HW2  921   1.588   0.751   1.220  0.2384 -1.7351  1.6923
  308SOL     OW  922   0.211   2.078   1.453  0.3644  1.2246  0.0580
  308SOL    HW1  923   0.234   2.170   1.476 -2.1446 -0.4011 -1.8961
  308SOL    HW2  924   0.128   2.061   1.394 -0.9655 -0.4622 -1.1260
  309SOL     OW  925   2.365   1.818   1.249 -0.3752  0.1395  0.0764
  309SOL    HW1  926   2.442   1.866   1.203 -2.9995  0.4235  1.5661
  309SOL    HW2  927   2.402   1.753   1.319 -1.4274  2.6309  1.1881
  310SOL     OW  928   2.948   1.704   0.026 -0.1492  0.2383 -0.5326
  310SOL    HW1  929   2.957   1.720   3.042 -0.4409 -0.0162 -1.4412
  310SOL    HW2  930   2.956   1.603   0.049 -0.1636 -2.1198  1.4658
  311SOL     OW  931   2.363   2.016   2.994 -0.8754  1.1199  0.6647
  311SOL    HW1  932   2.336   2.098   2.948  0.6868 -0.1431  2.1949
  311SOL    HW2  933   2.400   1.944   2.929 -1.4408  0.3246  0.5438
  312SOL     OW  934   2.473   1.673   0.839  0.3371 -0.2385 -0.1567
  312SOL    HW1  935   2.525   1.753   0.798 -1.3881  1.7085  0.6633
  312SOL    HW2  936   2.428   1.615   0.769  1.5118 -0.6681 -0.8073
  313SOL     OW  937   2.717   2.443   1.223  0.3406  0.0320 -0.5439
  313SOL    HW1  938   2.652   2.482   1.287 -1.5934  0.0851  1.0086
  313SOL    HW2  939   2.784   2.512   1.192  0.3270 -2.4974 -0.0935
  314SOL     OW  940   0.793   2.120   1.070  0.8246 -0.1594  0.3020
  314SOL    HW1  941   0.838   2.202   1.026  2.3911  0.0452  1.2105
  314SOL    HW2  942   0.837   2.031   1.041  2.2277 -1.4168 -2.6701
  315SOL     OW  943   0.511   2.819   2.498 -0.3760  0.0769 -0.0352
  315SOL    HW1  944   0.454   2.876   2.435 -1.7439 -0.5216 -2.3159
  315SOL    HW2  945   0.520   2.720   2.472  1.2108 -0.0392 -1.1758
  316SOL     OW  946   0.351   1.088   0.618  0.2612 -0.2476 -0.6666
  316SOL    HW1  947   0.427   1.072   0.552  1.6287  3.6669  1.5188
  316SOL    HW2  948   0.369   1.162   0.687 -0.2017 -2.0090  0.2067
  317SOL     OW  949   2.044   0.267   0.518  0.0804  0.1342 -0.1981
  317SOL    HW1  950   1.979   0.343   0.516  1.6753 -3.3401  1.5104
  317SOL    HW2  951   2.104   0.273   0.600  0.3487 -0.0502  0.4179
  318SOL     OW  952   2.912   2.443   0.702  0.1294  0.2571 -0.2735
  318SOL    HW1  953   2.862   2.466   0.616  1.9900  0.7612 -0.9548
  318SOL    HW2  954   2.962   2.353   0.697  1.3861 -0.3190  1.7892
  319SOL     OW  955   0.809   1.567   0.093  0.2002  0.3118 -0.3875
  319SOL    HW1  956   0.783   1.595   3.115  1.0566 -1.0689 -0.6782
  319SOL    HW2  957   0.725   1.548   0.148 -1.6116  1.3480  1.3490
  320SOL     OW  958   0.795   2.856   2.386  0.2939  0.6219  0.0434
  320SOL    HW1  959   0.840   2.916   2.455 -0.4189 -0.4190  0.2311
  320SOL    HW2  960   0.699   2.841   2.417  0.0080 -1.8036  0.2861
  321SOL     OW  961   1.384   2.924   2.872  0.1749  0.2920 -0.6303
  321SOL    HW1  962   1.373   2.874   2.786  0.0940  0.4718  1.6388
  321SOL    HW2  963   1.296   2.946   2.916 -0.4679 -0.0238  1.1233
  322SOL     OW  964   2.309   1.290   2.047 -0.2397 -0.3410  0.0695
  322SOL    HW1  965   2.305   1.192   2.047  0.1244  2.1756  0.5576
  322SOL    HW2  966   2.324   1.333   2.138  0.0723 -1.8301 -3.1993
  323SOL     OW  967   2.573   0.675   0.410 -0.2008  0.1767 -0.4219
  323SOL    HW1  968   2.508   0.622   0.351  1.3202 -0.3220 -0.0603
  323SOL    HW2  969   2.664   0.687   0.359 -2.0800 -0.2493 -0.7818
  324SOL     OW  970   0.100   0.297   2.678 -0.0221  0.2215 -0.1660
  324SOL    HW1  971   0.183   0.281   2.734  3.1694  0.1387 -1.2289
  324SOL    HW2  972   0.065   0.204   2.651 -0.1313 -4.5538  0.5007
  325SOL     OW  973   1.486   0.053   2.029  0.1563 -0.5741 -0.0416
  325SOL    HW1  974   1.541   0.110   1.965  0.5895 -3.9282  4.1930
  325SOL    HW2  975   1.438   3.098   1.979  2.9130 -1.4730  1.2797
  326SOL     OW  976   2.588   2.945   1.373 -0.4377 -0.1950  0.2960
  326SOL    HW1  977   2.601   3.020   1.306 -1.2299 -2.4460  2.2227
  326SOL    HW2  978   2.563   2.859   1.318 -0.0950  2.0081  1.5880
  327SOL     OW  979   1.688   0.613   2.879  0.4928 -0.2617 -0.0265
  327SOL    HW1  980   1.601   0.570   2.903  0.5623  0.8564  1.3877
  327SOL    HW2  981   1.740   0.544   2.822 -0.8406 -0.7603  0.9301
  328SOL     OW  982   3.051   1.262   2.498  0.1570 -0.2333 -0.0719
  328SOL    HW1  983   3.057   1.194   2.420  4.0922  1.7344 -0.0887
  328SOL    HW2  984   2.961   1.318   2.492 -3.7960 -0.2365 -1.0236
  329SOL     OW  985   1.878   2.685   1.659  0.3052  0.5507  0.0441
  329SOL    HW1  986   1.781   2.655   1.647  2.7164 -1.1666 -0.3532
  329SOL    HW2  987   1.879   2.775   1.702  0.4012 -3.0410  0.5052
  330SOL     OW  988   2.509   1.801   1.706 -0.4876 -0.2708  0.4612
  330SOL    HW1  989   2.404   1.824   1.701  0.1554 -1.3017  3.0213
  330SOL    HW2  990   2.538   1.830   1.798  0.2017 -1.2097 -0.6127
  331SOL     OW  991   0.110   1.779   1.305  0.2088  0.4502 -0.4807
  331SOL    HW1  992   0.169   1.809   1.226 -0.5871 -1.4510 -0.4099
  331SOL    HW2  993   0.033   1.842   1.310  0.4830  0.0384  1.1720
  332SOL     OW  994   0.761   0.477   1.102 -0.2643 -0.4364  0.3523
  332SOL    HW1  995   0.696   0.537   1.154 -1.2789  1.4447 -3.6730
  332SOL    HW2  996   0.829   0.431   1.163  0.6063  0.3082  3.4095
  333SOL     OW  997   2.031   2.792   2.362  0.0079  0.2039  0.0495
  333SOL    HW1  998   2.032   2.689   2.384  4.8934 -3.5350 -1.0733
  333SOL    HW2  999   2.120   2.832   2.386  1.3728 -1.0193  1.4471
  334SOL     OW 1000   1.086   1.288   1.380  0.4194  0.4840  0.6704
  334SOL    HW1 1001   1.076   1.343   1.295  0.8455  0.5731  1.3488
  334SOL    HW2 1002   1.108   1.344   1.461  2.5843  0.7314 -1.7664
  335SOL     OW 1003   0.555   3.043   2.704 -0.9056  0.5327  1.1338
  335SOL    HW1 1004   0.480   3.038   2.773  0.8362 -1.4366  0.7112
  335SOL    HW2 1005   0.562   2.951   2.661 -0.6857  1.3547  0.7159
  336SOL     OW 1006   2.422   2.363   1.941  0.8712  0.3670 -0.1349
  336SOL    HW1 1007   2.497   2.386   1.873  1.8618 -3.2767 -1.3952
  336SOL    HW2 1008   2.368   2.283   1.905  2.7028 -0.8330  1.2852
  337SOL     OW 1009   2.440   1.545   0.251  0.3086 -0.1992  0.6946
  337SOL    HW1 1010   2.454   1.556   0.152  1.4496 -1.3198  0.3201
  337SOL    HW2 1011   2.520   1.575   0.306  1.2978  0.6371 -3.0691
  338SOL     OW 1012   1.122   1.975   1.371  0.2889 -0.6433 -0.2381
  338SOL    HW1 1013   1.035   2.029   1.344 -2.4632  0.9743 -2.7953
  338SOL    HW2 1014   1.116   1.920   1.454  1.9822  2.9548 -0.3869
  339SOL     OW 1015   0.360   0.913   2.193 -0.0455 -0.1012 -0.2705
  339SOL    HW1 1016   0.435   0.852   2.222  0.7061  0.0583 -0.2301
  339SOL    HW2 1017   0.402   1.001   2.162 -0.1812 -0.5343  3.0631
  340SOL     OW 1018   1.741   3.080   1.489  0.1646  0.2406  0.0735
  340SOL    HW1 1019   1.758   2.998   1.432  0.5918  1.4114  1.1916
  340SOL    HW2 1020   1.661   0.012   1.464  1.4440 -3.8296  1.1084
  341SOL     OW 1021   2.132   1.429   1.042  0.2972 -0.2216 -0.1669
  341SOL    HW1 1022   2.167   1.340   1.010  1.3412  0.1159 -0.3875
  341SOL    HW2 1023   2.205   1.500   1.026 -0.5876 -2.0557 -1.1963
  342SOL     OW 1024   0.301   1.401   0.996 -0.0809  0.1088 -0.4193
  342SOL    HW1 1025   0.303   1.366   0.902  0.7895 -0.4139  1.7762
  342SOL    HW2 1026   0.335   1.498   1.003  1.6828 -4.7893 -2.0622
  343SOL     OW 1027   2.344   0.556   1.557  0.0883 -0.4913 -0.8242
  343SOL    HW1 1028   2.249   0.532   1.587  2.0103  2.4939  2.9337
  343SOL    HW2 1029   2.350   0.658   1.553 -2.0999 -0.0723 -1.0329
  344SOL     OW 1030   2.189   2.929   0.925 -0.0596 -0.4044  0.4233
  344SOL    HW1 1031   2.241   2.905   1.008  1.4226  3.4285  1.5134
  344SOL    HW2 1032   2.191   2.860   0.849  0.9074 -0.3240  0.3328
  345SOL     OW 1033   2.812   3.028   2.688  0.1441 -0.1817  0.1058
  345SOL    HW1 1034   2.772   3.039   2.779 -1.8512  1.5517  0.6630
  345SOL    HW2 1035   2.903   3.073   2.690  0.8580 -0.5443 -0.0487
  346SOL     OW 1036   3.013   0.709   0.383  0.1853 -0.1479 -0.4743
  346SOL    HW1 1037   2.925   0.730   0.326 -1.3286 -0.0979  1.2230
  346SOL    HW2 1038   2.987   0.667   0.471 -0.0967 -0.9587 -3.1245
  347SOL     OW 1039   1.778   2.896   1.287 -0.7268 -0.3983 -0.5340
  347SOL    HW1 1040   1.850   2.834   1.322 -1.7537 -2.1714  1.5202
  347SOL    HW2 1041   1.733   2.860   1.203 -2.1884  0.5617  0.6410
  348SOL     OW 1042   1.227   1.022   1.787 -0.2204  0.1898  0.3268
  348SOL    HW1 1043   1.278   1.106   1.767 -2.4927 -0.8333  5.2373
  348SOL    HW2 1044   1.159   1.040   1.866 -1.2097  2.4655  0.2714
  349SOL     OW 1045   2.149   1.277   2.401 -0.0629  0.4705 -0.0399
  349SOL    HW1 1046   2.140   1.177   2.409 -1.4722  1.3762  0.0765
  349SOL    HW2 1047   2.241   1.303   2.373 -2.4682  0.2950 -0.6306
  350SOL     OW 1048   0.218   1.866   1.026  0.0254  0.0459 -1.5711
  350SOL    HW1 1049   0.239   1.958   0.988 -0.4553 -1.3602 -2.1983
  350SOL    HW2 1050   0.119   1.846   1.005  1.9189 -0.5855 -1.7683
  351SOL     OW 1051   0.878   0.628   2.424 -0.1751 -0.4350 -0.6431
  351SOL    HW1 1052   0.890   0.559   2.497 -1.3688 -1.0430  1.3279
  351SOL    HW2 1053   0.959   0.625   2.362  0.3807 -0.1345  1.2684
  352SOL     OW 1054   0.945   3.029   1.780  0.2879  0.1063  0.1632
  352SOL    HW1 1055   1.045   3.059   1.767 -0.3304 -0.6896 -0.9887
  352SOL    HW2 1056   0.935   2.937   1.737 -1.0142  1.4594 -0.0865
  353SOL     OW 1057   0.925   1.613   2.593 -0.1992 -0.3206  0.1587
  353SOL    HW1 1058   0.927   1.664   2.679  1.7051 -2.0261 -1.3882
  353SOL    HW2 1059   0.881   1.658   2.512  0.2007  0.0077 -3.1907
  354SOL     OW 1060   1.859   1.275   0.544 -0.0418 -0.2649  0.4183
  354SOL    HW1 1061   1.785   1.286   0.471  0.4966 -1.8186 -2.8368
  354SOL    HW2 1062   1.812   1.273   0.634  4.5390  1.3467 -3.4420
  355SOL     OW 1063   2.087   0.259   0.821  0.0060  0.2898 -0.2092
  355SOL    HW1 1064   2.124   0.336   0.876  0.4756  0.5631  0.2983
  355SOL    HW2 1065   2.162   0.201   0.793 -1.3888  3.3312 -0.3325
  356SOL     OW 1066   0.294   0.997   2.942  0.0851 -0.0813  0.1836
  356SOL    HW1 1067   0.349   0.953   3.014  2.4282 -0.4610 -1.9851
  356SOL    HW2 1068   0.281   1.097   2.960 -2.5935  2.1363 -2.3603
  357SOL     OW 1069   2.775   0.007   1.983 -1.0368 -0.1008  0.1739
  357SOL    HW1 1070   2.737   0.102   1.969  0.9763  2.3500 -0.7575
  357SOL    HW2 1071   2.834   0.019   2.064  1.0197  0.1520  1.4238
  358SOL     OW 1072   0.215   1.527   2.562 -0.0090  0.5509 -0.1208
  358SOL    HW1 1073   0.194   1.625   2.580  1.0698 -2.8862  0.2214
  358SOL    HW2 1074   0.232   1.482   2.654  0.1012  0.5248 -0.7918
  359SOL     OW 1075   2.497   2.439   2.424  0.4644  0.3580 -0.2253
  359SOL    HW1 1076   2.510   2.526   2.475  0.3939  0.6846  0.2836
  359SOL    HW2 1077   2.528   2.434   2.326  1.3367  0.6500 -2.1469
  360SOL     OW 1078   1.407   1.213   0.836 -0.0151  0.1271 -0.2805
  360SOL    HW1 1079   1.366   1.297   0.794  1.3737 -1.2243  0.2604
  360SOL    HW2 1080   1.362   1.198   0.930  0.1404  0.7790  2.9660
  361SOL     OW 1081   2.197   2.306   1.015 -0.7712 -0.0131 -0.3153
  361SOL    HW1 1082   2.196   2.230   1.082  1.6315  2.6681  1.4445
  361SOL    HW2 1083   2.105   2.347   1.014 -0.1931 -2.8409  0.6590
  362SOL     OW 1084   1.943   1.218   0.955  0.2565 -0.1366 -0.7988
  362SOL    HW1 1085   1.979   1.308   0.988  1.3105  0.0092  2.8645
  362SOL    HW2 1086   1.865   1.233   0.893 -2.6395  0.5189 -2.2805
  363SOL     OW 1087   2.642   1.930   0.458 -0.1653 -0.1681  0.2482
  363SOL    HW1 1088   2.675   1.957   0.365  0.1998  2.1003  0.3099
  363SOL    HW2 1089   2.544   1.940   0.465  1.7825  0.3748 -1.0122
  364SOL     OW 1090   2.199   0.079   1.603 -0.2302 -0.0004 -0.3613
  364SOL    HW1 1091   2.297   0.056   1.581 -2.6510 -1.0622  0.5566
  364SOL    HW2 1092   2.181   0.101   1.698  0.4532  2.1186 -2.3378
  365SOL     OW 1093   0.184   2.685   1.018  0.1737 -0.3303  0.1373
  365SOL    HW1 1094   0.196   2.582   1.015 -1.4495 -3.2388  0.8898
  365SOL    HW2 1095   0.107   2.717   1.074 -1.9143  2.3918  2.9423
  366SOL     OW 1096   3.081   0.968   0.406  0.2707  0.6517  0.6929
  366SOL    HW1 1097   3.091   0.866   0.387 -1.8128  0.1699  0.3446
  366SOL    HW2 1098   2.980   0.979   0.416  5.2444 -1.7915  0.1203
  367SOL     OW 1099   2.403   2.401   2.794 -0.5936 -0.2051 -0.2488
  367SOL    HW1 1100   2.334   2.335   2.825 -3.4842  0.5598 -1.7731
  367SOL    HW2 1101   2.495   2.360   2.766  3.9486  0.7455 -0.8926
  368SOL     OW 1102   2.835   1.743   1.055  0.0754 -0.3408  0.2919
  368SOL    HW1 1103   2.755   1.679   1.049 -0.1532 -0.4586 -0.9288
  368SOL    HW2 1104   2.833   1.791   1.147  0.2225  1.2975  4.2812
  369SOL     OW 1105   0.823   0.863   0.523 -0.2319 -0.2313 -0.1122
  369SOL    HW1 1106   0.723   0.852   0.525  0.7271  1.8309  1.0893
  369SOL    HW2 1107   0.849   0.939   0.461 -3.3993 -1.3785 -0.7784
  370SOL     OW 1108   0.613   0.096   0.731 -0.0401  0.0583 -0.4222
  370SOL    HW1 1109   0.537   0.034   0.762  1.2935 -1.6839 -1.7953
  370SOL    HW2 1110   0.656   0.153   0.812  0.1530  2.3079  4.8093
  371SOL     OW 1111   2.264   1.160   3.062 -0.3709 -0.2389  0.2672
  371SOL    HW1 1112   2.182   1.177   0.003  1.5055 -0.5527 -0.6713
  371SOL    HW2 1113   2.281   1.239   2.995  0.5570 -0.3417 -1.0110
  372SOL     OW 1114   0.421   0.813   2.785  0.0133 -0.4156  0.4224
  372SOL    HW1 1115   0.360   0.873   2.842  0.5890  0.8444  1.6503
  372SOL    HW2 1116   0.371   0.785   2.703  2.7310 -1.3483  2.5413
  373SOL     OW 1117   0.206   0.527   3.053  0.3181 -0.6971 -0.0405
  373SOL    HW1 1118   0.221   0.574   0.021 -2.8140 -1.9801 -0.3448
  373SOL    HW2 1119   0.278   0.555   2.987 -0.6393 -0.1968 -0.7713
  374SOL     OW 1120   1.057   2.385   0.079 -0.5846  0.3558 -0.1960
  374SOL    HW1 1121   1.017   2.423   3.112  0.5600  0.6816 -3.3978
  374SOL    HW2 1122   1.135   2.442   0.119  0.3801 -0.6261  1.4014
  375SOL     OW 1123   1.107   0.168   0.578 -0.2015  0.3447  0.4236
  375SOL    HW1 1124   1.048   0.205   0.651 -0.7556 -0.7144  0.0343
  375SOL    HW2 1125   1.206   0.194   0.591  1.9993  0.7623 -1.1871
  376SOL     OW 1126   0.185   2.561   1.960 -0.0460 -0.4151  0.2083
  376SOL    HW1 1127   0.205   2.504   1.880  2.2543 -0.8176  1.7275
  376SOL    HW2 1128   0.089   2.564   1.989  1.1162 -0.1375  0.5104
  377SOL     OW 1129   2.922   2.134   2.888  0.4053  0.1223 -0.0415
  377SOL    HW1 1130   2.852   2.095   2.949 -0.1084  2.3084 -1.8617
  377SOL    HW2 1131   2.904   2.111   2.790  1.1259 -0.9193 -1.4670
  378SOL     OW 1132   1.652   0.803   0.454  0.1607  0.0094 -0.8959
  378SOL    HW1 1133   1.627   0.884   0.395 -0.8194  3.1249  0.3113
  378SOL    HW2 1134   1.571   0.769   0.507  2.6529  2.0944 -1.2494
  379SOL     OW 1135   1.264   1.439   0.731  0.5627  0.3958  0.1845
  379SOL    HW1 1136   1.195   1.391   0.673  0.1517 -0.4765 -2.1041
  379SOL    HW2 1137   1.237   1.533   0.759 -0.6522  2.2264  1.6806
  380SOL     OW 1138   2.116   2.220   1.726  0.1673  0.1258 -0.1748
  380SOL    HW1 1139   2.174   2.206   1.649 -0.0405  3.6963  1.4284
  380SOL    HW2 1140   2.034   2.156   1.725 -0.2255  0.1978  1.2468
  381SOL     OW 1141   3.081   1.076   2.289  0.1666 -0.1032 -0.0901
  381SOL    HW1 1142   0.032   1.103   2.219  0.8099 -1.5055  0.6389
  381SOL    HW2 1143   2.988   1.079   2.241  0.9335 -0.4036 -1.4275
  382SOL     OW 1144   2.888   2.415   0.255 -0.3277  0.7623 -0.3297
  382SOL    HW1 1145   2.957   2.484   0.238 -1.4038 -1.4212  3.2832
  382SOL    HW2 1146   2.833   2.390   0.175  3.1098  1.0819 -1.8114
  383SOL     OW 1147   1.563   1.121   2.041 -0.1391  0.6261  0.5816
  383SOL    HW1 1148   1.654   1.165   2.047 -1.5085 -0.9248 -0.7683
  383SOL    HW2 1149   1.564   1.061   1.956 -0.1749 -1.2835  1.8944
  384SOL     OW 1150   0.828   2.268   2.658 -0.4209  0.2406 -0.3433
  384SOL    HW1 1151   0.825   2.259   2.560  1.5464  0.5202  0.1562
  384SOL    HW2 1152   0.925   2.280   2.685 -3.0914  0.7269  0.2153
  385SOL     OW 1153   2.374   2.432   0.289 -0.3360  0.1626 -0.0668
  385SOL    HW1 1154   2.366   2.531   0.278  0.7490 -2.6962  0.1857
  385SOL    HW2 1155   2.380   2.420   0.389  0.2075 -3.1590  0.0169
  386SOL     OW 1156   1.642   1.308   0.394 -0.1538  0.3056 -0.0389
  386SOL    HW1 1157   1.585   1.377   0.441  0.7677  1.1615 -2.3063
  386SOL    HW2 1158   1.578   1.246   0.349 -3.5574  0.7897  2.6699
  387SOL     OW 1159   2.818   0.867   1.316 -0.7297  0.4357 -0.0769
  387SOL    HW1 1160   2.738   0.916   1.285  4.7205  0.3068  1.1318
  387SOL    HW2 1161   2.902   0.928   1.305  2.4362  1.6002 -1.1829
  388SOL     OW 1162   0.017   0.899   1.122  0.4267  0.3708 -0.4052
  388SOL    HW1 1163   3.107   0.861   1.214 -0.1788  1.2684 -0.1038
  388SOL    HW2 1164   0.062   0.825   1.070  1.6760  0.7231  0.0782
  389SOL     OW 1165   1.830   1.160   2.446  0.9851  0.3481  0.4671
  389SOL    HW1 1166   1.815   1.132   2.541 -2.2981  0.5387 -1.8875
  389SOL    HW2 1167   1.846   1.263   2.439 -0.8958 -0.7858 -1.7423
  390SOL     OW 1168   1.478   2.058   0.560 -0.0409 -0.1661 -0.1100
  390SOL    HW1 1169   1.533   2.087   0.476  0.9691 -1.7189  2.7521
  390SOL    HW2 1170   1.540   1.986   0.605  2.2494 -1.9490  0.9983
  391SOL     OW 1171   1.175   2.174   1.080  0.0038  0.5200 -0.1243
  391SOL    HW1 1172   1.113   2.109   1.128 -0.5336 -0.8582  0.6581
  391SOL    HW2 1173   1.254   2.122   1.037 -1.2211 -0.5697  0.5402
  392SOL     OW 1174   2.167   2.524   2.003  0.2542 -0.1410 -0.2975
  392SOL    HW1 1175   2.095   2.540   1.936  2.0392 -0.9966 -0.3273
  392SOL    HW2 1176   2.232   2.463   1.961 -3.0524 -0.0773  0.7818
  393SOL     OW 1177   1.579   2.159   2.974 -0.2179  0.2130 -0.1091
  393SOL    HW1 1178   1.552   2.245   2.930  0.8657  0.4591  1.1992
  393SOL    HW2 1179   1.568   2.076   2.914 -2.1517 -3.0147  0.1362
  394SOL     OW 1180   0.184   0.401   2.449  0.2853  0.1598 -0.6911
  394SOL    HW1 1181   0.120   0.389   2.526  1.3351  1.6606  1.3340
  394SOL    HW2 1182   0.201   0.314   2.406 -1.3742  3.5855 -0.6120
  395SOL     OW 1183   0.496   1.167   0.981  0.3968  0.2817 -0.2564
  395SOL    HW1 1184   0.401   1.202   0.984  0.7581 -1.8492 -1.6165
  395SOL    HW2 1185   0.536   1.156   1.073  1.4533  0.8222  1.7669
  396SOL     OW 1186   2.232   0.823   2.669 -0.4861 -0.2448 -0.1799
  396SOL    HW1 1187   2.139   0.793   2.633  1.7281 -1.5374 -0.7285
  396SOL    HW2 1188   2.236   0.925   2.676  2.0733 -2.6523  2.1977
  397SOL     OW 1189   0.075   0.723   2.731 -0.3541 -0.0436  0.1159
  397SOL    HW1 1190   0.171   0.696   2.704  0.7846 -0.2665  0.2257
  397SOL    HW2 1191   0.019   0.768   2.657 -0.9562  1.5997  3.4104
  398SOL     OW 1192   1.566   2.913   0.284  0.4702 -0.6102  0.3171
  398SOL    HW1 1193   1.627   2.995   0.260 -1.4960  0.6658 -1.8432
  398SOL    HW2 1194   1.474   2.924   0.241  2.7938 -1.2888 -1.7973
  399SOL     OW 1195   2.036   2.193   2.079 -0.8339  0.2914  0.2502
  399SOL    HW1 1196   2.052   2.229   2.171  1.1184  2.2207 -1.8279
  399SOL    HW2 1197   1.998   2.272   2.024 -0.9719  2.6983  0.1636
  400SOL     OW 1198   3.038   1.858   2.251  0.8394 -0.0640 -0.3112
  400SOL    HW1 1199   0.006   1.806   2.224  2.6922 -1.5709 -0.7468
  400SOL    HW2 1200   3.004   1.916   2.179  2.1889  2.8498  0.8746
  401SOL     OW 1201   0.527   0.804   0.535 -0.2317 -0.1001  0.3369
  401SOL    HW1 1202   0.466   0.729   0.494 -1.0991 -1.2460 -0.1244
  401SOL    HW2 1203   0.538   0.780   0.637 -0.1962 -0.0107  2.5489
  402SOL     OW 1204   0.571   2.813   2.170 -0.2250  0.2422 -0.0075
  402SOL    HW1 1205   0.569   2.774   2.074 -0.3932 -0.5753 -2.2376
  402SOL    HW2 1206   0.667   2.831   2.196 -2.1399  0.3159  0.6660
  403SOL     OW 1207   2.794   1.666   2.307  0.4870  0.5147  0.4687
  403SOL    HW1 1208   2.702   1.706   2.319  0.3892  1.1544 -3.2053
  403SOL    HW2 1209   2.866   1.737   2.316  1.0517 -0.0889  0.3397
  404SOL     OW 1210   2.642   2.201   2.126 -0.1428 -0.2161  0.2951
  404SOL    HW1 1211   2.616   2.301   2.129 -0.3025  0.1880  1.1903
  404SOL    HW2 1212   2.735   2.190   2.170  2.0959  0.3504  0.4838
  405SOL     OW 1213   1.893   0.166   2.522 -0.6185 -0.0585 -0.4175
  405SOL    HW1 1214   1.931   0.070   2.506  1.0084 -1.0280 -0.1822
  405SOL    HW2 1215   1.793   0.174   2.530  0.2326 -1.4842 -2.3768
  406SOL     OW 1216   1.280   1.891   0.479 -0.5343  0.2833  0.2519
  406SOL    HW1 1217   1.359   1.951   0.511  0.3366  1.6068 -1.0312
  406SOL    HW2 1218   1.191   1.936   0.454 -2.0924 -2.2853 -2.0598
  407SOL     OW 1219   1.811   1.244   0.193 -0.2127 -0.4977 -0.0951
  407SOL    HW1 1220   1.750   1.177   0.145  0.1758 -0.4803  1.2446
  407SOL    HW2 1221   1.769   1.261   0.284  4.8117 -0.8742 -0.9416
  408SOL     OW 1222   0.269   0.791   1.621 -0.0731 -0.8259  0.0692
  408SOL    HW1 1223   0.357   0.810   1.664 -2.4247  0.3638 -2.6076
  408SOL    HW2 1224   0.280   0.754   1.526  0.4011 -0.7859 -1.3862
  409SOL     OW 1225   3.007   1.299   2.926 -0.2389  0.1465  0.5727
  409SOL    HW1 1226   2.960   1.381   2.895  0.1363  0.0120  3.4706
  409SOL    HW2 1227   3.037   1.309   3.023 -1.5784  2.9596 -2.8538
  410SOL     OW 1228   2.428   2.080   0.649 -0.2306  0.2143  0.1784
  410SOL    HW1 1229   2.384   2.053   0.737 -1.6688  0.9223  0.3190
  410SOL    HW2 1230   2.400   2.018   0.574  1.1447  3.1545  3.7408
  411SOL     OW 1231   0.061   0.513   0.350 -0.0485 -0.3082  0.0144
  411SOL    HW1 1232   0.004   0.598   0.346 -0.2614 -2.5660 -1.0625
  411SOL    HW2 1233   3.111   0.434   0.356  0.4326 -0.2472  0.8032
  412SOL     OW 1234   1.693   0.043   0.261 -0.0111  0.0423  0.0705
  412SOL    HW1 1235   1.764   0.049   0.335 -2.7178  0.6886  0.7531
  412SOL    HW2 1236   1.727   0.077   0.173  0.0754  0.9217  1.2838
  413SOL     OW 1237   1.082   0.326   1.492  0.2329 -0.0990  0.1260
  413SOL    HW1 1238   1.172   0.301   1.534 -1.3685  0.8127 -0.6782
  413SOL    HW2 1239   1.002   0.300   1.552  1.2005  0.3329  2.6668
  414SOL     OW 1240   0.360   1.286   0.279  0.4709  0.6496  0.1380
  414SOL    HW1 1241   0.264   1.263   0.311 -0.1351  0.5324 -0.2003
  414SOL    HW2 1242   0.426   1.212   0.290  1.5046 -0.1630 -2.1704
  415SOL     OW 1243   2.913   1.437   0.109 -0.2121 -0.0751 -0.4382
  415SOL    HW1 1244   3.006   1.392   0.090  1.8204 -1.9563 -1.2255
  415SOL    HW2 1245   2.894   1.450   0.209  0.8653 -1.5695 -1.9080
  416SOL     OW 1246   2.604   0.488   0.071  0.1008  0.0343  1.1744
  416SOL    HW1 1247   2.584   0.544   3.106  0.2150  0.9898 -0.2413
  416SOL    HW2 1248   2.700   0.513   0.099  1.5528 -1.9179 -0.1042
  417SOL     OW 1249   2.715   2.760   0.554  0.3016 -0.2878 -0.2015
  417SOL    HW1 1250   2.688   2.660   0.540 -0.2769 -3.4468  1.1993
  417SOL    HW2 1251   2.818   2.775   0.557  2.9373 -1.3286  2.2071
  418SOL     OW 1252   0.223   0.249   0.033 -0.2010  0.5170  0.2465
  418SOL    HW1 1253   0.284   0.267   0.111 -1.1639 -1.4602 -3.3194
  418SOL    HW2 1254   0.216   0.328   3.086  0.7051  1.5912 -0.0202
  419SOL     OW 1255   0.737   1.048   0.864 -0.0213 -0.3728  0.2929
  419SOL    HW1 1256   0.753   0.967   0.920  0.1111  0.3607 -1.5845
  419SOL    HW2 1257   0.644   1.092   0.885 -1.3457 -0.3879  0.8435
  420SOL     OW 1258   0.456   0.819   0.904 -0.5707 -0.4688  0.4742
  420SOL    HW1 1259   0.467   0.801   1.001  3.6323 -0.9051 -0.9749
  420SOL    HW2 1260   0.387   0.893   0.888  0.8100  1.1995 -1.2108
  421SOL     OW 1261   0.593   2.190   0.281  0.1336 -0.3967 -0.3806
  421SOL    HW1 1262   0.595   2.112   0.217  0.1809  1.2833  3.0844
  421SOL    HW2 1263   0.676   2.245   0.270 -1.5312  0.1586  1.1975
  422SOL     OW 1264   2.900   0.577   1.979  0.4111  0.0991 -0.0238
  422SOL    HW1 1265   2.862   0.488   2.018  3.4639  0.3291 -0.1965
  422SOL    HW2 1266   2.899   0.650   2.046 -2.0072  1.7760 -1.0866
  423SOL     OW 1267   1.920   2.049   0.139  0.2016  0.7180 -0.1246
  423SOL    HW1 1268   1.967   1.984   0.074 -2.0470 -0.0438  3.0164
  423SOL    HW2 1269   1.975   2.110   0.195 -2.6253 -0.7519  0.2980
  424SOL     OW 1270   1.721   1.531   2.615 -0.1631 -0.1929 -0.2121
  424SOL    HW1 1271   1.801   1.490   2.568 -1.3108 -0.3161  0.9453
  424SOL    HW2 1272   1.639   1.483   2.583  2.9243  0.0845 -0.1457
  425SOL     OW 1273   3.020   2.853   2.243  0.2052  0.4321  0.2453
  425SOL    HW1 1274   2.941   2.807   2.279 -0.5821  1.0997 -1.4141
  425SOL    HW2 1275   3.104   2.802   2.257 -0.6438  3.4099  0.2113
  426SOL     OW 1276   2.178   2.669   0.313  0.3586  0.2184 -0.0749
  426SOL    HW1 1277   2.130   2.592   0.266 -2.7322  1.9435 -0.0458
  426SOL    HW2 1278   2.262   2.689   0.265 -3.3692 -0.4903 -1.5109
  427SOL     OW 1279   0.528   1.353   2.451  0.4649 -0.1290  0.3824
  427SOL    HW1 1280   0.478   1.430   2.405  0.3047 -0.2665 -0.9954
  427SOL    HW2 1281   0.503   1.340   2.546  4.6431  0.3623 -1.6176
  428SOL     OW 1282   2.485   1.250   2.695  0.0649 -0.3106 -0.7396
  428SOL    HW1 1283   2.546   1.177   2.735  1.7440  1.3051  1.9566
  428SOL    HW2 1284   2.404   1.278   2.758 -3.3456 -1.1936 -1.7649
  429SOL     OW 1285   2.177   2.797   0.663 -0.3726  0.6056 -0.0181
  429SOL    HW1 1286   2.238   2.715   0.683  1.9842 -3.3128  0.6691
  429SOL    HW2 1287   2.223   2.872   0.613 -0.2087  0.2203  0.0842
  430SOL     OW 1288   1.571   1.869   2.361  0.3475  0.6682  0.1371
  430SOL    HW1 1289   1.480   1.819   2.355 -0.9992  1.0789 -1.0025
  430SOL    HW2 1290   1.566   1.936   2.438 -1.5438 -0.2109 -0.4168
  431SOL     OW 1291   2.987   2.079   1.548  0.4056 -0.1143 -0.2626
  431SOL    HW1 1292   2.988   1.998   1.611 -2.5342  1.8107 -2.0905
  431SOL    HW2 1293   2.915   2.064   1.474  0.2371 -2.1352 -0.6190
  432SOL     OW 1294   1.279   2.061   2.496 -0.3556 -0.0857 -0.5443
  432SOL    HW1 1295   1.252   2.104   2.586 -0.0626  1.4901  2.1006
  432SOL    HW2 1296   1.296   2.134   2.424 -0.3734  0.6713 -2.9826
  433SOL     OW 1297   0.960   2.782   0.788  0.1544  0.1464 -0.0623
  433SOL    HW1 1298   0.991   2.696   0.756 -1.1738  0.5360  0.9129
  433SOL    HW2 1299   1.006   2.860   0.742 -1.3738  2.1039 -0.9259
  434SOL     OW 1300   0.228   1.972   2.248  0.1304  0.2206 -0.1479
  434SOL    HW1 1301   0.128   1.998   2.236  2.2441  0.0117 -2.7621
  434SOL    HW2 1302   0.281   2.030   2.182 -1.4438  1.3785 -1.3612
  435SOL     OW 1303   0.316   1.341   0.742 -0.1882 -0.1874  0.5214
  435SOL    HW1 1304   0.354   1.425   0.694  2.4155  2.7325 -0.9041
  435SOL    HW2 1305   0.216   1.350   0.735 -1.5714  2.2018 -0.4823
  436SOL     OW 1306   0.497   2.188   1.611  0.1634  0.1872 -0.3367
  436SOL    HW1 1307   0.490   2.284   1.566 -1.9121  4.2102 -0.3988
  436SOL    HW2 1308   0.597   2.159   1.622  0.3219  0.6782  0.6135
  437SOL     OW 1309   1.019   0.657   0.443 -0.5066 -0.9935 -0.0868
  437SOL    HW1 1310   0.924   0.699   0.458 -0.0336  3.3935  1.5376
  437SOL    HW2 1311   1.085   0.726   0.398 -0.7374  1.1151 -0.3907
  438SOL     OW 1312   0.291   2.117   0.861 -0.0143 -0.2070 -0.0343
  438SOL    HW1 1313   0.221   2.175   0.907  1.2828 -1.0651 -2.3378
  438SOL    HW2 1314   0.384   2.152   0.878 -0.5161  2.4019  1.3413
  439SOL     OW 1315   0.998   2.661   1.860  0.0058  0.0211  0.4935
  439SOL    HW1 1316   0.913   2.631   1.910 -0.1476  1.7045 -0.7439
  439SOL    HW2 1317   0.978   2.706   1.768 -0.5008 -0.8472  2.0611
  440SOL     OW 1318   1.560   0.180   1.589  0.4264  0.6611  1.0621
  440SOL    HW1 1319   1.593   0.145   1.679 -1.6418 -3.2687 -1.1518
  440SOL    HW2 1320   1.628   0.237   1.541  1.9129  0.9760  2.2057
  441SOL     OW 1321   0.496   0.345   1.574 -0.1628  0.1107 -0.0327
  441SOL    HW1 1322   0.498   0.270   1.642  2.8715 -0.3005 -1.1772
  441SOL    HW2 1323   0.490   0.307   1.477  0.8097  0.3084 -1.5755
  442SOL     OW 1324   2.088   1.822   0.475  0.3238 -0.5890  0.4066
  442SOL    HW1 1325   2.109   1.726   0.447 -0.5845 -0.4657 -1.8660
  442SOL    HW2 1326   1.994   1.846   0.448 -2.2422 -2.2235  3.0262
  443SOL     OW 1327   2.566   0.363   2.311  0.1772 -0.8007  0.7799
  443SOL    HW1 1328   2.624   0.279   2.308 -0.9098 -0.6122  0.3492
  443SOL    HW2 1329   2.470   0.338   2.298  1.0242 -0.0989 -3.7033
  444SOL     OW 1330   2.262   1.006   1.723  0.0086  0.6887  0.1520
  444SOL    HW1 1331   2.329   1.053   1.787 -1.5637  0.1701  0.0697
  444SOL    HW2 1332   2.304   0.936   1.665 -0.3730  2.5553  0.6936
  445SOL     OW 1333   2.527   2.221   1.547  0.2059 -0.0293 -0.1111
  445SOL    HW1 1334   2.569   2.130   1.574  0.9472 -0.0786  0.2440
  445SOL    HW2 1335   2.539   2.290   1.623 -2.2931  1.4237 -0.3473
  446SOL     OW 1336   2.904   1.318   0.796 -0.9819  0.3084  0.4240
  446SOL    HW1 1337   2.997   1.302   0.826  0.5099  0.5912  0.5975
  446SOL    HW2 1338   2.898   1.309   0.694 -0.2719  1.6283 -0.1928
  447SOL     OW 1339   1.171   1.687   0.797  0.3590  0.4511  0.1120
  447SOL    HW1 1340   1.237   1.724   0.867  0.4197  1.4160  0.5078
  447SOL    HW2 1341   1.121   1.767   0.757  0.9625  1.7265 -0.8598
  448SOL     OW 1342   1.395   1.232   1.772 -0.1333  0.8866 -0.3287
  448SOL    HW1 1343   1.451   1.304   1.821  1.5695  0.5318  0.3666
  448SOL    HW2 1344   1.438   1.194   1.688 -0.2814  0.6929  1.0425
  449SOL     OW 1345   0.576   1.506   0.256 -0.2519 -0.0295  0.7494
  449SOL    HW1 1346   0.544   1.604   0.253  1.5671  0.0331  0.5901
  449SOL    HW2 1347   0.526   1.458   0.335  0.1097 -1.8685  0.3364
  450SOL     OW 1348   2.286   2.094   1.924 -0.2263  0.7782 -0.5587
  450SOL    HW1 1349   2.212   2.125   1.864 -0.6416  1.3214  1.0130
  450SOL    HW2 1350   2.245   2.088   2.018 -0.7440 -0.9166 -1.6227
  451SOL     OW 1351   2.006   0.053   2.202  0.0552  0.4154  0.1344
  451SOL    HW1 1352   2.085   0.046   2.266  0.8182 -3.0185 -1.2830
  451SOL    HW2 1353   1.953   0.134   2.219  2.0120 -1.8133  1.6926
  452SOL     OW 1354   1.111   3.094   1.440 -0.4789 -0.2058  0.3430
  452SOL    HW1 1355   1.073   3.009   1.399  0.5512  1.0673  0.6662
  452SOL    HW2 1356   1.040   0.056   1.438 -2.5311  2.9475  0.5936
  453SOL     OW 1357   1.058   1.282   0.943 -0.0461 -0.1874 -0.6452
  453SOL    HW1 1358   0.973   1.275   0.893  0.1541 -1.4868 -1.5525
  453SOL    HW2 1359   1.103   1.195   0.944  2.5271  1.8632  1.2163
  454SOL     OW 1360   0.643   1.381   0.809 -0.0174 -0.2801  0.5353
  454SOL    HW1 1361   0.584   1.306   0.850  1.7062 -0.0296  3.0934
  454SOL    HW2 1362   0.589   1.439   0.747 -0.6978 -0.2749  0.2714
  455SOL     OW 1363   2.875   2.845   2.934 -0.1629  0.5869  0.4405
  455SOL    HW1 1364   2.829   2.840   3.025 -2.3499  0.5188 -1.2950
  455SOL    HW2 1365   2.970   2.886   2.941  0.1778  1.0674 -1.5185
  456SOL     OW 1366   2.317   2.017   0.907 -0.3757  0.7094 -0.3772
  456SOL    HW1 1367   2.277   2.112   0.907  2.8838 -1.0537  0.5836
  456SOL    HW2 1368   2.391   2.004   0.975 -0.0771  2.3916 -2.6634
  457SOL     OW 1369   1.468   0.215   0.262  0.2174  0.8915  0.2530
  457SOL    HW1 1370   1.543   0.148   0.280  0.2565 -1.8410 -0.1283
  457SOL    HW2 1371   1.413   0.233   0.346  1.1313 -0.1160 -2.1980
  458SOL     OW 1372   2.655   3.035   0.584 -0.2950 -0.4175  0.0632
  458SOL    HW1 1373   2.706   3.046   0.676 -0.7182  1.4731  1.9905
  458SOL    HW2 1374   2.680   2.952   0.533 -0.1531  0.3098 -0.3524
  459SOL     OW 1375   2.041   0.389   2.541 -0.0512 -0.5355  0.6908
  459SOL    HW1 1376   2.114   0.394   2.611 -2.3795 -0.9363 -0.1222
  459SOL    HW2 1377   2.011   0.293   2.526 -1.5398  0.9742 -1.7173
  460SOL     OW 1378   2.700   3.064   0.190  0.3193  0.4567  0.3199
  460SOL    HW1 1379   2.761   3.006   0.135 -1.3577  0.1545 -2.9869
  460SOL    HW2 1380   2.752   3.099   0.270  1.2197  3.6519 -1.1691
  461SOL     OW 1381   0.668   1.580   1.229 -0.0458  0.3228  0.3248
  461SOL    HW1 1382   0.729   1.629   1.293 -0.9780  4.1929 -2.5969
  461SOL    HW2 1383   0.705   1.601   1.132  1.2424  1.8287 -0.2078
  462SOL     OW 1384   2.433   2.917   1.796  0.2213 -0.2238  0.5325
  462SOL    HW1 1385   2.517   2.922   1.855  1.2296  1.0831 -0.0041
  462SOL    HW2 1386   2.395   2.823   1.785  0.4520  0.9411 -2.0294
  463SOL     OW 1387   2.894   1.055   0.157 -0.2989  0.7162 -0.0841
  463SOL    HW1 1388   2.898   1.073   0.257 -1.8420  1.6157  1.7103
  463SOL    HW2 1389   2.797   1.032   0.123 -0.4131  1.9470  0.2471
  464SOL     OW 1390   0.023   2.720   1.333  0.6298  0.1493  0.2080
  464SOL    HW1 1391   0.090   2.793   1.308  0.4023  1.2629  1.6894
  464SOL    HW2 1392   3.049   2.756   1.351 -3.4431 -0.2765 -0.1719
  465SOL     OW 1393   0.498   1.546   0.577 -0.6108  0.3978 -0.6963
  465SOL    HW1 1394   0.431   1.609   0.536  1.5159 -0.7725  0.7623
  465SOL    HW2 1395   0.567   1.599   0.627 -2.8851 -3.6892  0.4297
  466SOL     OW 1396   0.961   0.241   2.363  0.1330 -0.1578  0.0429
  466SOL    HW1 1397   0.971   0.225   2.462 -2.6524  0.4404 -1.4209
  466SOL    HW2 1398   1.012   0.323   2.337  0.5720 -0.9280 -0.7003
  467SOL     OW 1399   1.053   0.725   2.242  0.1245 -0.6981 -0.1603
  467SOL    HW1 1400   1.016   0.804   2.301 -0.6112 -0.1050  0.7531
  467SOL    HW2 1401   1.157   0.740   2.232  2.1549  0.1925  1.0060
  468SOL     OW 1402   0.676   1.109   2.415 -0.1860 -0.1472 -0.1508
  468SOL    HW1 1403   0.635   1.035   2.476 -0.9165 -3.6300  3.8426
  468SOL    HW2 1404   0.615   1.192   2.421 -3.0080  1.0089 -0.4640
  469SOL     OW 1405   0.331   2.242   0.379 -0.0229  0.3408  0.0092
  469SOL    HW1 1406   0.427   2.218   0.344  2.9261 -0.0338 -1.2729
  469SOL    HW2 1407   0.259   2.178   0.349 -1.5801 -2.1110 -0.2042
  470SOL     OW 1408   2.690   1.892   2.592 -0.1563  0.5221  0.4847
  470SOL    HW1 1409   2.707   1.829   2.671 -1.8073 -0.6371  1.8169
  470SOL    HW2 1410   2.599   1.930   2.601  0.5577 -0.0234 -1.8236
  471SOL     OW 1411   1.950   0.681   2.143  0.0529 -0.1123 -0.2453
  471SOL    HW1 1412   1.945   0.714   2.044 -0.7590 -1.2013 -3.1804
  471SOL    HW2 1413   1.862   0.636   2.166 -1.2097  0.9100  0.7234
  472SOL     OW 1414   0.571   2.721   1.191  0.8609 -0.5426 -0.0053
  472SOL    HW1 1415   0.584   2.649   1.262  0.8133  3.0010  0.1933
  472SOL    HW2 1416   0.632   2.713   1.110  0.0024  0.1365 -3.0277
  473SOL     OW 1417   0.759   0.080   2.401  0.1382 -0.7144  0.0556
  473SOL    HW1 1418   0.791   0.006   2.460 -2.3453 -0.5261 -0.0288
  473SOL    HW2 1419   0.839   0.133   2.361  1.0076 -0.1916 -2.6617
  474SOL     OW 1420   1.867   0.077   1.696  0.9983  0.4686 -0.2035
  474SOL    HW1 1421   1.914   0.148   1.642 -3.3386 -1.7030  0.2749
  474SOL    HW2 1422   1.797   0.036   1.640  2.2728  1.0432  1.8756
  475SOL     OW 1423   1.931   0.410   1.077 -0.4681 -1.0706  0.3597
  475SOL    HW1 1424   2.007   0.420   1.008  0.6150 -0.9507  0.0015
  475SOL    HW2 1425   1.970   0.360   1.158 -0.9633  1.4642 -2.2312
  476SOL     OW 1426   0.653   0.675   0.791  0.2232 -0.4773 -0.0250
  476SOL    HW1 1427   0.566   0.695   0.834  1.7434 -0.4150  1.5450
  476SOL    HW2 1428   0.738   0.687   0.849  2.1640 -0.2610  1.2303
  477SOL     OW 1429   1.322   2.614   0.608 -0.3205 -0.1884 -0.0384
  477SOL    HW1 1430   1.377   2.604   0.694  0.3012 -2.7548 -3.2994
  477SOL    HW2 1431   1.223   2.606   0.626 -1.7983 -0.9799  1.3146
  478SOL     OW 1432   0.152   2.305   2.223 -0.0501  0.2231  0.0721
  478SOL    HW1 1433   0.229   2.254   2.189 -1.8048  1.5013  1.1389
  478SOL    HW2 1434   0.187   2.361   2.302  3.9296  1.6185  0.9106
  479SOL     OW 1435   2.920   0.324   1.057 -0.1683 -0.5137  0.9826
  479SOL    HW1 1436   2.854   0.304   1.127 -1.4301  1.8619 -1.6831
  479SOL    HW2 1437   3.015   0.337   1.097  0.3298  1.6708 -0.2541
  480SOL     OW 1438   0.262   2.701   0.415  0.1546 -0.0973  0.4037
  480SOL    HW1 1439   0.319   2.779   0.396 -0.7616 -1.9497  0.1566
  480SOL    HW2 1440   0.162   2.723   0.393  1.0700 -0.4679  0.8445
  481SOL     OW 1441   2.181   2.012   1.310 -0.2144 -0.3501 -0.5308
  481SOL    HW1 1442   2.269   1.971   1.272  4.3122 -1.5999 -2.2197
  481SOL    HW2 1443   2.108   1.975   1.251  1.3555  0.0380  2.1600
  482SOL     OW 1444   0.971   2.491   2.931 -0.0353 -0.3025 -0.3373
  482SOL    HW1 1445   0.980   2.492   2.829  1.1288  0.3723  0.7770
  482SOL    HW2 1446   0.871   2.487   2.953  1.2589  2.8259 -0.5276
  483SOL     OW 1447   0.427   2.414   2.104 -0.7205 -0.5530 -0.8097
  483SOL    HW1 1448   0.338   2.459   2.077  1.1798  0.7210  0.5944
  483SOL    HW2 1449   0.485   2.402   2.020  2.1359  0.9805 -0.0200
  484SOL     OW 1450   1.182   0.577   1.519 -0.1303 -0.5005  0.1725
  484SOL    HW1 1451   1.208   0.587   1.619  0.4519 -0.9313  5.6116
  484SOL    HW2 1452   1.150   0.484   1.506 -0.5696  1.6564 -0.8149
  485SOL     OW 1453   1.987   0.782   2.566  0.3352 -0.1164  0.6390
  485SOL    HW1 1454   2.051   0.789   2.490 -1.6783 -0.6292  1.3678
  485SOL    HW2 1455   1.893   0.811   2.542 -4.4088 -0.0421  0.0207
  486SOL     OW 1456   2.360   2.837   1.167 -0.0760  0.0576  0.4452
  486SOL    HW1 1457   2.297   2.768   1.122 -1.4294 -1.3729 -1.1079
  486SOL    HW2 1458   2.452   2.852   1.113  2.2507  1.0111 -1.2561
  487SOL     OW 1459   0.890   2.412   1.731 -0.0658  0.1271 -0.1086
  487SOL    HW1 1460   0.814   2.475   1.709 -1.0242  0.3159  0.3434
  487SOL    HW2 1461   0.924   2.355   1.651 -2.4279  1.2799  0.3231
  488SOL     OW 1462   2.667   1.452   2.831 -0.4083  0.2626  0.1165
  488SOL    HW1 1463   2.596   1.406   2.773  1.2930 -0.4678 -0.6723
  488SOL    HW2 1464   2.661   1.428   2.929  0.1545 -2.2956 -0.6661
  489SOL     OW 1465   2.048   0.008   1.237 -0.1373 -0.5117  0.3103
  489SOL    HW1 1466   2.051   3.064   1.154  0.6508 -0.2384 -1.8801
  489SOL    HW2 1467   2.035   3.075   1.324 -1.7964 -2.4348  0.5392
  490SOL     OW 1468   1.044   1.449   0.132  0.2391  0.0222  0.0988
  490SOL    HW1 1469   1.123   1.501   0.168  3.5058 -0.4565 -1.2051
  490SOL    HW2 1470   0.956   1.505   0.131 -1.5569  0.4003  0.7050
  491SOL     OW 1471   0.483   2.213   1.313 -0.6648  0.0279 -0.5314
  491SOL    HW1 1472   0.422   2.173   1.384 -0.2196  0.2760  0.0334
  491SOL    HW2 1473   0.505   2.134   1.251 -0.7873 -0.3990 -2.6426
  492SOL     OW 1474   0.995   1.807   1.866  0.2975 -0.4755  0.2036
  492SOL    HW1 1475   1.016   1.722   1.920 -1.3826  0.9521  1.6855
  492SOL    HW2 1476   1.049   1.805   1.780 -1.5284  0.6989 -1.9125
  493SOL     OW 1477   2.650   2.217   0.865 -0.0890  0.3794  0.4152
  493SOL    HW1 1478   2.660   2.218   0.766  0.7399  1.1108  1.6335
  493SOL    HW2 1479   2.682   2.134   0.912  0.5335 -1.1680 -1.7427
  494SOL     OW 1480   2.838   2.095   0.556  0.6556 -0.0267 -1.0534
  494SOL    HW1 1481   2.759   2.037   0.532  0.4412 -1.5526  1.4748
  494SOL    HW2 1482   2.873   2.150   0.479  0.8346 -0.1724  0.8008
  495SOL     OW 1483   2.797   2.804   0.078  0.0076  0.9987  0.0208
  495SOL    HW1 1484   2.724   2.739   0.063  2.3362  0.5150  0.2081
  495SOL    HW2 1485   2.874   2.743   0.108  2.4553 -0.6458 -1.7173
  496SOL     OW 1486   2.568   0.053   1.195 -0.0350 -0.5958  0.2050
  496SOL    HW1 1487   2.503   0.099   1.129 -0.5371  2.7299  0.5098
  496SOL    HW2 1488   2.572   0.111   1.282 -1.4820  1.7989 -0.4286
  497SOL     OW 1489   2.920   1.054   2.843  0.3076 -0.1605 -0.7194
  497SOL    HW1 1490   2.991   1.000   2.893  0.5749  2.5088  1.0974
  497SOL    HW2 1491   2.940   1.150   2.871 -0.0066  0.8847  0.0604
  498SOL     OW 1492   2.877   1.796   1.808 -0.2482  0.6820 -0.0411
  498SOL    HW1 1493   2.837   1.738   1.881  0.8826  0.6576  1.6697
  498SOL    HW2 1494   2.891   1.888   1.846  0.4501  1.2133  1.3158
  499SOL     OW 1495   0.670   2.526   2.705  0.3015 -0.0230 -0.2823
  499SOL    HW1 1496   0.662   2.512   2.809  1.5461  0.1403  2.1789
  499SOL    HW2 1497   0.725   2.448   2.664  0.9946 -1.8205 -1.7024
  500SOL     OW 1498   1.836   0.482   0.196  0.1818 -0.2297 -0.9102
  500SOL    HW1 1499   1.853   0.579   0.175  3.1492 -3.3374  1.3731
  500SOL    HW2 1500   1.744   0.451   0.165  0.3882 -2.2572  1.5171
  501SOL     OW 1501   1.299   0.262   1.653  0.4465  0.1182 -0.3003
  501SOL    HW1 1502   1.303   0.326   1.735  0.6230  1.8105  1.5060
  501SOL    HW2 1503   1.393   0.252   1.612  1.8764 -1.9703 -0.5383
  502SOL     OW 1504   2.601   0.623   1.737 -0.1371 -0.3786  0.4181
  502SOL    HW1 1505   2.696   0.597   1.716  0.7674 -2.2203  1.5689
  502SOL    HW2 1506   2.531   0.600   1.671 -0.1237 -0.5293  2.6391
  503SOL     OW 1507   2.216   1.771   2.157 -0.5457 -0.4981 -0.1851
  503SOL    HW1 1508   2.147   1.840   2.129 -0.1649 -2.0101 -1.1923
  503SOL    HW2 1509   2.222   1.686   2.095  1.5532  0.3086 -0.4596
  504SOL     OW 1510   1.502   1.100   1.564  0.1490  0.4841  0.3536
  504SOL    HW1 1511   1.527   1.055   1.651  0.0230  2.6265  0.5640
  504SOL    HW2 1512   1.507   1.032   1.486 -0.8988 -1.1272  1.3077
  505SOL     OW 1513   0.809   0.740   1.545  0.4905  0.0481  0.2189
  505SOL    HW1 1514   0.736   0.671   1.568 -0.2440  1.9061 -2.4470
  505SOL    HW2 1515   0.828   0.814   1.618 -0.7443  0.5694  0.8594
  506SOL     OW 1516   0.361   0.300   2.816  0.0461  0.0777  0.0563
  506SOL    HW1 1517   0.423   0.251   2.880  0.8046  2.0086 -0.7236
  506SOL    HW2 1518   0.376   0.403   2.827 -0.5395  3.5551  2.3434
  507SOL     OW 1519   0.282   0.008   0.321 -0.2745  0.2064  0.3424
  507SOL    HW1 1520   0.296   0.018   0.421 -2.0495 -0.9007 -1.0317
  507SOL    HW2 1521   0.306   0.094   0.272  1.1177  0.3555  1.3688
  508SOL     OW 1522   0.901   0.902   1.730 -0.2035 -0.4648 -0.1435
  508SOL    HW1 1523   0.913   1.002   1.745  0.5052  0.5391  1.4983
  508SOL    HW2 1524   0.965   0.843   1.780 -2.9603  1.8271  1.0075
  509SOL     OW 1525   1.474   2.279   0.962  0.4921  0.1945  0.1169
  509SOL    HW1 1526   1.477   2.292   1.063  1.6295 -0.5440  1.0523
  509SOL    HW2 1527   1.421   2.193   0.934 -0.9176  1.0087  0.2581
  510SOL     OW 1528   2.771   1.456   1.808  0.4871  0.7168 -0.1187
  510SOL    HW1 1529   2.832   1.495   1.735 -2.6627  0.7864  2.4960
  510SOL    HW2 1530   2.773   1.514   1.892  0.1990 -0.0881  0.0441
  511SOL     OW 1531   0.990   2.299   1.485 -0.2490  0.3704 -0.0305
  511SOL    HW1 1532   1.088   2.325   1.462 -1.0669 -1.7078 -0.2331
  511SOL    HW2 1533   0.978   2.209   1.437  1.5609 -1.2427  2.7019
  512SOL     OW 1534   2.800   1.644   0.734 -1.0886  0.4155 -0.2145
  512SOL    HW1 1535   2.821   1.553   0.767 -2.1624 -1.3027 -1.7758
  512SOL    HW2 1536   2.892   1.689   0.724  1.2938  1.7536  2.1229
  513SOL     OW 1537   0.138   1.782   2.900 -0.0849 -0.1698  0.0793
  513SOL    HW1 1538   0.163   1.844   2.976 -0.5171  0.1315 -1.0250
  513SOL    HW2 1539   0.183   1.690   2.909  1.0832  0.3206  2.3938
  514SOL     OW 1540   2.459   2.044   2.632 -0.2470 -0.1964 -0.3561
  514SOL    HW1 1541   2.359   2.059   2.619  1.3649 -0.3064 -1.2608
  514SOL    HW2 1542   2.508   2.131   2.642  2.7472 -0.1284 -0.3595
  515SOL     OW 1543   2.497   0.973   0.696 -0.3571 -0.7169  0.1663
  515SOL    HW1 1544   2.431   0.902   0.724 -0.1421 -2.3477  1.7656
  515SOL    HW2 1545   2.590   0.943   0.730  2.1825 -1.0614  2.4079
  516SOL     OW 1546   2.695   1.816   3.097  0.0816 -0.0610 -0.0929
  516SOL    HW1 1547   2.627   1.744   3.077 -0.5647 -0.9875  0.8152
  516SOL    HW2 1548   2.783   1.779   0.020  3.1543  0.9131  0.7208
  517SOL     OW 1549   0.714   1.382   2.880 -0.1621 -0.8272 -0.5122
  517SOL    HW1 1550   0.814   1.399   2.889 -1.2924  0.0375 -0.9925
  517SOL    HW2 1551   0.676   1.357   2.971 -1.9056 -1.8480 -0.4725
  518SOL     OW 1552   2.689   0.119   2.347 -0.3040  0.1039 -0.0401
  518SOL    HW1 1553   2.758   0.162   2.404 -1.6481  1.4554 -2.5423
  518SOL    HW2 1554   2.691   0.015   2.349  0.1511 -0.6940 -0.3654
  519SOL     OW 1555   1.599   1.260   2.850  0.5859 -0.1319  1.1241
  519SOL    HW1 1556   1.528   1.211   2.905 -1.2115  1.9857  1.7590
  519SOL    HW2 1557   1.647   1.332   2.907 -2.5111  0.4748 -0.9503
  520SOL     OW 1558   2.782   2.730   2.353  0.3168  0.4736 -0.2748
  520SOL    HW1 1559   2.734   2.734   2.264  0.0616  1.5475  0.6731
  520SOL    HW2 1560   2.756   2.643   2.400 -3.5997 -0.4821 -0.5120
  521SOL     OW 1561   0.466   1.580   2.289 -0.4362 -0.3240 -0.3590
  521SOL    HW1 1562   0.471   1.674   2.326  1.2430 -4.3123  1.2688
  521SOL    HW2 1563   0.380   1.568   2.241  1.9582 -0.4504  3.3624
  522SOL     OW 1564   1.146   2.816   2.029 -0.2947 -0.5723 -0.0446
  522SOL    HW1 1565   1.085   2.749   1.976 -4.1036 -2.4894 -0.5644
  522SOL    HW2 1566   1.095   2.874   2.094  0.0984 -3.8363 -0.6534
  523SOL     OW 1567   2.557   2.216   1.270 -0.1041 -0.9912  0.2345
  523SOL    HW1 1568   2.610   2.298   1.252 -0.2943 -1.6584  2.7157
  523SOL    HW2 1569   2.541   2.207   1.371 -1.7677  2.8780 -0.9913
  524SOL     OW 1570   1.608   2.402   0.558 -0.4923 -0.0469 -0.3605
  524SOL    HW1 1571   1.541   2.440   0.624  2.3747  1.6956  0.1851
  524SOL    HW2 1572   1.589   2.309   0.528 -2.1786  4.0637  0.6993
  525SOL     OW 1573   2.948   0.569   0.933  0.3320 -0.3469  0.5870
  525SOL    HW1 1574   2.863   0.619   0.958 -0.1714  0.3662  0.6922
  525SOL    HW2 1575   2.930   0.474   0.971 -0.9283  1.8851 -0.1597
  526SOL     OW 1576   1.474   2.730   0.997  0.0352 -0.2086  0.5519
  526SOL    HW1 1577   1.476   2.660   1.074  0.2011  1.1979  0.4116
  526SOL    HW2 1578   1.566   2.765   0.980 -4.0320 -3.0629  1.2094
  527SOL     OW 1579   2.089   1.941   0.780  0.1385  0.2492 -0.1716
  527SOL    HW1 1580   2.174   1.936   0.832 -2.0494 -1.4089 -0.5944
  527SOL    HW2 1581   2.102   1.893   0.687  1.2280 -1.4722  2.6494
  528SOL     OW 1582   2.053   3.064   2.660 -0.2936 -0.0157 -0.8276
  528SOL    HW1 1583   1.993   2.976   2.672 -1.3249 -1.9349  1.7764
  528SOL    HW2 1584   2.125   3.056   2.731 -2.3461  0.8029  0.5611
  529SOL     OW 1585   1.291   1.590   2.538 -0.7975  0.5475  0.2405
  529SOL    HW1 1586   1.371   1.534   2.543 -1.7548 -1.4800  0.0563
  529SOL    HW2 1587   1.299   1.667   2.469  0.7120  0.7969  0.8730
  530SOL     OW 1588   2.206   1.027   2.346  0.6712  0.7465  0.5458
  530SOL    HW1 1589   2.259   1.046   2.259 -0.2236  1.2059 -2.0508
  530SOL    HW2 1590   2.209   0.928   2.361  3.4483  1.8808 -0.1367
  531SOL     OW 1591   0.394   0.891   0.051  0.6579  0.1162 -0.1049
  531SOL    HW1 1592   0.479   0.936   0.082 -0.7794  0.4169  1.1557
  531SOL    HW2 1593   0.328   0.901   0.125  0.2217 -0.5854 -1.9796
  532SOL     OW 1594   1.500   1.497   0.582 -0.3090 -0.5153 -0.2190
  532SOL    HW1 1595   1.547   1.554   0.652 -0.4332  0.9483  2.6837
  532SOL    HW2 1596   1.412   1.468   0.628  1.3321  2.8337 -2.2338
  533SOL     OW 1597   0.541   0.732   2.260  0.3631  0.3348 -0.5736
  533SOL    HW1 1598   0.579   0.680   2.182  0.7158  0.0104  2.3316
  533SOL    HW2 1599   0.491   0.670   2.319 -0.4279 -0.8456 -2.8903
  534SOL     OW 1600   1.401   0.628   2.533  0.0822  0.5759 -0.6367
  534SOL    HW1 1601   1.321   0.648   2.590  1.6274 -3.4349 -0.8937
  534SOL    HW2 1602   1.385   0.664   2.437  1.2865  0.4749 -1.4015
  535SOL     OW 1603   0.480   0.516   0.162  0.5398  0.1474 -0.0277
  535SOL    HW1 1604   0.396   0.574   0.174  0.7540 -0.2927  0.1317
  535SOL    HW2 1605   0.524   0.534   0.071 -2.2702 -0.4820  2.2070
  536SOL     OW 1606   0.632   0.661   3.083 -0.3916  0.1752 -0.5108
  536SOL    HW1 1607   0.675   0.729   0.026 -2.1674  1.3226 -1.2871
  536SOL    HW2 1608   0.705   0.605   3.045 -3.0663  1.4719  1.0329
  537SOL     OW 1609   1.383   0.042   1.377  0.3106  0.0442  0.3710
  537SOL    HW1 1610   1.292   0.009   1.383  2.9038 -1.8306 -0.9925
  537SOL    HW2 1611   1.418   0.100   1.453  1.7625  0.7781 -0.5110
  538SOL     OW 1612   0.311   2.868   3.027 -0.3287  0.9971 -0.2203
  538SOL    HW1 1613   0.307   2.940   2.960 -1.0105 -1.8701 -1.9571
  538SOL    HW2 1614   0.218   2.838   3.063 -1.6153 -0.9250  0.3619
  539SOL     OW 1615   2.816   1.176   1.901 -0.3902 -0.1656 -0.1199
  539SOL    HW1 1616   2.905   1.151   1.860  1.2714  3.2959  2.5022
  539SOL    HW2 1617   2.796   1.278   1.897  0.6906  0.7077  1.0028
  540SOL     OW 1618   2.173   1.714   1.451 -0.2462 -0.2227  0.2133
  540SOL    HW1 1619   2.170   1.770   1.369  0.2785 -1.1257  0.0104
  540SOL    HW2 1620   2.193   1.767   1.533  2.4144 -2.5548 -0.2164
  541SOL     OW 1621   0.617   2.496   1.655 -0.1228  0.1379  0.5172
  541SOL    HW1 1622   0.632   2.495   1.556  3.4993 -2.6348  4.8093
  541SOL    HW2 1623   0.590   2.587   1.694 -0.6978  1.8067 -0.3453
  542SOL     OW 1624   2.507   0.887   1.864  0.4801 -0.0887  0.5897
  542SOL    HW1 1625   2.546   0.816   1.805 -0.9799  2.2595 -2.2151
  542SOL    HW2 1626   2.414   0.851   1.897 -1.5105 -1.6742  2.5465
  543SOL     OW 1627   1.025   0.558   0.710 -0.6179 -0.0013  0.2143
  543SOL    HW1 1628   1.058   0.594   0.625 -2.4432  2.7921  0.4805
  543SOL    HW2 1629   0.941   0.612   0.735  1.0120  0.9626  0.3284
  544SOL     OW 1630   1.997   1.947   1.126  0.3116  0.3726 -0.1852
  544SOL    HW1 1631   1.923   1.896   1.176 -0.1313 -0.3433 -1.2885
  544SOL    HW2 1632   1.970   1.976   1.036  2.6629  2.1344  0.8945
  545SOL     OW 1633   1.454   1.359   1.184 -0.5604 -0.2978  0.2955
  545SOL    HW1 1634   1.396   1.285   1.144  1.7892  0.6785 -0.6308
  545SOL    HW2 1635   1.502   1.325   1.268  0.1547  1.0610 -2.2757
  546SOL     OW 1636   0.018   0.041   2.889 -0.9545 -0.2106  0.2670
  546SOL    HW1 1637   3.111   3.067   2.921 -3.0677 -1.6650 -1.5864
  546SOL    HW2 1638   0.019   0.110   2.966  0.6736  1.0246 -0.6222
  547SOL     OW 1639   2.267   0.409   2.697  0.1442 -0.1300 -0.3161
  547SOL    HW1 1640   2.238   0.396   2.798 -2.0510 -1.4286 -1.4256
  547SOL    HW2 1641   2.305   0.502   2.678  0.7980  2.0330 -2.5665
  548SOL     OW 1642   2.496   2.069   2.325  0.0651 -0.5040 -0.4606
  548SOL    HW1 1643   2.413   2.115   2.361 -0.6568 -2.3685  1.4860
  548SOL    HW2 1644   2.535   2.126   2.251 -0.8176  1.0619  0.7078
  549SOL     OW 1645   2.295   0.041   0.779 -0.2142 -0.8808 -0.3032
  549SOL    HW1 1646   2.386   0.063   0.739 -1.9407 -0.6490 -1.3997
  549SOL    HW2 1647   2.295   3.070   0.832  3.1008 -0.9337 -0.3742
  550SOL     OW 1648   2.669   0.960   0.065 -0.2513  0.0655 -0.5184
  550SOL    HW1 1649   2.635   0.905   3.105 -1.0810 -1.6706 -1.2366
  550SOL    HW2 1650   2.609   1.039   0.077  2.5022  0.8371  0.0995
  551SOL     OW 1651   1.322   2.801   1.317  0.2130  0.1271 -0.1910
  551SOL    HW1 1652   1.390   2.724   1.299  2.5435 -2.0059  4.6492
  551SOL    HW2 1653   1.315   2.857   1.231  1.5659  1.1053 -1.0294
  552SOL     OW 1654   2.657   2.678   2.805 -0.6161  0.1518 -0.2719
  552SOL    HW1 1655   2.715   2.743   2.852 -0.1707 -2.8173  0.0038
  552SOL    HW2 1656   2.565   2.667   2.852 -2.6512 -1.0549  3.5621
  553SOL     OW 1657   0.663   3.013   0.560  0.3148 -0.0159  0.6764
  553SOL    HW1 1658   0.655   3.084   0.630 -0.4889 -1.1790 -1.3173
  553SOL    HW2 1659   0.731   3.035   0.491 -0.4788  0.8744  1.1339
  554SOL     OW 1660   1.900   2.050   1.738 -0.1669  0.3892 -0.5713
  554SOL    HW1 1661   1.861   2.110   1.811 -1.4511 -1.8104  0.8233
  554SOL    HW2 1662   1.823   1.999   1.706 -1.5592  1.5020 -0.3279
  555SOL     OW 1663   1.456   2.484   1.910 -0.0234  0.1743  0.1440
  555SOL    HW1 1664   1.387   2.522   1.849 -1.2527 -2.6297 -1.9437
  555SOL    HW2 1665   1.541   2.532   1.914 -1.5564 -1.6446 -0.4526
  556SOL     OW 1666   1.586   1.631   0.822 -0.7921  0.3212 -0.0788
  556SOL    HW1 1667   1.615   1.557   0.885 -0.0130  3.5187 -2.1992
  556SOL    HW2 1668   1.671   1.687   0.807  0.6214  1.3374  1.6122
  557SOL     OW 1669   1.356   1.886   1.948 -0.3867 -0.2291  0.0774
  557SOL    HW1 1670   1.320   1.951   1.881 -1.8328  0.5454  1.0661
  557SOL    HW2 1671   1.378   1.926   2.039  0.3637 -0.1054  1.5692
  558SOL     OW 1672   0.032   0.555   2.302 -0.1045  0.5997 -0.0950
  558SOL    HW1 1673   0.046   0.505   2.210 -0.0732  0.9992  0.2131
  558SOL    HW2 1674   0.087   0.511   2.371  1.0578  2.0347 -1.1158
  559SOL     OW 1675   2.134   2.774   2.107 -0.2969 -0.3906  0.6403
  559SOL    HW1 1676   2.156   2.683   2.061  0.2069  2.6319 -3.1461
  559SOL    HW2 1677   2.105   2.775   2.205 -1.2380 -0.3214 -2.6867
  560SOL     OW 1678   0.322   3.081   2.875  0.3536 -0.4479 -0.1000
  560SOL    HW1 1679   0.383   0.032   2.924  1.9559  1.3862  1.8726
  560SOL    HW2 1680   0.243   0.011   2.835 -1.2955 -0.4647  2.0325
  561SOL     OW 1681   1.578   1.032   0.293 -0.1884  0.1345 -0.2139
  561SOL    HW1 1682   1.595   1.033   0.194 -2.8257 -1.4986  1.8843
  561SOL    HW2 1683   1.478   1.039   0.322  0.5639 -2.6802 -0.5840
  562SOL     OW 1684   0.959   1.214   2.274  0.4350 -0.3545 -0.1043
  562SOL    HW1 1685   0.940   1.128   2.323 -0.4659  0.3555  2.7246
  562SOL    HW2 1686   0.926   1.293   2.331 -0.3332  3.9691  0.1273
  563SOL     OW 1687   1.844   2.240   3.092 -0.0818 -0.0011 -0.7439
  563SOL    HW1 1688   1.883   2.170   0.035  1.4224  2.3517 -1.9335
  563SOL    HW2 1689   1.765   2.202   3.041 -0.4481 -1.0328  0.4006
  564SOL     OW 1690   3.094   1.975   0.545  0.5399  0.0704  0.0238
  564SOL    HW1 1691   0.068   2.018   0.552 -1.3472 -0.0082 -1.4213
  564SOL    HW2 1692   3.037   2.011   0.467  0.2135  0.2319 -0.9829
  565SOL     OW 1693   0.933   2.737   3.020 -0.8492 -0.2833  0.9682
  565SOL    HW1 1694   0.960   2.641   2.990  2.0306 -1.1877 -0.3233
  565SOL    HW2 1695   0.842   2.768   2.986  0.9031  0.7637  2.6546
  566SOL     OW 1696   1.967   2.728   2.955 -0.2194  0.2899 -0.2416
  566SOL    HW1 1697   1.913   2.785   2.891  0.4936 -2.1471  2.1445
  566SOL    HW2 1698   1.906   2.666   3.007  0.9845  0.8182  0.9948
  567SOL     OW 1699   2.570   1.086   0.995  0.2099  0.6211  0.1099
  567SOL    HW1 1700   2.601   1.026   0.918 -1.0806 -2.4329  2.1462
  567SOL    HW2 1701   2.644   1.153   1.019 -0.4534 -1.7718  0.5321
  568SOL     OW 1702   2.029   1.239   2.728 -0.8464  0.0344 -0.5776
  568SOL    HW1 1703   2.097   1.177   2.682  2.1819 -0.7945  0.3013
  568SOL    HW2 1704   1.938   1.193   2.718  0.1126 -1.2363  2.0641
  569SOL     OW 1705   2.242   1.482   2.603  0.1139  0.2998 -0.3511
  569SOL    HW1 1706   2.236   1.537   2.521  1.1234  2.0864  0.2602
  569SOL    HW2 1707   2.158   1.426   2.611  0.2184  1.7904  2.1965
  570SOL     OW 1708   2.941   2.622   1.944 -0.0230 -0.7429 -0.2967
  570SOL    HW1 1709   2.969   2.593   2.037  2.4761 -2.5122  2.7612
  570SOL    HW2 1710   3.014   2.686   1.899  1.3726 -0.4137 -0.2390
  571SOL     OW 1711   0.361   0.200   1.840  0.0516  0.3310  0.0581
  571SOL    HW1 1712   0.350   0.299   1.843  1.4227 -0.4666  3.7101
  571SOL    HW2 1713   0.270   0.157   1.835 -0.1928 -1.0004  0.7992
  572SOL     OW 1714   0.922   1.890   1.004  0.5415 -0.2918 -0.4364
  572SOL    HW1 1715   0.956   1.906   0.906  1.8709 -1.2343 -3.0146
  572SOL    HW2 1716   0.994   1.841   1.057 -0.5652  2.5046 -0.4891
  573SOL     OW 1717   1.288   0.506   0.418 -0.0903  0.0466  0.2236
  573SOL    HW1 1718   1.197   0.476   0.383  1.2333 -0.3062 -0.8605
  573SOL    HW2 1719   1.334   0.563   0.348  0.0654 -0.4271  1.7095
  574SOL     OW 1720   0.465   2.897   0.351 -0.0271 -0.2466  0.1205
  574SOL    HW1 1721   0.411   2.972   0.304 -0.9441  1.2427 -1.5900
  574SOL    HW2 1722   0.513   2.932   0.436 -0.7570  0.8514  0.9071
  575SOL     OW 1723   0.276   1.422   1.248 -0.5156 -0.0301 -0.3985
  575SOL    HW1 1724   0.287   1.412   1.147 -1.2570  1.8081  0.1541
  575SOL    HW2 1725   0.368   1.441   1.284 -3.4200 -0.3257 -1.6012
  576SOL     OW 1726   2.690   0.271   1.930 -0.1458 -0.1237 -0.0244
  576SOL    HW1 1727   2.716   0.304   2.020  0.1394 -1.7390 -3.3753
  576SOL    HW2 1728   2.593   0.263   1.919 -0.5189 -2.2410  0.9109
  577SOL     OW 1729   2.770   1.658   2.019 -0.3333  0.1585  0.2760
  577SOL    HW1 1730   2.670   1.681   2.025 -1.6358  2.6068 -1.4977
  577SOL    HW2 1731   2.796   1.635   2.117  0.3065  0.1592  3.3426
  578SOL     OW 1732   0.995   2.946   2.217 -0.1082  0.2410  0.8653
  578SOL    HW1 1733   1.029   3.024   2.275  1.1263  0.6295  1.7435
  578SOL    HW2 1734   0.948   2.878   2.280  0.1828  0.5389  0.0605
  579SOL     OW 1735   1.957   1.932   2.090 -0.5022  0.3963 -0.2039
  579SOL    HW1 1736   1.994   1.879   2.013 -1.2375  0.5371  1.1423
  579SOL    HW2 1737   1.972   2.032   2.075  2.0622 -1.6684  1.8578
  580SOL     OW 1738   2.041   1.235   1.935  0.0632 -0.2025  0.3588
  580SOL    HW1 1739   2.049   1.133   1.941 -0.2661  2.7975  1.7122
  580SOL    HW2 1740   2.133   1.280   1.925  2.8496  4.0004 -0.3106
  581SOL     OW 1741   1.615   1.038   2.314 -0.1684  0.3198  0.4817
  581SOL    HW1 1742   1.610   1.065   2.217  0.1591 -0.4605 -1.2182
  581SOL    HW2 1743   1.689   1.084   2.362 -1.2076  1.7160  1.3935
  582SOL     OW 1744   2.968   2.348   1.635  0.2598 -0.0090  0.1494
  582SOL    HW1 1745   2.958   2.248   1.639 -0.9555 -1.9924  0.5594
  582SOL    HW2 1746   2.919   2.383   1.713  0.9994 -0.2745 -1.4567
  583SOL     OW 1747   1.680   0.932   0.712 -0.2901 -0.2605 -0.5195
  583SOL    HW1 1748   1.752   0.922   0.786  1.6377  0.5311 -1.1402
  583SOL    HW2 1749   1.713   0.898   0.621  0.3424 -0.6681  2.1714
  584SOL     OW 1750   1.031   2.525   0.402  0.1604 -0.0819 -0.7653
  584SOL    HW1 1751   0.951   2.587   0.397 -1.1613  0.0084  2.5071
  584SOL    HW2 1752   1.101   2.546   0.333  1.3709 -0.0382 -0.4983
  585SOL     OW 1753   0.049   2.612   3.041  0.1032 -0.0721  0.1612
  585SOL    HW1 1754   3.098   2.546   3.002  1.9955  1.8817 -0.5649
  585SOL    HW2 1755   0.132   2.613   2.978  0.3886  0.0817 -1.4084
  586SOL     OW 1756   2.518   1.000   0.385  0.0823  0.6122  0.1678
  586SOL    HW1 1757   2.515   0.955   0.479  1.1706  0.2712  0.4857
  586SOL    HW2 1758   2.498   1.097   0.400 -2.7074 -2.0626 -1.2333
  587SOL     OW 1759   0.056   1.436   0.491 -0.2967  0.3553 -0.1080
  587SOL    HW1 1760   0.045   1.538   0.488  0.7791  0.4864  3.1605
  587SOL    HW2 1761   0.052   1.394   0.586  1.4174 -1.7895  0.8845
  588SOL     OW 1762   0.053   0.406   0.757 -0.4513 -0.1083 -0.4519
  588SOL    HW1 1763   0.120   0.485   0.756  2.3610  2.1917 -0.2976
  588SOL    HW2 1764   0.088   0.334   0.818 -1.0723 -1.6847 -0.7155
  589SOL     OW 1765   1.481   0.043   0.851 -0.0572  0.1250 -0.1013
  589SOL    HW1 1766   1.485   0.014   0.947  0.5702 -1.9510 -1.7240
  589SOL    HW2 1767   1.517   0.140   0.840  0.8305  0.8698 -1.3029
  590SOL     OW 1768   2.496   2.220   0.186  0.1527  0.6876  0.0408
  590SOL    HW1 1769   2.430   2.141   0.170 -0.3886 -1.7865 -0.1418
  590SOL    HW2 1770   2.450   2.308   0.209  1.4177 -0.0419  1.2336
  591SOL     OW 1771   0.227   2.320   1.785  0.3699 -0.0635 -0.0136
  591SOL    HW1 1772   0.304   2.259   1.814  0.7361 -0.1761 -1.1143
  591SOL    HW2 1773   0.151   2.263   1.753 -0.2655 -2.3738  0.8169
  592SOL     OW 1774   0.239   1.585   2.146  0.1086  0.1299 -0.1507
  592SOL    HW1 1775   0.166   1.550   2.205  0.7548  0.8107 -0.5531
  592SOL    HW2 1776   0.205   1.661   2.090  1.3239 -0.1176  0.3530
  593SOL     OW 1777   1.380   2.071   1.362  0.0527  0.1662  0.4286
  593SOL    HW1 1778   1.286   2.044   1.360  2.0504  1.8245  1.6655
  593SOL    HW2 1779   1.405   2.094   1.455 -0.0028  1.1145 -2.3859
  594SOL     OW 1780   0.520   1.290   2.707 -0.3445 -0.2852 -0.1463
  594SOL    HW1 1781   0.554   1.193   2.714 -2.3081  1.1287 -2.5091
  594SOL    HW2 1782   0.569   1.362   2.760 -1.0024 -1.0256 -1.0949
  595SOL     OW 1783   1.762   0.592   0.938 -0.1687  0.1861  0.1256
  595SOL    HW1 1784   1.667   0.584   0.973  1.1714  0.5739  3.3486
  595SOL    HW2 1785   1.826   0.527   0.982  0.7051 -1.3009 -3.3011
  596SOL     OW 1786   0.332   1.098   1.297  0.0944  0.3601 -0.5583
  596SOL    HW1 1787   0.422   1.135   1.280 -1.8847 -0.9665 -0.9125
  596SOL    HW2 1788   0.304   1.121   1.392  0.6099  0.3922  2.9183
  597SOL     OW 1789   0.123   2.689   2.337 -0.0455 -0.1591 -0.2604
  597SOL    HW1 1790   0.184   2.766   2.326 -1.4370 -1.8129  0.5135
  597SOL    HW2 1791   0.173   2.617   2.390  0.4208 -2.6135 -1.5297
  598SOL     OW 1792   2.288   2.272   2.422 -0.2578 -0.3415  0.4056
  598SOL    HW1 1793   2.219   2.289   2.350  1.6194 -1.5166  1.5282
  598SOL    HW2 1794   2.361   2.344   2.418  2.9171  2.4557  3.0924
  599SOL     OW 1795   1.320   1.039   0.436  0.2323 -0.1497  0.0278
  599SOL    HW1 1796   1.283   1.135   0.428  1.8453  1.4233  3.9816
  599SOL    HW2 1797   1.356   1.023   0.532  2.1312  1.9590  2.8003
  600SOL     OW 1798   1.384   0.268   0.520  0.5551 -0.0256 -0.0950
  600SOL    HW1 1799   1.349   0.361   0.490 -1.0718  0.3477 -0.2057
  600SOL    HW2 1800   1.440   0.279   0.603 -0.5153 -0.8642 -1.4434
  601SOL     OW 1801   0.624   0.578   1.599  0.7945  0.0282  0.0888
  601SOL    HW1 1802   0.577   0.596   1.690 -2.4992 -0.6334  0.1573
  601SOL    HW2 1803   0.599   0.489   1.557  0.9071 -0.5804  0.6561
  602SOL     OW 1804   0.313   2.463   0.530  0.0255  0.4534 -0.1159
  602SOL    HW1 1805   0.315   2.388   0.459 -1.4066  0.5421  2.9547
  602SOL    HW2 1806   0.282   2.555   0.495 -0.7917 -2.8231  1.4572
  603SOL     OW 1807   0.948   3.025   2.538 -0.9414  0.1112  0.4006
  603SOL    HW1 1808   0.968   3.056   2.636  1.3515  2.2301  0.2163
  603SOL    HW2 1809   1.032   3.032   2.477  0.8152  0.6731 -1.0480
  604SOL     OW 1810   1.215   2.567   0.193 -0.1249  0.0321  0.2840
  604SOL    HW1 1811   1.297   2.562   0.252 -1.5293 -1.0451 -1.8147
  604SOL    HW2 1812   1.225   2.648   0.130  1.1808  0.0590  1.0099
  605SOL     OW 1813   1.776   1.160   1.773 -0.0661  0.2442  1.0205
  605SOL    HW1 1814   1.770   1.251   1.822  2.0371  5.0976  0.6834
  605SOL    HW2 1815   1.870   1.154   1.727 -0.1581  2.5414  0.6043
  606SOL     OW 1816   1.100   1.049   2.645  0.1734  0.4710  0.1250
  606SOL    HW1 1817   1.198   1.027   2.666  0.1748 -0.1438 -0.5316
  606SOL    HW2 1818   1.086   1.152   2.643  0.4351  3.5748 -0.4327
  607SOL     OW 1819   0.616   1.122   1.224 -0.5551 -0.3969  0.3081
  607SOL    HW1 1820   0.609   1.026   1.256 -1.4852  2.5136  0.4507
  607SOL    HW2 1821   0.714   1.140   1.214 -1.9850 -1.1254 -0.6889
  608SOL     OW 1822   2.550   2.010   1.955 -0.8056 -0.0628  0.6173
  608SOL    HW1 1823   2.462   2.060   1.936  0.5204 -1.9398 -0.2593
  608SOL    HW2 1824   2.613   2.064   2.018 -0.2054 -0.1939 -1.7938
  609SOL     OW 1825   2.172   0.136   0.087  0.8610 -0.3799 -0.0524
  609SOL    HW1 1826   2.125   0.148   0.176  3.0647  0.3591 -2.4964
  609SOL    HW2 1827   2.185   0.037   0.067  0.9530 -2.1322 -2.0356
  610SOL     OW 1828   0.374   2.810   1.565 -0.0457 -0.5547  0.6848
  610SOL    HW1 1829   0.339   2.795   1.659  0.6936 -1.5257 -0.6674
  610SOL    HW2 1830   0.471   2.834   1.568  0.3346  0.3219 -1.7791
  611SOL     OW 1831   1.361   1.617   1.229  0.0470 -0.2020  0.1215
  611SOL    HW1 1832   1.273   1.590   1.275 -2.0550 -0.2629  1.1205
  611SOL    HW2 1833   1.427   1.541   1.219  2.9778 -1.3036 -0.7748
  612SOL     OW 1834   0.623   0.224   2.180  0.1890 -0.0166  0.0614
  612SOL    HW1 1835   0.646   0.317   2.208 -3.0501 -0.8181  0.8993
  612SOL    HW2 1836   0.662   0.154   2.245  0.2008 -2.3487  1.3637
  613SOL     OW 1837   2.912   1.422   0.373 -0.3016 -0.4217  0.4016
  613SOL    HW1 1838   2.857   1.354   0.426  0.9265  2.3904 -1.2234
  613SOL    HW2 1839   3.009   1.422   0.406 -1.0194  1.2521  0.3166
  614SOL     OW 1840   1.638   0.164   1.845 -0.7699 -0.2092  0.2836
  614SOL    HW1 1841   1.723   0.112   1.817  0.4205  0.8897 -1.1901
  614SOL    HW2 1842   1.666   0.245   1.899  2.9600 -2.7048  0.1107
  615SOL     OW 1843   0.811   1.729   1.421  0.7461 -0.2693 -0.2986
  615SOL    HW1 1844   0.904   1.727   1.455 -4.7839  0.4008  1.3136
  615SOL    HW2 1845   0.769   1.818   1.441 -0.5114 -3.1517  2.1330
  616SOL     OW 1846   1.492   1.891   0.031 -0.4021  0.1576  0.5063
  616SOL    HW1 1847   1.556   1.829   0.086  1.9397 -3.2692  0.4846
  616SOL    HW2 1848   1.484   1.983   0.070 -0.9459 -1.4097  2.4109
  617SOL     OW 1849   1.952   2.951   0.076 -0.3738  0.0910 -0.2219
  617SOL    HW1 1850   1.895   3.026   0.037 -1.0563  0.2247 -1.2784
  617SOL    HW2 1851   1.898   2.887   0.129  1.4815  1.0233  0.9066
  618SOL     OW 1852   0.752   0.704   2.740 -0.6560  0.4354 -0.3581
  618SOL    HW1 1853   0.730   0.762   2.819  2.6556  0.2047 -0.8475
  618SOL    HW2 1854   0.723   0.744   2.652  1.6694 -2.5635 -0.2479
  619SOL     OW 1855   2.809   1.244   0.536 -0.5458 -0.2095  0.0767
  619SOL    HW1 1856   2.789   1.142   0.523 -0.6433 -1.5728  0.1043
  619SOL    HW2 1857   2.728   1.303   0.560  0.2132  0.9446  1.7860
  620SOL     OW 1858   2.428   2.631   2.944 -0.1737  0.8209  0.2917
  620SOL    HW1 1859   2.340   2.671   2.980  3.5328 -1.1872  0.9566
  620SOL    HW2 1860   2.411   2.541   2.895 -0.4866  1.5353  1.4229
  621SOL     OW 1861   2.486   1.198   0.090 -0.4776  0.4261 -0.0802
  621SOL    HW1 1862   2.471   1.197   0.190 -1.2683  0.4114  0.7093
  621SOL    HW2 1863   2.398   1.195   0.040  1.2945  1.4900 -2.5800
  622SOL     OW 1864   1.273   2.298   2.326 -0.5319  0.4353  0.1685
  622SOL    HW1 1865   1.329   2.281   2.247 -1.3910  3.1668  3.7864
  622SOL    HW2 1866   1.341   2.330   2.395 -0.4033  0.1950  0.9402
  623SOL     OW 1867   0.925   1.780   0.298 -0.4384 -0.6235 -0.3398
  623SOL    HW1 1868   0.994   1.855   0.313 -0.1534 -2.2310  1.9315
  623SOL    HW2 1869   0.889   1.770   0.202  1.3253  0.3441  2.5209
  624SOL     OW 1870   0.455   0.174   3.025 -0.5070 -0.1389  0.2638
  624SOL    HW1 1871   0.372   0.174   3.085 -0.7212  0.0247 -0.8611
  624SOL    HW2 1872   0.546   0.190   3.075  0.4277  0.0875  0.0164
  625SOL     OW 1873   0.842   1.973   0.577  0.3034 -0.1899  0.4736
  625SOL    HW1 1874   0.893   1.981   0.494 -2.0106  3.6025  2.3943
  625SOL    HW2 1875   0.773   2.050   0.583 -2.2047  1.8209  0.1125
  626SOL     OW 1876   2.636   0.031   2.858  0.1838  0.7651  0.0879
  626SOL    HW1 1877   2.592   0.046   2.764  0.7708 -1.9778  0.4033
  626SOL    HW2 1878   2.566   0.013   2.928 -1.4416  0.2929 -0.3797
  627SOL     OW 1879   1.502   1.364   2.566  0.2671 -0.1451 -0.7103
  627SOL    HW1 1880   1.487   1.320   2.658 -0.0266 -0.1862  2.7548
  627SOL    HW2 1881   1.490   1.306   2.488 -1.0987 -0.4688 -2.2519
  628SOL     OW 1882   0.450   0.537   2.429  0.3658  0.2266 -0.2615
  628SOL    HW1 1883   0.358   0.493   2.426  0.9768  2.0502  0.0596
  628SOL    HW2 1884   0.524   0.476   2.460 -0.3339 -1.9994 -0.8922
  629SOL     OW 1885   0.006   2.978   1.978 -0.1831  0.5214  0.4766
  629SOL    HW1 1886   3.083   2.935   1.897  1.1484  1.2313 -0.2570
  629SOL    HW2 1887   3.080   2.943   2.062  1.1995 -1.1599 -2.4972
  630SOL     OW 1888   1.595   0.970   1.813 -0.1785 -0.4412  0.3243
  630SOL    HW1 1889   1.585   0.900   1.745 -0.9967  1.5353  0.9860
  630SOL    HW2 1890   1.674   1.034   1.789  0.1131  0.0032 -0.7098
  631SOL     OW 1891   2.362   0.845   0.252  0.0570 -0.3036  0.3574
  631SOL    HW1 1892   2.407   0.754   0.244 -1.1021 -1.3754 -0.3339
  631SOL    HW2 1893   2.433   0.912   0.291  1.5684  1.7031 -0.5806
  632SOL     OW 1894   2.053   0.349   1.992  0.5742 -0.2704  0.2895
  632SOL    HW1 1895   2.079   0.370   2.085 -1.1831 -0.6513 -0.3180
  632SOL    HW2 1896   2.091   0.262   1.963 -0.0664  0.5141 -0.5481
  633SOL     OW 1897   0.992   2.962   0.026 -0.1727  0.1009  0.0544
  633SOL    HW1 1898   0.969   2.954   0.126 -1.4653 -0.5257 -0.3079
  633SOL    HW2 1899   0.964   2.877   3.094  3.1084  0.4973 -0.2837
  634SOL     OW 1900   1.077   2.413   2.648 -0.3588  0.2572 -0.4504
  634SOL    HW1 1901   1.075   2.439   2.550 -2.3814  0.2044 -0.9826
  634SOL    HW2 1902   1.133   2.328   2.654  0.2227 -2.8350 -0.2069
  635SOL     OW 1903   2.368   0.281   3.095  0.8824 -0.1772  0.4461
  635SOL    HW1 1904   2.456   0.299   0.018 -4.5558 -0.0418 -2.1668
  635SOL    HW2 1905   2.302   0.221   0.026 -3.0509 -1.3191 -0.6706
  636SOL     OW 1906   0.871   1.233   0.705  0.0114  0.2755  0.1346
  636SOL    HW1 1907   0.784   1.285   0.734  0.0418 -0.2080  0.0766
  636SOL    HW2 1908   0.858   1.136   0.736 -1.5890 -0.6551 -1.5233
  637SOL     OW 1909   0.192   2.135   0.586  0.0908  0.1561 -0.0045
  637SOL    HW1 1910   0.238   2.106   0.676  1.7389 -3.5345 -0.3102
  637SOL    HW2 1911   0.254   2.187   0.522 -0.2063 -2.0314 -0.6255
  638SOL     OW 1912   0.823   0.011   3.013 -0.4212  0.0839  0.2606
  638SOL    HW1 1913   0.902   3.100   3.070 -1.7681  0.5345 -1.1020
  638SOL    HW2 1914   0.769   0.080   3.064 -0.8353  0.9674  1.6684
  639SOL     OW 1915   1.408   1.664   0.403  0.1527  0.2421 -0.8892
  639SOL    HW1 1916   1.454   1.609   0.476  0.0538  0.4919  0.5591
  639SOL    HW2 1917   1.362   1.747   0.444  1.1549  2.5397 -1.7855
  640SOL     OW 1918   1.746   2.812   1.028 -0.1117 -0.3456  0.1326
  640SOL    HW1 1919   1.765   2.739   0.963  0.5509  0.7633 -0.3961
  640SOL    HW2 1920   1.821   2.878   1.012 -0.5931 -0.5780 -1.0344
  641SOL     OW 1921   3.116   2.636   0.768 -0.1227  0.0326 -0.1938
  641SOL    HW1 1922   0.084   2.593   0.763 -6.5619  0.4448  1.5465
  641SOL    HW2 1923   3.047   2.569   0.747 -1.3423  0.4981  0.1344
  642SOL     OW 1924   0.850   0.265   1.637  0.7133  0.1862  0.0547
  642SOL    HW1 1925   0.763   0.225   1.670  2.2796  1.7626 -0.0160
  642SOL    HW2 1926   0.867   0.346   1.702  0.5390  3.5854  2.1582
  643SOL     OW 1927   0.434   1.840   2.386  0.1423  0.2716  0.0055
  643SOL    HW1 1928   0.350   1.883   2.350  1.8617 -1.0479  0.0951
  643SOL    HW2 1929   0.507   1.908   2.376  0.9025  1.0228  0.8842
  644SOL     OW 1930   0.953   0.025   0.409 -0.2799 -0.3084  0.0656
  644SOL    HW1 1931   0.983   3.049   0.387  1.7395 -0.6486  2.3676
  644SOL    HW2 1932   1.027   0.076   0.452 -2.3791  1.4494 -1.5541
  645SOL     OW 1933   1.081   1.669   2.928  0.5266  0.5603  0.4916
  645SOL    HW1 1934   1.133   1.710   2.850  1.2268 -0.5146 -1.7078
  645SOL    HW2 1935   1.122   1.686   3.018  3.6121 -1.4617  0.2584
  646SOL     OW 1936   0.317   1.502   0.113  0.1732  0.1833  0.2744
  646SOL    HW1 1937   0.341   1.590   0.160 -0.4004 -1.2224 -2.3547
  646SOL    HW2 1938   0.342   1.428   0.178 -1.1385 -1.9336  2.0095
  647SOL     OW 1939   0.902   0.063   1.058 -0.2426  0.0033 -0.5977
  647SOL    HW1 1940   0.980   0.115   1.096 -1.7385 -0.0555 -0.5632
  647SOL    HW2 1941   0.939   3.117   0.988 -0.2094  1.3575 -0.0738
  648SOL     OW 1942   2.612   2.939   2.100 -0.6102  0.6191 -0.0804
  648SOL    HW1 1943   2.561   2.962   2.188  0.0878  1.6172  0.1628
  648SOL    HW2 1944   2.671   3.013   2.061  0.2232  2.6576 -1.6701
  649SOL     OW 1945   0.696   2.419   2.975 -0.1639 -0.5091  0.4917
  649SOL    HW1 1946   0.747   2.329   2.989  1.0824 -2.4439  1.4042
  649SOL    HW2 1947   0.672   2.458   3.063  1.2383 -0.1059 -4.1596
  650SOL     OW 1948   0.429   1.885   1.434 -0.8231  0.3232  0.2099
  650SOL    HW1 1949   0.411   1.838   1.344  1.1851 -0.4650  0.2705
  650SOL    HW2 1950   0.357   1.957   1.444  0.8256 -0.3426  1.7958
  651SOL     OW 1951   0.709   0.223   0.029 -0.1003 -0.2902  0.5024
  651SOL    HW1 1952   0.706   0.211   0.129 -0.8774 -0.5761 -0.4583
  651SOL    HW2 1953   0.745   0.315   0.005 -1.6624 -1.1932 -1.6736
  652SOL     OW 1954   2.700   2.026   0.226 -0.0951 -0.1572  0.2415
  652SOL    HW1 1955   2.685   1.980   0.136 -0.3510  1.8622  3.8241
  652SOL    HW2 1956   2.664   2.120   0.216  2.0371 -1.8678 -0.9164
  653SOL     OW 1957   0.074   0.062   0.612 -0.2831  0.2089  0.5038
  653SOL    HW1 1958   0.006   0.141   0.605  0.2583 -0.4794  1.4570
  653SOL    HW2 1959   0.024   3.091   0.632  0.2024 -0.2630  0.5244
  654SOL     OW 1960   1.633   0.220   2.601 -0.3081  0.4704 -0.3860
  654SOL    HW1 1961   1.587   0.219   2.693 -0.6325 -0.0729  1.0543
  654SOL    HW2 1962   1.620   0.126   2.566  0.0181 -1.7788  1.9615
  655SOL     OW 1963   0.837   2.495   1.357 -0.1604  0.5486 -0.1005
  655SOL    HW1 1964   0.889   2.410   1.392  1.1690  1.7730  0.4868
  655SOL    HW2 1965   0.737   2.488   1.375  1.7413  1.7381  0.4473
  656SOL     OW 1966   0.344   0.476   1.834  0.1864 -0.1559  0.7011
  656SOL    HW1 1967   0.439   0.512   1.851 -2.5571 -1.3898 -0.1194
  656SOL    HW2 1968   0.273   0.527   1.883  3.1119 -1.0590 -0.8866
  657SOL     OW 1969   2.285   0.796   1.993 -0.1504 -0.1102  0.3409
  657SOL    HW1 1970   2.200   0.858   1.992 -0.2864 -1.3278 -0.8694
  657SOL    HW2 1971   2.271   0.710   1.941 -0.1073  3.1976 -3.8358
  658SOL     OW 1972   2.445   1.472   1.224 -0.3272 -0.7632  0.7393
  658SOL    HW1 1973   2.432   1.383   1.274  2.8860 -0.1181  0.0657
  658SOL    HW2 1974   2.371   1.539   1.250 -0.7997 -0.4060 -0.3420
  659SOL     OW 1975   2.411   3.103   3.033 -0.1631 -0.1465 -0.2998
  659SOL    HW1 1976   2.400   0.086   3.053  2.1348 -0.7329 -0.7150
  659SOL    HW2 1977   2.360   3.044   3.099 -0.4110 -1.0656 -0.7405
  660SOL     OW 1978   1.292   1.384   2.841 -0.0814 -0.1188  0.2740
  660SOL    HW1 1979   1.345   1.463   2.869 -2.4712  1.5904 -2.7871
  660SOL    HW2 1980   1.310   1.296   2.895  1.6769 -3.0663  2.4699
  661SOL     OW 1981   2.419   2.367   0.846 -0.0321  0.4949 -0.0295
  661SOL    HW1 1982   2.507   2.319   0.864 -0.3974  0.1333 -0.5991
  661SOL    HW2 1983   2.347   2.331   0.915 -1.2793 -2.5921 -0.7522
  662SOL     OW 1984   0.621   0.967   0.147  0.4651 -0.5559  0.5544
  662SOL    HW1 1985   0.674   0.885   0.175  0.9152  0.7644  1.3783
  662SOL    HW2 1986   0.586   1.007   0.236 -0.8176  0.2724  0.4776
  663SOL     OW 1987   1.198   2.158   0.158  0.5891  0.2842 -0.6698
  663SOL    HW1 1988   1.297   2.171   0.157 -2.0882  3.0469 -0.3242
  663SOL    HW2 1989   1.154   2.242   0.125 -0.8035  0.7364 -2.4755
  664SOL     OW 1990   0.677   2.850   1.613  0.6944 -0.1611 -0.1801
  664SOL    HW1 1991   0.672   2.862   1.513  0.9053  2.6440 -1.4384
  664SOL    HW2 1992   0.671   2.940   1.661 -1.0624 -0.6349 -0.3295
  665SOL     OW 1993   2.014   1.827   1.844 -0.1811 -0.2845 -0.2309
  665SOL    HW1 1994   1.953   1.888   1.784 -0.3349 -0.6209  0.2941
  665SOL    HW2 1995   2.021   1.731   1.818  1.0585  3.7763  0.5047
  666SOL     OW 1996   0.647   2.764   0.150 -0.6946 -0.1423 -0.0936
  666SOL    HW1 1997   0.589   2.816   0.211  2.2453 -0.4494 -2.4467
  666SOL    HW2 1998   0.622   2.770   0.053 -0.4034 -0.6697  0.3131
  667SOL     OW 1999   1.689   1.603   1.737 -0.1880  0.0125 -0.0771
  667SOL    HW1 2000   1.680   1.628   1.639 -1.2329 -2.1337  0.4167
  667SOL    HW2 2001   1.646   1.673   1.801  0.2235  0.8906 -0.5227
  668SOL     OW 2002   0.695   0.837   2.467 -0.7061 -0.1429 -0.7719
  668SOL    HW1 2003   0.613   0.812   2.414 -2.3782 -0.1078  1.5432
  668SOL    HW2 2004   0.765   0.764   2.452  2.0657 -2.0536 -0.6938
  669SOL     OW 2005   1.851   2.331   2.426 -0.0334  0.2497  0.0455
  669SOL    HW1 2006   1.911   2.259   2.384  1.6034 -0.8249  0.9283
  669SOL    HW2 2007   1.788   2.285   2.494  1.1808 -0.9232  2.1940
  670SOL     OW 2008   2.355   1.979   0.161 -0.0461  0.0548 -0.0146
  670SOL    HW1 2009   2.365   1.985   0.060 -0.8730 -0.6452  0.4800
  670SOL    HW2 2010   2.257   1.987   0.185  1.6824 -1.1724 -3.3884
  671SOL     OW 2011   0.543   1.372   1.348  0.2765 -0.4278 -0.2265
  671SOL    HW1 2012   0.592   1.451   1.302  1.0319  0.6153 -2.1450
  671SOL    HW2 2013   0.562   1.282   1.308 -2.2699  1.7806 -1.0138
  672SOL     OW 2014   2.603   1.069   2.302 -0.6300  0.3101 -0.5757
  672SOL    HW1 2015   2.666   1.063   2.223  2.3593  3.4012  0.5394
  672SOL    HW2 2016   2.636   1.010   2.377  0.4570 -0.3621  1.0464
  673SOL     OW 2017   2.844   2.115   2.626  0.8238  0.1013  0.2159
  673SOL    HW1 2018   2.794   2.023   2.603 -2.6528 -0.7411 -1.2938
  673SOL    HW2 2019   2.780   2.197   2.623 -1.7674  2.5472  0.7585
  674SOL     OW 2020   0.863   2.583   2.286  0.0348 -0.1957 -0.4507
  674SOL    HW1 2021   0.840   2.674   2.326 -1.0594 -2.9564 -2.4396
  674SOL    HW2 2022   0.844   2.581   2.184  0.5094  0.1090  0.8740
  675SOL     OW 2023   0.681   0.911   1.393  0.1748 -0.0868 -0.3465
  675SOL    HW1 2024   0.736   0.835   1.435  0.5414 -0.0300  2.5756
  675SOL    HW2 2025   0.639   0.969   1.467  0.1966  1.5925  0.7736
  676SOL     OW 2026   1.920   0.791   0.424  0.1615  0.0650  0.1096
  676SOL    HW1 2027   1.820   0.799   0.437 -1.2537  2.0485 -1.5945
  676SOL    HW2 2028   1.962   0.829   0.506 -0.5783 -0.2456 -1.5693
  677SOL     OW 2029   2.993   1.744   2.862 -0.0165 -0.2674  0.2580
  677SOL    HW1 2030   2.977   1.675   2.786 -2.1916 -2.7601 -0.5136
  677SOL    HW2 2031   3.095   1.768   2.861  0.5502 -2.7088 -3.6152
  678SOL     OW 2032   3.081   2.396   1.123 -0.0998  0.5669 -0.3224
  678SOL    HW1 2033   3.056   2.378   1.222 -2.2793 -2.2757  2.4501
  678SOL    HW2 2034   3.047   2.490   1.101 -1.6624 -0.8689 -0.8878
  679SOL     OW 2035   1.903   2.743   0.627  0.2037  0.3359 -0.4423
  679SOL    HW1 2036   1.826   2.811   0.614 -0.2502 -2.5721 -0.8916
  679SOL    HW2 2037   2.002   2.774   0.621 -0.9057 -1.5292  0.4744
  680SOL     OW 2038   3.089   2.538   2.148  0.0639 -0.5880 -0.3716
  680SOL    HW1 2039   3.103   2.439   2.180 -1.3993 -3.3293  0.1028
  680SOL    HW2 2040   0.005   2.601   2.223  0.8876 -1.0014  1.0346
  681SOL     OW 2041   2.974   1.245   1.516 -0.3984  0.5439  0.2825
  681SOL    HW1 2042   3.045   1.246   1.444 -1.5754 -0.3307  2.6004
  681SOL    HW2 2043   2.953   1.334   1.558 -0.4180 -1.2641 -2.7345
  682SOL     OW 2044   0.475   1.765   1.196 -0.2697  0.1286 -0.3966
  682SOL    HW1 2045   0.534   1.692   1.237  2.9186 -0.0261 -1.1512
  682SOL    HW2 2046   0.429   1.726   1.112 -0.7965 -0.7648  1.1967
  683SOL     OW 2047   2.774   1.792   1.346  0.3063  0.3058  0.5309
  683SOL    HW1 2048   2.838   1.713   1.348 -1.0249  2.5791 -0.0279
  683SOL    HW2 2049   2.685   1.776   1.391  0.3794  0.7702  1.0439
  684SOL     OW 2050   0.041   1.348   0.085  0.2514  0.1298 -0.3014
  684SOL    HW1 2051   0.058   1.266   0.150 -0.0450 -1.5396  3.1069
  684SOL    HW2 2052   0.129   1.398   0.068  0.0007 -1.7937 -1.5305
  685SOL     OW 2053   0.967   0.964   0.241  0.5299  0.3087  0.3808
  685SOL    HW1 2054   0.997   1.048   0.187  0.1613  2.8584 -0.2168
  685SOL    HW2 2055   1.042   0.897   0.264  2.0013 -2.1331  0.5946
  686SOL     OW 2056   0.193   0.171   0.951 -0.4025 -0.7390  0.0608
  686SOL    HW1 2057   0.158   0.224   1.031  2.6087 -2.7327  0.6475
  686SOL    HW2 2058   0.271   0.111   0.974 -0.2477 -0.9005  0.5613
  687SOL     OW 2059   1.202   1.207   2.391  0.5201 -0.3331 -0.4928
  687SOL    HW1 2060   1.121   1.207   2.331  1.2258  0.6998 -0.0680
  687SOL    HW2 2061   1.180   1.265   2.473  0.1771 -0.0128 -0.3388
  688SOL     OW 2062   0.886   2.099   1.332 -0.2268  0.7164 -0.4948
  688SOL    HW1 2063   0.826   2.117   1.251 -0.6437  1.4741 -0.6093
  688SOL    HW2 2064   0.834   2.043   1.401  0.4396  1.7789 -0.5691
  689SOL     OW 2065   1.942   0.749   1.220  0.4958 -0.4810  0.3543
  689SOL    HW1 2066   1.838   0.749   1.224 -1.9945  1.3169  0.4264
  689SOL    HW2 2067   1.980   0.832   1.173 -1.0319 -1.9998 -3.3622
  690SOL     OW 2068   2.954   1.032   0.955 -0.1226 -0.5135 -0.6250
  690SOL    HW1 2069   2.917   1.131   0.963 -1.3695  1.7367 -0.0767
  690SOL    HW2 2070   3.021   1.008   1.027 -0.9862 -1.0123  0.5825
  691SOL     OW 2071   0.286   2.334   1.513  0.2119 -0.0063 -0.2217
  691SOL    HW1 2072   0.279   2.319   1.612  0.4338  3.2114  1.2832
  691SOL    HW2 2073   0.294   2.437   1.485  1.4368  0.8917 -0.7469
  692SOL     OW 2074   1.753   0.002   1.129 -0.0743 -0.1436 -0.0687
  692SOL    HW1 2075   1.821   3.102   1.057 -0.3473  2.1306  1.9956
  692SOL    HW2 2076   1.768   3.050   1.200 -2.5123  1.1744 -0.9808
  693SOL     OW 2077   0.111   1.769   2.622 -0.2067 -0.2846  0.1473
  693SOL    HW1 2078   0.113   1.795   2.720  1.1973 -0.8513  0.8484
  693SOL    HW2 2079   0.050   1.836   2.575  2.5718  1.2749 -4.2385
  694SOL     OW 2080   2.321   0.796   1.016  0.0827 -0.0042 -0.0171
  694SOL    HW1 2081   2.359   0.763   1.107 -1.0710 -0.6483  0.6730
  694SOL    HW2 2082   2.285   0.893   1.030 -0.0869 -1.1696  1.7541
  695SOL     OW 2083   0.728   1.240   1.673  0.3664  0.5304  0.0001
  695SOL    HW1 2084   0.665   1.174   1.626 -1.3532 -1.9796  0.0503
  695SOL    HW2 2085   0.702   1.336   1.654 -1.1711 -1.8030  0.9592
  696SOL     OW 2086   1.764   0.006   0.816 -0.0897  0.3563 -0.1353
  696SOL    HW1 2087   1.694   3.072   0.767 -3.9058  1.6428  0.2782
  696SOL    HW2 2088   1.779   0.098   0.774  0.2989  0.3482  0.7579
  697SOL     OW 2089   0.733   0.248   0.941  0.1031  0.0625 -0.7292
  697SOL    HW1 2090   0.787   0.166   0.971  0.0370 -0.5414  1.2497
  697SOL    HW2 2091   0.743   0.325   1.008 -1.4040  1.1626  0.9058
  698SOL     OW 2092   1.788   1.304   2.061 -0.0063  0.0625 -0.1070
  698SOL    HW1 2093   1.880   1.261   2.051  0.2384  2.7825 -0.3515
  698SOL    HW2 2094   1.792   1.390   2.113 -1.1954 -2.9472  3.3893
  699SOL     OW 2095   1.487   0.823   0.888 -0.5030  0.0323 -0.5250
  699SOL    HW1 2096   1.553   0.896   0.879 -0.0304  1.5139  1.4805
  699SOL    HW2 2097   1.391   0.850   0.871  0.6333 -1.7822 -0.0951
  700SOL     OW 2098   1.428   2.645   0.356  0.3864 -0.0135 -0.0002
  700SOL    HW1 2099   1.501   2.721   0.365  0.6749  2.4268  1.7248
  700SOL    HW2 2100   1.387   2.625   0.450 -1.3590  0.6016  0.5773
  701SOL     OW 2101   2.160   2.454   2.663  0.2902  0.1707  0.3643
  701SOL    HW1 2102   2.101   2.433   2.739 -1.0742 -1.7741 -3.5897
  701SOL    HW2 2103   2.255   2.433   2.685 -2.6927  0.2510  2.2473
  702SOL     OW 2104   0.939   0.306   0.757 -0.2092 -0.1285 -0.3338
  702SOL    HW1 2105   0.961   0.403   0.741 -0.8059 -1.4686  2.6926
  702SOL    HW2 2106   0.868   0.299   0.829  1.0781  2.4594  3.3318
  703SOL     OW 2107   2.096   0.432   2.266  0.0353  0.0101  0.0946
  703SOL    HW1 2108   2.065   0.400   2.356 -0.8152 -0.2830  0.5864
  703SOL    HW2 2109   2.056   0.522   2.243  1.8258 -0.1865  2.8796
  704SOL     OW 2110   3.059   2.226   0.681  0.0171  0.1712 -0.4779
  704SOL    HW1 2111   2.993   2.149   0.663  1.8109 -0.3319 -0.7442
  704SOL    HW2 2112   0.034   2.205   0.652 -0.6095  2.6492  1.4985
  705SOL     OW 2113   2.706   2.702   2.075 -0.0227  0.5310 -0.4858
  705SOL    HW1 2114   2.783   2.687   2.012  0.1893 -0.3344 -2.0739
  705SOL    HW2 2115   2.672   2.796   2.074 -1.0641 -1.0854 -0.7626
  706SOL     OW 2116   2.349   2.627   0.787 -0.6904 -0.7433  0.4506
  706SOL    HW1 2117   2.347   2.529   0.775 -0.1910  3.3089 -0.6590
  706SOL    HW2 2118   2.437   2.644   0.838  3.8850 -1.2948  2.7468
  707SOL     OW 2119   0.531   2.373   1.885 -0.6638  0.3515 -0.1680
  707SOL    HW1 2120   0.608   2.313   1.911  2.2052 -0.4179  1.9065
  707SOL    HW2 2121   0.536   2.397   1.784  2.2593  0.3636  0.5215
  708SOL     OW 2122   3.016   2.327   2.338  0.1669  0.5003  0.2762
  708SOL    HW1 2123   3.026   2.412   2.394 -2.5349 -2.8894  0.7719
  708SOL    HW2 2124   3.105   2.296   2.295  1.2786 -1.6563 -2.6072
  709SOL     OW 2125   1.934   2.970   2.046  0.0891 -0.3484 -0.0522
  709SOL    HW1 2126   2.010   2.909   2.065 -1.9001  3.7328  2.3456
  709SOL    HW2 2127   1.952   3.062   2.089  1.4456 -1.1216 -1.2678
  710SOL     OW 2128   1.733   0.827   2.458 -0.8686  0.2524 -0.4006
  710SOL    HW1 2129   1.767   0.745   2.413  2.0493  1.7032  1.1275
  710SOL    HW2 2130   1.696   0.891   2.391  0.4412  0.1900 -2.8475
  711SOL     OW 2131   0.843   1.903   3.090 -0.0624 -0.1301 -0.1450
  711SOL    HW1 2132   0.921   1.957   3.118  0.5507 -0.3715  1.3545
  711SOL    HW2 2133   0.863   1.816   3.045 -2.1547  0.6499 -0.4147
  712SOL     OW 2134   0.508   2.548   2.445  0.3370  0.1810  0.3568
  712SOL    HW1 2135   0.538   2.466   2.387 -1.5380 -1.0872 -1.4732
  712SOL    HW2 2136   0.561   2.553   2.531 -0.5437 -0.8503  1.2672
  713SOL     OW 2137   1.722   1.433   3.011 -0.2303 -0.3784  0.8261
  713SOL    HW1 2138   1.729   1.508   2.941  4.3593  0.3159 -0.4811
  713SOL    HW2 2139   1.735   1.468   3.105 -2.2235  0.4561 -2.7373
  714SOL     OW 2140   1.053   1.567   1.970 -0.2040 -0.7510 -0.6070
  714SOL    HW1 2141   1.060   1.502   1.896  0.3803  0.0268  3.3001
  714SOL    HW2 2142   1.106   1.532   2.052  1.0042 -0.0349 -1.3552
  715SOL     OW 2143   1.829   0.425   2.750 -0.1451  0.2762  0.2505
  715SOL    HW1 2144   1.849   0.393   2.655  0.4934 -0.6442  0.8147
  715SOL    HW2 2145   1.897   0.388   2.812  1.4677 -0.0764 -2.0737
  716SOL     OW 2146   2.823   2.388   1.873 -0.1990 -0.3774 -0.2382
  716SOL    HW1 2147   2.858   2.481   1.891  1.0768  1.4949 -0.6176
  716SOL    HW2 2148   2.839   2.329   1.948  2.3171  1.2031 -0.3682
  717SOL     OW 2149   2.735   0.898   0.859 -0.5989  0.6611  0.3651
  717SOL    HW1 2150   2.813   0.951   0.890 -1.8498  1.1802 -3.6361
  717SOL    HW2 2151   2.701   0.828   0.928  0.6736 -1.9280 -0.9168
  718SOL     OW 2152   0.704   1.507   2.235  0.3256  0.1113  0.0904
  718SOL    HW1 2153   0.607   1.526   2.240 -0.0272 -1.5743 -1.5081
  718SOL    HW2 2154   0.735   1.464   2.322  0.7993 -0.3456 -1.1289
  719SOL     OW 2155   1.907   1.002   3.065 -0.0682  0.4215 -0.1115
  719SOL    HW1 2156   1.917   0.908   3.028  0.1406 -0.8118  2.2426
  719SOL    HW2 2157   1.999   1.044   3.088  0.0880  0.8074  1.0964
  720SOL     OW 2158   0.697   0.507   0.558  0.5700 -0.0071 -0.9972
  720SOL    HW1 2159   0.676   0.550   0.651  0.9357 -0.1782 -0.0865
  720SOL    HW2 2160   0.663   0.410   0.561 -2.3080  1.0519 -1.6056
  721SOL     OW 2161   2.622   0.346   0.796  0.2639  0.1412 -0.4355
  721SOL    HW1 2162   2.579   0.433   0.774  0.0144  0.3454  3.0985
  721SOL    HW2 2163   2.578   0.273   0.738 -5.3004 -1.3818 -0.1469
  722SOL     OW 2164   2.663   0.705   2.570 -0.0022 -1.0570 -0.7415
  722SOL    HW1 2165   2.744   0.647   2.586 -1.3637  1.8334  0.4266
  722SOL    HW2 2166   2.686   0.802   2.576  0.2090 -0.6736  1.0225
  723SOL     OW 2167   2.542   0.357   0.469 -0.1019 -0.1114 -0.5015
  723SOL    HW1 2168   2.564   0.301   0.384  0.4483 -0.5242  0.7341
  723SOL    HW2 2169   2.448   0.394   0.459  1.8269 -2.8086 -0.8705
  724SOL     OW 2170   0.470   1.836   1.895 -0.1334  0.0765 -0.2474
  724SOL    HW1 2171   0.467   1.739   1.926 -2.9052  0.6916 -0.1660
  724SOL    HW2 2172   0.566   1.851   1.860  0.7723 -0.5033  0.4760
  725SOL     OW 2173   1.713   0.256   1.186 -0.4823 -0.7553  0.1820
  725SOL    HW1 2174   1.781   0.325   1.149  1.2514  0.4554  0.3294
  725SOL    HW2 2175   1.740   0.159   1.168 -0.8303  0.1331  1.0249
  726SOL     OW 2176   2.044   2.469   0.201 -0.3884  0.0372  0.0758
  726SOL    HW1 2177   1.979   2.517   0.143  0.7807 -3.1658  2.5873
  726SOL    HW2 2178   1.994   2.402   0.263  0.4868  1.2737  1.3776
  727SOL     OW 2179   1.607   1.322   1.432 -0.3793 -0.6289  0.1041
  727SOL    HW1 2180   1.576   1.250   1.496  1.6647 -0.6230 -5.0909
  727SOL    HW2 2181   1.606   1.413   1.482 -0.2722 -1.0059  3.0758
  728SOL     OW 2182   2.287   2.679   1.756 -0.1395 -0.1292 -0.2172
  728SOL    HW1 2183   2.213   2.726   1.706 -0.0907  0.3907  1.9121
  728SOL    HW2 2184   2.292   2.580   1.735 -1.4123 -0.6700 -1.3009
  729SOL     OW 2185   2.010   1.621   0.800 -0.0192  0.0337  0.2104
  729SOL    HW1 2186   2.028   1.553   0.722  1.4011 -1.0657 -1.7173
  729SOL    HW2 2187   2.095   1.625   0.860 -0.1966  0.2191  1.7898
  730SOL     OW 2188   1.041   0.699   2.737  0.1692 -0.7744 -0.8128
  730SOL    HW1 2189   0.941   0.691   2.728  0.3056  2.8250  1.7529
  730SOL    HW2 2190   1.080   0.737   2.831  1.1835  0.8572  4.6439
  731SOL     OW 2191   0.423   0.042   1.046 -0.3194  0.5021  0.0108
  731SOL    HW1 2192   0.492   0.097   1.098 -0.0597  0.3728 -0.9830
  731SOL    HW2 2193   0.404   3.068   1.086 -0.0027  1.5432 -1.0349
  732SOL     OW 2194   1.462   0.616   0.596 -0.0995 -0.5016 -0.3188
  732SOL    HW1 2195   1.428   0.555   0.520  2.4269 -1.9865  0.3173
  732SOL    HW2 2196   1.391   0.686   0.621 -2.4135 -0.3181  0.1967
  733SOL     OW 2197   0.528   2.022   1.121 -0.1597 -0.1975  0.1004
  733SOL    HW1 2198   0.624   2.050   1.095  1.8616 -1.9213  1.4868
  733SOL    HW2 2199   0.528   1.923   1.151 -0.7829 -0.8599  0.8663
  734SOL     OW 2200   3.017   2.656   0.154 -0.5710  0.5672  0.2753
  734SOL    HW1 2201   3.056   2.718   0.223  0.3912 -2.3590  0.4893
  734SOL    HW2 2202   3.069   2.655   0.065  0.3619  0.7099  0.2199
  735SOL     OW 2203   1.127   0.199   1.165  0.0423  0.3121 -0.5542
  735SOL    HW1 2204   1.113   0.176   1.262 -2.0156 -1.3101  2.1676
  735SOL    HW2 2205   1.217   0.246   1.154  0.1888 -4.4528 -0.6841
  736SOL     OW 2206   2.140   2.164   0.246  0.5710  0.4472 -0.0068
  736SOL    HW1 2207   2.177   2.148   0.342 -0.4046 -2.7151 -0.0669
  736SOL    HW2 2208   2.189   2.246   0.212  0.7186 -1.8013 -0.0160
  737SOL     OW 2209   2.777   1.246   1.022 -0.2969 -0.1336  0.2695
  737SOL    HW1 2210   2.821   1.294   0.941 -0.4865 -1.5400 -2.7757
  737SOL    HW2 2211   2.773   1.312   1.101 -0.0244 -1.1266  1.3071
  738SOL     OW 2212   2.132   2.402   2.248 -0.6377 -0.1855  0.0865
  738SOL    HW1 2213   2.136   2.445   2.155 -0.5187 -2.1135  0.1395
  738SOL    HW2 2214   2.101   2.478   2.310  1.4723  0.3575  3.5046
  739SOL     OW 2215   1.037   2.116   2.885  0.3190 -0.8942  0.2593
  739SOL    HW1 2216   1.072   2.063   2.963 -3.3281  2.7602 -1.6027
  739SOL    HW2 2217   0.940   2.099   2.861  0.7057 -2.6083 -0.0125
  740SOL     OW 2218   1.366   0.369   1.122  0.4024 -0.2181  0.2194
  740SOL    HW1 2219   1.428   0.288   1.138 -1.5588  0.4987  0.1978
  740SOL    HW2 2220   1.400   0.425   1.041 -0.5955  2.3964 -0.0584
  741SOL     OW 2221   0.201   1.083   1.063 -0.4379  0.2079 -0.7324
  741SOL    HW1 2222   0.258   1.100   1.148 -2.5809  0.8720 -0.5394
  741SOL    HW2 2223   0.114   1.033   1.081 -0.6788 -0.0768  0.4122
  742SOL     OW 2224   1.135   1.336   2.608  0.0116 -0.2671 -0.5575
  742SOL    HW1 2225   1.181   1.369   2.695  0.7536  1.9026  2.7911
  742SOL    HW2 2226   1.051   1.390   2.595  0.7686  3.4131  1.4511
  743SOL     OW 2227   1.103   1.051   2.014  0.1136 -0.3571  0.0194
  743SOL    HW1 2228   1.021   1.110   2.033 -1.6189 -1.3550  0.8963
  743SOL    HW2 2229   1.186   1.085   2.064  0.5058  1.0265  0.3911
  744SOL     OW 2230   1.744   0.304   1.469  0.0787 -0.4547 -0.6039
  744SOL    HW1 2231   1.726   0.272   1.373  0.2553  2.4554  0.3568
  744SOL    HW2 2232   1.843   0.306   1.486 -0.4655  0.2049  0.6991
  745SOL     OW 2233   1.810   1.165   1.314  0.0661 -0.3007 -0.2464
  745SOL    HW1 2234   1.892   1.229   1.302  1.3015  1.0525  2.4928
  745SOL    HW2 2235   1.730   1.222   1.342 -0.7638  1.6889 -0.2740
  746SOL     OW 2236   2.302   1.181   0.750 -0.0942 -0.1376  0.1333
  746SOL    HW1 2237   2.223   1.152   0.696  1.1071  0.9594  1.0999
  746SOL    HW2 2238   2.384   1.121   0.730  1.6578  1.9629 -1.2678
  747SOL     OW 2239   2.623   1.591   1.052 -0.2792  0.7357  0.1566
  747SOL    HW1 2240   2.574   1.608   0.963  1.0824  2.9023 -1.3288
  747SOL    HW2 2241   2.560   1.539   1.110 -2.0098  2.3589  2.4533
  748SOL     OW 2242   0.581   2.210   0.590 -0.4745  0.1736  0.0730
  748SOL    HW1 2243   0.550   2.306   0.614 -0.4508 -0.0492  1.8772
  748SOL    HW2 2244   0.583   2.195   0.491  0.9321  0.3766 -0.0515
  749SOL     OW 2245   2.526   2.695   2.562 -0.4432 -0.1803 -0.3668
  749SOL    HW1 2246   2.575   2.690   2.651  1.3072  0.3686  4.5411
  749SOL    HW2 2247   2.434   2.733   2.577  0.9867  2.3127  1.1185
  750SOL     OW 2248   2.577   0.617   0.712 -0.1150  0.1808 -0.1963
  750SOL    HW1 2249   2.611   0.642   0.617  0.3713  1.0452  0.1414
  750SOL    HW2 2250   2.479   0.652   0.725  1.3626  0.1357 -1.1001
  751SOL     OW 2251   2.437   2.957   0.273  0.4254 -0.2641 -0.2296
  751SOL    HW1 2252   2.498   3.027   0.230 -4.0559  1.5496  0.3994
  751SOL    HW2 2253   2.422   2.971   0.372 -0.5063  0.7484  3.2305
  752SOL     OW 2254   3.024   2.830   0.937 -0.0259 -0.1903  0.2852
  752SOL    HW1 2255   3.083   2.915   0.936 -2.6827  1.1734 -1.7654
  752SOL    HW2 2256   3.063   2.756   0.877  2.7965 -1.7097  0.0384
  753SOL     OW 2257   1.916   0.969   2.212 -0.6817 -0.0518  0.4501
  753SOL    HW1 2258   1.943   1.032   2.289  2.7025  4.7607  3.2887
  753SOL    HW2 2259   1.892   0.874   2.246 -1.5742 -3.2088 -0.5962
  754SOL     OW 2260   1.720   1.980   1.550  0.3722  0.5557 -0.4081
  754SOL    HW1 2261   1.733   2.042   1.470 -2.8296  0.3276  1.4540
  754SOL    HW2 2262   1.752   1.883   1.532  0.1651 -1.9302 -0.0843
  755SOL     OW 2263   2.807   0.982   0.453 -0.0149  0.4051 -0.1830
  755SOL    HW1 2264   2.833   0.922   0.530  2.5639  0.7527  0.2340
  755SOL    HW2 2265   2.717   0.958   0.409 -0.4747 -1.0669 -1.6820
  756SOL     OW 2266   0.991   1.429   2.866  0.6821 -0.1050 -0.5914
  756SOL    HW1 2267   1.078   1.376   2.875  1.8970  0.6294  0.7030
  756SOL    HW2 2268   1.017   1.526   2.887 -1.4636 -1.3393 -0.1823
  757SOL     OW 2269   1.482   2.512   0.824 -0.2175 -0.3544  0.2216
  757SOL    HW1 2270   1.483   2.591   0.895 -1.6969 -0.1195  0.1661
  757SOL    HW2 2271   1.480   2.420   0.877 -1.5345 -2.1076 -1.9511
  758SOL     OW 2272   1.393   2.822   1.597  0.3051 -0.6063  0.4260
  758SOL    HW1 2273   1.393   2.903   1.662 -1.1519  1.4548 -1.1407
  758SOL    HW2 2274   1.380   2.855   1.498 -2.7825  2.3204 -3.0682
  759SOL     OW 2275   0.230   0.850   0.691 -0.0155 -0.3199 -0.1903
  759SOL    HW1 2276   0.280   0.917   0.633 -2.7758 -1.1235 -0.3444
  759SOL    HW2 2277   0.132   0.884   0.703 -1.7493  2.0635 -0.4037
  760SOL     OW 2278   2.570   0.984   1.229 -0.5242  0.3516 -0.1616
  760SOL    HW1 2279   2.560   1.023   1.136  2.2184  0.3438 -2.0343
  760SOL    HW2 2280   2.530   1.042   1.298 -0.1513 -0.1266 -3.0836
  761SOL     OW 2281   1.915   0.035   0.450  0.2702  0.1564  0.2220
  761SOL    HW1 2282   1.978   3.090   0.398 -1.9304 -1.6182  1.9824
  761SOL    HW2 2283   1.954   0.124   0.480 -0.3999  2.5964  0.6332
  762SOL     OW 2284   2.195   1.550   3.030 -0.2971 -0.5722 -0.1996
  762SOL    HW1 2285   2.117   1.482   3.027  1.0514 -2.6203  2.8646
  762SOL    HW2 2286   2.197   1.613   2.949  0.8237  0.0669 -1.2222
  763SOL     OW 2287   0.701   1.957   1.487  0.3329 -0.5962  0.1348
  763SOL    HW1 2288   0.732   2.002   1.568 -1.5078  1.3265 -2.3401
  763SOL    HW2 2289   0.598   1.943   1.491 -0.4106 -0.1754  0.8020
  764SOL     OW 2290   2.980   2.422   2.951  0.0256  0.0439 -0.2497
  764SOL    HW1 2291   2.960   2.321   2.960  0.3344 -2.3697  0.6944
  764SOL    HW2 2292   2.955   2.457   2.855 -1.2605  3.0019 -0.1474
  765SOL     OW 2293   0.370   2.880   1.121  0.0324  0.1403  0.2556
  765SOL    HW1 2294   0.458   2.830   1.144  3.3263 -2.5685  0.7228
  765SOL    HW2 2295   0.306   2.822   1.068  2.3619  1.2171 -2.4036
  766SOL     OW 2296   2.843   2.113   2.286 -0.3310  0.1699 -0.1491
  766SOL    HW1 2297   2.902   2.187   2.321 -3.6472 -2.6771  0.0141
  766SOL    HW2 2298   2.818   2.053   2.364 -2.7273 -2.1477  0.9856
  767SOL     OW 2299   2.366   0.663   2.234 -1.0841 -0.0129  0.4045
  767SOL    HW1 2300   2.349   0.706   2.143  0.8260  0.1045  1.3936
  767SOL    HW2 2301   2.465   0.641   2.254  1.8805 -2.6788 -1.2234
  768SOL     OW 2302   1.401   0.116   2.811 -0.4399 -0.1377  0.4120
  768SOL    HW1 2303   1.395   0.019   2.785  1.1836  0.6065  1.7855
  768SOL    HW2 2304   1.482   0.135   2.869 -2.9205 -0.1461 -0.5635
  769SOL     OW 2305   2.908   2.613   1.077  0.2306 -0.3168  0.4206
  769SOL    HW1 2306   2.848   2.565   1.013  0.5888 -1.5652  2.0562
  769SOL    HW2 2307   2.932   2.704   1.040 -0.8509  1.4929  1.0049
  770SOL     OW 2308   0.438   0.174   2.591  0.4898  0.3205 -0.4030
  770SOL    HW1 2309   0.481   0.087   2.623  1.2261 -1.4469 -1.7832
  770SOL    HW2 2310   0.424   0.231   2.677  2.3961  1.7481  1.6022
  771SOL     OW 2311   1.245   1.737   2.155 -0.0094  0.6376  0.1180
  771SOL    HW1 2312   1.220   1.639   2.171  0.0721 -2.7684  1.0690
  771SOL    HW2 2313   1.294   1.749   2.067 -3.3912  1.0977  0.8179
  772SOL     OW 2314   1.550   2.582   2.643 -0.6118 -0.3909 -0.1815
  772SOL    HW1 2315   1.484   2.658   2.648  2.9336 -1.0381  1.8022
  772SOL    HW2 2316   1.643   2.618   2.632 -0.2491 -0.3248  1.8311
  773SOL     OW 2317   1.889   0.932   1.450 -0.4196  0.3158  0.1015
  773SOL    HW1 2318   1.894   0.863   1.370 -2.1489 -0.1800 -3.2316
  773SOL    HW2 2319   1.832   1.013   1.425  1.5473 -0.3102  1.2348
  774SOL     OW 2320   0.886   0.741   0.936  0.1384  0.3299 -0.2347
  774SOL    HW1 2321   0.949   0.666   0.965  1.4593 -0.7745 -0.1168
  774SOL    HW2 2322   0.816   0.773   1.005  1.1154 -0.6268 -1.2258
  775SOL     OW 2323   1.873   2.864   2.749 -0.4906  0.2404 -0.5077
  775SOL    HW1 2324   1.795   2.919   2.773 -0.3423 -2.4108 -0.1853
  775SOL    HW2 2325   1.843   2.798   2.675  0.3661  0.8798 -0.1361
  776SOL     OW 2326   2.190   0.861   1.391 -0.4628  0.9609  0.4337
  776SOL    HW1 2327   2.164   0.958   1.378  3.1456 -3.7133  1.5632
  776SOL    HW2 2328   2.121   0.797   1.347  0.7448 -0.1713  0.1810
  777SOL     OW 2329   0.198   1.218   2.151  0.1598  0.5844 -0.3677
  777SOL    HW1 2330   0.297   1.210   2.134 -0.2000 -1.6885  4.3928
  777SOL    HW2 2331   0.183   1.290   2.219 -2.5942  0.5175 -0.8397
  778SOL     OW 2332   0.032   0.947   2.913 -0.2606 -0.7435 -0.8057
  778SOL    HW1 2333   0.034   0.861   2.853  1.7313 -0.4340 -1.1894
  778SOL    HW2 2334   0.127   0.971   2.940  2.2598 -0.7172 -0.6593
  779SOL     OW 2335   0.410   0.572   2.884 -0.1442 -0.6967  0.3259
  779SOL    HW1 2336   0.487   0.590   2.949 -0.4790  3.0600  0.5563
  779SOL    HW2 2337   0.400   0.660   2.828  0.7598 -0.5674 -0.1335
  780SOL     OW 2338   2.212   1.702   2.797 -0.2403  0.3331 -0.0344
  780SOL    HW1 2339   2.235   1.649   2.713  2.1120  2.6076 -0.0805
  780SOL    HW2 2340   2.286   1.776   2.809  0.3722  2.6697 -1.0810
  781SOL     OW 2341   2.843   1.039   2.155 -0.1783  0.0744  0.2039
  781SOL    HW1 2342   2.859   1.088   2.063 -1.1567  2.2082  0.0626
  781SOL    HW2 2343   2.836   0.942   2.140  1.5124  2.7820  0.1535
  782SOL     OW 2344   0.976   1.928   2.703  0.1645  0.3535  0.2710
  782SOL    HW1 2345   0.896   1.871   2.734  0.2838 -4.0089 -0.2900
  782SOL    HW2 2346   1.029   1.976   2.775 -1.0825 -1.1340 -2.7672
  783SOL     OW 2347   1.239   2.436   1.131  0.2054  0.0924 -0.1814
  783SOL    HW1 2348   1.236   2.339   1.091 -1.1316 -3.1093  0.2537
  783SOL    HW2 2349   1.153   2.491   1.117  0.6286 -0.0153  1.8136
  784SOL     OW 2350   1.855   0.576   2.381 -0.1612 -0.2728  0.2788
  784SOL    HW1 2351   1.928   0.557   2.451 -0.7721 -0.2077  2.8449
  784SOL    HW2 2352   1.779   0.509   2.387  3.0175  0.2861 -0.9228
  785SOL     OW 2353   3.053   0.150   2.053  0.6791 -0.2357 -0.2006
  785SOL    HW1 2354   3.021   0.091   2.131 -1.8105  3.0965  1.7038
  785SOL    HW2 2355   3.096   0.094   1.976  2.2351 -0.7411 -3.4191
  786SOL     OW 2356   1.072   2.020   0.357 -0.4314 -0.3072 -0.2881
  786SOL    HW1 2357   1.114   2.039   0.267  1.1666  0.3907  3.3071
  786SOL    HW2 2358   1.045   2.107   0.409  1.1902 -2.4458  0.7163
  787SOL     OW 2359   1.208   0.161   0.878  0.3166  0.3041  0.2997
  787SOL    HW1 2360   1.299   0.113   0.880  1.6223 -2.8963 -0.1341
  787SOL    HW2 2361   1.168   0.168   0.973 -1.3739  0.2476 -1.9243
  788SOL     OW 2362   2.770   1.414   1.234 -0.0786 -0.1973 -0.4120
  788SOL    HW1 2363   2.683   1.470   1.216  0.7274 -3.6773 -1.2979
  788SOL    HW2 2364   2.852   1.472   1.248  0.4605  1.2752 -2.3805
  789SOL     OW 2365   2.413   1.039   2.107  0.4638 -0.4309 -0.0762
  789SOL    HW1 2366   2.445   0.980   2.032  0.3000 -1.6644  1.3236
  789SOL    HW2 2367   2.487   1.049   2.178 -2.4472  0.0934  0.3157
  790SOL     OW 2368   1.076   0.175   0.211 -0.1999 -0.4852 -0.3140
  790SOL    HW1 2369   1.064   0.263   0.247  0.2298 -1.8152 -1.9788
  790SOL    HW2 2370   1.010   0.116   0.261  1.1640  0.0570 -2.0601
  791SOL     OW 2371   0.050   3.033   0.205 -0.5425 -0.0571  0.1678
  791SOL    HW1 2372   3.116   3.102   0.154 -1.0400 -1.4673 -0.9383
  791SOL    HW2 2373   0.139   3.064   0.244 -0.7455 -0.2752 -0.5576
  792SOL     OW 2374   1.329   0.418   1.882 -0.0311  0.2912 -0.2363
  792SOL    HW1 2375   1.305   0.391   1.978  3.6241  1.9905  2.1906
  792SOL    HW2 2376   1.294   0.516   1.868 -0.5206  0.9125  1.8188
  793SOL     OW 2377   0.060   0.319   1.158  0.3640  0.0611 -0.1391
  793SOL    HW1 2378   0.078   0.418   1.170  0.3700 -0.2912 -0.7283
  793SOL    HW2 2379   0.075   0.276   1.254  0.8915  1.5843  1.4626
  794SOL     OW 2380   0.080   0.388   2.087  0.3058 -0.6038  0.4562
  794SOL    HW1 2381   0.090   0.455   2.012 -0.2406 -1.0976 -0.3616
  794SOL    HW2 2382   0.037   0.296   2.058  2.2101  0.3109 -0.3944
  795SOL     OW 2383   0.831   1.570   0.441  0.3013 -0.5384  0.1467
  795SOL    HW1 2384   0.739   1.552   0.405  0.6616 -0.3269  0.2773
  795SOL    HW2 2385   0.885   1.632   0.375  1.2560 -1.6454 -2.3831
  796SOL     OW 2386   3.116   0.934   0.073 -0.2814  0.4320  0.2431
  796SOL    HW1 2387   3.032   0.983   0.099  0.5524 -0.4446  1.1672
  796SOL    HW2 2388   3.114   0.931   3.090 -0.1450 -0.2695  2.8267
  797SOL     OW 2389   1.620   3.076   2.499  0.0413 -0.3396 -0.2684
  797SOL    HW1 2390   1.706   3.032   2.468  0.7135 -2.2182  1.5256
  797SOL    HW2 2391   1.555   3.086   2.425  0.9635 -0.4551 -1.4148
  798SOL     OW 2392   0.218   0.072   1.422 -0.1831 -0.8042  0.8299
  798SOL    HW1 2393   0.311   0.114   1.400  0.8427  0.7169  1.8043
  798SOL    HW2 2394   0.150   0.147   1.428 -0.2325  1.8142 -1.2009
  799SOL     OW 2395   0.023   0.974   1.970  0.6473 -0.2264  0.0213
  799SOL    HW1 2396   0.027   0.976   1.869  0.7721  3.3501 -0.3256
  799SOL    HW2 2397   0.031   0.879   2.010 -2.0615  0.0611  0.0472
  800SOL     OW 2398   0.021   1.731   0.446 -0.3040  0.2265  0.0098
  800SOL    HW1 2399   3.118   1.814   0.493  0.9477  0.8869 -1.3185
  800SOL    HW2 2400   0.013   1.740   0.345  0.2054  2.3274  0.0951
  801SOL     OW 2401   2.077   1.477   0.575  0.0992 -0.1504  0.2345
  801SOL    HW1 2402   2.115   1.516   0.485 -0.0587  0.4783 -1.7310
  801SOL    HW2 2403   2.000   1.410   0.556  1.6493  0.3715  1.0643
  802SOL     OW 2404   1.357   0.964   2.675  0.2263 -0.5566  0.2177
  802SOL    HW1 2405   1.336   0.948   2.575 -2.7317 -1.9627 -0.9795
  802SOL    HW2 2406   1.460   0.955   2.693  3.3284  3.1628 -0.8814
  803SOL     OW 2407   0.788   2.077   1.709 -0.4030 -0.2560  0.1841
  803SOL    HW1 2408   0.824   2.163   1.749 -2.1958 -1.6590 -2.5204
  803SOL    HW2 2409   0.796   2.000   1.773 -1.4040 -1.2655 -2.4567
  804SOL     OW 2410   1.348   2.043   0.919  0.6197 -0.3373 -0.1907
  804SOL    HW1 2411   1.379   1.948   0.934 -0.4131  0.6538 -2.1017
  804SOL    HW2 2412   1.299   2.048   0.830 -0.1880  0.1767 -0.3510
  805SOL     OW 2413   2.624   2.301   2.634  0.9538  0.0951  0.3043
  805SOL    HW1 2414   2.691   2.374   2.653 -2.0740 -1.3588  0.9119
  805SOL    HW2 2415   2.556   2.336   2.567  3.3914  0.5819  1.8916
  806SOL     OW 2416   0.237   0.327   0.442  0.1983 -0.0213  0.8295
  806SOL    HW1 2417   0.213   0.272   0.519  1.8849 -0.5198  1.8468
  806SOL    HW2 2418   0.158   0.382   0.409  2.9248  0.7694  1.2023
  807SOL     OW 2419   2.876   0.513   2.675  0.3889 -0.0901 -0.1515
  807SOL    HW1 2420   2.927   0.541   2.756 -1.9089 -0.8296  0.5479
  807SOL    HW2 2421   2.811   0.446   2.706 -2.9946 -0.3333 -1.0406
  808SOL     OW 2422   0.879   2.282   0.708  0.0593 -0.4927 -0.0508
  808SOL    HW1 2423   0.904   2.252   0.798 -0.4319  2.9893 -5.1232
  808SOL    HW2 2424   0.810   2.359   0.705 -1.9930 -0.0627 -1.0267
  809SOL     OW 2425   2.695   0.302   2.827  0.4838 -0.3594 -0.5284
  809SOL    HW1 2426   2.683   0.208   2.861  0.8579  1.6572 -0.7870
  809SOL    HW2 2427   2.629   0.315   2.752  3.9839 -3.4864  0.6698
  810SOL     OW 2428   1.442   1.018   0.657  0.1557  0.8846  0.6251
  810SOL    HW1 2429   1.423   1.089   0.730  1.2812 -2.7520 -0.3520
  810SOL    HW2 2430   1.539   0.993   0.663 -4.7047  0.9695  1.1842
  811SOL     OW 2431   1.919   2.951   1.763  0.0207  0.1285 -0.2980
  811SOL    HW1 2432   1.897   3.045   1.727 -2.1050  3.2513 -1.8499
  811SOL    HW2 2433   1.921   2.952   1.867 -0.5951 -2.8131  0.0813
  812SOL     OW 2434   1.770   2.612   0.455 -0.2214  0.2254  0.4091
  812SOL    HW1 2435   1.714   2.529   0.492 -2.1686 -0.8038  1.4267
  812SOL    HW2 2436   1.827   2.655   0.528  3.6845  1.8279 -3.9720
  813SOL     OW 2437   1.061   0.786   1.966 -0.2382 -0.4435  0.3881
  813SOL    HW1 2438   1.042   0.746   2.052  0.5118 -0.4463 -1.1828
  813SOL    HW2 2439   1.074   0.882   1.971 -0.6461 -1.3216  1.9639
  814SOL     OW 2440   0.472   0.156   1.334  0.3775  0.4615  0.9013
  814SOL    HW1 2441   0.444   0.245   1.288 -0.5664 -0.7772 -1.5371
  814SOL    HW2 2442   0.552   0.117   1.279  0.2469  1.4770  1.4436
  815SOL     OW 2443   0.422   3.015   0.818  0.3888  0.4713  0.4774
  815SOL    HW1 2444   0.419   3.062   0.909 -0.5907  0.1744 -1.9244
  815SOL    HW2 2445   0.365   2.930   0.805  1.5656  0.5232 -2.8562
  816SOL     OW 2446   2.826   1.407   2.427  0.3996  0.5807 -0.2084
  816SOL    HW1 2447   2.738   1.358   2.438  0.3727 -0.3011  0.5257
  816SOL    HW2 2448   2.811   1.493   2.370  0.3015  1.1252 -2.2034
  817SOL     OW 2449   1.288   0.150   0.031 -0.1686  0.0611 -0.2268
  817SOL    HW1 2450   1.372   0.199   0.059 -0.5317 -1.9655  0.5379
  817SOL    HW2 2451   1.206   0.164   0.092  0.3306  0.5569 -1.0534
  818SOL     OW 2452   1.628   0.700   0.058  0.4430  0.4552  0.2410
  818SOL    HW1 2453   1.714   0.753   0.082 -0.0402  1.2920 -2.6195
  818SOL    HW2 2454   1.655   0.607   0.027  0.0358 -0.6317 -2.4489
  819SOL     OW 2455   2.217   2.781   3.036 -0.2024  0.3450 -0.1247
  819SOL    HW1 2456   2.117   2.769   3.009 -0.3511 -1.2062 -2.1352
  819SOL    HW2 2457   2.237   2.848   3.112  2.1491  2.1482 -0.7135
  820SOL     OW 2458   1.665   1.079   0.025 -0.1617 -0.5702 -0.4496
  820SOL    HW1 2459   1.599   1.024   3.089  1.7027 -2.8760  0.6267
  820SOL    HW2 2460   1.754   1.059   3.103 -5.0008 -0.0618 -0.1598
  821SOL     OW 2461   0.270   0.681   1.374  0.5540  0.0473  0.1607
  821SOL    HW1 2462   0.276   0.607   1.445 -2.5562  1.8778  0.7809
  821SOL    HW2 2463   0.251   0.636   1.283 -0.5327  1.6206  2.2219
  822SOL     OW 2464   1.088   2.499   2.398 -0.2486  0.0334  0.3722
  822SOL    HW1 2465   1.142   2.436   2.341  0.4064 -1.0008 -2.9899
  822SOL    HW2 2466   0.995   2.522   2.359 -3.5067  0.5795 -1.4152
  823SOL     OW 2467   0.444   1.313   1.866 -0.0357 -0.6895 -0.2181
  823SOL    HW1 2468   0.461   1.406   1.907 -0.3572  0.0525  1.9359
  823SOL    HW2 2469   0.476   1.317   1.770 -0.2852 -1.6967 -4.0270
  824SOL     OW 2470   1.747   2.744   2.056  0.2695  0.2708 -0.1019
  824SOL    HW1 2471   1.813   2.820   2.062  0.4715 -1.1735  0.2313
  824SOL    HW2 2472   1.671   2.769   1.989 -0.1652 -1.3234  0.6074
  825SOL     OW 2473   1.042   1.164   0.066  0.8208  0.0387 -0.3904
  825SOL    HW1 2474   1.028   1.264   0.087  1.1547 -0.4681 -1.2888
  825SOL    HW2 2475   1.026   1.138   3.087  0.1071 -0.6173 -0.2793
  826SOL     OW 2476   2.084   0.700   3.092 -0.3067 -0.1047 -0.2240
  826SOL    HW1 2477   2.021   0.713   3.010 -1.0238 -0.7817 -0.3968
  826SOL    HW2 2478   2.171   0.762   3.083  1.3746 -1.2846  0.1152
  827SOL     OW 2479   0.396   2.223   2.896  0.7423 -0.2192  0.0525
  827SOL    HW1 2480   0.475   2.213   2.830  0.0541 -2.0360  2.2762
  827SOL    HW2 2481   0.315   2.246   2.842  0.5886 -0.3399 -1.2075
  828SOL     OW 2482   0.100   0.292   1.443 -0.3222  0.2557  0.1445
  828SOL    HW1 2483   0.178   0.359   1.462  0.1306 -1.6265 -0.9729
  828SOL    HW2 2484   0.011   0.328   1.483 -1.6843 -2.5234 -0.4369
  829SOL     OW 2485   1.031   1.435   1.161 -0.0914  0.1806  0.2094
  829SOL    HW1 2486   0.957   1.503   1.144 -0.5676  0.4595 -0.8227
  829SOL    HW2 2487   1.044   1.376   1.077 -0.8797 -1.6247  0.2720
  830SOL     OW 2488   0.464   1.409   1.613  1.2137 -0.5284  0.5017
  830SOL    HW1 2489   0.492   1.391   1.520 -0.9772  1.4993  3.1726
  830SOL    HW2 2490   0.362   1.409   1.620 -4.3515  0.0372 -1.3449
  831SOL     OW 2491   0.581   1.949   0.086  0.0781 -0.1194 -0.0592
  831SOL    HW1 2492   0.665   1.917   0.038  2.0430 -2.4966 -0.0041
  831SOL    HW2 2493   0.496   1.950   0.027 -4.2425 -0.1813 -4.8588
  832SOL     OW 2494   1.176   3.089   2.985  0.0920  0.1285  0.4922
  832SOL    HW1 2495   1.219   0.058   3.018  2.3164  0.4627 -0.0112
  832SOL    HW2 2496   1.125   3.042   3.057  0.1181  1.8438  0.9306
  833SOL     OW 2497   0.059   0.589   1.894  0.2510 -0.1894 -0.4890
  833SOL    HW1 2498   3.078   0.575   1.907 -0.4936 -0.3813  2.2545
  833SOL    HW2 2499   0.098   0.647   1.967 -2.6575  1.6344 -2.7518
  834SOL     OW 2500   0.078   0.663   0.934  0.2912  0.0466 -0.0056
  834SOL    HW1 2501   3.100   0.640   0.923  1.0981  0.5117  1.2704
  834SOL    HW2 2502   0.134   0.637   0.857 -0.3023 -2.3940  1.2477
  835SOL     OW 2503   2.799   3.054   1.100 -0.2455 -0.2498 -0.2041
  835SOL    HW1 2504   2.860   3.113   1.042 -0.5260 -1.6823  0.5285
  835SOL    HW2 2505   2.714   3.103   1.128 -0.9489  0.0164  0.3133
  836SOL     OW 2506   0.335   1.982   3.007 -0.0627 -0.0623 -0.3166
  836SOL    HW1 2507   0.293   2.001   3.100  0.8554 -1.1506 -1.3078
  836SOL    HW2 2508   0.355   2.072   2.962  0.5183 -1.7470  0.8198
  837SOL     OW 2509   1.953   1.797   2.900  0.2582  0.8747  0.4756
  837SOL    HW1 2510   1.867   1.743   2.887  1.9000  1.1057 -5.4322
  837SOL    HW2 2511   2.030   1.752   2.851 -0.8840 -1.2541 -3.6408
  838SOL     OW 2512   2.573   1.144   1.773  0.0034  0.0149  0.1305
  838SOL    HW1 2513   2.540   1.049   1.796 -0.3962 -0.0284  1.2321
  838SOL    HW2 2514   2.660   1.169   1.828  1.1562  0.4362  3.4514
  839SOL     OW 2515   1.259   0.803   0.667 -0.3963 -0.6096 -0.1649
  839SOL    HW1 2516   1.160   0.830   0.671  1.3302  2.4547  2.1316
  839SOL    HW2 2517   1.321   0.885   0.648 -0.7184 -2.3816 -2.0577
  840SOL     OW 2518   1.441   0.565   0.935  0.3985 -0.5731 -0.2192
  840SOL    HW1 2519   1.345   0.545   0.918  2.7562 -1.7952 -0.3500
  840SOL    HW2 2520   1.466   0.654   0.897  0.7977 -1.7216 -0.6183
  841SOL     OW 2521   0.756   2.763   0.606  0.6980 -0.1875  0.9738
  841SOL    HW1 2522   0.810   2.763   0.695 -2.6776  0.6994 -1.1511
  841SOL    HW2 2523   0.721   2.859   0.583 -2.0413  2.8386 -0.1283
  842SOL     OW 2524   0.410   0.543   0.492 -0.0902  0.2778 -0.4663
  842SOL    HW1 2525   0.502   0.497   0.489  0.3751  1.5648 -0.7219
  842SOL    HW2 2526   0.336   0.483   0.448 -1.5448  3.1100 -0.6427
  843SOL     OW 2527   0.960   1.186   1.806 -0.0936  0.4443  0.1375
  843SOL    HW1 2528   0.914   1.231   1.884  2.3482  2.1064  0.0370
  843SOL    HW2 2529   0.902   1.187   1.724  0.8880  0.6433 -1.5558
  844SOL     OW 2530   1.476   2.159   0.101 -0.7582  0.6272  0.5288
  844SOL    HW1 2531   1.509   2.145   0.005 -0.4226 -0.0914 -2.0368
  844SOL    HW2 2532   1.455   2.258   0.116 -1.2226  1.2384 -2.5163
  845SOL     OW 2533   2.577   2.496   2.171  0.1683  0.1741  0.3962
  845SOL    HW1 2534   2.618   2.584   2.140 -0.2135  4.1840  2.2811
  845SOL    HW2 2535   2.505   2.467   2.105 -1.5919  2.7443  1.9874
  846SOL     OW 2536   1.860   1.962   2.676  0.2942  0.0121  0.1983
  846SOL    HW1 2537   1.834   1.889   2.612 -1.3044  1.0889  0.5703
  846SOL    HW2 2538   1.868   1.928   2.772  3.6462  0.9839 -1.1674
  847SOL     OW 2539   1.851   2.987   2.382  0.7647 -1.1498  0.3595
  847SOL    HW1 2540   1.865   3.051   2.303  1.7439  0.3688 -0.5820
  847SOL    HW2 2541   1.920   2.916   2.383  0.2432  0.8379  1.1608
  848SOL     OW 2542   0.686   0.585   0.324 -0.0886  0.0181 -0.2318
  848SOL    HW1 2543   0.601   0.555   0.282  2.2186  3.0440 -0.7139
  848SOL    HW2 2544   0.696   0.563   0.425  3.7562  2.0673  0.4409
  849SOL     OW 2545   0.666   2.902   1.355 -1.0373  0.0374 -0.3740
  849SOL    HW1 2546   0.625   2.839   1.284  2.9753 -2.1164 -1.6882
  849SOL    HW2 2547   0.769   2.881   1.365  1.2868 -2.2382  1.8548
  850SOL     OW 2548   0.314   1.730   0.508  0.1758 -0.2301 -0.5730
  850SOL    HW1 2549   0.344   1.764   0.601 -0.2252 -0.8046 -2.5300
  850SOL    HW2 2550   0.211   1.740   0.498 -1.3536 -0.9580  0.8737
  851SOL     OW 2551   0.235   0.635   0.192 -0.1038  0.5362  0.2478
  851SOL    HW1 2552   0.248   0.727   0.235  1.6054  1.9056  0.5303
  851SOL    HW2 2553   0.175   0.578   0.254  0.1993 -1.2603  0.5439
  852SOL     OW 2554   1.534   2.140   1.671 -0.4791  0.3760 -0.0229
  852SOL    HW1 2555   1.574   2.170   1.761  0.1864  0.8584 -0.6988
  852SOL    HW2 2556   1.608   2.076   1.635 -1.3606  1.6483  1.5933
  853SOL     OW 2557   0.474   1.741   0.271  0.7347  0.0574  0.3389
  853SOL    HW1 2558   0.519   1.829   0.246 -1.0644  0.3061  0.1967
  853SOL    HW2 2559   0.416   1.754   0.356 -1.6777  0.9568  0.1742
  854SOL     OW 2560   2.016   1.375   1.593  0.4014 -0.0008 -0.3667
  854SOL    HW1 2561   2.116   1.404   1.573  2.0476  1.3990 -2.5791
  854SOL    HW2 2562   2.007   1.274   1.614 -0.5353  2.5106 -0.5280
  855SOL     OW 2563   0.812   2.294   0.170  0.1735 -0.8124  0.0107
  855SOL    HW1 2564   0.907   2.327   0.153  0.0923 -3.4588 -0.8826
  855SOL    HW2 2565   0.777   2.243   0.086  1.3939 -3.7376 -0.5174
  856SOL     OW 2566   2.846   0.363   2.140 -0.2867 -0.6788 -0.2342
  856SOL    HW1 2567   2.864   0.401   2.233  0.5642 -0.8112  2.4894
  856SOL    HW2 2568   2.913   0.288   2.114 -0.1902  0.0543  0.0161
  857SOL     OW 2569   0.585   0.569   1.903 -0.2370  0.7890  0.2729
  857SOL    HW1 2570   0.652   0.497   1.913 -0.5054 -1.0053  0.4246
  857SOL    HW2 2571   0.640   0.658   1.906  2.6983  3.3095 -1.4488
  858SOL     OW 2572   0.100   1.439   2.345  0.0714 -0.2713  0.5332
  858SOL    HW1 2573   0.021   1.402   2.393  0.5173  2.7532 -1.8039
  858SOL    HW2 2574   0.152   1.477   2.422  0.4805  0.6171  0.3274
  859SOL     OW 2575   1.994   2.884   0.358 -0.3609 -0.1781 -0.7778
  859SOL    HW1 2576   1.904   2.847   0.390 -1.3378  0.4342  2.5489
  859SOL    HW2 2577   2.058   2.808   0.343  2.3066  0.1934 -1.6858
  860SOL     OW 2578   1.821   0.070   0.006 -0.2291 -1.0656  0.5056
  860SOL    HW1 2579   1.729   0.089   3.077 -2.6444  0.1567  0.1856
  860SOL    HW2 2580   1.897   0.118   3.073  1.0604 -0.2341 -3.3870
  861SOL     OW 2581   0.256   0.591   0.723  0.0883 -0.6288 -0.0524
  861SOL    HW1 2582   0.319   0.554   0.651 -0.6476  0.3651  1.6516
  861SOL    HW2 2583   0.233   0.688   0.706  0.6172  0.3687 -3.3274
  862SOL     OW 2584   1.594   0.578   1.871  0.2804 -0.8518 -0.1405
  862SOL    HW1 2585   1.510   0.535   1.832 -0.9986 -0.4630  1.8831
  862SOL    HW2 2586   1.647   0.628   1.798  0.1418 -1.0112 -1.8606
  863SOL     OW 2587   3.073   1.865   1.021  0.0940 -0.4255  0.5890
  863SOL    HW1 2588   2.996   1.796   1.032  0.4215  1.4197 -0.6200
  863SOL    HW2 2589   3.074   1.947   1.082 -1.0110  0.9242 -0.5254
  864SOL     OW 2590   2.253   3.001   2.007 -0.4490 -0.0319 -0.8292
  864SOL    HW1 2591   2.311   2.965   1.931  3.1791 -1.0456 -1.4595
  864SOL    HW2 2592   2.204   2.926   2.051  1.3900  1.3182 -2.5280
  865SOL     OW 2593   1.073   0.566   1.017  0.0377 -0.5771  0.0927
  865SOL    HW1 2594   1.022   0.506   1.080  0.7088  0.7809 -0.8714
  865SOL    HW2 2595   1.136   0.506   0.959  2.1225  3.0584 -3.0320
  866SOL     OW 2596   2.616   2.662   0.838 -0.3212  0.2679  0.4282
  866SOL    HW1 2597   2.656   2.711   0.758  1.5250  0.5228 -0.5754
  866SOL    HW2 2598   2.674   2.584   0.865 -0.7068  0.8338  0.8859
  867SOL     OW 2599   2.762   2.444   0.909  0.1091 -0.1324  0.0044
  867SOL    HW1 2600   2.710   2.362   0.929  2.1322 -0.1421  0.8669
  867SOL    HW2 2601   2.819   2.432   0.826 -2.7699 -0.0807 -2.1504
  868SOL     OW 2602   1.315   1.802   2.382 -0.2861 -0.5560  0.7112
  868SOL    HW1 2603   1.265   1.784   2.295  0.3037 -1.9894 -0.4330
  868SOL    HW2 2604   1.289   1.894   2.415 -0.1483  0.8693  0.1385
  869SOL     OW 2605   2.174   1.611   0.340 -0.0754  0.1045 -0.4006
  869SOL    HW1 2606   2.132   1.654   0.255 -1.7958 -1.0212 -2.1389
  869SOL    HW2 2607   2.274   1.608   0.328  0.5746  2.8368 -0.0918
  870SOL     OW 2608   2.384   1.920   0.427 -0.0288  0.8017  0.0386
  870SOL    HW1 2609   2.394   1.948   0.327  0.2337  2.1960 -0.9595
  870SOL    HW2 2610   2.290   1.890   0.451  1.6830 -3.1085 -0.5359
  871SOL     OW 2611   2.994   1.066   1.700  1.0949  0.0918 -0.0052
  871SOL    HW1 2612   2.990   1.135   1.626  1.0773 -1.7401  2.2285
  871SOL    HW2 2613   2.977   0.976   1.662 -0.6509  3.1324 -2.6341
  872SOL     OW 2614   0.516   1.885   2.663 -0.2079 -0.0114  0.7077
  872SOL    HW1 2615   0.442   1.865   2.596 -1.3344  1.6693  0.2910
  872SOL    HW2 2616   0.499   1.835   2.748  1.5569  1.6196 -2.3015
  873SOL     OW 2617   0.296   2.769   1.840 -0.0486 -0.0741 -0.2287
  873SOL    HW1 2618   0.250   2.690   1.881  3.8223  0.6789 -0.9130
  873SOL    HW2 2619   0.303   2.844   1.910  1.0493  1.8828  1.8992
  874SOL     OW 2620   1.334   1.207   2.124 -0.2101 -0.7735 -0.6690
  874SOL    HW1 2621   1.298   1.178   2.217 -1.9408  0.0597  1.8519
  874SOL    HW2 2622   1.419   1.158   2.098 -0.1776  0.1072 -1.0532
  875SOL     OW 2623   2.973   2.955   1.297  0.4769  0.2008  0.4927
  875SOL    HW1 2624   3.072   2.966   1.306  4.2043  1.6890 -1.7460
  875SOL    HW2 2625   2.932   3.002   1.214 -3.8621  1.2019 -1.1391
  876SOL     OW 2626   0.903   1.113   1.232 -0.3069  0.5816  0.4270
  876SOL    HW1 2627   0.940   1.171   1.308  1.1521  1.7629  1.2959
  876SOL    HW2 2628   0.971   1.109   1.156  0.9537  0.9037  2.7571
  877SOL     OW 2629   0.421   0.423   1.198 -0.0952  0.1760  0.3093
  877SOL    HW1 2630   0.485   0.494   1.231 -1.1097 -0.7345  1.2603
  877SOL    HW2 2631   0.418   0.422   1.096 -0.9238 -0.0410  3.0703
  878SOL     OW 2632   2.716   1.720   2.802  0.6887 -0.3060 -0.0851
  878SOL    HW1 2633   2.808   1.746   2.840 -1.9536 -0.6488 -0.7895
  878SOL    HW2 2634   2.711   1.620   2.811  0.6983  2.0389 -2.4908
  879SOL     OW 2635   2.512   2.005   1.096  0.0952 -0.5174 -0.4091
  879SOL    HW1 2636   2.586   1.984   1.025 -0.9050  0.9814 -0.5905
  879SOL    HW2 2637   2.534   2.087   1.152  0.3746  0.7160  2.1642
  880SOL     OW 2638   0.951   2.308   0.965 -0.3621 -0.5307 -0.1239
  880SOL    HW1 2639   0.953   2.411   0.976 -0.2272  0.3912  1.8194
  880SOL    HW2 2640   1.029   2.261   1.014  3.9086  0.4667 -0.1179
  881SOL     OW 2641   1.501   1.839   1.266 -0.8428 -0.0660 -0.1277
  881SOL    HW1 2642   1.456   1.745   1.259  4.2652  0.9080  0.9885
  881SOL    HW2 2643   1.445   1.903   1.316 -0.1109 -0.6642 -0.5954
  882SOL     OW 2644   2.235   1.088   2.633 -0.4782 -0.4105 -0.4063
  882SOL    HW1 2645   2.321   1.136   2.669  1.8590  0.0327  1.4640
  882SOL    HW2 2646   2.226   1.082   2.531  2.4345  1.1282 -1.1634
  883SOL     OW 2647   1.227   0.430   0.838  0.4145  0.1423 -0.0611
  883SOL    HW1 2648   1.167   0.478   0.769 -1.1188  0.5523  0.5057
  883SOL    HW2 2649   1.206   0.332   0.833  0.4201  0.9582  0.3009
  884SOL     OW 2650   0.054   3.048   0.877  0.1919 -0.0763  0.1329
  884SOL    HW1 2651   0.127   2.991   0.833  1.9458  0.5285 -0.8459
  884SOL    HW2 2652   0.098   0.012   0.914 -0.9017 -2.9161 -0.3659
  885SOL     OW 2653   1.142   1.379   1.774 -0.1567  0.0984 -0.1668
  885SOL    HW1 2654   1.075   1.305   1.805  1.0557  1.2068 -0.8446
  885SOL    HW2 2655   1.230   1.341   1.745 -0.3079  1.4440  3.3913
  886SOL     OW 2656   1.162   0.815   2.949  0.3621 -0.6434 -0.6507
  886SOL    HW1 2657   1.104   0.897   2.981 -0.9610  2.0547 -1.9119
  886SOL    HW2 2658   1.259   0.834   2.969  0.3595 -2.2810  0.7898
  887SOL     OW 2659   1.840   0.295   0.746  0.0275  0.3182 -0.0141
  887SOL    HW1 2660   1.809   0.387   0.717  1.0266 -2.8393 -1.3589
  887SOL    HW2 2661   1.939   0.285   0.780  0.4889 -1.9145 -0.0765
  888SOL     OW 2662   2.470   1.434   1.770 -0.7888  0.9774  0.0116
  888SOL    HW1 2663   2.468   1.484   1.860  0.1506 -0.8671  1.2068
  888SOL    HW2 2664   2.511   1.342   1.780  2.3845 -2.3914 -1.9554
  889SOL     OW 2665   3.078   2.094   1.216 -0.1236  0.4037 -0.3513
  889SOL    HW1 2666   3.103   2.181   1.176 -1.4238 -1.6615  1.5385
  889SOL    HW2 2667   2.988   2.111   1.262 -1.0502  0.9385 -0.7335
  890SOL     OW 2668   1.239   2.123   0.676 -0.0612  0.2924 -0.3088
  890SOL    HW1 2669   1.334   2.096   0.641  1.6806 -0.4286  0.2361
  890SOL    HW2 2670   1.202   2.201   0.618  2.4729 -2.6760 -1.9427
  891SOL     OW 2671   2.641   0.636   2.291 -0.1035  0.1611  0.5466
  891SOL    HW1 2672   2.614   0.657   2.385 -1.3150 -1.8000 -1.8974
  891SOL    HW2 2673   2.624   0.536   2.276  0.7090  0.6116 -1.6233
  892SOL     OW 2674   0.305   2.600   1.419  0.3687  0.0055 -0.3624
  892SOL    HW1 2675   0.209   2.597   1.389  0.5908  1.0389  0.1023
  892SOL    HW2 2676   0.333   2.692   1.466 -0.5934  0.0985  0.4437
  893SOL     OW 2677   1.114   0.464   2.300 -0.4268  0.1599 -0.3664
  893SOL    HW1 2678   1.118   0.563   2.276 -0.5637  0.6843  0.1585
  893SOL    HW2 2679   1.204   0.421   2.336  1.6731 -0.1266  4.2857
  894SOL     OW 2680   2.860   0.222   0.805 -0.1146 -0.3572 -0.9505
  894SOL    HW1 2681   2.908   0.230   0.894  3.9945 -0.4844  1.5360
  894SOL    HW2 2682   2.776   0.280   0.809 -2.0175  0.2370 -0.1945
  895SOL     OW 2683   1.774   1.774   2.525  0.2143  0.2882  0.2883
  895SOL    HW1 2684   1.771   1.681   2.560  3.2232  3.4912  1.8685
  895SOL    HW2 2685   1.702   1.797   2.457 -0.2451  0.8370 -0.9840
  896SOL     OW 2686   1.638   0.588   1.499  0.1076 -0.7469  0.2716
  896SOL    HW1 2687   1.693   0.504   1.493  0.0184  0.7075  0.1645
  896SOL    HW2 2688   1.545   0.582   1.447 -1.7097 -0.9115 -2.8756
  897SOL     OW 2689   0.742   1.805   1.794  0.3404  0.0840 -0.1029
  897SOL    HW1 2690   0.834   1.785   1.836  0.6772  0.2795 -1.8122
  897SOL    HW2 2691   0.722   1.730   1.729  1.3917 -0.4978  1.3504
  898SOL     OW 2692   1.761   1.765   2.152 -0.2018 -0.0862  0.1302
  898SOL    HW1 2693   1.695   1.806   2.224 -1.1338  1.2395  4.1003
  898SOL    HW2 2694   1.845   1.822   2.147 -1.1350  2.1777 -0.0918
  899SOL     OW 2695   1.883   2.106   0.693 -0.3593 -0.4538  0.0498
  899SOL    HW1 2696   1.970   2.072   0.729 -2.8901  0.3174  1.1770
  899SOL    HW2 2697   1.831   2.029   0.663  1.9311  2.9226 -0.5640
  900SOL     OW 2698   0.992   0.258   2.654 -0.0983  0.3304  0.2765
  900SOL    HW1 2699   0.993   0.184   2.716  0.7761  4.6785 -2.0269
  900SOL    HW2 2700   0.914   0.323   2.669 -1.2461  0.4532 -0.6638
  901SOL     OW 2701   1.098   1.514   2.355 -0.3343  0.5336  0.6970
  901SOL    HW1 2702   1.018   1.575   2.359 -3.1700  0.7787  0.1473
  901SOL    HW2 2703   1.162   1.530   2.431  0.2606  1.5239 -2.0520
  902SOL     OW 2704   2.157   0.499   0.168  1.1164  0.0581 -0.0750
  902SOL    HW1 2705   2.099   0.561   0.106 -3.4825 -1.9373 -0.5146
  902SOL    HW2 2706   2.102   0.419   0.198  0.4108  0.4640  0.1939
  903SOL     OW 2707   2.131   0.769   2.347  0.4837 -0.5827 -0.3407
  903SOL    HW1 2708   2.061   0.748   2.280 -0.3593  2.1265  0.3532
  903SOL    HW2 2709   2.216   0.738   2.307 -0.1387  1.8641 -3.2886
  904SOL     OW 2710   2.017   1.099   1.639  0.1025  0.1038 -0.1486
  904SOL    HW1 2711   1.971   1.024   1.584 -0.9450  2.9736  0.0760
  904SOL    HW2 2712   2.102   1.071   1.684 -1.6058 -3.2397 -1.7175
  905SOL     OW 2713   2.138   0.488   0.919 -0.1101 -0.2993 -0.1384
  905SOL    HW1 2714   2.127   0.544   0.835  0.8693 -3.0949  1.0519
  905SOL    HW2 2715   2.179   0.547   0.993  0.9819  0.5782 -0.8782
  906SOL     OW 2716   2.704   1.637   0.412  0.0070 -0.3511  0.1096
  906SOL    HW1 2717   2.793   1.609   0.375 -2.6464  1.3059  0.8797
  906SOL    HW2 2718   2.703   1.739   0.408  2.6751  0.6887  0.3376
  907SOL     OW 2719   1.390   3.116   0.595 -0.2104 -0.0337  0.2396
  907SOL    HW1 2720   1.446   3.114   0.677 -0.3028  0.5576 -0.4724
  907SOL    HW2 2721   1.386   0.089   0.554  0.9852  0.6146  1.8057
  908SOL     OW 2722   1.434   2.021   2.164  0.3474 -0.2382 -0.4216
  908SOL    HW1 2723   1.445   2.122   2.148  0.0856  0.3353  1.3725
  908SOL    HW2 2724   1.497   1.978   2.232  1.1947  1.0960 -1.3798
  909SOL     OW 2725   2.456   0.499   1.951  0.2049 -0.5862  0.0326
  909SOL    HW1 2726   2.484   0.537   2.041 -0.1755  0.6641  0.0664
  909SOL    HW2 2727   2.502   0.547   1.874  1.9596 -0.2093 -1.5007
  910SOL     OW 2728   1.258   0.218   2.596  0.4125  0.4874  0.0092
  910SOL    HW1 2729   1.156   0.233   2.611 -0.6317  1.5595  0.4941
  910SOL    HW2 2730   1.297   0.182   2.683  0.3243  0.4062  1.2450
  911SOL     OW 2731   2.642   1.023   2.794  0.3847  0.5310  0.3150
  911SOL    HW1 2732   2.592   0.943   2.835 -1.2844 -0.2337 -0.2037
  911SOL    HW2 2733   2.737   1.031   2.824 -1.2430  0.1910 -1.5012
  912SOL     OW 2734   2.958   2.346   1.351 -0.0030  0.1748  0.0721
  912SOL    HW1 2735   2.867   2.375   1.315  1.0531 -0.3383 -0.9003
  912SOL    HW2 2736   2.970   2.331   1.450 -1.2198  1.7398 -0.9914
  913SOL     OW 2737   2.548   1.819   2.362 -0.7161  0.4301 -0.3547
  913SOL    HW1 2738   2.615   1.815   2.441  1.5635 -0.9534  0.7092
  913SOL    HW2 2739   2.521   1.916   2.354 -0.2059 -1.2635 -0.0337
  914SOL     OW 2740   2.339   1.459   0.707  0.7670 -0.2055 -0.2041
  914SOL    HW1 2741   2.250   1.467   0.664  2.8959  0.3459  1.5125
  914SOL    HW2 2742   2.355   1.362   0.741  2.2619  0.5813 -0.0857
  915SOL     OW 2743   0.771   2.560   2.020  0.2463 -0.5852  0.1267
  915SOL    HW1 2744   0.770   2.459   2.024 -0.9677  2.0050 -0.5406
  915SOL    HW2 2745   0.679   2.597   1.998  1.7434 -0.4258 -0.7344
  916SOL     OW 2746   0.484   2.544   0.904  0.1179 -0.3760 -0.3983
  916SOL    HW1 2747   0.482   2.472   0.971  1.7623  2.4729  0.2011
  916SOL    HW2 2748   0.390   2.563   0.869 -1.0371  0.4606  1.2504
  917SOL     OW 2749   2.410   0.634   2.694  0.7208  0.4864  0.2802
  917SOL    HW1 2750   2.337   0.706   2.693  3.1932 -1.7120  0.7502
  917SOL    HW2 2751   2.491   0.671   2.637  3.2948 -1.3934 -0.3202
  918SOL     OW 2752   1.472   2.366   2.489 -0.0818  0.3425  0.5361
  918SOL    HW1 2753   1.496   2.462   2.518  0.4563 -0.9578 -2.1546
  918SOL    HW2 2754   1.546   2.297   2.505  1.3812  1.1477  1.7418
  919SOL     OW 2755   1.700   2.155   1.031 -0.2341 -0.2642  0.2535
  919SOL    HW1 2756   1.636   2.194   0.962  0.7365  2.1227 -1.0483
  919SOL    HW2 2757   1.769   2.224   1.065 -0.0054 -1.1115 -0.7406
  920SOL     OW 2758   1.349   0.358   2.371  0.0895 -0.1969 -0.2810
  920SOL    HW1 2759   1.322   0.312   2.454  0.8296 -0.3129 -0.6362
  920SOL    HW2 2760   1.444   0.390   2.389 -0.4714 -0.5474 -0.5054
  921SOL     OW 2761   0.291   0.741   2.559  0.0022 -0.0283  0.2645
  921SOL    HW1 2762   0.285   0.829   2.506 -0.0478  0.5517 -2.3307
  921SOL    HW2 2763   0.365   0.677   2.534 -2.1788  2.5394 -0.1712
  922SOL     OW 2764   2.822   2.059   1.302  0.0131 -0.5690  0.1535
  922SOL    HW1 2765   2.779   1.967   1.317  1.3446 -1.4594  0.7729
  922SOL    HW2 2766   2.753   2.128   1.271  1.3658 -0.0239 -0.9717
  923SOL     OW 2767   3.069   1.946   2.516 -0.1129  0.2475 -0.3295
  923SOL    HW1 2768   3.059   1.911   2.420  0.7775 -1.1114  0.1003
  923SOL    HW2 2769   3.028   2.034   2.535  2.1798  0.2700 -3.4207
  924SOL     OW 2770   1.307   0.259   2.112  0.7775  0.2214 -0.1908
  924SOL    HW1 2771   1.382   0.200   2.081 -0.3349  1.3237 -1.8970
  924SOL    HW2 2772   1.320   0.279   2.211 -1.8182  1.8071 -1.1896
  925SOL     OW 2773   0.096   1.200   0.655 -0.2619  0.2826  0.1199
  925SOL    HW1 2774   0.178   1.159   0.614 -0.2089  1.6567 -0.3895
  925SOL    HW2 2775   0.035   1.122   0.668  1.1084 -1.3106  0.1139
  926SOL     OW 2776   2.370   0.296   1.244  0.1727  0.1401  0.1102
  926SOL    HW1 2777   2.393   0.276   1.146 -0.1920 -1.9051 -2.1659
  926SOL    HW2 2778   2.426   0.369   1.289  1.7144  0.5748  2.6989
  927SOL     OW 2779   1.414   0.791   1.158  0.1874 -0.3320 -0.1985
  927SOL    HW1 2780   1.451   0.782   1.062 -1.6859  1.4528 -1.2269
  927SOL    HW2 2781   1.311   0.803   1.148 -1.8661 -0.0091 -0.6014
  928SOL     OW 2782   2.896   0.460   2.378 -0.4453 -0.6413 -0.2852
  928SOL    HW1 2783   2.886   0.465   2.480  0.8692  0.4654  0.7529
  928SOL    HW2 2784   2.962   0.535   2.351 -3.1204 -2.2919  0.5462
  929SOL     OW 2785   2.542   0.713   1.207  0.2942 -0.1439 -0.1172
  929SOL    HW1 2786   2.515   0.648   1.283 -3.7157 -3.1705  3.6605
  929SOL    HW2 2787   2.557   0.808   1.244 -1.2453  2.8386  0.0517
  930SOL     OW 2788   1.909   2.338   1.027  0.4716 -0.1234  0.4087
  930SOL    HW1 2789   1.879   2.342   0.928  0.0230  2.7917  0.7140
  930SOL    HW2 2790   1.882   2.420   1.074  4.2636 -1.6755 -0.4600
  931SOL     OW 2791   2.033   0.982   1.100  0.3398  0.4083 -1.2303
  931SOL    HW1 2792   2.037   1.050   1.024  0.4771  1.7481  1.5177
  931SOL    HW2 2793   2.070   1.024   1.180  1.1054 -0.4175  0.9300
  932SOL     OW 2794   3.077   0.800   1.622 -0.7018 -0.6796 -0.1647
  932SOL    HW1 2795   3.018   0.736   1.674  0.4514  2.2294  0.8947
  932SOL    HW2 2796   0.056   0.796   1.653 -2.3191  0.0787 -1.6733
  933SOL     OW 2797   1.880   1.531   2.189  0.1970  0.3216  0.9162
  933SOL    HW1 2798   1.967   1.533   2.135  2.5034 -0.4313 -0.6915
  933SOL    HW2 2799   1.822   1.614   2.163 -0.9491  0.0383 -1.8013
  934SOL     OW 2800   1.565   2.785   1.865  0.5682  0.1787 -0.3314
  934SOL    HW1 2801   1.570   2.717   1.790 -3.0125  0.4155 -2.7911
  934SOL    HW2 2802   1.467   2.821   1.876 -3.0402 -1.0794  1.7972
  935SOL     OW 2803   0.010   0.750   1.356  0.0226 -0.0828  0.3416
  935SOL    HW1 2804   3.087   0.774   1.448 -1.7464  1.9804  0.6039
  935SOL    HW2 2805   0.108   0.731   1.375  0.6385  1.4157 -0.4365
  936SOL     OW 2806   2.802   0.591   1.448 -0.1690  0.3218 -0.4884
  936SOL    HW1 2807   2.847   0.598   1.536 -0.7999 -0.4873 -2.1689
  936SOL    HW2 2808   2.798   0.683   1.411 -0.5638 -1.1555  1.6570
  937SOL     OW 2809   0.886   0.124   1.383  0.1412  0.4310  0.5572
  937SOL    HW1 2810   0.806   0.098   1.325 -2.4268  0.8720 -0.7064
  937SOL    HW2 2811   0.859   0.192   1.460 -0.7772 -1.1634  1.1034
  938SOL     OW 2812   0.232   2.503   0.798  0.2937 -0.3879  0.1194
  938SOL    HW1 2813   0.195   2.421   0.842 -3.7761 -0.3009 -0.7637
  938SOL    HW2 2814   0.273   2.491   0.705 -0.9752  1.1364  0.2680
  939SOL     OW 2815   2.801   2.488   2.654  0.5025  0.0560  0.0544
  939SOL    HW1 2816   2.887   2.519   2.614 -2.7442 -0.5778  1.7194
  939SOL    HW2 2817   2.745   2.570   2.691  2.3362  0.3304 -1.1908
  940SOL     OW 2818   2.099   1.924   3.083  0.9217  0.7911 -0.2994
  940SOL    HW1 2819   2.178   1.982   3.055  0.9393 -0.9501  4.9796
  940SOL    HW2 2820   2.038   1.897   3.000  2.0150  0.0514 -1.5159
  941SOL     OW 2821   1.839   2.631   0.846 -0.2906 -0.2852 -0.8272
  941SOL    HW1 2822   1.847   2.529   0.832  0.8378 -0.7709  1.6122
  941SOL    HW2 2823   1.870   2.691   0.770  1.1945  3.4066 -3.3341
  942SOL     OW 2824   1.892   1.527   1.129  1.0690 -0.3541 -0.2371
  942SOL    HW1 2825   1.953   1.523   1.048 -0.2526 -2.7913  2.4205
  942SOL    HW2 2826   1.945   1.477   1.206  0.0394 -2.7321  3.0525
  943SOL     OW 2827   1.955   0.737   1.881  0.2777  0.0284 -0.3751
  943SOL    HW1 2828   1.880   0.735   1.810 -2.1962 -0.6006 -0.9117
  943SOL    HW2 2829   2.036   0.697   1.835  0.3189 -0.7838 -1.4378
  944SOL     OW 2830   1.352   0.811   1.669 -0.4491 -0.3413  0.4089
  944SOL    HW1 2831   1.289   0.878   1.713  2.4999  0.5188 -1.9076
  944SOL    HW2 2832   1.393   0.849   1.584  0.3067 -2.4927  0.1958
  945SOL     OW 2833   2.819   2.871   1.503  0.6049  0.3226  0.7821
  945SOL    HW1 2834   2.723   2.902   1.485  1.8575  1.2019 -2.3222
  945SOL    HW2 2835   2.879   2.912   1.432  0.6338  2.4413 -0.1647
  946SOL     OW 2836   0.720   1.758   0.699 -0.5357 -0.0146  0.0310
  946SOL    HW1 2837   0.786   1.684   0.724 -3.3920 -0.0471  2.6129
  946SOL    HW2 2838   0.759   1.847   0.666 -0.2458  1.4639 -0.8313
  947SOL     OW 2839   0.947   2.558   1.070  0.5379  0.4056 -0.1425
  947SOL    HW1 2840   0.896   2.639   1.034 -0.7023  1.5251  0.2390
  947SOL    HW2 2841   0.919   2.544   1.167  1.0613  0.2793  1.1541
  948SOL     OW 2842   0.150   1.776   1.711 -0.0608  0.7011  0.1919
  948SOL    HW1 2843   0.211   1.741   1.636  1.2101  0.0143 -0.1142
  948SOL    HW2 2844   0.060   1.730   1.695 -0.1084 -1.7455 -0.2436
  949SOL     OW 2845   0.701   0.824   1.922 -0.0224 -0.0555  0.3937
  949SOL    HW1 2846   0.778   0.837   1.854  0.0991  0.1575 -0.4999
  949SOL    HW2 2847   0.709   0.897   1.996  0.5739  1.3482 -1.9110
  950SOL     OW 2848   0.436   0.849   1.203  0.1895  0.0169 -0.6981
  950SOL    HW1 2849   0.355   0.805   1.245  2.9729  2.1067 -2.1184
  950SOL    HW2 2850   0.428   0.950   1.214 -3.6814  2.5075 -0.8364
  951SOL     OW 2851   0.879   1.913   2.113 -0.0709 -0.5411  0.0315
  951SOL    HW1 2852   0.903   1.882   2.019 -2.1506  1.1616 -1.7136
  951SOL    HW2 2853   0.931   1.993   2.142 -0.4188 -1.6539  0.4909
  952SOL     OW 2854   1.311   1.493   0.204  0.9328 -0.5161  0.1626
  952SOL    HW1 2855   1.323   1.544   0.295  0.5946  0.7211  1.5057
  952SOL    HW2 2856   1.384   1.433   0.166  2.8497 -1.6633  1.2584
  953SOL     OW 2857   0.976   0.028   2.804 -0.4218  0.1301  0.0596
  953SOL    HW1 2858   0.893   0.019   2.863  0.1177  1.6550  3.5262
  953SOL    HW2 2859   1.063   0.021   2.858  1.3378  0.2108 -0.7911
  954SOL     OW 2860   1.822   1.524   0.160 -0.4090 -0.4072 -0.7052
  954SOL    HW1 2861   1.835   1.423   0.179  0.5953 -1.5847 -0.0695
  954SOL    HW2 2862   1.910   1.574   0.171  0.6901 -0.8733  3.1502
  955SOL     OW 2863   0.233   2.617   2.842 -0.5336 -0.1435 -0.1795
  955SOL    HW1 2864   0.336   2.619   2.832  2.5173  1.0197  0.2757
  955SOL    HW2 2865   0.198   2.695   2.781 -0.9099  2.5139  0.0357
  956SOL     OW 2866   1.432   0.874   1.411  0.1581  0.5172  0.2233
  956SOL    HW1 2867   1.445   0.816   1.327 -1.0232  2.8306  1.2585
  956SOL    HW2 2868   1.356   0.940   1.390 -0.0519 -0.3275 -0.6226
  957SOL     OW 2869   1.608   1.771   1.932  0.0021 -0.4715  0.0191
  957SOL    HW1 2870   1.671   1.787   2.012  0.6121  1.2197  3.3534
  957SOL    HW2 2871   1.522   1.828   1.943  2.0218  1.5318  1.6792
  958SOL     OW 2872   1.221   2.389   1.426 -0.1138 -0.0166 -0.1769
  958SOL    HW1 2873   1.311   2.390   1.473 -1.7679  2.3245  0.3286
  958SOL    HW2 2874   1.236   2.400   1.327 -2.2342 -1.0852  0.1445
  959SOL     OW 2875   1.394   1.111   1.110 -0.1046  0.3372  0.5957
  959SOL    HW1 2876   1.492   1.069   1.119  3.9025 -1.1383 -2.6884
  959SOL    HW2 2877   1.321   1.076   1.172  0.1689 -2.1568  0.0290
  960SOL     OW 2878   0.258   1.542   2.955  0.0211  0.2948  0.2909
  960SOL    HW1 2879   0.286   1.540   3.051  2.0958  1.4465  1.1075
  960SOL    HW2 2880   0.244   1.447   2.917 -0.3533 -1.7552 -0.6678
  961SOL     OW 2881   0.493   1.570   1.996  0.2636 -0.1286  0.2917
  961SOL    HW1 2882   0.473   1.582   2.093  0.8766 -2.1462  1.5713
  961SOL    HW2 2883   0.590   1.559   1.976  0.3338  0.1891 -0.2578
  962SOL     OW 2884   1.409   1.762   0.955  0.7460  0.0832 -0.1557
  962SOL    HW1 2885   1.480   1.717   0.901  1.5297 -1.3107  3.3578
  962SOL    HW2 2886   1.406   1.719   1.044 -0.2050  2.7264 -2.1695
  963SOL     OW 2887   1.516   1.971   2.623 -0.8677  0.5169  0.0244
  963SOL    HW1 2888   1.423   2.013   2.606 -2.3490 -2.5818  0.7542
  963SOL    HW2 2889   1.516   1.932   2.714  0.3658  0.1035 -0.7816
  964SOL     OW 2890   0.735   0.192   0.309  0.2545  0.6081 -0.4910
  964SOL    HW1 2891   0.677   0.237   0.383 -0.3320  3.5105  0.0969
  964SOL    HW2 2892   0.798   0.124   0.354 -2.1723 -1.8143 -0.2053
  965SOL     OW 2893   0.709   2.677   0.963 -0.5959  0.0671  0.5512
  965SOL    HW1 2894   0.629   2.616   0.927  0.6012 -2.6166 -0.5825
  965SOL    HW2 2895   0.729   2.750   0.900 -1.9212 -1.5092  0.3701
  966SOL     OW 2896   0.449   1.744   2.888 -0.4330  0.0444 -0.1900
  966SOL    HW1 2897   0.434   1.836   2.932  0.7299 -0.7094  1.1664
  966SOL    HW2 2898   0.371   1.686   2.901  1.7933  1.3152  0.5281
  967SOL     OW 2899   0.256   2.918   2.305  0.3737  0.3039  0.5559
  967SOL    HW1 2900   0.253   3.003   2.362 -1.7182 -1.4143 -0.1161
  967SOL    HW2 2901   0.253   2.943   2.208 -2.0234 -0.0459 -0.5183
  968SOL     OW 2902   2.319   0.501   0.519 -0.0533 -0.2726 -0.1998
  968SOL    HW1 2903   2.237   0.533   0.565 -0.8420  1.0915  1.9731
  968SOL    HW2 2904   2.318   0.527   0.421 -0.1267  1.0878  0.3620
  969SOL     OW 2905   3.100   1.971   1.965  0.5660  0.1169 -0.1397
  969SOL    HW1 2906   0.005   2.028   1.884 -4.1102 -2.4426  0.1480
  969SOL    HW2 2907   0.054   1.901   1.992  1.1807  2.1079 -2.2887
  970SOL     OW 2908   2.597   1.444   1.508  0.1461 -0.2707 -0.1024
  970SOL    HW1 2909   2.646   1.357   1.485  1.0170  0.4409  1.5813
  970SOL    HW2 2910   2.567   1.435   1.604  0.3408 -1.4796 -0.4680
  971SOL     OW 2911   2.097   0.270   1.252  0.2963 -0.0224  0.1044
  971SOL    HW1 2912   2.196   0.256   1.275  0.3845 -0.8713 -0.0959
  971SOL    HW2 2913   2.051   0.176   1.234 -3.0013 -3.0254 -0.8715
  972SOL     OW 2914   0.127   0.076   1.867  0.1456 -0.7738  0.1327
  972SOL    HW1 2915   0.113   0.001   1.933  1.5286  1.6738 -0.9523
  972SOL    HW2 2916   0.142   0.039   1.772  1.4705 -1.2823 -1.8867
  973SOL     OW 2917   2.978   0.698   0.019  1.0578 -0.0344 -0.3062
  973SOL    HW1 2918   3.054   0.761   0.040  0.2818 -0.3750 -3.1374
  973SOL    HW2 2919   2.994   0.641   3.053 -2.1500 -1.4296 -1.3734
  974SOL     OW 2920   1.896   1.432   2.437  0.2130  0.1065 -0.3142
  974SOL    HW1 2921   1.980   1.375   2.421  2.3473 -2.7750 -1.0120
  974SOL    HW2 2922   1.869   1.482   2.351 -2.4554 -0.4756 -0.9156
  975SOL     OW 2923   0.179   3.047   1.642  0.1879 -0.1715  0.0419
  975SOL    HW1 2924   0.169   0.005   1.572 -0.1291 -0.7816  0.4788
  975SOL    HW2 2925   0.239   2.977   1.598 -0.5521 -0.1835  1.4553
  976SOL     OW 2926   0.336   2.066   1.793  0.2885 -1.0413 -0.0940
  976SOL    HW1 2927   0.394   2.106   1.716 -0.2554 -0.8440 -0.8614
  976SOL    HW2 2928   0.354   1.969   1.816 -1.8202 -0.2333 -0.6899
  977SOL     OW 2929   1.053   2.892   0.315 -0.0008 -0.0604 -0.1945
  977SOL    HW1 2930   1.136   2.885   0.370 -1.8707 -0.9650 -2.7652
  977SOL    HW2 2931   0.995   2.810   0.329  3.5044 -1.4538 -1.2611
  978SOL     OW 2932   0.202   2.135   2.657  0.1552 -1.2818  0.2995
  978SOL    HW1 2933   0.160   2.069   2.597  0.7347 -0.2789 -2.1172
  978SOL    HW2 2934   0.169   2.125   2.754 -1.8940  0.3340  0.5102
  979SOL     OW 2935   1.664   2.444   1.335  0.2767 -0.0870  0.1608
  979SOL    HW1 2936   1.708   2.485   1.253  0.1811 -1.9730  0.9254
  979SOL    HW2 2937   1.706   2.353   1.355  0.0274 -3.1310  1.7103
  980SOL     OW 2938   0.761   1.778   2.745  0.2718 -0.0030  0.3090
  980SOL    HW1 2939   0.679   1.818   2.699 -2.0245  0.5591  0.9578
  980SOL    HW2 2940   0.738   1.735   2.835 -0.3530 -1.1709  0.4472
  981SOL     OW 2941   2.290   2.931   2.412 -0.1035  0.0744  0.0291
  981SOL    HW1 2942   2.341   2.982   2.344 -2.7565 -3.7894  2.9829
  981SOL    HW2 2943   2.344   2.885   2.485  1.3191  2.0130 -1.0444
  982SOL     OW 2944   2.905   0.361   3.013  0.4714  0.1119 -0.2960
  982SOL    HW1 2945   2.830   0.342   2.946 -0.8534 -0.8567 -1.0448
  982SOL    HW2 2946   2.983   0.418   2.974  0.6022  3.3203 -0.2504
  983SOL     OW 2947   2.173   1.526   2.036  0.3621 -0.0131  0.2810
  983SOL    HW1 2948   2.197   1.429   2.026 -0.5533  1.2002 -0.2232
  983SOL    HW2 2949   2.127   1.549   1.948  2.8970 -1.4959 -1.3052
  984SOL     OW 2950   1.225   0.639   1.794  0.1009 -0.0598  0.4527
  984SOL    HW1 2951   1.149   0.688   1.850 -2.6457  1.4972  1.4132
  984SOL    HW2 2952   1.291   0.704   1.750  0.2889 -0.8885  1.5159
  985SOL     OW 2953   1.571   1.398   1.865 -0.0028 -0.4715 -0.2532
  985SOL    HW1 2954   1.619   1.395   1.955  4.1096 -1.8113  2.2635
  985SOL    HW2 2955   1.584   1.487   1.822 -0.1766 -0.6502 -0.6854
  986SOL     OW 2956   1.754   0.375   1.980  0.1995  0.3293 -0.3966
  986SOL    HW1 2957   1.845   0.401   1.948 -0.0685  0.4980  0.9049
  986SOL    HW2 2958   1.693   0.451   1.956  0.7423  1.1619 -1.2966
  987SOL     OW 2959   2.197   0.553   1.872  0.7104 -0.0996  0.0792
  987SOL    HW1 2960   2.134   0.484   1.908  0.0410  0.9841  0.6627
  987SOL    HW2 2961   2.287   0.512   1.851 -3.1592 -1.1667 -0.6489
  988SOL     OW 2962   2.910   0.769   2.194  0.5379  0.4533  0.3936
  988SOL    HW1 2963   2.821   0.738   2.230 -1.3255 -2.1537  0.7954
  988SOL    HW2 2964   2.974   0.770   2.270 -1.4682  0.0118  3.3834
  989SOL     OW 2965   2.229   2.211   2.872  0.0089 -0.1660 -0.0414
  989SOL    HW1 2966   2.193   2.181   2.781  0.8646 -2.8942  1.2599
  989SOL    HW2 2967   2.164   2.265   2.928  1.7041 -2.2201 -0.3440
  990SOL     OW 2968   1.226   0.477   2.744 -0.4514 -0.4431 -0.2799
  990SOL    HW1 2969   1.224   0.401   2.681  1.2697  1.6753  2.6708
  990SOL    HW2 2970   1.143   0.535   2.732  1.0449 -1.5701 -0.7155
  991SOL     OW 2971   1.191   0.832   0.304 -0.6289  0.0264 -0.2344
  991SOL    HW1 2972   1.232   0.907   0.360  1.4458  0.9554  1.4633
  991SOL    HW2 2973   1.265   0.772   0.277 -1.4015  1.4872 -1.6884
  992SOL     OW 2974   2.462   1.828   2.816  0.2920 -0.5481  0.0628
  992SOL    HW1 2975   2.546   1.773   2.814 -2.6654  1.8758  1.1406
  992SOL    HW2 2976   2.470   1.917   2.769 -1.3809 -1.2377  1.3606
  993SOL     OW 2977   0.391   0.266   0.231 -0.1130  0.1205 -0.0134
  993SOL    HW1 2978   0.455   0.347   0.214  2.3923 -2.2985  0.0109
  993SOL    HW2 2979   0.338   0.277   0.314  1.4839  3.0729  1.3333
  994SOL     OW 2980   0.384   2.154   2.125 -0.2078  0.1516 -0.2907
  994SOL    HW1 2981   0.372   2.253   2.100 -0.9966  1.8745 -1.5045
  994SOL    HW2 2982   0.460   2.111   2.078 -0.5670 -0.2406 -5.2969
  995SOL     OW 2983   1.982   1.388   2.940 -1.0519 -0.4289  0.4897
  995SOL    HW1 2984   1.891   1.378   2.978  3.3600 -0.4130 -2.1107
  995SOL    HW2 2985   2.003   1.337   2.853 -2.9107 -1.2669 -0.5509
  996SOL     OW 2986   1.695   1.661   2.871  0.1020 -0.1785 -0.5635
  996SOL    HW1 2987   1.686   1.636   2.770 -1.7706 -0.2187  1.2414
  996SOL    HW2 2988   1.642   1.752   2.888  0.3072  2.8317  1.9074
  997SOL     OW 2989   2.261   1.475   1.548 -0.2182  0.6409  0.3217
  997SOL    HW1 2990   2.333   1.502   1.616  2.9388  2.6945 -1.5287
  997SOL    HW2 2991   2.212   1.557   1.517 -1.8547 -1.2353 -0.9171
  998SOL     OW 2992   2.670   1.392   3.098  0.3775  0.0637  0.8238
  998SOL    HW1 2993   2.623   1.315   0.022  1.0390  2.5829 -1.2320
  998SOL    HW2 2994   2.755   1.417   0.028  2.2954 -0.4096  1.6630
  999SOL     OW 2995   2.732   2.495   0.506 -0.0690 -0.1706 -0.1078
  999SOL    HW1 2996   2.672   2.417   0.521  1.8112  1.4573  0.4213
  999SOL    HW2 2997   2.764   2.484   0.410  2.3307 -0.5536  0.4600
 1000SOL     OW 2998   0.604   2.999   1.827  0.3026 -0.1208 -0.1416
 1000SOL    HW1 2999   0.510   2.965   1.840 -2.1331 -0.9567 -0.1252
 1000SOL    HW2 3000   0.661   2.972   1.905 -1.2618 -1.7809  1.6252
   3.11828   3.11828   3.11828
