1000 SPC/Fw water molecules t= 258.00000 step= 258000
 3000
    1SOL     OW    1   2.822   2.506   0.999  0.2840  0.4902  0.3606
    1SOL    HW1    2   2.882   2.439   0.951 -0.4061  3.1041 -0.2173
    1SOL    HW2    3   2.788   2.581   0.941 -0.0121  2.1160  0.2676
    2SOL     OW    4   1.760   2.135   1.384  0.0327  0.4434  0.3982
    2SOL    HW1    5   1.681   2.120   1.450 -3.2083  0.5736  1.8799
    2SOL    HW2    6   1.759   2.070   1.308 -3.1707  0.1810  1.7092
    3SOL     OW    7   0.999   2.726   2.826 -0.2794 -1.0556 -0.0302
    3SOL    HW1    8   1.064   2.772   2.892 -1.2114  1.2111  1.3320
    3SOL    HW2    9   0.996   2.627   2.854 -1.3261  0.7236  1.5414
    4SOL     OW   10   2.014   2.013   1.621  0.0454 -0.1747  0.0168
    4SOL    HW1   11   2.102   1.993   1.671  0.0643 -0.5489  2.2814
    4SOL    HW2   12   1.953   2.068   1.680  1.8957  0.9749  1.7862
    5SOL     OW   13   1.362   1.048   1.369 -0.1850 -0.3468  0.1248
    5SOL    HW1   14   1.387   1.131   1.426  0.8992  1.1421 -0.1400
    5SOL    HW2   15   1.445   1.025   1.318  0.7811  1.3105  3.8014
    6SOL     OW   16   2.461   3.052   0.117  0.0314  0.1021 -0.3941
    6SOL    HW1   17   2.476   0.058   0.095 -0.8022 -0.5422 -2.8150
    6SOL    HW2   18   2.394   3.018   0.044  2.0895 -0.1013 -1.9340
    7SOL     OW   19   2.852   1.315   1.310 -0.2622  0.0932  0.0960
    7SOL    HW1   20   2.852   1.380   1.227 -1.9814 -0.3449  1.0466
    7SOL    HW2   21   2.943   1.324   1.352  1.8502 -1.2245  0.6309
    8SOL     OW   22   1.194   3.024   0.840  0.0537 -0.2871 -0.0736
    8SOL    HW1   23   1.150   2.947   0.897  0.5427 -1.3085 -0.6973
    8SOL    HW2   24   1.286   2.989   0.810  3.2980 -0.0544  0.4903
    9SOL     OW   25   1.378   0.267   2.355  0.2551 -0.0278  0.6304
    9SOL    HW1   26   1.385   0.287   2.252  1.9687 -2.5321 -0.6520
    9SOL    HW2   27   1.468   0.242   2.394 -0.0705 -2.3635 -0.7350
   10SOL     OW   28   0.761   2.217   0.579  0.1096  0.3290  0.2935
   10SOL    HW1   29   0.663   2.203   0.613  0.4381 -0.6585 -0.8960
   10SOL    HW2   30   0.806   2.131   0.549 -3.0576  2.5907  1.5934
   11SOL     OW   31   1.327   1.352   0.413  0.0024 -0.2264 -0.4045
   11SOL    HW1   32   1.413   1.336   0.471 -1.9632  2.7057  2.0103
   11SOL    HW2   33   1.334   1.429   0.347 -1.0799  0.1908 -0.7512
   12SOL     OW   34   2.743   0.082   1.871  0.1346  0.0486 -0.0039
   12SOL    HW1   35   2.713   0.047   1.961  0.6729  0.2249 -2.1817
   12SOL    HW2   36   2.665   0.107   1.811  2.3649 -1.9038 -1.3026
   13SOL     OW   37   1.838   0.189   0.634 -0.5117  0.1276  0.3612
   13SOL    HW1   38   1.827   0.279   0.588  0.3700  0.2940  1.7571
   13SOL    HW2   39   1.933   0.178   0.667  1.7768  0.5870 -0.2342
   14SOL     OW   40   1.384   2.420   1.067  0.1396 -0.0002  0.5705
   14SOL    HW1   41   1.355   2.472   0.981  0.8289  1.6277 -0.9996
   14SOL    HW2   42   1.483   2.401   1.076 -0.5136  1.1911  0.7925
   15SOL     OW   43   2.625   1.341   1.481 -0.0071  0.1927 -0.1670
   15SOL    HW1   44   2.685   1.360   1.401  0.7946 -0.4258  1.1541
   15SOL    HW2   45   2.681   1.335   1.566  0.1987  0.9929  0.8560
   16SOL     OW   46   2.125   2.511   0.355  0.2804  0.1554  0.1062
   16SOL    HW1   47   2.034   2.548   0.368 -1.3719 -2.4650 -0.6594
   16SOL    HW2   48   2.119   2.439   0.279  0.4042 -0.8341 -0.8723
   17SOL     OW   49   0.874   0.028   1.268 -0.0351  0.2389 -0.2893
   17SOL    HW1   50   0.902   0.127   1.270  1.7233 -1.7189 -0.0299
   17SOL    HW2   51   0.772   0.015   1.255 -2.0572  1.0511  0.6413
   18SOL     OW   52   1.491   0.724   2.847  0.3826  0.3732  0.2085
   18SOL    HW1   53   1.444   0.757   2.933  1.0347 -1.4919 -0.0335
   18SOL    HW2   54   1.573   0.780   2.835 -1.9766  2.8042  0.4702
   19SOL     OW   55   1.906   1.946   0.036 -0.4303 -0.1119  0.5487
   19SOL    HW1   56   1.951   1.912   3.040  2.9752  0.9321  0.6256
   19SOL    HW2   57   1.866   2.040   0.022  2.4261 -0.1173 -0.4002
   20SOL     OW   58   2.241   1.970   1.837 -0.6187 -0.0576 -0.2309
   20SOL    HW1   59   2.338   2.002   1.832  0.3298  1.1698  0.1959
   20SOL    HW2   60   2.238   1.867   1.813 -0.7870 -4.0592 -1.9686
   21SOL     OW   61   1.007   1.693   0.140  0.3665 -0.4899 -0.5787
   21SOL    HW1   62   0.989   1.614   0.199 -0.3288 -0.9585 -2.2702
   21SOL    HW2   63   0.993   1.781   0.189  1.9207  1.2016  0.9836
   22SOL     OW   64   1.961   0.082   1.559  0.0505 -0.0147 -0.0876
   22SOL    HW1   65   1.977   0.071   1.459 -1.7546 -0.8108  1.1126
   22SOL    HW2   66   1.963   0.179   1.592 -1.0831  0.1353 -0.5707
   23SOL     OW   67   2.820   0.860   1.883  0.3330 -0.1976 -0.2832
   23SOL    HW1   68   2.737   0.871   1.822 -1.1023  2.8379 -0.4866
   23SOL    HW2   69   2.791   0.827   1.976 -0.6785 -2.1315 -0.7406
   24SOL     OW   70   2.310   2.738   0.337  0.4078 -0.0856 -0.2420
   24SOL    HW1   71   2.390   2.704   0.288 -2.5125  1.8608  3.8480
   24SOL    HW2   72   2.246   2.658   0.357 -1.9107 -2.3859  0.2811
   25SOL     OW   73   1.057   2.901   2.366  0.3593  0.4069 -0.0456
   25SOL    HW1   74   1.140   2.952   2.360 -3.1657 -1.0160  1.4140
   25SOL    HW2   75   1.086   2.803   2.377  1.9328 -0.9952  0.0285
   26SOL     OW   76   1.823   2.688   0.119  0.3225 -0.3931  0.1970
   26SOL    HW1   77   1.733   2.663   0.084  1.1414  0.3837 -1.3894
   26SOL    HW2   78   1.841   2.643   0.205  0.0283  2.4026 -1.2530
   27SOL     OW   79   3.008   1.902   3.001  0.0649  0.3507 -0.7725
   27SOL    HW1   80   2.917   1.921   2.956  4.8730 -1.7627 -0.7720
   27SOL    HW2   81   3.086   1.936   2.944  0.1370  3.7174  1.4130
   28SOL     OW   82   3.047   1.165   1.691 -0.4098 -0.1972 -0.1559
   28SOL    HW1   83   2.948   1.149   1.654 -2.4565 -1.6124  0.5913
   28SOL    HW2   84   0.009   1.244   1.645  0.6347 -0.1408 -2.0574
   29SOL     OW   85   2.434   2.369   1.227 -0.4420 -0.4838  0.2016
   29SOL    HW1   86   2.435   2.412   1.322  1.3266 -0.1042 -0.3851
   29SOL    HW2   87   2.521   2.324   1.204  0.3125 -0.2175 -1.6004
   30SOL     OW   88   1.537   0.392   0.315  0.4061  0.0834  0.0454
   30SOL    HW1   89   1.540   0.474   0.372  1.6196 -3.3329  1.8288
   30SOL    HW2   90   1.632   0.357   0.308  2.7841  1.6847 -0.6788
   31SOL     OW   91   2.772   2.823   1.608 -0.0002  0.1435 -0.4031
   31SOL    HW1   92   2.692   2.853   1.554 -1.8336  0.7079 -1.6242
   31SOL    HW2   93   2.801   2.725   1.591  0.7125 -1.3752  0.5794
   32SOL     OW   94   0.982   1.807   1.384  0.2243 -0.1848 -0.1330
   32SOL    HW1   95   0.953   1.774   1.289 -3.1818 -1.8894 -1.9188
   32SOL    HW2   96   0.961   1.907   1.393  1.1293  2.6763  1.5523
   33SOL     OW   97   0.645   2.691   2.612 -0.0752  0.1873  0.4535
   33SOL    HW1   98   0.736   2.742   2.622 -0.1573  0.9310  0.3673
   33SOL    HW2   99   0.565   2.745   2.574  1.5925  1.1303  0.1108
   34SOL     OW  100   1.441   2.948   0.788  0.2511  0.4512  0.2753
   34SOL    HW1  101   1.516   3.019   0.766  2.1559  1.8445 -0.0009
   34SOL    HW2  102   1.457   2.852   0.749  1.3386  0.4075 -3.0657
   35SOL     OW  103   2.134   2.997   1.232 -0.1180  0.1311  0.2091
   35SOL    HW1  104   2.054   3.005   1.168 -0.4611  1.4682 -0.5076
   35SOL    HW2  105   2.133   3.064   1.307  0.7997  1.9063 -1.2146
   36SOL     OW  106   1.789   2.725   2.215 -0.5315  0.3709  0.0803
   36SOL    HW1  107   1.740   2.785   2.147 -0.8793  1.0619 -0.2258
   36SOL    HW2  108   1.720   2.661   2.255  0.7862 -1.8538  2.4767
   37SOL     OW  109   0.647   2.862   2.240 -0.0642 -0.0603 -0.0112
   37SOL    HW1  110   0.706   2.874   2.158 -1.0592 -1.9230  1.1065
   37SOL    HW2  111   0.693   2.907   2.323  0.0551  0.1403 -0.1025
   38SOL     OW  112   0.239   2.425   2.687  0.2539  0.2225  0.4060
   38SOL    HW1  113   0.332   2.456   2.720  1.5848 -1.4099 -2.0228
   38SOL    HW2  114   0.254   2.350   2.616 -0.6140  0.3184 -1.6184
   39SOL     OW  115   2.321   1.126   1.801  0.0449 -0.2103 -0.1743
   39SOL    HW1  116   2.363   1.138   1.708 -0.1138  2.4496  1.2797
   39SOL    HW2  117   2.304   1.214   1.849 -2.1186  2.6577  1.5351
   40SOL     OW  118   0.844   2.931   3.001  0.3831  0.6311 -0.2278
   40SOL    HW1  119   0.908   2.888   3.069 -1.8061 -2.1264  3.2797
   40SOL    HW2  120   0.798   3.011   3.045 -1.4318  2.6509 -2.5989
   41SOL     OW  121   2.358   0.989   0.890 -0.8141 -0.1453 -0.2352
   41SOL    HW1  122   2.380   1.036   0.978  1.1636 -1.6627  1.6376
   41SOL    HW2  123   2.267   1.026   0.865  1.7432 -0.8650  1.5975
   42SOL     OW  124   0.582   0.550   1.046 -0.5229 -0.9379 -0.1505
   42SOL    HW1  125   0.485   0.577   1.032  0.3273 -1.2998  3.1565
   42SOL    HW2  126   0.640   0.597   0.975  0.3083  0.5012 -2.9155
   43SOL     OW  127   2.111   1.512   2.719 -0.1333 -0.3135 -0.2226
   43SOL    HW1  128   2.072   1.433   2.775  1.8009 -1.3149  1.2377
   43SOL    HW2  129   2.186   1.478   2.657  1.3106 -1.9203 -0.9286
   44SOL     OW  130   3.015   2.929   1.288 -0.2536 -0.2184  0.2099
   44SOL    HW1  131   0.025   2.919   1.267  3.3385 -2.2612  0.7419
   44SOL    HW2  132   2.998   2.963   1.383  2.6328  2.5023  0.0533
   45SOL     OW  133   0.358   2.700   0.980  0.4038  0.3735  0.1858
   45SOL    HW1  134   0.362   2.796   0.940 -0.2765  1.6277  1.1927
   45SOL    HW2  135   0.269   2.659   0.951  1.3248 -0.8028  0.8615
   46SOL     OW  136   2.223   2.872   2.649  0.1264  0.3414 -0.7742
   46SOL    HW1  137   2.166   2.807   2.596  1.7198  0.4971  2.3963
   46SOL    HW2  138   2.319   2.887   2.616 -0.1656 -1.7320 -0.0778
   47SOL     OW  139   1.909   1.853   0.938  0.4229 -0.5096 -0.5954
   47SOL    HW1  140   1.919   1.760   0.994  1.1386 -2.8635  1.1024
   47SOL    HW2  141   1.874   1.833   0.844 -2.5958  1.4838  0.5109
   48SOL     OW  142   0.683   1.792   0.484  0.4130  0.2506  0.6565
   48SOL    HW1  143   0.737   1.834   0.413 -1.1322 -2.5682  0.8314
   48SOL    HW2  144   0.645   1.706   0.447  2.8161 -1.9820  0.2270
   49SOL     OW  145   2.749   0.412   2.520  0.6965 -0.3430 -0.6761
   49SOL    HW1  146   2.683   0.416   2.446  1.9299 -0.7917  2.9875
   49SOL    HW2  147   2.843   0.380   2.493  2.0627  1.3570  1.0081
   50SOL     OW  148   2.091   0.705   0.337 -0.2444 -0.3076 -0.3300
   50SOL    HW1  149   2.148   0.730   0.416  3.4103 -1.8341 -0.3460
   50SOL    HW2  150   1.995   0.735   0.351  0.3366  1.6694 -0.4800
   51SOL     OW  151   2.314   0.722   0.833 -0.0441 -0.2617  0.4075
   51SOL    HW1  152   2.358   0.813   0.821 -1.0372  2.6755 -4.9405
   51SOL    HW2  153   2.242   0.716   0.769  2.7933  0.0214  0.9633
   52SOL     OW  154   1.521   1.548   2.276  0.1968  0.2173 -0.7329
   52SOL    HW1  155   1.562   1.577   2.190  0.8264  0.5443  3.8106
   52SOL    HW2  156   1.426   1.512   2.264 -0.8696 -0.6208 -1.0736
   53SOL     OW  157   0.548   1.831   2.091 -0.6970  0.0315  0.1831
   53SOL    HW1  158   0.615   1.759   2.104  0.5777  3.1028 -1.9206
   53SOL    HW2  159   0.597   1.921   2.086  1.0923  0.2074 -2.2110
   54SOL     OW  160   2.217   0.391   1.310 -0.2105  0.8552  0.1312
   54SOL    HW1  161   2.273   0.360   1.227  1.8222 -1.0389 -3.4288
   54SOL    HW2  162   2.229   0.491   1.322 -0.8522 -0.7383  0.9593
   55SOL     OW  163   2.480   2.167   0.800  0.0677  0.0439  0.2936
   55SOL    HW1  164   2.510   2.126   0.889 -1.0877  0.9886  2.5252
   55SOL    HW2  165   2.424   2.101   0.741 -1.9093 -0.4062  0.6195
   56SOL     OW  166   0.985   0.009   1.898 -0.2598 -0.3426  0.1126
   56SOL    HW1  167   1.067   3.052   1.935 -1.2755  0.3758 -2.5411
   56SOL    HW2  168   0.966   0.095   1.948  2.9672 -0.2760 -0.6526
   57SOL     OW  169   1.666   1.791   0.342 -0.1810  0.0834 -0.8568
   57SOL    HW1  170   1.684   1.880   0.387 -1.6285  0.2914  1.9824
   57SOL    HW2  171   1.689   1.788   0.241  3.0868  0.1619  0.1869
   58SOL     OW  172   0.025   1.076   2.429 -0.2746  0.2279 -0.3651
   58SOL    HW1  173   0.107   1.023   2.460  2.9954  1.8313  0.1463
   58SOL    HW2  174   0.011   1.055   2.332 -1.0351 -1.4051  3.0694
   59SOL     OW  175   0.739   3.023   2.440 -0.1056  0.3722 -0.4192
   59SOL    HW1  176   0.708   3.086   2.510  0.3584  0.5669 -1.9000
   59SOL    HW2  177   0.801   2.955   2.479  0.4841  0.2916  0.1303
   60SOL     OW  178   2.704   2.233   0.426  0.0777  0.3381  0.2046
   60SOL    HW1  179   2.736   2.170   0.358 -0.6552  0.6079  2.3405
   60SOL    HW2  180   2.723   2.194   0.518  2.2759  2.6097 -1.2729
   61SOL     OW  181   1.299   2.035   0.451 -0.3420  0.0027  0.3700
   61SOL    HW1  182   1.389   2.084   0.422 -1.1372  0.9842  0.6167
   61SOL    HW2  183   1.240   2.096   0.512  2.1161  3.5791  1.4508
   62SOL     OW  184   1.967   2.162   2.323  0.3007 -0.1851  0.5073
   62SOL    HW1  185   1.996   2.071   2.356  0.7361 -0.7704  0.3397
   62SOL    HW2  186   1.944   2.162   2.227 -2.9890  0.2688  1.3595
   63SOL     OW  187   2.128   2.305   0.181 -0.1701 -0.3041 -0.0239
   63SOL    HW1  188   2.205   2.242   0.205  0.2324 -0.3984  1.2922
   63SOL    HW2  189   2.113   2.326   0.082  0.1147  1.7981  1.0267
   64SOL     OW  190   1.600   1.170   2.475  0.1598 -1.1229 -0.0881
   64SOL    HW1  191   1.637   1.188   2.382 -1.4747 -0.2883  1.8139
   64SOL    HW2  192   1.625   1.078   2.513  1.3208 -1.3124 -3.1663
   65SOL     OW  193   1.278   2.327   2.965 -0.5201 -0.3028 -0.5038
   65SOL    HW1  194   1.307   2.378   2.881  1.8950 -0.0562  0.5111
   65SOL    HW2  195   1.339   2.349   3.046  1.4996 -0.8844  2.0672
   66SOL     OW  196   0.223   1.601   1.973 -0.3921  0.1884 -0.5194
   66SOL    HW1  197   0.295   1.606   2.045  1.4519 -2.5280 -2.9159
   66SOL    HW2  198   0.163   1.521   1.977 -0.7109 -0.5811 -1.6261
   67SOL     OW  199   2.943   2.818   2.715  0.5132  0.0735  0.2635
   67SOL    HW1  200   2.888   2.736   2.728 -2.9623  2.5487 -0.6710
   67SOL    HW2  201   2.887   2.906   2.718 -2.3433  2.3730 -0.2708
   68SOL     OW  202   1.033   2.590   1.368  0.0997 -0.0704 -0.2216
   68SOL    HW1  203   1.000   2.688   1.368 -1.3956  0.6213  0.9473
   68SOL    HW2  204   1.136   2.577   1.346  0.0355  0.7217  0.7517
   69SOL     OW  205   0.733   2.476   0.474  0.0591  0.2148  0.1561
   69SOL    HW1  206   0.687   2.528   0.547  1.4961 -0.0416  0.8932
   69SOL    HW2  207   0.767   2.392   0.522  2.4699 -0.9302  2.4623
   70SOL     OW  208   2.572   0.912   2.850  0.3024 -0.5332  0.5449
   70SOL    HW1  209   2.649   0.867   2.893  1.2926 -0.0450  2.9620
   70SOL    HW2  210   2.507   0.853   2.804 -0.6268  4.2239  0.3950
   71SOL     OW  211   0.736   1.097   2.426  0.5312 -1.1069 -0.0149
   71SOL    HW1  212   0.750   1.013   2.481  2.2358  0.4598  0.8831
   71SOL    HW2  213   0.639   1.127   2.423  0.5903 -1.8080  0.0754
   72SOL     OW  214   0.306   2.119   0.646 -0.3169 -0.2143  0.0484
   72SOL    HW1  215   0.361   2.033   0.638  2.0781  0.1825 -0.2128
   72SOL    HW2  216   0.213   2.108   0.685  0.2861  0.5293  0.5631
   73SOL     OW  217   0.955   1.452   0.262  0.7945 -0.1134 -0.3438
   73SOL    HW1  218   0.899   1.393   0.207  1.5687  4.3547 -0.3795
   73SOL    HW2  219   1.003   1.407   0.337 -0.1186  2.4291 -1.7439
   74SOL     OW  220   2.614   2.840   0.135  0.2553  0.0212 -0.1299
   74SOL    HW1  221   2.574   2.750   0.163 -0.8320  2.5198 -2.3990
   74SOL    HW2  222   2.542   2.916   0.135 -0.1739 -0.2695  1.5089
   75SOL     OW  223   2.271   1.633   1.994  0.1417  0.0528 -0.1012
   75SOL    HW1  224   2.253   1.540   2.016 -1.9477  1.3688 -1.1997
   75SOL    HW2  225   2.259   1.650   1.895  1.1562 -0.3026  0.0487
   76SOL     OW  226   1.864   2.464   1.900 -0.4257 -0.3269 -0.5868
   76SOL    HW1  227   1.929   2.434   1.970 -0.6452 -0.2978  2.4647
   76SOL    HW2  228   1.863   2.570   1.880 -3.7690  2.6794  0.0633
   77SOL     OW  229   2.649   0.436   1.725 -0.5167 -0.3445 -0.5301
   77SOL    HW1  230   2.575   0.385   1.766 -0.7971  1.8799 -0.8843
   77SOL    HW2  231   2.740   0.393   1.743  1.8780  0.1251  0.7531
   78SOL     OW  232   1.749   0.835   2.857 -0.1857  0.0261 -0.0050
   78SOL    HW1  233   1.834   0.786   2.829 -0.1520  1.5709 -1.4258
   78SOL    HW2  234   1.770   0.918   2.909 -0.3395 -2.6997 -2.3204
   79SOL     OW  235   3.057   1.742   2.221  0.0777  0.0651 -0.1498
   79SOL    HW1  236   3.088   1.768   2.133 -0.9931 -1.8851 -0.7758
   79SOL    HW2  237   2.957   1.717   2.212  1.1891  0.6644 -0.8461
   80SOL     OW  238   1.994   1.100   1.214 -0.2235 -0.4506  0.2385
   80SOL    HW1  239   1.980   1.078   1.116  1.0945 -1.2892 -0.5251
   80SOL    HW2  240   2.066   1.043   1.247 -1.2911 -0.0245  0.7489
   81SOL     OW  241   1.347   0.482   1.505  0.6455  0.2983 -0.4182
   81SOL    HW1  242   1.355   0.563   1.443  2.9109 -1.0680  1.5670
   81SOL    HW2  243   1.441   0.468   1.548  1.3797  2.0310 -1.1630
   82SOL     OW  244   1.382   2.559   1.632  0.7268  0.3819 -0.2206
   82SOL    HW1  245   1.431   2.520   1.552 -0.8732 -0.2634 -0.2198
   82SOL    HW2  246   1.302   2.620   1.605  0.3713  0.2960  1.3733
   83SOL     OW  247   0.310   0.153   0.636 -0.0079 -0.2619 -0.0620
   83SOL    HW1  248   0.375   0.085   0.671 -1.3071  0.3556 -4.1841
   83SOL    HW2  249   0.337   0.188   0.543 -1.3849  2.8560  0.2421
   84SOL     OW  250   0.050   0.929   2.771  0.4922  0.6543 -0.1099
   84SOL    HW1  251   3.081   0.852   2.745  3.3407  0.4223 -0.8589
   84SOL    HW2  252   3.089   0.995   2.824  1.5108 -0.1891  0.3702
   85SOL     OW  253   2.808   2.093   1.752 -0.1217 -0.0070 -0.2152
   85SOL    HW1  254   2.754   2.009   1.742  0.6611  0.8435 -1.4101
   85SOL    HW2  255   2.786   2.155   1.669 -1.4356 -0.0601 -1.9459
   86SOL     OW  256   2.773   2.255   1.505  0.1392 -0.2587 -0.1601
   86SOL    HW1  257   2.865   2.247   1.463  3.4806 -1.5907 -1.1099
   86SOL    HW2  258   2.737   2.352   1.507 -1.0049 -0.3514 -0.0109
   87SOL     OW  259   0.443   3.036   3.035  0.8444  0.1844 -0.8917
   87SOL    HW1  260   0.494   2.951   3.006  0.0170 -0.2955  0.0117
   87SOL    HW2  261   0.498   0.031   3.024  1.0069 -0.9942 -0.3083
   88SOL     OW  262   0.461   2.004   1.024 -0.4936  0.4133  0.3216
   88SOL    HW1  263   0.518   2.020   0.942  1.9377 -0.3014  1.8686
   88SOL    HW2  264   0.523   1.985   1.105 -0.9243  1.1031  2.2023
   89SOL     OW  265   0.847   0.788   1.692  0.0622 -0.4929  0.0539
   89SOL    HW1  266   0.905   0.781   1.607 -2.4004 -1.1921  1.1056
   89SOL    HW2  267   0.874   0.712   1.757 -0.1970  3.3233 -1.4335
   90SOL     OW  268   2.228   1.835   1.476  0.0343  0.2110 -0.1582
   90SOL    HW1  269   2.328   1.834   1.451 -2.3236 -0.1226  0.3108
   90SOL    HW2  270   2.183   1.891   1.404  0.9954 -0.9334  0.6073
   91SOL     OW  271   1.451   1.458   0.868  0.3705  0.1147  0.4110
   91SOL    HW1  272   1.379   1.524   0.841 -1.4561  0.9548  0.7678
   91SOL    HW2  273   1.400   1.384   0.916 -1.6012 -2.3082 -0.0937
   92SOL     OW  274   2.157   0.572   1.001 -0.3951 -0.0367 -1.5885
   92SOL    HW1  275   2.197   0.641   0.934 -0.6605  0.9123  1.4875
   92SOL    HW2  276   2.192   0.599   1.094  2.7824 -0.5901  1.9866
   93SOL     OW  277   2.208   1.281   0.103  0.1909 -0.2448 -0.4872
   93SOL    HW1  278   2.143   1.206   0.132 -0.2040  0.5409  1.0283
   93SOL    HW2  279   2.166   1.372   0.120 -2.2194 -0.2703  1.5332
   94SOL     OW  280   2.444   2.253   2.414 -0.5110 -0.3363  0.1787
   94SOL    HW1  281   2.459   2.330   2.351  0.7014 -0.3891  0.4552
   94SOL    HW2  282   2.421   2.166   2.364  1.5610  0.4694  1.4517
   95SOL     OW  283   2.034   0.355   0.913  0.2334 -0.0840  0.0316
   95SOL    HW1  284   2.076   0.443   0.938 -0.5484 -0.2043 -1.9696
   95SOL    HW2  285   2.105   0.289   0.895 -0.6139 -0.2970  0.2497
   96SOL     OW  286   2.936   3.032   1.530  0.8279  0.3351 -0.0750
   96SOL    HW1  287   2.897   2.950   1.577  1.1961 -1.7814 -1.8157
   96SOL    HW2  288   2.860   3.083   1.479 -1.1064  0.5247  0.0916
   97SOL     OW  289   2.381   0.297   1.141  0.3701 -0.2268  0.0179
   97SOL    HW1  290   2.411   0.349   1.057  0.3710  0.1773 -1.0145
   97SOL    HW2  291   2.395   0.197   1.127 -1.0520 -1.3870 -0.6782
   98SOL     OW  292   1.535   2.282   1.646 -0.0720  0.3248  0.2354
   98SOL    HW1  293   1.630   2.313   1.624 -0.3735 -1.1174  1.5081
   98SOL    HW2  294   1.464   2.347   1.636  3.3009 -4.2518 -1.0202
   99SOL     OW  295   2.620   2.519   1.737  0.0319  0.0173 -0.5881
   99SOL    HW1  296   2.526   2.547   1.766  0.3344 -1.1969 -1.6609
   99SOL    HW2  297   2.617   2.516   1.637 -0.4350  0.8053  2.6559
  100SOL     OW  298   0.294   0.886   2.914 -0.6708  0.3895 -0.2058
  100SOL    HW1  299   0.300   0.987   2.917 -0.5143 -0.2999 -1.5149
  100SOL    HW2  300   0.213   0.857   2.862 -1.0085 -1.9020 -1.0280
  101SOL     OW  301   1.800   0.528   3.047 -0.2012 -0.2943 -0.2757
  101SOL    HW1  302   1.814   0.542   2.949 -0.1077 -0.1891  0.6120
  101SOL    HW2  303   1.876   0.469   3.086  2.4988  2.0655  1.4490
  102SOL     OW  304   0.237   0.725   1.706  0.1728  0.1290 -0.3547
  102SOL    HW1  305   0.222   0.830   1.709 -0.6547  1.8269 -0.3133
  102SOL    HW2  306   0.190   0.693   1.622  0.8361 -1.7665  0.0794
  103SOL     OW  307   2.775   1.075   2.324  0.0754  0.4886 -0.4642
  103SOL    HW1  308   2.693   1.134   2.347  1.8529  0.4558  0.2435
  103SOL    HW2  309   2.823   1.054   2.411  0.3848 -0.3254 -0.7825
  104SOL     OW  310   0.585   0.271   2.492  0.4943  1.0944  0.2153
  104SOL    HW1  311   0.591   0.238   2.590  0.9830  1.3564 -0.2132
  104SOL    HW2  312   0.671   0.281   2.441 -0.6672 -0.7420  1.2816
  105SOL     OW  313   1.973   1.555   1.400  0.1477 -0.2061 -0.4632
  105SOL    HW1  314   1.952   1.639   1.453 -0.2182 -2.2405  1.8043
  105SOL    HW2  315   1.894   1.491   1.401 -1.6362 -0.9683 -0.7973
  106SOL     OW  316   2.178   0.241   0.453  0.3443 -0.2320  0.5309
  106SOL    HW1  317   2.228   0.166   0.404 -1.0871 -0.0376  1.4047
  106SOL    HW2  318   2.115   0.201   0.523  2.3654  1.6299  0.2164
  107SOL     OW  319   3.092   1.656   1.404 -0.0848  0.1970 -0.4880
  107SOL    HW1  320   0.082   1.700   1.356  1.8688  2.6849  1.1630
  107SOL    HW2  321   3.007   1.657   1.347  1.0243 -3.6607  1.5631
  108SOL     OW  322   2.826   2.556   1.941 -0.3485  0.8243  0.3291
  108SOL    HW1  323   2.913   2.569   1.886  0.0200 -0.1102  0.6826
  108SOL    HW2  324   2.744   2.534   1.881  0.5716 -0.8636  0.4449
  109SOL     OW  325   2.076   0.098   0.667 -0.5228 -0.5457 -0.0417
  109SOL    HW1  326   2.137   0.130   0.741 -0.2380  1.6769  0.5471
  109SOL    HW2  327   2.087   0.002   0.635  2.5939 -0.0613  2.5317
  110SOL     OW  328   0.328   2.148   2.409  0.4582  0.0540 -0.2129
  110SOL    HW1  329   0.385   2.140   2.495 -1.9699 -1.1075 -0.3348
  110SOL    HW2  330   0.299   2.053   2.378 -0.1753 -1.4318 -0.4602
  111SOL     OW  331   1.627   2.395   1.958  0.4382  0.3256  0.3363
  111SOL    HW1  332   1.728   2.412   1.944 -1.5730  0.5042  0.5863
  111SOL    HW2  333   1.602   2.299   1.940  1.7297  2.3614 -1.3742
  112SOL     OW  334   1.578   2.613   3.084  0.0231 -0.1786  0.2250
  112SOL    HW1  335   1.509   2.547   0.021  0.0465  3.8708  0.8321
  112SOL    HW2  336   1.549   2.652   2.992 -2.0722 -0.2014  0.8159
  113SOL     OW  337   2.012   2.528   1.522  0.4499  0.0725 -0.4343
  113SOL    HW1  338   1.978   2.619   1.552 -0.1315  2.5425 -1.2281
  113SOL    HW2  339   2.034   2.529   1.422  0.9405  1.2553 -0.6764
  114SOL     OW  340   2.987   1.120   0.530  0.1485 -0.0704  0.1614
  114SOL    HW1  341   2.949   1.133   0.625  1.4242 -0.4447 -0.0701
  114SOL    HW2  342   3.031   1.208   0.499 -0.7570  1.2718  1.1428
  115SOL     OW  343   0.780   0.941   2.924  0.7711 -0.2564  0.6039
  115SOL    HW1  344   0.711   1.005   2.887  2.4218 -1.1327  1.4447
  115SOL    HW2  345   0.735   0.868   2.977 -0.0750  0.1137  1.2465
  116SOL     OW  346   2.776   1.679   2.154 -0.1292  0.2185  0.1293
  116SOL    HW1  347   2.766   1.753   2.090 -2.3726 -0.5091 -0.6314
  116SOL    HW2  348   2.797   1.585   2.116 -1.4353  1.3960  0.9767
  117SOL     OW  349   2.722   2.689   0.825 -0.0686 -0.4301 -0.2539
  117SOL    HW1  350   2.720   2.668   0.723  1.2153 -1.3660 -1.3820
  117SOL    HW2  351   2.724   2.791   0.841 -1.1752 -0.2737  2.6711
  118SOL     OW  352   1.194   2.178   1.476 -0.2299 -0.0872 -0.3735
  118SOL    HW1  353   1.241   2.190   1.566  0.4626  0.4518 -2.2298
  118SOL    HW2  354   1.243   2.233   1.407  2.3244  3.0364  0.2621
  119SOL     OW  355   0.617   1.970   2.990  0.0917  0.2435 -0.0734
  119SOL    HW1  356   0.554   2.050   2.994 -0.3382 -1.4494 -1.1389
  119SOL    HW2  357   0.581   1.900   3.053 -0.7623 -2.0443  0.7535
  120SOL     OW  358   0.885   0.644   2.935  0.5165 -0.2233  0.2126
  120SOL    HW1  359   0.841   0.626   2.848  0.6001  0.6703 -1.0269
  120SOL    HW2  360   0.981   0.668   2.916 -2.6638  2.0454  0.5771
  121SOL     OW  361   1.649   2.680   0.946  0.1554  0.1033  0.5739
  121SOL    HW1  362   1.650   2.597   0.885 -1.1009 -1.2977 -1.7083
  121SOL    HW2  363   1.572   2.737   0.909 -2.1379 -1.0209 -2.0051
  122SOL     OW  364   2.210   2.462   1.672  0.2120  0.0478  0.1650
  122SOL    HW1  365   2.185   2.419   1.758 -0.4377  0.1727 -0.2815
  122SOL    HW2  366   2.126   2.492   1.624  0.9212 -0.0766  0.4534
  123SOL     OW  367   0.441   3.049   0.761 -0.7618  0.5992  0.0408
  123SOL    HW1  368   0.529   3.003   0.737  2.1483 -1.5910 -1.7161
  123SOL    HW2  369   0.372   2.978   0.745  2.1244 -0.1744  0.5566
  124SOL     OW  370   2.210   1.194   2.924 -0.2846  0.0143 -0.2953
  124SOL    HW1  371   2.142   1.236   2.857 -0.3471  1.3779 -3.8875
  124SOL    HW2  372   2.201   1.236   3.016 -0.4340  1.3976  0.8659
  125SOL     OW  373   0.774   0.933   0.449  0.1000 -0.0307  0.2754
  125SOL    HW1  374   0.691   0.990   0.484 -0.1866  1.5213  0.8332
  125SOL    HW2  375   0.847   0.990   0.406  1.9464  0.4352  0.5662
  126SOL     OW  376   2.639   1.433   0.840 -0.1746  0.0487 -0.9504
  126SOL    HW1  377   2.686   1.429   0.754 -2.0465 -1.0433  1.6396
  126SOL    HW2  378   2.557   1.369   0.853 -1.3381 -3.5880  2.3704
  127SOL     OW  379   0.024   1.805   1.960  0.0801 -0.4047  0.2425
  127SOL    HW1  380   0.105   1.747   1.948 -1.1769  0.8919 -0.5008
  127SOL    HW2  381   0.043   1.892   1.911 -1.9477 -0.2443 -1.8983
  128SOL     OW  382   1.204   1.128   3.021  0.6267 -0.2311  0.1173
  128SOL    HW1  383   1.281   1.083   3.072  3.9884 -2.7515  0.0073
  128SOL    HW2  384   1.232   1.212   2.974 -0.1985  0.3657  1.5055
  129SOL     OW  385   2.581   1.147   0.749 -0.9586 -0.1797 -0.4519
  129SOL    HW1  386   2.503   1.194   0.794  0.0005  0.7558  0.5530
  129SOL    HW2  387   2.549   1.050   0.730 -0.6257 -1.0032  3.3310
  130SOL     OW  388   2.344   0.998   1.349  0.2392  0.3228  0.3594
  130SOL    HW1  389   2.423   0.946   1.390 -1.9638  2.8442 -0.9610
  130SOL    HW2  390   2.364   1.025   1.251 -0.6080  0.4889  0.0342
  131SOL     OW  391   3.044   2.846   3.005  0.3102  0.9408 -0.1156
  131SOL    HW1  392   3.072   2.779   2.924 -0.1921 -1.2646 -2.6803
  131SOL    HW2  393   0.029   2.897   3.039 -1.6003 -0.3632 -0.3753
  132SOL     OW  394   2.980   1.994   1.523 -0.0291 -0.2727  0.2082
  132SOL    HW1  395   2.908   1.997   1.597 -2.2400  0.7373  1.4564
  132SOL    HW2  396   3.075   2.032   1.542 -0.6041 -0.2467  0.0689
  133SOL     OW  397   1.367   0.094   1.229 -0.3372 -0.6006 -0.6298
  133SOL    HW1  398   1.466   0.112   1.237 -0.4672  1.5019  0.6689
  133SOL    HW2  399   1.302   0.161   1.275 -1.5031 -0.0808 -2.2092
  134SOL     OW  400   0.021   1.305   0.211 -0.1037 -0.3385 -0.8082
  134SOL    HW1  401   3.023   1.263   0.182  1.2492  0.3734 -1.5777
  134SOL    HW2  402   0.058   1.372   0.145 -1.2768  0.8931 -0.8068
  135SOL     OW  403   2.400   1.200   1.552  0.6143 -0.1895  0.3345
  135SOL    HW1  404   2.371   1.161   1.464 -1.6864  1.8260 -1.7638
  135SOL    HW2  405   2.481   1.263   1.548 -2.5751  1.5168  1.6912
  136SOL     OW  406   0.105   0.943   0.543  0.0960 -0.4599  0.1678
  136SOL    HW1  407   0.031   1.015   0.560 -1.5927 -1.9123  2.4911
  136SOL    HW2  408   0.157   0.955   0.454  0.9835 -1.5350  0.7448
  137SOL     OW  409   2.722   1.092   1.306  0.3117 -0.2796  0.5796
  137SOL    HW1  410   2.718   1.051   1.215 -1.1596  2.1944  1.9116
  137SOL    HW2  411   2.775   1.185   1.297  0.0326  2.1151  0.0831
  138SOL     OW  412   1.541   0.960   1.199 -0.3332 -1.2105  0.6026
  138SOL    HW1  413   1.517   0.879   1.140 -1.7390 -0.5448  0.0338
  138SOL    HW2  414   1.638   0.946   1.232  1.8262 -3.3361  2.1901
  139SOL     OW  415   1.751   3.071   0.108 -0.0135  0.6891 -0.0952
  139SOL    HW1  416   1.848   3.038   0.099 -0.5284  0.2261 -0.8368
  139SOL    HW2  417   1.760   0.066   0.163  0.3285 -0.3685  1.3915
  140SOL     OW  418   1.566   1.768   1.675  0.2994 -0.0330 -0.0265
  140SOL    HW1  419   1.558   1.712   1.589 -0.4079 -1.1382 -2.6566
  140SOL    HW2  420   1.496   1.727   1.740 -0.0244 -1.7945 -0.3258
  141SOL     OW  421   1.840   2.325   0.662  0.1821  0.0298 -0.2930
  141SOL    HW1  422   1.927   2.379   0.666 -0.0689  0.8679  1.0600
  141SOL    HW2  423   1.861   2.242   0.608  3.6851  0.6358  2.0514
  142SOL     OW  424   0.617   0.824   0.031  0.4101 -0.2299 -0.3617
  142SOL    HW1  425   0.657   0.783   0.115 -1.9333 -2.7341 -0.4453
  142SOL    HW2  426   0.548   0.756   3.081  1.6847 -0.1601 -1.7559
  143SOL     OW  427   0.398   2.155   3.021 -0.1198 -0.2147  0.2715
  143SOL    HW1  428   0.422   2.251   3.032 -0.8376 -0.7127 -2.3133
  143SOL    HW2  429   0.329   2.134   2.946 -1.8112 -0.0437  0.5100
  144SOL     OW  430   1.493   2.942   1.216 -0.1088 -0.3670 -0.0979
  144SOL    HW1  431   1.445   3.035   1.228  0.3978  0.7424 -1.9627
  144SOL    HW2  432   1.581   2.952   1.165 -0.0237  1.4157 -0.9464
  145SOL     OW  433   2.444   1.350   0.569  0.3275 -0.2042 -0.0851
  145SOL    HW1  434   2.458   1.398   0.479  0.6793  0.7313  0.6674
  145SOL    HW2  435   2.531   1.301   0.598 -0.2295  0.2297 -1.2430
  146SOL     OW  436   2.811   2.067   0.231 -0.4116  0.1331 -0.2071
  146SOL    HW1  437   2.789   2.093   0.135 -1.2331  0.5679 -2.2522
  146SOL    HW2  438   2.909   2.033   0.242 -0.7244  0.9194  1.3716
  147SOL     OW  439   2.350   2.788   1.625 -0.7217  0.0483  0.3766
  147SOL    HW1  440   2.257   2.833   1.615 -0.6344  0.0228  1.5559
  147SOL    HW2  441   2.423   2.836   1.572 -1.4737 -1.2462  1.2573
  148SOL     OW  442   1.232   2.645   1.913  0.4669  0.2677  0.0054
  148SOL    HW1  443   1.334   2.647   1.920  2.4640  1.9196  2.3247
  148SOL    HW2  444   1.193   2.581   1.851 -0.8236 -2.4573  0.7321
  149SOL     OW  445   1.624   0.523   2.249  0.3873  0.3280 -0.6133
  149SOL    HW1  446   1.676   0.578   2.177 -0.4614 -0.9804 -2.3664
  149SOL    HW2  447   1.524   0.556   2.260 -1.9453 -0.0126  0.0684
  150SOL     OW  448   0.516   2.870   0.472  0.0859 -0.1871  0.3402
  150SOL    HW1  449   0.546   2.878   0.568 -0.0177 -0.0110 -0.0140
  150SOL    HW2  450   0.432   2.818   0.466  1.6507  1.1395 -1.0326
  151SOL     OW  451   0.081   1.447   0.004 -0.6929  0.2608  0.4513
  151SOL    HW1  452   0.036   1.527   0.044 -0.4672  0.2533 -0.4738
  151SOL    HW2  453   0.062   1.447   2.996 -1.6172  0.5884 -0.3394
  152SOL     OW  454   2.937   0.117   0.603 -0.0840 -0.2490 -0.0059
  152SOL    HW1  455   2.930   0.101   0.705 -0.3659  1.2408 -0.0225
  152SOL    HW2  456   2.985   0.209   0.586  0.1397  0.0749  0.3211
  153SOL     OW  457   2.359   0.012   1.080  0.6419  0.3187  0.1900
  153SOL    HW1  458   2.293   3.044   1.134  0.1210 -0.8868 -0.4940
  153SOL    HW2  459   2.442   3.046   1.064 -0.7563  0.1692  2.2259
  154SOL     OW  460   0.940   0.567   1.795  0.3041 -0.3082 -0.1258
  154SOL    HW1  461   1.034   0.529   1.773  3.5778  0.6267  1.6455
  154SOL    HW2  462   0.886   0.492   1.842 -1.9413 -1.7071 -0.7694
  155SOL     OW  463   2.943   1.088   1.015  0.4174  0.2662 -0.4990
  155SOL    HW1  464   2.960   1.009   1.082 -0.5624 -2.6040  1.4640
  155SOL    HW2  465   3.008   1.156   1.042 -0.5568 -1.0779  3.5065
  156SOL     OW  466   3.064   1.957   0.182 -0.4302 -0.6082  0.0166
  156SOL    HW1  467   3.083   2.059   0.168 -1.5481  2.1153 -2.8030
  156SOL    HW2  468   3.052   1.912   0.091  0.0882 -0.2480  2.3194
  157SOL     OW  469   0.914   0.366   0.268  0.0945 -0.2864  0.5347
  157SOL    HW1  470   0.927   0.267   0.271 -1.6333  1.6172 -0.5228
  157SOL    HW2  471   0.823   0.388   0.223 -1.2747 -1.0036  1.1475
  158SOL     OW  472   2.666   0.165   2.886  0.5684  0.5065 -0.0209
  158SOL    HW1  473   2.657   0.254   2.838  0.0869  0.1431  0.7432
  158SOL    HW2  474   2.695   0.095   2.820  2.7417  0.2803  1.1699
  159SOL     OW  475   0.589   0.175   3.013 -0.0007  0.6397  0.1197
  159SOL    HW1  476   0.649   0.138   3.089 -1.3792  0.5322  1.6033
  159SOL    HW2  477   0.584   0.277   3.027  0.8920 -0.5757  0.8301
  160SOL     OW  478   1.189   1.794   3.014  0.3328  0.4761 -0.1968
  160SOL    HW1  479   1.137   1.848   2.947 -0.1218 -1.8333  1.7286
  160SOL    HW2  480   1.124   1.733   3.060  0.3093  1.0105 -0.8199
  161SOL     OW  481   2.994   1.725   2.724  0.0085  0.0126 -0.0541
  161SOL    HW1  482   2.905   1.748   2.766  3.3981  1.1868 -0.2609
  161SOL    HW2  483   2.988   1.746   2.622  1.7428  0.7904  1.6812
  162SOL     OW  484   0.353   2.510   1.359  0.0736 -0.1958  0.6360
  162SOL    HW1  485   0.424   2.479   1.290  1.7009 -1.1308 -3.2299
  162SOL    HW2  486   0.264   2.521   1.310 -3.4650  0.1678 -2.6807
  163SOL     OW  487   1.972   0.264   2.758 -0.1827  0.6048  0.0501
  163SOL    HW1  488   1.872   0.259   2.760  0.4612 -0.9255  1.1090
  163SOL    HW2  489   2.016   0.182   2.714 -0.7509 -0.8620 -0.7991
  164SOL     OW  490   2.784   1.415   0.607 -0.5192  0.2742  0.2272
  164SOL    HW1  491   2.765   1.411   0.505 -1.8405  1.7696 -3.9348
  164SOL    HW2  492   2.799   1.326   0.647  1.9798  0.3586 -0.1877
  165SOL     OW  493   0.183   0.011   1.843 -0.1308  0.8682  0.9262
  165SOL    HW1  494   0.129   3.015   1.855 -0.1208  1.0073  1.9447
  165SOL    HW2  495   0.168   0.048   1.749  1.6631  1.2280 -2.3163
  166SOL     OW  496   2.107   0.687   0.651  0.1678  0.4422  0.4449
  166SOL    HW1  497   2.051   0.643   0.576  1.6267 -2.0952  2.9789
  166SOL    HW2  498   2.054   0.765   0.689  0.2238  0.7190  0.9519
  167SOL     OW  499   0.498   0.509   0.360 -0.1682  0.7860 -0.5057
  167SOL    HW1  500   0.551   0.593   0.368 -0.2976 -1.4250  0.0945
  167SOL    HW2  501   0.403   0.526   0.393 -1.2271  1.2977  1.4456
  168SOL     OW  502   1.922   2.933   1.965 -0.0088  0.0607  0.3303
  168SOL    HW1  503   1.872   2.992   2.032 -1.8755 -1.5301 -1.4130
  168SOL    HW2  504   1.997   2.976   1.919  0.2133  1.2879 -1.3489
  169SOL     OW  505   1.019   1.216   0.725 -0.1733 -0.0262  0.4199
  169SOL    HW1  506   1.020   1.113   0.716  1.6440 -3.4286 -2.0294
  169SOL    HW2  507   1.015   1.228   0.823  1.6962 -0.8124 -1.1779
  170SOL     OW  508   0.022   0.232   1.277  0.5305  0.1147 -0.8822
  170SOL    HW1  509   0.077   0.169   1.332 -2.7431  2.5114 -0.2639
  170SOL    HW2  510   0.015   0.322   1.325 -0.2255 -0.0596  1.3434
  171SOL     OW  511   0.836   2.581   1.970 -0.4497 -0.1930  0.0424
  171SOL    HW1  512   0.746   2.538   1.950  0.5885  0.6942  0.5184
  171SOL    HW2  513   0.914   2.548   1.917  1.3634  1.9931  0.2639
  172SOL     OW  514   0.731   2.312   1.328  0.4949  0.1057  0.2533
  172SOL    HW1  515   0.707   2.410   1.330 -0.0616  0.5104 -0.4159
  172SOL    HW2  516   0.702   2.269   1.418 -0.7429  0.9938  0.0246
  173SOL     OW  517   1.410   0.957   2.705  0.1594 -0.1693  0.1880
  173SOL    HW1  518   1.372   0.991   2.612 -0.8217  0.3948  0.5088
  173SOL    HW2  519   1.415   0.852   2.714 -0.6569 -4.7983 -0.3147
  174SOL     OW  520   1.676   0.069   2.932  0.3756  0.0833  0.0403
  174SOL    HW1  521   1.687   0.051   3.030  0.1888  2.4292 -0.4843
  174SOL    HW2  522   1.720   0.155   2.893  0.0487  1.1016  1.7825
  175SOL     OW  523   1.817   2.507   0.333 -0.0167  0.3276 -0.3746
  175SOL    HW1  524   1.722   2.506   0.366  0.8321  0.9961 -1.1708
  175SOL    HW2  525   1.835   2.413   0.294  0.7723 -0.1939 -0.3923
  176SOL     OW  526   1.461   0.134   2.769  0.4487 -0.1964 -0.1801
  176SOL    HW1  527   1.436   0.224   2.817 -2.4463  3.5722  0.9632
  176SOL    HW2  528   1.535   0.086   2.819  0.3621  0.7265 -0.6672
  177SOL     OW  529   1.283   1.636   0.745 -0.4803  0.3347 -0.5084
  177SOL    HW1  530   1.271   1.731   0.779  0.5901  0.9419  1.7193
  177SOL    HW2  531   1.206   1.614   0.679 -1.1265 -0.0926  0.3912
  178SOL     OW  532   2.959   2.080   2.754 -0.0804 -0.6524  0.5025
  178SOL    HW1  533   3.017   2.152   2.796 -0.9116 -1.3462 -0.3837
  178SOL    HW2  534   2.967   2.070   2.649  1.0066 -0.9291 -4.9903
  179SOL     OW  535   0.520   2.463   2.726  0.3579 -0.2483 -0.4910
  179SOL    HW1  536   0.562   2.533   2.668  3.1096  0.4953  0.1632
  179SOL    HW2  537   0.587   2.436   2.800  0.6668 -1.5820  0.2776
  180SOL     OW  538   1.622   1.646   1.020 -0.1709 -0.2182  0.1680
  180SOL    HW1  539   1.629   1.736   0.966  0.5109 -1.0019 -0.9362
  180SOL    HW2  540   1.565   1.580   0.968 -2.3178  0.6254 -0.3378
  181SOL     OW  541   2.032   0.944   2.076 -0.5084  0.3040  0.2436
  181SOL    HW1  542   1.999   0.905   2.164 -0.0801 -1.4140  0.4901
  181SOL    HW2  543   2.134   0.959   2.060 -0.8480 -0.0698  0.0618
  182SOL     OW  544   2.825   3.084   2.713 -0.2963  0.1179  0.0091
  182SOL    HW1  545   2.769   0.045   2.650  0.1689  1.3164  0.4024
  182SOL    HW2  546   2.898   0.053   2.746 -0.3799 -1.5431 -1.9381
  183SOL     OW  547   1.332   0.709   2.368  0.1351 -0.0331  0.4213
  183SOL    HW1  548   1.308   0.658   2.454 -2.1495 -2.4762  0.0822
  183SOL    HW2  549   1.312   0.658   2.284  2.1556  2.7829 -0.5177
  184SOL     OW  550   0.562   0.738   1.719  0.0957  0.4517 -0.1690
  184SOL    HW1  551   0.517   0.791   1.793  1.4938  0.9884  0.3986
  184SOL    HW2  552   0.665   0.739   1.726 -0.8403  1.1738 -1.9700
  185SOL     OW  553   2.005   0.971   0.503  0.2183  0.1741  0.4629
  185SOL    HW1  554   1.969   0.940   0.414  1.5092 -1.9177  2.8693
  185SOL    HW2  555   2.094   1.017   0.495 -1.4336 -0.7011  1.6942
  186SOL     OW  556   0.214   2.108   2.824  0.1277  0.3846 -0.3740
  186SOL    HW1  557   0.165   2.016   2.828 -3.2504  1.5897  2.9645
  186SOL    HW2  558   0.145   2.180   2.807  3.0299  2.7464 -1.6874
  187SOL     OW  559   2.470   1.454   0.335  0.5291 -0.1140 -0.6310
  187SOL    HW1  560   2.490   1.538   0.277 -0.0523 -2.0478 -0.8751
  187SOL    HW2  561   2.411   1.390   0.286 -0.4835  1.0895  0.4827
  188SOL     OW  562   0.260   1.787   0.955 -0.0979 -0.4297 -0.2094
  188SOL    HW1  563   0.283   1.761   0.863  0.5999  0.4156  2.4638
  188SOL    HW2  564   0.335   1.842   1.001 -1.6838 -0.0474  2.6044
  189SOL     OW  565   2.396   0.420   0.527  0.8653  0.0878  0.2531
  189SOL    HW1  566   2.308   0.379   0.506  3.1691 -0.7822 -2.3138
  189SOL    HW2  567   2.479   0.385   0.472 -0.0986 -0.4862 -1.8881
  190SOL     OW  568   1.196   1.658   2.121 -0.4549  0.5285  0.4506
  190SOL    HW1  569   1.219   1.587   2.184 -1.0202  1.5036 -1.8022
  190SOL    HW2  570   1.158   1.625   2.032  1.5983  0.3170 -0.2647
  191SOL     OW  571   2.925   0.516   1.593 -0.1938  0.0306  0.2390
  191SOL    HW1  572   2.888   0.436   1.641  3.1290  0.1524 -3.4643
  191SOL    HW2  573   2.947   0.596   1.653  0.7962 -1.4811 -1.0934
  192SOL     OW  574   1.684   1.388   1.518  0.6072 -0.4906  0.4386
  192SOL    HW1  575   1.720   1.358   1.428  0.0434  0.3905  1.5332
  192SOL    HW2  576   1.740   1.354   1.592 -3.7880  0.2912 -2.5226
  193SOL     OW  577   1.031   0.937   0.699 -0.0340 -0.1731 -0.0861
  193SOL    HW1  578   0.985   0.876   0.631 -2.8887  2.6731 -1.7457
  193SOL    HW2  579   0.998   0.908   0.791 -0.5545 -1.4424 -1.9049
  194SOL     OW  580   1.280   2.614   1.256 -0.0004 -0.1396  0.2303
  194SOL    HW1  581   1.287   2.688   1.186 -0.3909 -2.3363  0.2922
  194SOL    HW2  582   1.303   2.531   1.200 -1.4652  1.9053 -0.6164
  195SOL     OW  583   2.227   0.355   2.857 -0.6297 -0.3892 -0.8869
  195SOL    HW1  584   2.205   0.291   2.936  0.9421  2.2534  0.7492
  195SOL    HW2  585   2.148   0.368   2.797  1.6786  2.1303 -1.0399
  196SOL     OW  586   0.907   2.455   1.566 -0.1325  0.4646  0.6366
  196SOL    HW1  587   0.918   2.355   1.567  3.1905  3.9248 -2.0232
  196SOL    HW2  588   0.962   2.496   1.492 -0.9364 -0.9982  0.7490
  197SOL     OW  589   0.862   2.634   0.731  0.4043 -0.4405 -0.3000
  197SOL    HW1  590   0.764   2.599   0.737 -1.9380  2.9989  0.5720
  197SOL    HW2  591   0.903   2.638   0.634  2.9433  2.1184 -2.4600
  198SOL     OW  592   0.928   0.735   0.536  0.3578  0.3355  0.2165
  198SOL    HW1  593   0.916   0.648   0.594 -0.2372 -2.9890 -0.2199
  198SOL    HW2  594   0.839   0.782   0.524 -1.3864  1.8085 -0.6555
  199SOL     OW  595   0.137   2.692   1.576  0.0184 -0.2771  0.3882
  199SOL    HW1  596   0.076   2.675   1.493 -1.4886  0.9436 -2.2116
  199SOL    HW2  597   0.220   2.634   1.566 -2.7078  3.4145  0.0890
  200SOL     OW  598   2.233   1.874   2.605 -0.6593 -0.4873 -0.0975
  200SOL    HW1  599   2.290   1.812   2.548  0.7547 -3.1275  0.4423
  200SOL    HW2  600   2.243   1.843   2.703  0.2958 -2.0437 -0.5055
  201SOL     OW  601   2.949   2.204   1.241 -0.2654 -0.3684 -0.0873
  201SOL    HW1  602   2.992   2.121   1.207  0.6661 -1.1753 -3.9547
  201SOL    HW2  603   2.997   2.232   1.327  3.1254  1.5102  0.6732
  202SOL     OW  604   2.706   0.040   0.446  0.3232  0.0342  0.0620
  202SOL    HW1  605   2.782   0.089   0.495 -0.1939  1.0853 -0.3106
  202SOL    HW2  606   2.738   3.085   0.362 -0.0459  0.8165 -2.7254
  203SOL     OW  607   1.259   2.155   2.050  0.5488  0.1875  0.0169
  203SOL    HW1  608   1.266   2.075   2.112 -1.7234  1.5660 -0.7445
  203SOL    HW2  609   1.349   2.175   2.007  1.0197 -2.6154 -1.0047
  204SOL     OW  610   1.235   1.870   1.628 -0.4188 -0.0372  0.6038
  204SOL    HW1  611   1.280   1.958   1.644  1.4954 -0.5723  1.3242
  204SOL    HW2  612   1.168   1.847   1.702 -0.2543  1.3637  0.9561
  205SOL     OW  613   0.960   2.204   1.630 -0.1700  0.8053  0.5445
  205SOL    HW1  614   1.058   2.186   1.596  1.5365  1.2922 -0.9754
  205SOL    HW2  615   0.960   2.185   1.731  1.5275 -1.5033 -3.4193
  206SOL     OW  616   0.196   0.447   2.719 -0.0054  0.3446  0.4151
  206SOL    HW1  617   0.264   0.474   2.650  0.4429 -0.4606  0.4225
  206SOL    HW2  618   0.105   0.483   2.692 -0.5321  0.1085  1.1236
  207SOL     OW  619   1.308   0.078   1.718 -0.4618 -0.1085  0.0527
  207SOL    HW1  620   1.227   0.044   1.663 -0.5058 -0.4957 -0.1956
  207SOL    HW2  621   1.272   0.132   1.796  0.9363  0.1172 -1.5653
  208SOL     OW  622   0.569   2.497   1.920 -0.2871  0.0564  0.5093
  208SOL    HW1  623   0.519   2.512   2.013 -1.5601 -1.3733  2.7300
  208SOL    HW2  624   0.547   2.573   1.853 -1.1837 -0.8929 -1.0414
  209SOL     OW  625   1.687   0.725   0.102 -0.0433 -0.1088  0.0388
  209SOL    HW1  626   1.737   0.667   0.036 -2.9214  0.7809 -1.0743
  209SOL    HW2  627   1.604   0.675   0.123 -1.6308 -1.4008  2.8050
  210SOL     OW  628   0.073   0.482   0.951  0.3507 -0.0337 -0.0907
  210SOL    HW1  629   3.088   0.469   0.883  1.0307 -0.1259 -1.5717
  210SOL    HW2  630   0.066   0.565   1.006  2.8518 -0.9393  0.6463
  211SOL     OW  631   0.972   0.653   1.248 -0.2587  0.1696  0.9532
  211SOL    HW1  632   0.908   0.726   1.259 -0.0209 -2.7158 -0.5022
  211SOL    HW2  633   0.981   0.605   1.339 -0.0239 -0.9548 -2.3384
  212SOL     OW  634   1.426   2.071   0.872  0.5252  0.2816  0.0830
  212SOL    HW1  635   1.335   2.106   0.909  0.2894 -0.6153 -0.7960
  212SOL    HW2  636   1.495   2.056   0.943 -0.6252 -0.4010 -0.1059
  213SOL     OW  637   2.008   0.200   1.918  0.3513  0.4726 -0.4762
  213SOL    HW1  638   1.988   0.242   1.827  1.5927  1.4042  0.4974
  213SOL    HW2  639   2.092   0.140   1.913  2.8437 -1.3014  0.9018
  214SOL     OW  640   1.088   2.572   2.621 -0.3107  0.4095 -0.1108
  214SOL    HW1  641   1.050   2.650   2.678  2.5568  2.9926 -0.6371
  214SOL    HW2  642   1.110   2.602   2.526  2.1588 -0.7329 -0.8576
  215SOL     OW  643   2.904   1.671   1.230  0.1352  0.0201  0.6097
  215SOL    HW1  644   2.848   1.750   1.259 -1.9778  1.3323  0.9109
  215SOL    HW2  645   2.872   1.617   1.147  0.5091 -2.4661 -1.2174
  216SOL     OW  646   0.271   0.274   2.252 -0.3909  0.0183 -0.2398
  216SOL    HW1  647   0.306   0.220   2.332  0.3425  0.1295 -0.6982
  216SOL    HW2  648   0.345   0.313   2.189 -0.1260  1.6627  2.0268
  217SOL     OW  649   2.709   0.338   0.133 -0.2526 -0.3881 -0.1049
  217SOL    HW1  650   2.726   0.442   0.129  1.3113  2.1332  2.1412
  217SOL    HW2  651   2.759   0.284   0.061  2.6173 -0.5386 -0.7175
  218SOL     OW  652   1.792   1.905   2.127 -0.0940 -0.6002 -0.3906
  218SOL    HW1  653   1.870   1.843   2.108 -0.5986  1.4756 -0.8985
  218SOL    HW2  654   1.766   1.904   2.227 -0.5342 -1.5468  0.6529
  219SOL     OW  655   1.815   0.794   0.341 -0.2329  0.4133  0.3148
  219SOL    HW1  656   1.762   0.771   0.252 -1.7687  0.7909 -1.5973
  219SOL    HW2  657   1.765   0.855   0.405  1.9173 -1.5012 -0.2198
  220SOL     OW  658   1.566   1.997   1.106 -0.1248 -0.7173 -0.3067
  220SOL    HW1  659   1.531   1.958   1.192  2.0308  0.1726 -1.5841
  220SOL    HW2  660   1.670   1.997   1.113  2.6160 -2.8121  1.7368
  221SOL     OW  661   0.293   0.650   0.169  0.2630  0.0069 -0.4140
  221SOL    HW1  662   0.308   0.649   0.272  0.0546 -0.1469  2.0109
  221SOL    HW2  663   0.207   0.696   0.147  3.2569 -0.3731 -0.6627
  222SOL     OW  664   0.896   2.868   1.390  0.2176 -0.3884 -0.0219
  222SOL    HW1  665   0.895   2.870   1.489 -1.4037 -1.4352  1.9077
  222SOL    HW2  666   0.875   2.962   1.349 -0.8815  2.8715 -1.0444
  223SOL     OW  667   1.480   0.486   2.733 -0.4484  0.1353  0.1149
  223SOL    HW1  668   1.435   0.443   2.815  1.2773  1.8752  0.0674
  223SOL    HW2  669   1.500   0.578   2.766  1.1349 -0.9681 -0.2262
  224SOL     OW  670   3.017   0.893   1.186  0.1558  0.2713  0.1055
  224SOL    HW1  671   2.967   0.805   1.172 -2.0817 -2.3042 -0.8866
  224SOL    HW2  672   3.039   0.910   1.283 -0.5157  2.8734  0.3040
  225SOL     OW  673   0.915   1.243   1.356 -0.3505  0.7327 -0.2536
  225SOL    HW1  674   0.833   1.280   1.309  1.2586  1.2826  1.1027
  225SOL    HW2  675   0.991   1.308   1.379 -1.1359 -0.8296  1.9359
  226SOL     OW  676   0.981   0.067   0.175 -0.0058  0.4948 -0.0518
  226SOL    HW1  677   1.069   0.095   0.131  0.7290 -0.0628 -0.3470
  226SOL    HW2  678   1.000   0.002   0.256 -0.5391 -1.8435  2.3555
  227SOL     OW  679   0.597   1.612   1.291  0.2126  0.5703 -0.3671
  227SOL    HW1  680   0.627   1.702   1.253  0.7032 -0.8464 -0.4701
  227SOL    HW2  681   0.521   1.581   1.230  0.3980  1.5160  3.0872
  228SOL     OW  682   0.523   2.829   1.375  0.0567  0.0690  0.8227
  228SOL    HW1  683   0.551   2.728   1.361  0.8608 -1.8585 -1.6098
  228SOL    HW2  684   0.454   2.851   1.442  0.9577 -0.8499  0.3759
  229SOL     OW  685   2.363   0.890   0.360  0.1460 -0.4671 -0.0278
  229SOL    HW1  686   2.401   0.828   0.431  0.8820  0.8951  1.6606
  229SOL    HW2  687   2.420   0.886   0.278  1.3672  0.3419  1.4422
  230SOL     OW  688   0.358   1.325   1.808 -0.0184  0.2053  0.3580
  230SOL    HW1  689   0.389   1.232   1.780 -2.2884  1.6301  0.7305
  230SOL    HW2  690   0.426   1.364   1.875  2.7745 -2.7223 -0.7807
  231SOL     OW  691   1.392   2.284   1.294  0.0777 -0.2435  0.3146
  231SOL    HW1  692   1.433   2.349   1.360 -0.3248 -0.4701 -2.5864
  231SOL    HW2  693   1.398   2.331   1.205  2.9862  0.4849 -1.0494
  232SOL     OW  694   2.294   2.378   0.517  0.2783  0.1186 -0.0759
  232SOL    HW1  695   2.276   2.368   0.618 -0.6746  1.4356  1.1252
  232SOL    HW2  696   2.218   2.432   0.470 -1.5433  0.3076  1.9459
  233SOL     OW  697   1.045   2.486   2.994 -0.1706  0.3171 -0.0677
  233SOL    HW1  698   1.050   2.528   3.085 -0.2058 -1.9502 -0.3022
  233SOL    HW2  699   1.130   2.433   2.966  1.5930  0.7964  0.6586
  234SOL     OW  700   1.129   0.464   2.135  0.1012 -0.2141  0.3998
  234SOL    HW1  701   1.219   0.497   2.096  0.3239  2.7314 -0.8772
  234SOL    HW2  702   1.074   0.388   2.088 -0.3183  0.4295  0.0361
  235SOL     OW  703   0.156   2.392   0.286 -0.5521  0.2492  0.2858
  235SOL    HW1  704   0.097   2.461   0.335 -2.6953  2.2011 -0.3038
  235SOL    HW2  705   0.222   2.346   0.350  3.5323 -0.0962  1.3582
  236SOL     OW  706   1.942   2.865   2.356  0.2624 -0.2835 -0.1156
  236SOL    HW1  707   1.887   2.803   2.294  0.6810 -0.9394 -0.0147
  236SOL    HW2  708   2.028   2.817   2.383  0.4102 -1.3170 -1.1363
  237SOL     OW  709   1.857   1.205   1.684 -0.6212 -0.2992  0.2700
  237SOL    HW1  710   1.928   1.227   1.616 -1.4659  0.1232  1.0451
  237SOL    HW2  711   1.876   1.113   1.727  1.9538 -0.6742 -2.3371
  238SOL     OW  712   2.003   0.036   2.342  0.2509 -0.0176  0.2636
  238SOL    HW1  713   1.940   0.073   2.268 -1.8659  2.1320 -2.2728
  238SOL    HW2  714   1.980   3.028   2.353 -2.9333  0.8134 -0.5020
  239SOL     OW  715   0.449   1.862   1.660  0.5106  0.2802  0.1898
  239SOL    HW1  716   0.468   1.955   1.624  0.2201 -2.2191  1.9184
  239SOL    HW2  717   0.523   1.802   1.629 -1.8140  0.7586  1.2635
  240SOL     OW  718   0.054   2.491   0.680  0.2223  0.7498 -0.1901
  240SOL    HW1  719   0.068   2.517   0.583  1.6135 -0.1804  0.1704
  240SOL    HW2  720   3.043   2.475   0.691 -1.2549 -0.8104  0.2162
  241SOL     OW  721   1.536   2.199   0.212 -0.0025 -0.2003 -0.6304
  241SOL    HW1  722   1.584   2.165   0.297 -2.9663  1.8773 -1.3430
  241SOL    HW2  723   1.544   2.126   0.145 -1.4682 -0.3073  1.0231
  242SOL     OW  724   1.840   1.164   0.293  0.0520  0.1662  0.2563
  242SOL    HW1  725   1.931   1.113   0.282  2.8822 -0.1964  1.1616
  242SOL    HW2  726   1.756   1.114   0.267  0.3637  1.5718  1.6950
  243SOL     OW  727   0.876   0.103   1.667  0.3170 -0.2355  0.2125
  243SOL    HW1  728   0.920   0.083   1.581 -0.4663 -4.7306 -0.1632
  243SOL    HW2  729   0.927   0.073   1.751 -1.5245  1.5200  2.9026
  244SOL     OW  730   1.827   2.978   2.785 -0.2916  0.0241  0.2613
  244SOL    HW1  731   1.769   3.022   2.856  2.4097  0.2799  0.3351
  244SOL    HW2  732   1.797   2.999   2.690  0.9311 -1.1430  1.2356
  245SOL     OW  733   1.280   3.006   0.014  0.5498 -0.8283 -0.1264
  245SOL    HW1  734   1.280   2.967   3.011  1.7467  2.0659 -0.9334
  245SOL    HW2  735   1.359   2.971   0.064 -3.4554  1.9498  0.4265
  246SOL     OW  736   1.123   1.262   2.181  0.2273  0.2813  0.4062
  246SOL    HW1  737   1.209   1.207   2.189  0.7471  1.0421  1.4051
  246SOL    HW2  738   1.040   1.232   2.236  1.6048  1.4666  2.1434
  247SOL     OW  739   3.044   0.581   2.185  0.0269  0.5908  0.0395
  247SOL    HW1  740   0.015   0.656   2.162  0.1497 -2.7197  2.7499
  247SOL    HW2  741   2.955   0.615   2.215  3.1025  1.8760 -0.2656
  248SOL     OW  742   0.493   0.828   1.994 -0.4601 -0.7667  0.4724
  248SOL    HW1  743   0.559   0.836   2.072 -2.4851 -0.4146 -1.5714
  248SOL    HW2  744   0.452   0.918   1.967  0.8412 -1.5432 -0.4306
  249SOL     OW  745   2.207   0.525   0.150  0.0193 -0.6592 -0.5302
  249SOL    HW1  746   2.127   0.481   0.107 -2.2771 -0.7138  2.3883
  249SOL    HW2  747   2.175   0.580   0.228  1.4037  0.4111 -1.8703
  250SOL     OW  748   3.088   0.348   0.539 -0.5482  0.1144  0.4603
  250SOL    HW1  749   0.009   0.352   0.434 -0.4488 -1.2675 -4.1090
  250SOL    HW2  750   0.087   0.347   0.584  0.7766 -0.5921  0.5452
  251SOL     OW  751   0.957   0.647   2.207 -0.4591  0.0414 -0.2026
  251SOL    HW1  752   1.008   0.568   2.177 -0.8994  1.3248  2.6568
  251SOL    HW2  753   0.967   0.721   2.139 -1.1902  0.7735  3.1152
  252SOL     OW  754   1.412   1.691   1.900  0.2979  0.2431  1.0850
  252SOL    HW1  755   1.354   1.768   1.920 -0.3814  2.1067 -0.1639
  252SOL    HW2  756   1.363   1.616   1.849  1.4667  0.7728 -0.0633
  253SOL     OW  757   1.522   2.646   1.861 -0.0381  0.0163 -0.8425
  253SOL    HW1  758   1.480   2.639   1.768  1.2704  2.0882 -2.2001
  253SOL    HW2  759   1.561   2.559   1.895  0.8705  0.6397 -1.2962
  254SOL     OW  760   0.708   2.047   2.142  0.0576  0.7648  0.8586
  254SOL    HW1  761   0.809   2.038   2.149 -2.2947  1.7301  1.4341
  254SOL    HW2  762   0.689   2.119   2.074  0.5117  0.2340 -0.7722
  255SOL     OW  763   1.329   0.534   0.549  0.4997 -0.5450  0.4032
  255SOL    HW1  764   1.280   0.550   0.637 -1.5241 -1.6394  2.4193
  255SOL    HW2  765   1.266   0.538   0.468 -0.6309 -1.2397 -1.0253
  256SOL     OW  766   1.793   2.398   1.317  0.6328 -0.3015  0.1687
  256SOL    HW1  767   1.889   2.430   1.303  1.1420  1.1232  2.0637
  256SOL    HW2  768   1.791   2.311   1.370  0.6663 -2.6414 -0.2878
  257SOL     OW  769   0.449   2.195   2.653 -0.4274 -0.1219 -0.0329
  257SOL    HW1  770   0.473   2.295   2.678 -1.2565 -1.9541  0.4918
  257SOL    HW2  771   0.368   2.162   2.699 -1.7112 -0.0705 -0.7173
  258SOL     OW  772   0.712   0.473   2.196  0.2159  0.1377  0.1224
  258SOL    HW1  773   0.735   0.570   2.221  1.1778 -0.4300  0.0704
  258SOL    HW2  774   0.758   0.408   2.264  1.5251  0.9815  0.3077
  259SOL     OW  775   1.272   0.968   2.420  0.2216 -0.1290  0.1289
  259SOL    HW1  776   1.183   0.970   2.469  1.1367 -0.7133  0.1709
  259SOL    HW2  777   1.281   0.873   2.388 -0.5741  1.6165  2.5573
  260SOL     OW  778   1.700   0.727   0.764  0.0478 -0.2966  0.1743
  260SOL    HW1  779   1.599   0.750   0.781  0.6248 -1.1243 -1.2242
  260SOL    HW2  780   1.720   0.631   0.788 -0.0282  2.5153  0.1889
  261SOL     OW  781   0.710   0.421   2.748 -0.3036 -0.3032 -0.1162
  261SOL    HW1  782   0.770   0.342   2.760 -0.2406  0.6377  2.9612
  261SOL    HW2  783   0.620   0.402   2.706  2.5956 -0.9996 -0.7223
  262SOL     OW  784   2.508   2.899   2.864  0.2070  0.0056 -0.0387
  262SOL    HW1  785   2.592   2.894   2.919 -0.2442  2.5416  0.8736
  262SOL    HW2  786   2.521   2.930   2.766 -0.3474  2.1541 -0.5414
  263SOL     OW  787   0.600   2.020   0.215  0.2388  0.5532 -0.2442
  263SOL    HW1  788   0.684   1.965   0.221  0.7113 -0.5741  0.4681
  263SOL    HW2  789   0.623   2.109   0.173  0.2622  1.1604 -0.6862
  264SOL     OW  790   0.367   1.439   1.558  0.2507 -0.6828  0.1927
  264SOL    HW1  791   0.377   1.397   1.646 -1.5899 -2.2695 -2.4105
  264SOL    HW2  792   0.327   1.528   1.585 -0.1906 -2.5113  0.0303
  265SOL     OW  793   0.588   1.315   0.294 -0.4891  0.3853  0.2976
  265SOL    HW1  794   0.505   1.264   0.267 -1.6568 -0.6555  1.6410
  265SOL    HW2  795   0.677   1.283   0.255 -0.3192 -0.5058  0.8889
  266SOL     OW  796   1.961   1.516   0.582 -0.0318  0.4653 -0.0248
  266SOL    HW1  797   1.891   1.582   0.622 -1.8557  1.0190 -0.3340
  266SOL    HW2  798   2.059   1.534   0.614  2.2889 -0.8842  1.7590
  267SOL     OW  799   2.859   0.157   3.067 -0.2473 -0.5638  0.0384
  267SOL    HW1  800   2.958   0.120   3.061  3.8670 -1.8740 -2.8526
  267SOL    HW2  801   2.816   0.151   2.974 -0.5311  0.9696  1.9192
  268SOL     OW  802   0.500   0.222   2.757  0.1924  0.0331  0.0810
  268SOL    HW1  803   0.529   0.201   2.856  1.3171 -2.6199 -1.0761
  268SOL    HW2  804   0.399   0.205   2.756 -0.1573 -0.5988 -0.2177
  269SOL     OW  805   1.692   0.311   2.689 -0.0709 -0.1162  0.4365
  269SOL    HW1  806   1.651   0.254   2.617  2.1695  0.1095  0.4453
  269SOL    HW2  807   1.619   0.379   2.717 -0.0468 -0.1299  0.0433
  270SOL     OW  808   1.071   0.848   2.568  0.1016 -0.8449  0.4039
  270SOL    HW1  809   0.986   0.850   2.509  0.1188 -1.3588 -1.2856
  270SOL    HW2  810   1.049   0.891   2.657 -0.8383  0.6672 -1.1828
  271SOL     OW  811   2.485   0.866   0.114  0.3846 -0.2213 -0.2674
  271SOL    HW1  812   2.459   0.772   0.089  0.1849  0.0805  2.0145
  271SOL    HW2  813   2.449   0.929   0.040 -2.8128  0.4657 -1.2639
  272SOL     OW  814   2.670   2.057   2.802  0.5535 -0.5064 -0.4918
  272SOL    HW1  815   2.740   2.101   2.749 -0.1917  2.5257 -0.2241
  272SOL    HW2  816   2.579   2.106   2.786  1.1619 -0.8372 -0.1565
  273SOL     OW  817   2.438   0.545   2.857 -0.0446  0.2398  1.2116
  273SOL    HW1  818   2.354   0.484   2.861 -2.0280 -0.5354  1.6149
  273SOL    HW2  819   2.519   0.494   2.816  2.0002 -2.2294  2.0894
  274SOL     OW  820   0.186   2.896   1.232  0.1647  0.2394  0.2206
  274SOL    HW1  821   0.214   2.961   1.156  1.5193  1.8018 -3.5923
  274SOL    HW2  822   0.240   2.812   1.238 -0.6311 -0.8911 -0.7007
  275SOL     OW  823   2.094   1.461   0.915  0.4380  0.5287  0.1175
  275SOL    HW1  824   2.026   1.387   0.892  1.5375 -1.1630 -0.9177
  275SOL    HW2  825   2.152   1.480   0.834  0.8180 -1.9465  3.5101
  276SOL     OW  826   0.236   1.288   2.784 -0.7863 -0.0255 -0.3262
  276SOL    HW1  827   0.310   1.236   2.743  0.1497  0.9865 -0.6502
  276SOL    HW2  828   0.175   1.322   2.710  0.7884 -0.9852 -2.0906
  277SOL     OW  829   1.794   2.728   1.830 -0.1662  0.7644  0.5846
  277SOL    HW1  830   1.820   2.811   1.882 -2.3612 -2.1458  0.2634
  277SOL    HW2  831   1.689   2.719   1.825 -3.9382 -0.9904  2.4856
  278SOL     OW  832   1.575   0.392   1.642  0.3329  0.3074  0.1440
  278SOL    HW1  833   1.548   0.295   1.616 -2.8234 -1.5685  1.5223
  278SOL    HW2  834   1.669   0.411   1.609 -1.2027 -0.4300 -0.5924
  279SOL     OW  835   1.959   1.393   0.187 -0.4453  0.3283 -0.1618
  279SOL    HW1  836   1.938   1.312   0.249 -0.5852  0.2918  0.1055
  279SOL    HW2  837   1.927   1.482   0.224 -1.7770  0.3178  1.0747
  280SOL     OW  838   0.658   1.421   0.934 -0.0692 -0.2438  0.0460
  280SOL    HW1  839   0.698   1.487   0.873 -0.7689  1.8135  0.7529
  280SOL    HW2  840   0.555   1.428   0.933 -1.4877  2.8229  3.2484
  281SOL     OW  841   0.271   0.069   2.702 -0.2612 -0.3061  0.5308
  281SOL    HW1  842   0.300   0.085   2.610 -0.3123  1.3334  2.7095
  281SOL    HW2  843   0.262   3.063   2.728  0.5052 -1.8175 -1.3765
  282SOL     OW  844   0.293   0.858   1.260  0.1142  0.2692  0.0952
  282SOL    HW1  845   0.339   0.799   1.192 -1.6485  1.6085 -0.2246
  282SOL    HW2  846   0.229   0.810   1.322 -0.2122  0.1659 -0.3314
  283SOL     OW  847   1.811   2.176   3.080 -0.1487 -0.1495  0.4080
  283SOL    HW1  848   1.873   2.215   3.011  2.6039  0.5515  2.1051
  283SOL    HW2  849   1.719   2.145   3.040 -1.6527 -1.2771 -1.8780
  284SOL     OW  850   1.827   1.276   0.563  0.3206  0.2398  0.3466
  284SOL    HW1  851   1.858   1.375   0.545 -0.7041  1.1883 -1.4238
  284SOL    HW2  852   1.818   1.222   0.479 -0.5989 -0.5784  2.5581
  285SOL     OW  853   0.034   0.074   3.050  0.5761 -0.0878 -0.0605
  285SOL    HW1  854   0.070   0.157   0.008  1.8450 -1.6100 -0.6547
  285SOL    HW2  855   0.021   0.106   2.955  0.1952 -1.0231  2.3406
  286SOL     OW  856   1.708   3.055   1.608 -0.2420  0.2094  0.1760
  286SOL    HW1  857   1.726   3.008   1.522 -1.6083  1.9995 -1.4246
  286SOL    HW2  858   1.793   0.010   1.633  0.1574 -0.8161 -0.4221
  287SOL     OW  859   0.824   1.020   1.107 -0.2329 -0.1760 -0.3104
  287SOL    HW1  860   0.815   0.952   1.187 -1.1055 -0.5818  2.6740
  287SOL    HW2  861   0.784   1.113   1.128 -1.2405  2.4721  1.6209
  288SOL     OW  862   1.436   2.885   0.370  0.5002 -0.0856 -0.3915
  288SOL    HW1  863   1.458   2.905   0.275 -2.7871  1.3054  1.7494
  288SOL    HW2  864   1.403   2.966   0.412  3.1215 -2.3599 -1.5834
  289SOL     OW  865   3.065   1.473   2.814 -0.6245  0.5468 -0.5241
  289SOL    HW1  866   3.033   1.556   2.773 -0.0184 -4.3410  2.9329
  289SOL    HW2  867   0.031   1.419   2.750 -1.4902 -0.1598  1.1449
  290SOL     OW  868   1.111   2.527   0.443 -0.0782  0.3722 -0.4366
  290SOL    HW1  869   1.032   2.588   0.444  3.0695 -0.8322  0.2667
  290SOL    HW2  870   1.169   2.539   0.526  1.1976  0.5341 -0.7920
  291SOL     OW  871   2.156   2.493   2.708  0.4853  0.5586 -0.1827
  291SOL    HW1  872   2.246   2.540   2.693 -2.2621  0.6058  0.2447
  291SOL    HW2  873   2.073   2.555   2.717 -1.7916 -0.0698  0.6198
  292SOL     OW  874   0.720   1.222   1.851 -0.0971  0.4654 -0.0660
  292SOL    HW1  875   0.810   1.233   1.892  2.5768  1.4981  1.9725
  292SOL    HW2  876   0.702   1.135   1.803  1.3498 -0.5620 -0.2594
  293SOL     OW  877   2.337   2.796   1.329 -0.3631  0.0432  0.2571
  293SOL    HW1  878   2.273   2.871   1.352  1.6082 -0.7977  2.1674
  293SOL    HW2  879   2.340   2.785   1.223  1.2529  0.7812 -1.6129
  294SOL     OW  880   3.042   0.470   2.579 -0.0730  0.2236  0.1378
  294SOL    HW1  881   2.989   0.553   2.555 -0.4402  1.6780 -0.6085
  294SOL    HW2  882   0.006   0.446   2.495  1.6021  0.2470 -0.9766
  295SOL     OW  883   1.393   1.781   0.325 -0.3730 -0.9913  0.0062
  295SOL    HW1  884   1.342   1.791   0.413 -2.3478 -1.8954  2.3435
  295SOL    HW2  885   1.493   1.776   0.339 -2.6634 -0.4593 -0.5287
  296SOL     OW  886   2.024   1.858   2.905  0.2522 -0.2312 -0.2325
  296SOL    HW1  887   2.032   1.953   2.871 -1.2061 -3.8679 -1.3263
  296SOL    HW2  888   2.114   1.816   2.912 -1.2863 -0.5316 -2.3049
  297SOL     OW  889   2.440   0.622   0.014 -0.2732  0.3453 -0.0601
  297SOL    HW1  890   2.441   0.586   3.006  0.3656  0.9269 -1.9888
  297SOL    HW2  891   2.365   0.579   0.071 -4.1141 -2.8141  1.5127
  298SOL     OW  892   0.959   2.061   2.617  0.2850 -0.1693  1.4738
  298SOL    HW1  893   1.006   2.149   2.595 -0.2868 -2.6690 -3.1390
  298SOL    HW2  894   0.864   2.074   2.652 -1.4631 -1.6055 -2.7948
  299SOL     OW  895   1.143   2.638   2.369  0.5487  0.3275 -0.2328
  299SOL    HW1  896   1.107   2.579   2.293 -1.4859  1.5016 -1.0799
  299SOL    HW2  897   1.241   2.631   2.362 -2.4726 -2.0972  2.8505
  300SOL     OW  898   2.507   0.207   0.012  0.0261  0.0219 -0.3483
  300SOL    HW1  899   2.560   0.262   0.080  1.6979  2.2264 -0.8834
  300SOL    HW2  900   2.561   0.200   3.022 -0.9712  1.3957  0.6474
  301SOL     OW  901   1.118   1.056   1.468  0.2099  0.1213 -0.3689
  301SOL    HW1  902   1.213   1.041   1.425  1.6385  1.1302 -0.8519
  301SOL    HW2  903   1.061   1.112   1.402 -2.5567 -0.1344  0.1586
  302SOL     OW  904   0.018   2.222   0.107  0.1383 -0.3197 -0.0548
  302SOL    HW1  905   0.066   2.281   0.175 -0.7107  3.0913  1.4424
  302SOL    HW2  906   3.034   2.284   0.075 -0.3652  2.5182 -2.9206
  303SOL     OW  907   3.020   2.669   2.496 -0.1882  0.4495 -0.2650
  303SOL    HW1  908   3.012   2.744   2.566 -1.3396  0.3694  1.9281
  303SOL    HW2  909   0.027   2.663   2.473  1.1107  1.3280  0.6373
  304SOL     OW  910   2.811   0.659   2.257 -0.4041  0.2621 -0.7292
  304SOL    HW1  911   2.758   0.733   2.213  1.4566 -1.5249  0.6761
  304SOL    HW2  912   2.759   0.567   2.259 -0.7292 -1.6095  1.4972
  305SOL     OW  913   0.279   2.372   2.262  0.0322 -0.2041 -0.2344
  305SOL    HW1  914   0.349   2.430   2.218 -0.8759 -0.1943  0.1883
  305SOL    HW2  915   0.318   2.285   2.298 -0.2561  0.0541  0.9930
  306SOL     OW  916   2.621   0.988   1.748  0.3271 -0.3720  0.8798
  306SOL    HW1  917   2.579   1.076   1.771  1.6902 -3.7503 -0.4238
  306SOL    HW2  918   2.550   0.915   1.763 -0.1911 -2.5561  0.1452
  307SOL     OW  919   1.728   0.694   1.440 -0.6319 -0.3486 -0.1199
  307SOL    HW1  920   1.824   0.730   1.431 -0.0637  2.5507 -2.4058
  307SOL    HW2  921   1.696   0.669   1.343  0.8186  0.9532  0.6035
  308SOL     OW  922   2.429   1.836   1.077  0.0972  0.0678  0.0728
  308SOL    HW1  923   2.329   1.857   1.089  1.2523  0.9038 -0.2382
  308SOL    HW2  924   2.452   1.787   0.993  0.8326  2.6625  1.1532
  309SOL     OW  925   1.975   1.622   1.750  0.4207  0.0412  0.1684
  309SOL    HW1  926   1.908   1.667   1.689 -1.3836  0.1817  0.2265
  309SOL    HW2  927   2.069   1.656   1.738  0.9585 -0.5086  2.8467
  310SOL     OW  928   2.724   1.785   2.858  0.9658 -0.5900  0.3706
  310SOL    HW1  929   2.713   1.888   2.843 -2.8169  2.0560 -0.4260
  310SOL    HW2  930   2.631   1.749   2.833 -4.7732  0.6972  1.3442
  311SOL     OW  931   2.245   2.158   2.609 -0.0944 -0.4553 -0.2842
  311SOL    HW1  932   2.254   2.057   2.588 -0.3481  1.5654 -0.7032
  311SOL    HW2  933   2.288   2.217   2.538  1.9242  0.5789 -1.6751
  312SOL     OW  934   2.086   2.020   1.340 -0.0219 -0.1148 -0.2294
  312SOL    HW1  935   2.030   2.020   1.426 -0.2263 -1.5772  0.4187
  312SOL    HW2  936   2.146   2.104   1.341  2.8457 -0.6926  0.1540
  313SOL     OW  937   2.360   2.749   1.066  0.3020 -0.3136  0.1661
  313SOL    HW1  938   2.446   2.802   1.047 -0.1062  4.3390  0.7539
  313SOL    HW2  939   2.365   2.656   1.025 -1.5960 -1.2657 -0.1194
  314SOL     OW  940   1.083   1.877   0.473  0.0659  0.1249  0.2464
  314SOL    HW1  941   1.170   1.916   0.435  2.9389  1.4280  1.4491
  314SOL    HW2  942   1.060   1.921   0.565  2.2086  0.0818  0.0515
  315SOL     OW  943   0.780   2.312   2.789 -0.0344 -0.0684 -0.1984
  315SOL    HW1  944   0.768   2.217   2.759  1.2905  0.1768 -0.7181
  315SOL    HW2  945   0.852   2.361   2.732 -1.9508  0.4831 -2.0498
  316SOL     OW  946   0.040   0.698   0.471 -0.0170 -0.1521  0.5996
  316SOL    HW1  947   0.041   0.789   0.516 -0.6686  1.1611  1.2716
  316SOL    HW2  948   3.041   0.674   0.429 -2.4780  1.0593  1.5541
  317SOL     OW  949   1.182   0.595   0.772  0.3094  0.1514  0.5582
  317SOL    HW1  950   1.233   0.533   0.833 -1.1835  0.3710  0.4745
  317SOL    HW2  951   1.094   0.621   0.811  0.3423  0.9168 -0.0700
  318SOL     OW  952   2.896   2.491   0.614 -0.0280  0.2680 -0.3801
  318SOL    HW1  953   2.810   2.542   0.605 -0.5503 -2.0171 -0.3661
  318SOL    HW2  954   2.882   2.396   0.652  0.7613 -2.0020  1.9935
  319SOL     OW  955   0.352   1.699   2.446 -0.4637 -0.0132  0.4032
  319SOL    HW1  956   0.441   1.694   2.496  1.8287 -0.7867 -4.3662
  319SOL    HW2  957   0.293   1.771   2.480  0.7175 -0.3292 -2.3820
  320SOL     OW  958   0.461   2.553   2.151 -0.3746  0.1442  0.1320
  320SOL    HW1  959   0.434   2.638   2.110 -0.9066 -3.4599  1.6313
  320SOL    HW2  960   0.530   2.565   2.224  1.3404  2.4113  2.3186
  321SOL     OW  961   1.105   2.571   0.152  0.3490  0.1480  0.9065
  321SOL    HW1  962   1.189   2.583   0.209  1.0506  0.7394 -1.0016
  321SOL    HW2  963   1.024   2.549   0.208  1.6126 -0.7267 -1.7171
  322SOL     OW  964   2.458   1.235   2.160  0.4883  0.4657 -0.1409
  322SOL    HW1  965   2.480   1.324   2.114  1.9227 -0.6222  2.0526
  322SOL    HW2  966   2.498   1.225   2.252  0.1300  1.0373 -0.0916
  323SOL     OW  967   2.488   0.674   0.490  0.6618 -0.0148  0.1368
  323SOL    HW1  968   2.415   0.604   0.510 -3.0762  0.2893  0.2116
  323SOL    HW2  969   2.578   0.629   0.513  1.9127  0.9580  0.7667
  324SOL     OW  970   0.679   2.629   0.061  0.2697  0.1362 -0.2585
  324SOL    HW1  971   0.720   2.553   0.003 -0.0985 -0.6019  1.5235
  324SOL    HW2  972   0.640   2.700   3.090 -0.5444 -2.6982  1.6006
  325SOL     OW  973   1.577   0.115   2.506  0.1270  0.3474  0.1639
  325SOL    HW1  974   1.531   0.110   2.601 -1.0894 -2.1059  0.4436
  325SOL    HW2  975   1.630   0.027   2.492 -0.9863  0.4032 -1.0609
  326SOL     OW  976   2.403   2.552   1.434  0.0994 -0.2989 -0.2818
  326SOL    HW1  977   2.346   2.530   1.514  1.5988  1.9046 -1.2951
  326SOL    HW2  978   2.381   2.644   1.395  0.9656  1.1838 -2.9370
  327SOL     OW  979   1.364   0.350   2.924 -0.4820 -0.0650  0.3243
  327SOL    HW1  980   1.265   0.358   2.955 -2.4560  1.8544  0.2099
  327SOL    HW2  981   1.429   0.359   3.003  3.4481  0.2156  0.5804
  328SOL     OW  982   2.587   1.219   2.413  0.0226  0.2767  0.2834
  328SOL    HW1  983   2.497   1.192   2.460 -1.8034  0.5106 -0.0894
  328SOL    HW2  984   2.654   1.256   2.482  2.1956 -0.4657 -0.2211
  329SOL     OW  985   1.499   2.975   1.783  0.2522  0.0831 -0.2533
  329SOL    HW1  986   1.580   3.008   1.735 -2.6723 -1.8403 -1.3815
  329SOL    HW2  987   1.416   3.033   1.763 -0.5633 -1.1611  0.3285
  330SOL     OW  988   2.407   1.514   1.546  0.0572  0.8507  0.3740
  330SOL    HW1  989   2.341   1.474   1.480 -0.3596 -3.1977 -0.1529
  330SOL    HW2  990   2.499   1.468   1.532  2.2285 -1.4626 -1.3752
  331SOL     OW  991   0.269   1.360   1.339 -0.2660  0.0695  0.1984
  331SOL    HW1  992   0.295   1.421   1.261  1.1724 -1.6196 -1.7540
  331SOL    HW2  993   0.321   1.387   1.419  1.7330 -0.3933 -2.1254
  332SOL     OW  994   0.942   0.289   1.206  0.6465 -0.8493  0.6989
  332SOL    HW1  995   0.952   0.285   1.106  2.3210  1.7780 -0.9482
  332SOL    HW2  996   1.000   0.364   1.248  0.9290  3.1069  1.2240
  333SOL     OW  997   2.180   2.453   1.991 -0.0488  0.1627 -0.2714
  333SOL    HW1  998   2.265   2.394   1.999  0.9260  2.9838 -0.4681
  333SOL    HW2  999   2.127   2.460   2.079  1.0506 -3.5081 -0.8194
  334SOL     OW 1000   1.098   1.461   1.407  0.5193  0.2071  0.1159
  334SOL    HW1 1001   1.028   1.480   1.478  0.1299  0.9860  1.3407
  334SOL    HW2 1002   1.172   1.533   1.413  1.5173  0.9849  0.6601
  335SOL     OW 1003   0.618   2.820   2.943 -0.5875 -0.5234 -0.3108
  335SOL    HW1 1004   0.719   2.855   2.957  3.8626 -0.1168  0.1442
  335SOL    HW2 1005   0.587   2.802   2.845  0.7988  1.0913 -3.0533
  336SOL     OW 1006   2.886   2.918   1.827 -1.2857 -0.1886 -0.0455
  336SOL    HW1 1007   2.845   3.009   1.840  5.1312  0.9172 -1.6627
  336SOL    HW2 1008   2.846   2.868   1.745 -0.1708 -1.3048 -0.5740
  337SOL     OW 1009   2.679   1.830   0.641  0.1520  1.0608  0.1541
  337SOL    HW1 1010   2.606   1.806   0.706 -2.6808  2.1730  2.5585
  337SOL    HW2 1011   2.669   1.793   0.547  1.5755  0.3140  0.0461
  338SOL     OW 1012   1.116   2.073   1.197  0.1721 -0.5886 -0.5028
  338SOL    HW1 1013   1.165   1.981   1.200  0.6795  1.0633  1.0290
  338SOL    HW2 1014   1.077   2.095   1.290  0.3480  0.0565 -0.3643
  339SOL     OW 1015   2.922   0.740   2.486 -0.7511  0.2906  0.1058
  339SOL    HW1 1016   2.912   0.702   2.395  0.3266 -2.4026  1.6597
  339SOL    HW2 1017   2.921   0.841   2.483  0.5923 -2.8987 -2.1335
  340SOL     OW 1018   1.716   2.937   1.075  0.1533  0.1087  0.0849
  340SOL    HW1 1019   1.744   3.008   1.008 -2.7034 -2.3952  1.7437
  340SOL    HW2 1020   1.704   2.847   1.033  0.8268  1.1921  2.1914
  341SOL     OW 1021   1.840   1.971   1.169  0.0471  0.0262  0.2012
  341SOL    HW1 1022   1.862   1.952   1.071 -0.4691  1.5658  1.5235
  341SOL    HW2 1023   1.927   1.988   1.219  0.3889 -1.1586  2.4842
  342SOL     OW 1024   0.378   1.389   0.923 -0.3890  0.6277 -0.3293
  342SOL    HW1 1025   0.372   1.413   0.820 -2.0044 -0.6896 -3.4604
  342SOL    HW2 1026   0.387   1.294   0.950 -0.3451  1.4799  3.3288
  343SOL     OW 1027   2.495   0.483   1.492 -0.2204 -0.2410  0.0692
  343SOL    HW1 1028   2.545   0.507   1.579 -1.4906  2.2638 -0.8952
  343SOL    HW2 1029   2.496   0.561   1.426 -0.0557  1.7874 -1.8170
  344SOL     OW 1030   2.188   2.344   0.760  0.3664  0.0429 -0.4810
  344SOL    HW1 1031   2.143   2.262   0.807 -1.8077 -0.5050  2.5546
  344SOL    HW2 1032   2.275   2.370   0.804 -0.4214 -1.1451 -1.2766
  345SOL     OW 1033   2.945   2.524   2.926 -0.3701  0.1938  0.8196
  345SOL    HW1 1034   3.030   2.575   2.908  0.9253  0.0552  0.5564
  345SOL    HW2 1035   2.862   2.570   2.889 -0.4750  0.7608 -0.7312
  346SOL     OW 1036   0.139   1.317   0.720  0.4431  0.3927  0.1424
  346SOL    HW1 1037   0.110   1.390   0.783  2.2749 -2.5043  0.6178
  346SOL    HW2 1038   0.092   1.329   0.629  0.2995 -0.0330 -1.3909
  347SOL     OW 1039   2.110   2.724   0.949 -0.1666  0.0646 -0.0428
  347SOL    HW1 1040   2.034   2.694   1.012 -0.0513 -0.1205 -1.0808
  347SOL    HW2 1041   2.187   2.766   1.004  1.7442  2.4982  0.8976
  348SOL     OW 1042   1.533   1.337   2.665  0.4619  0.3732 -0.0934
  348SOL    HW1 1043   1.551   1.271   2.590  3.3266  0.6478  2.2253
  348SOL    HW2 1044   1.542   1.430   2.624  0.8579 -0.8590  0.7824
  349SOL     OW 1045   2.357   1.133   2.495 -0.7957 -0.2009  0.3342
  349SOL    HW1 1046   2.261   1.138   2.463  2.0751  0.0268 -1.8061
  349SOL    HW2 1047   2.389   1.035   2.486 -0.2802 -1.2957 -1.3674
  350SOL     OW 1048   3.073   1.978   1.142  0.0164  0.0698  0.5946
  350SOL    HW1 1049   0.000   1.898   1.199  1.6133 -1.1467  0.6812
  350SOL    HW2 1050   0.056   2.013   1.084  2.8285  1.1237  0.4221
  351SOL     OW 1051   0.809   0.281   2.366 -0.1064  0.0563  0.4054
  351SOL    HW1 1052   0.818   0.193   2.315 -1.5620 -1.8618  0.6396
  351SOL    HW2 1053   0.900   0.311   2.406  1.3530  0.0245  1.0250
  352SOL     OW 1054   0.759   2.661   1.579  0.2585 -0.2824 -0.3748
  352SOL    HW1 1055   0.814   2.725   1.642  2.5196 -2.9591 -1.8353
  352SOL    HW2 1056   0.798   2.567   1.593 -1.2583  0.1877  0.4880
  353SOL     OW 1057   0.431   1.340   2.125  0.1655 -0.2048  0.4561
  353SOL    HW1 1058   0.356   1.272   2.142  2.0544 -0.0181  0.8665
  353SOL    HW2 1059   0.426   1.424   2.178  2.4778 -0.0560  0.1751
  354SOL     OW 1060   1.908   1.283   0.833  0.1735 -0.2846 -0.0670
  354SOL    HW1 1061   1.848   1.295   0.912 -2.3396 -0.7159 -0.1837
  354SOL    HW2 1062   1.851   1.279   0.749 -1.0767  0.3250  0.0131
  355SOL     OW 1063   2.450   0.229   0.748  0.2094 -0.2882 -0.0203
  355SOL    HW1 1064   2.441   0.289   0.668  1.3452 -1.6150 -0.2101
  355SOL    HW2 1065   2.484   0.134   0.721  2.3462 -0.2063 -0.2775
  356SOL     OW 1066   0.035   1.308   2.581  0.0665 -0.8545  0.5478
  356SOL    HW1 1067   0.100   1.368   2.529  0.4802  0.7891 -0.5354
  356SOL    HW2 1068   0.025   1.217   2.542 -0.3792 -2.3884  0.0989
  357SOL     OW 1069   0.338   2.950   1.542 -0.3376 -0.0467  0.1011
  357SOL    HW1 1070   0.241   2.959   1.568 -0.2461 -1.4700 -0.8894
  357SOL    HW2 1071   0.403   2.985   1.609 -2.5703 -1.4620 -1.9610
  358SOL     OW 1072   2.752   1.347   2.600  1.2512  0.0277 -0.3440
  358SOL    HW1 1073   2.844   1.349   2.644 -2.6569  0.8775  0.3723
  358SOL    HW2 1074   2.722   1.445   2.570 -0.5790  0.5803 -0.6416
  359SOL     OW 1075   2.738   2.646   2.813 -0.2896 -0.0676 -0.3771
  359SOL    HW1 1076   2.742   2.713   2.887 -3.4068  1.0342 -0.5604
  359SOL    HW2 1077   2.649   2.599   2.822 -0.5626 -1.8717  2.3490
  360SOL     OW 1078   1.388   1.358   1.245 -0.2928 -0.4142 -0.0269
  360SOL    HW1 1079   1.443   1.304   1.178 -0.4079  2.7491  0.9107
  360SOL    HW2 1080   1.292   1.372   1.210  0.4200 -1.0034  1.8335
  361SOL     OW 1081   2.054   2.507   1.250 -0.2521  0.2253  0.6423
  361SOL    HW1 1082   2.153   2.530   1.249 -0.0040  1.5105 -0.9129
  361SOL    HW2 1083   2.006   2.565   1.183 -1.8798 -0.9313 -2.4453
  362SOL     OW 1084   1.710   1.759   1.261 -0.1396 -0.2873 -0.1822
  362SOL    HW1 1085   1.771   1.834   1.237 -0.9665 -0.1652 -0.7233
  362SOL    HW2 1086   1.669   1.724   1.174  2.6749  0.6727 -0.1937
  363SOL     OW 1087   2.799   2.147   3.036  0.3497  0.2196  0.4982
  363SOL    HW1 1088   2.780   2.143   2.939  0.3806 -1.5971  1.1621
  363SOL    HW2 1089   2.840   2.238   3.066  0.6505  3.2588  1.1166
  364SOL     OW 1090   2.252   0.472   1.645  0.0640 -0.1354  0.4752
  364SOL    HW1 1091   2.313   0.460   1.561  0.4216 -0.5822 -3.0863
  364SOL    HW2 1092   2.308   0.448   1.729  0.7136 -1.8539 -1.3188
  365SOL     OW 1093   2.808   2.557   1.253  0.0149 -0.4051  0.8473
  365SOL    HW1 1094   2.900   2.586   1.274 -1.8455 -1.0490 -0.1025
  365SOL    HW2 1095   2.785   2.531   1.155 -2.3206 -0.7028  0.0424
  366SOL     OW 1096   2.851   1.206   0.139 -0.3743 -0.2161 -0.1552
  366SOL    HW1 1097   2.821   1.231   0.046 -0.5313 -3.0385 -0.2761
  366SOL    HW2 1098   2.814   1.118   0.175  0.2854 -1.0133  1.2503
  367SOL     OW 1099   2.547   2.461   2.852 -0.3270 -0.1189  0.0622
  367SOL    HW1 1100   2.479   2.519   2.804  0.6074  0.1873 -1.3298
  367SOL    HW2 1101   2.518   2.445   2.946  1.8728 -0.0181 -2.0580
  368SOL     OW 1102   2.502   1.860   1.407 -0.2334 -0.3738  0.4836
  368SOL    HW1 1103   2.529   1.962   1.396  2.2824  1.7131  2.0897
  368SOL    HW2 1104   2.558   1.796   1.346  2.7861 -4.0080  0.9304
  369SOL     OW 1105   0.535   0.219   0.877 -0.2983  0.4269  0.2137
  369SOL    HW1 1106   0.504   0.242   0.973 -1.5058 -0.3603  1.0575
  369SOL    HW2 1107   0.463   0.160   0.832  0.1618  0.6414 -0.4619
  370SOL     OW 1108   0.958   0.577   0.963  0.3012 -0.4584 -0.3423
  370SOL    HW1 1109   0.957   0.554   1.061 -0.7028 -0.7053 -1.8546
  370SOL    HW2 1110   0.864   0.589   0.922 -1.7157  0.7335  0.8858
  371SOL     OW 1111   2.499   1.690   0.218 -0.2985  0.1905 -0.2118
  371SOL    HW1 1112   2.581   1.721   0.275  4.4289 -0.3796  0.2732
  371SOL    HW2 1113   2.489   1.739   0.131  1.0463  0.2779 -0.2335
  372SOL     OW 1114   0.224   0.959   2.576  0.3955  0.2818  0.1477
  372SOL    HW1 1115   0.164   0.956   2.658 -0.8950  0.4326 -0.8378
  372SOL    HW2 1116   0.300   1.019   2.597  0.1482 -0.7536 -0.8235
  373SOL     OW 1117   2.788   0.932   0.476 -0.1330  0.3170 -0.2959
  373SOL    HW1 1118   2.863   1.002   0.483  0.3470  3.2701  1.2696
  373SOL    HW2 1119   2.815   0.849   0.423  2.2106  1.4385 -0.9652
  374SOL     OW 1120   0.656   2.258   0.114 -0.0847  0.1117  0.1614
  374SOL    HW1 1121   0.602   2.315   0.181  0.8482 -0.0757  0.0652
  374SOL    HW2 1122   0.698   2.323   0.046  3.6123 -1.8327  0.3032
  375SOL     OW 1123   1.184   0.620   0.027 -0.1323 -0.3188  0.0508
  375SOL    HW1 1124   1.188   0.657   3.022 -2.3788 -3.4350 -1.7489
  375SOL    HW2 1125   1.107   0.660   0.086 -1.2138  2.3318  0.0013
  376SOL     OW 1126   0.077   2.852   1.779  0.1063 -0.3031  0.7725
  376SOL    HW1 1127   3.071   2.843   1.803 -0.6436  2.7194 -1.9199
  376SOL    HW2 1128   0.096   2.792   1.698 -1.7454  1.4086 -2.6337
  377SOL     OW 1129   0.023   2.084   2.505 -0.1137 -0.0595 -0.2442
  377SOL    HW1 1130   0.011   2.068   2.406  1.4446 -1.3543 -0.3586
  377SOL    HW2 1131   0.028   2.185   2.515  2.4611  0.2885  0.8353
  378SOL     OW 1132   1.625   0.902   0.531  0.3802 -0.2889 -0.4361
  378SOL    HW1 1133   1.561   0.975   0.536  1.9498 -2.6135  3.0926
  378SOL    HW2 1134   1.654   0.872   0.625 -0.8965  2.5319  1.1412
  379SOL     OW 1135   1.305   1.546   0.198  0.3894  0.4359  0.4664
  379SOL    HW1 1136   1.213   1.534   0.160  1.8803  1.8945 -0.2225
  379SOL    HW2 1137   1.317   1.643   0.227 -0.4766 -0.1147  1.3807
  380SOL     OW 1138   2.387   2.291   2.056  0.0375  0.1166 -0.1298
  380SOL    HW1 1139   2.463   2.271   1.991 -0.2768  0.3211  0.4309
  380SOL    HW2 1140   2.335   2.201   2.073  0.4410 -0.8086  1.5493
  381SOL     OW 1141   0.040   1.008   2.150  0.0889 -0.0175 -0.1296
  381SOL    HW1 1142   3.079   1.017   2.064  2.0602 -3.5526  2.1652
  381SOL    HW2 1143   0.098   0.922   2.137  1.8721  0.7884 -3.0649
  382SOL     OW 1144   2.891   2.388   0.050 -0.7231 -0.5047  0.7554
  382SOL    HW1 1145   2.902   2.449   3.063 -0.1813 -1.1403 -1.1417
  382SOL    HW2 1146   2.861   2.437   0.134  1.1718  1.1363  1.2920
  383SOL     OW 1147   1.660   1.181   2.198 -0.1635  0.1041 -0.0466
  383SOL    HW1 1148   1.668   1.093   2.146 -0.5852  2.5361 -0.9046
  383SOL    HW2 1149   1.678   1.261   2.136 -1.0840 -0.7093 -0.3108
  384SOL     OW 1150   0.603   1.946   2.393  0.8376 -0.4909 -0.2047
  384SOL    HW1 1151   0.675   1.982   2.329 -2.0543  3.0107  1.1903
  384SOL    HW2 1152   0.534   1.889   2.338  0.9819 -0.9250 -3.8360
  385SOL     OW 1153   2.706   2.099   0.665  0.1825 -0.0078 -0.0183
  385SOL    HW1 1154   2.698   1.995   0.663 -2.0871 -0.5622 -1.9972
  385SOL    HW2 1155   2.631   2.129   0.725 -1.1857  0.5966 -0.4671
  386SOL     OW 1156   1.472   0.936   3.043 -0.3415  0.3288  0.0346
  386SOL    HW1 1157   1.511   1.015   2.990 -1.2823 -0.2001  1.1030
  386SOL    HW2 1158   1.542   0.866   3.067  0.5916 -0.8204  0.0465
  387SOL     OW 1159   0.263   0.418   1.544 -0.2073  0.4876 -0.3494
  387SOL    HW1 1160   0.225   0.444   1.452  0.7333  0.0325  1.4196
  387SOL    HW2 1161   0.185   0.394   1.605  0.5946 -0.8138  3.0043
  388SOL     OW 1162   3.030   0.897   1.514 -0.3933 -0.2258  0.3014
  388SOL    HW1 1163   3.036   0.835   1.593 -0.0375  0.9115 -0.5290
  388SOL    HW2 1164   2.962   0.967   1.534  1.3723 -2.2976  1.7794
  389SOL     OW 1165   1.866   1.279   2.595  0.1258 -0.0108  0.3420
  389SOL    HW1 1166   1.799   1.204   2.602 -0.3919  1.4503  1.2082
  389SOL    HW2 1167   1.837   1.352   2.533  1.3924 -2.5569 -1.1585
  390SOL     OW 1168   1.874   2.104   0.496 -0.0387  0.0564  0.1068
  390SOL    HW1 1169   1.870   2.163   0.412 -0.8906 -0.6910 -1.9075
  390SOL    HW2 1170   1.970   2.068   0.513  2.1536  0.0352  0.6965
  391SOL     OW 1171   1.222   2.584   0.925 -0.1047 -0.1837 -0.4016
  391SOL    HW1 1172   1.253   2.664   0.978  0.4963  0.6820 -0.5896
  391SOL    HW2 1173   1.138   2.550   0.968  4.1820 -2.5758 -3.2469
  392SOL     OW 1174   2.645   2.483   1.477  0.2820 -0.3286 -0.4716
  392SOL    HW1 1175   2.706   2.496   1.403 -1.4393 -1.4137  0.7393
  392SOL    HW2 1176   2.549   2.513   1.455  2.8569  0.3605 -0.7806
  393SOL     OW 1177   1.794   2.488   2.550  0.0432 -0.5185 -0.1928
  393SOL    HW1 1178   1.809   2.541   2.637 -0.4855  0.3439 -0.6696
  393SOL    HW2 1179   1.861   2.513   2.476  0.0373  0.3849 -1.2172
  394SOL     OW 1180   0.381   2.751   2.501 -0.1840  0.3084 -0.3018
  394SOL    HW1 1181   0.376   2.796   2.593  1.3032 -2.4436 -0.4364
  394SOL    HW2 1182   0.380   2.821   2.426  0.5875  1.1125 -1.7510
  395SOL     OW 1183   0.833   0.880   1.337 -0.1553  0.4803 -0.0018
  395SOL    HW1 1184   0.914   0.887   1.401  2.1361  0.7033 -1.6323
  395SOL    HW2 1185   0.744   0.873   1.388 -1.2788  1.0846  1.0163
  396SOL     OW 1186   2.086   1.133   2.434  0.1286  0.4356  0.1229
  396SOL    HW1 1187   2.059   1.160   2.339  1.0946 -0.6253 -2.0070
  396SOL    HW2 1188   2.036   1.185   2.508 -1.6426  0.3120 -0.1574
  397SOL     OW 1189   2.676   0.452   2.776  0.4411  0.1804 -0.1633
  397SOL    HW1 1190   2.763   0.499   2.800  0.2153  1.4356 -1.9796
  397SOL    HW2 1191   2.685   0.421   2.682  2.1416 -3.2387  2.8527
  398SOL     OW 1192   1.738   0.001   0.817 -0.0589  0.6095 -0.0147
  398SOL    HW1 1193   1.794   3.009   0.799  2.2668 -1.1838 -1.3136
  398SOL    HW2 1194   1.761   0.071   0.744  1.6765  0.5203  0.9456
  399SOL     OW 1195   2.381   2.614   1.853 -0.4690  0.4481 -0.3567
  399SOL    HW1 1196   2.335   2.655   1.773  1.2128 -0.4962  1.3452
  399SOL    HW2 1197   2.311   2.560   1.904  0.5736 -1.0907  2.2539
  400SOL     OW 1198   3.066   2.568   1.803  0.5442  0.1236  0.6905
  400SOL    HW1 1199   3.051   2.499   1.875  0.9397  2.5664  0.1649
  400SOL    HW2 1200   0.076   2.567   1.786 -1.2234  0.6313 -2.3963
  401SOL     OW 1201   0.525   0.237   0.459 -0.2715  0.0511 -0.3440
  401SOL    HW1 1202   0.532   0.160   0.390  2.2657  1.6230 -0.4344
  401SOL    HW2 1203   0.542   0.325   0.409  2.1016  1.7682 -1.1564
  402SOL     OW 1204   0.540   2.705   1.748  0.0320 -0.5020 -0.2267
  402SOL    HW1 1205   0.610   2.707   1.674  2.2986  1.0813  2.4408
  402SOL    HW2 1206   0.494   2.796   1.759 -2.8268  0.8581  2.3425
  403SOL     OW 1207   0.126   1.344   1.959 -0.8003 -0.5112 -0.3886
  403SOL    HW1 1208   0.208   1.315   1.908 -2.0173 -0.5459  2.5760
  403SOL    HW2 1209   0.141   1.324   2.055 -0.6631  1.2452 -2.0012
  404SOL     OW 1210   2.809   2.494   2.198  0.1684 -0.7813  0.3514
  404SOL    HW1 1211   2.794   2.520   2.098 -0.9826  0.9543 -0.6132
  404SOL    HW2 1212   2.896   2.445   2.213 -2.6836 -0.9711  0.4350
  405SOL     OW 1213   2.319   0.182   2.665 -0.7076 -0.5466 -0.1382
  405SOL    HW1 1214   2.230   0.147   2.629 -1.0497  0.6115 -3.8120
  405SOL    HW2 1215   2.305   0.251   2.738 -0.1341  1.3194 -0.7693
  406SOL     OW 1216   1.591   2.506   0.450  0.0485  0.1923 -0.6266
  406SOL    HW1 1217   1.495   2.513   0.406 -2.8369 -0.3749  0.0152
  406SOL    HW2 1218   1.593   2.478   0.547  1.7143  1.7991 -0.8955
  407SOL     OW 1219   1.893   1.608   0.323 -0.2014 -0.3691 -0.0796
  407SOL    HW1 1220   1.932   1.559   0.406 -0.7835  2.3684  2.0339
  407SOL    HW2 1221   1.800   1.650   0.343 -1.0873  1.9302  0.7302
  408SOL     OW 1222   0.182   0.772   2.140 -0.6812  0.0617 -0.0160
  408SOL    HW1 1223   0.197   0.736   2.234 -2.2171  0.4079  0.8979
  408SOL    HW2 1224   0.241   0.726   2.069 -3.0506  1.0056 -0.6834
  409SOL     OW 1225   2.813   1.287   2.984 -0.1711  0.0149 -0.1887
  409SOL    HW1 1226   2.812   1.388   2.994 -1.3604 -0.8023  0.7425
  409SOL    HW2 1227   2.741   1.248   2.918 -2.3745 -0.7512  0.7135
  410SOL     OW 1228   2.476   1.341   1.196  0.0900 -0.0570 -0.4138
  410SOL    HW1 1229   2.418   1.424   1.183  1.2880 -0.4351 -0.6014
  410SOL    HW2 1230   2.478   1.310   1.294 -1.4878 -1.1238  4.0285
  411SOL     OW 1231   2.880   0.711   0.365  0.0190 -0.3300  0.2949
  411SOL    HW1 1232   2.905   0.677   0.272 -2.0080 -2.1436 -1.6401
  411SOL    HW2 1233   2.840   0.638   0.416  2.7667  2.5402 -1.2394
  412SOL     OW 1234   1.738   0.203   0.236  0.3968  0.1267  0.4514
  412SOL    HW1 1235   1.685   0.141   0.287  1.5874  1.7749 -3.9293
  412SOL    HW2 1236   1.824   0.239   0.281 -0.0149 -0.3233 -1.0354
  413SOL     OW 1237   1.171   0.456   1.716 -0.0871 -0.5926 -0.2801
  413SOL    HW1 1238   1.201   0.389   1.788  1.7330 -2.4233 -0.1254
  413SOL    HW2 1239   1.228   0.449   1.633 -0.0702  0.3512 -1.1667
  414SOL     OW 1240   0.441   1.098   0.146 -0.4505 -0.0374  0.1920
  414SOL    HW1 1241   0.514   1.052   0.097  0.1788 -0.2231  0.8181
  414SOL    HW2 1242   0.400   1.170   0.084 -0.4021  0.4019 -1.7465
  415SOL     OW 1243   0.014   1.371   0.490  0.4335 -0.1753  0.4889
  415SOL    HW1 1244   3.070   1.471   0.489  0.2289  0.8663  2.3162
  415SOL    HW2 1245   0.039   1.348   0.392 -0.9079 -1.4796  1.3789
  416SOL     OW 1246   2.055   1.045   0.198  0.2703  0.0600 -0.1257
  416SOL    HW1 1247   1.990   1.010   0.129  0.3678 -3.2195  1.6425
  416SOL    HW2 1248   2.132   0.982   0.200 -1.2685 -0.5017 -0.5535
  417SOL     OW 1249   2.756   2.840   3.006 -0.3471  0.1958  0.5486
  417SOL    HW1 1250   2.851   2.874   3.018  0.6093 -0.2071  2.8622
  417SOL    HW2 1251   2.705   2.845   0.001 -0.2363  1.1106  1.1874
  418SOL     OW 1252   2.717   0.588   0.043 -0.2209 -0.3114  0.2440
  418SOL    HW1 1253   2.721   0.584   3.033 -0.0648 -0.7081  0.7203
  418SOL    HW2 1254   2.624   0.622   0.074 -1.3603  2.2211  0.2878
  419SOL     OW 1255   0.847   0.176   0.496  1.0267 -0.4354 -0.0873
  419SOL    HW1 1256   0.914   0.113   0.535 -2.2339  3.1916 -0.5469
  419SOL    HW2 1257   0.754   0.145   0.521 -0.1167 -2.4618  1.4635
  420SOL     OW 1258   0.600   1.044   0.611  0.6887 -0.1352 -0.3030
  420SOL    HW1 1259   0.502   1.028   0.623  1.1780  0.2277 -2.6900
  420SOL    HW2 1260   0.648   1.015   0.695 -1.2527  2.6106  2.2489
  421SOL     OW 1261   0.405   1.863   0.531  0.0211  0.1774  0.0250
  421SOL    HW1 1262   0.486   1.834   0.474  0.4431 -0.2532 -0.4661
  421SOL    HW2 1263   0.319   1.832   0.486  0.4625  0.4914  0.8929
  422SOL     OW 1264   0.012   0.505   1.372  0.6959 -0.2869  0.0831
  422SOL    HW1 1265   3.052   0.547   1.294  2.3377 -0.9788 -2.3311
  422SOL    HW2 1266   3.043   0.500   1.454  0.1424 -1.2223  0.8389
  423SOL     OW 1267   2.039   1.838   0.495 -0.2290  0.6096  0.5789
  423SOL    HW1 1268   2.124   1.828   0.556  1.7477  1.6986 -0.2497
  423SOL    HW2 1269   2.055   1.797   0.404  2.9428  1.2029  0.9115
  424SOL     OW 1270   1.659   1.640   2.954  0.6053  0.1674  0.8700
  424SOL    HW1 1271   1.677   1.677   3.048  0.9737  0.3462  2.4323
  424SOL    HW2 1272   1.736   1.649   2.887 -0.4740 -1.7849  1.9098
  425SOL     OW 1273   0.338   2.750   1.990  0.1249  0.4012  0.6147
  425SOL    HW1 1274   0.268   2.789   2.055 -0.7691 -1.5261 -3.3601
  425SOL    HW2 1275   0.380   2.818   1.927 -0.0373  2.0401 -1.7497
  426SOL     OW 1276   2.280   2.977   3.020 -0.3464  0.1390 -0.5061
  426SOL    HW1 1277   2.358   2.960   2.952  1.9472 -0.9239 -0.0646
  426SOL    HW2 1278   2.193   2.947   2.986  0.0374  0.3854 -0.3580
  427SOL     OW 1279   0.385   1.626   2.185  0.6662 -0.5352 -0.1443
  427SOL    HW1 1280   0.450   1.700   2.158  1.5037 -0.7321 -0.0513
  427SOL    HW2 1281   0.366   1.627   2.287 -0.8674  3.0917 -3.0397
  428SOL     OW 1282   2.272   1.449   2.459 -0.0946  0.5845  0.1429
  428SOL    HW1 1283   2.194   1.448   2.397  0.1201  0.1762  2.4627
  428SOL    HW2 1284   2.319   1.360   2.459 -1.5496  0.5941  1.4911
  429SOL     OW 1285   2.535   3.089   0.659 -0.3392  0.9020 -0.2516
  429SOL    HW1 1286   2.596   0.014   0.582 -0.1543 -0.6604  1.4587
  429SOL    HW2 1287   2.467   3.018   0.631  1.2392  0.7882  1.7880
  430SOL     OW 1288   1.923   2.144   2.024  0.2818 -0.2272 -0.1382
  430SOL    HW1 1289   1.877   2.166   1.934 -0.7836  1.5814  2.4545
  430SOL    HW2 1290   1.882   2.062   2.061  1.5173  0.1279  0.8634
  431SOL     OW 1291   2.760   1.634   1.678 -0.5760  0.1136 -0.0853
  431SOL    HW1 1292   2.859   1.645   1.660 -0.1138 -4.3394  0.9384
  431SOL    HW2 1293   2.746   1.534   1.699  1.8863  2.1153 -1.4483
  432SOL     OW 1294   0.972   2.219   1.905 -0.3259  0.1511 -0.5224
  432SOL    HW1 1295   1.012   2.137   1.953 -0.1372  0.7263  0.0233
  432SOL    HW2 1296   0.870   2.224   1.930 -0.0107  0.7355  1.3955
  433SOL     OW 1297   0.976   3.081   0.698  0.4250 -0.1202 -0.0228
  433SOL    HW1 1298   1.050   3.046   0.755  1.1680  0.8595 -0.9404
  433SOL    HW2 1299   0.897   0.026   0.756 -1.6017 -1.3614  3.8164
  434SOL     OW 1300   0.253   2.306   1.988  0.0824  0.5653  0.1568
  434SOL    HW1 1301   0.251   2.407   1.968  0.8306  0.8375  0.2439
  434SOL    HW2 1302   0.293   2.293   2.083  0.3522 -0.9196 -0.2327
  435SOL     OW 1303   0.604   1.328   0.554  0.1725 -0.1715  0.1808
  435SOL    HW1 1304   0.620   1.233   0.583 -0.9509  1.9892 -2.0631
  435SOL    HW2 1305   0.584   1.331   0.453 -0.5903 -4.3884  2.2154
  436SOL     OW 1306   0.277   1.649   1.725 -0.0859  0.0432 -0.3636
  436SOL    HW1 1307   0.347   1.715   1.710 -2.2784 -5.4575  1.9220
  436SOL    HW2 1308   0.263   1.627   1.824 -1.2886 -1.1381 -2.3211
  437SOL     OW 1309   1.097   0.531   0.387 -0.0411  0.5632  0.4266
  437SOL    HW1 1310   1.024   0.477   0.345  3.1705  2.8859  2.1875
  437SOL    HW2 1311   1.058   0.624   0.399 -1.3298  0.0445  1.1397
  438SOL     OW 1312   0.929   1.714   1.127 -0.3156 -0.2944 -0.0024
  438SOL    HW1 1313   0.876   1.630   1.105  0.5404 -0.2022  1.1439
  438SOL    HW2 1314   1.024   1.707   1.080  2.0401 -0.0424 -3.7094
  439SOL     OW 1315   1.396   1.953   2.409 -0.1464 -0.1517 -0.4793
  439SOL    HW1 1316   1.300   1.960   2.430  1.1065  1.5100  0.8561
  439SOL    HW2 1317   1.450   1.971   2.494  0.4060  1.3952 -0.5909
  440SOL     OW 1318   1.628   0.167   1.296 -0.1689  0.0644 -0.1361
  440SOL    HW1 1319   1.590   0.154   1.392  0.1138 -0.5091  0.2654
  440SOL    HW2 1320   1.725   0.136   1.291  0.1241 -1.2017  2.1110
  441SOL     OW 1321   0.615   3.055   1.243 -0.5943 -0.5002 -0.5200
  441SOL    HW1 1322   0.576   0.051   1.279  1.4778 -0.0610 -2.7751
  441SOL    HW2 1323   0.575   2.978   1.295  2.0905 -0.5509 -3.2143
  442SOL     OW 1324   2.294   2.035   0.654  0.1855 -0.3002  0.6089
  442SOL    HW1 1325   2.226   2.029   0.732 -0.3183  2.1995  0.0693
  442SOL    HW2 1326   2.248   2.064   0.566 -2.6210 -0.7316  1.3124
  443SOL     OW 1327   2.685   0.411   2.245 -0.0184  0.1908 -0.0792
  443SOL    HW1 1328   2.590   0.388   2.216 -2.9334 -0.0640 -1.0792
  443SOL    HW2 1329   2.743   0.329   2.244 -2.2718 -3.0115  1.6744
  444SOL     OW 1330   1.991   1.206   2.165  0.2022 -0.2754 -0.1550
  444SOL    HW1 1331   1.898   1.240   2.142 -0.1951  0.6772  1.2919
  444SOL    HW2 1332   2.004   1.114   2.125  1.8440  0.3144  1.4757
  445SOL     OW 1333   2.573   2.116   1.400 -0.0843 -0.9236  0.5707
  445SOL    HW1 1334   2.653   2.180   1.408 -1.7203  1.0192  1.4738
  445SOL    HW2 1335   2.511   2.130   1.480 -0.1699 -1.0631  3.2628
  446SOL     OW 1336   0.307   0.986   0.727 -0.4795 -0.3084  0.3851
  446SOL    HW1 1337   0.243   0.962   0.651  1.1256  0.8011  0.6036
  446SOL    HW2 1338   0.263   1.038   0.801 -1.0481 -1.6358 -1.4935
  447SOL     OW 1339   0.827   1.626   0.836  0.0569 -0.4987  0.3215
  447SOL    HW1 1340   0.878   1.580   0.762 -2.2769 -0.4446  2.1018
  447SOL    HW2 1341   0.829   1.731   0.829  0.5113  3.2928  0.0153
  448SOL     OW 1342   1.046   1.138   1.749  0.2123  0.0285 -0.4502
  448SOL    HW1 1343   1.052   1.122   1.648 -1.9945  2.3669  0.5479
  448SOL    HW2 1344   1.058   1.051   1.800 -2.6887  2.8992  1.0168
  449SOL     OW 1345   0.239   1.668   3.015 -0.1433 -0.3911 -0.3419
  449SOL    HW1 1346   0.182   1.585   3.019  0.9952 -0.0829 -2.4317
  449SOL    HW2 1347   0.214   1.737   3.085  1.9635 -1.9341 -1.1127
  450SOL     OW 1348   2.531   2.460   2.218  0.0330 -0.4178 -0.1321
  450SOL    HW1 1349   2.498   2.386   2.161  3.2648  1.4191  1.2846
  450SOL    HW2 1350   2.628   2.453   2.234 -0.7204 -1.3249 -2.7963
  451SOL     OW 1351   2.026   0.459   2.115  0.1707 -0.0006 -0.3098
  451SOL    HW1 1352   2.010   0.373   2.057  0.6485 -1.4769  1.1863
  451SOL    HW2 1353   2.058   0.539   2.052  0.3302  1.8308 -3.8245
  452SOL     OW 1354   0.801   2.763   1.151  0.1836  0.3523 -0.4206
  452SOL    HW1 1355   0.747   2.834   1.104 -1.9825 -0.3955  0.4393
  452SOL    HW2 1356   0.829   2.789   1.243  1.5034  0.9255 -1.6215
  453SOL     OW 1357   1.085   1.200   1.002 -0.4476  0.0140 -0.1853
  453SOL    HW1 1358   1.108   1.292   1.042  1.5892  3.5429 -1.6257
  453SOL    HW2 1359   1.024   1.145   1.056  2.3879  1.7008 -0.4862
  454SOL     OW 1360   0.163   1.118   0.910  0.5247  0.8490  0.1250
  454SOL    HW1 1361   0.115   1.151   0.992 -2.4345 -1.9844 -0.4181
  454SOL    HW2 1362   0.170   1.195   0.843  0.0588  0.3578  0.9091
  455SOL     OW 1363   0.166   2.987   0.323  0.0779 -0.1086 -0.0843
  455SOL    HW1 1364   0.218   3.048   0.254  1.7139 -2.7479  0.7023
  455SOL    HW2 1365   0.068   3.019   0.336 -0.4375  0.2124  0.5399
  456SOL     OW 1366   2.467   2.436   0.785 -1.1785  0.4980 -0.0733
  456SOL    HW1 1367   2.491   2.338   0.783  1.0827  2.3440 -0.7748
  456SOL    HW2 1368   2.539   2.480   0.731 -2.1018 -1.5795 -0.5043
  457SOL     OW 1369   0.989   0.001   2.817 -0.0445 -0.3066  0.0118
  457SOL    HW1 1370   0.963   3.056   2.906 -1.2464  0.8281 -2.3407
  457SOL    HW2 1371   1.076   3.053   2.780  2.0659 -0.5928  0.0806
  458SOL     OW 1372   3.044   2.655   0.151 -0.3086  0.2448  0.1970
  458SOL    HW1 1373   2.947   2.623   0.159  0.5603 -1.2727 -0.0833
  458SOL    HW2 1374   3.055   2.731   0.082  1.6789  0.3323 -1.1163
  459SOL     OW 1375   2.414   0.369   2.195 -0.1468 -0.2871 -0.2512
  459SOL    HW1 1376   2.366   0.365   2.287  0.6746 -0.7061  2.9722
  459SOL    HW2 1377   2.368   0.313   2.124 -1.2614 -0.0825 -0.4475
  460SOL     OW 1378   2.969   0.592   0.145 -0.2014  0.0230  0.1980
  460SOL    HW1 1379   3.020   0.665   0.105 -1.9096 -2.8086  1.3795
  460SOL    HW2 1380   2.877   0.579   0.097 -1.2808 -0.7678 -0.1369
  461SOL     OW 1381   0.654   1.906   1.230  0.0311 -0.2881  0.2739
  461SOL    HW1 1382   0.669   1.850   1.144 -1.5786  1.9381  1.6552
  461SOL    HW2 1383   0.743   1.941   1.263 -1.9044 -1.7891 -0.7305
  462SOL     OW 1384   3.062   2.648   1.361  0.0909  0.8024  0.1774
  462SOL    HW1 1385   3.041   2.750   1.336  1.8690  1.8077 -0.1799
  462SOL    HW2 1386   3.011   2.624   1.449  2.0922 -0.7767  0.5266
  463SOL     OW 1387   2.407   1.037   3.022 -0.0474  0.0956  0.3636
  463SOL    HW1 1388   2.345   1.112   2.989 -0.5600 -2.3949  0.6481
  463SOL    HW2 1389   2.454   0.987   2.949  2.0303 -0.5003 -0.1999
  464SOL     OW 1390   0.493   2.255   1.170 -0.4439  0.0896  0.3344
  464SOL    HW1 1391   0.479   2.175   1.105 -0.3982 -0.6817 -0.4460
  464SOL    HW2 1392   0.588   2.256   1.209  0.4535 -1.4276 -1.5267
  465SOL     OW 1393   0.721   0.625   0.817 -0.0139 -0.4425  0.3789
  465SOL    HW1 1394   0.715   0.536   0.768 -4.3381  1.4210 -2.0595
  465SOL    HW2 1395   0.646   0.686   0.773 -1.1316  0.6951 -2.7975
  466SOL     OW 1396   1.148   2.872   2.051  0.1420 -0.0493  0.8222
  466SOL    HW1 1397   1.159   2.787   1.988  0.1727 -2.8649 -1.3459
  466SOL    HW2 1398   1.082   2.846   2.125 -2.4845 -0.5739 -1.3450
  467SOL     OW 1399   0.790   0.393   1.966 -0.3447 -0.7591 -0.2231
  467SOL    HW1 1400   0.716   0.350   1.916  0.0902 -1.0415  0.7946
  467SOL    HW2 1401   0.762   0.454   2.043 -0.8686  0.1462  0.4982
  468SOL     OW 1402   0.199   1.221   2.196  0.0446 -0.2261  0.3720
  468SOL    HW1 1403   0.147   1.134   2.196 -1.9388  0.8882 -1.8062
  468SOL    HW2 1404   0.162   1.283   2.267 -2.8162 -0.4610  3.0534
  469SOL     OW 1405   0.425   1.700   0.751 -0.0473  0.0374  0.3902
  469SOL    HW1 1406   0.422   1.781   0.689 -0.7108  1.8546 -5.2604
  469SOL    HW2 1407   0.396   1.616   0.696 -0.8242 -1.5682  2.9385
  470SOL     OW 1408   2.523   1.810   2.262  0.1094  0.0685 -0.6323
  470SOL    HW1 1409   2.569   1.738   2.213 -2.6228  1.4217 -2.9856
  470SOL    HW2 1410   2.590   1.873   2.306  1.7475 -1.0571  0.8967
  471SOL     OW 1411   1.287   0.446   2.540 -0.2326  0.3446  0.5347
  471SOL    HW1 1412   1.321   0.379   2.474 -0.7432  1.0520  1.4281
  471SOL    HW2 1413   1.360   0.471   2.610  2.8712 -0.8488  4.7180
  472SOL     OW 1414   0.574   2.299   1.567 -0.5929  0.4302  0.5988
  472SOL    HW1 1415   0.647   2.283   1.637  1.2088 -2.9832  1.3828
  472SOL    HW2 1416   0.508   2.372   1.588  2.1288  0.0790 -0.6080
  473SOL     OW 1417   0.359   0.104   2.448 -0.3314 -0.0455  0.3879
  473SOL    HW1 1418   0.439   0.168   2.457 -0.0923 -0.1607  1.3885
  473SOL    HW2 1419   0.385   0.017   2.397  0.2125  1.3493  1.3026
  474SOL     OW 1420   1.881   0.074   1.258 -0.2422  0.3246 -0.3721
  474SOL    HW1 1421   1.941   0.157   1.273  3.6972 -2.6655  0.8250
  474SOL    HW2 1422   1.877   0.051   1.160  1.9436  2.1233  0.8534
  475SOL     OW 1423   2.036   0.806   1.109 -0.0492 -0.5948 -0.3193
  475SOL    HW1 1424   2.061   0.714   1.078 -1.8210  1.2860  3.1610
  475SOL    HW2 1425   2.049   0.883   1.045  0.2280  0.9289  2.4416
  476SOL     OW 1426   0.569   1.032   0.997  0.1979  0.2581  0.3243
  476SOL    HW1 1427   0.507   1.036   1.079 -1.3048 -1.7311 -1.2882
  476SOL    HW2 1428   0.664   1.040   1.028 -2.5266 -0.6009  2.6872
  477SOL     OW 1429   1.456   2.255   0.658 -0.2179  0.1443  0.4738
  477SOL    HW1 1430   1.455   2.208   0.749 -0.2063 -1.0248  1.6598
  477SOL    HW2 1431   1.357   2.259   0.635  0.3656  0.2205  0.0209
  478SOL     OW 1432   3.064   2.629   2.176  0.4333 -0.0927 -0.0420
  478SOL    HW1 1433   3.088   2.608   2.273 -2.6925 -1.1137 -1.5980
  478SOL    HW2 1434   3.076   2.552   2.117 -1.6809 -1.1627  1.2601
  479SOL     OW 1435   2.501   0.227   1.401  0.5024  0.4657  0.8837
  479SOL    HW1 1436   2.511   0.307   1.466 -0.3438  0.2813  0.0903
  479SOL    HW2 1437   2.472   0.266   1.307 -3.0571 -3.2675 -1.0591
  480SOL     OW 1438   0.343   2.542   0.607 -0.3807 -0.0560 -0.8898
  480SOL    HW1 1439   0.283   2.459   0.618  3.3425  1.4298 -0.0006
  480SOL    HW2 1440   0.298   2.610   0.549  1.2447 -2.8535  1.6488
  481SOL     OW 1441   2.375   2.186   1.596 -0.4093 -0.3153 -0.6011
  481SOL    HW1 1442   2.328   2.275   1.608  2.6118 -1.1534 -1.5120
  481SOL    HW2 1443   2.395   2.145   1.686 -2.2249  0.3522 -0.1727
  482SOL     OW 1444   1.239   2.864   2.863  0.0027 -0.6411  0.8714
  482SOL    HW1 1445   1.243   2.915   2.779 -0.6772  2.4373  0.9132
  482SOL    HW2 1446   1.318   2.803   2.874 -0.7111  0.1986  2.8415
  483SOL     OW 1447   0.655   2.044   1.808  0.2846  0.3266 -0.5755
  483SOL    HW1 1448   0.721   1.963   1.807 -1.8999 -0.1158 -0.0826
  483SOL    HW2 1449   0.568   2.013   1.764 -4.4495 -0.4993 -0.3280
  484SOL     OW 1450   1.208   0.260   1.372 -0.3533  0.3626  0.1849
  484SOL    HW1 1451   1.256   0.305   1.450  0.6562  1.9131 -1.6650
  484SOL    HW2 1452   1.189   0.343   1.310 -2.0099  1.2046  0.6448
  485SOL     OW 1453   1.843   1.021   0.020  0.1643  0.5492  0.2690
  485SOL    HW1 1454   1.852   1.115   3.072  1.0074 -0.1519 -1.1108
  485SOL    HW2 1455   1.757   1.009   0.076 -0.3297  1.7030  2.2263
  486SOL     OW 1456   2.191   0.124   1.398 -0.1504 -0.5206  0.0918
  486SOL    HW1 1457   2.206   0.227   1.388  0.3149  2.7736 -0.8808
  486SOL    HW2 1458   2.225   0.088   1.482 -3.7434  1.2174 -1.9675
  487SOL     OW 1459   0.879   2.144   1.068 -0.2976 -0.1449 -0.2577
  487SOL    HW1 1460   0.893   2.242   1.093 -0.4818 -1.0903  1.3599
  487SOL    HW2 1461   0.951   2.085   1.113 -2.0258 -1.0656 -1.5329
  488SOL     OW 1462   2.512   2.125   3.067 -0.6544  0.3304 -0.0025
  488SOL    HW1 1463   2.461   2.131   2.980  0.0971 -0.4425 -3.3968
  488SOL    HW2 1464   2.611   2.088   3.051  1.6350 -0.4291 -2.2743
  489SOL     OW 1465   2.093   2.941   0.566 -0.3144  0.5447 -0.2251
  489SOL    HW1 1466   2.190   2.931   0.589 -2.5030  5.1600 -1.9828
  489SOL    HW2 1467   2.085   2.949   0.464 -1.5748 -0.0507  3.0919
  490SOL     OW 1468   1.023   1.947   2.854 -0.7515 -0.2784 -0.6615
  490SOL    HW1 1469   1.014   1.999   2.770  2.7454 -3.6763 -2.1438
  490SOL    HW2 1470   1.059   2.007   2.930 -0.6184 -1.3947  0.3456
  491SOL     OW 1471   0.132   1.943   1.693  0.0985  0.1638 -0.1330
  491SOL    HW1 1472   0.056   1.879   1.695  1.2682 -1.6334  1.5405
  491SOL    HW2 1473   0.224   1.899   1.686 -1.5166  0.2595  2.1345
  492SOL     OW 1474   0.789   1.601   1.805  0.1371  0.0674 -0.5209
  492SOL    HW1 1475   0.888   1.602   1.837  1.1562  2.7588  0.4613
  492SOL    HW2 1476   0.721   1.537   1.849 -2.6569  0.0363  1.9666
  493SOL     OW 1477   2.474   1.665   0.854 -0.7826 -0.6275 -0.2146
  493SOL    HW1 1478   2.398   1.623   0.799 -1.2621  0.6451  2.3537
  493SOL    HW2 1479   2.535   1.591   0.882 -0.0415 -0.3293  3.3382
  494SOL     OW 1480   2.932   1.599   0.792 -0.1422  0.4252 -0.3340
  494SOL    HW1 1481   2.904   1.530   0.725 -1.1962 -1.3685 -2.5732
  494SOL    HW2 1482   2.911   1.693   0.759 -0.0749 -1.8383  2.1022
  495SOL     OW 1483   2.398   2.942   0.499  0.4483  0.0095  0.5228
  495SOL    HW1 1484   2.368   3.013   0.436 -1.8578 -0.6170  0.6995
  495SOL    HW2 1485   2.375   2.846   0.461  0.1097 -2.4780 -2.8613
  496SOL     OW 1486   2.565   0.107   1.642 -0.0684  0.0020 -0.2365
  496SOL    HW1 1487   2.647   0.044   1.619 -0.5422 -0.0803  1.2012
  496SOL    HW2 1488   2.525   0.152   1.562 -0.2418  0.0849  0.7289
  497SOL     OW 1489   2.463   1.401   2.780 -0.3013  0.0130 -0.5427
  497SOL    HW1 1490   2.373   1.361   2.754  2.2376  1.5660 -0.1120
  497SOL    HW2 1491   2.525   1.320   2.807  1.6877 -0.6180  1.2371
  498SOL     OW 1492   2.791   1.936   1.318  0.0573  0.1871 -0.0428
  498SOL    HW1 1493   2.875   1.958   1.371 -1.9601  0.0671 -1.9746
  498SOL    HW2 1494   2.718   1.995   1.347  1.5638  0.6846 -0.0101
  499SOL     OW 1495   1.124   2.295   2.605  0.2314  0.1091  0.6064
  499SOL    HW1 1496   1.130   2.396   2.618  0.6393  3.5035 -0.1857
  499SOL    HW2 1497   1.080   2.281   2.517 -0.9748 -0.4602  0.6694
  500SOL     OW 1498   1.570   1.372   0.596 -0.1753 -0.3226  0.4236
  500SOL    HW1 1499   1.662   1.326   0.594  0.4558 -1.2360  0.7089
  500SOL    HW2 1500   1.522   1.362   0.684  1.2005  0.3752 -1.0883
  501SOL     OW 1501   1.515   0.131   1.552  0.2191 -0.0831  0.2915
  501SOL    HW1 1502   1.428   0.110   1.604 -0.2573  1.1359  1.2910
  501SOL    HW2 1503   1.587   0.065   1.578  1.0689  0.6957  0.2646
  502SOL     OW 1504   2.699   0.708   1.573  0.1979  0.2214 -0.0511
  502SOL    HW1 1505   2.760   0.640   1.530  2.1317 -1.4061 -1.0605
  502SOL    HW2 1506   2.668   0.680   1.668  0.1856  2.4252  1.0899
  503SOL     OW 1507   2.535   1.472   2.048  0.1583  0.1226 -0.4315
  503SOL    HW1 1508   2.465   1.546   2.038 -1.1019  0.8355  1.6371
  503SOL    HW2 1509   2.624   1.518   2.068  0.0051 -1.4969 -2.3663
  504SOL     OW 1510   0.971   1.316   1.963 -0.0696 -0.3710  0.1817
  504SOL    HW1 1511   1.043   1.315   2.038  1.7763 -0.3265  0.5185
  504SOL    HW2 1512   1.002   1.260   1.882 -1.0590 -0.0463  0.0146
  505SOL     OW 1513   0.410   0.182   1.573  0.0100 -0.4764  0.2668
  505SOL    HW1 1514   0.359   0.270   1.562 -1.0643  0.5480  2.4562
  505SOL    HW2 1515   0.458   0.176   1.661 -1.8209  0.5744 -0.0925
  506SOL     OW 1516   0.167   0.263   0.096  0.1558 -0.6788  0.5064
  506SOL    HW1 1517   0.122   0.323   0.165  0.3289 -0.8234 -1.7042
  506SOL    HW2 1518   0.207   0.321   0.022 -0.8660 -1.1014  5.1481
  507SOL     OW 1519   0.444   2.429   3.051  0.5004 -0.0381  0.3322
  507SOL    HW1 1520   0.366   2.456   0.024  0.3780 -2.1163  0.8419
  507SOL    HW2 1521   0.526   2.485   3.058  2.3084  0.2466 -2.9003
  508SOL     OW 1522   0.981   0.244   2.044  0.2697  0.1796 -0.3443
  508SOL    HW1 1523   0.907   0.308   2.013  0.6488 -1.0148  2.0618
  508SOL    HW2 1524   0.948   0.193   2.127  0.0668 -2.7964 -1.7788
  509SOL     OW 1525   1.440   1.981   1.345 -0.2429 -0.7298 -0.0883
  509SOL    HW1 1526   1.495   1.979   1.434 -0.1210 -0.6756 -0.5445
  509SOL    HW2 1527   1.397   2.072   1.327  1.0678  0.7787 -0.6546
  510SOL     OW 1528   2.816   1.082   1.564  0.5043  0.2905 -0.0186
  510SOL    HW1 1529   2.747   1.030   1.611  1.0757  3.1248 -0.2168
  510SOL    HW2 1530   2.787   1.078   1.466 -0.8742 -0.0691  0.8549
  511SOL     OW 1531   1.237   1.837   1.269 -0.5480  0.1008 -0.1193
  511SOL    HW1 1532   1.319   1.874   1.314 -3.4638 -0.7559  0.0851
  511SOL    HW2 1533   1.181   1.781   1.334  1.4813 -0.2268  0.2401
  512SOL     OW 1534   0.202   1.604   0.339 -0.4601  0.1014 -0.1540
  512SOL    HW1 1535   0.124   1.604   0.408 -1.7759  1.3544 -3.1299
  512SOL    HW2 1536   0.188   1.686   0.278  1.8638  1.4248 -1.0631
  513SOL     OW 1537   0.289   1.259   3.054  0.1624 -0.0907 -0.4443
  513SOL    HW1 1538   0.280   1.259   2.951 -3.0589  0.4473 -1.5682
  513SOL    HW2 1539   0.203   1.301   0.004 -2.6374  1.3221 -0.3157
  514SOL     OW 1540   2.061   2.456   2.451  0.0147  0.0989  0.5796
  514SOL    HW1 1541   2.070   2.371   2.404 -1.4765  3.9120  1.0109
  514SOL    HW2 1542   2.092   2.454   2.553  1.0065 -0.3428  2.3172
  515SOL     OW 1543   2.559   0.904   0.606 -0.1003 -0.0959  0.3307
  515SOL    HW1 1544   2.530   0.816   0.567  1.1289 -0.1429  0.2575
  515SOL    HW2 1545   2.643   0.937   0.559  0.0755  1.4694  0.7634
  516SOL     OW 1546   2.488   2.598   0.176 -0.3719 -0.3190  0.2568
  516SOL    HW1 1547   2.480   2.547   0.088  2.2033  0.1938 -2.1263
  516SOL    HW2 1548   2.493   2.532   0.253  2.1725 -0.9109 -1.9621
  517SOL     OW 1549   0.652   1.625   2.962 -0.2089 -0.0803 -0.5019
  517SOL    HW1 1550   0.686   1.705   2.901  1.3993  1.2978 -2.0671
  517SOL    HW2 1551   0.589   1.660   3.038 -2.0299  2.6079 -1.7342
  518SOL     OW 1552   2.885   0.307   1.792  0.4623 -0.1328 -0.0732
  518SOL    HW1 1553   2.848   0.211   1.802 -0.9147 -0.6451 -0.8676
  518SOL    HW2 1554   2.941   0.338   1.871 -1.5030 -0.8200 -0.7133
  519SOL     OW 1555   1.619   1.061   0.183 -0.0804 -0.0534 -0.6369
  519SOL    HW1 1556   1.613   1.139   0.119 -0.1588  1.1494  2.4017
  519SOL    HW2 1557   1.525   1.036   0.205  0.1802 -1.0973 -2.3157
  520SOL     OW 1558   2.749   2.971   2.367 -0.5287  0.6228  0.4645
  520SOL    HW1 1559   2.829   3.026   2.343 -4.3553 -2.2983 -1.0181
  520SOL    HW2 1560   2.760   2.871   2.333  1.1815 -4.0571 -1.1312
  521SOL     OW 1561   0.042   2.046   2.245  0.4808  0.4517  0.1386
  521SOL    HW1 1562   0.092   2.126   2.220 -1.1170 -0.0193  0.1178
  521SOL    HW2 1563   0.105   1.971   2.265 -1.0637 -0.4471  3.9175
  522SOL     OW 1564   1.136   2.857   1.707 -0.1404 -0.5156  0.1154
  522SOL    HW1 1565   1.168   2.792   1.781  0.8688 -2.4711  0.2485
  522SOL    HW2 1566   1.186   2.842   1.621 -0.2895  2.1508 -1.1199
  523SOL     OW 1567   2.156   2.273   1.065  0.0275  0.6054 -0.7934
  523SOL    HW1 1568   2.230   2.341   1.041 -1.3808  0.5756 -1.9813
  523SOL    HW2 1569   2.133   2.260   1.164 -2.7449  0.2853 -1.0469
  524SOL     OW 1570   1.044   2.290   0.830  0.4554 -0.0508 -0.7695
  524SOL    HW1 1571   1.109   2.252   0.891 -3.2171  1.6335 -2.2621
  524SOL    HW2 1572   0.958   2.313   0.878  0.0298  1.4266 -2.8006
  525SOL     OW 1573   2.844   0.675   0.760 -0.0143  0.1416  0.0648
  525SOL    HW1 1574   2.790   0.729   0.822 -1.1309 -2.2910  0.3695
  525SOL    HW2 1575   2.909   0.727   0.704  0.0564 -1.1746 -0.0694
  526SOL     OW 1576   1.271   0.274   0.353  0.1560 -0.4927  0.4164
  526SOL    HW1 1577   1.204   0.347   0.368 -0.0171  0.4024  3.9167
  526SOL    HW2 1578   1.362   0.321   0.360  0.2734  0.0040 -2.6399
  527SOL     OW 1579   1.793   1.310   1.307  0.2940  0.2211  0.0650
  527SOL    HW1 1580   1.758   1.333   1.216 -0.5985 -0.0110  0.5521
  527SOL    HW2 1581   1.861   1.236   1.295 -4.7179  1.6613 -1.6780
  528SOL     OW 1582   2.779   2.705   2.351  0.0787 -0.4622  0.3489
  528SOL    HW1 1583   2.858   2.703   2.408  0.2479 -0.2003  1.2314
  528SOL    HW2 1584   2.789   2.635   2.273 -2.0070 -3.8580 -0.1069
  529SOL     OW 1585   0.966   1.231   2.406  0.0098 -0.4572  0.4410
  529SOL    HW1 1586   1.013   1.224   2.497  0.3966  0.3850  0.3147
  529SOL    HW2 1587   0.878   1.178   2.395 -1.1335 -0.4980 -0.7138
  530SOL     OW 1588   1.756   0.982   2.618  0.0878  0.2500 -0.2308
  530SOL    HW1 1589   1.834   0.956   2.557 -0.8261  0.7806 -0.4777
  530SOL    HW2 1590   1.735   0.911   2.687  0.7399  3.3647 -1.6021
  531SOL     OW 1591   0.058   0.815   0.106 -0.3596 -0.0731  0.3437
  531SOL    HW1 1592   3.074   0.869   0.060  1.2340  2.6139  0.5657
  531SOL    HW2 1593   0.104   0.881   0.175  0.1650 -2.0317  2.4841
  532SOL     OW 1594   1.736   1.349   1.033  0.1238 -0.2378 -0.5878
  532SOL    HW1 1595   1.651   1.294   1.049 -0.5886  1.8474  0.2861
  532SOL    HW2 1596   1.708   1.445   1.026  0.5961 -0.9370 -2.0474
  533SOL     OW 1597   0.253   0.745   2.417 -1.0737 -0.0383 -0.3893
  533SOL    HW1 1598   0.250   0.832   2.476  0.5682  4.0063 -1.3236
  533SOL    HW2 1599   0.311   0.671   2.457  1.2631  0.1021 -0.1586
  534SOL     OW 1600   1.014   0.112   2.527 -0.2795  0.2231  0.4379
  534SOL    HW1 1601   1.046   0.198   2.575 -0.9386 -1.4862  1.0136
  534SOL    HW2 1602   0.951   0.061   2.583  1.8422  0.3518 -1.6628
  535SOL     OW 1603   0.569   0.463   3.002  0.4276  0.3158 -0.7099
  535SOL    HW1 1604   0.528   0.558   3.015  0.5298 -0.3872  1.7371
  535SOL    HW2 1605   0.623   0.456   2.917 -1.2312  0.1245 -0.0795
  536SOL     OW 1606   0.413   0.950   2.304  0.2112 -0.3417 -0.1757
  536SOL    HW1 1607   0.385   1.043   2.282 -0.3344 -0.0045  1.3456
  536SOL    HW2 1608   0.343   0.882   2.274  1.2304  0.4281  1.4446
  537SOL     OW 1609   1.537   2.758   1.390 -0.0978  0.2145  0.5003
  537SOL    HW1 1610   1.496   2.806   1.309 -3.0201  1.4819 -1.2584
  537SOL    HW2 1611   1.496   2.794   1.475 -0.3593 -0.8622 -1.6479
  538SOL     OW 1612   0.909   2.155   0.141  0.2884  0.7842 -0.1391
  538SOL    HW1 1613   0.817   2.204   0.142  0.4575 -0.6185 -0.2512
  538SOL    HW2 1614   0.945   2.137   0.047 -1.6663 -1.5486 -1.2057
  539SOL     OW 1615   2.577   1.221   1.890 -0.0204 -0.0254  0.0735
  539SOL    HW1 1616   2.493   1.168   1.910  3.4807  0.7030  2.4978
  539SOL    HW2 1617   2.588   1.281   1.973 -4.6204 -0.0731  0.5043
  540SOL     OW 1618   1.845   1.783   1.519 -0.4841  0.3600  0.5586
  540SOL    HW1 1619   1.781   1.783   1.437 -2.5492 -2.3361 -1.8982
  540SOL    HW2 1620   1.860   1.878   1.554 -0.3412  1.6041 -1.1595
  541SOL     OW 1621   0.632   1.695   1.591 -0.5168 -0.5118 -0.0235
  541SOL    HW1 1622   0.677   1.635   1.659 -1.0231  1.8871 -2.0557
  541SOL    HW2 1623   0.639   1.663   1.500 -1.9817 -0.1017 -3.3914
  542SOL     OW 1624   1.686   1.031   1.994  0.1301 -0.2558 -0.5086
  542SOL    HW1 1625   1.608   1.070   1.947 -0.9346  1.1919 -0.7000
  542SOL    HW2 1626   1.764   1.009   1.934 -0.0135  0.0886  0.5745
  543SOL     OW 1627   0.984   0.397   0.589 -0.5584  0.1085  0.1301
  543SOL    HW1 1628   1.014   0.456   0.508 -1.0505  2.9092 -0.4423
  543SOL    HW2 1629   0.910   0.332   0.564  0.6523  1.1134  1.0043
  544SOL     OW 1630   2.067   1.918   2.399  0.0960 -0.3482 -0.2699
  544SOL    HW1 1631   2.103   1.861   2.322  3.1044 -1.2812  0.4791
  544SOL    HW2 1632   2.118   1.897   2.485  2.5005  2.1363 -0.4221
  545SOL     OW 1633   1.554   1.632   1.449 -0.4089 -0.3789  0.5001
  545SOL    HW1 1634   1.600   1.678   1.369  1.6413  0.8151 -1.2427
  545SOL    HW2 1635   1.602   1.542   1.470 -0.2364  0.3174 -0.0090
  546SOL     OW 1636   0.278   0.418   2.980  0.1040  0.2607  0.5272
  546SOL    HW1 1637   0.253   0.386   2.888 -0.3266 -1.5383 -0.3359
  546SOL    HW2 1638   0.378   0.412   2.992 -0.7895 -0.5721 -0.0246
  547SOL     OW 1639   1.988   0.784   0.027  0.5223  0.2270 -0.4232
  547SOL    HW1 1640   1.914   0.850   0.006  0.6078  1.0734  1.7348
  547SOL    HW2 1641   1.962   0.722   0.105 -0.9984 -1.3677  1.0004
  548SOL     OW 1642   2.366   2.030   2.278  0.2143 -0.1785  0.0442
  548SOL    HW1 1643   2.291   2.051   2.215  1.3927 -1.5361  1.8898
  548SOL    HW2 1644   2.408   1.942   2.276  0.3336  2.0332 -2.8215
  549SOL     OW 1645   2.231   0.186   0.892 -0.1221 -0.3392  0.3306
  549SOL    HW1 1646   2.252   0.140   0.981 -0.3814  0.1223  0.9458
  549SOL    HW2 1647   2.312   0.217   0.841 -0.4080 -0.8578 -1.6390
  550SOL     OW 1648   2.302   1.862   0.289 -0.4059 -0.2994 -0.3296
  550SOL    HW1 1649   2.208   1.858   0.252 -1.0181  0.8430 -0.9081
  550SOL    HW2 1650   2.359   1.785   0.255  0.7449 -1.1270 -1.6541
  551SOL     OW 1651   1.240   0.232   1.927 -0.5024 -0.1286  0.0495
  551SOL    HW1 1652   1.314   0.231   1.998  1.6027 -0.4228  1.1242
  551SOL    HW2 1653   1.148   0.253   1.970 -2.2498 -2.9644  0.7459
  552SOL     OW 1654   3.074   2.356   2.520  0.1294  0.5666 -0.2639
  552SOL    HW1 1655   0.030   2.448   2.503  1.4862  1.9048  2.0380
  552SOL    HW2 1656   2.976   2.363   2.542 -0.1012 -1.2938  0.4700
  553SOL     OW 1657   0.733   0.034   0.110  0.1938  0.1048  0.1155
  553SOL    HW1 1658   0.836   0.040   0.129  0.5078 -1.6577  0.9997
  553SOL    HW2 1659   0.681   0.023   0.198 -1.7598 -0.4582 -0.5587
  554SOL     OW 1660   1.784   2.404   1.637  0.8199 -0.3187 -0.1016
  554SOL    HW1 1661   1.869   2.421   1.583  1.1284 -0.1078 -0.0379
  554SOL    HW2 1662   1.797   2.431   1.735 -2.3463 -0.1850 -1.4475
  555SOL     OW 1663   1.320   2.117   1.733 -0.3516 -0.8039 -0.4205
  555SOL    HW1 1664   1.401   2.181   1.732  0.9707 -1.6756 -1.1585
  555SOL    HW2 1665   1.289   2.103   1.826 -0.1974  0.2762 -1.0389
  556SOL     OW 1666   1.623   1.880   0.775  0.2196 -0.2075  0.0744
  556SOL    HW1 1667   1.586   1.803   0.717  0.0210 -1.8152  1.7491
  556SOL    HW2 1668   1.548   1.936   0.816 -2.0058  1.0471  0.6034
  557SOL     OW 1669   1.519   2.138   1.972 -0.2569  0.3869 -0.4724
  557SOL    HW1 1670   1.568   2.067   1.912 -1.0466 -0.6493 -1.0806
  557SOL    HW2 1671   1.546   2.128   2.067 -0.7357 -1.4406 -1.3985
  558SOL     OW 1672   0.065   0.317   1.703 -0.1376 -0.1018 -0.0835
  558SOL    HW1 1673   3.064   0.348   1.736 -1.9388 -1.4424  2.1212
  558SOL    HW2 1674   0.053   0.216   1.681  0.9718 -2.2949 -0.4380
  559SOL     OW 1675   2.562   2.893   1.436  0.0878  0.0219 -0.9586
  559SOL    HW1 1676   2.474   2.860   1.394 -3.0124  1.1452  0.3766
  559SOL    HW2 1677   2.614   2.959   1.378  0.4288 -1.5330  0.0703
  560SOL     OW 1678   0.850   2.515   0.240  0.3345  0.0127  0.1139
  560SOL    HW1 1679   0.788   2.582   0.191  0.9548  0.4441 -1.1093
  560SOL    HW2 1680   0.814   2.488   0.333 -0.5734  0.0832 -1.3775
  561SOL     OW 1681   1.083   0.802   0.269 -0.2266  0.1481  0.1800
  561SOL    HW1 1682   1.003   0.754   0.229  1.9396 -0.5018  0.9896
  561SOL    HW2 1683   1.042   0.884   0.313  2.0250 -1.9948 -2.6714
  562SOL     OW 1684   0.836   0.791   2.410 -0.1788  0.1782  0.2078
  562SOL    HW1 1685   0.885   0.754   2.325  0.3543 -2.7575  0.0509
  562SOL    HW2 1686   0.848   0.727   2.487 -1.5692  1.4638  0.4835
  563SOL     OW 1687   1.792   2.200   2.559 -0.2902  0.2304  0.1793
  563SOL    HW1 1688   1.870   2.155   2.512  2.2277  1.0537 -0.3890
  563SOL    HW2 1689   1.788   2.298   2.541 -2.5791 -0.7802  3.1343
  564SOL     OW 1690   0.189   1.008   0.286 -0.1926 -0.3344  0.3480
  564SOL    HW1 1691   0.286   1.013   0.251  0.6623 -0.1358 -0.0364
  564SOL    HW2 1692   0.136   1.087   0.259  1.6071 -1.0857 -1.2132
  565SOL     OW 1693   1.232   3.039   2.648 -0.2203  0.2005  0.1769
  565SOL    HW1 1694   1.225   3.053   2.548 -1.7382 -0.4712  1.5593
  565SOL    HW2 1695   1.298   0.011   2.692  1.4162 -0.9701 -1.9650
  566SOL     OW 1696   1.747   2.972   2.512 -0.5598 -0.7399  0.0037
  566SOL    HW1 1697   1.835   2.935   2.476  0.5617 -0.0430  0.3771
  566SOL    HW2 1698   1.681   2.899   2.499 -1.0685 -0.5651 -1.2228
  567SOL     OW 1699   2.393   1.315   0.881  0.8073 -0.2379  0.3951
  567SOL    HW1 1700   2.364   1.388   0.947  0.4266  1.7220  1.7547
  567SOL    HW2 1701   2.316   1.263   0.838 -0.9476 -2.2479 -1.3080
  568SOL     OW 1702   2.060   1.773   0.190 -0.3065 -1.2107  0.1799
  568SOL    HW1 1703   1.998   1.835   0.140  0.5712 -0.3647  0.0285
  568SOL    HW2 1704   1.999   1.698   0.226  0.0638 -0.4138  1.0140
  569SOL     OW 1705   2.251   1.720   2.864 -0.4276  0.5201 -0.1808
  569SOL    HW1 1706   2.346   1.693   2.849 -0.5219 -0.9147  3.2544
  569SOL    HW2 1707   2.183   1.653   2.827 -3.2201 -0.4869  0.9381
  570SOL     OW 1708   2.920   2.600   1.585  0.2519  0.5167  0.7449
  570SOL    HW1 1709   2.994   2.593   1.659  0.2647 -0.2728  1.4719
  570SOL    HW2 1710   2.854   2.522   1.590  1.2053  1.9064  0.4151
  571SOL     OW 1711   0.064   0.401   2.343  0.0415  0.1756  0.0061
  571SOL    HW1 1712   0.141   0.348   2.297 -2.0171  0.1749 -0.0404
  571SOL    HW2 1713   0.023   0.467   2.273 -2.3792  1.6311 -0.4429
  572SOL     OW 1714   1.151   1.438   1.128 -0.1748 -0.1731  0.1138
  572SOL    HW1 1715   1.177   1.530   1.092 -1.7323  1.7728 -1.6638
  572SOL    HW2 1716   1.098   1.453   1.217 -4.0204  1.8252 -0.0981
  573SOL     OW 1717   0.936   0.269   2.797  0.5946  0.4249 -0.2954
  573SOL    HW1 1718   0.962   0.170   2.796  1.1277  0.7697 -0.8551
  573SOL    HW2 1719   0.985   0.322   2.868 -0.4863  1.4869 -1.8905
  574SOL     OW 1720   0.612   0.404   0.684  0.1269 -0.2057  0.1200
  574SOL    HW1 1721   0.591   0.341   0.610  0.0682  3.7293 -2.1410
  574SOL    HW2 1722   0.590   0.366   0.778 -2.6185  0.2977  1.0661
  575SOL     OW 1723   0.016   1.374   1.438  0.6748 -0.1252 -0.7088
  575SOL    HW1 1724   3.078   1.473   1.437 -0.0977  0.0990 -1.5439
  575SOL    HW2 1725   0.109   1.363   1.398  1.2783 -1.4908 -2.2086
  576SOL     OW 1726   2.390   0.396   1.855  0.4466  0.2109 -0.1588
  576SOL    HW1 1727   2.390   0.472   1.921 -0.6018  0.2748 -1.3081
  576SOL    HW2 1728   2.357   0.310   1.901 -4.4606  0.5686  1.5180
  577SOL     OW 1729   2.832   1.452   2.048  0.0739  0.3997  0.2056
  577SOL    HW1 1730   2.859   1.365   2.087 -0.5184 -0.2121  0.3146
  577SOL    HW2 1731   2.865   1.450   1.950 -0.4626  1.3120 -0.2124
  578SOL     OW 1732   1.405   2.676   2.310 -0.5840 -0.0526 -0.2534
  578SOL    HW1 1733   1.475   2.617   2.260  3.0007 -0.1108 -1.5994
  578SOL    HW2 1734   1.387   2.760   2.257  0.3383  0.3416  0.4113
  579SOL     OW 1735   2.190   2.083   2.080  0.3789  0.3822 -0.3003
  579SOL    HW1 1736   2.103   2.130   2.068  2.2918 -1.5235 -0.1420
  579SOL    HW2 1737   2.215   2.043   1.989  1.5767 -0.6336 -0.9183
  580SOL     OW 1738   1.757   1.409   2.084  0.1568  0.2044  0.7353
  580SOL    HW1 1739   1.698   1.493   2.083 -1.6323 -2.1916  0.3450
  580SOL    HW2 1740   1.817   1.406   2.003  0.1554 -1.2406  0.1165
  581SOL     OW 1741   1.335   1.114   2.223 -0.6503 -0.1602  0.0542
  581SOL    HW1 1742   1.428   1.162   2.238  3.8838  2.3482  0.0867
  581SOL    HW2 1743   1.320   1.052   2.308  0.3677  1.0639  0.1898
  582SOL     OW 1744   0.038   2.197   1.717  0.5177 -0.2459  0.4408
  582SOL    HW1 1745   0.049   2.096   1.708  1.1221  1.6498 -0.4300
  582SOL    HW2 1746   0.049   2.221   1.814 -0.1069  0.3366 -0.1753
  583SOL     OW 1747   1.528   1.199   1.061  0.0772 -0.4598 -0.4692
  583SOL    HW1 1748   1.463   1.198   0.983  1.9081 -2.7484 -0.0695
  583SOL    HW2 1749   1.533   1.102   1.099  1.2200 -1.2662 -2.5434
  584SOL     OW 1750   1.191   2.241   0.588  0.2308 -0.1755  0.1646
  584SOL    HW1 1751   1.138   2.266   0.504 -0.9760  0.8953  1.1518
  584SOL    HW2 1752   1.138   2.281   0.665  2.6888  0.1307  0.1700
  585SOL     OW 1753   0.145   2.488   3.086 -0.3474 -0.0164  0.3028
  585SOL    HW1 1754   0.110   2.393   3.075 -0.3013  0.8043 -0.4146
  585SOL    HW2 1755   0.109   2.538   0.077 -0.2510 -2.3802  3.2700
  586SOL     OW 1756   2.746   1.397   0.312  0.4672 -0.0346  0.0559
  586SOL    HW1 1757   2.779   1.332   0.245  0.2490  0.4220 -0.2117
  586SOL    HW2 1758   2.643   1.403   0.309 -1.1704 -0.0225  0.8851
  587SOL     OW 1759   1.039   1.383   2.832 -0.1401  0.5000  0.2748
  587SOL    HW1 1760   1.141   1.387   2.844 -1.4060  1.3031 -2.2064
  587SOL    HW2 1761   1.000   1.454   2.896  0.0407  0.6778 -1.5647
  588SOL     OW 1762   0.251   0.433   0.686 -0.3603 -0.0458  0.0454
  588SOL    HW1 1763   0.291   0.336   0.684  1.3296 -1.9030 -2.4469
  588SOL    HW2 1764   0.241   0.468   0.780 -0.1045  0.0564 -0.2209
  589SOL     OW 1765   1.446   0.249   0.657 -0.4545 -0.5953  0.1023
  589SOL    HW1 1766   1.459   0.343   0.625 -0.7842  0.1803  1.9796
  589SOL    HW2 1767   1.347   0.227   0.680 -1.7312 -0.3621  2.6787
  590SOL     OW 1768   2.540   2.430   0.409  0.0334  0.1186  0.1105
  590SOL    HW1 1769   2.607   2.355   0.418 -2.5828  2.9323  0.1228
  590SOL    HW2 1770   2.449   2.402   0.451 -4.9783 -0.0800  1.7954
  591SOL     OW 1771   0.240   2.532   1.869 -0.0654  0.2421 -0.3991
  591SOL    HW1 1772   0.279   2.620   1.915 -0.1774  3.2341  1.6317
  591SOL    HW2 1773   0.308   2.512   1.794 -1.7629 -0.0333 -1.2598
  592SOL     OW 1774   2.875   2.016   2.144  0.1438  0.8287 -0.2963
  592SOL    HW1 1775   2.883   1.957   2.061 -2.5036 -1.1315 -2.7010
  592SOL    HW2 1776   2.962   2.020   2.195 -2.1985 -2.5238  0.6360
  593SOL     OW 1777   1.427   1.283   1.499  0.1853  0.0830 -0.7633
  593SOL    HW1 1778   1.520   1.315   1.516 -0.3397  0.1042  0.9805
  593SOL    HW2 1779   1.409   1.303   1.402  2.8172  0.0595 -0.0412
  594SOL     OW 1780   0.614   1.161   2.844 -0.7127  0.5709  0.3976
  594SOL    HW1 1781   0.607   1.213   2.931 -1.9933 -0.6700  0.5987
  594SOL    HW2 1782   0.693   1.200   2.790  3.4445 -0.0234 -0.3281
  595SOL     OW 1783   1.433   0.764   0.781 -0.5427  0.0754 -0.2966
  595SOL    HW1 1784   1.348   0.704   0.782 -3.0795  0.9645  1.3011
  595SOL    HW2 1785   1.398   0.857   0.760 -0.9031  0.2331  1.3721
  596SOL     OW 1786   0.192   1.140   1.217  0.6696  0.2260  0.1560
  596SOL    HW1 1787   0.242   1.054   1.213 -1.9815  0.5575 -0.4616
  596SOL    HW2 1788   0.239   1.222   1.261 -1.0592 -0.5484 -3.9026
  597SOL     OW 1789   0.697   2.252   1.950  0.1914  1.0366 -0.2181
  597SOL    HW1 1790   0.636   2.328   1.949  1.9485 -1.1046  0.7649
  597SOL    HW2 1791   0.670   2.183   1.877 -0.2971 -2.4066 -2.2817
  598SOL     OW 1792   1.972   2.451   2.167  0.1018  0.2572 -0.4299
  598SOL    HW1 1793   1.907   2.531   2.186  0.5639  1.4126  0.9296
  598SOL    HW2 1794   1.968   2.387   2.248  2.9479  0.8578  1.1088
  599SOL     OW 1795   0.987   1.066   0.336 -0.5961 -0.5652  0.3141
  599SOL    HW1 1796   1.019   1.149   0.389 -1.1837 -1.9637 -2.0968
  599SOL    HW2 1797   0.982   1.079   0.236 -0.0618 -1.5990 -1.0932
  600SOL     OW 1798   1.447   0.610   0.134  0.5193 -0.0483 -0.0267
  600SOL    HW1 1799   1.344   0.623   0.111 -1.3971  0.5280  1.5146
  600SOL    HW2 1800   1.461   0.519   0.174 -0.6863  0.5554  2.3018
  601SOL     OW 1801   0.961   0.465   1.473 -0.2671  0.1403  0.5451
  601SOL    HW1 1802   1.002   0.473   1.566 -0.0022  0.1885 -2.5337
  601SOL    HW2 1803   0.887   0.395   1.467  4.0839 -1.1278 -0.4497
  602SOL     OW 1804   0.521   2.270   0.767 -0.1565 -0.0920 -0.4977
  602SOL    HW1 1805   0.444   2.242   0.707 -0.0371 -1.4986 -0.0071
  602SOL    HW2 1806   0.507   2.358   0.817 -1.2159  0.3904  1.6505
  603SOL     OW 1807   0.968   2.261   2.356 -0.2182  0.1408  0.1728
  603SOL    HW1 1808   0.968   2.337   2.290 -0.4276 -2.0180  0.9201
  603SOL    HW2 1809   0.874   2.238   2.378  2.4886 -0.4099 -0.3119
  604SOL     OW 1810   0.344   2.226   0.414  0.2489 -0.2141  0.5169
  604SOL    HW1 1811   0.342   2.191   0.507  1.1919  1.0228  0.9047
  604SOL    HW2 1812   0.329   2.151   0.347 -1.7506 -0.8305  0.2526
  605SOL     OW 1813   1.926   1.381   1.877 -0.2500  0.0484  0.3886
  605SOL    HW1 1814   1.886   1.316   1.806 -0.4334 -2.4468 -2.6335
  605SOL    HW2 1815   1.951   1.471   1.833 -1.6977 -1.9096  1.7343
  606SOL     OW 1816   1.047   0.953   2.842 -0.5850  0.4496 -0.4747
  606SOL    HW1 1817   0.951   0.939   2.871 -1.1166 -1.2699  0.1519
  606SOL    HW2 1818   1.104   1.002   2.912 -0.5944 -0.2325  0.0348
  607SOL     OW 1819   1.234   0.931   1.016  0.1322  0.2141  0.0104
  607SOL    HW1 1820   1.260   1.027   0.986 -0.9627  1.6898  3.0088
  607SOL    HW2 1821   1.133   0.916   1.010 -1.2020  1.3257 -0.7153
  608SOL     OW 1822   2.857   2.261   1.959 -0.6128 -0.3558 -0.2091
  608SOL    HW1 1823   2.838   2.217   1.869 -1.9068 -1.3611  0.0963
  608SOL    HW2 1824   2.844   2.192   2.029  0.2312  0.2886 -3.0534
  609SOL     OW 1825   2.303   0.033   0.313  0.1661 -0.2671 -0.2260
  609SOL    HW1 1826   2.382   0.020   0.245 -0.3198  0.3413 -3.5933
  609SOL    HW2 1827   2.219   3.070   0.290 -0.1761 -0.3040 -0.2118
  610SOL     OW 1828   0.197   2.232   1.302  0.2355  0.0415  0.3865
  610SOL    HW1 1829   0.146   2.313   1.261  1.3003 -1.0153 -1.9427
  610SOL    HW2 1830   0.210   2.160   1.230  0.2174 -1.2537 -0.7748
  611SOL     OW 1831   1.603   2.104   0.470 -0.3161 -0.4253 -0.3271
  611SOL    HW1 1832   1.699   2.091   0.501  0.1660  1.1764  0.8473
  611SOL    HW2 1833   1.540   2.151   0.539  2.8463  4.0066  0.6786
  612SOL     OW 1834   0.614   0.062   1.774  0.2450  0.4835 -0.9969
  612SOL    HW1 1835   0.705   0.079   1.721  0.7814  2.2455 -0.1794
  612SOL    HW2 1836   0.591   0.149   1.822 -0.3018 -5.9255  0.5374
  613SOL     OW 1837   3.045   1.624   0.503  0.4909 -0.0114 -0.2092
  613SOL    HW1 1838   3.038   1.708   0.562 -0.8930  2.6900  1.8602
  613SOL    HW2 1839   2.971   1.624   0.434  0.5673 -1.7149 -1.9527
  614SOL     OW 1840   1.750   0.632   1.993  0.0017  0.2750  0.6594
  614SOL    HW1 1841   1.780   0.701   2.061  2.1840  0.9585 -3.7132
  614SOL    HW2 1842   1.828   0.616   1.927  1.0120 -2.1699 -4.5097
  615SOL     OW 1843   0.703   1.265   1.152  0.6670  0.0684  0.1371
  615SOL    HW1 1844   0.626   1.291   1.210 -3.3866  3.4963 -1.4369
  615SOL    HW2 1845   0.691   1.317   1.065 -1.3073  0.2400  3.5322
  616SOL     OW 1846   1.667   1.809   0.077  0.1416  0.1243 -0.3217
  616SOL    HW1 1847   1.571   1.830   0.051 -0.5308 -0.7472 -1.9582
  616SOL    HW2 1848   1.737   1.876   0.045 -1.6562  2.5848 -0.4351
  617SOL     OW 1849   2.122   2.927   0.279  0.4418 -0.5157 -0.1931
  617SOL    HW1 1850   2.083   2.939   0.185  0.9966  2.3521  2.3129
  617SOL    HW2 1851   2.200   2.860   0.275 -2.4830  0.6516  0.2617
  618SOL     OW 1852   0.548   0.704   2.383 -0.0076  0.1808 -0.2112
  618SOL    HW1 1853   0.493   0.789   2.361  1.2336  2.0937 -2.2303
  618SOL    HW2 1854   0.649   0.731   2.394  1.5241  2.2912  1.5303
  619SOL     OW 1855   2.811   1.469   1.068  0.2869  0.6708 -0.0052
  619SOL    HW1 1856   2.892   1.404   1.056 -2.2194 -0.1332 -1.2463
  619SOL    HW2 1857   2.734   1.450   1.003 -3.4115  0.7760  0.5781
  620SOL     OW 1858   2.061   2.886   2.874  0.7980 -0.3552  0.1875
  620SOL    HW1 1859   2.136   2.888   2.802  2.1696  0.5288 -2.8756
  620SOL    HW2 1860   1.974   2.932   2.838 -1.7344 -0.1302  0.8746
  621SOL     OW 1861   2.523   1.448   3.070  0.0250  1.0152  0.6610
  621SOL    HW1 1862   2.476   1.440   2.982 -1.1955 -1.4171 -0.0407
  621SOL    HW2 1863   2.525   1.363   0.035 -1.2426  0.0454  0.1892
  622SOL     OW 1864   1.565   2.870   2.028 -0.6339  0.1611 -0.1139
  622SOL    HW1 1865   1.546   2.883   1.932 -0.9836  0.8752  0.7487
  622SOL    HW2 1866   1.505   2.933   2.079  1.3593  0.0738  1.0660
  623SOL     OW 1867   1.216   1.875   0.846 -0.3501  0.2276 -0.0160
  623SOL    HW1 1868   1.149   1.940   0.803 -0.0420  2.0581 -1.9583
  623SOL    HW2 1869   1.308   1.921   0.842 -0.5417  2.5852 -0.3618
  624SOL     OW 1870   0.319   0.064   0.169  0.1915 -0.3391 -0.2370
  624SOL    HW1 1871   0.359   0.033   0.084 -1.8218  1.5553 -0.2995
  624SOL    HW2 1872   0.251   0.138   0.152 -1.2016 -0.6171  2.1584
  625SOL     OW 1873   1.084   1.607   0.546  0.6807 -0.5484  0.2987
  625SOL    HW1 1874   0.994   1.574   0.575  3.6770  0.6636  1.7406
  625SOL    HW2 1875   1.079   1.704   0.523 -2.1089 -2.8907  2.4100
  626SOL     OW 1876   0.193   2.839   0.084 -0.2293 -0.0196  0.5564
  626SOL    HW1 1877   0.188   2.882   0.176 -1.3185  1.5848 -0.9097
  626SOL    HW2 1878   0.257   2.760   0.092 -2.7698 -1.9493 -0.9049
  627SOL     OW 1879   1.206   1.662   2.734 -0.4814  0.4564 -0.5240
  627SOL    HW1 1880   1.156   1.717   2.661 -3.0608 -0.3988 -2.0189
  627SOL    HW2 1881   1.161   1.666   2.826 -2.0195  0.9651  1.0020
  628SOL     OW 1882   0.291   2.912   2.803  0.7992  0.3943  0.2335
  628SOL    HW1 1883   0.336   2.954   2.884  0.5731 -1.2341  2.3092
  628SOL    HW2 1884   0.213   2.846   2.826 -1.3499  0.5013 -0.9470
  629SOL     OW 1885   0.386   2.957   2.300  0.2960 -0.4894  0.0663
  629SOL    HW1 1886   0.477   2.921   2.264 -0.6889 -2.7072 -0.5804
  629SOL    HW2 1887   0.307   2.911   2.252  2.2903 -0.0324 -0.0775
  630SOL     OW 1888   1.308   1.257   1.750  0.1860  0.3703  0.3964
  630SOL    HW1 1889   1.356   1.272   1.664 -3.9842 -1.0072  0.2435
  630SOL    HW2 1890   1.231   1.192   1.734  0.0649 -1.7565  0.7542
  631SOL     OW 1891   2.246   1.100   0.512 -0.4377  0.0826  0.0686
  631SOL    HW1 1892   2.331   1.153   0.533 -0.5375 -1.6349 -1.1088
  631SOL    HW2 1893   2.262   1.031   0.436  2.4800  1.4231  1.1944
  632SOL     OW 1894   2.452   0.592   2.033  0.8299  0.2196  0.2468
  632SOL    HW1 1895   2.449   0.676   2.087  2.3786 -1.4276  1.2055
  632SOL    HW2 1896   2.439   0.511   2.095  0.5321 -3.7141  0.4803
  633SOL     OW 1897   0.862   1.916   0.309  0.4556  0.1019  0.2513
  633SOL    HW1 1898   0.875   2.004   0.251  3.1069  0.4348  0.1108
  633SOL    HW2 1899   0.930   1.915   0.387 -0.6331 -0.1060 -0.7099
  634SOL     OW 1900   1.557   2.669   2.575 -0.0056  0.1464 -0.9722
  634SOL    HW1 1901   1.507   2.670   2.490 -1.8245 -0.3919  3.6829
  634SOL    HW2 1902   1.645   2.618   2.577  2.6237 -0.5414 -1.9345
  635SOL     OW 1903   2.010   0.376   0.065 -0.1097 -0.0617 -0.0436
  635SOL    HW1 1904   2.070   0.310   0.020  0.0467  0.0898  2.9106
  635SOL    HW2 1905   2.000   0.359   0.163 -1.4337 -0.7471 -3.2659
  636SOL     OW 1906   0.873   1.446   0.642  0.3520  0.5631  0.0950
  636SOL    HW1 1907   0.778   1.413   0.615 -3.5349 -1.4929  0.5525
  636SOL    HW2 1908   0.936   1.364   0.655 -1.1574 -0.4106 -1.4096
  637SOL     OW 1909   0.064   2.055   0.727 -0.1339 -0.2728 -0.2689
  637SOL    HW1 1910   3.072   2.108   0.750 -1.2492  0.9719 -0.8918
  637SOL    HW2 1911   0.040   1.956   0.724 -0.3821  0.7529  0.3160
  638SOL     OW 1912   0.878   2.837   2.590  0.1814  0.2434  0.2250
  638SOL    HW1 1913   0.905   2.849   2.687 -1.2660  1.4945  1.5877
  638SOL    HW2 1914   0.944   2.871   2.521  0.2115 -0.5987  1.1180
  639SOL     OW 1915   1.408   1.879   0.061 -0.5273  0.4541 -0.4986
  639SOL    HW1 1916   1.336   1.838   3.088  0.4868 -0.1211  0.7658
  639SOL    HW2 1917   1.381   1.863   0.159  2.1763 -2.0230 -1.3836
  640SOL     OW 1918   1.942   2.881   0.792 -0.7228 -0.3479  0.2070
  640SOL    HW1 1919   1.998   2.908   0.709 -1.7900  1.0087  0.1484
  640SOL    HW2 1920   1.963   2.788   0.822 -0.9064  1.1172  0.3632
  641SOL     OW 1921   3.010   2.853   0.523  0.7050 -0.4711  0.1337
  641SOL    HW1 1922   3.066   2.770   0.508  0.6918  2.5694  2.0924
  641SOL    HW2 1923   3.026   2.921   0.449  0.3370  1.8124  0.5229
  642SOL     OW 1924   1.085   0.038   1.472 -0.4640  0.4114 -0.4535
  642SOL    HW1 1925   1.020   0.017   1.394 -0.6398 -1.4604 -0.6144
  642SOL    HW2 1926   1.131   0.131   1.453 -1.0229 -0.4326  0.7361
  643SOL     OW 1927   0.330   1.935   1.990  0.5103  0.0708 -0.4332
  643SOL    HW1 1928   0.417   1.886   2.011 -1.5062  0.4640  0.1783
  643SOL    HW2 1929   0.355   2.014   1.930 -1.1067 -1.5301  2.5835
  644SOL     OW 1930   0.710   2.774   0.326  0.5845  0.3369 -0.0936
  644SOL    HW1 1931   0.639   2.820   0.380  0.0366  1.0416  0.1234
  644SOL    HW2 1932   0.675   2.737   0.236  0.5786  1.6212 -2.4087
  645SOL     OW 1933   1.544   2.105   3.032 -0.2886 -0.2058  0.2377
  645SOL    HW1 1934   1.524   2.172   2.960 -2.0669  1.1607  0.4030
  645SOL    HW2 1935   1.471   2.041   3.059  2.1493  1.5013 -0.8045
  646SOL     OW 1936   0.585   1.340   3.043  0.3358 -0.0915 -0.1864
  646SOL    HW1 1937   0.489   1.351   3.072  0.7137  0.8177 -0.0003
  646SOL    HW2 1938   0.618   1.421   2.995 -2.1368 -0.2875  3.6905
  647SOL     OW 1939   0.783   0.105   0.859 -0.0718 -0.1685  0.3502
  647SOL    HW1 1940   0.700   0.159   0.873  3.5986 -1.7082  1.2316
  647SOL    HW2 1941   0.867   0.160   0.882  0.0665  0.6414  2.6742
  648SOL     OW 1942   2.000   0.343   1.681 -0.0152 -0.3936  0.1887
  648SOL    HW1 1943   1.936   0.417   1.654  0.3215  1.1702  3.2749
  648SOL    HW2 1944   2.092   0.378   1.660  1.5727  1.2859 -1.9818
  649SOL     OW 1945   1.122   1.871   2.504 -0.2282 -0.0605 -0.1638
  649SOL    HW1 1946   1.056   1.939   2.548 -0.4791  2.8953  1.7846
  649SOL    HW2 1947   1.072   1.818   2.432 -0.1580  0.3378 -1.1525
  650SOL     OW 1948   2.627   1.869   1.675 -0.0780  0.0745 -0.1693
  650SOL    HW1 1949   2.558   1.864   1.601 -1.1751  0.1821 -0.5519
  650SOL    HW2 1950   2.678   1.781   1.679 -2.3888 -1.6503  1.0615
  651SOL     OW 1951   1.211   0.163   0.095  0.2083  0.3256  0.0502
  651SOL    HW1 1952   1.239   0.071   0.057 -3.2766 -1.5463 -1.1845
  651SOL    HW2 1953   1.268   0.183   0.176 -0.2945 -2.0907 -0.2823
  652SOL     OW 1954   3.006   1.653   0.034 -0.2929 -0.0214 -0.1369
  652SOL    HW1 1955   2.925   1.605   0.004  1.3704 -1.3765  2.4744
  652SOL    HW2 1956   3.023   1.739   3.070  0.4622  0.2234 -0.9841
  653SOL     OW 1957   0.055   0.228   1.015  0.6710  0.0820 -0.6885
  653SOL    HW1 1958   0.031   0.215   1.113 -1.1417 -1.7380  5.4026
  653SOL    HW2 1959   0.065   0.326   0.990 -3.8351  1.2357 -4.1975
  654SOL     OW 1960   2.083   0.027   2.611 -0.3568  0.0112  0.1426
  654SOL    HW1 1961   2.038   0.025   2.518 -1.9989 -0.2503  1.6697
  654SOL    HW2 1962   2.129   3.030   2.631 -2.7020 -0.5192  1.5225
  655SOL     OW 1963   0.463   2.451   0.976  0.1802  0.0041  0.5350
  655SOL    HW1 1964   0.436   2.548   1.001 -3.0872  2.5391  3.4578
  655SOL    HW2 1965   0.468   2.399   1.062 -0.8352 -1.3249  0.8570
  656SOL     OW 1966   0.159   2.845   2.161 -0.7906 -0.5666 -0.4237
  656SOL    HW1 1967   0.116   2.924   2.117 -0.6412 -0.2322  0.3584
  656SOL    HW2 1968   0.083   2.785   2.190 -1.6166  1.4788 -1.0183
  657SOL     OW 1969   2.305   0.359   2.438 -0.7621 -0.4483  0.6138
  657SOL    HW1 1970   2.211   0.385   2.470 -0.8025 -0.9401 -0.9755
  657SOL    HW2 1971   2.342   0.280   2.485 -0.4813 -1.1232 -0.5225
  658SOL     OW 1972   2.166   1.809   1.156  0.3029  0.5935 -0.5883
  658SOL    HW1 1973   2.098   1.740   1.182 -1.9308 -0.0587 -1.1517
  658SOL    HW2 1974   2.156   1.894   1.210 -1.8253 -1.2190 -0.9562
  659SOL     OW 1975   2.216   0.193   3.061 -0.5771  0.0686  0.0140
  659SOL    HW1 1976   2.300   0.235   0.005 -2.5766 -0.2989 -1.1625
  659SOL    HW2 1977   2.222   0.093   3.051 -1.9301  0.1486  0.6220
  660SOL     OW 1978   1.427   1.505   3.054  0.5004 -0.4844 -0.3070
  660SOL    HW1 1979   1.480   1.584   3.020  0.1559 -2.9820 -2.4205
  660SOL    HW2 1980   1.392   1.523   0.055 -1.3959 -0.4847 -0.9105
  661SOL     OW 1981   2.345   2.478   1.020 -0.1590 -0.5941  0.0421
  661SOL    HW1 1982   2.404   2.443   0.938 -0.4753 -0.1089 -0.2951
  661SOL    HW2 1983   2.380   2.436   1.112 -0.3846 -1.1707  0.2304
  662SOL     OW 1984   0.679   0.726   0.275  0.0282 -0.5080  0.2203
  662SOL    HW1 1985   0.750   0.662   0.242 -1.8292  2.5467 -0.9852
  662SOL    HW2 1986   0.721   0.794   0.340  0.6889  0.5449  0.1665
  663SOL     OW 1987   1.888   2.246   0.264 -0.2319  0.3592 -0.2283
  663SOL    HW1 1988   1.827   2.248   0.185  0.3147  1.9051  3.2881
  663SOL    HW2 1989   1.984   2.276   0.242  1.5181 -1.2495 -0.5049
  664SOL     OW 1990   0.901   2.066   1.398 -0.0586 -0.5820  0.1932
  664SOL    HW1 1991   0.853   2.135   1.335  1.1477  1.2162 -3.3366
  664SOL    HW2 1992   0.921   2.099   1.495  2.0669 -2.2656  1.7469
  665SOL     OW 1993   1.825   2.157   1.776 -0.8395  0.3880  0.3273
  665SOL    HW1 1994   1.786   2.230   1.715 -0.9323  0.5591  0.0286
  665SOL    HW2 1995   1.756   2.088   1.794  0.4254 -0.6569  0.8928
  666SOL     OW 1996   0.515   2.423   0.288 -0.3544  0.2490 -0.4389
  666SOL    HW1 1997   0.583   2.469   0.348  0.7539  2.1176  1.0927
  666SOL    HW2 1998   0.467   2.351   0.340  0.0778  4.5121  0.7342
  667SOL     OW 1999   2.195   1.345   1.999 -0.0921  0.8249  0.3781
  667SOL    HW1 2000   2.190   1.303   2.093 -1.7846 -0.8920  1.7613
  667SOL    HW2 2001   2.104   1.373   1.965  2.8457  0.6100 -1.9563
  668SOL     OW 2002   0.410   0.494   2.502 -0.0050 -0.0444  0.3073
  668SOL    HW1 2003   0.472   0.568   2.457  2.3147  1.4056  0.3856
  668SOL    HW2 2004   0.454   0.403   2.490  1.4974 -0.3263  0.9777
  669SOL     OW 2005   1.660   2.253   2.799 -0.0274 -0.2259  0.5803
  669SOL    HW1 2006   1.565   2.284   2.767 -0.5521 -0.1934 -1.2916
  669SOL    HW2 2007   1.712   2.220   2.715  0.2295 -0.3046 -1.0068
  670SOL     OW 2008   2.427   2.190   2.800 -0.1946 -0.3792  0.0850
  670SOL    HW1 2009   2.447   2.287   2.820 -0.1561 -0.0510 -2.1764
  670SOL    HW2 2010   2.360   2.183   2.723 -0.0579  1.1919  1.2780
  671SOL     OW 2011   0.474   1.049   1.252  0.1429  0.2964  0.1651
  671SOL    HW1 2012   0.406   0.971   1.251 -0.2066  0.8126 -2.0158
  671SOL    HW2 2013   0.547   1.033   1.324  1.1610 -1.0674  3.6392
  672SOL     OW 2014   2.428   0.839   2.210 -0.4920 -0.1758 -0.1406
  672SOL    HW1 2015   2.354   0.903   2.179 -1.5814 -0.1492 -0.4359
  672SOL    HW2 2016   2.451   0.850   2.311  0.6543  0.0400 -1.0058
  673SOL     OW 2017   2.525   2.846   1.901  0.1768 -0.2949  0.3594
  673SOL    HW1 2018   2.621   2.812   1.894  1.1172 -3.1852 -0.0669
  673SOL    HW2 2019   2.456   2.775   1.886 -0.8199  3.5731 -2.4296
  674SOL     OW 2020   1.298   2.403   2.176  0.0209  0.2916  0.4307
  674SOL    HW1 2021   1.263   2.306   2.157 -0.4382 -3.4683  2.0708
  674SOL    HW2 2022   1.261   2.476   2.119  0.3671  3.8202  1.0724
  675SOL     OW 2023   0.683   1.007   1.693  0.1913 -0.3525 -0.1060
  675SOL    HW1 2024   0.744   0.932   1.711 -0.7311  3.2151  1.0417
  675SOL    HW2 2025   0.691   1.038   1.591  0.0242  0.2013 -1.9830
  676SOL     OW 2026   1.937   0.873   0.749 -0.0985 -0.4810 -0.3603
  676SOL    HW1 2027   1.855   0.814   0.759 -0.7791  1.0782  1.3853
  676SOL    HW2 2028   1.939   0.923   0.660 -0.8492  1.4935  1.0636
  677SOL     OW 2029   2.685   1.599   2.531  0.2500  0.1055 -0.0910
  677SOL    HW1 2030   2.591   1.641   2.524  0.8837 -1.7983  0.3490
  677SOL    HW2 2031   2.752   1.651   2.482 -1.1473  0.1273  0.5555
  678SOL     OW 2032   2.626   2.039   1.017  0.0623 -0.5682 -0.0572
  678SOL    HW1 2033   2.653   2.105   1.085 -2.0547 -2.4946 -1.7693
  678SOL    HW2 2034   2.561   1.972   1.057  0.8295 -0.8766 -1.3763
  679SOL     OW 2035   1.515   2.714   0.691  0.1409 -0.2043 -0.4359
  679SOL    HW1 2036   1.555   2.624   0.716  0.0684 -0.3155 -0.4692
  679SOL    HW2 2037   1.582   2.777   0.641  1.7058 -0.0677 -1.0921
  680SOL     OW 2038   0.188   2.563   2.415 -0.1227 -0.6037 -0.4236
  680SOL    HW1 2039   0.268   2.617   2.453  0.9736  1.0769  0.1643
  680SOL    HW2 2040   0.230   2.500   2.347 -1.6649 -0.8994  2.0451
  681SOL     OW 2041   2.766   1.357   1.716 -0.1082 -0.1172 -0.7890
  681SOL    HW1 2042   2.861   1.323   1.735  0.8596  0.8856 -0.0429
  681SOL    HW2 2043   2.687   1.317   1.778 -0.2925  2.2780 -1.8114
  682SOL     OW 2044   0.406   1.896   1.339  0.6926  0.0978 -0.3379
  682SOL    HW1 2045   0.389   1.968   1.410  0.3332  1.8613  1.8091
  682SOL    HW2 2046   0.500   1.901   1.304 -2.0170  1.2762  0.0244
  683SOL     OW 2047   2.212   1.413   1.378 -0.7525 -0.2574  0.1653
  683SOL    HW1 2048   2.242   1.448   1.288 -0.7944  2.7370 -2.1127
  683SOL    HW2 2049   2.126   1.468   1.401  1.0265  0.0599 -1.6609
  684SOL     OW 2050   2.758   1.570   3.013 -0.0950  0.0328  0.4536
  684SOL    HW1 2051   2.747   1.663   2.970  2.0626 -0.8796 -0.3611
  684SOL    HW2 2052   2.669   1.528   3.051 -1.7278 -0.3033 -1.5544
  685SOL     OW 2053   1.578   1.268   3.082  0.0785 -0.1671  0.2874
  685SOL    HW1 2054   1.532   1.359   3.075  0.3066 -2.5367  0.2707
  685SOL    HW2 2055   1.563   1.217   2.994  0.1615 -1.1362 -0.9608
  686SOL     OW 2056   0.539   0.200   1.325 -0.1305 -0.5157 -0.0862
  686SOL    HW1 2057   0.591   0.291   1.306 -0.4177  0.9780 -0.7610
  686SOL    HW2 2058   0.493   0.210   1.417 -1.4738 -0.5551 -1.0528
  687SOL     OW 2059   0.989   2.009   2.189 -0.2655  0.6070  0.2504
  687SOL    HW1 2060   1.027   2.077   2.255 -0.0648  2.1497  3.0158
  687SOL    HW2 2061   0.987   1.912   2.224 -0.4682 -1.2774  1.3896
  688SOL     OW 2062   0.201   1.763   1.236  0.0196  0.3128 -0.6090
  688SOL    HW1 2063   0.267   1.819   1.290  0.9528  1.6125  1.1014
  688SOL    HW2 2064   0.196   1.791   1.138 -0.4859  0.0542 -0.4252
  689SOL     OW 2065   1.496   0.759   1.553  0.0870  0.2952  0.2302
  689SOL    HW1 2066   1.518   0.856   1.571  1.4736 -0.0541 -0.4959
  689SOL    HW2 2067   1.581   0.716   1.511 -0.0912 -3.9748  0.1329
  690SOL     OW 2068   2.687   0.989   1.054 -0.1323  0.0192 -0.1226
  690SOL    HW1 2069   2.646   0.946   0.973  2.3140  1.6575  0.7722
  690SOL    HW2 2070   2.777   1.029   1.029  0.3630 -1.4750  0.1402
  691SOL     OW 2071   0.381   2.139   1.805  0.0370  0.6689 -0.3743
  691SOL    HW1 2072   0.342   2.214   1.863  0.1823 -0.3242  0.4202
  691SOL    HW2 2073   0.342   2.140   1.711 -1.3236  1.5144  1.2436
  692SOL     OW 2074   1.982   0.010   1.018  0.2368 -0.5902 -0.1680
  692SOL    HW1 2075   2.013   3.038   0.949 -2.9274  3.1007  2.5740
  692SOL    HW2 2076   1.990   0.102   0.972 -0.3893 -1.1763  3.0285
  693SOL     OW 2077   0.206   1.452   2.409  0.0970 -0.4578  0.0071
  693SOL    HW1 2078   0.260   1.531   2.435  0.1356  1.0003 -0.6695
  693SOL    HW2 2079   0.128   1.468   2.343  2.3312 -2.2994  0.0901
  694SOL     OW 2080   2.239   0.658   1.241  0.0836 -0.4562 -0.1536
  694SOL    HW1 2081   2.337   0.633   1.246 -0.9394 -1.7496 -4.3589
  694SOL    HW2 2082   2.222   0.759   1.236  0.2412  2.0280 -0.2097
  695SOL     OW 2083   1.044   1.572   1.904 -0.4111  0.6180 -0.1315
  695SOL    HW1 2084   1.125   1.564   1.839 -0.0302  1.8198 -0.3589
  695SOL    HW2 2085   1.000   1.478   1.916  0.6767  0.2881  1.3158
  696SOL     OW 2086   1.052   2.848   0.077  0.6116  0.4591  0.0418
  696SOL    HW1 2087   1.066   2.756   0.117  1.6774  2.1528 -0.5633
  696SOL    HW2 2088   1.139   2.901   0.072  3.0403 -1.0109 -2.1676
  697SOL     OW 2089   1.003   0.275   0.937  0.2232 -0.2426 -0.2139
  697SOL    HW1 2090   0.990   0.362   0.894 -0.6669 -3.2643  2.0154
  697SOL    HW2 2091   1.102   0.253   0.960  1.3516 -1.3574 -0.9645
  698SOL     OW 2092   1.278   1.456   2.291  0.6828  0.1960  0.1287
  698SOL    HW1 2093   1.272   1.475   2.394 -0.8632  2.4739  0.4460
  698SOL    HW2 2094   1.225   1.376   2.262  0.0831  1.3432 -0.4900
  699SOL     OW 2095   1.434   0.736   1.054  0.2044 -0.1743 -0.4013
  699SOL    HW1 2096   1.345   0.786   1.067 -0.2390  0.7313 -0.9216
  699SOL    HW2 2097   1.472   0.744   0.960 -0.3149 -0.2433  0.3415
  700SOL     OW 2098   0.942   2.739   0.468 -0.3147 -0.4302 -0.3836
  700SOL    HW1 2099   0.862   2.758   0.402 -0.4945 -0.0612 -2.2392
  700SOL    HW2 2100   0.995   2.825   0.476  2.1815  1.3201  1.8977
  701SOL     OW 2101   2.513   2.902   2.594 -0.2106  0.3578  0.1274
  701SOL    HW1 2102   2.566   2.820   2.575  1.1188  0.8940  0.9815
  701SOL    HW2 2103   2.549   2.980   2.538  0.8584 -1.8276 -0.5640
  702SOL     OW 2104   1.094   0.363   3.022  0.0339 -0.8454 -0.4296
  702SOL    HW1 2105   1.106   0.292   3.092 -0.0140  0.0295 -1.5770
  702SOL    HW2 2106   1.104   0.454   3.062 -1.7517 -3.0118 -1.2271
  703SOL     OW 2107   2.465   0.049   2.382  0.0736  0.0204 -0.5414
  703SOL    HW1 2108   2.382   0.050   2.321  0.4893  0.2086 -3.4715
  703SOL    HW2 2109   2.548   0.023   2.324  1.3659 -0.9091 -0.6316
  704SOL     OW 2110   2.951   1.852   0.706  0.1106 -0.0451  0.4041
  704SOL    HW1 2111   2.887   1.883   0.636 -0.4688  1.1385 -1.0716
  704SOL    HW2 2112   2.927   1.894   0.801 -1.1168  3.2881  2.6275
  705SOL     OW 2113   2.965   3.084   2.240 -0.1657 -0.3053  0.0379
  705SOL    HW1 2114   3.058   0.026   2.204  0.0368  0.6891 -2.4243
  705SOL    HW2 2115   2.923   3.022   2.170 -0.7379 -0.3991 -2.1146
  706SOL     OW 2116   1.834   2.647   0.590 -0.4941 -0.5407  0.2093
  706SOL    HW1 2117   1.909   2.609   0.646 -2.0012 -1.3641 -3.9479
  706SOL    HW2 2118   1.814   2.584   0.510  1.2827 -3.7088 -1.8335
  707SOL     OW 2119   0.841   1.860   1.917  0.0401 -0.0317 -0.1436
  707SOL    HW1 2120   0.848   1.847   2.020  0.3687  1.0553  2.5320
  707SOL    HW2 2121   0.815   1.772   1.872 -0.9695 -1.6827 -0.8181
  708SOL     OW 2122   3.068   2.271   1.461  0.2283  0.5935 -0.4178
  708SOL    HW1 2123   0.062   2.244   1.416  0.9474 -1.1906 -3.2639
  708SOL    HW2 2124   3.077   2.264   1.565 -0.9672 -0.1823  2.0968
  709SOL     OW 2125   2.147   3.013   1.847  0.7004  0.2127  0.1844
  709SOL    HW1 2126   2.148   2.910   1.853 -0.2778  0.1131  2.4584
  709SOL    HW2 2127   2.239   3.048   1.855 -0.3711 -1.8199  1.0604
  710SOL     OW 2128   1.972   0.894   2.458  0.1301  0.5111  0.4616
  710SOL    HW1 2129   2.023   0.982   2.448  4.1167 -2.3275 -2.6264
  710SOL    HW2 2130   2.035   0.812   2.449  0.4112 -0.2207 -2.1110
  711SOL     OW 2131   1.123   2.113   3.059 -0.2991  0.1752  0.0500
  711SOL    HW1 2132   1.172   2.095   0.057 -0.4355 -0.6942  3.1476
  711SOL    HW2 2133   1.165   2.198   3.014 -1.0899  1.1365  1.5251
  712SOL     OW 2134   0.698   2.225   2.449 -0.1721  0.2579  0.1613
  712SOL    HW1 2135   0.648   2.135   2.470 -0.9846 -2.6058 -1.9664
  712SOL    HW2 2136   0.638   2.296   2.480  0.0773 -1.1464  0.7653
  713SOL     OW 2137   1.858   1.300   3.050  0.0496 -0.3820  0.0518
  713SOL    HW1 2138   1.757   1.310   3.055  0.0948  0.2110  0.8625
  713SOL    HW2 2139   1.907   1.333   0.047  0.8789 -1.1815  2.0973
  714SOL     OW 2140   0.968   1.609   1.584  0.6546 -0.1604  0.0278
  714SOL    HW1 2141   0.909   1.636   1.668 -0.7929 -1.5440  2.0914
  714SOL    HW2 2142   0.983   1.689   1.522 -0.7291  1.4224  0.6031
  715SOL     OW 2143   1.574   0.335   3.073 -0.7016 -0.2910 -0.0459
  715SOL    HW1 2144   1.643   0.408   3.058 -2.8664  0.5993 -3.7002
  715SOL    HW2 2145   1.599   0.270   0.058  0.8990  0.3059 -0.1760
  716SOL     OW 2146   2.902   2.856   2.090 -0.1065  0.6249 -0.4883
  716SOL    HW1 2147   2.886   2.861   1.989  0.0378  0.6840  0.8075
  716SOL    HW2 2148   2.953   2.768   2.113  0.9410  0.8867  1.6446
  717SOL     OW 2149   0.101   0.750   0.994 -0.1161  0.3524  0.0473
  717SOL    HW1 2150   0.067   0.767   0.901  0.1138  2.0610 -2.1692
  717SOL    HW2 2151   0.077   0.834   1.052  0.0841  2.3999  0.2090
  718SOL     OW 2152   0.499   1.251   2.394 -0.0921  0.1789 -0.2728
  718SOL    HW1 2153   0.535   1.343   2.421  2.0646  1.3279  0.7496
  718SOL    HW2 2154   0.485   1.257   2.291  3.5016  1.3592  1.3861
  719SOL     OW 2155   2.487   1.237   0.137 -0.0958  0.0608 -0.4705
  719SOL    HW1 2156   2.390   1.233   0.117 -0.4574 -1.4841  1.4140
  719SOL    HW2 2157   2.529   1.148   0.130 -0.5616  2.4231  3.9462
  720SOL     OW 2158   0.959   0.840   0.927 -0.0837  0.0986  0.0054
  720SOL    HW1 2159   0.950   0.737   0.923 -1.6435  0.8354  2.0064
  720SOL    HW2 2160   0.896   0.885   0.994  1.3323  0.6721 -1.0879
  721SOL     OW 2161   2.637   0.299   0.424  0.4443 -0.1293 -0.2067
  721SOL    HW1 2162   2.654   0.320   0.327  0.3116  1.2978  0.5123
  721SOL    HW2 2163   2.658   0.198   0.436  1.7605 -1.1124  3.0435
  722SOL     OW 2164   1.970   0.699   2.736 -0.2227 -0.1559 -0.4994
  722SOL    HW1 2165   2.050   0.741   2.784 -0.6644  0.2122  0.4488
  722SOL    HW2 2166   1.990   0.628   2.669 -2.4017  0.7494  2.3246
  723SOL     OW 2167   2.731   0.541   0.513 -0.4928  0.1064  0.1351
  723SOL    HW1 2168   2.692   0.450   0.495 -0.7138 -1.9172 -1.6326
  723SOL    HW2 2169   2.787   0.535   0.598  0.7023  0.2642 -0.4068
  724SOL     OW 2170   0.750   1.608   2.125 -0.0087 -0.1038  0.1027
  724SOL    HW1 2171   0.783   1.561   2.210  0.7013 -0.4975  2.4394
  724SOL    HW2 2172   0.737   1.536   2.052  0.5947  2.2465  1.9247
  725SOL     OW 2173   1.822   0.455   1.510 -0.1452 -0.1930  0.1274
  725SOL    HW1 2174   1.797   0.542   1.472  1.4898 -0.4122 -0.7740
  725SOL    HW2 2175   1.851   0.390   1.437 -0.3077 -0.5997 -0.1525
  726SOL     OW 2176   1.668   2.870   0.529  0.1313 -0.3094 -0.4966
  726SOL    HW1 2177   1.738   2.800   0.522 -1.7436  2.1545  1.2189
  726SOL    HW2 2178   1.591   2.858   0.464 -1.1598  2.3140  1.9523
  727SOL     OW 2179   1.673   1.881   2.351  0.1128 -0.1807  0.0870
  727SOL    HW1 2180   1.713   1.870   2.443  2.1234  0.5173 -0.9868
  727SOL    HW2 2181   1.570   1.879   2.354  2.0337 -3.1757 -0.5330
  728SOL     OW 2182   2.133   2.959   1.551 -0.8530 -0.4903 -0.8880
  728SOL    HW1 2183   2.082   3.039   1.592 -1.2565 -0.5539  1.7119
  728SOL    HW2 2184   2.067   2.879   1.529 -2.9231 -1.2918 -2.1488
  729SOL     OW 2185   2.155   1.182   0.793 -0.3590 -0.1192 -0.3722
  729SOL    HW1 2186   2.076   1.244   0.792  0.9091 -0.2130 -1.2371
  729SOL    HW2 2187   2.185   1.171   0.697 -0.3550  0.2225  0.8336
  730SOL     OW 2188   0.402   1.139   2.630 -0.0844 -0.0320 -0.4103
  730SOL    HW1 2189   0.477   1.130   2.695 -2.2575 -2.0204  1.3405
  730SOL    HW2 2190   0.438   1.171   2.539  2.2236  0.7795 -1.2057
  731SOL     OW 2191   0.132   0.045   0.842 -0.0057 -0.4919 -0.0120
  731SOL    HW1 2192   0.173   0.093   0.763 -2.0808  1.0365 -2.3611
  731SOL    HW2 2193   0.104   0.119   0.913 -0.0492  0.3948  0.7806
  732SOL     OW 2194   1.373   0.864   0.238 -0.4912  0.5398 -0.2879
  732SOL    HW1 2195   1.275   0.842   0.249  0.9343 -1.4501  0.6474
  732SOL    HW2 2196   1.424   0.785   0.202 -2.1630 -1.0594  1.0379
  733SOL     OW 2197   0.610   1.735   0.973 -0.7361 -0.4927 -0.2438
  733SOL    HW1 2198   0.685   1.673   0.944 -0.4953  1.9441 -0.6247
  733SOL    HW2 2199   0.528   1.728   0.910 -2.6796 -0.4211 -0.9076
  734SOL     OW 2200   0.015   2.582   0.417  0.5360 -0.2364 -0.2131
  734SOL    HW1 2201   3.089   2.611   0.322  1.1666  0.8045  2.5169
  734SOL    HW2 2202   3.017   2.546   0.460 -3.2793  4.9237 -1.9909
  735SOL     OW 2203   1.340   0.440   0.908 -0.2350 -0.2559  0.3895
  735SOL    HW1 2204   1.315   0.344   0.932 -0.0251 -3.0654  0.4536
  735SOL    HW2 2205   1.441   0.459   0.916  0.6939  1.7311 -3.2501
  736SOL     OW 2206   2.426   2.368   3.072 -0.1573  0.1292 -0.1860
  736SOL    HW1 2207   2.372   2.373   0.066  1.0971  0.3801  0.3081
  736SOL    HW2 2208   2.483   2.283   3.071  0.2637 -0.0682 -0.2061
  737SOL     OW 2209   3.059   0.891   0.803  0.2146 -0.4396  0.3441
  737SOL    HW1 2210   3.035   0.972   0.861 -2.1014 -0.2573 -2.2651
  737SOL    HW2 2211   0.026   0.917   0.726  0.4083  0.4084  0.2251
  738SOL     OW 2212   2.911   0.076   1.196  0.1787  0.0891  0.7241
  738SOL    HW1 2213   2.979   0.148   1.221 -0.5053 -0.4870  0.9708
  738SOL    HW2 2214   2.945   3.072   1.211 -1.7939 -0.2002  2.1244
  739SOL     OW 2215   1.411   2.413   0.099  0.5455  0.1655  0.3771
  739SOL    HW1 2216   1.471   2.336   0.137 -1.5885  2.2712 -0.2479
  739SOL    HW2 2217   1.349   2.450   0.168 -1.0233 -0.9692  0.2062
  740SOL     OW 2218   1.679   0.352   1.118  0.0762 -0.1558  0.4953
  740SOL    HW1 2219   1.662   0.288   1.192 -2.3182  0.2945 -0.7270
  740SOL    HW2 2220   1.639   0.309   1.029  0.5902 -3.9646 -4.4624
  741SOL     OW 2221   2.845   1.181   0.757  0.4284 -0.5576 -0.4342
  741SOL    HW1 2222   2.890   1.161   0.848 -1.4610  2.8114 -0.0197
  741SOL    HW2 2223   2.744   1.167   0.747  1.8960  0.9145  0.1592
  742SOL     OW 2224   0.614   1.469   2.540  0.0493 -0.2063 -0.5511
  742SOL    HW1 2225   0.677   1.427   2.607  0.8274  0.2368 -0.1279
  742SOL    HW2 2226   0.591   1.564   2.575  0.9372  1.8195 -0.9435
  743SOL     OW 2227   1.377   0.589   2.073  0.3173 -0.3885  0.6044
  743SOL    HW1 2228   1.364   0.687   2.040 -0.0252  0.1027 -0.2466
  743SOL    HW2 2229   1.447   0.547   2.010  2.2394 -1.9620 -0.8538
  744SOL     OW 2230   2.155   0.946   1.549  0.1257 -0.1632  0.1519
  744SOL    HW1 2231   2.212   0.958   1.467 -0.3421 -1.1142 -0.6803
  744SOL    HW2 2232   2.129   1.039   1.574  2.5728  1.4828 -0.8412
  745SOL     OW 2233   1.261   1.520   1.737 -0.0025 -0.3074  0.0929
  745SOL    HW1 2234   1.230   1.541   1.641  0.8721  0.1795 -3.8513
  745SOL    HW2 2235   1.279   1.421   1.748 -0.5070 -1.7142  0.0633
  746SOL     OW 2236   1.963   1.623   1.102 -0.2402 -0.1598 -0.1020
  746SOL    HW1 2237   1.958   1.584   1.195 -1.2660  2.0147 -2.6367
  746SOL    HW2 2238   2.017   1.560   1.044 -2.5508 -0.0271  3.1040
  747SOL     OW 2239   2.288   1.535   1.101  0.0232 -0.6553 -0.8727
  747SOL    HW1 2240   2.292   1.634   1.109 -0.0320 -0.4977  0.0884
  747SOL    HW2 2241   2.227   1.501   1.026  0.6905  2.7869  0.2232
  748SOL     OW 2242   0.710   2.096   0.861 -0.3402  1.0038 -0.3621
  748SOL    HW1 2243   0.643   2.169   0.833 -1.1882  0.1152  0.7929
  748SOL    HW2 2244   0.784   2.132   0.925  1.3414 -0.7861  4.3281
  749SOL     OW 2245   2.308   2.838   2.079  1.2484  0.1259  0.0592
  749SOL    HW1 2246   2.227   2.805   2.022  2.3600  1.7118 -0.8839
  749SOL    HW2 2247   2.385   2.881   2.030  0.5182  1.3554  0.9804
  750SOL     OW 2248   2.461   0.458   0.925 -0.0623 -0.1230 -0.3096
  750SOL    HW1 2249   2.468   0.380   0.861  0.9127  3.2775  0.2515
  750SOL    HW2 2250   2.398   0.528   0.881  1.5059  0.1590 -1.7863
  751SOL     OW 2251   2.791   2.800   0.390 -0.7536 -0.1121  0.3748
  751SOL    HW1 2252   2.874   2.818   0.446  0.5235  1.1964 -0.5899
  751SOL    HW2 2253   2.753   2.890   0.367  4.2528 -0.5679  0.3665
  752SOL     OW 2254   0.019   2.884   0.796 -0.3077  0.1708  0.3860
  752SOL    HW1 2255   3.034   2.890   0.732  1.0341  1.2516  6.4032
  752SOL    HW2 2256   0.070   2.972   0.794  1.1045  0.2834 -1.2084
  753SOL     OW 2257   1.544   0.802   2.217  0.2628  0.3919  0.5122
  753SOL    HW1 2258   1.501   0.817   2.122  1.9294  0.6711  0.6944
  753SOL    HW2 2259   1.471   0.776   2.285 -0.9365  0.3196  1.2403
  754SOL     OW 2260   1.664   1.945   1.865  0.0763  0.0070  0.1372
  754SOL    HW1 2261   1.652   1.868   1.796 -0.9185 -1.3386  0.8655
  754SOL    HW2 2262   1.710   1.912   1.946 -3.3547  0.6619 -0.4444
  755SOL     OW 2263   2.607   0.799   0.864 -0.1911 -0.0833 -0.5000
  755SOL    HW1 2264   2.526   0.744   0.900 -3.7783  1.0180  2.8958
  755SOL    HW2 2265   2.572   0.839   0.771 -0.4166  2.3225 -3.7730
  756SOL     OW 2266   0.776   1.378   2.740  0.5145 -0.4986  0.1893
  756SOL    HW1 2267   0.874   1.356   2.757 -2.1084 -3.8755 -0.9393
  756SOL    HW2 2268   0.741   1.448   2.806 -3.2021 -1.2049  1.3368
  757SOL     OW 2269   1.080   2.999   0.456 -0.0304  0.1595  0.5194
  757SOL    HW1 2270   1.027   3.018   0.540  1.2437 -1.7287 -1.1076
  757SOL    HW2 2271   1.179   3.034   0.453  2.7562  0.9004  1.5946
  758SOL     OW 2272   1.290   2.794   1.072 -0.7767 -0.1395 -0.5527
  758SOL    HW1 2273   1.216   2.862   1.045 -1.3308  1.4629  1.2522
  758SOL    HW2 2274   1.378   2.846   1.094  3.0534  0.0435 -0.4583
  759SOL     OW 2275   0.258   0.552   0.446  0.0866  0.5988  0.1083
  759SOL    HW1 2276   0.260   0.512   0.541 -1.7301  0.5445 -3.5002
  759SOL    HW2 2277   0.179   0.619   0.442  1.7217 -2.4881  2.7459
  760SOL     OW 2278   2.449   1.091   1.119  0.3370  0.0544  0.1901
  760SOL    HW1 2279   2.542   1.055   1.102  0.9737 -0.7132 -0.9164
  760SOL    HW2 2280   2.456   1.188   1.151 -1.0003  0.2109  0.4667
  761SOL     OW 2281   1.785   0.456   0.830  0.2451  0.3472 -0.6256
  761SOL    HW1 2282   1.722   0.376   0.847 -0.4045 -1.6953 -0.3614
  761SOL    HW2 2283   1.875   0.429   0.864 -2.1002  1.6122 -0.1763
  762SOL     OW 2284   2.159   2.148   0.456  0.3769 -0.0380  0.4199
  762SOL    HW1 2285   2.175   2.113   0.363 -1.2292  0.7672  2.0410
  762SOL    HW2 2286   2.207   2.236   0.470 -1.9529  2.1663  3.1480
  763SOL     OW 2287   0.597   1.379   1.420 -0.2009 -0.5009  0.2349
  763SOL    HW1 2288   0.516   1.398   1.480  0.2590  0.7458 -0.9994
  763SOL    HW2 2289   0.613   1.467   1.376 -1.9755 -1.0041  0.0545
  764SOL     OW 2290   2.709   2.213   2.522 -1.1638  0.0508  0.2767
  764SOL    HW1 2291   2.608   2.206   2.500  0.7337 -0.1581  0.5803
  764SOL    HW2 2292   2.743   2.308   2.542 -0.2640  2.0602  1.8361
  765SOL     OW 2293   0.944   2.589   0.982  0.0916 -0.3669  0.3755
  765SOL    HW1 2294   0.936   2.610   0.885  0.3143  0.8825  1.6073
  765SOL    HW2 2295   0.887   2.657   1.032  0.3275  2.6800  0.7543
  766SOL     OW 2296   2.936   1.777   2.462 -0.3453  0.2976  0.0720
  766SOL    HW1 2297   3.009   1.780   2.390  0.1191 -0.4259  2.3778
  766SOL    HW2 2298   2.876   1.861   2.453  0.4484 -1.3948  1.0058
  767SOL     OW 2299   2.120   0.686   2.408 -0.2675  0.1378 -0.6939
  767SOL    HW1 2300   2.138   0.603   2.468  2.7659  0.8653  1.1531
  767SOL    HW2 2301   2.145   0.658   2.315  0.6477 -0.6557 -0.4898
  768SOL     OW 2302   1.220   0.039   2.381 -0.2727  0.0799 -0.1421
  768SOL    HW1 2303   1.131   0.060   2.434 -1.4713 -0.3745  2.3394
  768SOL    HW2 2304   1.274   0.127   2.368 -2.1370  0.9297  1.2081
  769SOL     OW 2305   0.173   2.330   0.891  0.1381  0.0161  0.0786
  769SOL    HW1 2306   0.123   2.392   0.831  1.4073 -0.3836  0.9180
  769SOL    HW2 2307   0.266   2.358   0.906  0.5660  1.6099 -0.5244
  770SOL     OW 2308   0.678   0.402   0.156 -0.3359  0.8500 -0.1258
  770SOL    HW1 2309   0.642   0.444   0.070  2.0832  0.2573 -1.8111
  770SOL    HW2 2310   0.604   0.408   0.224  1.2512  1.1513 -1.2758
  771SOL     OW 2311   1.201   1.461   2.550  0.1205 -0.3447  0.8003
  771SOL    HW1 2312   1.183   1.364   2.576 -2.6183 -1.3175 -2.6455
  771SOL    HW2 2313   1.197   1.531   2.621 -1.3720  0.2076 -1.3712
  772SOL     OW 2314   2.252   0.025   2.223  0.1879  0.5056  0.2163
  772SOL    HW1 2315   2.275   3.021   2.209 -0.3883  2.3714 -2.0340
  772SOL    HW2 2316   2.157   0.036   2.262 -0.3532  0.1757 -0.1881
  773SOL     OW 2317   1.423   0.832   1.973  0.0240  0.3254  0.3857
  773SOL    HW1 2318   1.434   0.935   1.972  0.2386  1.5099  0.8207
  773SOL    HW2 2319   1.404   0.802   1.877  0.7064 -1.6319 -0.7103
  774SOL     OW 2320   1.290   0.776   1.375 -0.0055  0.4657 -0.0530
  774SOL    HW1 2321   1.369   0.776   1.440 -1.8051  1.2813  0.3244
  774SOL    HW2 2322   1.295   0.870   1.340 -0.4051 -3.0008  0.4395
  775SOL     OW 2323   1.984   2.887   0.040  0.1233 -0.5807  0.0740
  775SOL    HW1 2324   1.930   2.805   0.071 -3.5051  1.8303  1.3287
  775SOL    HW2 2325   1.992   2.879   3.030 -0.7118 -2.4436 -0.1096
  776SOL     OW 2326   1.881   0.951   1.823 -0.2475  0.4891 -0.2815
  776SOL    HW1 2327   1.830   0.868   1.796  1.7736  0.1931 -1.0309
  776SOL    HW2 2328   1.962   0.921   1.884  3.2027 -0.9654  2.4012
  777SOL     OW 2329   3.084   1.456   2.243 -0.1687  0.1705  0.0859
  777SOL    HW1 2330   3.029   1.370   2.240 -0.8468 -1.2190 -0.7425
  777SOL    HW2 2331   3.023   1.534   2.241  0.9984 -0.6852  1.5646
  778SOL     OW 2332   2.464   0.882   2.487  0.4484 -0.2359 -0.2611
  778SOL    HW1 2333   2.390   0.869   2.554 -0.0854 -1.3468 -1.2402
  778SOL    HW2 2334   2.547   0.829   2.518  0.1868  1.5677 -0.5512
  779SOL     OW 2335   2.960   0.546   2.853  0.8863 -0.7091  0.5425
  779SOL    HW1 2336   3.040   0.564   2.915  1.2553  2.8062  3.2283
  779SOL    HW2 2337   2.993   0.494   2.767 -1.4302 -0.4187  0.3667
  780SOL     OW 2338   2.373   2.670   2.287 -0.4279 -0.5673  0.2342
  780SOL    HW1 2339   2.353   2.740   2.211 -0.5680  1.8876 -2.0015
  780SOL    HW2 2340   2.423   2.589   2.247 -0.7702 -0.1910 -2.5812
  781SOL     OW 2341   2.981   1.068   1.946  0.4213  0.1499  0.4750
  781SOL    HW1 2342   2.906   1.007   1.905 -2.6849 -1.2836 -1.7910
  781SOL    HW2 2343   3.020   1.121   1.862 -2.9050  2.5695 -4.8912
  782SOL     OW 2344   1.795   2.460   2.955  0.0624  0.2509  0.1556
  782SOL    HW1 2345   1.740   2.398   2.895 -2.6739 -1.0607  0.1152
  782SOL    HW2 2346   1.737   2.513   3.022  2.8401 -2.1602  0.3247
  783SOL     OW 2347   0.957   2.385   1.150 -0.5026  1.0648  0.5172
  783SOL    HW1 2348   0.968   2.417   1.246 -0.1689  2.0829 -0.4011
  783SOL    HW2 2349   0.967   2.466   1.087  0.4712  1.3690 -1.2960
  784SOL     OW 2350   1.897   0.486   2.340 -0.3046  0.1287  0.2355
  784SOL    HW1 2351   1.799   0.512   2.323 -0.3147 -0.8292 -1.2010
  784SOL    HW2 2352   1.952   0.465   2.255 -2.8706  0.5006  1.7083
  785SOL     OW 2353   0.186   0.049   1.385 -0.3264 -0.8923 -0.3302
  785SOL    HW1 2354   0.194   3.061   1.324 -0.2767  0.1829  0.1313
  785SOL    HW2 2355   0.271   0.060   1.442 -2.1509  0.1500  0.4806
  786SOL     OW 2356   1.345   2.590   0.350  0.1643 -0.1550 -0.1666
  786SOL    HW1 2357   1.255   2.577   0.398  0.4636  0.2027 -1.2734
  786SOL    HW2 2358   1.381   2.680   0.372 -0.5548 -0.9766 -1.7775
  787SOL     OW 2359   1.172   0.227   0.653 -0.1889  0.0926 -0.3045
  787SOL    HW1 2360   1.102   0.294   0.640  2.0834 -1.1395  0.9349
  787SOL    HW2 2361   1.125   0.136   0.673 -2.7867 -2.2795  1.6612
  788SOL     OW 2362   0.015   1.304   1.072 -0.2461  0.1002  0.9620
  788SOL    HW1 2363   0.065   1.377   1.023  0.5174  1.2181  0.4100
  788SOL    HW2 2364   0.076   1.261   1.139 -0.2034 -0.3637 -2.5200
  789SOL     OW 2365   2.694   0.885   2.132  0.1246 -0.0177 -0.4282
  789SOL    HW1 2366   2.597   0.888   2.140  3.9739 -1.2020 -0.8950
  789SOL    HW2 2367   2.732   0.955   2.196 -2.7366 -0.6861  1.7305
  790SOL     OW 2368   1.164   0.714   2.875  0.0771  0.2346  0.8666
  790SOL    HW1 2369   1.148   0.813   2.854  1.6826  0.0428  1.7029
  790SOL    HW2 2370   1.190   0.664   2.793 -2.8320  3.0411 -0.1654
  791SOL     OW 2371   0.326   2.604   0.229 -0.0613  0.3214  0.0798
  791SOL    HW1 2372   0.251   2.534   0.242  0.8937  1.1565  1.1173
  791SOL    HW2 2373   0.414   2.551   0.220  0.9984 -1.8734  1.5055
  792SOL     OW 2374   1.115   0.868   1.786  0.4040  0.1365 -0.2353
  792SOL    HW1 2375   1.187   0.795   1.793 -2.1985 -0.1913 -3.4971
  792SOL    HW2 2376   1.053   0.850   1.709  2.9783  0.3912  0.7189
  793SOL     OW 2377   2.930   0.601   1.180 -0.0639 -0.2986  0.1388
  793SOL    HW1 2378   2.938   0.505   1.143 -1.6118 -3.8141 -1.0637
  793SOL    HW2 2379   2.836   0.645   1.161 -2.3251  1.8009  1.7196
  794SOL     OW 2380   2.920   0.250   2.342  0.9190  0.6989 -0.1877
  794SOL    HW1 2381   2.916   0.161   2.293 -3.6272 -1.1368 -2.4609
  794SOL    HW2 2382   3.008   0.296   2.343 -1.0587 -1.5274  1.0585
  795SOL     OW 2383   0.499   1.722   0.072 -0.2168 -0.5975  0.1486
  795SOL    HW1 2384   0.516   1.710   0.171 -0.1961 -4.1263 -2.2485
  795SOL    HW2 2385   0.407   1.701   0.044 -0.6422  1.2772  0.0581
  796SOL     OW 2386   2.774   0.728   2.881 -0.1006 -0.1887 -0.4538
  796SOL    HW1 2387   2.853   0.662   2.874 -0.7744  0.5473 -1.3981
  796SOL    HW2 2388   2.728   0.747   2.791 -1.7932 -1.0753 -0.2264
  797SOL     OW 2389   2.149   2.706   2.430  0.1131  0.2094  0.6076
  797SOL    HW1 2390   2.110   2.612   2.437  0.9275  0.8880  0.3323
  797SOL    HW2 2391   2.242   2.711   2.384  2.8389  1.6846 -1.6935
  798SOL     OW 2392   2.937   0.054   0.874  0.2886  0.0229  0.4336
  798SOL    HW1 2393   3.026   0.007   0.867 -0.5340  2.3522  0.4959
  798SOL    HW2 2394   2.926   0.098   0.967  0.0788  0.0034  0.2096
  799SOL     OW 2395   3.015   0.731   1.744 -0.1295  0.2480  0.2876
  799SOL    HW1 2396   0.014   0.711   1.786  2.0529 -0.8456 -0.0876
  799SOL    HW2 2397   2.946   0.763   1.811  0.7621 -1.9735 -0.0544
  800SOL     OW 2398   0.488   1.611   0.357 -0.0279 -0.5968 -0.0271
  800SOL    HW1 2399   0.542   1.524   0.354  0.7786  0.0791  1.6090
  800SOL    HW2 2400   0.387   1.581   0.367 -1.0716 -0.9209  0.4210
  801SOL     OW 2401   1.859   1.764   0.664  0.0143 -0.6817 -0.2208
  801SOL    HW1 2402   1.922   1.806   0.595  1.1093 -0.3501  0.1906
  801SOL    HW2 2403   1.769   1.813   0.674 -0.8365  0.0041  0.8712
  802SOL     OW 2404   1.511   1.152   2.852 -0.3708  0.3134 -0.0535
  802SOL    HW1 2405   1.530   1.220   2.778  0.3888  0.9929  0.5934
  802SOL    HW2 2406   1.460   1.075   2.812  1.7356 -0.1883  2.2558
  803SOL     OW 2407   1.129   1.899   1.903 -0.4780 -0.6867  0.9142
  803SOL    HW1 2408   1.032   1.883   1.883  0.3937 -0.5372  0.9053
  803SOL    HW2 2409   1.139   1.924   2.001 -3.0594 -0.1661  1.0537
  804SOL     OW 2410   1.620   2.481   0.749  0.1219 -0.4745  0.8354
  804SOL    HW1 2411   1.699   2.414   0.744  0.9901  0.3780  1.5452
  804SOL    HW2 2412   1.530   2.431   0.748 -3.1144  1.6580  0.0701
  805SOL     OW 2413   3.070   2.399   2.008  0.0329  0.3913  0.0179
  805SOL    HW1 2414   2.988   2.341   1.989 -0.8611 -2.1490 -1.1268
  805SOL    HW2 2415   0.059   2.341   2.009 -2.5861  0.1218  0.2322
  806SOL     OW 2416   3.000   3.083   0.365 -0.0720 -0.1120 -0.6755
  806SOL    HW1 2417   2.993   0.057   0.443  0.1462 -1.0603  1.2998
  806SOL    HW2 2418   2.936   0.000   0.286 -1.4641  1.1956 -2.3242
  807SOL     OW 2419   2.355   0.772   2.747  0.0538  0.0154 -0.3591
  807SOL    HW1 2420   2.384   0.691   2.804 -0.0473 -2.2717  2.9071
  807SOL    HW2 2421   2.284   0.831   2.793  1.0296 -0.8585  1.6652
  808SOL     OW 2422   1.238   2.612   0.657 -0.1828  0.3355 -0.0003
  808SOL    HW1 2423   1.223   2.587   0.756  0.2820  0.6460 -0.4559
  808SOL    HW2 2424   1.311   2.686   0.648 -0.1421  1.4819 -0.3551
  809SOL     OW 2425   2.788   3.048   0.185  0.2844  0.4155  0.0669
  809SOL    HW1 2426   2.747   2.957   0.161  1.5273 -0.3926  0.7455
  809SOL    HW2 2427   2.808   0.015   0.103  0.9692  1.8583 -0.9643
  810SOL     OW 2428   1.332   1.192   0.888  0.2979  0.9886 -0.0219
  810SOL    HW1 2429   1.241   1.195   0.932  2.0873  0.4926  1.0652
  810SOL    HW2 2430   1.318   1.143   0.793 -2.7610  0.8851 -1.8337
  811SOL     OW 2431   1.904   2.771   1.579 -0.0461 -0.4417  0.0425
  811SOL    HW1 2432   1.843   2.833   1.521 -1.0574 -2.2200 -0.4520
  811SOL    HW2 2433   1.862   2.745   1.667  1.5225 -0.6915 -1.4033
  812SOL     OW 2434   1.756   0.023   0.439 -0.1421  0.8416 -0.3774
  812SOL    HW1 2435   1.791   0.086   0.512 -1.0157 -0.7522 -0.7804
  812SOL    HW2 2436   1.750   3.018   0.480 -1.2582 -2.8860  1.7022
  813SOL     OW 2437   0.897   0.021   2.199  0.7133 -0.0856  0.2669
  813SOL    HW1 2438   0.864   3.060   2.117 -0.6293  0.0731 -2.0275
  813SOL    HW2 2439   0.964   3.061   2.261  0.5468 -0.6760  1.6914
  814SOL     OW 2440   0.271   3.079   1.066  0.4664  0.2040 -0.6428
  814SOL    HW1 2441   0.226   3.086   0.977 -2.3576 -1.7166  3.4686
  814SOL    HW2 2442   0.330   0.069   1.088 -1.2086 -2.5592  0.5761
  815SOL     OW 2443   0.269   2.839   0.742  0.4777  0.2456 -0.0259
  815SOL    HW1 2444   0.169   2.843   0.763 -0.4678 -1.6179 -1.0941
  815SOL    HW2 2445   0.283   2.755   0.685  0.8166  3.2192  1.4233
  816SOL     OW 2446   2.491   1.683   2.755 -0.7696  0.2311 -0.0884
  816SOL    HW1 2447   2.487   1.582   2.758 -1.4376 -1.1435  0.4392
  816SOL    HW2 2448   2.497   1.707   2.663 -1.3338 -0.5462  4.0862
  817SOL     OW 2449   1.498   2.679   2.845  0.2143 -0.6576  0.1072
  817SOL    HW1 2450   1.458   2.586   2.830 -0.3246  0.7857 -2.3142
  817SOL    HW2 2451   1.513   2.713   2.749  0.6655 -2.4913 -3.0899
  818SOL     OW 2452   1.375   1.066   0.423 -0.3063  0.6043  0.6066
  818SOL    HW1 2453   1.347   1.154   0.380 -0.4514 -1.2930  2.2153
  818SOL    HW2 2454   1.363   0.993   0.352  0.5092  2.2225  0.3303
  819SOL     OW 2455   2.059   2.364   2.971 -0.1352 -0.2804  0.2385
  819SOL    HW1 2456   1.967   2.413   2.960 -2.9226  0.5078  0.2614
  819SOL    HW2 2457   2.110   2.376   2.881 -1.3416 -0.3236 -2.3250
  820SOL     OW 2458   0.884   0.627   0.107  0.0920  0.0123 -0.0395
  820SOL    HW1 2459   0.876   0.657   0.011  0.2409 -1.0905  1.7082
  820SOL    HW2 2460   0.894   0.527   0.121 -0.4818 -1.5282  2.2594
  821SOL     OW 2461   0.650   0.436   1.285 -0.2970  0.0661 -0.2417
  821SOL    HW1 2462   0.738   0.475   1.320 -2.2039 -0.5499  0.1075
  821SOL    HW2 2463   0.622   0.475   1.195 -1.3484  0.5110 -0.9319
  822SOL     OW 2464   1.476   2.296   2.374  0.7672  0.2970  0.0023
  822SOL    HW1 2465   1.469   2.274   2.475  0.1759 -0.2653  0.1209
  822SOL    HW2 2466   1.394   2.332   2.326  1.3904 -0.5739  0.9369
  823SOL     OW 2467   0.709   0.989   2.131 -0.2170 -0.1364 -0.0407
  823SOL    HW1 2468   0.674   1.082   2.145 -0.0951  0.3552 -0.4541
  823SOL    HW2 2469   0.763   0.959   2.211 -2.5601  0.5825  1.9943
  824SOL     OW 2470   2.410   3.075   1.838  0.3809 -0.3150 -0.8606
  824SOL    HW1 2471   2.447   2.984   1.853  0.9792  1.1496 -0.0485
  824SOL    HW2 2472   2.453   0.020   1.756 -2.5603 -0.0353  0.3229
  825SOL     OW 2473   0.804   1.292   0.100  0.2130 -0.5031  0.0797
  825SOL    HW1 2474   0.863   1.217   0.069 -3.0189  0.0633  1.8568
  825SOL    HW2 2475   0.718   1.300   0.054  0.2350  0.0399  1.9710
  826SOL     OW 2476   2.042   0.453   2.558 -0.2456 -0.4918 -0.3721
  826SOL    HW1 2477   1.981   0.481   2.480  2.3476  2.2008  0.4343
  826SOL    HW2 2478   1.987   0.408   2.631 -1.0827  0.1296  0.9526
  827SOL     OW 2479   0.689   2.069   2.737  0.2568  0.2820  0.2734
  827SOL    HW1 2480   0.598   2.110   2.705 -0.5095  3.2457 -0.0563
  827SOL    HW2 2481   0.682   2.004   2.815  3.5176  0.5270 -0.8687
  828SOL     OW 2482   2.700   0.052   1.373  0.2282  0.6819 -0.8906
  828SOL    HW1 2483   2.610   0.098   1.379 -0.8571  0.5347  0.0409
  828SOL    HW2 2484   2.747   0.062   1.284  0.3886  0.1743  1.3753
  829SOL     OW 2485   1.269   1.653   1.474  0.3479 -0.0663 -0.6018
  829SOL    HW1 2486   1.367   1.639   1.453 -0.3609  3.0332  0.0917
  829SOL    HW2 2487   1.256   1.744   1.525  2.2332 -0.2120 -0.1582
  830SOL     OW 2488   0.438   1.052   1.824  0.1977 -0.2821 -0.2101
  830SOL    HW1 2489   0.523   1.042   1.770 -3.4080 -1.2040 -2.4440
  830SOL    HW2 2490   0.352   1.072   1.770 -3.3926  0.0864  0.7033
  831SOL     OW 2491   0.194   1.817   0.176 -0.2894 -0.4844 -0.0188
  831SOL    HW1 2492   0.102   1.860   0.173 -0.9690  0.6812  1.7532
  831SOL    HW2 2493   0.267   1.889   0.190  0.7625  0.2517  2.1697
  832SOL     OW 2494   0.735   0.073   2.698  0.0274 -0.1612 -0.2645
  832SOL    HW1 2495   0.801   0.021   2.755  0.7990 -0.0842 -2.2358
  832SOL    HW2 2496   0.656   0.118   2.750 -2.6408  1.8518  1.3205
  833SOL     OW 2497   3.065   0.396   1.977  0.1528  0.6438  0.0494
  833SOL    HW1 2498   0.063   0.348   1.962  2.8707 -1.4196 -2.4169
  833SOL    HW2 2499   3.064   0.461   2.056 -1.7653 -1.7386 -0.1015
  834SOL     OW 2500   0.352   0.681   0.965 -0.2262 -0.2183  0.0377
  834SOL    HW1 2501   0.384   0.757   0.905 -0.4977 -1.7451  0.9174
  834SOL    HW2 2502   0.250   0.694   0.981 -2.8951 -2.0850  1.3541
  835SOL     OW 2503   2.572   2.945   1.042  0.0690 -0.5600  0.1956
  835SOL    HW1 2504   2.612   2.944   0.949 -0.4432  0.0698 -0.6005
  835SOL    HW2 2505   2.636   2.916   1.113 -2.8627  0.2821 -2.8063
  836SOL     OW 2506   0.776   1.810   2.827  0.3557 -0.5202  0.7572
  836SOL    HW1 2507   0.755   1.881   2.897 -2.3085 -1.0554 -3.3132
  836SOL    HW2 2508   0.876   1.814   2.811  1.4335 -0.0854  0.3471
  837SOL     OW 2509   2.099   2.109   2.855  0.5812  0.6613  0.7853
  837SOL    HW1 2510   2.089   2.187   2.910 -0.6601 -1.1021 -3.0372
  837SOL    HW2 2511   2.143   2.131   2.767  0.7305  0.1146  0.5851
  838SOL     OW 2512   2.924   1.242   2.192  0.0277  0.0803 -0.1856
  838SOL    HW1 2513   2.870   1.191   2.262 -1.7449  0.4283  0.8232
  838SOL    HW2 2514   2.958   1.173   2.126 -0.3410 -0.5917  0.8999
  839SOL     OW 2515   0.958   1.074   0.036 -0.3448 -0.3495 -0.8017
  839SOL    HW1 2516   0.891   1.015   3.083 -0.2638  0.5883 -0.3710
  839SOL    HW2 2517   1.047   1.071   3.084 -1.3001  0.9795  2.4127
  840SOL     OW 2518   1.576   0.614   0.481  0.1125  0.7296 -0.4221
  840SOL    HW1 2519   1.620   0.702   0.501  0.1636  0.1664  0.0565
  840SOL    HW2 2520   1.474   0.616   0.491 -0.4932 -2.0696 -0.6883
  841SOL     OW 2521   0.656   2.891   0.739  0.1427 -0.0924  0.2208
  841SOL    HW1 2522   0.740   2.840   0.721  0.8177  0.2168  2.1115
  841SOL    HW2 2523   0.659   2.915   0.840 -1.6439  2.5193 -0.7340
  842SOL     OW 2524   0.052   0.430   0.288 -0.2868 -0.0252  0.4297
  842SOL    HW1 2525   3.071   0.491   0.250  0.7489 -0.6653  0.3639
  842SOL    HW2 2526   0.137   0.485   0.318 -0.1988  1.2036  1.6059
  843SOL     OW 2527   0.487   0.483   1.702 -0.4886  0.8630  0.3732
  843SOL    HW1 2528   0.517   0.579   1.704 -1.5666  0.1266 -2.1749
  843SOL    HW2 2529   0.412   0.467   1.635  1.9859 -1.9231  1.1443
  844SOL     OW 2530   1.924   2.628   2.791  0.1680 -0.1034 -0.2720
  844SOL    HW1 2531   1.960   2.709   2.845  2.3044 -0.4781  0.6336
  844SOL    HW2 2532   1.864   2.583   2.858  2.3860  0.8198  0.8149
  845SOL     OW 2533   2.622   3.029   2.106 -0.2475 -0.7591 -0.6138
  845SOL    HW1 2534   2.583   2.957   2.046  1.1787 -1.6506 -2.8822
  845SOL    HW2 2535   2.677   2.997   2.187  5.1761  1.3656 -0.0583
  846SOL     OW 2536   1.821   1.895   2.592  0.1326  0.3255 -0.3569
  846SOL    HW1 2537   1.832   1.812   2.653  0.0135 -2.3667  0.9388
  846SOL    HW2 2538   1.903   1.945   2.572 -2.5218 -1.8393 -0.8102
  847SOL     OW 2539   2.107   2.750   1.930  0.6010  0.3134 -0.2862
  847SOL    HW1 2540   2.030   2.809   1.965  0.8849  1.0839 -0.5067
  847SOL    HW2 2541   2.103   2.649   1.949  1.1233 -0.6091 -1.2110
  848SOL     OW 2542   0.277   2.758   0.442  0.5258  0.0236  0.0087
  848SOL    HW1 2543   0.228   2.847   0.415  0.2626  2.1538 -0.9941
  848SOL    HW2 2544   0.299   2.706   0.357 -0.6018 -0.5963  3.5676
  849SOL     OW 2545   0.683   2.565   1.327  0.0767 -0.0239  0.2830
  849SOL    HW1 2546   0.715   2.609   1.413  0.4618 -0.2170  0.2679
  849SOL    HW2 2547   0.710   2.607   1.242  0.1143 -2.1380 -0.2228
  850SOL     OW 2548   0.069   1.523   0.917  0.5468  0.4833  0.0475
  850SOL    HW1 2549   3.075   1.559   0.874  2.2771 -0.7539  0.2111
  850SOL    HW2 2550   0.121   1.602   0.954 -2.1489  1.2928  1.3770
  851SOL     OW 2551   0.097   0.615   2.949  0.3557  0.0649  0.2388
  851SOL    HW1 2552   0.114   0.689   3.016  3.6202  0.6734  0.7706
  851SOL    HW2 2553   0.173   0.550   2.958 -0.0838 -0.5851 -4.4874
  852SOL     OW 2554   1.630   2.124   2.239 -0.2766 -0.3959 -0.4901
  852SOL    HW1 2555   1.658   2.051   2.296 -1.3118  1.4684  1.1947
  852SOL    HW2 2556   1.560   2.186   2.282 -0.1976  2.3678  0.3984
  853SOL     OW 2557   0.803   1.884   0.736  0.1495  0.3118 -0.1350
  853SOL    HW1 2558   0.751   1.946   0.795  1.0735 -0.0688 -0.3194
  853SOL    HW2 2559   0.737   1.839   0.669 -1.3829 -1.3936 -0.4020
  854SOL     OW 2560   1.618   1.010   1.548 -0.0843 -0.0821 -0.4117
  854SOL    HW1 2561   1.653   1.081   1.612 -2.0767 -0.0982 -0.7196
  854SOL    HW2 2562   1.683   0.983   1.474  0.8920 -0.8413  2.1665
  855SOL     OW 2563   0.352   2.051   0.178  0.2088 -0.2164  0.1840
  855SOL    HW1 2564   0.448   2.029   0.199 -1.9548 -0.4890 -1.3122
  855SOL    HW2 2565   0.342   2.097   0.086 -0.6873 -0.0691 -0.1610
  856SOL     OW 2566   0.059   0.067   1.624  0.0931 -0.3175  0.2098
  856SOL    HW1 2567   0.108   0.081   1.536 -3.6031 -1.4656 -0.8792
  856SOL    HW2 2568   3.064   0.016   1.609 -1.0912  0.8905 -0.0535
  857SOL     OW 2569   0.551   0.289   1.878 -0.2976 -0.0231 -0.4315
  857SOL    HW1 2570   0.480   0.306   1.948  1.7293  0.4451 -1.8778
  857SOL    HW2 2571   0.535   0.354   1.800  0.6948 -1.7816 -0.1177
  858SOL     OW 2572   2.724   1.989   2.377 -0.3160 -0.5540  0.1078
  858SOL    HW1 2573   2.779   2.000   2.288  1.2670 -2.2356  0.2728
  858SOL    HW2 2574   2.728   2.075   2.438 -0.5898  0.9493 -0.1483
  859SOL     OW 2575   2.041   2.562   0.755 -0.5874 -0.0838  0.7077
  859SOL    HW1 2576   2.103   2.482   0.754 -0.5955  2.0451  1.3990
  859SOL    HW2 2577   2.067   2.630   0.823 -1.4568 -2.8976 -0.8329
  860SOL     OW 2578   1.805   0.448   0.538  0.4650  0.2336  0.1651
  860SOL    HW1 2579   1.781   0.471   0.630  0.9060 -2.5390  0.7332
  860SOL    HW2 2580   1.730   0.496   0.485 -1.1341 -0.4361  0.5964
  861SOL     OW 2581   0.371   0.242   1.108 -0.2106 -0.3374  0.2788
  861SOL    HW1 2582   0.275   0.273   1.103  0.0340  1.7615  1.9264
  861SOL    HW2 2583   0.412   0.227   1.204  0.4828 -1.6240 -0.0751
  862SOL     OW 2584   2.233   0.744   1.723  0.0517 -0.5528  0.6523
  862SOL    HW1 2585   2.223   0.653   1.686  0.5417  2.0607  0.6280
  862SOL    HW2 2586   2.203   0.813   1.653 -1.9281 -0.8610  1.4045
  863SOL     OW 2587   0.363   1.541   1.161 -0.1819 -0.0334  0.2483
  863SOL    HW1 2588   0.360   1.504   1.063 -1.5573 -0.3346  0.9817
  863SOL    HW2 2589   0.307   1.626   1.180  0.8077  3.2190  1.7727
  864SOL     OW 2590   2.345   0.181   2.015 -0.1907 -0.1232  0.6460
  864SOL    HW1 2591   2.406   0.112   1.963  1.9805  0.8352 -1.7224
  864SOL    HW2 2592   2.296   0.136   2.093 -1.8475  2.1779 -0.5812
  865SOL     OW 2593   1.560   0.464   1.903  0.3255 -0.2584 -1.1435
  865SOL    HW1 2594   1.569   0.432   1.806 -3.2503  0.8987 -3.0379
  865SOL    HW2 2595   1.638   0.525   1.932  3.0080 -0.0083  1.2086
  866SOL     OW 2596   2.723   2.962   0.816  0.3116 -0.2746  0.3891
  866SOL    HW1 2597   2.802   3.025   0.828  0.1446 -1.8848  1.2699
  866SOL    HW2 2598   2.649   2.999   0.756 -0.1672  1.2576  1.5737
  867SOL     OW 2599   2.650   2.628   0.564  0.1349 -0.5293 -0.3881
  867SOL    HW1 2600   2.653   2.712   0.505  2.5304 -1.1617 -0.9262
  867SOL    HW2 2601   2.600   2.555   0.514  1.5635 -0.7047  1.1534
  868SOL     OW 2602   1.489   1.740   2.740 -0.0506  0.3162 -0.4975
  868SOL    HW1 2603   1.395   1.711   2.749  0.8015  0.8840  2.2812
  868SOL    HW2 2604   1.542   1.709   2.823  1.2404  0.5244  1.4414
  869SOL     OW 2605   2.297   1.790   0.568 -0.2288 -0.5308 -0.1251
  869SOL    HW1 2606   2.339   1.785   0.471  0.6890 -2.0249 -1.5848
  869SOL    HW2 2607   2.313   1.883   0.610  0.0650 -0.6514 -0.3087
  870SOL     OW 2608   2.716   1.812   0.366  0.5687  0.0336 -0.5116
  870SOL    HW1 2609   2.785   1.739   0.333 -1.1974 -1.8212  1.4757
  870SOL    HW2 2610   2.734   1.908   0.328  1.2157  1.5122 -2.1678
  871SOL     OW 2611   0.183   0.983   1.679 -0.7142  0.0351  0.2921
  871SOL    HW1 2612   0.254   1.000   1.613  0.7145  2.2231  1.6429
  871SOL    HW2 2613   0.099   1.041   1.669  0.4433  1.7727 -1.3065
  872SOL     OW 2614   0.285   1.913   2.253  0.3838 -0.0276 -0.3127
  872SOL    HW1 2615   0.289   1.822   2.298 -0.0771 -2.1808  0.5545
  872SOL    HW2 2616   0.314   1.908   2.157 -0.9710 -1.5225  2.5700
  873SOL     OW 2617   0.398   2.503   1.627 -0.1795 -0.7470 -0.0337
  873SOL    HW1 2618   0.374   2.505   1.527 -1.9215 -1.9514  1.4821
  873SOL    HW2 2619   0.461   2.579   1.658  1.4681 -0.4202 -0.7632
  874SOL     OW 2620   0.903   0.830   2.001  0.3709 -0.2762  0.1618
  874SOL    HW1 2621   0.823   0.898   1.999 -1.6010  0.1777 -2.0713
  874SOL    HW2 2622   0.986   0.865   1.952  1.6355  0.1266 -1.2413
  875SOL     OW 2623   2.764   2.851   1.216 -0.1250  0.2457 -0.0179
  875SOL    HW1 2624   2.745   2.749   1.244 -0.8178 -0.7088  0.5434
  875SOL    HW2 2625   2.863   2.875   1.235  3.3973 -1.1768  2.7837
  876SOL     OW 2626   1.063   1.284   0.474  0.6605 -0.4983 -0.7373
  876SOL    HW1 2627   1.057   1.250   0.569 -1.5514  4.0168 -0.6436
  876SOL    HW2 2628   1.146   1.341   0.464  0.2527  0.3543 -1.5913
  877SOL     OW 2629   1.201   0.493   1.234 -0.2704  0.1810  0.7674
  877SOL    HW1 2630   1.160   0.579   1.268 -0.0796 -0.5143 -0.5981
  877SOL    HW2 2631   1.267   0.512   1.161  0.6194  0.2346 -0.5723
  878SOL     OW 2632   2.455   1.847   3.091 -0.2008  0.0078  0.0215
  878SOL    HW1 2633   2.382   1.812   3.026 -2.3517  2.9770  1.6562
  878SOL    HW2 2634   2.479   1.948   3.070  1.9551  3.1265 -0.0154
  879SOL     OW 2635   2.492   2.056   1.827  0.1107  0.2429 -0.3380
  879SOL    HW1 2636   2.553   1.979   1.797  2.6284  0.0690  1.7539
  879SOL    HW2 2637   2.540   2.144   1.855  0.2601  1.5494 -2.0123
  880SOL     OW 2638   1.215   2.202   0.993 -1.2581  0.2109 -0.4946
  880SOL    HW1 2639   1.259   2.273   1.051  1.9944  0.2033 -0.8197
  880SOL    HW2 2640   1.169   2.138   1.064 -1.0480  1.2203 -0.3196
  881SOL     OW 2641   1.030   2.019   0.729 -0.8686 -0.8300 -0.4723
  881SOL    HW1 2642   1.032   2.118   0.760 -1.0293  0.5548  1.5909
  881SOL    HW2 2643   0.941   1.977   0.737  2.5644  2.6799 -0.9789
  882SOL     OW 2644   1.863   1.689   2.761 -0.0434 -0.4539 -0.7022
  882SOL    HW1 2645   1.907   1.621   2.702 -1.6204  3.2380 -1.4127
  882SOL    HW2 2646   1.926   1.754   2.802  1.4863  0.0574  0.0971
  883SOL     OW 2647   1.639   0.637   1.201  0.4051  0.0024 -0.1889
  883SOL    HW1 2648   1.553   0.664   1.149  1.4214  0.6321 -0.7864
  883SOL    HW2 2649   1.667   0.544   1.172  0.6179 -0.3729  0.1313
  884SOL     OW 2650   0.113   2.631   0.920 -0.0355  0.5278 -0.2145
  884SOL    HW1 2651   0.047   2.708   0.933 -0.6314  0.8336 -0.1336
  884SOL    HW2 2652   0.095   2.582   0.831 -2.0962 -0.3293  3.2877
  885SOL     OW 2653   0.608   1.442   1.950  0.0426 -0.9675 -0.6188
  885SOL    HW1 2654   0.545   1.424   2.028  0.0853  1.6190  0.5114
  885SOL    HW2 2655   0.650   1.358   1.902  0.0639 -2.2602 -5.0050
  886SOL     OW 2656   1.078   1.194   2.649  0.1811 -0.0039 -0.0799
  886SOL    HW1 2657   1.080   1.273   2.716  0.9696 -0.2782  1.8718
  886SOL    HW2 2658   1.063   1.104   2.702 -3.2833 -2.2833  1.8625
  887SOL     OW 2659   1.599   0.245   0.875  0.3057 -0.1619 -0.6516
  887SOL    HW1 2660   1.647   0.155   0.876  1.5529  1.6253 -0.7408
  887SOL    HW2 2661   1.549   0.256   0.783 -2.0770  0.5401  0.1931
  888SOL     OW 2662   1.814   0.777   2.232 -0.1097  0.3483  0.0477
  888SOL    HW1 2663   1.859   0.793   2.320 -1.0653 -0.7602 -0.0867
  888SOL    HW2 2664   1.716   0.798   2.238  2.4071  0.6353 -0.8010
  889SOL     OW 2665   2.864   1.988   0.927  0.0670  0.3513 -0.3047
  889SOL    HW1 2666   2.936   1.963   0.999 -0.2164  0.1681  2.0272
  889SOL    HW2 2667   2.773   2.007   0.978 -2.0420 -1.3250  3.2691
  890SOL     OW 2668   1.252   2.154   0.198 -0.4601 -0.1367  0.7197
  890SOL    HW1 2669   1.173   2.178   0.259 -0.4818  0.6247 -3.2721
  890SOL    HW2 2670   1.347   2.175   0.227 -2.6399  2.0622 -0.7385
  891SOL     OW 2671   2.641   0.717   2.606  0.2086 -0.0835  0.0613
  891SOL    HW1 2672   2.734   0.696   2.572  0.0381  2.2865 -0.2240
  891SOL    HW2 2673   2.574   0.641   2.579 -0.4618 -4.4301 -0.2117
  892SOL     OW 2674   3.014   2.316   0.997  0.4374 -0.3876 -0.0275
  892SOL    HW1 2675   0.025   2.319   0.993  1.1638  1.4909 -1.3135
  892SOL    HW2 2676   2.982   2.321   1.090  1.8500  1.3836 -3.1758
  893SOL     OW 2677   1.269   0.171   0.984 -0.4935 -0.3139 -0.3474
  893SOL    HW1 2678   1.254   0.094   0.923 -1.3146  4.2473  1.3041
  893SOL    HW2 2679   1.289   0.137   1.079 -1.3498  0.6426 -0.8134
  894SOL     OW 2680   2.884   0.368   1.036  0.3939 -0.2169 -0.0269
  894SOL    HW1 2681   2.883   0.359   0.935 -0.1106 -0.3079  0.4476
  894SOL    HW2 2682   2.883   0.280   1.082  1.9283  2.1358  1.0051
  895SOL     OW 2683   1.552   1.983   2.636 -0.3359  0.3693  0.1422
  895SOL    HW1 2684   1.655   1.986   2.630 -2.0486 -0.6451 -0.4670
  895SOL    HW2 2685   1.531   1.889   2.678 -0.6646 -1.1548  1.0473
  896SOL     OW 2686   1.971   0.790   1.413 -0.5383  0.5087  0.1214
  896SOL    HW1 2687   2.018   0.856   1.473  0.7578 -0.9499 -2.6504
  896SOL    HW2 2688   2.026   0.751   1.340 -1.0989 -3.2277  2.4989
  897SOL     OW 2689   0.411   1.114   1.539 -0.0623 -0.6838  0.0945
  897SOL    HW1 2690   0.368   1.147   1.452 -0.6960  1.7301 -3.4370
  897SOL    HW2 2691   0.509   1.087   1.527 -0.8973  1.0778  1.3221
  898SOL     OW 2692   1.602   2.493   2.225 -0.9322  0.5086 -0.0565
  898SOL    HW1 2693   1.562   2.421   2.279 -1.2023  2.7373  0.0215
  898SOL    HW2 2694   1.609   2.469   2.127  1.1949 -0.2463  0.2400
  899SOL     OW 2695   1.194   1.682   1.043 -0.1184  0.0557 -0.3667
  899SOL    HW1 2696   1.234   1.723   1.130  0.7170 -0.1744  1.5524
  899SOL    HW2 2697   1.189   1.740   0.962 -2.0389 -0.4307  1.2895
  900SOL     OW 2698   0.696   2.610   2.354  0.7431  0.7994 -0.3702
  900SOL    HW1 2699   0.716   2.633   2.448  0.2685 -0.4569  0.3437
  900SOL    HW2 2700   0.684   2.692   2.301  0.5588 -3.5465  0.7307
  901SOL     OW 2701   0.855   1.524   2.370  0.2014  0.0467  0.2427
  901SOL    HW1 2702   0.774   1.498   2.423 -1.6549  1.1977 -1.5209
  901SOL    HW2 2703   0.923   1.448   2.370  0.2151  1.1010 -0.1736
  902SOL     OW 2704   2.131   0.857   2.907 -0.3236 -0.4140  0.0083
  902SOL    HW1 2705   2.111   0.956   2.922 -1.2442  1.4681 -2.3818
  902SOL    HW2 2706   2.098   0.801   2.982  1.6834  2.4537 -2.8220
  903SOL     OW 2707   1.992   1.316   2.819  0.0444  0.7460 -0.1217
  903SOL    HW1 2708   1.935   1.320   2.906 -1.4130 -0.1237  0.5029
  903SOL    HW2 2709   1.943   1.299   2.737  0.2524  0.2062  2.5383
  904SOL     OW 2710   1.421   1.127   1.951  0.4647  0.1471 -0.1895
  904SOL    HW1 2711   1.377   1.192   1.884  2.0976  0.8024  2.2667
  904SOL    HW2 2712   1.373   1.128   2.038 -2.1873 -2.0918 -1.2704
  905SOL     OW 2713   2.675   0.636   1.074 -0.2228 -0.5746 -0.0569
  905SOL    HW1 2714   2.651   0.548   1.032  0.4479  3.9275  1.0452
  905SOL    HW2 2715   2.679   0.709   1.005 -1.9098 -0.1710  0.7208
  906SOL     OW 2716   0.378   1.440   0.666  0.0296  0.0913 -0.2355
  906SOL    HW1 2717   0.456   1.373   0.630  1.0024 -2.0894 -0.6016
  906SOL    HW2 2718   0.289   1.391   0.670 -1.2469  0.8921 -0.6588
  907SOL     OW 2719   1.330   0.020   0.483 -0.2073  0.1272 -0.0630
  907SOL    HW1 2720   1.295   0.107   0.446 -1.3379 -0.6951  0.7861
  907SOL    HW2 2721   1.399   0.037   0.554  0.5838 -1.0158 -3.2203
  908SOL     OW 2722   1.249   2.803   1.480  0.0187 -0.3472 -0.9199
  908SOL    HW1 2723   1.294   2.748   1.405  1.5255 -2.8578  1.5676
  908SOL    HW2 2724   1.199   2.882   1.439  0.0191 -0.4433 -0.8909
  909SOL     OW 2725   2.501   0.731   1.790 -0.2300  0.5348 -0.7025
  909SOL    HW1 2726   2.506   0.657   1.863 -0.7465  1.0656  2.5313
  909SOL    HW2 2727   2.406   0.743   1.761 -1.8259  0.1543  1.6918
  910SOL     OW 2728   1.358   2.954   2.216  0.2823  0.3370  0.2013
  910SOL    HW1 2729   1.328   3.042   2.253 -0.9150 -1.7394 -0.4508
  910SOL    HW2 2730   1.291   2.922   2.143  0.2359 -2.5846  1.3262
  911SOL     OW 2731   2.415   1.664   2.470 -0.3861  0.2833  0.0463
  911SOL    HW1 2732   2.434   1.714   2.388 -2.4443 -0.2082  1.1568
  911SOL    HW2 2733   2.342   1.590   2.462 -1.5033 -0.1782  0.7662
  912SOL     OW 2734   2.251   2.225   1.349 -0.1465  0.8623 -0.2942
  912SOL    HW1 2735   2.308   2.284   1.284  0.9248  1.1160  0.0221
  912SOL    HW2 2736   2.300   2.202   1.436  2.0652  0.1521  1.5791
  913SOL     OW 2737   2.606   2.295   1.900  0.5422 -0.1738  0.5130
  913SOL    HW1 2738   2.704   2.279   1.935  0.9375  0.6211  1.8625
  913SOL    HW2 2739   2.597   2.390   1.862  1.8192  0.4940  1.3286
  914SOL     OW 2740   2.090   2.077   0.862  0.1937  0.2173 -0.1763
  914SOL    HW1 2741   2.121   2.120   0.949 -2.6914  2.0209  1.4461
  914SOL    HW2 2742   2.023   2.005   0.884  0.8178  1.1412 -1.8528
  915SOL     OW 2743   1.049   2.482   1.807 -0.1876 -0.2819 -0.3612
  915SOL    HW1 2744   1.054   2.388   1.849 -0.8596 -0.3672 -1.2408
  915SOL    HW2 2745   0.986   2.481   1.730 -1.7579  1.1008 -0.2657
  916SOL     OW 2746   0.207   2.097   1.030  0.5354 -0.1661 -0.0431
  916SOL    HW1 2747   0.168   2.167   0.964 -0.8511  0.1093 -0.2557
  916SOL    HW2 2748   0.301   2.067   0.999 -0.7094 -1.8853 -2.0207
  917SOL     OW 2749   2.637   1.172   2.817  0.0579 -0.3269  0.1403
  917SOL    HW1 2750   2.596   1.083   2.828  1.7549  2.4037  1.2290
  917SOL    HW2 2751   2.688   1.186   2.730  0.3435 -0.1528 -1.7170
  918SOL     OW 2752   1.392   2.229   2.652 -0.1509  0.6441  0.4056
  918SOL    HW1 2753   1.446   2.143   2.666  1.7162 -2.0720  3.6301
  918SOL    HW2 2754   1.295   2.208   2.633  1.6948 -1.2084  2.0877
  919SOL     OW 2755   1.898   2.322   0.972 -0.0588  0.3112  0.0237
  919SOL    HW1 2756   1.905   2.309   0.873  1.4308  1.2513 -0.1444
  919SOL    HW2 2757   1.966   2.264   1.024 -0.2823 -1.5281 -0.7026
  920SOL     OW 2758   1.028   0.458   2.419  0.2160 -0.0520 -0.1148
  920SOL    HW1 2759   1.120   0.467   2.456 -0.1575  2.4269 -0.8359
  920SOL    HW2 2760   1.014   0.502   2.332  0.2176 -1.2807  2.7803
  921SOL     OW 2761   3.054   0.153   2.786 -0.2944  0.7161 -0.1868
  921SOL    HW1 2762   3.068   0.244   2.746 -3.7642 -1.2196 -1.7638
  921SOL    HW2 2763   0.042   0.100   2.751  1.7593  2.0382  0.4229
  922SOL     OW 2764   2.265   1.692   1.710 -0.1446 -0.3716 -0.2039
  922SOL    HW1 2765   2.233   1.756   1.638 -2.3181  0.5830  3.3779
  922SOL    HW2 2766   2.324   1.621   1.666 -1.0636 -1.1108 -0.7006
  923SOL     OW 2767   0.231   1.907   2.573 -0.8295 -0.1787  0.3268
  923SOL    HW1 2768   0.159   1.960   2.530 -0.1514 -0.3452  0.2654
  923SOL    HW2 2769   0.204   1.896   2.671 -0.6786  0.6491 -1.2612
  924SOL     OW 2770   1.667   0.247   2.280 -0.1288  0.3440 -0.0992
  924SOL    HW1 2771   1.662   0.203   2.372  1.0582 -3.3243  1.7109
  924SOL    HW2 2772   1.664   0.350   2.279  0.7300  0.9551 -0.4986
  925SOL     OW 2773   2.885   0.882   3.076 -0.7011  0.6205 -0.8194
  925SOL    HW1 2774   2.848   0.805   3.024  0.4868  1.1395  2.9069
  925SOL    HW2 2775   2.832   0.892   0.070  1.5077  0.1642 -1.0794
  926SOL     OW 2776   2.940   0.420   0.759  0.3159  0.6576 -0.5950
  926SOL    HW1 2777   2.981   0.406   0.671 -0.1552 -1.7867 -0.1837
  926SOL    HW2 2778   2.889   0.508   0.763  2.0482  1.1927 -0.2765
  927SOL     OW 2779   1.302   0.974   0.686  0.3367 -0.2170  0.1632
  927SOL    HW1 2780   1.337   0.996   0.590 -2.1481  2.4238 -0.6097
  927SOL    HW2 2781   1.200   0.961   0.685  0.8056  0.3378 -2.3115
  928SOL     OW 2782   0.127   0.050   2.143 -0.3380 -0.7045 -0.4593
  928SOL    HW1 2783   0.155   0.059   2.045 -0.3723  0.9167 -0.0622
  928SOL    HW2 2784   0.179   0.115   2.202 -0.4871  3.7389 -1.5639
  929SOL     OW 2785   2.573   0.886   1.414 -0.1225 -0.3521 -0.6460
  929SOL    HW1 2786   2.638   0.951   1.371 -1.5120 -1.7336  1.8814
  929SOL    HW2 2787   2.618   0.818   1.475 -0.3313  1.2751 -1.7180
  930SOL     OW 2788   1.910   2.596   1.045 -0.1361  0.1738  0.1499
  930SOL    HW1 2789   1.824   2.648   1.024 -3.3954 -0.4792 -0.7733
  930SOL    HW2 2790   1.899   2.501   1.017  1.2743 -1.4961 -0.6923
  931SOL     OW 2791   1.994   1.022   0.957  0.2682  0.4309 -0.1004
  931SOL    HW1 2792   1.943   0.953   0.900 -0.9179 -0.9262 -1.2160
  931SOL    HW2 2793   2.024   1.102   0.903 -1.4833  0.9614  1.3224
  932SOL     OW 2794   0.139   0.735   1.432  0.2444 -0.1700 -0.0004
  932SOL    HW1 2795   0.067   0.807   1.443 -0.2464  2.0676 -0.9739
  932SOL    HW2 2796   0.096   0.642   1.417 -0.9051 -0.7292  2.0745
  933SOL     OW 2797   2.116   1.711   2.208 -0.1054 -0.0707 -0.0613
  933SOL    HW1 2798   2.069   1.627   2.244  0.2646 -1.7716  1.3851
  933SOL    HW2 2799   2.184   1.691   2.134 -1.0923 -2.0525 -0.1659
  934SOL     OW 2800   1.767   2.907   1.384  0.1204  0.0899 -0.1330
  934SOL    HW1 2801   1.785   2.960   1.303  0.3910 -1.2645  2.6509
  934SOL    HW2 2802   1.700   2.833   1.361 -4.3834 -1.2865  1.2073
  935SOL     OW 2803   0.542   0.796   1.448  0.3995 -0.0882 -0.1198
  935SOL    HW1 2804   0.450   0.805   1.409  0.8618  0.4833  1.0787
  935SOL    HW2 2805   0.539   0.792   1.546 -1.9586  1.5259 -7.4710
  936SOL     OW 2806   2.518   0.663   1.290  0.2034  0.3754  0.2316
  936SOL    HW1 2807   2.575   0.639   1.206 -0.1440  0.8403 -6.0616
  936SOL    HW2 2808   2.535   0.758   1.319 -1.4599 -1.9761 -1.2252
  937SOL     OW 2809   1.041   2.896   1.027 -0.3378  0.1321 -0.0561
  937SOL    HW1 2810   0.964   2.961   1.037  2.0003  0.4265  0.0464
  937SOL    HW2 2811   1.007   2.801   1.048  3.2921  1.5957 -1.0078
  938SOL     OW 2812   2.926   2.248   0.763 -0.2965 -0.1285  0.2787
  938SOL    HW1 2813   2.842   2.191   0.751 -1.0400 -1.0340 -0.1946
  938SOL    HW2 2814   2.948   2.246   0.859  0.4382  0.3087 -2.4434
  939SOL     OW 2815   0.130   1.845   2.814  0.4756 -0.0939 -0.6384
  939SOL    HW1 2816   0.040   1.810   2.781  0.7798  0.4353  1.6258
  939SOL    HW2 2817   0.172   1.785   2.885 -0.2740 -0.3160 -0.1221
  940SOL     OW 2818   2.404   2.627   2.711 -0.3240  0.1442 -0.3179
  940SOL    HW1 2819   2.458   2.637   2.623  2.9621 -1.3638 -0.1309
  940SOL    HW2 2820   2.389   2.714   2.759  0.8022 -0.0522  1.0399
  941SOL     OW 2821   1.520   2.882   0.107  0.1817  0.2278 -0.1963
  941SOL    HW1 2822   1.538   2.784   0.090 -0.0592 -0.6114  0.9968
  941SOL    HW2 2823   1.604   2.934   0.088 -1.0266  0.1367 -0.4937
  942SOL     OW 2824   1.568   2.009   1.567  0.2277 -0.2757 -0.4704
  942SOL    HW1 2825   1.567   1.924   1.624 -1.1897  2.7931  2.1183
  942SOL    HW2 2826   1.557   2.091   1.629  0.1987  0.1665 -0.9963
  943SOL     OW 2827   1.712   0.752   1.744 -0.2982 -0.2927  0.2677
  943SOL    HW1 2828   1.661   0.766   1.658 -0.7997  1.5122 -0.0647
  943SOL    HW2 2829   1.647   0.752   1.824 -0.1537  1.2868  0.8810
  944SOL     OW 2830   1.314   0.696   1.757 -0.2190 -0.3430  0.3185
  944SOL    HW1 2831   1.379   0.705   1.679  0.2879 -1.4561 -2.1746
  944SOL    HW2 2832   1.274   0.603   1.760  2.6544  3.5309 -0.6770
  945SOL     OW 2833   2.698   2.267   1.155  0.0843 -0.4850 -0.5555
  945SOL    HW1 2834   2.707   2.344   1.091  1.1978  0.8450  1.5713
  945SOL    HW2 2835   2.793   2.251   1.197 -0.0903 -0.5405 -2.4471
  946SOL     OW 2836   0.690   1.099   1.431  0.3150 -0.2811  0.3099
  946SOL    HW1 2837   0.785   1.101   1.410 -2.6997 -1.6339  2.3849
  946SOL    HW2 2838   0.648   1.196   1.420 -1.9552  2.2151  1.5076
  947SOL     OW 2839   0.595   2.559   0.728 -0.4244 -0.3642  0.7184
  947SOL    HW1 2840   0.587   2.534   0.825 -2.0306  0.2135 -0.3623
  947SOL    HW2 2841   0.503   2.587   0.681 -3.2975 -1.1321 -2.9137
  948SOL     OW 2842   2.987   1.449   1.847 -0.3864 -0.6914 -0.0965
  948SOL    HW1 2843   3.065   1.399   1.879 -0.5714  1.7491  0.5788
  948SOL    HW2 2844   3.018   1.536   1.802  0.3319  3.2015  2.4693
  949SOL     OW 2845   0.436   0.422   2.091  0.3395  0.4751  0.1350
  949SOL    HW1 2846   0.522   0.462   2.130  4.1444 -0.9486  0.0729
  949SOL    HW2 2847   0.375   0.484   2.040  1.0052 -2.6671  1.3249
  950SOL     OW 2848   0.510   0.836   0.807  0.1118  0.0749 -0.4318
  950SOL    HW1 2849   0.548   0.900   0.883  0.6918  0.4383 -1.1441
  950SOL    HW2 2850   0.434   0.881   0.759  0.7271  2.0316  1.7959
  951SOL     OW 2851   0.971   1.765   2.280  0.0782 -0.5691 -0.5422
  951SOL    HW1 2852   1.046   1.738   2.213 -3.2087 -1.3258  0.4640
  951SOL    HW2 2853   0.928   1.679   2.312  1.2883  2.8121  0.6292
  952SOL     OW 2854   1.297   1.361   2.871  0.3781 -0.2201  0.0304
  952SOL    HW1 2855   1.351   1.314   2.798 -2.9878  0.9202  1.2675
  952SOL    HW2 2856   1.362   1.422   2.920 -1.0787  0.4265 -3.6253
  953SOL     OW 2857   0.928   2.494   2.210 -0.1531  0.2883 -0.3907
  953SOL    HW1 2858   0.882   2.525   2.126  0.0310  0.4172  0.4970
  953SOL    HW2 2859   0.874   2.528   2.290  1.0148  1.5141  1.5132
  954SOL     OW 2860   2.238   1.545   0.683  0.4411 -0.1519 -0.4456
  954SOL    HW1 2861   2.263   1.634   0.641 -0.7171  3.1298  0.7540
  954SOL    HW2 2862   2.291   1.471   0.631  0.5197 -1.7752  0.2556
  955SOL     OW 2863   0.031   2.303   2.807  0.2517  0.3401 -0.0367
  955SOL    HW1 2864   0.092   2.363   2.757  0.4372 -0.5928  1.0830
  955SOL    HW2 2865   3.038   2.355   2.836 -0.9213  0.1436 -1.6198
  956SOL     OW 2866   1.038   0.819   1.515 -0.1084 -0.4697 -0.9369
  956SOL    HW1 2867   1.099   0.766   1.456 -2.1070 -0.8487  1.8250
  956SOL    HW2 2868   1.070   0.916   1.525  1.0381  3.0479  3.6594
  957SOL     OW 2869   2.042   1.437   2.316  0.0220 -0.4114 -0.4211
  957SOL    HW1 2870   2.041   1.365   2.241  1.6160  0.0909 -0.3074
  957SOL    HW2 2871   1.949   1.467   2.349 -1.2717  1.1205 -2.0031
  958SOL     OW 2872   1.553   2.484   1.430 -0.3618 -0.0854  0.0270
  958SOL    HW1 2873   1.570   2.586   1.415  0.7761  0.1043  0.2819
  958SOL    HW2 2874   1.643   2.438   1.416 -0.4856  0.1451  1.4072
  959SOL     OW 2875   1.623   1.653   2.066  0.1755 -0.4166 -0.1236
  959SOL    HW1 2876   1.664   1.748   2.083  2.4029  1.1148  1.7682
  959SOL    HW2 2877   1.554   1.665   1.989 -0.2898 -1.9974  1.4616
  960SOL     OW 2878   2.901   1.023   2.579  1.1942 -0.3326 -0.4396
  960SOL    HW1 2879   2.920   1.048   2.678  2.9635 -0.7147  1.3960
  960SOL    HW2 2880   2.990   1.040   2.526  2.8366  0.5479 -0.4732
  961SOL     OW 2881   0.320   0.616   1.937  0.8201 -0.0837  0.3385
  961SOL    HW1 2882   0.277   0.652   1.849  0.5160  1.4092  0.9888
  961SOL    HW2 2883   0.398   0.679   1.955 -2.3144 -1.5537 -0.0540
  962SOL     OW 2884   1.526   1.665   0.629  0.2909 -0.1650  0.0302
  962SOL    HW1 2885   1.439   1.640   0.684 -1.6808 -1.1924 -0.4417
  962SOL    HW2 2886   1.574   1.589   0.579  0.7897  0.5217 -1.0478
  963SOL     OW 2887   1.357   2.474   2.739  0.8481 -0.3502 -0.1338
  963SOL    HW1 2888   1.268   2.521   2.711 -0.1524  2.6838  1.7711
  963SOL    HW2 2889   1.371   2.391   2.684 -0.3542 -1.6554  0.1620
  964SOL     OW 2890   1.056   2.272   0.358  0.0593 -0.2115 -0.0408
  964SOL    HW1 2891   1.002   2.248   0.273  0.8563 -2.1462  0.0436
  964SOL    HW2 2892   1.091   2.367   0.352  0.8719  0.6734 -0.3426
  965SOL     OW 2893   0.695   2.985   0.997 -0.3199 -0.3248 -0.2786
  965SOL    HW1 2894   0.663   2.997   1.089  0.8018  0.8019 -4.9131
  965SOL    HW2 2895   0.737   3.070   0.964 -1.9234 -0.0473 -1.3677
  966SOL     OW 2896   2.938   1.063   2.867 -0.5352  0.8151  0.0707
  966SOL    HW1 2897   2.932   1.153   2.912 -0.9411 -0.1446  1.4930
  966SOL    HW2 2898   2.906   0.991   2.934 -1.5690  1.4580 -1.7079
  967SOL     OW 2899   0.862   2.875   1.706  0.1954  0.5501  0.1877
  967SOL    HW1 2900   0.829   2.970   1.690  0.8120  0.3257  0.4228
  967SOL    HW2 2901   0.959   2.872   1.693 -2.8502  1.9470 -0.7550
  968SOL     OW 2902   1.963   0.370   0.337 -0.5819  0.1494  0.3159
  968SOL    HW1 2903   2.051   0.333   0.366  0.4517 -0.4913  0.9704
  968SOL    HW2 2904   1.907   0.403   0.413 -0.0023 -0.9594 -1.7626
  969SOL     OW 2905   2.853   1.822   1.928 -0.1268  0.0983 -0.0787
  969SOL    HW1 2906   2.796   1.758   1.872  3.6276 -0.2238 -0.3020
  969SOL    HW2 2907   2.954   1.795   1.927  1.6035 -0.4088  1.9754
  970SOL     OW 2908   2.123   1.244   1.567 -0.2210 -0.3152 -0.3145
  970SOL    HW1 2909   2.141   1.295   1.482 -1.2379 -1.4200  1.7383
  970SOL    HW2 2910   2.210   1.230   1.616 -1.0041 -0.2886 -0.6832
  971SOL     OW 2911   1.919   0.345   1.274  0.0626  0.3190 -0.0553
  971SOL    HW1 2912   2.015   0.370   1.252  0.4100  3.2386 -2.5798
  971SOL    HW2 2913   1.847   0.368   1.200  0.2965 -1.0781  0.8596
  972SOL     OW 2914   0.422   2.959   1.830 -0.1228  0.5713  0.0276
  972SOL    HW1 2915   0.501   3.027   1.822  0.8360 -3.1561 -0.3514
  972SOL    HW2 2916   0.333   3.009   1.844  0.7347  0.6556  2.3145
  973SOL     OW 2917   2.712   0.952   0.210 -0.1305 -0.0013 -0.1589
  973SOL    HW1 2918   2.622   0.910   0.175 -2.4845 -2.2469  2.8778
  973SOL    HW2 2919   2.710   0.965   0.315  0.0105 -0.3117  1.3798
  974SOL     OW 2920   1.777   1.468   2.396  0.5493  0.1008 -0.2463
  974SOL    HW1 2921   1.732   1.453   2.305 -1.4866 -1.5834 -0.1723
  974SOL    HW2 2922   1.702   1.502   2.458  1.0533  2.6596 -2.3904
  975SOL     OW 2923   0.128   2.484   1.182  0.4345  0.2351  0.2210
  975SOL    HW1 2924   0.122   2.509   1.084 -2.3904 -0.9697 -3.0655
  975SOL    HW2 2925   0.066   2.545   1.235 -0.0044 -2.0232  1.1945
  976SOL     OW 2926   3.076   1.661   1.680  0.1047 -0.0460 -0.5857
  976SOL    HW1 2927   0.084   1.637   1.690  2.0862 -0.1040 -0.2118
  976SOL    HW2 2928   3.055   1.658   1.582  1.0609 -0.6233 -1.0757
  977SOL     OW 2929   0.786   2.418   3.017 -0.1379 -0.5644 -0.6759
  977SOL    HW1 2930   0.766   2.363   2.934 -0.5832 -0.5890  2.3587
  977SOL    HW2 2931   0.881   2.459   3.018 -2.8078  1.3355  0.3535
  978SOL     OW 2932   0.626   1.749   2.609  0.7633  0.2665  0.2899
  978SOL    HW1 2933   0.624   1.837   2.557  0.8676  0.6499 -2.0292
  978SOL    HW2 2934   0.681   1.767   2.699 -1.9672 -0.7571  1.5999
  979SOL     OW 2935   1.640   2.369   1.088  0.0073 -0.1067  0.2918
  979SOL    HW1 2936   1.676   2.410   1.172  0.8698  2.3895 -2.6864
  979SOL    HW2 2937   1.715   2.329   1.033 -1.4653  2.6812 -1.7207
  980SOL     OW 2938   0.940   1.589   2.992  0.6516 -0.1470  0.5214
  980SOL    HW1 2939   0.842   1.607   2.973  0.2197  1.8431 -0.7164
  980SOL    HW2 2940   0.965   1.619   3.086  0.4038  0.9618 -1.6384
  981SOL     OW 2941   2.624   0.143   2.593  0.6484  0.2220  0.1893
  981SOL    HW1 2942   2.639   0.236   2.563  1.0630 -0.8656  2.0744
  981SOL    HW2 2943   2.537   0.107   2.553  0.1405  0.4125 -1.2889
  982SOL     OW 2944   0.126   2.627   2.849  0.1296  0.5266 -0.0217
  982SOL    HW1 2945   0.165   2.572   2.777 -0.6990  0.0159  0.6669
  982SOL    HW2 2946   0.165   2.601   2.939  0.5286  1.3350  0.0980
  983SOL     OW 2947   2.276   1.053   2.067  0.5334  0.0858  0.4553
  983SOL    HW1 2948   2.332   1.126   2.101 -1.4531 -2.4164  1.8068
  983SOL    HW2 2949   2.295   1.027   1.968  1.2529  1.2238 -0.2387
  984SOL     OW 2950   1.447   0.285   2.102  0.4713  0.4702 -0.3802
  984SOL    HW1 2951   1.531   0.243   2.134 -2.9720  0.9689 -2.6342
  984SOL    HW2 2952   1.479   0.354   2.038 -1.5749 -0.8708  0.8693
  985SOL     OW 2953   1.287   1.914   2.153 -0.4445 -0.2101 -0.0338
  985SOL    HW1 2954   1.270   1.816   2.142 -1.1693  1.8548 -1.3452
  985SOL    HW2 2955   1.337   1.928   2.238  0.4142 -1.1323 -2.7292
  986SOL     OW 2956   1.837   0.069   2.124  0.3654 -0.1353  0.6989
  986SOL    HW1 2957   1.864   0.124   2.041  2.1263 -0.5277 -1.5848
  986SOL    HW2 2958   1.780   0.125   2.184  1.3228 -1.4643 -1.0446
  987SOL     OW 2959   2.079   0.663   1.960 -0.2938 -0.4322 -0.1083
  987SOL    HW1 2960   2.139   0.700   1.888 -0.3981 -1.3113  0.5416
  987SOL    HW2 2961   2.052   0.739   2.023 -1.1221  1.1380  0.6915
  988SOL     OW 2962   2.457   0.603   2.385 -0.0905  0.4819 -0.2336
  988SOL    HW1 2963   2.462   0.660   2.303 -0.7009  0.1900 -2.2445
  988SOL    HW2 2964   2.426   0.507   2.374 -0.2930 -0.5887 -1.8083
  989SOL     OW 2965   2.552   2.620   2.493 -0.1526  0.4232  0.6853
  989SOL    HW1 2966   2.496   2.645   2.408 -0.2527 -1.3272 -2.5470
  989SOL    HW2 2967   2.647   2.609   2.458 -2.1620 -1.3769 -0.0197
  990SOL     OW 2968   0.424   0.678   3.032 -0.3953 -0.4889 -0.2819
  990SOL    HW1 2969   0.367   0.748   2.980 -1.0319 -0.9779  0.6088
  990SOL    HW2 2970   0.382   0.645   0.028 -0.9945  3.4245 -0.1260
  991SOL     OW 2971   0.883   0.600   2.610 -0.0998  0.0923  0.1117
  991SOL    HW1 2972   0.819   0.538   2.660  0.8940  0.7128  1.2650
  991SOL    HW2 2973   0.943   0.548   2.551 -2.1712 -0.2288 -2.9200
  992SOL     OW 2974   2.828   2.491   2.574  0.2086 -0.3565  0.0537
  992SOL    HW1 2975   2.903   2.552   2.537  1.6726  2.7907  0.6950
  992SOL    HW2 2976   2.792   2.534   2.655  1.0255  1.6897 -2.3838
  993SOL     OW 2977   0.531   3.091   0.313 -0.2973  0.0599 -0.0187
  993SOL    HW1 2978   0.522   3.011   0.377  2.5252  1.2738 -0.0196
  993SOL    HW2 2979   0.454   0.014   0.250 -1.1278  0.0731  1.2448
  994SOL     OW 2980   0.387   2.120   1.525 -0.0159  0.0797  0.5023
  994SOL    HW1 2981   0.477   2.170   1.531  1.2475 -2.5701 -2.4679
  994SOL    HW2 2982   0.312   2.173   1.483  1.1570 -1.8157  1.0610
  995SOL     OW 2983   2.326   2.135   0.213 -0.0951  0.1804  0.2914
  995SOL    HW1 2984   2.414   2.150   0.168 -1.4051 -2.8001 -1.1287
  995SOL    HW2 2985   2.323   2.037   0.244 -0.9017  1.8424 -0.2140
  996SOL     OW 2986   1.561   1.566   2.545  0.2588 -0.5379  0.2234
  996SOL    HW1 2987   1.534   1.585   2.450  0.8410  1.2501  2.1271
  996SOL    HW2 2988   1.535   1.637   2.612 -0.3927 -1.3123 -0.0672
  997SOL     OW 2989   1.788   0.958   1.331 -0.0340 -0.3175 -0.1839
  997SOL    HW1 2990   1.866   1.011   1.293  0.5558  0.7483 -0.6090
  997SOL    HW2 2991   1.825   0.870   1.367 -0.2669  0.6540 -0.4657
  998SOL     OW 2992   2.889   1.623   0.281 -0.4003  0.4313  0.0830
  998SOL    HW1 2993   2.837   1.534   0.287 -0.2536 -0.0551 -0.9729
  998SOL    HW2 2994   2.954   1.626   0.199  0.5681  0.9398 -0.5936
  999SOL     OW 2995   2.804   2.542   0.276  0.0691 -0.2982 -0.4654
  999SOL    HW1 2996   2.799   2.631   0.323 -2.2838  0.6746  3.3115
  999SOL    HW2 2997   2.719   2.496   0.306 -0.0863  1.4996 -2.8461
 1000SOL     OW 2998   0.833   2.882   2.045  0.5325 -0.5888 -0.4296
 1000SOL    HW1 2999   0.873   2.933   1.966 -0.4171  1.6977  0.7126
 1000SOL    HW2 3000   0.845   2.781   2.029  1.1525 -0.0787 -1.7384
   3.09176   3.09176   3.09176
