1000 SPC/Fw water molecules t=  85.00000 step= 85000
 3000
    1SOL     OW    1   1.973   2.620   0.724  0.6019 -0.5208  0.0156
    1SOL    HW1    2   2.041   2.560   0.680 -0.6373  3.3226  1.1875
    1SOL    HW2    3   1.966   2.706   0.667  1.0861 -0.8718 -0.5086
    2SOL     OW    4   0.761   1.201   2.110  0.2460 -0.4949 -0.2321
    2SOL    HW1    5   0.813   1.178   2.197  1.1687  0.5171 -2.4145
    2SOL    HW2    6   0.732   1.299   2.102  1.0332  0.5358 -0.6556
    3SOL     OW    7   1.427   2.830   2.537 -0.0414  0.0301  0.0891
    3SOL    HW1    8   1.327   2.850   2.524 -1.0730  2.7705 -2.3331
    3SOL    HW2    9   1.443   2.728   2.542 -1.0042 -2.7316 -1.2101
    4SOL     OW   10   1.178   1.855   2.752 -0.0536 -0.1453 -0.0600
    4SOL    HW1   11   1.148   1.943   2.714 -0.5412  0.8667  0.6553
    4SOL    HW2   12   1.254   1.871   2.821  1.1346  0.4231  0.8986
    5SOL     OW   13   0.497   0.973   1.814  0.4952  0.1593  0.2400
    5SOL    HW1   14   0.473   1.007   1.719 -0.8344  4.4030 -2.0260
    5SOL    HW2   15   0.577   1.025   1.850  0.7109 -0.8765 -2.1609
    6SOL     OW   16   1.880   0.453   2.696  0.4488  0.0893  0.2203
    6SOL    HW1   17   1.829   0.486   2.615 -0.9100 -1.4610  1.0169
    6SOL    HW2   18   1.899   0.531   2.757 -1.3640  0.2565  0.5392
    7SOL     OW   19   0.288   0.248   1.657  0.3509  0.3936  0.1513
    7SOL    HW1   20   0.298   0.351   1.641 -0.9052 -1.6852  1.1943
    7SOL    HW2   21   0.236   0.238   1.743  1.7984 -0.8727  4.2960
    8SOL     OW   22   1.679   0.066   1.799 -0.7261  0.1435 -0.2997
    8SOL    HW1   23   1.738   0.126   1.742  1.2993 -0.0577  0.9347
    8SOL    HW2   24   1.731   3.096   1.828 -1.0569  2.4439 -0.0307
    9SOL     OW   25   0.412   0.021   0.579  0.0282 -0.2982 -0.0200
    9SOL    HW1   26   0.406   0.065   0.671  0.5772  1.0107 -0.5818
    9SOL    HW2   27   0.331   3.071   0.562 -2.2163  0.5243 -0.6407
   10SOL     OW   28   0.507   2.045   2.425  0.7825 -0.1167 -0.4210
   10SOL    HW1   29   0.595   2.036   2.474  0.3377 -0.0401  0.7398
   10SOL    HW2   30   0.514   2.062   2.328 -1.1583  0.0083  1.0206
   11SOL     OW   31   0.679   1.460   0.027 -0.4392  0.0461  0.2695
   11SOL    HW1   32   0.718   1.462   3.042  0.4956 -0.0797  2.7583
   11SOL    HW2   33   0.698   1.371   0.068  0.3030 -0.4171 -3.3516
   12SOL     OW   34   2.944   2.851   1.441  0.0999 -0.3720 -0.3986
   12SOL    HW1   35   2.919   2.931   1.384  1.7731  0.0495  1.8953
   12SOL    HW2   36   3.018   2.798   1.400  1.9064  1.4425  0.8947
   13SOL     OW   37   0.970   2.926   0.485  0.4221 -0.3931 -0.7107
   13SOL    HW1   38   0.917   2.876   0.414  3.7550  4.9454  1.1975
   13SOL    HW2   39   0.952   3.025   0.475  0.6330  1.4427 -0.5699
   14SOL     OW   40   1.699   1.582   1.096 -0.1071  0.0732 -0.3568
   14SOL    HW1   41   1.616   1.631   1.063  2.5736  0.7385 -1.7202
   14SOL    HW2   42   1.676   1.530   1.183 -0.8613 -1.5691  1.3980
   15SOL     OW   43   3.059   1.668   2.453 -0.2347  0.2693 -0.3328
   15SOL    HW1   44   2.966   1.666   2.482  0.5871 -0.8927 -0.0922
   15SOL    HW2   45   3.110   1.738   2.501  0.2486 -1.8716 -1.9319
   16SOL     OW   46   1.517   0.619   2.642  0.2004 -0.2711 -0.0731
   16SOL    HW1   47   1.598   0.682   2.653  2.4785  0.5875 -1.1268
   16SOL    HW2   48   1.431   0.668   2.651  0.3722 -0.3833  0.4452
   17SOL     OW   49   0.048   2.307   2.383  0.0786 -0.1257  0.1779
   17SOL    HW1   50   0.080   2.343   2.471  0.1592 -1.3565 -0.3484
   17SOL    HW2   51   0.080   2.210   2.370  1.9863 -0.4480  1.1088
   18SOL     OW   52   1.060   1.300   0.621  0.5519  0.1443  0.1491
   18SOL    HW1   53   1.106   1.379   0.674  1.0632  3.3741  1.8585
   18SOL    HW2   54   1.059   1.212   0.676 -1.2260  1.2686  0.6539
   19SOL     OW   55   2.795   1.504   2.489  0.0863  0.2676 -0.2296
   19SOL    HW1   56   2.817   1.553   2.576  0.0041 -0.2059  0.0428
   19SOL    HW2   57   2.712   1.547   2.448 -1.1235 -2.4826  0.0700
   20SOL     OW   58   2.431   2.306   2.419  0.2855  0.1329  0.0815
   20SOL    HW1   59   2.427   2.339   2.327 -0.9175 -1.5942  1.7089
   20SOL    HW2   60   2.459   2.381   2.485  0.8648  0.0216  1.6520
   21SOL     OW   61   1.319   2.029   0.237 -0.2350  0.1882  0.4316
   21SOL    HW1   62   1.245   1.953   0.229 -4.0470 -1.1536  2.8264
   21SOL    HW2   63   1.398   2.021   0.298  0.7565  0.1040 -3.2297
   22SOL     OW   64   2.179   2.302   1.410 -0.3651 -0.5664  0.3499
   22SOL    HW1   65   2.208   2.359   1.488 -0.9097  1.3678 -0.0691
   22SOL    HW2   66   2.096   2.343   1.368 -2.9460  0.7351 -2.3186
   23SOL     OW   67   0.248   1.155   1.284  0.1255 -0.6224 -0.1340
   23SOL    HW1   68   0.182   1.082   1.305 -2.3256 -1.6837 -1.4962
   23SOL    HW2   69   0.339   1.151   1.333 -0.0596 -2.3981 -1.8800
   24SOL     OW   70   2.317   1.719   2.192  0.1868  0.2381 -0.8399
   24SOL    HW1   71   2.282   1.686   2.282 -0.1282 -0.5598  0.2469
   24SOL    HW2   72   2.318   1.821   2.190  1.7198 -0.3267  0.3110
   25SOL     OW   73   1.916   0.465   2.277  0.1085 -0.3360  0.1156
   25SOL    HW1   74   1.965   0.523   2.210  1.6467  0.2640  0.4380
   25SOL    HW2   75   1.834   0.419   2.234  1.9134 -0.4872  1.9795
   26SOL     OW   76   1.365   0.284   0.416  0.7479 -1.0306  0.7842
   26SOL    HW1   77   1.366   0.386   0.409 -0.5695  0.9656 -0.5953
   26SOL    HW2   78   1.404   0.263   0.507  0.8037  1.8044 -0.8689
   27SOL     OW   79   0.770   1.517   0.351 -0.0549  0.1232 -0.3720
   27SOL    HW1   80   0.728   1.610   0.335  0.6784  1.2429 -0.0865
   27SOL    HW2   81   0.700   1.442   0.355  0.3773  2.7150 -1.2399
   28SOL     OW   82   2.500   2.026   0.933 -0.5610  0.3463  0.3744
   28SOL    HW1   83   2.597   2.018   0.964 -0.1364  1.7861 -1.6231
   28SOL    HW2   84   2.433   2.048   1.008 -0.7904  1.8698  0.3853
   29SOL     OW   85   2.309   3.059   1.683  0.6505 -0.1089  0.0837
   29SOL    HW1   86   2.266   2.964   1.686  1.7993 -0.9862  1.5659
   29SOL    HW2   87   2.364   3.062   1.767 -1.0126  0.3339  0.5598
   30SOL     OW   88   0.975   3.040   1.223  0.3952  0.3167 -0.1555
   30SOL    HW1   89   1.071   3.032   1.204  1.4654  0.3202 -0.6098
   30SOL    HW2   90   0.927   2.954   1.190  0.1335 -2.2224 -0.6152
   31SOL     OW   91   3.054   2.067   1.644  0.0604  0.1184  0.1230
   31SOL    HW1   92   3.055   1.986   1.699  2.3806  1.0679 -0.9657
   31SOL    HW2   93   3.043   2.151   1.699  2.5348 -0.6402 -1.0596
   32SOL     OW   94   1.402   1.436   1.839 -0.0232  0.7058 -0.0453
   32SOL    HW1   95   1.315   1.480   1.811 -2.8271 -0.6218  2.9545
   32SOL    HW2   96   1.476   1.501   1.814 -0.2702 -0.3946 -0.6403
   33SOL     OW   97   0.207   0.318   3.045  0.0058 -0.3012  0.1720
   33SOL    HW1   98   0.301   0.347   3.014 -0.3086  2.6323  1.2854
   33SOL    HW2   99   0.182   0.232   2.994 -2.3155  0.1401  1.3215
   34SOL     OW  100   2.364   3.097   0.662  0.2640  0.3962 -0.5842
   34SOL    HW1  101   2.338   0.053   0.736  0.6227 -0.5586  0.6151
   34SOL    HW2  102   2.310   3.016   0.682  3.3701  1.0733  2.2706
   35SOL     OW  103   2.587   0.140   1.582  0.5000  0.1755  0.0546
   35SOL    HW1  104   2.620   0.162   1.677  1.1921  0.4047  0.0039
   35SOL    HW2  105   2.496   0.093   1.579 -0.9570 -0.3479 -0.0102
   36SOL     OW  106   2.666   2.829   2.750 -0.1947  0.0899  0.1463
   36SOL    HW1  107   2.595   2.903   2.727  0.7047  1.7656  0.6599
   36SOL    HW2  108   2.736   2.825   2.669  0.4029 -0.2475  1.9623
   37SOL     OW  109   1.580   2.558   2.965  0.1234  0.5481  0.0859
   37SOL    HW1  110   1.630   2.633   2.920  0.0001 -1.5227  0.9815
   37SOL    HW2  111   1.486   2.581   2.974  0.4865  1.4053 -3.2063
   38SOL     OW  112   2.732   0.915   2.991 -0.0959  0.1369  0.1122
   38SOL    HW1  113   2.791   0.833   2.992 -1.6399  0.2489  2.8791
   38SOL    HW2  114   2.753   0.971   3.077 -2.1238  0.1750  0.2010
   39SOL     OW  115   1.763   1.622   1.944 -0.2705 -0.2982  0.4442
   39SOL    HW1  116   1.746   1.716   1.976  0.2036 -1.1583 -1.6444
   39SOL    HW2  117   1.859   1.596   1.959 -0.6026 -2.0156  0.5245
   40SOL     OW  118   0.334   0.247   2.753 -0.2722 -0.4932 -0.2345
   40SOL    HW1  119   0.254   0.194   2.787  0.2070  0.6724 -1.5928
   40SOL    HW2  120   0.414   0.212   2.801 -1.6522 -1.0519  1.8393
   41SOL     OW  121   1.646   1.329   1.684  0.8518 -0.5577  0.0897
   41SOL    HW1  122   1.617   1.255   1.624 -0.3394  2.9726 -1.2313
   41SOL    HW2  123   1.592   1.322   1.768 -0.7145  2.1501 -0.0532
   42SOL     OW  124   0.159   0.246   1.887  0.2781  0.0894 -0.4795
   42SOL    HW1  125   0.109   0.331   1.900  1.0508 -1.6272 -0.3290
   42SOL    HW2  126   0.159   0.196   1.975 -2.6041  0.0280 -3.0567
   43SOL     OW  127   1.362   1.427   2.128 -0.2664  0.4784 -0.0205
   43SOL    HW1  128   1.378   1.360   2.202  1.3107  2.0868 -0.4365
   43SOL    HW2  129   1.384   1.387   2.038 -1.5151 -1.7118 -1.1364
   44SOL     OW  130   3.007   0.092   0.046  0.3077 -0.1574  0.1940
   44SOL    HW1  131   2.994   0.097   3.056 -0.8802  0.2025 -1.0834
   44SOL    HW2  132   2.917   0.091   0.094 -0.7822 -1.7033 -1.7560
   45SOL     OW  133   0.476   2.162   1.213 -0.4723 -0.1151 -0.0520
   45SOL    HW1  134   0.527   2.218   1.281 -1.0888  3.3593 -2.4592
   45SOL    HW2  135   0.486   2.062   1.217 -2.8347  1.4508 -0.3405
   46SOL     OW  136   2.475   2.516   1.853 -0.3313  0.4700 -0.0769
   46SOL    HW1  137   2.527   2.515   1.943 -0.4438  2.1138  0.5282
   46SOL    HW2  138   2.535   2.487   1.775  1.1312 -0.1773 -2.5092
   47SOL     OW  139   0.730   1.737   1.259  0.5179  0.5109 -0.2738
   47SOL    HW1  140   0.701   1.637   1.247 -0.1082 -1.1912  0.5564
   47SOL    HW2  141   0.643   1.792   1.257 -0.2320  1.4595 -1.5335
   48SOL     OW  142   0.559   2.756   0.304  0.1641 -0.0702  0.0571
   48SOL    HW1  143   0.567   2.814   0.387  0.5768  0.9225 -1.0175
   48SOL    HW2  144   0.480   2.796   0.253 -1.8931  1.5563 -0.8743
   49SOL     OW  145   2.927   1.667   1.951 -0.0213  0.9517 -0.0341
   49SOL    HW1  146   2.930   1.643   2.049  0.3554  2.3733 -2.1799
   49SOL    HW2  147   2.936   1.585   1.893 -0.7277  0.2798  4.3278
   50SOL     OW  148   1.756   0.940   0.825 -0.0428  0.1372  0.0629
   50SOL    HW1  149   1.699   0.853   0.833 -0.9338 -2.1637 -0.2164
   50SOL    HW2  150   1.754   0.997   0.912 -1.7179  0.6959  0.0161
   51SOL     OW  151   1.062   0.662   0.975  0.3440  0.2318 -0.0749
   51SOL    HW1  152   1.070   0.615   1.070  0.9721 -1.5828  4.0588
   51SOL    HW2  153   1.051   0.587   0.906 -0.0184  0.7250  1.4135
   52SOL     OW  154   1.011   1.427   0.212 -0.3395  0.3028  0.1606
   52SOL    HW1  155   1.067   1.366   0.278 -1.9431 -1.9592  0.8632
   52SOL    HW2  156   0.916   1.432   0.241  0.9761  0.1682 -1.4931
   53SOL     OW  157   1.286   0.036   2.630 -0.0495 -0.4934 -0.8182
   53SOL    HW1  158   1.378   0.042   2.675 -1.8349  0.1081 -0.9438
   53SOL    HW2  159   1.222   0.097   2.683 -2.2827  1.8397 -2.8489
   54SOL     OW  160   1.617   0.900   1.675  0.2409  0.4080 -0.2145
   54SOL    HW1  161   1.537   0.871   1.615 -0.8958  2.1194  0.8021
   54SOL    HW2  162   1.671   0.966   1.627 -2.4131 -2.3750  1.5051
   55SOL     OW  163   2.934   2.608   0.292 -0.0221  0.1087  0.2378
   55SOL    HW1  164   2.997   2.672   0.339  0.6663  2.1876 -0.8970
   55SOL    HW2  165   2.838   2.656   0.301 -2.3404  0.1464 -0.9132
   56SOL     OW  166   0.712   2.514   1.965  0.6379  0.3050  0.4690
   56SOL    HW1  167   0.627   2.514   1.907 -2.0500  1.9847 -0.8987
   56SOL    HW2  168   0.782   2.579   1.925 -2.0404 -2.0292  1.4791
   57SOL     OW  169   1.831   1.105   2.683  0.1795 -0.0145  0.2012
   57SOL    HW1  170   1.842   1.017   2.737 -2.5832 -1.6659 -1.1718
   57SOL    HW2  171   1.774   1.100   2.598  2.2825 -1.5630 -1.1436
   58SOL     OW  172   0.287   1.275   1.843  0.2395 -0.1530  0.4444
   58SOL    HW1  173   0.253   1.218   1.763 -3.8746 -0.1600 -0.9875
   58SOL    HW2  174   0.332   1.360   1.804  0.1124  2.5825 -2.5284
   59SOL     OW  175   0.498   2.627   2.312 -0.1438  0.3433  0.3419
   59SOL    HW1  176   0.574   2.660   2.251  1.9524  1.3772  0.8063
   59SOL    HW2  177   0.535   2.589   2.398 -0.9363 -0.8490 -1.0203
   60SOL     OW  178   2.845   2.374   0.215 -0.3072  0.4159 -0.2573
   60SOL    HW1  179   2.885   2.462   0.252 -1.8919 -0.5604  0.1096
   60SOL    HW2  180   2.778   2.402   0.139 -1.0312  1.6952 -0.3214
   61SOL     OW  181   1.032   2.716   0.652 -0.0931 -0.0078  0.0538
   61SOL    HW1  182   0.992   2.642   0.598 -1.0103 -1.3481  0.3761
   61SOL    HW2  183   1.003   2.806   0.609  0.8994 -0.2412 -3.2942
   62SOL     OW  184   1.809   2.522   2.676 -0.6240  0.2467  0.2119
   62SOL    HW1  185   1.787   2.544   2.574  0.5580 -0.1014 -2.7337
   62SOL    HW2  186   1.814   2.420   2.689  0.3027 -2.0862  1.4043
   63SOL     OW  187   2.082   0.599   0.146  0.1494  0.2442 -0.6903
   63SOL    HW1  188   2.058   0.594   0.048 -2.3420 -0.5714 -2.0205
   63SOL    HW2  189   2.180   0.618   0.155 -0.0696  0.6558 -0.5286
   64SOL     OW  190   0.868   1.524   2.536  0.0991  0.6962 -0.1055
   64SOL    HW1  191   0.949   1.480   2.496  0.2332  1.1079 -2.4315
   64SOL    HW2  192   0.884   1.565   2.631  1.0262  0.7561  0.6337
   65SOL     OW  193   1.231   2.965   1.132  0.5134  0.2951 -0.1750
   65SOL    HW1  194   1.314   3.022   1.136 -3.2003  0.3434 -1.1584
   65SOL    HW2  195   1.195   2.958   1.039 -0.8178  2.7425  2.6128
   66SOL     OW  196   0.583   1.694   1.608  0.7116 -0.4323 -0.1254
   66SOL    HW1  197   0.658   1.637   1.569 -0.9891 -2.6721 -0.1094
   66SOL    HW2  198   0.622   1.785   1.632  1.1049 -1.6669  2.9159
   67SOL     OW  199   2.235   2.881   2.169 -0.4287 -0.6537  0.1202
   67SOL    HW1  200   2.317   2.829   2.199 -2.3810 -2.5992  3.2170
   67SOL    HW2  201   2.245   2.983   2.178  0.2265  0.9600  0.2458
   68SOL     OW  202   0.791   0.979   1.654 -0.1839 -0.6346 -0.3873
   68SOL    HW1  203   0.734   1.020   1.732 -1.5616  1.1137  0.3945
   68SOL    HW2  204   0.729   0.926   1.594  3.8316  0.9007  2.7258
   69SOL     OW  205   2.517   2.384   0.101 -0.5504 -0.3319 -0.3785
   69SOL    HW1  206   2.458   2.430   0.164  1.4601  3.5470  1.4235
   69SOL    HW2  207   2.525   2.282   0.117  1.6676 -0.4803 -0.9935
   70SOL     OW  208   2.203   0.889   2.946  0.1399  0.6715 -1.0073
   70SOL    HW1  209   2.307   0.894   2.963 -0.3088  0.7702  0.6547
   70SOL    HW2  210   2.181   0.911   2.849  1.2644 -0.0504  0.0993
   71SOL     OW  211   0.111   2.200   0.458  0.2976 -0.1813  0.1750
   71SOL    HW1  212   0.037   2.179   0.524  0.5192  3.0694  0.2302
   71SOL    HW2  213   0.190   2.135   0.475  2.4903 -0.4630  2.0720
   72SOL     OW  214   2.971   1.761   0.543 -0.4222 -0.1874 -0.2533
   72SOL    HW1  215   3.070   1.788   0.554 -0.3994 -1.6505 -1.2734
   72SOL    HW2  216   2.964   1.659   0.553 -2.7135  0.2061  0.7549
   73SOL     OW  217   0.995   0.662   0.587 -0.3904 -0.3559 -0.6637
   73SOL    HW1  218   0.922   0.673   0.517  0.9201  2.3582  0.3115
   73SOL    HW2  219   0.982   0.732   0.662  0.4162  4.9020 -0.0076
   74SOL     OW  220   0.114   1.980   2.003  0.2081  0.4165  0.5822
   74SOL    HW1  221   0.139   1.919   2.079  2.1703  1.9550 -0.8347
   74SOL    HW2  222   0.199   2.025   1.966  0.2582 -2.8950 -1.9107
   75SOL     OW  223   1.798   1.669   1.541 -0.3019  0.1048  0.5140
   75SOL    HW1  224   1.824   1.574   1.560  1.5584 -1.1046 -0.7138
   75SOL    HW2  225   1.707   1.672   1.491 -4.0623 -0.5784 -1.7256
   76SOL     OW  226   1.423   1.993   1.114 -0.6654  0.1418  0.0616
   76SOL    HW1  227   1.458   2.029   1.026  2.4597 -1.0656 -0.0812
   76SOL    HW2  228   1.342   2.050   1.152 -1.7214  1.1261  3.2918
   77SOL     OW  229   2.538   1.665   1.999 -0.0281  0.0198 -0.4829
   77SOL    HW1  230   2.626   1.701   2.037  1.4809 -1.3650  0.6844
   77SOL    HW2  231   2.468   1.672   2.071  0.4707  0.7887 -2.4394
   78SOL     OW  232   1.435   0.546   0.814 -0.3379 -0.2023 -0.2320
   78SOL    HW1  233   1.369   0.625   0.798 -0.4537 -0.4805  0.7599
   78SOL    HW2  234   1.385   0.470   0.855 -0.0115  2.3052 -3.2613
   79SOL     OW  235   2.086   1.643   1.698 -0.1762 -0.1749  0.1719
   79SOL    HW1  236   2.147   1.635   1.618 -0.3982 -0.1139  2.8020
   79SOL    HW2  237   1.999   1.590   1.686 -1.8707  0.7194 -1.8744
   80SOL     OW  238   1.377   0.371   1.420 -0.0289 -0.0112  0.1452
   80SOL    HW1  239   1.429   0.282   1.405 -1.8144 -1.4259 -1.4488
   80SOL    HW2  240   1.298   0.353   1.482 -1.2306  0.7478 -1.3168
   81SOL     OW  241   0.790   2.451   0.602  0.2350 -0.4590 -0.4316
   81SOL    HW1  242   0.859   2.499   0.545 -2.7750 -0.3725 -1.1226
   81SOL    HW2  243   0.802   2.350   0.600 -2.5312 -0.8362 -0.4990
   82SOL     OW  244   1.517   0.511   1.665  0.1973  0.8988 -0.3668
   82SOL    HW1  245   1.432   0.531   1.721  1.1505  1.2080 -1.0558
   82SOL    HW2  246   1.485   0.486   1.571  0.2667  0.1375 -0.1843
   83SOL     OW  247   0.597   1.780   0.596  0.1354 -0.0544  0.0141
   83SOL    HW1  248   0.665   1.817   0.663 -0.0310  0.0205  1.8202
   83SOL    HW2  249   0.625   1.783   0.498 -1.7545 -0.2380 -2.1967
   84SOL     OW  250   2.580   1.404   0.045 -0.1211 -0.0747  0.3776
   84SOL    HW1  251   2.554   1.500   0.023  0.6516  2.1422 -0.0735
   84SOL    HW2  252   2.515   1.342   0.003  1.7286  0.3117  3.4133
   85SOL     OW  253   3.069   2.569   1.618 -0.1965  0.2515 -0.3408
   85SOL    HW1  254   3.020   2.628   1.680 -0.7170 -0.2393 -1.6472
   85SOL    HW2  255   3.002   2.503   1.576 -3.6631  1.5616 -0.4501
   86SOL     OW  256   1.622   2.874   1.092 -0.7982 -0.1879 -0.0854
   86SOL    HW1  257   1.663   2.798   1.149  0.1361 -1.5143 -0.4567
   86SOL    HW2  258   1.604   2.840   0.999 -0.5381  0.3399  1.5456
   87SOL     OW  259   2.918   1.294   0.731  0.3301 -0.0040  0.1056
   87SOL    HW1  260   2.837   1.337   0.694  1.5913 -2.0129 -0.0394
   87SOL    HW2  261   2.918   1.292   0.833  0.3450  0.7890  2.8884
   88SOL     OW  262   0.945   0.576   1.261 -0.5310  0.1681 -0.0226
   88SOL    HW1  263   0.982   0.542   1.350  0.9602 -2.3218  0.7431
   88SOL    HW2  264   0.882   0.503   1.225 -1.1109  1.0901  1.1588
   89SOL     OW  265   0.910   2.695   1.919 -0.4578 -0.3028 -0.1045
   89SOL    HW1  266   0.889   2.767   1.852  0.3965 -0.9300  3.9552
   89SOL    HW2  267   1.008   2.675   1.922 -3.5657 -0.4646 -0.5531
   90SOL     OW  268   3.022   1.836   1.329  0.8882  0.1368  0.3880
   90SOL    HW1  269   3.003   1.917   1.269  2.3059 -0.7765  1.5681
   90SOL    HW2  270   2.938   1.787   1.348 -0.0494 -0.2289 -1.3953
   91SOL     OW  271   1.161   1.859   1.058 -0.1745  1.3644 -0.1007
   91SOL    HW1  272   1.261   1.880   1.066  0.2188 -0.0178  0.3740
   91SOL    HW2  273   1.137   1.774   1.007 -0.4126 -0.3212 -0.4555
   92SOL     OW  274   2.824   2.806   1.789 -0.4193 -0.0560 -0.3352
   92SOL    HW1  275   2.769   2.797   1.700 -2.5994 -0.0236  0.1295
   92SOL    HW2  276   2.778   2.878   1.845  0.8479 -0.7365 -1.2262
   93SOL     OW  277   2.880   1.265   3.026  0.0592  0.1210  0.5455
   93SOL    HW1  278   2.831   1.265   2.933 -2.1957  2.3461 -0.8323
   93SOL    HW2  279   2.823   1.223   3.099 -0.2082  0.8053  0.1147
   94SOL     OW  280   2.456   3.076   1.918 -0.2161 -0.3925 -0.0525
   94SOL    HW1  281   2.422   0.018   1.994  0.9609  1.1116 -1.6389
   94SOL    HW2  282   2.553   3.044   1.937 -0.7222 -0.1113  2.4361
   95SOL     OW  283   1.622   0.683   1.860  0.7289  0.5287  0.3303
   95SOL    HW1  284   1.634   0.762   1.802 -0.6045 -1.3737  0.8180
   95SOL    HW2  285   1.581   0.609   1.801 -0.5122 -3.1049  0.2978
   96SOL     OW  286   2.453   0.683   1.707 -0.2999 -0.4020 -0.0322
   96SOL    HW1  287   2.519   0.741   1.758 -0.3748  0.8884  0.3609
   96SOL    HW2  288   2.476   0.683   1.609 -2.2517 -1.3387  2.1912
   97SOL     OW  289   2.370   3.086   1.426 -0.7501  0.3260  0.1232
   97SOL    HW1  290   2.441   3.014   1.405  2.3991 -2.6868  1.3947
   97SOL    HW2  291   2.357   3.092   1.529  1.3535 -0.1992  0.8581
   98SOL     OW  292   1.970   2.688   1.364  0.2343  0.3167 -0.1090
   98SOL    HW1  293   2.072   2.666   1.372 -0.5990 -0.6263  2.0311
   98SOL    HW2  294   1.940   2.705   1.460  1.4446 -0.1782 -0.4806
   99SOL     OW  295   2.713   0.244   1.806 -0.8861 -0.2098 -0.0912
   99SOL    HW1  296   2.672   0.246   1.901 -2.2673 -0.3955  0.6322
   99SOL    HW2  297   2.800   0.196   1.800 -1.7461  0.1044 -0.0238
  100SOL     OW  298   2.297   1.425   2.180  0.2279 -0.5437 -0.0356
  100SOL    HW1  299   2.310   1.525   2.166  0.1332 -1.8151  0.5751
  100SOL    HW2  300   2.220   1.401   2.246  0.4193  0.4947 -0.0257
  101SOL     OW  301   2.081   0.070   0.252 -0.5907  0.1066  0.7368
  101SOL    HW1  302   2.171   0.045   0.297  1.3795  0.8738 -1.4428
  101SOL    HW2  303   2.072   0.170   0.254  1.4851  0.6053  0.2711
  102SOL     OW  304   0.535   0.579   1.503  0.0335  0.0690 -0.3683
  102SOL    HW1  305   0.442   0.563   1.546 -0.7424 -1.4663  0.6662
  102SOL    HW2  306   0.546   0.510   1.426  1.2717 -0.4146 -2.0733
  103SOL     OW  307   2.420   0.081   2.669 -0.2551  0.0945 -0.6113
  103SOL    HW1  308   2.497   0.079   2.737  1.3187 -1.2722  1.7471
  103SOL    HW2  309   2.337   0.092   2.723  2.6740 -0.3722 -0.7207
  104SOL     OW  310   3.087   2.803   1.824  0.3506 -0.3435  0.5053
  104SOL    HW1  311   3.093   2.715   1.867  1.9079  3.1982 -2.1094
  104SOL    HW2  312   2.988   2.825   1.808  1.3154  1.9609 -0.7396
  105SOL     OW  313   1.293   0.901   2.184 -0.4640 -0.0245 -0.0553
  105SOL    HW1  314   1.229   0.979   2.211 -1.2639  1.5583 -0.0176
  105SOL    HW2  315   1.280   0.880   2.085 -3.8742  1.3327 -0.4213
  106SOL     OW  316   1.881   0.421   0.785 -0.0844  0.3202  0.0189
  106SOL    HW1  317   1.932   0.425   0.869  0.1571  1.8345 -1.8509
  106SOL    HW2  318   1.897   0.335   0.735 -0.8777  0.9850 -0.0635
  107SOL     OW  319   0.626   1.086   1.221  0.2061 -0.0832 -0.0398
  107SOL    HW1  320   0.561   1.011   1.198  0.8394 -2.0856  0.3860
  107SOL    HW2  321   0.722   1.052   1.202 -1.8840 -0.9946  0.4757
  108SOL     OW  322   2.871   0.414   2.395 -0.0337 -0.1283 -0.1347
  108SOL    HW1  323   2.900   0.392   2.293  1.7380 -1.3055 -0.8738
  108SOL    HW2  324   2.899   0.341   2.463 -2.8108 -2.4102  1.4283
  109SOL     OW  325   2.093   0.098   3.080  0.4264 -0.6353 -0.0563
  109SOL    HW1  326   2.091   0.076   0.062  1.9959 -0.7188 -0.8083
  109SOL    HW2  327   2.027   0.045   3.025  0.5671 -0.2843  1.2637
  110SOL     OW  328   0.000   1.890   2.948 -0.4981 -0.5167 -0.4184
  110SOL    HW1  329   0.093   1.935   2.946  0.3279  2.5443 -0.8478
  110SOL    HW2  330   0.010   1.794   2.968 -3.9384  2.7453 -2.9957
  111SOL     OW  331   2.441   0.259   2.467  0.3668 -0.1100  0.0830
  111SOL    HW1  332   2.367   0.314   2.508 -1.1874  0.3380 -0.2114
  111SOL    HW2  333   2.446   0.170   2.515  4.0736  0.1460 -0.7382
  112SOL     OW  334   2.670   2.778   1.184  0.5659 -0.9290  0.8856
  112SOL    HW1  335   2.764   2.736   1.189  0.8594  0.4972  0.1754
  112SOL    HW2  336   2.661   2.826   1.092 -0.2534  1.0096 -0.2416
  113SOL     OW  337   2.395   2.155   2.016  0.0166  0.4902 -0.5944
  113SOL    HW1  338   2.408   2.063   1.974  0.2074 -1.7487 -0.0402
  113SOL    HW2  339   2.322   2.194   1.964  1.2751 -2.4937  0.5316
  114SOL     OW  340   2.630   3.007   0.629 -0.2112 -0.5934  0.1383
  114SOL    HW1  341   2.536   2.996   0.653  2.0043  2.2159 -1.0949
  114SOL    HW2  342   2.675   3.079   0.683  2.9235  0.2024  0.0659
  115SOL     OW  343   2.888   1.782   0.284 -0.5199  0.0361 -0.0732
  115SOL    HW1  344   2.928   1.771   0.377 -0.0474 -1.3099  1.3821
  115SOL    HW2  345   2.848   1.691   0.258  1.0966 -1.3936 -0.1617
  116SOL     OW  346   0.014   1.381   1.917  0.2835  0.2511 -0.1425
  116SOL    HW1  347   3.079   1.398   1.832  1.5168 -1.0881  0.0541
  116SOL    HW2  348   0.111   1.358   1.897 -0.2558  0.2097  0.4934
  117SOL     OW  349   2.233   0.067   0.914  0.9713  0.1390  0.7711
  117SOL    HW1  350   2.257   3.107   0.983 -0.3500  0.9476 -3.4755
  117SOL    HW2  351   2.252   0.161   0.946 -1.2003  2.2646 -1.3577
  118SOL     OW  352   0.240   2.138   1.626  0.3649 -0.1942  0.2664
  118SOL    HW1  353   0.186   2.065   1.575  1.2610 -2.2384 -2.3185
  118SOL    HW2  354   0.337   2.134   1.594  0.7399  2.4108  0.0106
  119SOL     OW  355   1.244   2.227   1.473  0.4476 -0.4855  0.6703
  119SOL    HW1  356   1.262   2.220   1.376  0.7142  1.9469  1.7371
  119SOL    HW2  357   1.146   2.231   1.486  1.4164  2.7918 -3.4439
  120SOL     OW  358   0.147   1.907   1.449 -0.1004 -0.0552 -0.0359
  120SOL    HW1  359   0.059   1.880   1.406  0.8499  0.7602  0.8558
  120SOL    HW2  360   0.218   1.833   1.454  0.5294  0.2300 -1.9962
  121SOL     OW  361   2.334   1.281   0.935  0.1676 -0.4159 -0.0875
  121SOL    HW1  362   2.255   1.254   0.990  1.2462  0.2387  1.1546
  121SOL    HW2  363   2.322   1.371   0.888 -3.8873  1.4517 -0.9928
  122SOL     OW  364   2.316   1.968   2.795 -0.3184  0.8739  0.2362
  122SOL    HW1  365   2.232   1.913   2.815  0.2891 -0.0417 -0.5179
  122SOL    HW2  366   2.319   2.011   2.699  1.7348 -0.5684  0.3028
  123SOL     OW  367   2.759   2.773   0.595  0.4841  0.8198  0.0185
  123SOL    HW1  368   2.713   2.865   0.615  2.6315  1.2969 -0.6784
  123SOL    HW2  369   2.850   2.765   0.634  0.9586  1.7529  1.2061
  124SOL     OW  370   1.295   1.146   3.099  0.3806  0.4015 -0.3927
  124SOL    HW1  371   1.212   1.201   0.006  0.0807 -1.4496  0.0725
  124SOL    HW2  372   1.269   1.049   3.085 -0.3229 -0.2407 -0.0616
  125SOL     OW  373   0.117   1.520   2.747 -0.5887  0.4421  0.1359
  125SOL    HW1  374   0.144   1.607   2.705 -0.2412 -1.2565  0.6430
  125SOL    HW2  375   0.066   1.460   2.681 -0.5480 -0.7822  3.2631
  126SOL     OW  376   0.208   2.506   0.433  0.3878  0.1350  0.0448
  126SOL    HW1  377   0.307   2.510   0.443 -3.7097  0.3823  0.7086
  126SOL    HW2  378   0.169   2.412   0.455  0.7854 -2.4739 -1.0315
  127SOL     OW  379   3.018   1.491   0.582 -0.1270  0.0691 -0.2921
  127SOL    HW1  380   2.989   1.424   0.654  0.9732 -0.5165  2.1334
  127SOL    HW2  381   3.059   1.452   0.501  0.8177 -1.1294  0.4672
  128SOL     OW  382   1.177   1.269   0.376  0.1570 -0.4135  0.0022
  128SOL    HW1  383   1.143   1.258   0.471 -1.1411 -1.0817  2.6940
  128SOL    HW2  384   1.205   1.177   0.348  0.1106  1.7466 -0.3907
  129SOL     OW  385   1.914   2.051   1.394  0.5002  0.1849  0.1576
  129SOL    HW1  386   1.928   2.064   1.293 -2.1589  0.5825 -0.2245
  129SOL    HW2  387   1.822   2.080   1.427 -0.0907 -0.0228  1.9887
  130SOL     OW  388   1.914   0.915   0.613  0.1209  0.2226  0.4107
  130SOL    HW1  389   1.919   0.814   0.610 -0.1296  1.2874  0.3813
  130SOL    HW2  390   1.857   0.946   0.691  1.9735  1.1187  1.1425
  131SOL     OW  391   2.817   0.971   2.728  0.0775 -0.3179 -0.3522
  131SOL    HW1  392   2.790   0.967   2.826  1.4057 -2.1131 -1.1670
  131SOL    HW2  393   2.738   1.000   2.669  1.2525 -1.5548 -4.1183
  132SOL     OW  394   1.669   1.389   2.056 -0.1486 -0.1224  0.8217
  132SOL    HW1  395   1.721   1.308   2.022  1.5601  3.0419 -1.1985
  132SOL    HW2  396   1.706   1.473   2.019 -1.9898 -1.0181 -2.6352
  133SOL     OW  397   0.059   1.106   0.070 -0.0820 -0.4032  0.2055
  133SOL    HW1  398   3.098   1.136   0.011 -0.6802  0.3094 -1.3100
  133SOL    HW2  399   0.038   1.130   0.166  0.3479 -0.1369  1.7922
  134SOL     OW  400   2.827   0.873   0.579  0.2264 -0.4930  0.0028
  134SOL    HW1  401   2.725   0.860   0.569 -2.3874  2.9081  2.0580
  134SOL    HW2  402   2.880   0.792   0.548  1.7937  0.5501  0.5448
  135SOL     OW  403   2.010   1.062   3.043 -0.0972 -0.3712 -0.5848
  135SOL    HW1  404   2.080   1.001   2.999 -0.6386  0.7360 -2.5096
  135SOL    HW2  405   2.053   1.148   3.074 -1.3813 -1.5723  1.2394
  136SOL     OW  406   1.814   1.918   1.724  0.3470  0.1193 -0.2373
  136SOL    HW1  407   1.845   1.842   1.659  0.4039 -0.0881  0.2175
  136SOL    HW2  408   1.779   1.878   1.809 -0.6838  1.2078 -2.0733
  137SOL     OW  409   2.365   2.650   0.568  0.2516  0.7874 -0.3021
  137SOL    HW1  410   2.434   2.619   0.635 -2.0535  1.2926  0.9561
  137SOL    HW2  411   2.294   2.568   0.558 -5.0200 -2.2514 -1.6141
  138SOL     OW  412   2.132   0.307   1.466 -0.1659  0.1021  0.3795
  138SOL    HW1  413   2.045   0.352   1.440  1.6285 -0.3662 -0.8030
  138SOL    HW2  414   2.174   0.351   1.553  0.5112 -0.4235 -2.1588
  139SOL     OW  415   2.609   0.101   2.866  0.3219 -0.1405  0.1096
  139SOL    HW1  416   2.579   0.055   2.954  0.2875  1.5085  0.0518
  139SOL    HW2  417   2.626   0.202   2.883 -3.0028  0.4372  2.7055
  140SOL     OW  418   1.125   1.417   2.493 -0.4466  0.3245 -0.1560
  140SOL    HW1  419   1.112   1.320   2.528 -3.5219 -1.4267  1.4773
  140SOL    HW2  420   1.206   1.467   2.537  1.4021  2.2952  0.6333
  141SOL     OW  421   0.740   0.581   2.227  0.0156  0.1380 -0.4516
  141SOL    HW1  422   0.644   0.606   2.200 -0.7816  2.1727  0.0057
  141SOL    HW2  423   0.768   0.491   2.186 -0.6442 -2.6340  1.0537
  142SOL     OW  424   2.637   2.576   2.838 -0.4282  0.3720 -0.1907
  142SOL    HW1  425   2.717   2.548   2.897  0.5531  0.7322 -2.4326
  142SOL    HW2  426   2.636   2.671   2.817 -0.6712 -1.6093 -0.2603
  143SOL     OW  427   0.802   1.982   0.364 -0.2476  0.2881  0.3899
  143SOL    HW1  428   0.776   2.079   0.374 -0.4442 -0.6419 -0.5554
  143SOL    HW2  429   0.876   1.960   0.429 -0.2491  0.0288 -0.5311
  144SOL     OW  430   1.327   2.628   2.997 -0.8504 -0.5157 -0.0879
  144SOL    HW1  431   1.252   2.569   2.969 -2.4940  2.3169  2.3742
  144SOL    HW2  432   1.318   2.625   3.097 -0.9210 -1.4488  0.7634
  145SOL     OW  433   1.635   1.910   2.516 -0.6444  0.0365  0.0056
  145SOL    HW1  434   1.720   1.958   2.542 -2.2885 -0.4562 -2.1008
  145SOL    HW2  435   1.652   1.855   2.434  1.0032  1.5589  0.8357
  146SOL     OW  436   2.902   2.852   2.907 -0.4571  0.3415 -0.5275
  146SOL    HW1  437   2.875   2.855   3.004 -0.7525 -0.8416  1.0418
  146SOL    HW2  438   2.825   2.827   2.844 -2.0707 -2.4668  0.5578
  147SOL     OW  439   3.013   1.455   1.210  0.3970 -0.2172 -0.6190
  147SOL    HW1  440   3.101   1.492   1.242 -1.0388 -0.2422  1.0566
  147SOL    HW2  441   2.945   1.527   1.181  0.2479  0.0689 -1.3211
  148SOL     OW  442   1.904   2.855   0.102 -0.2817 -0.4015 -0.1746
  148SOL    HW1  443   1.804   2.874   0.103 -0.1636  0.1621 -1.5923
  148SOL    HW2  444   1.960   2.892   0.018  2.1581  2.3824 -2.8541
  149SOL     OW  445   0.829   1.937   2.769 -0.0142 -0.2634  0.0690
  149SOL    HW1  446   0.747   1.877   2.784 -2.0500 -2.9167  1.9878
  149SOL    HW2  447   0.821   2.015   2.833 -1.8351 -1.1511  1.1005
  150SOL     OW  448   0.464   2.321   0.346 -0.4101 -0.5494 -0.4754
  150SOL    HW1  449   0.388   2.324   0.280  3.1570  2.0118 -1.1583
  150SOL    HW2  450   0.548   2.359   0.298 -0.4821  1.9886 -0.5855
  151SOL     OW  451   0.431   1.157   0.194 -0.8895 -0.7362 -0.3463
  151SOL    HW1  452   0.403   1.070   0.236 -0.1714  2.2889  2.0933
  151SOL    HW2  453   0.381   1.173   0.108 -0.4540 -1.3145  0.3734
  152SOL     OW  454   2.730   1.825   0.654  0.3972 -0.4104 -0.5970
  152SOL    HW1  455   2.818   1.799   0.611  0.0315  0.3109  0.0694
  152SOL    HW2  456   2.682   1.893   0.598 -2.7607 -0.3301 -2.3388
  153SOL     OW  457   1.757   2.398   0.600  0.2107 -0.5041 -0.6134
  153SOL    HW1  458   1.824   2.420   0.528 -0.6395  0.1233  0.2216
  153SOL    HW2  459   1.769   2.454   0.684  0.2057  1.5530 -0.9877
  154SOL     OW  460   0.841   2.576   0.844 -0.0646 -0.6194  0.2007
  154SOL    HW1  461   0.832   2.531   0.753 -1.2392 -3.8074 -0.4601
  154SOL    HW2  462   0.765   2.548   0.908 -1.8301  1.0886 -2.3764
  155SOL     OW  463   2.848   1.778   0.926  0.0336 -0.2554  0.2642
  155SOL    HW1  464   2.809   1.829   0.847  0.3449 -0.0379 -1.1909
  155SOL    HW2  465   2.930   1.725   0.895 -0.6980  0.5919 -0.1209
  156SOL     OW  466   2.659   2.238   0.357  0.1968 -0.0948  0.9381
  156SOL    HW1  467   2.605   2.312   0.404 -1.6500  1.3489 -1.1748
  156SOL    HW2  468   2.743   2.278   0.309  0.9934 -0.8921  1.2160
  157SOL     OW  469   0.506   2.101   1.549  0.1966 -0.0977 -0.1312
  157SOL    HW1  470   0.570   2.045   1.606  0.1349  2.0974 -1.2443
  157SOL    HW2  471   0.561   2.162   1.483  0.3181  1.5229 -2.5141
  158SOL     OW  472   1.572   0.844   0.227  0.4465  0.1213 -0.0837
  158SOL    HW1  473   1.481   0.794   0.251 -2.2444  1.2340  3.4518
  158SOL    HW2  474   1.648   0.778   0.236 -0.9658  0.8896 -1.8261
  159SOL     OW  475   1.328   0.720   0.247  0.0695 -0.2162  0.0133
  159SOL    HW1  476   1.298   0.684   0.337 -2.9101 -0.1878  1.5420
  159SOL    HW2  477   1.297   0.659   0.166 -0.5500  0.6347 -2.7762
  160SOL     OW  478   0.814   1.258   0.497 -0.2507 -0.2045 -0.1351
  160SOL    HW1  479   0.729   1.277   0.544  3.7674 -0.5219  1.4266
  160SOL    HW2  480   0.892   1.290   0.551 -0.2247  1.1758  2.5479
  161SOL     OW  481   0.182   2.392   2.621 -0.1659  0.0390  0.2188
  161SOL    HW1  482   0.135   2.319   2.673 -1.9448  2.3364 -1.4048
  161SOL    HW2  483   0.279   2.362   2.604 -2.0410  0.9382 -0.3109
  162SOL     OW  484   0.217   2.579   0.924 -1.0792 -0.2868  0.1894
  162SOL    HW1  485   0.177   2.523   0.998  0.6919  2.5249  2.1603
  162SOL    HW2  486   0.238   2.522   0.843 -2.1007  0.7285 -1.0242
  163SOL     OW  487   2.928   0.441   2.767 -0.1477 -0.3269  0.2829
  163SOL    HW1  488   2.924   0.534   2.724  0.3569  1.1840  1.1957
  163SOL    HW2  489   2.998   0.447   2.838 -0.5957 -0.7815  0.8145
  164SOL     OW  490   0.544   3.017   2.857 -0.0351 -0.7718  0.7441
  164SOL    HW1  491   0.445   2.993   2.858 -1.2783 -1.7813  2.4035
  164SOL    HW2  492   0.589   2.970   2.781  0.3306  0.6124  2.1587
  165SOL     OW  493   2.238   0.486   1.646  0.4274 -0.0276 -0.2120
  165SOL    HW1  494   2.144   0.530   1.626 -2.3168 -2.4950 -2.1676
  165SOL    HW2  495   2.303   0.561   1.666 -0.3329 -0.5122 -0.4281
  166SOL     OW  496   1.961   2.460   1.689  0.0299 -0.3413 -0.4152
  166SOL    HW1  497   1.943   2.363   1.730 -2.9019 -1.8590  3.3440
  166SOL    HW2  498   2.058   2.493   1.702  4.9646  2.5910 -0.0488
  167SOL     OW  499   0.867   1.136   2.358 -0.0271  0.0414 -0.3812
  167SOL    HW1  500   0.876   1.161   2.458  1.2136  0.8592  0.3856
  167SOL    HW2  501   0.809   1.054   2.338 -0.7089  0.7982 -3.9631
  168SOL     OW  502   2.267   0.049   2.177  0.1286  0.2286 -0.0410
  168SOL    HW1  503   2.211   0.130   2.155 -2.0394 -2.2729 -1.6831
  168SOL    HW2  504   2.352   0.074   2.222 -1.3452  1.3553 -1.2126
  169SOL     OW  505   0.263   0.917   0.209  0.2125  0.0634  0.3386
  169SOL    HW1  506   0.280   0.823   0.172  1.9993 -2.5574  0.7705
  169SOL    HW2  507   0.197   0.964   0.147 -1.2558 -1.3419  3.5103
  170SOL     OW  508   2.944   1.485   1.717 -0.0335  0.1751 -0.0918
  170SOL    HW1  509   2.963   1.524   1.626  1.1501  2.6386  1.0804
  170SOL    HW2  510   2.845   1.496   1.745  0.7791 -3.2494 -1.8595
  171SOL     OW  511   1.106   2.258   2.158  0.5065 -0.5057  0.1657
  171SOL    HW1  512   1.043   2.341   2.144  0.9063  1.8222  1.2900
  171SOL    HW2  513   1.202   2.290   2.158  0.6310  0.2561  2.6540
  172SOL     OW  514   0.905   2.470   2.191 -0.1577  0.3191 -0.7440
  172SOL    HW1  515   0.837   2.474   2.116 -1.0084  1.7454  1.1368
  172SOL    HW2  516   0.977   2.540   2.176  0.9818  4.1298  0.3887
  173SOL     OW  517   1.337   2.493   0.846 -0.2331 -0.2005 -0.5087
  173SOL    HW1  518   1.407   2.432   0.808  1.2382 -0.4549  1.6343
  173SOL    HW2  519   1.330   2.572   0.782  3.1465  1.2029  1.2314
  174SOL     OW  520   2.328   0.051   0.383 -0.0601  0.7321  0.3433
  174SOL    HW1  521   2.344   0.032   0.478 -0.1517 -0.0366 -1.1633
  174SOL    HW2  522   2.343   0.152   0.369  0.8350 -1.2954 -0.8082
  175SOL     OW  523   0.989   1.595   0.495 -0.2577  0.6583  0.1199
  175SOL    HW1  524   1.044   1.637   0.421  1.4407 -3.2134 -1.1868
  175SOL    HW2  525   0.914   1.541   0.448 -0.1253 -1.4353 -0.9965
  176SOL     OW  526   0.537   1.254   0.536 -0.1115 -0.0266  0.1670
  176SOL    HW1  527   0.510   1.333   0.594  1.0644 -1.1231  2.1215
  176SOL    HW2  528   0.458   1.230   0.477  2.3273  1.9411  0.9729
  177SOL     OW  529   1.277   1.185   1.494 -0.3071  0.3474  0.2412
  177SOL    HW1  530   1.188   1.161   1.534  0.7205 -1.9349 -2.1046
  177SOL    HW2  531   1.301   1.282   1.522  4.0077  4.5022 -2.9104
  178SOL     OW  532   2.713   1.603   0.488  0.0447 -0.0141  0.1332
  178SOL    HW1  533   2.704   1.659   0.571 -0.6817 -0.2308  2.0110
  178SOL    HW2  534   2.659   1.634   0.409  0.5040 -0.2433 -0.9701
  179SOL     OW  535   1.138   2.413   2.990 -0.2080 -0.1464 -0.5674
  179SOL    HW1  536   1.093   2.363   3.066 -1.5531  1.2732  1.7198
  179SOL    HW2  537   1.185   2.348   2.929 -3.1760 -1.0231  2.2501
  180SOL     OW  538   2.026   1.578   1.973  0.1062  0.2721 -1.0029
  180SOL    HW1  539   2.079   1.514   2.033  1.9566 -1.4576  1.1053
  180SOL    HW2  540   2.078   1.597   1.887 -0.5120  1.5207  3.1246
  181SOL     OW  541   0.672   0.939   2.271 -0.0790  0.3233 -0.3944
  181SOL    HW1  542   0.649   1.002   2.196 -0.6472 -1.1341  0.7364
  181SOL    HW2  543   0.745   0.879   2.238 -1.0676  1.7407  0.8739
  182SOL     OW  544   2.760   0.896   2.352 -0.2513  0.2680  0.5650
  182SOL    HW1  545   2.711   0.930   2.438  0.7481  0.4177 -0.7055
  182SOL    HW2  546   2.805   0.804   2.362  3.3829 -2.2162 -2.6661
  183SOL     OW  547   1.518   0.825   2.338  0.0075 -0.4513  0.1519
  183SOL    HW1  548   1.531   0.725   2.339 -0.4861  1.0262  2.8389
  183SOL    HW2  549   1.427   0.851   2.298 -2.6708 -0.4679  0.4441
  184SOL     OW  550   0.331   0.757   1.801  0.0081  0.0483  0.4826
  184SOL    HW1  551   0.349   0.692   1.872 -3.3024  1.4229 -2.5783
  184SOL    HW2  552   0.386   0.842   1.810  1.9463 -1.4698  1.6143
  185SOL     OW  553   2.089   1.852   0.737 -0.2349 -0.3951 -0.1796
  185SOL    HW1  554   2.153   1.832   0.659  1.6744 -0.4380 -2.5192
  185SOL    HW2  555   2.100   1.778   0.803  2.6668  1.8221 -2.8937
  186SOL     OW  556   0.386   1.851   0.189  0.6048 -0.3006  0.1016
  186SOL    HW1  557   0.464   1.789   0.165  1.4767 -0.2538 -2.9785
  186SOL    HW2  558   0.320   1.809   0.250 -0.4974  2.9862 -1.8576
  187SOL     OW  559   2.270   1.833   0.120 -0.2695  0.3948  0.5191
  187SOL    HW1  560   2.295   1.910   0.051  1.4068  0.5846 -0.8442
  187SOL    HW2  561   2.305   1.743   0.086 -0.7847  0.2437 -1.6005
  188SOL     OW  562   0.934   2.296   0.967  0.0663 -0.2592  0.3613
  188SOL    HW1  563   1.029   2.263   0.981 -2.0934 -1.1451  0.2596
  188SOL    HW2  564   0.933   2.398   0.989  0.0511  1.1436  0.0393
  189SOL     OW  565   2.025   1.281   2.787  0.5465  0.1992  0.0447
  189SOL    HW1  566   1.947   1.226   2.744 -2.2329  0.6166 -1.0085
  189SOL    HW2  567   2.102   1.287   2.725  0.0007 -1.6883  1.5565
  190SOL     OW  568   0.952   2.042   2.310 -0.2918  0.2789  0.0273
  190SOL    HW1  569   0.999   1.974   2.373 -1.3823 -1.8110  1.8483
  190SOL    HW2  570   1.015   2.110   2.270 -1.5603  0.8060 -0.1168
  191SOL     OW  571   2.268   0.662   1.322  0.4119  0.6730  0.2557
  191SOL    HW1  572   2.205   0.670   1.401  1.9525  0.2771  0.5969
  191SOL    HW2  573   2.360   0.659   1.362 -2.1355  1.9874  1.6372
  192SOL     OW  574   2.486   0.504   1.935 -0.2973 -0.5721 -0.7746
  192SOL    HW1  575   2.490   0.529   1.837  0.0094 -1.4181  1.2924
  192SOL    HW2  576   2.488   0.590   1.991 -0.1052 -0.7258  0.8630
  193SOL     OW  577   0.916   0.220   0.671 -0.3176  0.3614  0.1958
  193SOL    HW1  578   0.939   0.172   0.584  1.6841 -0.8733 -0.0957
  193SOL    HW2  579   0.960   0.167   0.748  1.5835 -1.5121  3.2951
  194SOL     OW  580   1.329   2.360   1.682  0.3667  0.0810  0.1025
  194SOL    HW1  581   1.308   2.312   1.597 -1.0884 -0.8031  0.5327
  194SOL    HW2  582   1.248   2.417   1.713  3.2624  0.9026 -0.9171
  195SOL     OW  583   2.811   0.878   0.883 -0.3091 -0.2613  0.2063
  195SOL    HW1  584   2.728   0.923   0.913  3.6260 -3.0083 -0.0984
  195SOL    HW2  585   2.825   0.897   0.783  0.1816 -1.3532  1.2397
  196SOL     OW  586   1.006   1.773   1.692  0.5152 -0.1731 -0.1606
  196SOL    HW1  587   1.015   1.861   1.641 -0.0682  2.6969  0.1948
  196SOL    HW2  588   0.977   1.785   1.788  0.2595 -0.5750  0.9610
  197SOL     OW  589   0.276   0.914   2.475 -0.3014  0.6173 -0.9446
  197SOL    HW1  590   0.226   0.943   2.392  2.0398 -3.1716  1.0426
  197SOL    HW2  591   0.258   0.817   2.506  3.0788  0.6034 -1.2498
  198SOL     OW  592   1.591   1.112   0.332  0.6383  0.3342 -0.2469
  198SOL    HW1  593   1.591   1.018   0.292  2.1629  2.3494 -2.2098
  198SOL    HW2  594   1.582   1.119   0.437 -1.6944 -0.8042  3.0067
  199SOL     OW  595   2.755   0.589   2.162 -0.1740 -0.4822  0.6597
  199SOL    HW1  596   2.795   0.597   2.253 -0.7514  0.3058 -4.2355
  199SOL    HW2  597   2.657   0.626   2.170  1.6390 -0.5334  0.8268
  200SOL     OW  598   2.154   2.527   2.553 -0.8635  0.0516 -0.0467
  200SOL    HW1  599   2.216   2.608   2.552  0.3910  1.5683 -0.8528
  200SOL    HW2  600   2.137   2.500   2.650 -0.0248 -1.9308  1.2566
  201SOL     OW  601   2.383   0.248   1.343 -0.3558 -0.5274 -0.1850
  201SOL    HW1  602   2.296   0.283   1.381  1.0400 -0.5668 -4.9242
  201SOL    HW2  603   2.387   0.147   1.348  2.4457 -2.8513 -2.0428
  202SOL     OW  604   2.624   2.643   0.069 -0.0256  0.1935 -0.1232
  202SOL    HW1  605   2.629   2.681   0.166 -0.0940 -2.0881  1.1200
  202SOL    HW2  606   2.594   2.546   0.061 -0.4773 -1.6030  0.6394
  203SOL     OW  607   1.113   2.126   2.723  0.3187 -0.1680 -0.2063
  203SOL    HW1  608   1.041   2.195   2.698 -2.5051  2.0509 -0.0592
  203SOL    HW2  609   1.096   2.098   2.817  1.5731  0.4296 -1.1043
  204SOL     OW  610   0.629   1.669   2.441  0.3553  0.6009 -0.0877
  204SOL    HW1  611   0.673   1.615   2.514 -0.2323 -1.1388 -1.6841
  204SOL    HW2  612   0.692   1.744   2.410  0.5499  1.0675 -1.6436
  205SOL     OW  613   0.917   1.037   1.264  0.0496 -0.4543 -0.3318
  205SOL    HW1  614   0.870   0.952   1.281  1.8650  0.6231 -3.0412
  205SOL    HW2  615   1.013   1.023   1.287 -1.8367  2.1895  1.3810
  206SOL     OW  616   0.084   0.616   2.731 -0.0652  0.3502 -0.0339
  206SOL    HW1  617   3.109   0.675   2.729  1.4668 -0.7145 -1.0251
  206SOL    HW2  618   0.116   0.598   2.638 -1.6665  0.5021  6.3508
  207SOL     OW  619   1.824   2.385   2.073  0.1612 -0.3449  0.4284
  207SOL    HW1  620   1.906   2.379   2.131  0.2195 -2.4339  0.4965
  207SOL    HW2  621   1.800   2.484   2.039 -2.7759 -0.5877 -0.3971
  208SOL     OW  622   1.110   2.650   1.437 -0.0994  0.5382  0.1422
  208SOL    HW1  623   1.009   2.666   1.431  1.0919  1.9615  1.1246
  208SOL    HW2  624   1.165   2.731   1.407 -0.7362  0.0022  0.4692
  209SOL     OW  625   1.326   1.595   3.037  0.2319 -0.2147 -0.7896
  209SOL    HW1  626   1.388   1.524   3.067  1.6315 -0.8317 -0.1693
  209SOL    HW2  627   1.235   1.552   3.010 -0.2130  0.1852 -1.2368
  210SOL     OW  628   2.280   0.725   0.904  0.7398 -0.3930 -0.1569
  210SOL    HW1  629   2.383   0.713   0.893 -1.8728 -1.6385  0.0673
  210SOL    HW2  630   2.226   0.681   0.827 -0.4357  0.3565  0.2552
  211SOL     OW  631   1.292   2.660   0.208 -0.0078  0.2623  0.2041
  211SOL    HW1  632   1.328   2.675   0.301  1.7725 -1.7967 -1.1568
  211SOL    HW2  633   1.229   2.733   0.178  1.2207 -3.0664  1.3957
  212SOL     OW  634   2.011   2.130   0.878 -0.7678 -0.8068 -0.3584
  212SOL    HW1  635   2.083   2.199   0.847 -0.5739 -1.5462  0.1918
  212SOL    HW2  636   2.044   2.038   0.856 -1.2737  1.8828  1.1417
  213SOL     OW  637   1.838   0.664   2.905  0.0730 -0.0430 -0.1823
  213SOL    HW1  638   1.765   0.628   2.962 -2.2831 -2.0280 -1.1804
  213SOL    HW2  639   1.836   0.768   2.911 -0.1213  2.2566 -1.5864
  214SOL     OW  640   0.957   1.820   1.962  0.0867 -0.1677 -0.1114
  214SOL    HW1  641   0.901   1.907   1.964 -2.2032 -0.1960 -3.3158
  214SOL    HW2  642   0.976   1.773   2.051 -3.7248 -1.3084 -0.6989
  215SOL     OW  643   0.278   1.291   0.439  0.6314 -0.1487  0.2430
  215SOL    HW1  644   0.283   1.290   0.336 -0.3728 -1.3036  0.5300
  215SOL    HW2  645   0.272   1.385   0.480 -0.9405 -0.6159  0.4437
  216SOL     OW  646   0.175   3.018   2.412 -0.0307  0.0038  0.4330
  216SOL    HW1  647   0.251   2.962   2.450  1.4933 -1.4305  0.3420
  216SOL    HW2  648   0.121   2.954   2.360  0.3805 -0.6633 -0.5297
  217SOL     OW  649   2.551   0.948   1.239 -0.2855  0.5696 -0.1850
  217SOL    HW1  650   2.492   0.903   1.306  0.8196 -0.9223  0.8821
  217SOL    HW2  651   2.635   0.990   1.283  0.5919 -2.0396  0.2425
  218SOL     OW  652   1.376   1.679   2.196 -0.5921  0.1692 -0.4398
  218SOL    HW1  653   1.326   1.757   2.148 -2.8277 -0.7067  0.2342
  218SOL    HW2  654   1.352   1.584   2.165  0.7868 -1.9724  1.4825
  219SOL     OW  655   1.965   1.624   0.055  0.0199  0.4141 -0.4879
  219SOL    HW1  656   1.995   1.695   0.116  1.8115 -1.0799 -2.1786
  219SOL    HW2  657   1.866   1.592   0.082 -3.3202 -2.5987  2.0469
  220SOL     OW  658   2.230   0.965   0.308 -0.3558  0.0931 -0.1641
  220SOL    HW1  659   2.288   0.979   0.228  1.9864  0.4632  0.3910
  220SOL    HW2  660   2.135   0.945   0.285  0.7854  1.8411 -1.4298
  221SOL     OW  661   0.093   0.223   0.186 -0.0899  0.0921 -0.0400
  221SOL    HW1  662   0.141   0.294   0.133  0.9972 -0.5384  0.0343
  221SOL    HW2  663   0.017   0.185   0.135  0.8136  0.1853  3.8076
  222SOL     OW  664   1.361   1.871   0.616 -0.1533 -0.5490  0.0873
  222SOL    HW1  665   1.436   1.839   0.672 -1.8027  1.1375 -1.8511
  222SOL    HW2  666   1.299   1.930   0.670  1.5448 -1.1553 -0.3314
  223SOL     OW  667   0.875   0.293   3.051 -0.2096 -0.2689  0.3888
  223SOL    HW1  668   0.953   0.254   3.008 -1.6538  1.8685  0.6083
  223SOL    HW2  669   0.789   0.258   3.007 -1.5654 -0.0993 -0.1945
  224SOL     OW  670   1.889   0.166   1.091 -0.1245 -0.0013  0.2170
  224SOL    HW1  671   1.848   0.153   1.183 -1.8811  2.7294  0.7077
  224SOL    HW2  672   1.920   0.078   1.052  0.3134  1.4563  0.2348
  225SOL     OW  673   0.619   2.504   1.287  0.0105 -0.0569  0.1102
  225SOL    HW1  674   0.642   2.518   1.190 -1.1015 -2.4032  0.2544
  225SOL    HW2  675   0.519   2.516   1.311 -0.4447  2.8782  1.8949
  226SOL     OW  676   0.984   1.716   0.213  0.2180 -0.3524 -0.1945
  226SOL    HW1  677   0.946   1.625   0.238  0.3987  3.0846 -0.5246
  226SOL    HW2  678   1.083   1.712   0.216  0.7280  1.0097  1.0289
  227SOL     OW  679   0.770   1.686   0.946  0.9223  0.3360  0.7007
  227SOL    HW1  680   0.709   1.599   0.935  0.2931 -1.7027  0.3197
  227SOL    HW2  681   0.782   1.722   1.045  1.2709  3.5958 -2.2254
  228SOL     OW  682   0.211   1.503   0.610 -0.4225  0.6841  0.2573
  228SOL    HW1  683   0.176   1.600   0.595 -0.8267  1.6019 -0.8251
  228SOL    HW2  684   0.184   1.468   0.703  1.4987  0.2991  1.8310
  229SOL     OW  685   2.240   0.370   2.611 -0.3666  0.2911  0.0015
  229SOL    HW1  686   2.162   0.310   2.627 -2.1338  1.4251 -0.8970
  229SOL    HW2  687   2.266   0.419   2.697  0.6252 -1.4267  3.3770
  230SOL     OW  688   1.983   1.347   0.219  0.6103  0.1572 -0.0247
  230SOL    HW1  689   1.915   1.419   0.223 -3.6620 -0.4118  0.7942
  230SOL    HW2  690   1.994   1.297   0.306  1.9598 -0.2822 -1.9229
  231SOL     OW  691   1.338   1.560   2.642 -0.5238 -0.3681  0.3862
  231SOL    HW1  692   1.333   1.651   2.590  1.5476 -0.5904 -0.2161
  231SOL    HW2  693   1.431   1.559   2.685  3.6881  0.9748  1.5443
  232SOL     OW  694   2.501   2.156   0.686  0.4739  0.3779 -0.4023
  232SOL    HW1  695   2.504   2.094   0.769  1.0288  0.2820  4.6531
  232SOL    HW2  696   2.515   2.104   0.600  0.6236  0.0803 -0.7670
  233SOL     OW  697   0.511   2.473   0.578 -0.3162  0.6532  0.3542
  233SOL    HW1  698   0.613   2.475   0.597  2.0778  0.5271 -0.5470
  233SOL    HW2  699   0.494   2.414   0.498  0.6218  2.8475  0.3133
  234SOL     OW  700   0.698   0.754   2.693 -0.2058  0.0537 -0.0366
  234SOL    HW1  701   0.651   0.812   2.625 -0.4401 -0.6759  2.5333
  234SOL    HW2  702   0.774   0.807   2.738  0.6459 -0.6609  0.3622
  235SOL     OW  703   2.598   0.484   2.419 -0.0185 -0.3485 -0.4115
  235SOL    HW1  704   2.529   0.411   2.437  2.2939  0.7842 -1.3794
  235SOL    HW2  705   2.691   0.443   2.404  1.2864  3.7347 -2.0464
  236SOL     OW  706   1.745   2.657   1.214 -0.0630  0.1499  0.1402
  236SOL    HW1  707   1.819   2.691   1.279  0.5079  2.1085  0.7344
  236SOL    HW2  708   1.737   2.558   1.218 -1.3692  0.6108  0.3472
  237SOL     OW  709   0.766   1.838   2.277  0.0390  0.0133 -0.8307
  237SOL    HW1  710   0.831   1.757   2.274 -1.9779 -1.8619  0.3024
  237SOL    HW2  711   0.819   1.925   2.289 -0.9008  1.8700 -0.4894
  238SOL     OW  712   1.089   0.426   2.075  0.0063 -0.0903 -0.0981
  238SOL    HW1  713   1.050   0.365   2.145 -0.9281  3.5295 -1.1120
  238SOL    HW2  714   1.152   0.497   2.115 -1.0948 -0.6146  2.1067
  239SOL     OW  715   0.342   2.110   1.885  0.5028  0.4412  0.1363
  239SOL    HW1  716   0.358   2.195   1.936  0.5141 -3.4611  0.8144
  239SOL    HW2  717   0.321   2.121   1.787  3.4822 -0.0446  1.6188
  240SOL     OW  718   2.680   2.677   0.350 -0.1682 -0.7429  0.2178
  240SOL    HW1  719   2.601   2.616   0.353  1.2808  0.2259  0.9692
  240SOL    HW2  720   2.700   2.715   0.443 -0.3628  0.6586  0.6724
  241SOL     OW  721   2.623   1.048   0.995 -0.4338 -0.1718  0.1465
  241SOL    HW1  722   2.582   1.041   1.091  0.4517  0.0853 -0.1196
  241SOL    HW2  723   2.551   1.057   0.918 -2.9005 -0.3076 -3.1601
  242SOL     OW  724   2.139   2.426   2.067 -0.4033  0.4866  0.4546
  242SOL    HW1  725   2.115   2.401   2.165  1.1439  0.5157  1.4346
  242SOL    HW2  726   2.205   2.502   2.068 -1.6700  0.5345 -2.6533
  243SOL     OW  727   0.665   2.716   1.595  0.0642 -0.3600 -0.1206
  243SOL    HW1  728   0.709   2.724   1.503  0.3956  3.4704 -0.7436
  243SOL    HW2  729   0.723   2.775   1.660 -0.0983 -0.5076  3.1850
  244SOL     OW  730   2.093   0.628   2.983  0.1818 -0.2871 -0.1587
  244SOL    HW1  731   1.997   0.629   2.953 -0.3867  0.0195  1.9847
  244SOL    HW2  732   2.140   0.714   2.958 -0.6707 -1.3719  2.1407
  245SOL     OW  733   1.514   0.577   1.296 -0.2258  0.2427 -0.4897
  245SOL    HW1  734   1.444   0.648   1.264 -0.1127  1.8711  0.9447
  245SOL    HW2  735   1.468   0.495   1.327 -0.6491  1.7710 -0.2235
  246SOL     OW  736   1.822   2.443   3.095 -0.2095 -0.5123  0.6052
  246SOL    HW1  737   1.911   2.436   3.050 -0.1648 -0.4801 -1.1267
  246SOL    HW2  738   1.748   2.468   3.025 -0.2107  1.4938 -3.1192
  247SOL     OW  739   0.977   0.833   2.529 -0.6228 -0.5041  0.0521
  247SOL    HW1  740   0.949   0.838   2.627  2.1684 -1.5937  1.4507
  247SOL    HW2  741   1.033   0.749   2.516 -1.4621 -3.0299  0.0302
  248SOL     OW  742   0.564   1.971   1.942 -0.4285  0.0300 -0.2679
  248SOL    HW1  743   0.546   1.902   2.016  0.3255  1.9262 -0.7179
  248SOL    HW2  744   0.478   2.024   1.924 -1.2376  1.7609  1.5652
  249SOL     OW  745   2.602   0.275   0.464  0.4903 -0.1075  0.3068
  249SOL    HW1  746   2.518   0.309   0.414 -1.7974 -0.7141 -0.9740
  249SOL    HW2  747   2.589   0.174   0.484 -0.8723 -3.6296 -0.3580
  250SOL     OW  748   2.698   0.354   2.922 -0.4866 -0.2844  0.0973
  250SOL    HW1  749   2.716   0.340   3.020 -0.4704  1.2042  1.7122
  250SOL    HW2  750   2.784   0.356   2.864  0.0188 -0.1371  0.3752
  251SOL     OW  751   1.496   0.714   3.045 -0.0165  0.0053 -0.4479
  251SOL    HW1  752   1.502   0.816   3.027 -0.8931 -0.2837  0.2899
  251SOL    HW2  753   1.579   0.693   3.104  3.3083 -0.6608  2.4135
  252SOL     OW  754   1.479   1.905   1.813  0.2427  0.2375  0.2535
  252SOL    HW1  755   1.412   1.919   1.737  2.8446 -1.3468  0.6357
  252SOL    HW2  756   1.554   1.974   1.810 -1.2562  0.0190  1.1971
  253SOL     OW  757   2.283   2.482   1.010  0.0548 -0.2408  0.2910
  253SOL    HW1  758   2.372   2.529   0.997  1.4513 -2.3967 -1.7954
  253SOL    HW2  759   2.290   2.411   1.088  0.7046 -2.2490  1.4271
  254SOL     OW  760   2.452   1.198   0.623 -0.5479  0.1297 -0.0237
  254SOL    HW1  761   2.364   1.244   0.644  1.2760 -0.3893  2.1966
  254SOL    HW2  762   2.458   1.110   0.676  1.1142 -0.8826  0.8846
  255SOL     OW  763   1.487   0.136   1.393  0.7748  0.6953  0.3964
  255SOL    HW1  764   1.499   0.071   1.468 -2.8915 -2.5150 -1.6508
  255SOL    HW2  765   1.481   0.097   1.300 -3.7412 -0.3028  0.8158
  256SOL     OW  766   1.505   2.513   1.566 -0.0258  0.0737  0.1658
  256SOL    HW1  767   1.596   2.460   1.563  1.8766  0.7495  0.7352
  256SOL    HW2  768   1.429   2.458   1.603  0.6379  1.7224 -1.2700
  257SOL     OW  769   0.637   2.915   2.629 -0.4259 -0.0460 -0.3021
  257SOL    HW1  770   0.691   2.992   2.590  0.0806 -0.8246 -0.7957
  257SOL    HW2  771   0.693   2.831   2.633 -0.0414  0.3588 -3.7676
  258SOL     OW  772   0.988   2.555   0.434  0.6462 -0.1009 -0.1970
  258SOL    HW1  773   0.951   2.629   0.372  1.2612  0.7266  0.1706
  258SOL    HW2  774   1.024   2.475   0.386  3.5607 -1.4171  0.4245
  259SOL     OW  775   1.603   0.164   2.768  0.1147  0.0210 -0.5854
  259SOL    HW1  776   1.573   0.260   2.761  0.9550 -2.3309 -0.6326
  259SOL    HW2  777   1.668   0.145   2.694 -0.3109  3.3731 -0.2063
  260SOL     OW  778   2.553   0.478   1.432  0.2849 -0.1871 -0.1767
  260SOL    HW1  779   2.592   0.475   1.528  0.9223 -1.0031 -1.1344
  260SOL    HW2  780   2.522   0.384   1.410  1.9701  4.3959  1.4706
  261SOL     OW  781   0.796   0.559   2.506  0.1330 -0.5150 -0.5587
  261SOL    HW1  782   0.758   0.634   2.570 -0.3654  2.1330 -0.6232
  261SOL    HW2  783   0.765   0.572   2.410 -0.2227 -0.4140  0.5302
  262SOL     OW  784   0.782   2.316   2.428 -0.0475 -0.7861  0.3323
  262SOL    HW1  785   0.737   2.396   2.476  1.1006 -1.7137 -0.1860
  262SOL    HW2  786   0.840   2.351   2.356  2.0840  3.2846  1.1800
  263SOL     OW  787   0.260   1.722   2.645  0.0202 -0.0273 -0.5287
  263SOL    HW1  788   0.175   1.775   2.635 -1.5227 -0.4741 -0.3826
  263SOL    HW2  789   0.325   1.751   2.574  0.6185 -1.6665  0.4608
  264SOL     OW  790   1.168   1.544   0.696  0.8623  0.8066 -0.1601
  264SOL    HW1  791   1.136   1.587   0.785 -0.6122  1.8452 -0.2267
  264SOL    HW2  792   1.105   1.565   0.619  0.6290 -0.6464 -0.6204
  265SOL     OW  793   1.393   2.710   0.452 -0.1990  0.4489  0.2543
  265SOL    HW1  794   1.439   2.618   0.453 -1.7983 -2.7920  0.3735
  265SOL    HW2  795   1.344   2.732   0.538  1.1302 -1.7994  1.5915
  266SOL     OW  796   1.899   0.887   1.150  0.0609 -0.0556  0.1057
  266SOL    HW1  797   1.828   0.815   1.146 -1.2273 -0.1827  0.6218
  266SOL    HW2  798   1.994   0.853   1.124  1.9302  4.1541 -3.1300
  267SOL     OW  799   2.680   1.262   2.802  0.2033 -0.5352  0.3439
  267SOL    HW1  800   2.736   1.238   2.720 -0.0451  1.9799  0.1489
  267SOL    HW2  801   2.592   1.209   2.813  0.3227  0.2510  1.5920
  268SOL     OW  802   1.516   0.194   0.034 -0.0738 -0.9268 -0.1938
  268SOL    HW1  803   1.524   0.176   0.134  0.2745  2.1767 -0.6638
  268SOL    HW2  804   1.497   0.296   0.019  1.0106  0.2997  0.5115
  269SOL     OW  805   2.515   0.702   2.585 -0.1547  0.1167  0.0665
  269SOL    HW1  806   2.533   0.650   2.673 -0.0575  0.9257  0.2574
  269SOL    HW2  807   2.566   0.661   2.504  2.1464 -0.1223 -2.9467
  270SOL     OW  808   3.076   1.395   0.294 -0.1165 -0.3740 -0.5968
  270SOL    HW1  809   3.079   1.294   0.294  0.6355 -2.4461  1.5387
  270SOL    HW2  810   0.025   1.434   0.223  1.9093  2.6261  0.6466
  271SOL     OW  811   2.453   1.116   2.860  0.1371  0.0453  0.1573
  271SOL    HW1  812   2.420   1.110   2.764  1.6143 -0.9572  1.9663
  271SOL    HW2  813   2.470   1.024   2.906 -1.3319 -1.6527  0.3303
  272SOL     OW  814   2.910   2.413   2.292 -0.0410 -0.0652 -0.6726
  272SOL    HW1  815   2.990   2.359   2.331  2.6514  2.2033  0.1364
  272SOL    HW2  816   2.825   2.393   2.344  2.0238  0.2781 -2.0236
  273SOL     OW  817   0.426   2.751   0.667 -0.1511 -0.2669  0.0377
  273SOL    HW1  818   0.511   2.795   0.693  0.0941  2.1650  0.7974
  273SOL    HW2  819   0.449   2.664   0.628 -1.4910  1.4801  3.1544
  274SOL     OW  820   0.835   2.179   0.604  0.4113  0.2883  0.1927
  274SOL    HW1  821   0.918   2.118   0.602 -1.0690 -2.1087 -1.1843
  274SOL    HW2  822   0.789   2.173   0.697  0.1111 -2.0465  3.5169
  275SOL     OW  823   2.529   1.054   0.404  0.0948  0.3256 -0.5181
  275SOL    HW1  824   2.484   1.115   0.473 -0.2624 -0.1504  0.7987
  275SOL    HW2  825   2.612   1.097   0.363  1.6642  1.0281 -1.6195
  276SOL     OW  826   2.503   1.678   1.369 -0.1263  0.3666 -0.1461
  276SOL    HW1  827   2.493   1.616   1.448 -0.0045 -1.7164 -1.2600
  276SOL    HW2  828   2.506   1.629   1.279 -2.2194 -0.2190 -0.5508
  277SOL     OW  829   2.814   3.008   0.884  0.1590  0.0672  0.2889
  277SOL    HW1  830   2.713   2.997   0.898 -4.4952  0.2992  0.5090
  277SOL    HW2  831   2.868   3.004   0.970 -1.1814  2.2488  0.4928
  278SOL     OW  832   1.307   0.273   2.261 -0.0739  0.2254  0.3514
  278SOL    HW1  833   1.264   0.185   2.274  1.9158 -0.6474  1.4219
  278SOL    HW2  834   1.323   0.328   2.346 -1.6165  0.9499 -1.1616
  279SOL     OW  835   1.570   2.783   0.837 -0.3377  0.1740 -0.2970
  279SOL    HW1  836   1.604   2.864   0.786  2.8753 -0.5121  1.1835
  279SOL    HW2  837   1.493   2.732   0.791 -2.7905 -1.2650 -1.0344
  280SOL     OW  838   0.791   1.024   0.829  0.2245  0.5237 -0.0077
  280SOL    HW1  839   0.820   1.125   0.848 -0.2598  1.2661 -2.4407
  280SOL    HW2  840   0.700   1.026   0.784 -1.5037  1.1299 -0.2063
  281SOL     OW  841   2.509   1.479   2.741 -0.0011  0.7574  0.0257
  281SOL    HW1  842   2.547   1.403   2.797 -1.5210 -0.9521 -2.2572
  281SOL    HW2  843   2.584   1.516   2.683  1.6124 -1.2464 -0.8425
  282SOL     OW  844   3.080   1.130   0.319 -0.6647  0.0217 -0.0200
  282SOL    HW1  845   3.008   1.055   0.330 -0.3557 -0.7397  0.0310
  282SOL    HW2  846   0.025   1.122   0.400 -0.8722  1.6510 -0.3333
  283SOL     OW  847   1.969   2.719   2.757  0.2441 -0.2528 -0.5004
  283SOL    HW1  848   2.001   2.780   2.681  0.3886 -1.8493 -2.2672
  283SOL    HW2  849   1.912   2.642   2.721 -0.2202 -0.3838 -1.5798
  284SOL     OW  850   1.132   0.049   0.049 -0.6364  0.0534 -0.3211
  284SOL    HW1  851   1.043   0.004   0.071 -1.5620 -1.0484 -1.0085
  284SOL    HW2  852   1.171   0.096   0.135 -0.1363  1.0214  1.4093
  285SOL     OW  853   2.538   1.587   2.410  0.3600  0.0648 -0.4355
  285SOL    HW1  854   2.541   1.485   2.393  0.5358 -0.6200  1.4764
  285SOL    HW2  855   2.447   1.616   2.446  1.0344 -2.7066 -0.9695
  286SOL     OW  856   1.483   2.282   0.761  0.1604  0.1495 -0.4237
  286SOL    HW1  857   1.583   2.296   0.749 -0.7814  1.4573  0.0759
  286SOL    HW2  858   1.457   2.191   0.806 -0.1261  0.1699 -0.7115
  287SOL     OW  859   1.656   0.688   0.834 -0.3944 -0.3858 -0.0512
  287SOL    HW1  860   1.568   0.634   0.831  1.6810 -0.2183 -1.4883
  287SOL    HW2  861   1.736   0.627   0.829 -0.6026  0.3297 -0.4142
  288SOL     OW  862   0.926   2.821   2.308  0.3460 -0.3410  0.6986
  288SOL    HW1  863   0.962   2.777   2.392 -0.1392  0.2415  1.5813
  288SOL    HW2  864   0.838   2.781   2.279  0.8832  1.0407  1.5204
  289SOL     OW  865   0.081   1.328   0.795  0.5802  0.3975 -0.2196
  289SOL    HW1  866   0.123   1.314   0.886  1.9706  1.9826 -1.2395
  289SOL    HW2  867   3.101   1.295   0.775 -1.0010 -0.2982  0.6959
  290SOL     OW  868   1.232   2.224   0.913  0.0091  0.3751 -0.0915
  290SOL    HW1  869   1.267   2.319   0.894 -4.5988 -2.4872  0.0642
  290SOL    HW2  870   1.223   2.161   0.830  1.6033 -1.5034  0.8774
  291SOL     OW  871   1.365   3.021   0.161 -0.2618 -0.2778 -0.0543
  291SOL    HW1  872   1.376   2.922   0.184  1.1830 -1.5542  1.2235
  291SOL    HW2  873   1.328   3.047   0.068  0.2494  0.5400 -1.6737
  292SOL     OW  874   0.527   0.367   2.302 -0.0911  0.4485  0.3806
  292SOL    HW1  875   0.615   0.369   2.350  1.9970 -1.4364 -1.4802
  292SOL    HW2  876   0.456   0.365   2.379 -0.3884 -2.5856  3.2280
  293SOL     OW  877   2.482   1.771   0.764 -0.3285  0.0247 -0.4311
  293SOL    HW1  878   2.581   1.789   0.745  0.3693 -2.6409  4.3350
  293SOL    HW2  879   2.449   1.838   0.833 -0.0140 -1.1323  1.8356
  294SOL     OW  880   0.649   0.118   2.209  0.3529  0.0647 -0.6426
  294SOL    HW1  881   0.615   0.190   2.271  0.0203  0.0703  0.7476
  294SOL    HW2  882   0.583   0.043   2.196 -2.1744 -1.0635  1.6656
  295SOL     OW  883   1.038   1.611   0.924  0.6359 -0.2510  0.4375
  295SOL    HW1  884   1.049   1.524   0.975  1.3043  0.0987  0.4191
  295SOL    HW2  885   0.937   1.627   0.916 -0.2400 -1.3171 -1.9722
  296SOL     OW  886   2.301   1.750   0.577 -0.2166 -0.2693  0.2471
  296SOL    HW1  887   2.313   1.814   0.500 -0.7071 -0.1674 -1.7381
  296SOL    HW2  888   2.375   1.757   0.644  1.1940 -1.9173  0.8453
  297SOL     OW  889   2.479   3.076   3.056  0.0155 -0.2828  0.6508
  297SOL    HW1  890   2.437   2.994   3.013  0.2484  1.0241 -0.6869
  297SOL    HW2  891   2.474   3.069   0.047 -0.4993 -2.1545  2.6416
  298SOL     OW  892   1.107   0.335   2.551  0.3419 -0.8142  0.2816
  298SOL    HW1  893   1.047   0.356   2.630 -3.1522 -0.4098  1.6204
  298SOL    HW2  894   1.201   0.327   2.578 -2.0836 -1.2885 -2.1703
  299SOL     OW  895   1.182   2.675   1.949 -0.0302 -0.0928 -0.4033
  299SOL    HW1  896   1.214   2.776   1.938 -0.1014 -0.1435 -0.8855
  299SOL    HW2  897   1.172   2.654   2.050  1.4309  1.4318 -0.4175
  300SOL     OW  898   2.725   3.012   2.003  0.0364 -0.3860  0.7605
  300SOL    HW1  899   2.724   3.000   2.103 -0.8696  0.6686  0.1604
  300SOL    HW2  900   2.806   3.070   1.984 -0.2214  1.0231 -0.0352
  301SOL     OW  901   2.004   0.503   1.827  0.2757  0.1919  0.1690
  301SOL    HW1  902   2.092   0.474   1.867  0.4157  0.8691 -1.8568
  301SOL    HW2  903   1.956   0.428   1.777  1.0238 -3.2393 -1.4370
  302SOL     OW  904   0.301   2.314   0.119  0.5344 -0.3822  0.1417
  302SOL    HW1  905   0.302   2.212   0.099  0.0492 -1.5266 -2.5525
  302SOL    HW2  906   0.205   2.354   0.118  0.0894  0.1734  1.3328
  303SOL     OW  907   1.737   2.373   1.551 -0.2579  0.0199  0.0323
  303SOL    HW1  908   1.727   2.272   1.537 -1.9768 -0.3442 -0.6742
  303SOL    HW2  909   1.831   2.400   1.589  1.9842 -2.4103 -4.1949
  304SOL     OW  910   2.807   0.793   1.345  0.1539 -0.5014  0.7112
  304SOL    HW1  911   2.844   0.762   1.254  0.1955  1.4771 -0.6679
  304SOL    HW2  912   2.813   0.897   1.351  0.3069 -1.8435 -1.4326
  305SOL     OW  913   0.541   1.035   0.696  0.7617  0.2952 -0.3228
  305SOL    HW1  914   0.468   1.032   0.769 -1.5689 -3.2380  0.9012
  305SOL    HW2  915   0.539   1.127   0.653  1.4412  0.1129  2.1224
  306SOL     OW  916   0.312   1.332   2.806 -0.2719 -0.2753  0.5896
  306SOL    HW1  917   0.347   1.245   2.760 -3.8395  1.3072 -0.4164
  306SOL    HW2  918   0.232   1.377   2.763 -0.0624 -0.4071 -0.4882
  307SOL     OW  919   1.133   0.290   1.620 -0.0286 -0.4441  0.3747
  307SOL    HW1  920   1.153   0.332   1.714 -0.6689  1.0762  4.9820
  307SOL    HW2  921   1.039   0.250   1.614  0.7035 -0.8766 -1.9318
  308SOL     OW  922   0.447   0.884   1.118  0.0674  0.2013 -0.8609
  308SOL    HW1  923   0.411   0.806   1.169  0.7519 -1.0406 -1.6134
  308SOL    HW2  924   0.536   0.861   1.073 -1.7278 -1.3633  1.6595
  309SOL     OW  925   2.406   1.038   0.832 -0.5778  0.1176 -0.3306
  309SOL    HW1  926   2.326   0.980   0.812  1.3036  2.1368 -0.2259
  309SOL    HW2  927   2.384   1.130   0.867 -1.5186 -1.3034  1.3894
  310SOL     OW  928   0.635   1.758   2.798  0.1311  0.0320 -0.6839
  310SOL    HW1  929   0.579   1.680   2.766  2.8180  0.6636 -0.1696
  310SOL    HW2  930   0.583   1.812   2.866 -1.2576  0.8138 -1.2246
  311SOL     OW  931   2.369   2.720   2.493 -0.2091  0.3336  0.1508
  311SOL    HW1  932   2.418   2.743   2.407 -2.0132  0.2990  1.0897
  311SOL    HW2  933   2.379   2.794   2.563  0.3086  1.1887 -1.9859
  312SOL     OW  934   2.074   2.136   3.074  0.6116 -0.0822  0.7762
  312SOL    HW1  935   2.016   2.050   3.060 -0.6038 -0.0552 -0.8327
  312SOL    HW2  936   2.171   2.109   3.074 -1.7489 -5.1556 -1.2102
  313SOL     OW  937   0.644   3.101   0.189  0.3437  0.3637  0.3572
  313SOL    HW1  938   0.688   0.077   0.206  2.8716 -2.0021  0.9161
  313SOL    HW2  939   0.648   3.046   0.274 -1.4394 -1.0571 -0.4770
  314SOL     OW  940   2.268   1.607   2.717 -0.0591  0.0171 -0.3475
  314SOL    HW1  941   2.210   1.596   2.805 -3.8632  0.0561  0.9845
  314SOL    HW2  942   2.365   1.581   2.725 -0.6159  0.8613 -0.0876
  315SOL     OW  943   1.378   0.398   2.515  0.0660 -0.0865 -0.2809
  315SOL    HW1  944   1.467   0.361   2.473  2.3242  0.2098 -0.2625
  315SOL    HW2  945   1.400   0.482   2.574 -0.5229 -0.1473  1.9785
  316SOL     OW  946   0.054   0.907   0.821  0.2537  0.6002 -0.1808
  316SOL    HW1  947   0.026   0.930   0.920  0.4997  0.4076 -0.3046
  316SOL    HW2  948   3.090   0.929   0.752 -1.5179 -1.1451  0.1038
  317SOL     OW  949   0.400   2.706   2.920  0.1040  0.1477  0.0416
  317SOL    HW1  950   0.347   2.727   2.838  0.5299  1.9092  1.1784
  317SOL    HW2  951   0.490   2.751   2.916 -0.8826 -0.0110  1.3135
  318SOL     OW  952   2.512   2.633   0.986 -0.3542  0.3501 -0.0436
  318SOL    HW1  953   2.453   2.714   1.000 -1.4422 -1.8317 -0.2715
  318SOL    HW2  954   2.590   2.637   1.050 -1.3888 -0.7294  1.8567
  319SOL     OW  955   1.137   1.502   2.869 -0.2480  0.5330 -0.4448
  319SOL    HW1  956   1.037   1.489   2.863  0.4749  1.4800  1.0552
  319SOL    HW2  957   1.171   1.563   2.794 -0.8409 -2.6936 -0.7110
  320SOL     OW  958   0.470   1.871   1.243  0.2381 -0.1491 -0.3821
  320SOL    HW1  959   0.413   1.837   1.323  0.3230  1.0090 -1.4673
  320SOL    HW2  960   0.441   1.830   1.157  2.8175 -0.7066 -1.1616
  321SOL     OW  961   1.474   2.897   1.948  0.0669  0.7114 -0.6961
  321SOL    HW1  962   1.380   2.913   1.917 -0.9904 -2.8259 -3.2274
  321SOL    HW2  963   1.487   2.959   2.029  2.7430 -0.4372  2.5407
  322SOL     OW  964   2.336   1.996   2.250  0.0503 -0.3152 -0.7932
  322SOL    HW1  965   2.241   1.970   2.279  1.3467 -0.0596 -0.4921
  322SOL    HW2  966   2.340   2.076   2.187  0.0056 -2.6440  2.1823
  323SOL     OW  967   2.786   0.098   0.738 -0.9746 -0.3060  0.5944
  323SOL    HW1  968   2.811   0.015   0.795  0.6544 -0.7386  0.6615
  323SOL    HW2  969   2.748   0.175   0.797  0.5743 -2.1042 -0.1114
  324SOL     OW  970   2.894   2.796   2.581  1.0107 -0.2644 -0.4662
  324SOL    HW1  971   2.975   2.762   2.631 -4.4638 -0.1383  0.8076
  324SOL    HW2  972   2.876   2.749   2.493 -1.9018  0.3928  1.5182
  325SOL     OW  973   1.128   0.614   2.463  0.4265 -1.0933  0.5295
  325SOL    HW1  974   1.161   0.637   2.370 -2.0291  2.8782  0.1396
  325SOL    HW2  975   1.131   0.514   2.479 -2.3431  0.1532  3.0538
  326SOL     OW  976   2.288   2.554   1.640  0.4532  1.0972 -0.6370
  326SOL    HW1  977   2.360   2.543   1.713  0.6951 -1.3906  1.4789
  326SOL    HW2  978   2.245   2.646   1.647  2.8547 -0.9428 -1.4690
  327SOL     OW  979   2.376   2.990   0.178  0.8632  0.4139 -0.6255
  327SOL    HW1  980   2.369   3.065   0.248 -0.2681  0.7722  0.1468
  327SOL    HW2  981   2.320   2.909   0.205  3.0237  4.0964  1.1869
  328SOL     OW  982   0.005   1.242   1.603 -0.2604  0.2091 -0.2905
  328SOL    HW1  983   0.066   1.159   1.605 -2.3197 -0.8075  1.0090
  328SOL    HW2  984   0.064   1.330   1.613  0.2982  5.4539  1.8976
  329SOL     OW  985   2.066   0.685   1.557 -0.2347 -0.4646 -0.0699
  329SOL    HW1  986   2.048   0.724   1.648  0.0596 -1.9539 -1.0855
  329SOL    HW2  987   1.983   0.667   1.512  3.2138  2.9906 -0.2125
  330SOL     OW  988   0.069   0.966   1.222 -0.7783 -0.1670 -0.3382
  330SOL    HW1  989   3.106   0.993   1.154 -0.4152 -0.4323  1.1166
  330SOL    HW2  990   0.098   0.872   1.213  0.0199  0.3746  1.9873
  331SOL     OW  991   0.666   1.423   1.772 -0.3578 -0.0134  0.3185
  331SOL    HW1  992   0.708   1.456   1.859 -0.5105 -2.1939 -3.5946
  331SOL    HW2  993   0.567   1.455   1.764 -1.1423 -2.1892  1.3201
  332SOL     OW  994   0.106   2.551   1.401  0.4487  0.1593  0.5940
  332SOL    HW1  995   0.034   2.563   1.470  4.2071 -0.1352 -2.0497
  332SOL    HW2  996   0.183   2.497   1.445 -1.2205  1.9839 -1.6057
  333SOL     OW  997   3.014   3.012   1.072 -0.0019  0.2450  0.1119
  333SOL    HW1  998   3.067   3.098   1.079 -1.5214 -2.5779 -1.9182
  333SOL    HW2  999   3.071   2.935   1.039 -0.9750 -1.2819 -0.2856
  334SOL     OW 1000   0.184   1.052   0.571 -0.1999  0.0722 -0.5641
  334SOL    HW1 1001   0.214   1.134   0.518 -0.1372  1.9073 -1.2243
  334SOL    HW2 1002   0.085   1.058   0.601 -1.1215  0.1408  3.0382
  335SOL     OW 1003   0.406   2.435   2.992 -0.1599  0.7431 -0.4495
  335SOL    HW1 1004   0.390   2.403   3.088 -0.2290  0.7830  0.0880
  335SOL    HW2 1005   0.404   2.536   2.989  0.2050 -0.1266 -0.1427
  336SOL     OW 1006   2.926   2.684   2.275  0.5235  0.1424  0.2385
  336SOL    HW1 1007   2.920   2.578   2.265  1.6718 -2.4339  1.1609
  336SOL    HW2 1008   2.876   2.726   2.195 -0.7281  1.3820 -0.4563
  337SOL     OW 1009   1.865   2.195   1.747  0.1497  0.8047  0.5632
  337SOL    HW1 1010   1.778   2.224   1.794  0.0269  0.3279 -1.5109
  337SOL    HW2 1011   1.845   2.096   1.719 -0.8975 -0.2081 -0.8146
  338SOL     OW 1012   0.932   0.460   2.727 -0.2518  0.1915 -0.4487
  338SOL    HW1 1013   0.912   0.523   2.647  1.4723 -0.0982 -0.2421
  338SOL    HW2 1014   0.848   0.441   2.776  0.8600 -0.1978 -1.5177
  339SOL     OW 1015   0.259   1.153   2.095 -0.0841 -0.2409 -0.2860
  339SOL    HW1 1016   0.282   1.197   2.006  0.0970 -0.2304  0.0679
  339SOL    HW2 1017   0.290   1.213   2.170 -0.1356 -0.4623  0.1987
  340SOL     OW 1018   2.029   3.090   0.760 -0.1430  0.1637  0.1601
  340SOL    HW1 1019   2.113   0.016   0.812  0.9824  2.7126 -0.3702
  340SOL    HW2 1020   1.951   3.091   0.819  1.3174  1.0573 -4.0567
  341SOL     OW 1021   2.186   1.374   0.670  0.4249  0.6416  0.1701
  341SOL    HW1 1022   2.172   1.413   0.582  0.6704 -0.3435  2.1594
  341SOL    HW2 1023   2.210   1.447   0.736  0.5925  1.6958 -1.6055
  342SOL     OW 1024   2.262   2.663   3.091 -0.2308  0.2257  0.5042
  342SOL    HW1 1025   2.303   2.584   0.024  0.2206  0.6238 -2.5941
  342SOL    HW2 1026   2.185   2.631   3.026  1.4663  0.7468 -0.0629
  343SOL     OW 1027   0.957   2.274   1.489  0.6786 -0.0276  0.0895
  343SOL    HW1 1028   0.887   2.316   1.549 -0.1613 -2.2955 -1.4421
  343SOL    HW2 1029   0.915   2.271   1.394 -0.9255 -0.6705  0.2430
  344SOL     OW 1030   2.241   2.700   1.413 -0.1405  0.0372  0.2457
  344SOL    HW1 1031   2.271   2.623   1.475  2.3537 -2.5413 -0.7899
  344SOL    HW2 1032   2.324   2.751   1.382 -1.1595  0.2367 -1.0001
  345SOL     OW 1033   2.731   1.927   0.112  0.4391  0.0731 -0.9995
  345SOL    HW1 1034   2.786   1.968   0.040  0.2022  1.5426  1.7787
  345SOL    HW2 1035   2.787   1.880   0.183  1.0952  1.1656 -0.7065
  346SOL     OW 1036   1.725   2.381   1.276 -0.0768  0.1120  0.1815
  346SOL    HW1 1037   1.680   2.301   1.235  2.5808 -0.0708  0.4024
  346SOL    HW2 1038   1.714   2.368   1.377  0.9849 -1.6079 -0.9975
  347SOL     OW 1039   1.258   1.757   1.479  0.0937 -0.2787 -0.5831
  347SOL    HW1 1040   1.254   1.832   1.554 -1.6069  4.6706  0.8168
  347SOL    HW2 1041   1.164   1.728   1.455 -0.9792 -1.7097  0.7381
  348SOL     OW 1042   0.517   1.826   2.175 -0.1061 -0.2470  0.1040
  348SOL    HW1 1043   0.448   1.797   2.243 -2.2123  2.7354 -3.5136
  348SOL    HW2 1044   0.612   1.834   2.211 -0.9729 -0.0434 -1.1031
  349SOL     OW 1045   1.961   1.678   1.135 -0.3314  0.7193 -0.0662
  349SOL    HW1 1046   1.860   1.656   1.125  1.7012  0.2367  2.0682
  349SOL    HW2 1047   1.979   1.696   1.233 -3.9992  0.1521 -3.4923
  350SOL     OW 1048   2.504   2.385   0.526 -0.0338 -0.5368  0.1986
  350SOL    HW1 1049   2.544   2.457   0.586  0.8035 -2.1100 -0.5546
  350SOL    HW2 1050   2.480   2.310   0.588  0.3248  2.0249 -1.1714
  351SOL     OW 1051   0.977   3.031   1.498 -0.0795 -0.1153  0.2632
  351SOL    HW1 1052   0.931   0.008   1.532 -1.8876  1.8055  0.9142
  351SOL    HW2 1053   0.991   3.034   1.395  1.1283 -3.5850  2.8757
  352SOL     OW 1054   0.202   1.534   0.971  0.2482  0.0518 -0.2453
  352SOL    HW1 1055   0.226   1.435   0.981  0.5962  0.1215 -0.2444
  352SOL    HW2 1056   0.178   1.575   1.060  1.6307  0.0646 -0.4498
  353SOL     OW 1057   1.092   1.464   2.218 -0.5623 -0.2158 -0.0233
  353SOL    HW1 1058   1.173   1.440   2.164 -2.2471  0.5840 -0.4057
  353SOL    HW2 1059   1.109   1.432   2.310  0.9363 -0.9325 -1.5616
  354SOL     OW 1060   1.494   0.261   1.855  0.8284 -0.1064  0.0369
  354SOL    HW1 1061   1.521   0.338   1.790  1.7726  2.1158 -1.0942
  354SOL    HW2 1062   1.563   0.190   1.862 -3.2197  1.8598 -0.7083
  355SOL     OW 1063   2.646   1.261   0.257 -0.0791  0.0716 -0.0589
  355SOL    HW1 1064   2.588   1.309   0.324  1.1003  0.3551 -0.4307
  355SOL    HW2 1065   2.610   1.275   0.162  2.2260  0.2062  1.6907
  356SOL     OW 1066   2.820   1.659   1.394 -0.1999  0.2675  0.1337
  356SOL    HW1 1067   2.755   1.685   1.469  0.3608  1.3815  0.5112
  356SOL    HW2 1068   2.776   1.644   1.305  0.3911 -0.8139 -0.5398
  357SOL     OW 1069   0.364   2.635   1.319 -0.0497 -0.2689  0.6744
  357SOL    HW1 1070   0.284   2.572   1.341  1.8349 -2.4002 -0.8035
  357SOL    HW2 1071   0.324   2.729   1.311 -1.0528 -1.2081  2.3484
  358SOL     OW 1072   2.683   1.554   1.797 -0.1513  0.4215 -0.0714
  358SOL    HW1 1073   2.647   1.593   1.885 -0.2275 -0.6019  0.2767
  358SOL    HW2 1074   2.606   1.539   1.729 -0.1190  0.9111 -1.1462
  359SOL     OW 1075   2.327   2.865   2.945  0.5442  0.3704  0.1499
  359SOL    HW1 1076   2.328   2.774   2.991  0.3932 -0.3879 -0.9245
  359SOL    HW2 1077   2.234   2.903   2.951  2.8737 -0.0610  2.8450
  360SOL     OW 1078   1.026   0.126   0.894 -0.0103 -0.1831  0.2968
  360SOL    HW1 1079   1.111   0.168   0.932  1.8507 -1.4057  1.6335
  360SOL    HW2 1080   1.034   0.025   0.893  0.2401  0.4698  2.0752
  361SOL     OW 1081   2.252   0.318   0.743 -0.4501 -0.5263  0.5389
  361SOL    HW1 1082   2.166   0.282   0.706  0.6057  1.3917  3.4840
  361SOL    HW2 1083   2.263   0.416   0.712 -0.9780  0.1015  0.7529
  362SOL     OW 1084   1.995   1.295   0.888  0.4043  0.0792 -0.1389
  362SOL    HW1 1085   2.025   1.271   0.796 -1.4605  2.5702  2.0452
  362SOL    HW2 1086   1.932   1.224   0.926  2.3113 -0.1662  0.4878
  363SOL     OW 1087   2.258   1.045   2.311  0.4970 -0.1329  0.4289
  363SOL    HW1 1088   2.161   1.060   2.287 -1.5343  0.0059 -2.5485
  363SOL    HW2 1089   2.322   1.062   2.231  0.5766 -0.9323 -0.4593
  364SOL     OW 1090   0.295   0.322   1.299  0.1878 -0.3721  0.2648
  364SOL    HW1 1091   0.218   0.390   1.322  1.9985  0.2433  2.3536
  364SOL    HW2 1092   0.251   0.233   1.275 -1.0341 -1.5998  1.4998
  365SOL     OW 1093   0.647   0.177   2.880  0.5822 -0.5753  0.1045
  365SOL    HW1 1094   0.593   0.092   2.875 -0.4878  2.7449 -0.6147
  365SOL    HW2 1095   0.725   0.176   2.816  3.7163 -2.6000  0.1054
  366SOL     OW 1096   2.076   2.518   2.944  0.1371 -0.4199 -0.3308
  366SOL    HW1 1097   2.019   2.568   2.875  0.4863  1.3154 -2.2846
  366SOL    HW2 1098   2.114   2.435   2.900  0.9028 -1.4337 -1.0826
  367SOL     OW 1099   3.058   2.207   0.199 -0.6090 -0.4211 -0.0963
  367SOL    HW1 1100   2.971   2.255   0.227 -0.7872  0.1758  1.2162
  367SOL    HW2 1101   0.034   2.257   0.206  0.4652  0.2632 -2.5348
  368SOL     OW 1102   2.977   1.229   1.380 -0.2368 -0.0218  0.0197
  368SOL    HW1 1103   2.983   1.311   1.318 -1.8454  2.3321  0.1850
  368SOL    HW2 1104   3.038   1.244   1.461  0.7194 -0.6010  0.1794
  369SOL     OW 1105   0.874   0.133   2.744 -0.5794 -0.6083 -0.4713
  369SOL    HW1 1106   0.878   0.094   2.652 -0.3870  0.4685 -0.0179
  369SOL    HW2 1107   0.963   0.125   2.791 -0.8543  1.4847  0.2566
  370SOL     OW 1108   2.840   0.414   0.438  0.0191 -0.2422  0.0384
  370SOL    HW1 1109   2.748   0.366   0.450 -0.1858 -0.5450 -0.8562
  370SOL    HW2 1110   2.914   0.347   0.455  0.7162 -2.5540 -2.9535
  371SOL     OW 1111   1.528   2.059   0.890  0.4751  0.0948  0.3404
  371SOL    HW1 1112   1.537   1.965   0.845 -1.5013 -2.8842 -0.8623
  371SOL    HW2 1113   1.602   2.122   0.881  0.5594 -2.5935  3.7242
  372SOL     OW 1114   2.951   0.738   2.673 -0.0300  0.7787  0.0679
  372SOL    HW1 1115   2.969   0.728   2.569  3.8966 -1.3266 -4.3864
  372SOL    HW2 1116   2.895   0.822   2.695 -1.6209  1.6300  0.1824
  373SOL     OW 1117   2.780   1.628   1.131 -0.0298 -0.6099  0.2798
  373SOL    HW1 1118   2.810   1.673   1.046  0.2490  0.1012  0.8779
  373SOL    HW2 1119   2.680   1.599   1.123 -1.8673 -1.5885 -1.6095
  374SOL     OW 1120   0.699   2.760   2.940 -0.5994 -0.0912 -0.1750
  374SOL    HW1 1121   0.739   2.837   2.994 -0.3104  0.9607  0.7898
  374SOL    HW2 1122   0.715   2.775   2.839 -0.8870  1.5886 -0.4861
  375SOL     OW 1123   0.087   2.954   3.076  0.1599 -0.2137 -0.2197
  375SOL    HW1 1124   0.102   2.915   0.060 -0.3028 -3.8103  0.6564
  375SOL    HW2 1125   0.024   3.034   3.076 -0.2289 -0.1316 -1.3071
  376SOL     OW 1126   3.097   2.229   1.445  0.0585 -0.1611  0.9360
  376SOL    HW1 1127   3.092   2.159   1.519 -0.2971  2.0448 -0.3871
  376SOL    HW2 1128   0.065   2.211   1.388 -0.4761  1.5064 -0.3299
  377SOL     OW 1129   1.652   2.312   2.464  0.0952 -0.3416  0.5401
  377SOL    HW1 1130   1.698   2.265   2.542  0.0523  1.0254 -0.4420
  377SOL    HW2 1131   1.629   2.242   2.394 -0.1728  1.5336 -1.5962
  378SOL     OW 1132   0.521   0.373   3.025  0.3796  0.5563  0.2779
  378SOL    HW1 1133   0.572   0.458   3.010 -2.7109 -0.3582 -1.2206
  378SOL    HW2 1134   0.553   0.300   2.963 -2.4274 -1.6540 -0.4100
  379SOL     OW 1135   0.658   0.770   0.304  0.1167 -0.3838  0.3638
  379SOL    HW1 1136   0.737   0.833   0.272  1.0970 -1.3252 -4.5313
  379SOL    HW2 1137   0.606   0.802   0.385  0.7703  0.7269 -0.3886
  380SOL     OW 1138   3.066   1.863   1.812  0.4910  0.5372  0.4636
  380SOL    HW1 1139   3.032   1.784   1.867  1.2928 -3.0068 -0.9691
  380SOL    HW2 1140   0.047   1.899   1.849  0.6574  0.9480 -0.0658
  381SOL     OW 1141   0.212   1.070   1.647  0.5937 -0.0475 -0.6310
  381SOL    HW1 1142   0.296   1.050   1.592  1.5117 -0.7067 -1.0505
  381SOL    HW2 1143   0.201   0.996   1.720 -0.7234 -2.1078  2.8836
  382SOL     OW 1144   2.320   1.944   0.390  0.2792  0.0662  0.5035
  382SOL    HW1 1145   2.323   1.894   0.297 -0.1948 -3.0763 -2.3257
  382SOL    HW2 1146   2.312   2.046   0.374 -2.0324  1.1242  2.4312
  383SOL     OW 1147   2.868   2.016   2.983 -0.7452  0.0681  0.0642
  383SOL    HW1 1148   2.956   1.959   2.972 -1.1221  1.1784  0.3759
  383SOL    HW2 1149   2.891   2.116   2.983 -1.2655 -0.1938 -1.0623
  384SOL     OW 1150   0.924   2.317   2.645 -0.0349  0.0448 -0.3349
  384SOL    HW1 1151   0.858   2.318   2.725  0.0878 -0.3706  1.0233
  384SOL    HW2 1152   0.874   2.320   2.558  0.7530  1.1286 -1.5579
  385SOL     OW 1153   2.930   1.281   1.021  0.5586 -0.0741  0.1075
  385SOL    HW1 1154   2.987   1.337   1.087 -0.7776  1.4334 -0.9819
  385SOL    HW2 1155   2.838   1.320   1.003  1.0951 -0.2383 -1.7334
  386SOL     OW 1156   2.183   1.601   1.447  0.1536 -0.6175 -0.6481
  386SOL    HW1 1157   2.217   1.537   1.381  1.1013  2.0491  0.8880
  386SOL    HW2 1158   2.185   1.701   1.414 -1.7318  3.4743 -0.9757
  387SOL     OW 1159   2.719   1.164   1.950  0.3773  0.4408 -0.3580
  387SOL    HW1 1160   2.803   1.179   1.894 -0.6907 -3.0708  1.1781
  387SOL    HW2 1161   2.640   1.169   1.890 -0.5689 -0.5255 -0.7996
  388SOL     OW 1162   2.940   1.271   2.094 -0.0513 -0.7226  0.0376
  388SOL    HW1 1163   2.845   1.242   2.068  0.3605  0.3701 -0.0250
  388SOL    HW2 1164   3.000   1.300   2.021 -1.0930  1.4700 -0.1911
  389SOL     OW 1165   1.878   1.218   1.953  0.0663 -0.0949 -0.6334
  389SOL    HW1 1166   1.955   1.175   2.002 -3.5862 -1.1140 -1.0373
  389SOL    HW2 1167   1.907   1.268   1.868 -1.4667  0.0360  2.7752
  390SOL     OW 1168   1.717   3.020   0.619  0.1021  0.6152 -0.2363
  390SOL    HW1 1169   1.805   2.968   0.630  2.0601  0.8216  2.0742
  390SOL    HW2 1170   1.728   3.083   0.543 -2.6025  0.9572 -0.3508
  391SOL     OW 1171   2.181   1.736   1.011 -0.2985  0.2429  0.0755
  391SOL    HW1 1172   2.235   1.817   1.039  0.8922  1.4042  0.5384
  391SOL    HW2 1173   2.088   1.742   1.052  2.9186  0.7481 -0.8854
  392SOL     OW 1174   2.595   2.573   0.710  0.2800 -0.1014  0.4112
  392SOL    HW1 1175   2.671   2.623   0.669 -1.3469 -2.4638  0.7484
  392SOL    HW2 1176   2.581   2.585   0.811  0.0027 -2.5438  1.1960
  393SOL     OW 1177   1.614   1.846   2.802 -0.4083  0.3197 -0.5789
  393SOL    HW1 1178   1.615   1.744   2.775 -0.3321 -2.5371 -1.2669
  393SOL    HW2 1179   1.585   1.905   2.730  1.1510 -0.1846  2.1175
  394SOL     OW 1180   0.147   0.110   2.885 -0.7589  0.1061 -0.6997
  394SOL    HW1 1181   0.045   0.102   2.891 -0.8411  0.6273  0.5801
  394SOL    HW2 1182   0.193   0.020   2.874  1.1535 -0.0804  1.0670
  395SOL     OW 1183   0.668   0.851   1.000 -0.2144 -0.2904  0.0383
  395SOL    HW1 1184   0.666   0.750   0.990  0.6725 -1.1206  1.6609
  395SOL    HW2 1185   0.720   0.898   0.921  2.0419 -1.9688  0.8750
  396SOL     OW 1186   1.154   1.067   0.758 -0.0873  0.1985 -0.0953
  396SOL    HW1 1187   1.098   0.981   0.763 -0.7133  0.3185 -1.4068
  396SOL    HW2 1188   1.239   1.063   0.704 -0.0899 -0.7819  0.1800
  397SOL     OW 1189   0.493   0.678   2.135  0.0731 -0.0337  0.1467
  397SOL    HW1 1190   0.424   0.629   2.078 -2.1562 -0.8937 -0.2760
  397SOL    HW2 1191   0.471   0.782   2.132  0.7465  2.9745 -0.3845
  398SOL     OW 1192   1.177   0.111   0.313  0.0248 -0.4537  0.0633
  398SOL    HW1 1193   1.234   0.195   0.335  1.2019  3.6658 -0.2085
  398SOL    HW2 1194   1.219   0.029   0.356  1.4241  0.6327  0.2582
  399SOL     OW 1195   2.167   2.818   1.704 -0.4036 -0.1447  0.5941
  399SOL    HW1 1196   2.167   2.781   1.798 -0.3373 -0.3744  2.0363
  399SOL    HW2 1197   2.078   2.813   1.655 -1.5726 -0.3529  0.7577
  400SOL     OW 1198   1.023   1.736   2.203 -0.0508  0.7185 -0.4380
  400SOL    HW1 1199   1.058   1.764   2.296  0.1781  1.7864 -1.4973
  400SOL    HW2 1200   1.062   1.645   2.178 -0.1123  0.7796 -0.0164
  401SOL     OW 1201   0.685   1.108   2.604 -0.0411 -0.5126  0.5982
  401SOL    HW1 1202   0.712   1.087   2.702  0.8702  0.9631  0.9243
  401SOL    HW2 1203   0.651   1.026   2.557 -0.8663  0.5945  2.9224
  402SOL     OW 1204   2.755   2.013   1.063 -0.5899  0.0594 -0.5151
  402SOL    HW1 1205   2.816   1.944   1.018 -1.1161 -0.2240 -0.3816
  402SOL    HW2 1206   2.731   1.998   1.164 -1.2391  1.0961  1.2638
  403SOL     OW 1207   0.123   0.982   2.246  0.9146  0.1748 -0.1271
  403SOL    HW1 1208   0.021   1.004   2.237 -0.2679 -0.4664 -1.4210
  403SOL    HW2 1209   0.180   1.046   2.187  0.5639  3.1225 -1.2810
  404SOL     OW 1210   0.199   2.621   1.735  0.5196  0.3126 -0.1834
  404SOL    HW1 1211   0.114   2.594   1.690  0.5062  1.8668  1.4989
  404SOL    HW2 1212   0.257   2.683   1.681 -0.2618 -0.2397  0.7082
  405SOL     OW 1213   0.404   0.283   2.076  0.3352  0.1378  0.4264
  405SOL    HW1 1214   0.458   0.320   2.152 -0.4002 -1.8612 -1.6217
  405SOL    HW2 1215   0.323   0.227   2.099  0.3906  0.8497 -2.8968
  406SOL     OW 1216   1.750   1.764   2.306  0.0434  0.2705 -0.6634
  406SOL    HW1 1217   1.720   1.803   2.215  0.2960 -0.3462 -0.5429
  406SOL    HW2 1218   1.718   1.665   2.310  1.9862 -0.5840 -1.1582
  407SOL     OW 1219   1.330   1.201   2.376 -0.2121 -0.3744 -0.2915
  407SOL    HW1 1220   1.389   1.170   2.300  1.4360  1.8721 -1.2664
  407SOL    HW2 1221   1.236   1.178   2.356  1.8113  0.5565  1.9688
  408SOL     OW 1222   0.792   0.013   2.496 -0.0942 -0.1412 -0.2887
  408SOL    HW1 1223   0.756   0.100   2.460 -0.0422  2.7508 -0.9896
  408SOL    HW2 1224   0.840   3.074   2.423 -2.2577  1.4952  0.4426
  409SOL     OW 1225   0.364   1.917   0.608  0.4210 -0.9431  0.0933
  409SOL    HW1 1226   0.456   1.871   0.616  0.0069 -0.6754 -1.4719
  409SOL    HW2 1227   0.356   1.959   0.514  0.4570  0.2585  2.3432
  410SOL     OW 1228   2.765   1.071   0.117 -0.3676  0.0436 -0.2588
  410SOL    HW1 1229   2.809   0.987   0.169  1.0656 -0.0515  0.3061
  410SOL    HW2 1230   2.721   1.140   0.182 -0.9996  2.8194 -2.4795
  411SOL     OW 1231   0.145   0.089   1.248  0.7241  0.1029 -0.2441
  411SOL    HW1 1232   0.170   0.075   1.346  1.4093 -1.5105 -1.3833
  411SOL    HW2 1233   0.189   0.014   1.190  0.8630 -1.0948 -0.7969
  412SOL     OW 1234   1.552   1.160   1.502 -0.2352  0.3380 -0.7621
  412SOL    HW1 1235   1.596   1.103   1.431 -2.2799  0.6599 -1.1551
  412SOL    HW2 1236   1.452   1.153   1.495  1.4817  1.2827 -2.0955
  413SOL     OW 1237   0.855   2.891   1.729  0.0297 -0.3124  0.5329
  413SOL    HW1 1238   0.861   2.982   1.777  1.0288  2.1520  0.5739
  413SOL    HW2 1239   0.871   2.904   1.630 -2.0216 -2.6233  1.1471
  414SOL     OW 1240   2.809   1.646   2.736 -0.9350 -0.6856  0.0089
  414SOL    HW1 1241   2.778   1.740   2.759  0.2262 -2.2195 -0.9219
  414SOL    HW2 1242   2.846   1.595   2.819 -2.2886 -0.1534  1.1427
  415SOL     OW 1243   0.677   2.518   3.070 -0.4301 -0.2802  0.1923
  415SOL    HW1 1244   0.627   2.453   3.005 -2.1286  2.6240 -2.1050
  415SOL    HW2 1245   0.713   2.598   3.013  2.0521  3.0080 -3.8381
  416SOL     OW 1246   1.946   2.962   0.343  0.0072  0.4070  0.1334
  416SOL    HW1 1247   1.922   2.907   0.261  0.6512  1.5999  2.3948
  416SOL    HW2 1248   2.007   3.036   0.309  0.0335 -1.5286  0.0729
  417SOL     OW 1249   0.292   0.518   0.631 -0.6409 -0.5911  0.3699
  417SOL    HW1 1250   0.393   0.509   0.640 -0.8964  0.8918  0.4666
  417SOL    HW2 1251   0.247   0.440   0.582  1.1148 -0.5917 -0.1112
  418SOL     OW 1252   2.561   0.095   1.034 -0.1756 -0.0694  0.1082
  418SOL    HW1 1253   2.478   0.152   1.024  0.3737 -1.8866 -0.9391
  418SOL    HW2 1254   2.628   0.153   0.985 -1.3948  0.7971  2.7612
  419SOL     OW 1255   0.138   3.046   0.502 -0.4956  0.6130 -0.1696
  419SOL    HW1 1256   0.093   3.109   0.565 -1.5152  0.5680 -1.3785
  419SOL    HW2 1257   0.126   2.948   0.533 -1.0857  1.5026  0.4185
  420SOL     OW 1258   0.138   1.480   1.587  0.4447 -0.1812  0.8194
  420SOL    HW1 1259   0.223   1.522   1.619 -1.8379 -0.2727 -0.5860
  420SOL    HW2 1260   0.074   1.552   1.551  0.2549 -2.3037 -1.2451
  421SOL     OW 1261   1.234   2.975   0.462 -0.0960  0.3937 -0.1669
  421SOL    HW1 1262   1.142   2.947   0.459  4.2583 -0.9893 -2.1291
  421SOL    HW2 1263   1.290   2.937   0.383  2.1794 -1.2647  2.3981
  422SOL     OW 1264   0.297   0.527   1.640  0.2804 -0.4651 -0.2246
  422SOL    HW1 1265   0.324   0.598   1.713  1.7600 -0.4017  1.8075
  422SOL    HW2 1266   0.196   0.514   1.631  1.5787  1.7687 -2.5102
  423SOL     OW 1267   1.037   1.157   1.593  0.4348 -0.3741 -0.1628
  423SOL    HW1 1268   1.030   1.244   1.650  2.6766  0.3312 -0.1162
  423SOL    HW2 1269   0.947   1.107   1.603  0.2275 -0.2090 -2.2517
  424SOL     OW 1270   2.121   1.567   2.952 -0.0445 -0.1198 -0.0682
  424SOL    HW1 1271   2.091   1.570   3.049 -0.6970 -1.1662  0.1367
  424SOL    HW2 1272   2.039   1.586   2.894  1.8043 -1.7776 -0.1067
  425SOL     OW 1273   0.142   0.132   2.111  0.1584 -0.2183 -0.5354
  425SOL    HW1 1274   0.147   0.143   2.215  0.8235 -2.0755  1.0712
  425SOL    HW2 1275   0.115   0.036   2.087  0.1288  0.1860 -0.9885
  426SOL     OW 1276   0.242   2.962   2.858 -0.4637 -0.7147 -0.2828
  426SOL    HW1 1277   0.172   2.957   2.941  0.3344  0.6457  0.5275
  426SOL    HW2 1278   0.244   2.879   2.798  1.6979  2.0607  0.7345
  427SOL     OW 1279   1.184   0.972   2.826  0.3937 -0.2360  0.2236
  427SOL    HW1 1280   1.212   1.064   2.802 -1.8457 -1.0626 -1.1825
  427SOL    HW2 1281   1.237   0.935   2.906  1.8109  1.7961 -1.9763
  428SOL     OW 1282   2.408   1.177   1.534  0.1913 -0.5675  0.1337
  428SOL    HW1 1283   2.341   1.251   1.558 -2.0444  0.1785  0.3986
  428SOL    HW2 1284   2.386   1.154   1.437  0.4544  1.0734 -1.6077
  429SOL     OW 1285   2.322   2.848   0.969  0.1818 -0.1780 -0.4992
  429SOL    HW1 1286   2.295   2.866   0.874  2.1616  0.7152  1.3135
  429SOL    HW2 1287   2.244   2.842   1.034 -2.3576 -1.0711 -0.0285
  430SOL     OW 1288   0.549   1.400   2.140 -0.3166 -0.1650  0.7513
  430SOL    HW1 1289   0.469   1.371   2.198  1.5062 -1.1505  0.0808
  430SOL    HW2 1290   0.627   1.428   2.191 -1.7117 -0.5169 -2.9258
  431SOL     OW 1291   2.517   1.505   1.574  0.6696 -0.1499 -0.4654
  431SOL    HW1 1292   2.588   1.446   1.530  0.0002  1.1132  1.0039
  431SOL    HW2 1293   2.437   1.454   1.607  1.0462 -0.1208  1.1968
  432SOL     OW 1294   1.128   2.624   2.217 -0.0548  0.2644 -0.0591
  432SOL    HW1 1295   1.081   2.711   2.248 -1.7955  0.5498  0.4297
  432SOL    HW2 1296   1.193   2.598   2.293  0.2619  2.5379  0.1473
  433SOL     OW 1297   1.711   0.217   2.127  0.1572 -0.3162 -0.0609
  433SOL    HW1 1298   1.787   0.156   2.106 -0.9358  1.4777  4.3352
  433SOL    HW2 1299   1.715   0.298   2.059 -0.2052  3.0830 -0.3574
  434SOL     OW 1300   0.594   2.481   2.556 -0.3894 -0.6013  0.1239
  434SOL    HW1 1301   0.532   2.403   2.552  0.0987  1.3146  1.7382
  434SOL    HW2 1302   0.626   2.499   2.650 -0.9206  0.8664 -2.1797
  435SOL     OW 1303   0.374   2.889   0.136 -0.2085 -0.5427  0.2940
  435SOL    HW1 1304   0.317   2.969   0.170 -0.4952  2.1530  1.9210
  435SOL    HW2 1305   0.417   2.903   0.046  1.5622 -2.6954  1.7555
  436SOL     OW 1306   0.689   0.500   1.905 -0.6804  0.0082  0.3218
  436SOL    HW1 1307   0.591   0.517   1.923  0.5152  0.0171 -2.1425
  436SOL    HW2 1308   0.727   0.437   1.970  1.1370  1.3898 -2.6536
  437SOL     OW 1309   0.427   2.257   2.578 -0.4908 -0.1278 -0.6352
  437SOL    HW1 1310   0.445   2.169   2.532  0.8006  0.6649  0.2990
  437SOL    HW2 1311   0.457   2.251   2.677 -1.9874 -1.0444  0.5759
  438SOL     OW 1312   0.805   1.401   1.545  0.4897  0.0017 -0.1438
  438SOL    HW1 1313   0.829   1.494   1.511 -0.5763  0.0416 -0.0942
  438SOL    HW2 1314   0.763   1.401   1.638 -0.5191  2.9239 -2.3599
  439SOL     OW 1315   2.260   0.777   2.279  0.0090 -0.4101 -0.1994
  439SOL    HW1 1316   2.261   0.731   2.369 -1.5844  0.9611  2.9338
  439SOL    HW2 1317   2.264   0.878   2.297 -1.8925 -2.1302 -1.7549
  440SOL     OW 1318   0.429   0.666   0.164  0.5130 -0.0646  0.1795
  440SOL    HW1 1319   0.412   0.567   0.185 -1.2603 -2.0519  0.9832
  440SOL    HW2 1320   0.493   0.707   0.227 -0.0246 -1.4657 -2.9387
  441SOL     OW 1321   1.093   2.406   1.241 -0.4114 -0.0560  0.0389
  441SOL    HW1 1322   1.095   2.431   1.342  0.2786 -2.0972  3.2679
  441SOL    HW2 1323   1.156   2.469   1.184  3.2234  1.5296 -3.3077
  442SOL     OW 1324   2.220   1.519   0.434 -0.0820 -0.1948  0.1688
  442SOL    HW1 1325   2.248   1.605   0.471 -0.5550  0.2609 -0.1066
  442SOL    HW2 1326   2.285   1.485   0.363 -1.8741  0.6132 -0.9077
  443SOL     OW 1327   2.743   2.072   2.547 -0.0864 -0.5790 -0.2620
  443SOL    HW1 1328   2.748   2.175   2.540  1.0785  4.8286 -1.3714
  443SOL    HW2 1329   2.693   2.041   2.462  1.1792 -0.4095 -2.1576
  444SOL     OW 1330   1.705   1.442   2.951  0.4178  0.3890  0.5794
  444SOL    HW1 1331   1.685   1.463   3.048  1.4078  0.9471 -0.6841
  444SOL    HW2 1332   1.689   1.345   2.930  1.0593  3.4203  0.9426
  445SOL     OW 1333   2.504   2.796   2.252 -0.4407  0.2118  0.0712
  445SOL    HW1 1334   2.556   2.722   2.208  0.8640 -0.7781 -0.1952
  445SOL    HW2 1335   2.570   2.877   2.252  1.8310 -1.7697  0.2648
  446SOL     OW 1336   0.466   1.032   1.559 -0.1024  0.1724 -0.1656
  446SOL    HW1 1337   0.508   0.944   1.514 -0.3943  0.5559  0.0170
  446SOL    HW2 1338   0.510   1.114   1.525 -1.7934  1.5016 -0.6698
  447SOL     OW 1339   0.855   1.283   0.835 -0.5763  0.5281 -0.4721
  447SOL    HW1 1340   0.928   1.305   0.902 -0.0468 -0.3015  1.3270
  447SOL    HW2 1341   0.783   1.350   0.844 -1.2741 -2.1479 -1.9225
  448SOL     OW 1342   1.087   1.136   1.972 -0.0425  0.3762 -0.2175
  448SOL    HW1 1343   1.175   1.147   1.922 -1.0198  0.6773 -0.1627
  448SOL    HW2 1344   1.025   1.072   1.924 -1.0768 -0.6123  1.7425
  449SOL     OW 1345   0.045   2.042   2.296 -0.3160  0.3639  0.4979
  449SOL    HW1 1346   3.095   2.085   2.222 -0.4504 -2.2426 -0.6932
  449SOL    HW2 1347   0.093   1.955   2.266 -1.1958 -2.6674  0.6444
  450SOL     OW 1348   2.725   1.844   1.925  0.1202 -0.2887  0.1774
  450SOL    HW1 1349   2.748   1.937   1.959  2.6994 -1.2209 -0.5373
  450SOL    HW2 1350   2.815   1.792   1.915  3.5611  0.3450  1.3846
  451SOL     OW 1351   2.372   1.155   1.272 -0.0055  0.1939 -0.3135
  451SOL    HW1 1352   2.291   1.146   1.208  2.2934 -0.5389 -1.8611
  451SOL    HW2 1353   2.441   1.081   1.253  1.0245 -0.7281  0.8071
  452SOL     OW 1354   0.377   1.451   1.397  0.3527  0.5751 -0.2566
  452SOL    HW1 1355   0.462   1.394   1.410 -0.0184 -0.5739  2.0258
  452SOL    HW2 1356   0.291   1.395   1.409 -4.2891 -0.5736 -1.0182
  453SOL     OW 1357   0.254   1.224   1.008  0.0712 -0.1952  0.0309
  453SOL    HW1 1358   0.302   1.152   0.955  0.6183  0.4721 -0.3538
  453SOL    HW2 1359   0.239   1.202   1.107  1.5762 -0.6851 -0.3279
  454SOL     OW 1360   0.376   1.436   0.067 -0.1311 -0.1205 -0.3574
  454SOL    HW1 1361   0.471   1.470   0.055  2.2232  1.9029 -0.4086
  454SOL    HW2 1362   0.350   1.363   0.003  0.5655  2.5691 -0.6796
  455SOL     OW 1363   1.873   1.118   1.031  0.7177 -0.2086  0.4233
  455SOL    HW1 1364   1.808   1.182   1.078  1.3558  0.7961 -0.2620
  455SOL    HW2 1365   1.901   1.042   1.088 -0.7676  1.2774 -0.7969
  456SOL     OW 1366   1.757   2.517   0.855  0.3903  0.1710 -0.8168
  456SOL    HW1 1367   1.844   2.555   0.819  1.6631 -3.4232  0.7471
  456SOL    HW2 1368   1.709   2.591   0.912 -1.0516  1.1322  1.4584
  457SOL     OW 1369   1.845   3.093   2.646  0.2453 -0.5372  0.1705
  457SOL    HW1 1370   1.888   3.004   2.647  2.2184  0.8533  1.7107
  457SOL    HW2 1371   1.781   3.105   2.567 -0.1561  3.6747 -3.2204
  458SOL     OW 1372   2.472   0.399   0.093  0.3876 -0.0966 -0.1727
  458SOL    HW1 1373   2.427   0.348   0.016 -0.1984  0.5899 -1.6391
  458SOL    HW2 1374   2.575   0.379   0.102  1.1853  0.6861 -1.4025
  459SOL     OW 1375   2.970   1.026   2.257  0.1849 -0.3219  0.3216
  459SOL    HW1 1376   2.888   0.976   2.295  0.8057 -1.0508  1.0579
  459SOL    HW2 1377   2.948   1.118   2.217 -1.5112 -0.3591  1.4487
  460SOL     OW 1378   0.369   0.738   3.041 -0.2056 -0.4651  0.3783
  460SOL    HW1 1379   0.375   0.680   2.961 -0.8416 -0.1188 -1.2957
  460SOL    HW2 1380   0.416   0.696   0.007 -0.4687  0.3329  0.1627
  461SOL     OW 1381   0.026   2.438   0.716 -0.4643  0.6929  0.3913
  461SOL    HW1 1382   3.089   2.349   0.689 -0.3632 -0.8900  1.2147
  461SOL    HW2 1383   0.123   2.414   0.706  0.4155 -1.0191 -0.3139
  462SOL     OW 1384   0.014   2.967   1.602 -0.4570  0.1167 -0.3558
  462SOL    HW1 1385   0.018   2.907   1.684  1.8545 -3.1619  0.0188
  462SOL    HW2 1386   3.035   2.966   1.555 -0.5876 -1.0626 -4.1623
  463SOL     OW 1387   2.056   2.007   1.892 -0.0743  0.1109 -0.5525
  463SOL    HW1 1388   2.004   1.983   1.804 -3.3825 -0.0835  0.4240
  463SOL    HW2 1389   2.090   2.102   1.877 -0.4001  1.3686 -0.4652
  464SOL     OW 1390   0.265   2.872   1.288  0.4201 -0.0867  0.4727
  464SOL    HW1 1391   0.287   2.926   1.370  1.7760 -1.6179  4.3277
  464SOL    HW2 1392   0.267   2.925   1.203  0.9060 -0.6080  1.0090
  465SOL     OW 1393   0.577   0.176   1.619 -0.6203  0.0498  0.1418
  465SOL    HW1 1394   0.597   0.152   1.719  2.1075 -0.1715  0.0932
  465SOL    HW2 1395   0.477   0.199   1.617 -1.2400  1.5167  0.3731
  466SOL     OW 1396   1.284   1.880   2.038 -0.6447 -0.8545  0.3551
  466SOL    HW1 1397   1.351   1.861   1.963  0.0939  0.4516 -1.2830
  466SOL    HW2 1398   1.215   1.945   2.002  0.8682  0.0826  1.5432
  467SOL     OW 1399   3.073   1.653   0.865  0.0880 -0.1981  0.1415
  467SOL    HW1 1400   0.051   1.626   0.905 -1.4151 -0.5935  2.2201
  467SOL    HW2 1401   3.068   1.616   0.773  0.0985  2.2827  0.6225
  468SOL     OW 1402   2.276   2.135   2.588 -0.1152  0.2577  0.1049
  468SOL    HW1 1403   2.354   2.180   2.538 -0.2309 -1.4558 -0.0383
  468SOL    HW2 1404   2.203   2.104   2.522  0.8030  1.3142  1.4035
  469SOL     OW 1405   1.263   2.258   0.497 -0.2122 -0.9877 -0.1871
  469SOL    HW1 1406   1.253   2.224   0.400 -1.3695  0.3554 -2.1248
  469SOL    HW2 1407   1.298   2.353   0.499  0.8891  1.5212  1.3908
  470SOL     OW 1408   2.007   1.811   1.381 -0.1886  0.2642  0.1848
  470SOL    HW1 1409   1.962   1.907   1.378 -2.1820  2.4718 -1.8949
  470SOL    HW2 1410   1.950   1.760   1.449  0.4691 -1.7214 -0.3884
  471SOL     OW 1411   0.639   2.497   0.238  0.2671  0.4730 -1.0369
  471SOL    HW1 1412   0.593   2.590   0.241 -2.3567 -2.4575  0.4135
  471SOL    HW2 1413   0.657   2.460   0.142 -0.2102  0.5434 -1.6304
  472SOL     OW 1414   2.598   1.984   2.316  0.3704 -0.5827  0.4234
  472SOL    HW1 1415   2.494   1.987   2.300 -0.6111  0.0606 -2.8518
  472SOL    HW2 1416   2.640   1.906   2.281 -4.5619  1.9821  0.4310
  473SOL     OW 1417   1.303   2.719   0.722  0.2923 -0.4434 -0.2219
  473SOL    HW1 1418   1.200   2.705   0.709  0.7116 -1.3390 -1.1648
  473SOL    HW2 1419   1.324   2.820   0.744 -0.7102  1.9752 -1.0818
  474SOL     OW 1420   2.880   0.164   1.509  0.3185  0.2865  0.2585
  474SOL    HW1 1421   2.910   0.106   1.432 -1.8720 -0.6158  2.9102
  474SOL    HW2 1422   2.780   0.171   1.510  2.3449  3.6121  1.0843
  475SOL     OW 1423   1.759   2.663   2.004 -0.0747 -0.2027 -0.5519
  475SOL    HW1 1424   1.765   2.715   2.091 -0.5403  1.8792 -1.0525
  475SOL    HW2 1425   1.666   2.660   1.965  2.3299 -1.4782  0.1000
  476SOL     OW 1426   0.359   0.489   0.997 -0.4352 -0.0820 -0.1170
  476SOL    HW1 1427   0.349   0.510   1.092 -0.9002 -0.3186 -1.5918
  476SOL    HW2 1428   0.296   0.549   0.944  1.8112 -2.3286  1.6296
  477SOL     OW 1429   0.763   2.136   0.856 -0.4277 -0.2321 -0.1386
  477SOL    HW1 1430   0.677   2.163   0.896 -0.7116  0.5972 -2.3360
  477SOL    HW2 1431   0.832   2.198   0.893  0.1375 -2.3212 -2.6596
  478SOL     OW 1432   0.809   2.699   2.705  0.0948  0.0115  0.0859
  478SOL    HW1 1433   0.852   2.682   2.614  0.8489  0.1177  0.0910
  478SOL    HW2 1434   0.872   2.662   2.777 -0.6190 -0.2064 -0.2272
  479SOL     OW 1435   0.339   0.513   1.952 -0.0402 -0.0991  0.5996
  479SOL    HW1 1436   0.237   0.517   1.938  0.2315 -0.6381 -1.5186
  479SOL    HW2 1437   0.355   0.418   1.981 -0.4027 -2.0022  1.0900
  480SOL     OW 1438   0.244   2.070   2.917  0.0375  0.7502  0.1946
  480SOL    HW1 1439   0.247   2.107   3.009 -1.1308 -0.5137  0.5886
  480SOL    HW2 1440   0.176   2.121   2.863  0.0714 -1.5557  1.0251
  481SOL     OW 1441   1.486   3.096   2.158 -0.6022 -0.6046 -0.5714
  481SOL    HW1 1442   1.539   3.039   2.222 -1.2623 -0.7921  0.7635
  481SOL    HW2 1443   1.541   0.074   2.133  3.1791  2.3940 -2.4945
  482SOL     OW 1444   1.680   1.933   3.052  0.1881 -0.0529 -0.4041
  482SOL    HW1 1445   1.631   1.891   0.019 -2.6360 -0.6459 -1.5447
  482SOL    HW2 1446   1.674   1.876   2.970 -1.1950  0.3444 -1.4566
  483SOL     OW 1447   1.020   2.695   2.526 -0.3781  0.0710  0.1290
  483SOL    HW1 1448   1.074   2.607   2.546  0.0272 -1.3606 -1.2853
  483SOL    HW2 1449   1.065   2.775   2.578 -0.0613  0.8598 -3.1494
  484SOL     OW 1450   0.596   2.874   1.017  0.9983 -0.0950  0.5609
  484SOL    HW1 1451   0.579   2.957   1.066  1.3927 -3.7886 -3.1456
  484SOL    HW2 1452   0.533   2.803   1.052  0.3979  3.5776 -1.1193
  485SOL     OW 1453   2.187   0.624   0.667 -0.0571  0.3459 -0.4335
  485SOL    HW1 1454   2.092   0.595   0.634 -1.8636  1.2186  2.9320
  485SOL    HW2 1455   2.246   0.657   0.590  0.6278  0.5789 -1.6473
  486SOL     OW 1456   2.013   2.680   1.911  0.1683 -0.4896 -0.0570
  486SOL    HW1 1457   2.082   2.636   1.976  2.2428  0.1962  0.2038
  486SOL    HW2 1458   1.921   2.661   1.944  2.1357 -0.4970  0.2931
  487SOL     OW 1459   1.193   2.065   0.679  0.8043  0.0913  0.1325
  487SOL    HW1 1460   1.235   2.130   0.611 -0.0110  0.6999 -0.9608
  487SOL    HW2 1461   1.105   2.031   0.644  0.0723  0.6188  0.1014
  488SOL     OW 1462   2.097   0.353   0.275 -0.7366  0.6165 -0.3977
  488SOL    HW1 1463   2.018   0.341   0.338  1.5142 -1.7110  1.8232
  488SOL    HW2 1464   2.103   0.449   0.229 -1.0470  6.3480 -0.9957
  489SOL     OW 1465   1.964   2.881   0.605  0.3041  0.0633  0.8948
  489SOL    HW1 1466   1.984   2.970   0.646 -1.4055 -0.8894 -0.0283
  489SOL    HW2 1467   1.961   2.879   0.499 -2.0503 -1.4305 -1.3952
  490SOL     OW 1468   1.707   2.790   2.871 -0.6471  0.0763  0.1352
  490SOL    HW1 1469   1.786   2.748   2.826 -2.6601  1.4520 -2.7186
  490SOL    HW2 1470   1.726   2.849   2.954  1.6701  0.0341  1.2027
  491SOL     OW 1471   0.765   0.405   1.157  1.1339 -0.0920  0.6287
  491SOL    HW1 1472   0.791   0.321   1.112 -1.1636  0.4963  0.0997
  491SOL    HW2 1473   0.680   0.394   1.214 -1.7486  0.4092 -1.4723
  492SOL     OW 1474   1.781   0.061   0.388 -0.2799 -0.2481 -0.2017
  492SOL    HW1 1475   1.692   0.061   0.349  0.9324 -2.4111  4.3251
  492SOL    HW2 1476   1.854   0.013   0.333  1.4858  0.3437 -1.9764
  493SOL     OW 1477   1.984   2.230   2.842 -0.2835 -0.1245 -0.3283
  493SOL    HW1 1478   2.067   2.261   2.788 -1.6129  0.3921 -0.6472
  493SOL    HW2 1479   2.008   2.214   2.939  0.3696 -1.3059 -0.9807
  494SOL     OW 1480   0.354   1.007   0.889 -0.5134  0.3161  0.0887
  494SOL    HW1 1481   0.373   0.929   0.955 -1.0995 -0.5171  0.2487
  494SOL    HW2 1482   0.271   0.984   0.839  0.6772 -1.1445 -0.4171
  495SOL     OW 1483   2.970   0.114   1.751 -0.1970 -0.2902 -0.2246
  495SOL    HW1 1484   3.064   0.074   1.743  0.3824  0.4942 -3.0204
  495SOL    HW2 1485   2.932   0.143   1.661  1.0141 -0.4822 -0.3436
  496SOL     OW 1486   2.597   2.555   2.136  0.1667 -0.1188 -0.1761
  496SOL    HW1 1487   2.684   2.578   2.090 -1.6047  1.6218 -0.3053
  496SOL    HW2 1488   2.589   2.453   2.155  3.2157 -0.4300 -0.1777
  497SOL     OW 1489   1.663   1.388   2.544 -0.4095 -0.2826 -0.5688
  497SOL    HW1 1490   1.644   1.432   2.453 -0.3489  0.7398  0.3691
  497SOL    HW2 1491   1.590   1.323   2.579 -0.2045  0.6427  1.3974
  498SOL     OW 1492   0.496   1.516   0.639  0.3689 -0.1647 -0.0985
  498SOL    HW1 1493   0.395   1.521   0.637  0.7704  0.1305  0.6779
  498SOL    HW2 1494   0.543   1.606   0.619  1.0039  0.3526 -2.1093
  499SOL     OW 1495   0.116   1.660   1.204 -0.1142 -0.2158  0.2433
  499SOL    HW1 1496   0.041   1.695   1.260  2.5427 -2.6730  1.0185
  499SOL    HW2 1497   0.192   1.725   1.208 -2.3209 -0.7112 -1.8853
  500SOL     OW 1498   1.260   2.382   0.194  0.2594 -0.0181 -0.2494
  500SOL    HW1 1499   1.356   2.362   0.215  0.6443  0.7406 -2.6880
  500SOL    HW2 1500   1.246   2.486   0.192  1.1757  1.7024  1.5661
  501SOL     OW 1501   2.053   2.579   0.980 -0.2891  0.1119 -0.2997
  501SOL    HW1 1502   2.143   2.530   1.001  1.7225  1.0576  0.2034
  501SOL    HW2 1503   2.033   2.577   0.877 -0.8512 -0.3739 -1.3225
  502SOL     OW 1504   0.085   0.825   1.734  0.4841  0.0963 -0.1828
  502SOL    HW1 1505   0.083   0.842   1.630  0.0278 -2.4388  0.6418
  502SOL    HW2 1506   0.176   0.794   1.761 -0.8161  1.7867 -0.8857
  503SOL     OW 1507   2.017   0.032   1.718 -0.4435 -0.3677  0.5089
  503SOL    HW1 1508   1.954   0.018   1.639  1.1528  0.6706  1.9081
  503SOL    HW2 1509   2.109   0.027   1.681  1.5518  1.5721  0.0031
  504SOL     OW 1510   1.925   0.916   2.041  0.2474 -0.5313  0.0802
  504SOL    HW1 1511   1.839   0.871   2.061  4.6288  0.4206  0.3059
  504SOL    HW2 1512   1.945   0.968   2.126 -1.2988 -2.3786 -1.8279
  505SOL     OW 1513   1.012   3.077   2.251 -1.3127 -0.2885 -0.1544
  505SOL    HW1 1514   1.105   3.084   2.299  0.4843  1.6569 -0.6771
  505SOL    HW2 1515   0.985   2.981   2.240  0.8885 -0.5946 -0.1264
  506SOL     OW 1516   0.558   0.101   1.900  0.2945 -0.1252  0.5155
  506SOL    HW1 1517   0.519   0.181   1.946 -0.8928  0.8624 -0.5331
  506SOL    HW2 1518   0.482   0.046   1.863 -0.8652 -0.6328 -0.0058
  507SOL     OW 1519   1.738   0.189   2.990 -0.0406 -0.4919 -0.0073
  507SOL    HW1 1520   1.695   0.223   2.906 -0.8311  0.2511  1.9553
  507SOL    HW2 1521   1.665   0.165   3.056 -0.0805  0.2163 -0.6991
  508SOL     OW 1522   2.251   0.642   2.497 -0.1843  0.1960  0.3436
  508SOL    HW1 1523   2.234   0.543   2.515  1.3776  0.2817  1.1223
  508SOL    HW2 1524   2.344   0.661   2.533  2.6510 -0.2550  0.4415
  509SOL     OW 1525   0.777   1.559   1.976  0.3583  0.0726 -0.1215
  509SOL    HW1 1526   0.777   1.542   2.075  1.9626 -0.8724 -0.9927
  509SOL    HW2 1527   0.805   1.655   1.964  2.2491 -0.1063  0.4639
  510SOL     OW 1528   3.047   0.448   0.918  0.4481  0.8535 -0.1501
  510SOL    HW1 1529   0.004   0.520   0.923 -2.7895 -0.3599 -1.7406
  510SOL    HW2 1530   3.022   0.427   0.824  2.0267 -0.1041 -2.8833
  511SOL     OW 1531   1.642   1.327   0.861  0.2903 -0.1166  0.1382
  511SOL    HW1 1532   1.642   1.329   0.756  1.4815 -0.0120 -1.2317
  511SOL    HW2 1533   1.688   1.410   0.893 -1.3488  0.0973  0.8205
  512SOL     OW 1534   0.671   1.266   0.245 -0.1247 -0.1707 -0.2580
  512SOL    HW1 1535   0.572   1.251   0.246  1.0362  0.9050 -0.4017
  512SOL    HW2 1536   0.716   1.226   0.328 -0.6072 -1.2606 -0.8865
  513SOL     OW 1537   0.301   2.400   0.735 -0.8823 -0.3358 -0.4627
  513SOL    HW1 1538   0.321   2.302   0.755 -0.5027  1.2969 -0.9165
  513SOL    HW2 1539   0.375   2.434   0.672 -0.3406  2.1683  0.4448
  514SOL     OW 1540   0.216   2.049   0.071  0.0150  0.1260 -0.1521
  514SOL    HW1 1541   0.126   2.017   0.108 -0.2686 -0.0456  1.1728
  514SOL    HW2 1542   0.288   1.980   0.099 -0.4405  0.2943  1.0999
  515SOL     OW 1543   2.796   0.107   0.214 -0.4645  0.3022 -0.2204
  515SOL    HW1 1544   2.715   0.066   0.263  1.4645  1.6178  1.1022
  515SOL    HW2 1545   2.871   0.134   0.286  1.6902  3.3109 -0.4031
  516SOL     OW 1546   2.107   2.801   1.136 -0.5302 -0.3520 -0.0597
  516SOL    HW1 1547   2.071   2.796   1.232 -1.2484 -1.9249  2.9432
  516SOL    HW2 1548   2.081   2.719   1.082  1.0919  1.6527  0.6925
  517SOL     OW 1549   1.282   1.678   0.186 -0.7276  0.1500 -0.6939
  517SOL    HW1 1550   1.330   1.612   0.248  1.8911 -3.8832 -1.3338
  517SOL    HW2 1551   1.296   1.653   0.088  2.1233 -2.4795  0.4980
  518SOL     OW 1552   1.420   0.829   1.522 -1.0919 -0.0736 -0.3901
  518SOL    HW1 1553   1.438   0.807   1.424  0.1627 -2.2332 -1.8667
  518SOL    HW2 1554   1.324   0.827   1.540  1.5334 -1.6444 -0.3013
  519SOL     OW 1555   3.067   2.183   0.694  0.0012  0.2958  0.2615
  519SOL    HW1 1556   0.005   2.124   0.762 -0.5690  0.8153  1.4977
  519SOL    HW2 1557   2.971   2.151   0.696 -1.6811  0.2376  0.8173
  520SOL     OW 1558   2.213   2.269   1.862 -0.0706  0.2285  0.3653
  520SOL    HW1 1559   2.283   2.317   1.810 -0.5089 -0.8440  1.5636
  520SOL    HW2 1560   2.187   2.344   1.929 -2.3295  3.1669  0.6199
  521SOL     OW 1561   1.248   0.001   2.341 -0.4239 -0.0268  0.6869
  521SOL    HW1 1562   1.290   0.014   2.432  1.3171  0.4533 -0.6826
  521SOL    HW2 1563   1.319   3.102   2.273 -0.7779  0.9685 -2.4809
  522SOL     OW 1564   2.943   0.047   2.019  0.1485 -0.5309 -0.7329
  522SOL    HW1 1565   3.011   3.082   2.031  1.5750  0.2657  1.4193
  522SOL    HW2 1566   2.960   0.090   1.927  0.9302 -1.0369  1.5476
  523SOL     OW 1567   1.281   1.975   1.646 -0.0392 -0.2232  0.6357
  523SOL    HW1 1568   1.226   2.018   1.720  1.2925  0.5719  0.5163
  523SOL    HW2 1569   1.279   2.033   1.562  0.9177  0.6922  0.8377
  524SOL     OW 1570   2.031   2.245   0.240 -0.0657  0.4374 -0.0493
  524SOL    HW1 1571   2.003   2.221   0.148 -0.5174 -0.4041  3.0984
  524SOL    HW2 1572   1.978   2.182   0.294  0.0812  0.5086 -1.9183
  525SOL     OW 1573   2.872   0.897   0.263 -0.4423  0.0474  1.1240
  525SOL    HW1 1574   2.944   0.834   0.220 -0.8276 -0.5456  0.0510
  525SOL    HW2 1575   2.833   0.853   0.346  0.0510 -0.7113 -2.3132
  526SOL     OW 1576   1.112   2.959   0.878  0.0252 -0.4185  0.0537
  526SOL    HW1 1577   1.190   2.966   0.819 -1.4656  1.4115 -0.4184
  526SOL    HW2 1578   1.061   2.869   0.875  0.4962 -0.8207 -0.1496
  527SOL     OW 1579   2.668   1.374   0.632  0.6072  0.0670  0.1015
  527SOL    HW1 1580   2.585   1.321   0.608 -0.2846  1.7378  0.3510
  527SOL    HW2 1581   2.698   1.433   0.555  0.7221  0.3755  0.3894
  528SOL     OW 1582   0.571   0.892   2.502 -0.0155  0.2420  0.0024
  528SOL    HW1 1583   0.608   0.908   2.408 -0.1597 -3.4933 -0.6196
  528SOL    HW2 1584   0.468   0.896   2.503 -2.6443 -1.8811  0.0219
  529SOL     OW 1585   0.757   1.470   2.878  0.5011  0.5877  0.1551
  529SOL    HW1 1586   0.792   1.562   2.858 -0.5135 -1.4838 -1.9814
  529SOL    HW2 1587   0.662   1.466   2.843 -0.1869  3.5830  1.2837
  530SOL     OW 1588   1.486   1.116   2.128 -0.3882  0.3458  0.7013
  530SOL    HW1 1589   1.538   1.115   2.041  2.2795 -2.8511 -0.1477
  530SOL    HW2 1590   1.437   1.029   2.143  0.7421 -2.5944  0.6980
  531SOL     OW 1591   1.303   2.314   2.794 -0.3506 -0.3372  0.2595
  531SOL    HW1 1592   1.282   2.232   2.738 -1.0741  0.4958 -0.0944
  531SOL    HW2 1593   1.393   2.308   2.836  1.2013  2.2350 -0.0870
  532SOL     OW 1594   2.378   0.653   0.181  0.6798  0.3670  0.3077
  532SOL    HW1 1595   2.413   0.738   0.138 -2.1124 -0.2887  3.2830
  532SOL    HW2 1596   2.421   0.570   0.142  2.8175 -0.1987 -1.0125
  533SOL     OW 1597   0.047   0.497   1.908 -0.3663 -0.3674  0.3087
  533SOL    HW1 1598   0.043   0.517   1.807  0.7367  1.5881  0.7975
  533SOL    HW2 1599   3.078   0.538   1.953  1.3889 -1.9420 -1.5326
  534SOL     OW 1600   1.885   0.374   0.032 -0.0581 -0.8112 -0.4737
  534SOL    HW1 1601   1.827   0.324   3.078  1.2168  1.8037 -2.4538
  534SOL    HW2 1602   1.957   0.313   0.053 -3.0992  2.3522 -3.3378
  535SOL     OW 1603   0.789   0.240   0.204  0.4471  0.0185  0.4905
  535SOL    HW1 1604   0.834   0.239   0.111 -0.7184 -1.7567 -2.6621
  535SOL    HW2 1605   0.748   0.333   0.234 -0.9292  3.4085  0.9199
  536SOL     OW 1606   0.394   1.519   1.736  0.3107 -0.3802 -0.2502
  536SOL    HW1 1607   0.363   1.550   1.829 -0.4631 -0.1237  1.6210
  536SOL    HW2 1608   0.448   1.591   1.692  0.8215 -1.8137 -1.9555
  537SOL     OW 1609   0.474   2.522   1.852 -0.1475 -0.6285  0.1439
  537SOL    HW1 1610   0.525   2.485   1.771 -3.1312 -0.7644  1.2571
  537SOL    HW2 1611   0.384   2.571   1.829 -2.0715 -1.7611  1.0285
  538SOL     OW 1612   0.157   1.742   0.285  0.3293 -0.2634  0.1158
  538SOL    HW1 1613   0.136   1.651   0.240  1.8255  0.5437 -3.5266
  538SOL    HW2 1614   0.090   1.802   0.239 -0.2603  1.0338  0.0202
  539SOL     OW 1615   2.533   0.587   2.865  0.1243 -0.7114  0.0772
  539SOL    HW1 1616   2.438   0.555   2.851  0.4508  2.4703 -2.0803
  539SOL    HW2 1617   2.592   0.513   2.895  1.4986  1.0933  2.0992
  540SOL     OW 1618   1.553   0.986   3.027 -0.0832  0.0990  0.0379
  540SOL    HW1 1619   1.599   1.059   2.974  1.1939 -1.4053  2.4742
  540SOL    HW2 1620   1.505   1.017   3.105 -0.2496 -2.1816  0.7194
  541SOL     OW 1621   0.790   0.518   1.649  0.1924 -0.2523  0.1290
  541SOL    HW1 1622   0.776   0.502   1.743  1.4190 -2.7297 -0.9239
  541SOL    HW2 1623   0.703   0.539   1.601 -0.5925 -3.1916 -0.0868
  542SOL     OW 1624   1.838   2.517   2.421 -0.1347 -0.1509  0.2803
  542SOL    HW1 1625   1.789   2.425   2.419 -0.9333 -1.6048  1.0233
  542SOL    HW2 1626   1.939   2.508   2.410 -1.5559 -1.8210  1.3152
  543SOL     OW 1627   0.857   2.805   1.149 -0.6829 -0.0198  0.3351
  543SOL    HW1 1628   0.773   2.845   1.107  1.5197 -0.4068  3.5768
  543SOL    HW2 1629   0.925   2.762   1.080  1.9724 -1.2798 -0.3495
  544SOL     OW 1630   2.933   1.535   2.186 -0.7388  0.3206 -0.5981
  544SOL    HW1 1631   2.914   1.441   2.164 -0.1669 -0.0149 -1.8014
  544SOL    HW2 1632   2.940   1.553   2.288 -0.7011 -0.6560 -1.3398
  545SOL     OW 1633   1.528   1.926   1.362  0.2150  0.7171 -0.0395
  545SOL    HW1 1634   1.457   1.927   1.288  1.0367  1.0350  2.1375
  545SOL    HW2 1635   1.523   1.845   1.424  0.7660  1.8858 -0.4874
  546SOL     OW 1636   0.307   0.322   2.491  0.0850 -0.0164  0.1352
  546SOL    HW1 1637   0.219   0.288   2.454 -0.3461 -1.0045 -0.2028
  546SOL    HW2 1638   0.331   0.272   2.574 -1.0529  0.4835 -1.3648
  547SOL     OW 1639   1.498   0.298   0.629 -0.0412 -0.1637  0.6181
  547SOL    HW1 1640   1.510   0.353   0.714  0.2784 -0.1598  1.6552
  547SOL    HW2 1641   1.523   0.205   0.654 -1.0170  1.1332 -1.2791
  548SOL     OW 1642   1.557   2.285   2.913  0.0264 -0.2624 -0.0483
  548SOL    HW1 1643   1.527   2.221   2.980  0.0369 -2.5417 -2.4285
  548SOL    HW2 1644   1.569   2.381   2.946  0.7517  2.5234  1.7007
  549SOL     OW 1645   1.976   0.966   0.194  0.3422 -0.5376 -0.0342
  549SOL    HW1 1646   1.990   0.979   0.094 -2.1322 -2.3131  0.5626
  549SOL    HW2 1647   1.949   1.052   0.243 -0.7056 -0.0632 -2.3620
  550SOL     OW 1648   2.600   1.999   0.485 -0.2317 -0.1899 -0.0177
  550SOL    HW1 1649   2.534   1.945   0.432  1.1646  0.0576  1.6002
  550SOL    HW2 1650   2.647   2.070   0.430  0.6705 -1.4923  0.4986
  551SOL     OW 1651   1.231   0.212   1.894  0.3340 -0.1399  0.1444
  551SOL    HW1 1652   1.193   0.301   1.938  0.0248  2.5008  2.8331
  551SOL    HW2 1653   1.332   0.203   1.893 -0.8127 -1.7940  0.0774
  552SOL     OW 1654   0.000   2.216   2.744  1.0025 -0.0749  0.0054
  552SOL    HW1 1655   3.073   2.164   2.665 -0.9824  0.3931 -1.4124
  552SOL    HW2 1656   3.045   2.226   2.827  0.1656  2.1422 -0.3505
  553SOL     OW 1657   2.942   2.486   0.890 -0.5913 -0.0900  0.4082
  553SOL    HW1 1658   3.027   2.451   0.847  0.8019 -0.8302 -0.5793
  553SOL    HW2 1659   2.888   2.407   0.929  2.1824  0.3138  0.8314
  554SOL     OW 1660   2.229   1.805   1.867 -0.4498 -0.1434  0.0254
  554SOL    HW1 1661   2.178   1.887   1.898  0.1009  1.3729  1.7827
  554SOL    HW2 1662   2.179   1.751   1.796  1.7872 -0.1895 -1.0711
  555SOL     OW 1663   1.460   2.046   2.175 -0.0457 -0.5581 -0.6937
  555SOL    HW1 1664   1.388   1.984   2.150 -0.3042  1.4397  1.5073
  555SOL    HW2 1665   1.417   2.129   2.210 -1.4201 -2.2689  0.2317
  556SOL     OW 1666   1.320   1.617   1.175  0.7582  0.1863  0.0390
  556SOL    HW1 1667   1.265   1.664   1.250  1.8347 -1.9645 -0.6386
  556SOL    HW2 1668   1.307   1.509   1.179  1.3126 -5.7345  1.7239
  557SOL     OW 1669   1.518   3.055   1.625  0.6522 -0.7428 -0.3340
  557SOL    HW1 1670   1.552   3.080   1.722  0.0595 -0.0154  1.9221
  557SOL    HW2 1671   1.416   3.045   1.621 -1.3425  0.2537  1.0912
  558SOL     OW 1672   0.566   2.967   2.075 -0.2518 -0.5845  0.1534
  558SOL    HW1 1673   0.592   3.049   2.018  0.4253  1.0735  0.9060
  558SOL    HW2 1674   0.471   2.936   2.050 -2.4832 -2.4413  1.6745
  559SOL     OW 1675   2.414   2.617   0.304  0.0668 -0.1534  0.1270
  559SOL    HW1 1676   2.344   2.673   0.253 -1.0388  1.9550 -1.0514
  559SOL    HW2 1677   2.406   2.637   0.404  1.1557 -0.4096  2.5600
  560SOL     OW 1678   1.509   2.466   0.453  0.1119  0.4290 -0.0361
  560SOL    HW1 1679   1.550   2.462   0.548  0.2891  0.6880  1.7178
  560SOL    HW2 1680   1.526   2.376   0.399 -2.0315 -1.3142 -2.1773
  561SOL     OW 1681   1.284   0.289   2.809 -0.2874 -0.3317 -0.4246
  561SOL    HW1 1682   1.219   0.363   2.846 -0.4568  2.4386 -1.0978
  561SOL    HW2 1683   1.382   0.322   2.812 -0.2380  1.0434 -0.3884
  562SOL     OW 1684   0.398   1.590   2.006  0.1936 -0.2536  0.2524
  562SOL    HW1 1685   0.457   1.512   2.035  1.3769 -0.6056 -3.5121
  562SOL    HW2 1686   0.438   1.685   2.030  2.2854  4.2047 -0.8075
  563SOL     OW 1687   1.349   1.800   2.453 -0.2753  0.2861  0.4962
  563SOL    HW1 1688   1.422   1.870   2.481 -0.9713  2.8805  0.7359
  563SOL    HW2 1689   1.372   1.754   2.364  0.9102 -1.3318 -3.8888
  564SOL     OW 1690   3.012   1.017   1.013  0.4834 -0.7479 -0.4546
  564SOL    HW1 1691   2.931   0.959   0.990 -2.0426  0.9068  2.0153
  564SOL    HW2 1692   2.986   1.117   1.006  0.7331 -2.0400 -0.8985
  565SOL     OW 1693   0.458   0.993   2.962  0.6418 -1.3129  0.1904
  565SOL    HW1 1694   0.417   0.908   2.986 -1.5065 -0.3253 -2.9013
  565SOL    HW2 1695   0.409   1.071   3.007  2.0057  0.8399  0.4625
  566SOL     OW 1696   2.401   2.928   2.700  0.0760  0.0721  0.3770
  566SOL    HW1 1697   2.406   3.025   2.670  1.2744 -1.1074 -2.4717
  566SOL    HW2 1698   2.375   2.916   2.799  2.8545  3.8594  0.4018
  567SOL     OW 1699   1.513   1.168   1.047  0.6212 -0.2917 -0.0780
  567SOL    HW1 1700   1.528   1.237   0.979 -0.3546 -0.4267  1.1397
  567SOL    HW2 1701   1.563   1.186   1.129 -2.4857  0.4234 -0.5984
  568SOL     OW 1702   1.597   1.563   2.737 -0.4305  0.0816  0.2261
  568SOL    HW1 1703   1.621   1.506   2.821 -1.2524 -1.8282  1.8797
  568SOL    HW2 1704   1.640   1.522   2.656 -0.5431 -1.1121  0.2139
  569SOL     OW 1705   2.367   1.612   3.082 -0.0759 -0.0594  0.4561
  569SOL    HW1 1706   2.426   1.667   3.016 -2.4709  4.1336  0.9832
  569SOL    HW2 1707   2.297   1.555   3.034 -0.2418 -0.6515  1.8930
  570SOL     OW 1708   3.046   2.263   1.834  0.3844  0.2976  0.2909
  570SOL    HW1 1709   3.088   2.353   1.831  1.1464  0.5730  0.5994
  570SOL    HW2 1710   3.074   2.218   1.916  0.1707  1.9698 -0.6939
  571SOL     OW 1711   2.646   1.837   1.610  0.6751  0.1285  0.0949
  571SOL    HW1 1712   2.557   1.797   1.592  1.8066  1.5217 -1.0893
  571SOL    HW2 1713   2.680   1.823   1.708  2.2087 -1.9543  4.3007
  572SOL     OW 1714   1.990   2.442   0.399 -0.3331 -0.1988  0.5211
  572SOL    HW1 1715   1.960   2.511   0.333 -2.3266 -2.9931  0.8713
  572SOL    HW2 1716   2.010   2.357   0.343  1.4480  0.6509  2.0986
  573SOL     OW 1717   1.515   1.992   0.419 -0.1223 -0.1146 -0.5759
  573SOL    HW1 1718   1.600   2.025   0.463 -1.2195  1.7398 -2.2785
  573SOL    HW2 1719   1.443   1.971   0.487 -0.1187  1.4492 -0.0643
  574SOL     OW 1720   1.783   0.174   1.334 -0.8061  0.0553  0.6619
  574SOL    HW1 1721   1.835   0.106   1.390  2.9277  0.5199  0.2246
  574SOL    HW2 1722   1.685   0.156   1.320 -0.9968 -2.4795 -1.7953
  575SOL     OW 1723   0.570   1.270   1.454 -0.2338  0.2114 -0.4549
  575SOL    HW1 1724   0.647   1.335   1.480  3.1611  1.5781 -0.2642
  575SOL    HW2 1725   0.608   1.208   1.380  0.9063 -3.1847  1.6841
  576SOL     OW 1726   2.517   0.752   1.435 -0.0584 -0.4387 -0.0728
  576SOL    HW1 1727   2.521   0.649   1.442 -0.5260  0.0819  1.9739
  576SOL    HW2 1728   2.609   0.790   1.404 -0.5542 -0.3583 -3.8883
  577SOL     OW 1729   1.643   1.026   2.475  0.7027 -0.6056 -0.0137
  577SOL    HW1 1730   1.570   1.086   2.510 -0.8295  1.7810 -2.0730
  577SOL    HW2 1731   1.601   0.943   2.429 -0.1415  1.7357 -1.0990
  578SOL     OW 1732   2.231   1.367   2.588 -0.0305  0.1808  0.3593
  578SOL    HW1 1733   2.239   1.451   2.646  0.3329  0.5644  2.6234
  578SOL    HW2 1734   2.227   1.400   2.492 -0.5348  3.1895 -3.2585
  579SOL     OW 1735   0.964   1.992   1.532  0.2833  0.1139  0.1545
  579SOL    HW1 1736   0.989   2.089   1.546 -0.9940 -0.0727 -0.3087
  579SOL    HW2 1737   0.957   1.974   1.429  0.2316  2.9143 -1.8489
  580SOL     OW 1738   1.537   2.245   0.277  0.3300  0.0706 -0.0096
  580SOL    HW1 1739   1.598   2.233   0.195 -0.2437 -1.9854 -1.8313
  580SOL    HW2 1740   1.533   2.152   0.328 -2.5943 -1.3912  0.5630
  581SOL     OW 1741   0.886   0.729   1.987 -0.2038 -0.0214  0.2415
  581SOL    HW1 1742   0.820   0.655   1.969 -1.1857 -0.2237 -0.4580
  581SOL    HW2 1743   0.907   0.741   2.086 -3.0681 -2.6498 -1.0113
  582SOL     OW 1744   0.864   1.312   1.281 -0.3123  0.1178  0.2823
  582SOL    HW1 1745   0.898   1.219   1.259  0.6250  0.1653  0.6240
  582SOL    HW2 1746   0.849   1.323   1.381 -2.6745  0.0775  0.8972
  583SOL     OW 1747   0.682   1.142   1.852  0.5792  0.3240 -0.2650
  583SOL    HW1 1748   0.667   1.233   1.816  2.0526 -2.0373  0.5066
  583SOL    HW2 1749   0.727   1.142   1.941 -1.8360 -0.9555 -2.4063
  584SOL     OW 1750   2.164   2.496   0.589 -0.1363  0.3083 -0.4458
  584SOL    HW1 1751   2.194   2.418   0.643 -0.7653  1.6381  2.0132
  584SOL    HW2 1752   2.097   2.468   0.517  0.7216  0.7524  2.3550
  585SOL     OW 1753   1.876   3.091   2.909 -1.0186  0.2391  0.1010
  585SOL    HW1 1754   1.825   0.056   2.954 -0.8248 -0.6223 -0.4977
  585SOL    HW2 1755   1.857   3.087   2.812  0.7988 -0.3912 -0.6754
  586SOL     OW 1756   0.084   2.013   0.879  0.1679  0.2451  0.3276
  586SOL    HW1 1757   0.081   1.913   0.875  1.3080 -2.3665 -1.7719
  586SOL    HW2 1758   0.047   2.046   0.969  1.4177  0.8931  0.5236
  587SOL     OW 1759   1.806   2.037   0.293 -0.3690 -0.0332  0.5327
  587SOL    HW1 1760   1.857   1.952   0.265 -1.4070 -0.6206 -1.6246
  587SOL    HW2 1761   1.777   2.098   0.213  2.2218  0.4438 -0.1584
  588SOL     OW 1762   0.125   0.084   0.856  0.2417 -0.2762  0.1712
  588SOL    HW1 1763   0.065   0.122   0.933 -3.7882  3.4615  1.3231
  588SOL    HW2 1764   0.212   0.137   0.860  1.5786 -2.4905  1.9626
  589SOL     OW 1765   1.213   1.158   1.005  0.1380 -0.6388  0.3352
  589SOL    HW1 1766   1.183   1.132   0.908  1.1918  0.2742 -1.5154
  589SOL    HW2 1767   1.310   1.130   1.020  1.9373 -0.6486 -0.8859
  590SOL     OW 1768   1.442   1.371   0.033  0.2275 -0.0471  0.7496
  590SOL    HW1 1769   1.464   1.360   0.134  1.6011  0.6899  1.3527
  590SOL    HW2 1770   1.401   1.283   3.107  0.3554  0.3143 -0.3306
  591SOL     OW 1771   2.514   2.507   2.599  0.2540  0.3675 -0.3027
  591SOL    HW1 1772   2.551   2.528   2.693 -0.8872 -0.0424 -0.7349
  591SOL    HW2 1773   2.486   2.593   2.553  3.3025 -1.0511  0.3444
  592SOL     OW 1774   1.689   2.112   1.504  0.0716  0.5575 -0.5359
  592SOL    HW1 1775   1.693   2.064   1.596 -1.5444  0.3893 -1.2492
  592SOL    HW2 1776   1.626   2.060   1.442  0.0191 -0.7599 -0.9215
  593SOL     OW 1777   0.829   0.145   1.095 -0.1114  0.0156  0.0532
  593SOL    HW1 1778   0.873   0.088   1.170  4.1481  1.1819  3.5132
  593SOL    HW2 1779   0.878   0.148   1.009 -3.1029 -0.0444  0.8162
  594SOL     OW 1780   2.908   0.677   2.399 -0.0082  0.4864 -0.2962
  594SOL    HW1 1781   2.989   0.712   2.350 -3.0908 -1.6760  2.1463
  594SOL    HW2 1782   2.899   0.574   2.402  1.6189 -0.3431  1.1213
  595SOL     OW 1783   0.822   2.677   1.380 -0.3826 -0.3517 -0.5515
  595SOL    HW1 1784   0.829   2.727   1.293  0.2351  1.9095 -1.4284
  595SOL    HW2 1785   0.750   2.604   1.368 -0.6470 -0.1390 -0.9367
  596SOL     OW 1786   0.075   0.855   1.460 -0.0771  0.3082 -0.0652
  596SOL    HW1 1787   0.112   0.769   1.423  1.2927  0.0181  2.5875
  596SOL    HW2 1788   0.036   0.917   1.387 -1.7407 -0.3413 -1.2705
  597SOL     OW 1789   1.567   1.796   0.175  0.0437 -0.1041 -0.0578
  597SOL    HW1 1790   1.470   1.755   0.187 -2.1349 -0.5983  1.0722
  597SOL    HW2 1791   1.585   1.863   0.250  1.1483  0.3988 -0.2901
  598SOL     OW 1792   0.387   2.735   1.590 -0.1311 -0.4569 -0.0687
  598SOL    HW1 1793   0.362   2.682   1.507 -0.7880  0.5942  4.2937
  598SOL    HW2 1794   0.487   2.727   1.615  1.6392  1.2756  0.1834
  599SOL     OW 1795   2.473   1.787   2.898  0.1737 -0.1941 -0.0944
  599SOL    HW1 1796   2.393   1.838   2.861 -0.7196  0.9200 -0.6117
  599SOL    HW2 1797   2.554   1.813   2.845 -1.3390 -2.1784  3.1176
  600SOL     OW 1798   0.860   0.925   0.216  0.5187 -0.1189  0.5605
  600SOL    HW1 1799   0.908   0.961   0.294 -1.7299 -2.7845 -2.1594
  600SOL    HW2 1800   0.844   1.000   0.144  0.6547 -0.4754  1.9979
  601SOL     OW 1801   0.576   0.558   0.705 -1.1073 -0.2691  0.5517
  601SOL    HW1 1802   0.585   0.647   0.656  2.1239  0.1233 -1.4416
  601SOL    HW2 1803   0.604   0.566   0.804  0.8618 -0.4265 -1.6328
  602SOL     OW 1804   1.329   2.986   0.725 -0.6844 -0.1954 -0.1682
  602SOL    HW1 1805   1.401   3.059   0.742  3.3763  2.4232  0.7209
  602SOL    HW2 1806   1.295   2.997   0.631  1.3911 -0.6125 -1.6853
  603SOL     OW 1807   0.698   2.735   2.170  0.3742 -0.5068  0.6094
  603SOL    HW1 1808   0.636   2.812   2.143 -2.7891 -0.8475 -1.0509
  603SOL    HW2 1809   0.767   2.718   2.096  0.2099  1.6694  0.0899
  604SOL     OW 1810   2.880   3.036   2.497  0.0715  0.3041  0.6234
  604SOL    HW1 1811   2.964   3.086   2.528  2.4577 -0.1180  0.9840
  604SOL    HW2 1812   2.889   2.935   2.516  0.7003 -2.6251  0.7519
  605SOL     OW 1813   2.642   2.051   1.307  0.4706  0.1945  0.8013
  605SOL    HW1 1814   2.701   2.049   1.387 -4.5974  1.3258  0.5746
  605SOL    HW2 1815   2.552   2.006   1.323  0.9568  0.9231  0.2165
  606SOL     OW 1816   0.457   1.548   2.755 -0.0296  0.4273 -0.4173
  606SOL    HW1 1817   0.390   1.620   2.724  1.3549  0.6984  1.6245
  606SOL    HW2 1818   0.399   1.464   2.774 -1.5593 -0.2323 -1.8903
  607SOL     OW 1819   0.938   0.098   0.433  0.0551  0.3647 -0.2725
  607SOL    HW1 1820   0.862   0.124   0.370  0.5128  0.8110 -1.4886
  607SOL    HW2 1821   1.030   0.101   0.379  1.6852 -1.6028 -1.2531
  608SOL     OW 1822   1.757   1.193   2.292 -0.3036 -0.3835  0.1680
  608SOL    HW1 1823   1.716   1.129   2.360  0.8049  1.0863 -1.4810
  608SOL    HW2 1824   1.696   1.210   2.212 -0.4826  0.0881  1.4267
  609SOL     OW 1825   3.101   0.178   1.055 -0.1775  0.0699  0.1425
  609SOL    HW1 1826   0.053   0.187   1.137  1.8229 -0.9769  0.6161
  609SOL    HW2 1827   3.035   0.255   1.050  0.0073  0.0065  0.8273
  610SOL     OW 1828   0.684   2.809   0.768  0.3860  0.4653  0.2151
  610SOL    HW1 1829   0.751   2.733   0.771 -2.9733 -1.8180 -0.5832
  610SOL    HW2 1830   0.653   2.842   0.863  0.5941  1.5828 -0.5884
  611SOL     OW 1831   1.794   0.928   2.928  0.0440 -0.2548  0.2217
  611SOL    HW1 1832   1.872   0.981   2.969  1.1665 -1.0023  2.6953
  611SOL    HW2 1833   1.708   0.935   2.986 -0.5538  1.0524 -2.1487
  612SOL     OW 1834   0.622   2.315   2.178 -0.1974  0.1641 -0.4399
  612SOL    HW1 1835   0.669   2.360   2.102 -1.0732 -2.7245  0.0093
  612SOL    HW2 1836   0.648   2.344   2.271 -1.3063  0.0554 -0.7580
  613SOL     OW 1837   0.910   2.585   0.090 -0.0373  0.3518  0.2243
  613SOL    HW1 1838   0.949   2.493   0.106  1.0317  1.7645 -2.2386
  613SOL    HW2 1839   0.817   2.573   0.045 -0.4003 -1.5396  0.5680
  614SOL     OW 1840   2.699   2.780   1.557  0.2552  0.4987  0.6914
  614SOL    HW1 1841   2.777   2.806   1.499 -0.4371  1.3501  1.0598
  614SOL    HW2 1842   2.688   2.678   1.543  0.3501 -1.4802 -0.9136
  615SOL     OW 1843   2.367   1.347   0.268 -0.2206 -0.1733  0.0422
  615SOL    HW1 1844   2.288   1.312   0.326 -1.9117  1.2110  2.4664
  615SOL    HW2 1845   2.380   1.305   0.177 -0.2986  1.8663 -0.8948
  616SOL     OW 1846   1.876   0.305   0.419  0.0352 -0.3258  0.5954
  616SOL    HW1 1847   1.817   0.223   0.400  2.3648  0.2448 -0.2006
  616SOL    HW2 1848   1.821   0.392   0.412  1.0657  1.9469 -1.7315
  617SOL     OW 1849   1.238   0.875   3.075  0.1181  0.1071 -0.4901
  617SOL    HW1 1850   1.308   0.812   3.107 -1.7924  2.7318 -0.7032
  617SOL    HW2 1851   1.149   0.829   3.070 -0.2213 -1.9240  2.2619
  618SOL     OW 1852   0.838   0.056   1.804 -0.1215  0.1823 -0.5213
  618SOL    HW1 1853   0.925   0.045   1.861  2.6682  0.1943 -0.4235
  618SOL    HW2 1854   0.754   0.052   1.863  2.0215  1.2365  1.3211
  619SOL     OW 1855   2.770   1.049   1.361  0.0703  0.3379  0.3799
  619SOL    HW1 1856   2.859   1.106   1.356  4.0174  0.4846 -1.4847
  619SOL    HW2 1857   2.719   1.064   1.452 -0.1450  0.3178  2.7738
  620SOL     OW 1858   2.129   0.895   2.676  0.2465  0.1592  0.4050
  620SOL    HW1 1859   2.165   0.819   2.624 -0.6810  0.2624  1.4846
  620SOL    HW2 1860   2.050   0.931   2.624 -1.4166  0.1209 -0.8170
  621SOL     OW 1861   2.490   2.829   1.370 -0.2530 -0.2040  0.0420
  621SOL    HW1 1862   2.546   2.804   1.286  0.3235 -1.3870 -1.2711
  621SOL    HW2 1863   2.555   2.831   1.450 -0.0024  0.9031 -4.7159
  622SOL     OW 1864   1.272   0.752   2.675  0.7767 -0.2293  0.2307
  622SOL    HW1 1865   1.211   0.709   2.600 -1.5753 -0.0859 -0.8469
  622SOL    HW2 1866   1.245   0.851   2.703  0.1212  0.4823  2.4224
  623SOL     OW 1867   1.180   0.528   2.840  0.4250  0.0031  0.0459
  623SOL    HW1 1868   1.086   0.523   2.801  1.3166  1.2160  0.1179
  623SOL    HW2 1869   1.212   0.624   2.843 -0.7983 -0.1893  2.3830
  624SOL     OW 1870   1.859   0.710   0.246 -0.1878 -0.1592  0.0628
  624SOL    HW1 1871   1.892   0.805   0.224  2.4240  0.3485 -0.9500
  624SOL    HW2 1872   1.944   0.650   0.233 -0.8805  1.7834  0.3980
  625SOL     OW 1873   1.023   1.357   1.052  0.1438 -0.2945  0.3345
  625SOL    HW1 1874   1.093   1.286   1.040 -0.6798 -1.1902  1.2411
  625SOL    HW2 1875   0.955   1.341   1.122  3.5870  0.2805 -1.0399
  626SOL     OW 1876   1.625   1.191   2.865 -0.2405  0.4209 -0.0837
  626SOL    HW1 1877   1.715   1.146   2.834  2.7938 -0.4898 -1.1916
  626SOL    HW2 1878   1.567   1.201   2.785  1.0099  0.3229 -0.3346
  627SOL     OW 1879   0.982   0.250   2.277 -0.3609  0.0086  0.0616
  627SOL    HW1 1880   0.970   0.149   2.263  1.9918 -1.2415 -1.5323
  627SOL    HW2 1881   1.041   0.272   2.356  0.4462 -0.7857  1.1657
  628SOL     OW 1882   2.532   0.142   2.244 -0.2923 -0.0489  0.0502
  628SOL    HW1 1883   2.553   0.198   2.162 -0.3501 -3.9162  0.6259
  628SOL    HW2 1884   2.509   0.208   2.320 -0.1668 -0.0851 -1.6859
  629SOL     OW 1885   0.946   0.847   2.810  0.1001 -0.1095 -0.1408
  629SOL    HW1 1886   1.040   0.888   2.798  1.9708  0.3275  0.1881
  629SOL    HW2 1887   0.935   0.828   2.910  2.2634 -2.0319 -0.2501
  630SOL     OW 1888   1.066   0.507   1.814  0.0338 -0.3131  0.4591
  630SOL    HW1 1889   0.990   0.557   1.778 -0.0935 -0.5901 -0.3545
  630SOL    HW2 1890   1.057   0.484   1.914  3.9445 -0.7871  1.3570
  631SOL     OW 1891   2.964   0.647   0.507  0.1025 -0.3864  0.1098
  631SOL    HW1 1892   2.918   0.559   0.482  2.1759  2.5559 -0.5018
  631SOL    HW2 1893   3.061   0.653   0.480  1.1428 -0.9069 -0.4984
  632SOL     OW 1894   2.177   1.086   1.108  0.2615 -0.1315  0.6970
  632SOL    HW1 1895   2.084   1.121   1.081  0.9341  2.0687  0.2428
  632SOL    HW2 1896   2.169   0.986   1.117 -0.0545  0.8191 -0.3793
  633SOL     OW 1897   1.310   0.797   0.815 -1.1243  0.6820 -0.0060
  633SOL    HW1 1898   1.227   0.761   0.867 -3.7136  0.7676  2.1752
  633SOL    HW2 1899   1.372   0.843   0.880 -0.2204 -2.0917  1.3161
  634SOL     OW 1900   1.881   3.001   1.019 -0.1233  0.1642 -0.3149
  634SOL    HW1 1901   1.962   2.947   1.053  2.2234 -0.1237 -0.6414
  634SOL    HW2 1902   1.794   2.960   1.060  0.5636  0.8249  0.2123
  635SOL     OW 1903   1.487   0.902   1.012 -0.2276 -0.0693 -0.2981
  635SOL    HW1 1904   1.576   0.852   0.989  1.7605 -1.5805 -2.1506
  635SOL    HW2 1905   1.504   1.005   1.001 -1.0291 -0.7651  1.0371
  636SOL     OW 1906   0.977   0.841   0.788 -0.0226  0.2772  0.2452
  636SOL    HW1 1907   0.996   0.792   0.876 -3.8602 -1.1483 -3.2098
  636SOL    HW2 1908   0.913   0.921   0.800  1.0172 -0.1383 -0.3608
  637SOL     OW 1909   2.528   2.105   0.148 -0.0043 -0.1955  0.0605
  637SOL    HW1 1910   2.549   2.140   0.242 -1.7143  0.2701 -2.1562
  637SOL    HW2 1911   2.601   2.038   0.125 -0.9837  3.8489  0.1294
  638SOL     OW 1912   1.553   2.953   2.726 -0.3386 -0.1651  0.1303
  638SOL    HW1 1913   1.498   2.905   2.660  4.2194  0.5633  1.6889
  638SOL    HW2 1914   1.604   2.882   2.778 -2.2426 -1.2867 -0.6092
  639SOL     OW 1915   0.866   2.177   1.230  0.0125 -0.2538 -0.5740
  639SOL    HW1 1916   0.875   2.237   1.152 -2.9607 -1.2100 -0.3303
  639SOL    HW2 1917   0.921   2.093   1.218  0.8550  0.9692  0.1526
  640SOL     OW 1918   3.031   2.721   0.705 -0.0241  0.6131 -0.8409
  640SOL    HW1 1919   3.006   2.637   0.755 -0.7003 -1.5159 -1.5798
  640SOL    HW2 1920   0.011   2.711   0.657 -0.6804 -2.7807  0.3391
  641SOL     OW 1921   0.435   0.384   0.189  1.0613  0.2954 -0.2175
  641SOL    HW1 1922   0.451   0.297   0.251  3.7120 -1.2135  2.7418
  641SOL    HW2 1923   0.463   0.365   0.095 -0.7376 -1.2481  1.4746
  642SOL     OW 1924   2.867   0.704   1.102 -0.6389  0.5827  0.6490
  642SOL    HW1 1925   2.796   0.640   1.141 -0.5286 -0.5389  0.0485
  642SOL    HW2 1926   2.828   0.775   1.040  1.5248  0.6837  0.0339
  643SOL     OW 1927   0.842   2.059   2.002  0.2437  0.1128  0.1587
  643SOL    HW1 1928   0.743   2.067   1.981 -1.1547  1.6940 -0.5499
  643SOL    HW2 1929   0.862   2.066   2.100  0.7276  0.2681  1.4652
  644SOL     OW 1930   1.645   2.682   0.192  0.2312 -0.0766  0.0986
  644SOL    HW1 1931   1.571   2.654   0.257  2.1010  2.5107 -1.1720
  644SOL    HW2 1932   1.728   2.630   0.205 -0.7329 -2.8481  1.0453
  645SOL     OW 1933   1.752   2.227   0.905  0.0356  0.2785 -0.5286
  645SOL    HW1 1934   1.847   2.195   0.915  0.3322 -1.4041  1.8786
  645SOL    HW2 1935   1.743   2.329   0.900  0.8651  0.6844 -1.4506
  646SOL     OW 1936   1.145   2.815   0.063 -0.2935  0.2181  0.2381
  646SOL    HW1 1937   1.173   2.826   3.080 -0.0272 -1.0335  0.5448
  646SOL    HW2 1938   1.088   2.897   0.088 -0.5686  0.3826  2.5033
  647SOL     OW 1939   0.399   2.997   1.789 -0.0967 -0.0171  0.1632
  647SOL    HW1 1940   0.353   2.957   1.870  2.0102  0.0845 -0.4112
  647SOL    HW2 1941   0.411   2.931   1.713 -0.4002  0.6508  1.6362
  648SOL     OW 1942   1.775   1.038   1.379  0.1333  0.3280 -0.1603
  648SOL    HW1 1943   1.819   1.051   1.466 -4.6117 -2.8397 -2.8602
  648SOL    HW2 1944   1.819   0.964   1.320  0.9712 -1.3077 -0.8330
  649SOL     OW 1945   1.756   2.255   2.707  0.5549  0.1147  0.0594
  649SOL    HW1 1946   1.843   2.235   2.761  0.2729 -0.1448 -1.5228
  649SOL    HW2 1947   1.681   2.279   2.773  0.7886  2.4328  0.3169
  650SOL     OW 1948   2.339   1.473   1.896  0.3475 -0.5838 -0.2719
  650SOL    HW1 1949   2.395   1.559   1.904  0.3093  2.0834 -2.1045
  650SOL    HW2 1950   2.352   1.420   1.982 -2.4892  0.0560 -0.1809
  651SOL     OW 1951   1.371   1.871   2.975 -0.5745 -0.1114  0.1966
  651SOL    HW1 1952   1.341   1.778   2.993  0.2164  0.7313 -1.9891
  651SOL    HW2 1953   1.459   1.870   2.918  1.5146  1.5929  0.4930
  652SOL     OW 1954   0.973   2.624   2.920  0.0036  0.7244  0.1751
  652SOL    HW1 1955   1.022   2.539   2.952  1.1695 -1.0564 -0.1107
  652SOL    HW2 1956   0.954   2.684   3.004 -1.7358 -0.8266  0.4437
  653SOL     OW 1957   2.275   2.021   1.106  0.2579  0.4727 -0.0791
  653SOL    HW1 1958   2.172   2.013   1.115 -1.5464  0.7696 -0.5695
  653SOL    HW2 1959   2.321   1.979   1.189 -1.2753  0.7644 -0.9363
  654SOL     OW 1960   2.852   2.636   2.001  0.5719  0.3124 -0.3449
  654SOL    HW1 1961   2.848   2.689   1.914 -1.1710  0.3460 -0.9937
  654SOL    HW2 1962   2.931   2.571   2.008 -1.9072 -1.5122 -0.4252
  655SOL     OW 1963   2.805   2.286   1.026 -0.4526  0.9398  0.4028
  655SOL    HW1 1964   2.801   2.182   1.025 -0.0812 -3.2426  2.1183
  655SOL    HW2 1965   2.731   2.318   1.085  1.9085  0.2862 -2.5027
  656SOL     OW 1966   0.271   2.757   2.689 -0.0440 -0.5733 -0.0710
  656SOL    HW1 1967   0.318   2.798   2.607 -1.1696  0.2514  2.1648
  656SOL    HW2 1968   0.186   2.703   2.662  1.4480 -0.4339  0.0983
  657SOL     OW 1969   3.073   0.755   0.201  0.2141 -0.0654  0.0402
  657SOL    HW1 1970   0.032   0.733   0.267 -2.1981  0.4302 -4.3931
  657SOL    HW2 1971   0.003   0.797   0.120  0.4435  1.7938 -0.7734
  658SOL     OW 1972   1.481   1.736   1.020  0.5506 -0.0675 -0.2783
  658SOL    HW1 1973   1.419   1.672   1.072  2.5607  0.1890 -1.1596
  658SOL    HW2 1974   1.479   1.829   1.055  0.5547  0.8815 -1.0523
  659SOL     OW 1975   1.740   0.677   1.191  0.5194 -0.2797 -0.1819
  659SOL    HW1 1976   1.776   0.599   1.132 -0.4551 -1.9118 -0.9232
  659SOL    HW2 1977   1.655   0.654   1.237  2.6962  3.5031 -3.2421
  660SOL     OW 1978   1.333   1.491   0.389 -0.5787 -0.5405 -0.9397
  660SOL    HW1 1979   1.268   1.415   0.393  1.9148  0.9320  2.2340
  660SOL    HW2 1980   1.358   1.524   0.486  2.0023 -1.2223 -0.1831
  661SOL     OW 1981   0.133   1.771   0.562  0.0280 -0.2399 -0.2548
  661SOL    HW1 1982   0.136   1.752   0.459  0.7454  0.6424  0.4568
  661SOL    HW2 1983   0.218   1.827   0.582  1.7010  0.0376  0.8430
  662SOL     OW 1984   0.022   0.699   2.240 -0.5900  0.3981  0.2143
  662SOL    HW1 1985   3.088   0.687   2.150 -0.9338  0.2612  2.3107
  662SOL    HW2 1986   0.073   0.782   2.230 -1.1250 -3.6873 -0.1185
  663SOL     OW 1987   2.085   1.437   1.108  0.2162 -0.3041 -0.2963
  663SOL    HW1 1988   2.058   1.375   1.033  1.2249  1.7671  1.1692
  663SOL    HW2 1989   2.040   1.525   1.100 -0.2630 -1.1144 -1.0899
  664SOL     OW 1990   0.631   0.562   0.991  0.1639  0.4595  0.4860
  664SOL    HW1 1991   0.532   0.537   0.988 -1.4392 -0.7731 -1.1096
  664SOL    HW2 1992   0.684   0.504   1.054 -0.5338  0.6667  0.0117
  665SOL     OW 1993   1.175   2.974   2.880  0.0660 -0.7629 -0.3825
  665SOL    HW1 1994   1.263   2.983   2.921 -0.6012 -0.9141 -1.2616
  665SOL    HW2 1995   1.123   3.065   2.891 -2.0287  0.0296 -0.0638
  666SOL     OW 1996   0.169   0.592   2.460 -0.2003 -0.0459  0.2328
  666SOL    HW1 1997   0.232   0.514   2.476  2.8745 -2.3214  1.0225
  666SOL    HW2 1998   0.149   0.600   2.358 -1.5169  0.7893 -3.9428
  667SOL     OW 1999   2.079   1.334   2.302  0.7879  0.0374 -0.0442
  667SOL    HW1 2000   2.034   1.392   2.372  0.6082  0.0460 -0.9699
  667SOL    HW2 2001   2.028   1.245   2.293  0.0935 -1.2916  0.8181
  668SOL     OW 2002   3.099   1.625   2.969 -0.3994 -0.3775  0.0759
  668SOL    HW1 2003   0.022   1.561   2.894 -0.0420  0.1845 -1.0341
  668SOL    HW2 2004   3.003   1.600   2.985  1.2025 -0.6288  0.2401
  669SOL     OW 2005   2.054   2.882   2.554  0.0100 -0.4852 -0.1280
  669SOL    HW1 2006   2.027   2.849   2.457 -1.4778 -1.8374 -1.2005
  669SOL    HW2 2007   2.139   2.939   2.546 -0.2702  0.0355 -0.0071
  670SOL     OW 2008   2.586   0.981   2.539  0.0575 -0.3957  0.3858
  670SOL    HW1 2009   2.533   0.895   2.541  1.2704  1.5134  0.1460
  670SOL    HW2 2010   2.522   1.060   2.547 -0.0230  0.4263 -2.6296
  671SOL     OW 2011   2.550   1.645   0.255 -0.0845  0.1459 -0.0906
  671SOL    HW1 2012   2.590   1.644   0.160 -3.4215 -0.7309  1.7151
  671SOL    HW2 2013   2.495   1.562   0.263  2.2967 -0.9569 -0.6251
  672SOL     OW 2014   2.568   1.316   2.395 -0.0208 -0.0360 -0.0644
  672SOL    HW1 2015   2.516   1.230   2.398 -0.7272  0.5892  2.3725
  672SOL    HW2 2016   2.655   1.304   2.450  2.4373 -0.8284  0.6727
  673SOL     OW 2017   2.719   1.396   1.457 -0.2001  0.0269 -0.0063
  673SOL    HW1 2018   2.765   1.479   1.426 -2.5146  0.0791 -1.3032
  673SOL    HW2 2019   2.762   1.303   1.429 -0.0880 -0.6832 -0.9678
  674SOL     OW 2020   1.575   1.657   1.765 -0.0230  0.1732  0.2728
  674SOL    HW1 2021   1.521   1.735   1.791  1.5827 -3.8581 -2.7118
  674SOL    HW2 2022   1.664   1.638   1.823 -0.6348  0.6645  0.0339
  675SOL     OW 2023   2.942   0.389   1.170 -1.0972 -0.3635  0.3707
  675SOL    HW1 2024   2.980   0.424   1.084 -3.9440  0.4279  1.7668
  675SOL    HW2 2025   2.862   0.443   1.190  2.3124 -1.6856  0.1686
  676SOL     OW 2026   2.153   0.914   0.710  0.0019 -0.2137  0.4206
  676SOL    HW1 2027   2.181   0.818   0.689 -1.1255  0.7762  0.4963
  676SOL    HW2 2028   2.053   0.924   0.691 -1.8459 -1.9044 -1.8618
  677SOL     OW 2029   1.597   1.517   2.311  0.3211  0.0921  0.1280
  677SOL    HW1 2030   1.520   1.585   2.290 -0.5617 -0.9969 -1.7576
  677SOL    HW2 2031   1.624   1.464   2.231 -0.4345 -0.4594 -0.9975
  678SOL     OW 2032   2.526   1.543   1.124 -0.1869  0.0813  0.4533
  678SOL    HW1 2033   2.558   1.495   1.042 -0.9790  0.8797 -0.7320
  678SOL    HW2 2034   2.447   1.494   1.163  0.3205 -0.1919 -0.2975
  679SOL     OW 2035   0.463   2.641   1.063 -0.4785 -0.3647  0.1930
  679SOL    HW1 2036   0.378   2.638   1.009  1.1948 -0.9031 -1.2763
  679SOL    HW2 2037   0.442   2.637   1.161 -0.9847  0.4478 -2.1194
  680SOL     OW 2038   3.094   2.059   1.131 -0.2715 -0.3909 -0.6452
  680SOL    HW1 2039   0.065   2.086   1.190 -1.4147  1.0326  1.9262
  680SOL    HW2 2040   3.043   2.146   1.112  0.8360 -0.9468 -2.2912
  681SOL     OW 2041   0.771   0.803   1.243 -0.3860  0.5413  0.2961
  681SOL    HW1 2042   0.809   0.710   1.247 -0.4336 -1.7837  1.4976
  681SOL    HW2 2043   0.739   0.823   1.146  0.7328  0.3345 -0.1002
  682SOL     OW 2044   1.529   0.057   0.762 -0.1050 -0.6640  0.4006
  682SOL    HW1 2045   1.559   0.079   0.856 -0.5723  0.2870 -0.3985
  682SOL    HW2 2046   1.596   0.001   0.708  1.4511 -2.2025 -1.4598
  683SOL     OW 2047   2.266   1.394   1.633 -0.7517  0.0563 -0.0014
  683SOL    HW1 2048   2.276   1.433   1.728 -1.4902 -0.2030 -1.4076
  683SOL    HW2 2049   2.239   1.460   1.565 -2.3622 -2.2839  1.1559
  684SOL     OW 2050   3.067   1.681   1.558 -0.6371  0.8505 -0.2287
  684SOL    HW1 2051   3.066   1.733   1.472 -0.9741 -0.2155  0.8559
  684SOL    HW2 2052   3.065   1.738   1.641 -2.7851 -0.1460 -0.4427
  685SOL     OW 2053   2.014   1.823   0.217 -0.2133 -0.1675 -0.0895
  685SOL    HW1 2054   2.023   1.752   0.291  1.1041 -2.3254 -2.0509
  685SOL    HW2 2055   2.109   1.856   0.196  1.4852  1.7423 -1.9076
  686SOL     OW 2056   3.066   0.115   0.660  0.1786 -0.3938 -0.4316
  686SOL    HW1 2057   0.029   0.124   0.730  2.8153  1.8636 -1.2264
  686SOL    HW2 2058   2.970   0.114   0.690 -1.8235  0.2640 -0.9210
  687SOL     OW 2059   1.434   3.050   2.974 -0.1148  0.4122 -0.2682
  687SOL    HW1 2060   1.465   0.020   3.014  0.0464 -1.4274 -0.5967
  687SOL    HW2 2061   1.487   3.039   2.882 -0.2847  0.1892 -4.0828
  688SOL     OW 2062   1.789   1.875   2.029  0.0227  0.1202 -0.1173
  688SOL    HW1 2063   1.890   1.859   2.020 -0.8046 -2.2617 -0.5581
  688SOL    HW2 2064   1.760   1.969   2.050 -2.8264  0.2520  0.3384
  689SOL     OW 2065   2.629   0.961   2.095  0.2475  0.2524 -0.3530
  689SOL    HW1 2066   2.654   1.052   2.053  1.9212  0.3750 -1.2184
  689SOL    HW2 2067   2.666   0.959   2.188  0.2910  0.2589 -0.2276
  690SOL     OW 2068   1.833   1.508   0.885  0.1494 -0.2606  0.1104
  690SOL    HW1 2069   1.901   1.432   0.904  2.0152 -1.9386 -1.3594
  690SOL    HW2 2070   1.793   1.547   0.972  1.0900 -1.4385 -2.3571
  691SOL     OW 2071   0.672   1.478   1.209  0.2607  0.5799  0.2276
  691SOL    HW1 2072   0.733   1.401   1.238 -1.7473 -2.3166  2.3438
  691SOL    HW2 2073   0.591   1.441   1.159 -2.2299  0.3594  0.4139
  692SOL     OW 2074   1.916   0.007   2.150 -0.6208  0.5910  0.0909
  692SOL    HW1 2075   1.998   0.059   2.150  1.4267 -0.3444  1.3123
  692SOL    HW2 2076   1.905   3.065   2.063  0.7826 -1.1897  0.2022
  693SOL     OW 2077   2.824   1.252   2.564 -0.5115 -0.1569  0.4719
  693SOL    HW1 2078   2.802   1.347   2.527 -0.9856  1.6604 -1.8519
  693SOL    HW2 2079   2.927   1.239   2.573  1.6321  3.4625  0.5980
  694SOL     OW 2080   2.339   0.259   1.066 -0.6294  0.2445 -0.5727
  694SOL    HW1 2081   2.355   0.244   1.169  2.7225 -0.8403 -1.5296
  694SOL    HW2 2082   2.275   0.339   1.054 -1.2509  2.7356 -4.0591
  695SOL     OW 2083   1.302   1.232   2.821  0.0558  0.2430 -0.0075
  695SOL    HW1 2084   1.339   1.185   2.906  1.3062 -2.1112  1.4270
  695SOL    HW2 2085   1.254   1.317   2.836 -2.2328  0.7426  0.0564
  696SOL     OW 2086   1.871   0.280   1.722  0.0138  0.7019  0.0337
  696SOL    HW1 2087   1.861   0.307   1.625 -1.4686  0.9730 -0.5258
  696SOL    HW2 2088   1.942   0.208   1.746  1.2992  3.6048 -1.4143
  697SOL     OW 2089   1.549   0.548   2.306 -0.2707  0.4821 -0.0294
  697SOL    HW1 2090   1.586   0.470   2.359  1.0199 -1.0401  2.4376
  697SOL    HW2 2091   1.547   0.526   2.205 -0.2154  0.8156 -1.5347
  698SOL     OW 2092   1.994   1.770   2.410 -0.5260  0.1787  0.0921
  698SOL    HW1 2093   1.906   1.783   2.360  1.9833  2.4200 -2.3153
  698SOL    HW2 2094   2.003   1.672   2.437  1.2736  1.4685  1.6856
  699SOL     OW 2095   1.595   1.112   0.610 -0.3225 -0.4657  0.3139
  699SOL    HW1 2096   1.624   1.211   0.618  0.9025  1.0914  1.8805
  699SOL    HW2 2097   1.651   1.056   0.676 -0.1678  0.1004 -1.4557
  700SOL     OW 2098   1.647   2.902   3.111 -0.4733 -0.0388 -0.0821
  700SOL    HW1 2099   1.569   2.964   3.091  1.2313 -0.3674  1.3010
  700SOL    HW2 2100   1.614   2.813   0.044 -1.6433 -0.7261  3.2203
  701SOL     OW 2101   0.118   0.580   1.337 -0.3713 -0.4377  0.2197
  701SOL    HW1 2102   0.079   0.617   1.246 -1.2785 -1.4009 -1.5628
  701SOL    HW2 2103   0.050   0.527   1.386  1.5418  1.4121 -1.2226
  702SOL     OW 2104   1.878   3.080   1.477 -0.1192  0.6331 -0.0666
  702SOL    HW1 2105   1.958   3.040   1.434 -3.6144 -1.6238 -1.4196
  702SOL    HW2 2106   1.803   3.015   1.503 -0.3307 -0.2390 -3.1290
  703SOL     OW 2107   2.688   0.480   1.676  0.3303  0.2406  0.3336
  703SOL    HW1 2108   2.676   0.394   1.721 -0.5582 -2.8047 -1.6570
  703SOL    HW2 2109   2.783   0.506   1.665  0.6598 -0.1088 -2.3401
  704SOL     OW 2110   1.214   2.148   1.189 -0.4458  0.6291 -0.2496
  704SOL    HW1 2111   1.156   2.222   1.227  1.4764 -0.9672 -0.6484
  704SOL    HW2 2112   1.207   2.156   1.087 -0.7371  1.2310  0.5091
  705SOL     OW 2113   0.185   1.820   2.224 -0.3371  0.2621  0.0965
  705SOL    HW1 2114   0.244   1.825   2.305  1.7950  0.3118  0.4980
  705SOL    HW2 2115   0.155   1.726   2.200 -0.4523 -1.4750  0.1675
  706SOL     OW 2116   2.289   0.446   2.860 -0.2009  0.0341  0.1557
  706SOL    HW1 2117   2.208   0.487   2.908 -0.7134 -0.0027  2.2923
  706SOL    HW2 2118   2.306   0.351   2.897  1.5807 -0.9356  3.2928
  707SOL     OW 2119   1.601   2.911   2.332  0.8202  0.0890 -0.2248
  707SOL    HW1 2120   1.649   2.831   2.292  0.8630  1.7575  0.2727
  707SOL    HW2 2121   1.543   2.879   2.411 -2.6544  0.6756  2.3115
  708SOL     OW 2122   0.667   2.256   1.378  0.4236 -0.5264 -0.3684
  708SOL    HW1 2123   0.664   2.360   1.364 -0.6727  1.8663 -0.7617
  708SOL    HW2 2124   0.736   2.213   1.320 -0.9734  1.0466  1.6330
  709SOL     OW 2125   2.671   0.874   1.808  0.3279 -0.2526  0.2265
  709SOL    HW1 2126   2.629   0.894   1.898  2.8790 -0.8162  0.3931
  709SOL    HW2 2127   2.775   0.874   1.816  4.0832  0.2912  0.6789
  710SOL     OW 2128   0.032   0.528   1.620  0.4599 -0.0391  0.8503
  710SOL    HW1 2129   3.097   0.469   1.542  0.7467  1.7986 -2.5503
  710SOL    HW2 2130   3.095   0.620   1.622 -1.1024  0.8211 -1.8753
  711SOL     OW 2131   0.033   2.801   0.931 -0.2364 -1.0295 -0.1881
  711SOL    HW1 2132   0.108   2.731   0.924 -1.2855  1.1632  3.9854
  711SOL    HW2 2133   3.098   2.815   0.845 -1.9544  2.2289  2.7553
  712SOL     OW 2134   0.404   2.851   2.467  0.4038 -0.3385 -0.0039
  712SOL    HW1 2135   0.488   2.893   2.505 -1.5602  0.0696 -0.0389
  712SOL    HW2 2136   0.424   2.804   2.382  1.1992  2.0628  2.5125
  713SOL     OW 2137   2.358   0.321   0.332  0.2118  0.0949 -0.1321
  713SOL    HW1 2138   2.259   0.340   0.328  0.0826 -0.0128 -1.6348
  713SOL    HW2 2139   2.409   0.364   0.249  3.1357 -0.5948  0.6941
  714SOL     OW 2140   1.715   1.548   0.127  0.2349 -0.4180 -0.3755
  714SOL    HW1 2141   1.669   1.635   0.142 -1.0225 -0.1196  0.6825
  714SOL    HW2 2142   1.670   1.478   0.182  0.5697  2.0036 -1.1389
  715SOL     OW 2143   0.195   0.354   0.436 -0.3467  0.6129 -0.5681
  715SOL    HW1 2144   0.137   0.294   0.375  0.7536 -0.7942 -0.8367
  715SOL    HW2 2145   0.295   0.323   0.430  2.5524 -2.5971 -0.8160
  716SOL     OW 2146   1.053   0.020   1.962  0.3222  0.7295  0.2138
  716SOL    HW1 2147   1.112   0.100   1.929  1.3164  1.7380 -0.3163
  716SOL    HW2 2148   1.039   0.017   2.060 -1.4814 -0.6454 -3.4224
  717SOL     OW 2149   0.338   0.550   2.826  0.1866 -0.0059 -0.0578
  717SOL    HW1 2150   0.352   0.455   2.792  1.4271 -2.1920  1.3525
  717SOL    HW2 2151   0.254   0.597   2.787  0.9806  1.0918  0.7783
  718SOL     OW 2152   1.474   0.602   0.512 -0.2829  0.0794  0.2208
  718SOL    HW1 2153   1.409   0.679   0.509 -2.2359  0.8460  1.2568
  718SOL    HW2 2154   1.501   0.575   0.607  0.2402  0.3281  0.3494
  719SOL     OW 2155   2.335   2.028   3.064 -0.2829  0.1855 -0.0960
  719SOL    HW1 2156   2.352   2.024   2.959  0.9520 -0.5598 -1.3521
  719SOL    HW2 2157   2.415   2.073   0.003  2.2641  1.0537  1.8492
  720SOL     OW 2158   1.174   0.981   1.342  0.0212 -0.2805  0.3892
  720SOL    HW1 2159   1.217   1.064   1.375 -0.1589  1.7315 -0.0097
  720SOL    HW2 2160   1.167   0.913   1.419  2.5922  0.5888 -2.0843
  721SOL     OW 2161   0.008   2.762   1.205 -0.4109  0.3169 -0.5365
  721SOL    HW1 2162   0.033   2.777   1.106  2.3507 -0.6714 -1.6746
  721SOL    HW2 2163   0.092   2.773   1.262 -1.4801 -0.7453 -1.5692
  722SOL     OW 2164   0.955   1.709   2.736 -1.1248 -0.3951 -0.0743
  722SOL    HW1 2165   1.049   1.753   2.748  0.1955  0.9723  1.3088
  722SOL    HW2 2166   0.880   1.782   2.730  0.6571 -0.4025  0.7160
  723SOL     OW 2167   2.011   0.221   0.633 -0.1987 -0.3019 -0.0127
  723SOL    HW1 2168   1.952   0.253   0.554  1.8438  1.4823 -2.5849
  723SOL    HW2 2169   2.018   0.124   0.634  1.0188  1.4090 -0.8902
  724SOL     OW 2170   0.751   2.284   2.859 -0.4067 -0.2077 -0.3347
  724SOL    HW1 2171   0.799   2.212   2.912 -0.0203  2.0116 -3.0244
  724SOL    HW2 2172   0.656   2.256   2.833 -2.3066 -1.8532  0.2895
  725SOL     OW 2173   0.039   0.692   1.097  0.2689 -0.2745  0.1068
  725SOL    HW1 2174   3.053   0.714   1.100 -0.1411 -0.9633  3.3089
  725SOL    HW2 2175   0.074   0.674   1.001  1.3587  0.6445 -1.4098
  726SOL     OW 2176   2.525   0.370   0.708  0.6801  0.4764 -0.1617
  726SOL    HW1 2177   2.544   0.351   0.611 -2.9312 -2.5504 -0.2118
  726SOL    HW2 2178   2.429   0.342   0.728 -0.7063 -1.1593  0.2132
  727SOL     OW 2179   1.991   1.033   2.282 -0.0582  0.4345  0.0840
  727SOL    HW1 2180   1.907   1.092   2.272 -0.9356 -0.2277 -0.6990
  727SOL    HW2 2181   1.967   0.951   2.339 -1.5252 -1.6564 -0.7556
  728SOL     OW 2182   1.692   2.891   1.539  0.2664  0.1109 -0.0834
  728SOL    HW1 2183   1.639   2.965   1.580  0.7279  2.5879  1.9393
  728SOL    HW2 2184   1.638   2.818   1.492  1.3937 -1.5437 -1.3964
  729SOL     OW 2185   2.064   0.603   2.104  0.5381  0.1402  0.6895
  729SOL    HW1 2186   2.051   0.629   2.009  0.1195  0.9843  1.1467
  729SOL    HW2 2187   2.129   0.660   2.153  0.0815 -0.5191  1.1146
  730SOL     OW 2188   0.598   0.832   1.462 -0.6542  0.1452  0.2098
  730SOL    HW1 2189   0.570   0.738   1.489 -0.2501 -1.4942  0.1807
  730SOL    HW2 2190   0.669   0.834   1.385 -0.7465 -0.3268 -0.9023
  731SOL     OW 2191   0.238   3.111   0.231  0.0128 -0.1752 -0.1165
  731SOL    HW1 2192   0.194   3.081   0.314 -0.2419 -0.4731 -0.7802
  731SOL    HW2 2193   0.217   0.096   0.212  0.2463 -0.4163  0.0038
  732SOL     OW 2194   0.774   0.529   0.280  0.5421  0.1525 -0.0333
  732SOL    HW1 2195   0.750   0.484   0.370  0.5941  2.5609  3.2739
  732SOL    HW2 2196   0.721   0.618   0.268  1.4021 -0.0110  4.5978
  733SOL     OW 2197   1.935   1.493   2.498  0.0253  0.3084 -0.0025
  733SOL    HW1 2198   1.854   1.438   2.475 -4.0173  1.6552  0.5818
  733SOL    HW2 2199   1.936   1.512   2.598 -1.5359 -0.6445  2.5478
  734SOL     OW 2200   2.998   2.123   2.104 -0.1419 -0.0101 -0.4719
  734SOL    HW1 2201   3.078   2.072   2.062  1.0745 -0.3242  1.6988
  734SOL    HW2 2202   2.914   2.117   2.049  0.2930  1.9344  0.0920
  735SOL     OW 2203   1.950   0.457   1.053 -0.1496 -0.4687  0.4441
  735SOL    HW1 2204   2.048   0.485   1.070  0.1984  0.5435  0.3914
  735SOL    HW2 2205   1.922   0.369   1.094 -1.0553  2.5713 -4.2293
  736SOL     OW 2206   1.073   1.321   3.098  0.0378  0.2444  0.0989
  736SOL    HW1 2207   1.073   1.378   3.013  0.0443  1.2242 -1.9483
  736SOL    HW2 2208   1.063   1.379   0.075 -1.5583 -0.4932  0.7130
  737SOL     OW 2209   3.006   0.160   0.393  0.4749  0.1156 -0.5114
  737SOL    HW1 2210   3.085   0.174   0.330  1.4869  0.1045 -2.2585
  737SOL    HW2 2211   3.039   0.131   0.488 -0.0273  1.8115  1.9500
  738SOL     OW 2212   0.583   2.454   1.607  0.1580 -0.3860  0.0887
  738SOL    HW1 2213   0.631   2.544   1.601  1.3793 -1.2808  1.9145
  738SOL    HW2 2214   0.648   2.375   1.584  2.7317 -1.3174 -0.3843
  739SOL     OW 2215   1.172   2.897   2.621  0.7671  0.5790 -0.4304
  739SOL    HW1 2216   1.144   2.893   2.720  3.2418 -1.2275 -0.3688
  739SOL    HW2 2217   1.224   2.982   2.600  0.5128 -1.5552 -0.7262
  740SOL     OW 2218   1.931   2.757   1.620 -0.1340 -0.9544 -0.3575
  740SOL    HW1 2219   1.855   2.828   1.627  2.2586  0.9599  1.2830
  740SOL    HW2 2220   1.905   2.670   1.657  0.6643 -1.8940 -0.3563
  741SOL     OW 2221   2.260   0.709   0.415 -0.4018 -0.1431 -0.2385
  741SOL    HW1 2222   2.321   0.676   0.344 -1.0507 -1.7922  2.0260
  741SOL    HW2 2223   2.244   0.809   0.416 -0.9361  1.8854 -0.1611
  742SOL     OW 2224   1.282   2.565   2.408 -0.2764 -0.1643  0.1838
  742SOL    HW1 2225   1.376   2.561   2.450  1.4707 -1.7879 -1.2256
  742SOL    HW2 2226   1.214   2.544   2.478  0.2805  1.8133  0.0611
  743SOL     OW 2227   2.330   0.954   1.798  0.5739 -0.2541 -0.1147
  743SOL    HW1 2228   2.274   0.896   1.864 -3.5910  1.5874 -0.0131
  743SOL    HW2 2229   2.329   0.907   1.705  1.5579 -4.1393 -3.2544
  744SOL     OW 2230   2.700   0.303   0.890 -0.4864  0.4409  0.1085
  744SOL    HW1 2231   2.637   0.336   0.811  0.0396  2.4139 -0.3971
  744SOL    HW2 2232   2.725   0.370   0.963 -2.3117  1.4562  3.5755
  745SOL     OW 2233   2.458   1.169   1.854 -0.0624 -0.0814  0.4000
  745SOL    HW1 2234   2.422   1.242   1.790 -1.1930  0.0698 -1.4257
  745SOL    HW2 2235   2.424   1.080   1.825  0.1562  0.7043  0.2700
  746SOL     OW 2236   1.445   1.594   0.653  0.0364  0.2188  0.1998
  746SOL    HW1 2237   1.501   1.664   0.699  1.0580 -0.6336 -3.6335
  746SOL    HW2 2238   1.353   1.590   0.693  0.2196 -2.1739 -0.1936
  747SOL     OW 2239   1.517   1.649   1.507  0.9268 -0.3493  0.3443
  747SOL    HW1 2240   1.542   1.655   1.607 -0.2532  0.4074  0.4509
  747SOL    HW2 2241   1.422   1.687   1.496  0.7183 -2.4205  0.9901
  748SOL     OW 2242   0.204   2.658   0.015  0.0222  0.0344 -0.3639
  748SOL    HW1 2243   0.226   2.722   0.093 -0.3001  0.9317 -0.1269
  748SOL    HW2 2244   0.257   2.679   3.043 -1.6569 -1.1003  1.1042
  749SOL     OW 2245   0.024   1.330   2.573  0.7449  0.1224 -0.1481
  749SOL    HW1 2246   0.061   1.376   2.490 -0.9185  2.0511 -2.1917
  749SOL    HW2 2247   0.046   1.229   2.579 -0.4871 -2.8662  1.0122
  750SOL     OW 2248   1.428   0.422   2.085 -0.7298 -0.0882 -0.0467
  750SOL    HW1 2249   1.387   0.366   2.160  0.8316 -0.5598  0.4814
  750SOL    HW2 2250   1.450   0.361   2.011 -1.7313 -1.4025  2.0624
  751SOL     OW 2251   2.680   0.643   0.346  0.3749  0.4452 -0.2467
  751SOL    HW1 2252   2.705   0.673   0.254 -3.7497 -0.3234  3.7358
  751SOL    HW2 2253   2.735   0.564   0.384 -1.2392  2.7030  0.9996
  752SOL     OW 2254   0.325   2.130   0.776 -0.2497 -0.1914  0.2511
  752SOL    HW1 2255   0.382   2.078   0.711 -0.3842  1.8913  1.7371
  752SOL    HW2 2256   0.237   2.082   0.796 -2.3359 -1.9718  0.8437
  753SOL     OW 2257   1.030   2.696   0.965  0.0713 -0.5113  0.1894
  753SOL    HW1 2258   1.102   2.627   0.991 -1.8717  2.3611  1.1420
  753SOL    HW2 2259   0.958   2.665   0.902 -1.1684  0.6763  0.3663
  754SOL     OW 2260   0.309   2.890   2.020  0.4972  0.4729 -0.0347
  754SOL    HW1 2261   0.311   2.798   2.065  0.2034  0.7694 -0.2106
  754SOL    HW2 2262   0.220   2.932   2.043  0.5915  1.3634 -1.2810
  755SOL     OW 2263   1.891   1.138   0.399 -0.7555 -0.4635  0.2799
  755SOL    HW1 2264   1.796   1.168   0.388  3.3974 -0.0687  0.3786
  755SOL    HW2 2265   1.901   1.079   0.479  0.7752  2.0783  2.5067
  756SOL     OW 2266   2.214   2.345   2.759  0.1534  0.0390 -0.6332
  756SOL    HW1 2267   2.245   2.259   2.718  2.7713 -0.5627  2.6618
  756SOL    HW2 2268   2.294   2.397   2.800  1.3978  1.5248  1.3004
  757SOL     OW 2269   1.730   0.541   0.417 -0.0179 -0.0424  0.3077
  757SOL    HW1 2270   1.765   0.619   0.363  1.3168  0.5248  2.1665
  757SOL    HW2 2271   1.628   0.554   0.444 -1.9970 -0.3861  1.1101
  758SOL     OW 2272   2.210   0.501   1.090 -0.4710 -0.4575  0.4166
  758SOL    HW1 2273   2.229   0.535   1.182 -1.5743 -1.4008 -2.2225
  758SOL    HW2 2274   2.229   0.574   1.020  1.3021  1.8024 -0.7147
  759SOL     OW 2275   2.687   0.492   1.179  0.3634 -0.0930 -0.0603
  759SOL    HW1 2276   2.650   0.468   1.274  0.9423 -1.1079  3.0855
  759SOL    HW2 2277   2.625   0.556   1.127 -0.0474  1.1855 -2.2893
  760SOL     OW 2278   2.305   1.427   1.254 -0.4763  0.1588  0.2357
  760SOL    HW1 2279   2.225   1.424   1.195  0.3679  0.7080  2.6247
  760SOL    HW2 2280   2.340   1.332   1.268 -1.0606  0.6770  3.2220
  761SOL     OW 2281   0.452   0.247   0.450  0.5538  0.3473  0.1909
  761SOL    HW1 2282   0.545   0.276   0.470 -1.9728 -0.1190 -2.1049
  761SOL    HW2 2283   0.432   0.152   0.485 -0.9623  1.3258  0.5388
  762SOL     OW 2284   0.968   1.930   1.272  0.1975 -0.0194  0.1202
  762SOL    HW1 2285   1.027   1.914   1.194 -2.0124  0.8064  1.7742
  762SOL    HW2 2286   0.889   1.870   1.258 -1.9530 -0.9279 -2.1131
  763SOL     OW 2287   1.301   1.187   1.824 -0.1057 -0.6236  0.5401
  763SOL    HW1 2288   1.350   1.279   1.829 -0.3108 -0.7484 -0.3721
  763SOL    HW2 2289   1.315   1.154   1.728  1.3814  1.6150 -0.8174
  764SOL     OW 2290   0.021   1.853   2.658  0.3162  0.0122  0.2369
  764SOL    HW1 2291   0.005   1.844   2.760 -1.9600  2.4556  0.6788
  764SOL    HW2 2292   3.078   1.928   2.615 -0.5691  2.5890  1.2021
  765SOL     OW 2293   1.237   2.541   1.074  0.4643  0.3214 -0.2697
  765SOL    HW1 2294   1.279   2.632   1.112  3.3675  1.5634 -0.6212
  765SOL    HW2 2295   1.287   2.519   0.985  0.3010  0.5629 -2.3980
  766SOL     OW 2296   2.755   2.352   2.534  0.3353  0.0699 -0.0144
  766SOL    HW1 2297   2.829   2.378   2.599  2.3541 -0.8044  0.9109
  766SOL    HW2 2298   2.679   2.422   2.524 -1.1821  0.6452 -1.1486
  767SOL     OW 2299   1.071   1.162   2.554  0.0229  0.0686 -0.2087
  767SOL    HW1 2300   1.044   1.145   2.650 -3.5610  0.3486  0.1279
  767SOL    HW2 2301   1.111   1.078   2.515 -2.7053  2.9426 -1.8261
  768SOL     OW 2302   1.390   2.112   3.088 -0.2732 -0.0439  0.3289
  768SOL    HW1 2303   1.385   2.025   3.037 -0.6959  0.0487  2.0112
  768SOL    HW2 2304   1.361   2.097   0.073 -1.5101 -0.1393 -0.1117
  769SOL     OW 2305   0.530   2.203   0.944 -0.3977  0.4807  0.5872
  769SOL    HW1 2306   0.506   2.201   1.044  2.8260 -1.6331 -0.1916
  769SOL    HW2 2307   0.453   2.166   0.885  0.2552 -0.5925 -1.7356
  770SOL     OW 2308   1.458   1.211   2.608  0.2788 -0.0354  0.4471
  770SOL    HW1 2309   1.397   1.226   2.689  0.9561 -1.6709 -0.4223
  770SOL    HW2 2310   1.415   1.244   2.524 -1.0978  0.6805  1.6960
  771SOL     OW 2311   0.060   2.824   2.270  0.3996  0.1782  0.2096
  771SOL    HW1 2312   0.142   2.765   2.258 -1.0085  0.7982 -2.0872
  771SOL    HW2 2313   3.091   2.775   2.302 -2.5681  0.9729  0.1940
  772SOL     OW 2314   2.288   2.647   1.994  0.1678 -0.4025 -0.4273
  772SOL    HW1 2315   2.290   2.751   1.997 -0.7031  0.6125  1.8814
  772SOL    HW2 2316   2.367   2.610   1.946 -2.3129  1.6174  0.0822
  773SOL     OW 2317   0.691   1.966   1.684 -0.1688  0.4068  0.3943
  773SOL    HW1 2318   0.791   1.942   1.680 -0.2662  0.8867 -0.3945
  773SOL    HW2 2319   0.661   1.953   1.779 -0.5896  0.1926 -0.6193
  774SOL     OW 2320   1.334   0.570   1.862 -0.0050  0.7266  0.3687
  774SOL    HW1 2321   1.235   0.585   1.840 -0.5694  1.7194  0.1848
  774SOL    HW2 2322   1.345   0.529   1.955 -2.3365  1.1787  2.1837
  775SOL     OW 2323   2.044   2.890   2.956  0.5225  0.5427  0.6483
  775SOL    HW1 2324   1.989   2.972   2.931 -1.2507 -0.5395 -2.4492
  775SOL    HW2 2325   2.035   2.810   2.887 -2.3141 -0.2638 -0.7063
  776SOL     OW 2326   2.971   0.311   2.161  0.0274 -0.8082 -0.2626
  776SOL    HW1 2327   3.057   0.338   2.114  4.0340 -0.5533 -0.5429
  776SOL    HW2 2328   2.933   0.227   2.114  0.4112  1.6498  0.9353
  777SOL     OW 2329   2.564   2.264   2.172  0.2494  0.4400  0.0686
  777SOL    HW1 2330   2.575   2.208   2.258 -0.1515  1.4547  0.8183
  777SOL    HW2 2331   2.486   2.216   2.121  0.7736 -2.2690  0.9460
  778SOL     OW 2332   1.703   0.786   2.115 -0.3557 -0.0442 -0.5346
  778SOL    HW1 2333   1.638   0.830   2.176 -2.4484  0.2550 -1.1499
  778SOL    HW2 2334   1.652   0.743   2.034  0.1334  0.6616  1.1919
  779SOL     OW 2335   2.538   0.670   0.782 -0.5650  0.5650 -0.2037
  779SOL    HW1 2336   2.566   0.577   0.754 -1.5647 -2.9277 -2.1948
  779SOL    HW2 2337   2.526   0.728   0.704  1.1788 -1.7057 -0.2499
  780SOL     OW 2338   2.335   0.235   3.028 -0.0671  0.1330 -0.1753
  780SOL    HW1 2339   2.239   0.210   3.053 -0.2737 -1.2972 -0.7881
  780SOL    HW2 2340   2.388   0.146   3.014 -0.1356 -2.6839 -0.2748
  781SOL     OW 2341   0.306   2.392   1.509 -0.2453 -0.0163  0.2102
  781SOL    HW1 2342   0.400   2.396   1.554 -1.5985  1.6221 -2.4729
  781SOL    HW2 2343   0.255   2.305   1.535 -0.0633 -0.9459 -0.5715
  782SOL     OW 2344   2.450   2.392   2.935 -0.6448  0.3503  0.0027
  782SOL    HW1 2345   2.512   2.462   2.891  2.1255  1.7332 -1.5957
  782SOL    HW2 2346   2.470   2.384   3.033 -0.7030 -0.3182  0.3492
  783SOL     OW 2347   0.351   1.720   1.448  0.2951 -0.5581  0.7665
  783SOL    HW1 2348   0.343   1.615   1.426  0.2881 -2.9553  0.6699
  783SOL    HW2 2349   0.422   1.730   1.520  1.0209  0.9363  0.5246
  784SOL     OW 2350   1.522   0.425   2.805  0.0422 -0.1544 -0.3912
  784SOL    HW1 2351   1.507   0.467   2.896 -0.7674 -0.1478 -2.2496
  784SOL    HW2 2352   1.543   0.497   2.733  2.4860  3.6230  0.4575
  785SOL     OW 2353   2.561   2.933   0.983  0.2609 -0.0009  0.1785
  785SOL    HW1 2354   2.462   2.909   0.961 -1.9905  2.8681 -0.6497
  785SOL    HW2 2355   2.561   3.020   1.030 -1.2936  0.1070 -1.7228
  786SOL     OW 2356   1.130   2.098   1.879  0.2062 -0.2170  0.3152
  786SOL    HW1 2357   1.035   2.084   1.921 -0.5620 -1.7498  0.4847
  786SOL    HW2 2358   1.138   2.200   1.865 -1.3721  1.0973 -0.5207
  787SOL     OW 2359   1.373   0.808   1.238  0.6118  0.1060  0.3340
  787SOL    HW1 2360   1.284   0.851   1.270 -0.8602 -3.2630 -1.7426
  787SOL    HW2 2361   1.422   0.860   1.165  3.2419 -0.2702 -1.1258
  788SOL     OW 2362   0.105   0.617   0.408 -0.6719 -0.1987  0.3405
  788SOL    HW1 2363   0.173   0.685   0.443  1.2597 -0.7404  2.0535
  788SOL    HW2 2364   0.139   0.520   0.405 -0.5371  1.3576 -2.2915
  789SOL     OW 2365   0.200   2.132   1.307 -0.1259 -0.1707  0.0688
  789SOL    HW1 2366   0.299   2.156   1.284  1.1921  0.7474 -0.8861
  789SOL    HW2 2367   0.193   2.039   1.357  1.2075 -4.4357  1.2681
  790SOL     OW 2368   0.901   0.797   2.253 -0.6887 -0.2808  0.2494
  790SOL    HW1 2369   0.937   0.833   2.343 -0.3553 -0.4828  0.8048
  790SOL    HW2 2370   0.865   0.704   2.266 -1.3060  2.6993 -0.4845
  791SOL     OW 2371   1.917   0.629   0.612 -0.3847 -0.4221 -0.4581
  791SOL    HW1 2372   1.861   0.609   0.527 -1.8359  1.1149 -0.6811
  791SOL    HW2 2373   1.903   0.560   0.684  2.7167  1.8429  0.3786
  792SOL     OW 2374   1.556   2.385   2.025  0.2718 -0.2955  0.8380
  792SOL    HW1 2375   1.651   2.385   2.061  0.4083 -0.5473 -1.5383
  792SOL    HW2 2376   1.539   2.472   1.978 -0.9082 -1.1511 -0.7707
  793SOL     OW 2377   1.249   0.763   0.551 -0.1848  0.0511  0.0792
  793SOL    HW1 2378   1.265   0.803   0.643 -0.6843 -2.7341 -0.4552
  793SOL    HW2 2379   1.155   0.734   0.537  1.1981  0.0320 -0.9514
  794SOL     OW 2380   0.416   0.931   2.074 -0.0513 -0.3366 -0.3612
  794SOL    HW1 2381   0.361   1.013   2.097 -0.6237 -3.3050 -1.5240
  794SOL    HW2 2382   0.464   0.946   1.982 -1.1911 -1.5370 -0.9289
  795SOL     OW 2383   0.396   1.807   2.415 -0.4393 -0.1127  0.6104
  795SOL    HW1 2384   0.430   1.907   2.415  1.6614  1.5492 -0.1987
  795SOL    HW2 2385   0.479   1.745   2.416 -1.2266  0.3324 -1.1283
  796SOL     OW 2386   2.493   0.698   2.161  0.2209 -0.2342  0.2808
  796SOL    HW1 2387   2.410   0.725   2.215  0.6989 -1.5647 -1.8044
  796SOL    HW2 2388   2.545   0.781   2.123  2.9010  1.5479  0.4747
  797SOL     OW 2389   2.983   2.292   3.010  0.1211  0.0746  0.0818
  797SOL    HW1 2390   2.921   2.374   3.013 -1.3284 -1.4032 -3.1787
  797SOL    HW2 2391   3.029   2.280   3.101  0.6643 -0.3090  1.4302
  798SOL     OW 2392   0.135   2.394   2.136 -0.2451  0.2815 -0.6074
  798SOL    HW1 2393   0.207   2.325   2.122 -1.1625  0.3586 -0.9733
  798SOL    HW2 2394   0.078   2.377   2.213  1.5892 -0.1276 -0.5637
  799SOL     OW 2395   0.460   2.233   2.834  0.4040  0.5081  0.7273
  799SOL    HW1 2396   0.422   2.311   2.895 -0.4590  0.9095 -0.6927
  799SOL    HW2 2397   0.413   2.147   2.854 -0.1233  0.6365  0.5245
  800SOL     OW 2398   0.828   2.090   3.002  0.1174 -0.1582 -0.1910
  800SOL    HW1 2399   0.816   1.997   3.042 -3.1068 -1.0249 -0.9736
  800SOL    HW2 2400   0.881   2.154   3.062 -0.4618  1.9835  0.5237
  801SOL     OW 2401   1.641   1.439   1.385 -0.1266 -0.3436 -0.0816
  801SOL    HW1 2402   1.647   1.360   1.446 -3.4640  0.1717  0.0351
  801SOL    HW2 2403   1.603   1.519   1.432 -0.3465 -1.8873 -0.6953
  802SOL     OW 2404   3.022   1.061   0.623 -0.0181 -0.1084 -0.5945
  802SOL    HW1 2405   2.999   1.146   0.673 -2.1286  1.8171  1.5602
  802SOL    HW2 2406   2.940   0.996   0.610 -1.2458 -1.2331 -1.3911
  803SOL     OW 2407   1.088   1.854   2.459  0.2871  0.2285  0.2040
  803SOL    HW1 2408   1.059   1.815   2.547  1.4133  1.0180 -0.3982
  803SOL    HW2 2409   1.187   1.840   2.452 -1.0381  1.5202  0.6811
  804SOL     OW 2410   1.555   1.375   0.278 -0.5444 -0.6481  0.0973
  804SOL    HW1 2411   1.500   1.403   0.355  2.8078  1.8237 -1.3738
  804SOL    HW2 2412   1.574   1.274   0.279 -2.4972 -0.1405  1.6449
  805SOL     OW 2413   2.642   1.709   3.106 -0.3738 -0.2329 -0.4726
  805SOL    HW1 2414   2.667   1.800   0.045 -0.4638  3.9543  0.4892
  805SOL    HW2 2415   2.587   1.725   3.027 -0.7600 -1.5388  0.9518
  806SOL     OW 2416   0.623   2.979   0.461 -0.1300 -0.5637  0.2984
  806SOL    HW1 2417   0.553   3.047   0.494 -0.3771  0.8893  2.4703
  806SOL    HW2 2418   0.656   2.934   0.550 -1.9220  0.4789  0.0082
  807SOL     OW 2419   1.987   1.832   2.757  0.5833  0.0080 -0.2117
  807SOL    HW1 2420   1.978   1.840   2.859 -0.3886  0.8042  0.4690
  807SOL    HW2 2421   1.952   1.744   2.720 -0.9951  0.2014  1.5694
  808SOL     OW 2422   0.611   1.482   0.882  0.8558  0.4863 -0.5065
  808SOL    HW1 2423   0.574   1.492   0.787  0.7187  1.1926 -3.9617
  808SOL    HW2 2424   0.583   1.390   0.920 -0.9069 -1.3702  0.1202
  809SOL     OW 2425   2.566   0.812   0.546 -0.0646 -0.0616 -0.6228
  809SOL    HW1 2426   2.527   0.895   0.510  1.6401 -2.6104  0.8093
  809SOL    HW2 2427   2.571   0.743   0.471 -1.0988 -1.4258  0.7021
  810SOL     OW 2428   0.965   1.004   0.451 -0.3091  0.7720 -0.2159
  810SOL    HW1 2429   0.914   1.088   0.474 -0.4192  0.3239  2.1348
  810SOL    HW2 2430   1.054   1.008   0.496 -2.7710 -0.3143 -0.2300
  811SOL     OW 2431   1.519   2.713   1.372 -0.0267  0.4745  0.3120
  811SOL    HW1 2432   1.565   2.693   1.287  2.4353  0.8472  2.2083
  811SOL    HW2 2433   1.507   2.628   1.432 -0.8403  2.2515  0.2679
  812SOL     OW 2434   1.122   2.534   1.693 -0.0080  0.4386  0.6873
  812SOL    HW1 2435   1.129   2.607   1.762 -1.1009  1.6223  1.1903
  812SOL    HW2 2436   1.153   2.573   1.602  1.2768  0.2885 -2.3610
  813SOL     OW 2437   1.225   2.934   1.847  0.2410  0.0322 -0.4487
  813SOL    HW1 2438   1.174   3.019   1.884 -1.2605  3.1371  0.7315
  813SOL    HW2 2439   1.247   2.956   1.752 -1.7737 -1.4335  1.9656
  814SOL     OW 2440   1.144   2.471   2.636  0.2087 -0.1534  0.7584
  814SOL    HW1 2441   1.062   2.408   2.637  1.0683  1.3160  1.7152
  814SOL    HW2 2442   1.211   2.437   2.707 -0.3120 -1.1156  2.2566
  815SOL     OW 2443   0.762   0.301   2.427 -0.0198  0.4688 -0.8343
  815SOL    HW1 2444   0.855   0.285   2.387  1.6105 -1.7701 -1.6253
  815SOL    HW2 2445   0.763   0.382   2.489  0.3166  0.4281 -2.0109
  816SOL     OW 2446   2.198   0.084   2.811  0.2255  0.3103 -0.0611
  816SOL    HW1 2447   2.140   0.153   2.761 -0.1514  0.2968 -2.8498
  816SOL    HW2 2448   2.141   0.049   2.892  0.6601 -1.8801  2.4658
  817SOL     OW 2449   2.104   0.248   2.086  0.4158  0.1976  0.7386
  817SOL    HW1 2450   2.165   0.281   2.011  1.3537 -2.5822  0.4293
  817SOL    HW2 2451   2.040   0.319   2.123 -2.7530  0.7857  1.2943
  818SOL     OW 2452   1.713   0.586   0.054 -0.3125 -0.1255 -0.0737
  818SOL    HW1 2453   1.745   0.645   0.129  1.8871  0.2313 -3.1302
  818SOL    HW2 2454   1.773   0.508   0.038 -3.8459  1.2326  2.0070
  819SOL     OW 2455   2.248   1.698   2.462 -0.1620 -0.1757  0.6033
  819SOL    HW1 2456   2.248   1.676   2.563  0.1289  0.6703  0.1123
  819SOL    HW2 2457   2.166   1.754   2.445 -1.8709  0.4187 -0.0933
  820SOL     OW 2458   0.113   1.529   0.114 -0.1679 -0.0216 -0.0480
  820SOL    HW1 2459   0.073   1.558   0.027  0.2647 -0.0766  1.7310
  820SOL    HW2 2460   0.207   1.501   0.099 -1.2497  1.5274  3.3064
  821SOL     OW 2461   0.276   3.040   1.073 -0.0821  0.0394 -0.7043
  821SOL    HW1 2462   0.368   3.074   1.092 -0.3516 -1.6428 -0.7827
  821SOL    HW2 2463   0.263   3.026   0.970  1.5914 -0.4773 -1.3377
  822SOL     OW 2464   2.849   2.540   3.023  0.3081 -0.5199 -0.0936
  822SOL    HW1 2465   2.800   2.622   3.068 -1.0396 -0.6613  0.9585
  822SOL    HW2 2466   2.948   2.568   3.001  1.9954  3.7896  0.8643
  823SOL     OW 2467   1.260   0.608   2.187  0.4725  0.0049  0.5602
  823SOL    HW1 2468   1.248   0.710   2.183 -1.8036  1.3632  0.1835
  823SOL    HW2 2469   1.356   0.575   2.194 -4.7900 -1.6361  2.1368
  824SOL     OW 2470   2.759   2.121   1.989 -0.1553 -0.4727 -0.2318
  824SOL    HW1 2471   2.689   2.159   2.046  1.4583  2.1411 -1.2740
  824SOL    HW2 2472   2.740   2.148   1.894  0.2792 -3.1336  0.8256
  825SOL     OW 2473   3.003   2.077   2.551  0.1263  0.3908  0.2199
  825SOL    HW1 2474   2.906   2.054   2.554 -1.0321 -0.2004  2.6224
  825SOL    HW2 2475   3.033   2.101   2.458  2.0040 -1.8625  1.3307
  826SOL     OW 2476   2.365   1.136   2.565  0.3602  0.0618 -0.3096
  826SOL    HW1 2477   2.307   1.086   2.499 -0.6847 -0.0113  0.5647
  826SOL    HW2 2478   2.322   1.230   2.586 -1.1581  1.8556  0.1521
  827SOL     OW 2479   2.304   2.274   1.178 -0.2856 -0.3887 -0.1835
  827SOL    HW1 2480   2.285   2.176   1.147 -2.4827 -1.7364  2.1679
  827SOL    HW2 2481   2.264   2.277   1.268  2.1266 -1.6996 -0.5841
  828SOL     OW 2482   0.213   0.028   1.486 -0.5826  0.6911  0.5030
  828SOL    HW1 2483   0.133   3.084   1.511  3.4625  2.4759 -3.6025
  828SOL    HW2 2484   0.249   0.086   1.563  0.7317 -0.3442 -1.1315
  829SOL     OW 2485   1.503   2.548   2.561 -0.0750  0.0701  0.5651
  829SOL    HW1 2486   1.565   2.490   2.500  1.9600 -2.9559 -0.2055
  829SOL    HW2 2487   1.487   2.492   2.642  0.7694 -0.7934 -0.2659
  830SOL     OW 2488   1.036   0.469   0.782 -0.3014  0.2163 -0.0609
  830SOL    HW1 2489   0.977   0.390   0.760  0.5661  2.1052 -0.9932
  830SOL    HW2 2490   1.058   0.524   0.698  2.2448 -0.3838 -1.2382
  831SOL     OW 2491   2.850   1.546   2.984  0.3296  0.0056  0.7790
  831SOL    HW1 2492   2.798   1.595   3.054  0.2825 -0.0034 -1.5508
  831SOL    HW2 2493   2.846   1.447   2.998 -1.6247  2.5040 -0.8356
  832SOL     OW 2494   1.699   2.134   2.105  0.7705  0.1202 -0.1251
  832SOL    HW1 2495   1.604   2.102   2.124 -1.6624 -3.1775 -2.6529
  832SOL    HW2 2496   1.712   2.233   2.078  0.1398  2.1213 -0.1911
  833SOL     OW 2497   0.779   0.324   2.097  0.1784  0.2573  0.3159
  833SOL    HW1 2498   0.877   0.312   2.100 -3.2170  1.4537 -1.3439
  833SOL    HW2 2499   0.729   0.247   2.141 -1.6553  2.3131 -3.5020
  834SOL     OW 2500   0.355   0.646   1.249 -0.3882  0.1044 -0.3868
  834SOL    HW1 2501   0.405   0.665   1.336  0.1115  0.8551 -0.1037
  834SOL    HW2 2502   0.262   0.606   1.268  0.8378 -0.5101  2.0416
  835SOL     OW 2503   2.644   0.687   0.045  0.0213  0.5763  0.0596
  835SOL    HW1 2504   2.738   0.651   0.045 -1.9538  0.5450  0.4374
  835SOL    HW2 2505   2.596   0.667   3.067  2.5287 -0.0830 -0.2331
  836SOL     OW 2506   1.201   1.776   0.422  0.4648  0.0175 -0.9111
  836SOL    HW1 2507   1.266   1.804   0.498  1.2692  3.0728  2.1061
  836SOL    HW2 2508   1.244   1.746   0.337  0.7371 -2.0414  2.9447
  837SOL     OW 2509   1.585   1.798   0.785  0.6557 -0.4998 -0.2371
  837SOL    HW1 2510   1.677   1.834   0.756  0.7053  2.3200 -0.8587
  837SOL    HW2 2511   1.579   1.755   0.876  1.3989 -0.4638 -0.8175
  838SOL     OW 2512   1.117   1.096   2.242  0.0045  0.1539  0.1432
  838SOL    HW1 2513   1.085   1.098   2.142 -0.6116  1.0069 -0.0647
  838SOL    HW2 2514   1.040   1.125   2.305  1.7528  0.5419 -1.4907
  839SOL     OW 2515   0.745   2.027   2.522 -0.0150 -0.0492 -0.0751
  839SOL    HW1 2516   0.802   2.097   2.473  0.9614  0.2088  0.1898
  839SOL    HW2 2517   0.790   2.005   2.608 -2.3233  1.2399  0.5564
  840SOL     OW 2518   0.796   2.299   0.317 -0.0037  0.2064  0.2679
  840SOL    HW1 2519   0.743   2.386   0.293 -1.4392  1.6188 -1.1270
  840SOL    HW2 2520   0.759   2.269   0.408 -1.3152  1.3639  4.6036
  841SOL     OW 2521   1.916   2.595   0.196 -0.1920 -0.0144 -0.2724
  841SOL    HW1 2522   1.930   2.687   0.161  0.4365 -3.0960  0.8212
  841SOL    HW2 2523   1.878   2.531   0.128 -2.3513  1.3019 -2.3397
  842SOL     OW 2524   0.617   0.564   2.867  0.5666  0.2816  0.0710
  842SOL    HW1 2525   0.665   0.639   2.817  0.0703 -1.4270  1.7084
  842SOL    HW2 2526   0.519   0.572   2.853  1.3670  1.8536 -1.5837
  843SOL     OW 2527   1.250   0.396   0.939 -0.1377 -0.3991 -0.2296
  843SOL    HW1 2528   1.160   0.414   0.896  0.8267  0.3624  1.4247
  843SOL    HW2 2529   1.245   0.412   1.040  0.0622 -1.4734 -0.1667
  844SOL     OW 2530   2.811   0.085   2.698  0.1358  0.2247 -0.2852
  844SOL    HW1 2531   2.727   0.094   2.756 -2.0663 -0.5832  0.3661
  844SOL    HW2 2532   2.793   0.032   2.613  1.4008  2.6627 -0.9851
  845SOL     OW 2533   2.585   2.292   1.220  0.1535 -0.0737 -0.2965
  845SOL    HW1 2534   2.485   2.281   1.212  0.5637 -3.1376 -0.6709
  845SOL    HW2 2535   2.625   2.210   1.262 -0.1689 -1.4221 -2.6741
  846SOL     OW 2536   2.694   1.713   2.235 -0.3825  0.2734 -0.4300
  846SOL    HW1 2537   2.627   1.667   2.297 -1.7233 -5.5131 -0.6940
  846SOL    HW2 2538   2.780   1.659   2.229 -0.9440  0.6835 -0.2155
  847SOL     OW 2539   1.145   0.802   1.551  0.0267  0.5976  0.1944
  847SOL    HW1 2540   1.099   0.841   1.632 -3.2400 -0.2892 -1.4113
  847SOL    HW2 2541   1.113   0.705   1.529 -1.6382 -3.6249 -2.8257
  848SOL     OW 2542   2.855   2.931   0.064  0.2460 -0.0549 -0.0658
  848SOL    HW1 2543   2.777   2.978   0.103  0.8846  1.4491 -0.8183
  848SOL    HW2 2544   2.920   2.917   0.140  0.5725  3.2675  0.2127
  849SOL     OW 2545   0.726   3.005   3.071 -0.3562  0.5704  0.4061
  849SOL    HW1 2546   0.667   3.011   2.987 -0.0470 -0.4174  0.0631
  849SOL    HW2 2547   0.687   3.066   0.033  1.3463  2.9459 -0.6091
  850SOL     OW 2548   1.490   0.015   1.149 -0.1995  0.1433  0.7627
  850SOL    HW1 2549   1.533   0.085   1.084 -0.6478 -1.3250 -2.3543
  850SOL    HW2 2550   1.533   3.033   1.132 -1.2667 -1.0447 -0.3527
  851SOL     OW 2551   2.621   0.313   2.065  0.1868  0.0345 -0.0470
  851SOL    HW1 2552   2.711   0.343   2.101 -3.0519  1.0216 -2.2162
  851SOL    HW2 2553   2.570   0.390   2.026  0.6574 -1.2513  0.1950
  852SOL     OW 2554   1.768   0.578   2.476 -0.2961  0.1947 -0.0242
  852SOL    HW1 2555   1.685   0.603   2.429  0.5778  1.1293  1.1752
  852SOL    HW2 2556   1.822   0.513   2.421 -1.0487 -0.6083 -1.0614
  853SOL     OW 2557   3.001   2.926   0.412  0.5761 -0.1423 -0.5139
  853SOL    HW1 2558   2.907   2.943   0.441 -0.3157 -0.0760  1.1429
  853SOL    HW2 2559   3.057   3.009   0.437  0.5896  3.1124  0.4963
  854SOL     OW 2560   2.387   1.178   2.118 -0.6685  0.1661  0.0041
  854SOL    HW1 2561   2.388   1.273   2.158 -1.1790  1.0107 -1.2119
  854SOL    HW2 2562   2.439   1.167   2.031  2.6900 -0.0633  0.8703
  855SOL     OW 2563   0.852   2.780   0.280 -0.0697 -0.2349 -0.0674
  855SOL    HW1 2564   0.752   2.783   0.289  3.2473 -0.9375 -0.9491
  855SOL    HW2 2565   0.878   2.714   0.206 -0.0136  0.4056 -0.0627
  856SOL     OW 2566   2.977   0.028   2.886  0.0661 -0.1365  0.3680
  856SOL    HW1 2567   2.907   0.061   2.820  2.1161 -1.4670  0.4148
  856SOL    HW2 2568   2.959   3.042   2.911  1.1243  1.1906  0.9740
  857SOL     OW 2569   1.252   2.988   1.591 -0.0408  0.7805 -0.1148
  857SOL    HW1 2570   1.273   2.917   1.518  1.5550  0.4298 -1.5840
  857SOL    HW2 2571   1.161   3.028   1.575  0.6101  0.7799 -0.6376
  858SOL     OW 2572   2.756   2.233   1.743 -0.2412 -0.4131 -0.1485
  858SOL    HW1 2573   2.772   2.156   1.678 -1.5908  2.5547  1.3371
  858SOL    HW2 2574   2.839   2.295   1.745  1.8377  0.1983 -1.0375
  859SOL     OW 2575   1.582   2.160   1.770 -0.2292 -0.0339 -0.1458
  859SOL    HW1 2576   1.518   2.203   1.704  0.9482 -0.5376  0.6871
  859SOL    HW2 2577   1.554   2.187   1.866 -0.2432 -0.6790 -1.2867
  860SOL     OW 2578   2.204   2.782   0.220  0.0916  0.1214 -0.4260
  860SOL    HW1 2579   2.204   2.724   0.134 -2.4283  2.8305  0.8385
  860SOL    HW2 2580   2.111   2.804   0.244  1.6507 -0.0277 -0.8931
  861SOL     OW 2581   2.246   2.870   0.677 -0.6183  0.0530  0.1414
  861SOL    HW1 2582   2.151   2.883   0.640 -3.6842  0.1637  0.7685
  861SOL    HW2 2583   2.289   2.795   0.623  2.2887 -0.4597  0.0458
  862SOL     OW 2584   1.629   0.307   2.410  0.2753 -0.2957 -0.5214
  862SOL    HW1 2585   1.634   0.223   2.463 -0.5851 -0.2610 -0.2079
  862SOL    HW2 2586   1.657   0.284   2.318  0.3444 -2.1472  0.6388
  863SOL     OW 2587   0.163   0.634   0.849 -0.4949  0.0902 -0.0124
  863SOL    HW1 2588   0.218   0.585   0.777 -0.7941 -0.0018  1.2359
  863SOL    HW2 2589   0.142   0.724   0.813 -0.6722 -1.1750 -0.4679
  864SOL     OW 2590   0.268   2.647   2.175 -0.0280  0.5428  0.3143
  864SOL    HW1 2591   0.355   2.637   2.225 -2.4021  0.6060 -3.1930
  864SOL    HW2 2592   0.237   2.551   2.146  0.0719 -6.0937 -0.5630
  865SOL     OW 2593   0.725   1.066   2.867 -0.2662  0.5698 -0.5218
  865SOL    HW1 2594   0.789   1.055   2.943 -1.2789  0.5149 -1.6592
  865SOL    HW2 2595   0.626   1.052   2.892 -1.2556 -3.8693 -0.2123
  866SOL     OW 2596   2.905   0.580   0.080 -0.5554 -0.0046  0.3515
  866SOL    HW1 2597   2.985   0.605   0.140  1.7652  3.8062  1.4290
  866SOL    HW2 2598   2.934   0.605   3.103  0.4239 -0.7409  4.4730
  867SOL     OW 2599   3.106   2.681   2.921  0.0757 -0.4079 -0.2872
  867SOL    HW1 2600   0.037   2.680   3.011 -0.6865 -0.1412  0.4591
  867SOL    HW2 2601   3.042   2.763   2.911  0.0565  1.1580 -0.8205
  868SOL     OW 2602   1.508   0.097   0.287 -0.2505  0.0019  0.5041
  868SOL    HW1 2603   1.446   0.160   0.345 -1.9296  0.5230  0.8045
  868SOL    HW2 2604   1.463   0.021   0.233  2.6712  4.0855 -0.6075
  869SOL     OW 2605   1.816   1.601   0.609  0.3185  0.0566  0.1392
  869SOL    HW1 2606   1.837   1.559   0.701 -0.1678  0.7098 -3.9116
  869SOL    HW2 2607   1.798   1.702   0.611  0.6011  0.9942 -0.6965
  870SOL     OW 2608   1.811   1.881   0.705  0.2574 -0.2642  0.0713
  870SOL    HW1 2609   1.907   1.873   0.734  0.8771 -2.6365 -1.2346
  870SOL    HW2 2610   1.782   1.977   0.686  3.1854  1.5790  0.0138
  871SOL     OW 2611   1.282   1.365   1.250  0.3120  0.0382  0.0481
  871SOL    HW1 2612   1.259   1.343   1.348  0.6849 -3.7353  3.7354
  871SOL    HW2 2613   1.269   1.285   1.196 -0.1350  1.0659  1.2198
  872SOL     OW 2614   1.166   1.547   1.737 -1.0398  0.1391  0.1120
  872SOL    HW1 2615   1.103   1.493   1.795  0.8680  1.1776 -0.6606
  872SOL    HW2 2616   1.124   1.632   1.707  0.7081 -0.7227  0.3755
  873SOL     OW 2617   0.821   1.479   2.228  1.2578 -0.1463 -0.2898
  873SOL    HW1 2618   0.918   1.489   2.211 -1.5042 -4.8462  0.2889
  873SOL    HW2 2619   0.791   1.484   2.326 -0.8525 -0.1264  3.3697
  874SOL     OW 2620   0.538   1.270   1.041 -0.1372  0.0622 -0.3291
  874SOL    HW1 2621   0.439   1.240   1.034 -2.1384  1.1176  2.5408
  874SOL    HW2 2622   0.595   1.208   1.098  2.5928 -0.1418 -1.1634
  875SOL     OW 2623   2.639   0.067   1.312 -0.2278  0.2510  0.3612
  875SOL    HW1 2624   2.589   0.080   1.222 -1.0600 -0.4530 -0.4601
  875SOL    HW2 2625   2.617   0.133   1.382  0.9510 -3.2328 -0.6344
  876SOL     OW 2626   0.981   0.785   3.104  0.2720  0.5031 -0.0346
  876SOL    HW1 2627   0.976   0.682   0.007 -0.0281 -1.5443  2.1736
  876SOL    HW2 2628   0.937   0.832   0.071  1.1023 -1.6478 -0.7771
  877SOL     OW 2629   3.048   0.353   1.418 -0.4956  0.0616  0.0080
  877SOL    HW1 2630   3.016   0.379   1.323  2.0180  2.0504  2.5895
  877SOL    HW2 2631   2.992   0.274   1.461 -1.4972 -1.1037  4.8882
  878SOL     OW 2632   1.745   2.177   0.081  0.3390 -0.1665  0.0672
  878SOL    HW1 2633   1.779   2.260   0.028  0.6232  0.3103  1.6696
  878SOL    HW2 2634   1.702   2.105   0.023 -1.0950  0.6568  2.8628
  879SOL     OW 2635   2.401   2.027   1.576  0.1747 -0.2955 -0.2154
  879SOL    HW1 2636   2.359   2.115   1.590  0.1853 -0.3366 -1.2994
  879SOL    HW2 2637   2.451   2.006   1.660 -1.1457 -0.1565 -0.2125
  880SOL     OW 2638   0.880   0.208   1.581 -0.8354  0.1874  0.5399
  880SOL    HW1 2639   0.861   0.156   1.664 -1.3819  2.8928 -2.2664
  880SOL    HW2 2640   0.798   0.261   1.563  2.1607 -1.0964 -2.1241
  881SOL     OW 2641   1.120   2.092   3.015 -0.3208 -0.1373 -0.2108
  881SOL    HW1 2642   1.114   1.994   3.049 -2.9050 -1.9020  1.7558
  881SOL    HW2 2643   1.215   2.134   3.029 -0.9126 -0.0720 -0.8704
  882SOL     OW 2644   2.154   1.147   1.978 -0.6239  0.0135  0.2936
  882SOL    HW1 2645   2.224   1.177   2.045  1.0347  0.0195  0.2235
  882SOL    HW2 2646   2.174   1.055   1.942  0.0162  0.4644 -2.0200
  883SOL     OW 2647   1.250   0.840   1.937  0.0125  0.0145 -0.0126
  883SOL    HW1 2648   1.168   0.877   1.884 -1.7653  2.5340 -1.0979
  883SOL    HW2 2649   1.316   0.785   1.883 -2.4249  1.7801  0.3876
  884SOL     OW 2650   2.733   0.348   0.099  0.3207 -0.4656  0.2713
  884SOL    HW1 2651   2.763   0.268   0.158 -3.2280  2.7542 -1.3526
  884SOL    HW2 2652   2.796   0.428   0.107  1.0908  1.3045  0.3544
  885SOL     OW 2653   0.379   2.060   0.381  0.0355 -0.2290 -0.6078
  885SOL    HW1 2654   0.392   2.009   0.293 -1.5602  0.3708  1.7127
  885SOL    HW2 2655   0.438   2.142   0.382  0.3243  0.1969 -1.5511
  886SOL     OW 2656   1.917   1.543   2.795  0.2968 -0.1232  0.3803
  886SOL    HW1 2657   1.947   1.447   2.782 -0.9568  1.2208  0.0795
  886SOL    HW2 2658   1.838   1.537   2.857  1.3696  1.0055  0.5478
  887SOL     OW 2659   1.725   0.611   1.535  0.6535 -0.6044  0.4825
  887SOL    HW1 2660   1.649   0.583   1.599 -0.4263 -2.4141  1.1613
  887SOL    HW2 2661   1.704   0.701   1.487 -0.6109  3.8452 -2.4303
  888SOL     OW 2662   2.651   1.058   1.623 -0.3006  0.4191  0.0730
  888SOL    HW1 2663   2.562   1.107   1.608  0.1579 -0.8872 -2.3134
  888SOL    HW2 2664   2.645   0.967   1.675  0.0385  0.5964 -0.3772
  889SOL     OW 2665   2.888   2.645   1.115 -0.0933  0.0865  0.4628
  889SOL    HW1 2666   2.973   2.695   1.137 -3.2186 -0.3468 -0.4749
  889SOL    HW2 2667   2.899   2.590   1.030  0.9848  3.6566 -0.5161
  890SOL     OW 2668   0.034   2.635   2.669 -0.2711  0.2529  0.2594
  890SOL    HW1 2669   0.059   2.538   2.650  0.8126  1.7366 -0.1836
  890SOL    HW2 2670   0.026   2.638   2.769  1.1363  0.3615  1.7854
  891SOL     OW 2671   0.593   1.712   0.064  0.2369 -0.7858 -0.0145
  891SOL    HW1 2672   0.670   1.779   0.045 -0.4229 -0.6955  0.2307
  891SOL    HW2 2673   0.620   1.617   0.037  0.9920  1.8216  2.5552
  892SOL     OW 2674   0.123   2.428   1.148  0.1497  0.7361 -0.1178
  892SOL    HW1 2675   0.079   2.352   1.198 -1.9000  1.4986 -2.9621
  892SOL    HW2 2676   0.118   2.507   1.214  0.4904 -0.4768  0.6515
  893SOL     OW 2677   0.465   0.000   1.397  0.3122 -0.5206  0.1308
  893SOL    HW1 2678   0.534   0.028   1.471 -0.8853  0.3340  2.0902
  893SOL    HW2 2679   0.371   0.012   1.426  1.1890  0.4876 -1.4412
  894SOL     OW 2680   2.659   1.389   0.920 -0.1673  0.0373  0.3246
  894SOL    HW1 2681   2.672   1.393   0.822 -0.7509 -2.0607  2.2887
  894SOL    HW2 2682   2.630   1.293   0.946  1.4428 -0.8417  1.9091
  895SOL     OW 2683   2.587   2.433   1.614 -0.0090  0.1797  0.6767
  895SOL    HW1 2684   2.641   2.351   1.636 -0.9145  4.2136  0.1094
  895SOL    HW2 2685   2.586   2.447   1.513 -0.6618  3.7711 -2.3098
  896SOL     OW 2686   1.039   0.546   1.515  0.0996  0.3313  0.4137
  896SOL    HW1 2687   1.086   0.467   1.556 -0.2554  1.2408 -1.1404
  896SOL    HW2 2688   0.942   0.549   1.547 -0.7583 -1.0118  0.4285
  897SOL     OW 2689   0.835   1.672   1.506 -0.5405  0.2299  0.6907
  897SOL    HW1 2690   0.900   1.715   1.574  1.4688 -1.5920  0.4984
  897SOL    HW2 2691   0.817   1.731   1.426 -0.7447 -0.0428 -1.4099
  898SOL     OW 2692   1.517   2.628   1.902  0.4144 -0.3932  0.4178
  898SOL    HW1 2693   1.532   2.619   1.803  0.7648 -0.1115 -1.6642
  898SOL    HW2 2694   1.489   2.726   1.918  1.4274 -1.4177  1.2046
  899SOL     OW 2695   0.956   0.493   0.083  0.1734 -0.6640 -0.1940
  899SOL    HW1 2696   0.893   0.510   0.163  2.3293  0.1186  1.5224
  899SOL    HW2 2697   0.927   0.415   0.029  0.2351  5.1486  1.0403
  900SOL     OW 2698   1.369   2.325   2.232  0.0018  0.2480 -0.6911
  900SOL    HW1 2699   1.350   2.391   2.306  0.0556 -0.9155  0.6092
  900SOL    HW2 2700   1.455   2.348   2.185  0.2978 -1.2742  2.7914
  901SOL     OW 2701   0.985   2.315   0.118 -0.4924  0.2102 -0.0036
  901SOL    HW1 2702   0.905   2.286   0.175 -3.8388  1.7146 -0.4558
  901SOL    HW2 2703   1.077   2.315   0.158 -3.5146 -0.1361 -0.8525
  902SOL     OW 2704   1.617   1.386   0.592 -0.1338  0.1799 -0.3714
  902SOL    HW1 2705   1.546   1.460   0.601 -0.1138  0.9982 -1.1467
  902SOL    HW2 2706   1.703   1.430   0.558  2.3351 -0.9682 -0.9414
  903SOL     OW 2707   2.488   0.975   0.142 -0.2963  0.1440  0.7155
  903SOL    HW1 2708   2.469   1.020   0.230  1.5397 -1.0136  1.3628
  903SOL    HW2 2709   2.580   0.939   0.147  0.4988 -0.5772  0.1688
  904SOL     OW 2710   0.856   1.159   0.062  0.1272  0.8932 -0.0678
  904SOL    HW1 2711   0.943   1.194   0.020 -1.0601  0.0290  0.5130
  904SOL    HW2 2712   0.806   1.224   0.124 -0.9857  1.7905 -0.3309
  905SOL     OW 2713   2.103   2.953   1.397  0.4315  0.7958  0.7285
  905SOL    HW1 2714   2.189   3.008   1.405  2.0943 -1.3387 -0.9457
  905SOL    HW2 2715   2.127   2.853   1.395 -3.9417  0.2636  0.1447
  906SOL     OW 2716   2.626   2.507   1.352  0.1063  0.1841 -0.2801
  906SOL    HW1 2717   2.679   2.561   1.282  2.3740  0.6010 -0.1260
  906SOL    HW2 2718   2.597   2.421   1.305 -1.9450 -1.6325 -0.5607
  907SOL     OW 2719   1.292   1.042   0.316 -0.3414  0.1431 -0.0752
  907SOL    HW1 2720   1.272   0.957   0.262 -2.0257 -0.9890  2.1403
  907SOL    HW2 2721   1.377   1.078   0.287 -2.9497 -1.2687  0.9405
  908SOL     OW 2722   1.629   0.182   0.989  0.2925 -0.5395 -0.2904
  908SOL    HW1 2723   1.728   0.161   1.009  0.6458  0.1792  0.3065
  908SOL    HW2 2724   1.628   0.279   0.949 -2.9167  4.3815 -0.4710
  909SOL     OW 2725   2.067   1.231   1.724 -0.0479 -0.3578  0.4135
  909SOL    HW1 2726   2.096   1.181   1.804  0.4213 -0.6254 -0.4323
  909SOL    HW2 2727   2.145   1.292   1.688  1.1678  0.5029 -2.9049
  910SOL     OW 2728   1.741   0.434   1.977 -0.3705 -0.7492  0.5331
  910SOL    HW1 2729   1.695   0.527   1.966  1.0380  1.3011 -1.0886
  910SOL    HW2 2730   1.810   0.424   1.904  2.0809 -1.1785  1.2790
  911SOL     OW 2731   2.458   0.884   3.007 -0.5119 -0.6593  0.5157
  911SOL    HW1 2732   2.549   0.875   2.969 -2.3219 -0.2182  0.2557
  911SOL    HW2 2733   2.465   0.927   3.101 -0.9284  1.0328  1.9267
  912SOL     OW 2734   2.907   1.163   1.748 -0.0200  0.0980  0.0488
  912SOL    HW1 2735   2.988   1.209   1.712 -1.5993 -1.0818  0.4552
  912SOL    HW2 2736   2.833   1.169   1.686  1.9602  1.3059  1.6467
  913SOL     OW 2737   2.891   2.409   1.474 -0.1146  0.5624 -0.1545
  913SOL    HW1 2738   2.956   2.333   1.437  3.1376 -1.3074 -0.7620
  913SOL    HW2 2739   2.802   2.420   1.428  0.1198 -1.2307 -0.2011
  914SOL     OW 2740   1.609   1.082   1.891  0.5539 -0.6209 -0.0762
  914SOL    HW1 2741   1.705   1.094   1.878 -2.6562  0.7696 -0.2863
  914SOL    HW2 2742   1.568   1.013   1.824 -0.5801 -3.6926 -2.7082
  915SOL     OW 2743   2.170   0.816   1.122 -0.4155 -1.0692 -0.1155
  915SOL    HW1 2744   2.220   0.755   1.187 -3.5133  0.0806  1.1390
  915SOL    HW2 2745   2.202   0.788   1.028 -3.6324 -0.3641  2.6325
  916SOL     OW 2746   2.000   2.115   1.143 -0.0261  0.5687  0.5261
  916SOL    HW1 2747   2.018   2.203   1.188  0.9136 -0.0132  0.1778
  916SOL    HW2 2748   1.988   2.124   1.040 -1.0755 -0.9257 -2.5737
  917SOL     OW 2749   1.896   2.019   2.560  0.6712  0.0626  0.4682
  917SOL    HW1 2750   1.842   2.083   2.615  2.6174 -2.3150 -1.3815
  917SOL    HW2 2751   1.951   1.962   2.619  1.0206  3.4752  0.2393
  918SOL     OW 2752   1.799   2.716   2.259  0.3833  0.0125  0.2469
  918SOL    HW1 2753   1.875   2.781   2.261 -2.1119  0.6042  0.2467
  918SOL    HW2 2754   1.811   2.641   2.326 -1.3981 -1.2787 -2.0031
  919SOL     OW 2755   1.288   2.842   1.361  0.0055 -0.8014  0.1232
  919SOL    HW1 2756   1.276   2.883   1.264 -0.8937 -0.2632 -3.5688
  919SOL    HW2 2757   1.379   2.794   1.374  2.4972 -1.7142  0.1818
  920SOL     OW 2758   0.101   0.169   2.390  0.2739  0.9072  0.5891
  920SOL    HW1 2759   0.135   0.075   2.403  0.7373 -0.9290 -0.2971
  920SOL    HW2 2760   0.019   0.194   2.452 -0.8507  0.0768  0.1641
  921SOL     OW 2761   2.930   0.896   1.801  0.1035  0.7024 -0.1003
  921SOL    HW1 2762   2.915   0.994   1.777 -2.1736 -2.7605 -0.1719
  921SOL    HW2 2763   3.031   0.867   1.796  2.9455 -0.3885  0.0498
  922SOL     OW 2764   2.279   2.224   0.358 -0.9950 -0.1391  0.3851
  922SOL    HW1 2765   2.203   2.220   0.288 -0.4790  0.5979 -1.9981
  922SOL    HW2 2766   2.294   2.313   0.399  1.5783 -0.3131  3.8711
  923SOL     OW 2767   0.653   1.744   0.324  0.0212 -0.0758  0.0166
  923SOL    HW1 2768   0.627   1.738   0.224  0.7241 -0.0175 -0.6111
  923SOL    HW2 2769   0.729   1.813   0.342  0.3365 -2.7434 -0.7103
  924SOL     OW 2770   1.206   0.569   0.029  0.5812 -0.1005 -0.4222
  924SOL    HW1 2771   1.110   0.539   0.051  2.1004 -1.1450  2.3052
  924SOL    HW2 2772   1.230   0.549   3.047  1.2423 -3.2982 -1.2249
  925SOL     OW 2773   2.582   0.729   1.057 -0.1690  0.1304  0.1598
  925SOL    HW1 2774   2.571   0.828   1.084  0.4828 -1.0263 -0.4730
  925SOL    HW2 2775   2.572   0.714   0.956 -2.8083 -0.5347 -0.9708
  926SOL     OW 2776   0.561   0.371   1.338  0.1956 -0.5229  0.1154
  926SOL    HW1 2777   0.459   0.370   1.312 -4.6973 -1.9139 -0.8567
  926SOL    HW2 2778   0.585   0.293   1.398  1.2158 -0.1204 -2.2957
  927SOL     OW 2779   0.123   1.483   2.363  0.2436  0.2900  0.0928
  927SOL    HW1 2780   0.065   1.553   2.410  0.4722 -0.3697 -3.8552
  927SOL    HW2 2781   0.099   1.482   2.265 -1.8106 -0.8799  1.9146
  928SOL     OW 2782   3.006   0.237   2.576 -0.6151 -0.3256 -0.2358
  928SOL    HW1 2783   2.942   0.188   2.642 -3.3214  0.1454  2.0384
  928SOL    HW2 2784   3.019   0.336   2.605  0.7027  3.3575 -0.8835
  929SOL     OW 2785   2.896   3.095   1.315 -0.6111  0.3258  0.0279
  929SOL    HW1 2786   2.945   3.067   1.225  0.4020 -0.0037 -1.6333
  929SOL    HW2 2787   2.794   0.007   1.300  1.3970  0.8730 -2.0335
  930SOL     OW 2788   1.949   0.776   1.781  0.1635  0.3615  0.3307
  930SOL    HW1 2789   1.977   0.680   1.802 -0.3651 -0.0876 -2.0077
  930SOL    HW2 2790   1.891   0.816   1.858 -0.7237 -3.8801  0.8844
  931SOL     OW 2791   2.130   1.299   3.093  0.1677  0.0774  0.1006
  931SOL    HW1 2792   2.115   1.373   3.022 -0.6231  3.6611 -2.6228
  931SOL    HW2 2793   2.069   1.316   0.063 -1.2480  0.7334  1.0629
  932SOL     OW 2794   2.179   1.214   0.428 -0.2831  0.2887 -0.1691
  932SOL    HW1 2795   2.195   1.114   0.408 -0.6029 -0.2324 -1.3775
  932SOL    HW2 2796   2.144   1.227   0.523  0.2656 -3.8075  0.4432
  933SOL     OW 2797   2.305   1.560   0.859 -0.6181  0.0002 -0.0485
  933SOL    HW1 2798   2.380   1.613   0.811  0.9958 -0.1933 -1.4384
  933SOL    HW2 2799   2.252   1.614   0.934 -1.6062 -0.3747  1.1374
  934SOL     OW 2800   1.979   0.757   2.400  0.1496  0.2553  0.1310
  934SOL    HW1 2801   2.059   0.691   2.409  1.8448 -4.2004  1.6950
  934SOL    HW2 2802   1.896   0.706   2.434 -2.0214 -0.2893  0.0572
  935SOL     OW 2803   0.275   0.808   0.456 -0.3914  0.1592  0.3359
  935SOL    HW1 2804   0.256   0.821   0.357 -0.4442 -0.5256  0.7062
  935SOL    HW2 2805   0.258   0.884   0.521 -1.1488 -1.7142  1.0310
  936SOL     OW 2806   0.370   0.216   0.902  0.0977 -0.6768 -0.3817
  936SOL    HW1 2807   0.434   0.177   0.968  1.3645  1.1955  1.4074
  936SOL    HW2 2808   0.361   0.316   0.917  1.5394  0.6793  2.9940
  937SOL     OW 2809   0.021   2.970   2.055  0.3100 -0.3215 -0.1330
  937SOL    HW1 2810   0.010   2.909   2.138 -0.2826 -0.7109  1.6139
  937SOL    HW2 2811   0.007   2.917   1.967  1.0280  1.5430  1.0775
  938SOL     OW 2812   0.047   2.462   0.111  0.2656  0.0918 -0.1843
  938SOL    HW1 2813   3.077   2.506   0.152  2.9469  0.9123  2.2922
  938SOL    HW2 2814   0.108   2.531   0.067 -1.1863 -1.4811 -4.0308
  939SOL     OW 2815   0.784   1.877   0.757  0.2417 -0.2810  0.0247
  939SOL    HW1 2816   0.774   1.964   0.807 -2.1407 -1.0727 -0.9853
  939SOL    HW2 2817   0.777   1.794   0.819  3.3761  1.0378 -2.6884
  940SOL     OW 2818   0.009   0.456   2.945  0.2773  0.2547  0.0136
  940SOL    HW1 2819   0.079   0.398   2.986  0.1069 -0.7482  1.5422
  940SOL    HW2 2820   0.048   0.516   2.873  0.8497 -2.0949  1.1148
  941SOL     OW 2821   2.023   0.206   2.666 -0.2196  0.2711  0.3455
  941SOL    HW1 2822   1.964   0.293   2.674 -4.6092  0.8789  0.4606
  941SOL    HW2 2823   1.956   0.127   2.650  1.9203  0.7841  0.7154
  942SOL     OW 2824   1.214   0.462   1.192  0.3095 -0.1903 -0.0793
  942SOL    HW1 2825   1.275   0.426   1.264  0.8122  2.4113 -1.7161
  942SOL    HW2 2826   1.140   0.519   1.227  1.8950 -1.5481 -0.4400
  943SOL     OW 2827   0.997   0.901   1.811 -0.3760 -0.0842 -0.2981
  943SOL    HW1 2828   0.952   0.833   1.872  1.5384  1.2222  0.0524
  943SOL    HW2 2829   0.926   0.933   1.748  0.4195 -0.0636 -1.3135
  944SOL     OW 2830   1.912   1.012   1.625 -0.2305  0.0627  0.1962
  944SOL    HW1 2831   1.951   0.928   1.670  0.2804  0.5884 -0.7372
  944SOL    HW2 2832   1.966   1.091   1.649  1.9647  1.1274 -0.3008
  945SOL     OW 2833   2.625   3.022   0.318  0.1988 -0.2122  0.2522
  945SOL    HW1 2834   2.620   3.011   0.420 -0.2222 -2.5591 -2.1085
  945SOL    HW2 2835   2.532   3.003   0.273 -0.4048 -1.5596  0.6128
  946SOL     OW 2836   2.966   0.675   2.033  0.0520  0.1763  0.2286
  946SOL    HW1 2837   2.875   0.643   2.071 -2.9374 -1.4849  3.6215
  946SOL    HW2 2838   2.955   0.763   1.987  1.0331  1.7236 -1.6187
  947SOL     OW 2839   0.932   2.994   0.119 -0.0795  0.0837  0.4643
  947SOL    HW1 2840   0.846   3.011   0.061 -1.2544  1.4928 -1.2758
  947SOL    HW2 2841   0.909   2.922   0.183 -0.0084  1.7042 -0.5422
  948SOL     OW 2842   2.394   1.923   1.322  0.1468  0.2810 -0.2856
  948SOL    HW1 2843   2.387   1.958   1.418  1.5669  0.8614  1.5507
  948SOL    HW2 2844   2.439   1.832   1.332  0.4264  0.9656  1.3677
  949SOL     OW 2845   0.295   1.201   3.045 -0.8673 -0.4405 -0.5742
  949SOL    HW1 2846   0.201   1.167   3.062  0.4503  0.8257  0.3741
  949SOL    HW2 2847   0.295   1.243   2.952 -0.3939 -2.2486  0.0926
  950SOL     OW 2848   0.645   2.462   0.986  0.1543 -0.1736  0.1621
  950SOL    HW1 2849   0.573   2.527   1.012  2.0818 -0.4699 -1.3017
  950SOL    HW2 2850   0.607   2.370   0.965 -1.0638 -1.8630  0.3811
  951SOL     OW 2851   0.522   1.333   2.520 -0.3970  0.2200  0.4252
  951SOL    HW1 2852   0.504   1.390   2.601 -0.0960  1.4740 -0.9623
  951SOL    HW2 2853   0.580   1.255   2.550  0.0578 -0.7725  0.3242
  952SOL     OW 2854   0.542   0.808   0.562 -0.3841 -0.3058 -0.6467
  952SOL    HW1 2855   0.545   0.894   0.616 -0.5342  1.9909  0.0195
  952SOL    HW2 2856   0.445   0.786   0.543 -1.7624  1.8237  1.6705
  953SOL     OW 2857   2.675   3.025   2.298 -0.1133  0.7095 -0.2411
  953SOL    HW1 2858   2.635   0.002   2.288  0.2330 -3.0431  3.1419
  953SOL    HW2 2859   2.744   3.023   2.370 -2.3887  1.1596 -0.7249
  954SOL     OW 2860   1.350   1.033   0.594  0.1302 -0.3393 -0.1409
  954SOL    HW1 2861   1.330   1.026   0.493 -1.6732  0.8354 -2.4318
  954SOL    HW2 2862   1.446   1.055   0.617  1.2212  0.8059 -0.3321
  955SOL     OW 2863   0.823   1.886   0.089  0.4647  0.8395 -0.6157
  955SOL    HW1 2864   0.887   1.810   0.109 -1.9464  2.6820 -2.5040
  955SOL    HW2 2865   0.818   1.957   0.164  1.4503  1.1226  2.8032
  956SOL     OW 2866   2.258   0.366   1.892  0.3050 -0.1025  0.3191
  956SOL    HW1 2867   2.332   0.402   1.957 -0.8278  3.7565  0.9088
  956SOL    HW2 2868   2.275   0.393   1.797 -1.5498  0.2018  2.1621
  957SOL     OW 2869   2.088   2.383   2.349  0.6753  0.1092 -0.0571
  957SOL    HW1 2870   2.106   2.290   2.378 -2.0759  0.9975 -1.7398
  957SOL    HW2 2871   2.118   2.446   2.421  1.0308  0.2551 -1.6113
  958SOL     OW 2872   1.733   1.256   1.210  0.0683 -0.1533 -0.4990
  958SOL    HW1 2873   1.697   1.333   1.261  0.3303  3.3327 -0.1762
  958SOL    HW2 2874   1.751   1.178   1.278  0.2195 -1.6130  2.1974
  959SOL     OW 2875   1.960   2.088   2.133  0.6199 -0.0592  0.4247
  959SOL    HW1 2876   1.984   2.041   2.047 -1.1426 -1.1646  1.3331
  959SOL    HW2 2877   1.862   2.103   2.144 -2.1699 -0.0790 -0.5684
  960SOL     OW 2878   0.317   1.074   2.734 -0.7019 -0.6412 -0.4019
  960SOL    HW1 2879   0.317   1.041   2.637  2.0386 -1.8423 -1.4518
  960SOL    HW2 2880   0.392   1.034   2.789 -0.2337 -2.1535  1.4096
  961SOL     OW 2881   0.091   1.015   2.869  0.1964  0.1364  0.4800
  961SOL    HW1 2882   0.177   1.049   2.834 -0.4817 -1.8814 -0.8727
  961SOL    HW2 2883   0.012   1.055   2.811 -1.2682 -0.8266  0.3151
  962SOL     OW 2884   0.344   1.331   2.311 -0.1180  0.0736 -0.1108
  962SOL    HW1 2885   0.274   1.394   2.342 -0.1438  1.9331 -1.6986
  962SOL    HW2 2886   0.413   1.331   2.388 -1.4405  1.1791 -0.8229
  963SOL     OW 2887   3.092   1.944   0.197  0.0720 -0.5450  0.0182
  963SOL    HW1 2888   3.075   2.046   0.196 -0.3915 -1.5333  0.9070
  963SOL    HW2 2889   3.009   1.890   0.218 -1.4798 -0.4505  0.7153
  964SOL     OW 2890   0.870   2.362   1.724  0.1483  0.5950  0.0416
  964SOL    HW1 2891   0.955   2.416   1.729 -2.7219  0.9748 -0.5187
  964SOL    HW2 2892   0.829   2.335   1.813  1.6744 -0.3594 -2.3568
  965SOL     OW 2893   1.727   2.118   0.543 -0.2859  0.3246 -0.4379
  965SOL    HW1 2894   1.729   2.221   0.568 -0.1160  1.2697  1.9185
  965SOL    HW2 2895   1.764   2.098   0.449 -0.6943 -1.0057  0.1532
  966SOL     OW 2896   2.833   1.511   0.221  0.3834  0.0192 -0.7550
  966SOL    HW1 2897   2.915   1.460   0.255  0.3046  0.7413  1.8108
  966SOL    HW2 2898   2.746   1.454   0.230  0.8507 -1.2975 -2.6477
  967SOL     OW 2899   1.878   2.981   1.894 -0.1102  0.2441  0.5542
  967SOL    HW1 2900   1.958   3.034   1.848  3.2643  0.9619 -2.0051
  967SOL    HW2 2901   1.911   2.884   1.909  3.2336 -1.0609  1.6196
  968SOL     OW 2902   1.465   0.444   0.039 -0.0120 -0.1099 -0.3288
  968SOL    HW1 2903   1.373   0.484   0.054  2.4572  0.5125  1.5354
  968SOL    HW2 2904   1.537   0.518   0.041  2.3781  1.5012 -1.4226
  969SOL     OW 2905   0.145   1.553   2.086  0.6445 -0.4069  0.2462
  969SOL    HW1 2906   0.240   1.551   2.055 -1.7978  0.4850  2.6809
  969SOL    HW2 2907   0.085   1.490   2.034  1.1565 -0.6831  2.8704
  970SOL     OW 2908   1.980   2.389   1.210  0.3077  0.2567  0.1099
  970SOL    HW1 2909   1.881   2.397   1.238 -2.4833 -0.5241  0.6264
  970SOL    HW2 2910   2.014   2.465   1.154  2.8840  2.4830  0.9786
  971SOL     OW 2911   2.256   2.306   0.775  0.0065  0.1568  0.0217
  971SOL    HW1 2912   2.264   2.359   0.864  2.7621 -3.1438 -0.7131
  971SOL    HW2 2913   2.341   2.255   0.759  1.1887 -1.1681  2.1709
  972SOL     OW 2914   3.053   1.053   2.607 -0.1248  0.3655 -0.1865
  972SOL    HW1 2915   3.089   1.006   2.527  0.3264  0.3099 -0.6039
  972SOL    HW2 2916   2.964   1.010   2.639 -3.4716  0.4301  0.4806
  973SOL     OW 2917   0.733   0.390   0.529  0.4746  0.2778 -0.0309
  973SOL    HW1 2918   0.679   0.444   0.594  0.4436 -0.4378 -0.2931
  973SOL    HW2 2919   0.810   0.340   0.575  0.2722  1.8457  0.2502
  974SOL     OW 2920   2.186   0.861   2.010 -0.1756  0.2288 -0.2265
  974SOL    HW1 2921   2.231   0.817   2.085 -3.5556  0.7497 -1.8509
  974SOL    HW2 2922   2.087   0.881   2.029 -0.4251  0.1098 -0.7103
  975SOL     OW 2923   0.060   2.792   0.256  0.3047  0.0363  0.2192
  975SOL    HW1 2924   3.110   2.850   0.316 -0.1039  0.8074  0.8224
  975SOL    HW2 2925   0.109   2.717   0.306  1.2086  0.4735  3.2342
  976SOL     OW 2926   0.402   1.723   1.033  0.7987  0.2497  0.2937
  976SOL    HW1 2927   0.326   1.658   1.009 -1.6706 -4.6395 -0.4334
  976SOL    HW2 2928   0.485   1.706   0.981 -0.4574  2.3184  1.1300
  977SOL     OW 2929   0.989   1.940   0.585  0.3684  0.3119  0.0306
  977SOL    HW1 2930   1.049   1.873   0.543 -0.8014  3.3198  0.5707
  977SOL    HW2 2931   0.910   1.904   0.647 -0.0720 -3.2889  0.9794
  978SOL     OW 2932   0.069   0.819   3.080 -0.3789  0.0624  0.1664
  978SOL    HW1 2933   0.162   0.780   3.055  0.9929  1.6745 -1.7079
  978SOL    HW2 2934   0.056   0.915   3.045 -1.2349  1.6344  0.8393
  979SOL     OW 2935   1.955   1.612   0.373  0.0960 -0.1702 -0.2275
  979SOL    HW1 2936   2.049   1.576   0.390  0.1670  3.2893 -2.3960
  979SOL    HW2 2937   1.891   1.608   0.449 -0.7314  1.2427  1.3627
  980SOL     OW 2938   0.390   2.320   2.029  0.6131  0.2964 -0.2013
  980SOL    HW1 2939   0.398   2.408   1.978 -1.5163  2.0098 -1.5890
  980SOL    HW2 2940   0.471   2.302   2.086 -1.9713 -0.4661 -2.6009
  981SOL     OW 2941   2.384   1.235   3.098 -0.1891  0.0778  0.0572
  981SOL    HW1 2942   2.284   1.245   3.107  0.1583  0.7280 -1.0053
  981SOL    HW2 2943   2.407   1.209   3.002  1.1569  0.2374 -1.6694
  982SOL     OW 2944   0.022   2.550   1.928  0.3073  0.2579  0.1326
  982SOL    HW1 2945   0.053   2.503   2.013 -1.7932 -5.6186  0.1855
  982SOL    HW2 2946   0.100   2.559   1.864 -0.2715 -1.1612 -0.7074
  983SOL     OW 2947   1.853   0.395   1.467 -0.6435  0.0215 -0.0813
  983SOL    HW1 2948   1.812   0.337   1.397 -0.7879 -0.6041  2.2574
  983SOL    HW2 2949   1.795   0.472   1.489  2.5104 -1.4829 -3.1582
  984SOL     OW 2950   1.606   0.017   2.507  0.2871  0.5333 -0.6533
  984SOL    HW1 2951   1.621   3.052   2.441 -0.1349 -0.0084 -1.7151
  984SOL    HW2 2952   1.582   3.081   2.597 -0.4237 -4.0446 -0.4497
  985SOL     OW 2953   1.307   1.436   1.543  0.3672 -0.2188 -0.5131
  985SOL    HW1 2954   1.386   1.498   1.531 -0.6098  0.5158 -1.0630
  985SOL    HW2 2955   1.248   1.470   1.621  2.4605  0.9868  1.1820
  986SOL     OW 2956   1.984   2.903   2.293  0.1216 -0.4892  0.1610
  986SOL    HW1 2957   2.069   2.900   2.236 -1.2302  0.8564  0.9026
  986SOL    HW2 2958   1.934   2.992   2.273  2.0887  0.6069  0.1278
  987SOL     OW 2959   2.705   1.918   2.788  0.1906  0.1613  0.2020
  987SOL    HW1 2960   2.749   1.975   2.859  2.1148 -1.0082  0.2068
  987SOL    HW2 2961   2.687   1.977   2.705  0.9758  1.0604  1.1376
  988SOL     OW 2962   2.936   0.695   1.557  0.1028  0.7940 -0.4001
  988SOL    HW1 2963   2.865   0.703   1.483 -0.8028  0.1145 -1.9002
  988SOL    HW2 2964   2.946   0.785   1.603 -0.5888 -1.2438 -0.1898
  989SOL     OW 2965   1.895   1.440   1.663  0.3176  0.1763  0.1665
  989SOL    HW1 2966   1.801   1.401   1.679  0.4425  1.7028 -0.5612
  989SOL    HW2 2967   1.967   1.370   1.675 -2.0287 -1.9253 -1.0626
  990SOL     OW 2968   2.935   0.721   2.947  0.1781 -0.0213 -0.5551
  990SOL    HW1 2969   3.019   0.763   2.982 -2.1583 -0.1346  2.2895
  990SOL    HW2 2970   2.946   0.691   2.851 -2.7129 -0.9324  3.6031
  991SOL     OW 2971   0.446   1.880   2.964 -0.5201 -0.2127 -0.1469
  991SOL    HW1 2972   0.367   1.939   2.940 -1.1153  3.3448  1.2322
  991SOL    HW2 2973   0.419   1.808   3.032  0.4517  0.1142  2.0979
  992SOL     OW 2974   2.483   1.953   1.847  0.4688 -0.0864 -0.0596
  992SOL    HW1 2975   2.405   1.881   1.852 -0.1885  0.6656  1.2265
  992SOL    HW2 2976   2.568   1.910   1.880  0.7802  2.8772 -3.9139
  993SOL     OW 2977   0.568   0.008   1.132  0.2550  0.3815  0.4705
  993SOL    HW1 2978   0.530   0.008   1.224  0.0921 -1.4429  0.6402
  993SOL    HW2 2979   0.656   0.058   1.121  1.9151  0.1046  1.8297
  994SOL     OW 2980   2.792   2.050   1.559  0.6070  0.2414  0.2210
  994SOL    HW1 2981   2.887   2.050   1.593 -2.1486  0.7911 -4.3643
  994SOL    HW2 2982   2.740   1.971   1.587 -2.0203  0.9868 -0.6325
  995SOL     OW 2983   2.083   2.096   2.375  0.2485 -0.1213  0.0413
  995SOL    HW1 2984   2.018   2.049   2.441 -0.3620 -4.4059  0.1814
  995SOL    HW2 2985   2.045   2.088   2.278 -1.4193 -0.0758  0.0791
  996SOL     OW 2986   1.931   1.893   3.044  0.2913  0.1009  0.1772
  996SOL    HW1 2987   1.832   1.913   3.049  0.4013 -0.1229  0.3962
  996SOL    HW2 2988   1.971   1.862   0.021 -0.2340 -2.0660 -2.3303
  997SOL     OW 2989   1.014   1.385   1.874 -0.4568  0.6492 -0.1729
  997SOL    HW1 2990   0.927   1.416   1.918  2.0375  0.9393 -0.5971
  997SOL    HW2 2991   1.058   1.313   1.930  0.2979 -1.0213  2.0564
  998SOL     OW 2992   2.817   2.145   0.763  0.3517  0.1723 -0.0968
  998SOL    HW1 2993   2.727   2.173   0.720 -1.0819  0.0163 -1.9508
  998SOL    HW2 2994   2.825   2.162   0.863  2.7867  1.6334  1.6442
  999SOL     OW 2995   0.173   2.775   0.554 -0.0914  0.0606 -0.1524
  999SOL    HW1 2996   0.161   2.680   0.521 -1.1608 -0.6822 -1.4582
  999SOL    HW2 2997   0.270   2.781   0.586  0.4790 -2.2360 -4.4143
 1000SOL     OW 2998   1.114   0.133   2.923  0.1324 -0.1654  0.3055
 1000SOL    HW1 2999   1.129   0.106   3.024  0.3444  1.1700  0.4488
 1000SOL    HW2 3000   1.198   0.181   2.882  0.2644 -2.4700  0.7513
   3.11141   3.11141   3.11141
