1000 SPC/Fw water molecules t=  27.00000 step= 27000
 3000
    1SOL     OW    1   1.813   2.695   0.303  0.4602 -0.0211  0.0003
    1SOL    HW1    2   1.870   2.628   0.248  1.6589  1.6885 -1.3294
    1SOL    HW2    3   1.715   2.665   0.307  0.5647  2.4079 -1.7958
    2SOL     OW    4   1.196   0.618   2.068 -0.5319 -0.3918  0.4164
    2SOL    HW1    5   1.286   0.638   2.114  0.5523 -1.6207  0.2309
    2SOL    HW2    6   1.124   0.600   2.140  1.1342 -3.4190  0.0446
    3SOL     OW    7   0.890   3.010   2.804  0.7814  0.1324 -0.3142
    3SOL    HW1    8   0.851   2.998   2.711 -0.5156 -1.1277  0.4865
    3SOL    HW2    9   0.819   3.022   2.878  0.8298 -0.5262 -0.6913
    4SOL     OW   10   1.572   1.665   0.090  0.5143  0.1395  0.5566
    4SOL    HW1   11   1.521   1.719   0.154  0.9568  2.3320  0.0864
    4SOL    HW2   12   1.590   1.719   0.007 -3.3047  0.3402  3.5899
    5SOL     OW   13   0.731   1.142   2.000 -0.4458 -0.3214  0.7412
    5SOL    HW1   14   0.745   1.060   1.941  0.0042 -0.4266  2.5365
    5SOL    HW2   15   0.812   1.200   2.008 -0.4159 -0.7421  0.1279
    6SOL     OW   16   2.021   0.747   2.427  0.2025 -0.1678 -0.2046
    6SOL    HW1   17   2.028   0.695   2.517  1.4164 -0.2928  2.4328
    6SOL    HW2   18   2.113   0.752   2.387  1.1289 -1.2651  1.4976
    7SOL     OW   19   0.498   0.834   1.053  0.0073  0.1045  0.0442
    7SOL    HW1   20   0.441   0.772   0.999  1.6128  0.7503  0.7026
    7SOL    HW2   21   0.443   0.915   1.083  0.8356  0.5238  0.6387
    8SOL     OW   22   1.962   2.738   1.749  0.6678  0.2611  0.5738
    8SOL    HW1   23   1.871   2.738   1.796  3.3075 -0.0913 -0.6457
    8SOL    HW2   24   2.004   2.830   1.729  1.7162  1.6232  0.9805
    9SOL     OW   25   0.104   2.960   0.684 -0.1105  0.2182 -0.4181
    9SOL    HW1   26   0.075   2.932   0.588  0.6395 -3.8915 -2.6942
    9SOL    HW2   27   0.189   3.021   0.682  2.3081  3.2628  0.8609
   10SOL     OW   28   2.887   2.313   2.268 -0.7483 -0.4889 -0.0349
   10SOL    HW1   29   2.918   2.305   2.171 -1.1982  1.1706 -0.9954
   10SOL    HW2   30   2.925   2.236   2.322 -0.0981 -1.5363 -0.1236
   11SOL     OW   31   0.762   1.606   3.015 -0.2083  0.0986  0.1270
   11SOL    HW1   32   0.754   1.576   0.031 -0.5075  0.0376  0.4947
   11SOL    HW2   33   0.785   1.704   3.005  1.1283  0.1864  0.2315
   12SOL     OW   34   2.212   2.603   1.168 -0.1188  0.1167  0.3232
   12SOL    HW1   35   2.230   2.685   1.106  2.3422 -0.7290 -0.1928
   12SOL    HW2   36   2.126   2.618   1.217 -0.7047 -0.5882 -1.1355
   13SOL     OW   37   0.383   0.032   2.726 -0.8201  0.0578  0.0505
   13SOL    HW1   38   0.335   0.077   2.803 -1.4376  0.3708 -3.1049
   13SOL    HW2   39   0.392   0.099   2.652  1.5519 -0.9473  1.8146
   14SOL     OW   40   1.370   1.317   1.484 -0.1340 -0.0892 -0.2769
   14SOL    HW1   41   1.302   1.268   1.540 -0.8128  0.6938 -0.1632
   14SOL    HW2   42   1.322   1.395   1.438  0.1014  0.7738 -3.5427
   15SOL     OW   43   0.503   1.468   2.015 -0.0637  0.5944  0.2972
   15SOL    HW1   44   0.416   1.418   1.987  0.6797 -3.5879  3.1943
   15SOL    HW2   45   0.528   1.443   2.108 -0.2595 -0.5170 -1.4256
   16SOL     OW   46   1.549   0.732   2.711 -0.0679  0.1586 -0.1825
   16SOL    HW1   47   1.481   0.725   2.787 -3.1337  1.2790  4.2084
   16SOL    HW2   48   1.568   0.831   2.697  2.2311 -1.0557  0.7209
   17SOL     OW   49   3.076   2.359   1.991  0.1475 -0.2278  0.0513
   17SOL    HW1   50   3.048   2.462   1.992 -0.5203  1.1755  0.9730
   17SOL    HW2   51   0.011   2.332   1.896 -0.0389  0.6576 -0.0988
   18SOL     OW   52   1.738   1.213   0.445  0.5553  0.2119 -0.1347
   18SOL    HW1   53   1.797   1.239   0.524 -1.6997  3.0421 -1.0424
   18SOL    HW2   54   1.647   1.246   0.462  2.0877 -1.0978 -1.9747
   19SOL     OW   55   0.266   1.286   2.079  0.2166 -0.0860  0.3833
   19SOL    HW1   56   0.304   1.224   2.151  1.4079 -1.8871  0.7760
   19SOL    HW2   57   0.257   1.239   1.990  2.0538 -1.0504 -2.3365
   20SOL     OW   58   2.082   2.368   2.748 -0.2257  0.1788 -0.3752
   20SOL    HW1   59   2.170   2.328   2.782 -1.3503 -0.6390 -0.2302
   20SOL    HW2   60   2.070   2.462   2.787 -0.3768 -2.6847 -1.6591
   21SOL     OW   61   1.909   1.855   0.867 -0.6723  0.5876 -0.0541
   21SOL    HW1   62   1.922   1.938   0.810 -0.5179 -0.3853  0.8880
   21SOL    HW2   63   1.864   1.883   0.953 -2.0044  0.1286  2.7653
   22SOL     OW   64   2.017   2.074   1.336 -0.1949  0.3579 -0.7858
   22SOL    HW1   65   2.065   2.139   1.398 -2.0879  2.0317 -1.4172
   22SOL    HW2   66   1.967   2.120   1.263 -0.0541 -0.4965  0.3372
   23SOL     OW   67   0.150   1.114   1.253  0.9284 -0.5096 -0.2841
   23SOL    HW1   68   0.121   1.178   1.325 -0.8057 -2.2096 -0.6726
   23SOL    HW2   69   0.076   1.083   1.196  1.2715 -0.6958  0.0126
   24SOL     OW   70   1.561   1.098   1.703 -0.0310  0.0262  0.1085
   24SOL    HW1   71   1.552   1.016   1.757 -2.7773  2.7742 -0.6899
   24SOL    HW2   72   1.652   1.142   1.724  1.1157  0.1980 -1.0807
   25SOL     OW   73   1.832   0.019   2.132 -0.2130 -0.1206  0.5231
   25SOL    HW1   74   1.887   3.015   2.158  3.3971 -0.4497  1.0408
   25SOL    HW2   75   1.865   0.105   2.176  0.2564  0.1850 -0.0795
   26SOL     OW   76   0.922   3.078   0.828 -0.0887  0.3185  0.2255
   26SOL    HW1   77   0.883   0.089   0.842  1.9421  0.5534  0.2982
   26SOL    HW2   78   0.878   3.031   0.747 -2.1261  2.1909 -2.9340
   27SOL     OW   79   1.334   1.210   0.951 -0.0931 -0.0171  0.0217
   27SOL    HW1   80   1.323   1.282   0.882 -0.2298  0.9739  1.1721
   27SOL    HW2   81   1.356   1.263   1.036  1.5723 -0.4084 -1.0460
   28SOL     OW   82   2.276   2.182   1.148 -0.3898  0.0836  0.0123
   28SOL    HW1   83   2.308   2.204   1.242  1.0458 -0.3961  1.1671
   28SOL    HW2   84   2.220   2.258   1.110  0.4618  0.7308  1.8270
   29SOL     OW   85   1.996   2.920   2.202  0.3365 -0.2390 -0.5932
   29SOL    HW1   86   1.951   2.830   2.207  1.5741  0.4257 -2.1495
   29SOL    HW2   87   2.092   2.926   2.240 -3.5473  1.7614  1.5972
   30SOL     OW   88   0.054   2.869   1.898 -0.4622  0.4350  0.3389
   30SOL    HW1   89   3.079   2.922   1.838 -0.5329 -2.4890  1.0333
   30SOL    HW2   90   0.099   2.924   1.968 -1.9363 -2.8173 -0.5671
   31SOL     OW   91   0.005   1.648   2.047 -0.6340 -0.4150  0.1022
   31SOL    HW1   92   0.042   1.723   2.104 -1.3260  1.3697 -0.1636
   31SOL    HW2   93   3.035   1.685   1.969  2.6637 -0.0852 -0.2765
   32SOL     OW   94   1.330   2.375   2.406 -0.1789  0.0601 -0.4203
   32SOL    HW1   95   1.374   2.356   2.316 -1.1577  0.1937  0.1438
   32SOL    HW2   96   1.387   2.339   2.483  1.5099  1.4476 -0.4742
   33SOL     OW   97   0.270   0.135   2.972 -0.2316 -0.2894 -0.3706
   33SOL    HW1   98   0.339   0.091   3.030  2.2729 -1.2647 -2.2211
   33SOL    HW2   99   0.253   0.234   2.995 -1.8457 -0.6720 -0.4289
   34SOL     OW  100   2.754   0.294   0.355 -0.5410 -0.3713  0.1300
   34SOL    HW1  101   2.680   0.352   0.399 -5.1568  0.5617  1.3484
   34SOL    HW2  102   2.804   0.344   0.280  1.8705 -0.6796 -0.4049
   35SOL     OW  103   2.841   2.689   1.731 -0.5449  0.1223 -0.3399
   35SOL    HW1  104   2.828   2.603   1.784 -1.6820 -0.6334 -1.8499
   35SOL    HW2  105   2.784   2.689   1.647  0.0192 -1.6392 -1.7972
   36SOL     OW  106   2.252   2.975   2.300 -0.3364  0.0528 -0.3210
   36SOL    HW1  107   2.254   2.959   2.400 -0.6541  1.4991  0.4329
   36SOL    HW2  108   2.284   3.069   2.272  0.6289 -0.7426 -0.9790
   37SOL     OW  109   1.383   0.171   0.131 -0.4635  0.1948  0.2451
   37SOL    HW1  110   1.423   0.147   0.220 -2.2177 -0.1447 -3.2883
   37SOL    HW2  111   1.337   0.087   0.094  1.0471  2.2663  1.1268
   38SOL     OW  112   0.331   0.422   0.245 -0.6131  0.3757  0.3277
   38SOL    HW1  113   0.294   0.461   0.334 -1.8729  0.8713 -0.0984
   38SOL    HW2  114   0.386   0.491   0.197 -0.2450 -0.8840  0.7992
   39SOL     OW  115   1.005   1.791   2.159  1.0768  0.0849 -0.1447
   39SOL    HW1  116   0.968   1.784   2.255  1.5550  2.6438 -0.5184
   39SOL    HW2  117   1.107   1.804   2.161  3.3679 -0.0144 -1.3310
   40SOL     OW  118   0.154   0.642   2.581 -0.2875 -0.3531 -0.2096
   40SOL    HW1  119   0.246   0.598   2.587 -2.3720  1.4627 -0.0573
   40SOL    HW2  120   0.153   0.746   2.588  1.0720  0.6900 -1.2110
   41SOL     OW  121   1.243   0.783   1.825  0.1189 -0.1192 -0.2186
   41SOL    HW1  122   1.318   0.779   1.757 -1.8254  0.1369  1.5925
   41SOL    HW2  123   1.243   0.706   1.897  0.5139  0.1590 -1.8015
   42SOL     OW  124   2.864   0.177   1.379  0.1137 -0.5747  0.2368
   42SOL    HW1  125   2.882   0.261   1.428 -1.7436  0.1162 -2.0901
   42SOL    HW2  126   2.810   0.109   1.433 -0.5751 -1.5982  2.2242
   43SOL     OW  127   1.459   0.707   1.670 -0.2022 -0.0161 -0.0303
   43SOL    HW1  128   1.536   0.743   1.612 -0.7358  0.0476  2.5646
   43SOL    HW2  129   1.428   0.617   1.643 -0.9208  0.7672 -0.2670
   44SOL     OW  130   0.155   0.378   2.998  0.0163 -0.1309  0.3550
   44SOL    HW1  131   0.123   0.351   0.009  3.2241  1.5102 -2.5795
   44SOL    HW2  132   0.082   0.414   2.939 -0.2959 -0.7539 -0.0502
   45SOL     OW  133   0.385   1.794   1.794 -0.3637  0.0418 -0.1398
   45SOL    HW1  134   0.441   1.872   1.833 -0.9738  2.8387 -1.1675
   45SOL    HW2  135   0.394   1.795   1.689 -2.0651  1.9735 -4.1814
   46SOL     OW  136   2.154   2.575   1.580  0.2820  0.4333  0.0466
   46SOL    HW1  137   2.105   2.638   1.640 -2.1130 -0.1496 -1.9869
   46SOL    HW2  138   2.230   2.525   1.629 -0.2817 -1.2547 -1.8388
   47SOL     OW  139   0.097   1.907   1.281 -0.1374 -0.1429  0.6982
   47SOL    HW1  140   0.146   1.824   1.310  0.8730  0.8403 -2.4076
   47SOL    HW2  141   0.066   1.890   1.187 -0.4243 -1.4871  1.5819
   48SOL     OW  142   0.875   2.613   2.777 -0.0339 -0.0545 -0.0979
   48SOL    HW1  143   0.800   2.549   2.767  1.1961  1.1014 -0.9279
   48SOL    HW2  144   0.875   2.662   2.865  0.8976 -0.9912  0.1439
   49SOL     OW  145   2.667   1.364   1.786 -0.1887  0.2991  0.0834
   49SOL    HW1  146   2.720   1.401   1.710 -0.1651  0.6134  4.6086
   49SOL    HW2  147   2.680   1.417   1.871  0.3712  1.7368 -0.7003
   50SOL     OW  148   1.355   2.913   0.510 -0.2043 -0.0764  0.0048
   50SOL    HW1  149   1.264   2.901   0.554 -0.7374  1.9319  0.0830
   50SOL    HW2  150   1.432   2.877   0.570  0.6029 -0.3933  2.1136
   51SOL     OW  151   1.100   0.330   1.045  0.0230  0.2779 -0.5540
   51SOL    HW1  152   1.038   0.361   1.117  1.1548  0.1961 -0.1323
   51SOL    HW2  153   1.171   0.265   1.078 -0.4352  0.6378  3.5034
   52SOL     OW  154   0.617   1.352   0.371 -0.0171 -0.6202  0.2216
   52SOL    HW1  155   0.644   1.254   0.387  0.8502 -0.8356 -0.9978
   52SOL    HW2  156   0.631   1.404   0.458  1.4469 -0.5716  0.2658
   53SOL     OW  157   1.075   2.858   2.447 -0.0957 -0.1584 -0.0520
   53SOL    HW1  158   1.128   2.890   2.527  1.2965  2.4416  0.2414
   53SOL    HW2  159   1.126   2.787   2.398  2.7329  1.1970  2.1531
   54SOL     OW  160   2.029   0.059   1.904  0.2786 -0.0210 -0.1590
   54SOL    HW1  161   1.956   0.035   1.971 -0.2891  1.9686 -2.3401
   54SOL    HW2  162   2.111   0.098   1.954  0.1033 -2.3041 -2.0276
   55SOL     OW  163   2.689   2.397   0.131 -0.1981 -0.3483  0.5526
   55SOL    HW1  164   2.717   2.404   0.030  0.9180 -0.5662  0.7000
   55SOL    HW2  165   2.732   2.472   0.182  0.0306  0.3197 -0.2642
   56SOL     OW  166   0.743   3.036   1.825  0.1717 -0.8344 -0.0271
   56SOL    HW1  167   0.665   0.020   1.838 -0.2495 -2.7781  0.9243
   56SOL    HW2  168   0.719   2.948   1.869  1.3259  3.3352 -0.5587
   57SOL     OW  169   1.975   1.038   2.390 -0.1755 -0.3968  0.3443
   57SOL    HW1  170   2.021   0.953   2.428  2.1561 -1.0913  1.9249
   57SOL    HW2  171   1.882   1.021   2.360  0.4014  3.9350  1.0400
   58SOL     OW  172   0.049   1.053   2.169 -0.6011  0.1052 -0.4512
   58SOL    HW1  173   0.143   1.079   2.192 -2.0433 -0.0297  0.1170
   58SOL    HW2  174   0.000   1.123   2.109 -0.0103  1.8022 -1.4710
   59SOL     OW  175   0.775   2.569   1.539  0.3842 -0.2479 -0.0323
   59SOL    HW1  176   0.688   2.622   1.518 -2.9062 -2.8632  0.5414
   59SOL    HW2  177   0.822   2.547   1.454  0.4307  0.5856  0.0125
   60SOL     OW  178   1.984   2.537   0.156  0.2477 -0.1636 -0.6622
   60SOL    HW1  179   2.028   2.496   0.241  1.1598 -1.5461  2.3705
   60SOL    HW2  180   1.939   2.472   0.096 -3.2806 -1.0785 -0.9402
   61SOL     OW  181   1.584   2.483   0.587  0.4406 -0.3158 -0.1493
   61SOL    HW1  182   1.645   2.403   0.562 -1.3109 -0.5715  0.4791
   61SOL    HW2  183   1.508   2.460   0.651 -0.3066 -2.4251  2.4296
   62SOL     OW  184   1.726   2.892   3.062  0.0141 -0.1026  0.6258
   62SOL    HW1  185   1.740   2.972   0.042 -0.9293 -1.6196  1.2238
   62SOL    HW2  186   1.639   2.852   0.001 -1.0764 -1.1448 -0.6089
   63SOL     OW  187   2.475   0.454   3.041  0.0695  0.2088 -0.4298
   63SOL    HW1  188   2.449   0.517   2.965 -0.8066  2.9703 -0.6560
   63SOL    HW2  189   2.555   0.487   0.007 -0.2892  0.5866 -0.0499
   64SOL     OW  190   1.390   0.992   2.883  0.0443  0.3824 -0.4614
   64SOL    HW1  191   1.379   0.894   2.907 -1.1386  1.1713 -0.1952
   64SOL    HW2  192   1.304   1.028   2.848  0.5620 -0.0433  1.3664
   65SOL     OW  193   0.479   2.351   1.271  0.6288 -0.1951  0.3768
   65SOL    HW1  194   0.410   2.295   1.218 -0.8122  0.2208 -1.1403
   65SOL    HW2  195   0.563   2.367   1.218 -1.3476 -1.1722 -1.3557
   66SOL     OW  196   1.035   1.180   1.261  0.5996  0.6341  0.2856
   66SOL    HW1  197   1.047   1.082   1.237  0.4427  1.7486 -1.4601
   66SOL    HW2  198   1.065   1.206   1.359  1.2151  0.2636 -0.3157
   67SOL     OW  199   2.260   1.977   1.915  0.2848  0.2554 -0.0093
   67SOL    HW1  200   2.354   2.009   1.894 -3.6769  3.1022  0.1998
   67SOL    HW2  201   2.203   1.949   1.837  1.8753 -1.0152  3.2899
   68SOL     OW  202   0.761   1.374   1.682 -0.1860  0.0607  0.6294
   68SOL    HW1  203   0.675   1.341   1.724 -0.8443  1.6393  0.0241
   68SOL    HW2  204   0.837   1.390   1.752 -3.1967  0.9231  3.5935
   69SOL     OW  205   0.117   2.826   3.068  0.0698  0.4673 -0.3345
   69SOL    HW1  206   0.216   2.818   3.055 -0.2241  1.1930  0.5017
   69SOL    HW2  207   0.099   2.901   0.056  1.2871  1.0105  3.0727
   70SOL     OW  208   2.246   0.819   2.288  0.2389  0.1379 -0.2113
   70SOL    HW1  209   2.317   0.755   2.248  0.1380  0.9217 -0.7156
   70SOL    HW2  210   2.268   0.914   2.258 -0.0110 -1.6103  0.3551
   71SOL     OW  211   0.797   1.902   0.957 -0.0944  0.1808  0.0651
   71SOL    HW1  212   0.742   1.969   1.007  1.3053  2.9107  1.4741
   71SOL    HW2  213   0.744   1.825   0.916 -1.9625  0.3472  2.6922
   72SOL     OW  214   2.448   2.100   0.401  0.6293  0.4906 -0.4976
   72SOL    HW1  215   2.438   2.176   0.331 -0.5045  1.0316  0.0710
   72SOL    HW2  216   2.472   2.126   0.498  3.6229  2.4106  0.5270
   73SOL     OW  217   1.542   0.608   1.031 -0.3523 -0.1330 -0.2930
   73SOL    HW1  218   1.546   0.562   0.936 -0.3078 -1.1162 -4.5153
   73SOL    HW2  219   1.478   0.687   1.030 -0.9671  0.6164 -0.1804
   74SOL     OW  220   2.500   1.999   1.815  0.3988 -0.6941 -0.1189
   74SOL    HW1  221   2.579   2.046   1.775  0.5065 -1.4277  0.5903
   74SOL    HW2  222   2.522   1.966   1.906 -1.4554  1.6780  0.1952
   75SOL     OW  223   1.594   1.694   1.863  0.1520 -0.4905 -0.1028
   75SOL    HW1  224   1.524   1.630   1.842  2.4859  3.9135 -0.4702
   75SOL    HW2  225   1.667   1.648   1.918  0.7367 -1.7614  0.8191
   76SOL     OW  226   1.434   1.832   1.121 -1.1274  0.1033 -0.0502
   76SOL    HW1  227   1.465   1.916   1.077  1.7383  0.2835  1.2894
   76SOL    HW2  228   1.518   1.781   1.140  0.9859  0.0068  0.1264
   77SOL     OW  229   2.673   1.109   1.641 -0.2048 -0.3534  0.1488
   77SOL    HW1  230   2.677   1.187   1.709  0.7144  1.0630  3.2217
   77SOL    HW2  231   2.592   1.112   1.580 -2.0633 -2.0740  2.0153
   78SOL     OW  232   1.642   0.832   0.256 -0.2485  0.0306 -0.3910
   78SOL    HW1  233   1.654   0.762   0.179  1.3940 -2.1823 -1.9644
   78SOL    HW2  234   1.641   0.785   0.346  0.2836 -1.7289  0.5496
   79SOL     OW  235   1.066   1.408   2.253  0.2554 -0.2911 -0.0271
   79SOL    HW1  236   1.079   1.314   2.292  1.5719  0.0038  0.1320
   79SOL    HW2  237   1.004   1.410   2.175 -0.4252 -1.5207 -1.7990
   80SOL     OW  238   1.115   0.379   1.507  0.2471 -0.0262 -0.1284
   80SOL    HW1  239   1.078   0.472   1.535 -0.6699 -0.5329  0.1994
   80SOL    HW2  240   1.099   0.307   1.576 -0.6497  1.6807 -2.7409
   81SOL     OW  241   0.311   2.468   0.318 -0.4140 -0.0288  0.2077
   81SOL    HW1  242   0.321   2.446   0.218  0.8291 -1.0147  0.0413
   81SOL    HW2  243   0.384   2.430   0.381 -0.9702  2.1092  2.1769
   82SOL     OW  244   1.121   0.211   1.729 -0.1655  0.2196  0.1380
   82SOL    HW1  245   1.114   0.117   1.766  2.5005  1.1722  0.7916
   82SOL    HW2  246   1.187   0.267   1.785  1.6544  2.6911  1.5083
   83SOL     OW  247   0.502   2.169   0.894  0.1181  0.1404 -0.0636
   83SOL    HW1  248   0.407   2.132   0.879 -0.2097  0.4133 -0.5416
   83SOL    HW2  249   0.567   2.129   0.826  0.2378 -2.3905  0.1553
   84SOL     OW  250   2.860   1.621   0.889 -0.1459  0.2338 -0.3081
   84SOL    HW1  251   2.842   1.554   0.818 -0.7911  1.0044 -1.2893
   84SOL    HW2  252   2.931   1.682   0.851 -1.5425  0.7092 -2.2039
   85SOL     OW  253   2.130   1.836   1.447 -0.4750 -0.0314  0.0271
   85SOL    HW1  254   2.094   1.926   1.406  1.0065  2.9588  1.8701
   85SOL    HW2  255   2.094   1.754   1.407  1.4676  0.5500  0.3559
   86SOL     OW  256   1.386   2.285   1.912  0.2464 -0.3434 -0.3216
   86SOL    HW1  257   1.324   2.364   1.919  0.0343 -1.4525  0.1670
   86SOL    HW2  258   1.401   2.243   2.006 -2.6745 -1.2533  2.4041
   87SOL     OW  259   2.214   1.520   0.437 -0.1992  0.1364  0.0661
   87SOL    HW1  260   2.120   1.556   0.451 -2.5108  2.0289  0.2530
   87SOL    HW2  261   2.285   1.594   0.452  0.4633 -1.7607 -1.4232
   88SOL     OW  262   0.484   3.015   0.867 -0.3900  0.1131 -0.1572
   88SOL    HW1  263   0.534   2.925   0.872  0.7276 -2.3642  0.8137
   88SOL    HW2  264   0.499   3.066   0.954 -0.3069 -0.0194  3.0004
   89SOL     OW  265   0.707   0.521   1.652 -0.4197 -0.2671  0.0970
   89SOL    HW1  266   0.755   0.602   1.618 -0.1616  2.8707 -0.7395
   89SOL    HW2  267   0.778   0.451   1.674  0.0238 -0.9956 -0.0716
   90SOL     OW  268   2.890   1.933   0.377  0.4165  0.2771  0.1831
   90SOL    HW1  269   2.930   1.931   0.467  0.1519 -0.4350  0.4890
   90SOL    HW2  270   2.851   2.024   0.364  0.3526  0.5208 -0.1995
   91SOL     OW  271   0.994   1.608   0.964 -0.1785 -0.2952  0.6694
   91SOL    HW1  272   0.983   1.549   1.046  0.9391  1.1125  0.2488
   91SOL    HW2  273   1.092   1.643   0.959  0.0836 -2.6878  0.5615
   92SOL     OW  274   2.288   3.011   1.561  0.1521  0.2946  0.3525
   92SOL    HW1  275   2.354   2.985   1.636 -1.3055 -4.3673 -0.9061
   92SOL    HW2  276   2.339   3.006   1.476 -2.0304 -0.1150  0.9317
   93SOL     OW  277   0.542   1.488   2.892 -0.2766 -0.8701  0.4905
   93SOL    HW1  278   0.612   1.533   2.957  0.8130  1.6234 -3.0604
   93SOL    HW2  279   0.502   1.557   2.827  1.7537  1.7217  1.3195
   94SOL     OW  280   2.480   3.004   1.759 -0.0203 -0.1941 -0.4285
   94SOL    HW1  281   2.462   0.007   1.810 -1.4139 -1.6119  1.8756
   94SOL    HW2  282   2.555   2.954   1.805 -0.1988 -0.8843  0.4452
   95SOL     OW  283   1.844   0.488   1.716 -0.5534  0.9766  0.2911
   95SOL    HW1  284   1.750   0.459   1.682 -1.9782 -1.0683 -3.4258
   95SOL    HW2  285   1.918   0.438   1.667 -0.6337  1.7520  0.1512
   96SOL     OW  286   0.197   0.533   1.746  0.3049 -0.3029 -0.7179
   96SOL    HW1  287   0.139   0.533   1.663  3.0571 -0.0667  1.7962
   96SOL    HW2  288   0.243   0.622   1.759 -0.3690  0.3654 -2.1331
   97SOL     OW  289   2.145   0.137   1.479  0.0804 -0.2069 -0.0062
   97SOL    HW1  290   2.092   0.112   1.394  2.2281 -0.4334  0.2271
   97SOL    HW2  291   2.167   0.051   1.531 -0.3625  1.0817  1.0786
   98SOL     OW  292   1.957   2.290   1.896 -0.3147 -0.4058  0.1803
   98SOL    HW1  293   1.968   2.236   1.807 -0.4648 -0.6185 -2.0282
   98SOL    HW2  294   1.983   2.235   1.975  0.7432  0.4711  2.2104
   99SOL     OW  295   0.807   0.847   0.794  0.0000  0.4974  0.2851
   99SOL    HW1  296   0.859   0.913   0.743 -1.8479 -1.0535  2.0481
   99SOL    HW2  297   0.709   0.841   0.767  0.7159  2.4973  1.9376
  100SOL     OW  298   2.668   1.643   1.907  0.2735  0.2150  0.0318
  100SOL    HW1  299   2.628   1.638   2.001 -0.7314  1.3848  0.8219
  100SOL    HW2  300   2.595   1.637   1.832  0.4726  0.9520 -2.0540
  101SOL     OW  301   1.789   0.052   0.131  0.1247 -0.4869  0.2024
  101SOL    HW1  302   1.810   0.102   0.048  2.2899  1.4799  0.0582
  101SOL    HW2  303   1.738   0.098   0.203  0.0685 -1.2564 -0.2929
  102SOL     OW  304   0.137   2.961   1.249  0.3648 -0.0355  0.1166
  102SOL    HW1  305   0.081   2.996   1.168 -3.4256  2.7122 -2.0176
  102SOL    HW2  306   0.184   2.869   1.232  1.7938 -2.6282  1.9572
  103SOL     OW  307   0.070   3.017   2.321  0.0599  0.1455 -0.0744
  103SOL    HW1  308   3.058   2.976   2.319  2.9674 -0.2181 -3.1953
  103SOL    HW2  309   0.135   2.935   2.330 -0.3072 -0.4304  0.9411
  104SOL     OW  310   0.235   2.051   1.477 -0.2415 -0.5078  0.0709
  104SOL    HW1  311   0.169   1.982   1.433 -2.5250 -0.2123 -0.0745
  104SOL    HW2  312   0.198   2.143   1.470  2.8046 -2.5391 -2.6210
  105SOL     OW  313   0.678   1.862   2.043  0.0318  0.3297  0.2622
  105SOL    HW1  314   0.750   1.884   2.107 -2.9640 -0.0019 -2.6232
  105SOL    HW2  315   0.646   1.934   1.973  1.2828  0.7433  0.5670
  106SOL     OW  316   1.850   3.016   0.594 -0.0431  0.4373  0.1527
  106SOL    HW1  317   1.826   0.027   0.572  4.4343 -2.5455  1.9405
  106SOL    HW2  318   1.858   3.000   0.696  1.6719 -0.8355  0.4572
  107SOL     OW  319   0.611   1.118   1.268  0.4744 -0.1512 -0.2223
  107SOL    HW1  320   0.513   1.087   1.269  0.6084 -0.1326  0.6869
  107SOL    HW2  321   0.655   1.079   1.183 -1.4302  0.9224  0.9716
  108SOL     OW  322   2.876   1.094   2.424 -0.1918 -0.1965 -0.2848
  108SOL    HW1  323   2.966   1.083   2.470 -1.2095 -0.1650  1.1032
  108SOL    HW2  324   2.885   1.075   2.324 -1.1252  1.6397  1.6140
  109SOL     OW  325   2.035   2.873   3.030 -0.0059  0.7943  0.0079
  109SOL    HW1  326   2.100   2.946   3.002 -2.8761 -1.4780  0.9069
  109SOL    HW2  327   1.940   2.897   3.046  0.7707  0.6153 -1.3595
  110SOL     OW  328   0.110   2.002   0.013 -0.0097 -0.4720  0.0915
  110SOL    HW1  329   0.007   1.990   0.019 -0.8981  0.4831 -2.5029
  110SOL    HW2  330   0.153   1.917   3.065 -0.8506  1.4810  3.6313
  111SOL     OW  331   2.772   0.712   2.153 -0.4428  0.6587 -0.1319
  111SOL    HW1  332   2.862   0.663   2.157 -1.1337  1.4748 -3.0026
  111SOL    HW2  333   2.716   0.687   2.234  0.9233 -0.5799  3.4845
  112SOL     OW  334   1.974   2.534   1.353  0.1636 -0.3035  0.0461
  112SOL    HW1  335   1.901   2.576   1.405  0.1429  3.0047 -0.5284
  112SOL    HW2  336   2.054   2.516   1.415  1.0662  1.5173 -3.0322
  113SOL     OW  337   1.979   2.286   2.488 -0.1646 -0.7392 -0.0178
  113SOL    HW1  338   2.034   2.240   2.418 -2.2246  0.1734 -1.2962
  113SOL    HW2  339   2.035   2.301   2.574  0.2601  0.5110 -1.0420
  114SOL     OW  340   0.415   0.360   0.557 -0.6674 -0.4784  0.2173
  114SOL    HW1  341   0.386   0.272   0.516  0.0544 -0.1025  1.1418
  114SOL    HW2  342   0.511   0.386   0.534 -0.7997 -0.2368 -1.5711
  115SOL     OW  343   0.024   1.278   0.082 -0.3506 -0.6116 -0.2411
  115SOL    HW1  344   3.074   1.212   0.155 -0.1398 -1.0901  1.3512
  115SOL    HW2  345   0.083   1.349   0.123 -2.6588  0.7186  1.6840
  116SOL     OW  346   0.193   0.918   1.981 -0.0255  0.0298  0.0648
  116SOL    HW1  347   0.182   0.950   1.883  0.3266 -0.3120  0.1102
  116SOL    HW2  348   0.119   0.947   2.041  0.8199  1.0128 -0.9353
  117SOL     OW  349   2.333   0.205   1.266  0.2458 -0.3274 -0.3055
  117SOL    HW1  350   2.412   0.273   1.267 -0.1496  0.1174  1.6983
  117SOL    HW2  351   2.309   0.190   1.365  2.5889 -0.7809  0.7623
  118SOL     OW  352   2.718   2.209   2.006  0.7340 -0.1956  0.3392
  118SOL    HW1  353   2.720   2.274   1.923  1.2223  3.7246 -0.6667
  118SOL    HW2  354   2.807   2.158   2.020 -1.0677 -2.4129 -2.3212
  119SOL     OW  355   0.456   1.777   1.510 -0.7262 -0.0083  0.8109
  119SOL    HW1  356   0.490   1.831   1.428  0.7233 -0.8980  0.1349
  119SOL    HW2  357   0.529   1.710   1.544  0.3790 -2.3175  2.6835
  120SOL     OW  358   0.362   1.438   1.596 -0.1302  0.1905  0.2830
  120SOL    HW1  359   0.384   1.431   1.493 -1.4538  0.4630 -4.6202
  120SOL    HW2  360   0.451   1.422   1.646  1.3715  0.9679  0.2684
  121SOL     OW  361   1.683   0.902   1.006  0.0068 -0.2100  0.2801
  121SOL    HW1  362   1.706   0.950   1.093 -0.7107 -1.7933 -0.3268
  121SOL    HW2  363   1.627   0.965   0.945  0.2491 -1.7312 -0.0977
  122SOL     OW  364   2.330   2.490   2.561 -1.1201 -0.2783 -0.0194
  122SOL    HW1  365   2.291   2.573   2.599 -1.0075 -0.3412  1.2301
  122SOL    HW2  366   2.283   2.461   2.476  0.5902 -0.2559 -0.3762
  123SOL     OW  367   3.027   2.974   0.440 -0.9188 -0.2913  0.1521
  123SOL    HW1  368   2.953   2.922   0.399  1.6629 -0.4895  2.8218
  123SOL    HW2  369   2.986   3.044   0.508  1.0451 -0.8019 -0.0569
  124SOL     OW  370   1.705   1.470   0.360 -0.4321 -0.1638 -0.0247
  124SOL    HW1  371   1.640   1.464   0.282 -0.5189  1.5122  0.4019
  124SOL    HW2  372   1.771   1.394   0.368 -4.8445  1.3741 -0.3657
  125SOL     OW  373   0.344   1.078   2.234 -0.2617 -0.0724 -0.2389
  125SOL    HW1  374   0.378   1.104   2.325 -2.5623 -1.9866  0.4817
  125SOL    HW2  375   0.395   0.999   2.200 -0.3768  1.3727  0.3101
  126SOL     OW  376   3.016   2.619   0.016  0.2483 -0.1455 -0.2743
  126SOL    HW1  377   3.039   2.564   0.099  2.4880  0.9654 -2.1691
  126SOL    HW2  378   0.006   2.692   3.080 -1.5470 -1.7073  0.2468
  127SOL     OW  379   2.941   1.966   0.103  0.3661  0.2023 -0.5235
  127SOL    HW1  380   2.917   1.956   0.206 -3.9872  0.3635  0.3645
  127SOL    HW2  381   2.891   2.036   0.053 -2.6938 -1.3667  0.9957
  128SOL     OW  382   1.228   0.921   0.798  0.4726 -0.0875  0.3238
  128SOL    HW1  383   1.180   0.986   0.862  0.9136  0.9806  3.0045
  128SOL    HW2  384   1.302   0.976   0.747  3.1881 -0.2368 -0.4000
  129SOL     OW  385   2.535   2.081   1.068 -0.2900  0.5392 -0.2649
  129SOL    HW1  386   2.540   2.011   1.141  0.0252 -0.3805  0.5612
  129SOL    HW2  387   2.459   2.144   1.077 -0.5792 -1.7496  0.4149
  130SOL     OW  388   2.088   1.041   0.135  0.5111 -0.0610 -0.4574
  130SOL    HW1  389   2.147   1.109   0.182 -0.3703  2.2431  1.8706
  130SOL    HW2  390   2.003   1.028   0.187  0.9578  0.4787 -2.7542
  131SOL     OW  391   3.015   1.347   2.611  0.4566 -0.0417 -0.2432
  131SOL    HW1  392   2.961   1.429   2.575  0.9066  3.7839 -0.0257
  131SOL    HW2  393   3.045   1.368   2.704  0.6327  0.0327  1.0876
  132SOL     OW  394   0.962   1.267   1.992 -0.6106 -0.0231 -0.2515
  132SOL    HW1  395   0.975   1.347   1.934 -2.5893 -1.3683  2.4597
  132SOL    HW2  396   1.029   1.193   1.971  1.0517 -0.8510 -1.4759
  133SOL     OW  397   0.392   1.543   0.642  0.1369  0.0581  0.3062
  133SOL    HW1  398   0.397   1.466   0.575 -0.5999 -2.4268  0.4718
  133SOL    HW2  399   0.458   1.529   0.719  0.9349  2.3147 -1.4360
  134SOL     OW  400   2.651   1.067   0.079  0.1816  0.0891 -0.4125
  134SOL    HW1  401   2.745   1.094   0.052  0.5416  2.0592  2.3734
  134SOL    HW2  402   2.581   1.144   0.063 -2.4300 -0.5485 -1.6671
  135SOL     OW  403   1.679   0.663   0.037 -0.6202  0.5376 -0.5918
  135SOL    HW1  404   1.728   0.711   3.045 -3.4630 -1.9325 -1.9328
  135SOL    HW2  405   1.721   0.573   0.061 -1.3970 -3.5492  0.1246
  136SOL     OW  406   1.848   1.633   1.531  0.0585 -0.6909 -0.4448
  136SOL    HW1  407   1.917   1.611   1.460 -0.4799 -3.0104  1.7700
  136SOL    HW2  408   1.785   1.555   1.537 -1.0612 -0.9424  1.1076
  137SOL     OW  409   2.117   2.382   1.045  0.0313  0.2560  0.2147
  137SOL    HW1  410   2.154   2.472   1.079  1.2631  0.6198 -0.6338
  137SOL    HW2  411   2.122   2.379   0.940  0.5248 -0.9950 -3.3020
  138SOL     OW  412   2.261   0.421   1.773 -0.0768  0.3619  0.1139
  138SOL    HW1  413   2.252   0.467   1.861  0.9843 -0.4826  0.3629
  138SOL    HW2  414   2.173   0.405   1.726  1.5638  1.5894 -1.8173
  139SOL     OW  415   2.463   2.810   2.856 -0.0036 -0.0610  0.1792
  139SOL    HW1  416   2.483   2.740   2.786 -1.7916 -0.0110  2.3578
  139SOL    HW2  417   2.456   2.771   2.949  0.0780  0.1173 -1.7691
  140SOL     OW  418   1.485   1.741   2.441  0.2245 -0.5735 -0.4621
  140SOL    HW1  419   1.487   1.794   2.353  0.8981 -1.4500 -0.8655
  140SOL    HW2  420   1.397   1.753   2.494 -3.2948 -3.1629  2.0204
  141SOL     OW  421   0.922   1.107   2.454  0.5262 -0.8900  0.0679
  141SOL    HW1  422   0.900   1.203   2.486  0.3546 -3.5615 -1.7737
  141SOL    HW2  423   0.988   1.059   2.511  0.0933  3.4030 -1.5780
  142SOL     OW  424   2.529   2.601   1.974  0.2886  0.0253  0.4302
  142SOL    HW1  425   2.502   2.697   2.002 -1.8944 -0.0501 -3.6234
  142SOL    HW2  426   2.446   2.552   1.936  1.8095  0.7979 -0.3603
  143SOL     OW  427   1.053   2.428   0.322  0.2493 -0.1288  0.1662
  143SOL    HW1  428   1.039   2.504   0.258  0.3538 -1.5716  0.3322
  143SOL    HW2  429   0.976   2.415   0.385  4.0947  0.7680 -1.6991
  144SOL     OW  430   0.944   2.658   0.661  0.1636  0.1123 -0.2660
  144SOL    HW1  431   1.023   2.721   0.647 -2.1061 -0.8979  0.9683
  144SOL    HW2  432   0.856   2.707   0.645 -2.5490  0.7880 -2.3200
  145SOL     OW  433   1.614   2.587   2.444 -0.3005  0.2282 -0.4605
  145SOL    HW1  434   1.540   2.559   2.509 -0.5172  0.2628  0.6691
  145SOL    HW2  435   1.593   2.684   2.413  1.3165 -1.8849  2.7915
  146SOL     OW  436   2.188   2.742   0.160 -0.1438 -0.2443 -0.1654
  146SOL    HW1  437   2.098   2.706   0.169  3.8466  3.3543  2.7294
  146SOL    HW2  438   2.202   2.799   0.077  0.4342 -0.6033 -1.0634
  147SOL     OW  439   0.210   1.714   1.429 -0.7161 -0.5973 -0.0748
  147SOL    HW1  440   0.303   1.740   1.468  4.3054  0.0832  3.1443
  147SOL    HW2  441   0.218   1.622   1.378  0.5501 -1.8354  0.2102
  148SOL     OW  442   1.687   2.948   0.385  0.6078 -0.2549  0.2160
  148SOL    HW1  443   1.734   2.971   0.471 -1.0527  0.1928 -0.1935
  148SOL    HW2  444   1.731   2.880   0.329 -0.6192  4.8883  1.1988
  149SOL     OW  445   0.570   1.921   3.023  0.7237 -0.0442 -0.2830
  149SOL    HW1  446   0.658   1.948   2.986 -1.1796  1.0012  2.3390
  149SOL    HW2  447   0.493   1.927   2.956 -0.7604  1.9841  0.1923
  150SOL     OW  448   0.364   2.606   1.047 -0.0707 -0.6224  0.2789
  150SOL    HW1  449   0.382   2.627   1.146 -2.2119  1.7853 -0.1845
  150SOL    HW2  450   0.319   2.686   1.003  2.0999 -1.2976  1.8161
  151SOL     OW  451   0.491   1.204   3.011  0.0905 -0.4401 -0.0163
  151SOL    HW1  452   0.517   1.297   2.980 -0.3317  1.4427  0.0412
  151SOL    HW2  453   0.387   1.194   3.020 -2.5787 -0.3602  1.1165
  152SOL     OW  454   2.876   2.243   0.851  0.4670 -0.8160  0.0633
  152SOL    HW1  455   2.783   2.205   0.824  0.2500  1.2824 -1.7351
  152SOL    HW2  456   2.881   2.336   0.820 -1.0775 -0.4258  1.8015
  153SOL     OW  457   1.770   2.309   0.494  0.2565 -0.2151 -0.3399
  153SOL    HW1  458   1.738   2.300   0.397 -1.1584  0.5986 -0.2506
  153SOL    HW2  459   1.816   2.224   0.523  0.8787  2.0401 -1.1165
  154SOL     OW  460   0.677   2.948   1.445  0.6421 -0.0896  0.2988
  154SOL    HW1  461   0.615   3.011   1.492 -1.7274 -5.3526 -0.5095
  154SOL    HW2  462   0.772   2.986   1.451 -0.3748  1.6599  0.9407
  155SOL     OW  463   2.790   2.171   0.295 -0.4722  0.5332 -0.0078
  155SOL    HW1  464   2.783   2.235   0.372 -1.3322  1.1480  0.3350
  155SOL    HW2  465   2.748   2.212   0.211  2.8598  1.7522  1.0855
  156SOL     OW  466   2.365   1.932   0.049  0.2805 -0.2273  0.3610
  156SOL    HW1  467   2.438   1.945   3.056 -1.7598 -0.3109 -0.4901
  156SOL    HW2  468   2.419   1.912   0.133 -1.4694 -0.2045 -2.6727
  157SOL     OW  469   0.446   2.669   1.704 -0.4769  0.4022  0.3605
  157SOL    HW1  470   0.355   2.654   1.748  1.9385 -2.0261 -1.9027
  157SOL    HW2  471   0.518   2.679   1.778 -2.8247  1.8692 -1.3692
  158SOL     OW  472   1.297   0.711   1.103 -0.4878  0.0664 -0.7720
  158SOL    HW1  473   1.313   0.810   1.109  0.1400 -0.1384  1.2317
  158SOL    HW2  474   1.350   0.661   1.175  2.5412 -1.3409 -1.0577
  159SOL     OW  475   1.758   1.144   3.069  0.4132  0.2715  0.3076
  159SOL    HW1  476   1.800   1.154   0.081  1.8185  1.0993  1.8408
  159SOL    HW2  477   1.829   1.116   2.998  1.5497 -0.0096 -4.2744
  160SOL     OW  478   1.259   1.977   0.476  0.5911  0.1163 -0.1393
  160SOL    HW1  479   1.291   2.071   0.506 -1.4704  0.3950 -0.2142
  160SOL    HW2  480   1.255   1.907   0.548  1.8597 -0.2593 -0.3680
  161SOL     OW  481   2.325   2.149   2.440  0.7743 -0.0642  0.0714
  161SOL    HW1  482   2.421   2.175   2.457 -0.3426 -0.1230  0.7670
  161SOL    HW2  483   2.302   2.070   2.494 -1.3339 -2.0263 -0.7586
  162SOL     OW  484   0.152   2.294   1.495  0.3705  0.2724  0.6785
  162SOL    HW1  485   0.102   2.343   1.420  0.0778 -2.8130  0.0548
  162SOL    HW2  486   0.236   2.348   1.512 -2.1257  1.4474  0.9123
  163SOL     OW  487   0.408   0.521   2.626  0.2849  0.3132  0.0953
  163SOL    HW1  488   0.418   0.532   2.725 -1.4140  0.4280 -0.8520
  163SOL    HW2  489   0.439   0.599   2.568 -0.3662  3.8562  1.0637
  164SOL     OW  490   0.051   2.750   2.798  0.5820 -0.4523 -0.2996
  164SOL    HW1  491   0.103   2.802   2.729  0.9246 -0.1946 -0.3435
  164SOL    HW2  492   0.057   2.795   2.893 -1.1075  1.5722  3.2512
  165SOL     OW  493   2.744   0.730   1.448  0.1290  1.0004  0.0372
  165SOL    HW1  494   2.660   0.778   1.420 -1.1917  1.4004 -0.4798
  165SOL    HW2  495   2.813   0.737   1.378 -2.3708  0.0399  2.9383
  166SOL     OW  496   2.042   1.584   1.348 -0.0985 -0.1516  0.1965
  166SOL    HW1  497   2.039   1.481   1.355  1.4811 -0.5350 -0.0045
  166SOL    HW2  498   2.073   1.612   1.256 -0.4524 -0.4093  2.1645
  167SOL     OW  499   0.413   0.755   2.460 -0.1036  0.8185 -0.1041
  167SOL    HW1  500   0.403   0.695   2.377  1.9835  0.1906 -0.0957
  167SOL    HW2  501   0.331   0.812   2.472 -1.2680  1.7165  1.3332
  168SOL     OW  502   2.326   0.151   2.306  0.6802  0.0299  0.1950
  168SOL    HW1  503   2.252   0.134   2.375 -1.7261  0.4798  1.0883
  168SOL    HW2  504   2.344   0.249   2.292  1.2761 -2.7765 -0.8637
  169SOL     OW  505   0.659   1.038   0.056  0.1646 -0.0459  0.2514
  169SOL    HW1  506   0.603   0.957   0.079  1.5749 -1.8058 -1.0071
  169SOL    HW2  507   0.599   1.113   0.016  1.7432  1.0194 -0.3802
  170SOL     OW  508   1.020   1.359   1.499 -0.1304 -0.9908 -0.2672
  170SOL    HW1  509   0.923   1.347   1.510  1.4202 -0.1949 -0.2921
  170SOL    HW2  510   1.070   1.309   1.569  0.1612 -0.3053 -2.3497
  171SOL     OW  511   1.278   2.670   1.526 -0.2289 -0.1496  0.0693
  171SOL    HW1  512   1.268   2.730   1.610  0.1768 -0.5001  0.7412
  171SOL    HW2  513   1.374   2.693   1.490  3.3767  0.4773  0.9519
  172SOL     OW  514   1.023   0.010   1.940  0.3444  0.2209  0.0301
  172SOL    HW1  515   0.973   3.034   1.869  0.5168 -0.1180 -1.4560
  172SOL    HW2  516   0.973   0.011   2.030  0.8546 -0.1163  0.2039
  173SOL     OW  517   1.101   2.473   0.855 -0.3988 -0.5913 -0.3762
  173SOL    HW1  518   1.030   2.529   0.804 -0.6459  3.6869 -1.0826
  173SOL    HW2  519   1.059   2.387   0.898  0.8007  0.9449  1.3145
  174SOL     OW  520   2.285   0.040   0.321 -0.1435 -0.5921 -0.5460
  174SOL    HW1  521   2.264   0.021   0.422  0.2909  0.4811  0.7682
  174SOL    HW2  522   2.382   0.075   0.313  1.4122  0.3578 -1.2362
  175SOL     OW  523   1.535   1.068   0.883  1.1034 -0.0206  0.4207
  175SOL    HW1  524   1.466   1.140   0.914 -3.3041  3.5171  4.1262
  175SOL    HW2  525   1.515   1.040   0.784  0.1119  0.9720  0.8127
  176SOL     OW  526   1.204   1.790   0.680 -0.5870  0.4324 -0.1159
  176SOL    HW1  527   1.133   1.856   0.700 -1.0841 -0.0376 -0.9734
  176SOL    HW2  528   1.166   1.719   0.615 -0.4842 -0.8130 -0.3938
  177SOL     OW  529   1.759   1.459   1.036  0.0759 -0.3094  0.3249
  177SOL    HW1  530   1.689   1.460   0.966  1.9857  0.5004  3.1020
  177SOL    HW2  531   1.848   1.423   1.002  1.2955 -1.1034 -0.8469
  178SOL     OW  532   2.165   1.622   0.067  0.0016  0.5416  0.7528
  178SOL    HW1  533   2.198   1.694   0.002 -0.1561 -0.8454 -1.5968
  178SOL    HW2  534   2.241   1.574   0.112 -1.2957 -1.5202 -1.7149
  179SOL     OW  535   1.262   3.020   0.047  0.0286 -0.3709 -0.2075
  179SOL    HW1  536   1.360   2.995   0.032  0.5210  0.3591  1.1278
  179SOL    HW2  537   1.207   3.004   3.043 -1.1550  0.4265  1.2401
  180SOL     OW  538   2.075   1.130   1.492 -0.2805  0.0856 -0.1716
  180SOL    HW1  539   2.097   1.158   1.591 -0.2487  2.3258  0.3365
  180SOL    HW2  540   2.060   1.213   1.441  0.9179  0.6941  0.8734
  181SOL     OW  541   0.975   0.795   1.793  0.1459  0.3375 -0.7815
  181SOL    HW1  542   1.073   0.766   1.812  2.8547  0.9316 -1.7219
  181SOL    HW2  543   0.915   0.738   1.849  3.0975  0.3548 -0.1771
  182SOL     OW  544   0.170   0.914   2.536  0.0350  0.3902  0.4148
  182SOL    HW1  545   0.118   0.880   2.455  0.4900 -0.8755 -1.7991
  182SOL    HW2  546   0.157   1.015   2.546  0.2040  0.3872  3.1210
  183SOL     OW  547   1.409   0.688   2.465  0.4473  0.4213  0.2168
  183SOL    HW1  548   1.491   0.725   2.518  1.1960 -0.3233  4.6170
  183SOL    HW2  549   1.378   0.599   2.507 -0.3497 -2.5591 -1.4272
  184SOL     OW  550   0.771   0.543   1.163 -0.5097 -0.1000 -0.2886
  184SOL    HW1  551   0.826   0.597   1.099 -1.0089 -1.4735  0.1640
  184SOL    HW2  552   0.839   0.477   1.203  1.4844 -3.6090  1.5246
  185SOL     OW  553   2.378   1.326   0.586  0.1258  0.3202 -0.5430
  185SOL    HW1  554   2.481   1.322   0.566  1.6364 -1.1771  1.1225
  185SOL    HW2  555   2.318   1.373   0.516  0.8461 -0.4155 -0.2576
  186SOL     OW  556   0.165   2.023   0.275  0.0716  0.3776 -0.0944
  186SOL    HW1  557   0.143   1.935   0.316 -0.2609  1.6082 -0.5772
  186SOL    HW2  558   0.165   2.026   0.174 -2.0273  1.2542 -0.9557
  187SOL     OW  559   1.931   2.184   2.882 -0.0498  0.2237 -0.3265
  187SOL    HW1  560   1.969   2.092   2.908 -0.1400 -2.1947  2.2527
  187SOL    HW2  561   1.999   2.241   2.835 -3.4569 -1.0055  0.5110
  188SOL     OW  562   1.467   2.235   1.598 -0.5792 -0.0752  0.2191
  188SOL    HW1  563   1.420   2.185   1.526 -1.4691 -1.0636  1.7394
  188SOL    HW2  564   1.404   2.290   1.653 -0.9583 -1.7457 -0.8866
  189SOL     OW  565   2.394   1.346   2.592 -0.2536  0.1844  0.3348
  189SOL    HW1  566   2.319   1.279   2.622 -3.9822 -3.1194  0.7734
  189SOL    HW2  567   2.394   1.354   2.492  2.1808 -1.3226  2.0353
  190SOL     OW  568   0.737   2.555   2.031 -0.1782  0.5311  0.2771
  190SOL    HW1  569   0.765   2.457   2.040 -0.7908  0.4428  0.3024
  190SOL    HW2  570   0.667   2.573   2.106  2.6470 -0.4869 -0.2990
  191SOL     OW  571   2.734   1.018   1.200 -0.1596 -0.1856 -0.3062
  191SOL    HW1  572   2.650   0.989   1.250 -1.6797  0.7686 -1.0790
  191SOL    HW2  573   2.718   1.108   1.153 -1.0730  2.1017  1.6142
  192SOL     OW  574   2.357   0.542   1.141 -0.2103  0.4509  0.0095
  192SOL    HW1  575   2.398   0.503   1.226 -0.6422 -0.1766 -1.2441
  192SOL    HW2  576   2.252   0.524   1.138 -2.0094 -1.4266 -0.0986
  193SOL     OW  577   0.841   0.312   0.154  0.3574 -0.2438  0.0493
  193SOL    HW1  578   0.892   0.223   0.172  0.8538 -1.6996 -0.3381
  193SOL    HW2  579   0.805   0.319   0.055  1.9380  2.0098  0.4029
  194SOL     OW  580   1.193   2.505   1.327 -0.0202 -0.2433  0.0566
  194SOL    HW1  581   1.227   2.584   1.375  2.5985 -1.8560 -2.9990
  194SOL    HW2  582   1.222   2.516   1.227  1.8585  0.9642  0.5897
  195SOL     OW  583   2.822   1.113   0.484 -0.2699 -0.3279 -0.2284
  195SOL    HW1  584   2.812   1.105   0.590  2.2221 -0.1481  1.3797
  195SOL    HW2  585   2.748   1.071   0.429 -1.2612  1.2174 -1.7832
  196SOL     OW  586   0.515   2.152   1.501  0.6290  0.1256 -0.3304
  196SOL    HW1  587   0.431   2.102   1.525  0.2943  0.7605  0.1291
  196SOL    HW2  588   0.493   2.227   1.434 -0.4262  1.8918 -1.0615
  197SOL     OW  589   3.035   0.592   2.149  0.3914 -0.5754  0.1082
  197SOL    HW1  590   0.034   0.540   2.179 -3.1026  2.7146  1.8759
  197SOL    HW2  591   2.987   0.554   2.065  0.1671  1.3480 -1.2028
  198SOL     OW  592   1.989   1.318   0.062  0.0289 -0.0785 -0.0587
  198SOL    HW1  593   1.980   1.266   3.063  3.3448  0.0397  0.0129
  198SOL    HW2  594   1.912   1.387   0.066  1.6545 -0.5859 -0.7042
  199SOL     OW  595   2.521   0.356   1.724 -0.4013 -0.0617 -0.1904
  199SOL    HW1  596   2.421   0.377   1.727 -1.3358 -0.7809  0.0158
  199SOL    HW2  597   2.558   0.387   1.637 -2.5463  1.1411  2.3227
  200SOL     OW  598   2.187   0.001   2.961  0.5424  0.0847  0.0521
  200SOL    HW1  599   2.168   0.088   3.012 -1.3442 -1.6961  1.6393
  200SOL    HW2  600   2.217   0.031   2.866  1.8571  2.6204 -2.3686
  201SOL     OW  601   2.598   0.079   0.995 -0.0811  0.6363 -0.3113
  201SOL    HW1  602   2.694   0.109   1.020  1.9897  0.3299  1.4143
  201SOL    HW2  603   2.535   0.158   0.980 -3.6176  1.6499  1.6511
  202SOL     OW  604   2.803   2.583   0.273 -0.3217  0.9575 -0.3387
  202SOL    HW1  605   2.897   2.557   0.308 -0.7183  3.3745  0.7950
  202SOL    HW2  606   2.799   2.683   0.288  1.3139  1.4242 -0.5605
  203SOL     OW  607   1.673   1.884   0.515  0.1241 -0.3304 -0.4377
  203SOL    HW1  608   1.610   1.922   0.585  0.8569  2.0118 -0.8146
  203SOL    HW2  609   1.763   1.927   0.517  0.0835 -2.1746 -1.4532
  204SOL     OW  610   0.235   1.777   2.284  0.0037  0.4847 -0.1228
  204SOL    HW1  611   0.298   1.763   2.208  0.4939  0.0967 -0.4076
  204SOL    HW2  612   0.192   1.691   2.318 -0.6486 -1.2956 -0.2861
  205SOL     OW  613   0.774   0.446   0.762 -0.1189 -0.6443  0.0612
  205SOL    HW1  614   0.748   0.456   0.667 -2.9331 -1.5270  1.1524
  205SOL    HW2  615   0.872   0.475   0.785  1.4335  0.0694  1.0964
  206SOL     OW  616   0.364   0.532   2.892  0.5752 -0.2311  0.3433
  206SOL    HW1  617   0.310   0.453   2.925 -0.2442 -0.5610 -0.2396
  206SOL    HW2  618   0.329   0.620   2.936  1.1612 -2.0134 -2.4647
  207SOL     OW  619   1.201   2.488   1.966 -0.5259 -0.0744 -0.2428
  207SOL    HW1  620   1.190   2.507   1.870 -0.9048 -0.5816  2.3777
  207SOL    HW2  621   1.113   2.461   2.004 -0.5289  2.7181  0.2225
  208SOL     OW  622   2.667   0.017   1.512 -0.1010 -0.3797 -0.1371
  208SOL    HW1  623   2.645   0.038   1.610  1.3474  2.1569 -0.1944
  208SOL    HW2  624   2.578   0.007   1.462  0.1631  1.5178  2.0721
  209SOL     OW  625   1.811   0.946   0.672 -0.4956 -0.1422  0.3538
  209SOL    HW1  626   1.813   0.855   0.725  0.7083 -4.0155 -0.8190
  209SOL    HW2  627   1.718   0.976   0.641 -0.6877 -1.9304 -1.1726
  210SOL     OW  628   2.606   0.973   0.330 -0.1322 -0.3477 -0.5288
  210SOL    HW1  629   2.507   0.974   0.355 -1.0502  2.2438 -0.5802
  210SOL    HW2  630   2.618   1.004   0.233  0.6986 -1.9361 -1.2808
  211SOL     OW  631   1.162   3.009   0.305 -0.5008  0.7992  0.4132
  211SOL    HW1  632   1.234   2.991   0.376  1.3904  1.7766 -1.3826
  211SOL    HW2  633   1.201   3.001   0.207  2.3542 -0.5030 -0.7765
  212SOL     OW  634   1.901   2.038   0.517  0.0180 -0.6355 -0.0851
  212SOL    HW1  635   1.954   2.059   0.600  0.0406  1.8127 -0.0312
  212SOL    HW2  636   1.966   2.020   0.437  0.7305 -0.1077 -0.5382
  213SOL     OW  637   2.572   0.194   0.019  0.0659  0.0011  0.3886
  213SOL    HW1  638   2.630   0.163   3.018  1.6459 -0.9425  1.0252
  213SOL    HW2  639   2.525   0.287   0.008 -0.3896  1.1142 -1.9154
  214SOL     OW  640   0.795   2.287   2.076 -0.2206 -0.6587  0.2516
  214SOL    HW1  641   0.870   2.235   2.112 -3.2788  2.7241 -0.2755
  214SOL    HW2  642   0.717   2.274   2.139  0.9390 -1.3494  0.9584
  215SOL     OW  643   0.388   1.272   0.929  0.4029 -0.4632  0.1436
  215SOL    HW1  644   0.290   1.294   0.941  0.8960  1.1914  0.5614
  215SOL    HW2  645   0.447   1.357   0.919 -1.8872  1.8020  1.1956
  216SOL     OW  646   0.228   2.559   2.743 -0.0561 -0.4505  0.5941
  216SOL    HW1  647   0.321   2.587   2.766 -0.6585  2.0949 -0.7921
  216SOL    HW2  648   0.159   2.629   2.765  0.3296 -1.6236 -1.1173
  217SOL     OW  649   2.931   1.344   1.386  0.3896 -0.1171 -0.0447
  217SOL    HW1  650   2.960   1.392   1.301  0.6315 -0.2717 -0.9108
  217SOL    HW2  651   2.995   1.272   1.406 -1.6341  2.3989 -0.4957
  218SOL     OW  652   0.811   2.319   1.632 -0.3907 -0.0861 -0.2870
  218SOL    HW1  653   0.788   2.415   1.595  2.2165 -1.5185 -1.7784
  218SOL    HW2  654   0.882   2.330   1.702 -3.2314 -0.4799 -1.0685
  219SOL     OW  655   1.958   1.584   0.500  0.1126 -0.0518  0.3190
  219SOL    HW1  656   1.876   1.626   0.453 -2.3713  2.3933 -0.6774
  219SOL    HW2  657   1.999   1.648   0.565  3.2335  0.3050 -2.1210
  220SOL     OW  658   2.056   0.586   0.199 -0.1856 -0.2356  0.0805
  220SOL    HW1  659   2.151   0.606   0.170 -1.0116 -0.3074 -1.9186
  220SOL    HW2  660   2.043   0.593   0.299  0.6046 -1.4004 -2.0513
  221SOL     OW  661   3.042   0.826   0.226  0.0830  0.3758  0.4110
  221SOL    HW1  662   0.027   0.781   0.295  0.9610 -0.5139  0.1348
  221SOL    HW2  663   3.038   0.763   0.142  0.7169  0.5991 -1.7827
  222SOL     OW  664   1.597   1.444   0.802 -0.6086 -0.0559 -0.2800
  222SOL    HW1  665   1.496   1.434   0.805  1.2177  0.2214  0.8901
  222SOL    HW2  666   1.621   1.541   0.776 -1.6116 -0.5900 -0.2300
  223SOL     OW  667   1.058   0.126   2.970  0.0879  0.4441 -0.4214
  223SOL    HW1  668   0.995   0.076   2.916  0.9157  0.4439 -0.4575
  223SOL    HW2  669   1.059   0.092   3.067  1.7755 -0.0790  1.3639
  224SOL     OW  670   0.829   2.834   1.108 -0.4458  0.0726  0.3299
  224SOL    HW1  671   0.821   2.936   1.107  0.2476 -2.9278 -0.1745
  224SOL    HW2  672   0.897   2.807   1.181  0.0452 -0.2966  0.9057
  225SOL     OW  673   0.595   2.776   1.929 -0.7652 -0.6237 -0.0046
  225SOL    HW1  674   0.657   2.703   1.967 -2.1529 -1.0267 -1.4410
  225SOL    HW2  675   0.507   2.793   1.986 -1.1358  0.6401 -0.1665
  226SOL     OW  676   1.557   1.657   0.468  0.2085  0.1821  0.2639
  226SOL    HW1  677   1.599   1.756   0.477 -0.7054  4.5823  0.7147
  226SOL    HW2  678   1.625   1.592   0.424  2.4153 -0.9964 -2.4339
  227SOL     OW  679   0.567   1.896   1.282  0.2337  0.9115  0.6474
  227SOL    HW1  680   0.584   1.964   1.206 -2.0369 -1.3209 -0.5884
  227SOL    HW2  681   0.639   1.822   1.275  0.9425 -0.8179  0.6144
  228SOL     OW  682   0.007   1.923   0.577 -0.1544  0.1597 -0.4133
  228SOL    HW1  683   0.059   1.869   0.512  1.5392  1.2204 -0.2081
  228SOL    HW2  684   0.036   2.020   0.570 -1.1140  1.6222 -0.5931
  229SOL     OW  685   2.884   0.256   2.954 -0.6303 -0.5169 -0.0607
  229SOL    HW1  686   2.808   0.217   2.899  1.3600 -0.0561  1.6587
  229SOL    HW2  687   2.963   0.188   2.934 -0.0315 -1.6616 -0.3914
  230SOL     OW  688   2.328   1.088   0.359  0.0521  0.3392 -0.0982
  230SOL    HW1  689   2.270   1.152   0.314  2.6067 -3.8111  1.0406
  230SOL    HW2  690   2.299   1.074   0.454  0.0808  1.1099 -0.9880
  231SOL     OW  691   1.755   1.464   2.860 -0.2367  0.0880  0.3097
  231SOL    HW1  692   1.726   1.457   2.957  0.3847  2.0438 -1.2309
  231SOL    HW2  693   1.816   1.549   2.855 -0.0415  2.4205 -1.1731
  232SOL     OW  694   2.430   1.911   1.257  0.4436  0.0417  0.0569
  232SOL    HW1  695   2.432   1.817   1.235  0.2804  1.2585  0.1239
  232SOL    HW2  696   2.363   1.920   1.334 -0.1886  1.3407  0.6284
  233SOL     OW  697   0.141   2.781   1.548  0.4296  0.3418  0.3697
  233SOL    HW1  698   0.110   2.686   1.557  0.8216  0.0039  0.3384
  233SOL    HW2  699   0.065   2.839   1.528  0.2533  0.5829 -0.5909
  234SOL     OW  700   0.698   0.238   2.459 -0.2408  0.4750  0.4260
  234SOL    HW1  701   0.798   0.227   2.464  1.7294  0.9868  1.6160
  234SOL    HW2  702   0.657   0.237   2.549  0.4910 -0.5291  0.4387
  235SOL     OW  703   2.850   0.987   2.170  0.2290 -0.0913 -0.2083
  235SOL    HW1  704   2.911   1.009   2.093 -1.5160 -0.8040 -0.6165
  235SOL    HW2  705   2.819   0.889   2.166  0.6574 -1.3629 -1.3940
  236SOL     OW  706   1.144   2.746   1.777 -0.0293  0.4357 -0.2559
  236SOL    HW1  707   1.055   2.702   1.764  2.7510  1.0931  1.6706
  236SOL    HW2  708   1.161   2.748   1.880  0.5073  1.7356  0.3595
  237SOL     OW  709   0.447   1.658   2.724  0.1019 -0.3138  0.1738
  237SOL    HW1  710   0.447   1.672   2.622 -1.4331  1.5623 -0.0116
  237SOL    HW2  711   0.434   1.744   2.774  1.4676 -1.7096 -1.0419
  238SOL     OW  712   1.023   0.503   2.463 -0.5195  0.5409 -0.4315
  238SOL    HW1  713   1.013   0.576   2.389 -2.2976  2.5472 -1.7226
  238SOL    HW2  714   0.935   0.504   2.517 -2.8310 -1.4254 -0.3489
  239SOL     OW  715   0.329   2.062   2.032 -0.1928 -0.3059 -0.3309
  239SOL    HW1  716   0.365   1.968   2.043  2.4260  0.9597  0.1780
  239SOL    HW2  717   0.402   2.131   2.033 -0.4052 -1.1590 -1.0914
  240SOL     OW  718   2.529   2.917   0.396  0.6283 -0.7238  0.4361
  240SOL    HW1  719   2.491   2.939   0.491 -0.9342  1.7853  5.3949
  240SOL    HW2  720   2.517   2.991   0.329  0.5245  0.6706 -1.9940
  241SOL     OW  721   0.226   0.894   0.135  0.2294 -0.3849 -0.2346
  241SOL    HW1  722   0.140   0.860   0.166  1.8897  2.8062 -3.5453
  241SOL    HW2  723   0.219   0.989   0.099  0.5081 -0.5815  0.7856
  242SOL     OW  724   1.504   2.552   1.806  0.1477  0.3782 -0.5766
  242SOL    HW1  725   1.574   2.476   1.795  1.3651 -0.5195 -0.7150
  242SOL    HW2  726   1.412   2.513   1.773 -2.6888  1.1374  0.2047
  243SOL     OW  727   0.566   2.288   1.751  0.2924 -0.1473 -0.5092
  243SOL    HW1  728   0.663   2.292   1.727 -2.4898  0.3318 -2.5570
  243SOL    HW2  729   0.511   2.301   1.666  1.0411  0.6531  1.0380
  244SOL     OW  730   2.294   0.523   2.516  0.7042  0.6201  0.9928
  244SOL    HW1  731   2.191   0.525   2.544 -1.8832 -1.8564 -1.2832
  244SOL    HW2  732   2.343   0.616   2.521  4.0580  2.1269 -0.8077
  245SOL     OW  733   1.494   2.684   1.394 -0.0044  0.3542 -0.1052
  245SOL    HW1  734   1.547   2.759   1.437  0.0565  1.4530  0.3609
  245SOL    HW2  735   1.482   2.707   1.294 -2.8556  1.8255 -1.3959
  246SOL     OW  736   1.284   0.138   0.533  0.2063  0.0968  0.3412
  246SOL    HW1  737   1.203   0.119   0.588 -1.5117  1.1111  0.1470
  246SOL    HW2  738   1.264   0.210   0.459  0.6427  0.9948 -1.2266
  247SOL     OW  739   1.781   0.492   1.987  0.5007  0.0499  0.0233
  247SOL    HW1  740   1.734   0.400   1.987  0.7552 -2.4330  0.8578
  247SOL    HW2  741   1.826   0.506   1.899 -1.1695 -0.3380  0.1750
  248SOL     OW  742   2.928   2.029   1.818 -0.3826  0.3576 -0.4236
  248SOL    HW1  743   3.021   2.063   1.794  1.4021 -0.1429 -3.0709
  248SOL    HW2  744   2.927   1.931   1.822 -1.3324 -0.1500  2.4503
  249SOL     OW  745   0.019   0.204   0.385 -0.2057  0.2530  0.3774
  249SOL    HW1  746   3.035   0.126   0.373 -0.8405  0.4665  0.5897
  249SOL    HW2  747   0.000   0.245   0.477  0.5671  1.3037  1.2123
  250SOL     OW  748   2.652   0.007   2.358 -0.2198 -0.1117 -0.1570
  250SOL    HW1  749   2.613   3.003   2.399  2.0076 -1.1134  1.8449
  250SOL    HW2  750   2.607   0.032   2.270  1.7523 -0.5994 -1.4585
  251SOL     OW  751   1.392   0.632   0.102 -0.3638 -0.2691 -0.2781
  251SOL    HW1  752   1.362   0.544   0.075 -0.7910  5.6442 -1.7412
  251SOL    HW2  753   1.492   0.645   0.079 -1.6745 -1.1161  1.1167
  252SOL     OW  754   0.946   2.606   2.288  0.0428 -0.7426 -0.4785
  252SOL    HW1  755   1.040   2.601   2.326  1.2809  0.2351  1.8425
  252SOL    HW2  756   0.942   2.684   2.220  0.3663  0.5510 -1.8273
  253SOL     OW  757   2.523   2.589   0.878 -0.3331 -0.0680  0.3928
  253SOL    HW1  758   2.467   2.672   0.870  2.3104 -0.2130 -0.0658
  253SOL    HW2  759   2.589   2.578   0.796 -0.3728 -2.2893 -4.2714
  254SOL     OW  760   2.294   1.274   1.225  0.8365  0.2151  0.1487
  254SOL    HW1  761   2.341   1.279   1.314 -0.4168 -2.1028  1.0223
  254SOL    HW2  762   2.313   1.350   1.165  0.7492 -1.2683 -0.9773
  255SOL     OW  763   0.694   2.427   1.122 -0.3253 -0.6132  0.2179
  255SOL    HW1  764   0.661   2.517   1.154 -0.4180 -1.0243  0.4229
  255SOL    HW2  765   0.684   2.419   1.019  3.0093  0.7363  0.8712
  256SOL     OW  766   1.933   1.732   1.774 -0.5937 -0.3898  0.3566
  256SOL    HW1  767   1.882   1.711   1.685 -0.2904  2.2929 -2.6826
  256SOL    HW2  768   1.986   1.654   1.811  1.0398 -0.8006 -0.9786
  257SOL     OW  769   0.203   2.480   2.489  0.1101  0.0451 -0.3798
  257SOL    HW1  770   0.270   2.402   2.504  1.5833 -0.3100 -0.3568
  257SOL    HW2  771   0.192   2.529   2.579 -2.9722  0.7539 -1.0277
  258SOL     OW  772   0.613   2.771   0.931 -0.5963 -0.5593  0.3088
  258SOL    HW1  773   0.702   2.797   0.980  2.1115  2.8024  0.9558
  258SOL    HW2  774   0.557   2.708   0.990 -1.0028  2.4843 -2.1566
  259SOL     OW  775   1.411   0.288   2.800  0.3668  0.3736  0.3452
  259SOL    HW1  776   1.475   0.258   2.878  3.1823 -0.1092  2.5784
  259SOL    HW2  777   1.323   0.316   2.848 -0.0166  0.9606  2.2822
  260SOL     OW  778   0.303   0.486   1.205  0.2787  0.3043 -0.1748
  260SOL    HW1  779   0.225   0.437   1.161 -0.4562 -2.2660 -0.0100
  260SOL    HW2  780   0.395   0.452   1.177 -1.3603  1.9005 -1.6972
  261SOL     OW  781   0.571   0.004   2.350  0.3355  0.6363  0.5676
  261SOL    HW1  782   0.539   0.055   2.265  0.2412  0.7815  0.5787
  261SOL    HW2  783   0.649   0.056   2.398  1.1651  1.9711 -2.6161
  262SOL     OW  784   0.886   2.621   1.796  0.6027  0.4761 -0.0017
  262SOL    HW1  785   0.832   2.615   1.712  0.5919  0.4281  0.7559
  262SOL    HW2  786   0.827   2.609   1.878  2.0093  2.2478 -2.4015
  263SOL     OW  787   0.737   2.191   0.090 -0.7726 -0.3568  0.2035
  263SOL    HW1  788   0.838   2.187   0.123  1.1554  1.1986  0.8940
  263SOL    HW2  789   0.684   2.112   0.114  0.9461 -0.3422  0.3551
  264SOL     OW  790   1.681   1.703   1.156 -0.0760  0.3973  0.6044
  264SOL    HW1  791   1.746   1.754   1.215  1.0656  0.4061 -0.7668
  264SOL    HW2  792   1.722   1.614   1.123  1.9141 -3.2917 -0.7376
  265SOL     OW  793   0.884   2.413   0.529 -0.1519  0.2167  0.3755
  265SOL    HW1  794   0.888   2.356   0.614  0.8180  0.6911  1.4351
  265SOL    HW2  795   0.900   2.507   0.558 -3.3756  1.5719  1.1656
  266SOL     OW  796   2.758   1.042   0.758  0.0253  0.1325 -0.4886
  266SOL    HW1  797   2.700   0.965   0.717  1.5586 -0.2191  0.8240
  266SOL    HW2  798   2.842   1.005   0.803 -1.1785 -0.3116  0.3693
  267SOL     OW  799   0.263   1.422   0.180  0.1345 -0.6278  0.1676
  267SOL    HW1  800   0.347   1.364   0.193 -1.5256  0.5632 -0.8736
  267SOL    HW2  801   0.290   1.505   0.131 -0.7358  0.9632  2.2191
  268SOL     OW  802   1.764   0.450   0.426 -0.2607  0.1764  0.2474
  268SOL    HW1  803   1.733   0.355   0.445  0.2370  0.7927  0.2212
  268SOL    HW2  804   1.842   0.475   0.489  0.5806 -0.4264  2.6764
  269SOL     OW  805   0.025   0.824   2.335  0.2100  0.1202  0.2219
  269SOL    HW1  806   0.027   0.919   2.285 -0.5942  1.6952 -2.4955
  269SOL    HW2  807   3.064   0.753   2.273 -0.0089 -0.1069 -0.5322
  270SOL     OW  808   0.156   1.122   0.440  0.0443 -0.5443 -0.3311
  270SOL    HW1  809   0.115   1.122   0.534 -3.0252 -0.5638  0.7777
  270SOL    HW2  810   0.080   1.107   0.377  3.5906 -0.3234  1.8671
  271SOL     OW  811   2.837   1.448   2.072  0.2797  0.3328  0.3956
  271SOL    HW1  812   2.826   1.540   2.030  0.5254 -1.8065 -1.0495
  271SOL    HW2  813   2.934   1.426   2.092 -1.4704 -0.6877  0.4245
  272SOL     OW  814   2.342   2.460   1.704  0.3301 -0.3418  0.4324
  272SOL    HW1  815   2.442   2.463   1.690  1.1152  0.0481 -1.4812
  272SOL    HW2  816   2.318   2.460   1.803 -0.2875  1.4117 -0.5408
  273SOL     OW  817   3.072   2.512   0.258  0.1464  0.1160 -0.4509
  273SOL    HW1  818   0.084   2.529   0.289 -0.3332 -0.8649  2.0254
  273SOL    HW2  819   3.069   2.411   0.252  2.6042 -1.2229 -0.6847
  274SOL     OW  820   0.870   2.248   0.753 -0.2418  0.0824 -0.1794
  274SOL    HW1  821   0.803   2.175   0.731  0.0222 -0.2884  0.3865
  274SOL    HW2  822   0.925   2.221   0.835  2.1591 -0.9030  0.0649
  275SOL     OW  823   1.697   2.032   2.813 -0.2948 -0.0127 -0.5376
  275SOL    HW1  824   1.786   2.077   2.825  1.4382  1.1445  1.4606
  275SOL    HW2  825   1.702   1.960   2.736  2.6451 -0.9205  0.0214
  276SOL     OW  826   2.232   1.559   1.788  0.2209 -0.2153  0.2427
  276SOL    HW1  827   2.286   1.472   1.771  1.9962  0.6310 -0.0499
  276SOL    HW2  828   2.300   1.635   1.798 -0.9240  1.1175  2.3137
  277SOL     OW  829   2.126   0.232   0.708 -0.0254  0.6581 -0.3072
  277SOL    HW1  830   2.175   0.318   0.738  0.8862 -1.2258  0.0733
  277SOL    HW2  831   2.027   0.250   0.713  1.7925  1.2881 -1.8234
  278SOL     OW  832   1.585   0.468   2.678 -0.0402 -0.1024 -0.0792
  278SOL    HW1  833   1.521   0.421   2.738  2.2114 -2.0620  0.0739
  278SOL    HW2  834   1.573   0.572   2.681  0.4430  0.9619 -1.0406
  279SOL     OW  835   1.144   2.808   1.153  0.4425  0.7245  0.1611
  279SOL    HW1  836   1.170   2.720   1.106 -1.1086 -0.7415 -0.6625
  279SOL    HW2  837   1.100   2.784   1.245 -1.3738 -0.6052 -0.7092
  280SOL     OW  838   1.474   1.224   0.473 -0.4815 -0.2014 -0.3005
  280SOL    HW1  839   1.449   1.180   0.565 -1.7730  1.6018  0.8612
  280SOL    HW2  840   1.468   1.160   0.395  0.4636  0.9766 -1.2220
  281SOL     OW  841   2.366   1.738   0.468  0.5956 -0.7893  0.0161
  281SOL    HW1  842   2.418   1.783   0.389 -1.0543  2.5093  1.5321
  281SOL    HW2  843   2.362   1.806   0.547  1.9053 -0.4664  0.8234
  282SOL     OW  844   2.784   1.321   0.275 -0.5921  0.2867 -0.0580
  282SOL    HW1  845   2.815   1.275   0.360 -3.9510  2.5629 -1.3517
  282SOL    HW2  846   2.808   1.423   0.272 -0.0586  1.0221 -0.0193
  283SOL     OW  847   1.778   2.871   2.798  0.5780 -0.1749 -0.6958
  283SOL    HW1  848   1.774   2.958   2.740  0.5428  3.6301  2.0650
  283SOL    HW2  849   1.754   2.894   2.898  0.8195 -0.4154  1.8725
  284SOL     OW  850   0.691   3.046   2.972 -0.5949 -0.8216  0.2934
  284SOL    HW1  851   0.680   0.067   2.976 -1.3047  0.9207 -0.2845
  284SOL    HW2  852   0.717   3.007   3.066  1.4017 -1.0152 -0.6610
  285SOL     OW  853   1.976   1.647   2.851 -0.1591 -0.6821 -0.1393
  285SOL    HW1  854   2.062   1.616   2.896 -0.8181 -2.2176 -0.9130
  285SOL    HW2  855   1.997   1.707   2.767  3.0255  0.9641 -1.7239
  286SOL     OW  856   1.717   2.089   1.651 -0.7839  0.0537 -0.3681
  286SOL    HW1  857   1.701   1.990   1.639  0.6660  2.1003  0.3814
  286SOL    HW2  858   1.635   2.152   1.633 -1.0209  1.0325  0.9617
  287SOL     OW  859   1.628   0.143   1.446 -0.0059  0.2545  0.3075
  287SOL    HW1  860   1.698   0.068   1.464 -0.3494 -0.7429 -0.3451
  287SOL    HW2  861   1.529   0.101   1.454  1.4436  0.2218 -1.0270
  288SOL     OW  862   0.518   2.577   2.208  0.1846 -0.5766 -0.7450
  288SOL    HW1  863   0.507   2.647   2.283 -1.3778  2.4000  0.0949
  288SOL    HW2  864   0.433   2.572   2.151  1.2964  1.5014  1.2434
  289SOL     OW  865   0.355   1.796   0.836 -0.5780 -0.1980  0.1386
  289SOL    HW1  866   0.286   1.723   0.843 -1.4976  1.7127 -0.9874
  289SOL    HW2  867   0.317   1.889   0.832  0.7478  0.0326 -0.7916
  290SOL     OW  868   0.956   1.827   1.911 -0.4945 -0.0479  0.2632
  290SOL    HW1  869   0.968   1.800   2.011 -2.0919  2.2862  0.5381
  290SOL    HW2  870   1.009   1.913   1.889  0.2893  1.1063 -1.4005
  291SOL     OW  871   1.659   0.203   0.556  0.9195 -0.4400  0.8945
  291SOL    HW1  872   1.604   0.192   0.642 -1.3149 -2.5455 -0.9217
  291SOL    HW2  873   1.604   0.170   0.474 -0.6322  1.7728 -0.0156
  292SOL     OW  874   0.548   0.308   1.386  0.1100  0.1787 -0.8632
  292SOL    HW1  875   0.540   0.373   1.463  0.7750 -0.9621  1.9956
  292SOL    HW2  876   0.528   0.349   1.295  2.3589 -1.5464 -0.1510
  293SOL     OW  877   2.375   1.748   0.966  0.1046 -0.2033 -0.3497
  293SOL    HW1  878   2.457   1.808   0.976 -0.5732 -0.3995 -0.5076
  293SOL    HW2  879   2.410   1.658   0.928  2.6143 -2.4201  0.7833
  294SOL     OW  880   0.216   0.165   2.317 -0.6329  0.4675  0.0956
  294SOL    HW1  881   0.162   0.081   2.328 -1.1128  2.0292  0.3695
  294SOL    HW2  882   0.295   0.142   2.257 -2.7126 -0.2282  1.5077
  295SOL     OW  883   1.100   1.563   0.535 -0.4308 -0.0750  0.2387
  295SOL    HW1  884   1.201   1.556   0.524  0.7954  0.6922  1.4928
  295SOL    HW2  885   1.052   1.531   0.449 -0.4995  0.8188 -0.0140
  296SOL     OW  886   2.170   1.618   1.113 -0.1177  0.3423  0.1323
  296SOL    HW1  887   2.213   1.679   1.050 -2.8280 -2.5701 -0.6103
  296SOL    HW2  888   2.098   1.561   1.066  0.3053  0.2193 -1.1446
  297SOL     OW  889   1.821   0.518   2.810 -0.2409  0.3143 -0.1279
  297SOL    HW1  890   1.825   0.608   2.856 -2.3879  0.5447  1.3546
  297SOL    HW2  891   1.734   0.504   2.760 -0.3066 -2.6303 -1.4314
  298SOL     OW  892   1.191   0.133   2.565 -0.1076 -0.3021  0.0534
  298SOL    HW1  893   1.203   0.048   2.618 -1.8932 -1.4872 -1.3291
  298SOL    HW2  894   1.258   0.130   2.491 -0.7331 -1.9960 -1.5667
  299SOL     OW  895   0.944   0.428   1.889 -0.9580  0.4471  0.1037
  299SOL    HW1  896   1.009   0.382   1.949 -0.2537  0.4770  0.0264
  299SOL    HW2  897   0.921   0.370   1.807  0.4376  2.2313 -0.1437
  300SOL     OW  898   2.917   0.364   1.586  0.0979 -0.0608  0.1645
  300SOL    HW1  899   3.006   0.412   1.559 -0.7224  1.3149 -0.2852
  300SOL    HW2  900   2.926   0.307   1.667  0.1487 -1.6259  0.1237
  301SOL     OW  901   1.969   0.734   1.733 -0.4378  0.6094 -0.2415
  301SOL    HW1  902   1.956   0.774   1.638  0.5894 -2.1698  1.9359
  301SOL    HW2  903   1.920   0.643   1.747 -2.6145 -2.2821  0.1687
  302SOL     OW  904   0.768   2.972   0.135 -0.1305  0.0080 -0.0163
  302SOL    HW1  905   0.693   3.009   0.191  3.6910 -1.1023  0.7062
  302SOL    HW2  906   0.815   2.899   0.190  1.2990  1.5578  1.6086
  303SOL     OW  907   1.880   1.923   1.938  0.7182  0.1357  0.3452
  303SOL    HW1  908   1.955   1.987   1.941 -0.7300  0.5118 -0.1020
  303SOL    HW2  909   1.886   1.852   1.865 -0.6659 -2.4181 -0.5889
  304SOL     OW  910   0.322   0.053   0.708  0.0504  0.1731 -0.0447
  304SOL    HW1  911   0.346   0.075   0.611  0.2468  0.3813 -2.4998
  304SOL    HW2  912   0.401   0.012   0.759 -0.6739 -1.3040  2.9738
  305SOL     OW  913   1.325   0.892   0.405  0.3696  0.7273 -0.4066
  305SOL    HW1  914   1.375   0.960   0.345  0.2348 -1.7502  0.7592
  305SOL    HW2  915   1.269   0.824   0.351 -2.9868  1.5251  0.5227
  306SOL     OW  916   0.691   1.556   0.191  0.0550 -0.1891  0.1619
  306SOL    HW1  917   0.652   1.479   0.246 -0.4938 -3.1730 -2.0235
  306SOL    HW2  918   0.701   1.634   0.251 -1.5073 -1.4600 -0.1798
  307SOL     OW  919   0.797   0.661   1.949 -0.9548 -0.1721 -0.3160
  307SOL    HW1  920   0.753   0.664   2.043 -0.6616 -3.2073 -1.0249
  307SOL    HW2  921   0.841   0.572   1.931  1.3149 -0.9062  2.8851
  308SOL     OW  922   0.506   0.103   1.091 -0.2510 -0.1074  0.3273
  308SOL    HW1  923   0.504   0.207   1.098  0.2160  2.1607 -1.4976
  308SOL    HW2  924   0.593   0.070   1.129 -3.2206 -0.3717 -0.6081
  309SOL     OW  925   2.127   1.259   0.276 -0.5008  0.1393  0.0662
  309SOL    HW1  926   2.135   1.339   0.341  0.7474  2.0291 -3.1858
  309SOL    HW2  927   2.062   1.283   0.197 -2.2759  1.5031 -0.6100
  310SOL     OW  928   1.181   1.503   3.061  0.4296 -0.3782  0.0130
  310SOL    HW1  929   1.261   1.536   3.012  0.6445 -1.2871  0.2576
  310SOL    HW2  930   1.168   1.555   0.067 -0.7617 -0.7668 -0.4391
  311SOL     OW  931   1.844   2.482   2.067  0.6192 -0.0519  0.2956
  311SOL    HW1  932   1.880   2.428   1.990 -2.1365  1.8476  1.8572
  311SOL    HW2  933   1.755   2.443   2.100 -2.2649 -1.2507  4.0363
  312SOL     OW  934   2.368   2.954   0.036  0.2067  0.0711  0.4532
  312SOL    HW1  935   2.361   3.020   0.105  3.7264 -0.6091 -1.7644
  312SOL    HW2  936   2.326   2.982   3.028 -0.9867 -0.0463 -3.6943
  313SOL     OW  937   0.509   0.569   0.102 -0.1515  0.1717 -0.3079
  313SOL    HW1  938   0.521   0.559   0.004 -0.6030  1.9021  2.4173
  313SOL    HW2  939   0.593   0.547   0.157 -2.8565  0.1226 -1.2767
  314SOL     OW  940   2.683   1.315   2.822  0.0140  0.3320 -0.1625
  314SOL    HW1  941   2.613   1.385   2.842  1.3452  0.6654 -3.4547
  314SOL    HW2  942   2.753   1.309   2.898  1.5938  3.6092  2.2998
  315SOL     OW  943   1.665   0.717   2.069 -0.2054 -0.1179  0.0368
  315SOL    HW1  944   1.688   0.622   2.033  3.2527 -0.9670  0.4188
  315SOL    HW2  945   1.704   0.727   2.165 -1.7047 -3.2421 -0.6159
  316SOL     OW  946   0.078   1.139   0.702  0.3487 -0.2689  0.2409
  316SOL    HW1  947   3.081   1.083   0.734 -0.5744  0.2424 -0.3262
  316SOL    HW2  948   0.096   1.215   0.764  0.0175  2.0057 -0.4523
  317SOL     OW  949   0.642   0.010   0.328  0.1097  0.3265 -0.3212
  317SOL    HW1  950   0.651   0.104   0.361 -0.7804  1.1270 -0.2221
  317SOL    HW2  951   0.590   3.044   0.404 -2.4842  0.8704 -1.4678
  318SOL     OW  952   1.749   2.558   0.871 -0.1571 -0.6056  0.7043
  318SOL    HW1  953   1.794   2.494   0.934 -1.0805 -2.5181 -0.4180
  318SOL    HW2  954   1.800   2.552   0.779  3.5440  0.7918 -4.5077
  319SOL     OW  955   1.369   1.485   0.552  0.6938  0.0881  0.1720
  319SOL    HW1  956   1.377   1.406   0.489 -3.2322 -0.0035  0.3092
  319SOL    HW2  957   1.434   1.551   0.528 -3.4942 -3.0524  1.4493
  320SOL     OW  958   0.624   2.103   1.108  0.8088 -0.2770  0.7272
  320SOL    HW1  959   0.570   2.147   1.032 -0.9644  0.2866 -0.7763
  320SOL    HW2  960   0.704   2.160   1.133 -1.7152  1.3081 -0.1564
  321SOL     OW  961   2.263   2.468   1.965 -0.3045 -0.3159 -0.4930
  321SOL    HW1  962   2.280   2.401   2.038  1.4719 -0.6027 -1.2264
  321SOL    HW2  963   2.170   2.508   1.968  0.8811 -0.8139 -0.2045
  322SOL     OW  964   2.643   2.279   2.400 -0.4445 -0.0438  0.5896
  322SOL    HW1  965   2.739   2.294   2.373 -0.8958 -3.7773 -1.3681
  322SOL    HW2  966   2.586   2.299   2.318  0.2626 -0.5626 -1.0060
  323SOL     OW  967   2.551   0.867   0.674  0.4230  0.6119  0.2958
  323SOL    HW1  968   2.485   0.892   0.748 -1.6979 -2.2095  2.4628
  323SOL    HW2  969   2.510   0.793   0.617  1.3442 -1.4762  1.9274
  324SOL     OW  970   2.229   2.274   2.228 -0.0071  0.1312 -0.0582
  324SOL    HW1  971   2.220   2.371   2.260 -0.4256 -1.4775  1.5796
  324SOL    HW2  972   2.266   2.224   2.303 -2.6708  2.0085 -3.3679
  325SOL     OW  973   1.274   0.452   2.568 -0.0824 -0.2991 -0.2012
  325SOL    HW1  974   1.176   0.478   2.548  1.1040 -2.9103 -0.9062
  325SOL    HW2  975   1.284   0.405   2.661  1.0072 -1.3222 -2.3139
  326SOL     OW  976   2.407   2.337   0.879  0.6281  0.2739  0.4604
  326SOL    HW1  977   2.443   2.427   0.859 -0.5691  0.5901  1.1045
  326SOL    HW2  978   2.373   2.319   0.971 -0.1500  0.9793 -3.9570
  327SOL     OW  979   2.858   0.003   0.100 -0.5489  0.0951  1.1132
  327SOL    HW1  980   2.775   0.052   0.123  1.6819 -3.0635 -1.2306
  327SOL    HW2  981   2.859   3.059   3.078  1.1851 -2.5291 -1.7302
  328SOL     OW  982   1.175   0.667   0.659 -0.0346  0.3445  0.2076
  328SOL    HW1  983   1.195   0.615   0.744  0.0398  1.4245  2.2302
  328SOL    HW2  984   1.191   0.766   0.679  0.4886 -1.6889  1.2204
  329SOL     OW  985   2.194   0.723   1.307  0.2061 -0.0799 -0.4116
  329SOL    HW1  986   2.116   0.758   1.254 -0.2454  3.7102 -1.0430
  329SOL    HW2  987   2.259   0.680   1.245 -1.3571 -0.1897  1.0876
  330SOL     OW  988   0.936   0.598   0.548  0.6098  0.0445  0.5776
  330SOL    HW1  989   0.892   0.683   0.508  0.1626  0.7392 -2.3303
  330SOL    HW2  990   1.031   0.609   0.585  0.6581 -1.6224 -0.7835
  331SOL     OW  991   0.751   1.815   1.738  0.2077 -0.1250  0.1540
  331SOL    HW1  992   0.832   1.797   1.794 -1.4248 -0.5575 -3.1023
  331SOL    HW2  993   0.730   1.745   1.668 -0.6380 -1.8767  2.6585
  332SOL     OW  994   1.803   2.117   2.144  0.5168 -0.0863 -0.2018
  332SOL    HW1  995   1.899   2.094   2.117  1.6991 -2.8896 -1.8556
  332SOL    HW2  996   1.746   2.124   2.060 -0.3349  0.8924 -0.2695
  333SOL     OW  997   3.045   3.032   1.010 -0.2700 -0.1970  0.4153
  333SOL    HW1  998   2.971   0.011   1.051  0.4127 -0.2462 -1.5529
  333SOL    HW2  999   3.010   2.958   0.952 -1.3830  0.7050  1.3533
  334SOL     OW 1000   3.051   1.775   0.785 -0.5116 -0.1152  0.1201
  334SOL    HW1 1001   0.056   1.719   0.772 -0.5831 -1.1499 -2.9335
  334SOL    HW2 1002   3.046   1.844   0.713  0.9490  0.6191  0.4657
  335SOL     OW 1003   0.495   2.647   2.824 -0.4424 -0.2075  0.0456
  335SOL    HW1 1004   0.529   2.590   2.746 -0.6647  1.2615 -2.1344
  335SOL    HW2 1005   0.528   2.746   2.803  0.6016  0.0810 -0.0629
  336SOL     OW 1006   0.203   2.640   1.831 -0.4569 -0.0220 -0.0615
  336SOL    HW1 1007   0.140   2.583   1.773  1.1330  1.1116  1.3925
  336SOL    HW2 1008   0.162   2.728   1.853  0.0037  1.3361 -0.2617
  337SOL     OW 1009   1.210   2.057   2.173  0.0745  1.1381 -0.5553
  337SOL    HW1 1010   1.263   2.140   2.185 -0.7663  0.1966 -3.7767
  337SOL    HW2 1011   1.271   1.976   2.182 -0.7439  0.7195 -2.8116
  338SOL     OW 1012   0.953   0.159   2.456  0.1482  0.2469 -0.3022
  338SOL    HW1 1013   0.905   0.068   2.463 -0.9409  0.1031 -1.9280
  338SOL    HW2 1014   1.041   0.155   2.503 -0.8405  2.7027  0.1666
  339SOL     OW 1015   0.310   1.235   2.691  0.2308  0.3340 -0.3779
  339SOL    HW1 1016   0.283   1.210   2.784 -1.8592 -0.4981 -1.9202
  339SOL    HW2 1017   0.235   1.228   2.626  0.9526  0.7323  3.9324
  340SOL     OW 1018   2.020   0.517   1.366  0.2111 -0.2483 -0.2992
  340SOL    HW1 1019   2.100   0.581   1.369  0.2895  2.1035 -2.0205
  340SOL    HW2 1020   2.012   0.482   1.271  0.3489 -0.7771  3.1616
  341SOL     OW 1021   2.056   1.170   1.023 -0.2147  0.6089  0.1447
  341SOL    HW1 1022   2.124   1.106   1.063 -0.1491 -0.9235 -2.2845
  341SOL    HW2 1023   2.024   1.140   0.933 -0.2668  1.0818 -0.8307
  342SOL     OW 1024   2.194   2.683   2.686  0.6061 -0.7497  0.4635
  342SOL    HW1 1025   2.186   2.686   2.788  2.2461 -1.4124  3.6171
  342SOL    HW2 1026   2.105   2.700   2.643 -0.1246 -0.9123  0.6087
  343SOL     OW 1027   2.951   2.610   1.053 -0.5456  0.2517  0.3198
  343SOL    HW1 1028   3.040   2.571   1.086  0.1069 -0.9408  0.2888
  343SOL    HW2 1029   2.876   2.588   1.120 -2.4652 -1.8995 -0.5410
  344SOL     OW 1030   2.372   2.798   0.782 -0.5104  0.2817  0.1454
  344SOL    HW1 1031   2.417   2.884   0.749  0.6418  0.0153 -2.5060
  344SOL    HW2 1032   2.311   2.764   0.707  3.0283 -1.3181  0.7159
  345SOL     OW 1033   2.444   2.334   0.254 -0.1385 -0.0961  0.5270
  345SOL    HW1 1034   2.522   2.365   0.192  0.8852  1.7844 -0.1955
  345SOL    HW2 1035   2.446   2.375   0.351 -0.6208  0.2206 -2.6034
  346SOL     OW 1036   1.307   2.016   1.758  0.4362 -0.4515  0.0002
  346SOL    HW1 1037   1.383   1.971   1.814  2.1697 -0.3080  1.1308
  346SOL    HW2 1038   1.263   1.944   1.697  1.4252  1.3666  0.8063
  347SOL     OW 1039   1.100   2.064   1.917  0.4354  0.2711 -0.1079
  347SOL    HW1 1040   1.129   2.051   2.017  1.5515 -2.8460  3.5833
  347SOL    HW2 1041   1.181   2.060   1.854 -3.9806 -1.1607  1.0253
  348SOL     OW 1042   0.948   1.662   1.376 -0.1383 -0.3309  0.1292
  348SOL    HW1 1043   0.988   1.600   1.444 -1.4686 -0.5701  0.4923
  348SOL    HW2 1044   0.944   1.760   1.414  0.8025  4.2761  0.5038
  349SOL     OW 1045   1.647   1.405   1.527  0.4583  0.5601 -0.1235
  349SOL    HW1 1046   1.706   1.345   1.586  1.9021 -2.1633  0.9673
  349SOL    HW2 1047   1.558   1.362   1.530 -0.5294  2.3679  0.1319
  350SOL     OW 1048   2.206   2.321   0.538 -0.3305 -0.1803 -0.0246
  350SOL    HW1 1049   2.285   2.379   0.532 -1.7850 -1.8224  1.9069
  350SOL    HW2 1050   2.142   2.324   0.460 -0.5172  0.6602  0.5832
  351SOL     OW 1051   0.400   3.067   1.891  0.3294 -0.0337  0.4128
  351SOL    HW1 1052   0.394   3.026   1.796  2.3325  0.8618 -2.2140
  351SOL    HW2 1053   0.322   3.039   1.951 -1.3296  1.1889 -2.4679
  352SOL     OW 1054   0.689   1.116   0.476 -0.5141  0.4007 -0.2786
  352SOL    HW1 1055   0.719   1.129   0.571  0.2884  0.0401 -0.4735
  352SOL    HW2 1056   0.604   1.059   0.471  1.4544  2.1841  3.3660
  353SOL     OW 1057   1.163   1.772   2.806  0.1941 -0.1347  0.0533
  353SOL    HW1 1058   1.132   1.801   2.900 -1.2734  1.0698  0.3675
  353SOL    HW2 1059   1.112   1.693   2.767  0.5949  1.8445  1.2249
  354SOL     OW 1060   1.739   2.689   1.894 -0.4478  0.1466  0.1737
  354SOL    HW1 1061   1.765   2.654   1.991 -0.9107 -1.8731 -0.7326
  354SOL    HW2 1062   1.677   2.617   1.847 -0.3199  0.9584  1.5903
  355SOL     OW 1063   2.274   1.061   2.944 -0.3586  0.3902 -0.3964
  355SOL    HW1 1064   2.231   1.028   2.863 -0.5854  4.3695  3.1342
  355SOL    HW2 1065   2.207   1.084   3.017  1.0528  0.3610  0.9513
  356SOL     OW 1066   0.296   2.181   1.163 -0.0426  0.6510  0.0963
  356SOL    HW1 1067   0.291   2.137   1.256 -0.9934  1.4945 -0.4015
  356SOL    HW2 1068   0.314   2.109   1.088  0.0570 -3.7426 -1.2170
  357SOL     OW 1069   2.904   2.956   1.741 -0.4509 -0.1643 -0.4842
  357SOL    HW1 1070   2.875   2.859   1.734 -1.1941 -2.2170  0.2045
  357SOL    HW2 1071   2.954   2.977   1.652  1.8793  2.5292 -0.3571
  358SOL     OW 1072   2.382   1.715   1.486  0.3363 -0.2088 -0.4018
  358SOL    HW1 1073   2.292   1.762   1.473  2.3490 -0.2675 -0.8727
  358SOL    HW2 1074   2.396   1.653   1.407 -0.9260  0.4243 -0.1059
  359SOL     OW 1075   1.895   2.531   2.428 -0.8724  0.1842 -0.0695
  359SOL    HW1 1076   1.796   2.553   2.427  0.0026 -0.3866 -0.5087
  359SOL    HW2 1077   1.916   2.437   2.463  5.1895 -1.6464  4.1773
  360SOL     OW 1078   1.150   2.963   0.933  0.1961 -0.2322  0.0707
  360SOL    HW1 1079   1.055   2.980   0.894  1.7129 -0.8818 -0.3348
  360SOL    HW2 1080   1.147   2.922   1.025 -1.0226 -3.5800 -0.7641
  361SOL     OW 1081   1.853   0.291   0.715  0.3112  0.4566  0.1583
  361SOL    HW1 1082   1.769   0.261   0.661 -0.8636  1.3686 -3.0967
  361SOL    HW2 1083   1.834   0.307   0.814  0.4578  1.2844  0.9481
  362SOL     OW 1084   1.485   0.814   1.308  0.4295  0.6548 -0.7206
  362SOL    HW1 1085   1.550   0.830   1.234  0.8311 -1.8495  1.0592
  362SOL    HW2 1086   1.472   0.900   1.358 -1.0941 -0.7750  2.3047
  363SOL     OW 1087   1.766   1.541   1.980  0.0846  0.1565  0.5754
  363SOL    HW1 1088   1.717   1.455   2.008 -0.4643  0.7936 -1.5407
  363SOL    HW2 1089   1.868   1.528   1.980  1.3199  1.0026 -0.4957
  364SOL     OW 1090   0.633   0.736   1.295 -0.2023 -0.5640  0.0091
  364SOL    HW1 1091   0.691   0.664   1.256 -1.0314 -0.3722 -0.9863
  364SOL    HW2 1092   0.585   0.789   1.223 -1.1013  2.5348 -1.4391
  365SOL     OW 1093   0.370   0.250   2.564  0.1110  0.9578  0.0551
  365SOL    HW1 1094   0.385   0.351   2.574  2.2444 -4.5298 -2.5819
  365SOL    HW2 1095   0.319   0.226   2.477 -0.9335  1.0151  0.5037
  366SOL     OW 1096   2.157   1.400   2.914  0.4192 -0.0193  0.0898
  366SOL    HW1 1097   2.217   1.478   2.891 -0.3389  1.7519 -2.0183
  366SOL    HW2 1098   2.110   1.413   3.008  1.1307  0.9972  2.7176
  367SOL     OW 1099   2.704   2.562   2.866 -0.2509 -0.4100  0.2037
  367SOL    HW1 1100   2.731   2.639   2.929 -1.7868  1.0386  0.1135
  367SOL    HW2 1101   2.678   2.585   2.772 -1.7900  0.9515 -0.6644
  368SOL     OW 1102   0.145   1.360   0.933 -0.5958  0.1273 -0.1372
  368SOL    HW1 1103   0.049   1.322   0.951  0.4657 -0.6351  1.4907
  368SOL    HW2 1104   0.140   1.461   0.924  0.2642  3.2111 -1.4082
  369SOL     OW 1105   0.496   2.817   2.386 -0.0844 -0.2032 -0.0083
  369SOL    HW1 1106   0.548   2.759   2.455 -1.6547  0.5685  2.1232
  369SOL    HW2 1107   0.522   2.914   2.405  2.7006  1.8698 -0.7492
  370SOL     OW 1108   2.948   0.577   0.715  0.1058 -0.5680 -0.4245
  370SOL    HW1 1109   2.972   0.660   0.661  1.6990 -0.8377 -1.6889
  370SOL    HW2 1110   2.854   0.591   0.749  1.2717 -0.4986 -1.0648
  371SOL     OW 1111   1.245   2.468   1.702  0.4912 -0.0632  0.1108
  371SOL    HW1 1112   1.253   2.545   1.635  2.0129 -0.0900 -1.0248
  371SOL    HW2 1113   1.171   2.402   1.684 -0.4398  1.8248  2.1690
  372SOL     OW 1114   2.752   0.233   2.422  0.5323  0.1938 -0.3123
  372SOL    HW1 1115   2.703   0.146   2.429 -1.2172  3.3426  0.4531
  372SOL    HW2 1116   2.853   0.213   2.436  2.8365 -2.0478 -0.5459
  373SOL     OW 1117   0.027   2.211   0.540 -0.0688 -0.2406  0.0490
  373SOL    HW1 1118   0.080   2.298   0.554 -0.2188  2.7741 -2.5525
  373SOL    HW2 1119   3.006   2.230   0.547 -2.8782  2.3009 -0.3290
  374SOL     OW 1120   0.196   2.956   2.593 -0.1497 -0.2067  0.0257
  374SOL    HW1 1121   0.264   3.012   2.645  0.3780 -1.2452  2.5137
  374SOL    HW2 1122   0.194   2.985   2.493 -0.0981  1.3356 -0.5369
  375SOL     OW 1123   0.618   0.283   2.723 -0.2046 -0.1804 -0.0585
  375SOL    HW1 1124   0.635   0.273   2.827  0.0959 -1.7911  4.0592
  375SOL    HW2 1125   0.520   0.301   2.699 -0.2940 -1.9885 -2.0762
  376SOL     OW 1126   2.715   2.119   1.679 -0.3848 -0.3862 -0.5059
  376SOL    HW1 1127   2.804   2.101   1.724  0.0307 -1.3093 -1.2782
  376SOL    HW2 1128   2.731   2.152   1.583  1.4954 -3.5427 -3.8897
  377SOL     OW 1129   1.226   2.937   2.671  0.0812 -0.2351  0.0494
  377SOL    HW1 1130   1.198   2.927   2.768 -0.6353  0.4860 -1.8227
  377SOL    HW2 1131   1.329   2.939   2.670 -0.5306 -0.9142  1.4842
  378SOL     OW 1132   3.047   0.451   2.613  0.0252  0.2145 -0.1449
  378SOL    HW1 1133   0.027   0.522   2.574  2.2278  1.0458  1.6388
  378SOL    HW2 1134   3.044   0.367   2.553 -0.4418  1.9376 -1.2193
  379SOL     OW 1135   0.840   1.041   0.264 -0.5456 -0.3833 -0.8393
  379SOL    HW1 1136   0.796   1.067   0.176 -0.6057  0.9439 -0.1539
  379SOL    HW2 1137   0.789   1.062   0.350  0.5200  0.6712  1.5203
  380SOL     OW 1138   0.250   1.539   1.829 -0.7526  0.2706  0.2115
  380SOL    HW1 1139   0.286   1.635   1.840  0.2967 -0.7052 -0.1562
  380SOL    HW2 1140   0.282   1.496   1.747 -1.0313  0.9996  2.7056
  381SOL     OW 1141   0.102   1.174   2.501  0.4225 -0.3959  0.2135
  381SOL    HW1 1142   0.149   1.229   2.427 -1.9591 -1.2760 -6.0315
  381SOL    HW2 1143   0.019   1.229   2.530 -1.0746  1.9811 -2.8191
  382SOL     OW 1144   2.148   1.940   0.362  0.5169  0.4689  0.2797
  382SOL    HW1 1145   2.183   2.029   0.326  0.3221 -0.0623 -1.0885
  382SOL    HW2 1146   2.228   1.879   0.380  2.0406 -1.9015 -1.1376
  383SOL     OW 1147   0.602   1.974   0.203  0.2306  0.1887 -0.1586
  383SOL    HW1 1148   0.623   1.887   0.257  0.9585 -3.9070 -1.5086
  383SOL    HW2 1149   0.593   1.959   0.103 -2.2727  1.9052 -1.4704
  384SOL     OW 1150   0.585   2.091   2.443 -0.0235 -0.0780 -0.1369
  384SOL    HW1 1151   0.683   2.085   2.478  0.7951 -3.5131 -0.2695
  384SOL    HW2 1152   0.577   2.158   2.363  3.8909 -0.8511  2.9346
  385SOL     OW 1153   2.334   1.888   0.711  0.4754 -0.1676 -0.3703
  385SOL    HW1 1154   2.302   1.882   0.808 -0.3183  0.5934  1.6787
  385SOL    HW2 1155   2.373   1.982   0.699  0.2543 -1.0996 -0.6560
  386SOL     OW 1156   2.222   1.003   1.156  0.1478 -0.4718 -0.3645
  386SOL    HW1 1157   2.291   0.929   1.176  1.5934 -3.3520 -1.0470
  386SOL    HW2 1158   2.258   1.096   1.187  1.8200  2.3570 -0.3031
  387SOL     OW 1159   2.968   1.176   1.979 -0.2505  0.7659 -0.8412
  387SOL    HW1 1160   2.903   1.252   1.975 -2.5845  0.0350  0.8131
  387SOL    HW2 1161   3.043   1.198   1.917 -1.1570  2.6838 -1.3893
  388SOL     OW 1162   0.459   1.713   2.136 -0.3846  0.2918  0.6169
  388SOL    HW1 1163   0.544   1.771   2.129  0.3168 -0.2683  1.3752
  388SOL    HW2 1164   0.459   1.641   2.062 -0.6379 -1.6022 -0.2707
  389SOL     OW 1165   0.795   0.987   1.773  0.1332 -0.4401  0.2100
  389SOL    HW1 1166   0.812   1.032   1.686  0.8562 -1.5061  1.0870
  389SOL    HW2 1167   0.874   0.921   1.793 -1.6330 -0.6945  0.3466
  390SOL     OW 1168   2.463   3.059   0.728 -0.4273  0.7240 -0.1032
  390SOL    HW1 1169   2.376   0.011   0.698  1.5297 -2.9047 -0.1834
  390SOL    HW2 1170   2.480   3.074   0.826 -1.6860  0.0631  2.2485
  391SOL     OW 1171   1.545   1.650   1.411 -0.1852  0.2071  0.7212
  391SOL    HW1 1172   1.570   1.558   1.454 -0.2939 -2.3309  0.3951
  391SOL    HW2 1173   1.580   1.662   1.315  0.2535  1.5052  0.4134
  392SOL     OW 1174   2.778   2.740   3.052  0.0586 -0.5189 -0.1495
  392SOL    HW1 1175   2.798   2.835   3.017 -0.6582 -0.5156 -2.5375
  392SOL    HW2 1176   2.865   2.695   3.074 -3.2131 -0.5112 -0.1428
  393SOL     OW 1177   1.547   2.564   2.869  0.5060  0.3385  0.1838
  393SOL    HW1 1178   1.642   2.579   2.879 -2.0047 -0.9357 -0.5760
  393SOL    HW2 1179   1.515   2.605   2.779 -0.6205 -0.3132  1.0049
  394SOL     OW 1180   2.887   2.571   2.398 -0.1649 -0.4635 -0.1888
  394SOL    HW1 1181   2.903   2.573   2.502 -0.0664 -1.9064  0.5392
  394SOL    HW2 1182   2.865   2.477   2.366  0.8440  3.4020 -0.5418
  395SOL     OW 1183   3.080   0.345   0.619 -0.4561  0.1694 -0.3158
  395SOL    HW1 1184   3.010   0.406   0.655 -1.2826 -1.7174  1.0155
  395SOL    HW2 1185   0.022   0.268   0.688  1.2026 -2.2206  2.2317
  396SOL     OW 1186   2.085   0.670   0.455  0.4090 -0.0002 -0.4789
  396SOL    HW1 1187   2.082   0.770   0.434  0.1728  0.9665  0.7241
  396SOL    HW2 1188   2.028   0.645   0.535  0.8009  1.0042  1.7133
  397SOL     OW 1189   0.364   0.632   2.211  0.2689  0.2493  0.4379
  397SOL    HW1 1190   0.388   0.552   2.151  0.4765 -3.4497 -0.0144
  397SOL    HW2 1191   0.363   0.719   2.163 -3.7713 -0.7211  2.2581
  398SOL     OW 1192   0.988   3.040   0.526  0.0255 -0.3284 -0.1813
  398SOL    HW1 1193   1.039   3.030   0.441 -3.8807 -1.6260  0.4941
  398SOL    HW2 1194   0.930   0.042   0.527 -0.4271 -1.0865  0.9528
  399SOL     OW 1195   2.230   0.214   2.029  0.2592 -0.0391 -0.1781
  399SOL    HW1 1196   2.234   0.188   2.127 -0.8586 -0.8144  0.8934
  399SOL    HW2 1197   2.214   0.312   2.024 -1.9252 -5.1142  1.5539
  400SOL     OW 1198   0.867   2.085   2.511 -0.2184  0.7226 -0.1831
  400SOL    HW1 1199   0.922   2.134   2.444  0.8052 -1.4348  3.5044
  400SOL    HW2 1200   0.875   2.136   2.597 -0.8016  1.4609 -0.5764
  401SOL     OW 1201   0.551   1.339   2.669 -0.1054 -0.6291 -0.2183
  401SOL    HW1 1202   0.557   1.390   2.755 -0.7618  0.7392 -1.6139
  401SOL    HW2 1203   0.462   1.294   2.660  2.0237 -2.1354  1.7815
  402SOL     OW 1204   0.184   2.627   0.511 -0.2464 -0.0659 -0.4072
  402SOL    HW1 1205   0.239   2.590   0.433 -0.6277 -0.2726  0.3576
  402SOL    HW2 1206   0.159   2.556   0.577  1.6371 -0.8381  1.3130
  403SOL     OW 1207   0.544   1.239   1.768  0.0384  0.1628  0.1606
  403SOL    HW1 1208   0.589   1.226   1.859  1.5820 -0.0078 -1.1114
  403SOL    HW2 1209   0.442   1.225   1.775  1.4846 -0.6901  0.3927
  404SOL     OW 1210   2.556   2.390   2.163  0.0368 -0.6770  0.0019
  404SOL    HW1 1211   2.631   2.345   2.103  2.1578 -2.5520  1.1453
  404SOL    HW2 1212   2.512   2.466   2.116  0.9920 -2.7050 -0.8200
  405SOL     OW 1213   0.150   0.339   1.934  0.2977  0.4026 -0.3659
  405SOL    HW1 1214   0.168   0.355   2.032  1.7983  1.3750 -1.7051
  405SOL    HW2 1215   0.166   0.427   1.877 -0.2644 -0.0305 -2.3336
  406SOL     OW 1216   1.293   1.431   2.734  0.3050 -0.0814 -0.1276
  406SOL    HW1 1217   1.331   1.516   2.786  2.8509 -3.0404 -0.4771
  406SOL    HW2 1218   1.200   1.443   2.699  0.1972  0.9639  1.1547
  407SOL     OW 1219   1.840   0.965   2.704 -0.0767 -0.1836  0.0604
  407SOL    HW1 1220   1.741   0.982   2.690  0.9790 -0.6455 -2.4623
  407SOL    HW2 1221   1.875   0.917   2.625 -1.3042  0.9321  5.0332
  408SOL     OW 1222   0.225   2.814   2.341 -0.6807 -0.4683  0.4991
  408SOL    HW1 1223   0.323   2.799   2.354 -0.0904  0.7445  0.1575
  408SOL    HW2 1224   0.178   2.727   2.316  2.6312 -0.7475 -1.3261
  409SOL     OW 1225   0.067   2.244   0.888  0.2866  0.1067  0.0983
  409SOL    HW1 1226   3.048   2.246   0.882 -1.1305  0.3388 -1.3261
  409SOL    HW2 1227   0.105   2.308   0.953 -0.9915  0.6350 -2.2329
  410SOL     OW 1228   2.755   1.703   0.357  0.3739 -0.0242 -0.6534
  410SOL    HW1 1229   2.799   1.793   0.370 -1.4639 -2.4897  3.3562
  410SOL    HW2 1230   2.822   1.646   0.303 -0.4898  0.1844 -0.0014
  411SOL     OW 1231   2.842   0.168   1.080 -0.6351  0.5000  0.1762
  411SOL    HW1 1232   2.858   0.187   1.179  0.4409 -0.7689  0.6265
  411SOL    HW2 1233   2.833   0.258   1.028  1.0020  2.4619 -1.4114
  412SOL     OW 1234   2.059   0.364   1.590  0.3469 -0.2157  0.5485
  412SOL    HW1 1235   2.105   0.276   1.559  0.9062  1.7170  3.5103
  412SOL    HW2 1236   2.028   0.416   1.507  1.1684 -0.9355  0.1163
  413SOL     OW 1237   0.474   0.415   2.070  0.1614  0.4323  0.0148
  413SOL    HW1 1238   0.483   0.381   1.972 -0.5760  0.3481  0.7433
  413SOL    HW2 1239   0.566   0.431   2.111 -0.7812  0.4670 -0.0274
  414SOL     OW 1240   3.054   1.104   2.846  0.0430 -0.3748  0.3263
  414SOL    HW1 1241   3.028   1.203   2.837 -1.3696  3.2447  0.3741
  414SOL    HW2 1242   2.976   1.051   2.891 -0.1392 -0.2203  1.0444
  415SOL     OW 1243   0.769   2.677   0.013 -0.1116 -0.1314 -0.6753
  415SOL    HW1 1244   0.867   2.679   3.070 -0.9973  2.8337 -1.3891
  415SOL    HW2 1245   0.724   2.767   0.028  1.8822 -1.5686 -0.2151
  416SOL     OW 1246   1.416   0.121   2.379  0.2033 -0.4915 -0.0972
  416SOL    HW1 1247   1.410   0.047   2.307 -1.5183 -2.4042 -1.7868
  416SOL    HW2 1248   1.391   0.214   2.342  0.1240 -1.5090  2.4974
  417SOL     OW 1249   0.366   0.668   0.900 -0.1546 -0.5679 -0.0416
  417SOL    HW1 1250   0.417   0.587   0.875 -0.3207 -2.0366  0.6310
  417SOL    HW2 1251   0.268   0.654   0.917  0.2704  0.5069 -0.2017
  418SOL     OW 1252   2.687   0.150   0.660 -0.4278 -0.1141 -0.3676
  418SOL    HW1 1253   2.625   0.081   0.688  3.5862  1.7079 -0.5082
  418SOL    HW2 1254   2.644   0.231   0.621  4.1691 -0.7011  1.7733
  419SOL     OW 1255   0.323   2.887   0.462 -0.0385  0.2032  0.3673
  419SOL    HW1 1256   0.333   2.883   0.361  2.5294  0.5919 -0.0860
  419SOL    HW2 1257   0.261   2.812   0.494 -1.1880 -0.1338  1.8162
  420SOL     OW 1258   0.265   1.202   1.806 -0.5625  0.2644  0.0159
  420SOL    HW1 1259   0.193   1.275   1.795 -1.8749 -0.0511 -1.0834
  420SOL    HW2 1260   0.234   1.113   1.763 -2.0024 -0.6551 -0.7754
  421SOL     OW 1261   1.901   2.510   0.649 -0.2320 -0.1811  0.1607
  421SOL    HW1 1262   1.935   2.597   0.599  0.6347  0.4652  2.2507
  421SOL    HW2 1263   1.841   2.453   0.595  1.2632  1.3999  1.6512
  422SOL     OW 1264   0.167   0.698   1.303 -0.4357  0.3784 -0.0540
  422SOL    HW1 1265   0.228   0.630   1.262  1.1428  1.4328  0.1035
  422SOL    HW2 1266   0.216   0.779   1.347  1.9664  0.5209  1.9997
  423SOL     OW 1267   1.002   1.485   1.862 -0.9109 -0.1468  0.5880
  423SOL    HW1 1268   1.068   1.540   1.812 -0.0445 -0.2432 -0.1918
  423SOL    HW2 1269   0.937   1.545   1.911  2.0488 -1.3848  1.1072
  424SOL     OW 1270   1.789   2.175   0.204 -0.0186 -0.4200  0.0636
  424SOL    HW1 1271   1.731   2.217   0.132 -2.1665  1.3708  0.4589
  424SOL    HW2 1272   1.810   2.080   0.180 -0.2656  1.1821  1.2682
  425SOL     OW 1273   2.723   3.021   1.926 -0.4301 -0.0560 -0.2479
  425SOL    HW1 1274   2.759   0.018   1.985 -1.3357 -0.9040 -0.2434
  425SOL    HW2 1275   2.788   2.999   1.848  0.1662  2.4811  1.6428
  426SOL     OW 1276   2.938   2.640   2.667 -0.4346 -0.1514 -0.0870
  426SOL    HW1 1277   2.998   2.684   2.738 -1.8158  0.9309 -0.3718
  426SOL    HW2 1278   2.902   2.548   2.695 -0.2730  0.9293 -1.2469
  427SOL     OW 1279   1.005   0.424   0.318  0.0943 -0.0809 -0.5791
  427SOL    HW1 1280   0.939   0.375   0.260 -0.1341 -1.1279 -1.8001
  427SOL    HW2 1281   0.961   0.466   0.399  0.7523 -2.8532 -1.7180
  428SOL     OW 1282   3.018   0.456   1.227  0.1133  0.1855  0.2392
  428SOL    HW1 1283   3.055   0.364   1.224 -1.9621  3.2135 -0.8990
  428SOL    HW2 1284   2.921   0.464   1.192 -0.3255 -1.8025 -1.8613
  429SOL     OW 1285   2.051   3.019   0.984 -0.6703  0.4814  0.5984
  429SOL    HW1 1286   1.965   2.975   0.953  2.5929  1.7273 -0.6006
  429SOL    HW2 1287   2.123   2.946   0.999 -1.3595 -0.0505 -0.4191
  430SOL     OW 1288   0.768   1.619   2.508 -0.1992  0.3696 -0.0468
  430SOL    HW1 1289   0.798   1.699   2.564  1.5502  0.7668 -0.8876
  430SOL    HW2 1290   0.671   1.634   2.489  1.4098  1.2158 -2.4836
  431SOL     OW 1291   2.850   1.743   1.230 -0.2160  0.4191 -0.4275
  431SOL    HW1 1292   2.859   1.773   1.326  0.1289  1.2037  1.3094
  431SOL    HW2 1293   2.905   1.807   1.176  0.4398  2.3444 -0.1429
  432SOL     OW 1294   1.253   2.640   2.331  0.0209  0.1153  0.0652
  432SOL    HW1 1295   1.335   2.696   2.335  0.4351  0.5936  0.6007
  432SOL    HW2 1296   1.275   2.545   2.345  1.3463  0.6950 -0.4278
  433SOL     OW 1297   1.645   0.314   2.445  0.0207 -0.2558  0.7610
  433SOL    HW1 1298   1.554   0.282   2.403 -2.3513 -0.3133  1.4247
  433SOL    HW2 1299   1.628   0.380   2.518  0.3815  0.9931 -0.2297
  434SOL     OW 1300   0.452   2.323   2.008 -0.7169 -0.1656  0.3202
  434SOL    HW1 1301   0.505   2.323   1.918 -1.7275 -0.2230  1.5857
  434SOL    HW2 1302   0.413   2.416   2.016  3.2215 -0.3948  0.6714
  435SOL     OW 1303   0.320   0.124   0.422 -0.2686  0.1207 -0.4798
  435SOL    HW1 1304   0.219   0.137   0.398 -2.8951 -1.5791  3.4324
  435SOL    HW2 1305   0.361   0.061   0.349  0.9801  1.5882 -1.2631
  436SOL     OW 1306   0.535   1.088   2.443 -0.0847 -0.9084  0.1408
  436SOL    HW1 1307   0.510   1.090   2.542 -1.0881 -1.9327  0.0637
  436SOL    HW2 1308   0.606   1.016   2.432 -0.6005  0.2152 -0.1182
  437SOL     OW 1309   0.624   2.516   2.613  0.0622  0.0178  0.3330
  437SOL    HW1 1310   0.716   2.500   2.569  0.6994 -2.8062 -0.5982
  437SOL    HW2 1311   0.554   2.469   2.554  1.6454 -1.5415  0.0813
  438SOL     OW 1312   0.959   1.060   0.701  0.7754 -0.1505  0.0520
  438SOL    HW1 1313   1.017   1.059   0.780 -0.7151 -1.2586 -2.8096
  438SOL    HW2 1314   1.019   1.066   0.620 -1.7151 -3.5974  2.4791
  439SOL     OW 1315   2.669   1.475   2.311  0.2047 -0.1528 -0.3722
  439SOL    HW1 1316   2.755   1.475   2.266 -1.5835 -3.5149  3.7717
  439SOL    HW2 1317   2.674   1.400   2.380  0.5724  0.6601 -0.1605
  440SOL     OW 1318   2.839   0.711   2.819  0.3139 -0.5251  0.3505
  440SOL    HW1 1319   2.852   0.751   2.723 -2.4795 -2.0576 -0.8711
  440SOL    HW2 1320   2.891   0.620   2.824  5.8341  0.3835  1.3466
  441SOL     OW 1321   1.111   2.211   1.649  0.2287  0.0467  0.1051
  441SOL    HW1 1322   1.059   2.199   1.735 -0.3688  0.9922 -0.0079
  441SOL    HW2 1323   1.206   2.165   1.654  1.3676 -1.0351 -1.5151
  442SOL     OW 1324   2.027   1.427   0.969  0.6545 -0.0849 -0.1450
  442SOL    HW1 1325   2.049   1.331   0.996 -2.2520  2.5031  0.9544
  442SOL    HW2 1326   2.072   1.450   0.879  0.1555  0.4757  0.3224
  443SOL     OW 1327   2.477   2.079   2.759  0.3407  0.1368  0.1334
  443SOL    HW1 1328   2.526   2.022   2.829  0.2397  0.8477 -2.9376
  443SOL    HW2 1329   2.444   2.169   2.800 -0.2139  2.0551  1.7771
  444SOL     OW 1330   2.001   1.527   2.492 -0.3975  0.2204  0.0062
  444SOL    HW1 1331   1.920   1.565   2.446 -0.9386 -0.6129 -1.5267
  444SOL    HW2 1332   2.030   1.587   2.568  2.0886  0.0266  2.3336
  445SOL     OW 1333   0.087   2.144   2.149 -0.2422 -0.0489  0.7468
  445SOL    HW1 1334   0.178   2.106   2.115 -0.0753 -2.7829 -2.3049
  445SOL    HW2 1335   0.057   2.211   2.079  1.0397 -1.4947 -0.0786
  446SOL     OW 1336   1.164   0.944   1.575  0.3890 -0.0663  0.0580
  446SOL    HW1 1337   1.135   0.896   1.659 -1.7304  0.2685  0.0894
  446SOL    HW2 1338   1.082   0.931   1.515 -1.3683 -0.3605  3.2772
  447SOL     OW 1339   1.162   1.093   0.508 -0.6715 -0.8650 -1.0511
  447SOL    HW1 1340   1.150   1.164   0.438  2.4179  1.5217  2.1337
  447SOL    HW2 1341   1.226   1.020   0.475  0.9326 -0.5744 -2.4276
  448SOL     OW 1342   0.804   1.339   2.567  0.1661 -0.4199 -0.0846
  448SOL    HW1 1343   0.824   1.435   2.539  0.8520  0.5706 -1.4697
  448SOL    HW2 1344   0.709   1.337   2.608  0.5337  1.0399  1.1615
  449SOL     OW 1345   3.056   1.900   2.518 -0.0061 -0.3411  0.0303
  449SOL    HW1 1346   0.050   1.954   2.474  1.1097  0.9434  0.7159
  449SOL    HW2 1347   0.002   1.799   2.529 -2.5533 -0.5665 -1.0712
  450SOL     OW 1348   2.033   1.528   1.973 -0.1228  0.4732  0.2661
  450SOL    HW1 1349   2.066   1.507   2.065 -0.9365  1.4095 -1.9821
  450SOL    HW2 1350   2.116   1.551   1.921  0.3375  0.6286  1.0813
  451SOL     OW 1351   2.668   1.395   1.321  0.8911 -0.2962  0.7289
  451SOL    HW1 1352   2.679   1.485   1.282  1.2732 -0.5427  1.2919
  451SOL    HW2 1353   2.757   1.361   1.359 -0.0706 -2.1447 -0.3554
  452SOL     OW 1354   0.869   1.196   1.051  0.5527  0.3587 -0.0134
  452SOL    HW1 1355   0.803   1.120   1.066  1.4672 -1.5687 -1.7212
  452SOL    HW2 1356   0.926   1.218   1.136 -0.4290  1.8966  0.5499
  453SOL     OW 1357   0.619   1.753   0.796 -0.1864 -0.1113  0.3444
  453SOL    HW1 1358   0.525   1.779   0.820  0.8982  0.1260 -1.5652
  453SOL    HW2 1359   0.631   1.656   0.781 -1.6246 -0.4478  1.2361
  454SOL     OW 1360   1.117   1.645   0.208  0.2377  0.2954  0.0179
  454SOL    HW1 1361   1.190   1.667   0.274 -0.1707 -2.1130 -0.7392
  454SOL    HW2 1362   1.076   1.559   0.231  1.6023  2.8521  0.9017
  455SOL     OW 1363   1.712   0.505   1.198  0.3273  0.7949 -0.0830
  455SOL    HW1 1364   1.722   0.557   1.283 -2.0587 -0.9066 -1.7504
  455SOL    HW2 1365   1.643   0.550   1.139 -0.9138  0.6723 -1.7361
  456SOL     OW 1366   1.615   2.811   0.892  0.1537  0.5523  0.5278
  456SOL    HW1 1367   1.577   2.853   0.807  2.4577 -1.4589  1.4655
  456SOL    HW2 1368   1.657   2.722   0.873 -1.5486  1.8333 -0.1070
  457SOL     OW 1369   2.044   0.578   2.636 -0.3234  0.0321  0.0258
  457SOL    HW1 1370   1.954   0.546   2.669  1.5845  0.9894  0.5628
  457SOL    HW2 1371   2.102   0.567   2.719 -1.4954 -1.6279 -1.9911
  458SOL     OW 1372   2.801   0.485   2.485  0.0582  0.4542 -0.2286
  458SOL    HW1 1373   2.776   0.398   2.446  2.0298  1.9382 -0.4562
  458SOL    HW2 1374   2.898   0.473   2.519  3.4358 -0.8738 -0.3996
  459SOL     OW 1375   2.401   1.336   2.313 -0.9869 -0.5065  0.1395
  459SOL    HW1 1376   2.495   1.361   2.292 -0.9808 -1.9384 -0.7090
  459SOL    HW2 1377   2.335   1.403   2.278  2.2781  0.8177  1.5793
  460SOL     OW 1378   0.718   0.787   2.928 -0.0326  0.2805  0.5569
  460SOL    HW1 1379   0.761   0.816   3.014  1.0210 -0.1169  1.2578
  460SOL    HW2 1380   0.777   0.803   2.849 -0.1495 -1.4320  0.1461
  461SOL     OW 1381   0.121   2.275   3.064 -0.0870 -0.5386  0.1033
  461SOL    HW1 1382   0.069   2.283   0.072 -0.8732  2.4682  4.3765
  461SOL    HW2 1383   0.142   2.176   3.043  3.2942 -1.3825 -1.4587
  462SOL     OW 1384   0.860   3.059   2.145 -1.2734  0.9477  0.1368
  462SOL    HW1 1385   0.859   3.049   2.247  0.2591 -0.1361 -3.6566
  462SOL    HW2 1386   0.810   0.063   2.117 -0.8554  0.5229  1.5967
  463SOL     OW 1387   1.454   2.229   2.181 -0.0530  0.3354 -0.1178
  463SOL    HW1 1388   1.494   2.133   2.193  1.1793 -3.9773 -2.0700
  463SOL    HW2 1389   1.519   2.306   2.193 -0.3888  1.6912  0.2685
  464SOL     OW 1390   2.539   2.637   1.159  0.1859  0.1014  0.2832
  464SOL    HW1 1391   2.609   2.714   1.171  2.8859  2.9249 -0.4083
  464SOL    HW2 1392   2.555   2.589   1.070 -0.2330  2.0401  0.1392
  465SOL     OW 1393   0.240   0.271   1.471  0.0691  0.2886 -0.0737
  465SOL    HW1 1394   0.205   0.192   1.531 -1.5336 -2.5063  2.2310
  465SOL    HW2 1395   0.313   0.233   1.411  0.0879  1.6282  2.3283
  466SOL     OW 1396   1.070   2.263   2.485 -0.5362 -0.1730  0.3005
  466SOL    HW1 1397   1.131   2.333   2.451  1.3282 -2.5294  1.3844
  466SOL    HW2 1398   1.129   2.192   2.528  3.0477 -0.1940 -1.9907
  467SOL     OW 1399   3.072   2.230   0.237  0.6366 -0.0511 -0.2258
  467SOL    HW1 1400   2.973   2.212   0.263 -1.4367  2.0916 -2.2617
  467SOL    HW2 1401   0.046   2.150   0.268 -3.6781  3.2026  0.3376
  468SOL     OW 1402   1.968   1.909   2.957  0.0023 -0.2963 -0.5834
  468SOL    HW1 1403   1.907   1.839   2.919  2.7261 -0.0365  0.0914
  468SOL    HW2 1404   2.066   1.872   2.957 -0.8377 -2.8557  1.2356
  469SOL     OW 1405   1.231   2.039   0.950  0.5563  0.1738  0.0014
  469SOL    HW1 1406   1.211   2.025   1.048  0.2271 -1.5664  2.8354
  469SOL    HW2 1407   1.325   2.005   0.922  0.3357  0.4684 -0.5907
  470SOL     OW 1408   1.905   0.679   1.015  0.0615 -0.3618 -0.3227
  470SOL    HW1 1409   1.819   0.648   0.975  1.3495  2.5340 -0.0462
  470SOL    HW2 1410   1.897   0.761   1.076 -2.1392  2.2114  2.5030
  471SOL     OW 1411   0.413   2.088   0.355  0.1855 -0.3168  0.4173
  471SOL    HW1 1412   0.469   2.040   0.289 -0.6954  0.5529 -2.8849
  471SOL    HW2 1413   0.314   2.071   0.331  0.4061 -1.1137  0.6774
  472SOL     OW 1414   2.515   1.526   2.746 -0.1175  0.0869  0.0969
  472SOL    HW1 1415   2.571   1.580   2.677  1.0991  0.6377 -1.1366
  472SOL    HW2 1416   2.455   1.456   2.704 -1.0112  0.4916  2.4723
  473SOL     OW 1417   1.507   1.989   0.692 -0.1494  0.3541 -0.7577
  473SOL    HW1 1418   1.463   2.069   0.643 -1.2716  2.5144 -2.1754
  473SOL    HW2 1419   1.540   2.012   0.789  0.4098  2.8060  0.5259
  474SOL     OW 1420   2.772   0.351   0.898 -0.2031  0.0721  0.1890
  474SOL    HW1 1421   2.764   0.269   0.845  1.0367  2.0044 -0.9357
  474SOL    HW2 1422   2.788   0.429   0.833  1.8762 -1.2832 -1.6528
  475SOL     OW 1423   2.378   2.691   1.404 -0.3259 -0.0487 -0.7149
  475SOL    HW1 1424   2.297   2.679   1.464  0.3450 -0.0573 -1.7830
  475SOL    HW2 1425   2.371   2.629   1.324 -1.6127  0.1548  3.2476
  476SOL     OW 1426   0.493   0.415   0.829 -0.4665  0.0284  0.1295
  476SOL    HW1 1427   0.437   0.388   0.749  0.7801  0.2295  1.8912
  476SOL    HW2 1428   0.593   0.426   0.798  2.4495 -0.7467 -0.9905
  477SOL     OW 1429   1.129   2.257   1.403 -0.2199 -0.1896 -0.7636
  477SOL    HW1 1430   1.128   2.355   1.378  0.4285 -1.3566 -2.8663
  477SOL    HW2 1431   1.107   2.244   1.501  0.4218 -1.2144 -2.7852
  478SOL     OW 1432   1.184   2.481   2.899 -0.1225 -0.4303  1.1372
  478SOL    HW1 1433   1.159   2.521   2.802  0.3474 -0.8076  0.8686
  478SOL    HW2 1434   1.191   2.378   2.902 -0.0928  0.2672 -0.2891
  479SOL     OW 1435   2.634   0.841   1.709  0.6288  0.1638 -0.4893
  479SOL    HW1 1436   2.635   0.940   1.679 -1.8649  3.0237  0.2839
  479SOL    HW2 1437   2.709   0.790   1.662 -1.0696  0.8582  1.8983
  480SOL     OW 1438   2.819   2.208   2.614  0.0758 -0.3577  0.0092
  480SOL    HW1 1439   2.910   2.236   2.578  1.3345 -0.2576 -0.1908
  480SOL    HW2 1440   2.741   2.247   2.563  2.0317  1.0481  0.7877
  481SOL     OW 1441   1.616   0.039   1.986  0.1742 -0.5766  0.4294
  481SOL    HW1 1442   1.690   0.042   2.051 -0.8692 -0.4451 -1.0653
  481SOL    HW2 1443   1.591   0.135   1.956 -3.9584 -1.4719  1.6267
  482SOL     OW 1444   1.533   2.256   2.833 -0.2232  0.1432 -0.4365
  482SOL    HW1 1445   1.563   2.346   2.866 -0.6189 -0.5377  1.1579
  482SOL    HW2 1446   1.591   2.184   2.875 -0.9309 -1.9452  1.7283
  483SOL     OW 1447   1.118   2.586   2.675 -0.0097 -0.1684  0.6932
  483SOL    HW1 1448   1.028   2.602   2.722  1.9466 -1.1516 -0.8578
  483SOL    HW2 1449   1.115   2.590   2.571 -0.4255 -1.1174 -2.1795
  484SOL     OW 1450   2.824   2.927   1.392  0.2086  0.0043 -0.0171
  484SOL    HW1 1451   2.749   2.994   1.423 -0.4685 -1.6275  3.2267
  484SOL    HW2 1452   2.915   2.962   1.430  0.9101  0.3210  2.9885
  485SOL     OW 1453   1.978   0.927   0.467  0.1759  0.1694 -0.3357
  485SOL    HW1 1454   1.922   0.935   0.553  0.5561  0.5891 -0.4988
  485SOL    HW2 1455   1.944   0.992   0.396  0.0797  1.3353  0.6070
  486SOL     OW 1456   2.256   2.712   2.203  0.1701 -0.3144 -0.0276
  486SOL    HW1 1457   2.265   2.814   2.216 -2.1369 -1.8661 -0.0114
  486SOL    HW2 1458   2.203   2.696   2.123  0.6767 -0.7755  0.8586
  487SOL     OW 1459   1.622   0.668   0.490 -0.1519  0.3260  0.1869
  487SOL    HW1 1460   1.543   0.629   0.542  0.0764 -1.4376 -0.2352
  487SOL    HW2 1461   1.681   0.592   0.454  2.5992  3.2887  3.1452
  488SOL     OW 1462   2.529   2.869   2.468 -0.0145  0.1529  0.1032
  488SOL    HW1 1463   2.518   2.805   2.390 -1.6871 -2.7397 -0.6156
  488SOL    HW2 1464   2.438   2.907   2.493 -0.3649  1.6119  0.2825
  489SOL     OW 1465   1.505   0.083   0.371 -0.1565  0.6198 -0.1669
  489SOL    HW1 1466   1.434   0.091   0.451 -3.2090 -0.6997  2.2233
  489SOL    HW2 1467   1.551   3.073   0.370 -0.0573 -1.3500  1.0759
  490SOL     OW 1468   1.820   0.265   3.030 -0.4768  0.7637 -0.6815
  490SOL    HW1 1469   1.855   0.324   0.026  2.0272  3.2651 -2.0960
  490SOL    HW2 1470   1.852   0.302   2.941  1.1584 -1.2850 -0.1710
  491SOL     OW 1471   0.645   2.664   1.212  0.6146 -0.2587 -0.6081
  491SOL    HW1 1472   0.590   2.675   1.299 -0.5725  0.0141  1.9049
  491SOL    HW2 1473   0.716   2.733   1.202 -0.5549 -0.2965 -0.8267
  492SOL     OW 1474   1.596   2.764   0.589 -0.0345 -0.3728 -0.5655
  492SOL    HW1 1475   1.636   2.668   0.587  0.5027 -3.9558 -0.4877
  492SOL    HW2 1476   1.633   2.823   0.513  2.0680 -2.9441  2.0686
  493SOL     OW 1477   1.027   2.188   2.990 -0.6449 -0.1810 -0.0752
  493SOL    HW1 1478   1.130   2.193   2.968 -1.5945 -0.7925 -0.2379
  493SOL    HW2 1479   1.007   2.174   0.004  0.3610 -1.4302 -1.0963
  494SOL     OW 1480   0.726   1.195   0.722 -0.8631  0.4603  0.2622
  494SOL    HW1 1481   0.713   1.197   0.822  2.5155 -0.9012  0.4376
  494SOL    HW2 1482   0.816   1.148   0.702 -0.6164  1.1829  0.0555
  495SOL     OW 1483   2.676   0.483   1.550 -0.1259 -0.1818 -0.4931
  495SOL    HW1 1484   2.759   0.432   1.575 -0.3228 -1.3431 -1.2892
  495SOL    HW2 1485   2.702   0.571   1.500  0.4529 -0.2742 -0.9562
  496SOL     OW 1486   2.147   2.501   2.342  0.5015 -0.0840 -0.1466
  496SOL    HW1 1487   2.163   2.582   2.284 -1.4654 -0.4432  0.7338
  496SOL    HW2 1488   2.051   2.506   2.384 -1.6039  0.0694  1.0106
  497SOL     OW 1489   1.677   1.269   2.693  0.3650 -0.8862  0.4106
  497SOL    HW1 1490   1.762   1.252   2.643  1.8655  2.8173 -0.2414
  497SOL    HW2 1491   1.687   1.346   2.760 -0.4157 -1.0655 -2.6295
  498SOL     OW 1492   1.012   2.222   0.974 -0.5225  0.0349 -0.1987
  498SOL    HW1 1493   1.100   2.181   0.947 -2.6024  2.2827  0.2569
  498SOL    HW2 1494   0.985   2.176   1.060  2.7811  0.5547 -1.6210
  499SOL     OW 1495   0.260   2.074   0.832 -0.3251  0.1467  0.1618
  499SOL    HW1 1496   0.286   2.052   0.733  1.9432  1.7692 -2.0651
  499SOL    HW2 1497   0.186   2.144   0.839 -1.4178  0.7897 -2.1586
  500SOL     OW 1498   1.080   2.666   0.215 -0.3148  0.1663 -0.0376
  500SOL    HW1 1499   1.022   2.721   0.277 -2.7500 -0.4841  3.1166
  500SOL    HW2 1500   1.179   2.674   0.240  3.9690  0.1836 -0.8734
  501SOL     OW 1501   1.966   2.750   0.519  0.1293  0.0853  0.2026
  501SOL    HW1 1502   1.936   2.842   0.558  1.3394 -2.3718  0.0326
  501SOL    HW2 1503   1.927   2.753   0.422 -1.7980  0.6200 -1.2644
  502SOL     OW 1504   0.122   0.333   1.045  0.0150  0.3482 -0.3735
  502SOL    HW1 1505   0.075   0.275   1.114 -0.3536 -2.7752 -0.5596
  502SOL    HW2 1506   0.114   0.279   0.963 -0.0268 -0.5153  1.4734
  503SOL     OW 1507   2.054   2.987   1.686 -0.1496  0.3171 -0.2773
  503SOL    HW1 1508   2.046   3.043   1.773  0.7838  0.7335  2.2866
  503SOL    HW2 1509   2.144   3.006   1.643  0.2996  1.1834  1.3339
  504SOL     OW 1510   1.845   0.973   1.855 -0.7960 -0.7337 -0.1112
  504SOL    HW1 1511   1.917   0.907   1.833  2.5789  2.1435  1.6148
  504SOL    HW2 1512   1.756   0.921   1.872 -0.9497 -1.8196 -0.9088
  505SOL     OW 1513   1.534   2.851   2.357  0.3927 -0.2644  0.1236
  505SOL    HW1 1514   1.618   2.893   2.389  0.1444 -1.4595  0.7405
  505SOL    HW2 1515   1.489   2.907   2.290 -0.6005 -1.6895  1.6423
  506SOL     OW 1516   0.371   0.728   1.694  0.4747 -0.0378 -0.0909
  506SOL    HW1 1517   0.459   0.758   1.736 -1.0443 -0.9997  1.1442
  506SOL    HW2 1518   0.382   0.664   1.612  0.3520 -1.4582 -0.8286
  507SOL     OW 1519   1.819   0.439   0.139 -0.2451  0.1666 -0.2268
  507SOL    HW1 1520   1.770   0.444   0.230 -2.4987  0.6115  0.2108
  507SOL    HW2 1521   1.914   0.477   0.146  0.6600  0.5189  0.0224
  508SOL     OW 1522   2.179   0.514   2.011 -0.3383  0.3212  0.1347
  508SOL    HW1 1523   2.109   0.493   2.086  0.8460  2.0575  0.0034
  508SOL    HW2 1524   2.159   0.613   1.991 -0.9992 -0.7391 -2.4854
  509SOL     OW 1525   0.382   1.929   2.825 -0.4189  0.0182  0.7831
  509SOL    HW1 1526   0.299   1.978   2.859 -1.8500 -1.5512 -2.0951
  509SOL    HW2 1527   0.376   1.924   2.725  0.7509 -2.1793  1.0123
  510SOL     OW 1528   2.997   0.928   0.791 -0.4052  0.0889  0.7271
  510SOL    HW1 1529   3.000   0.867   0.708  1.3764 -1.7061  0.1279
  510SOL    HW2 1530   3.027   0.876   0.875 -0.7297 -1.7273  1.8485
  511SOL     OW 1531   1.708   1.278   1.268  0.1492 -0.2817 -0.2237
  511SOL    HW1 1532   1.698   1.330   1.356  0.5595  1.4239 -0.6454
  511SOL    HW2 1533   1.714   1.333   1.181 -0.9608  2.9380 -3.4434
  512SOL     OW 1534   0.396   2.014   0.612 -0.1174  0.0410  0.3216
  512SOL    HW1 1535   0.494   2.024   0.640  0.0223 -0.5056 -0.4391
  512SOL    HW2 1536   0.388   2.055   0.522  2.5884 -1.2151  0.9268
  513SOL     OW 1537   0.377   2.475   0.812 -0.0994  0.7803  0.0821
  513SOL    HW1 1538   0.342   2.529   0.888 -1.5912 -2.6675  0.1345
  513SOL    HW2 1539   0.443   2.406   0.843 -1.0692 -1.6676 -1.2096
  514SOL     OW 1540   0.693   2.021   0.725 -0.4764  0.6409 -0.3830
  514SOL    HW1 1541   0.694   1.926   0.768 -2.3792 -0.0182  1.3895
  514SOL    HW2 1542   0.733   2.020   0.632 -0.6870  0.8919 -0.6919
  515SOL     OW 1543   0.315   3.043   0.156 -0.2478 -0.0577  0.0495
  515SOL    HW1 1544   0.372   2.960   0.178  0.5944 -1.0784  0.2759
  515SOL    HW2 1545   0.213   3.028   0.159  0.2594 -0.8843 -1.2832
  516SOL     OW 1546   2.001   0.015   1.259  0.2144  0.1490 -0.0133
  516SOL    HW1 1547   1.945   0.106   1.259 -0.8146  0.2549  0.8274
  516SOL    HW2 1548   2.010   3.058   1.169  2.0924  1.0011  0.4403
  517SOL     OW 1549   1.743   1.659   0.731 -0.0040  0.1481  0.3106
  517SOL    HW1 1550   1.721   1.690   0.636 -0.9044 -0.9016 -1.4214
  517SOL    HW2 1551   1.773   1.730   0.791  1.1157 -3.3586 -2.5226
  518SOL     OW 1552   1.466   2.755   1.120  0.1374  0.5540 -0.1629
  518SOL    HW1 1553   1.368   2.749   1.101  2.4112 -0.3762 -2.2549
  518SOL    HW2 1554   1.521   2.774   1.036  0.3156 -0.4475 -0.5842
  519SOL     OW 1555   2.846   2.384   2.985  0.6584 -1.3692  0.4253
  519SOL    HW1 1556   2.931   2.437   3.003  1.3378 -0.7882  1.6343
  519SOL    HW2 1557   2.787   2.437   2.922  2.9585  0.1560 -0.7119
  520SOL     OW 1558   1.900   1.899   2.418 -0.4648  0.1988  0.1303
  520SOL    HW1 1559   1.876   1.995   2.407  3.5237 -3.1827  0.1868
  520SOL    HW2 1560   1.969   1.871   2.346 -0.2584  1.1405  0.6535
  521SOL     OW 1561   0.938   2.807   2.099 -0.1105  0.7747  0.1212
  521SOL    HW1 1562   0.920   2.764   2.009  0.8472  3.0472  1.9252
  521SOL    HW2 1563   0.901   2.900   2.113  0.4669 -0.9660 -2.9110
  522SOL     OW 1564   0.303   2.536   2.059  0.2213  0.5082 -0.1786
  522SOL    HW1 1565   0.275   2.562   1.964 -0.7415  1.8732  2.0541
  522SOL    HW2 1566   0.217   2.537   2.117  2.4235  1.7294  0.4895
  523SOL     OW 1567   0.963   2.287   1.866  0.3889 -0.3785 -0.0501
  523SOL    HW1 1568   0.898   2.314   1.940 -1.6902  2.0907  0.1394
  523SOL    HW2 1569   1.004   2.198   1.890 -1.1926 -0.6374 -1.3236
  524SOL     OW 1570   2.244   2.172   0.144  0.1481  0.0312 -0.5913
  524SOL    HW1 1571   2.294   2.104   0.086 -0.1717  1.5126 -1.9836
  524SOL    HW2 1572   2.308   2.235   0.197  1.8608  0.9859  0.0609
  525SOL     OW 1573   2.831   0.984   2.900 -0.1550 -0.2041 -0.0932
  525SOL    HW1 1574   2.757   1.010   2.844 -0.9940 -2.8519  2.4871
  525SOL    HW2 1575   2.839   0.881   2.897 -2.0187 -0.7496  0.8418
  526SOL     OW 1576   0.267   2.831   0.947 -0.0863  0.0696 -0.1324
  526SOL    HW1 1577   0.192   2.839   0.884  0.7645 -2.3685  2.3600
  526SOL    HW2 1578   0.340   2.896   0.932  2.3449  1.7193 -0.8910
  527SOL     OW 1579   3.070   1.382   0.623  0.3445 -0.5852 -0.2098
  527SOL    HW1 1580   3.072   1.281   0.625  0.4931 -3.5833  1.8817
  527SOL    HW2 1581   2.970   1.407   0.621 -2.0108 -1.3750 -0.3221
  528SOL     OW 1582   0.726   0.906   2.428  0.1760 -0.1172 -0.0405
  528SOL    HW1 1583   0.731   0.831   2.502 -1.2741  0.8582  0.2599
  528SOL    HW2 1584   0.805   0.975   2.436  2.4764  1.1760 -0.0003
  529SOL     OW 1585   0.992   1.409   0.321  0.4770 -0.3447  0.2546
  529SOL    HW1 1586   1.038   1.321   0.308 -2.9617 -0.3424 -1.3891
  529SOL    HW2 1587   0.898   1.391   0.357 -1.9006 -0.9828  1.4262
  530SOL     OW 1588   1.112   0.995   1.993  0.1365 -0.3287 -0.0046
  530SOL    HW1 1589   1.157   0.917   1.950 -0.7489 -0.0583 -1.1379
  530SOL    HW2 1590   1.096   0.969   2.091  0.8338 -0.1718  1.4189
  531SOL     OW 1591   0.993   2.168   0.193  0.3905 -0.0470  0.8358
  531SOL    HW1 1592   1.007   2.099   0.265 -2.3779  0.7356  1.1782
  531SOL    HW2 1593   1.036   2.250   0.222 -2.2219 -3.3191 -0.5455
  532SOL     OW 1594   2.450   0.666   2.191  0.1996 -0.7956 -0.3600
  532SOL    HW1 1595   2.466   0.709   2.098  1.6830  0.2492  0.4414
  532SOL    HW2 1596   2.529   0.688   2.254  0.2640  0.2473  2.0951
  533SOL     OW 1597   3.022   0.209   1.829 -0.1817 -0.5493 -0.3171
  533SOL    HW1 1598   2.960   0.171   1.902  0.1674  1.5178  3.0949
  533SOL    HW2 1599   0.023   0.244   1.874 -0.9231 -0.1270  0.5673
  534SOL     OW 1600   2.549   0.110   0.283  0.0468  0.5752  0.0979
  534SOL    HW1 1601   2.621   0.153   0.332  1.5750  0.6777 -0.8890
  534SOL    HW2 1602   2.552   0.148   0.187  0.3087  0.8441 -1.6572
  535SOL     OW 1603   0.454   0.211   0.112 -0.1759  0.3865 -0.1768
  535SOL    HW1 1604   0.402   0.290   0.148 -0.8563  0.6060 -2.0098
  535SOL    HW2 1605   0.411   0.128   0.148 -0.6027  1.3431  0.4748
  536SOL     OW 1606   0.939   1.899   1.543 -0.2675  0.7387  0.1874
  536SOL    HW1 1607   0.876   1.853   1.609 -2.3584  1.9071  2.1553
  536SOL    HW2 1608   0.895   1.986   1.509  1.3132 -1.2019  1.5376
  537SOL     OW 1609   0.002   2.526   1.685 -0.0556  0.5179  0.1912
  537SOL    HW1 1610   2.996   2.578   1.704 -2.3646  1.5594  0.8735
  537SOL    HW2 1611   3.081   2.425   1.706  0.9547 -4.2913 -0.3662
  538SOL     OW 1612   0.554   2.330   0.437 -0.1872 -0.3275 -0.1905
  538SOL    HW1 1613   0.653   2.332   0.411  2.2634 -1.3607 -0.5711
  538SOL    HW2 1614   0.510   2.244   0.401 -1.3372 -1.4305 -2.2359
  539SOL     OW 1615   2.070   1.209   2.208 -0.3055  0.0900 -0.1636
  539SOL    HW1 1616   2.039   1.141   2.281 -0.5044 -2.7946  0.4379
  539SOL    HW2 1617   2.162   1.176   2.182  0.7399 -3.1171  1.3593
  540SOL     OW 1618   1.839   0.778   2.903  0.7936 -0.2513 -0.6544
  540SOL    HW1 1619   1.903   0.789   2.981 -0.3282 -0.6533  1.0657
  540SOL    HW2 1620   1.841   0.857   2.841 -3.5808 -1.7754  1.1867
  541SOL     OW 1621   0.622   0.740   2.634  0.1239  0.0207 -0.5588
  541SOL    HW1 1622   0.545   0.760   2.571  0.5880  1.3929 -1.6347
  541SOL    HW2 1623   0.615   0.801   2.717 -0.6161 -0.5320  0.0975
  542SOL     OW 1624   1.407   2.611   2.073 -0.0171 -0.5616  0.3307
  542SOL    HW1 1625   1.337   2.552   2.021 -1.6544  1.1934  0.0453
  542SOL    HW2 1626   1.462   2.668   2.004  0.3057 -1.3496 -3.6780
  543SOL     OW 1627   0.645   2.638   0.342 -0.0898  0.4224  0.1991
  543SOL    HW1 1628   0.627   2.579   0.256  1.4801 -2.4379 -0.1326
  543SOL    HW2 1629   0.601   2.597   0.426 -0.4034  0.6635 -1.0811
  544SOL     OW 1630   2.583   1.882   2.240 -0.4972 -0.7739 -0.2197
  544SOL    HW1 1631   2.581   1.963   2.167  1.2506  1.5302 -2.0109
  544SOL    HW2 1632   2.638   1.911   2.322 -1.2399 -0.6960  0.9918
  545SOL     OW 1633   1.378   1.531   1.868  0.2522  0.3498 -0.0840
  545SOL    HW1 1634   1.369   1.497   1.965  2.7485 -2.0449 -0.7624
  545SOL    HW2 1635   1.302   1.594   1.842 -0.0700 -0.5244 -2.5226
  546SOL     OW 1636   3.013   0.215   2.456  0.0328  0.2915  0.4562
  546SOL    HW1 1637   3.009   0.144   2.531  0.4969 -1.9276  0.8621
  546SOL    HW2 1638   0.007   0.190   2.392  1.7374 -0.3246 -2.3326
  547SOL     OW 1639   1.274   0.164   1.129  0.1076 -0.3465 -0.1288
  547SOL    HW1 1640   1.347   0.223   1.169 -2.2339 -0.3822  1.3849
  547SOL    HW2 1641   1.308   0.068   1.131  0.5238 -2.6118 -0.7314
  548SOL     OW 1642   1.373   2.026   3.018  0.1573 -0.3402 -0.1149
  548SOL    HW1 1643   1.395   2.093   0.010  0.1076 -0.7558 -0.3334
  548SOL    HW2 1644   1.331   2.081   2.941 -1.1744  2.7408 -3.1081
  549SOL     OW 1645   2.290   0.725   0.133  0.1735  0.6805 -0.1617
  549SOL    HW1 1646   2.280   0.721   0.029 -1.1509  1.9928 -0.3830
  549SOL    HW2 1647   2.270   0.817   0.167 -0.1947  0.1019 -0.7931
  550SOL     OW 1648   2.643   2.108   0.828 -0.2600 -0.0905  0.2484
  550SOL    HW1 1649   2.570   2.151   0.770 -2.9032  0.3207  0.1734
  550SOL    HW2 1650   2.600   2.097   0.920 -0.8259  1.8506  0.7383
  551SOL     OW 1651   0.950   0.381   1.276  0.1984 -0.3135  0.1360
  551SOL    HW1 1652   0.884   0.306   1.309 -1.0146 -0.8150  2.0356
  551SOL    HW2 1653   1.025   0.393   1.340 -1.3509  2.1474 -3.4352
  552SOL     OW 1654   0.037   1.392   2.886  0.2490  0.3908  0.0910
  552SOL    HW1 1655   0.071   1.479   2.844  1.0593  0.4339 -3.0889
  552SOL    HW2 1656   0.023   1.400   2.985 -0.2119 -1.0515 -0.1132
  553SOL     OW 1657   2.442   2.463   0.505  0.2535 -0.5063  0.4814
  553SOL    HW1 1658   2.508   2.498   0.575  0.3892 -0.5087  2.2202
  553SOL    HW2 1659   2.410   2.538   0.446  2.1512  0.4166 -0.1059
  554SOL     OW 1660   2.355   1.097   1.771 -0.2106  0.0701 -0.0587
  554SOL    HW1 1661   2.271   1.071   1.812  0.8567 -3.1524 -2.3782
  554SOL    HW2 1662   2.426   1.092   1.843 -1.1457  0.9755  0.1662
  555SOL     OW 1663   0.926   2.082   2.216  0.2265  0.4256  0.3653
  555SOL    HW1 1664   1.024   2.057   2.211  0.2362  0.9260 -0.1505
  555SOL    HW2 1665   0.880   2.033   2.292  0.5992 -0.3912  1.3026
  556SOL     OW 1666   1.185   1.204   1.650 -0.3663  0.2155  0.1359
  556SOL    HW1 1667   1.238   1.238   1.732  2.7367  2.2811  1.3855
  556SOL    HW2 1668   1.170   1.102   1.652 -0.2314  2.2503  2.2144
  557SOL     OW 1669   1.159   0.137   1.379  0.7264  0.4346 -0.4216
  557SOL    HW1 1670   1.190   0.148   1.284  0.7732 -1.3579 -2.3899
  557SOL    HW2 1671   1.125   0.221   1.430  0.4018  0.5995 -0.3568
  558SOL     OW 1672   0.673   0.457   2.243  0.4101 -0.3484  0.1924
  558SOL    HW1 1673   0.658   0.400   2.328 -1.9143 -2.4814  4.2121
  558SOL    HW2 1674   0.668   0.553   2.258 -0.4368 -1.9656 -2.0658
  559SOL     OW 1675   1.319   2.699   0.348  0.2400 -0.1897 -0.0042
  559SOL    HW1 1676   1.345   2.774   0.412 -0.0250 -1.6434 -3.4237
  559SOL    HW2 1677   1.394   2.628   0.332  0.9181 -0.8018  0.2967
  560SOL     OW 1678   1.434   2.203   0.145 -0.0660  0.0756 -0.4804
  560SOL    HW1 1679   1.459   2.109   0.181  0.0859 -2.0355 -0.5500
  560SOL    HW2 1680   1.509   2.268   0.162 -1.4727 -2.1294 -1.1356
  561SOL     OW 1681   1.499   0.191   0.787 -0.1247  0.0170 -0.0593
  561SOL    HW1 1682   1.523   0.169   0.884  1.2410  1.1703  2.6682
  561SOL    HW2 1683   1.402   0.173   0.775 -0.5471  0.1004 -0.1482
  562SOL     OW 1684   0.587   0.800   1.852 -0.2282  0.3835 -0.3993
  562SOL    HW1 1685   0.659   0.729   1.883  1.6682 -0.9757  0.1526
  562SOL    HW2 1686   0.630   0.877   1.801  2.6272 -0.3836 -3.5143
  563SOL     OW 1687   1.265   2.210   2.835  0.1585  0.1813 -0.1370
  563SOL    HW1 1688   1.242   2.158   2.750 -1.5977  0.4036  0.6013
  563SOL    HW2 1689   1.358   2.246   2.842 -0.9306 -0.4849 -0.0965
  564SOL     OW 1690   2.692   0.770   1.067  0.8615  0.1629  0.1536
  564SOL    HW1 1691   2.739   0.857   1.091  1.7903  0.6009  0.2640
  564SOL    HW2 1692   2.592   0.787   1.086 -1.7642  3.6578 -0.6792
  565SOL     OW 1693   1.231   1.209   3.060 -0.0461  0.4030 -0.1001
  565SOL    HW1 1694   1.183   1.298   3.062  0.2398 -2.2670 -1.8130
  565SOL    HW2 1695   1.329   1.217   3.051 -1.7517 -0.1977 -0.9652
  566SOL     OW 1696   2.120   2.611   2.972 -0.7007  0.1045 -0.2679
  566SOL    HW1 1697   2.109   2.692   3.029  0.6173 -1.9150 -1.1998
  566SOL    HW2 1698   2.199   2.555   3.015  2.3739  1.1490  2.1497
  567SOL     OW 1699   1.754   1.018   1.234 -0.1984 -0.5245 -0.6495
  567SOL    HW1 1700   1.742   1.120   1.249  2.0240 -1.1744 -0.4954
  567SOL    HW2 1701   1.751   0.972   1.319 -1.7979 -0.5193 -2.6666
  568SOL     OW 1702   1.476   1.359   2.541  0.6038  0.2922 -0.3144
  568SOL    HW1 1703   1.422   1.412   2.612 -0.2380 -0.6415  0.9436
  568SOL    HW2 1704   1.562   1.322   2.584 -0.3996 -1.0707 -0.2150
  569SOL     OW 1705   2.073   1.744   0.679 -0.3775  0.3678 -0.2198
  569SOL    HW1 1706   2.169   1.791   0.683  1.0268 -0.3153  0.6997
  569SOL    HW2 1707   2.011   1.777   0.752  1.0579 -0.9671 -0.4900
  570SOL     OW 1708   2.486   2.069   2.073 -0.2222  0.0645 -0.5687
  570SOL    HW1 1709   2.563   2.132   2.052 -0.8663 -0.0772  0.1277
  570SOL    HW2 1710   2.410   2.108   2.129 -0.7141  3.7526  0.2568
  571SOL     OW 1711   2.464   1.737   1.736  0.3068  0.3099  0.0983
  571SOL    HW1 1712   2.444   1.834   1.764  4.0333 -1.2017  0.5225
  571SOL    HW2 1713   2.429   1.718   1.641  0.2514 -0.6159  1.0063
  572SOL     OW 1714   1.368   2.593   3.060  0.2980  0.1138  0.3584
  572SOL    HW1 1715   1.271   2.582   3.035 -1.6683  0.0719  0.2462
  572SOL    HW2 1716   1.428   2.568   2.983 -0.4002 -1.1145  1.1230
  573SOL     OW 1717   1.811   1.879   1.328  0.1242  0.4716 -0.2096
  573SOL    HW1 1718   1.871   1.958   1.354  1.5699  2.3718  1.9074
  573SOL    HW2 1719   1.802   1.814   1.407 -1.8915 -1.4503  1.9813
  574SOL     OW 1720   0.983   2.755   1.364 -0.4809 -0.0266  0.3876
  574SOL    HW1 1721   0.954   2.656   1.363 -4.3124 -0.4983 -0.9629
  574SOL    HW2 1722   1.039   2.795   1.437  0.5386  0.9231  1.7414
  575SOL     OW 1723   0.927   0.694   0.984  0.6624  0.5615  0.3554
  575SOL    HW1 1724   1.015   0.659   0.949  1.4333  0.7503  4.1752
  575SOL    HW2 1725   0.876   0.745   0.911 -2.8494  1.9058  0.5739
  576SOL     OW 1726   2.534   0.411   1.307  0.4282  0.4920 -0.2352
  576SOL    HW1 1727   2.598   0.456   1.239  1.7375 -0.0380  1.5720
  576SOL    HW2 1728   2.567   0.412   1.400  0.1394 -3.5599 -0.1319
  577SOL     OW 1729   2.369   0.301   2.674  0.0451  0.3656  0.6947
  577SOL    HW1 1730   2.466   0.323   2.697 -0.7788  2.7561 -1.7392
  577SOL    HW2 1731   2.348   0.364   2.596  1.2333  1.4928 -1.0145
  578SOL     OW 1732   1.770   1.782   2.129  0.5039  0.5501  0.1984
  578SOL    HW1 1733   1.733   1.697   2.083  0.0735 -0.4571 -3.5583
  578SOL    HW2 1734   1.799   1.844   2.057  0.0392  1.5010 -0.0585
  579SOL     OW 1735   0.719   1.678   1.250 -0.4955 -0.4202 -0.2866
  579SOL    HW1 1736   0.797   1.656   1.313  0.9914  1.3014  3.7482
  579SOL    HW2 1737   0.719   1.634   1.159 -2.6054 -0.0616 -1.8778
  580SOL     OW 1738   1.394   2.632   2.629  0.0974  0.1531  0.2192
  580SOL    HW1 1739   1.299   2.600   2.644  0.6340 -2.0798 -1.7855
  580SOL    HW2 1740   1.407   2.731   2.653  0.4685 -1.0037  2.5077
  581SOL     OW 1741   0.690   0.727   2.208  0.0313 -0.0783 -0.2135
  581SOL    HW1 1742   0.724   0.788   2.284  0.4950 -1.1974  3.4040
  581SOL    HW2 1743   0.595   0.755   2.185  2.7698 -0.2602 -1.6075
  582SOL     OW 1744   0.535   0.849   0.717  0.2695  0.5302  0.4162
  582SOL    HW1 1745   0.459   0.798   0.759 -1.5063 -0.9525 -2.2622
  582SOL    HW2 1746   0.508   0.948   0.713 -3.0917 -1.6021  0.0602
  583SOL     OW 1747   0.749   1.597   1.978  0.5755  0.1015 -0.1461
  583SOL    HW1 1748   0.733   1.696   1.979 -0.8073 -0.2742  0.3332
  583SOL    HW2 1749   0.662   1.538   1.994 -0.3512 -0.2875 -2.2240
  584SOL     OW 1750   2.380   2.679   0.344  0.4578 -0.0303 -0.0685
  584SOL    HW1 1751   2.312   2.695   0.271 -3.3109  0.5550 -0.6872
  584SOL    HW2 1752   2.454   2.749   0.334 -0.9182 -0.9049  0.2477
  585SOL     OW 1753   2.216   0.745   2.962 -0.1692 -0.7089  0.2345
  585SOL    HW1 1754   2.219   0.784   2.868  0.4042 -0.4124  0.1256
  585SOL    HW2 1755   2.124   0.763   3.005 -0.4971 -1.0351  0.6493
  586SOL     OW 1756   0.690   1.761   0.362 -0.2351  0.0055 -0.0278
  586SOL    HW1 1757   0.606   1.755   0.412  2.3594 -0.1646 -0.7123
  586SOL    HW2 1758   0.762   1.779   0.435  0.5367  0.4196  3.1377
  587SOL     OW 1759   1.545   2.044   0.985  0.0905 -0.4282 -0.4077
  587SOL    HW1 1760   1.638   2.025   1.016 -1.6984  2.6350 -2.6212
  587SOL    HW2 1761   1.518   2.137   1.017 -0.9895  1.2169  0.9682
  588SOL     OW 1762   0.540   0.384   1.105 -1.0036 -0.0627  1.1871
  588SOL    HW1 1763   0.630   0.436   1.096  2.2486  0.4540 -3.3183
  588SOL    HW2 1764   0.499   0.385   1.014  1.6820 -1.4880 -2.4177
  589SOL     OW 1765   1.515   3.024   1.214  0.4354 -0.8925 -0.3457
  589SOL    HW1 1766   1.512   2.929   1.187 -0.7075  0.5178 -0.4794
  589SOL    HW2 1767   1.491   3.041   1.316 -0.6683  0.5675  4.0374
  590SOL     OW 1768   1.463   1.046   0.241  0.6191 -0.5992  0.6486
  590SOL    HW1 1769   1.516   0.962   0.236 -0.2325  2.8819 -1.1518
  590SOL    HW2 1770   1.481   1.099   0.156 -1.9987 -0.5099 -0.1805
  591SOL     OW 1771   2.073   2.117   2.079  0.5063  0.2826 -0.0227
  591SOL    HW1 1772   2.117   2.172   2.154  1.5008 -0.0468  1.0240
  591SOL    HW2 1773   2.144   2.077   2.015 -1.1753 -0.9174  0.4215
  592SOL     OW 1774   1.431   2.000   1.437 -0.1345  0.3607  0.0416
  592SOL    HW1 1775   1.500   1.946   1.486  1.4185 -0.6438 -0.2418
  592SOL    HW2 1776   1.338   1.968   1.459 -1.7789  0.2767  1.2990
  593SOL     OW 1777   0.872   0.187   0.582 -0.0074 -0.1230  0.3788
  593SOL    HW1 1778   0.790   0.161   0.649  0.8385 -0.9749  2.9944
  593SOL    HW2 1779   0.950   0.237   0.626  1.4404  0.6297  0.3394
  594SOL     OW 1780   0.439   0.867   2.059  0.2906  0.3542  0.5632
  594SOL    HW1 1781   0.343   0.895   2.023  0.1104 -1.7525  0.8894
  594SOL    HW2 1782   0.497   0.846   1.973 -1.1068 -1.2879  0.5214
  595SOL     OW 1783   2.793   2.862   0.673 -0.4181  0.2579  0.6948
  595SOL    HW1 1784   2.808   2.957   0.640 -1.9716  0.8016 -2.1711
  595SOL    HW2 1785   2.795   2.872   0.777  1.7377  0.0966 -1.3579
  596SOL     OW 1786   0.075   0.484   1.510  0.1297 -0.1656 -0.2555
  596SOL    HW1 1787   0.068   0.553   1.439 -0.8433 -0.3677  2.4801
  596SOL    HW2 1788   0.145   0.408   1.497 -1.2976 -3.9578 -1.3422
  597SOL     OW 1789   2.243   1.116   0.677 -0.0961  0.3077 -0.6795
  597SOL    HW1 1790   2.279   1.205   0.647 -3.3160  1.2740  1.1865
  597SOL    HW2 1791   2.143   1.121   0.699 -1.4944  1.3185 -1.6717
  598SOL     OW 1792   0.554   0.184   1.789  0.1238 -0.3388  0.0827
  598SOL    HW1 1793   0.493   0.135   1.848  2.0929  2.5668 -0.7761
  598SOL    HW2 1794   0.519   0.280   1.778  0.1642  3.3748 -0.5398
  599SOL     OW 1795   2.843   1.360   3.074 -0.1516  0.0451 -0.3813
  599SOL    HW1 1796   2.943   1.328   0.008  0.1571 -2.4174 -1.0927
  599SOL    HW2 1797   2.781   1.345   0.075 -0.4393 -2.2267  0.7511
  600SOL     OW 1798   1.046   1.026   2.967 -0.0816 -0.2811 -0.2235
  600SOL    HW1 1799   0.980   1.088   2.924 -0.2304  2.2892  0.5273
  600SOL    HW2 1800   1.113   1.081   3.025  1.4555  0.3791 -1.4906
  601SOL     OW 1801   1.211   1.157   2.728  0.5822  0.1890 -0.0027
  601SOL    HW1 1802   1.267   1.244   2.710 -0.1695 -1.7291 -0.0624
  601SOL    HW2 1803   1.125   1.174   2.768  1.9079  0.1356 -0.5136
  602SOL     OW 1804   1.120   2.988   1.512 -0.2742 -0.0960 -0.4495
  602SOL    HW1 1805   1.202   2.996   1.574 -0.3829  1.2123  1.1664
  602SOL    HW2 1806   1.119   3.057   1.436  0.5719  0.9310 -1.6997
  603SOL     OW 1807   0.854   2.994   2.442 -0.0781 -0.3834 -0.1147
  603SOL    HW1 1808   0.780   2.927   2.474 -4.0259 -2.2053  0.7500
  603SOL    HW2 1809   0.943   2.943   2.440  0.2798  0.7942  0.3456
  604SOL     OW 1810   2.890   0.113   2.053 -0.9984  0.2838  0.5074
  604SOL    HW1 1811   2.832   0.192   2.085 -1.5031 -1.0004  0.0827
  604SOL    HW2 1812   2.909   0.047   2.122  0.3083  0.6007 -1.1522
  605SOL     OW 1813   2.381   2.299   1.405  0.5224 -0.4004  0.4557
  605SOL    HW1 1814   2.445   2.228   1.439  0.7732  0.4792  0.9270
  605SOL    HW2 1815   2.291   2.296   1.450  0.4977  0.5483 -1.4074
  606SOL     OW 1816   2.850   1.700   2.862 -0.2807  0.2627  0.2609
  606SOL    HW1 1817   2.878   1.794   2.839 -0.9613 -1.1050  2.1183
  606SOL    HW2 1818   2.892   1.670   2.951 -0.3359 -0.9356  0.5030
  607SOL     OW 1819   1.096   0.330   0.678 -0.3581  0.0490 -0.4657
  607SOL    HW1 1820   1.154   0.410   0.666 -1.7173 -2.7413  0.0103
  607SOL    HW2 1821   1.151   0.256   0.722  0.6213 -1.1505 -0.8237
  608SOL     OW 1822   1.529   1.456   2.308  0.0901 -0.2029  0.0805
  608SOL    HW1 1823   1.481   1.425   2.395  0.3797  0.6843  0.5503
  608SOL    HW2 1824   1.611   1.501   2.341  0.1075 -1.7178  1.2906
  609SOL     OW 1825   2.713   0.636   0.825 -0.9300 -0.7874  0.3091
  609SOL    HW1 1826   2.718   0.681   0.920  1.3730 -1.2554  1.3989
  609SOL    HW2 1827   2.665   0.703   0.762  0.3326 -0.5498  4.4062
  610SOL     OW 1828   0.644   2.445   0.123 -0.2249  0.2581 -0.6604
  610SOL    HW1 1829   0.721   2.496   0.086 -0.7879 -2.4667  0.6477
  610SOL    HW2 1830   0.665   2.344   0.127  0.4364 -0.0518  0.3734
  611SOL     OW 1831   1.814   1.384   0.659  0.3911  0.2520  0.4969
  611SOL    HW1 1832   1.864   1.461   0.605  0.6410 -0.8079 -1.1702
  611SOL    HW2 1833   1.733   1.411   0.716  0.9241 -2.8236  0.5131
  612SOL     OW 1834   0.800   2.416   2.419 -0.2305  0.1176  0.6165
  612SOL    HW1 1835   0.888   2.378   2.455  1.5731  1.2138  1.4906
  612SOL    HW2 1836   0.823   2.501   2.367  0.1206  1.0527  0.1149
  613SOL     OW 1837   1.326   1.745   0.346 -0.1754  0.0898  0.0573
  613SOL    HW1 1838   1.412   1.706   0.380  0.2558 -0.8384  1.0757
  613SOL    HW2 1839   1.334   1.842   0.323  0.1572  1.3940  0.7525
  614SOL     OW 1840   2.599   2.463   1.608  0.4034 -0.1176  0.0967
  614SOL    HW1 1841   2.610   2.547   1.552 -0.4026  1.0817  1.3154
  614SOL    HW2 1842   2.670   2.396   1.585  2.4879  0.8188  0.4229
  615SOL     OW 1843   2.473   1.222   3.059 -0.0493 -0.0171  0.0725
  615SOL    HW1 1844   2.445   1.317   0.002 -0.3011 -2.0324  0.4063
  615SOL    HW2 1845   2.393   1.188   3.003 -2.4664  0.9446 -1.3497
  616SOL     OW 1846   1.609   0.103   1.017  0.1566  0.1436 -0.0060
  616SOL    HW1 1847   1.678   0.168   1.048  1.6827  1.6552 -0.4064
  616SOL    HW2 1848   1.575   0.043   1.092  1.6662 -1.0428  1.8403
  617SOL     OW 1849   0.919   1.209   2.783  0.5612  0.2935 -0.0324
  617SOL    HW1 1850   0.874   1.208   2.694 -1.2588 -1.2151  4.6010
  617SOL    HW2 1851   0.924   1.293   2.828 -0.2013 -0.0218 -2.8524
  618SOL     OW 1852   0.423   0.593   1.436 -0.4423  1.1711  0.0625
  618SOL    HW1 1853   0.362   0.531   1.386  0.5146 -3.6137 -0.0468
  618SOL    HW2 1854   0.484   0.648   1.374 -1.3003  0.8204  0.6955
  619SOL     OW 1855   3.031   0.877   1.624 -0.3883 -0.3046 -0.0532
  619SOL    HW1 1856   3.007   0.829   1.537  1.3039 -2.2202  0.7931
  619SOL    HW2 1857   3.023   0.824   1.706 -0.6165  4.7882 -2.5092
  620SOL     OW 1858   1.948   1.173   2.878  0.5730 -0.2234 -0.0563
  620SOL    HW1 1859   1.929   1.101   2.804 -1.8850 -0.8869 -2.5114
  620SOL    HW2 1860   1.948   1.267   2.842 -1.1105  0.4320  1.5073
  621SOL     OW 1861   2.371   3.071   1.121 -0.0822  0.4819 -0.0457
  621SOL    HW1 1862   2.464   0.011   1.079  0.2078  0.2484  0.4033
  621SOL    HW2 1863   2.335   0.078   1.160 -0.2330  0.8164 -0.6169
  622SOL     OW 1864   1.436   0.662   2.191 -0.9291  0.3884 -0.5737
  622SOL    HW1 1865   1.523   0.692   2.146  0.1836  2.7853 -0.8711
  622SOL    HW2 1866   1.436   0.678   2.291  1.3680  2.2856  2.6932
  623SOL     OW 1867   0.987   0.559   2.802 -0.4369 -0.3360  0.3629
  623SOL    HW1 1868   0.917   0.543   2.729  0.9208  0.8470 -0.2327
  623SOL    HW2 1869   1.011   0.657   2.813  3.7226  0.3706 -0.7058
  624SOL     OW 1870   1.900   0.552   0.666  0.2410  0.4289  0.3132
  624SOL    HW1 1871   1.816   0.607   0.687 -1.0251  0.9625  0.5000
  624SOL    HW2 1872   1.886   0.450   0.681 -0.5584 -1.6807 -2.5407
  625SOL     OW 1873   0.904   1.597   0.717  0.0871  0.0856 -0.0866
  625SOL    HW1 1874   0.941   1.617   0.810  2.0908 -0.7031 -0.4793
  625SOL    HW2 1875   0.975   1.571   0.653  0.8839  2.8904  1.7097
  626SOL     OW 1876   1.570   1.032   2.689 -0.6432  0.0248 -0.0289
  626SOL    HW1 1877   1.606   1.124   2.698 -3.4556 -0.5381 -1.5127
  626SOL    HW2 1878   1.508   1.014   2.767  1.6730 -0.1188 -0.2199
  627SOL     OW 1879   0.821   0.270   1.697  0.0906  0.3309 -0.1498
  627SOL    HW1 1880   0.860   0.186   1.656 -0.9965 -0.1037 -1.1100
  627SOL    HW2 1881   0.729   0.240   1.736 -4.6388 -1.0088 -1.8370
  628SOL     OW 1882   2.351   0.422   2.264 -0.1837 -0.1836 -0.4101
  628SOL    HW1 1883   2.370   0.501   2.206 -2.3722 -1.6311  1.1846
  628SOL    HW2 1884   2.332   0.456   2.359 -1.0291 -1.9776  0.9043
  629SOL     OW 1885   0.960   1.473   2.909 -0.0568 -0.0796  0.2214
  629SOL    HW1 1886   1.036   1.466   2.974  1.5867  0.3899  0.2551
  629SOL    HW2 1887   0.883   1.518   2.953  1.9525 -0.9760 -2.0692
  630SOL     OW 1888   1.032   0.324   2.272  0.3413  0.7300 -0.3729
  630SOL    HW1 1889   1.027   0.406   2.333  0.2718  0.0563  1.5019
  630SOL    HW2 1890   1.015   0.246   2.336  0.8679 -0.7569  0.6402
  631SOL     OW 1891   2.569   1.214   1.120  0.0331  0.3849  0.3861
  631SOL    HW1 1892   2.593   1.292   1.180 -0.6150  1.3532  0.7615
  631SOL    HW2 1893   2.478   1.224   1.075 -1.0361 -3.0047 -0.3355
  632SOL     OW 1894   2.532   1.574   0.796 -0.2289 -0.1217 -0.0709
  632SOL    HW1 1895   2.574   1.664   0.815 -2.1014  0.1457  0.7962
  632SOL    HW2 1896   2.536   1.550   0.700 -0.0102 -2.4618 -2.6868
  633SOL     OW 1897   1.085   1.116   0.928 -0.1328  0.1416 -0.3621
  633SOL    HW1 1898   1.176   1.171   0.935  0.3030  0.8015  0.0526
  633SOL    HW2 1899   1.006   1.155   0.980 -1.9368  1.2692 -1.9949
  634SOL     OW 1900   1.787   2.998   0.869 -0.1203 -0.1078  0.3179
  634SOL    HW1 1901   1.744   3.080   0.903  1.5111 -1.1953  1.2739
  634SOL    HW2 1902   1.728   2.920   0.891 -0.2297  0.0515 -0.4766
  635SOL     OW 1903   1.771   0.659   1.422 -0.0250 -0.7960  0.0225
  635SOL    HW1 1904   1.870   0.647   1.415 -0.5333  1.3941 -1.1324
  635SOL    HW2 1905   1.743   0.753   1.462  0.1934  2.6105  1.4039
  636SOL     OW 1906   1.500   0.939   0.619  0.2063 -0.0032  0.5331
  636SOL    HW1 1907   1.444   0.911   0.540  1.7706  0.9644  2.9280
  636SOL    HW2 1908   1.563   0.866   0.651 -0.1562  0.1552  1.8167
  637SOL     OW 1909   1.597   2.415   0.117  0.4743 -0.2417  0.0584
  637SOL    HW1 1910   1.535   2.477   0.073  4.6040  0.8108 -1.4360
  637SOL    HW2 1911   1.681   2.403   0.060  2.2376  0.0844 -0.6074
  638SOL     OW 1912   1.112   2.903   2.918  0.8010  0.0952 -0.0226
  638SOL    HW1 1913   1.092   2.807   2.954 -2.7003  2.4368  2.3201
  638SOL    HW2 1914   1.030   2.946   2.869  1.7879 -0.7867  0.4087
  639SOL     OW 1915   1.197   1.843   1.550  0.8397 -0.3849 -0.3892
  639SOL    HW1 1916   1.218   1.832   1.455  0.6660 -0.0669  2.2920
  639SOL    HW2 1917   1.097   1.867   1.557 -1.9653 -0.1576  0.2649
  640SOL     OW 1918   0.419   2.813   0.212 -0.7153 -0.0649 -0.4270
  640SOL    HW1 1919   0.393   2.774   0.122 -0.4777  1.4165 -2.4759
  640SOL    HW2 1920   0.494   2.761   0.262  1.0935 -2.1315  1.3368
  641SOL     OW 1921   0.097   0.333   0.164 -1.0036 -0.0527 -0.3591
  641SOL    HW1 1922   0.073   0.280   0.249 -0.5160  1.8129  0.2594
  641SOL    HW2 1923   0.190   0.375   0.182  2.5037 -1.7733  0.2297
  642SOL     OW 1924   0.422   1.599   1.159 -0.1929  0.0518 -0.3547
  642SOL    HW1 1925   0.434   1.700   1.177  0.8690  0.4656 -2.2156
  642SOL    HW2 1926   0.324   1.573   1.140 -1.1471 -0.2517 -0.6758
  643SOL     OW 1927   0.414   1.926   2.564 -0.2576  0.6064 -0.2859
  643SOL    HW1 1928   0.496   1.976   2.540 -0.3546  0.4357  1.1665
  643SOL    HW2 1929   0.338   1.967   2.515 -1.2755 -0.9148  0.7564
  644SOL     OW 1930   1.576   2.582   0.332  0.4070  0.3599 -0.0246
  644SOL    HW1 1931   1.570   2.505   0.268  0.6155 -3.3999 -0.4806
  644SOL    HW2 1932   1.555   2.549   0.426  1.2082 -0.6568  2.2199
  645SOL     OW 1933   1.647   2.160   1.935  0.0314 -0.2055  0.2230
  645SOL    HW1 1934   1.573   2.229   1.924 -0.4257  0.6017  1.5457
  645SOL    HW2 1935   1.695   2.149   1.849 -0.0471  1.5367  1.9375
  646SOL     OW 1936   0.852   2.805   0.344 -0.4242 -0.1772 -0.4230
  646SOL    HW1 1937   0.850   2.886   0.402 -1.2334  0.7195  2.7767
  646SOL    HW2 1938   0.771   2.745   0.361 -0.4855  1.8613 -0.6238
  647SOL     OW 1939   0.162   0.017   2.032 -0.5082  0.4962 -0.1206
  647SOL    HW1 1940   0.134   0.110   2.000  0.2738  1.3024 -0.4319
  647SOL    HW2 1941   0.127   3.081   2.124  0.9411 -1.8747 -1.3020
  648SOL     OW 1942   2.713   1.276   0.891  0.3120 -0.0560  0.0197
  648SOL    HW1 1943   2.725   1.178   0.856 -1.8515  0.5025  2.9688
  648SOL    HW2 1944   2.655   1.277   0.978  1.3781  1.2792 -0.9399
  649SOL     OW 1945   1.983   2.768   2.508 -0.1034 -0.0846  0.1228
  649SOL    HW1 1946   1.943   2.685   2.462 -0.9996  3.9323 -0.7564
  649SOL    HW2 1947   1.935   2.858   2.497  2.9743  1.1965  1.0418
  650SOL     OW 1948   2.413   1.371   1.720  0.0969 -0.2902  0.3405
  650SOL    HW1 1949   2.379   1.281   1.744  3.0019  4.3434 -2.4018
  650SOL    HW2 1950   2.511   1.369   1.747 -1.3326  1.4557 -5.0767
  651SOL     OW 1951   1.377   1.643   2.880  0.0809 -0.1086 -0.3777
  651SOL    HW1 1952   1.304   1.707   2.852  3.2044 -1.6482 -2.0738
  651SOL    HW2 1953   1.460   1.700   2.905  0.5233 -0.6660  1.4496
  652SOL     OW 1954   0.722   2.811   2.593 -0.5404  0.1028  0.7207
  652SOL    HW1 1955   0.776   2.737   2.632 -1.1605  0.9963 -0.2865
  652SOL    HW2 1956   0.657   2.853   2.660  0.8833  0.3416  0.2187
  653SOL     OW 1957   2.203   1.983   0.979 -0.2361  0.5999 -0.4232
  653SOL    HW1 1958   2.243   1.892   0.998  1.7172  2.0013  0.9073
  653SOL    HW2 1959   2.224   2.053   1.050 -0.9151  0.7368 -3.0060
  654SOL     OW 1960   2.530   2.856   2.056 -0.6932 -0.4069  0.1780
  654SOL    HW1 1961   2.500   2.941   2.099  0.2395 -0.6648 -0.9247
  654SOL    HW2 1962   2.625   2.872   2.027 -0.4247  0.1509 -0.5577
  655SOL     OW 1963   2.767   2.218   1.423  0.3578 -0.3448  0.5577
  655SOL    HW1 1964   2.835   2.180   1.355 -2.6764  0.8199  1.4076
  655SOL    HW2 1965   2.697   2.276   1.371 -4.1176  0.4148  0.1465
  656SOL     OW 1966   2.572   1.535   3.008 -0.3767 -0.3399 -0.2258
  656SOL    HW1 1967   2.546   1.549   2.909 -0.3430  1.5761  0.8182
  656SOL    HW2 1968   2.672   1.524   3.016 -0.2534  0.6279  0.4499
  657SOL     OW 1969   0.426   1.021   0.465 -0.4404 -0.3771 -0.2467
  657SOL    HW1 1970   0.331   1.048   0.440  0.2518  0.4985 -1.1980
  657SOL    HW2 1971   0.430   0.919   0.456  1.2037  0.6868  0.2938
  658SOL     OW 1972   1.305   1.549   1.355  0.6468 -0.6659  0.2689
  658SOL    HW1 1973   1.381   1.609   1.388  0.4532 -0.4805 -0.3920
  658SOL    HW2 1974   1.226   1.606   1.348  2.6519 -1.4269  1.5492
  659SOL     OW 1975   0.796   0.035   1.132 -0.3130  0.4274  0.5820
  659SOL    HW1 1976   0.802   0.096   1.049  0.8525  0.2101  1.7276
  659SOL    HW2 1977   0.810   0.088   1.218 -2.7315  0.6983  0.0766
  660SOL     OW 1978   2.405   0.807   1.089  0.7006  0.4155  0.0773
  660SOL    HW1 1979   2.384   0.823   0.989  1.6722  0.7977 -4.1934
  660SOL    HW2 1980   2.390   0.705   1.106 -0.2009  2.6791  1.1244
  661SOL     OW 1981   0.377   1.674   0.105 -0.1315  0.0585 -0.0142
  661SOL    HW1 1982   0.464   1.673   0.053 -0.4942  0.4892 -0.3187
  661SOL    HW2 1983   0.398   1.732   0.182 -0.7782 -1.5483  0.0320
  662SOL     OW 1984   2.587   0.764   1.958  0.6626  0.1165  0.4189
  662SOL    HW1 1985   2.667   0.729   2.009  1.1175 -1.0761  0.5518
  662SOL    HW2 1986   2.602   0.790   1.860 -1.8443 -1.8091  1.7779
  663SOL     OW 1987   2.024   1.310   1.303  0.6927  0.4778 -0.2554
  663SOL    HW1 1988   1.971   1.269   1.226 -1.4960 -2.3158  1.1176
  663SOL    HW2 1989   2.127   1.302   1.284  2.0085  1.8878 -0.2924
  664SOL     OW 1990   0.346   0.051   1.314  0.3222  0.2583  0.2481
  664SOL    HW1 1991   0.415   0.077   1.241  4.5186  1.6435  1.0232
  664SOL    HW2 1992   0.274   3.064   1.280  0.1870  0.2518  0.9573
  665SOL     OW 1993   1.552   0.201   3.000 -0.0003 -0.2364 -0.2353
  665SOL    HW1 1994   1.651   0.228   3.027  1.0700  1.3616  1.1993
  665SOL    HW2 1995   1.496   0.190   3.080 -1.0308  0.1261  0.5789
  666SOL     OW 1996   0.415   0.159   2.157  0.1267  0.6198  0.3862
  666SOL    HW1 1997   0.456   0.249   2.136 -2.1628 -0.3000 -1.2312
  666SOL    HW2 1998   0.404   0.111   2.065  2.3969  0.3719 -1.3455
  667SOL     OW 1999   1.770   1.272   1.744  0.1584  0.5936 -0.1626
  667SOL    HW1 2000   1.867   1.249   1.734 -0.7955  1.0539 -0.3114
  667SOL    HW2 2001   1.753   1.326   1.828 -1.1441 -0.7993  1.8746
  668SOL     OW 2002   0.163   1.520   2.353  0.3198  0.6797  0.1261
  668SOL    HW1 2003   0.251   1.469   2.364  0.7413 -3.5144  0.7622
  668SOL    HW2 2004   0.113   1.499   2.269  2.1900  3.8324  2.6255
  669SOL     OW 2005   2.499   2.714   0.041  0.2687  0.5383  0.0120
  669SOL    HW1 2006   2.601   2.720   0.062  0.3517  0.7980  0.8285
  669SOL    HW2 2007   2.444   2.798   0.054  0.4149  0.4006  0.5414
  670SOL     OW 2008   2.683   1.218   2.083  0.3379 -0.1726  0.1266
  670SOL    HW1 2009   2.745   1.147   2.114  0.3739  0.0234 -1.3815
  670SOL    HW2 2010   2.724   1.315   2.075  1.0053  2.2359 -0.0160
  671SOL     OW 2011   2.522   1.852   0.281  0.2795 -0.4691 -0.1690
  671SOL    HW1 2012   2.622   1.822   0.276 -0.9631  0.0535 -2.5473
  671SOL    HW2 2013   2.513   1.939   0.337  0.9297  0.4512 -1.0912
  672SOL     OW 2014   1.317   1.195   2.116 -0.5613 -0.3983 -0.2648
  672SOL    HW1 2015   1.325   1.248   2.025 -0.5349  0.7519 -2.5625
  672SOL    HW2 2016   1.258   1.114   2.103 -1.5591 -0.0588  0.0082
  673SOL     OW 2017   2.890   1.874   1.465 -0.4036 -0.2463 -0.0875
  673SOL    HW1 2018   2.910   1.972   1.441 -1.0885 -0.1815 -1.4419
  673SOL    HW2 2019   2.971   1.836   1.524  4.1298 -0.4828 -0.3893
  674SOL     OW 2020   1.162   1.680   1.777 -0.0081 -0.2499  0.2570
  674SOL    HW1 2021   1.203   1.712   1.689 -1.3975 -1.6820 -0.0423
  674SOL    HW2 2022   1.094   1.746   1.820 -2.5440  3.1693  1.1009
  675SOL     OW 2023   3.081   0.806   1.029  0.3929 -0.3686  0.3563
  675SOL    HW1 2024   3.022   0.769   1.105  0.3369 -0.6385 -1.1764
  675SOL    HW2 2025   0.037   0.731   0.976 -0.0056 -0.6063  2.3882
  676SOL     OW 2026   2.977   1.287   0.984 -0.1701 -0.3043 -0.5868
  676SOL    HW1 2027   2.886   1.295   0.944  0.7656  1.9491 -1.7441
  676SOL    HW2 2028   2.995   1.195   1.024 -0.9501 -0.0726  1.4508
  677SOL     OW 2029   1.739   1.622   2.370  0.0743 -0.1164  0.5660
  677SOL    HW1 2030   1.786   1.689   2.304  1.0234  0.1265 -2.3250
  677SOL    HW2 2031   1.658   1.661   2.416 -0.5246 -3.2276  0.1546
  678SOL     OW 2032   2.652   1.619   1.105  0.6067  0.1189  0.0260
  678SOL    HW1 2033   2.678   1.584   1.013 -1.5778 -2.2119  2.9422
  678SOL    HW2 2034   2.725   1.676   1.145  0.9406  0.8734 -2.8903
  679SOL     OW 2035   0.693   2.775   0.653 -0.0978 -0.2098 -0.3152
  679SOL    HW1 2036   0.646   2.692   0.614  1.4454  0.2290  1.0488
  679SOL    HW2 2037   0.663   2.785   0.750  1.1736 -0.7479  0.4685
  680SOL     OW 2038   0.045   1.906   1.023 -0.2814  0.8687 -0.2957
  680SOL    HW1 2039   0.056   2.000   1.004 -1.5241 -1.7477  0.6773
  680SOL    HW2 2040   0.019   1.855   0.939 -0.0353 -1.5399 -1.6762
  681SOL     OW 2041   0.853   0.231   0.932  0.6420 -0.4113  0.2393
  681SOL    HW1 2042   0.946   0.252   0.963 -1.1982 -0.1358 -2.1615
  681SOL    HW2 2043   0.816   0.312   0.885  1.1596 -2.0366 -0.4360
  682SOL     OW 2044   1.643   2.848   1.551 -0.4191  0.1307 -0.0394
  682SOL    HW1 2045   1.596   2.878   1.638  0.9046  0.2469  1.8829
  682SOL    HW2 2046   1.727   2.902   1.535  1.1950 -0.2880 -0.8769
  683SOL     OW 2047   2.423   1.342   1.456 -0.4820  0.4349  0.2190
  683SOL    HW1 2048   2.406   1.380   1.548 -0.7124 -1.6539 -0.4305
  683SOL    HW2 2049   2.514   1.372   1.416  0.7734  1.4481  0.4335
  684SOL     OW 2050   0.019   1.376   1.794  0.1656 -0.0967  0.2088
  684SOL    HW1 2051   3.026   1.401   1.735  0.0973 -2.4991 -1.1428
  684SOL    HW2 2052   0.079   1.455   1.830  1.4940  0.3686 -0.3350
  685SOL     OW 2053   2.005   1.757   0.242  0.2336 -0.0729 -0.4566
  685SOL    HW1 2054   2.067   1.816   0.295 -2.5893 -0.3466  0.9657
  685SOL    HW2 2055   2.047   1.704   0.161  0.9497 -1.3094  0.5214
  686SOL     OW 2056   2.968   0.715   1.262 -0.1486  0.0298  0.6008
  686SOL    HW1 2057   3.049   0.769   1.290 -3.1012 -0.9735  2.8945
  686SOL    HW2 2058   2.990   0.615   1.239  1.3986 -2.0879 -3.7720
  687SOL     OW 2059   1.768   0.037   2.653  0.0452 -0.0374 -0.0650
  687SOL    HW1 2060   1.815   0.126   2.666 -0.5455 -0.1082 -0.5473
  687SOL    HW2 2061   1.668   0.054   2.648 -0.4301 -0.6158  0.1899
  688SOL     OW 2062   1.271   2.089   2.536 -0.4547  0.2605  0.0515
  688SOL    HW1 2063   1.363   2.130   2.520  1.5904  1.5391  1.3880
  688SOL    HW2 2064   1.275   1.987   2.537  1.9505 -1.6271 -1.7866
  689SOL     OW 2065   2.150   1.040   1.945 -0.3743  0.6451 -0.2289
  689SOL    HW1 2066   2.214   1.081   2.015 -0.1062  3.6626  1.4428
  689SOL    HW2 2067   2.153   0.938   1.935  1.0757 -0.1720 -1.0188
  690SOL     OW 2068   1.981   2.114   1.691  0.1097 -0.1990 -0.1355
  690SOL    HW1 2069   1.888   2.108   1.652  1.3326  0.4915  2.3268
  690SOL    HW2 2070   2.013   2.024   1.715  1.3898  2.7490 -0.0797
  691SOL     OW 2071   0.402   1.767   0.491 -0.1812 -0.0906  0.3605
  691SOL    HW1 2072   0.411   1.854   0.553  0.6775  2.6612  0.9116
  691SOL    HW2 2073   0.406   1.689   0.557  0.8634  2.3610  1.6850
  692SOL     OW 2074   2.812   2.898   2.652 -0.2584 -0.4463 -0.0212
  692SOL    HW1 2075   2.724   2.923   2.610 -0.0628 -1.1499 -0.2955
  692SOL    HW2 2076   2.820   2.799   2.669 -1.0111 -0.2190 -0.2163
  693SOL     OW 2077   0.028   1.414   2.147  0.2177  0.0133  0.0243
  693SOL    HW1 2078   0.024   1.505   2.095 -4.0328  4.0504  1.3874
  693SOL    HW2 2079   0.114   1.361   2.129 -0.7230 -1.4706  0.4135
  694SOL     OW 2080   2.476   0.169   1.907  0.4228  0.3089 -0.1031
  694SOL    HW1 2081   2.492   0.227   1.826  1.0597 -1.0173  2.1668
  694SOL    HW2 2082   2.390   0.202   1.951  1.1220 -0.9098 -0.2076
  695SOL     OW 2083   0.959   0.661   2.258 -0.3186  0.0368 -0.1226
  695SOL    HW1 2084   0.867   0.655   2.215 -0.1835 -0.2924 -1.3020
  695SOL    HW2 2085   0.998   0.756   2.267  1.6243 -0.6489  1.3552
  696SOL     OW 2086   1.787   2.618   1.568 -0.3077 -0.2857  0.0384
  696SOL    HW1 2087   1.872   2.651   1.618 -0.9726  1.5293 -0.3237
  696SOL    HW2 2088   1.722   2.699   1.557 -1.3955  0.4359  1.6596
  697SOL     OW 2089   1.390   0.381   2.321  0.3261  0.4209  0.4834
  697SOL    HW1 2090   1.350   0.414   2.408  2.3537 -2.3939 -1.6336
  697SOL    HW2 2091   1.389   0.462   2.258  0.2847  2.6146 -2.0028
  698SOL     OW 2092   2.355   1.791   2.345 -0.3325 -0.1858  0.4623
  698SOL    HW1 2093   2.439   1.828   2.296  1.5867  0.5463 -0.2045
  698SOL    HW2 2094   2.281   1.774   2.280  1.7026  0.2207  0.4711
  699SOL     OW 2095   1.985   0.802   0.039 -0.0624 -0.0527 -0.7769
  699SOL    HW1 2096   2.004   0.729   0.108 -0.5047  0.6852 -1.5388
  699SOL    HW2 2097   2.014   0.891   0.078 -0.4872  2.3426  0.9158
  700SOL     OW 2098   1.245   0.136   0.836 -0.0757 -0.1092  0.0142
  700SOL    HW1 2099   1.237   0.171   0.931  1.1426 -2.7678 -0.7413
  700SOL    HW2 2100   1.230   0.038   0.841 -0.0421 -1.3268  1.2540
  701SOL     OW 2101   0.162   0.735   0.405  0.6007 -0.6040  0.2115
  701SOL    HW1 2102   0.173   0.632   0.411 -1.6170  0.4588  0.1748
  701SOL    HW2 2103   0.260   0.765   0.417  1.2018  0.3964  0.7944
  702SOL     OW 2104   1.388   0.039   1.520  0.7386  0.7071  0.5965
  702SOL    HW1 2105   1.310   0.098   1.494 -0.3378 -1.3014  3.7494
  702SOL    HW2 2106   1.365   3.051   1.587  1.0394  1.9825 -2.0879
  703SOL     OW 2107   3.003   1.049   1.096  0.0119  0.4342  0.1592
  703SOL    HW1 2108   2.916   1.026   1.153 -3.4780 -1.9353  0.6873
  703SOL    HW2 2109   3.036   0.957   1.051 -3.0420 -2.1973 -2.0278
  704SOL     OW 2110   0.907   2.506   1.289 -0.0221  0.8578  0.3111
  704SOL    HW1 2111   0.996   2.451   1.293  1.0744 -0.3298 -1.0727
  704SOL    HW2 2112   0.833   2.467   1.224  0.6867  0.0120 -0.1845
  705SOL     OW 2113   0.174   1.740   3.025 -0.2213  0.1207  0.7402
  705SOL    HW1 2114   0.188   1.688   2.939  3.6955 -2.1614  0.4094
  705SOL    HW2 2115   0.241   1.706   0.014 -1.7629  1.0448  1.1805
  706SOL     OW 2116   0.008   2.992   0.186 -0.0648 -0.2987  0.0231
  706SOL    HW1 2117   3.002   3.015   0.138  3.8302 -0.9287  1.0979
  706SOL    HW2 2118   0.005   3.003   0.290 -2.0260 -0.5215  2.3160
  707SOL     OW 2119   1.432   3.010   2.157 -0.6891  0.1733 -0.1387
  707SOL    HW1 2120   1.488   3.061   2.094 -2.9241  0.1139 -2.2358
  707SOL    HW2 2121   1.376   2.943   2.108  2.3261  1.5849  1.7455
  708SOL     OW 2122   0.340   2.947   1.656  0.6808  0.3063  0.3225
  708SOL    HW1 2123   0.401   3.001   1.591 -0.3466  4.0711 -0.2224
  708SOL    HW2 2124   0.292   2.866   1.610  0.3962 -1.0639 -0.4408
  709SOL     OW 2125   3.034   0.732   1.860  0.1618  0.1987  0.1339
  709SOL    HW1 2126   3.066   0.744   1.957  1.2911  0.1131  0.1129
  709SOL    HW2 2127   2.984   0.645   1.853  2.2991  1.5877  2.4576
  710SOL     OW 2128   0.417   1.070   0.749 -0.2223  0.0089  0.7360
  710SOL    HW1 2129   0.404   1.153   0.810 -0.0636  0.7493  1.6474
  710SOL    HW2 2130   0.381   1.090   0.656 -1.9064  1.2251  1.8481
  711SOL     OW 2131   2.453   2.950   1.347  0.7227 -0.1746  0.1621
  711SOL    HW1 2132   2.432   2.848   1.353 -0.4036 -3.4110 -2.2765
  711SOL    HW2 2133   2.402   2.985   1.264 -0.4999 -0.3820  1.2648
  712SOL     OW 2134   0.103   2.583   2.250  0.0593 -0.1461  0.4121
  712SOL    HW1 2135   0.007   2.565   2.232  2.4578  2.7704  1.9972
  712SOL    HW2 2136   0.133   2.534   2.335  1.4052 -2.3354  0.1237
  713SOL     OW 2137   2.552   0.372   0.519  0.5199  0.1874 -0.2242
  713SOL    HW1 2138   2.457   0.400   0.496  1.3049  0.1048 -0.5698
  713SOL    HW2 2139   2.607   0.456   0.530  0.8414 -1.1348  1.1142
  714SOL     OW 2140   1.701   1.857   2.601 -0.8543 -0.2358 -0.2962
  714SOL    HW1 2141   1.613   1.839   2.551 -1.0593  1.3625  0.1335
  714SOL    HW2 2142   1.785   1.847   2.544 -0.1084  0.4182  1.2548
  715SOL     OW 2143   0.090   0.589   0.911 -0.2854 -0.1924  0.1351
  715SOL    HW1 2144   0.119   0.501   0.955  1.3179  1.0256 -0.5699
  715SOL    HW2 2145   0.005   0.580   0.860  0.5400 -0.4545 -0.5611
  716SOL     OW 2146   0.784   0.724   1.503  0.3548 -0.0383  0.0454
  716SOL    HW1 2147   0.832   0.813   1.502 -1.2800  1.6678 -1.7139
  716SOL    HW2 2148   0.709   0.721   1.433 -1.0035 -2.2226 -1.8218
  717SOL     OW 2149   0.777   0.505   2.607  0.2014  0.3235 -0.5888
  717SOL    HW1 2150   0.748   0.417   2.647  1.2697  3.2578 -0.3813
  717SOL    HW2 2151   0.702   0.572   2.602 -1.5757 -0.3351 -1.1152
  718SOL     OW 2152   1.385   0.522   0.566 -0.1632  0.3661 -0.5167
  718SOL    HW1 2153   1.307   0.593   0.579  0.2706 -1.9661 -1.2999
  718SOL    HW2 2154   1.353   0.455   0.499 -0.5085  3.4318  2.4983
  719SOL     OW 2155   3.072   2.285   2.546 -0.0322  0.3480 -0.6669
  719SOL    HW1 2156   0.070   2.335   2.506  0.7700  0.1446  2.0267
  719SOL    HW2 2157   3.066   2.303   2.646  0.7943  1.7254 -0.4618
  720SOL     OW 2158   1.086   0.633   1.597  0.0822  0.1915  0.2575
  720SOL    HW1 2159   1.002   0.681   1.625  0.6634 -2.3199  0.2006
  720SOL    HW2 2160   1.125   0.665   1.509  1.5510  1.1844 -3.6270
  721SOL     OW 2161   2.828   2.819   0.943 -0.0741  0.1022 -0.9113
  721SOL    HW1 2162   2.882   2.731   0.961  1.1014  0.7555 -1.9297
  721SOL    HW2 2163   2.778   2.850   1.028  0.3640 -0.1274  1.7485
  722SOL     OW 2164   1.058   1.492   2.656  0.4187 -0.8867  0.4121
  722SOL    HW1 2165   0.987   1.486   2.728 -0.6671  0.7039 -0.5250
  722SOL    HW2 2166   1.035   1.552   2.578  2.0294 -2.8723 -0.6200
  723SOL     OW 2167   2.533   0.887   1.328  0.5230  0.1653 -0.1350
  723SOL    HW1 2168   2.472   0.861   1.251  0.1465  1.8561  3.0722
  723SOL    HW2 2169   2.489   0.949   1.401 -0.6325  2.1461  4.0107
  724SOL     OW 2170   1.011   1.970   0.374  0.1333  0.1651 -0.4671
  724SOL    HW1 2171   0.972   1.879   0.354 -0.7887 -1.8426 -0.1694
  724SOL    HW2 2172   1.105   1.968   0.407 -2.0042  0.5141  2.8775
  725SOL     OW 2173   0.254   0.925   1.425  0.2216 -0.1615  0.0735
  725SOL    HW1 2174   0.212   0.997   1.366  1.1224 -3.2241  0.4413
  725SOL    HW2 2175   0.275   0.958   1.517 -0.9543  2.2620  1.7952
  726SOL     OW 2176   2.613   1.065   2.743 -0.4811 -0.2468 -0.1189
  726SOL    HW1 2177   2.628   1.160   2.779 -1.1831 -0.8058  1.4466
  726SOL    HW2 2178   2.563   1.009   2.812 -0.8364 -0.1855  2.7750
  727SOL     OW 2179   1.939   1.261   2.543  0.2587 -0.3749  0.0736
  727SOL    HW1 2180   1.969   1.354   2.512 -0.9826  1.2592 -0.4606
  727SOL    HW2 2181   1.970   1.195   2.469  1.7303 -0.1460 -2.9102
  728SOL     OW 2182   1.526   2.417   1.368  0.0465 -0.7254 -0.2635
  728SOL    HW1 2183   1.523   2.514   1.398 -0.4031 -0.0434  0.3785
  728SOL    HW2 2184   1.502   2.365   1.450  1.6466 -0.7452  0.0873
  729SOL     OW 2185   1.776   0.769   2.313 -0.2422 -0.3704 -0.5658
  729SOL    HW1 2186   1.869   0.761   2.353  2.0244  1.4835  1.5930
  729SOL    HW2 2187   1.749   0.864   2.296 -2.4716 -1.5630 -1.1719
  730SOL     OW 2188   1.213   0.559   0.897  0.3322  0.3787 -0.5991
  730SOL    HW1 2189   1.253   0.629   0.963  0.1694  2.4638  3.8753
  730SOL    HW2 2190   1.199   0.470   0.940 -0.6680 -0.1027 -0.0092
  731SOL     OW 2191   0.797   0.507   3.018  0.7803 -0.4388 -0.2300
  731SOL    HW1 2192   0.901   0.504   3.010  0.6877  1.9489 -1.0057
  731SOL    HW2 2193   0.755   0.585   2.975  2.9723 -3.9973  1.0304
  732SOL     OW 2194   0.435   0.747   0.451  0.2600 -0.2912 -0.0725
  732SOL    HW1 2195   0.509   0.745   0.382  0.5112  0.0993  0.0848
  732SOL    HW2 2196   0.460   0.765   0.549 -0.5934  1.0330 -2.0049
  733SOL     OW 2197   1.315   1.529   2.139  0.1951  0.2384 -0.8778
  733SOL    HW1 2198   1.236   1.483   2.185  0.8845 -2.5345 -2.1064
  733SOL    HW2 2199   1.401   1.486   2.187  2.9946  0.7514  0.6024
  734SOL     OW 2200   0.024   2.371   2.802 -0.2463 -0.4347 -0.3103
  734SOL    HW1 2201   0.024   2.333   2.898 -1.8041 -0.9265  1.1459
  734SOL    HW2 2202   0.072   2.462   2.797  2.7775  3.1037 -1.0214
  735SOL     OW 2203   2.276   0.456   0.769 -0.3868 -0.1755  0.0256
  735SOL    HW1 2204   2.228   0.541   0.797 -0.5723 -1.2288  0.2180
  735SOL    HW2 2205   2.331   0.474   0.683  1.0336 -0.3401 -1.0810
  736SOL     OW 2206   2.109   1.472   2.239  0.0919 -0.0644  0.5035
  736SOL    HW1 2207   2.063   1.381   2.228 -3.0111  0.6402 -2.0036
  736SOL    HW2 2208   2.075   1.518   2.320 -0.0717  0.0078  0.9566
  737SOL     OW 2209   3.026   0.778   0.563 -0.1740 -0.3001  0.1096
  737SOL    HW1 2210   2.944   0.772   0.507  3.6262  0.1952 -0.6757
  737SOL    HW2 2211   0.022   0.772   0.499 -0.4081  1.1727  0.0763
  738SOL     OW 2212   0.770   2.101   1.481  0.1766 -0.0043  0.3153
  738SOL    HW1 2213   0.789   2.192   1.527 -1.1946  1.5476 -1.3238
  738SOL    HW2 2214   0.665   2.103   1.481  0.3971 -0.0843 -0.7178
  739SOL     OW 2215   1.218   2.822   2.046 -0.1132 -0.3434  0.5458
  739SOL    HW1 2216   1.261   2.737   2.072 -1.7201  1.9989 -3.5380
  739SOL    HW2 2217   1.137   2.837   2.106 -1.6671  0.2788  6.2489
  740SOL     OW 2218   1.792   2.403   1.230  0.0481  0.2112 -0.0955
  740SOL    HW1 2219   1.699   2.416   1.272 -3.0310 -1.7931  0.0116
  740SOL    HW2 2220   1.862   2.463   1.264 -0.4921 -0.5690  0.9698
  741SOL     OW 2221   2.206   0.337   3.072 -0.2752 -0.2013 -0.6893
  741SOL    HW1 2222   2.160   0.288   0.067 -0.3138  2.8167  1.2060
  741SOL    HW2 2223   2.298   0.369   0.020  0.9282  1.1928 -0.0746
  742SOL     OW 2224   1.014   2.670   3.028  0.8427 -0.3451  0.3981
  742SOL    HW1 2225   1.055   2.592   2.979 -0.7458  3.0199  0.2153
  742SOL    HW2 2226   1.040   2.670   0.048  0.8389 -0.9349  2.4653
  743SOL     OW 2227   2.511   1.042   1.973  0.1538  0.3452 -0.2356
  743SOL    HW1 2228   2.594   1.100   1.991 -0.0702  0.6234 -3.6486
  743SOL    HW2 2229   2.528   0.942   1.985 -0.9839 -0.4553  1.9757
  744SOL     OW 2230   2.646   0.619   0.486  0.0226  0.2054 -0.1305
  744SOL    HW1 2231   2.593   0.606   0.402 -1.7213 -0.1856  1.3429
  744SOL    HW2 2232   2.699   0.703   0.485  1.0061 -1.6909 -0.1197
  745SOL     OW 2233   2.444   1.066   1.511 -0.4522  0.3997  0.2803
  745SOL    HW1 2234   2.404   1.036   1.601 -0.3665  0.4876  0.3213
  745SOL    HW2 2235   2.415   1.162   1.493 -0.2094  1.3641 -2.5027
  746SOL     OW 2236   1.313   1.428   0.814  0.3372 -0.5160  0.6196
  746SOL    HW1 2237   1.270   1.500   0.877 -2.1567  0.4995  0.0481
  746SOL    HW2 2238   1.312   1.460   0.717 -1.2126  1.8436 -0.9733
  747SOL     OW 2239   0.986   1.458   1.195 -0.0658 -0.0711  0.3774
  747SOL    HW1 2240   0.976   1.523   1.271  2.4090  0.2350  0.5775
  747SOL    HW2 2241   1.017   1.367   1.232  2.0844 -0.8026  1.8669
  748SOL     OW 2242   0.369   2.708   3.057  0.3795 -0.3602 -0.6485
  748SOL    HW1 2243   0.403   2.703   2.962  0.5499 -0.5301  0.7738
  748SOL    HW2 2244   0.353   2.612   0.007  0.9531  1.1217 -1.2219
  749SOL     OW 2245   0.204   0.993   2.816  0.0030  0.1848  0.3561
  749SOL    HW1 2246   0.113   1.039   2.814 -0.6451 -2.0465 -3.1805
  749SOL    HW2 2247   0.231   0.958   2.725 -1.3365  0.1284  3.3467
  750SOL     OW 2248   1.586   0.877   1.865  0.2182 -0.2156  0.6328
  750SOL    HW1 2249   1.540   0.812   1.797  0.4831 -0.6457  1.1587
  750SOL    HW2 2250   1.604   0.827   1.948 -0.1599 -0.9254 -3.1707
  751SOL     OW 2251   2.800   0.816   0.391 -0.2343  0.4797  0.2526
  751SOL    HW1 2252   2.845   0.784   0.303 -1.9779 -1.4106 -4.3473
  751SOL    HW2 2253   2.722   0.883   0.371  0.0498  2.3476 -1.3770
  752SOL     OW 2254   2.699   2.902   1.169  0.0070 -0.1109 -0.0412
  752SOL    HW1 2255   2.755   2.915   1.252  3.1474 -1.9790  1.5146
  752SOL    HW2 2256   2.614   2.952   1.175  0.2016  0.1664  1.3312
  753SOL     OW 2257   0.922   2.154   1.235 -0.0900  0.4902  0.0899
  753SOL    HW1 2258   1.013   2.168   1.276 -1.6904  1.1332 -0.8719
  753SOL    HW2 2259   0.856   2.146   1.313  1.5226  0.1039  0.8554
  754SOL     OW 2260   2.992   2.651   1.997 -0.0884  0.0381  0.0753
  754SOL    HW1 2261   2.917   2.687   2.056  1.2182  1.1567 -1.8761
  754SOL    HW2 2262   3.069   2.721   1.990 -0.5138  0.0827  0.4720
  755SOL     OW 2263   2.483   0.612   0.264  0.7826  0.0977 -0.3437
  755SOL    HW1 2264   2.570   0.606   0.211  1.2618  0.4221 -4.2582
  755SOL    HW2 2265   2.415   0.647   0.197  1.0165 -1.9105  1.0209
  756SOL     OW 2266   2.356   2.340   2.821  1.1652  0.6038 -0.2051
  756SOL    HW1 2267   2.374   2.380   2.728  0.0822  0.2169 -0.2454
  756SOL    HW2 2268   2.357   2.413   2.893 -0.4982  0.0472 -0.1987
  757SOL     OW 2269   2.323   0.525   0.478  0.7684 -0.7931 -0.4128
  757SOL    HW1 2270   2.374   0.564   0.395 -0.8641  0.8312 -0.3749
  757SOL    HW2 2271   2.228   0.555   0.478 -1.9851  1.6328 -0.0013
  758SOL     OW 2272   2.175   0.763   1.919 -0.2347  0.6592  0.1946
  758SOL    HW1 2273   2.091   0.740   1.862 -1.3214  1.2900  0.1473
  758SOL    HW2 2274   2.263   0.760   1.865  0.9663 -2.3985  0.9567
  759SOL     OW 2275   2.760   0.493   1.134  0.0416  0.6554 -0.4735
  759SOL    HW1 2276   2.734   0.592   1.126  1.0876 -1.9259  0.0674
  759SOL    HW2 2277   2.758   0.442   1.045  0.1783 -2.4398 -0.8305
  760SOL     OW 2278   0.145   1.481   1.286  0.3954  0.3121  0.3338
  760SOL    HW1 2279   0.139   1.413   1.360  0.6885  1.7341  3.5505
  760SOL    HW2 2280   0.054   1.496   1.242  0.3197 -0.4930 -1.8365
  761SOL     OW 2281   0.865   0.777   0.348 -0.0749  0.0165  0.3586
  761SOL    HW1 2282   0.843   0.875   0.320 -0.0055  1.1914 -0.8807
  761SOL    HW2 2283   0.966   0.756   0.332 -1.6236 -2.4402 -1.3495
  762SOL     OW 2284   1.021   1.938   1.121 -0.2448  0.0409  0.3444
  762SOL    HW1 2285   0.950   1.912   1.052  0.5623 -0.1321  0.4022
  762SOL    HW2 2286   0.995   2.022   1.173 -0.1966 -0.7178  0.8250
  763SOL     OW 2287   1.175   0.724   1.366  0.0237  0.0096  0.6948
  763SOL    HW1 2288   1.247   0.790   1.399  0.3791 -0.5328 -0.6488
  763SOL    HW2 2289   1.118   0.749   1.281 -1.4751  0.5438 -2.3397
  764SOL     OW 2290   0.335   2.294   2.793 -0.1692 -0.3850 -0.5958
  764SOL    HW1 2291   0.287   2.201   2.772 -1.5121 -2.1410 -0.2781
  764SOL    HW2 2292   0.268   2.359   2.833  2.4574  0.5119 -1.4886
  765SOL     OW 2293   0.552   2.735   1.459 -0.4420 -0.2385 -0.0946
  765SOL    HW1 2294   0.517   2.713   1.550 -0.1878  1.7553 -1.6072
  765SOL    HW2 2295   0.593   2.831   1.445 -0.4142 -0.1226 -3.2464
  766SOL     OW 2296   2.552   1.649   2.151  0.5444  0.3196 -0.1382
  766SOL    HW1 2297   2.581   1.742   2.179 -1.2661 -0.5672  1.9429
  766SOL    HW2 2298   2.593   1.573   2.204  0.9570  0.8830 -0.6031
  767SOL     OW 2299   1.500   1.167   2.309  0.1192  0.1847  0.2524
  767SOL    HW1 2300   1.501   1.240   2.379 -0.2775 -0.7241  1.3204
  767SOL    HW2 2301   1.435   1.184   2.232 -2.7370 -1.2452 -0.8969
  768SOL     OW 2302   1.559   1.943   0.242 -0.1300 -0.2405  0.2055
  768SOL    HW1 2303   1.599   1.939   0.333  2.4474 -0.7396  0.4013
  768SOL    HW2 2304   1.630   1.942   0.173 -1.7556  1.2263  2.3130
  769SOL     OW 2305   0.527   1.493   0.926 -0.9300 -0.0094 -0.4011
  769SOL    HW1 2306   0.493   1.537   1.014  0.4901  0.4137 -1.2062
  769SOL    HW2 2307   0.628   1.480   0.930 -1.1568 -1.6563  1.0670
  770SOL     OW 2308   1.290   0.940   2.378 -0.1500 -0.9173  0.3533
  770SOL    HW1 2309   1.332   1.032   2.372 -1.7853  0.7938 -0.4762
  770SOL    HW2 2310   1.362   0.868   2.385  0.4167  0.0535 -2.8695
  771SOL     OW 2311   2.891   2.985   2.286 -0.2537 -0.7678  0.0038
  771SOL    HW1 2312   2.806   3.022   2.328  0.8510 -0.7378  0.5725
  771SOL    HW2 2313   2.869   2.886   2.255 -1.0002 -2.3599 -2.0786
  772SOL     OW 2314   2.044   1.802   2.210  0.5763  0.0533 -0.4897
  772SOL    HW1 2315   1.958   1.769   2.168  0.3171  0.5107 -0.0608
  772SOL    HW2 2316   2.122   1.776   2.148  6.3849  3.2637 -0.9571
  773SOL     OW 2317   0.512   1.400   1.369  0.3131 -0.0114  0.0087
  773SOL    HW1 2318   0.483   1.453   1.285 -2.2051  0.3787 -2.8146
  773SOL    HW2 2319   0.533   1.303   1.346  1.0173  2.0105 -1.3497
  774SOL     OW 2320   1.347   0.748   2.902 -0.0940 -0.0086 -0.4886
  774SOL    HW1 2321   1.246   0.750   2.868  0.6421 -2.4092  2.0162
  774SOL    HW2 2322   1.353   0.701   2.995  0.1928  0.6544 -1.3088
  775SOL     OW 2323   1.473   2.839   0.086 -0.1011  0.7354 -0.3326
  775SOL    HW1 2324   1.438   2.856   0.182 -0.6651  1.1979 -0.4367
  775SOL    HW2 2325   1.438   2.749   0.051 -0.7023 -2.6529  0.9512
  776SOL     OW 2326   0.211   0.946   1.704 -0.5297  0.2535  0.2027
  776SOL    HW1 2327   0.272   0.864   1.710 -0.8581  1.3158 -0.7682
  776SOL    HW2 2328   0.116   0.921   1.676  0.5509  0.5409 -2.0071
  777SOL     OW 2329   2.287   1.728   2.052 -0.4065  0.6598  0.1941
  777SOL    HW1 2330   2.382   1.689   2.079  1.9297  0.7074  0.7868
  777SOL    HW2 2331   2.288   1.821   2.007  1.2064 -0.8279  2.6206
  778SOL     OW 2332   1.736   1.034   2.268 -0.2190 -0.1081 -0.1816
  778SOL    HW1 2333   1.638   1.063   2.276 -1.1639  1.1336  1.6020
  778SOL    HW2 2334   1.770   1.060   2.177  1.3505 -0.5054  1.4491
  779SOL     OW 2335   3.023   1.093   0.280  0.5977  0.3429 -0.1490
  779SOL    HW1 2336   3.033   0.988   0.268  1.1104 -4.2324 -1.9473
  779SOL    HW2 2337   2.954   1.112   0.350  2.4978 -0.6062 -2.8040
  780SOL     OW 2338   2.251   0.072   2.687  0.7169 -0.3007  0.0277
  780SOL    HW1 2339   2.169   0.079   2.628  0.9081 -0.3368  2.0459
  780SOL    HW2 2340   2.291   0.163   2.684 -1.1833 -4.5294  3.6589
  781SOL     OW 2341   0.019   1.797   1.623 -0.2641  0.0862  0.1976
  781SOL    HW1 2342   0.070   1.866   1.679  1.0125  0.7266 -2.1703
  781SOL    HW2 2343   0.077   1.743   1.558 -0.0498 -1.5679 -0.0008
  782SOL     OW 2344   2.644   1.959   2.520  0.0145  0.1974 -0.6905
  782SOL    HW1 2345   2.716   1.999   2.461  0.6171 -1.9520 -1.5056
  782SOL    HW2 2346   2.593   2.031   2.568  2.0371 -3.8770  0.4740
  783SOL     OW 2347   0.784   1.445   0.954 -0.3446 -0.0578 -0.6685
  783SOL    HW1 2348   0.808   1.357   0.990  0.0948  4.5024  0.4106
  783SOL    HW2 2349   0.867   1.508   0.952  0.7355 -1.4973  0.3415
  784SOL     OW 2350   2.506   0.923   2.959 -0.3255  0.9040 -0.3022
  784SOL    HW1 2351   2.434   0.989   2.967 -1.1540  0.7137  0.7829
  784SOL    HW2 2352   2.584   0.957   3.016  0.0662  2.0378  3.2901
  785SOL     OW 2353   2.081   2.367   0.770 -0.0850  0.1921  0.5148
  785SOL    HW1 2354   2.005   2.427   0.741  0.0074 -0.3134  0.1162
  785SOL    HW2 2355   2.154   2.359   0.698 -0.5986  4.2485 -0.2920
  786SOL     OW 2356   0.402   2.297   2.517 -0.0728  0.1752 -0.4913
  786SOL    HW1 2357   0.474   2.226   2.492  2.4148 -1.0023 -1.7805
  786SOL    HW2 2358   0.373   2.298   2.613 -3.0674 -1.2416  1.9413
  787SOL     OW 2359   1.388   0.560   1.339 -0.1341 -0.6564 -0.6204
  787SOL    HW1 2360   1.294   0.596   1.363 -2.6595 -1.8613  2.4001
  787SOL    HW2 2361   1.451   0.638   1.334 -1.4555 -1.3636  1.3123
  788SOL     OW 2362   0.509   0.835   0.173  0.1551  0.0726  0.1326
  788SOL    HW1 2363   0.521   0.734   0.176  0.7781 -2.4907  2.2253
  788SOL    HW2 2364   0.409   0.857   0.164 -2.9488  0.2358  0.3106
  789SOL     OW 2365   2.976   2.099   1.284  0.2459  0.2917 -0.2541
  789SOL    HW1 2366   3.060   2.037   1.283 -0.4680  1.3094 -0.3318
  789SOL    HW2 2367   2.912   2.084   1.202  0.0245  1.4909  0.9879
  790SOL     OW 2368   1.265   0.425   1.872  0.5899  0.2951 -0.0003
  790SOL    HW1 2369   1.205   0.510   1.872 -0.7904  1.2446 -1.5342
  790SOL    HW2 2370   1.229   0.357   1.937  0.2757  1.9642  1.6534
  791SOL     OW 2371   1.188   0.686   0.269 -0.0898  0.3424  0.3771
  791SOL    HW1 2372   1.260   0.655   0.204 -2.0563  0.5234  1.4197
  791SOL    HW2 2373   1.125   0.608   0.282  0.5682 -0.3769  1.4109
  792SOL     OW 2374   1.325   2.952   1.705  0.2084 -0.0709  0.5476
  792SOL    HW1 2375   1.254   2.896   1.746  0.3148  0.0088  0.1565
  792SOL    HW2 2376   1.409   2.940   1.762 -1.8392  0.1107  1.8488
  793SOL     OW 2377   0.647   0.122   0.691  0.0857  0.1038 -0.6667
  793SOL    HW1 2378   0.613   0.132   0.786 -0.2371  0.4482 -0.2110
  793SOL    HW2 2379   0.601   0.056   0.637  0.8153  1.8427  0.8889
  794SOL     OW 2380   0.569   1.254   2.212 -0.0414 -0.6664 -0.0320
  794SOL    HW1 2381   0.624   1.225   2.133 -2.1823 -0.8997  1.6545
  794SOL    HW2 2382   0.581   1.179   2.279  0.5402 -2.1788  2.8638
  795SOL     OW 2383   0.044   1.644   2.556 -0.3885  0.4652  0.2400
  795SOL    HW1 2384   0.081   1.582   2.485  0.8599 -1.6474  1.7057
  795SOL    HW2 2385   3.028   1.625   2.567 -1.7537 -1.7238 -1.1515
  796SOL     OW 2386   1.845   1.146   2.043 -0.1824 -0.6549  0.4625
  796SOL    HW1 2387   1.840   1.077   1.968 -0.6627  0.7817  1.3453
  796SOL    HW2 2388   1.940   1.157   2.082 -2.0240  1.4340 -1.3750
  797SOL     OW 2389   3.017   3.080   2.631  0.3277  0.0171  0.2396
  797SOL    HW1 2390   0.021   3.035   2.604 -2.3542 -0.2724  0.1773
  797SOL    HW2 2391   2.935   3.017   2.623  3.5295  0.8276 -0.8056
  798SOL     OW 2392   2.965   1.975   2.084 -0.1453  0.5295  0.2124
  798SOL    HW1 2393   2.942   1.969   1.986 -0.6881  0.7073 -0.7243
  798SOL    HW2 2394   3.036   2.041   2.108 -2.7424 -3.7374  0.2654
  799SOL     OW 2395   2.814   2.110   2.976 -0.4359 -0.2736  0.2754
  799SOL    HW1 2396   2.815   2.212   2.974 -3.4381 -1.7757 -1.0429
  799SOL    HW2 2397   2.850   2.080   2.886  0.5050  1.5719 -0.0730
  800SOL     OW 2398   1.277   1.692   0.928  0.4800  0.4337 -0.4669
  800SOL    HW1 2399   1.267   1.727   0.832 -2.8692 -0.1096 -1.4286
  800SOL    HW2 2400   1.342   1.743   0.987 -1.7917 -2.4928  0.4697
  801SOL     OW 2401   2.127   0.676   0.825 -0.4095 -0.1312  0.0177
  801SOL    HW1 2402   2.047   0.639   0.778  2.4148  1.7724  1.5283
  801SOL    HW2 2403   2.090   0.731   0.901  0.1745  0.4172 -1.4685
  802SOL     OW 2404   2.596   1.498   0.475 -0.5477 -0.3197 -0.0247
  802SOL    HW1 2405   2.550   1.450   0.398 -1.1148  1.4054  1.3073
  802SOL    HW2 2406   2.646   1.580   0.453 -0.4508 -1.5869 -0.5185
  803SOL     OW 2407   1.563   1.844   2.956  0.1812 -0.2218 -0.3783
  803SOL    HW1 2408   1.627   1.911   2.911 -2.4099  1.3066 -0.1160
  803SOL    HW2 2409   1.488   1.902   2.998  0.2455 -0.6119 -0.6037
  804SOL     OW 2410   1.810   1.924   0.115 -0.2367  0.0067 -0.4734
  804SOL    HW1 2411   1.859   1.852   0.168  0.3817  3.6388  0.2473
  804SOL    HW2 2412   1.863   1.935   0.034 -4.9461 -2.8533  3.2054
  805SOL     OW 2413   2.402   1.465   0.100  0.2036 -0.4586  0.2253
  805SOL    HW1 2414   2.476   1.497   0.035 -1.0231  1.6053  2.4933
  805SOL    HW2 2415   2.443   1.415   0.179  0.4052 -0.6309  0.8800
  806SOL     OW 2416   0.681   0.367   0.496 -0.2745  0.4456 -0.5851
  806SOL    HW1 2417   0.703   0.421   0.411 -0.5124 -2.1038  2.3728
  806SOL    HW2 2418   0.756   0.303   0.526 -0.5459 -1.9033  1.6364
  807SOL     OW 2419   2.177   1.206   2.697  0.1744 -0.0200 -0.7509
  807SOL    HW1 2420   2.186   1.261   2.786  1.3855  0.5293 -0.1388
  807SOL    HW2 2421   2.084   1.219   2.656  1.8677 -0.9233  1.5558
  808SOL     OW 2422   0.082   1.534   0.374 -0.6432  0.1855  0.2937
  808SOL    HW1 2423   0.144   1.494   0.307 -2.4812  3.4368  1.8541
  808SOL    HW2 2424   0.081   1.480   0.461 -0.0591 -0.6557  0.1763
  809SOL     OW 2425   2.641   0.689   2.390 -0.2396 -0.2985 -0.3382
  809SOL    HW1 2426   2.717   0.622   2.420  0.5100 -1.6002 -0.5083
  809SOL    HW2 2427   2.633   0.777   2.445 -0.0151  1.8240  1.7334
  810SOL     OW 2428   1.095   1.170   0.233  0.2579 -0.3438 -0.6068
  810SOL    HW1 2429   1.154   1.176   0.147 -2.6029  1.5595  0.2455
  810SOL    HW2 2430   1.018   1.107   0.216 -1.1652 -4.7835 -1.1911
  811SOL     OW 2431   1.258   2.583   1.068  0.0906 -0.4888  0.3222
  811SOL    HW1 2432   1.196   2.550   0.988 -3.1946  1.1760 -3.2831
  811SOL    HW2 2433   1.356   2.572   1.039  0.3467  0.1807 -2.3856
  812SOL     OW 2434   0.371   2.439   1.542  1.0544  0.3537 -0.3949
  812SOL    HW1 2435   0.432   2.436   1.461  0.4069  0.9875  3.4080
  812SOL    HW2 2436   0.388   2.520   1.604  1.0748  1.0261  0.0669
  813SOL     OW 2437   1.128   0.274   2.040  0.0293 -0.7984 -0.7688
  813SOL    HW1 2438   1.104   0.182   2.014 -1.5275  3.2228 -0.4561
  813SOL    HW2 2439   1.099   0.302   2.135 -0.9494  1.3307 -2.4272
  814SOL     OW 2440   1.517   2.899   2.704  0.3905 -0.4078  0.3942
  814SOL    HW1 2441   1.610   2.873   2.739 -0.2350  0.2910 -0.6881
  814SOL    HW2 2442   1.518   2.997   2.689  1.6436 -0.0132  0.0835
  815SOL     OW 2443   0.458   0.431   1.775 -0.0319  0.1566  0.0860
  815SOL    HW1 2444   0.360   0.446   1.756  1.6247  0.3804  0.1819
  815SOL    HW2 2445   0.520   0.485   1.715  1.3247  0.3678  0.2502
  816SOL     OW 2446   2.138   0.356   2.825 -0.0174 -0.0661  0.8042
  816SOL    HW1 2447   2.224   0.352   2.778 -0.4164  0.0357 -1.9771
  816SOL    HW2 2448   2.158   0.359   2.927 -1.3834  1.4893  1.7537
  817SOL     OW 2449   2.069   0.148   2.463 -0.4065  0.1983  0.0024
  817SOL    HW1 2450   2.034   0.157   2.371 -0.4971 -1.6635  1.8165
  817SOL    HW2 2451   2.005   0.179   2.538 -0.6108 -4.2139  0.3561
  818SOL     OW 2452   2.080   0.168   0.164  0.0266 -0.3626  0.1100
  818SOL    HW1 2453   1.991   0.126   0.174 -0.7457  0.2906 -0.1986
  818SOL    HW2 2454   2.155   0.112   0.205 -0.2060  0.9967  0.8052
  819SOL     OW 2455   2.240   1.792   2.920  0.0754  0.0866  0.2517
  819SOL    HW1 2456   2.303   1.833   2.991 -2.2461 -0.0553  1.4891
  819SOL    HW2 2457   2.279   1.783   2.827 -0.9303  0.9861 -0.8739
  820SOL     OW 2458   0.163   1.789   0.400  0.6119  0.4240 -0.0073
  820SOL    HW1 2459   0.258   1.778   0.439  1.1843  0.9123 -0.0668
  820SOL    HW2 2460   0.128   1.695   0.370 -1.0604  1.9086  2.4220
  821SOL     OW 2461   0.114   2.460   1.075  0.3144  0.2046  0.3989
  821SOL    HW1 2462   0.203   2.499   1.078 -1.6034 -1.6331 -0.2077
  821SOL    HW2 2463   0.079   2.433   1.170  0.8473  0.4251  3.0743
  822SOL     OW 2464   2.560   2.635   2.648 -0.0637  0.3577 -0.4967
  822SOL    HW1 2465   2.558   2.718   2.591 -3.2399  1.9779 -0.1036
  822SOL    HW2 2466   2.491   2.564   2.616  0.0786 -2.4005  0.5642
  823SOL     OW 2467   1.510   0.077   2.633  0.1008 -0.2134  0.3092
  823SOL    HW1 2468   1.490   0.149   2.703 -2.3167  1.2846  0.5505
  823SOL    HW2 2469   1.473   0.097   2.538 -2.0543 -1.6466 -1.0434
  824SOL     OW 2470   2.707   1.680   1.525  0.0130  0.1651 -0.5488
  824SOL    HW1 2471   2.602   1.689   1.533 -0.4936  1.7837  0.7745
  824SOL    HW2 2472   2.754   1.773   1.516  3.3298 -1.5097 -1.1830
  825SOL     OW 2473   2.600   1.688   2.525  0.2495 -0.0931 -0.2097
  825SOL    HW1 2474   2.604   1.789   2.511  2.2920  2.4610  0.4260
  825SOL    HW2 2475   2.527   1.646   2.471  1.1561 -2.3397  2.1488
  826SOL     OW 2476   2.339   1.091   2.180 -0.2307 -0.3778 -0.5042
  826SOL    HW1 2477   2.413   1.104   2.105  2.2752  3.4632 -0.2099
  826SOL    HW2 2478   2.359   1.159   2.258 -1.5170  1.5565  0.4803
  827SOL     OW 2479   2.135   2.263   1.526  0.4406 -0.2488 -0.1872
  827SOL    HW1 2480   2.166   2.351   1.568 -1.4895  2.0526  2.7387
  827SOL    HW2 2481   2.071   2.213   1.592  1.2833 -1.3277 -0.0314
  828SOL     OW 2482   2.689   2.702   1.472  0.2143 -0.3720 -0.1451
  828SOL    HW1 2483   2.747   2.778   1.439  1.1048 -1.4247 -0.0533
  828SOL    HW2 2484   2.592   2.704   1.434 -2.7668 -0.7319  0.4793
  829SOL     OW 2485   1.525   2.278   2.569 -0.0959 -0.6496 -0.2271
  829SOL    HW1 2486   1.542   2.269   2.674 -1.9468  0.1123  3.5548
  829SOL    HW2 2487   1.605   2.232   2.518  0.2531 -2.1501 -0.2880
  830SOL     OW 2488   1.540   0.491   0.789  0.3770  0.0390  0.3793
  830SOL    HW1 2489   1.467   0.495   0.714 -2.8074  0.2197  0.7510
  830SOL    HW2 2490   1.553   0.397   0.818 -0.1024 -3.0218 -2.0323
  831SOL     OW 2491   2.518   1.315   0.301 -0.0269 -0.6662 -0.1518
  831SOL    HW1 2492   2.470   1.225   0.304 -1.3651 -1.8542 -1.3017
  831SOL    HW2 2493   2.613   1.305   0.267  0.4249 -1.1395  2.7257
  832SOL     OW 2494   1.506   1.932   1.954 -0.0775  0.3652  0.2264
  832SOL    HW1 2495   1.562   1.853   1.923  3.1014 -4.5986 -1.7673
  832SOL    HW2 2496   1.562   2.015   1.968 -0.1116  0.0983  1.7657
  833SOL     OW 2497   2.810   2.743   2.218 -0.4179 -0.0954 -0.0250
  833SOL    HW1 2498   2.846   2.677   2.289 -1.1310  2.8749 -1.0666
  833SOL    HW2 2499   2.711   2.724   2.212  0.7744  0.9723  0.2396
  834SOL     OW 2500   0.929   0.954   1.446  0.2679 -0.0298  0.2798
  834SOL    HW1 2501   0.860   1.028   1.454  0.1895 -2.7040  0.3483
  834SOL    HW2 2502   0.946   0.926   1.349  1.6285 -0.2210 -0.5160
  835SOL     OW 2503   2.892   0.791   2.579  0.0480  0.6224  0.4573
  835SOL    HW1 2504   2.977   0.786   2.523 -1.0187  3.5538  0.2338
  835SOL    HW2 2505   2.841   0.880   2.565 -1.0080  1.1588 -1.5442
  836SOL     OW 2506   1.281   2.092   1.211 -0.1402 -0.8093  0.2418
  836SOL    HW1 2507   1.263   2.161   1.283  1.0091  1.6552  2.6028
  836SOL    HW2 2508   1.303   2.001   1.253  0.1477 -0.9356 -0.3861
  837SOL     OW 2509   1.980   0.874   1.189 -0.0179  0.2095 -0.6492
  837SOL    HW1 2510   2.059   0.936   1.188  0.0839  0.2098  1.4812
  837SOL    HW2 2511   1.892   0.932   1.200 -0.0898  2.0921  2.6679
  838SOL     OW 2512   1.252   1.789   2.560  0.7107 -0.4557 -0.5739
  838SOL    HW1 2513   1.186   1.728   2.511  1.4668  0.7754 -1.8904
  838SOL    HW2 2514   1.228   1.801   2.655  1.1498 -0.0658 -2.1797
  839SOL     OW 2515   0.629   2.236   2.898 -0.3743  0.3114  0.2573
  839SOL    HW1 2516   0.526   2.242   2.879 -3.2213  1.1903 -1.9132
  839SOL    HW2 2517   0.661   2.282   2.983  1.6852  0.4929 -0.0883
  840SOL     OW 2518   0.351   2.443   0.032 -0.6916 -0.4338 -0.1139
  840SOL    HW1 2519   0.323   2.366   3.052  0.1365 -0.4982 -0.2863
  840SOL    HW2 2520   0.452   2.441   0.053  1.4350  1.2173  2.3681
  841SOL     OW 2521   1.811   2.381   3.051  0.4035 -0.4779  0.1729
  841SOL    HW1 2522   1.844   2.296   3.001  0.1231  0.7922 -1.9967
  841SOL    HW2 2523   1.840   2.469   3.002  2.2038  4.0414  0.2144
  842SOL     OW 2524   1.103   0.812   2.820 -0.1617  0.3098 -0.1074
  842SOL    HW1 2525   1.085   0.892   2.880  1.5468 -0.4422  0.9605
  842SOL    HW2 2526   1.096   0.840   2.724  0.0410 -2.3997  1.9267
  843SOL     OW 2527   1.131   2.855   0.662  0.0190 -0.0531 -0.0911
  843SOL    HW1 2528   1.074   2.921   0.608 -0.1659 -0.7632  1.0446
  843SOL    HW2 2529   1.146   2.887   0.757  0.3586  2.2756  0.7668
  844SOL     OW 2530   2.270   2.926   2.555 -0.4443 -0.5316  0.5071
  844SOL    HW1 2531   2.261   3.009   2.616  0.0681  1.6205  0.6692
  844SOL    HW2 2532   2.235   2.848   2.611  0.2809  0.7672 -0.2327
  845SOL     OW 2533   2.584   2.402   1.257 -0.4112 -0.1708 -0.4447
  845SOL    HW1 2534   2.499   2.382   1.316  0.0640  2.0342  0.6012
  845SOL    HW2 2535   2.572   2.498   1.224 -0.1464 -2.3676  1.1113
  846SOL     OW 2536   2.846   2.003   2.345  0.0522 -0.0968  0.0276
  846SOL    HW1 2537   2.869   1.986   2.245 -1.6194  1.1139 -1.3102
  846SOL    HW2 2538   2.896   1.943   2.406 -1.7422 -2.3959  1.6072
  847SOL     OW 2539   1.376   0.460   1.616 -0.2725 -0.1803 -0.4929
  847SOL    HW1 2540   1.307   0.424   1.552 -0.8210  2.0711 -0.5103
  847SOL    HW2 2541   1.351   0.438   1.712  1.5211  0.1782 -1.5481
  848SOL     OW 2542   2.898   0.374   0.123  0.2927 -0.2229  0.3714
  848SOL    HW1 2543   2.880   0.323   0.035  0.6955 -1.7340 -0.1872
  848SOL    HW2 2544   2.992   0.349   0.153 -0.9234 -0.6559 -1.8388
  849SOL     OW 2545   0.655   0.281   3.023 -0.1340 -0.4499  0.0803
  849SOL    HW1 2546   0.689   0.378   3.017  0.6080 -0.3967 -0.6755
  849SOL    HW2 2547   0.579   0.275   0.007  1.3099  1.9648 -0.1446
  850SOL     OW 2548   0.662   2.429   0.843 -0.5097 -0.3734 -0.2177
  850SOL    HW1 2549   0.739   2.380   0.793  1.7251 -1.5445  0.6894
  850SOL    HW2 2550   0.641   2.506   0.783  3.4797  0.9441  2.1949
  851SOL     OW 2551   2.475   0.014   2.124  0.6118  0.3587 -0.4563
  851SOL    HW1 2552   2.494   0.060   2.037  0.0916  1.3969 -1.4357
  851SOL    HW2 2553   2.432   0.082   2.190 -0.1202  2.1999  1.2194
  852SOL     OW 2554   1.649   1.332   2.082 -0.1598  0.3608  0.0408
  852SOL    HW1 2555   1.600   1.350   2.169 -0.1636  0.4870 -2.1984
  852SOL    HW2 2556   1.735   1.274   2.090  2.1817 -0.0816 -0.3063
  853SOL     OW 2557   2.653   2.594   0.649  0.3304  0.1586 -0.2962
  853SOL    HW1 2558   2.737   2.557   0.697  1.4377  0.6767  0.2154
  853SOL    HW2 2559   2.662   2.693   0.638 -1.0491 -2.4220  0.0119
  854SOL     OW 2560   2.388   0.309   0.988 -0.1942  0.2559 -0.3703
  854SOL    HW1 2561   2.349   0.334   0.899 -1.6789  0.7040  1.5687
  854SOL    HW2 2562   2.381   0.392   1.052  1.1390  1.9157  4.0734
  855SOL     OW 2563   1.382   2.234   0.538  0.0010 -0.0783 -0.1446
  855SOL    HW1 2564   1.381   2.296   0.457  1.8559  0.8971  1.9202
  855SOL    HW2 2565   1.385   2.291   0.622  2.5614 -1.9705  0.6730
  856SOL     OW 2566   3.007   0.496   2.873  0.0054  0.1111  0.2945
  856SOL    HW1 2567   3.032   0.487   2.774  1.1470 -1.0018  2.7488
  856SOL    HW2 2568   2.953   0.410   2.892 -0.8535 -1.5435 -1.5317
  857SOL     OW 2569   1.570   2.880   1.809  0.1541 -0.4990 -0.0078
  857SOL    HW1 2570   1.633   2.802   1.841 -3.1456 -0.3891  1.7077
  857SOL    HW2 2571   1.601   2.967   1.849 -1.9519  0.7178  0.0888
  858SOL     OW 2572   2.509   2.091   1.465 -0.2086 -0.0856 -0.1732
  858SOL    HW1 2573   2.569   2.071   1.539 -2.1602  1.6996 -0.2170
  858SOL    HW2 2574   2.483   2.007   1.409 -3.4575 -1.8954  0.9861
  859SOL     OW 2575   1.448   2.309   1.124 -0.2800 -0.4417 -0.2847
  859SOL    HW1 2576   1.374   2.235   1.144  1.2284  1.5762 -1.1674
  859SOL    HW2 2577   1.494   2.343   1.210  0.7234 -0.4077  1.0802
  860SOL     OW 2578   2.333   2.495   0.004 -0.4943 -0.2944  0.0192
  860SOL    HW1 2579   2.416   2.560   0.007  1.8452  1.7240  2.5630
  860SOL    HW2 2580   2.325   2.449   0.095 -1.3512 -0.3489  0.4372
  861SOL     OW 2581   1.490   2.518   0.950  0.1818 -0.2130  0.2269
  861SOL    HW1 2582   1.482   2.443   1.019 -0.3673  0.8584 -2.8602
  861SOL    HW2 2583   1.585   2.535   0.922 -4.2604 -1.2787  0.2393
  862SOL     OW 2584   1.776   2.967   2.425 -0.2018 -0.5320  0.1466
  862SOL    HW1 2585   1.773   3.031   2.351  0.3368 -0.1081  0.9972
  862SOL    HW2 2586   1.752   3.012   2.518 -2.1450 -0.4375  1.1947
  863SOL     OW 2587   0.199   0.490   0.484 -0.1263  0.1138 -0.1914
  863SOL    HW1 2588   0.281   0.444   0.525 -2.0005  0.9710 -0.3626
  863SOL    HW2 2589   0.118   0.465   0.539 -0.6468 -0.3197 -1.1516
  864SOL     OW 2590   2.726   2.447   1.854 -0.2187 -0.2257  0.2844
  864SOL    HW1 2591   2.666   2.454   1.771 -0.3014  1.0156  0.6475
  864SOL    HW2 2592   2.688   2.504   1.926 -0.0657  0.4617 -3.2902
  865SOL     OW 2593   2.923   1.997   2.732  0.5082  0.1145  0.0058
  865SOL    HW1 2594   2.960   1.944   2.652  0.1386  1.1674 -1.7929
  865SOL    HW2 2595   2.854   2.066   2.700  0.9797 -2.5769 -2.1532
  866SOL     OW 2596   2.627   0.415   2.696 -0.3397 -0.2203 -0.0163
  866SOL    HW1 2597   2.678   0.459   2.622  0.9345  1.8324 -0.3697
  866SOL    HW2 2598   2.587   0.489   2.753 -0.5071  0.2139 -0.8290
  867SOL     OW 2599   0.566   2.904   2.784 -0.2407 -0.0406 -0.3674
  867SOL    HW1 2600   0.599   2.963   2.865 -0.5098  2.8426  0.1348
  867SOL    HW2 2601   0.498   2.958   2.725  1.8480  0.8742 -0.4396
  868SOL     OW 2602   1.350   2.405   0.737 -0.0809  0.2459 -0.3032
  868SOL    HW1 2603   1.402   2.439   0.817  0.5528  1.4375 -1.0916
  868SOL    HW2 2604   1.249   2.411   0.762  0.5268 -1.0700  1.4721
  869SOL     OW 2605   1.390   1.328   1.182 -0.0521  0.1901 -0.5853
  869SOL    HW1 2606   1.493   1.324   1.190 -1.0997 -1.4978  1.8041
  869SOL    HW2 2607   1.356   1.401   1.240 -0.2394  2.9077 -0.3484
  870SOL     OW 2608   1.789   1.973   1.075 -0.1805 -0.3303 -0.4949
  870SOL    HW1 2609   1.849   2.061   1.084  2.7350 -2.6007 -0.6547
  870SOL    HW2 2610   1.777   1.928   1.170  0.3511 -0.1116  0.2369
  871SOL     OW 2611   1.209   1.820   1.267  0.1335 -0.0317 -0.1843
  871SOL    HW1 2612   1.125   1.846   1.217 -0.9950  0.6543 -0.7425
  871SOL    HW2 2613   1.285   1.820   1.200 -1.2163 -2.5182  0.7804
  872SOL     OW 2614   1.305   1.000   1.131  0.1327  0.2583  0.0392
  872SOL    HW1 2615   1.319   1.041   1.223  1.6076  0.8235  1.7644
  872SOL    HW2 2616   1.315   1.072   1.060 -0.2396 -0.0659 -0.1704
  873SOL     OW 2617   1.055   0.908   2.249  0.2221 -0.2580  0.2751
  873SOL    HW1 2618   0.979   0.962   2.291 -2.8487 -1.6671 -0.0316
  873SOL    HW2 2619   1.142   0.924   2.303 -0.2021  0.2158  1.5169
  874SOL     OW 2620   0.379   1.058   1.114 -0.0279 -0.3785  0.1561
  874SOL    HW1 2621   0.285   1.077   1.157 -2.0711 -0.2241 -1.7743
  874SOL    HW2 2622   0.407   1.123   1.041 -0.3378  1.7833  1.3790
  875SOL     OW 2623   2.797   2.858   0.338  0.2209 -0.4394 -0.2200
  875SOL    HW1 2624   2.702   2.873   0.366  2.6961 -2.3968  0.8370
  875SOL    HW2 2625   2.814   2.905   0.249 -1.5433 -1.6306 -0.2688
  876SOL     OW 2626   1.176   0.342   2.881 -0.4117 -0.2096  0.0302
  876SOL    HW1 2627   1.134   0.255   2.918 -1.0928 -0.7231 -0.9638
  876SOL    HW2 2628   1.108   0.408   2.831 -1.3534  3.9583 -3.1054
  877SOL     OW 2629   3.065   2.996   1.474  0.9593  0.1983 -0.4622
  877SOL    HW1 2630   0.025   3.078   1.521  1.1456  0.6603 -2.5706
  877SOL    HW2 2631   0.036   2.975   1.392  0.9410  1.8889  2.7239
  878SOL     OW 2632   1.833   2.637   2.922 -0.3996  0.4824  0.1942
  878SOL    HW1 2633   1.931   2.639   2.959  3.3485 -0.3293 -0.3074
  878SOL    HW2 2634   1.818   2.716   2.862  1.5722 -0.4808  0.4604
  879SOL     OW 2635   2.125   1.899   1.704 -0.4993 -0.3526  0.5163
  879SOL    HW1 2636   2.137   1.881   1.606 -1.2928  3.2766  1.5805
  879SOL    HW2 2637   2.065   1.824   1.742  1.9182  1.1319  3.2290
  880SOL     OW 2638   0.722   0.962   1.034  0.2302  0.1747  0.1749
  880SOL    HW1 2639   0.631   0.911   1.048 -2.5743 -2.0872 -2.7685
  880SOL    HW2 2640   0.775   0.930   0.956 -1.3528  1.6309  1.2929
  881SOL     OW 2641   1.119   1.850   3.067  0.1845  0.2621  0.0624
  881SOL    HW1 2642   1.201   1.902   0.004 -1.1021  2.4038  0.4953
  881SOL    HW2 2643   1.084   1.801   0.068 -0.3964  0.9300  2.5810
  882SOL     OW 2644   1.816   0.340   0.979  0.0829  0.2075 -0.0053
  882SOL    HW1 2645   1.772   0.385   1.058  1.3467 -2.4044 -0.3280
  882SOL    HW2 2646   1.881   0.271   1.015 -1.9750  0.8091  1.3607
  883SOL     OW 2647   1.967   0.493   2.189  0.0933 -0.1647 -0.3674
  883SOL    HW1 2648   1.955   0.584   2.232 -1.7543 -0.3155 -1.4261
  883SOL    HW2 2649   1.902   0.480   2.112  2.2662  2.0290 -0.3440
  884SOL     OW 2650   2.707   0.562   0.086  0.0258  0.9523  0.0967
  884SOL    HW1 2651   2.780   0.485   0.101 -0.2767  0.3948  0.1357
  884SOL    HW2 2652   2.754   0.635   0.031  1.7944 -0.5918 -0.8306
  885SOL     OW 2653   1.013   1.976   0.774  0.1469  0.2962  0.4380
  885SOL    HW1 2654   1.086   1.999   0.842 -2.3044 -2.6970 -1.8604
  885SOL    HW2 2655   0.928   1.938   0.819  0.5619  0.1464  2.0266
  886SOL     OW 2656   1.780   1.480   0.074 -0.1967 -0.5943 -0.0774
  886SOL    HW1 2657   1.688   1.442   0.091 -0.2827 -0.7592  0.7903
  886SOL    HW2 2658   1.788   1.563   0.131  1.0542 -0.4812  3.4952
  887SOL     OW 2659   1.615   0.345   1.632  0.2238  0.8768  0.3067
  887SOL    HW1 2660   1.617   0.272   1.563 -2.2958 -3.9700 -1.0698
  887SOL    HW2 2661   1.523   0.383   1.641 -1.1469  1.7285 -1.6972
  888SOL     OW 2662   2.890   1.493   1.626 -0.0268 -0.0571 -0.2076
  888SOL    HW1 2663   2.904   1.447   1.538  0.2509  1.0967  0.5095
  888SOL    HW2 2664   2.820   1.568   1.616  1.0363 -1.6431  0.7564
  889SOL     OW 2665   2.878   2.528   0.799 -0.3979  0.2373 -0.2460
  889SOL    HW1 2666   2.929   2.575   0.725 -2.1265 -2.3576 -0.2367
  889SOL    HW2 2667   2.910   2.560   0.890 -1.2658 -0.0070  0.1082
  890SOL     OW 2668   0.205   2.023   2.402 -0.5660 -0.0755  0.1983
  890SOL    HW1 2669   0.213   1.928   2.361  0.1246  0.7413 -1.9925
  890SOL    HW2 2670   0.189   2.089   2.331 -1.8322 -0.4898  0.8379
  891SOL     OW 2671   0.859   1.821   0.563  0.0066 -0.0126 -0.4494
  891SOL    HW1 2672   0.925   1.885   0.602 -1.7951  0.0365  1.8296
  891SOL    HW2 2673   0.812   1.757   0.634 -2.7890  1.3494  3.2778
  892SOL     OW 2674   3.064   2.366   1.296  0.3833  0.3182 -0.4445
  892SOL    HW1 2675   2.978   2.423   1.281 -0.0898  0.1144 -0.5472
  892SOL    HW2 2676   3.037   2.271   1.307  1.0677 -1.9104  2.5822
  893SOL     OW 2677   0.151   0.081   1.643 -0.0746  0.4904 -0.9097
  893SOL    HW1 2678   0.092   0.119   1.713 -0.2839 -1.8870 -3.2078
  893SOL    HW2 2679   0.203   3.075   1.671  0.9559 -1.8726  1.8131
  894SOL     OW 2680   2.653   1.792   0.858  0.0558 -0.5814  0.1177
  894SOL    HW1 2681   2.739   1.735   0.878 -0.5856 -1.9542  0.6279
  894SOL    HW2 2682   2.673   1.891   0.839  0.8107  2.1835 -1.1334
  895SOL     OW 2683   1.725   2.394   1.759  0.0392 -0.4318  0.0134
  895SOL    HW1 2684   1.795   2.329   1.791 -1.2615  0.4758  0.7576
  895SOL    HW2 2685   1.763   2.465   1.699  1.3002  0.9426  1.1682
  896SOL     OW 2686   0.517   0.045   1.558 -0.1331 -0.0509  0.3261
  896SOL    HW1 2687   0.459   0.090   1.492 -0.0257 -1.1257  2.8837
  896SOL    HW2 2688   0.550   0.110   1.628  2.1070  1.3752 -2.3091
  897SOL     OW 2689   1.343   1.043   1.394 -0.5745  0.2380  0.3720
  897SOL    HW1 2690   1.284   1.016   1.474  1.8012 -0.6638  0.5358
  897SOL    HW2 2691   1.359   1.143   1.392 -3.2774 -0.7742  1.5517
  898SOL     OW 2692   0.876   3.081   1.594  0.5602  0.0646 -0.5517
  898SOL    HW1 2693   0.839   3.045   1.686 -0.3818  2.5054  1.9873
  898SOL    HW2 2694   0.967   3.039   1.563  1.1349 -0.6732 -0.3453
  899SOL     OW 2695   1.281   0.397   0.059 -0.1548 -0.3995 -0.0054
  899SOL    HW1 2696   1.306   0.301   0.092 -0.3659  0.1546 -1.3837
  899SOL    HW2 2697   1.237   0.390   3.045 -0.5048 -1.3363 -2.0364
  900SOL     OW 2698   0.789   0.239   2.077 -0.0236 -0.3607 -0.3118
  900SOL    HW1 2699   0.836   0.297   2.006 -0.4357 -1.7749  1.0488
  900SOL    HW2 2700   0.748   0.298   2.146  0.0953 -1.8122  0.6606
  901SOL     OW 2701   0.759   2.057   0.424  0.0740  0.7390  0.2688
  901SOL    HW1 2702   0.858   2.038   0.408 -1.7722  1.2890 -1.6961
  901SOL    HW2 2703   0.715   2.018   0.340  1.4667 -0.1278  1.7508
  902SOL     OW 2704   2.094   0.490   1.106 -0.7327 -0.0053  0.1032
  902SOL    HW1 2705   2.022   0.553   1.073  0.1731 -2.0708  0.5824
  902SOL    HW2 2706   2.081   0.391   1.083  0.6113  2.6509  2.5726
  903SOL     OW 2707   2.664   0.950   2.504  0.1579 -0.2877  0.1614
  903SOL    HW1 2708   2.631   0.988   2.596  0.3816 -0.2580  1.0529
  903SOL    HW2 2709   2.728   1.013   2.453 -2.1124 -0.3261  1.3630
  904SOL     OW 2710   1.520   1.405   0.153  0.2721  0.0776  0.0020
  904SOL    HW1 2711   1.488   1.330   0.089 -1.5504 -3.3048  0.0532
  904SOL    HW2 2712   1.488   1.494   0.125 -2.5745 -2.4678  0.3573
  905SOL     OW 2713   1.850   3.021   1.477  0.1776  0.3954  0.1780
  905SOL    HW1 2714   1.908   3.016   1.559 -1.4684  0.4729  5.3437
  905SOL    HW2 2715   1.899   3.036   1.386  3.0478  1.3782 -0.9186
  906SOL     OW 2716   2.251   2.843   1.021 -0.2269  0.1650 -0.8101
  906SOL    HW1 2717   2.296   2.924   1.063  0.0475 -0.6155 -0.2409
  906SOL    HW2 2718   2.288   2.822   0.931  1.7562  1.2277  1.7238
  907SOL     OW 2719   1.846   1.048   0.262  0.1553  0.6216  0.5233
  907SOL    HW1 2720   1.769   0.985   0.287 -1.1381 -0.4324 -2.7943
  907SOL    HW2 2721   1.821   1.138   0.303 -2.2884  2.4613  0.4836
  908SOL     OW 2722   1.846   0.241   1.268 -0.1484 -0.3630  0.4266
  908SOL    HW1 2723   1.775   0.207   1.325  3.1120  3.5065 -2.0333
  908SOL    HW2 2724   1.825   0.338   1.258 -0.2815 -2.8443  1.2048
  909SOL     OW 2725   2.190   0.005   0.592 -0.7163  0.3683 -0.4534
  909SOL    HW1 2726   2.103   3.043   0.563 -2.0297  1.0622 -0.8212
  909SOL    HW2 2727   2.173   0.098   0.641  1.2900  1.2975 -0.8156
  910SOL     OW 2728   2.627   0.463   1.947  0.5510  0.0144 -0.0692
  910SOL    HW1 2729   2.580   0.557   1.943  1.6601 -0.6817 -1.5173
  910SOL    HW2 2730   2.613   0.413   1.858 -2.1127  0.0918 -2.4924
  911SOL     OW 2731   2.682   0.174   2.827 -0.3287 -0.2115  0.3405
  911SOL    HW1 2732   2.654   0.238   2.758  1.3598 -0.8935  2.0693
  911SOL    HW2 2733   2.620   0.092   2.822  0.3089 -2.4509 -2.2229
  912SOL     OW 2734   0.730   1.139   1.498 -0.1444  0.2513 -0.2719
  912SOL    HW1 2735   0.687   1.134   1.404  1.5859 -1.5253 -1.2911
  912SOL    HW2 2736   0.665   1.179   1.564 -2.2059 -0.7575  1.3461
  913SOL     OW 2737   2.822   2.523   1.283  0.2098 -0.0616  0.0957
  913SOL    HW1 2738   2.796   2.582   1.359  0.6338 -0.2283  0.5663
  913SOL    HW2 2739   2.745   2.467   1.247 -2.2760 -0.0062 -0.4646
  914SOL     OW 2740   1.976   0.868   1.508  0.2967  0.6503 -0.5081
  914SOL    HW1 2741   2.010   0.966   1.486  1.5682  0.4734  0.6991
  914SOL    HW2 2742   2.042   0.796   1.473 -0.0381  2.0786 -0.3900
  915SOL     OW 2743   2.990   1.501   1.183  0.2978 -0.1997  0.6475
  915SOL    HW1 2744   2.939   1.587   1.193 -2.9701 -0.3677 -1.1145
  915SOL    HW2 2745   2.996   1.468   1.084  0.5233 -0.2394 -1.6768
  916SOL     OW 2746   1.916   2.205   1.111 -0.0072 -0.2268 -0.2282
  916SOL    HW1 2747   1.846   2.269   1.150 -0.0460  0.4895 -1.9915
  916SOL    HW2 2748   1.995   2.258   1.075 -0.2430  0.2739  0.6811
  917SOL     OW 2749   1.598   2.455   2.184 -0.7114  0.3215 -0.2044
  917SOL    HW1 2750   1.645   2.499   2.263  1.2121 -1.0824  1.5933
  917SOL    HW2 2751   1.531   2.518   2.139 -1.3695 -0.3954  5.1163
  918SOL     OW 2752   1.760   2.163   2.432  0.9337 -0.5387  0.2772
  918SOL    HW1 2753   1.774   2.159   2.328 -2.3450 -1.7576  0.2143
  918SOL    HW2 2754   1.836   2.212   2.480 -0.6018  2.1574 -1.1849
  919SOL     OW 2755   0.818   0.177   1.380  0.3498 -0.4235  0.2286
  919SOL    HW1 2756   0.723   0.211   1.391  3.9633 -0.6790  1.2183
  919SOL    HW2 2757   0.846   0.128   1.463  0.8420 -0.9901 -3.4335
  920SOL     OW 2758   2.707   0.291   2.149 -0.5426 -0.6496  0.7235
  920SOL    HW1 2759   2.696   0.345   2.063  1.0230  0.5485 -1.1528
  920SOL    HW2 2760   2.650   0.336   2.223 -0.1593 -1.7466  1.4906
  921SOL     OW 2761   2.970   1.144   1.587 -0.0780 -0.2183 -0.3872
  921SOL    HW1 2762   2.993   1.046   1.602  0.1202  2.1075  0.2469
  921SOL    HW2 2763   2.871   1.158   1.601  0.9373  0.2080 -0.3936
  922SOL     OW 2764   2.395   2.169   0.682  0.3348  0.3220  0.5751
  922SOL    HW1 2765   2.306   2.185   0.625 -2.3690 -1.6598 -0.1425
  922SOL    HW2 2766   2.390   2.228   0.764  0.7449 -1.0141  1.0161
  923SOL     OW 2767   0.538   2.551   0.612  0.6225  0.0696 -0.1358
  923SOL    HW1 2768   0.552   2.459   0.564 -0.4823 -0.1170 -0.9942
  923SOL    HW2 2769   0.469   2.538   0.687 -0.4553 -2.3394 -1.6310
  924SOL     OW 2770   1.109   0.948   2.579 -0.6320  0.0477 -0.0822
  924SOL    HW1 2771   1.161   1.022   2.632 -1.4529  0.7724 -0.7624
  924SOL    HW2 2772   1.163   0.918   2.496  1.4085 -0.7019 -0.1321
  925SOL     OW 2773   2.804   1.462   0.668  0.5403  0.3433  0.0922
  925SOL    HW1 2774   2.771   1.398   0.740  2.2389 -2.1812 -2.1931
  925SOL    HW2 2775   2.734   1.477   0.597 -1.7891 -0.5715  1.6067
  926SOL     OW 2776   0.114   0.147   0.840 -0.1165  0.4653  0.4139
  926SOL    HW1 2777   0.201   0.103   0.806  0.2051  2.3581  0.9410
  926SOL    HW2 2778   0.064   0.074   0.895 -2.5657 -2.5336  1.6268
  927SOL     OW 2779   0.194   2.095   2.713  0.2104 -0.7871  0.1604
  927SOL    HW1 2780   0.096   2.071   2.716  0.6961  0.1382 -1.6615
  927SOL    HW2 2781   0.224   2.088   2.616 -0.2211 -0.1417  2.0865
  928SOL     OW 2782   0.169   0.414   2.215  0.5879 -0.2689 -0.4496
  928SOL    HW1 2783   0.190   0.327   2.273 -0.2102 -3.7011 -0.1424
  928SOL    HW2 2784   0.221   0.495   2.243 -1.0697  1.4165 -0.5673
  929SOL     OW 2785   2.822   2.089   1.080  0.2154  0.0354  0.7157
  929SOL    HW1 2786   2.720   2.112   1.090  0.4102  0.5760 -1.8590
  929SOL    HW2 2787   2.863   2.145   1.006  0.4014 -0.8285 -0.6507
  930SOL     OW 2788   1.887   0.246   2.286  0.3795  0.2452 -0.1393
  930SOL    HW1 2789   1.819   0.267   2.356 -0.0990  1.7734 -2.6497
  930SOL    HW2 2790   1.924   0.333   2.252 -0.6547 -0.5934 -0.5173
  931SOL     OW 2791   2.196   0.923   2.705  0.5460 -0.3748  0.3119
  931SOL    HW1 2792   2.190   1.019   2.667 -0.8724  1.5409  0.1182
  931SOL    HW2 2793   2.270   0.873   2.652 -0.2530 -1.8799 -0.0576
  932SOL     OW 2794   1.972   1.137   0.747  0.1944  0.5617  0.1562
  932SOL    HW1 2795   1.909   1.053   0.729  1.2157 -0.9231 -0.7361
  932SOL    HW2 2796   1.912   1.220   0.746 -3.0613 -0.2417 -0.4748
  933SOL     OW 2797   2.390   1.427   0.991  0.1304 -0.6203 -0.1239
  933SOL    HW1 2798   2.324   1.396   0.922 -1.3003 -0.4976 -1.2509
  933SOL    HW2 2799   2.477   1.464   0.946  1.3945  0.1948  0.2953
  934SOL     OW 2800   2.407   0.778   2.602 -0.0152  0.0885 -0.7126
  934SOL    HW1 2801   2.447   0.724   2.681 -0.7979 -3.9138 -0.4728
  934SOL    HW2 2802   2.480   0.824   2.546  2.0589  1.2687 -1.5947
  935SOL     OW 2803   0.157   1.598   0.771 -0.1700 -0.0133 -0.1561
  935SOL    HW1 2804   0.249   1.576   0.730 -0.9967  0.1674 -1.3633
  935SOL    HW2 2805   0.086   1.535   0.733 -0.9387  0.7599  0.8126
  936SOL     OW 2806   2.962   2.636   0.575  0.7415  0.4247  0.8620
  936SOL    HW1 2807   2.918   2.728   0.582 -0.0649 -0.9488 -2.1750
  936SOL    HW2 2808   3.060   2.643   0.543 -1.2204 -0.4602  1.2889
  937SOL     OW 2809   0.077   2.259   1.740 -0.5738  0.0132 -0.1147
  937SOL    HW1 2810   0.104   2.271   1.642 -2.1209 -0.1340 -1.5888
  937SOL    HW2 2811   0.138   2.193   1.783  1.7291  1.2034 -0.8645
  938SOL     OW 2812   2.584   1.908   2.970 -0.1271 -0.3947 -0.2862
  938SOL    HW1 2813   2.653   1.981   2.988 -0.7325 -0.1529 -1.6884
  938SOL    HW2 2814   2.631   1.831   2.917  2.1217  1.2486 -2.0630
  939SOL     OW 2815   1.048   0.888   1.178  0.1466 -0.1546 -0.1574
  939SOL    HW1 2816   1.133   0.903   1.125 -0.4147 -1.0835 -1.5248
  939SOL    HW2 2817   0.966   0.860   1.118  2.1777  0.9687 -1.2200
  940SOL     OW 2818   2.508   3.056   2.797 -0.1852 -0.1265 -0.3553
  940SOL    HW1 2819   2.424   0.000   2.743  1.5957 -1.6910 -1.7203
  940SOL    HW2 2820   2.509   2.957   2.826  4.8255 -1.1573 -2.1412
  941SOL     OW 2821   2.531   2.653   2.309 -0.0339  0.1035  0.2904
  941SOL    HW1 2822   2.539   2.564   2.350  0.1022 -0.8377 -1.2192
  941SOL    HW2 2823   2.441   2.667   2.267  0.5093 -0.3172  2.1026
  942SOL     OW 2824   1.443   0.298   1.294  0.9018  0.4180  0.2847
  942SOL    HW1 2825   1.521   0.253   1.336 -1.6675 -0.5661 -0.3727
  942SOL    HW2 2826   1.448   0.401   1.295  0.5050 -1.3483 -0.1435
  943SOL     OW 2827   0.484   1.668   2.440 -0.3881  0.0099 -0.6885
  943SOL    HW1 2828   0.492   1.646   2.344  1.3398 -0.1778  1.6426
  943SOL    HW2 2829   0.444   1.764   2.451 -1.2277  1.2028 -0.0263
  944SOL     OW 2830   2.314   0.875   0.823 -0.5494  0.6046 -0.5920
  944SOL    HW1 2831   2.235   0.823   0.788 -3.3438  2.0286 -2.8727
  944SOL    HW2 2832   2.295   0.971   0.795 -0.0410  2.5483 -0.8786
  945SOL     OW 2833   0.021   0.052   2.886  0.1337  0.0750  0.7910
  945SOL    HW1 2834   0.010   0.028   2.788 -1.0814 -1.5472 -2.8762
  945SOL    HW2 2835   0.111   0.092   2.913 -0.1857 -0.8891 -1.3686
  946SOL     OW 2836   0.119   1.287   1.494 -0.4519 -0.2507 -0.7285
  946SOL    HW1 2837   0.179   1.341   1.560  0.3901 -0.3581 -0.8183
  946SOL    HW2 2838   0.058   1.222   1.544 -0.1692  1.8223 -2.6089
  947SOL     OW 2839   0.980   0.074   0.150 -0.2099  0.6743 -0.3625
  947SOL    HW1 2840   1.047   0.048   0.221 -0.0493  0.9962 -0.1259
  947SOL    HW2 2841   0.899   0.012   0.147  0.3737 -0.6393  0.8157
  948SOL     OW 2842   2.413   1.597   1.246 -0.5832  0.3057 -0.5676
  948SOL    HW1 2843   2.488   1.598   1.180 -1.0629  0.2125 -0.8858
  948SOL    HW2 2844   2.325   1.588   1.198  1.5761  3.7909 -0.1564
  949SOL     OW 2845   0.255   0.750   2.979 -0.1642  0.0530 -0.1865
  949SOL    HW1 2846   0.265   0.790   3.072  1.8913  1.6541 -0.6562
  949SOL    HW2 2847   0.220   0.825   2.919  0.2318  1.4804  0.7116
  950SOL     OW 2848   0.301   2.726   1.318  0.0828 -0.3012 -0.1193
  950SOL    HW1 2849   0.244   2.740   1.403  0.6821  1.4446 -0.4293
  950SOL    HW2 2850   0.400   2.728   1.348  0.7638  2.2510 -0.3442
  951SOL     OW 2851   0.830   1.827   2.670  0.1369 -0.4060  0.6858
  951SOL    HW1 2852   0.849   1.845   2.766 -2.9966  0.9088 -2.2057
  951SOL    HW2 2853   0.835   1.917   2.622 -1.6262 -3.2459  0.4268
  952SOL     OW 2854   0.716   1.444   0.620 -0.2307  0.1098 -0.1964
  952SOL    HW1 2855   0.703   1.350   0.657  1.0645  0.9610 -0.5746
  952SOL    HW2 2856   0.799   1.492   0.658  1.0182  1.5070 -3.2717
  953SOL     OW 2857   2.282   1.924   2.569  0.7301  0.2170 -0.4682
  953SOL    HW1 2858   2.312   1.866   2.488  2.9665  0.3988  1.8169
  953SOL    HW2 2859   2.360   1.931   2.630 -2.2405 -1.8306 -2.2314
  954SOL     OW 2860   1.710   0.716   0.807  0.0253 -0.1572  0.1836
  954SOL    HW1 2861   1.642   0.640   0.800  3.0518 -0.7792  1.3832
  954SOL    HW2 2862   1.689   0.777   0.885  1.8006  0.7472 -3.0519
  955SOL     OW 2863   0.868   1.918   2.943  0.2754  0.0114  0.1065
  955SOL    HW1 2864   0.885   2.008   2.896  1.7153  1.0567 -2.7142
  955SOL    HW2 2865   0.948   1.894   2.999  0.2472  0.0694 -0.0144
  956SOL     OW 2866   2.896   0.494   1.916 -0.1532 -0.1502  0.1537
  956SOL    HW1 2867   2.794   0.491   1.911  2.0598 -1.4872 -0.3291
  956SOL    HW2 2868   2.942   0.400   1.913  2.1429 -1.5811 -0.1745
  957SOL     OW 2869   1.573   1.980   2.290 -0.1059  1.3325  0.2139
  957SOL    HW1 2870   1.622   2.041   2.355  1.0150  0.8034  0.3421
  957SOL    HW2 2871   1.637   1.921   2.241 -0.5597 -0.5242  1.6369
  958SOL     OW 2872   1.700   0.902   1.523 -0.6707  0.1034  0.1064
  958SOL    HW1 2873   1.644   0.972   1.575 -0.8010  0.6825 -1.0623
  958SOL    HW2 2874   1.796   0.896   1.554  0.5164  0.0482 -1.2457
  959SOL     OW 2875   1.314   1.806   2.126  0.0450 -0.2844 -0.0780
  959SOL    HW1 2876   1.358   1.849   2.047 -1.5071  1.4489  1.4712
  959SOL    HW2 2877   1.332   1.708   2.129  3.1715  2.1652  0.0244
  960SOL     OW 2878   0.596   1.008   2.810  0.0291  0.1282  0.0714
  960SOL    HW1 2879   0.554   1.097   2.838  0.0640  0.5409 -1.6177
  960SOL    HW2 2880   0.653   0.973   2.885  0.2158 -0.1963  0.5021
  961SOL     OW 2881   0.236   1.127   3.071 -0.1986 -0.3932 -0.1582
  961SOL    HW1 2882   0.213   1.095   2.978  0.2917  2.1778  1.4877
  961SOL    HW2 2883   0.158   1.176   0.037  0.8115  1.9086  0.5521
  962SOL     OW 2884   0.856   2.146   2.784  0.7918 -0.3602  0.2670
  962SOL    HW1 2885   0.763   2.175   2.818 -1.9703 -1.1463 -0.5593
  962SOL    HW2 2886   0.923   2.180   2.858 -0.4709 -3.8166 -0.6985
  963SOL     OW 2887   2.998   1.708   0.039 -0.6594  0.8415  0.5262
  963SOL    HW1 2888   0.003   1.699   3.067  0.8724  0.5132  0.6609
  963SOL    HW2 2889   2.993   1.797   0.080 -0.9223 -3.4452  0.2275
  964SOL     OW 2890   0.586   2.274   2.244 -0.5863 -0.1379 -0.4333
  964SOL    HW1 2891   0.522   2.282   2.165 -0.7916 -1.0219 -0.6450
  964SOL    HW2 2892   0.613   2.367   2.279 -2.8302  1.9157  0.3580
  965SOL     OW 2893   1.581   1.834   1.621  0.0147 -0.8263 -0.1016
  965SOL    HW1 2894   1.574   1.768   1.547 -0.1379  2.3953  0.7532
  965SOL    HW2 2895   1.600   1.781   1.703 -0.7579  2.3774 -3.7519
  966SOL     OW 2896   2.935   1.555   0.235  0.0291 -0.1667 -0.2570
  966SOL    HW1 2897   3.017   1.548   0.295 -0.7810  0.6068  2.1678
  966SOL    HW2 2898   2.958   1.606   0.153  2.3346 -2.1226  3.3345
  967SOL     OW 2899   2.082   2.653   2.000 -0.1570  0.7071 -0.2075
  967SOL    HW1 2900   2.008   2.620   2.053  0.7370  0.4644 -1.3375
  967SOL    HW2 2901   2.061   2.659   1.903  0.2629 -0.7865 -0.2092
  968SOL     OW 2902   1.494   1.172   3.060  0.2680 -0.2610 -0.7388
  968SOL    HW1 2903   1.599   1.166   3.059  1.2697  1.3031 -1.0686
  968SOL    HW2 2904   1.451   1.115   2.986  0.7115  0.3198  0.4685
  969SOL     OW 2905   0.401   1.377   2.393  0.1967  0.2889 -0.0445
  969SOL    HW1 2906   0.471   1.339   2.330  0.1328 -0.5081  0.3251
  969SOL    HW2 2907   0.444   1.431   2.470  3.8326 -0.5528 -1.6377
  970SOL     OW 2908   2.239   2.692   0.594  0.1568 -0.2595 -0.3737
  970SOL    HW1 2909   2.286   2.678   0.509  0.4534  0.3808  0.6099
  970SOL    HW2 2910   2.136   2.700   0.586 -0.6712 -0.3488  0.9629
  971SOL     OW 2911   2.019   2.093   0.778  0.1108 -0.1228  0.5278
  971SOL    HW1 2912   2.096   2.053   0.835  1.3353  1.7135 -1.8839
  971SOL    HW2 2913   2.028   2.197   0.778  1.4997  0.3848 -1.5333
  972SOL     OW 2914   0.193   1.585   2.784  0.3971 -0.1915  0.2182
  972SOL    HW1 2915   0.140   1.620   2.704  0.2915 -0.6398  0.2353
  972SOL    HW2 2916   0.283   1.541   2.753  2.4723 -0.5290 -0.2226
  973SOL     OW 2917   0.711   0.529   0.273  0.3435 -0.0603  0.3984
  973SOL    HW1 2918   0.765   0.465   0.215  0.9183  1.9827  1.5712
  973SOL    HW2 2919   0.775   0.602   0.301  2.7723 -0.8710  0.7788
  974SOL     OW 2920   2.366   0.726   1.725 -0.5649  0.1824  0.1259
  974SOL    HW1 2921   2.378   0.626   1.737 -0.9228 -2.8257  1.4955
  974SOL    HW2 2922   2.453   0.772   1.699 -1.1836  0.8532  1.2042
  975SOL     OW 2923   2.916   0.047   0.629 -0.0891 -0.0595  0.6760
  975SOL    HW1 2924   2.966   0.008   0.706  0.7952 -1.0347 -4.4034
  975SOL    HW2 2925   2.836   0.111   0.651  3.5540  2.8145  0.1216
  976SOL     OW 2926   0.688   1.607   1.566 -0.1847 -0.4866 -0.3162
  976SOL    HW1 2927   0.707   1.529   1.629 -1.0606  0.6047 -0.8983
  976SOL    HW2 2928   0.671   1.575   1.475  1.3264  3.6970  2.4154
  977SOL     OW 2929   1.323   2.401   0.333 -0.2892 -0.1037  0.0008
  977SOL    HW1 2930   1.331   2.345   0.254 -1.7111  2.3168  1.7937
  977SOL    HW2 2931   1.226   2.415   0.356  1.5424  1.9992  0.5927
  978SOL     OW 2932   0.010   0.668   3.069 -0.6640  0.0038 -0.2691
  978SOL    HW1 2933   3.044   0.602   3.001  1.1602 -0.0836 -0.0101
  978SOL    HW2 2934   0.105   0.677   3.026  3.8915  1.8489 -1.2149
  979SOL     OW 2935   2.218   1.478   0.775 -0.0588  0.7859  0.8471
  979SOL    HW1 2936   2.303   1.471   0.719 -1.0829  2.1875  1.3313
  979SOL    HW2 2937   2.157   1.530   0.717  2.2936 -4.5343  2.0486
  980SOL     OW 2938   0.560   1.996   1.810 -0.0294 -0.0901  0.3103
  980SOL    HW1 2939   0.636   1.945   1.768  0.2651 -3.1837 -2.5783
  980SOL    HW2 2940   0.578   2.097   1.810  0.8893  2.2950 -1.4477
  981SOL     OW 2941   2.705   1.296   2.509 -0.0383  0.6552  0.1552
  981SOL    HW1 2942   2.755   1.207   2.492  0.7311 -2.5523  1.8244
  981SOL    HW2 2943   2.695   1.310   2.606  0.6641 -2.1510 -1.6456
  982SOL     OW 2944   0.215   2.032   1.738 -0.6079  0.2913  0.0242
  982SOL    HW1 2945   0.233   2.020   1.638  0.5760  0.7206  2.3679
  982SOL    HW2 2946   0.295   2.000   1.792  0.6529 -1.4227 -1.2881
  983SOL     OW 2947   1.600   0.294   1.908  0.0144 -0.0303  0.0461
  983SOL    HW1 2948   1.517   0.353   1.913 -1.9091  0.3712 -1.1136
  983SOL    HW2 2949   1.630   0.314   1.812 -2.5453  1.8067 -1.0210
  984SOL     OW 2950   2.886   2.977   2.929  0.1218  0.1004 -0.2968
  984SOL    HW1 2951   2.975   3.033   2.925  0.3595  0.8346 -0.7593
  984SOL    HW2 2952   2.855   2.959   2.830 -1.9711 -0.1416  2.1235
  985SOL     OW 2953   1.359   1.263   1.851 -0.0115  0.2582 -0.2595
  985SOL    HW1 2954   1.374   1.361   1.829  2.0011  1.2019 -3.2174
  985SOL    HW2 2955   1.418   1.207   1.792  2.7544  1.1044 -3.1783
  986SOL     OW 2956   1.911   0.293   2.689 -0.0838 -0.3572 -0.2438
  986SOL    HW1 2957   2.010   0.312   2.724  1.7459 -0.8353  0.3727
  986SOL    HW2 2958   1.853   0.372   2.716 -0.1339  0.1067 -1.9044
  987SOL     OW 2959   2.865   1.588   2.577  0.0570  0.0318 -0.4771
  987SOL    HW1 2960   2.868   1.635   2.663 -0.7012 -1.6052 -1.8290
  987SOL    HW2 2961   2.776   1.609   2.529  0.8515 -0.3295  2.7608
  988SOL     OW 2962   0.034   0.196   1.280  0.2031  0.1315  0.4369
  988SOL    HW1 2963   0.099   0.213   1.358  0.4373 -0.7681  2.4895
  988SOL    HW2 2964   3.020   0.169   1.311 -1.7200 -0.3614 -2.4476
  989SOL     OW 2965   2.073   0.239   1.016  0.1088 -0.2589 -0.4100
  989SOL    HW1 2966   2.113   0.271   0.932  1.4159  2.3829 -1.1794
  989SOL    HW2 2967   2.058   0.137   1.020 -1.3780 -2.5895 -1.8150
  990SOL     OW 2968   2.568   0.675   2.823  0.5820 -0.5523  0.8754
  990SOL    HW1 2969   2.669   0.696   2.807 -0.5360 -0.0369 -1.6648
  990SOL    HW2 2970   2.523   0.738   2.888  1.6233 -2.8814 -1.1023
  991SOL     OW 2971   0.330   1.324   0.463  0.1333  0.4479  0.8599
  991SOL    HW1 2972   0.276   1.237   0.475 -0.1356  0.2584  0.1951
  991SOL    HW2 2973   0.413   1.311   0.404  1.2564  2.6577 -1.4721
  992SOL     OW 2974   2.084   1.232   1.773  0.7957  0.4426  0.9369
  992SOL    HW1 2975   2.116   1.327   1.793  1.2078 -3.3185  0.0853
  992SOL    HW2 2976   2.091   1.168   1.852  0.9785  1.6689  0.7049
  993SOL     OW 2977   0.178   2.401   0.666  0.0347 -0.2783 -0.2874
  993SOL    HW1 2978   0.141   2.319   0.720 -0.4383 -2.4566  3.7700
  993SOL    HW2 2979   0.256   2.435   0.723 -2.4015  1.9423 -1.8800
  994SOL     OW 2980   2.913   1.741   1.816 -0.3506  0.0069  0.1052
  994SOL    HW1 2981   2.821   1.709   1.844  0.6805 -1.0112 -0.7368
  994SOL    HW2 2982   2.944   1.699   1.732 -1.8044 -0.2048  1.3077
  995SOL     OW 2983   2.073   1.760   2.621 -0.3470 -0.9456  0.0087
  995SOL    HW1 2984   2.011   1.800   2.552  2.2839 -0.3220 -0.3253
  995SOL    HW2 2985   2.159   1.823   2.619  2.0579  1.5323  1.9878
  996SOL     OW 2986   2.046   2.300   0.297  0.0254 -0.2966 -0.4264
  996SOL    HW1 2987   1.952   2.262   0.292  3.3380  0.9858  0.2692
  996SOL    HW2 2988   2.096   2.259   0.222 -0.1539  1.4314 -1.8884
  997SOL     OW 2989   1.029   1.647   2.409  0.1045 -0.0633  0.2404
  997SOL    HW1 2990   0.936   1.642   2.438  0.7673  1.8772  1.1043
  997SOL    HW2 2991   1.055   1.564   2.357 -1.1620 -0.2320  0.7833
  998SOL     OW 2992   2.847   2.373   0.488  0.1646 -0.0924  0.5500
  998SOL    HW1 2993   2.873   2.428   0.570  1.4617 -1.5011 -1.9131
  998SOL    HW2 2994   2.800   2.430   0.416  0.5233 -0.9235 -0.2607
  999SOL     OW 2995   0.558   2.996   0.547  0.0933  0.2337 -0.0596
  999SOL    HW1 2996   0.465   2.954   0.541 -2.6367 -0.4933 -0.0422
  999SOL    HW2 2997   0.627   2.926   0.579  3.5549 -0.2889 -1.3174
 1000SOL     OW 2998   1.281   0.362   0.358  0.1967 -0.4407  0.0357
 1000SOL    HW1 2999   1.332   0.360   0.271 -0.6491 -0.2950  1.4621
 1000SOL    HW2 3000   1.185   0.385   0.335 -2.0876  0.2923 -0.3772
   3.08117   3.08117   3.08117
