1000 SPC/Fw water molecules t= 359.00000 step= 359000
 3000
    1SOL     OW    1   2.531   3.005   1.305 -0.0293  0.3093  0.0214
    1SOL    HW1    2   2.523   2.913   1.356 -1.3073 -1.7231  2.3042
    1SOL    HW2    3   2.567   3.000   1.205 -1.1857 -1.8547 -1.8646
    2SOL     OW    4   2.763   2.322   0.722  0.6483 -0.2995 -0.4191
    2SOL    HW1    5   2.707   2.366   0.797  0.9029 -0.7115  0.2837
    2SOL    HW2    6   2.759   2.378   0.637 -1.2175  0.2774  1.1127
    3SOL     OW    7   1.530   3.005   3.075  0.4416  0.0311 -0.2220
    3SOL    HW1    8   1.584   3.088   3.076 -0.7166 -0.7982  0.5918
    3SOL    HW2    9   1.442   3.019   0.028  2.4580 -0.5431 -1.3364
    4SOL     OW   10   1.582   2.816   2.233  0.3428 -0.1257  0.2320
    4SOL    HW1   11   1.553   2.908   2.199 -0.4306 -0.5608 -3.4698
    4SOL    HW2   12   1.622   2.761   2.158 -0.9471  1.3316  2.4168
    5SOL     OW   13   1.929   0.205   1.657 -0.4353  0.2017 -0.4636
    5SOL    HW1   14   2.018   0.226   1.702  0.2085 -1.0302  0.1311
    5SOL    HW2   15   1.875   0.290   1.633 -0.0333  1.7996  0.5237
    6SOL     OW   16   2.198   2.409   0.539  0.0838  0.3685 -0.2063
    6SOL    HW1   17   2.166   2.505   0.557 -0.5702  2.3918  0.4868
    6SOL    HW2   18   2.216   2.358   0.628 -0.2824 -1.3585  1.1394
    7SOL     OW   19   1.843   0.986   1.211 -0.0372 -0.5121 -0.3571
    7SOL    HW1   20   1.831   1.083   1.247  0.4624  2.3998  1.5171
    7SOL    HW2   21   1.795   0.971   1.125  3.2712  0.3049  2.3851
    8SOL     OW   22   0.699   1.702   1.329  0.1842 -0.8027 -0.3618
    8SOL    HW1   23   0.606   1.658   1.333  2.5116  0.7805 -1.8819
    8SOL    HW2   24   0.757   1.651   1.267 -0.7437  2.9510  1.4700
    9SOL     OW   25   1.097   2.333   1.875 -0.2710 -0.4626 -0.1661
    9SOL    HW1   26   1.008   2.364   1.908  2.6994  1.3255 -0.9965
    9SOL    HW2   27   1.084   2.249   1.819 -0.2116  0.2468 -1.3993
   10SOL     OW   28   0.572   2.187   0.741 -0.2264  0.3570  0.2540
   10SOL    HW1   29   0.630   2.162   0.826  0.4322  0.3510  1.0091
   10SOL    HW2   30   0.580   2.287   0.710 -1.3062  1.7593 -0.3171
   11SOL     OW   31   1.584   2.076   1.382  0.2208  0.8378 -0.4045
   11SOL    HW1   32   1.509   2.141   1.404 -0.5703 -3.8437 -0.1804
   11SOL    HW2   33   1.649   2.109   1.308  0.3192  0.5438 -0.2000
   12SOL     OW   34   2.639   0.449   2.395 -0.1979  0.0381 -0.6735
   12SOL    HW1   35   2.736   0.445   2.372 -0.7264  2.4107 -0.4959
   12SOL    HW2   36   2.630   0.517   2.474  0.6165 -0.7589  0.1940
   13SOL     OW   37   2.755   2.964   0.593  0.2460  0.1171 -0.1971
   13SOL    HW1   38   2.728   3.004   0.686 -4.1738  1.9495  2.8746
   13SOL    HW2   39   2.834   2.901   0.605 -0.7689  0.3949  1.5687
   14SOL     OW   40   1.539   1.485   3.057  0.2816  0.4778 -0.1691
   14SOL    HW1   41   1.532   1.583   3.074 -1.4295 -1.4488 -0.0095
   14SOL    HW2   42   1.457   1.450   3.009 -1.4198  0.5195  0.1073
   15SOL     OW   43   2.337   2.587   1.316  0.3512  0.3076 -0.0903
   15SOL    HW1   44   2.394   2.502   1.324  0.5214  0.1990  1.7179
   15SOL    HW2   45   2.269   2.596   1.394  0.7968  0.2810  2.2197
   16SOL     OW   46   2.398   2.662   0.425  0.1691  0.0273  0.2514
   16SOL    HW1   47   2.303   2.687   0.441 -0.5714 -1.2196  1.1023
   16SOL    HW2   48   2.457   2.745   0.415 -0.4949 -1.0940 -1.8973
   17SOL     OW   49   0.497   0.443   1.177  1.4496  0.4616  1.0648
   17SOL    HW1   50   0.534   0.422   1.273 -1.4699  1.4333 -1.0070
   17SOL    HW2   51   0.435   0.524   1.174  1.8298  2.5973  0.1788
   18SOL     OW   52   2.005   0.393   0.490  0.0662 -0.3722 -0.4306
   18SOL    HW1   53   1.970   0.302   0.513 -0.7688 -2.3683  0.7065
   18SOL    HW2   54   1.992   0.398   0.390  0.4762 -0.5195 -1.2687
   19SOL     OW   55   2.087   1.262   0.078 -0.5683  0.1308  0.1958
   19SOL    HW1   56   2.080   1.298   3.072  0.1706 -3.1064  1.2843
   19SOL    HW2   57   2.107   1.340   0.141 -1.3887 -0.3365  1.8125
   20SOL     OW   58   2.429   1.529   2.293 -0.5261  0.0262  0.5283
   20SOL    HW1   59   2.509   1.469   2.304  2.5557  0.7208 -0.0634
   20SOL    HW2   60   2.456   1.594   2.215 -2.4467  0.0374  2.0139
   21SOL     OW   61   1.484   0.199   0.656 -0.3693 -0.2046 -0.0039
   21SOL    HW1   62   1.483   0.246   0.743  2.4018  0.2205 -2.2494
   21SOL    HW2   63   1.579   0.163   0.647 -0.5204 -0.2363 -2.1128
   22SOL     OW   64   2.689   0.459   1.435  0.9935  0.1797  0.4744
   22SOL    HW1   65   2.667   0.540   1.493 -0.4683 -0.0634  0.1282
   22SOL    HW2   66   2.701   0.487   1.337 -0.9351  0.7317  0.2105
   23SOL     OW   67   0.281   0.332   1.748  0.8756 -0.0367 -0.3533
   23SOL    HW1   68   0.324   0.402   1.810  1.9186 -0.5743  0.2381
   23SOL    HW2   69   0.179   0.321   1.757 -1.1074 -0.1227 -1.2686
   24SOL     OW   70   2.786   2.615   0.298 -0.1304  0.8531 -0.3243
   24SOL    HW1   71   2.877   2.659   0.316 -0.0665 -1.7114  1.0372
   24SOL    HW2   72   2.726   2.675   0.247  0.6772  0.3481 -0.7483
   25SOL     OW   73   1.095   2.702   2.763  0.8935 -0.2304 -0.1486
   25SOL    HW1   74   0.996   2.689   2.748 -0.6434  0.0256 -0.4760
   25SOL    HW2   75   1.122   2.792   2.730  1.2166 -0.7720  0.7527
   26SOL     OW   76   1.275   2.619   0.449 -0.1862  0.3127 -0.3689
   26SOL    HW1   77   1.340   2.540   0.461  0.2739  0.5987 -2.3163
   26SOL    HW2   78   1.301   2.705   0.504 -3.5181  2.7212  1.5913
   27SOL     OW   79   2.172   0.768   0.803  0.2475  0.3553  1.1555
   27SOL    HW1   80   2.196   0.817   0.885  0.0293 -0.8610  0.2698
   27SOL    HW2   81   2.245   0.702   0.772  0.2131 -0.6316 -1.0124
   28SOL     OW   82   0.885   1.629   1.138 -0.5350 -0.5519  0.1044
   28SOL    HW1   83   0.852   1.570   1.065  0.3615 -1.5118  2.7002
   28SOL    HW2   84   0.987   1.637   1.140 -0.7632  1.9341 -0.2744
   29SOL     OW   85   3.060   2.915   1.684 -0.3014  0.3224 -0.2632
   29SOL    HW1   86   0.035   2.973   1.738  0.9641  3.5403  2.0690
   29SOL    HW2   87   2.964   2.937   1.706 -0.9967  0.1368 -0.4037
   30SOL     OW   88   1.324   0.127   1.276 -0.4127 -0.4420 -0.3224
   30SOL    HW1   89   1.312   0.073   1.192 -3.8676  0.8349  2.2929
   30SOL    HW2   90   1.381   0.082   1.347  1.5866  1.9213  2.5730
   31SOL     OW   91   1.952   2.808   2.415 -0.2120  0.3875  0.3841
   31SOL    HW1   92   1.873   2.860   2.452  2.1542 -0.8009  0.4444
   31SOL    HW2   93   1.946   2.802   2.316 -1.1919 -0.0451  1.0691
   32SOL     OW   94   0.900   1.369   0.158 -0.2825  0.1255  0.9292
   32SOL    HW1   95   0.828   1.399   0.088 -0.0351 -0.2904  0.9623
   32SOL    HW2   96   0.957   1.445   0.188 -0.1001 -1.5605 -0.9300
   33SOL     OW   97   3.065   0.883   2.604  0.0195  0.3445 -0.0035
   33SOL    HW1   98   0.018   0.880   2.514  0.3678  2.9135 -0.4411
   33SOL    HW2   99   0.003   0.799   2.654  1.7764  0.0205 -0.1563
   34SOL     OW  100   2.295   0.034   0.439  0.2195  0.3695 -0.1223
   34SOL    HW1  101   2.264   0.063   0.532 -1.6580  0.5274  3.0896
   34SOL    HW2  102   2.325   3.027   0.443 -0.7183 -1.4627 -3.2491
   35SOL     OW  103   2.558   2.339   1.611  1.0569 -0.5551  0.2881
   35SOL    HW1  104   2.655   2.360   1.642 -2.0210 -0.3159  0.4410
   35SOL    HW2  105   2.510   2.285   1.685  0.9135 -1.6956  2.1534
   36SOL     OW  106   2.168   2.038   2.766  0.0511 -0.9348  0.9932
   36SOL    HW1  107   2.212   2.124   2.727  1.2356  0.9084 -0.7881
   36SOL    HW2  108   2.080   2.025   2.716  0.4888  1.2829  1.9728
   37SOL     OW  109   1.735   0.337   1.934 -0.0988 -0.5415 -0.7188
   37SOL    HW1  110   1.740   0.436   1.905  1.4930  2.7074 -1.6046
   37SOL    HW2  111   1.699   0.277   1.867  2.3696  4.2679  1.8503
   38SOL     OW  112   0.040   0.446   2.831 -0.1377  0.1248  0.2166
   38SOL    HW1  113   3.045   0.400   2.787 -0.3685 -0.5378 -1.1051
   38SOL    HW2  114   0.033   0.445   2.932 -0.5642  0.2864 -1.0524
   39SOL     OW  115   1.957   1.357   1.585 -0.0199 -0.2103  0.5161
   39SOL    HW1  116   1.942   1.382   1.684 -2.6877  0.2706  0.2133
   39SOL    HW2  117   2.057   1.373   1.559 -0.4776 -1.1293 -1.3308
   40SOL     OW  118   1.382   2.184   0.450  0.0097  0.0212  0.0259
   40SOL    HW1  119   1.335   2.165   0.538 -1.6495  0.5702  0.8912
   40SOL    HW2  120   1.312   2.213   0.380 -0.6838 -0.0827  0.1793
   41SOL     OW  121   2.060   1.463   0.948  0.7147  0.2846  0.1604
   41SOL    HW1  122   2.152   1.447   0.913 -0.6503 -0.2674  0.6864
   41SOL    HW2  123   2.021   1.542   0.894 -2.2578  3.2850 -1.7105
   42SOL     OW  124   0.537   0.256   0.975  0.3069 -0.4019  0.1435
   42SOL    HW1  125   0.523   0.183   1.036 -0.3828  2.4341 -3.4045
   42SOL    HW2  126   0.526   0.349   1.020 -0.0774  1.4431  1.6978
   43SOL     OW  127   0.041   1.467   2.521 -0.4080  0.1538  0.0470
   43SOL    HW1  128   3.079   1.451   2.605 -1.4761 -0.3648  1.4210
   43SOL    HW2  129   0.140   1.440   2.536  1.2589 -1.1810  2.7526
   44SOL     OW  130   2.068   2.847   1.342 -0.0507  0.0786 -0.2945
   44SOL    HW1  131   2.084   2.821   1.439  0.5005 -1.8934 -1.0579
   44SOL    HW2  132   2.156   2.846   1.284 -0.2185  3.1119 -2.1990
   45SOL     OW  133   1.167   0.194   2.381 -0.1917  0.0845  0.4720
   45SOL    HW1  134   1.199   0.096   2.392  1.3766 -3.6843  0.0441
   45SOL    HW2  135   1.130   0.238   2.467  0.1983 -1.8850  3.9478
   46SOL     OW  136   0.820   2.550   2.534  0.0811 -0.5535  0.4252
   46SOL    HW1  137   0.800   2.587   2.436  0.9031  1.9727 -1.5048
   46SOL    HW2  138   0.818   2.450   2.527  2.2548  2.1998 -1.6721
   47SOL     OW  139   0.885   1.875   0.779 -0.0703  0.0137 -0.4469
   47SOL    HW1  140   0.938   1.792   0.748  3.3732 -2.8229  0.2551
   47SOL    HW2  141   0.830   1.866   0.868 -1.1285 -0.3064  0.2559
   48SOL     OW  142   1.294   2.827   1.054  0.2904 -0.1373 -0.1941
   48SOL    HW1  143   1.288   2.735   1.002  0.4410 -1.5221 -0.0605
   48SOL    HW2  144   1.300   2.817   1.156  3.5287  1.3596  1.4694
   49SOL     OW  145   2.300   0.096   2.962 -0.2593 -0.0424 -0.0179
   49SOL    HW1  146   2.366   0.049   3.029 -2.2202  0.4470 -1.4405
   49SOL    HW2  147   2.342   0.175   2.911 -0.3614 -0.3408  0.1774
   50SOL     OW  148   1.761   0.151   0.192  0.2204 -0.2072 -0.2105
   50SOL    HW1  149   1.811   0.072   0.228 -0.9422 -0.6170 -0.6074
   50SOL    HW2  150   1.760   0.147   0.089 -2.3807  2.1702 -0.5291
   51SOL     OW  151   2.272   0.565   1.185  0.1300  0.2408  0.3500
   51SOL    HW1  152   2.272   0.622   1.270 -1.9620 -0.5322  1.6248
   51SOL    HW2  153   2.358   0.510   1.181  1.8946 -1.1574  2.3378
   52SOL     OW  154   0.702   1.626   0.174 -0.1520  0.3073  0.0620
   52SOL    HW1  155   0.720   1.587   0.087 -1.8791  1.9663 -0.0883
   52SOL    HW2  156   0.764   1.705   0.196 -1.1298 -0.1117 -0.1009
   53SOL     OW  157   0.231   1.312   2.826 -0.3585 -0.2901  0.3812
   53SOL    HW1  158   0.217   1.216   2.788 -1.0844  0.7128 -1.6878
   53SOL    HW2  159   0.286   1.316   2.907 -2.7731  2.2131 -1.5441
   54SOL     OW  160   2.774   1.172   1.681 -0.2278  0.1090  0.2907
   54SOL    HW1  161   2.834   1.094   1.694  1.4215  1.8293  1.2475
   54SOL    HW2  162   2.741   1.216   1.768 -1.6181  2.6544  2.6120
   55SOL     OW  163   2.275   1.935   0.429  0.3045 -0.2087 -0.1588
   55SOL    HW1  164   2.364   1.971   0.466  2.5487  1.2038 -0.3505
   55SOL    HW2  165   2.253   1.836   0.459 -1.8433 -0.8496 -1.8765
   56SOL     OW  166   1.749   0.004   1.488  0.5808  0.1605  0.5332
   56SOL    HW1  167   1.817   0.020   1.416  1.4992 -0.2871  3.4008
   56SOL    HW2  168   1.662   3.069   1.439 -0.9250 -0.8646 -0.4153
   57SOL     OW  169   1.595   1.380   2.769  0.4647 -0.5040  0.0077
   57SOL    HW1  170   1.559   1.471   2.808 -2.1306  2.1935  1.5461
   57SOL    HW2  171   1.657   1.325   2.828 -1.7611 -0.1850 -1.1694
   58SOL     OW  172   0.090   0.658   1.216  0.2207  0.0342  0.2112
   58SOL    HW1  173   0.078   0.630   1.314  0.5314  0.9645 -0.0182
   58SOL    HW2  174   0.050   0.579   1.162 -0.3221 -0.3949  0.5589
   59SOL     OW  175   1.324   2.636   0.178  0.0358 -0.4999  0.0249
   59SOL    HW1  176   1.276   2.616   0.264  1.1486 -1.2413 -0.4660
   59SOL    HW2  177   1.259   2.656   0.105  1.9528 -2.0447 -0.1368
   60SOL     OW  178   0.120   1.969   2.769  0.2052 -0.3707 -0.5226
   60SOL    HW1  179   0.211   1.947   2.814 -0.1634  1.4037 -1.9633
   60SOL    HW2  180   0.098   2.068   2.788 -0.0969  4.4849 -1.1114
   61SOL     OW  181   0.824   2.371   1.099  0.2257  0.0015  0.0149
   61SOL    HW1  182   0.925   2.379   1.135  2.5597  0.8834  0.6474
   61SOL    HW2  183   0.759   2.413   1.163 -0.4890  0.7256 -0.8445
   62SOL     OW  184   1.528   1.651   2.740  0.2478 -0.3218  0.1840
   62SOL    HW1  185   1.604   1.664   2.673 -0.8654  2.1859  3.1184
   62SOL    HW2  186   1.436   1.634   2.698 -0.1482 -0.6551 -2.2184
   63SOL     OW  187   2.225   1.939   0.165 -0.4331 -0.3848  0.7117
   63SOL    HW1  188   2.130   1.967   0.143  4.6013  0.7087  0.3423
   63SOL    HW2  189   2.227   1.921   0.263  0.3493  0.4579  0.4609
   64SOL     OW  190   1.943   1.108   0.386  0.4837 -0.1227 -0.3403
   64SOL    HW1  191   1.901   1.063   0.309  4.1340  1.0266 -0.2954
   64SOL    HW2  192   2.041   1.126   0.366  2.9575  0.6144 -0.6863
   65SOL     OW  193   2.198   1.787   2.222 -0.3138  0.2291 -0.0698
   65SOL    HW1  194   2.251   1.793   2.309 -1.4964  0.1353 -3.0826
   65SOL    HW2  195   2.250   1.823   2.143 -1.0091  1.2630  0.2103
   66SOL     OW  196   0.454   1.168   1.508 -0.2691 -0.1183 -0.3529
   66SOL    HW1  197   0.522   1.243   1.519 -1.7392  1.7969  0.4994
   66SOL    HW2  198   0.368   1.207   1.466  1.7361  0.1220 -1.1995
   67SOL     OW  199   2.087   0.054   2.469  0.1992 -0.1413  0.4812
   67SOL    HW1  200   2.001   0.025   2.516  0.4836 -2.5346 -1.4204
   67SOL    HW2  201   2.109   3.079   2.391  1.6147 -0.9714 -0.4073
   68SOL     OW  202   1.339   2.227   1.459 -0.4499 -0.7628 -0.0514
   68SOL    HW1  203   1.301   2.216   1.368  0.6456 -3.1972  0.6127
   68SOL    HW2  204   1.294   2.306   1.505 -1.6751  2.6668 -2.0052
   69SOL     OW  205   0.560   2.563   3.083  0.0884 -0.0548 -0.1169
   69SOL    HW1  206   0.582   2.514   0.085  0.0558 -1.7598  2.7964
   69SOL    HW2  207   0.608   2.652   3.075 -0.0821 -1.0069  1.9347
   70SOL     OW  208   0.200   0.696   2.207 -0.4301 -0.0017  0.2796
   70SOL    HW1  209   0.131   0.682   2.139  2.3141  1.8832  2.6130
   70SOL    HW2  210   0.288   0.733   2.171  2.4151 -0.9120 -3.8236
   71SOL     OW  211   0.798   1.114   2.513  0.8097 -0.0225  0.1159
   71SOL    HW1  212   0.704   1.113   2.543  1.1554 -0.2390 -0.4969
   71SOL    HW2  213   0.855   1.065   2.581 -0.6608  1.6514 -5.4222
   72SOL     OW  214   3.013   1.553   2.269 -0.6957  0.0659 -0.5083
   72SOL    HW1  215   3.040   1.517   2.361 -0.4662 -2.2386  1.2073
   72SOL    HW2  216   2.993   1.654   2.267 -0.3521 -0.8610  0.4333
   73SOL     OW  217   1.607   1.577   0.339  0.2849  0.7292 -0.0956
   73SOL    HW1  218   1.671   1.610   0.272  1.9356 -0.3398 -0.0832
   73SOL    HW2  219   1.515   1.627   0.333  0.7744  1.7989  0.2343
   74SOL     OW  220   2.470   3.053   2.557  0.2748 -0.0514  0.0327
   74SOL    HW1  221   2.384   3.024   2.605 -2.6960 -1.6138  1.2219
   74SOL    HW2  222   2.462   0.057   2.512 -2.4158  0.7999  1.9173
   75SOL     OW  223   1.769   2.188   1.213  0.2926  0.0492  0.3216
   75SOL    HW1  224   1.764   2.277   1.262  0.1238 -2.1350 -1.1537
   75SOL    HW2  225   1.861   2.185   1.171 -3.1715  0.3474  0.2713
   76SOL     OW  226   0.098   2.061   1.857 -0.0104  0.2603 -0.3838
   76SOL    HW1  227   0.162   1.981   1.864 -2.1306 -1.0657  0.7047
   76SOL    HW2  228   0.133   2.127   1.791  0.0815 -2.6065  0.1796
   77SOL     OW  229   0.051   0.162   1.981 -0.5049 -0.7005 -0.8287
   77SOL    HW1  230   0.061   0.073   1.934  0.8673  1.2023 -0.6221
   77SOL    HW2  231   0.069   0.243   1.917 -3.2800  0.5914  0.5308
   78SOL     OW  232   2.271   1.065   0.089 -0.1483  0.6146 -0.8537
   78SOL    HW1  233   2.193   1.129   0.078  0.0503 -0.3889  0.3850
   78SOL    HW2  234   2.337   1.071   0.016  1.9826 -0.0227  0.5388
   79SOL     OW  235   2.927   1.195   2.496 -0.4093  1.2651  0.3143
   79SOL    HW1  236   2.915   1.268   2.564 -0.5009 -0.7253 -1.6641
   79SOL    HW2  237   3.024   1.182   2.469  0.0576 -0.9647 -0.6136
   80SOL     OW  238   1.563   1.326   1.460  0.3947  0.0921  0.0599
   80SOL    HW1  239   1.573   1.428   1.484 -1.2327  3.4675 -0.1578
   80SOL    HW2  240   1.529   1.270   1.540 -0.2609  1.4017 -0.5522
   81SOL     OW  241   2.123   1.112   1.886  0.3692  0.1893  0.4194
   81SOL    HW1  242   2.038   1.090   1.833  1.2711  1.9924  0.0247
   81SOL    HW2  243   2.204   1.060   1.851  0.0898  1.4654 -1.6363
   82SOL     OW  244   1.665   1.601   1.600  0.0610 -0.1492 -0.2212
   82SOL    HW1  245   1.683   1.552   1.693  0.1133 -0.6234  1.6434
   82SOL    HW2  246   1.747   1.657   1.572  0.4133  0.4226  0.8813
   83SOL     OW  247   0.286   0.264   0.179  0.0815 -0.4541  0.0513
   83SOL    HW1  248   0.236   0.194   0.123  1.5854 -0.3815  0.3592
   83SOL    HW2  249   0.369   0.293   0.131  1.0315 -1.4248  0.3151
   84SOL     OW  250   0.002   0.846   2.979  0.2180  0.6861 -0.1584
   84SOL    HW1  251   3.081   0.817   3.076 -2.1994 -1.3682  0.6981
   84SOL    HW2  252   3.078   0.946   2.967 -0.0059 -2.3282 -2.4383
   85SOL     OW  253   2.250   2.100   1.040 -0.2844 -0.0218  0.4572
   85SOL    HW1  254   2.224   2.020   0.984  2.1697 -2.2716 -0.7474
   85SOL    HW2  255   2.348   2.118   1.029 -1.0808 -1.1017  0.1854
   86SOL     OW  256   0.425   2.440   1.326  0.2291  0.3960  0.0951
   86SOL    HW1  257   0.511   2.494   1.340  0.3984 -2.1527 -1.9288
   86SOL    HW2  258   0.458   2.363   1.268 -0.4447  2.3901 -0.0218
   87SOL     OW  259   0.525   2.418   2.238 -0.1936  0.5445 -0.0558
   87SOL    HW1  260   0.615   2.464   2.242  1.3544 -0.3737 -2.8150
   87SOL    HW2  261   0.531   2.324   2.284 -2.5471  2.2386 -1.0046
   88SOL     OW  262   0.046   1.944   0.218 -0.2442 -0.3533  0.6128
   88SOL    HW1  263   3.087   1.987   0.137 -2.0090 -2.0532 -3.1204
   88SOL    HW2  264   0.127   1.890   0.179  0.1269 -2.6144 -1.3828
   89SOL     OW  265   0.776   0.987   0.817  0.2256  0.1171 -0.0068
   89SOL    HW1  266   0.735   0.924   0.884 -0.8023 -1.9336 -0.2819
   89SOL    HW2  267   0.820   0.932   0.742 -2.5223  0.3813  0.7093
   90SOL     OW  268   0.264   1.352   2.101  0.0370  0.1944 -0.3266
   90SOL    HW1  269   0.309   1.440   2.076 -0.0167  1.7484 -0.9488
   90SOL    HW2  270   0.162   1.364   2.089  0.9006  1.5485  2.8531
   91SOL     OW  271   1.703   0.981   0.971 -0.1175  0.3131 -0.0163
   91SOL    HW1  272   1.661   1.077   0.977 -1.5380  1.5306 -1.1625
   91SOL    HW2  273   1.653   0.917   0.913 -2.5852 -1.0005 -0.6545
   92SOL     OW  274   2.061   1.163   0.930 -0.2483 -0.5517 -0.9560
   92SOL    HW1  275   2.034   1.263   0.941  1.3830 -1.6826 -0.8954
   92SOL    HW2  276   2.015   1.122   0.848  0.8452  0.4636  0.1790
   93SOL     OW  277   2.886   0.784   2.354 -0.3431  0.0984 -0.0056
   93SOL    HW1  278   2.815   0.787   2.279 -2.2267  0.3380 -0.9622
   93SOL    HW2  279   2.882   0.700   2.413 -1.4326  1.6183 -0.7065
   94SOL     OW  280   2.310   1.809   2.723 -0.1221  0.2916  0.8346
   94SOL    HW1  281   2.344   1.809   2.625  1.0562 -2.5353 -0.5225
   94SOL    HW2  282   2.248   1.887   2.742  0.5668 -0.0721  0.3878
   95SOL     OW  283   2.802   0.379   0.991  0.7110 -0.0689  0.1298
   95SOL    HW1  284   2.849   0.403   0.904 -1.6062 -2.8586  0.7695
   95SOL    HW2  285   2.779   0.279   0.992 -0.5871 -1.4265 -0.8580
   96SOL     OW  286   2.473   2.789   1.427 -0.4209  0.2025  0.6210
   96SOL    HW1  287   2.481   2.764   1.525  0.1735  0.4890 -2.1543
   96SOL    HW2  288   2.442   2.709   1.367 -2.1428 -1.3102  0.6064
   97SOL     OW  289   2.552   1.035   1.611 -0.9340 -0.4176 -0.2796
   97SOL    HW1  290   2.575   0.978   1.531  3.5272 -1.6048  0.9801
   97SOL    HW2  291   2.633   1.092   1.635  1.8698 -0.3519 -2.2645
   98SOL     OW  292   1.799   2.527   1.845  0.2736  0.4158 -0.3088
   98SOL    HW1  293   1.857   2.500   1.925 -0.6492 -1.0240  0.7151
   98SOL    HW2  294   1.820   2.487   1.755  0.5928 -2.6849 -1.4890
   99SOL     OW  295   0.233   2.554   1.473 -0.0652  0.2366  0.4202
   99SOL    HW1  296   0.291   2.521   1.396  0.3196 -1.4476  3.6495
   99SOL    HW2  297   0.283   2.615   1.534 -0.3573 -0.7255  0.6225
  100SOL     OW  298   1.674   0.308   2.794  0.7972 -0.9723 -0.3396
  100SOL    HW1  299   1.690   0.271   2.701 -1.2560  1.3746  1.6505
  100SOL    HW2  300   1.737   0.388   2.812 -2.8803 -0.6707  1.1543
  101SOL     OW  301   2.319   0.473   2.611 -0.4291 -0.7275  0.3033
  101SOL    HW1  302   2.287   0.386   2.648  1.8302  1.9035 -1.8409
  101SOL    HW2  303   2.289   0.486   2.514 -0.1839  2.0648  0.2327
  102SOL     OW  304   0.423   0.803   1.454  0.4107 -0.0308  0.4720
  102SOL    HW1  305   0.426   0.705   1.446 -1.1145  2.9960 -1.0403
  102SOL    HW2  306   0.450   0.832   1.549  0.5576 -0.0413  3.3493
  103SOL     OW  307   0.887   0.910   2.676  0.2051  0.4272  0.6329
  103SOL    HW1  308   0.971   0.902   2.727 -0.9617  0.1868 -1.1295
  103SOL    HW2  309   0.807   0.862   2.710  1.0870 -0.8396 -0.6614
  104SOL     OW  310   0.313   0.749   2.553 -0.3341  0.0731 -0.3541
  104SOL    HW1  311   0.240   0.719   2.616 -0.3125  1.9518 -1.6637
  104SOL    HW2  312   0.353   0.667   2.504  2.6255 -1.1110  1.1766
  105SOL     OW  313   2.279   1.908   1.510  0.3607 -0.3619 -0.3651
  105SOL    HW1  314   2.225   1.951   1.586  0.2690  0.2933  2.5985
  105SOL    HW2  315   2.217   1.908   1.426 -3.6350 -2.9879 -3.1252
  106SOL     OW  316   1.780   2.942   0.572 -0.1785 -0.1240 -0.0059
  106SOL    HW1  317   1.729   2.853   0.585  0.0841 -0.6823  1.8191
  106SOL    HW2  318   1.875   2.941   0.617  2.6053  0.1017 -1.3258
  107SOL     OW  319   1.988   2.066   1.119  0.5279  0.2884 -0.3447
  107SOL    HW1  320   1.967   1.981   1.064 -0.5822 -0.3991 -1.3229
  107SOL    HW2  321   2.082   2.098   1.093 -1.9175  1.3293 -0.9801
  108SOL     OW  322   2.830   2.820   1.390 -0.4426 -0.2017 -0.3409
  108SOL    HW1  323   2.861   2.726   1.412  0.5315  2.7532 -0.1297
  108SOL    HW2  324   2.807   2.871   1.475  1.1231 -1.0282  0.4638
  109SOL     OW  325   1.992   2.276   0.871 -0.3415  0.0714  0.8619
  109SOL    HW1  326   2.080   2.270   0.829  2.5953  1.1864 -0.0602
  109SOL    HW2  327   1.968   2.189   0.916 -0.7614  0.0554  0.6505
  110SOL     OW  328   0.924   1.704   1.973 -0.4602 -0.0368  0.8005
  110SOL    HW1  329   0.921   1.625   2.037  0.1911  2.7477 -1.8437
  110SOL    HW2  330   1.026   1.735   1.962  2.1638 -0.8396  0.3804
  111SOL     OW  331   1.646   2.330   2.127  0.5841 -0.0526 -0.0964
  111SOL    HW1  332   1.610   2.319   2.033  2.3277 -1.8868  0.6687
  111SOL    HW2  333   1.623   2.420   2.161 -1.7240 -3.5038 -1.0283
  112SOL     OW  334   1.529   1.721   2.357  0.2640 -0.1416  0.2957
  112SOL    HW1  335   1.606   1.748   2.290  0.3372  1.3072 -0.8262
  112SOL    HW2  336   1.562   1.636   2.402 -0.1906 -0.4650  0.1654
  113SOL     OW  337   1.616   1.923   1.840 -0.4452  0.1393 -0.0410
  113SOL    HW1  338   1.554   1.999   1.857  2.2201 -1.5038  2.7830
  113SOL    HW2  339   1.598   1.841   1.896  0.6750  2.1688  3.0132
  114SOL     OW  340   3.037   1.210   1.425 -0.2067  0.1659 -0.2737
  114SOL    HW1  341   2.999   1.277   1.485 -1.0321 -0.9461 -2.0551
  114SOL    HW2  342   2.964   1.151   1.386 -2.5076  0.2257  0.9190
  115SOL     OW  343   0.856   0.955   0.117 -0.0411 -0.5183  0.0116
  115SOL    HW1  344   0.805   0.902   0.191 -0.2459  4.2929  1.2580
  115SOL    HW2  345   0.937   1.000   0.156  0.1676 -0.3000 -3.0419
  116SOL     OW  346   2.892   1.792   2.201  0.3733 -0.1096  0.3043
  116SOL    HW1  347   2.873   1.834   2.114  3.7901 -0.0723  0.3180
  116SOL    HW2  348   2.823   1.815   2.273  0.1120  3.1414  0.6773
  117SOL     OW  349   3.058   2.464   0.752 -0.4516  0.0747 -0.3308
  117SOL    HW1  350   3.069   2.457   0.650 -1.2405  0.1431 -1.5159
  117SOL    HW2  351   0.004   2.382   0.802  0.7947  0.0802  0.3139
  118SOL     OW  352   0.689   1.806   2.954  0.1289 -0.3238 -0.8858
  118SOL    HW1  353   0.639   1.895   2.961 -1.7751  0.0145  0.9975
  118SOL    HW2  354   0.784   1.815   2.998 -1.8733  2.0688  2.7701
  119SOL     OW  355   0.629   1.998   0.562  0.2449 -0.3033  0.0980
  119SOL    HW1  356   0.728   2.004   0.578  0.0230  0.6824 -0.7277
  119SOL    HW2  357   0.589   2.062   0.630 -1.1048 -0.5776  2.8199
  120SOL     OW  358   1.094   0.565   0.186 -0.4085  0.6797 -0.1482
  120SOL    HW1  359   1.086   0.586   0.287  0.0617  0.8416 -0.9617
  120SOL    HW2  360   1.069   0.468   0.170 -2.4063  0.1757 -0.4622
  121SOL     OW  361   1.424   2.405   0.802 -0.0732  0.4717  0.6841
  121SOL    HW1  362   1.418   2.305   0.819  1.6429 -2.2769 -0.1553
  121SOL    HW2  363   1.456   2.410   0.706  1.8912 -1.1183 -1.9264
  122SOL     OW  364   2.796   2.417   1.697  0.8325  0.2482  0.4088
  122SOL    HW1  365   2.860   2.333   1.702  0.8116 -1.8361  0.1817
  122SOL    HW2  366   2.837   2.493   1.747  1.3007  0.6461 -0.2285
  123SOL     OW  367   0.674   1.675   0.806 -0.0283  0.3836 -0.0293
  123SOL    HW1  368   0.729   1.608   0.752  3.0278  3.5469  2.2340
  123SOL    HW2  369   0.631   1.746   0.748  1.5052 -1.1108 -4.2069
  124SOL     OW  370   3.082   0.934   0.374  0.2121  0.8362 -0.9830
  124SOL    HW1  371   3.045   0.849   0.416  1.1308 -1.5628  0.0491
  124SOL    HW2  372   3.021   0.969   0.296 -0.6800  0.1176 -1.1124
  125SOL     OW  373   0.447   0.777   3.009 -0.3334  0.0269  0.1441
  125SOL    HW1  374   0.386   0.700   2.978 -2.2151 -0.3050 -1.3002
  125SOL    HW2  375   0.460   0.769   0.019  0.0321 -1.3485 -1.5707
  126SOL     OW  376   2.841   2.002   0.533  0.1700 -0.0862 -0.2537
  126SOL    HW1  377   2.750   2.039   0.500  0.6496 -0.4092 -0.5613
  126SOL    HW2  378   2.884   2.065   0.601  0.8311 -1.0781  0.7996
  127SOL     OW  379   1.341   2.498   1.833 -0.3950 -0.7764  0.4408
  127SOL    HW1  380   1.251   2.481   1.882 -0.7910 -1.4792  1.4133
  127SOL    HW2  381   1.418   2.433   1.852  1.2610 -0.5694  1.7219
  128SOL     OW  382   1.099   1.277   0.006 -0.4716  0.0301  0.0087
  128SOL    HW1  383   1.105   1.185   3.047  0.1115 -1.0281  0.3437
  128SOL    HW2  384   1.009   1.293   0.055 -3.9518  0.2597  0.0286
  129SOL     OW  385   1.736   2.032   1.620 -0.5092 -0.1117 -0.8541
  129SOL    HW1  386   1.669   2.068   1.552 -0.3130 -2.1270  1.0897
  129SOL    HW2  387   1.681   1.978   1.688  0.3290 -0.5523 -1.0920
  130SOL     OW  388   2.381   1.672   1.589 -0.4567  0.2811 -0.1792
  130SOL    HW1  389   2.384   1.666   1.690 -0.6245  0.9973 -1.5358
  130SOL    HW2  390   2.348   1.765   1.568  0.1859  1.2492  1.3957
  131SOL     OW  391   2.734   2.958   2.913  0.0724  0.2505 -0.3046
  131SOL    HW1  392   2.682   3.025   2.864  1.0630  0.1179 -0.6741
  131SOL    HW2  393   2.746   2.874   2.849 -1.1339 -2.5783  0.0845
  132SOL     OW  394   2.425   2.080   0.685  0.1687 -0.2507 -0.2088
  132SOL    HW1  395   2.493   2.072   0.607 -2.6024 -0.4564 -0.9402
  132SOL    HW2  396   2.472   2.068   0.776 -1.4848  0.4148 -1.0574
  133SOL     OW  397   0.680   0.268   2.286 -0.0452 -0.4724 -0.1372
  133SOL    HW1  398   0.678   0.174   2.325  0.8255 -1.2211 -0.8700
  133SOL    HW2  399   0.731   0.264   2.195  2.3489  3.1929  2.5537
  134SOL     OW  400   2.853   2.038   2.840 -0.2332  0.2810 -0.4022
  134SOL    HW1  401   2.919   1.958   2.824  2.4472  0.1216  0.3100
  134SOL    HW2  402   2.765   2.008   2.886 -1.0188  2.2218 -0.7165
  135SOL     OW  403   1.433   0.790   2.099 -0.4002  0.0107  0.3893
  135SOL    HW1  404   1.430   0.771   2.198  0.4918 -2.5562 -1.9426
  135SOL    HW2  405   1.483   0.875   2.072  1.2222 -0.7922 -3.5975
  136SOL     OW  406   2.472   1.627   0.512  0.1769  0.5643 -0.1297
  136SOL    HW1  407   2.548   1.646   0.448  0.5769  2.6250  1.1431
  136SOL    HW2  408   2.501   1.642   0.606 -0.0419  1.9371 -2.1902
  137SOL     OW  409   2.705   1.710   0.709  0.3744  0.1461  0.2050
  137SOL    HW1  410   2.682   1.608   0.727  0.0390 -1.3343  2.7398
  137SOL    HW2  411   2.794   1.745   0.751  0.3442  0.4072 -1.3768
  138SOL     OW  412   2.734   0.800   1.150  0.3580 -0.3182 -0.2067
  138SOL    HW1  413   2.654   0.812   1.089  0.5440  1.4715  0.7285
  138SOL    HW2  414   2.797   0.876   1.132 -1.7105  1.6614 -0.0710
  139SOL     OW  415   0.309   2.584   3.002 -0.1415 -0.0006 -0.8950
  139SOL    HW1  416   0.405   2.566   3.030  0.0274  1.3479 -0.3844
  139SOL    HW2  417   0.294   2.557   2.907  2.7971  2.7041 -0.0913
  140SOL     OW  418   0.956   2.095   1.311 -0.0660 -0.9659  0.0579
  140SOL    HW1  419   0.956   2.190   1.277  1.0835 -1.7468 -1.6261
  140SOL    HW2  420   0.861   2.053   1.312  1.5358 -0.8047  3.1744
  141SOL     OW  421   1.244   2.139   0.674  0.0760 -0.7259  0.1024
  141SOL    HW1  422   1.244   2.045   0.710 -0.8706  1.3127  0.1099
  141SOL    HW2  423   1.163   2.192   0.699  0.7375  2.1559  2.2942
  142SOL     OW  424   0.964   0.701   0.955 -0.3212 -0.4462 -0.5418
  142SOL    HW1  425   1.033   0.770   0.980  0.6178  0.4417 -1.5222
  142SOL    HW2  426   0.865   0.729   0.963  0.7249  1.4164  0.7138
  143SOL     OW  427   0.859   1.192   2.864  0.1451  0.3269  0.4757
  143SOL    HW1  428   0.921   1.122   2.824  3.1291  1.5838  1.8440
  143SOL    HW2  429   0.904   1.282   2.853  2.2572  0.5208 -1.9603
  144SOL     OW  430   1.813   2.469   0.747  0.0650 -0.4529  0.4774
  144SOL    HW1  431   1.732   2.526   0.772 -1.6815 -0.3499  0.5407
  144SOL    HW2  432   1.830   2.383   0.797 -3.2798 -0.3976  1.8348
  145SOL     OW  433   1.855   0.678   2.693 -0.2347  0.4947  0.0977
  145SOL    HW1  434   1.763   0.720   2.669  2.1420  0.0426  2.6660
  145SOL    HW2  435   1.902   0.736   2.761  1.3266 -3.5856 -0.4224
  146SOL     OW  436   0.067   2.728   0.750  0.2656 -0.4995  0.4202
  146SOL    HW1  437   0.166   2.734   0.755 -1.4469  0.8672  1.1770
  146SOL    HW2  438   0.029   2.637   0.776 -1.3146  0.8049  0.3517
  147SOL     OW  439   1.479   0.697   1.845 -0.0102 -0.3798  0.4127
  147SOL    HW1  440   1.568   0.740   1.832 -0.1138 -0.1545  0.2073
  147SOL    HW2  441   1.443   0.724   1.937  1.4540 -0.8213 -1.8758
  148SOL     OW  442   1.181   0.565   2.062  0.1734 -0.0462 -0.0825
  148SOL    HW1  443   1.227   0.650   2.090  2.2049  0.2824  0.1410
  148SOL    HW2  444   1.230   0.484   2.102  1.7933 -1.2755 -0.2587
  149SOL     OW  445   1.601   0.071   2.297 -0.2057 -0.4713  0.1372
  149SOL    HW1  446   1.620   0.167   2.264  2.5381 -0.5886 -1.2614
  149SOL    HW2  447   1.543   0.034   2.224  0.3036  1.4881  3.4553
  150SOL     OW  448   2.668   3.037   0.193 -0.3885  0.1884 -0.4652
  150SOL    HW1  449   2.755   2.994   0.156 -0.1321 -1.8504 -0.8435
  150SOL    HW2  450   2.688   0.046   0.216  2.5495  0.1258 -1.3476
  151SOL     OW  451   0.612   1.365   2.817  0.5516  0.0479 -0.3248
  151SOL    HW1  452   0.681   1.299   2.776 -0.1381 -2.0259 -4.2336
  151SOL    HW2  453   0.547   1.305   2.872 -1.0343  2.3378 -3.2717
  152SOL     OW  454   0.034   0.267   0.649 -0.0644  0.2363  0.1628
  152SOL    HW1  455   0.095   0.211   0.710  0.0579 -2.1967  0.1990
  152SOL    HW2  456   0.079   0.284   0.556  1.4108  2.4695 -0.2229
  153SOL     OW  457   2.452   0.323   1.510 -0.1008 -0.2749 -0.0204
  153SOL    HW1  458   2.430   0.238   1.459 -0.7595  0.5618  0.2345
  153SOL    HW2  459   2.534   0.370   1.477 -1.5095 -1.7613  2.5212
  154SOL     OW  460   1.662   0.308   2.200 -0.4510  0.2667 -0.3298
  154SOL    HW1  461   1.709   0.293   2.112 -0.7327  2.2899  1.5089
  154SOL    HW2  462   1.647   0.409   2.217 -1.2878  0.7551 -0.9397
  155SOL     OW  463   2.978   1.782   0.368  0.4510  0.2997 -0.4895
  155SOL    HW1  464   3.029   1.847   0.302 -0.0095 -1.0358 -1.3882
  155SOL    HW2  465   2.902   1.835   0.417 -4.4952  4.2161  1.5082
  156SOL     OW  466   2.732   1.724   2.929  0.6385  0.1793 -0.0691
  156SOL    HW1  467   2.818   1.772   2.941 -3.8613 -0.7173 -0.9410
  156SOL    HW2  468   2.738   1.628   2.973  2.2198  0.1523  1.9954
  157SOL     OW  469   0.850   0.279   0.641 -0.4162 -0.1261 -0.0685
  157SOL    HW1  470   0.868   0.320   0.549 -1.9493  1.3748  1.6568
  157SOL    HW2  471   0.815   0.186   0.635  3.0435 -0.5664 -0.7475
  158SOL     OW  472   2.226   0.737   1.704  0.1241  0.4738 -0.2974
  158SOL    HW1  473   2.282   0.697   1.629  1.6397  1.8902 -0.9408
  158SOL    HW2  474   2.138   0.686   1.709  1.7851  0.3847  1.0128
  159SOL     OW  475   0.102   0.291   0.381 -0.3899  0.0381  0.3297
  159SOL    HW1  476   0.019   0.239   0.361  2.3243  1.2313 -0.9529
  159SOL    HW2  477   0.184   0.257   0.330  0.9608  1.1347  0.2782
  160SOL     OW  478   1.943   1.985   1.898 -0.0687  0.2021  0.2890
  160SOL    HW1  479   1.913   2.071   1.938  2.7514 -1.9580  2.5440
  160SOL    HW2  480   1.868   1.950   1.838 -1.5430 -2.1565 -1.0874
  161SOL     OW  481   2.904   0.600   2.546  0.4878  0.5885 -0.5749
  161SOL    HW1  482   2.852   0.596   2.632 -1.4466 -0.8455 -0.0926
  161SOL    HW2  483   2.993   0.548   2.554  2.1512 -0.9828  0.3670
  162SOL     OW  484   1.068   2.837   1.443 -0.4670 -0.1673 -0.0999
  162SOL    HW1  485   1.053   2.762   1.515 -2.4868  0.5571 -0.5041
  162SOL    HW2  486   1.058   2.926   1.490  2.6850  1.0737  0.2812
  163SOL     OW  487   2.492   0.180   2.401 -0.0172 -0.3755  0.4457
  163SOL    HW1  488   2.574   0.129   2.384 -0.8129 -0.6149  0.9388
  163SOL    HW2  489   2.515   0.276   2.410 -0.6006  0.9663  0.0659
  164SOL     OW  490   2.455   1.740   0.149  0.7104 -0.0818 -0.3633
  164SOL    HW1  491   2.391   1.821   0.168  0.4835 -0.9768  0.3607
  164SOL    HW2  492   2.454   1.722   0.046 -0.9027 -1.5297 -2.6632
  165SOL     OW  493   3.033   0.430   1.136  0.7531  0.0770 -0.1092
  165SOL    HW1  494   0.020   0.419   1.069  0.6069  0.1576  1.3020
  165SOL    HW2  495   2.951   0.394   1.092  3.5883 -0.5747  0.0613
  166SOL     OW  496   2.184   0.858   0.457 -0.0999 -0.3968 -0.0262
  166SOL    HW1  497   2.270   0.827   0.505 -0.8490  0.5416  2.2029
  166SOL    HW2  498   2.195   0.952   0.420 -0.0943  0.2388 -2.0832
  167SOL     OW  499   2.609   0.877   2.899 -0.5309 -0.3771  0.3952
  167SOL    HW1  500   2.533   0.865   2.828  2.3569 -1.2552 -1.1508
  167SOL    HW2  501   2.596   0.963   2.952  0.3044  0.3415  0.3571
  168SOL     OW  502   1.865   3.073   2.833 -0.4204 -0.4861 -0.2726
  168SOL    HW1  503   1.874   2.973   2.838 -0.2633  0.9213 -1.4670
  168SOL    HW2  504   1.843   0.012   2.743 -0.3684  0.3793  1.6979
  169SOL     OW  505   0.144   1.538   0.803 -0.2159  0.0134 -0.8246
  169SOL    HW1  506   0.056   1.496   0.817  2.0694  0.2656 -0.1816
  169SOL    HW2  507   0.220   1.477   0.823 -0.1369  0.0683 -1.0690
  170SOL     OW  508   0.099   0.932   1.201  0.4556  0.1615  0.1548
  170SOL    HW1  509   0.106   0.978   1.292 -1.8993  0.5520  0.6060
  170SOL    HW2  510   0.088   0.829   1.205 -0.1558  0.4438 -2.3583
  171SOL     OW  511   2.533   2.039   1.949 -0.2483  0.0379 -0.4136
  171SOL    HW1  512   2.571   1.987   1.869  1.7712 -0.2580  0.5100
  171SOL    HW2  513   2.452   1.989   1.989  0.2597 -1.2750  2.4467
  172SOL     OW  514   0.268   2.224   1.445 -0.0353  0.8542  0.3979
  172SOL    HW1  515   0.170   2.216   1.420 -2.8735  1.0272  1.7609
  172SOL    HW2  516   0.302   2.318   1.433 -1.5882 -0.7999  0.1109
  173SOL     OW  517   1.291   1.409   2.986 -0.2008 -0.0363  0.4896
  173SOL    HW1  518   1.228   1.354   3.042  0.8065  0.4313 -1.8198
  173SOL    HW2  519   1.249   1.502   2.980 -0.2230 -1.0697  1.5960
  174SOL     OW  520   1.453   0.525   3.014 -0.0963 -0.2885  0.4215
  174SOL    HW1  521   1.477   0.617   2.967  0.5640  4.1643  2.1687
  174SOL    HW2  522   1.518   0.508   0.001 -3.0193 -0.1653  2.3696
  175SOL     OW  523   1.310   1.872   1.181 -0.3045 -0.0576 -0.3315
  175SOL    HW1  524   1.405   1.841   1.209  2.1909  1.0538 -0.5134
  175SOL    HW2  525   1.252   1.799   1.147  0.3536  1.8255 -0.9611
  176SOL     OW  526   1.669   2.956   0.306 -0.7752 -0.2019  0.5666
  176SOL    HW1  527   1.749   2.953   0.242 -0.3112 -0.6776  0.2044
  176SOL    HW2  528   1.697   2.960   0.401 -0.4898  0.8733 -2.0809
  177SOL     OW  529   0.449   1.219   2.983  0.6898 -0.2517  0.6921
  177SOL    HW1  530   0.382   1.216   3.057  0.1397  1.1910 -1.3721
  177SOL    HW2  531   0.509   1.137   2.992  2.8438  0.7636  0.2054
  178SOL     OW  532   2.246   2.149   2.260  0.3235  0.0945  0.0453
  178SOL    HW1  533   2.319   2.096   2.302 -3.7519 -0.0785 -1.9331
  178SOL    HW2  534   2.282   2.234   2.219  0.6171  0.0050 -1.6674
  179SOL     OW  535   2.835   0.005   2.562  0.4383  0.2955 -0.1764
  179SOL    HW1  536   2.809   0.073   2.632  0.0924  0.8760  0.8189
  179SOL    HW2  537   2.793   0.025   2.471  0.7790 -1.4161 -3.8241
  180SOL     OW  538   1.912   0.833   0.808  0.4987 -0.1264 -0.3166
  180SOL    HW1  539   2.007   0.802   0.793  2.5756  3.1162 -0.6376
  180SOL    HW2  540   1.908   0.897   0.888  1.6264 -0.4743 -1.3830
  181SOL     OW  541   2.119   1.214   2.305 -0.8768  0.1915  0.7743
  181SOL    HW1  542   2.147   1.266   2.392 -0.1779  0.8465 -0.3782
  181SOL    HW2  543   2.029   1.162   2.310  1.5150 -3.1365  2.5167
  182SOL     OW  544   2.737   2.361   2.117 -0.1740 -0.1048 -0.0906
  182SOL    HW1  545   2.806   2.435   2.087 -0.3903  1.1251 -1.0829
  182SOL    HW2  546   2.775   2.273   2.155  0.4719 -1.1065  0.1973
  183SOL     OW  547   2.009   0.566   1.732 -0.2002  0.1237  0.4272
  183SOL    HW1  548   1.932   0.569   1.799  3.4620  2.4096  1.3752
  183SOL    HW2  549   2.067   0.477   1.732  1.7090 -1.4003 -0.2717
  184SOL     OW  550   0.055   1.709   1.325 -0.6843 -0.4933  0.2796
  184SOL    HW1  551   0.089   1.643   1.256 -0.1151  0.6465 -0.5882
  184SOL    HW2  552   0.132   1.755   1.375 -0.6873  0.8318 -0.7535
  185SOL     OW  553   2.425   0.015   0.819 -0.0800 -0.2838  0.0971
  185SOL    HW1  554   2.487   0.078   0.867 -1.1536 -2.5645 -1.1348
  185SOL    HW2  555   2.477   3.031   0.768 -3.1100 -1.2729 -1.5209
  186SOL     OW  556   2.892   2.481   2.743 -0.2971  0.0484 -0.2161
  186SOL    HW1  557   2.853   2.405   2.690 -0.3599 -3.5763 -3.3803
  186SOL    HW2  558   2.920   2.451   2.838  0.6127  0.2689 -0.3097
  187SOL     OW  559   2.862   1.310   0.595  0.5736 -0.5769  0.3678
  187SOL    HW1  560   2.873   1.399   0.544 -0.1512  0.5973 -0.2418
  187SOL    HW2  561   2.782   1.261   0.554  2.7667 -0.1122  0.7895
  188SOL     OW  562   2.349   1.207   1.089 -0.5135  0.6841  0.2189
  188SOL    HW1  563   2.390   1.253   1.169 -3.8789 -0.5067 -2.6012
  188SOL    HW2  564   2.270   1.149   1.114  0.7783 -0.8547 -0.6871
  189SOL     OW  565   0.008   0.387   2.500 -0.0326  0.2731 -0.0306
  189SOL    HW1  566   3.016   0.375   2.562  1.0062  1.4346 -0.0723
  189SOL    HW2  567   0.057   0.300   2.488 -0.2313 -1.6062 -1.7566
  190SOL     OW  568   1.705   0.835   1.782 -0.0948 -0.3361  0.0860
  190SOL    HW1  569   1.758   0.920   1.791 -1.4803  0.3771  0.7541
  190SOL    HW2  570   1.721   0.797   1.688 -0.3877  0.3326 -1.9198
  191SOL     OW  571   0.874   0.265   2.060 -0.0296  0.0687 -0.2867
  191SOL    HW1  572   0.929   0.194   2.104 -0.2785  0.7725  1.2053
  191SOL    HW2  573   0.918   0.351   2.083  0.7611 -1.8744 -2.9106
  192SOL     OW  574   1.371   2.086   1.859  0.3009  0.5970 -0.1828
  192SOL    HW1  575   1.295   2.083   1.930 -0.0198  0.1030 -0.9126
  192SOL    HW2  576   1.344   2.048   1.768  1.0632 -1.9235  0.6222
  193SOL     OW  577   1.455   0.365   0.890  0.0912 -0.0135  0.0687
  193SOL    HW1  578   1.545   0.396   0.917 -2.5645  0.4965 -2.5194
  193SOL    HW2  579   1.387   0.429   0.929  0.0538  1.4996  0.7381
  194SOL     OW  580   0.711   2.018   1.308  0.1688  0.1804 -0.7606
  194SOL    HW1  581   0.610   2.028   1.303  0.3602 -1.9439 -0.0333
  194SOL    HW2  582   0.742   1.924   1.277 -0.5327 -1.8305  3.7786
  195SOL     OW  583   1.534   0.573   0.355  0.3399  0.1905  0.3808
  195SOL    HW1  584   1.614   0.632   0.385  2.2794 -0.7818  0.4529
  195SOL    HW2  585   1.564   0.506   0.283 -2.5240 -2.9605  0.1567
  196SOL     OW  586   0.449   1.474   1.714  0.6760 -0.1453 -0.4049
  196SOL    HW1  587   0.481   1.550   1.777  0.6344 -0.5951  0.1371
  196SOL    HW2  588   0.348   1.466   1.708  0.7926  0.5156  2.7093
  197SOL     OW  589   0.925   0.352   1.725  0.4000 -0.9031 -0.6263
  197SOL    HW1  590   0.913   0.361   1.626 -0.6304  2.5086  0.8162
  197SOL    HW2  591   0.988   0.420   1.761 -0.6674 -1.8528 -1.0024
  198SOL     OW  592   1.018   1.319   0.998  0.5413 -0.3373  0.5538
  198SOL    HW1  593   0.927   1.360   1.011 -0.0872 -1.3547  0.7383
  198SOL    HW2  594   1.007   1.217   0.974 -0.0757  0.7723  2.5240
  199SOL     OW  595   0.037   2.420   1.590  0.7318 -0.0886 -0.0130
  199SOL    HW1  596   3.064   2.476   1.652  0.2569  1.5279  2.5231
  199SOL    HW2  597   0.104   2.480   1.542 -1.1588  1.9025  1.6738
  200SOL     OW  598   1.910   1.392   1.856 -0.2407 -0.7183 -0.1163
  200SOL    HW1  599   1.959   1.380   1.940 -3.9965 -1.3814 -1.2137
  200SOL    HW2  600   1.826   1.452   1.860  2.5130  1.2606  2.7601
  201SOL     OW  601   0.782   1.784   2.192 -0.1529  0.2311 -0.2112
  201SOL    HW1  602   0.827   1.779   2.100 -0.6791  0.1496 -0.1170
  201SOL    HW2  603   0.684   1.765   2.178 -0.4151  1.3491  0.1160
  202SOL     OW  604   1.232   0.127   0.242  0.0795 -0.2171 -0.2027
  202SOL    HW1  605   1.313   0.179   0.281  1.2290  0.2478  1.8808
  202SOL    HW2  606   1.253   0.055   0.173 -0.3205 -1.5307 -0.9350
  203SOL     OW  607   1.210   3.016   2.370  0.3639  0.2115 -0.0662
  203SOL    HW1  608   1.228   2.969   2.457 -0.8466 -0.1030 -2.9255
  203SOL    HW2  609   1.257   2.968   2.292  2.4150 -3.3648 -0.7562
  204SOL     OW  610   0.740   1.807   1.795  0.5358  0.1379 -0.6496
  204SOL    HW1  611   0.741   1.906   1.771  0.7807  0.5641 -0.3582
  204SOL    HW2  612   0.809   1.790   1.870  2.8900 -0.3488 -0.1073
  205SOL     OW  613   1.663   1.491   2.438  0.7083 -0.6190 -0.4491
  205SOL    HW1  614   1.695   1.468   2.342 -1.5461  4.0378  0.5643
  205SOL    HW2  615   1.732   1.456   2.504  1.1738  1.7352 -2.8382
  206SOL     OW  616   0.169   1.694   2.404  0.9543  0.2654  0.1247
  206SOL    HW1  617   0.267   1.709   2.428 -3.5579  1.1758 -0.4228
  206SOL    HW2  618   0.125   1.624   2.463  0.8513  0.8217 -0.5760
  207SOL     OW  619   1.000   3.061   1.573 -0.5391 -0.3791 -0.1168
  207SOL    HW1  620   0.957   0.026   1.649 -1.2042 -1.8436 -1.5836
  207SOL    HW2  621   1.092   0.007   1.543  1.4964  1.2641 -0.7603
  208SOL     OW  622   0.359   2.529   1.803  0.1180  0.5335  0.5458
  208SOL    HW1  623   0.317   2.463   1.870  1.9421  0.1177 -0.7143
  208SOL    HW2  624   0.422   2.475   1.749  0.7027  2.6283  1.3560
  209SOL     OW  625   1.369   2.829   0.597 -0.2651 -0.5579 -0.3733
  209SOL    HW1  626   1.413   2.832   0.691  2.1796 -0.5749  4.1842
  209SOL    HW2  627   1.393   2.911   0.542 -0.8081  0.9213  0.5470
  210SOL     OW  628   2.840   1.005   0.976  0.0981 -0.3008 -0.4651
  210SOL    HW1  629   2.849   0.998   0.873  1.1587 -1.1656 -1.5345
  210SOL    HW2  630   2.742   1.012   1.002  0.9928 -0.6327  1.6778
  211SOL     OW  631   0.487   0.142   1.824  0.0736 -0.1779 -0.2365
  211SOL    HW1  632   0.571   0.201   1.830 -0.1340  2.2059  0.0366
  211SOL    HW2  633   0.423   0.188   1.760 -0.9970 -1.8057  0.1509
  212SOL     OW  634   1.292   2.470   1.584 -0.1626  0.1523  0.3849
  212SOL    HW1  635   1.385   2.483   1.541  0.8803  0.5262 -0.7414
  212SOL    HW2  636   1.297   2.480   1.684  1.3069  0.1180 -0.3868
  213SOL     OW  637   2.920   0.423   1.562 -0.1021  0.0836  0.1488
  213SOL    HW1  638   2.961   0.370   1.485 -0.0601 -1.0566 -0.5925
  213SOL    HW2  639   2.825   0.446   1.537  2.8490 -0.3577  0.1498
  214SOL     OW  640   0.709   2.591   1.814 -0.1334 -0.1062 -0.3314
  214SOL    HW1  641   0.662   2.544   1.739 -0.1182  0.1038  2.5492
  214SOL    HW2  642   0.669   2.679   1.844  1.3771  0.3602  1.5470
  215SOL     OW  643   2.641   1.545   1.623 -0.8457  0.2592 -0.4944
  215SOL    HW1  644   2.541   1.545   1.632  1.1859  0.3977  0.9524
  215SOL    HW2  645   2.674   1.638   1.589  1.7220  1.6674 -1.0362
  216SOL     OW  646   0.426   0.832   2.087 -0.0109  0.0519  0.0416
  216SOL    HW1  647   0.406   0.891   2.006  0.4077  0.0060 -2.5069
  216SOL    HW2  648   0.516   0.789   2.077  0.2272  2.4717  2.7439
  217SOL     OW  649   2.718   0.032   1.529 -0.3353  0.2612  0.1791
  217SOL    HW1  650   2.647   3.072   1.470  1.3987  2.1784  1.0414
  217SOL    HW2  651   2.792   0.063   1.465  0.1088 -2.4875  1.2267
  218SOL     OW  652   1.512   2.198   1.087 -0.2484  0.0844  0.1955
  218SOL    HW1  653   1.513   2.185   0.985 -1.6052  5.3769 -0.3348
  218SOL    HW2  654   1.600   2.165   1.122  0.2307  0.0052  0.2729
  219SOL     OW  655   1.661   2.658   0.543 -0.3744  0.2903  0.3237
  219SOL    HW1  656   1.640   2.575   0.595 -1.0655 -0.7226  0.8472
  219SOL    HW2  657   1.592   2.686   0.472 -0.8013  1.1143  2.2465
  220SOL     OW  658   1.771   2.296   0.287  0.7517  0.3531 -0.2675
  220SOL    HW1  659   1.721   2.268   0.204  0.4355  0.6910 -1.0255
  220SOL    HW2  660   1.812   2.388   0.265  0.2513 -2.4921 -0.0624
  221SOL     OW  661   2.574   1.893   0.887  0.5942 -0.1743  0.2074
  221SOL    HW1  662   2.627   1.828   0.833  0.4088 -0.8823 -0.4664
  221SOL    HW2  663   2.535   1.846   0.973  2.1622 -0.9699  3.5541
  222SOL     OW  664   0.816   2.501   0.856 -0.0932 -0.5757 -0.0443
  222SOL    HW1  665   0.742   2.478   0.785 -2.1470 -0.0834 -3.0326
  222SOL    HW2  666   0.814   2.447   0.948 -1.9498 -0.8585  2.6753
  223SOL     OW  667   1.167   2.750   3.079 -0.8994 -0.7654  0.0982
  223SOL    HW1  668   1.183   2.788   2.988  0.1277 -1.5697  0.2622
  223SOL    HW2  669   1.068   2.724   0.000 -1.1765 -0.4904  1.1237
  224SOL     OW  670   3.079   1.106   1.035 -0.1717 -0.0346  0.5980
  224SOL    HW1  671   2.983   1.084   1.014 -0.7092  0.8839 -1.2461
  224SOL    HW2  672   0.043   1.029   1.083  1.1562 -2.7111  1.3702
  225SOL     OW  673   2.897   1.835   0.829 -0.0423 -0.3684  0.0089
  225SOL    HW1  674   2.907   1.936   0.826 -1.1513  0.5587 -0.9762
  225SOL    HW2  675   2.984   1.783   0.808  0.4093 -0.7585 -0.0336
  226SOL     OW  676   0.807   2.716   1.043 -0.5524  0.2285 -0.0949
  226SOL    HW1  677   0.797   2.635   0.983  0.7027 -1.9219 -0.4307
  226SOL    HW2  678   0.862   2.787   0.989 -1.1783 -0.2049  0.0048
  227SOL     OW  679   0.631   1.389   1.520 -0.0267  0.3112 -0.2216
  227SOL    HW1  680   0.717   1.391   1.575 -2.5518 -1.0447 -1.1432
  227SOL    HW2  681   0.559   1.436   1.570  1.2643 -0.9445 -4.1117
  228SOL     OW  682   1.440   0.308   2.014 -0.9124 -0.0712 -0.3451
  228SOL    HW1  683   1.517   0.259   2.047 -0.8115 -0.9028  1.1914
  228SOL    HW2  684   1.379   0.328   2.089 -0.5798 -1.9187  0.6981
  229SOL     OW  685   0.053   0.852   2.360  0.3166  0.8929  0.5225
  229SOL    HW1  686   3.043   0.824   2.359 -2.8941 -0.8823 -0.4859
  229SOL    HW2  687   0.107   0.779   2.310  3.2197 -1.7935 -2.0755
  230SOL     OW  688   0.129   1.167   0.805 -0.0531 -0.3882 -0.2014
  230SOL    HW1  689   0.082   1.152   0.717  1.4083  0.7001 -1.1117
  230SOL    HW2  690   0.076   1.130   0.884 -0.9245 -2.2802 -1.7368
  231SOL     OW  691   1.435   0.129   2.518 -0.3562  0.3834  0.3429
  231SOL    HW1  692   1.390   0.041   2.524  4.8365 -0.2798 -1.2081
  231SOL    HW2  693   1.523   0.113   2.460  0.3038 -0.1069 -1.4192
  232SOL     OW  694   0.349   1.580   0.004 -0.1281 -0.1570  0.2045
  232SOL    HW1  695   0.415   1.598   3.020 -1.7981  0.8276  1.6125
  232SOL    HW2  696   0.386   1.498   0.057 -1.0709 -0.2745 -1.4151
  233SOL     OW  697   1.365   2.354   2.951  0.1495 -0.1518  0.1052
  233SOL    HW1  698   1.405   2.259   2.956 -0.2955 -0.0920  0.2250
  233SOL    HW2  699   1.329   2.380   2.859  0.4251 -0.9125 -0.7662
  234SOL     OW  700   0.955   1.499   2.159 -0.2005 -0.2221  0.0496
  234SOL    HW1  701   0.960   1.444   2.072  2.2145 -0.8581 -0.9306
  234SOL    HW2  702   0.924   1.445   2.237  2.0395  1.8765  2.5406
  235SOL     OW  703   0.344   2.359   2.028  0.3468  0.2629 -0.2129
  235SOL    HW1  704   0.378   2.280   1.974  2.5551 -1.4961  0.0400
  235SOL    HW2  705   0.421   2.384   2.089 -1.1719 -0.5172 -3.8804
  236SOL     OW  706   1.729   2.257   2.630 -0.7774  0.0175  0.1878
  236SOL    HW1  707   1.731   2.307   2.717  0.8607 -2.5185 -0.9292
  236SOL    HW2  708   1.800   2.297   2.571 -2.5082 -0.9326  2.2510
  237SOL     OW  709   1.464   0.700   0.715 -0.5121  0.1374 -0.0643
  237SOL    HW1  710   1.565   0.661   0.713  2.8026 -0.8116 -0.3288
  237SOL    HW2  711   1.440   0.752   0.627  0.0097 -0.3315 -0.3013
  238SOL     OW  712   0.975   3.045   2.593 -0.0325 -0.0695  0.3395
  238SOL    HW1  713   0.910   3.019   2.523  2.4884 -1.7354  2.2345
  238SOL    HW2  714   0.978   0.055   2.604  1.0669 -1.3765  0.1682
  239SOL     OW  715   1.060   2.948   1.882 -0.0470  0.1548  0.3408
  239SOL    HW1  716   1.039   2.852   1.860 -1.5696  2.3527 -0.3647
  239SOL    HW2  717   0.992   3.011   1.838 -0.4091  0.9225  0.6969
  240SOL     OW  718   2.062   2.623   0.740 -0.1166 -0.1043 -0.2601
  240SOL    HW1  719   1.986   2.556   0.729  1.4827  1.3787  2.0299
  240SOL    HW2  720   2.084   2.625   0.843  0.0313  1.1843  0.9470
  241SOL     OW  721   1.674   1.513   1.875 -0.2132  0.7051 -0.6735
  241SOL    HW1  722   1.602   1.437   1.860 -1.2395 -2.6746  0.0406
  241SOL    HW2  723   1.632   1.598   1.917 -0.2855  0.6162 -0.1244
  242SOL     OW  724   2.617   0.619   0.332  0.2511  0.4545  0.1383
  242SOL    HW1  725   2.679   0.606   0.247  0.7020 -0.1679 -2.4425
  242SOL    HW2  726   2.553   0.540   0.344  3.1464  0.8582 -0.7482
  243SOL     OW  727   0.773   1.056   1.259  0.0903  0.4263  0.0002
  243SOL    HW1  728   0.813   0.989   1.328 -1.4719 -1.9745 -1.8501
  243SOL    HW2  729   0.839   1.075   1.186 -1.6213 -1.2235  0.4493
  244SOL     OW  730   1.706   0.151   3.012  0.0276  0.5813  0.3037
  244SOL    HW1  731   1.690   0.229   2.952  0.8943  1.4213  3.1947
  244SOL    HW2  732   1.744   0.078   2.951 -0.6207 -0.4942 -0.0059
  245SOL     OW  733   2.129   3.003   3.053 -0.5425  0.3886  0.8194
  245SOL    HW1  734   2.196   3.069   3.014 -2.4824  0.7523 -2.0832
  245SOL    HW2  735   2.173   2.919   3.083 -2.2289  1.6380 -0.5889
  246SOL     OW  736   1.056   0.958   1.346  0.2101  0.2115 -0.5896
  246SOL    HW1  737   1.149   0.919   1.361 -1.5049 -0.0538 -2.2718
  246SOL    HW2  738   0.987   0.886   1.372 -0.3144 -0.4988  0.7099
  247SOL     OW  739   0.480   0.077   2.082 -0.0253  0.0687 -0.0973
  247SOL    HW1  740   0.389   0.076   2.127  2.3483 -2.0848 -2.0838
  247SOL    HW2  741   0.470   0.107   1.982  1.2469  0.5407 -0.3717
  248SOL     OW  742   0.210   1.780   1.839 -0.0822  0.0641  0.1166
  248SOL    HW1  743   0.136   1.730   1.890 -3.3626 -1.6992 -0.1343
  248SOL    HW2  744   0.306   1.744   1.856  1.7217 -0.5212 -2.4852
  249SOL     OW  745   2.894   0.086   2.854  0.4225  0.1913  0.5039
  249SOL    HW1  746   2.847   3.085   2.850  1.3567 -1.3762 -1.3061
  249SOL    HW2  747   2.917   0.119   2.944 -1.8414  1.7048 -0.7769
  250SOL     OW  748   2.868   0.078   0.425  0.1743  0.3223 -0.0323
  250SOL    HW1  749   2.844   3.079   0.472  2.9984  2.2867  0.0196
  250SOL    HW2  750   2.936   0.069   0.350  1.3151  1.5504  3.4856
  251SOL     OW  751   0.466   1.515   1.272 -0.2403  0.6146 -0.1103
  251SOL    HW1  752   0.392   1.489   1.331 -0.4331  0.9421 -0.7568
  251SOL    HW2  753   0.523   1.433   1.253  1.7255 -0.7805 -2.1573
  252SOL     OW  754   1.671   2.738   1.432 -0.2285  0.0633 -0.4639
  252SOL    HW1  755   1.741   2.744   1.359 -0.5851 -1.6867  2.8195
  252SOL    HW2  756   1.616   2.824   1.432 -0.0498  2.2850 -2.2426
  253SOL     OW  757   2.361   1.767   2.463 -0.6502 -0.0656  1.1139
  253SOL    HW1  758   2.422   1.839   2.424  0.4510 -0.3102 -0.1720
  253SOL    HW2  759   2.403   1.675   2.453 -0.5267 -1.3430 -1.0036
  254SOL     OW  760   0.823   2.067   2.330  0.0234 -0.4210 -0.1948
  254SOL    HW1  761   0.812   1.968   2.303  1.4218 -3.2249  1.3538
  254SOL    HW2  762   0.818   2.079   2.432 -0.5374  0.6287  2.5449
  255SOL     OW  763   0.862   0.291   1.453 -0.1786  0.1032 -0.1493
  255SOL    HW1  764   0.936   0.325   1.395  0.6315 -0.3948  1.6004
  255SOL    HW2  765   0.827   0.201   1.410 -1.1454 -1.4997 -0.0871
  256SOL     OW  766   2.205   2.197   1.356 -0.2716  0.4746 -0.0926
  256SOL    HW1  767   2.140   2.125   1.386 -0.7360  0.1643  0.7239
  256SOL    HW2  768   2.246   2.179   1.263  1.5964 -0.7842 -3.3442
  257SOL     OW  769   0.553   2.322   2.888 -0.4560 -0.5020 -0.6920
  257SOL    HW1  770   0.582   2.409   2.939 -0.5723 -0.0888  2.5815
  257SOL    HW2  771   0.559   2.340   2.788  0.1162 -1.1815 -3.4894
  258SOL     OW  772   0.516   1.612   2.890 -0.2246 -0.0903  0.2592
  258SOL    HW1  773   0.590   1.680   2.912 -0.0658  2.9971 -1.5998
  258SOL    HW2  774   0.558   1.522   2.867  1.3816  2.8108  0.9760
  259SOL     OW  775   0.549   1.518   2.588 -0.6532 -0.3176  0.5686
  259SOL    HW1  776   0.597   1.466   2.661  1.6301  0.4615 -3.6033
  259SOL    HW2  777   0.621   1.572   2.540  0.9569  2.2355 -1.7380
  260SOL     OW  778   2.178   1.032   1.378 -0.3409 -0.0300 -0.0426
  260SOL    HW1  779   2.108   1.011   1.451 -0.9570  0.3695  0.7091
  260SOL    HW2  780   2.145   1.108   1.322  0.1013 -2.7614 -0.4676
  261SOL     OW  781   1.160   0.617   0.742  0.4902  0.2604 -0.4650
  261SOL    HW1  782   1.252   0.644   0.770 -0.9401  0.6232  0.4979
  261SOL    HW2  783   1.099   0.635   0.825 -0.3668 -0.8441  0.7243
  262SOL     OW  784   1.917   2.020   2.599  0.7718 -0.0089  0.0545
  262SOL    HW1  785   1.958   2.022   2.506 -1.1593  0.9825 -0.0962
  262SOL    HW2  786   1.847   2.094   2.599 -1.5549 -0.4613  0.6672
  263SOL     OW  787   0.044   1.643   3.031 -0.1852  0.0244  0.5553
  263SOL    HW1  788   3.085   1.610   0.030  0.4260  1.1072  2.2758
  263SOL    HW2  789   0.144   1.626   3.043  1.0971 -0.2994  0.2893
  264SOL     OW  790   0.370   1.795   1.226 -0.8704  0.1758  0.5197
  264SOL    HW1  791   0.343   1.726   1.296  2.3540  0.3954 -0.6364
  264SOL    HW2  792   0.424   1.751   1.152 -1.6369  0.1741  1.9287
  265SOL     OW  793   0.449   0.899   0.532  0.7856 -0.8082 -0.3795
  265SOL    HW1  794   0.443   0.917   0.633 -1.1701  3.0638  0.6106
  265SOL    HW2  795   0.499   0.975   0.484 -1.1907 -0.6055  0.6710
  266SOL     OW  796   1.278   1.850   0.105 -0.1413 -0.4499  0.6416
  266SOL    HW1  797   1.260   1.841   0.203  0.8248  1.5816 -0.2493
  266SOL    HW2  798   1.194   1.834   0.045 -0.6374  0.9673  1.3929
  267SOL     OW  799   0.664   0.714   2.056 -0.7216  0.1985 -0.2593
  267SOL    HW1  800   0.711   0.655   1.981  0.1823 -2.1847 -2.8985
  267SOL    HW2  801   0.731   0.784   2.083 -0.0854 -1.3893  0.6448
  268SOL     OW  802   0.670   0.829   2.887  0.3709 -0.6517 -0.0319
  268SOL    HW1  803   0.680   0.930   2.881 -0.7646 -0.1136  1.3884
  268SOL    HW2  804   0.587   0.799   2.938  0.7980  0.3496  1.4566
  269SOL     OW  805   1.703   2.911   2.490 -0.0365 -0.0102  0.2508
  269SOL    HW1  806   1.658   2.876   2.407  0.2361  1.6554  0.6395
  269SOL    HW2  807   1.647   2.876   2.566  0.1822  0.5082 -2.5963
  270SOL     OW  808   1.012   1.423   2.454  0.2668  0.2560 -0.1685
  270SOL    HW1  809   0.959   1.346   2.409 -1.0124 -2.1431  0.2801
  270SOL    HW2  810   1.092   1.389   2.506 -0.6301 -1.8311 -1.5734
  271SOL     OW  811   3.073   0.192   3.056  0.2283 -0.1133  0.4503
  271SOL    HW1  812   0.010   0.292   3.040  2.3805 -0.8516 -0.7484
  271SOL    HW2  813   0.062   0.131   3.061 -1.8836 -0.4612  0.7883
  272SOL     OW  814   2.148   0.788   0.179 -0.1844  0.5458 -0.3767
  272SOL    HW1  815   2.146   0.782   0.282  1.1166  1.5633  1.6356
  272SOL    HW2  816   2.209   0.862   0.151 -0.4095  1.5407  2.2695
  273SOL     OW  817   0.197   0.098   2.212 -0.4668  0.7573 -0.4826
  273SOL    HW1  818   0.141   0.117   2.132 -2.3737 -1.0979  1.1433
  273SOL    HW2  819   0.162   0.133   2.300  0.5266 -0.9131 -0.6769
  274SOL     OW  820   0.033   0.386   1.797 -0.3134  0.6289  0.1086
  274SOL    HW1  821   0.055   0.481   1.837 -0.9443 -0.4025 -0.6915
  274SOL    HW2  822   3.043   0.394   1.731  0.1497  0.4725 -1.4526
  275SOL     OW  823   1.244   1.878   0.386 -0.3609  0.0252  0.0558
  275SOL    HW1  824   1.290   1.784   0.376 -1.3281 -1.1998 -1.0466
  275SOL    HW2  825   1.256   1.923   0.478 -2.4585  2.1643  1.3792
  276SOL     OW  826   0.787   0.901   2.325  0.4338  0.0424  0.2668
  276SOL    HW1  827   0.833   0.958   2.394  0.2652  1.0220  2.1295
  276SOL    HW2  828   0.683   0.907   2.334  0.8029 -1.1169  1.2307
  277SOL     OW  829   1.870   2.517   2.271 -0.3669 -0.0286  0.7362
  277SOL    HW1  830   1.877   2.498   2.170 -1.4410  2.2948 -0.3814
  277SOL    HW2  831   1.817   2.603   2.282 -0.5456 -1.2453 -1.0660
  278SOL     OW  832   1.960   2.802   2.147  0.6395 -0.1598 -0.0149
  278SOL    HW1  833   2.035   2.741   2.114  0.4823  3.3317 -1.8121
  278SOL    HW2  834   1.990   2.901   2.142 -0.0780  1.4833  0.5031
  279SOL     OW  835   1.830   1.145   0.095  0.4885  0.1828 -0.2844
  279SOL    HW1  836   1.785   1.227   0.138  1.1246  0.5366  0.3524
  279SOL    HW2  837   1.930   1.162   0.081 -1.8566 -2.2545  1.6086
  280SOL     OW  838   0.700   1.088   3.041  0.2579 -0.7851  0.7182
  280SOL    HW1  839   0.761   1.120   2.967  1.1250 -0.2785 -0.6415
  280SOL    HW2  840   0.755   1.038   0.022  3.2381 -0.8652  1.3343
  281SOL     OW  841   3.015   0.281   1.360  0.0832 -0.4073  0.6123
  281SOL    HW1  842   0.005   0.214   1.353  1.3523 -1.7631  1.7028
  281SOL    HW2  843   3.024   0.350   1.284  1.6371 -0.2450 -0.7830
  282SOL     OW  844   2.923   2.110   0.837  0.1598  0.0993  0.4938
  282SOL    HW1  845   2.964   2.128   0.929 -0.2803 -0.9962  2.0385
  282SOL    HW2  846   2.852   2.179   0.811 -0.3870 -2.5454  0.3317
  283SOL     OW  847   1.187   1.795   1.987 -0.0192  0.0085 -0.6741
  283SOL    HW1  848   1.220   1.741   2.065 -2.4311 -0.8894  0.1866
  283SOL    HW2  849   1.162   1.888   2.024 -0.8687 -1.4293  0.0923
  284SOL     OW  850   1.814   0.133   0.525 -0.2966  0.0760 -0.4746
  284SOL    HW1  851   1.803   0.034   0.551 -1.8707  2.6799 -0.7538
  284SOL    HW2  852   1.779   0.153   0.436  0.5280 -1.8711  1.7660
  285SOL     OW  853   2.782   2.742   2.751  0.1801  0.0208 -0.1949
  285SOL    HW1  854   2.709   2.745   2.682 -2.7890  0.4850  0.0313
  285SOL    HW2  855   2.799   2.645   2.781  0.2412  0.8852  1.1870
  286SOL     OW  856   2.079   2.422   1.277 -0.2400  0.0750 -0.2917
  286SOL    HW1  857   2.146   2.499   1.295  0.8172  0.2771  0.2809
  286SOL    HW2  858   2.123   2.337   1.311  0.3397 -2.2455 -1.5332
  287SOL     OW  859   0.498   1.280   0.618  0.0497  0.4975  0.5486
  287SOL    HW1  860   0.428   1.265   0.692 -0.6372  2.0330  1.5328
  287SOL    HW2  861   0.501   1.381   0.598  1.8748 -0.8697  2.0420
  288SOL     OW  862   1.797   1.734   2.619 -0.4456  0.3398 -0.2877
  288SOL    HW1  863   1.851   1.670   2.560 -2.2168 -0.0615  1.9941
  288SOL    HW2  864   1.775   1.819   2.567  0.4436  1.3287 -0.9922
  289SOL     OW  865   0.307   1.435   2.594 -0.1784  0.0009  0.0040
  289SOL    HW1  866   0.400   1.475   2.601 -0.3318  1.0273  0.6935
  289SOL    HW2  867   0.277   1.405   2.683 -1.1967  1.3764 -0.0208
  290SOL     OW  868   1.255   2.164   1.201  0.3402 -0.0715 -0.0496
  290SOL    HW1  869   1.324   2.199   1.133  0.1919 -2.6568 -4.2472
  290SOL    HW2  870   1.265   2.061   1.193 -0.5618 -0.4588 -3.6342
  291SOL     OW  871   1.691   1.156   2.937  0.0990  0.5726  0.1294
  291SOL    HW1  872   1.781   1.122   2.898  1.6593 -0.6252 -0.9206
  291SOL    HW2  873   1.710   1.182   3.032 -1.3594 -0.9939 -1.5323
  292SOL     OW  874   1.023   1.657   0.709 -0.2690  0.2296 -0.2963
  292SOL    HW1  875   0.941   1.596   0.694 -1.5574 -0.3286  1.1926
  292SOL    HW2  876   1.101   1.606   0.760  2.0588  0.3684  2.0537
  293SOL     OW  877   1.802   2.871   0.972  0.8181 -0.0905  0.4400
  293SOL    HW1  878   1.874   2.944   0.961 -2.3327  1.5934 -0.9930
  293SOL    HW2  879   1.736   2.890   0.899 -2.2470  1.5981  2.2465
  294SOL     OW  880   2.679   1.197   2.740  0.2611 -0.5048  1.0462
  294SOL    HW1  881   2.588   1.187   2.689 -0.2984  1.6431  1.6662
  294SOL    HW2  882   2.731   1.107   2.727 -1.0616 -1.2965  0.1085
  295SOL     OW  883   1.611   2.125   2.360 -0.4614  0.6728 -0.6848
  295SOL    HW1  884   1.636   2.191   2.436  1.5956  0.2261 -0.7349
  295SOL    HW2  885   1.644   2.171   2.275  1.9827  1.6671 -0.7459
  296SOL     OW  886   1.796   0.629   1.954  0.3660  0.2797 -0.5339
  296SOL    HW1  887   1.759   0.713   1.909  2.4297 -1.8930 -0.5484
  296SOL    HW2  888   1.750   0.606   2.040  1.7031 -0.5862 -1.0752
  297SOL     OW  889   0.011   0.678   2.001  0.1641  0.1394 -0.1719
  297SOL    HW1  890   3.012   0.626   2.027 -1.7005 -0.4454 -1.0992
  297SOL    HW2  891   0.006   0.781   1.993 -2.0417  0.8706 -1.1157
  298SOL     OW  892   0.967   2.592   2.126  0.1338 -0.3599 -0.1313
  298SOL    HW1  893   0.927   2.570   2.037 -0.3766  1.4309  1.7842
  298SOL    HW2  894   1.059   2.548   2.140  1.0209  1.7306  0.4313
  299SOL     OW  895   1.250   2.480   2.739  0.2372  0.1220  0.2515
  299SOL    HW1  896   1.183   2.561   2.754  0.4021  0.0953 -1.0523
  299SOL    HW2  897   1.343   2.515   2.723 -0.5432 -5.3181  0.2689
  300SOL     OW  898   2.859   0.985   2.743  0.7215 -0.0875 -0.4824
  300SOL    HW1  899   2.794   0.911   2.783 -2.9353 -3.2218  3.0558
  300SOL    HW2  900   2.920   0.949   2.669 -1.6762  0.6586  1.2176
  301SOL     OW  901   1.946   0.964   1.528 -0.0628 -0.4955  0.0346
  301SOL    HW1  902   1.962   0.865   1.520 -1.4817  2.4426  0.9293
  301SOL    HW2  903   1.912   1.004   1.441  1.4740 -0.6326 -1.2355
  302SOL     OW  904   2.735   1.780   2.443 -0.0933  0.3545  0.6620
  302SOL    HW1  905   2.730   1.732   2.530 -1.0561  0.1647 -3.7108
  302SOL    HW2  906   2.650   1.826   2.415  1.9665  0.8656 -1.8552
  303SOL     OW  907   0.119   2.859   2.458  0.1626  0.2395 -0.2472
  303SOL    HW1  908   0.042   2.859   2.525 -1.4969  0.6817  0.4598
  303SOL    HW2  909   0.203   2.867   2.511 -1.4022 -3.9946 -0.0393
  304SOL     OW  910   0.205   0.969   1.483 -0.3295 -0.0553  0.4002
  304SOL    HW1  911   0.288   0.923   1.441  0.2953  0.0169  0.8758
  304SOL    HW2  912   0.230   1.043   1.549 -1.2943 -3.9547  0.6785
  305SOL     OW  913   2.772   0.387   1.808 -0.0242 -0.1599 -0.2722
  305SOL    HW1  914   2.840   0.394   1.731 -2.0952  1.0200  0.8235
  305SOL    HW2  915   2.722   0.298   1.813  0.2816  0.2408  0.9957
  306SOL     OW  916   2.458   1.327   1.324  0.1089  0.1772  0.4366
  306SOL    HW1  917   2.440   1.293   1.420 -3.8482 -0.0324  1.1128
  306SOL    HW2  918   2.461   1.429   1.323  1.1435 -1.3961  1.7807
  307SOL     OW  919   2.558   2.860   0.764 -0.5915  0.1632 -0.4646
  307SOL    HW1  920   2.645   2.809   0.757  0.9708 -3.2058  1.4776
  307SOL    HW2  921   2.480   2.797   0.741 -0.1803  0.3193  1.8582
  308SOL     OW  922   2.658   2.015   1.231  0.5040 -0.5029 -0.3079
  308SOL    HW1  923   2.596   1.952   1.185  0.1072  0.3817  0.6521
  308SOL    HW2  924   2.754   2.013   1.203 -0.0437  0.4643  0.2095
  309SOL     OW  925   2.141   2.044   1.708  0.0041  0.0439 -0.0021
  309SOL    HW1  926   2.085   2.089   1.634 -0.2012  0.3221  0.8582
  309SOL    HW2  927   2.081   2.020   1.788 -1.0511 -2.8964  1.2742
  310SOL     OW  928   2.238   1.522   2.746 -0.1774 -0.6777  0.1309
  310SOL    HW1  929   2.183   1.489   2.826 -0.8663  1.3114  1.2305
  310SOL    HW2  930   2.238   1.622   2.755  0.2093 -2.4121  1.2256
  311SOL     OW  931   1.951   1.129   2.873 -0.3061 -0.1726 -0.2616
  311SOL    HW1  932   1.939   1.144   2.770 -0.1657  0.1525 -0.3382
  311SOL    HW2  933   2.021   1.053   2.892 -0.9031  1.1066 -2.3906
  312SOL     OW  934   1.214   2.450   2.158  0.5246 -0.2666  0.5007
  312SOL    HW1  935   1.214   2.365   2.100  0.6483  0.4632  1.0043
  312SOL    HW2  936   1.204   2.425   2.256  0.1555  1.8324 -2.8478
  313SOL     OW  937   0.525   2.902   0.879 -0.5625 -0.0563 -0.0027
  313SOL    HW1  938   0.596   2.888   0.806 -2.2932  1.4273  0.9649
  313SOL    HW2  939   0.564   2.889   0.971 -0.9665 -0.0784  0.1809
  314SOL     OW  940   0.531   1.672   1.057  0.0176  0.1502 -0.8103
  314SOL    HW1  941   0.510   1.595   1.124  1.1324 -4.2194 -1.1120
  314SOL    HW2  942   0.582   1.646   0.973 -0.7511 -2.2105 -0.2966
  315SOL     OW  943   0.733   2.597   2.257  0.5446  0.2386 -0.4050
  315SOL    HW1  944   0.722   2.700   2.265  1.2164  0.5119 -1.0452
  315SOL    HW2  945   0.813   2.564   2.203  0.2888  1.0100  0.7313
  316SOL     OW  946   3.071   2.114   1.079  0.6510  0.5108 -0.5924
  316SOL    HW1  947   3.084   2.153   1.174  0.1018 -0.1234  1.5140
  316SOL    HW2  948   0.036   2.028   1.060  0.5950 -2.1830 -1.2711
  317SOL     OW  949   1.977   0.686   0.464 -0.0012 -0.2452  0.1732
  317SOL    HW1  950   2.034   0.771   0.462  1.5519 -0.4319  1.2312
  317SOL    HW2  951   2.039   0.600   0.454 -1.3745 -0.0156 -1.5984
  318SOL     OW  952   2.505   2.410   2.931  0.1248  0.0632  0.1867
  318SOL    HW1  953   2.426   2.389   2.988 -0.3087 -1.0701 -0.2849
  318SOL    HW2  954   2.592   2.407   2.987  3.0270  1.2294  1.4422
  319SOL     OW  955   1.526   1.735   0.034  0.5946  0.1467  0.1073
  319SOL    HW1  956   1.562   1.791   3.046  0.5493 -1.2118 -1.8572
  319SOL    HW2  957   1.429   1.761   0.062  0.2271 -0.1427 -0.3188
  320SOL     OW  958   0.537   2.372   2.618  0.1647 -0.3070 -0.6087
  320SOL    HW1  959   0.459   2.317   2.586  0.0724 -0.1927 -0.7667
  320SOL    HW2  960   0.608   2.377   2.548 -0.4069 -2.5544  0.1752
  321SOL     OW  961   0.952   2.572   0.052 -0.0942  0.4594  0.6228
  321SOL    HW1  962   1.038   2.521   0.082 -0.3043 -1.4354  1.0461
  321SOL    HW2  963   0.919   2.628   0.126 -0.6514 -2.9230 -3.1893
  322SOL     OW  964   2.042   0.293   2.331 -0.4495 -0.0154 -0.2688
  322SOL    HW1  965   2.055   0.208   2.386  1.9968  1.9604  0.4749
  322SOL    HW2  966   2.108   0.370   2.359  2.3404  0.6291 -1.3416
  323SOL     OW  967   2.913   0.800   0.651  0.4534 -1.2272  0.3260
  323SOL    HW1  968   2.942   0.759   0.735 -0.3314 -1.2794 -0.3660
  323SOL    HW2  969   2.953   0.747   0.577 -0.2839  1.1627  2.4441
  324SOL     OW  970   0.328   0.532   2.391 -0.6850  0.0596  0.3632
  324SOL    HW1  971   0.247   0.569   2.341 -1.5359  3.3939 -1.2267
  324SOL    HW2  972   0.411   0.541   2.334 -0.0807  0.7888  0.4153
  325SOL     OW  973   0.647   3.062   2.297  0.0486  0.0431  0.2601
  325SOL    HW1  974   0.599   0.013   2.219 -0.1655 -1.9294  0.3425
  325SOL    HW2  975   0.596   3.068   2.386  0.2932 -0.0334 -1.0157
  326SOL     OW  976   2.513   2.338   0.442  0.6475 -0.0383 -0.2563
  326SOL    HW1  977   2.444   2.408   0.469  0.1682 -2.7611 -0.0433
  326SOL    HW2  978   2.603   2.359   0.484  0.2749  0.3746 -0.8364
  327SOL     OW  979   2.407   1.280   0.628  0.5368  0.6348  0.1100
  327SOL    HW1  980   2.382   1.179   0.646 -1.0928 -1.2019 -1.8570
  327SOL    HW2  981   2.370   1.314   0.539  1.8475 -0.5361 -0.0520
  328SOL     OW  982   0.333   2.027   2.249 -0.0830 -0.2481 -0.1996
  328SOL    HW1  983   0.276   1.964   2.309 -2.1089 -0.8865  1.0662
  328SOL    HW2  984   0.266   2.085   2.198 -0.3190  1.9383  2.7601
  329SOL     OW  985   2.866   2.559   1.456  0.3017 -0.1268  0.3324
  329SOL    HW1  986   2.896   2.486   1.391 -1.5686 -0.6472  1.9054
  329SOL    HW2  987   2.819   2.528   1.542 -0.1879  0.0540  1.7599
  330SOL     OW  988   2.470   1.343   1.864 -0.2983  0.1172 -0.0284
  330SOL    HW1  989   2.410   1.371   1.944 -1.0907 -1.1449  1.2231
  330SOL    HW2  990   2.565   1.303   1.891  2.7866 -0.9273 -0.9296
  331SOL     OW  991   2.508   2.137   0.997 -0.1210 -0.0600 -0.3750
  331SOL    HW1  992   2.566   2.199   1.058  1.2938  0.2683 -0.1615
  331SOL    HW2  993   2.549   2.041   0.979 -2.6423 -0.8362 -0.1467
  332SOL     OW  994   0.472   2.664   0.651  0.5708 -0.3417  0.2803
  332SOL    HW1  995   0.433   2.715   0.571  0.9916 -0.5645  1.0990
  332SOL    HW2  996   0.407   2.661   0.731  0.0871 -0.0335 -1.0691
  333SOL     OW  997   2.110   3.072   2.201  0.4691 -0.4949  0.1278
  333SOL    HW1  998   2.014   0.004   2.225  1.2316  2.3874 -1.6545
  333SOL    HW2  999   2.133   0.007   2.103 -0.9558  1.9543  0.9384
  334SOL     OW 1000   0.879   1.109   0.463 -0.1058  0.3740 -0.0838
  334SOL    HW1 1001   0.899   1.192   0.414  0.6200 -0.3982  2.0138
  334SOL    HW2 1002   0.832   1.125   0.555 -3.1247  0.2790  2.8090
  335SOL     OW 1003   0.361   2.630   2.312 -0.3596 -0.3043 -0.3453
  335SOL    HW1 1004   0.408   2.553   2.265 -0.9297  1.2871  0.5441
  335SOL    HW2 1005   0.262   2.600   2.318  2.6911 -0.6424  2.5770
  336SOL     OW 1006   2.590   2.823   2.545 -0.1763  0.0475 -0.2205
  336SOL    HW1 1007   2.538   2.912   2.534 -0.2890 -0.9940 -2.2600
  336SOL    HW2 1008   2.545   2.744   2.510  1.9906  2.8763  2.2240
  337SOL     OW 1009   1.159   1.644   1.118 -0.0013  0.5911  0.0418
  337SOL    HW1 1010   1.189   1.557   1.166 -1.1367  1.2377  2.1125
  337SOL    HW2 1011   1.162   1.634   1.020 -0.2853  0.4676  0.3690
  338SOL     OW 1012   0.765   1.867   1.047 -0.6231  0.0660  0.0729
  338SOL    HW1 1013   0.852   1.819   1.084  1.4910 -0.7232 -1.5716
  338SOL    HW2 1014   0.697   1.795   1.030 -1.2899 -0.9772 -1.7316
  339SOL     OW 1015   0.116   1.206   1.653 -0.0870  0.1344  0.0445
  339SOL    HW1 1016   0.074   1.218   1.560 -1.5545 -1.4890  0.0097
  339SOL    HW2 1017   0.063   1.254   1.726  1.8217  0.3897  0.8287
  340SOL     OW 1018   1.520   3.072   2.056 -0.2763  0.4081  0.0760
  340SOL    HW1 1019   1.607   3.070   2.003  3.1354  2.2304 -0.1448
  340SOL    HW2 1020   1.441   3.067   1.994 -0.5470  0.9582 -0.9100
  341SOL     OW 1021   1.744   1.684   1.173  0.0684  0.2601 -0.1515
  341SOL    HW1 1022   1.679   1.732   1.231  0.6906 -0.1226 -2.2947
  341SOL    HW2 1023   1.812   1.635   1.233  2.4782  0.1424  0.3402
  342SOL     OW 1024   2.982   1.457   0.814 -0.2615 -0.6912  0.1704
  342SOL    HW1 1025   2.954   1.393   0.741 -0.1152 -1.9831 -0.4661
  342SOL    HW2 1026   2.953   1.423   0.907  1.0860 -2.6807  3.9227
  343SOL     OW 1027   3.042   0.859   1.533  0.4582 -0.5403  0.3502
  343SOL    HW1 1028   3.052   0.761   1.506  0.9904 -1.3184 -1.2310
  343SOL    HW2 1029   0.045   0.902   1.528  3.3181  0.3913  1.2500
  344SOL     OW 1030   1.775   0.317   1.102 -0.0754  0.4238  0.3955
  344SOL    HW1 1031   1.762   0.415   1.080 -0.4414  1.0943 -1.4741
  344SOL    HW2 1032   1.777   0.313   1.207  0.4337 -0.7060 -1.6368
  345SOL     OW 1033   0.356   2.899   2.591 -0.2128  0.3546 -0.7892
  345SOL    HW1 1034   0.400   2.801   2.597  1.4084 -0.8451 -1.3366
  345SOL    HW2 1035   0.428   2.970   2.570 -1.1990  0.5774  0.9419
  346SOL     OW 1036   2.409   1.499   0.233 -0.2671  0.2209 -0.6930
  346SOL    HW1 1037   2.401   1.600   0.214 -0.6144  1.3383 -1.9525
  346SOL    HW2 1038   2.501   1.466   0.251 -0.5010 -2.3560  2.4399
  347SOL     OW 1039   1.896   2.979   1.687 -0.4091 -1.0047 -0.5426
  347SOL    HW1 1040   1.850   3.033   1.619  0.2537  1.5477  2.0775
  347SOL    HW2 1041   1.841   2.900   1.709  1.6809  0.7126 -0.3851
  348SOL     OW 1042   0.980   1.182   1.476  0.5600 -0.4540 -0.1213
  348SOL    HW1 1043   0.997   1.100   1.417 -1.8828 -1.3297 -0.9731
  348SOL    HW2 1044   0.948   1.260   1.418  1.3914  1.2408 -0.7766
  349SOL     OW 1045   2.723   0.736   1.821  0.4661 -0.5503  0.0298
  349SOL    HW1 1046   2.774   0.646   1.828  0.3951  2.7180  0.2140
  349SOL    HW2 1047   2.785   0.806   1.781  1.8899 -0.6539 -0.4031
  350SOL     OW 1048   2.338   2.046   2.999  0.0661  0.0734 -0.1553
  350SOL    HW1 1049   2.264   2.039   2.930 -0.8404  0.3672  2.4773
  350SOL    HW2 1050   2.306   2.017   3.088  1.4901  0.8370  2.4062
  351SOL     OW 1051   0.410   2.966   1.793 -0.1952 -0.1957 -0.6422
  351SOL    HW1 1052   0.478   2.898   1.827 -2.3955 -1.1402 -0.4046
  351SOL    HW2 1053   0.457   3.055   1.796  0.4165 -2.7027 -1.4144
  352SOL     OW 1054   1.947   2.414   2.032  0.1563  0.1178 -0.2954
  352SOL    HW1 1055   2.050   2.431   2.042  0.8489  0.8855  0.0740
  352SOL    HW2 1056   1.928   2.314   2.033 -0.5120 -2.7628  0.3291
  353SOL     OW 1057   0.834   1.283   2.315 -0.3576 -0.3760 -0.2068
  353SOL    HW1 1058   0.868   1.237   2.233 -1.0126 -0.6401  0.5874
  353SOL    HW2 1059   0.789   1.210   2.372 -2.3345 -0.0472 -2.8885
  354SOL     OW 1060   0.988   1.814   3.086 -0.4585 -0.3860 -0.9799
  354SOL    HW1 1061   0.991   1.912   3.054  2.8403 -2.7451 -3.0481
  354SOL    HW2 1062   0.959   1.805   0.095  0.9232  1.1110  1.5354
  355SOL     OW 1063   1.976   3.076   0.958  0.1202 -0.1478 -0.2209
  355SOL    HW1 1064   2.070   3.041   0.962 -2.0740  0.8846  0.8610
  355SOL    HW2 1065   1.970   0.087   0.943 -1.9658 -3.6583 -0.5519
  356SOL     OW 1066   2.521   1.144   2.973 -0.1226 -0.4567  0.6530
  356SOL    HW1 1067   2.561   1.172   2.883 -0.9327  0.2008 -0.8194
  356SOL    HW2 1068   2.473   1.224   3.018 -2.1858 -2.9925  0.7134
  357SOL     OW 1069   2.916   0.182   2.101  0.4415 -0.1196  0.0058
  357SOL    HW1 1070   3.004   0.189   2.057 -5.1872 -1.6471  3.3614
  357SOL    HW2 1071   2.849   0.113   2.053 -1.8350 -4.5433 -2.9775
  358SOL     OW 1072   0.143   1.412   0.521 -0.4220 -0.2280  0.2598
  358SOL    HW1 1073   0.130   1.313   0.544 -1.5738 -1.5722  0.1700
  358SOL    HW2 1074   0.181   1.469   0.593 -1.6322  0.2358 -3.5076
  359SOL     OW 1075   2.502   0.283   2.890 -0.3179 -0.6102  0.1879
  359SOL    HW1 1076   2.525   0.346   2.813  2.2552  3.1513 -1.0459
  359SOL    HW2 1077   2.529   0.302   2.988  0.3767  1.1075  2.0792
  360SOL     OW 1078   1.507   0.886   1.242 -0.2731  0.1230  0.4478
  360SOL    HW1 1079   1.541   0.885   1.147 -1.7593  0.0536  2.0731
  360SOL    HW2 1080   1.545   0.949   1.310 -2.0198 -0.9969 -2.2871
  361SOL     OW 1081   2.656   2.423   0.948 -0.3144  0.2621 -0.1314
  361SOL    HW1 1082   2.650   2.396   1.046  0.4388  0.0644 -0.4303
  361SOL    HW2 1083   2.565   2.460   0.921  0.6092 -0.5396  0.8496
  362SOL     OW 1084   1.213   0.561   1.039  0.0131 -0.2740  0.2835
  362SOL    HW1 1085   1.212   0.478   1.106 -2.4657 -0.5169  2.3592
  362SOL    HW2 1086   1.122   0.608   1.036 -1.6342 -1.9302 -0.2866
  363SOL     OW 1087   1.973   1.811   0.522 -0.4467 -0.0643  0.9793
  363SOL    HW1 1088   2.055   1.754   0.504  2.8134 -1.9477 -0.3187
  363SOL    HW2 1089   1.997   1.906   0.551  0.0060 -2.2133  0.0533
  364SOL     OW 1090   0.351   0.680   1.198 -0.0433  1.1726  0.5395
  364SOL    HW1 1091   0.255   0.654   1.199  1.8111 -1.6772 -0.3276
  364SOL    HW2 1092   0.364   0.780   1.218  1.6421  3.9067  0.0247
  365SOL     OW 1093   0.338   2.697   0.871  0.7964  0.1440 -0.3081
  365SOL    HW1 1094   0.425   2.752   0.873  1.4215  0.7146 -0.0686
  365SOL    HW2 1095   0.271   2.734   0.938 -3.3135  0.8091 -0.6505
  366SOL     OW 1096   2.938   1.474   0.118 -0.2333 -0.3513 -0.1815
  366SOL    HW1 1097   2.982   1.383   0.107 -0.2412 -1.5950 -2.8731
  366SOL    HW2 1098   2.960   1.512   0.206  0.2361  0.0239 -0.4184
  367SOL     OW 1099   2.319   2.433   2.432 -0.1230  0.0458  0.3380
  367SOL    HW1 1100   2.222   2.441   2.467 -1.6083 -2.2713  1.9638
  367SOL    HW2 1101   2.353   2.520   2.390  2.0644  1.7214 -1.5199
  368SOL     OW 1102   2.210   1.671   0.475 -0.1846  0.2815 -0.0894
  368SOL    HW1 1103   2.311   1.652   0.460  1.4194  1.4572  0.1086
  368SOL    HW2 1104   2.166   1.588   0.512  0.7611  0.7837 -1.4718
  369SOL     OW 1105   1.422   0.998   0.156  0.0772  0.1628  0.4945
  369SOL    HW1 1106   1.373   1.082   0.195 -0.1034 -1.0544 -0.1761
  369SOL    HW2 1107   1.388   0.910   0.198 -0.0039 -1.4360  3.5525
  370SOL     OW 1108   0.542   0.063   0.769  0.2114  0.7682 -0.7589
  370SOL    HW1 1109   0.512   0.137   0.832  3.8653  1.2703  0.7041
  370SOL    HW2 1110   0.517   3.059   0.806  1.3190 -1.4647 -1.0496
  371SOL     OW 1111   2.870   1.394   2.682 -0.0479 -0.1965 -0.4563
  371SOL    HW1 1112   2.942   1.421   2.755 -0.2808  0.8166  2.6804
  371SOL    HW2 1113   2.795   1.331   2.718 -2.0526  1.2284 -1.9781
  372SOL     OW 1114   0.773   0.668   2.440 -0.3616 -0.2269  0.1689
  372SOL    HW1 1115   0.688   0.630   2.404 -0.9861 -0.3832 -0.5615
  372SOL    HW2 1116   0.797   0.761   2.398  1.1790  1.3374  0.8451
  373SOL     OW 1117   0.425   0.144   2.907 -0.2079  0.4394 -0.1968
  373SOL    HW1 1118   0.335   0.149   2.856 -1.5516 -0.6622 -1.8067
  373SOL    HW2 1119   0.504   0.122   2.848  0.7349  1.1659 -0.8933
  374SOL     OW 1120   1.192   1.651   2.900 -0.1317  0.9092 -0.2719
  374SOL    HW1 1121   1.226   1.665   2.807 -2.6098 -0.2391 -0.5382
  374SOL    HW2 1122   1.135   1.733   2.927  0.3257  0.4841 -0.2877
  375SOL     OW 1123   0.677   0.334   1.859 -0.0885 -0.2698 -0.6286
  375SOL    HW1 1124   0.734   0.335   1.774  0.2892 -1.5242  0.9068
  375SOL    HW2 1125   0.744   0.324   1.935  2.5251  1.2788 -2.9341
  376SOL     OW 1126   0.248   2.859   2.120 -0.2466 -0.3136 -0.4585
  376SOL    HW1 1127   0.206   2.876   2.211 -0.0236 -1.4551 -1.3940
  376SOL    HW2 1128   0.350   2.873   2.123  0.4514 -1.5650 -0.7179
  377SOL     OW 1129   2.572   2.183   2.750 -0.7504  0.3479  0.1249
  377SOL    HW1 1130   2.526   2.248   2.816 -1.7461  0.7820  3.9650
  377SOL    HW2 1131   2.596   2.098   2.798 -0.2823  1.2583 -1.9538
  378SOL     OW 1132   1.971   0.350   0.213  0.4707  0.1212  0.0807
  378SOL    HW1 1133   1.913   0.271   0.199  2.6289  1.4733  2.4208
  378SOL    HW2 1134   2.047   0.346   0.147 -1.6440  0.0768  0.1552
  379SOL     OW 1135   1.717   0.767   0.420 -0.9495  0.0118  0.2076
  379SOL    HW1 1136   1.803   0.716   0.431 -2.9345 -1.4223  2.0735
  379SOL    HW2 1137   1.707   0.827   0.340 -0.5190 -0.0620  1.0629
  380SOL     OW 1138   2.737   2.036   1.726  0.0509 -0.1104 -0.0174
  380SOL    HW1 1139   2.811   2.096   1.696  0.6737  0.9486  2.3171
  380SOL    HW2 1140   2.664   2.030   1.653  1.6363 -0.4679 -1.9992
  381SOL     OW 1141   2.721   1.261   1.938  0.9663 -0.0962 -0.0627
  381SOL    HW1 1142   2.742   1.338   1.999 -0.6538 -0.9119  0.8240
  381SOL    HW2 1143   2.727   1.169   1.979  1.0601  1.3876 -2.3033
  382SOL     OW 1144   2.804   2.234   2.592  0.3381  0.3497  0.2336
  382SOL    HW1 1145   2.730   2.205   2.661  0.7126  1.4581  1.9554
  382SOL    HW2 1146   2.821   2.154   2.534 -1.4324  3.9534  1.3103
  383SOL     OW 1147   1.154   1.001   2.741 -0.2001 -0.7100 -0.3083
  383SOL    HW1 1148   1.225   0.930   2.726 -1.7993 -0.0874 -2.9209
  383SOL    HW2 1149   1.194   1.095   2.761  1.3438 -1.8859  0.1609
  384SOL     OW 1150   1.686   1.888   2.211  0.0364  0.1876  0.2470
  384SOL    HW1 1151   1.662   1.969   2.259 -0.5967  2.6167 -1.4552
  384SOL    HW2 1152   1.784   1.883   2.187 -0.1448 -0.0457  1.1735
  385SOL     OW 1153   2.424   2.561   0.163 -0.1641 -0.4660 -0.5902
  385SOL    HW1 1154   2.392   2.464   0.149  0.0089 -2.1790  1.8851
  385SOL    HW2 1155   2.432   2.585   0.263  2.9203 -0.5815 -2.7458
  386SOL     OW 1156   1.830   1.418   0.621 -0.3323  0.3217  0.0725
  386SOL    HW1 1157   1.772   1.334   0.599  0.5737  1.7106  3.1726
  386SOL    HW2 1158   1.776   1.496   0.596 -1.9389 -0.9872 -3.1877
  387SOL     OW 1159   2.527   1.763   1.109 -0.1171  0.2079 -0.0592
  387SOL    HW1 1160   2.509   1.698   1.182 -1.2706  2.5676  0.4136
  387SOL    HW2 1161   2.626   1.755   1.074  2.4801  2.5256 -0.3915
  388SOL     OW 1162   0.625   1.103   1.707 -0.3342 -0.8718 -0.7468
  388SOL    HW1 1163   0.556   1.114   1.630 -0.8123  1.8121  0.0152
  388SOL    HW2 1164   0.603   1.172   1.780 -1.2298 -2.2584  1.1694
  389SOL     OW 1165   2.259   1.050   2.593  0.7745 -0.0632  0.4577
  389SOL    HW1 1166   2.166   1.097   2.588 -1.9994 -3.3580  1.4058
  389SOL    HW2 1167   2.334   1.121   2.606  0.7530  0.9579 -0.3434
  390SOL     OW 1168   0.792   1.493   3.013 -0.6928  0.6023 -0.7588
  390SOL    HW1 1169   0.886   1.498   2.972  0.4962 -1.5849  3.2548
  390SOL    HW2 1170   0.728   1.456   2.947 -0.1686  2.1736 -0.3088
  391SOL     OW 1171   0.746   2.094   0.266 -0.2819 -0.3846 -0.2916
  391SOL    HW1 1172   0.759   2.147   0.182 -1.6994  2.0150  1.8041
  391SOL    HW2 1173   0.652   2.112   0.299  0.5949  1.7558 -0.1920
  392SOL     OW 1174   2.667   2.625   2.216  0.3905  0.0431  0.0546
  392SOL    HW1 1175   2.735   2.668   2.281 -0.8786 -2.0496  2.4702
  392SOL    HW2 1176   2.712   2.554   2.162 -0.4949 -0.8358  2.2004
  393SOL     OW 1177   1.617   2.277   0.061  0.2369  0.7990  0.1364
  393SOL    HW1 1178   1.589   2.376   0.078 -1.1692  0.5694 -0.9323
  393SOL    HW2 1179   1.533   2.219   0.059  1.8904 -1.1352  1.0275
  394SOL     OW 1180   1.010   0.229   2.634 -0.1767  0.2699  0.1272
  394SOL    HW1 1181   0.960   0.313   2.657 -1.0294 -0.0402 -0.7109
  394SOL    HW2 1182   1.113   0.241   2.647  1.8586  1.3653 -0.6134
  395SOL     OW 1183   0.301   1.652   1.487  0.0444 -0.2971 -0.5058
  395SOL    HW1 1184   0.386   1.709   1.506 -1.4801  0.0647 -2.2379
  395SOL    HW2 1185   0.264   1.600   1.567  1.0947 -1.6257  1.7135
  396SOL     OW 1186   2.059   1.379   2.932 -0.4689 -0.6742  0.2876
  396SOL    HW1 1187   2.000   1.295   2.917  0.3611  0.0574  0.2534
  396SOL    HW2 1188   2.001   1.459   2.927 -0.7860 -1.7034  1.2344
  397SOL     OW 1189   0.240   0.551   0.217  0.1004  0.4726  0.3967
  397SOL    HW1 1190   0.236   0.446   0.224 -1.0810 -2.3374  1.0542
  397SOL    HW2 1191   0.312   0.585   0.279 -0.9578 -0.7330  2.4543
  398SOL     OW 1192   1.011   2.641   0.452 -0.7394 -0.1595 -0.1894
  398SOL    HW1 1193   1.111   2.644   0.448  0.5834  4.0550 -0.6941
  398SOL    HW2 1194   0.975   2.699   0.375  1.1672  2.2994 -0.2657
  399SOL     OW 1195   1.929   2.352   2.450 -0.6527 -0.0553  0.0272
  399SOL    HW1 1196   1.929   2.439   2.395 -0.7952 -0.4249  2.8906
  399SOL    HW2 1197   1.964   2.273   2.397  1.1603 -0.7675 -0.1081
  400SOL     OW 1198   3.015   1.575   1.540 -0.3096 -0.2906  0.0809
  400SOL    HW1 1199   2.939   1.518   1.515  1.8248  1.8587  0.0597
  400SOL    HW2 1200   3.059   1.616   1.460 -2.2995 -1.0282  1.0707
  401SOL     OW 1201   1.314   0.929   0.834 -0.0075 -0.0406 -0.2847
  401SOL    HW1 1202   1.290   1.017   0.786  0.7186 -0.7456 -0.0212
  401SOL    HW2 1203   1.391   0.883   0.794  1.1280 -0.8503 -2.3080
  402SOL     OW 1204   0.526   0.011   2.523 -0.1417  0.3841  0.1445
  402SOL    HW1 1205   0.564   0.023   2.614  0.0873  1.7686 -0.0316
  402SOL    HW2 1206   0.483   0.100   2.491 -2.1661 -0.3551  1.7476
  403SOL     OW 1207   2.940   1.700   1.790  0.2064  0.5245  0.9334
  403SOL    HW1 1208   2.973   1.648   1.709  0.4789  1.7954  2.0708
  403SOL    HW2 1209   2.883   1.783   1.763 -0.5456  0.7430  1.6011
  404SOL     OW 1210   2.572   1.979   1.505 -0.0892  0.6914  0.0117
  404SOL    HW1 1211   2.472   1.953   1.502  0.2240  1.4567 -2.0048
  404SOL    HW2 1212   2.608   2.025   1.425  0.8411 -0.0263  0.2375
  405SOL     OW 1213   2.189   0.246   2.665 -0.1672  0.1179 -0.0212
  405SOL    HW1 1214   2.193   0.174   2.596 -1.7889  0.1623 -0.8593
  405SOL    HW2 1215   2.130   0.227   2.746 -0.1881 -0.0646 -2.2708
  406SOL     OW 1216   0.988   1.433   2.802  0.3229 -0.1931  0.1721
  406SOL    HW1 1217   1.073   1.481   2.825 -2.1488  3.8865  0.9456
  406SOL    HW2 1218   0.949   1.479   2.723 -2.0315  1.2055 -1.2506
  407SOL     OW 1219   1.708   1.915   0.789 -0.2564 -0.6684 -0.5770
  407SOL    HW1 1220   1.682   1.977   0.710  0.0242  1.4917 -2.7197
  407SOL    HW2 1221   1.800   1.940   0.813  0.3107 -0.6632 -0.3940
  408SOL     OW 1222   0.129   0.053   0.842 -0.2654  0.2387 -0.3065
  408SOL    HW1 1223   0.029   0.027   0.836 -2.8090 -1.4136  0.7207
  408SOL    HW2 1224   0.146   0.079   0.937 -2.7590  0.2680  0.3905
  409SOL     OW 1225   1.821   1.356   0.887 -0.1191 -0.3741 -0.6202
  409SOL    HW1 1226   1.864   1.419   0.948 -2.3184  0.5170 -0.1681
  409SOL    HW2 1227   1.850   1.371   0.793 -0.0107  2.5428  2.2637
  410SOL     OW 1228   2.104   2.250   0.077 -0.1730  0.3652  0.1800
  410SOL    HW1 1229   2.036   2.179   0.109  0.0539 -1.2527  0.8962
  410SOL    HW2 1230   2.172   2.267   0.152  1.8040 -1.5813 -0.9386
  411SOL     OW 1231   0.192   2.999   0.309  0.2472  0.4592  0.4118
  411SOL    HW1 1232   0.128   3.054   0.248  0.4636  1.4411 -2.4695
  411SOL    HW2 1233   0.186   3.025   0.409 -2.2874 -2.8209 -1.2824
  412SOL     OW 1234   1.485   2.843   0.859 -0.0622  0.5483 -0.7140
  412SOL    HW1 1235   1.423   2.838   0.944 -0.4460  0.4378  0.1750
  412SOL    HW2 1236   1.522   2.936   0.836 -0.8098 -1.9290  2.6810
  413SOL     OW 1237   1.744   0.345   2.474  0.2964  0.1575  0.4271
  413SOL    HW1 1238   1.842   0.364   2.493 -0.3220  2.8529  0.1112
  413SOL    HW2 1239   1.736   0.308   2.378 -0.6641  0.4216  1.1543
  414SOL     OW 1240   0.425   0.629   0.430  0.2506 -0.2644  0.2027
  414SOL    HW1 1241   0.423   0.723   0.471 -0.8914 -1.9909  0.4026
  414SOL    HW2 1242   0.521   0.598   0.425 -1.2961 -0.7925 -2.4848
  415SOL     OW 1243   0.131   1.247   1.225 -0.4765 -0.3498  0.2429
  415SOL    HW1 1244   0.067   1.218   1.304  0.1474  0.2852  4.2972
  415SOL    HW2 1245   0.095   1.205   1.137 -2.6986 -1.6753 -0.2396
  416SOL     OW 1246   0.360   0.530   2.942 -0.2430 -0.1163  0.0731
  416SOL    HW1 1247   0.319   0.499   2.851  0.0145  0.2894 -1.0823
  416SOL    HW2 1248   0.300   0.513   3.022  0.6902  1.9848  2.4195
  417SOL     OW 1249   2.427   0.404   0.841  0.4566  0.3577  0.0929
  417SOL    HW1 1250   2.490   0.370   0.771  0.3035  0.0592  0.9895
  417SOL    HW2 1251   2.466   0.376   0.928  1.0460  1.3066  0.8407
  418SOL     OW 1252   0.427   0.237   2.432 -0.2810 -0.1059  0.2565
  418SOL    HW1 1253   0.474   0.252   2.345  0.4669 -1.6330  1.5155
  418SOL    HW2 1254   0.401   0.331   2.472 -0.6284  2.1668 -0.7962
  419SOL     OW 1255   0.161   0.782   0.762  0.2170  0.0808  0.8237
  419SOL    HW1 1256   0.252   0.820   0.790  0.5990 -0.3357  0.6614
  419SOL    HW2 1257   0.160   0.768   0.662  0.9548  0.9795  1.8716
  420SOL     OW 1258   2.175   1.554   1.212 -0.1431 -0.6747  0.0560
  420SOL    HW1 1259   2.083   1.559   1.253 -0.7004 -1.1612  1.4244
  420SOL    HW2 1260   2.173   1.553   1.111  0.6944 -0.0691  2.9241
  421SOL     OW 1261   1.111   2.093   2.770  0.1380 -0.4478 -0.2389
  421SOL    HW1 1262   1.061   2.019   2.724  2.2336 -1.0114 -0.2393
  421SOL    HW2 1263   1.201   2.112   2.726  1.0065  1.9825 -1.9166
  422SOL     OW 1264   2.563   0.437   0.020 -0.4177  0.4284 -0.3607
  422SOL    HW1 1265   2.472   0.479   0.016  1.2051  1.4165 -2.2788
  422SOL    HW2 1266   2.642   0.499   0.041  0.7306 -3.0549 -1.8981
  423SOL     OW 1267   2.031   1.516   0.207  0.4835 -0.3008 -0.3216
  423SOL    HW1 1268   2.088   1.600   0.186 -1.6041  2.1207  0.4330
  423SOL    HW2 1269   1.939   1.525   0.164  0.3340  0.8779 -1.0657
  424SOL     OW 1270   0.899   1.048   1.703 -0.5949  0.0448  0.3879
  424SOL    HW1 1271   0.807   1.077   1.738 -1.2392  1.3362 -2.6292
  424SOL    HW2 1272   0.936   1.122   1.638 -1.2072 -0.8153 -1.5361
  425SOL     OW 1273   2.834   2.814   2.363  0.2020 -0.2226  0.3531
  425SOL    HW1 1274   2.923   2.863   2.347  0.1306 -1.1268  0.1041
  425SOL    HW2 1275   2.768   2.867   2.419 -0.4298 -1.5848 -0.5683
  426SOL     OW 1276   1.911   2.596   0.467  0.3684 -0.4069  0.4892
  426SOL    HW1 1277   1.891   2.589   0.368 -0.1856 -3.4926  2.3667
  426SOL    HW2 1278   1.822   2.608   0.518 -1.6569  1.7834  1.6958
  427SOL     OW 1279   0.642   0.480   2.981  0.6399 -0.1938 -0.2595
  427SOL    HW1 1280   0.672   0.575   2.996  1.2134  1.4928  1.7825
  427SOL    HW2 1281   0.543   0.476   2.948 -0.3689 -2.4646 -0.9966
  428SOL     OW 1282   2.470   1.211   2.573  0.4757 -0.0338  0.0685
  428SOL    HW1 1283   2.484   1.191   2.471  3.3375  1.2150 -3.2524
  428SOL    HW2 1284   2.495   1.305   2.597 -0.2736  1.6665 -1.0258
  429SOL     OW 1285   2.847   0.254   0.615  0.3386  0.0176 -0.1369
  429SOL    HW1 1286   2.835   0.187   0.537 -0.2900  0.7610  0.3156
  429SOL    HW2 1287   2.944   0.278   0.635  3.5410  1.8623 -1.2451
  430SOL     OW 1288   1.011   2.872   2.138 -0.3501 -0.2814  0.0466
  430SOL    HW1 1289   0.977   2.776   2.140  1.9976  1.5561  0.1483
  430SOL    HW2 1290   1.019   2.909   2.044 -2.2020  0.7443  2.8406
  431SOL     OW 1291   2.889   1.789   1.290  0.5235  0.0176  0.1989
  431SOL    HW1 1292   2.979   1.740   1.312  1.2656 -1.5642 -0.1614
  431SOL    HW2 1293   2.866   1.767   1.196 -0.6933 -0.5325  0.2970
  432SOL     OW 1294   2.426   2.310   2.089  0.7593  0.0782 -0.2662
  432SOL    HW1 1295   2.523   2.343   2.079 -1.3523  1.1071  2.5954
  432SOL    HW2 1296   2.424   2.212   2.086 -0.0289  2.7138 -0.4930
  433SOL     OW 1297   1.384   2.106   0.120 -0.0887 -0.1401 -0.2012
  433SOL    HW1 1298   1.355   2.010   0.103 -0.5847  0.2302 -0.6016
  433SOL    HW2 1299   1.313   2.162   0.158 -0.7862  0.2203 -0.3633
  434SOL     OW 1300   0.327   2.200   2.873  0.4440  0.3848 -0.3700
  434SOL    HW1 1301   0.410   2.259   2.875 -1.3806 -1.3823  0.6001
  434SOL    HW2 1302   0.283   2.191   2.967 -2.0015 -0.4947  0.5660
  435SOL     OW 1303   3.074   1.156   0.550  0.0909 -0.1169  0.1265
  435SOL    HW1 1304   3.082   1.090   0.472  1.5211  0.0939  0.0001
  435SOL    HW2 1305   2.980   1.186   0.564  0.1381  0.6244 -0.2734
  436SOL     OW 1306   0.350   2.743   1.636  0.2416 -0.5947 -0.2702
  436SOL    HW1 1307   0.376   2.666   1.696 -1.1718 -0.3696 -1.6287
  436SOL    HW2 1308   0.325   2.823   1.691  0.8786  0.8606 -0.5501
  437SOL     OW 1309   1.203   2.563   1.212  0.2032 -0.1754  0.5727
  437SOL    HW1 1310   1.293   2.521   1.234 -2.7870  2.5153 -2.2539
  437SOL    HW2 1311   1.201   2.591   1.117  0.4193 -1.2745  0.6092
  438SOL     OW 1312   0.251   2.203   0.758 -0.1733  0.1469  0.1209
  438SOL    HW1 1313   0.176   2.141   0.718 -1.1350 -2.0671 -0.4481
  438SOL    HW2 1314   0.214   2.257   0.836 -1.2363 -3.0110 -1.6898
  439SOL     OW 1315   0.953   2.687   1.842  0.1860 -0.1440 -0.0562
  439SOL    HW1 1316   0.984   2.662   1.748 -0.8813  0.1238 -0.4327
  439SOL    HW2 1317   0.855   2.663   1.831  0.5416  0.6472  0.6775
  440SOL     OW 1318   2.209   2.803   1.933  0.0534  0.0774  0.3006
  440SOL    HW1 1319   2.222   2.746   1.848  1.0613 -0.2908 -0.5582
  440SOL    HW2 1320   2.160   2.892   1.913 -1.7070  2.0112  1.1345
  441SOL     OW 1321   0.101   0.661   1.740  0.0043 -0.2558  0.1069
  441SOL    HW1 1322   0.199   0.689   1.743  0.0613 -1.1340 -0.2828
  441SOL    HW2 1323   0.064   0.679   1.830  0.0974  0.3826  0.3708
  442SOL     OW 1324   1.836   2.286   0.548 -0.4475 -0.3070 -0.4167
  442SOL    HW1 1325   1.849   2.378   0.603  1.6187  4.4766  2.4080
  442SOL    HW2 1326   1.834   2.301   0.445  0.1439  0.7832 -1.9823
  443SOL     OW 1327   0.092   0.712   2.768 -0.7387  0.4584  0.0375
  443SOL    HW1 1328   0.077   0.613   2.786  1.0075  1.4907 -0.8298
  443SOL    HW2 1329   0.090   0.768   2.851  1.3818  0.0466 -1.3822
  444SOL     OW 1330   1.610   0.996   2.138 -0.3416  0.4309  0.2974
  444SOL    HW1 1331   1.687   0.949   2.183  2.7103  1.2714 -0.1866
  444SOL    HW2 1332   1.634   1.080   2.089  1.7799 -3.9408  1.2842
  445SOL     OW 1333   0.009   2.664   1.382 -0.1983 -0.3873  0.6904
  445SOL    HW1 1334   0.101   2.641   1.417  0.1655 -0.2632  1.4393
  445SOL    HW2 1335   3.020   2.638   1.445 -1.1967 -1.0335 -1.1588
  446SOL     OW 1336   2.779   1.702   1.044  0.0815 -0.1158  0.2304
  446SOL    HW1 1337   2.806   1.601   1.044 -0.0050 -2.4393  1.6551
  446SOL    HW2 1338   2.835   1.750   0.974  0.3366 -0.6694 -2.0697
  447SOL     OW 1339   0.236   1.072   0.316 -0.2601 -0.5967 -0.2074
  447SOL    HW1 1340   0.299   1.056   0.393 -1.4796 -1.0287  1.4611
  447SOL    HW2 1341   0.155   1.017   0.337 -0.1494  1.4613  1.0032
  448SOL     OW 1342   1.128   2.075   2.005 -0.1745  0.9736  0.0194
  448SOL    HW1 1343   1.060   2.067   1.932  0.4792  1.4693  0.8239
  448SOL    HW2 1344   1.091   2.134   2.083  0.8185 -0.8641  0.9668
  449SOL     OW 1345   1.309   1.621   0.353  0.0069 -0.2486  0.3755
  449SOL    HW1 1346   1.321   1.552   0.427 -0.6144 -0.6709  0.1627
  449SOL    HW2 1347   1.242   1.582   0.285 -3.0379  3.7914  0.6324
  450SOL     OW 1348   2.670   2.707   1.906  0.3507 -0.6225  0.3928
  450SOL    HW1 1349   2.754   2.648   1.903  2.6426 -2.0927  0.5112
  450SOL    HW2 1350   2.645   2.728   1.999  1.0678  0.3037 -0.3724
  451SOL     OW 1351   2.029   0.676   2.384 -0.2985  0.1375 -0.4986
  451SOL    HW1 1352   2.097   0.756   2.389  1.9496  1.9999 -2.9297
  451SOL    HW2 1353   2.040   0.602   2.453  0.5909  2.8423 -1.2571
  452SOL     OW 1354   1.743   0.617   0.745  0.0496  0.0576 -0.1928
  452SOL    HW1 1355   1.760   0.518   0.732 -0.9512 -3.5255 -1.0384
  452SOL    HW2 1356   1.823   0.676   0.738 -1.7466  1.1147  2.4180
  453SOL     OW 1357   1.942   0.708   1.494 -0.0129 -0.1572  0.7778
  453SOL    HW1 1358   1.961   0.634   1.563 -0.8624 -2.9336 -1.4957
  453SOL    HW2 1359   1.958   0.675   1.395  1.4453  0.4229 -1.9689
  454SOL     OW 1360   3.004   1.507   0.375 -0.0546 -0.4032  0.5983
  454SOL    HW1 1361   3.086   1.472   0.427  0.4555 -1.9820  0.1741
  454SOL    HW2 1362   3.005   1.611   0.377 -0.3880  2.2818 -1.2552
  455SOL     OW 1363   2.551   2.870   1.057  0.0900 -0.3327 -0.4547
  455SOL    HW1 1364   2.620   2.796   1.088 -1.5323  1.1243 -1.3346
  455SOL    HW2 1365   2.557   2.887   0.958 -0.5732  0.3737  1.8125
  456SOL     OW 1366   0.050   2.926   1.437  0.1083 -0.0172 -0.3228
  456SOL    HW1 1367   0.031   2.835   1.397 -0.4662 -0.4565  0.6247
  456SOL    HW2 1368   0.019   2.928   1.531 -0.0123  1.3290 -0.4613
  457SOL     OW 1369   1.460   3.071   0.474  0.0475 -0.4643 -0.2535
  457SOL    HW1 1370   1.523   3.041   0.397  1.2783  2.5439 -3.3998
  457SOL    HW2 1371   1.475   0.078   0.503  3.5484  2.8375  0.2878
  458SOL     OW 1372   2.357   2.662   0.692  0.2128  0.4781 -0.5498
  458SOL    HW1 1373   2.253   2.657   0.703 -2.1402  2.8118  1.6946
  458SOL    HW2 1374   2.384   2.651   0.595 -1.1206 -0.0138 -1.4393
  459SOL     OW 1375   2.241   0.651   2.824 -0.6226 -0.5793 -0.0135
  459SOL    HW1 1376   2.240   0.604   2.910 -1.5323  1.3964 -1.9502
  459SOL    HW2 1377   2.270   0.587   2.751 -2.8419 -0.3313 -0.8225
  460SOL     OW 1378   2.410   2.827   2.868  0.3814  0.1084 -0.1291
  460SOL    HW1 1379   2.365   2.888   2.794 -1.0012  1.6478 -2.0426
  460SOL    HW2 1380   2.475   2.757   2.833  2.8613  3.1004  2.6989
  461SOL     OW 1381   0.848   1.837   0.237 -0.2342 -0.1343  0.2805
  461SOL    HW1 1382   0.897   1.834   0.323 -0.7691  3.0204 -1.7702
  461SOL    HW2 1383   0.802   1.930   0.226 -0.8093  0.3896 -1.8819
  462SOL     OW 1384   1.973   1.980   0.821  0.1732  0.1771 -0.8129
  462SOL    HW1 1385   2.072   1.958   0.838  0.6391  0.4653  0.0337
  462SOL    HW2 1386   1.965   2.021   0.733  0.7716  0.8706  0.1311
  463SOL     OW 1387   2.461   0.945   0.561  0.0850  0.5065 -0.1466
  463SOL    HW1 1388   2.518   0.867   0.598  1.8499 -2.5123 -0.7796
  463SOL    HW2 1389   2.394   0.972   0.633 -1.2106  0.5319  0.9878
  464SOL     OW 1390   0.570   2.836   1.138  0.0192  0.2490 -0.8915
  464SOL    HW1 1391   0.526   2.800   1.226  1.0272 -0.2020  1.3109
  464SOL    HW2 1392   0.663   2.798   1.126 -0.7954 -0.7397 -2.2879
  465SOL     OW 1393   2.425   1.388   3.058  0.2386 -0.1118 -0.6818
  465SOL    HW1 1394   2.425   1.412   0.067 -1.6083 -2.5356 -0.3858
  465SOL    HW2 1395   2.400   1.467   3.004 -0.7202 -0.3360 -0.6239
  466SOL     OW 1396   2.011   0.206   2.853 -0.1143 -0.0725  0.1625
  466SOL    HW1 1397   1.947   0.285   2.873 -1.8361 -0.7541 -0.7793
  466SOL    HW2 1398   1.969   0.111   2.859  1.0936 -3.4312 -2.5393
  467SOL     OW 1399   0.875   0.582   1.387 -0.0430  0.4189 -0.2295
  467SOL    HW1 1400   0.976   0.595   1.385 -0.1565  2.4338 -1.2703
  467SOL    HW2 1401   0.842   0.547   1.297  1.5629  0.5170  0.7991
  468SOL     OW 1402   0.396   0.900   2.762 -0.0364 -0.3524 -0.5393
  468SOL    HW1 1403   0.423   0.852   2.849 -0.6744 -1.5111 -1.5837
  468SOL    HW2 1404   0.365   0.844   2.686 -0.5023  1.6143 -0.0950
  469SOL     OW 1405   0.504   2.229   0.289 -0.4027 -0.5262 -0.6482
  469SOL    HW1 1406   0.448   2.237   0.374 -0.1055 -0.9654 -1.1211
  469SOL    HW2 1407   0.542   2.320   0.264  1.0427  0.7145 -1.7387
  470SOL     OW 1408   2.656   1.335   2.321 -0.1282 -0.0114  0.3520
  470SOL    HW1 1409   2.708   1.318   2.405 -1.3002 -2.0810 -0.2757
  470SOL    HW2 1410   2.612   1.250   2.280 -0.5676 -1.3511 -2.1340
  471SOL     OW 1411   2.742   1.025   2.053 -0.0900 -0.3197 -0.3515
  471SOL    HW1 1412   2.671   0.971   2.101  0.0412 -3.8151  0.4016
  471SOL    HW2 1413   2.794   0.973   1.984  0.8736  0.2240 -1.2491
  472SOL     OW 1414   0.696   2.842   0.693 -0.3222 -0.3603  0.4001
  472SOL    HW1 1415   0.677   2.744   0.685 -1.3714 -0.1580 -0.9874
  472SOL    HW2 1416   0.786   2.863   0.651  0.9151 -0.8468 -1.1455
  473SOL     OW 1417   0.843   3.075   0.010 -0.3882  0.6207  0.4797
  473SOL    HW1 1418   0.767   3.071   0.078 -0.6953 -1.5621  2.4987
  473SOL    HW2 1419   0.839   3.006   3.021  0.0941 -0.8337  1.9259
  474SOL     OW 1420   1.853   0.021   2.205 -0.3844  0.4143  0.1269
  474SOL    HW1 1421   1.757   0.014   2.240 -1.9136 -0.5227  0.6686
  474SOL    HW2 1422   1.854   0.014   2.103  2.6501  0.6666 -1.7858
  475SOL     OW 1423   1.500   2.423   0.538 -0.2427 -0.0449 -0.2029
  475SOL    HW1 1424   1.464   2.336   0.514  0.4198  1.2417 -0.2785
  475SOL    HW2 1425   1.570   2.448   0.469  1.1407  0.3118 -0.7391
  476SOL     OW 1426   0.390   0.923   0.810  0.4613  0.0189  0.0421
  476SOL    HW1 1427   0.418   0.839   0.862 -0.5658 -1.8224  1.3434
  476SOL    HW2 1428   0.369   0.995   0.883  0.7717  1.1435  3.8109
  477SOL     OW 1429   1.426   2.430   1.180  0.2697 -0.0179  0.3801
  477SOL    HW1 1430   1.467   2.341   1.147  2.0086 -1.1661  0.5973
  477SOL    HW2 1431   1.490   2.503   1.152  3.2594  2.0825  1.8911
  478SOL     OW 1432   0.404   1.740   2.487  0.0684  0.1782  0.5615
  478SOL    HW1 1433   0.428   1.813   2.558 -0.4155  0.6624  0.8119
  478SOL    HW2 1434   0.456   1.655   2.512  1.0058  0.9319  1.5162
  479SOL     OW 1435   2.772   0.083   1.043  0.2750  0.3010 -0.0659
  479SOL    HW1 1436   2.829   0.010   0.997  2.4456  1.5761  0.7200
  479SOL    HW2 1437   2.792   0.096   1.143 -0.6938 -1.5770 -1.8903
  480SOL     OW 1438   2.975   2.815   0.586 -0.0335  0.5558 -0.1854
  480SOL    HW1 1439   3.057   2.799   0.639  0.1729  3.1257 -0.0600
  480SOL    HW2 1440   2.994   2.784   0.489 -0.9958  2.1350 -1.2792
  481SOL     OW 1441   2.398   2.508   0.911 -0.5351  0.0900  0.0975
  481SOL    HW1 1442   2.391   2.573   0.834  0.8186 -0.1106 -1.3864
  481SOL    HW2 1443   2.319   2.515   0.970  2.7548  0.1672 -0.0707
  482SOL     OW 1444   1.350   2.132   2.622  0.0293 -0.1123 -0.4533
  482SOL    HW1 1445   1.377   2.065   2.549 -4.5696  0.4005 -1.7683
  482SOL    HW2 1446   1.361   2.228   2.580  1.1974 -1.1116 -2.1805
  483SOL     OW 1447   0.459   1.962   2.628  0.1816 -0.1898 -0.4674
  483SOL    HW1 1448   0.436   1.924   2.720  0.2898 -1.8933 -0.9804
  483SOL    HW2 1449   0.405   2.046   2.604 -1.1425  2.1763 -0.6884
  484SOL     OW 1450   0.944   1.362   1.919  0.3641 -0.5442 -0.2905
  484SOL    HW1 1451   0.942   1.281   1.977  2.4542  0.8355  0.5743
  484SOL    HW2 1452   0.908   1.356   1.827  0.4259 -0.1138  1.8654
  485SOL     OW 1453   2.499   0.350   0.351  0.2161  0.1395  0.4898
  485SOL    HW1 1454   2.466   0.288   0.276  1.2627 -2.4994 -0.7723
  485SOL    HW2 1455   2.413   0.366   0.398  0.1368 -1.5144 -1.1501
  486SOL     OW 1456   1.633   0.007   0.882 -0.0764 -0.6294  0.0577
  486SOL    HW1 1457   1.577   0.024   0.966  0.5655  0.7298 -0.2921
  486SOL    HW2 1458   1.726   0.041   0.895 -1.1164 -0.0528  0.3414
  487SOL     OW 1459   0.366   1.922   0.853  0.2535  0.4671 -0.1558
  487SOL    HW1 1460   0.363   2.022   0.823  0.0807 -0.8055  0.2478
  487SOL    HW2 1461   0.449   1.900   0.906  1.7976 -0.9143 -1.0982
  488SOL     OW 1462   2.664   1.375   0.268  0.4464  0.3300 -0.2843
  488SOL    HW1 1463   2.760   1.403   0.275 -0.5639 -0.7214  0.5558
  488SOL    HW2 1464   2.647   1.276   0.278 -0.6565  0.3745 -2.1259
  489SOL     OW 1465   1.623   0.027   1.189 -0.3153  0.0349 -0.0189
  489SOL    HW1 1466   1.717   3.079   1.177 -0.7857 -1.9801  1.9808
  489SOL    HW2 1467   1.567   3.047   1.241 -2.1810 -0.5194  1.4902
  490SOL     OW 1468   1.087   0.975   0.319 -0.2290  0.1680 -0.4721
  490SOL    HW1 1469   1.128   0.887   0.351  1.8401 -0.6387  0.8053
  490SOL    HW2 1470   1.020   1.022   0.382 -0.5489  2.2653  1.9112
  491SOL     OW 1471   0.641   2.447   0.660  0.1386 -0.9807 -0.7197
  491SOL    HW1 1472   0.704   2.448   0.578 -1.4212 -0.6695  0.4561
  491SOL    HW2 1473   0.583   2.528   0.671  1.7837 -0.5882 -0.6141
  492SOL     OW 1474   1.283   1.316   2.254  0.4876  0.0394 -0.5078
  492SOL    HW1 1475   1.259   1.319   2.353  0.5415  0.1210  0.8929
  492SOL    HW2 1476   1.253   1.227   2.218  0.2999 -0.9561 -1.5607
  493SOL     OW 1477   0.155   2.353   0.979 -0.5085  0.1253  0.1981
  493SOL    HW1 1478   0.133   2.266   1.028  1.0167 -0.0790 -1.3592
  493SOL    HW2 1479   0.145   2.432   1.042 -2.5852 -0.1462 -1.5666
  494SOL     OW 1480   2.596   1.972   2.916 -0.3887  0.0724  0.2970
  494SOL    HW1 1481   2.624   1.878   2.944 -0.9899  0.7464  1.4974
  494SOL    HW2 1482   2.500   1.991   2.948 -1.6732  0.0501 -0.9450
  495SOL     OW 1483   2.733   1.623   2.665 -0.7266  0.2291  0.2981
  495SOL    HW1 1484   2.743   1.665   2.757  1.7728  1.9268  0.9490
  495SOL    HW2 1485   2.790   1.537   2.667  0.2065  1.8733  1.6065
  496SOL     OW 1486   2.638   0.135   1.783 -0.3149 -0.3157  0.0691
  496SOL    HW1 1487   2.654   0.095   1.694  0.8331  3.3819  0.0932
  496SOL    HW2 1488   2.684   0.081   1.858  0.4236 -0.9816 -0.5281
  497SOL     OW 1489   2.464   0.932   0.280  0.1879  0.0494  0.6930
  497SOL    HW1 1490   2.443   0.957   0.377  1.2101  0.5416  1.4231
  497SOL    HW2 1491   2.473   0.835   0.266 -2.1468  1.3177 -0.0497
  498SOL     OW 1492   0.087   2.379   2.549 -0.2193  0.0204 -0.2342
  498SOL    HW1 1493   0.019   2.456   2.545 -1.7966  0.9884  1.0815
  498SOL    HW2 1494   0.053   2.302   2.491  0.7462  0.5427 -0.7598
  499SOL     OW 1495   1.173   2.265   0.292 -0.5080  0.1925 -0.3568
  499SOL    HW1 1496   1.083   2.250   0.344  1.8785  1.3270 -3.0885
  499SOL    HW2 1497   1.137   2.319   0.215 -0.5845 -0.4166  1.4455
  500SOL     OW 1498   1.256   3.006   0.063  0.6236 -0.4933  0.2594
  500SOL    HW1 1499   1.230   3.052   3.068 -0.4436 -0.8104  3.7750
  500SOL    HW2 1500   1.250   2.903   0.056 -0.2063 -1.3716  0.5569
  501SOL     OW 1501   1.672   0.104   1.746  0.0873  0.2404 -0.1958
  501SOL    HW1 1502   1.596   0.095   1.678 -0.2330 -2.2083  2.5946
  501SOL    HW2 1503   1.764   0.110   1.695  1.5783 -1.5938 -3.4658
  502SOL     OW 1504   2.887   0.399   2.278 -0.0918 -0.2248 -0.8236
  502SOL    HW1 1505   2.954   0.411   2.354 -2.1851 -0.6172 -0.3459
  502SOL    HW2 1506   2.910   0.322   2.213 -1.3082  0.8926 -2.3176
  503SOL     OW 1507   2.487   1.980   2.381  0.1968  0.5613  0.4345
  503SOL    HW1 1508   2.567   1.989   2.320  1.2178  0.4486 -2.4271
  503SOL    HW2 1509   2.482   2.052   2.454 -0.3751 -1.7300  2.0495
  504SOL     OW 1510   1.375   0.385   1.538 -0.4828 -0.0368 -0.0753
  504SOL    HW1 1511   1.462   0.384   1.482  3.5920 -0.4516 -0.1261
  504SOL    HW2 1512   1.402   0.379   1.640 -0.6684 -0.7978  3.9402
  505SOL     OW 1513   0.422   0.535   1.565  0.3283  0.3942 -0.3968
  505SOL    HW1 1514   0.460   0.585   1.644  1.7467 -1.6441  2.0847
  505SOL    HW2 1515   0.354   0.464   1.592  0.3074 -0.6907  0.9178
  506SOL     OW 1516   0.471   0.885   2.354  0.3283 -0.8541 -0.5170
  506SOL    HW1 1517   0.402   0.854   2.420 -1.0582 -0.8524  0.9604
  506SOL    HW2 1518   0.438   0.860   2.262  0.8903  0.7972  1.2317
  507SOL     OW 1519   0.160   2.961   2.773  0.1698  0.0714  0.3190
  507SOL    HW1 1520   0.067   2.936   2.738 -3.1039 -0.3376 -2.4684
  507SOL    HW2 1521   0.239   2.932   2.713 -0.9233  1.2209  2.9247
  508SOL     OW 1522   1.670   0.643   1.552 -0.2631 -0.4992 -0.4915
  508SOL    HW1 1523   1.619   0.591   1.480 -0.1800  3.2093  1.4104
  508SOL    HW2 1524   1.772   0.658   1.530  0.1758  2.1647  1.1971
  509SOL     OW 1525   1.071   1.882   1.616  0.3432  0.4681  0.6867
  509SOL    HW1 1526   1.153   1.936   1.609 -2.1537 -0.8648  1.0249
  509SOL    HW2 1527   1.038   1.853   1.521 -0.3199  0.7316 -2.1511
  510SOL     OW 1528   2.082   1.318   2.054  0.6736 -0.0634 -0.0473
  510SOL    HW1 1529   2.086   1.286   2.150  1.0542  2.0486 -3.5206
  510SOL    HW2 1530   2.107   1.245   1.986  0.0712  2.5563  0.0087
  511SOL     OW 1531   0.452   1.787   0.610 -0.0575 -0.3059  0.1671
  511SOL    HW1 1532   0.498   1.856   0.548 -0.3576 -1.0131  0.3884
  511SOL    HW2 1533   0.387   1.844   0.666 -0.5242 -1.3526  1.1829
  512SOL     OW 1534   2.412   2.275   0.096 -0.0342 -0.9365  0.5925
  512SOL    HW1 1535   2.374   2.215   0.024  1.9334 -0.3019 -0.7793
  512SOL    HW2 1536   2.368   2.262   0.188  2.1553 -2.5854 -0.3473
  513SOL     OW 1537   0.104   1.935   2.491 -0.7233 -0.4863  0.2273
  513SOL    HW1 1538   0.138   1.932   2.590  3.4233 -0.2454  0.3486
  513SOL    HW2 1539   0.110   1.839   2.457  0.0176 -2.1524  0.1608
  514SOL     OW 1540   0.230   2.546   2.746  0.4452  0.5185  0.5362
  514SOL    HW1 1541   0.170   2.481   2.690  0.4017 -2.1545 -2.7715
  514SOL    HW2 1542   0.306   2.581   2.685  0.1873  1.8811 -0.8246
  515SOL     OW 1543   2.197   1.453   1.529 -0.3559  0.2628  0.0454
  515SOL    HW1 1544   2.262   1.374   1.542 -0.4917  2.3735  0.4638
  515SOL    HW2 1545   2.233   1.533   1.586  1.6371  0.4062  4.5054
  516SOL     OW 1546   2.426   2.189   2.519 -0.4126 -0.3879  0.4724
  516SOL    HW1 1547   2.382   2.278   2.492 -1.6534 -1.7947  0.7043
  516SOL    HW2 1548   2.451   2.188   2.616 -0.5508  1.0777 -1.6476
  517SOL     OW 1549   1.450   1.040   2.954 -0.4311 -0.4717  0.0393
  517SOL    HW1 1550   1.539   1.091   2.934 -0.3513  1.7304 -1.7260
  517SOL    HW2 1551   1.435   1.041   3.057 -0.9625 -1.4589  0.6876
  518SOL     OW 1552   2.729   0.062   2.305  0.2574  0.1245  0.0096
  518SOL    HW1 1553   2.785   0.132   2.262 -1.5716 -3.3962 -0.7835
  518SOL    HW2 1554   2.693   0.006   2.226 -0.0370  0.4098 -1.6666
  519SOL     OW 1555   1.556   1.731   2.009  0.6672 -0.0052 -0.0790
  519SOL    HW1 1556   1.475   1.681   2.042 -0.4947 -2.0823 -3.0964
  519SOL    HW2 1557   1.587   1.792   2.084  2.0117  1.9429 -2.9488
  520SOL     OW 1558   2.611   0.064   2.775 -0.1074  0.1089 -0.4297
  520SOL    HW1 1559   2.562   0.131   2.830  3.0504 -0.1962 -1.5804
  520SOL    HW2 1560   2.553   0.024   2.704  1.0730 -2.1547  2.4635
  521SOL     OW 1561   0.534   1.604   2.135  0.5223 -0.2051  0.1005
  521SOL    HW1 1562   0.438   1.640   2.159 -0.9846  0.9043 -2.6219
  521SOL    HW2 1563   0.556   1.527   2.203 -1.5410 -0.7855 -1.4164
  522SOL     OW 1564   1.189   0.189   1.600 -0.1348 -0.4453 -0.0547
  522SOL    HW1 1565   1.249   0.263   1.562 -2.6005 -1.3670  0.2505
  522SOL    HW2 1566   1.108   0.239   1.636  3.2526  0.6125 -2.8711
  523SOL     OW 1567   0.105   2.579   1.133  0.2805  0.0091  0.9880
  523SOL    HW1 1568   0.047   2.582   1.216 -0.7231  0.9669 -4.7356
  523SOL    HW2 1569   0.124   2.671   1.094 -0.8843  2.2804  0.4004
  524SOL     OW 1570   1.601   2.612   0.846 -0.0805 -0.1880 -0.5708
  524SOL    HW1 1571   1.530   2.537   0.852 -0.5930 -0.3900 -2.4886
  524SOL    HW2 1572   1.555   2.704   0.832  1.3271  1.1712  0.7251
  525SOL     OW 1573   2.548   1.052   0.999  0.2435 -0.6260 -0.3584
  525SOL    HW1 1574   2.474   1.110   1.039 -0.6410 -1.3334  0.8468
  525SOL    HW2 1575   2.522   0.954   1.001 -1.8893 -0.1392 -1.1739
  526SOL     OW 1576   1.046   2.623   0.764 -0.1914 -0.2183 -0.2901
  526SOL    HW1 1577   0.969   2.566   0.804 -1.6536 -1.5269 -0.9658
  526SOL    HW2 1578   1.036   2.629   0.662 -0.4293  0.5736  0.6003
  527SOL     OW 1579   2.241   1.880   0.843  0.2983  0.0903 -0.3550
  527SOL    HW1 1580   2.315   1.905   0.783 -0.3086 -2.0067  0.9349
  527SOL    HW2 1581   2.257   1.787   0.877 -0.5966  0.3746 -2.4580
  528SOL     OW 1582   2.283   0.476   0.493 -0.4198  0.1065  0.6543
  528SOL    HW1 1583   2.287   0.550   0.560  0.3717 -3.3287  1.9943
  528SOL    HW2 1584   2.193   0.426   0.494 -1.6393  1.6389 -0.3049
  529SOL     OW 1585   1.203   1.062   2.157 -0.6264 -0.0915  0.4141
  529SOL    HW1 1586   1.205   1.034   2.061  2.3056  1.1987  1.2538
  529SOL    HW2 1587   1.176   0.977   2.210 -3.1433  0.5322  2.3907
  530SOL     OW 1588   2.429   0.834   2.709 -0.1229  0.0281 -0.1098
  530SOL    HW1 1589   2.365   0.790   2.770  1.1905 -0.7535  0.0853
  530SOL    HW2 1590   2.374   0.887   2.637 -3.5513  1.6899 -2.4916
  531SOL     OW 1591   1.274   1.187   0.260 -0.3904  0.2092 -0.2061
  531SOL    HW1 1592   1.244   1.267   0.208 -1.8298  0.9858  0.9954
  531SOL    HW2 1593   1.192   1.128   0.278  1.1478  1.5191 -3.0704
  532SOL     OW 1594   2.192   0.148   0.682 -0.2676  0.0480  0.5760
  532SOL    HW1 1595   2.121   0.205   0.718  0.6110 -2.3757 -1.7384
  532SOL    HW2 1596   2.273   0.141   0.741 -0.9621  0.0767  0.1795
  533SOL     OW 1597   0.575   0.852   1.752  0.1693 -0.4703 -0.3881
  533SOL    HW1 1598   0.597   0.948   1.715  0.8915  2.5879 -0.3621
  533SOL    HW2 1599   0.661   0.798   1.753 -0.2772  0.4084  0.6739
  534SOL     OW 1600   1.804   0.064   2.561  0.5043 -0.0356 -0.1363
  534SOL    HW1 1601   1.771   3.070   2.509  1.8362  1.4317 -0.5109
  534SOL    HW2 1602   1.813   0.150   2.506 -1.6891  2.1610 -0.9465
  535SOL     OW 1603   0.529   0.301   0.384  0.3212  0.2118 -0.7662
  535SOL    HW1 1604   0.494   0.269   0.294  1.4208 -1.2640 -0.5325
  535SOL    HW2 1605   0.595   0.234   0.424  0.7341 -1.5988 -0.8401
  536SOL     OW 1606   0.888   2.667   1.312  0.0710 -0.1578  0.3065
  536SOL    HW1 1607   0.973   2.700   1.352  0.2088 -0.0527  0.3079
  536SOL    HW2 1608   0.875   2.697   1.214  0.7643 -0.9281 -0.2103
  537SOL     OW 1609   1.774   3.061   1.947 -0.4261  0.1398  0.1506
  537SOL    HW1 1610   1.722   0.029   1.876 -0.3703 -0.8228 -0.3084
  537SOL    HW2 1611   1.842   3.005   1.900  0.3508  1.9234  0.0113
  538SOL     OW 1612   3.047   2.707   0.355 -0.5461  0.1530 -0.3281
  538SOL    HW1 1613   3.048   2.703   0.252 -0.3701 -1.0957  0.8769
  538SOL    HW2 1614   3.068   2.612   0.389  1.7342 -0.2247 -1.1258
  539SOL     OW 1615   2.892   1.978   1.949  0.4274  0.8116  0.5384
  539SOL    HW1 1616   2.972   2.039   1.942  1.6642 -0.6749 -0.5079
  539SOL    HW2 1617   2.825   1.987   1.871 -1.4424  0.4513 -0.6336
  540SOL     OW 1618   3.000   2.616   1.731 -0.1124 -0.2069  0.0554
  540SOL    HW1 1619   3.052   2.613   1.818  0.6785 -0.9722  0.7453
  540SOL    HW2 1620   3.003   2.708   1.685  1.5798  0.8722 -2.0306
  541SOL     OW 1621   2.781   2.917   1.731  0.1903  0.3094 -0.1820
  541SOL    HW1 1622   2.734   2.836   1.775 -0.1311 -0.2396 -0.1042
  541SOL    HW2 1623   2.722   2.974   1.678 -0.2041  1.2638  0.0427
  542SOL     OW 1624   2.865   0.545   2.048 -0.1168 -0.0152 -0.2816
  542SOL    HW1 1625   2.808   0.485   1.987 -0.3836  2.0747  0.5136
  542SOL    HW2 1626   2.853   0.523   2.147 -3.2277  1.6988  2.3352
  543SOL     OW 1627   0.697   0.802   0.962 -0.1507  0.2482  0.3944
  543SOL    HW1 1628   0.649   0.736   0.901  0.1597 -1.7518  0.9780
  543SOL    HW2 1629   0.647   0.796   1.047  0.5054 -0.8432 -0.4993
  544SOL     OW 1630   1.953   1.813   1.049 -0.0104 -0.1367  0.7819
  544SOL    HW1 1631   1.875   1.775   1.112 -1.4981  0.5209 -1.2940
  544SOL    HW2 1632   1.941   1.768   0.961  0.5916  1.5591  2.4254
  545SOL     OW 1633   1.011   1.761   0.449 -0.3431  0.1789 -0.1205
  545SOL    HW1 1634   1.102   1.807   0.421  2.9112 -0.2023 -0.2179
  545SOL    HW2 1635   1.009   1.733   0.546  1.3059  0.4359 -2.4157
  546SOL     OW 1636   2.493   0.393   2.165 -0.1730 -0.3328  0.3015
  546SOL    HW1 1637   2.507   0.472   2.109  1.2448 -0.4213  0.7769
  546SOL    HW2 1638   2.548   0.398   2.252  0.7659 -1.8934  0.2945
  547SOL     OW 1639   0.162   0.170   2.497  0.2169 -0.0536 -0.4513
  547SOL    HW1 1640   0.156   0.163   2.598 -0.6356 -0.8976 -1.0789
  547SOL    HW2 1641   0.259   0.190   2.474 -0.6435  2.5556 -1.6536
  548SOL     OW 1642   1.995   2.087   2.344  0.3694  0.4352  0.4057
  548SOL    HW1 1643   2.094   2.111   2.347 -1.9536  1.6928  0.1877
  548SOL    HW2 1644   1.987   2.011   2.276  2.6764 -0.3373  2.8731
  549SOL     OW 1645   2.478   0.381   1.205  0.3798  0.2223 -0.0077
  549SOL    HW1 1646   2.471   0.313   1.274 -0.4923 -0.8157  0.0745
  549SOL    HW2 1647   2.573   0.423   1.209  1.8540 -0.1555 -1.0406
  550SOL     OW 1648   1.685   1.639   0.607  0.2533  0.1921  0.2868
  550SOL    HW1 1649   1.651   1.628   0.511 -0.7380  1.3841  1.1987
  550SOL    HW2 1650   1.636   1.708   0.662 -0.5811 -1.0985 -1.3792
  551SOL     OW 1651   1.136   0.358   1.236 -0.5019  0.0048  0.5341
  551SOL    HW1 1652   1.070   0.308   1.183  2.5531  0.9528  1.9727
  551SOL    HW2 1653   1.217   0.306   1.263  1.4892  2.1763  0.1331
  552SOL     OW 1654   1.846   2.169   2.107 -0.4293 -0.6620  0.5082
  552SOL    HW1 1655   1.768   2.233   2.116  1.6093 -0.6117  2.6412
  552SOL    HW2 1656   1.884   2.130   2.193  2.6853 -1.6747  1.9866
  553SOL     OW 1657   0.641   3.037   0.239 -0.0746  0.0268 -0.0214
  553SOL    HW1 1658   0.637   3.056   0.340 -0.6706 -2.6432  1.2959
  553SOL    HW2 1659   0.554   2.989   0.204 -3.2814 -1.8771 -1.8312
  554SOL     OW 1660   1.735   2.711   2.036 -0.5805 -0.4700  0.1435
  554SOL    HW1 1661   1.745   2.646   1.957 -2.2359 -1.2889 -1.3090
  554SOL    HW2 1662   1.824   2.750   2.066 -0.8830 -0.6980 -0.2748
  555SOL     OW 1663   2.222   2.475   2.039  0.5407 -0.1701  0.6213
  555SOL    HW1 1664   2.300   2.414   2.074 -0.1947 -0.1205  0.9649
  555SOL    HW2 1665   2.198   2.551   2.105 -3.8241  0.1661 -0.1162
  556SOL     OW 1666   0.909   3.030   0.496  0.8492  0.4481 -0.2325
  556SOL    HW1 1667   0.985   2.993   0.546  2.1424  1.2388 -0.7117
  556SOL    HW2 1668   0.928   3.033   0.397 -0.1829  2.1525  0.4780
  557SOL     OW 1669   0.650   2.195   2.012 -0.1675  0.8764  0.1167
  557SOL    HW1 1670   0.639   2.232   2.104  1.7255  0.1527 -2.9720
  557SOL    HW2 1671   0.613   2.102   2.009 -0.8391 -1.6733  0.2799
  558SOL     OW 1672   2.750   1.013   2.402 -0.5344  0.0662  0.0241
  558SOL    HW1 1673   2.807   0.929   2.418 -0.5588  1.6628  0.4949
  558SOL    HW2 1674   2.811   1.092   2.431  0.0659 -0.7284 -3.0630
  559SOL     OW 1675   2.669   1.971   2.179  0.1379 -0.2933 -0.5886
  559SOL    HW1 1676   2.627   1.991   2.091  0.6719 -1.1743  4.2706
  559SOL    HW2 1677   2.758   2.021   2.191 -1.2507 -0.8514  1.2380
  560SOL     OW 1678   0.573   0.549   2.263  0.1268  0.4150  0.7199
  560SOL    HW1 1679   0.619   0.459   2.270 -0.1219 -1.3054  2.1027
  560SOL    HW2 1680   0.607   0.612   2.196 -1.4667 -3.7987  5.4025
  561SOL     OW 1681   1.036   0.289   0.161  0.1704  0.7138 -0.4641
  561SOL    HW1 1682   1.120   0.233   0.186 -0.4233 -0.1077 -2.3100
  561SOL    HW2 1683   1.010   0.260   0.067  1.1695  1.2815  1.2724
  562SOL     OW 1684   0.882   1.636   1.583 -0.5909 -0.6438 -0.2313
  562SOL    HW1 1685   0.821   1.656   1.505  0.2790 -0.4395 -1.7848
  562SOL    HW2 1686   0.862   1.697   1.663 -0.0554  0.5316 -0.9719
  563SOL     OW 1687   1.787   2.558   0.217  0.2906  0.1386  0.1864
  563SOL    HW1 1688   1.848   2.592   0.145 -0.9151 -1.5859 -0.8399
  563SOL    HW2 1689   1.703   2.621   0.212 -2.5690 -0.1399 -1.1186
  564SOL     OW 1690   2.827   2.087   0.103 -0.4681  0.0660  0.2765
  564SOL    HW1 1691   2.781   2.158   0.043 -0.9712  2.3120 -0.9168
  564SOL    HW2 1692   2.752   2.025   0.136  1.8912  1.0380 -1.1233
  565SOL     OW 1693   0.538   2.806   2.197  0.1700 -0.3289 -0.7913
  565SOL    HW1 1694   0.566   2.888   2.257  0.7841  2.8590  0.5789
  565SOL    HW2 1695   0.462   2.747   2.230 -0.0371  3.3084  1.2212
  566SOL     OW 1696   1.521   2.522   2.716  0.7955  0.4445 -0.0651
  566SOL    HW1 1697   1.592   2.497   2.785  0.1557  0.5786  0.7991
  566SOL    HW2 1698   1.527   2.449   2.646 -0.3543 -0.6395  1.3119
  567SOL     OW 1699   1.974   2.135   1.518 -0.0092 -0.1139 -0.1812
  567SOL    HW1 1700   1.970   2.232   1.489 -0.2634 -1.7363 -3.3794
  567SOL    HW2 1701   1.889   2.095   1.564 -1.6040 -1.1603  2.3202
  568SOL     OW 1702   2.013   0.773   2.894  0.0813  0.6261  0.4944
  568SOL    HW1 1703   2.006   0.758   2.997  0.3997 -1.3740 -0.6245
  568SOL    HW2 1704   2.101   0.739   2.860  1.1257  0.1781  2.4752
  569SOL     OW 1705   2.765   1.457   2.111  0.3645 -0.3441  0.2542
  569SOL    HW1 1706   2.832   1.510   2.171 -0.5615  1.7648  1.1407
  569SOL    HW2 1707   2.704   1.412   2.177 -1.4325 -0.7323 -0.3724
  570SOL     OW 1708   2.508   2.672   1.687 -0.5472 -0.4451  0.3026
  570SOL    HW1 1709   2.474   2.576   1.667 -1.0649 -0.3614 -0.9706
  570SOL    HW2 1710   2.566   2.681   1.771  0.2368  0.7346 -1.1791
  571SOL     OW 1711   0.297   0.169   1.537  0.5561  0.4660  0.0261
  571SOL    HW1 1712   0.380   0.176   1.483 -2.6762 -1.1365 -0.3449
  571SOL    HW2 1713   0.288   0.242   1.606 -1.0629  0.2037 -1.7144
  572SOL     OW 1714   0.045   2.036   0.683  0.1470  0.0968  0.0525
  572SOL    HW1 1715   3.072   2.062   0.757  0.5803 -0.6599 -1.8681
  572SOL    HW2 1716   0.066   1.934   0.684  1.1391 -2.5990 -0.5121
  573SOL     OW 1717   0.996   0.740   0.007 -0.3978 -0.4501 -0.5387
  573SOL    HW1 1718   0.934   0.813   0.046  1.6779 -1.2068 -1.3185
  573SOL    HW2 1719   1.031   0.673   0.082 -1.2007 -0.9478 -0.2872
  574SOL     OW 1720   3.033   0.043   0.199 -0.5173  0.2717 -0.3846
  574SOL    HW1 1721   3.027   0.134   0.153 -2.1597 -0.0491 -1.0034
  574SOL    HW2 1722   2.987   3.056   0.144  0.4157 -2.2184 -0.9176
  575SOL     OW 1723   1.048   2.363   1.231  0.5474 -0.1867  0.3010
  575SOL    HW1 1724   1.125   2.294   1.226  3.9439  2.7285  0.0956
  575SOL    HW2 1725   1.090   2.452   1.223 -3.3536 -1.0257 -1.9479
  576SOL     OW 1726   2.976   2.911   1.168 -0.2475 -0.1855  0.5334
  576SOL    HW1 1727   2.916   2.872   1.244 -0.6371 -0.4382  2.1561
  576SOL    HW2 1728   3.069   2.882   1.190  2.1235 -1.8254  2.5508
  577SOL     OW 1729   2.433   1.598   1.341 -0.5930 -0.0436 -0.1649
  577SOL    HW1 1730   2.432   1.617   1.441  1.2987 -1.6875 -0.0253
  577SOL    HW2 1731   2.336   1.602   1.301 -1.2014  0.3621  0.3083
  578SOL     OW 1732   1.150   2.976   2.788  0.3390  0.2522 -0.2241
  578SOL    HW1 1733   1.083   2.986   2.710 -2.7127 -1.1614 -2.3482
  578SOL    HW2 1734   1.157   3.062   2.843 -0.0798 -1.7077  2.8030
  579SOL     OW 1735   2.553   1.726   2.150  0.5858  0.5614  0.4609
  579SOL    HW1 1736   2.608   1.694   2.072  0.8198 -0.9988  1.1059
  579SOL    HW2 1737   2.597   1.811   2.173 -0.1091 -2.9995 -2.3581
  580SOL     OW 1738   1.704   0.393   1.633  0.3568 -0.3933 -0.1479
  580SOL    HW1 1739   1.632   0.368   1.700  1.1753 -1.7617  0.2962
  580SOL    HW2 1740   1.693   0.490   1.612  3.8810 -3.0967  0.3284
  581SOL     OW 1741   1.174   1.410   1.752  0.0788  0.0711  0.3553
  581SOL    HW1 1742   1.099   1.394   1.821 -0.0776  2.4257  0.0124
  581SOL    HW2 1743   1.211   1.503   1.771 -0.0941  1.0376 -0.1694
  582SOL     OW 1744   2.974   2.843   2.023  0.4415  0.0950  0.8920
  582SOL    HW1 1745   2.986   2.893   2.110 -0.8175  0.2381 -1.3384
  582SOL    HW2 1746   3.063   2.824   1.978  0.3996 -2.4861  2.1932
  583SOL     OW 1747   1.446   1.291   1.204 -0.2148  0.0941 -0.1879
  583SOL    HW1 1748   1.489   1.285   1.297 -0.8095 -2.4250  0.9396
  583SOL    HW2 1749   1.350   1.327   1.218 -0.3937 -1.9406 -2.8406
  584SOL     OW 1750   1.603   1.856   2.895 -0.0472  0.1083 -0.2142
  584SOL    HW1 1751   1.704   1.850   2.878 -0.8840  2.0643  1.8591
  584SOL    HW2 1752   1.557   1.801   2.826  2.5938  1.3758  1.3612
  585SOL     OW 1753   0.242   2.490   0.365  0.7056 -0.7241  0.4070
  585SOL    HW1 1754   0.294   2.414   0.407 -0.4628 -1.4834  0.2517
  585SOL    HW2 1755   0.239   2.474   0.266  1.1787 -0.9203 -0.1192
  586SOL     OW 1756   2.001   2.343   2.935  0.6810  0.4397 -0.1474
  586SOL    HW1 1757   2.047   2.315   3.018 -0.7492  2.3377 -3.2891
  586SOL    HW2 1758   2.055   2.319   2.848  1.0339 -2.6398 -2.4763
  587SOL     OW 1759   2.545   2.063   0.455 -0.6054 -0.0146  0.0811
  587SOL    HW1 1760   2.518   2.161   0.445 -2.6782 -0.9698 -1.7031
  587SOL    HW2 1761   2.583   2.021   0.369 -1.1930  0.0062  0.6941
  588SOL     OW 1762   2.226   0.324   1.032 -0.4373 -0.5662  0.1966
  588SOL    HW1 1763   2.279   0.339   0.944  0.2284 -1.0276 -2.3092
  588SOL    HW2 1764   2.253   0.396   1.102 -1.2679  1.4524  1.6096
  589SOL     OW 1765   0.860   0.806   0.632 -0.3969  0.1729 -0.0832
  589SOL    HW1 1766   0.847   0.721   0.687  1.3324  0.9690 -2.6749
  589SOL    HW2 1767   0.952   0.803   0.590 -2.0053  0.4888  4.6552
  590SOL     OW 1768   2.688   2.389   0.083 -0.0299 -0.1272 -0.3564
  590SOL    HW1 1769   2.601   2.344   0.091  2.6959 -0.2715 -0.0459
  590SOL    HW2 1770   2.711   2.451   0.167  0.4305  0.5753  0.2820
  591SOL     OW 1771   0.139   2.718   1.920 -0.1917 -0.8380  0.0624
  591SOL    HW1 1772   0.215   2.660   1.889  0.6293 -1.0815  0.9211
  591SOL    HW2 1773   0.173   2.776   1.996  0.4420 -0.0826 -0.1135
  592SOL     OW 1774   0.665   1.303   1.256 -0.1478 -0.4174 -0.1380
  592SOL    HW1 1775   0.680   1.342   1.349 -2.3023  1.2723 -2.0971
  592SOL    HW2 1776   0.703   1.211   1.251  1.0613 -0.4887  1.6222
  593SOL     OW 1777   1.049   1.821   1.351  0.3982 -0.2420 -0.1980
  593SOL    HW1 1778   1.099   1.764   1.284 -1.5112  2.3395 -0.6606
  593SOL    HW2 1779   1.042   1.918   1.320  2.8723  1.2511  3.5959
  594SOL     OW 1780   0.366   1.867   2.868  0.5129  0.2933  0.4130
  594SOL    HW1 1781   0.447   1.920   2.901  1.1094 -0.4381 -0.8687
  594SOL    HW2 1782   0.359   1.776   2.909  0.6179 -1.4069 -2.6843
  595SOL     OW 1783   1.451   0.679   0.981 -0.6934  0.4682  0.3864
  595SOL    HW1 1784   1.448   0.689   0.882  1.2952  1.1824  2.5497
  595SOL    HW2 1785   1.365   0.638   1.009 -0.4699  0.2358 -1.1918
  596SOL     OW 1786   0.304   1.517   0.341 -0.1081  0.4849  0.2221
  596SOL    HW1 1787   0.255   1.595   0.301 -1.0306 -2.1724  0.4904
  596SOL    HW2 1788   0.234   1.452   0.383 -3.5395 -0.3415  1.9949
  597SOL     OW 1789   3.068   2.217   2.824 -0.1739  0.2903  0.7151
  597SOL    HW1 1790   3.078   2.292   2.758  3.0070  0.0727 -2.2444
  597SOL    HW2 1791   2.985   2.162   2.803 -1.2547 -0.4842  0.6275
  598SOL     OW 1792   1.948   1.870   2.162  0.7092  0.1847  0.3353
  598SOL    HW1 1793   1.957   1.906   2.063  0.3623 -1.5785 -2.4720
  598SOL    HW2 1794   2.039   1.833   2.189  0.7358  0.6347 -0.0359
  599SOL     OW 1795   1.402   0.316   0.422  0.0364  0.2368  0.5962
  599SOL    HW1 1796   1.437   0.269   0.504 -1.4688  1.7893 -0.2007
  599SOL    HW2 1797   1.446   0.408   0.400 -0.7400  0.2917 -1.3719
  600SOL     OW 1798   0.868   2.771   0.250  0.4230 -0.5700 -0.1662
  600SOL    HW1 1799   0.934   2.854   0.253 -0.8764  0.6015 -0.4400
  600SOL    HW2 1800   0.769   2.801   0.254 -1.3207  3.8451 -0.2720
  601SOL     OW 1801   0.547   0.939   1.247 -0.0742  0.3722 -0.3866
  601SOL    HW1 1802   0.510   0.885   1.326 -2.1804  1.0949  1.2792
  601SOL    HW2 1803   0.635   0.994   1.264  1.6244 -2.0400 -1.0497
  602SOL     OW 1804   0.204   2.841   1.056  0.2151  0.4252  0.0844
  602SOL    HW1 1805   0.272   2.858   1.129  1.1688 -2.1369 -0.1157
  602SOL    HW2 1806   0.185   2.927   1.005  0.2527  1.5521  1.6295
  603SOL     OW 1807   1.259   2.711   2.406 -0.5177 -0.5774 -0.3198
  603SOL    HW1 1808   1.255   2.755   2.315  1.8091  2.1692 -1.2025
  603SOL    HW2 1809   1.309   2.772   2.468 -0.3883 -2.3412 -3.4235
  604SOL     OW 1810   0.812   2.668   2.786 -0.1816 -0.1951 -0.2132
  604SOL    HW1 1811   0.813   2.583   2.839  2.9857  2.1536 -3.2933
  604SOL    HW2 1812   0.788   2.639   2.694  2.9398  0.7246  0.8455
  605SOL     OW 1813   0.825   0.754   1.791 -0.4097 -0.5026 -0.4327
  605SOL    HW1 1814   0.888   0.684   1.759  0.4779  1.6105 -0.1964
  605SOL    HW2 1815   0.884   0.829   1.827 -1.5598 -2.9496 -2.2372
  606SOL     OW 1816   1.974   0.460   2.577 -0.4011 -0.1216 -0.4471
  606SOL    HW1 1817   2.009   0.395   2.649  1.8433  0.5339  1.2417
  606SOL    HW2 1818   1.923   0.540   2.619 -0.6692  0.8881  2.7572
  607SOL     OW 1819   0.462   1.268   1.075 -0.5596  0.2465  0.3157
  607SOL    HW1 1820   0.525   1.283   1.155 -2.5082 -0.3304  0.3046
  607SOL    HW2 1821   0.422   1.174   1.084 -0.5330 -0.6456  1.5461
  608SOL     OW 1822   0.102   2.609   2.334 -0.3227 -0.5569 -0.1258
  608SOL    HW1 1823   0.121   2.712   2.354  0.7930 -0.1090  0.8462
  608SOL    HW2 1824   0.022   2.573   2.386  0.7441 -2.2789 -0.9856
  609SOL     OW 1825   1.336   0.761   0.263 -0.2569  0.7562 -0.2760
  609SOL    HW1 1826   1.408   0.700   0.298 -2.4193  1.3083  1.1163
  609SOL    HW2 1827   1.257   0.713   0.219 -2.9868  0.6503  0.8517
  610SOL     OW 1828   0.620   2.637   1.379 -0.0673  0.4149 -0.1491
  610SOL    HW1 1829   0.721   2.658   1.365 -0.4279  0.0229 -1.6924
  610SOL    HW2 1830   0.565   2.715   1.397 -1.5430 -2.0632 -0.0520
  611SOL     OW 1831   1.383   0.883   0.505  0.7956  0.5409  0.5353
  611SOL    HW1 1832   1.457   0.951   0.517  1.5678  1.1816  1.6213
  611SOL    HW2 1833   1.369   0.848   0.407 -0.1274  0.1354 -1.9783
  612SOL     OW 1834   1.486   0.777   2.879 -0.3027 -0.3924  0.0666
  612SOL    HW1 1835   1.403   0.791   2.826  3.4379  1.0353  4.3810
  612SOL    HW2 1836   1.515   0.867   2.922 -0.8171 -0.5287  1.0428
  613SOL     OW 1837   2.264   1.055   0.733  0.3642 -0.2867 -0.2795
  613SOL    HW1 1838   2.165   1.066   0.707  0.1183 -0.1526 -0.6569
  613SOL    HW2 1839   2.260   1.056   0.836 -0.6875 -0.6234 -3.2103
  614SOL     OW 1840   2.360   0.077   1.882 -0.1410 -0.1944 -0.8475
  614SOL    HW1 1841   2.369   0.104   1.982 -2.5937 -0.0015 -0.7961
  614SOL    HW2 1842   2.418   0.140   1.828 -0.3215 -3.0115 -0.3868
  615SOL     OW 1843   0.729   2.158   0.971  0.3917  0.0111  0.2802
  615SOL    HW1 1844   0.763   2.075   1.018  0.9860 -1.2991 -1.5879
  615SOL    HW2 1845   0.755   2.244   1.020 -1.8040 -2.2433  3.8172
  616SOL     OW 1846   1.558   1.001   2.420  0.2937  0.4257  0.0705
  616SOL    HW1 1847   1.563   1.080   2.480 -2.8083 -0.6717  0.9259
  616SOL    HW2 1848   1.524   1.024   2.328 -1.8815  0.5349 -0.7193
  617SOL     OW 1849   1.556   2.716   0.299  0.2612 -0.2201 -0.6235
  617SOL    HW1 1850   1.594   2.805   0.271  0.6211 -0.9856 -0.9973
  617SOL    HW2 1851   1.463   2.694   0.255 -1.1832 -1.5552 -0.5285
  618SOL     OW 1852   1.268   1.308   2.551  0.3877  0.3146 -0.4790
  618SOL    HW1 1853   1.359   1.283   2.514 -1.2563 -0.2039 -0.3719
  618SOL    HW2 1854   1.260   1.280   2.651 -0.5713  1.0059  1.7851
  619SOL     OW 1855   2.625   1.454   0.715  0.4162  0.0434  0.0805
  619SOL    HW1 1856   2.531   1.431   0.686  2.7575  2.4438  1.5632
  619SOL    HW2 1857   2.661   1.373   0.768 -0.8559  0.9736  0.2639
  620SOL     OW 1858   2.214   2.533   2.753  0.6060  0.3192  0.1918
  620SOL    HW1 1859   2.309   2.544   2.734 -2.3757 -0.4746  1.3363
  620SOL    HW2 1860   2.175   2.625   2.775  0.7571  4.8122  0.4068
  621SOL     OW 1861   2.651   1.160   0.501  0.0888 -0.4363  0.3712
  621SOL    HW1 1862   2.587   1.235   0.538 -0.1184 -0.4191  1.2726
  621SOL    HW2 1863   2.594   1.079   0.477  0.8841  0.4295 -1.2782
  622SOL     OW 1864   1.411   2.381   2.474  0.6207  0.2383 -0.4262
  622SOL    HW1 1865   1.470   2.416   2.397  1.1839  0.5823 -1.4387
  622SOL    HW2 1866   1.312   2.409   2.454 -3.0149  2.7591 -1.5943
  623SOL     OW 1867   0.227   2.169   0.053 -0.3470  0.3646  0.0187
  623SOL    HW1 1868   0.301   2.108   0.091  0.6798 -0.7697 -1.2343
  623SOL    HW2 1869   0.135   2.119   0.039  0.1299  0.4125  0.5445
  624SOL     OW 1870   0.217   0.066   3.075  0.0878  0.0198 -0.2995
  624SOL    HW1 1871   0.281   0.099   3.008 -0.7585  1.8747  1.9762
  624SOL    HW2 1872   0.222   3.056   3.083 -1.1509  1.7726  1.1062
  625SOL     OW 1873   0.784   2.188   0.004 -0.6279 -0.2211  0.4616
  625SOL    HW1 1874   0.782   2.288   3.064  1.0476 -0.1664  2.4277
  625SOL    HW2 1875   0.701   2.143   3.060 -1.2560  2.4959  2.7609
  626SOL     OW 1876   3.051   0.654   0.452  0.0083  0.6242  0.0492
  626SOL    HW1 1877   2.982   0.573   0.454  1.2186  0.2175 -0.5483
  626SOL    HW2 1878   0.058   0.624   0.448 -1.3442 -3.0948 -2.4529
  627SOL     OW 1879   1.802   1.473   2.936 -0.4706  0.3701  0.5324
  627SOL    HW1 1880   1.717   1.460   2.986 -1.1469 -0.7833 -0.3465
  627SOL    HW2 1881   1.845   1.566   2.943 -1.6212 -3.4668 -0.3162
  628SOL     OW 1882   1.318   1.208   2.802  0.2916 -0.0560  0.1305
  628SOL    HW1 1883   1.308   1.288   2.862  3.3613 -0.9012 -0.9762
  628SOL    HW2 1884   1.382   1.140   2.843 -0.5961 -1.8492  0.5766
  629SOL     OW 1885   0.175   0.014   1.739  0.3185 -0.4094 -0.2347
  629SOL    HW1 1886   0.256   3.057   1.778 -0.8238  1.0150 -2.4885
  629SOL    HW2 1887   0.207   0.060   1.653  1.7791  0.1677  4.5225
  630SOL     OW 1888   2.271   0.721   1.978 -0.1662 -0.0885  0.0985
  630SOL    HW1 1889   2.257   0.732   1.879  0.5069 -0.3171  2.9534
  630SOL    HW2 1890   2.191   0.673   2.022 -0.5801  0.0349  1.3760
  631SOL     OW 1891   1.779   0.340   0.748  0.5647  0.4170 -0.1035
  631SOL    HW1 1892   1.863   0.312   0.804  3.2189 -0.7568 -0.6067
  631SOL    HW2 1893   1.768   0.279   0.664  1.1949 -0.7283  0.4206
  632SOL     OW 1894   0.053   0.589   1.484  0.3464 -0.0717  0.3696
  632SOL    HW1 1895   3.055   0.535   1.484  0.9826  0.7888  0.2206
  632SOL    HW2 1896   0.087   0.600   1.582 -2.4050 -2.9886  1.6878
  633SOL     OW 1897   0.988   0.199   2.989 -0.2126  0.1320  0.4553
  633SOL    HW1 1898   0.933   0.237   2.913  1.1390  0.3748  0.9110
  633SOL    HW2 1899   0.941   0.123   3.035  2.4322  0.1708 -0.9392
  634SOL     OW 1900   0.820   2.432   2.955  0.5063  0.0466 -0.0861
  634SOL    HW1 1901   0.852   2.474   3.041 -0.8124 -2.2055  0.7478
  634SOL    HW2 1902   0.885   2.396   2.887 -2.7036 -1.1979  0.4271
  635SOL     OW 1903   0.198   0.527   0.516 -0.3212 -0.4586  0.2361
  635SOL    HW1 1904   0.159   0.445   0.476  0.0286  3.8083  1.3298
  635SOL    HW2 1905   0.284   0.544   0.465 -5.3239 -3.5324 -0.5908
  636SOL     OW 1906   0.663   1.228   0.184  0.2328  0.9380  0.0139
  636SOL    HW1 1907   0.667   1.190   0.088 -0.6071  1.7843  0.0867
  636SOL    HW2 1908   0.746   1.283   0.214  1.7602  3.0178 -1.1668
  637SOL     OW 1909   0.330   2.769   0.444 -0.0375  0.2617 -0.0712
  637SOL    HW1 1910   0.257   2.699   0.423 -2.8692  4.0273 -1.2139
  637SOL    HW2 1911   0.300   2.862   0.413  0.2055 -1.1050 -1.4087
  638SOL     OW 1912   0.004   2.452   0.494 -0.4440  0.1861 -0.3522
  638SOL    HW1 1913   3.059   2.384   0.426  2.2132  1.1465  0.4520
  638SOL    HW2 1914   0.107   2.472   0.480  2.2706 -1.1554  0.1446
  639SOL     OW 1915   1.693   0.944   0.200  0.1486  0.0282  0.1709
  639SOL    HW1 1916   1.593   0.947   0.180 -2.4783 -1.6164  0.9853
  639SOL    HW2 1917   1.737   1.024   0.161  0.5215 -1.3547  1.3885
  640SOL     OW 1918   1.627   2.328   1.638  0.0432  0.0240 -0.9991
  640SOL    HW1 1919   1.576   2.397   1.581 -2.1975 -0.6216  2.0765
  640SOL    HW2 1920   1.729   2.341   1.639  0.3282 -0.0544 -2.7254
  641SOL     OW 1921   2.899   2.541   0.958  0.7510 -0.3653 -0.1291
  641SOL    HW1 1922   2.805   2.505   0.949  2.6903  0.3841 -0.1140
  641SOL    HW2 1923   2.952   2.501   0.885 -1.6484  0.2079  2.8274
  642SOL     OW 1924   0.902   0.070   1.816  0.4812 -0.1007 -0.0185
  642SOL    HW1 1925   0.817   0.038   1.865  0.1844  0.6107  2.6393
  642SOL    HW2 1926   0.911   0.168   1.804  2.8253 -1.5649 -2.6178
  643SOL     OW 1927   1.017   2.336   2.733  0.2094  0.3309  0.3363
  643SOL    HW1 1928   1.100   2.396   2.725  2.6184  1.1796 -0.4307
  643SOL    HW2 1929   1.047   2.238   2.752 -1.3004 -2.1760  0.8622
  644SOL     OW 1930   1.256   2.594   0.940  0.0148  0.2734  0.5026
  644SOL    HW1 1931   1.304   2.509   0.913 -3.4869  2.6226  1.1601
  644SOL    HW2 1932   1.185   2.607   0.869 -0.7465  1.0350  0.9054
  645SOL     OW 1933   1.486   1.327   1.866 -0.3303 -0.0737 -0.0150
  645SOL    HW1 1934   1.479   1.271   1.779 -1.0626  1.6244  1.8834
  645SOL    HW2 1935   1.397   1.320   1.917  1.2370 -2.6749 -0.5662
  646SOL     OW 1936   0.012   0.699   0.143  0.5837  0.2551 -0.1354
  646SOL    HW1 1937   0.096   0.654   0.183  1.0864  1.1931 -1.3992
  646SOL    HW2 1938   3.044   0.742   0.219  0.8927  1.8884  2.4071
  647SOL     OW 1939   1.141   0.432   0.511 -0.1993  0.1483 -0.3599
  647SOL    HW1 1940   1.232   0.395   0.486 -0.2922 -0.0267  3.4469
  647SOL    HW2 1941   1.159   0.513   0.573  0.6290  1.1427  1.7710
  648SOL     OW 1942   2.146   2.599   1.005  0.1049  0.0501  0.6165
  648SOL    HW1 1943   2.081   2.535   1.056 -5.1218 -1.2379  0.6082
  648SOL    HW2 1944   2.165   2.681   1.060 -0.5664 -1.2867 -0.4447
  649SOL     OW 1945   0.572   2.063   2.971 -0.0814  0.0127 -0.1540
  649SOL    HW1 1946   0.567   2.151   2.918 -0.0224 -3.4827  2.0640
  649SOL    HW2 1947   0.514   2.073   3.053  0.2390 -1.7758 -1.5909
  650SOL     OW 1948   2.304   1.893   1.993  0.3862 -0.3023  0.4017
  650SOL    HW1 1949   2.221   1.939   1.952 -1.8587  0.2453  1.4017
  650SOL    HW2 1950   2.347   1.816   1.941 -0.9440 -1.3958  1.0061
  651SOL     OW 1951   2.996   2.887   2.641 -0.3082 -0.7598  0.2425
  651SOL    HW1 1952   2.937   2.817   2.680 -0.5761  3.7008 -2.2705
  651SOL    HW2 1953   2.939   2.966   2.607  2.1642  0.2578  2.5182
  652SOL     OW 1954   2.721   1.705   0.427  0.4057  0.5469  0.1993
  652SOL    HW1 1955   2.722   1.691   0.530 -0.5083  0.2938 -0.7896
  652SOL    HW2 1956   2.805   1.672   0.379 -2.1865  1.7349 -0.5571
  653SOL     OW 1957   0.166   0.401   0.985 -0.7235 -0.2768 -0.0672
  653SOL    HW1 1958   0.220   0.412   0.895  2.7996  0.2989 -3.4224
  653SOL    HW2 1959   0.214   0.335   1.045  0.8002  1.2181 -0.7943
  654SOL     OW 1960   0.996   2.999   0.219  0.0394 -0.0029 -0.0185
  654SOL    HW1 1961   1.082   3.055   0.215 -0.8144  1.1290  3.3042
  654SOL    HW2 1962   0.936   3.018   0.137 -2.8177 -0.9664 -2.6146
  655SOL     OW 1963   0.397   2.813   1.389  0.5619  0.4739 -0.1984
  655SOL    HW1 1964   0.367   2.797   1.485 -1.8485 -1.1900 -1.7872
  655SOL    HW2 1965   0.361   2.905   1.364 -0.2851 -0.9171 -1.8301
  656SOL     OW 1966   3.052   2.948   2.268 -0.3658 -0.7469  0.3548
  656SOL    HW1 1967   0.037   2.925   2.335 -1.8130  1.2748  1.0649
  656SOL    HW2 1968   3.066   3.046   2.226 -0.7787  0.9427 -0.8709
  657SOL     OW 1969   1.787   0.768   2.375  0.1574  0.1318  0.4201
  657SOL    HW1 1970   1.735   0.766   2.462  0.8571  1.2029  1.4673
  657SOL    HW2 1971   1.878   0.732   2.390 -2.0620 -0.8137  0.1175
  658SOL     OW 1972   1.930   1.591   1.371  0.4858 -0.1310 -0.2156
  658SOL    HW1 1973   1.935   1.497   1.414  0.4094 -0.1719 -0.0992
  658SOL    HW2 1974   1.907   1.661   1.442  0.2307  3.7362 -1.0348
  659SOL     OW 1975   2.498   2.602   2.736  0.3456  0.7360 -0.2243
  659SOL    HW1 1976   2.522   2.539   2.655 -1.0358  0.0727 -1.2685
  659SOL    HW2 1977   2.517   2.546   2.820  1.6969 -0.6494  0.4559
  660SOL     OW 1978   1.131   0.756   0.511  0.4411  0.6065 -0.3807
  660SOL    HW1 1979   1.122   0.707   0.602  0.3224  0.6274 -0.0853
  660SOL    HW2 1980   1.217   0.804   0.509 -2.5026  0.8476 -2.0872
  661SOL     OW 1981   2.557   2.886   0.399  0.0943 -0.3554  0.3662
  661SOL    HW1 1982   2.620   2.900   0.481  2.7335  0.8298 -0.4028
  661SOL    HW2 1983   2.585   2.949   0.322 -1.8015 -1.8942 -1.3585
  662SOL     OW 1984   0.785   0.509   1.151 -0.0130 -0.3665  0.0010
  662SOL    HW1 1985   0.688   0.483   1.152  0.1885 -1.2647  0.5843
  662SOL    HW2 1986   0.821   0.507   1.059 -2.9518 -0.9132  0.7950
  663SOL     OW 1987   1.274   2.853   2.164 -0.1418  0.3262 -0.3092
  663SOL    HW1 1988   1.171   2.858   2.143  0.0735  0.5564 -1.7966
  663SOL    HW2 1989   1.326   2.815   2.086 -1.0096 -1.9149 -0.4587
  664SOL     OW 1990   0.697   2.221   1.493  0.0420 -0.1160  0.1698
  664SOL    HW1 1991   0.789   2.267   1.486  2.5726 -3.0923 -0.0457
  664SOL    HW2 1992   0.710   2.145   1.429  2.0065  0.5040  3.7323
  665SOL     OW 1993   0.996   2.111   1.712 -0.1064 -0.1852  0.3299
  665SOL    HW1 1994   0.901   2.108   1.745 -0.7069  0.7694  1.4227
  665SOL    HW2 1995   1.029   2.020   1.678 -0.1356  0.2352 -0.7264
  666SOL     OW 1996   0.199   2.842   3.012  0.2068 -0.4455  0.2696
  666SOL    HW1 1997   0.177   2.892   2.926 -0.1908  1.3323 -0.1011
  666SOL    HW2 1998   0.218   2.743   2.993  0.7713  0.9426 -0.6857
  667SOL     OW 1999   1.549   1.828   1.299 -0.2593  0.2509 -0.0861
  667SOL    HW1 2000   1.522   1.769   1.375  0.1402  0.5370 -0.0023
  667SOL    HW2 2001   1.569   1.920   1.340  1.6161  1.7024 -0.6404
  668SOL     OW 2002   1.330   0.367   2.229  0.2993 -0.3720 -0.0507
  668SOL    HW1 2003   1.388   0.424   2.294  0.4516  2.2517 -0.7071
  668SOL    HW2 2004   1.271   0.302   2.279  0.6967 -0.1102 -0.3911
  669SOL     OW 2005   2.359   2.186   1.767  0.1697  0.4121 -0.4280
  669SOL    HW1 2006   2.281   2.121   1.739 -1.2212  0.2554  2.7357
  669SOL    HW2 2007   2.410   2.152   1.850 -1.3823  0.3248  0.7141
  670SOL     OW 2008   1.974   2.006   0.116  0.7078 -0.1869  0.0445
  670SOL    HW1 2009   1.907   1.977   0.187 -2.2681 -1.5739  0.6430
  670SOL    HW2 2010   1.910   2.017   0.037 -1.1262 -1.3549 -0.0265
  671SOL     OW 2011   1.147   0.878   1.043  0.4431  0.3609  0.1600
  671SOL    HW1 2012   1.187   0.921   1.129 -1.9978 -0.6887 -1.2875
  671SOL    HW2 2013   1.214   0.874   0.967 -2.9128 -2.0713  1.0532
  672SOL     OW 2014   2.503   1.119   2.276  0.2825  0.0223  0.2909
  672SOL    HW1 2015   2.447   1.060   2.217 -0.2103  1.8643  0.0289
  672SOL    HW2 2016   2.568   1.060   2.323 -3.6473  0.8655 -3.1528
  673SOL     OW 2017   0.036   1.616   1.994 -0.5004  0.9644  0.0950
  673SOL    HW1 2018   3.078   1.528   2.013 -2.1773 -0.2173  1.1623
  673SOL    HW2 2019   3.069   1.679   1.940 -0.0074 -5.0155 -0.9775
  674SOL     OW 2020   1.146   2.459   2.404  0.4405 -0.2811  0.0827
  674SOL    HW1 2021   1.199   2.545   2.414 -2.3230 -0.2858 -0.2643
  674SOL    HW2 2022   1.058   2.470   2.451 -0.0272  1.7761 -0.9589
  675SOL     OW 2023   0.868   1.380   1.654  0.3875 -0.2718 -0.0806
  675SOL    HW1 2024   0.937   1.339   1.596  0.1297  0.0940  1.2175
  675SOL    HW2 2025   0.876   1.479   1.650  0.4721 -0.3518  1.9990
  676SOL     OW 2026   2.388   0.639   0.711  0.5174 -0.5465  0.1627
  676SOL    HW1 2027   2.488   0.659   0.703 -0.8018 -1.3874  3.5976
  676SOL    HW2 2028   2.372   0.542   0.736  1.2667  0.2758 -1.9049
  677SOL     OW 2029   2.493   1.476   2.632  0.2320 -0.3285  0.4559
  677SOL    HW1 2030   2.570   1.546   2.647  3.7649  2.7865 -0.2234
  677SOL    HW2 2031   2.403   1.509   2.667 -1.2072 -0.2135 -0.2334
  678SOL     OW 2032   0.208   0.094   1.104 -0.3539 -0.2142  0.0235
  678SOL    HW1 2033   0.155   0.093   1.190  0.6494  2.4165  0.6791
  678SOL    HW2 2034   0.304   0.091   1.134 -3.4008  1.1222  0.5181
  679SOL     OW 2035   2.160   0.269   0.037 -0.3922 -0.7430 -1.1442
  679SOL    HW1 2036   2.154   0.222   3.037 -1.3216  0.1977  1.1221
  679SOL    HW2 2037   2.231   0.221   0.090 -0.6895 -1.1697 -0.8035
  680SOL     OW 2038   0.081   2.427   2.122 -0.1930 -0.3076  0.0728
  680SOL    HW1 2039   0.173   2.416   2.078 -1.4412 -2.9309 -1.1919
  680SOL    HW2 2040   0.088   2.495   2.196 -0.3223  0.1484 -2.4507
  681SOL     OW 2041   2.100   1.879   1.310 -0.0077  0.8638 -0.4337
  681SOL    HW1 2042   2.029   1.928   1.251 -0.8275  3.5365 -1.8227
  681SOL    HW2 2043   2.113   1.782   1.273  2.1582 -1.7403 -1.2426
  682SOL     OW 2044   0.092   2.144   2.135  0.1826 -0.0927 -0.8832
  682SOL    HW1 2045   0.100   2.094   2.046  0.9610 -0.1380  0.2118
  682SOL    HW2 2046   0.070   2.243   2.127 -1.3448 -0.2848  1.9900
  683SOL     OW 2047   3.087   2.209   1.332 -0.3981  0.2675 -0.4199
  683SOL    HW1 2048   3.030   2.149   1.387 -2.7309  2.0997 -1.6943
  683SOL    HW2 2049   3.041   2.299   1.321  0.1331 -0.8626 -1.1797
  684SOL     OW 2050   2.186   0.889   2.377  0.4142 -0.4339  0.1864
  684SOL    HW1 2051   2.203   0.947   2.292  1.8603 -0.8768  0.7304
  684SOL    HW2 2052   2.226   0.939   2.456  1.1082 -0.7815 -0.9631
  685SOL     OW 2053   1.352   1.440   0.592  0.2508  0.4717 -0.0882
  685SOL    HW1 2054   1.387   1.351   0.549  0.1593 -0.5700 -1.5059
  685SOL    HW2 2055   1.391   1.453   0.683 -0.8548  3.0895  0.6967
  686SOL     OW 2056   0.218   3.080   0.569 -0.3287 -0.3120  0.1670
  686SOL    HW1 2057   0.282   0.070   0.577 -0.1485  2.0320  0.7387
  686SOL    HW2 2058   0.175   3.062   0.661 -0.9442  2.2170 -1.1859
  687SOL     OW 2059   1.540   1.266   2.532 -0.6008 -0.0394  0.2443
  687SOL    HW1 2060   1.583   1.330   2.467 -2.5547 -0.8471  0.7516
  687SOL    HW2 2061   1.554   1.305   2.628  1.5670  0.4118 -0.5484
  688SOL     OW 2062   1.087   1.447   1.479  0.1409 -0.7128  0.0363
  688SOL    HW1 2063   1.028   1.528   1.486 -0.3891 -3.8495 -1.4068
  688SOL    HW2 2064   1.144   1.438   1.561 -1.3447  2.4089  0.2835
  689SOL     OW 2065   2.147   0.115   1.192  0.5053 -0.2729 -0.4305
  689SOL    HW1 2066   2.159   0.202   1.139  1.8874 -0.3199  2.8509
  689SOL    HW2 2067   2.183   0.045   1.132 -1.7003  1.9634 -1.4865
  690SOL     OW 2068   0.131   1.509   1.145 -0.4793 -0.0478 -0.1072
  690SOL    HW1 2069   0.180   1.522   1.059 -1.6436 -2.5340 -2.2833
  690SOL    HW2 2070   0.107   1.412   1.165 -2.5929  1.0680 -2.3110
  691SOL     OW 2071   0.508   2.284   1.097 -0.7711  0.8582  0.7727
  691SOL    HW1 2072   0.573   2.213   1.063 -2.8009 -0.2599 -0.6691
  691SOL    HW2 2073   0.478   2.345   1.024  0.3636 -0.5950  5.4050
  692SOL     OW 2074   2.132   0.342   1.801  0.5275 -0.0533 -0.1220
  692SOL    HW1 2075   2.091   0.350   1.894 -0.8322  0.0779 -1.2994
  692SOL    HW2 2076   2.235   0.339   1.797 -1.0706  1.6266 -0.5886
  693SOL     OW 2077   0.485   1.924   2.038 -0.3361 -0.1203  0.2501
  693SOL    HW1 2078   0.523   1.832   2.048  0.4996  1.1390  1.7226
  693SOL    HW2 2079   0.437   1.951   2.124 -1.0465  1.8292 -0.7719
  694SOL     OW 2080   1.625   0.939   1.537 -0.6503  0.0360 -0.2744
  694SOL    HW1 2081   1.596   0.841   1.540  1.0810 -1.2931 -1.9504
  694SOL    HW2 2082   1.726   0.949   1.512  1.2848  0.7479  1.2154
  695SOL     OW 2083   0.739   1.215   0.680 -0.0472  0.1560  0.4656
  695SOL    HW1 2084   0.737   1.132   0.740  3.0993  1.5682  0.4712
  695SOL    HW2 2085   0.646   1.227   0.641 -0.3011  0.3281 -0.3186
  696SOL     OW 2086   1.104   2.967   0.678 -0.0863 -0.5861 -0.1710
  696SOL    HW1 2087   1.162   2.903   0.621  1.6707 -2.0192 -0.2978
  696SOL    HW2 2088   1.165   3.041   0.720  1.0688  0.7791 -2.1053
  697SOL     OW 2089   1.480   0.439   1.775 -0.7237 -0.3021  0.1425
  697SOL    HW1 2090   1.458   0.392   1.864 -0.5929 -0.3543 -1.1634
  697SOL    HW2 2091   1.472   0.539   1.784 -1.9984  0.5932 -0.0696
  698SOL     OW 2092   1.772   1.413   2.209  0.1475  0.4790  0.3695
  698SOL    HW1 2093   1.835   1.482   2.184 -0.8525  0.6332  3.5906
  698SOL    HW2 2094   1.777   1.326   2.153  1.3039 -1.5478  1.5292
  699SOL     OW 2095   2.397   0.372   1.777 -0.0138 -0.0822  0.1598
  699SOL    HW1 2096   2.453   0.434   1.834  1.3880 -1.2326 -2.1522
  699SOL    HW2 2097   2.438   0.353   1.685 -2.6762  0.1809  0.4061
  700SOL     OW 2098   0.941   2.205   0.456 -0.2292 -0.5764 -0.2197
  700SOL    HW1 2099   0.878   2.149   0.402  2.3957  0.1141 -0.9043
  700SOL    HW2 2100   0.944   2.184   0.558 -0.4726 -0.1604  0.6247
  701SOL     OW 2101   2.055   2.832   2.672 -0.5064 -0.0100 -0.6494
  701SOL    HW1 2102   2.048   2.797   2.577  0.4541  0.6020  0.7745
  701SOL    HW2 2103   1.985   2.798   2.732  3.5251 -0.5026 -2.7351
  702SOL     OW 2104   1.023   0.186   1.063 -0.3027  0.7365  0.0109
  702SOL    HW1 2105   1.104   0.133   1.070 -0.2753  0.2821  1.0555
  702SOL    HW2 2106   1.024   0.237   0.978 -0.7823  0.3482  0.7373
  703SOL     OW 2107   2.559   3.008   2.125  0.2030 -0.3541  0.2747
  703SOL    HW1 2108   2.495   3.085   2.142  0.8002  1.4419  0.0857
  703SOL    HW2 2109   2.522   2.917   2.153 -0.8705 -0.2772 -0.2058
  704SOL     OW 2110   2.954   2.229   0.343  0.1681 -0.4704  0.0088
  704SOL    HW1 2111   3.027   2.181   0.395  1.4809  1.2274  1.4166
  704SOL    HW2 2112   2.907   2.168   0.279 -0.8109  0.0614 -0.8200
  705SOL     OW 2113   2.439   2.661   2.355  0.3630  0.1264  1.4631
  705SOL    HW1 2114   2.406   2.748   2.314  2.0801 -0.7139  2.0397
  705SOL    HW2 2115   2.520   2.619   2.309 -1.0430  0.1358  0.9410
  706SOL     OW 2116   2.234   3.025   1.013 -0.1471  0.5332 -0.3844
  706SOL    HW1 2117   2.300   3.028   0.934 -2.0110  2.2114 -2.4463
  706SOL    HW2 2118   2.261   2.937   1.063 -3.1261  0.0996  1.8824
  707SOL     OW 2119   0.828   2.857   2.378 -0.1269 -0.3477  0.0006
  707SOL    HW1 2120   0.928   2.846   2.355  0.5127 -1.6828 -2.9093
  707SOL    HW2 2121   0.779   2.929   2.327  1.0721 -3.7467 -0.8796
  708SOL     OW 2122   2.963   2.207   1.670 -0.1259  0.2050 -0.3089
  708SOL    HW1 2123   3.042   2.269   1.651  1.8106  1.0314 -2.2642
  708SOL    HW2 2124   2.981   2.113   1.646 -1.5549  1.2818  1.7709
  709SOL     OW 2125   1.603   0.532   1.324 -0.7690  0.9365  0.2220
  709SOL    HW1 2126   1.652   0.593   1.260 -1.1284  0.5458 -1.5795
  709SOL    HW2 2127   1.561   0.455   1.271 -0.5714 -0.9832 -1.9898
  710SOL     OW 2128   0.654   0.062   2.762  0.1449  0.2942  0.2696
  710SOL    HW1 2129   0.704   3.068   2.793 -0.0702 -0.4786 -1.4946
  710SOL    HW2 2130   0.702   0.147   2.788 -0.1228  0.2960 -1.2134
  711SOL     OW 2131   0.729   2.042   2.597  0.2797  0.4960 -0.2573
  711SOL    HW1 2132   0.632   2.013   2.607  0.2040 -1.3744  0.0637
  711SOL    HW2 2133   0.792   1.982   2.649 -2.5737 -1.2972 -1.9002
  712SOL     OW 2134   1.034   2.080   3.036 -0.1712  0.0518  0.1819
  712SOL    HW1 2135   0.938   2.108   3.049 -2.0915  0.9496 -1.3936
  712SOL    HW2 2136   1.061   2.095   2.938  0.3539  0.9676  0.0874
  713SOL     OW 2137   1.997   0.970   2.086  0.0509 -0.5087  0.0437
  713SOL    HW1 2138   2.051   1.037   2.033 -0.8391  0.2460  1.9346
  713SOL    HW2 2139   2.045   0.882   2.093 -1.6473 -2.3764  0.4681
  714SOL     OW 2140   1.229   1.695   1.744 -0.1888  0.0566  0.1060
  714SOL    HW1 2141   1.228   1.732   1.836 -0.1213  3.6034  0.3286
  714SOL    HW2 2142   1.163   1.743   1.683  2.8185  1.1351 -0.4109
  715SOL     OW 2143   2.223   0.527   3.080  0.1936  0.2676  0.4181
  715SOL    HW1 2144   2.207   0.427   0.006 -2.5230  0.0414  0.1386
  715SOL    HW2 2145   2.198   0.574   0.078 -0.1883 -1.1850  1.1883
  716SOL     OW 2146   2.910   2.402   1.243 -0.3676 -0.1143  0.0159
  716SOL    HW1 2147   2.815   2.376   1.238 -2.5099  0.3140  1.2168
  716SOL    HW2 2148   2.944   2.439   1.154  1.1028 -2.5650  2.2589
  717SOL     OW 2149   2.693   1.249   0.858 -0.1150 -0.7726 -0.6842
  717SOL    HW1 2150   2.632   1.186   0.914 -0.9571 -0.4787 -0.4516
  717SOL    HW2 2151   2.748   1.193   0.796  0.3557  2.4665  0.0079
  718SOL     OW 2152   1.453   1.762   1.583  0.3947  0.2692  0.0282
  718SOL    HW1 2153   1.538   1.713   1.604 -2.3396 -0.5868  0.9366
  718SOL    HW2 2154   1.376   1.723   1.638 -0.3704  0.1584  0.8330
  719SOL     OW 2155   2.774   0.583   0.092 -0.4680 -0.2706  0.6704
  719SOL    HW1 2156   2.802   0.633   0.005 -0.3277 -0.7254 -2.6956
  719SOL    HW2 2157   2.861   0.534   0.119 -2.3549  0.0484  0.0184
  720SOL     OW 2158   1.105   0.264   0.785  0.6021  0.4088  0.1807
  720SOL    HW1 2159   1.153   0.351   0.761 -0.4532  2.4477 -0.3788
  720SOL    HW2 2160   1.019   0.258   0.729 -2.3397 -1.1683  2.2434
  721SOL     OW 2161   2.618   0.732   0.592  0.4246  0.2134 -0.5199
  721SOL    HW1 2162   2.621   0.709   0.491  1.2790 -1.6589  0.2153
  721SOL    HW2 2163   2.711   0.738   0.638  1.2752 -0.0614  1.8628
  722SOL     OW 2164   0.442   2.636   2.590  0.4125  0.5501  0.3179
  722SOL    HW1 2165   0.491   2.552   2.621 -0.0350 -0.4187  1.2892
  722SOL    HW2 2166   0.430   2.639   2.487 -1.3695  0.8225 -2.2764
  723SOL     OW 2167   1.988   0.253   0.924 -0.2043  0.1628 -1.2180
  723SOL    HW1 2168   2.075   0.283   0.968  0.7176 -0.1644  1.4027
  723SOL    HW2 2169   1.902   0.285   0.977 -1.3034 -0.1822  3.0333
  724SOL     OW 2170   1.079   1.704   2.259  0.6120  0.2054  0.4862
  724SOL    HW1 2171   1.019   1.785   2.261  1.3185 -2.4722 -0.1418
  724SOL    HW2 2172   1.035   1.621   2.212 -0.3808  1.3422  0.5289
  725SOL     OW 2173   1.489   2.964   1.382 -0.4124  0.1511  0.2854
  725SOL    HW1 2174   1.446   3.006   1.462  2.4359  1.0993 -1.9663
  725SOL    HW2 2175   1.428   2.895   1.339 -0.9197  4.3620 -2.3518
  726SOL     OW 2176   2.270   2.754   0.012 -0.1671 -0.7847 -0.3476
  726SOL    HW1 2177   2.329   2.781   3.021  2.7869 -0.1098  0.4545
  726SOL    HW2 2178   2.323   2.710   0.080 -1.9742  2.1886 -0.9916
  727SOL     OW 2179   1.406   1.898   0.906 -0.3215 -0.1475  0.1025
  727SOL    HW1 2180   1.386   1.888   1.004  1.7551 -1.3125 -1.1983
  727SOL    HW2 2181   1.477   1.827   0.878  0.7805  0.9661  0.1125
  728SOL     OW 2182   2.153   2.634   2.259 -0.4313 -0.1822  0.2197
  728SOL    HW1 2183   2.236   2.685   2.280  0.7978  1.0002  1.0692
  728SOL    HW2 2184   2.082   2.658   2.324 -0.0408 -0.7368 -1.7736
  729SOL     OW 2185   1.871   2.473   1.560  0.0665 -0.2174 -0.7545
  729SOL    HW1 2186   1.822   2.458   1.470 -1.3019  0.3635  2.9432
  729SOL    HW2 2187   1.942   2.543   1.551  1.0144 -0.2278 -0.2841
  730SOL     OW 2188   1.630   0.796   2.601  0.5503 -0.0800 -0.0063
  730SOL    HW1 2189   1.560   0.785   2.675 -0.5236 -1.4586 -1.5180
  730SOL    HW2 2190   1.630   0.890   2.564 -1.4369 -1.3866 -1.0132
  731SOL     OW 2191   0.760   3.087   1.412 -0.0046 -0.1653 -0.0092
  731SOL    HW1 2192   0.825   3.048   1.481  0.5915 -1.8959  2.9843
  731SOL    HW2 2193   0.783   3.063   1.316  1.6375  3.1398 -0.4233
  732SOL     OW 2194   1.285   0.051   0.780 -0.6602  0.1214  0.3582
  732SOL    HW1 2195   1.219   0.130   0.785  0.1066  1.3147  1.1024
  732SOL    HW2 2196   1.365   0.076   0.725 -0.9631 -2.2700  0.4477
  733SOL     OW 2197   1.186   1.514   0.880 -0.2268 -0.4697  1.0369
  733SOL    HW1 2198   1.278   1.485   0.905 -0.6259  0.7564  1.0268
  733SOL    HW2 2199   1.123   1.435   0.897  0.3805  0.0639 -0.8357
  734SOL     OW 2200   2.575   2.430   2.542 -0.6640 -0.1960 -0.3502
  734SOL    HW1 2201   2.652   2.366   2.541  0.6265  3.2456 -1.3368
  734SOL    HW2 2202   2.514   2.417   2.459  1.1294 -1.6762 -2.2803
  735SOL     OW 2203   0.847   3.087   1.141 -0.4880  0.2649 -0.2400
  735SOL    HW1 2204   0.863   3.004   1.088  1.5098  2.5129  1.1317
  735SOL    HW2 2205   0.900   0.077   1.103 -0.8184 -2.1243  0.3814
  736SOL     OW 2206   1.475   2.122   2.862  0.3986 -0.0855 -0.0198
  736SOL    HW1 2207   1.407   2.124   2.787  1.2080 -1.3611 -2.1180
  736SOL    HW2 2208   1.515   2.028   2.871 -1.2674 -1.8543  1.9845
  737SOL     OW 2209   0.458   2.053   1.309 -0.0558  0.1408 -0.3589
  737SOL    HW1 2210   0.409   1.964   1.284 -0.1398  0.7641  0.9664
  737SOL    HW2 2211   0.389   2.122   1.336 -0.6434 -2.2050 -1.4694
  738SOL     OW 2212   1.575   2.789   2.689 -0.0855 -0.0744 -0.3091
  738SOL    HW1 2213   1.594   2.800   2.786  1.3761 -0.1985  0.8418
  738SOL    HW2 2214   1.554   2.689   2.675 -1.0595 -2.6402  1.0078
  739SOL     OW 2215   1.030   2.207   2.212 -0.2186  0.3487 -0.6006
  739SOL    HW1 2216   1.060   2.256   2.298  0.5245 -1.7903  3.7693
  739SOL    HW2 2217   0.946   2.154   2.244 -3.7740 -0.0724 -0.6225
  740SOL     OW 2218   1.285   2.792   1.315 -0.3251 -0.0080  0.1426
  740SOL    HW1 2219   1.252   2.700   1.285 -1.9597  0.2773 -1.0218
  740SOL    HW2 2220   1.203   2.833   1.362  1.4105  0.8904 -1.7620
  741SOL     OW 2221   2.628   1.080   0.128 -0.2839 -0.3942  0.2846
  741SOL    HW1 2222   2.571   1.019   0.187  1.1449  0.0297  0.3586
  741SOL    HW2 2223   2.572   1.118   0.049 -0.8348 -0.2314 -1.0365
  742SOL     OW 2224   0.800   1.610   2.480 -0.5427  0.3765  0.4647
  742SOL    HW1 2225   0.876   1.545   2.459  0.2305 -0.5152 -0.4178
  742SOL    HW2 2226   0.800   1.679   2.404 -0.5813  1.8854 -2.7337
  743SOL     OW 2227   0.863   0.904   2.080  0.1073  0.3242 -0.3438
  743SOL    HW1 2228   0.840   0.906   2.174  1.8419 -0.3569 -1.8909
  743SOL    HW2 2229   0.958   0.868   2.071 -0.4657  0.3907 -0.0003
  744SOL     OW 2230   2.183   2.582   1.529  0.0490  0.3322  0.1906
  744SOL    HW1 2231   2.209   2.504   1.590  0.2339 -2.2935 -2.0864
  744SOL    HW2 2232   2.150   2.666   1.569 -0.6767 -1.3076 -2.1694
  745SOL     OW 2233   1.786   1.209   1.379 -0.5533 -0.7640  0.6091
  745SOL    HW1 2234   1.694   1.252   1.388  0.3188 -0.1735  0.8065
  745SOL    HW2 2235   1.851   1.253   1.441 -0.5122 -3.5681 -2.3937
  746SOL     OW 2236   2.165   0.939   1.008 -0.4185 -0.6232 -0.0266
  746SOL    HW1 2237   2.109   1.022   0.996 -2.0957  0.7913  1.3130
  746SOL    HW2 2238   2.112   0.873   1.064 -4.1376  0.8623 -1.1101
  747SOL     OW 2239   1.946   1.667   0.793  0.3478 -0.1757 -0.3202
  747SOL    HW1 2240   1.988   1.738   0.733 -0.1949  0.5175 -2.2226
  747SOL    HW2 2241   1.870   1.621   0.745 -0.0018 -2.1395 -1.1972
  748SOL     OW 2242   0.713   1.508   0.427 -0.0517  0.0934  0.3532
  748SOL    HW1 2243   0.617   1.516   0.471 -0.3746  1.7037 -0.6180
  748SOL    HW2 2244   0.707   1.560   0.339 -1.1569  2.3798 -0.5487
  749SOL     OW 2245   2.960   2.582   2.498 -0.2311 -0.3034 -0.1841
  749SOL    HW1 2246   2.926   2.677   2.475  1.7019  0.7491  0.7960
  749SOL    HW2 2247   2.917   2.539   2.577  1.3940  0.2496  0.9354
  750SOL     OW 2248   2.002   0.524   1.274  0.1802 -0.0144 -0.2797
  750SOL    HW1 2249   2.097   0.529   1.242 -1.6919 -3.1528 -0.1779
  750SOL    HW2 2250   1.974   0.428   1.291 -1.2960 -2.3422  0.1584
  751SOL     OW 2251   2.356   0.143   0.195 -0.1444 -0.3110 -0.5097
  751SOL    HW1 2252   2.395   0.067   0.136  0.6843  0.3578  1.0289
  751SOL    HW2 2253   2.326   0.108   0.289 -0.8561  0.2346  3.9087
  752SOL     OW 2254   2.252   2.240   0.312 -0.0930  0.2165 -0.6899
  752SOL    HW1 2255   2.257   2.287   0.401  0.1240  0.6409  3.2401
  752SOL    HW2 2256   2.223   2.146   0.330  1.2463  0.7725  0.8212
  753SOL     OW 2257   1.952   1.578   2.456  0.1540  0.6426  0.2032
  753SOL    HW1 2258   2.038   1.525   2.475  0.0701 -1.9717  1.0135
  753SOL    HW2 2259   1.938   1.590   2.358 -1.2812 -1.1122  1.4124
  754SOL     OW 2260   2.452   2.350   1.362  0.0854  0.2662  0.1645
  754SOL    HW1 2261   2.500   2.344   1.454 -0.1105  2.8337 -2.4878
  754SOL    HW2 2262   2.365   2.304   1.372  3.3056 -1.0833  2.1498
  755SOL     OW 2263   2.481   0.788   0.993  0.7636  0.7630  0.0391
  755SOL    HW1 2264   2.423   0.789   1.078 -1.2557 -0.0441  2.0345
  755SOL    HW2 2265   2.463   0.708   0.933 -1.2901 -2.0718  0.4677
  756SOL     OW 2266   1.260   1.602   2.643 -0.3864 -0.2021  0.1814
  756SOL    HW1 2267   1.258   1.513   2.594  0.0459 -1.6622 -2.2442
  756SOL    HW2 2268   1.238   1.685   2.584 -1.1371  0.0368  0.8725
  757SOL     OW 2269   1.666   2.576   1.106  0.4071  0.2055 -0.3811
  757SOL    HW1 2270   1.740   2.630   1.154  0.3411  2.0797 -1.5574
  757SOL    HW2 2271   1.649   2.617   1.014 -1.5117 -1.5533 -0.1444
  758SOL     OW 2272   0.957   2.323   1.541  0.0734  0.8201  0.3340
  758SOL    HW1 2273   0.975   2.253   1.617  1.9683 -1.2724  2.9353
  758SOL    HW2 2274   1.020   2.302   1.460  1.5968 -1.1908 -3.7281
  759SOL     OW 2275   2.090   1.244   1.238 -0.0387 -0.7252  0.1321
  759SOL    HW1 2276   2.144   1.323   1.274 -0.1360 -0.7261  2.0057
  759SOL    HW2 2277   2.042   1.272   1.152 -0.5095  1.1789  1.0590
  760SOL     OW 2278   2.352   0.892   1.231 -0.0931  0.2088 -0.6085
  760SOL    HW1 2279   2.294   0.901   1.147  0.9293 -1.5072  1.4640
  760SOL    HW2 2280   2.301   0.936   1.309  1.7303 -4.8954 -1.5238
  761SOL     OW 2281   1.998   2.739   0.185 -0.1152 -0.2516  0.0613
  761SOL    HW1 2282   2.071   2.697   0.241  0.0083  0.0844 -2.0736
  761SOL    HW2 2283   2.019   2.746   0.086  1.6840 -0.2738 -0.3284
  762SOL     OW 2284   1.981   1.655   2.826 -0.3267 -0.2060  0.0127
  762SOL    HW1 2285   1.915   1.682   2.751 -0.4864  1.8303 -0.8296
  762SOL    HW2 2286   1.989   1.728   2.897  0.3711 -3.0863  2.1748
  763SOL     OW 2287   0.272   1.341   1.434 -0.5320 -0.3495 -0.6755
  763SOL    HW1 2288   0.226   1.320   1.345 -0.4571  0.5784  0.4096
  763SOL    HW2 2289   0.239   1.419   1.495  0.5583  0.5392 -0.7582
  764SOL     OW 2290   2.948   2.458   3.026  0.1020  0.1537  0.3847
  764SOL    HW1 2291   2.889   2.465   0.019 -1.9797  0.8024  1.0353
  764SOL    HW2 2292   3.018   2.384   3.031  0.8423 -0.9174 -1.3529
  765SOL     OW 2293   0.716   3.057   1.984 -0.2226 -0.3873 -0.2089
  765SOL    HW1 2294   0.774   0.008   2.056 -0.3530 -0.3147  1.2694
  765SOL    HW2 2295   0.620   3.083   2.003 -0.5322 -0.9168  4.5006
  766SOL     OW 2296   0.046   2.175   2.391  0.0163  0.4648  0.5345
  766SOL    HW1 2297   0.057   2.081   2.421 -1.0358  4.6933 -1.3540
  766SOL    HW2 2298   0.083   2.177   2.294 -0.4372  2.0934 -0.3842
  767SOL     OW 2299   3.035   1.301   1.834  0.1766  0.6703 -0.0542
  767SOL    HW1 2300   3.068   1.317   1.929 -3.9663 -1.1579 -2.2110
  767SOL    HW2 2301   2.948   1.351   1.819 -1.0232 -1.6997 -0.9516
  768SOL     OW 2302   1.183   0.571   2.939 -0.1024 -0.2991  0.5445
  768SOL    HW1 2303   1.113   0.609   3.004  1.3109 -1.2993  0.0026
  768SOL    HW2 2304   1.275   0.557   2.980  2.1968 -0.8548  1.6709
  769SOL     OW 2305   1.997   2.091   0.585  0.1454  0.9279  0.3730
  769SOL    HW1 2306   2.091   2.125   0.559  1.1455 -0.2997  0.5376
  769SOL    HW2 2307   1.928   2.165   0.569  1.8613 -2.4917 -0.3892
  770SOL     OW 2308   2.938   0.361   0.215 -0.2496 -0.4113 -0.0720
  770SOL    HW1 2309   2.858   0.304   0.207  0.1700 -0.6686  1.4648
  770SOL    HW2 2310   2.943   0.420   0.302 -0.4957  5.0487 -0.2835
  771SOL     OW 2311   1.529   2.287   1.881  0.9199 -0.2728  0.0420
  771SOL    HW1 2312   1.577   2.309   1.789  1.4419  0.9199 -1.3839
  771SOL    HW2 2313   1.470   2.205   1.873  1.3298 -1.2392  0.7641
  772SOL     OW 2314   0.782   0.289   2.858  0.2553 -0.6707 -0.4340
  772SOL    HW1 2315   0.721   0.343   2.922 -0.5084 -2.2250 -2.3376
  772SOL    HW2 2316   0.795   0.343   2.771  0.1192  0.6713  1.0718
  773SOL     OW 2317   2.910   0.925   1.742  0.4275 -0.6226  0.3328
  773SOL    HW1 2318   2.958   0.912   1.651  1.6661 -3.0314 -0.5378
  773SOL    HW2 2319   2.982   0.925   1.816  2.1063  1.4776  3.1766
  774SOL     OW 2320   1.438   1.232   0.477 -0.6025 -0.1324  0.2306
  774SOL    HW1 2321   1.398   1.204   0.388  1.3810 -1.5863  1.9432
  774SOL    HW2 2322   1.539   1.213   0.490  0.3095 -1.4618 -0.4872
  775SOL     OW 2323   2.451   3.035   0.041  0.2680  0.5565 -0.0349
  775SOL    HW1 2324   2.536   3.021   0.093 -1.3543 -3.4167  0.0914
  775SOL    HW2 2325   2.444   2.956   3.065  0.4827 -0.3844  0.3136
  776SOL     OW 2326   2.376   0.943   2.058 -0.3046 -0.0247  0.0740
  776SOL    HW1 2327   2.393   0.960   1.959 -0.0255  0.7950 -0.6624
  776SOL    HW2 2328   2.332   0.853   2.056  0.4617  0.5150 -2.1759
  777SOL     OW 2329   0.160   1.071   2.711 -0.1342  0.3335  0.1959
  777SOL    HW1 2330   0.239   1.017   2.740  0.0648  3.2814 -0.7967
  777SOL    HW2 2331   0.087   1.030   2.652 -0.2455  1.5446 -3.6198
  778SOL     OW 2332   0.677   0.511   0.385 -0.4637  0.2862 -0.4166
  778SOL    HW1 2333   0.765   0.459   0.371  2.0116 -0.0975 -0.3089
  778SOL    HW2 2334   0.601   0.447   0.372 -0.5514  1.1853 -0.0791
  779SOL     OW 2335   0.838   0.465   2.658 -0.2060 -0.3728  1.1253
  779SOL    HW1 2336   0.866   0.548   2.712  3.8502 -2.3488  1.1848
  779SOL    HW2 2337   0.791   0.494   2.568 -2.6216  1.0393 -1.9079
  780SOL     OW 2338   1.871   1.042   2.344 -0.1940  0.1452  0.1115
  780SOL    HW1 2339   1.829   0.948   2.367 -4.4682 -4.3502  1.5354
  780SOL    HW2 2340   1.902   1.051   2.245  1.2496 -0.0371 -0.2997
  781SOL     OW 2341   3.071   0.939   1.983  0.3906 -0.3596 -0.1522
  781SOL    HW1 2342   0.057   0.989   1.932  0.2664  1.7073 -1.1655
  781SOL    HW2 2343   3.044   0.997   2.060  0.4025  1.2777 -1.2758
  782SOL     OW 2344   0.846   1.683   2.731 -0.1351  0.3795 -0.4397
  782SOL    HW1 2345   0.805   1.642   2.647 -1.8562 -1.1917  1.4057
  782SOL    HW2 2346   0.788   1.676   2.814  0.2890  0.7402  0.5182
  783SOL     OW 2347   0.553   2.466   1.617 -0.3541  0.1056  0.3805
  783SOL    HW1 2348   0.569   2.376   1.574  1.1392  0.5690 -1.5523
  783SOL    HW2 2349   0.532   2.536   1.541 -1.8210  3.3192 -2.8184
  784SOL     OW 2350   1.417   0.280   2.865 -0.0224  0.4807  0.0851
  784SOL    HW1 2351   1.518   0.283   2.850  0.7535  0.1368  2.6593
  784SOL    HW2 2352   1.394   0.354   2.928 -1.4714 -1.5473 -2.6705
  785SOL     OW 2353   1.213   0.547   2.682  0.7213  0.2195  0.2047
  785SOL    HW1 2354   1.254   0.458   2.659  0.7199  1.2379 -1.6412
  785SOL    HW2 2355   1.180   0.542   2.781 -0.5555 -0.5334  0.5712
  786SOL     OW 2356   0.520   1.824   0.282  0.2541  0.1151 -0.0248
  786SOL    HW1 2357   0.574   1.761   0.227 -2.6970 -0.0100  0.5217
  786SOL    HW2 2358   0.568   1.907   0.313 -2.7437 -0.8942 -0.4609
  787SOL     OW 2359   1.712   1.177   0.538 -0.6338  0.6494 -0.0157
  787SOL    HW1 2360   1.784   1.175   0.471 -1.5237 -2.1301  3.1925
  787SOL    HW2 2361   1.693   1.078   0.573 -0.5931 -0.3623 -0.5526
  788SOL     OW 2362   1.880   1.812   1.499  0.3027  0.5089 -0.0315
  788SOL    HW1 2363   1.821   1.893   1.523 -0.9954 -0.3749 -0.2936
  788SOL    HW2 2364   1.960   1.841   1.444 -0.3093 -2.0897  1.7339
  789SOL     OW 2365   0.270   1.649   2.158 -0.2010 -0.5518  0.0867
  789SOL    HW1 2366   0.199   1.629   2.086 -3.3595  0.3112 -0.5102
  789SOL    HW2 2367   0.226   1.656   2.254  0.8359  0.2653  1.1746
  790SOL     OW 2368   0.555   2.750   0.284 -0.6364  0.0133 -0.2917
  790SOL    HW1 2369   0.528   2.808   0.208  0.2370 -0.9770 -0.5666
  790SOL    HW2 2370   0.481   2.734   0.348  2.6529 -0.2467 -2.2054
  791SOL     OW 2371   0.523   0.296   0.040  0.4894 -0.2718  1.1605
  791SOL    HW1 2372   0.582   0.368   0.001 -0.9968  1.0497  2.0814
  791SOL    HW2 2373   0.487   0.233   3.056 -2.9487 -0.4078  0.4433
  792SOL     OW 2374   1.654   0.600   2.187 -0.3980  0.5979 -0.1015
  792SOL    HW1 2375   1.705   0.655   2.258  4.0677 -0.7167 -0.3875
  792SOL    HW2 2376   1.573   0.648   2.155  0.3553  0.3593 -1.2189
  793SOL     OW 2377   0.424   0.683   0.910 -0.0198 -0.1440  0.0341
  793SOL    HW1 2378   0.406   0.598   0.852 -2.1253 -0.2927  1.4609
  793SOL    HW2 2379   0.401   0.672   1.003  1.6801  1.8743 -2.1812
  794SOL     OW 2380   0.539   0.171   1.402 -0.0666  0.4866 -0.6117
  794SOL    HW1 2381   0.611   0.101   1.411 -0.2652  1.3688  2.0302
  794SOL    HW2 2382   0.577   0.271   1.409 -1.7920  1.0996  2.2275
  795SOL     OW 2383   3.075   1.240   0.064  0.1051  0.5699  0.4404
  795SOL    HW1 2384   0.085   1.211   0.074  2.3676  1.8100 -2.2883
  795SOL    HW2 2385   3.039   1.239   3.057 -1.8424  0.5754  0.1947
  796SOL     OW 2386   0.002   0.453   0.019 -0.1901  0.4040  0.1899
  796SOL    HW1 2387   0.029   0.548   0.040 -2.3308 -1.6260 -2.1618
  796SOL    HW2 2388   3.026   0.409   0.089 -1.2561 -1.3402  1.3316
  797SOL     OW 2389   1.488   2.525   0.009  0.1388  0.0918 -0.0669
  797SOL    HW1 2390   1.425   2.560   0.081 -0.6469  1.0778 -0.8383
  797SOL    HW2 2391   1.441   2.468   3.024  0.2229 -1.1879  3.3379
  798SOL     OW 2392   2.971   0.451   0.772 -0.6418 -0.2504 -0.5237
  798SOL    HW1 2393   3.051   0.416   0.723 -1.0945  2.0285 -0.4478
  798SOL    HW2 2394   2.995   0.539   0.824  1.2983  1.3700  0.0423
  799SOL     OW 2395   2.657   0.779   2.202 -0.2077 -0.5335  0.0991
  799SOL    HW1 2396   2.567   0.811   2.234 -4.0729 -0.5739  3.3091
  799SOL    HW2 2397   2.645   0.726   2.115  0.2323 -2.2789  2.4729
  800SOL     OW 2398   0.108   2.118   0.430  0.1431 -0.2936  0.5582
  800SOL    HW1 2399   0.073   2.106   0.525  0.3017 -0.8462 -0.8181
  800SOL    HW2 2400   0.099   2.040   0.362  3.1985 -1.3295 -1.3936
  801SOL     OW 2401   1.237   1.867   0.682 -0.4298  0.2328  0.1458
  801SOL    HW1 2402   1.304   1.857   0.760  1.4852 -0.1539 -3.3095
  801SOL    HW2 2403   1.167   1.795   0.686 -0.2202  1.6708 -0.6714
  802SOL     OW 2404   0.979   1.894   2.623  0.3452 -0.5168 -0.1855
  802SOL    HW1 2405   0.936   1.816   2.671 -0.3113  0.0828 -0.2257
  802SOL    HW2 2406   1.063   1.862   2.573  0.4617  1.4410 -2.0527
  803SOL     OW 2407   3.006   1.995   1.488 -0.4170  0.1196  0.5235
  803SOL    HW1 2408   2.957   1.925   1.433  0.5941 -0.9874 -0.5627
  803SOL    HW2 2409   3.082   1.952   1.540 -0.3086 -0.0766 -1.4181
  804SOL     OW 2410   1.055   2.586   1.586  0.0265 -0.0417 -0.1243
  804SOL    HW1 2411   1.148   2.557   1.554 -0.8719 -1.2081 -0.2532
  804SOL    HW2 2412   0.975   2.530   1.555 -2.5457  0.1314 -1.6715
  805SOL     OW 2413   2.457   1.699   2.965  0.3906  0.2901  0.2538
  805SOL    HW1 2414   2.408   1.727   2.878  0.1825  1.6011  0.8868
  805SOL    HW2 2415   2.557   1.702   2.953 -1.3408 -1.7173 -1.0385
  806SOL     OW 2416   2.021   2.919   0.690 -0.0498  0.1692  0.0164
  806SOL    HW1 2417   2.037   2.830   0.724  1.4567  0.4212 -2.1585
  806SOL    HW2 2418   2.073   2.990   0.742 -1.3406  0.3901 -1.5077
  807SOL     OW 2419   2.773   0.525   2.770  0.1438  0.3128 -0.8125
  807SOL    HW1 2420   2.802   0.589   2.844 -1.3777 -2.1737 -2.9937
  807SOL    HW2 2421   2.695   0.560   2.717  0.6291  0.9469 -1.0175
  808SOL     OW 2422   0.526   1.119   0.387  0.4062 -1.1976  0.1688
  808SOL    HW1 2423   0.582   1.154   0.310 -2.6719  2.6246  0.7269
  808SOL    HW2 2424   0.500   1.200   0.446  0.7215 -0.8652  1.0728
  809SOL     OW 2425   2.528   0.630   1.966 -0.6954  0.0345  0.1113
  809SOL    HW1 2426   2.434   0.664   1.965 -0.1943  0.2165  1.3310
  809SOL    HW2 2427   2.586   0.686   1.901 -1.2210  0.4810  0.2047
  810SOL     OW 2428   1.194   0.561   1.409  0.0293  0.4028 -0.6391
  810SOL    HW1 2429   1.178   0.494   1.337  4.2432  1.3719 -0.3705
  810SOL    HW2 2430   1.253   0.514   1.478 -0.2580 -2.0745 -1.0232
  811SOL     OW 2431   2.373   2.932   1.692  0.2036  0.3494 -0.1494
  811SOL    HW1 2432   2.433   2.856   1.723  0.8989  1.2684  0.6878
  811SOL    HW2 2433   2.396   3.015   1.737 -1.3104 -2.5689 -1.7170
  812SOL     OW 2434   1.829   2.133   3.013 -0.3603 -0.5879 -0.0270
  812SOL    HW1 2435   1.745   2.153   3.062  1.3467 -0.7248  0.5541
  812SOL    HW2 2436   1.867   2.214   2.967  0.2432  0.7579  1.1163
  813SOL     OW 2437   1.246   0.809   1.673  0.6147  0.4538 -0.0487
  813SOL    HW1 2438   1.242   0.800   1.573  1.1989 -1.0019  0.3959
  813SOL    HW2 2439   1.338   0.775   1.707 -1.5425  0.1306  0.5435
  814SOL     OW 2440   0.633   0.412   1.423  0.0358  0.0678 -0.1160
  814SOL    HW1 2441   0.595   0.447   1.509 -0.3501  2.9497  2.4543
  814SOL    HW2 2442   0.737   0.408   1.437  2.9896 -0.1950  1.1000
  815SOL     OW 2443   0.735   0.796   0.336  0.5959  0.1986  0.8223
  815SOL    HW1 2444   0.720   0.697   0.315  0.4013 -0.7456 -0.7665
  815SOL    HW2 2445   0.763   0.815   0.429  1.3569  2.6751  0.1940
  816SOL     OW 2446   2.205   1.431   2.492 -0.3118 -0.3554 -0.5484
  816SOL    HW1 2447   2.237   1.456   2.587 -0.7747  1.7192  1.2544
  816SOL    HW2 2448   2.270   1.456   2.420 -0.8748 -2.1476 -2.5935
  817SOL     OW 2449   0.964   2.928   0.957  0.0413 -0.5439  0.2083
  817SOL    HW1 2450   1.064   2.937   0.976  0.4348  1.3671  1.8176
  817SOL    HW2 2451   0.947   2.969   0.865 -1.5585  2.3032  1.0083
  818SOL     OW 2452   1.882   0.463   2.857 -0.2042 -0.1267 -0.4874
  818SOL    HW1 2453   1.869   0.502   2.951  0.2631  0.9018  1.3933
  818SOL    HW2 2454   1.887   0.543   2.796  5.1416 -0.9758  1.7435
  819SOL     OW 2455   1.640   0.400   0.166 -0.5184 -0.1971 -0.4201
  819SOL    HW1 2456   1.721   0.442   0.125  0.3243 -2.2392  1.7285
  819SOL    HW2 2457   1.661   0.302   0.178 -2.2571  0.9322 -0.2741
  820SOL     OW 2458   1.857   0.539   0.035  0.0179 -0.0320 -0.1602
  820SOL    HW1 2459   1.917   0.500   0.106  1.6004 -1.2010  0.3050
  820SOL    HW2 2460   1.864   0.640   0.032 -2.2762 -2.8619 -0.4770
  821SOL     OW 2461   2.595   0.352   0.641  0.6907 -0.0831  0.1375
  821SOL    HW1 2462   2.577   0.316   0.550 -0.5479 -0.8895 -0.3891
  821SOL    HW2 2463   2.689   0.324   0.664 -2.4394  0.7309 -0.1129
  822SOL     OW 2464   0.814   2.404   1.961  0.8272 -0.4257  0.2619
  822SOL    HW1 2465   0.780   2.464   1.889  1.4342 -1.1306 -1.6638
  822SOL    HW2 2466   0.740   2.336   1.987  0.2319  1.1601 -1.0208
  823SOL     OW 2467   0.178   1.463   1.674 -0.5065 -0.0092 -1.0620
  823SOL    HW1 2468   0.091   1.507   1.663  2.7983 -0.1080 -1.6214
  823SOL    HW2 2469   0.170   1.366   1.695  3.7420  0.3869 -0.0590
  824SOL     OW 2470   1.346   2.914   2.607  0.1513 -0.1832  0.0173
  824SOL    HW1 2471   1.429   2.865   2.637 -1.6387  2.4263  2.0193
  824SOL    HW2 2472   1.291   2.944   2.689 -0.3833  0.3612  1.6271
  825SOL     OW 2473   1.996   1.062   0.653 -0.1808  0.2861  0.0766
  825SOL    HW1 2474   1.922   1.002   0.693  0.9392  0.9359 -1.0211
  825SOL    HW2 2475   1.986   1.077   0.556  1.0486 -1.2435  3.6771
  826SOL     OW 2476   1.903   0.801   0.072  0.3270 -0.0364 -0.2477
  826SOL    HW1 2477   1.991   0.799   0.121 -0.4085  1.8910 -1.2648
  826SOL    HW2 2478   1.841   0.881   0.095 -1.7559  2.8402 -0.6693
  827SOL     OW 2479   0.513   1.682   1.882 -0.5085 -0.1024 -0.5457
  827SOL    HW1 2480   0.606   1.718   1.856  1.0491  1.0569  0.6920
  827SOL    HW2 2481   0.512   1.638   1.975  1.6516 -3.2422  2.4500
  828SOL     OW 2482   2.402   1.288   1.590 -0.0864  0.1022 -0.1697
  828SOL    HW1 2483   2.413   1.309   1.689  1.1337  2.0487 -1.7134
  828SOL    HW2 2484   2.420   1.189   1.571  0.2907 -0.5458  0.1815
  829SOL     OW 2485   0.257   1.755   0.192 -0.6560 -0.5101 -0.4548
  829SOL    HW1 2486   0.318   1.806   0.252  0.6483 -1.9305  1.4122
  829SOL    HW2 2487   0.312   1.700   0.124 -0.2687  0.6421  0.3480
  830SOL     OW 2488   1.692   0.918   0.642  0.1029  0.5963  0.1570
  830SOL    HW1 2489   1.760   0.880   0.705 -3.5516  2.6202  0.2991
  830SOL    HW2 2490   1.694   0.859   0.558  0.4350 -0.4020 -0.1194
  831SOL     OW 2491   3.034   1.825   2.872  0.9088  0.3406  0.1980
  831SOL    HW1 2492   0.015   1.895   2.840 -1.0096  0.7155  1.4164
  831SOL    HW2 2493   3.082   1.753   2.925  0.0283  1.4676  2.2444
  832SOL     OW 2494   0.917   0.354   0.389 -0.4741 -0.6228 -0.6552
  832SOL    HW1 2495   1.004   0.393   0.429 -1.2335  1.7090 -0.9272
  832SOL    HW2 2496   0.945   0.312   0.295 -2.3133  2.2444 -2.1046
  833SOL     OW 2497   0.445   0.481   1.881  0.0649  0.7218  0.3961
  833SOL    HW1 2498   0.451   0.571   1.931 -2.2197  1.1136 -0.9629
  833SOL    HW2 2499   0.529   0.429   1.875 -0.4084  1.1067 -1.1461
  834SOL     OW 2500   0.301   0.448   0.761  0.0576 -0.1984  0.0554
  834SOL    HW1 2501   0.339   0.358   0.738 -1.2211 -0.7257  3.9705
  834SOL    HW2 2502   0.264   0.492   0.677 -0.2103  0.4888  0.4559
  835SOL     OW 2503   2.308   2.798   1.146  0.6245 -0.4741  0.0763
  835SOL    HW1 2504   2.309   2.721   1.213 -2.1928  0.7661  0.5682
  835SOL    HW2 2505   2.396   2.832   1.124 -0.0467  0.5232  1.2245
  836SOL     OW 2506   0.440   2.022   0.117  0.0678  0.1689  0.3675
  836SOL    HW1 2507   0.449   2.094   0.186  1.7138 -0.2254 -0.5293
  836SOL    HW2 2508   0.467   1.936   0.160 -0.1294  0.8636  1.8878
  837SOL     OW 2509   1.900   1.399   2.681  0.8725  0.1986 -0.7065
  837SOL    HW1 2510   1.857   1.442   2.768 -0.0049 -1.3926  4.2496
  837SOL    HW2 2511   1.922   1.469   2.610  0.2747 -1.0287 -0.9090
  838SOL     OW 2512   0.384   1.120   2.011 -0.1538 -0.3124  0.2185
  838SOL    HW1 2513   0.471   1.157   1.983 -4.0296  0.0229 -1.4344
  838SOL    HW2 2514   0.333   1.189   2.068  1.1239 -0.8959 -1.2039
  839SOL     OW 2515   0.342   1.322   0.845  0.3081 -0.0985  0.6671
  839SOL    HW1 2516   0.391   1.292   0.927 -0.6292  1.5996 -2.0685
  839SOL    HW2 2517   0.260   1.262   0.830  1.9005 -0.0462  0.0127
  840SOL     OW 2518   2.376   0.129   2.142  0.4309  0.1940  0.0825
  840SOL    HW1 2519   2.363   0.133   2.242  0.2373 -2.9440 -2.8739
  840SOL    HW2 2520   2.401   0.221   2.112 -0.2398  0.7662 -2.8001
  841SOL     OW 2521   0.834   2.447   0.438  0.0284 -0.2291 -0.1167
  841SOL    HW1 2522   0.900   2.523   0.462 -0.1067 -2.4484  2.0509
  841SOL    HW2 2523   0.873   2.352   0.454 -0.6155 -1.1104 -2.1311
  842SOL     OW 2524   0.378   0.217   0.607  0.7077 -0.2065 -0.6141
  842SOL    HW1 2525   0.452   0.158   0.643 -1.7049  1.1595  0.0636
  842SOL    HW2 2526   0.407   0.269   0.524 -0.4590 -1.5984  0.7549
  843SOL     OW 2527   0.282   1.216   0.103  0.1806 -0.8325  0.0001
  843SOL    HW1 2528   0.260   1.162   0.191  1.5880 -0.1009 -0.1826
  843SOL    HW2 2529   0.338   1.301   0.120 -1.2739  1.3651  1.4850
  844SOL     OW 2530   1.149   2.403   0.054  0.0062  0.3906 -0.3707
  844SOL    HW1 2531   1.083   2.329   0.025 -3.9561 -0.3487  0.4471
  844SOL    HW2 2532   1.235   2.398   3.084  0.5426 -3.7542  1.4132
  845SOL     OW 2533   2.309   2.857   2.180  0.4774  0.6317 -0.2546
  845SOL    HW1 2534   2.290   2.807   2.092  2.3715  1.0794 -1.4187
  845SOL    HW2 2535   2.229   2.914   2.208 -1.2648  2.0221  3.1439
  846SOL     OW 2536   1.888   1.916   2.855 -0.6762  0.3018 -0.3451
  846SOL    HW1 2537   1.857   2.000   2.905  2.0925 -1.0710 -0.1509
  846SOL    HW2 2538   1.897   1.932   2.757  0.0014  1.5870  2.3215
  847SOL     OW 2539   2.706   0.224   0.186 -0.5685  0.1099 -0.2881
  847SOL    HW1 2540   2.669   0.272   0.103 -0.3298 -0.5757  1.0102
  847SOL    HW2 2541   2.654   0.251   0.270 -3.0451 -1.8112  1.2740
  848SOL     OW 2542   0.784   0.574   0.744  0.5421 -0.5172 -0.0684
  848SOL    HW1 2543   0.806   0.513   0.821 -3.1158  1.3332 -2.0233
  848SOL    HW2 2544   0.778   0.523   0.653  2.1377  1.6836 -3.0461
  849SOL     OW 2545   1.446   2.760   1.937 -0.5718  0.0055 -0.1511
  849SOL    HW1 2546   1.546   2.770   1.964  3.5949  0.3580  2.2405
  849SOL    HW2 2547   1.431   2.668   1.893  0.9273  0.3126 -0.5891
  850SOL     OW 2548   0.811   1.483   0.671  0.5963 -0.0190  0.1549
  850SOL    HW1 2549   0.797   1.382   0.693 -0.8155 -1.6520  0.0751
  850SOL    HW2 2550   0.774   1.500   0.577 -4.1567 -1.7374 -0.0699
  851SOL     OW 2551   0.456   1.403   0.160 -0.3039 -0.2150 -0.4138
  851SOL    HW1 2552   0.539   1.341   0.178 -1.4208 -0.6709  1.2361
  851SOL    HW2 2553   0.425   1.427   0.254  2.4905  1.2331  1.2198
  852SOL     OW 2554   1.315   2.975   1.842  0.2093 -0.1178 -0.5835
  852SOL    HW1 2555   1.217   2.969   1.853  0.9436  0.6390  1.6050
  852SOL    HW2 2556   1.353   2.882   1.868  0.1751 -0.5961  0.2364
  853SOL     OW 2557   2.733   1.485   3.024 -0.3099  0.4714  0.0371
  853SOL    HW1 2558   2.665   1.412   3.047  0.3010  0.6346  1.1156
  853SOL    HW2 2559   2.802   1.493   0.009 -0.8585  1.4177  0.7382
  854SOL     OW 2560   1.755   1.223   2.026 -0.7397  0.7245 -0.0972
  854SOL    HW1 2561   1.674   1.252   1.974 -1.2600 -0.1961 -1.8333
  854SOL    HW2 2562   1.827   1.195   1.961  3.4826  0.7591  1.5442
  855SOL     OW 2563   0.180   2.443   0.108 -0.2466  0.7897  0.3187
  855SOL    HW1 2564   0.197   2.349   0.073 -0.3589 -1.0315 -0.4412
  855SOL    HW2 2565   0.230   2.513   0.051 -1.4404 -0.1137  0.6582
  856SOL     OW 2566   0.321   0.804   1.794  0.9577 -0.0868  0.2204
  856SOL    HW1 2567   0.418   0.822   1.773 -0.8592 -0.9280  2.1469
  856SOL    HW2 2568   0.263   0.891   1.794  0.2075  2.6563 -0.6412
  857SOL     OW 2569   1.158   0.835   2.306  0.0714 -0.1902  0.1749
  857SOL    HW1 2570   1.115   0.751   2.344  0.4766 -0.0053  1.7632
  857SOL    HW2 2571   1.261   0.828   2.322  1.9772  0.0237  1.9093
  858SOL     OW 2572   0.356   1.262   2.376  0.4798 -0.3123  0.0648
  858SOL    HW1 2573   0.340   1.326   2.453  0.5948  1.1103  1.4193
  858SOL    HW2 2574   0.318   1.290   2.287 -2.5684  4.6879 -1.9437
  859SOL     OW 2575   2.528   0.185   1.008  0.6401 -0.7904  0.0111
  859SOL    HW1 2576   2.501   0.212   1.103  0.4061  0.9603  1.2477
  859SOL    HW2 2577   2.621   0.140   1.018 -0.1658 -1.1312 -0.0609
  860SOL     OW 2578   1.907   3.006   0.179  0.5554 -0.2062 -0.4986
  860SOL    HW1 2579   1.929   2.909   0.204 -0.5202 -1.9988 -3.4060
  860SOL    HW2 2580   1.952   3.021   0.086  0.1012 -1.6598  1.3841
  861SOL     OW 2581   0.797   0.355   0.902  0.3533 -0.1768  0.0783
  861SOL    HW1 2582   0.804   0.327   0.802  1.8646 -2.0795  0.7237
  861SOL    HW2 2583   0.732   0.285   0.945 -0.9183  1.2974 -0.0455
  862SOL     OW 2584   1.270   0.297   2.655 -0.6527 -0.1770  0.0401
  862SOL    HW1 2585   1.308   0.297   2.751 -0.8027 -0.3387 -1.0510
  862SOL    HW2 2586   1.333   0.239   2.598 -2.3050  1.4500  1.5683
  863SOL     OW 2587   2.270   2.293   0.777 -0.2506  0.0228  0.4768
  863SOL    HW1 2588   2.311   2.344   0.854  1.2828  0.9317  0.2222
  863SOL    HW2 2589   2.328   2.212   0.753  0.0292 -0.9905 -0.8374
  864SOL     OW 2590   2.751   3.084   1.970 -0.1843 -0.0603  0.1955
  864SOL    HW1 2591   2.797   3.013   1.915  1.0914  2.0530  0.6938
  864SOL    HW2 2592   2.681   3.044   2.031  0.0357  1.5944 -0.0949
  865SOL     OW 2593   1.072   0.606   1.787 -0.2762 -0.4654 -0.2088
  865SOL    HW1 2594   1.114   0.585   1.875 -1.0415  0.1417 -3.7213
  865SOL    HW2 2595   1.129   0.672   1.735  0.3749 -1.5777 -0.4470
  866SOL     OW 2596   1.845   2.741   1.210  0.2592  0.3002 -0.3195
  866SOL    HW1 2597   1.919   2.781   1.272 -0.9868 -0.6731 -1.1253
  866SOL    HW2 2598   1.824   2.807   1.133  2.0879  0.9598  1.6423
  867SOL     OW 2599   2.779   2.414   0.466 -0.3233  0.0795 -0.3974
  867SOL    HW1 2600   2.775   2.491   0.396  3.5959  1.6068 -2.2573
  867SOL    HW2 2601   2.836   2.340   0.430 -0.6461 -2.7554  1.3135
  868SOL     OW 2602   0.445   2.114   1.611  0.0573 -0.0022  0.0339
  868SOL    HW1 2603   0.381   2.157   1.542  1.0698  2.2017  1.4211
  868SOL    HW2 2604   0.542   2.128   1.590 -0.1255 -0.3974  0.5018
  869SOL     OW 2605   2.119   2.302   2.666  0.2378 -0.2116 -0.0041
  869SOL    HW1 2606   2.037   2.312   2.608 -0.0976  0.4587  2.4537
  869SOL    HW2 2607   2.170   2.386   2.697  2.8041  0.9785 -0.5553
  870SOL     OW 2608   1.636   1.686   0.912 -0.5513  0.2717  0.2921
  870SOL    HW1 2609   1.679   1.770   0.880 -0.9614  0.0356  2.7546
  870SOL    HW2 2610   1.680   1.657   1.003  2.2290 -5.2656  3.0904
  871SOL     OW 2611   0.145   1.916   1.594  0.3068 -0.2421  0.4990
  871SOL    HW1 2612   0.233   1.959   1.570 -0.7282 -0.3222 -2.8979
  871SOL    HW2 2613   0.148   1.872   1.682  2.7688  0.6059 -1.9531
  872SOL     OW 2614   0.523   1.080   2.592  0.2090  0.0262 -0.0352
  872SOL    HW1 2615   0.464   1.091   2.510  2.9807 -1.1051  0.3213
  872SOL    HW2 2616   0.480   1.014   2.660  1.0544 -1.1165 -0.2291
  873SOL     OW 2617   0.736   2.109   1.750 -0.0742  1.1035  0.0405
  873SOL    HW1 2618   0.671   2.145   1.819 -2.5250 -1.1452 -0.2108
  873SOL    HW2 2619   0.713   2.144   1.655 -1.2424  1.2453 -1.8521
  874SOL     OW 2620   1.090   0.940   1.860 -0.2528 -0.1312 -0.1724
  874SOL    HW1 2621   1.145   0.890   1.787  0.1108 -0.7953 -1.2443
  874SOL    HW2 2622   1.025   1.004   1.804 -2.0602  1.6291 -1.7303
  875SOL     OW 2623   2.817   2.729   0.801  0.0532  0.3384  0.1304
  875SOL    HW1 2624   2.863   2.659   0.866  2.7155  0.4630  5.4238
  875SOL    HW2 2625   2.864   2.733   0.712 -1.4850 -1.4131 -0.7047
  876SOL     OW 2626   1.071   1.541   0.250  0.4862  1.1715  0.1113
  876SOL    HW1 2627   1.062   1.467   0.322 -0.6054 -1.2466  2.4368
  876SOL    HW2 2628   1.054   1.632   0.297  0.7080  1.6356  2.6794
  877SOL     OW 2629   2.935   2.987   0.919 -0.5000 -0.2218 -0.1911
  877SOL    HW1 2630   2.905   2.905   0.866  1.5003  0.3030  1.7756
  877SOL    HW2 2631   2.960   2.966   1.017 -0.3932 -1.6234  1.6167
  878SOL     OW 2632   2.052   1.448   0.480 -0.3079 -0.2741  0.2970
  878SOL    HW1 2633   2.022   1.478   0.385  0.2546 -0.2569 -0.4371
  878SOL    HW2 2634   1.975   1.422   0.541  1.6530  1.7403 -0.1145
  879SOL     OW 2635   2.328   1.644   0.956 -0.0210 -0.4590  0.5320
  879SOL    HW1 2636   2.401   1.697   1.005  3.2125 -0.2156 -1.5624
  879SOL    HW2 2637   2.362   1.554   0.924 -0.0686  1.2589 -1.2219
  880SOL     OW 2638   0.429   2.425   0.905  0.3841 -0.3772  0.1015
  880SOL    HW1 2639   0.403   2.352   0.842 -1.7069  1.5118 -0.2947
  880SOL    HW2 2640   0.353   2.493   0.911 -0.0062  1.6147 -0.6315
  881SOL     OW 2641   0.951   1.052   1.012 -0.5510 -0.1760 -0.2183
  881SOL    HW1 2642   0.893   1.044   0.926  1.2490 -0.3718  0.7278
  881SOL    HW2 2643   1.014   0.973   1.022  0.2038  0.5956 -1.9161
  882SOL     OW 2644   2.220   1.090   0.354  0.0679 -0.1887  0.6871
  882SOL    HW1 2645   2.252   1.080   0.260 -1.8452 -0.0896  1.0702
  882SOL    HW2 2646   2.248   1.182   0.391 -0.6517  1.0710  1.3101
  883SOL     OW 2647   1.376   3.077   1.597  0.2966 -0.2727  0.3383
  883SOL    HW1 2648   1.324   0.073   1.606  1.7362 -2.0737 -1.7842
  883SOL    HW2 2649   1.371   3.018   1.684 -0.7157  0.4307  1.7010
  884SOL     OW 2650   2.881   0.040   1.280 -0.0786 -0.0824 -0.3032
  884SOL    HW1 2651   2.931   0.123   1.302  1.0581 -1.2123 -0.3942
  884SOL    HW2 2652   2.945   3.058   1.254 -0.0220 -0.1161  2.8899
  885SOL     OW 2653   1.232   1.180   1.622 -0.4945  0.7318  0.0824
  885SOL    HW1 2654   1.241   1.254   1.695  1.9595  0.6461  1.9869
  885SOL    HW2 2655   1.147   1.187   1.568 -0.4856 -1.1603 -1.0439
  886SOL     OW 2656   1.434   0.717   2.354 -0.3984 -0.2871  0.7827
  886SOL    HW1 2657   1.489   0.786   2.405 -0.6360 -0.5914 -1.0104
  886SOL    HW2 2658   1.448   0.624   2.397  0.3043 -2.9666 -0.6393
  887SOL     OW 2659   1.709   0.580   1.016  0.7961  0.1278 -0.3004
  887SOL    HW1 2660   1.614   0.614   1.031  0.0571 -0.6122  1.0949
  887SOL    HW2 2661   1.743   0.604   0.924 -0.2422  0.0775  0.4476
  888SOL     OW 2662   2.397   1.670   1.866  0.3467 -0.1659 -0.0151
  888SOL    HW1 2663   2.349   1.614   1.942 -1.0730 -1.3452 -0.1812
  888SOL    HW2 2664   2.499   1.652   1.880  0.4507 -0.6744  0.8432
  889SOL     OW 2665   1.630   2.073   0.587 -0.3611 -0.1209  0.2341
  889SOL    HW1 2666   1.700   2.149   0.564  0.3018 -1.2527 -0.2125
  889SOL    HW2 2667   1.589   2.030   0.503 -1.0615  2.6916  0.2499
  890SOL     OW 2668   0.887   2.165   0.723  0.0815 -0.2072 -0.5874
  890SOL    HW1 2669   0.901   2.063   0.730 -0.5504 -0.6611  2.7305
  890SOL    HW2 2670   0.847   2.197   0.810 -4.5467  0.2172 -1.2338
  891SOL     OW 2671   2.560   0.607   2.615 -0.1546  0.4831  0.0576
  891SOL    HW1 2672   2.476   0.549   2.625  3.1258 -0.6501 -2.8572
  891SOL    HW2 2673   2.529   0.706   2.627  2.1780  2.3313 -3.5858
  892SOL     OW 2674   1.054   0.630   2.453  0.3190 -0.1147  0.4080
  892SOL    HW1 2675   0.954   0.614   2.460  2.5763  2.5810  1.3577
  892SOL    HW2 2676   1.097   0.624   2.547  0.4565 -0.0109 -0.2996
  893SOL     OW 2677   1.495   0.343   1.189  0.3223  0.4313 -0.1159
  893SOL    HW1 2678   1.556   0.304   1.112  0.2666 -0.9550 -3.1399
  893SOL    HW2 2679   1.439   0.267   1.228  0.3188 -0.4574  2.4784
  894SOL     OW 2680   2.758   2.716   1.134  0.0792 -0.2261  0.5770
  894SOL    HW1 2681   2.778   2.794   1.193 -0.7322  0.1694 -0.1769
  894SOL    HW2 2682   2.842   2.681   1.090  3.1358 -1.6233  1.7610
  895SOL     OW 2683   1.873   2.793   2.887  0.2775  0.5314 -0.6879
  895SOL    HW1 2684   1.784   2.756   2.922  2.9095  0.1733  0.1603
  895SOL    HW2 2685   1.950   2.742   2.928 -1.4746  2.6374  1.3417
  896SOL     OW 2686   2.102   3.058   1.891  0.3517  0.0533 -0.5544
  896SOL    HW1 2687   2.044   3.069   1.808 -0.3997  0.8048  1.2436
  896SOL    HW2 2688   2.180   0.034   1.900 -0.9712  0.8910  1.7874
  897SOL     OW 2689   0.382   2.127   1.884 -0.4510  0.0499  0.4680
  897SOL    HW1 2690   0.420   2.130   1.787  0.9162  0.0162  0.6396
  897SOL    HW2 2691   0.426   2.051   1.941  1.2865 -0.6794  1.0479
  898SOL     OW 2692   2.677   1.660   1.899 -0.5332  0.4125 -0.3422
  898SOL    HW1 2693   2.650   1.581   1.844  0.5019  1.5767 -0.5108
  898SOL    HW2 2694   2.777   1.677   1.890 -0.0626  1.1225  3.3336
  899SOL     OW 2695   1.506   2.142   0.836 -0.3172  0.1498  0.2316
  899SOL    HW1 2696   1.454   2.056   0.843  0.6175 -0.9875  0.8429
  899SOL    HW2 2697   1.571   2.134   0.759 -3.1393  1.1581  0.6070
  900SOL     OW 2698   0.818   2.944   2.831  0.3926 -0.2962 -1.0418
  900SOL    HW1 2699   0.812   2.845   2.810  0.3785 -0.4067  0.6242
  900SOL    HW2 2700   0.902   2.991   2.795  1.5616 -1.0794 -0.4383
  901SOL     OW 2701   1.189   1.822   2.477  0.3056 -0.6343  0.0395
  901SOL    HW1 2702   1.270   1.883   2.459 -2.5505  1.3397  0.9155
  901SOL    HW2 2703   1.175   1.761   2.396  1.0093 -1.1321 -1.0254
  902SOL     OW 2704   2.916   0.317   2.717  0.3344 -0.0953 -0.2993
  902SOL    HW1 2705   2.832   0.375   2.739  0.7609  0.4589 -0.0484
  902SOL    HW2 2706   2.894   0.222   2.749 -0.3609  2.7669  0.1458
  903SOL     OW 2707   2.065   0.634   2.115 -0.1097  0.4309  0.6414
  903SOL    HW1 2708   2.041   0.632   2.216  2.5453  0.5958  1.0488
  903SOL    HW2 2709   1.974   0.626   2.066 -0.3412 -0.3873 -0.6016
  904SOL     OW 2710   1.475   0.460   2.477  0.4020  0.3166 -0.3768
  904SOL    HW1 2711   1.574   0.433   2.484 -0.2117 -0.0407 -2.2982
  904SOL    HW2 2712   1.414   0.388   2.506 -2.1516 -0.7392 -2.2506
  905SOL     OW 2713   2.239   2.433   1.737  0.5140 -0.3002  0.2197
  905SOL    HW1 2714   2.246   2.470   1.835 -1.1157  1.4364  1.7499
  905SOL    HW2 2715   2.273   2.334   1.732 -1.0138  1.2281  2.3610
  906SOL     OW 2716   1.808   1.886   0.329  0.0920 -0.3313  0.4883
  906SOL    HW1 2717   1.873   1.843   0.391 -1.8989 -0.4993 -2.1166
  906SOL    HW2 2718   1.717   1.909   0.373 -1.7787 -0.3693  0.5233
  907SOL     OW 2719   1.254   0.002   1.044 -0.0784 -0.1729  0.2816
  907SOL    HW1 2720   1.269   0.019   0.943  1.2526 -1.5602  1.7327
  907SOL    HW2 2721   1.276   2.993   1.064 -0.2932  1.7772 -0.3722
  908SOL     OW 2722   1.474   2.522   2.237 -0.5865  0.0972 -0.1178
  908SOL    HW1 2723   1.466   2.620   2.260  0.4507 -2.3164 -0.5476
  908SOL    HW2 2724   1.390   2.488   2.190 -0.4087 -0.1307  0.9756
  909SOL     OW 2725   2.016   0.334   2.051  0.1643  0.1847  0.2775
  909SOL    HW1 2726   2.023   0.298   2.146  0.3635  0.7981 -0.7397
  909SOL    HW2 2727   1.929   0.306   2.005 -1.9047  0.3793 -3.3528
  910SOL     OW 2728   1.164   1.010   3.029 -0.5736 -0.1655  0.1088
  910SOL    HW1 2729   1.118   0.924   3.061  0.4399 -1.7681  0.1745
  910SOL    HW2 2730   1.244   0.995   2.966  1.5942  1.2861 -1.6261
  911SOL     OW 2731   2.914   1.051   0.207  0.3085  0.4281 -0.0690
  911SOL    HW1 2732   2.961   1.120   0.149  1.5025 -1.4346 -1.4740
  911SOL    HW2 2733   2.818   1.046   0.178 -0.6773 -1.2677 -1.0454
  912SOL     OW 2734   0.330   2.266   0.511  0.1881  0.1414  0.2573
  912SOL    HW1 2735   0.252   2.216   0.469  2.4705 -1.3261  1.7868
  912SOL    HW2 2736   0.315   2.269   0.612  0.8456 -2.6383 -1.2466
  913SOL     OW 2737   2.875   2.139   2.225 -0.4618  0.2976  0.1965
  913SOL    HW1 2738   2.885   2.132   2.326  0.8061  0.2766  1.9186
  913SOL    HW2 2739   2.961   2.122   2.178 -3.8637  0.5578 -1.6654
  914SOL     OW 2740   1.309   2.004   1.603 -0.2052  0.0829  0.1473
  914SOL    HW1 2741   1.330   2.076   1.528  1.0534  0.5399 -3.4994
  914SOL    HW2 2742   1.363   1.913   1.596  0.9993 -1.8503 -0.8663
  915SOL     OW 2743   0.615   2.820   1.917  0.1911 -0.1447  0.6220
  915SOL    HW1 2744   0.667   2.904   1.925 -1.5810 -2.3578  0.3557
  915SOL    HW2 2745   0.577   2.793   2.007  0.5208 -0.2506  0.2578
  916SOL     OW 2746   0.805   0.868   1.456  0.2454 -0.0350 -0.3479
  916SOL    HW1 2747   0.827   0.774   1.445  1.8202  2.7657 -0.3920
  916SOL    HW2 2748   0.811   0.896   1.558 -1.3172  0.2854  2.2561
  917SOL     OW 2749   2.858   0.476   0.457  0.3563 -0.1952 -0.2390
  917SOL    HW1 2750   2.848   0.395   0.515 -1.7678 -0.0040 -2.8162
  917SOL    HW2 2751   2.767   0.517   0.433  2.0587  2.3884  1.5339
  918SOL     OW 2752   1.712   2.400   2.869  0.2052 -0.0197  0.0922
  918SOL    HW1 2753   1.804   2.407   2.908  0.4962  0.6935 -1.9122
  918SOL    HW2 2754   1.648   2.361   2.935 -0.5290 -0.9316 -0.7779
  919SOL     OW 2755   1.538   2.502   1.463 -0.1095  0.1916 -0.2512
  919SOL    HW1 2756   1.516   2.455   1.377  0.1936  0.0126  2.4147
  919SOL    HW2 2757   1.591   2.584   1.445  0.0297 -0.7470 -0.2414
  920SOL     OW 2758   0.892   0.678   2.865 -0.0779  0.1620  0.7081
  920SOL    HW1 2759   0.931   0.682   2.956 -0.6034 -0.1877 -0.6750
  920SOL    HW2 2760   0.813   0.737   2.870 -0.0969 -0.9229 -0.7200
  921SOL     OW 2761   2.830   0.714   2.943 -0.2683  0.0511 -0.4119
  921SOL    HW1 2762   2.760   0.782   2.921 -0.0837 -0.1100 -0.4500
  921SOL    HW2 2763   2.925   0.753   2.960  2.3208  1.5703 -3.3391
  922SOL     OW 2764   0.163   1.926   1.050  0.1233 -0.0690 -0.2996
  922SOL    HW1 2765   0.213   1.886   1.131 -0.6910  1.3658  0.2486
  922SOL    HW2 2766   0.236   1.947   0.981  3.3156 -0.2880  0.2084
  923SOL     OW 2767   0.576   1.283   1.896 -0.5826 -0.6183 -0.5524
  923SOL    HW1 2768   0.567   1.323   1.988  0.5895 -0.8578 -1.5575
  923SOL    HW2 2769   0.529   1.341   1.826 -1.4429 -0.8401  0.8489
  924SOL     OW 2770   1.588   2.749   2.967  0.1623  0.3414  0.2349
  924SOL    HW1 2771   1.553   2.670   3.020 -1.2557  1.7072  1.1609
  924SOL    HW2 2772   1.565   2.839   3.010 -1.2503 -0.4450 -1.6214
  925SOL     OW 2773   2.844   1.392   1.041  0.3388  0.2837  0.4557
  925SOL    HW1 2774   2.794   1.338   0.971  1.3596  0.3373  0.0314
  925SOL    HW2 2775   2.801   1.382   1.130  2.3415 -0.4853 -0.9962
  926SOL     OW 2776   2.375   0.602   1.517 -0.2696  0.1818 -0.0838
  926SOL    HW1 2777   2.472   0.629   1.531  0.5184 -1.7211 -0.0155
  926SOL    HW2 2778   2.372   0.497   1.516  0.5479  0.6212 -0.5029
  927SOL     OW 2779   1.954   0.001   1.315  0.0439  0.2514 -0.1725
  927SOL    HW1 2780   2.021   0.046   1.252  0.2752  0.6756  0.1958
  927SOL    HW2 2781   1.987   2.996   1.342  1.0872  0.6038 -0.1977
  928SOL     OW 2782   0.068   1.140   2.388 -0.1411 -0.2578 -0.0855
  928SOL    HW1 2783   0.160   1.173   2.413  0.7598 -1.3439 -2.0743
  928SOL    HW2 2784   0.061   1.040   2.370 -0.5848  1.6031 -2.8755
  929SOL     OW 2785   2.600   0.872   1.396 -0.1684 -0.6897  0.8480
  929SOL    HW1 2786   2.515   0.854   1.343 -0.0321  1.1735 -4.0710
  929SOL    HW2 2787   2.669   0.908   1.334 -2.3050 -1.0804  0.0663
  930SOL     OW 2788   2.910   2.541   2.035  0.1310  0.4881  0.1790
  930SOL    HW1 2789   2.938   2.636   2.049 -0.9588 -0.1489  1.6706
  930SOL    HW2 2790   2.981   2.474   2.062  1.2558  0.5243  0.5638
  931SOL     OW 2791   1.993   0.774   1.151  0.2835  0.0058 -0.2840
  931SOL    HW1 2792   1.977   0.678   1.185  1.5977 -1.6386 -0.8751
  931SOL    HW2 2793   1.919   0.841   1.184  0.7182  2.3060 -0.7874
  932SOL     OW 2794   0.186   1.047   1.852  0.1176 -0.2152 -0.0433
  932SOL    HW1 2795   0.266   1.066   1.915  0.3381  2.3983 -0.8422
  932SOL    HW2 2796   0.166   1.115   1.780 -0.3772 -1.4706  1.6734
  933SOL     OW 2797   2.759   1.766   1.532  0.2348  0.0701  0.2508
  933SOL    HW1 2798   2.796   1.768   1.440 -1.9125  0.3158 -0.1820
  933SOL    HW2 2799   2.674   1.826   1.537  0.1054  2.0538 -0.5174
  934SOL     OW 2800   0.510   1.820   1.524 -0.3342 -0.0768 -0.7558
  934SOL    HW1 2801   0.590   1.810   1.470 -1.0299  0.3721  3.0196
  934SOL    HW2 2802   0.510   1.906   1.572 -0.3880 -3.7385 -1.6682
  935SOL     OW 2803   2.721   1.303   1.272 -0.1515  0.2725 -0.3736
  935SOL    HW1 2804   2.621   1.300   1.292 -0.8939  0.7086  1.4453
  935SOL    HW2 2805   2.779   1.334   1.349 -1.2484 -1.8499 -1.0334
  936SOL     OW 2806   2.814   1.392   1.517 -0.7735 -0.3933  0.2222
  936SOL    HW1 2807   2.820   1.307   1.570  1.8480  0.1383  0.4022
  936SOL    HW2 2808   2.744   1.460   1.547 -0.6029  0.8586  2.2917
  937SOL     OW 2809   1.850   0.296   1.354 -0.0151 -0.2231 -0.3473
  937SOL    HW1 2810   1.899   0.209   1.369 -0.4402  1.9570  0.7207
  937SOL    HW2 2811   1.825   0.345   1.442  0.7655 -0.5136  1.0225
  938SOL     OW 2812   0.391   2.909   0.135  0.0433 -0.6016 -0.5502
  938SOL    HW1 2813   0.331   2.944   0.210  0.9739  0.1785 -0.7887
  938SOL    HW2 2814   0.336   2.861   0.067 -2.5672  1.9010 -0.4012
  939SOL     OW 2815   2.896   1.996   2.488 -0.2744 -0.0681  0.4100
  939SOL    HW1 2816   2.993   1.982   2.486 -2.7427  1.8250  2.7860
  939SOL    HW2 2817   2.840   1.919   2.456  0.7324  2.8694 -2.8270
  940SOL     OW 2818   1.538   1.983   0.354  0.1581 -0.2253  0.1715
  940SOL    HW1 2819   1.541   1.994   0.252 -1.0469  0.1957 -0.7506
  940SOL    HW2 2820   1.468   2.050   0.390 -1.0947  2.1282 -0.5294
  941SOL     OW 2821   2.063   2.627   2.960 -0.1190 -0.3961 -0.1568
  941SOL    HW1 2822   2.062   2.525   2.940 -1.1941 -0.6720 -3.1893
  941SOL    HW2 2823   2.133   2.650   3.030 -0.4033 -0.9953  3.5135
  942SOL     OW 2824   1.791   2.431   1.312 -0.3122 -0.0773 -1.1144
  942SOL    HW1 2825   1.731   2.461   1.240  2.5799 -0.0997  2.9552
  942SOL    HW2 2826   1.889   2.436   1.289 -0.1876 -0.8700  1.8511
  943SOL     OW 2827   2.349   0.963   1.788  0.1333  0.5385  0.7065
  943SOL    HW1 2828   2.428   0.983   1.731 -1.9994  0.9643  1.4822
  943SOL    HW2 2829   2.296   0.887   1.744 -0.4961 -0.2101 -0.1417
  944SOL     OW 2830   1.312   0.793   2.680 -0.5181  0.1731 -0.1460
  944SOL    HW1 2831   1.291   0.825   2.590  1.0704 -0.4521  2.5669
  944SOL    HW2 2832   1.280   0.697   2.688  1.5113  2.0367 -1.4745
  945SOL     OW 2833   2.655   2.292   1.196 -0.2287 -0.6131  0.6965
  945SOL    HW1 2834   2.664   2.193   1.220 -0.9757  1.0485  1.0004
  945SOL    HW2 2835   2.575   2.330   1.251 -3.0515 -1.6195  0.9173
  946SOL     OW 2836   0.450   0.865   0.186  0.2965  0.0433 -0.4764
  946SOL    HW1 2837   0.382   0.942   0.195 -0.1082  1.9940 -0.2508
  946SOL    HW2 2838   0.506   0.860   0.273  1.1503 -0.9852  0.6573
  947SOL     OW 2839   2.130   2.827   1.608  0.0003  0.2404 -0.4012
  947SOL    HW1 2840   2.059   2.872   1.670 -2.0326 -0.6818  0.7440
  947SOL    HW2 2841   2.224   2.859   1.625 -0.6565  0.2730 -0.2765
  948SOL     OW 2842   0.092   1.799   0.796  0.5729  0.2798  0.2463
  948SOL    HW1 2843   0.133   1.828   0.879 -0.8070 -1.7516  0.1948
  948SOL    HW2 2844   0.114   1.698   0.778  1.4227 -3.3497 -3.2936
  949SOL     OW 2845   1.502   1.148   1.656 -0.2000 -0.0827  0.1375
  949SOL    HW1 2846   1.546   1.065   1.614 -0.4900 -3.0337 -1.4149
  949SOL    HW2 2847   1.408   1.157   1.628  1.8709  0.1352 -0.3718
  950SOL     OW 2848   0.356   1.009   1.063  0.3845  0.0936 -0.1620
  950SOL    HW1 2849   0.432   0.987   1.130  1.8586  0.0410  1.1772
  950SOL    HW2 2850   0.263   0.993   1.106 -3.0795 -0.2016  1.2635
  951SOL     OW 2851   0.550   2.175   2.324  0.7170 -0.1763  0.2986
  951SOL    HW1 2852   0.470   2.114   2.298 -0.6741  3.4991  0.0466
  951SOL    HW2 2853   0.607   2.134   2.394  1.0207 -1.5400  0.7580
  952SOL     OW 2854   1.678   1.348   0.183 -0.8931  0.5419 -0.6409
  952SOL    HW1 2855   1.650   1.417   0.256  0.4342  1.8293 -1.0989
  952SOL    HW2 2856   1.622   1.363   0.098 -0.8264  2.1388  0.2040
  953SOL     OW 2857   1.223   0.084   2.909 -0.2124 -0.3895 -0.3839
  953SOL    HW1 2858   1.142   0.134   2.940  2.8752 -1.4950 -2.4349
  953SOL    HW2 2859   1.296   0.149   2.890 -4.5212 -1.2282  1.0280
  954SOL     OW 2860   2.292   1.351   0.418 -0.6734 -0.1129 -0.2607
  954SOL    HW1 2861   2.213   1.399   0.469 -0.7659  1.2305  0.8117
  954SOL    HW2 2862   2.325   1.407   0.343  1.3314 -3.3189 -0.1513
  955SOL     OW 2863   2.896   2.929   0.058  0.1683  0.2952 -0.5302
  955SOL    HW1 2864   2.844   2.944   3.062  0.1888 -2.4683  2.6674
  955SOL    HW2 2865   2.950   2.841   0.063  4.2376  0.6201  0.4788
  956SOL     OW 2866   1.284   0.803   1.358  0.0684  0.0023  0.1736
  956SOL    HW1 2867   1.380   0.818   1.317 -0.4161  1.5461  0.5148
  956SOL    HW2 2868   1.261   0.707   1.375 -1.4051 -1.1725  1.3863
  957SOL     OW 2869   1.182   1.381   1.211  0.1811 -0.3195  0.4025
  957SOL    HW1 2870   1.137   1.392   1.302 -1.4970  0.8566  1.4117
  957SOL    HW2 2871   1.116   1.348   1.134 -0.1807  0.2769 -0.6859
  958SOL     OW 2872   0.477   1.534   0.545  0.1570 -0.4322  0.1344
  958SOL    HW1 2873   0.460   1.631   0.578  1.2284 -4.3931 -1.9551
  958SOL    HW2 2874   0.427   1.521   0.456 -2.5923 -0.1483 -0.4824
  959SOL     OW 2875   1.586   1.231   0.982  0.0368 -0.0052 -0.4122
  959SOL    HW1 2876   1.675   1.277   0.961 -0.0570 -0.8910 -0.7970
  959SOL    HW2 2877   1.542   1.270   1.066  1.6320  1.9006 -3.5609
  960SOL     OW 2878   3.048   1.109   2.903 -0.2084 -0.4273  0.2506
  960SOL    HW1 2879   0.048   1.106   2.850  1.4265 -0.0392  1.2060
  960SOL    HW2 2880   2.971   1.075   2.846 -0.1841  1.8088 -0.6415
  961SOL     OW 2881   0.767   1.408   1.028 -0.2459  0.1671 -0.4292
  961SOL    HW1 2882   0.739   1.367   1.118 -1.0140  0.5981  1.7110
  961SOL    HW2 2883   0.698   1.409   0.955  0.5554  2.5284  2.9570
  962SOL     OW 2884   1.094   1.398   0.508 -0.1046  0.3936  0.0435
  962SOL    HW1 2885   1.031   1.423   0.585  1.7196 -1.2685 -0.7768
  962SOL    HW2 2886   1.188   1.432   0.534 -0.7243  0.5986  0.7366
  963SOL     OW 2887   1.430   1.953   2.431  0.0355  0.2121 -0.1168
  963SOL    HW1 2888   1.484   2.025   2.385 -3.2305 -1.1712  0.3668
  963SOL    HW2 2889   1.469   1.863   2.408  0.0769  0.2714  1.3909
  964SOL     OW 2890   3.053   2.712   0.070 -0.0788 -0.3713 -0.4882
  964SOL    HW1 2891   3.053   2.629   0.011  0.3812  0.2055 -0.1844
  964SOL    HW2 2892   0.036   2.780   0.045 -0.3363 -1.8277 -0.6243
  965SOL     OW 2893   0.659   2.495   0.246  0.3446  0.1793 -1.2000
  965SOL    HW1 2894   0.634   2.588   0.266  1.6812 -2.9735 -2.2528
  965SOL    HW2 2895   0.728   2.464   0.320  0.7407 -0.1774  2.1637
  966SOL     OW 2896   3.080   1.453   2.845 -0.1423  0.0818 -0.6573
  966SOL    HW1 2897   0.071   1.387   2.855 -0.3884  1.9278  2.8360
  966SOL    HW2 2898   0.007   1.537   2.904  2.4642 -0.2873 -0.6456
  967SOL     OW 2899   2.264   3.006   2.741 -0.3010  0.1772 -0.2345
  967SOL    HW1 2900   2.186   2.946   2.715  1.0717  3.9628 -1.7320
  967SOL    HW2 2901   2.234   3.086   2.796 -3.4708 -0.1382 -0.0474
  968SOL     OW 2902   2.147   2.752   0.473 -0.0257  0.0062  0.2277
  968SOL    HW1 2903   2.069   2.690   0.454  1.6198 -0.4593 -1.5475
  968SOL    HW2 2904   2.115   2.817   0.545  0.9893  2.4121  1.5130
  969SOL     OW 2905   0.589   1.305   2.174  0.3424 -0.5377  0.6281
  969SOL    HW1 2906   0.683   1.322   2.214 -1.1888 -0.6318  4.4059
  969SOL    HW2 2907   0.538   1.257   2.242 -0.9983  3.1621 -3.6094
  970SOL     OW 2908   1.457   1.467   0.863  0.2384  0.1537  0.8738
  970SOL    HW1 2909   1.510   1.553   0.874  1.0126  0.2191  0.0044
  970SOL    HW2 2910   1.511   1.387   0.894 -1.5405  0.8614 -1.4954
  971SOL     OW 2911   2.386   0.136   1.320  0.1549 -0.3847  0.4330
  971SOL    HW1 2912   2.426   0.040   1.309  4.5789 -0.6304  0.9499
  971SOL    HW2 2913   2.282   0.135   1.319 -0.9841 -0.1135 -0.7951
  972SOL     OW 2914   0.116   0.095   1.355  0.5509 -0.4399 -0.3551
  972SOL    HW1 2915   0.173   0.132   1.434 -0.4688  0.0884 -1.6963
  972SOL    HW2 2916   0.075   0.005   1.387  2.3848 -0.2721  2.2466
  973SOL     OW 2917   0.271   0.458   2.677  0.9116  0.2765  0.2757
  973SOL    HW1 2918   0.186   0.442   2.727  0.2170 -0.0453 -1.8605
  973SOL    HW2 2919   0.252   0.452   2.576 -0.5606 -0.0325  2.5574
  974SOL     OW 2920   2.312   1.475   2.055  0.0943  0.9062  0.3000
  974SOL    HW1 2921   2.338   1.478   2.153 -0.4649 -2.5162  2.6431
  974SOL    HW2 2922   2.238   1.406   2.037  2.9150 -0.5329 -0.5860
  975SOL     OW 2923   0.487   0.053   1.157 -0.1430 -0.1935  0.0188
  975SOL    HW1 2924   0.537   3.054   1.142 -0.2698  0.2702  0.6885
  975SOL    HW2 2925   0.518   0.099   1.243  2.4278  0.2666  1.0300
  976SOL     OW 2926   0.834   2.286   2.536 -0.1892 -0.2420 -0.2266
  976SOL    HW1 2927   0.911   2.311   2.599 -1.7839  1.8148  0.2401
  976SOL    HW2 2928   0.784   2.210   2.581 -2.5229 -0.8385  1.4987
  977SOL     OW 2929   0.658   0.054   0.510 -0.0766 -0.0291 -0.1611
  977SOL    HW1 2930   0.754   0.019   0.482  1.7161 -0.8302  0.1559
  977SOL    HW2 2931   0.628   0.007   0.594  2.6802 -0.4375  1.2318
  978SOL     OW 2932   3.067   1.358   2.093 -0.3657 -0.3903 -0.2977
  978SOL    HW1 2933   3.041   1.262   2.106  1.7452  1.4273 -0.0732
  978SOL    HW2 2934   3.051   1.422   2.171  0.6906 -0.3935  0.5299
  979SOL     OW 2935   1.783   2.754   1.715  0.8833 -0.3015 -0.1141
  979SOL    HW1 2936   1.743   2.748   1.620 -1.3916  2.7656 -2.8501
  979SOL    HW2 2937   1.782   2.666   1.760  0.6260  1.7709  0.0304
  980SOL     OW 2938   1.367   1.585   2.155  0.9952 -0.0539  0.0946
  980SOL    HW1 2939   1.335   1.493   2.173 -1.3294 -0.5394 -1.6841
  980SOL    HW2 2940   1.406   1.627   2.238  0.5450  1.9870  1.3374
  981SOL     OW 2941   2.620   0.683   1.572  0.3084  0.0139  0.0818
  981SOL    HW1 2942   2.664   0.719   1.657  0.7243 -0.6714 -0.4613
  981SOL    HW2 2943   2.616   0.760   1.504  0.5115  0.5815 -0.2744
  982SOL     OW 2944   0.172   0.150   2.783  0.3835  0.5963  0.0616
  982SOL    HW1 2945   0.173   0.049   2.787 -0.1956  0.6133  0.7351
  982SOL    HW2 2946   0.087   0.187   2.821 -0.7751 -0.3283  0.3367
  983SOL     OW 2947   2.261   0.476   2.317  0.3196  0.1457  0.0033
  983SOL    HW1 2948   2.208   0.539   2.259 -0.1330 -1.5213 -0.4640
  983SOL    HW2 2949   2.323   0.421   2.260  0.8162  1.6750  3.1485
  984SOL     OW 2950   0.965   0.049   2.192  0.2106 -0.5163  0.2417
  984SOL    HW1 2951   0.976   3.038   2.173  0.8750 -2.7517 -0.1869
  984SOL    HW2 2952   1.026   0.077   2.270  1.1528  3.0137  2.1395
  985SOL     OW 2953   1.996   1.562   2.174 -0.1041  0.4537 -0.2265
  985SOL    HW1 2954   2.037   1.652   2.190 -1.2563 -2.9854  0.9760
  985SOL    HW2 2955   2.058   1.501   2.121  2.0894 -0.8788  0.2534
  986SOL     OW 2956   2.694   0.528   1.180 -0.1457 -0.5525 -0.1904
  986SOL    HW1 2957   2.742   0.485   1.105  2.6373  0.8953  0.2063
  986SOL    HW2 2958   2.707   0.626   1.159  0.1230 -2.3080 -0.0303
  987SOL     OW 2959   2.859   1.071   1.271 -0.2449 -0.3134  0.0878
  987SOL    HW1 2960   2.793   1.146   1.280  3.0721  0.5114 -2.3943
  987SOL    HW2 2961   2.896   1.071   1.179 -0.5161 -2.5104  1.1759
  988SOL     OW 2962   2.995   1.090   2.177 -0.1141  0.3857  0.0398
  988SOL    HW1 2963   2.894   1.075   2.192 -0.7347 -2.3309 -2.4978
  988SOL    HW2 2964   3.045   1.116   2.264 -0.0472  1.3715  0.7406
  989SOL     OW 2965   1.786   1.673   0.140  0.4187  0.1007  0.5054
  989SOL    HW1 2966   1.805   1.762   0.186 -0.7780  1.6691  3.4252
  989SOL    HW2 2967   1.703   1.678   0.081 -0.3269  1.4960  2.4928
  990SOL     OW 2968   0.946   0.513   2.186 -0.0535 -0.0341 -0.2771
  990SOL    HW1 2969   1.039   0.531   2.139  1.1478  0.9402 -1.4488
  990SOL    HW2 2970   0.949   0.540   2.285 -0.9180  0.5377  1.2190
  991SOL     OW 2971   1.224   1.136   0.680 -0.2500 -0.2351  0.2227
  991SOL    HW1 2972   1.166   1.221   0.686 -2.1306 -0.7455  3.0817
  991SOL    HW2 2973   1.260   1.115   0.588 -1.3774  2.3079  1.5509
  992SOL     OW 2974   2.310   1.369   0.885 -0.1038  0.2427 -0.0733
  992SOL    HW1 2975   2.320   1.301   0.965  0.3570  1.2022  0.4680
  992SOL    HW2 2976   2.325   1.319   0.802 -0.6456  3.1186  0.0389
  993SOL     OW 2977   3.011   0.697   0.906 -0.1274 -0.2536  0.2386
  993SOL    HW1 2978   0.014   0.737   0.872  1.4998  1.3085  0.4179
  993SOL    HW2 2979   2.996   0.698   1.010  0.4003  0.8030  2.6156
  994SOL     OW 2980   0.314   2.207   2.595  0.3260  0.2938 -0.4099
  994SOL    HW1 2981   0.215   2.220   2.559 -1.2714 -0.4491  0.0159
  994SOL    HW2 2982   0.315   2.223   2.697 -1.8109 -0.9010 -0.5553
  995SOL     OW 2983   1.962   1.164   2.589 -0.4643  0.1898  0.4020
  995SOL    HW1 2984   1.889   1.139   2.516  0.4384  0.4460 -0.4376
  995SOL    HW2 2985   1.963   1.265   2.610  1.3855 -1.0299  0.1232
  996SOL     OW 2986   2.808   1.034   0.710  0.2596  0.5755 -0.5872
  996SOL    HW1 2987   2.752   1.056   0.628 -2.3662 -0.4121  2.0958
  996SOL    HW2 2988   2.872   0.957   0.692  0.5630  1.5461  1.9675
  997SOL     OW 2989   1.874   1.058   1.776 -0.2009  0.1850 -0.3307
  997SOL    HW1 2990   1.822   1.142   1.755 -0.3972 -2.5247  0.8400
  997SOL    HW2 2991   1.931   1.029   1.693  1.5788  0.1238 -1.4236
  998SOL     OW 2992   2.658   1.918   0.245  0.0327  0.4325 -0.4233
  998SOL    HW1 2993   2.594   1.869   0.186 -2.0337 -0.0987  0.3062
  998SOL    HW2 2994   2.682   1.859   0.323  3.0264  0.9701 -0.4223
  999SOL     OW 2995   3.070   2.068   3.072  0.1473 -0.0013 -0.0659
  999SOL    HW1 2996   3.064   2.116   2.978  0.7384 -0.2188 -2.0829
  999SOL    HW2 2997   2.981   2.082   0.031  0.5858 -0.8200 -1.3895
 1000SOL     OW 2998   0.944   1.153   2.092 -0.3882  0.6703 -0.0449
 1000SOL    HW1 2999   0.894   1.076   2.049  1.3144  3.1295  1.0834
 1000SOL    HW2 3000   1.036   1.119   2.131 -0.0491 -0.7505  1.2162
   3.08901   3.08901   3.08901
