1000 SPC/Fw water molecules t=  22.00000 step= 22000
 3000
    1SOL     OW    1   1.881   2.677   0.282  0.0570 -0.0219 -0.4716
    1SOL    HW1    2   1.969   2.634   0.322  2.9637  1.1320  1.8331
    1SOL    HW2    3   1.808   2.608   0.263  3.1382 -0.6789 -0.3658
    2SOL     OW    4   1.172   0.823   2.034  0.1568 -0.5955  0.2924
    2SOL    HW1    5   1.253   0.765   2.022  1.6144  0.8026  0.1120
    2SOL    HW2    6   1.127   0.799   2.124 -0.6987 -0.6413 -0.4720
    3SOL     OW    7   0.832   3.002   2.801  0.3525 -0.1399 -0.8518
    3SOL    HW1    8   0.890   2.986   2.716  1.6630 -0.5726 -1.3426
    3SOL    HW2    9   0.878   2.965   2.883 -1.5996 -1.1916 -1.6462
    4SOL     OW   10   1.661   1.622   3.021  0.1120 -0.2839  0.2781
    4SOL    HW1   11   1.636   1.526   3.040  1.0824 -1.5345 -0.8377
    4SOL    HW2   12   1.580   1.686   2.999  2.6868  0.2362 -1.5306
    5SOL     OW   13   0.897   1.019   2.188  0.5716  0.0196 -0.2342
    5SOL    HW1   14   0.935   1.097   2.139 -3.4748 -2.4284  1.4579
    5SOL    HW2   15   0.820   1.045   2.248  1.7081  0.0995 -0.2104
    6SOL     OW   16   2.090   0.890   2.732  0.1030 -0.0517  0.0771
    6SOL    HW1   17   2.116   0.790   2.739 -1.7466 -1.0908  0.9887
    6SOL    HW2   18   2.154   0.948   2.792 -1.6450 -0.5559  2.6992
    7SOL     OW   19   0.391   0.850   1.239 -0.0071 -0.3033 -0.2026
    7SOL    HW1   20   0.407   0.797   1.157 -3.0196 -0.3339  5.7594
    7SOL    HW2   21   0.370   0.949   1.224  0.2309  3.4197 -1.6456
    8SOL     OW   22   1.996   2.886   2.081 -0.5265  0.8039 -0.6966
    8SOL    HW1   23   1.929   2.835   2.025  0.4929 -1.5707 -1.1341
    8SOL    HW2   24   2.022   2.973   2.037  0.9706  1.2527  1.8134
    9SOL     OW   25   0.131   2.676   0.596  0.3052 -0.2431  0.1124
    9SOL    HW1   26   0.121   2.618   0.512 -0.2984  0.5290 -0.1344
    9SOL    HW2   27   0.055   2.746   0.616 -0.1507  2.5346 -0.5364
   10SOL     OW   28   2.972   2.294   2.373 -0.5720  0.0669  0.0613
   10SOL    HW1   29   3.010   2.350   2.297  0.5232  0.8206 -1.0026
   10SOL    HW2   30   2.999   2.195   2.361 -1.3887 -4.2350  0.0129
   11SOL     OW   31   0.711   1.592   0.069  0.1486 -0.8062  0.5778
   11SOL    HW1   32   0.640   1.531   0.107 -1.5301  1.8482 -1.8434
   11SOL    HW2   33   0.686   1.650   3.115 -0.7042 -0.5405 -0.0101
   12SOL     OW   34   2.149   2.832   0.852 -0.1595 -0.1819  0.1958
   12SOL    HW1   35   2.160   2.922   0.900  1.5295  0.5685  3.8761
   12SOL    HW2   36   2.062   2.817   0.801 -1.6174 -1.2073  0.4414
   13SOL     OW   37   0.243   0.222   2.782 -0.1456  0.2466  0.2189
   13SOL    HW1   38   0.187   0.249   2.863  0.2057 -1.1404 -0.7834
   13SOL    HW2   39   0.240   0.294   2.713  1.3734 -2.1456  1.2252
   14SOL     OW   40   1.582   1.245   1.485  0.8018  0.2004 -0.4512
   14SOL    HW1   41   1.601   1.222   1.580  0.6664 -0.0939  0.3377
   14SOL    HW2   42   1.513   1.323   1.489 -0.2268  1.0009  2.1637
   15SOL     OW   43   0.493   1.479   2.057  0.0461  0.3547 -0.3956
   15SOL    HW1   44   0.438   1.481   1.974  2.1492  0.9188  0.8419
   15SOL    HW2   45   0.491   1.385   2.103 -2.3914  0.0962  1.1848
   16SOL     OW   46   1.680   0.865   2.677 -0.0111 -0.0707  0.3962
   16SOL    HW1   47   1.650   0.929   2.749  2.5421 -1.1381 -1.3621
   16SOL    HW2   48   1.753   0.913   2.624 -2.4500 -0.3601 -1.5087
   17SOL     OW   49   3.073   2.458   2.194 -0.0896  0.3251 -0.2042
   17SOL    HW1   50   3.047   2.558   2.176  2.0885  1.2742  2.5054
   17SOL    HW2   51   3.068   2.406   2.104 -0.0565  0.0846  1.2818
   18SOL     OW   52   1.658   1.227   0.550  0.2889 -0.0690 -0.3484
   18SOL    HW1   53   1.707   1.147   0.589  0.2917  0.3128  2.7794
   18SOL    HW2   54   1.688   1.246   0.455  0.9530  0.0158 -2.1925
   19SOL     OW   55   0.224   1.295   1.977  0.0744 -0.1638  0.2086
   19SOL    HW1   56   0.286   1.268   2.054  1.1048 -1.0296  0.0708
   19SOL    HW2   57   0.261   1.368   1.912  1.1812  0.9312 -2.4519
   20SOL     OW   58   1.953   2.368   2.935  0.0896 -0.3825  0.2951
   20SOL    HW1   59   2.032   2.378   3.001 -0.1612 -0.4846  0.8230
   20SOL    HW2   60   1.931   2.459   2.895  0.5608  0.6554 -1.2411
   21SOL     OW   61   1.834   1.760   1.070  0.5437  0.6422 -0.4726
   21SOL    HW1   62   1.826   1.841   1.136 -1.0880  1.5756  2.3756
   21SOL    HW2   63   1.926   1.769   1.023 -1.0722 -0.0798 -0.7607
   22SOL     OW   64   2.110   2.200   1.450 -0.4558  0.6554 -0.0684
   22SOL    HW1   65   2.036   2.164   1.516 -2.0140 -1.4976 -0.3700
   22SOL    HW2   66   2.073   2.233   1.367  2.5889 -0.1597 -0.0749
   23SOL     OW   67   0.119   1.161   1.248  0.2239  0.4355  0.1421
   23SOL    HW1   68   0.069   1.111   1.321  1.2983 -0.3329 -0.3398
   23SOL    HW2   69   0.109   1.111   1.160 -1.0660 -0.4969 -2.4550
   24SOL     OW   70   1.655   1.210   1.741 -0.0947 -0.6898 -0.2618
   24SOL    HW1   71   1.625   1.118   1.779  0.1928 -0.6182 -0.5320
   24SOL    HW2   72   1.750   1.221   1.775  1.9049  0.7882  1.4950
   25SOL     OW   73   1.894   0.107   2.276  0.0165 -0.1898 -0.4349
   25SOL    HW1   74   1.951   0.039   2.324  1.3405  1.3197  2.0181
   25SOL    HW2   75   1.839   0.163   2.339  1.0958  0.9241 -1.7174
   26SOL     OW   76   0.555   3.006   0.671 -0.0164 -0.1549 -0.4716
   26SOL    HW1   77   0.640   3.037   0.720 -1.8199 -0.8582  0.4183
   26SOL    HW2   78   0.545   2.907   0.669  0.4787 -1.3985  1.1971
   27SOL     OW   79   1.437   1.234   1.091  0.1710 -0.3277  0.0405
   27SOL    HW1   80   1.529   1.222   1.123 -4.6801 -0.6794 -1.0234
   27SOL    HW2   81   1.440   1.255   0.991  1.0176 -0.4675 -1.3405
   28SOL     OW   82   2.374   2.423   1.046 -0.6513  0.1549 -0.0579
   28SOL    HW1   83   2.411   2.485   1.119 -0.6206 -0.4105  0.4375
   28SOL    HW2   84   2.341   2.481   0.969  2.3485 -0.5493  1.7997
   29SOL     OW   85   2.029   2.996   2.331  0.4430 -0.0594  0.2514
   29SOL    HW1   86   2.013   2.950   2.240  0.5281 -0.8284  0.2058
   29SOL    HW2   87   2.124   2.976   2.361 -4.0326  0.3913 -0.4607
   30SOL     OW   88   0.083   2.806   1.905  0.0919 -0.4242  0.7403
   30SOL    HW1   89   0.048   2.822   1.811  0.9708 -0.6894  2.9818
   30SOL    HW2   90   0.097   2.891   1.960 -0.7358  0.4515  0.5852
   31SOL     OW   91   3.117   1.650   2.072  0.0987 -0.4783  0.6306
   31SOL    HW1   92   0.071   1.664   2.139 -1.2175  0.5647  1.1527
   31SOL    HW2   93   0.037   1.632   1.980 -0.4810 -0.1821 -1.5873
   32SOL     OW   94   1.382   2.375   2.210 -0.4356 -0.0545 -0.5283
   32SOL    HW1   95   1.281   2.382   2.209  1.8056  0.5655 -0.1937
   32SOL    HW2   96   1.412   2.296   2.265 -1.9232  0.5680  0.4262
   33SOL     OW   97   0.090   0.319   2.978  0.0399  0.2902  0.4719
   33SOL    HW1   98   0.122   0.244   3.043 -0.2407 -0.5511 -0.1872
   33SOL    HW2   99   0.098   0.415   3.015 -2.6797  1.5668 -1.2485
   34SOL     OW  100   2.851   0.138   0.306  0.3837 -0.0270 -0.0741
   34SOL    HW1  101   2.902   0.050   0.289  0.7646  1.7912 -2.3773
   34SOL    HW2  102   2.889   0.214   0.241 -0.1742  0.5175 -1.0951
   35SOL     OW  103   2.851   2.669   1.708  0.3086 -0.6598 -0.1079
   35SOL    HW1  104   2.766   2.667   1.768 -1.0425  3.1944  1.1736
   35SOL    HW2  105   2.820   2.731   1.629 -1.6407  3.2508 -0.0702
   36SOL     OW  106   2.289   3.003   2.357 -0.2040  0.1597  0.2725
   36SOL    HW1  107   2.322   2.971   2.450 -0.1861  2.4981  0.3560
   36SOL    HW2  108   2.332   3.094   2.332  1.4860  1.4848 -0.7727
   37SOL     OW  109   1.571   0.025   3.076  0.4799 -0.5698  0.1990
   37SOL    HW1  110   1.550   3.080   0.023  0.7812  1.3047 -2.4228
   37SOL    HW2  111   1.540   0.001   2.983  0.8655  2.2306  0.8126
   38SOL     OW  112   0.291   0.623   0.394  0.4761  0.6399  0.4297
   38SOL    HW1  113   0.333   0.595   0.489 -0.1465 -0.9602  0.5310
   38SOL    HW2  114   0.335   0.712   0.363  1.8501 -1.5072  1.6999
   39SOL     OW  115   0.785   1.817   2.006 -0.0966 -0.3982  0.1869
   39SOL    HW1  116   0.840   1.775   2.081  1.8472 -0.7176  1.3722
   39SOL    HW2  117   0.835   1.890   1.955 -2.8933  0.0951 -0.4517
   40SOL     OW  118   2.991   0.576   2.976  0.7731  0.9461 -0.3518
   40SOL    HW1  119   3.023   0.542   2.884  0.4082 -0.9794  0.5536
   40SOL    HW2  120   3.060   0.556   3.048 -2.0081  0.0736 -0.6398
   41SOL     OW  121   1.179   0.811   1.757  0.0227  0.2413 -0.4065
   41SOL    HW1  122   1.278   0.805   1.730 -1.1039  0.0321  2.3809
   41SOL    HW2  123   1.165   0.827   1.862 -0.2148  0.8274  1.5710
   42SOL     OW  124   2.450   0.142   1.176  0.0064 -0.5082 -0.2978
   42SOL    HW1  125   2.472   0.195   1.094 -2.7910 -1.6429  1.0157
   42SOL    HW2  126   2.486   0.190   1.258 -0.2589 -0.6117  1.6610
   43SOL     OW  127   1.434   0.749   1.696 -0.1306 -0.3188 -0.5023
   43SOL    HW1  128   1.432   0.762   1.597  3.2647  1.8201  3.2509
   43SOL    HW2  129   1.477   0.660   1.717 -1.3574  0.0172 -1.4588
   44SOL     OW  130   0.081   0.539   0.007 -0.1025 -0.3557  0.4787
   44SOL    HW1  131   0.112   0.488   0.095  0.1266 -0.5111  0.0318
   44SOL    HW2  132   0.109   0.639   0.010  0.4217  0.4194  0.2517
   45SOL     OW  133   0.455   1.771   1.835 -0.2611  0.0059  0.1232
   45SOL    HW1  134   0.523   1.790   1.760 -1.9272 -1.9798 -0.9794
   45SOL    HW2  135   0.419   1.677   1.830  1.0422 -0.3329 -2.2730
   46SOL     OW  136   2.222   3.053   1.716 -0.5971  0.0442 -0.5237
   46SOL    HW1  137   2.290   3.003   1.781  4.3987 -2.3690  4.0005
   46SOL    HW2  138   2.168   2.986   1.660 -0.1012 -1.7548  2.2195
   47SOL     OW  139   0.200   1.835   1.346  1.0380  0.4933  0.3722
   47SOL    HW1  140   0.190   1.758   1.409  1.5359 -0.2035 -2.8527
   47SOL    HW2  141   0.296   1.829   1.311  1.1455  1.2861 -0.0294
   48SOL     OW  142   1.036   2.549   2.868  0.0333 -0.7612  0.7621
   48SOL    HW1  143   0.945   2.518   2.828 -0.3172  0.6059 -1.1744
   48SOL    HW2  144   1.026   2.527   2.969 -1.5096  2.0425  2.1543
   49SOL     OW  145   2.557   1.428   1.771 -0.3462  0.0786 -0.1199
   49SOL    HW1  146   2.641   1.485   1.758  1.4782 -2.0971 -1.9188
   49SOL    HW2  147   2.582   1.339   1.810 -1.8014 -0.9413 -1.3926
   50SOL     OW  148   1.220   2.902   0.362 -0.2332 -0.3568 -0.0058
   50SOL    HW1  149   1.269   2.960   0.429 -0.0855 -1.4861 -1.3452
   50SOL    HW2  150   1.175   2.953   0.284 -4.2277 -0.8667  1.0717
   51SOL     OW  151   1.193   0.301   1.133 -0.1115  0.0284  0.1836
   51SOL    HW1  152   1.110   0.326   1.192 -2.3512  0.7420  3.3352
   51SOL    HW2  153   1.275   0.308   1.184 -2.4421 -0.8953 -1.5248
   52SOL     OW  154   0.513   1.205   0.319 -0.5915  0.6476  0.0873
   52SOL    HW1  155   0.510   1.122   0.258 -0.6442 -0.7072  0.5481
   52SOL    HW2  156   0.601   1.204   0.371 -0.2616 -0.6472 -0.4756
   53SOL     OW  157   1.247   2.782   2.579  0.4731  0.9475 -0.3637
   53SOL    HW1  158   1.211   2.806   2.670 -1.1795  0.6015 -1.1088
   53SOL    HW2  159   1.343   2.809   2.564 -1.0191 -1.0121 -0.0806
   54SOL     OW  160   2.060   0.231   2.108 -0.1548  0.1213 -0.3473
   54SOL    HW1  161   1.986   0.185   2.163 -1.5375 -0.8284  0.8582
   54SOL    HW2  162   2.071   0.330   2.139 -1.4504  3.7744  1.4546
   55SOL     OW  163   2.934   2.436   0.177  0.0468  0.3503 -0.6476
   55SOL    HW1  164   3.004   2.373   0.142 -1.0515 -0.5336  0.0510
   55SOL    HW2  165   2.959   2.534   0.161 -0.9276 -0.7911 -0.7572
   56SOL     OW  166   0.761   0.108   1.781 -0.4526 -0.1561  0.1057
   56SOL    HW1  167   0.669   0.122   1.829  0.8340 -0.9324  1.0875
   56SOL    HW2  168   0.820   0.045   1.829 -0.1401  0.7788  1.0561
   57SOL     OW  169   1.945   1.065   2.548 -0.2077  0.0671  0.1501
   57SOL    HW1  170   2.006   0.995   2.589 -0.3763 -0.8030 -0.3728
   57SOL    HW2  171   1.885   1.038   2.469  0.6426 -3.0945  0.1911
   58SOL     OW  172   3.045   1.089   2.214 -0.2677 -0.2445  0.0508
   58SOL    HW1  173   0.025   1.076   2.222  2.3591 -1.8421 -1.1203
   58SOL    HW2  174   3.022   1.103   2.118  1.7804  0.2207  1.6393
   59SOL     OW  175   0.803   2.621   1.713  0.1050  0.1438 -0.1895
   59SOL    HW1  176   0.716   2.675   1.695 -1.6273 -1.5043  1.8439
   59SOL    HW2  177   0.842   2.588   1.626 -1.2603 -0.2465  2.4882
   60SOL     OW  178   2.103   2.546   0.366  0.0292 -0.1055  0.2582
   60SOL    HW1  179   2.128   2.474   0.431  1.5692  4.1553 -0.5538
   60SOL    HW2  180   2.182   2.549   0.301  1.3029  0.8507 -0.8877
   61SOL     OW  181   1.558   2.579   0.511 -0.6536  0.6080 -0.5555
   61SOL    HW1  182   1.614   2.517   0.570 -0.7540 -1.7965  0.4386
   61SOL    HW2  183   1.460   2.573   0.543 -1.0655 -0.7093  0.1166
   62SOL     OW  184   1.703   2.773   2.987  0.0266  0.5001 -0.0536
   62SOL    HW1  185   1.637   2.779   2.913 -2.2001  3.8630  4.1133
   62SOL    HW2  186   1.678   2.705   3.055  2.9162 -0.0196 -0.8144
   63SOL     OW  187   2.405   0.387   0.056  0.1490  0.2234 -0.2976
   63SOL    HW1  188   2.436   0.472   0.012 -1.5431  0.8471  1.3436
   63SOL    HW2  189   2.398   0.402   0.153  2.0250 -0.0570  1.8084
   64SOL     OW  190   1.435   0.971   2.979  0.4451  0.3458 -0.3339
   64SOL    HW1  191   1.367   0.894   2.989  0.2933  1.4488  2.2663
   64SOL    HW2  192   1.391   1.062   3.005 -0.9592 -1.6973 -1.1794
   65SOL     OW  193   0.491   2.423   1.396 -0.5770  0.1529 -0.0019
   65SOL    HW1  194   0.444   2.364   1.325  2.6563  1.3677 -1.0453
   65SOL    HW2  195   0.553   2.494   1.356  2.7084  0.7302  0.4871
   66SOL     OW  196   1.056   1.383   1.380 -0.3682 -0.2637 -0.0455
   66SOL    HW1  197   1.143   1.337   1.354  1.0622 -0.8981  0.7261
   66SOL    HW2  198   1.045   1.392   1.478 -0.6613  0.1369 -3.5167
   67SOL     OW  199   2.437   2.056   1.807  0.1134 -0.1295 -0.3077
   67SOL    HW1  200   2.518   2.114   1.787  1.2640 -1.7932 -1.8488
   67SOL    HW2  201   2.430   1.971   1.750 -2.6340 -2.3370 -0.3939
   68SOL     OW  202   0.751   1.292   1.787  0.2215  0.0382  0.1386
   68SOL    HW1  203   0.673   1.222   1.765 -1.2034 -1.6117 -4.8741
   68SOL    HW2  204   0.729   1.389   1.819 -2.0708  0.9338  2.2108
   69SOL     OW  205   0.042   2.973   2.997 -0.1587  0.6145 -0.0792
   69SOL    HW1  206   0.125   2.997   3.050  0.6351 -0.1058  0.1781
   69SOL    HW2  207   3.096   3.045   3.018  0.6580  1.1312 -0.9660
   70SOL     OW  208   2.299   1.105   2.642  0.1688 -0.6478 -0.2049
   70SOL    HW1  209   2.348   1.042   2.582 -0.0778 -1.6531  1.4620
   70SOL    HW2  210   2.324   1.202   2.613  0.5566  0.5886 -2.1878
   71SOL     OW  211   0.821   2.016   1.002 -0.2034  0.2936 -0.5541
   71SOL    HW1  212   0.774   2.089   1.057  1.1912  0.3060  1.1348
   71SOL    HW2  213   0.753   1.983   0.932 -0.3371  0.9491  0.4954
   72SOL     OW  214   2.746   2.142   0.579  0.1239 -0.1920 -0.7116
   72SOL    HW1  215   2.759   2.215   0.508 -0.1659  0.3469  0.3938
   72SOL    HW2  216   2.750   2.180   0.677 -0.5758  1.1477  4.2545
   73SOL     OW  217   1.549   0.532   1.083 -0.4249 -0.2671 -0.2545
   73SOL    HW1  218   1.597   0.586   1.016  2.9176 -0.5417  0.9971
   73SOL    HW2  219   1.487   0.582   1.144  0.2078 -0.7912  0.3565
   74SOL     OW  220   2.790   2.001   2.179  0.5648 -0.1657 -0.2069
   74SOL    HW1  221   2.825   2.094   2.157  1.4122  2.6662 -0.5753
   74SOL    HW2  222   2.811   1.968   2.273 -1.6457  0.4651 -1.8777
   75SOL     OW  223   1.626   1.721   1.733 -0.5608  0.0017  0.1716
   75SOL    HW1  224   1.561   1.663   1.780  3.9944  0.0483 -1.8952
   75SOL    HW2  225   1.717   1.680   1.733 -3.3461  1.6040 -1.3799
   76SOL     OW  226   1.485   1.657   1.120 -0.1147  0.7820 -0.4592
   76SOL    HW1  227   1.519   1.718   1.044 -3.1367 -1.6589  0.9757
   76SOL    HW2  228   1.558   1.591   1.151 -0.7574  2.4820 -2.7666
   77SOL     OW  229   2.482   1.142   1.651  0.0894  0.3975 -0.3856
   77SOL    HW1  230   2.447   1.230   1.678 -1.2485 -0.0718 -2.1627
   77SOL    HW2  231   2.447   1.120   1.554  0.8270 -0.5100  0.3570
   78SOL     OW  232   1.573   0.840   0.277  0.2624  0.5897 -0.4145
   78SOL    HW1  233   1.595   0.769   0.207 -0.6042  0.5698 -0.7457
   78SOL    HW2  234   1.549   0.794   0.364  0.2153  0.3874 -1.1102
   79SOL     OW  235   1.186   1.590   2.221 -0.3439 -0.2125  0.1778
   79SOL    HW1  236   1.163   1.621   2.316  0.5282 -0.6696  1.5275
   79SOL    HW2  237   1.179   1.490   2.211  1.2253  2.3722  0.1282
   80SOL     OW  238   1.173   0.378   1.553 -0.5443 -0.1736 -0.7281
   80SOL    HW1  239   1.126   0.452   1.607 -0.9945  3.3533  1.6272
   80SOL    HW2  240   1.203   0.305   1.620  2.6246  2.5028 -4.9550
   81SOL     OW  241   0.344   2.532   0.216 -0.1950 -0.4874  0.0720
   81SOL    HW1  242   0.408   2.544   0.141 -1.2372 -0.9461 -0.5428
   81SOL    HW2  243   0.394   2.487   0.292 -2.9697 -0.9347 -3.4405
   82SOL     OW  244   1.204   0.172   1.725  0.2567 -0.0809 -0.0203
   82SOL    HW1  245   1.130   0.174   1.798  0.9829 -1.5664 -2.1958
   82SOL    HW2  246   1.272   0.099   1.744  1.9338  0.7360  0.9048
   83SOL     OW  247   0.441   2.105   1.049  0.0648 -0.0989 -0.1092
   83SOL    HW1  248   0.342   2.136   1.046  1.3695  2.0900  0.3852
   83SOL    HW2  249   0.468   2.091   0.956 -0.0867  2.1886  0.3753
   84SOL     OW  250   2.962   1.635   0.795  0.5567  0.5191 -0.3061
   84SOL    HW1  251   2.904   1.552   0.765 -0.0277 -0.0783 -2.8620
   84SOL    HW2  252   3.054   1.640   0.756  1.0602 -1.6096 -0.6075
   85SOL     OW  253   2.219   1.962   1.357 -0.0106 -0.0316 -0.1849
   85SOL    HW1  254   2.165   2.036   1.407 -0.2501 -2.7385  1.9876
   85SOL    HW2  255   2.180   1.869   1.368 -0.5634  1.7778 -0.8962
   86SOL     OW  256   1.619   2.370   2.032 -0.0292  0.1055  0.5040
   86SOL    HW1  257   1.593   2.401   1.938 -3.3398  0.5910  1.0530
   86SOL    HW2  258   1.535   2.380   2.088  1.1697 -0.0902 -0.4909
   87SOL     OW  259   2.393   1.599   0.638 -0.0270  0.0899 -0.1023
   87SOL    HW1  260   2.329   1.677   0.638  1.9863 -3.7433 -1.3131
   87SOL    HW2  261   2.408   1.561   0.546 -1.4697 -0.2275 -0.5507
   88SOL     OW  262   0.282   3.095   0.943  0.5302 -0.0341  0.0318
   88SOL    HW1  263   0.278   2.995   0.930  0.3909 -0.2837  0.0812
   88SOL    HW2  264   0.374   0.005   0.961 -0.0972  4.7591 -0.6450
   89SOL     OW  265   0.514   0.702   1.770  0.2354  0.2790  0.1153
   89SOL    HW1  266   0.565   0.774   1.723 -0.0251  0.0015  0.9241
   89SOL    HW2  267   0.581   0.652   1.827  1.6589  0.1395 -3.2507
   90SOL     OW  268   2.995   2.004   0.416 -0.3202  0.3050  0.3048
   90SOL    HW1  269   3.082   1.968   0.463  2.4568 -0.1366  0.5831
   90SOL    HW2  270   2.947   2.068   0.477 -0.8827 -0.2456  0.0435
   91SOL     OW  271   1.226   1.661   1.034 -0.0626  0.2894 -0.3038
   91SOL    HW1  272   1.167   1.651   1.117 -0.3436  0.2181 -0.0597
   91SOL    HW2  273   1.328   1.666   1.056 -0.8812  2.2331 -1.6150
   92SOL     OW  274   2.299   0.183   1.686  0.3649 -0.3541 -0.2749
   92SOL    HW1  275   2.376   0.195   1.625 -0.5677  1.3437  0.8616
   92SOL    HW2  276   2.277   0.081   1.689  0.5365  0.3726  0.6426
   93SOL     OW  277   0.650   1.311   2.870 -0.3209 -0.6252 -0.1822
   93SOL    HW1  278   0.733   1.375   2.850  1.6072 -0.5015  0.4793
   93SOL    HW2  279   0.574   1.343   2.810 -2.7089 -0.4132 -0.8334
   94SOL     OW  280   2.600   0.173   1.732  0.0950  0.2873 -0.3794
   94SOL    HW1  281   2.585   0.254   1.789  2.2457 -1.6981  2.3195
   94SOL    HW2  282   2.646   0.102   1.795  1.7018  0.2236 -3.7440
   95SOL     OW  283   1.856   0.442   2.002 -0.1486  0.6623 -0.2854
   95SOL    HW1  284   1.761   0.420   2.035 -1.9863 -0.5781 -2.7951
   95SOL    HW2  285   1.890   0.356   1.958 -0.9879 -2.9113  0.1036
   96SOL     OW  286   0.211   0.447   1.634 -0.2098  0.7837  0.3701
   96SOL    HW1  287   0.134   0.452   1.568 -0.3377 -0.1701 -0.3037
   96SOL    HW2  288   0.304   0.450   1.584 -1.2838 -1.2171 -4.2478
   97SOL     OW  289   1.902   0.084   1.557 -1.1363  0.2206  0.4771
   97SOL    HW1  290   1.823   0.118   1.497 -1.4236 -0.5796  1.1806
   97SOL    HW2  291   1.895   0.116   1.655  0.6536 -2.9472 -3.0218
   98SOL     OW  292   2.074   2.525   1.722  0.1716  0.1283  0.0880
   98SOL    HW1  293   2.166   2.530   1.676  2.0904 -2.6668 -1.0985
   98SOL    HW2  294   2.087   2.478   1.813 -1.1771 -1.9764  0.8718
   99SOL     OW  295   0.795   0.860   0.804 -0.4466 -0.0936 -0.1514
   99SOL    HW1  296   0.816   0.960   0.801 -0.5141  1.2187  0.6654
   99SOL    HW2  297   0.705   0.845   0.837  1.7760  0.2690 -2.5816
  100SOL     OW  298   2.862   1.721   2.166 -0.4485 -0.1752 -0.1716
  100SOL    HW1  299   2.854   1.821   2.135  0.6588 -0.0335  2.1545
  100SOL    HW2  300   2.956   1.682   2.135  2.4691 -1.0012  0.9113
  101SOL     OW  301   1.793   0.125   0.087 -0.0244  0.3563 -0.4655
  101SOL    HW1  302   1.780   0.225   0.061  1.1896 -0.3080 -0.0040
  101SOL    HW2  303   1.735   0.068   0.025 -1.0227 -1.1347 -1.9247
  102SOL     OW  304   3.060   3.012   1.213 -0.1713  0.6535  0.5800
  102SOL    HW1  305   3.026   3.040   1.121  1.4781 -1.4167  0.9906
  102SOL    HW2  306   3.083   2.914   1.208 -1.2341  3.8263 -3.0549
  103SOL     OW  307   0.078   2.969   2.268  0.0955 -0.2108  0.3126
  103SOL    HW1  308   3.098   2.947   2.282 -2.0421 -1.3538  0.8901
  103SOL    HW2  309   0.130   2.899   2.317 -1.2766  1.3519  2.8067
  104SOL     OW  310   0.366   2.089   1.568  0.0406 -0.3662 -0.3862
  104SOL    HW1  311   0.315   2.004   1.549  1.4751  0.4621 -1.2702
  104SOL    HW2  312   0.356   2.150   1.484  0.6371 -0.1965 -4.0031
  105SOL     OW  313   0.538   1.904   2.056  0.3060 -0.1972  0.1645
  105SOL    HW1  314   0.638   1.889   2.055  0.4051 -1.3105 -0.5034
  105SOL    HW2  315   0.506   1.854   1.971  2.0953  1.7867 -0.8557
  106SOL     OW  316   2.076   2.955   0.476 -0.0730 -0.3688 -0.2656
  106SOL    HW1  317   2.152   3.017   0.501  0.2021 -2.4070 -0.3280
  106SOL    HW2  318   2.015   3.011   0.419 -1.1569  0.3898 -1.4383
  107SOL     OW  319   0.688   1.090   1.395  0.3849  0.6408  0.2140
  107SOL    HW1  320   0.586   1.097   1.392  0.4184 -3.9166 -1.8936
  107SOL    HW2  321   0.717   1.015   1.331 -0.2753  0.9334 -0.8726
  108SOL     OW  322   2.839   1.196   2.363  0.0885  0.0890 -0.4192
  108SOL    HW1  323   2.930   1.161   2.341 -0.7401  0.6272 -0.7275
  108SOL    HW2  324   2.801   1.240   2.277  1.4423 -0.7073 -0.2347
  109SOL     OW  325   1.966   2.901   3.024 -0.1069  0.2815  0.0617
  109SOL    HW1  326   1.971   3.002   3.016  1.3788 -5.0631  1.0360
  109SOL    HW2  327   1.876   2.873   2.990  0.7037  3.5381 -0.2556
  110SOL     OW  328   0.148   2.034   3.085 -0.5860  0.2595  0.6440
  110SOL    HW1  329   0.046   2.042   3.062 -1.8229  0.3333  2.7465
  110SOL    HW2  330   0.173   1.935   3.088 -0.3985 -0.0634 -3.6123
  111SOL     OW  331   2.606   0.834   2.289 -0.5272 -0.3569 -0.0133
  111SOL    HW1  332   2.705   0.850   2.270 -2.1737  1.1631  2.0903
  111SOL    HW2  333   2.567   0.899   2.365  1.2468  2.5503 -0.1823
  112SOL     OW  334   2.278   2.756   1.515  0.4581  0.5061  0.2510
  112SOL    HW1  335   2.193   2.793   1.565 -1.5495 -1.1259  0.3589
  112SOL    HW2  336   2.307   2.665   1.548 -0.8296 -1.1327  2.2010
  113SOL     OW  337   2.010   2.310   2.621  0.2468 -0.7536 -0.2092
  113SOL    HW1  338   2.098   2.257   2.635  1.2670 -1.4849 -0.5074
  113SOL    HW2  339   1.955   2.308   2.705 -0.4401 -1.0986  0.7057
  114SOL     OW  340   0.445   0.249   0.601  0.2295  0.2934  0.1243
  114SOL    HW1  341   0.399   0.166   0.571 -0.0690 -0.8586 -0.0572
  114SOL    HW2  342   0.502   0.288   0.522  0.3685  1.5583 -0.2149
  115SOL     OW  343   0.084   1.634   0.070  0.0243 -0.6841  0.5272
  115SOL    HW1  344   0.134   1.562   0.121  0.7508  1.6498 -2.0566
  115SOL    HW2  345   0.149   1.701   0.030  1.6370  2.0616  3.6505
  116SOL     OW  346   3.000   1.216   1.636  0.0429  0.7190  0.0644
  116SOL    HW1  347   2.998   1.299   1.690  1.8070 -3.3052 -0.5055
  116SOL    HW2  348   2.905   1.181   1.618  2.0937 -2.6247  0.9292
  117SOL     OW  349   2.082   0.154   1.360 -0.4605 -0.3954  0.4276
  117SOL    HW1  350   2.133   0.244   1.376  0.4412  1.0165 -0.7454
  117SOL    HW2  351   2.013   0.128   1.431  0.7010  1.4299  0.8190
  118SOL     OW  352   2.789   2.842   2.005 -0.2009 -0.1188 -0.3500
  118SOL    HW1  353   2.724   2.811   1.933  0.9481 -0.0734  2.7937
  118SOL    HW2  354   2.877   2.797   1.986  0.3019 -2.7444 -0.8227
  119SOL     OW  355   0.440   1.695   1.530  0.3717 -0.2352  0.9141
  119SOL    HW1  356   0.508   1.628   1.498 -2.4752  1.8293  2.2749
  119SOL    HW2  357   0.481   1.775   1.575  0.4809  3.4307  0.1925
  120SOL     OW  358   0.319   1.496   1.834  0.0178  0.0122  0.0395
  120SOL    HW1  359   0.352   1.470   1.740  0.1358 -0.4648 -0.9596
  120SOL    HW2  360   0.247   1.569   1.835 -0.3113  0.3070 -0.1138
  121SOL     OW  361   1.475   0.962   0.889  0.2229 -0.1592 -0.2286
  121SOL    HW1  362   1.538   0.911   0.952 -0.5999  0.7343 -0.5543
  121SOL    HW2  363   1.510   1.053   0.870 -2.2205  0.7158 -2.0155
  122SOL     OW  364   2.421   2.495   2.640  0.1912  0.2953  0.3748
  122SOL    HW1  365   2.356   2.563   2.676  2.0120 -0.8068  0.8099
  122SOL    HW2  366   2.381   2.430   2.571 -1.3990  0.6349  1.7940
  123SOL     OW  367   2.971   3.009   0.300  0.2751  1.2070  0.3210
  123SOL    HW1  368   2.911   3.004   0.385 -3.8155  0.0249 -0.2192
  123SOL    HW2  369   3.047   2.940   0.293 -0.9777 -2.0290  1.0590
  124SOL     OW  370   1.715   1.279   0.273 -0.7198  0.4587  0.2922
  124SOL    HW1  371   1.657   1.247   0.192 -0.8783 -3.7648 -1.8429
  124SOL    HW2  372   1.799   1.328   0.237 -1.8740 -1.8435 -0.5683
  125SOL     OW  373   0.171   0.992   2.241 -0.1551  0.0881 -0.1430
  125SOL    HW1  374   0.137   0.900   2.256  0.1691  0.3761 -3.1130
  125SOL    HW2  375   0.269   0.996   2.220 -1.3113  2.7446  2.1277
  126SOL     OW  376   0.059   2.693   3.068  0.2843 -0.6259 -0.2271
  126SOL    HW1  377   0.033   2.729   0.036 -0.4873  1.0780 -1.5008
  126SOL    HW2  378   0.082   2.766   3.002  1.6378 -0.6033  0.4633
  127SOL     OW  379   2.915   2.013   0.167 -0.7422 -0.4223  0.3498
  127SOL    HW1  380   2.960   2.010   0.257 -1.4462 -0.6934  0.6510
  127SOL    HW2  381   2.818   1.992   0.173  2.4917  3.9355  1.2731
  128SOL     OW  382   1.143   0.990   0.964  0.6935 -1.3740  0.1180
  128SOL    HW1  383   1.114   1.090   0.948  1.7234 -0.4943  0.8902
  128SOL    HW2  384   1.229   0.988   1.021  0.5600 -0.6602  3.3201
  129SOL     OW  385   2.491   2.203   1.204 -0.1294 -0.1607 -0.2515
  129SOL    HW1  386   2.467   2.108   1.178 -0.7954  0.1375  0.9363
  129SOL    HW2  387   2.477   2.264   1.122 -0.8674 -0.3818 -0.4862
  130SOL     OW  388   2.023   0.900   0.419 -0.0517 -0.0199 -0.4252
  130SOL    HW1  389   2.115   0.920   0.383  1.3598 -2.0301  1.8499
  130SOL    HW2  390   1.948   0.954   0.372 -1.5865  1.0006  1.0310
  131SOL     OW  391   2.977   1.478   2.740  0.7604 -0.0758 -0.1769
  131SOL    HW1  392   2.980   1.568   2.697  0.0846 -0.6305 -0.4499
  131SOL    HW2  393   3.056   1.469   2.807 -1.0596 -2.1429 -1.5133
  132SOL     OW  394   1.137   1.333   2.174 -0.3980  0.3575  0.2871
  132SOL    HW1  395   1.082   1.396   2.108 -0.4953 -0.0964  1.7863
  132SOL    HW2  396   1.162   1.247   2.128 -1.4458  0.3748  1.1857
  133SOL     OW  397   0.479   1.307   0.657 -0.0226  0.2905  0.2713
  133SOL    HW1  398   0.546   1.294   0.581  0.4469 -1.1098 -1.4181
  133SOL    HW2  399   0.520   1.358   0.734 -0.3814 -1.1592 -2.6390
  134SOL     OW  400   2.971   1.371   0.174  0.4926  0.3377  0.3931
  134SOL    HW1  401   3.000   1.295   0.110  0.5321 -1.7357  0.2736
  134SOL    HW2  402   2.907   1.428   0.122  0.1309  0.9461  0.4108
  135SOL     OW  403   1.552   0.661   0.012  0.4493 -0.2628  0.2850
  135SOL    HW1  404   1.486   0.716   3.076 -1.1507  2.5804 -0.3956
  135SOL    HW2  405   1.644   0.687   3.099  2.5826 -1.6099 -0.4804
  136SOL     OW  406   2.104   1.696   1.362  0.3292 -0.4261  0.0652
  136SOL    HW1  407   2.139   1.632   1.294 -0.6558  2.1930  2.5643
  136SOL    HW2  408   2.000   1.696   1.346  1.1977 -0.2916 -2.7839
  137SOL     OW  409   2.312   2.626   0.824 -0.2380  0.0102  0.1105
  137SOL    HW1  410   2.252   2.709   0.836 -1.2336  0.9830  1.2008
  137SOL    HW2  411   2.250   2.546   0.802 -0.5778 -2.1138 -0.0982
  138SOL     OW  412   2.274   0.470   1.926  0.1270 -0.3011 -0.1440
  138SOL    HW1  413   2.245   0.490   2.026 -1.6747 -0.8396  0.4326
  138SOL    HW2  414   2.205   0.405   1.881  2.3954  1.0399  0.0865
  139SOL     OW  415   2.577   2.805   2.957  0.2644 -0.0188 -0.2496
  139SOL    HW1  416   2.669   2.800   2.996 -3.2023 -1.4238 -0.8815
  139SOL    HW2  417   2.573   2.756   2.867  1.4994  1.5966 -1.6765
  140SOL     OW  418   1.635   1.834   2.378  0.1985 -0.1515 -0.0687
  140SOL    HW1  419   1.678   1.893   2.308  1.2378 -0.9148  0.3267
  140SOL    HW2  420   1.644   1.734   2.356  0.2950 -2.0647  0.2433
  141SOL     OW  421   0.947   1.114   2.499  0.1630  0.1978 -0.1298
  141SOL    HW1  422   0.906   1.209   2.484  1.0611 -1.7387 -0.9103
  141SOL    HW2  423   1.046   1.118   2.512 -0.1405  0.3585 -1.2966
  142SOL     OW  424   2.347   2.875   1.894  0.5662  0.5076  0.0274
  142SOL    HW1  425   2.387   2.940   1.963  1.1596 -1.1869  1.4637
  142SOL    HW2  426   2.300   2.793   1.940 -1.3597 -4.2515  2.8146
  143SOL     OW  427   1.154   2.323   0.456 -0.2220 -0.1000  0.0987
  143SOL    HW1  428   1.210   2.355   0.378 -0.0300  1.9791  1.3485
  143SOL    HW2  429   1.061   2.297   0.430  3.7115  1.5243 -2.1165
  144SOL     OW  430   1.175   2.718   0.564 -0.8897 -0.4359  0.1072
  144SOL    HW1  431   1.205   2.767   0.476 -1.5984 -1.2590 -4.6845
  144SOL    HW2  432   1.082   2.751   0.594 -2.7597  0.5865  0.7707
  145SOL     OW  433   1.742   2.667   2.349  0.4404  0.3422  0.4086
  145SOL    HW1  434   1.644   2.642   2.328 -2.9261  0.2159 -3.0174
  145SOL    HW2  435   1.752   2.764   2.376  0.1606 -1.0545 -2.3055
  146SOL     OW  436   2.029   2.863   0.155 -0.6582 -0.0775 -0.3078
  146SOL    HW1  437   1.993   2.878   0.059 -0.2067 -0.1161  0.1915
  146SOL    HW2  438   1.975   2.787   0.192  1.0366 -0.3274  0.0818
  147SOL     OW  439   0.172   1.643   1.533  0.2720  0.2068 -0.4210
  147SOL    HW1  440   0.270   1.657   1.544 -3.6867  1.4169  0.8077
  147SOL    HW2  441   0.141   1.551   1.503 -1.7188 -0.5095  0.7430
  148SOL     OW  442   1.761   2.922   0.344  0.6442  0.3922 -0.6096
  148SOL    HW1  443   1.840   2.990   0.331  3.7102  1.1493 -0.3458
  148SOL    HW2  444   1.792   2.829   0.331 -0.2396  0.1573  0.7315
  149SOL     OW  445   0.633   1.889   3.030  0.1255 -0.4829 -0.0136
  149SOL    HW1  446   0.728   1.932   3.041 -0.7441  1.2214  0.8987
  149SOL    HW2  447   0.561   1.960   3.052 -0.9680 -2.0694  0.0184
  150SOL     OW  448   0.253   2.570   1.072 -0.4533  0.0032 -0.1420
  150SOL    HW1  449   0.268   2.632   1.151  1.4936 -0.2480  0.7022
  150SOL    HW2  450   0.199   2.628   1.009 -0.6501  2.9437 -1.0002
  151SOL     OW  451   0.459   1.152   2.991 -0.4480  0.2149  0.0903
  151SOL    HW1  452   0.523   1.222   2.953 -1.7549 -1.5982  0.9323
  151SOL    HW2  453   0.385   1.201   3.031  1.7330 -1.1558 -3.4686
  152SOL     OW  454   3.104   2.235   0.831  0.3411 -0.0315  0.6275
  152SOL    HW1  455   3.012   2.191   0.852 -0.7140  0.2371  2.6034
  152SOL    HW2  456   3.097   2.332   0.799  2.1102  1.0414 -1.4480
  153SOL     OW  457   1.718   2.382   0.627 -0.6417 -0.2787  0.7220
  153SOL    HW1  458   1.788   2.343   0.558  2.0712 -0.0654 -1.0534
  153SOL    HW2  459   1.663   2.309   0.662  1.6869  1.5389 -0.6964
  154SOL     OW  460   0.554   2.949   1.513  0.0019  0.1598 -0.0497
  154SOL    HW1  461   0.492   3.026   1.490 -1.9555  1.3208 -0.6735
  154SOL    HW2  462   0.652   2.977   1.523  1.4809 -0.7150 -1.8180
  155SOL     OW  463   2.820   2.338   0.395  0.6294 -0.3531 -0.0719
  155SOL    HW1  464   2.866   2.415   0.444  0.7259 -0.0547 -0.3236
  155SOL    HW2  465   2.837   2.346   0.293 -0.3384  0.6369  1.4772
  156SOL     OW  466   2.626   1.935   0.104 -0.0248 -0.0210  0.3409
  156SOL    HW1  467   2.643   1.995   0.023  0.2879 -3.4178  1.3501
  156SOL    HW2  468   2.554   1.968   0.170  1.2958 -1.3829 -2.5936
  157SOL     OW  469   0.457   2.803   1.927 -0.1382 -0.0584 -0.1688
  157SOL    HW1  470   0.415   2.901   1.927  0.0775 -2.6457  1.1745
  157SOL    HW2  471   0.388   2.727   1.955 -2.6475 -1.8141 -0.9456
  158SOL     OW  472   1.334   0.688   1.178  0.6520 -0.3437  0.2191
  158SOL    HW1  473   1.361   0.785   1.155  0.5943  1.5522 -0.8262
  158SOL    HW2  474   1.275   0.688   1.261  0.7202 -1.2619 -1.4981
  159SOL     OW  475   1.886   1.022   0.069  0.8693 -0.9923  0.6374
  159SOL    HW1  476   1.909   0.995   3.101 -3.0348 -2.0153  3.1406
  159SOL    HW2  477   1.892   0.944   0.132  0.7367 -1.6956 -1.4494
  160SOL     OW  478   1.236   1.914   0.529 -0.2996  0.9825  0.8460
  160SOL    HW1  479   1.283   2.006   0.528  0.0101 -1.1730 -1.8274
  160SOL    HW2  480   1.228   1.874   0.626  1.6246 -2.1818 -0.4982
  161SOL     OW  481   2.254   2.187   2.658  0.0978 -0.2464 -0.9300
  161SOL    HW1  482   2.272   2.210   2.759  2.7742  0.6631  1.6873
  161SOL    HW2  483   2.250   2.083   2.639 -1.2036 -5.0060  0.1075
  162SOL     OW  484   0.160   2.402   1.723  0.1944  0.3477 -0.0852
  162SOL    HW1  485   0.109   2.317   1.703 -3.8836  0.6285  0.4342
  162SOL    HW2  486   0.247   2.406   1.672  1.0512 -1.0043  2.8402
  163SOL     OW  487   0.320   0.558   2.602  0.1549 -0.3163 -0.2432
  163SOL    HW1  488   0.329   0.588   2.696 -4.9081 -2.2472  0.3645
  163SOL    HW2  489   0.266   0.632   2.549  0.2919  1.9272 -1.5824
  164SOL     OW  490   0.062   2.957   2.709  1.0003  0.1345  0.2682
  164SOL    HW1  491   0.093   3.042   2.663 -2.0279 -1.7738 -2.1329
  164SOL    HW2  492   0.069   2.970   2.808  0.4294  1.5400  0.1984
  165SOL     OW  493   2.653   0.817   1.634 -0.0628  0.2288 -0.4392
  165SOL    HW1  494   2.603   0.737   1.592  1.8332  0.5702 -1.0530
  165SOL    HW2  495   2.738   0.836   1.580  1.8321 -1.8189 -2.3451
  166SOL     OW  496   2.217   1.500   1.183  0.1222 -0.0170 -0.4236
  166SOL    HW1  497   2.144   1.434   1.157  1.4133 -2.4528 -0.0266
  166SOL    HW2  498   2.253   1.538   1.097 -3.2852  0.6609 -1.4963
  167SOL     OW  499   0.240   0.796   2.513  0.2660 -0.4698  0.2507
  167SOL    HW1  500   0.202   0.788   2.419 -2.1823  0.9436  0.5782
  167SOL    HW2  501   0.172   0.838   2.580 -1.2502  2.2943  0.6983
  168SOL     OW  502   2.230   0.323   2.459 -0.1425  0.2136  0.1269
  168SOL    HW1  503   2.144   0.286   2.494 -0.4422 -0.6371 -3.9853
  168SOL    HW2  504   2.223   0.416   2.429 -0.9622 -1.9382  0.8906
  169SOL     OW  505   0.589   0.963   0.048 -0.3514 -0.0367 -0.0401
  169SOL    HW1  506   0.561   0.863   0.041 -0.8579 -1.5276  2.1903
  169SOL    HW2  507   0.524   1.025   3.117 -0.5801 -1.7149 -1.6251
  170SOL     OW  508   1.048   1.319   1.681  0.1565  0.3188 -0.3337
  170SOL    HW1  509   0.965   1.278   1.720  0.5804  1.8365  1.2915
  170SOL    HW2  510   1.130   1.263   1.708 -1.8874 -1.0864 -0.2532
  171SOL     OW  511   1.326   2.717   1.535 -0.3048 -0.1610 -0.2594
  171SOL    HW1  512   1.244   2.727   1.472 -0.9055 -3.1453 -0.3379
  171SOL    HW2  513   1.412   2.718   1.480  1.1665  1.7880 -1.4299
  172SOL     OW  514   0.928   3.058   1.931  0.7401 -0.4250  0.0403
  172SOL    HW1  515   0.957   3.020   2.021  0.2971  2.8691  1.0113
  172SOL    HW2  516   0.944   2.990   1.858  1.6935  0.9090 -2.2676
  173SOL     OW  517   0.591   2.732   0.700 -0.4810  0.6396 -0.3004
  173SOL    HW1  518   0.600   2.641   0.647  0.9679 -2.0001 -0.0946
  173SOL    HW2  519   0.662   2.741   0.775  2.2176 -1.8322  1.6010
  174SOL     OW  520   2.115   0.230   0.346 -0.3294 -0.7050 -0.1059
  174SOL    HW1  521   2.096   0.208   0.443  0.7004  0.3115  1.9365
  174SOL    HW2  522   2.077   0.156   0.285 -3.3595 -0.8352 -2.8032
  175SOL     OW  523   1.470   1.217   0.791 -0.0575 -0.1036 -0.0074
  175SOL    HW1  524   1.538   1.225   0.713  1.2989 -0.9642 -1.3357
  175SOL    HW2  525   1.371   1.215   0.756 -0.7383 -3.0354  3.0547
  176SOL     OW  526   1.206   1.805   0.782 -0.4784  0.4792  0.2092
  176SOL    HW1  527   1.133   1.880   0.798  0.1252 -0.1556 -1.0691
  176SOL    HW2  528   1.228   1.758   0.868 -0.9573  1.2797 -0.6072
  177SOL     OW  529   1.791   1.266   1.012 -0.0010 -0.0711 -0.0298
  177SOL    HW1  530   1.800   1.335   0.940  0.8844 -1.6477  0.6859
  177SOL    HW2  531   1.789   1.169   0.983  0.2050 -0.1549 -0.1287
  178SOL     OW  532   2.158   1.641   0.206  0.0824 -0.0595 -0.3767
  178SOL    HW1  533   2.140   1.716   0.278 -0.2749  3.0285  2.4867
  178SOL    HW2  534   2.245   1.649   0.160 -1.0676 -1.1347 -0.3785
  179SOL     OW  535   1.435   2.852   3.073  0.4439 -0.3025 -0.1759
  179SOL    HW1  536   1.468   2.896   0.041 -0.0407  0.3868  0.8399
  179SOL    HW2  537   1.484   2.767   3.045  0.4642  0.1428  0.9526
  180SOL     OW  538   1.943   1.207   1.369  0.3319 -0.3420  0.1345
  180SOL    HW1  539   1.910   1.293   1.411 -0.3004 -0.7764  1.0573
  180SOL    HW2  540   2.006   1.229   1.293 -0.0962  1.3732  1.2650
  181SOL     OW  541   0.735   0.868   1.679 -0.0769 -0.4699 -0.1197
  181SOL    HW1  542   0.796   0.925   1.625  0.8798  1.7460  2.0634
  181SOL    HW2  543   0.767   0.774   1.669  2.4607  0.0484  1.0042
  182SOL     OW  544   0.023   0.928   2.663 -0.4334 -0.6770  0.0013
  182SOL    HW1  545   3.053   0.898   2.628  0.4235 -2.7333  1.7488
  182SOL    HW2  546   0.027   1.026   2.654 -1.8175  1.3972 -0.8120
  183SOL     OW  547   1.447   0.507   2.266  0.4383 -0.9813 -0.2636
  183SOL    HW1  548   1.532   0.524   2.320 -1.2017  1.1836 -1.7639
  183SOL    HW2  549   1.372   0.497   2.330  2.6077  2.6011 -1.6635
  184SOL     OW  550   0.758   0.569   1.182 -0.3149 -0.1619  0.7487
  184SOL    HW1  551   0.803   0.591   1.091  1.1656 -1.5726 -0.7632
  184SOL    HW2  552   0.816   0.501   1.237 -2.2023 -4.6799  0.7494
  185SOL     OW  553   2.352   1.282   0.468  0.6132 -0.0337  0.4120
  185SOL    HW1  554   2.432   1.310   0.414 -0.3324  0.5067  0.9522
  185SOL    HW2  555   2.267   1.318   0.423  0.2584  1.0270 -1.6476
  186SOL     OW  556   0.148   2.081   0.225 -0.4285 -1.0972  0.3414
  186SOL    HW1  557   0.159   1.996   0.276 -0.6463  2.7464 -2.0186
  186SOL    HW2  558   0.155   2.059   0.123  3.4693  0.5139  0.3933
  187SOL     OW  559   1.780   2.149   3.012  0.4785 -0.0971 -0.0927
  187SOL    HW1  560   1.849   2.073   3.027 -0.3807  0.2869 -1.2452
  187SOL    HW2  561   1.832   2.237   2.991 -3.7401 -2.0752  2.3556
  188SOL     OW  562   1.627   2.293   1.544  0.1146  0.6687 -0.0670
  188SOL    HW1  563   1.615   2.190   1.552  2.0440  1.1392 -0.2510
  188SOL    HW2  564   1.532   2.340   1.534 -0.7804 -1.0718  0.6086
  189SOL     OW  565   2.376   1.357   2.541 -0.4930  0.4964 -0.0724
  189SOL    HW1  566   2.397   1.444   2.585  0.5434 -0.0407 -2.7311
  189SOL    HW2  567   2.392   1.365   2.441  0.1069  0.0483  2.8414
  190SOL     OW  568   0.711   2.702   2.137  1.0803 -0.3640  0.0038
  190SOL    HW1  569   0.714   2.602   2.154 -1.4061  2.5815  1.8648
  190SOL    HW2  570   0.618   2.734   2.150  0.6745  0.1020  0.2243
  191SOL     OW  571   2.715   1.065   1.148  0.4784 -0.1618 -0.5131
  191SOL    HW1  572   2.766   1.132   1.208 -2.9747 -1.9891 -3.0988
  191SOL    HW2  573   2.636   1.115   1.102  0.2863  0.4143  2.5036
  192SOL     OW  574   2.218   0.553   1.155  0.2211  0.5019 -0.1290
  192SOL    HW1  575   2.230   0.512   1.249  0.4275  0.4233  1.7866
  192SOL    HW2  576   2.125   0.547   1.114  0.8993  1.8237  3.8211
  193SOL     OW  577   0.787   0.268   0.107 -0.2573 -0.1496 -0.0314
  193SOL    HW1  578   0.752   0.299   0.017  0.3255  0.6475  2.7136
  193SOL    HW2  579   0.725   0.198   0.142  1.6747 -1.0269 -1.4661
  194SOL     OW  580   1.378   2.417   1.236  0.0629  0.1035 -0.0078
  194SOL    HW1  581   1.388   2.438   1.337  0.1631 -0.6944 -2.0993
  194SOL    HW2  582   1.449   2.471   1.186  0.3100  2.5417 -0.8650
  195SOL     OW  583   2.783   0.919   0.490  0.1346 -0.0381  0.4815
  195SOL    HW1  584   2.831   0.940   0.580 -0.0277  1.1183  0.7960
  195SOL    HW2  585   2.709   0.850   0.493 -0.2137 -0.3877 -0.9530
  196SOL     OW  586   0.537   2.257   1.711  0.3714  0.4773  0.2840
  196SOL    HW1  587   0.478   2.192   1.660 -0.8808 -1.7452  0.5873
  196SOL    HW2  588   0.485   2.345   1.720 -2.1007 -1.4964 -0.8027
  197SOL     OW  589   2.987   0.591   2.213  0.5827 -0.3782  0.0266
  197SOL    HW1  590   2.934   0.507   2.234  0.3745 -0.6093  0.8957
  197SOL    HW2  591   2.960   0.635   2.120 -0.3001  1.5770 -3.0806
  198SOL     OW  592   2.129   1.372   0.324  0.4728 -0.6003 -0.2272
  198SOL    HW1  593   2.067   1.325   0.254 -0.1916  2.5813  0.7506
  198SOL    HW2  594   2.121   1.472   0.312 -2.6998 -2.4098  0.4871
  199SOL     OW  595   2.546   0.425   1.855 -0.2791  0.2495  0.8481
  199SOL    HW1  596   2.463   0.479   1.869  1.6117  0.2649 -0.2337
  199SOL    HW2  597   2.633   0.479   1.841  3.6317  2.7061  1.0849
  200SOL     OW  598   2.012   0.056   2.994 -0.0459 -0.0942  0.4937
  200SOL    HW1  599   2.098   0.060   3.048  0.1874  0.3693 -1.2897
  200SOL    HW2  600   1.997   0.137   2.937 -2.0629  2.7410 -2.0195
  201SOL     OW  601   2.594   0.189   0.873  0.4424 -0.5664  0.1418
  201SOL    HW1  602   2.496   0.217   0.862 -0.8244 -0.6116 -0.4649
  201SOL    HW2  603   2.652   0.256   0.825 -0.4967 -1.8295  2.2689
  202SOL     OW  604   2.926   2.751   0.172 -0.4991 -0.3090 -0.0907
  202SOL    HW1  605   3.014   2.764   0.228  3.8064  2.4700  1.5382
  202SOL    HW2  606   2.852   2.817   0.206 -2.4670 -2.7983 -0.0622
  203SOL     OW  607   1.876   1.985   0.614  0.2863  0.4367 -0.0533
  203SOL    HW1  608   1.812   1.993   0.694  0.1421  0.7371  0.4793
  203SOL    HW2  609   1.964   1.943   0.645 -0.2997  0.2989  0.8934
  204SOL     OW  610   0.174   1.637   2.285  0.0974 -0.7522  0.2648
  204SOL    HW1  611   0.271   1.623   2.257 -0.9243 -0.7843 -0.5019
  204SOL    HW2  612   0.130   1.549   2.314 -0.6091  0.1066  1.5235
  205SOL     OW  613   0.767   0.547   0.717  0.1579  0.6782  0.7805
  205SOL    HW1  614   0.829   0.600   0.653 -0.0172  1.0171 -0.7453
  205SOL    HW2  615   0.800   0.539   0.813 -1.4905  0.6777  1.4131
  206SOL     OW  616   0.421   0.621   2.871 -0.6795  0.0385  0.1642
  206SOL    HW1  617   0.409   0.558   2.949 -2.0482 -1.0860  0.1839
  206SOL    HW2  618   0.408   0.719   2.899 -0.6477 -0.4975  0.1400
  207SOL     OW  619   1.181   2.399   1.942  0.7596  0.4321  0.4307
  207SOL    HW1  620   1.166   2.344   2.028 -0.8423  2.0857  1.3721
  207SOL    HW2  621   1.102   2.414   1.883  0.1690 -2.3145 -0.5555
  208SOL     OW  622   2.764   0.368   1.550  0.2558 -0.5741  0.1323
  208SOL    HW1  623   2.846   0.409   1.592 -0.7482  1.3646 -0.3832
  208SOL    HW2  624   2.720   0.281   1.585 -1.1982  1.8887 -1.4474
  209SOL     OW  625   1.789   0.723   0.713  0.1783 -0.0505 -0.0050
  209SOL    HW1  626   1.878   0.734   0.762 -2.3163 -0.5325 -0.0189
  209SOL    HW2  627   1.723   0.654   0.763  2.0763 -4.6105  2.6908
  210SOL     OW  628   2.564   1.058   0.369  0.3800  0.1475  0.4286
  210SOL    HW1  629   2.637   1.030   0.429 -2.1829 -1.5551  0.1988
  210SOL    HW2  630   2.566   1.156   0.353 -1.5109 -0.8410  2.9780
  211SOL     OW  631   1.105   3.022   0.153  0.1290  0.6314  0.2609
  211SOL    HW1  632   1.128   3.118   0.163 -1.4235  1.4124 -0.7035
  211SOL    HW2  633   1.128   2.989   0.060 -1.7018  2.0377 -0.9396
  212SOL     OW  634   2.128   2.006   0.769 -0.5587 -0.6794  0.1522
  212SOL    HW1  635   2.137   2.076   0.846 -1.8252  1.1365  0.2911
  212SOL    HW2  636   2.216   1.998   0.717 -2.6736  2.1478  1.4594
  213SOL     OW  637   2.522   0.150   0.026  0.3347  0.1474  0.2330
  213SOL    HW1  638   2.498   0.085   3.067  0.6224 -0.0916 -3.4328
  213SOL    HW2  639   2.482   0.245   0.022 -1.3784 -2.3119  1.0310
  214SOL     OW  640   1.098   2.325   2.224 -0.1331  0.1884 -0.0474
  214SOL    HW1  641   1.056   2.232   2.215  0.5011 -0.7566 -1.7329
  214SOL    HW2  642   1.042   2.394   2.269  4.1556 -0.1970 -1.1103
  215SOL     OW  643   0.408   1.021   0.700 -0.3672 -0.2361 -0.1315
  215SOL    HW1  644   0.351   1.034   0.780 -0.9275  3.5857  1.0162
  215SOL    HW2  645   0.425   1.113   0.663  1.2200  3.1989  0.5771
  216SOL     OW  646   0.163   2.706   2.676  0.0064 -0.3122  0.3877
  216SOL    HW1  647   0.252   2.694   2.715 -2.1427  1.2590  0.9487
  216SOL    HW2  648   0.127   2.794   2.710 -2.0519  0.3879  0.3100
  217SOL     OW  649   2.819   1.247   1.303  0.4567 -0.5350  0.2537
  217SOL    HW1  650   2.893   1.319   1.319  1.7345  1.2710 -0.9699
  217SOL    HW2  651   2.787   1.210   1.395 -2.0079 -0.3765 -0.8222
  218SOL     OW  652   0.949   2.246   1.839 -0.2954  0.6957 -0.0448
  218SOL    HW1  653   0.877   2.306   1.880 -4.9521  3.4449  1.2303
  218SOL    HW2  654   0.985   2.182   1.912 -0.8722 -2.9754 -0.5001
  219SOL     OW  655   1.900   1.553   0.181  0.1292 -0.4834  0.1706
  219SOL    HW1  656   1.835   1.636   0.192 -3.1445  0.8088 -0.8684
  219SOL    HW2  657   1.992   1.588   0.166  0.5065  0.7070  1.6315
  220SOL     OW  658   2.109   0.376   3.083  0.0233 -0.3363 -0.1418
  220SOL    HW1  659   2.167   0.320   0.022  1.4126 -0.5948  0.6794
  220SOL    HW2  660   2.045   0.440   0.012  5.3195  0.3026  2.4058
  221SOL     OW  661   2.986   0.792   0.231 -0.0389  0.4837 -0.0807
  221SOL    HW1  662   3.031   0.760   0.318 -0.9198 -0.9375  3.1330
  221SOL    HW2  663   3.050   0.800   0.151 -0.5915 -2.9829  0.9987
  222SOL     OW  664   1.796   1.467   0.806 -0.3076 -0.2065 -0.7485
  222SOL    HW1  665   1.782   1.433   0.712 -3.4076  0.7537  1.2401
  222SOL    HW2  666   1.753   1.566   0.808  1.5796  2.9840  0.7965
  223SOL     OW  667   1.152   0.131   2.921  0.2223 -0.4164  0.1829
  223SOL    HW1  668   1.214   0.053   2.926 -0.2190 -0.2942 -0.5421
  223SOL    HW2  669   1.057   0.114   2.954  0.4086  1.6860  1.8947
  224SOL     OW  670   0.747   2.935   1.126 -0.2806  0.2758  0.6641
  224SOL    HW1  671   0.779   3.025   1.088  2.3406  1.0695  0.4037
  224SOL    HW2  672   0.835   2.887   1.158  2.3334  0.6754  1.5491
  225SOL     OW  673   0.708   2.997   2.108 -0.1842 -0.5903 -0.7066
  225SOL    HW1  674   0.677   3.086   2.065  1.8583 -2.9906  2.0025
  225SOL    HW2  675   0.694   2.920   2.037  1.4860  0.4346 -2.2041
  226SOL     OW  676   1.471   1.459   0.471  0.3023  0.5330 -0.1960
  226SOL    HW1  677   1.476   1.535   0.539  0.0547 -0.7811  2.3136
  226SOL    HW2  678   1.522   1.375   0.504  2.0817 -1.5983 -1.1536
  227SOL     OW  679   0.449   1.900   1.222 -1.0040  0.2182  0.4039
  227SOL    HW1  680   0.428   1.975   1.159 -0.6608  0.7915 -1.8967
  227SOL    HW2  681   0.548   1.863   1.210  4.4334  0.0879  2.5344
  228SOL     OW  682   0.102   1.938   0.546  0.5373  0.0441  0.0589
  228SOL    HW1  683   0.173   1.914   0.473  1.3262  0.8145  1.2863
  228SOL    HW2  684   0.128   2.021   0.602  0.9595  0.4177 -0.4752
  229SOL     OW  685   2.767   0.314   2.874  0.2698 -0.2070  0.3206
  229SOL    HW1  686   2.715   0.248   2.812 -1.4562 -1.2459 -0.7132
  229SOL    HW2  687   2.861   0.275   2.887 -2.3982  1.0516  0.3426
  230SOL     OW  688   2.364   0.673   0.388 -0.7244  0.5533 -0.1746
  230SOL    HW1  689   2.281   0.615   0.391  2.2545  1.2084  1.7021
  230SOL    HW2  690   2.344   0.772   0.409  0.3079 -2.3516 -0.2748
  231SOL     OW  691   1.948   1.442   3.048 -0.2874  0.2062 -0.0986
  231SOL    HW1  692   1.932   1.462   2.954  0.8965 -0.7822  1.4334
  231SOL    HW2  693   1.907   1.513   3.107 -1.2820 -1.2280 -1.3976
  232SOL     OW  694   2.430   1.938   1.189  0.2597 -0.5322  0.1907
  232SOL    HW1  695   2.483   1.856   1.221  1.3448  1.3265 -2.1179
  232SOL    HW2  696   2.354   1.966   1.251 -0.3547 -0.9255  1.7454
  233SOL     OW  697   0.239   2.736   1.569  0.2959 -0.3647  0.4592
  233SOL    HW1  698   0.282   2.649   1.608 -1.0840 -0.3228 -3.6419
  233SOL    HW2  699   0.143   2.762   1.604  0.9061  0.3574 -0.5573
  234SOL     OW  700   0.734   0.023   2.556  0.2914  0.5685  0.3528
  234SOL    HW1  701   0.824   3.108   2.541  0.9059 -2.8785 -0.9754
  234SOL    HW2  702   0.734   0.062   2.649 -2.5886  0.4807 -0.7511
  235SOL     OW  703   2.724   0.993   1.883  0.0442 -0.1925  0.0369
  235SOL    HW1  704   2.749   0.929   1.959  1.1002  0.6646 -1.2347
  235SOL    HW2  705   2.725   0.949   1.794  2.1480  1.2691  1.6592
  236SOL     OW  706   1.219   2.881   1.724 -0.4408  0.3694  0.4203
  236SOL    HW1  707   1.132   2.846   1.757  0.4657  1.1434 -1.5814
  236SOL    HW2  708   1.272   2.807   1.680 -2.8164  1.9676  2.6544
  237SOL     OW  709   0.473   1.512   2.702 -0.0854 -0.1115 -0.0690
  237SOL    HW1  710   0.478   1.479   2.607  2.2362 -1.0320  0.4506
  237SOL    HW2  711   0.502   1.609   2.718 -0.5270 -0.6667 -0.5405
  238SOL     OW  712   1.025   0.523   2.320  0.3477  0.5378  0.0423
  238SOL    HW1  713   1.046   0.623   2.301  3.4584  1.4856 -1.8505
  238SOL    HW2  714   0.926   0.515   2.344 -1.5109 -0.4567 -1.6113
  239SOL     OW  715   0.469   2.155   2.171 -0.1054  1.0018  0.4812
  239SOL    HW1  716   0.488   2.070   2.113 -2.9002 -2.0864 -2.7530
  239SOL    HW2  717   0.493   2.238   2.116 -0.9874  0.6417  0.8515
  240SOL     OW  718   2.465   3.028   0.397  0.2434 -0.2926 -0.2099
  240SOL    HW1  719   2.377   3.065   0.435 -2.6837 -0.0155  0.4795
  240SOL    HW2  720   2.523   3.098   0.353  2.2841 -0.9412  0.1292
  241SOL     OW  721   0.249   1.012   0.173  0.2323 -0.0857 -0.2734
  241SOL    HW1  722   0.190   1.032   0.253  0.0499 -1.6753  0.3698
  241SOL    HW2  723   0.243   1.086   0.107 -0.3895 -0.4601  2.9454
  242SOL     OW  724   1.598   2.513   1.786 -0.5110  0.1508 -0.2667
  242SOL    HW1  725   1.682   2.569   1.763 -2.2995  1.7251 -0.5294
  242SOL    HW2  726   1.581   2.452   1.705 -1.0256  0.9194 -0.0899
  243SOL     OW  727   0.733   2.421   1.893  0.0603 -0.6450 -0.2416
  243SOL    HW1  728   0.759   2.506   1.848  2.2490 -0.8729 -1.4994
  243SOL    HW2  729   0.664   2.372   1.835  1.5703  0.4218  3.0193
  244SOL     OW  730   2.452   0.701   2.639 -0.4213  0.0989  0.2376
  244SOL    HW1  731   2.405   0.734   2.724  1.2862  1.4097  1.1261
  244SOL    HW2  732   2.518   0.625   2.658  0.1905  1.9650  0.2947
  245SOL     OW  733   1.564   2.753   1.411 -0.3523  0.3956 -0.0496
  245SOL    HW1  734   1.596   2.815   1.492  0.2480  3.1978  4.1505
  245SOL    HW2  735   1.551   2.804   1.319  0.4652  4.0509  0.1306
  246SOL     OW  736   1.435   0.055   0.317 -0.1003  0.4175  0.6059
  246SOL    HW1  737   1.405   0.023   0.408 -1.6824 -0.1349  0.5885
  246SOL    HW2  738   1.355   0.097   0.272 -2.9044 -0.8296  0.9084
  247SOL     OW  739   1.757   0.636   1.839 -0.1634 -0.3088 -0.1585
  247SOL    HW1  740   1.675   0.579   1.818 -2.7866  1.0210  0.3873
  247SOL    HW2  741   1.828   0.589   1.900  1.0945  2.4622 -0.6004
  248SOL     OW  742   3.084   2.011   1.965  0.2010 -0.1743 -0.0020
  248SOL    HW1  743   0.058   1.979   1.936 -3.3908  0.0609  1.4678
  248SOL    HW2  744   3.018   1.944   1.929 -0.2331  0.5447  0.1862
  249SOL     OW  745   0.079   0.247   0.418  0.2755  0.3114  0.0949
  249SOL    HW1  746   0.044   0.154   0.429 -0.1153 -0.9857 -1.2193
  249SOL    HW2  747   0.087   0.299   0.506  2.5742  0.0205 -1.1690
  250SOL     OW  748   2.648   0.092   2.465  0.2580 -0.1066 -0.2093
  250SOL    HW1  749   2.619   0.103   2.564  1.9017  1.9537 -1.4999
  250SOL    HW2  750   2.570   0.107   2.408  1.1998  2.4509  0.8703
  251SOL     OW  751   1.405   0.438   0.174 -0.1805 -0.5224 -0.2441
  251SOL    HW1  752   1.392   0.380   0.090  0.8066 -2.5300 -0.8743
  251SOL    HW2  753   1.476   0.508   0.154  2.8673 -0.3643 -2.2634
  252SOL     OW  754   0.871   2.755   2.350 -0.5045  0.1118 -0.6226
  252SOL    HW1  755   0.795   2.770   2.417  1.1695 -2.8510 -0.0285
  252SOL    HW2  756   0.830   2.740   2.257  1.0382  0.3488  1.7903
  253SOL     OW  757   2.578   2.638   0.850 -0.1730  0.0292 -0.0698
  253SOL    HW1  758   2.480   2.639   0.850  1.8795  3.2997  0.4412
  253SOL    HW2  759   2.613   2.633   0.755  1.0206 -0.2617 -1.6840
  254SOL     OW  760   2.234   1.191   0.979  0.2044  0.2479  0.1003
  254SOL    HW1  761   2.293   1.189   1.062  2.7527 -2.2811 -0.2994
  254SOL    HW2  762   2.283   1.232   0.896 -1.3438  0.8452 -0.5988
  255SOL     OW  763   0.657   2.630   1.269  0.1166  0.3737  0.0847
  255SOL    HW1  764   0.590   2.705   1.252 -1.0532  0.1539 -1.6681
  255SOL    HW2  765   0.695   2.597   1.182 -1.3860  3.2145  0.2902
  256SOL     OW  766   2.129   1.661   1.620 -0.3548 -0.1669 -0.3252
  256SOL    HW1  767   2.105   1.689   1.527 -1.0073  0.9534  3.1819
  256SOL    HW2  768   2.223   1.613   1.623 -1.0345  1.8471  2.1164
  257SOL     OW  769   0.182   2.453   2.550 -0.8938  0.5084 -0.0148
  257SOL    HW1  770   0.236   2.372   2.586  0.0296 -0.1003 -0.2743
  257SOL    HW2  771   0.184   2.536   2.608 -1.2918 -0.7683 -2.0727
  258SOL     OW  772   0.747   2.742   0.927 -0.0489 -0.6372  0.2204
  258SOL    HW1  773   0.736   2.816   0.996  2.3365  0.0625 -0.4586
  258SOL    HW2  774   0.740   2.647   0.974 -1.0651 -2.0938 -1.7596
  259SOL     OW  775   1.409   0.534   2.888 -0.0444  0.1974  0.0281
  259SOL    HW1  776   1.356   0.603   2.941 -0.0786  2.2781  0.5901
  259SOL    HW2  777   1.337   0.479   2.837 -2.1595 -1.0486  0.4783
  260SOL     OW  778   0.322   0.316   1.175 -0.1972  0.0751 -0.6047
  260SOL    HW1  779   0.275   0.235   1.142 -0.1025  3.5575 -0.0051
  260SOL    HW2  780   0.387   0.357   1.111 -1.2976  1.9728  3.1128
  261SOL     OW  781   0.576   3.020   2.339  0.1362  0.0963  0.1816
  261SOL    HW1  782   0.625   3.021   2.248 -1.3314  1.1569  0.2663
  261SOL    HW2  783   0.635   3.060   2.414  3.9828  2.6700 -0.4075
  262SOL     OW  784   0.985   2.779   1.855  0.0061 -0.0132 -0.5602
  262SOL    HW1  785   0.916   2.726   1.803  1.0770  1.4185  0.8936
  262SOL    HW2  786   0.982   2.757   1.954  3.5122 -1.6071  2.5174
  263SOL     OW  787   0.848   2.264   0.093  0.4294  0.0696 -0.2157
  263SOL    HW1  788   0.799   2.175   0.104  1.0179  1.2047  2.1759
  263SOL    HW2  789   0.943   2.248   0.121 -3.8028 -0.1384 -2.0610
  264SOL     OW  790   1.705   1.510   1.148 -0.2107  0.2946 -0.3185
  264SOL    HW1  791   1.751   1.582   1.095 -1.1254 -0.3623 -1.1290
  264SOL    HW2  792   1.728   1.419   1.116 -1.0798  3.1092  1.6981
  265SOL     OW  793   0.880   2.331   0.412 -0.2491  0.1580  0.4934
  265SOL    HW1  794   0.845   2.311   0.511  0.0507  0.8560  1.5776
  265SOL    HW2  795   0.873   2.427   0.398 -0.5657 -1.9123 -2.6199
  266SOL     OW  796   2.818   0.924   0.787  0.6105 -0.3350 -0.0092
  266SOL    HW1  797   2.751   0.848   0.789 -0.8981 -0.4016 -0.4898
  266SOL    HW2  798   2.891   0.909   0.852  1.0994  0.0323  1.8525
  267SOL     OW  799   0.253   1.465   0.174  0.5024 -0.3532  0.2891
  267SOL    HW1  800   0.244   1.408   0.257  0.0288 -0.8492  0.0666
  267SOL    HW2  801   0.350   1.488   0.176 -1.9033 -2.4598 -1.3084
  268SOL     OW  802   1.559   0.411   0.481  0.0324 -0.4632  0.0929
  268SOL    HW1  803   1.600   0.324   0.449 -2.9309  1.8238 -0.8663
  268SOL    HW2  804   1.476   0.383   0.530  3.0300  1.1425  0.6112
  269SOL     OW  805   2.873   0.850   2.306 -0.4469 -0.5834  0.4014
  269SOL    HW1  806   2.938   0.929   2.299  0.2420  2.3430  1.0998
  269SOL    HW2  807   2.901   0.774   2.238  1.7195 -1.5430 -1.5758
  270SOL     OW  808   2.916   1.128   0.335 -0.2543 -0.1551  0.1429
  270SOL    HW1  809   2.878   1.054   0.389  2.7300  0.9283 -0.2265
  270SOL    HW2  810   2.905   1.113   0.233  1.2794  0.7228 -0.3587
  271SOL     OW  811   2.764   1.345   2.146  0.0496  0.2754  0.2095
  271SOL    HW1  812   2.711   1.431   2.142  0.0480  0.9124  1.7947
  271SOL    HW2  813   2.861   1.358   2.124  1.6648 -3.3363  0.9425
  272SOL     OW  814   2.507   2.445   1.855  0.0329  0.1776  0.2121
  272SOL    HW1  815   2.547   2.356   1.822 -0.2363  0.7142  0.0087
  272SOL    HW2  816   2.489   2.443   1.953 -1.0136 -0.4312 -1.7727
  273SOL     OW  817   0.100   2.536   0.366  0.5582 -0.2310  0.2715
  273SOL    HW1  818   0.159   2.530   0.280  1.6811 -0.7243  0.0974
  273SOL    HW2  819   0.098   2.444   0.409 -2.2675  0.8568 -1.1078
  274SOL     OW  820   0.795   2.265   0.651 -0.2287 -0.5780 -0.5519
  274SOL    HW1  821   0.777   2.167   0.639  1.8446  1.7732  1.0888
  274SOL    HW2  822   0.840   2.281   0.740  2.6109  0.8472  0.1301
  275SOL     OW  823   1.602   2.034   2.809  0.0563  0.0072 -0.1403
  275SOL    HW1  824   1.671   2.074   2.873 -1.5062  0.3365 -2.2922
  275SOL    HW2  825   1.638   2.020   2.718 -1.4994  1.0185  1.7019
  276SOL     OW  826   2.348   1.488   2.033 -0.1196  0.1697  0.2392
  276SOL    HW1  827   2.329   1.400   1.985 -2.1860  1.3372  0.1447
  276SOL    HW2  828   2.450   1.504   2.042  0.8066 -1.2208 -1.9687
  277SOL     OW  829   2.062   0.218   0.632 -0.3689  0.5137  0.2909
  277SOL    HW1  830   2.100   0.283   0.701  2.2669  1.0733 -0.0119
  277SOL    HW2  831   1.966   0.206   0.648  0.8204 -1.5889 -1.5423
  278SOL     OW  832   1.601   0.618   2.666 -0.0675  0.0386 -0.5031
  278SOL    HW1  833   1.547   0.587   2.744 -0.8126  2.4113 -2.2942
  278SOL    HW2  834   1.633   0.713   2.667  0.2951 -1.1377 -2.1847
  279SOL     OW  835   1.029   2.879   1.156 -0.1685 -0.1908 -0.7963
  279SOL    HW1  836   1.064   2.836   1.072  1.0539 -0.8010 -0.6455
  279SOL    HW2  837   1.050   2.825   1.242  0.3684  0.0341  1.3077
  280SOL     OW  838   1.243   1.190   0.554  0.2992  0.5866 -0.7443
  280SOL    HW1  839   1.145   1.165   0.536 -0.0561  2.8995 -0.1790
  280SOL    HW2  840   1.310   1.122   0.510  1.9147 -0.3235  0.0130
  281SOL     OW  841   2.143   1.840   0.400  0.1218 -0.6183  0.5609
  281SOL    HW1  842   2.225   1.898   0.416 -0.0935  3.1617  2.8157
  281SOL    HW2  843   2.127   1.780   0.481 -0.0458 -0.4027 -1.4753
  282SOL     OW  844   2.972   1.349   0.498 -0.3779  0.4856 -0.1526
  282SOL    HW1  845   2.940   1.281   0.428 -1.9331 -3.8016 -1.7097
  282SOL    HW2  846   2.993   1.434   0.455 -1.3282 -2.2426 -0.4878
  283SOL     OW  847   1.685   2.929   2.656  0.0992 -0.3519 -0.0895
  283SOL    HW1  848   1.708   2.945   2.560  0.7757 -1.1954  2.3531
  283SOL    HW2  849   1.746   2.984   2.714  0.5848 -2.2049  0.8232
  284SOL     OW  850   0.731   0.160   2.831  0.3132  0.3665  0.6399
  284SOL    HW1  851   0.705   0.243   2.873  0.1667  0.4816  2.3973
  284SOL    HW2  852   0.800   0.108   2.884 -2.4895  1.7048  0.0824
  285SOL     OW  853   1.907   1.770   2.971 -0.5603 -0.1659 -0.1883
  285SOL    HW1  854   1.815   1.726   2.975  0.6035 -0.2880 -0.7759
  285SOL    HW2  855   1.927   1.794   2.876  0.6471 -1.8744 -0.9614
  286SOL     OW  856   1.950   1.994   1.554 -0.1783 -0.6928  0.2066
  286SOL    HW1  857   1.891   1.914   1.560  1.9098  0.9889 -0.5748
  286SOL    HW2  858   1.955   2.050   1.639 -0.1717 -0.4680  1.0879
  287SOL     OW  859   1.831   0.159   1.787  0.4807 -0.1402  0.3123
  287SOL    HW1  860   1.859   0.085   1.852 -0.6539  2.0174  0.3738
  287SOL    HW2  861   1.728   0.179   1.797 -3.1338 -0.4271  1.1095
  288SOL     OW  862   0.469   2.771   2.246  0.0054  0.1213 -0.3931
  288SOL    HW1  863   0.493   2.863   2.270 -2.2711 -2.2069 -0.3575
  288SOL    HW2  864   0.382   2.741   2.291  0.1024 -2.1215  1.7490
  289SOL     OW  865   0.415   1.821   0.805  0.3081  0.2600  0.3369
  289SOL    HW1  866   0.328   1.816   0.860 -1.6472 -1.4500  3.2269
  289SOL    HW2  867   0.442   1.916   0.773 -1.6235 -0.9121 -3.7063
  290SOL     OW  868   1.091   1.787   1.794 -0.0577  0.1662 -0.5013
  290SOL    HW1  869   1.067   1.856   1.871 -0.1958  0.3276  1.9979
  290SOL    HW2  870   1.166   1.819   1.737 -1.0321  0.3665  0.7810
  291SOL     OW  871   1.687   0.164   0.362  0.0431  0.3314  0.0267
  291SOL    HW1  872   1.594   0.125   0.342  0.9971 -0.3659 -2.3789
  291SOL    HW2  873   1.740   0.155   0.276 -0.2514 -2.3768  0.1503
  292SOL     OW  874   0.481   0.281   1.418 -0.0353 -0.0315 -0.1732
  292SOL    HW1  875   0.485   0.351   1.493  2.0369  1.5546  1.3955
  292SOL    HW2  876   0.419   0.315   1.340 -2.0244  1.4580 -2.6490
  293SOL     OW  877   2.672   1.613   1.032 -0.1540  0.4030 -0.2613
  293SOL    HW1  878   2.710   1.703   1.001 -0.8293  1.3407  2.5350
  293SOL    HW2  879   2.619   1.562   0.965 -1.9635 -3.0934  1.7736
  294SOL     OW  880   0.320   0.012   2.370  0.1217 -0.1294  0.3375
  294SOL    HW1  881   0.266   3.068   2.316 -0.0570  1.6533  0.2886
  294SOL    HW2  882   0.415   3.118   2.354 -1.8598  0.0552  0.1901
  295SOL     OW  883   0.877   1.521   0.456 -0.5035 -0.6155 -0.3344
  295SOL    HW1  884   0.972   1.509   0.488 -0.5259  0.3523 -0.9019
  295SOL    HW2  885   0.877   1.515   0.355 -0.3870  0.6080  2.3497
  296SOL     OW  886   2.262   1.560   0.881  0.0185  0.0608  0.3864
  296SOL    HW1  887   2.193   1.483   0.867 -0.7233 -3.2740 -0.4362
  296SOL    HW2  888   2.336   1.550   0.813  2.4838 -0.7462 -0.9130
  297SOL     OW  889   1.834   0.555   2.823  0.1239 -0.2201  0.0227
  297SOL    HW1  890   1.810   0.611   2.905  0.5424  2.0354  0.3302
  297SOL    HW2  891   1.758   0.554   2.753 -0.6192  0.3553 -3.2976
  298SOL     OW  892   1.147   0.133   2.549 -0.5315 -0.3745 -0.6301
  298SOL    HW1  893   1.136   0.216   2.610  1.8530 -0.6682 -0.2962
  298SOL    HW2  894   1.245   0.121   2.524  1.4341 -0.0688  2.2571
  299SOL     OW  895   0.929   0.444   1.869 -0.3852 -0.3042  0.1307
  299SOL    HW1  896   0.964   0.504   1.794 -1.9303  0.9135 -0.3639
  299SOL    HW2  897   0.975   0.357   1.879  0.7526  2.9047 -0.9857
  300SOL     OW  898   3.008   0.439   1.698  0.4018 -0.1118 -0.4644
  300SOL    HW1  899   3.050   0.440   1.606 -0.4206 -0.4622  1.2370
  300SOL    HW2  900   3.075   0.422   1.770  0.7850 -0.5765 -1.0668
  301SOL     OW  901   1.807   0.827   1.655  0.0969  0.1808 -0.1102
  301SOL    HW1  902   1.737   0.895   1.680  0.2137 -0.9586  1.1593
  301SOL    HW2  903   1.796   0.752   1.720 -1.5090 -1.2164 -2.3772
  302SOL     OW  904   0.921   2.901   3.048 -0.1537  0.4645  0.1582
  302SOL    HW1  905   0.963   2.833   3.114  5.1471 -0.9180  1.3674
  302SOL    HW2  906   0.841   2.951   3.087 -0.7806  0.1623 -0.2980
  303SOL     OW  907   2.147   1.896   1.771  0.1206  0.1894  0.2333
  303SOL    HW1  908   2.125   1.994   1.756 -0.5514 -1.7856 -1.4364
  303SOL    HW2  909   2.129   1.841   1.684 -1.9971 -1.7155 -2.3678
  304SOL     OW  910   0.300   3.091   0.600 -0.9975 -0.1542  0.0831
  304SOL    HW1  911   0.276   0.026   0.686 -1.6921 -1.6303 -0.8126
  304SOL    HW2  912   0.394   3.043   0.610  1.5023 -2.6373 -0.6675
  305SOL     OW  913   1.142   0.877   0.354 -0.0731  0.1996 -0.0894
  305SOL    HW1  914   1.220   0.943   0.356  0.5736 -1.1062 -1.0103
  305SOL    HW2  915   1.175   0.781   0.355 -0.3954  1.1006  2.0782
  306SOL     OW  916   0.519   1.467   0.225  0.2869  0.7212  0.3863
  306SOL    HW1  917   0.531   1.371   0.253  2.1203  1.2533  2.0392
  306SOL    HW2  918   0.545   1.528   0.298 -1.3080 -0.5560  1.9199
  307SOL     OW  919   0.696   0.562   1.935  0.5833  0.0224  0.6478
  307SOL    HW1  920   0.700   0.610   2.025 -1.3064 -2.1658 -1.9203
  307SOL    HW2  921   0.776   0.498   1.924 -1.1219 -2.7403  1.6410
  308SOL     OW  922   0.520   0.091   0.975 -0.2056 -0.0036  0.5502
  308SOL    HW1  923   0.553   0.158   0.907 -0.5579 -1.4323 -0.2904
  308SOL    HW2  924   0.578   0.079   1.058 -2.8502  0.9194  0.6404
  309SOL     OW  925   2.266   1.159   0.188  0.3456 -0.2089  0.7155
  309SOL    HW1  926   2.308   1.103   0.259 -0.6318 -0.3667 -2.0493
  309SOL    HW2  927   2.260   1.257   0.212  1.5957 -0.7260  0.2271
  310SOL     OW  928   1.262   1.463   3.023 -0.1883 -0.0136 -0.0556
  310SOL    HW1  929   1.277   1.524   2.947  1.8896 -2.8549  3.8064
  310SOL    HW2  930   1.220   1.514   3.102  0.8338  2.1201 -0.8618
  311SOL     OW  931   2.024   2.432   1.978  0.6537  0.0348  0.2864
  311SOL    HW1  932   2.020   2.342   2.013 -1.2784  0.8155 -2.4216
  311SOL    HW2  933   1.940   2.488   1.999  1.0862 -0.9777  1.0816
  312SOL     OW  934   2.308   2.931   0.122  0.2025 -0.1891  0.2037
  312SOL    HW1  935   2.348   3.021   0.131 -0.8191  0.4156 -0.9386
  312SOL    HW2  936   2.209   2.931   0.136  3.7136 -0.0271  1.9619
  313SOL     OW  937   0.526   0.686   0.130 -0.6265  0.0748 -0.1229
  313SOL    HW1  938   0.482   0.740   0.202  1.3134 -1.3705 -4.7007
  313SOL    HW2  939   0.609   0.640   0.173  2.5002  0.2817  0.9715
  314SOL     OW  940   2.815   1.550   3.103 -0.3285  0.2596 -0.1814
  314SOL    HW1  941   2.790   1.519   3.009  0.4505 -0.6332 -4.1918
  314SOL    HW2  942   2.881   1.632   3.109  2.5200  6.3514  1.5728
  315SOL     OW  943   1.690   0.844   2.006 -0.5374 -0.3654  0.1536
  315SOL    HW1  944   1.715   0.766   1.946 -1.6774  1.2439 -0.0832
  315SOL    HW2  945   1.715   0.827   2.104  0.1717  2.4035  0.2068
  316SOL     OW  946   0.133   0.937   0.603 -0.3568  0.1511  0.1095
  316SOL    HW1  947   0.085   0.890   0.681 -0.5985  1.2888  1.1191
  316SOL    HW2  948   0.226   0.964   0.639 -0.7246  1.6213 -0.5512
  317SOL     OW  949   0.600   0.098   0.201  0.2470  0.1780  0.2052
  317SOL    HW1  950   0.506   0.139   0.203 -1.7181  0.0848 -0.5102
  317SOL    HW2  951   0.620   0.033   0.277  1.2197  0.2546  2.9775
  318SOL     OW  952   1.853   2.486   1.071 -0.0181 -0.0975  0.0519
  318SOL    HW1  953   1.916   2.539   1.127  0.3395  1.0437 -1.0152
  318SOL    HW2  954   1.894   2.478   0.972  1.5438 -0.1520 -1.5103
  319SOL     OW  955   1.127   1.510   0.584  0.2591  0.5186  0.3340
  319SOL    HW1  956   1.165   1.412   0.569  0.1605 -3.9048 -0.3658
  319SOL    HW2  957   1.207   1.572   0.594 -1.4759 -2.8185  0.1333
  320SOL     OW  958   0.725   2.200   1.166 -0.0395 -0.3044  0.0384
  320SOL    HW1  959   0.646   2.168   1.222  0.7888 -0.4304 -0.5639
  320SOL    HW2  960   0.782   2.270   1.220  3.5838  0.4569  1.2728
  321SOL     OW  961   2.458   2.485   2.136  0.2097 -0.0894  0.7505
  321SOL    HW1  962   2.407   2.397   2.145  2.8769  0.0442  3.2334
  321SOL    HW2  963   2.414   2.559   2.197 -0.5733  0.1426 -4.1377
  322SOL     OW  964   2.792   2.338   2.637  0.3479  0.3249 -0.1848
  322SOL    HW1  965   2.727   2.322   2.561  0.9435  1.9848  0.8845
  322SOL    HW2  966   2.878   2.385   2.608  1.3664  2.5938  0.6406
  323SOL     OW  967   2.631   0.724   0.721  0.0686 -0.3035 -0.0662
  323SOL    HW1  968   2.645   0.693   0.624 -0.6299  1.3719  1.3524
  323SOL    HW2  969   2.535   0.757   0.736  0.8497  1.9203 -2.3671
  324SOL     OW  970   2.344   2.324   2.446 -0.6467  0.8379 -0.8016
  324SOL    HW1  971   2.286   2.398   2.405  1.4703 -0.1772 -0.3397
  324SOL    HW2  972   2.301   2.280   2.526 -0.0602  1.1846 -0.8255
  325SOL     OW  973   1.238   0.499   2.504 -0.0802 -0.0891 -1.0228
  325SOL    HW1  974   1.150   0.518   2.456  0.0851  0.7973 -1.0682
  325SOL    HW2  975   1.217   0.472   2.602 -2.4614  0.8514  1.3527
  326SOL     OW  976   2.775   2.499   0.940 -0.4025 -0.1083 -0.3401
  326SOL    HW1  977   2.701   2.555   0.896  2.2856  2.9523 -0.9335
  326SOL    HW2  978   2.849   2.556   0.967 -0.9145 -0.6592 -1.7985
  327SOL     OW  979   2.711   3.068   0.062 -0.0504 -0.0961  0.3238
  327SOL    HW1  980   2.640   0.020   0.054  1.8675  1.5021  2.1915
  327SOL    HW2  981   2.763   3.057   3.097 -1.8508 -0.4127 -0.0978
  328SOL     OW  982   1.157   0.766   0.811 -0.0079 -0.1652 -0.1250
  328SOL    HW1  983   1.145   0.688   0.877 -2.3829  0.0801  0.4151
  328SOL    HW2  984   1.141   0.856   0.858 -0.8108  0.5430  1.1408
  329SOL     OW  985   2.174   0.651   1.494 -0.4550  0.0945  0.6761
  329SOL    HW1  986   2.229   0.711   1.428 -0.4866  1.2303 -2.8401
  329SOL    HW2  987   2.225   0.631   1.577  0.9691  1.3789  1.0973
  330SOL     OW  988   1.001   0.656   0.598  0.8626 -0.0479 -0.1989
  330SOL    HW1  989   0.988   0.724   0.526 -1.3957 -1.4896  0.8823
  330SOL    HW2  990   1.062   0.697   0.670  0.5896  1.6407 -0.7663
  331SOL     OW  991   0.907   1.880   1.585 -0.0826 -0.0521  0.2963
  331SOL    HW1  992   0.979   1.933   1.547 -1.9786 -5.4587 -1.7559
  331SOL    HW2  993   0.938   1.822   1.661 -0.3857 -0.8270 -0.6122
  332SOL     OW  994   2.203   2.135   1.949  0.3504 -0.5062  0.6962
  332SOL    HW1  995   2.246   2.178   2.032 -0.0702  1.8432  0.7084
  332SOL    HW2  996   2.280   2.087   1.892  2.7725 -0.8676  0.0194
  333SOL     OW  997   2.984   3.083   0.945  0.2527 -0.3575  0.2571
  333SOL    HW1  998   2.911   0.021   0.989  0.7771  0.8041 -0.8894
  333SOL    HW2  999   2.955   2.997   0.915 -0.6019  1.6176  0.8353
  334SOL     OW 1000   0.085   1.725   0.716  0.2027 -0.0236 -0.4671
  334SOL    HW1 1001   0.124   1.749   0.806 -0.3758  2.4856  0.5760
  334SOL    HW2 1002   0.081   1.804   0.650 -1.1418 -2.1498  1.8744
  335SOL     OW 1003   0.403   2.689   2.772 -0.2308 -0.6106  0.3587
  335SOL    HW1 1004   0.438   2.595   2.753  0.1003  0.5113 -2.1290
  335SOL    HW2 1005   0.477   2.762   2.797  0.0994  0.7865  1.2453
  336SOL     OW 1006   0.252   2.595   1.940  0.3049 -0.0843  1.0210
  336SOL    HW1 1007   0.220   2.526   1.871  2.9089 -0.7323 -1.8160
  336SOL    HW2 1008   0.197   2.681   1.927 -2.2329  1.4849  1.8452
  337SOL     OW 1009   1.357   1.886   2.389  0.5640  0.4014 -0.0588
  337SOL    HW1 1010   1.299   1.814   2.421  0.2908 -0.6793 -1.0417
  337SOL    HW2 1011   1.455   1.864   2.399 -3.4239  1.3917  3.5924
  338SOL     OW 1012   0.982   3.061   2.554  0.3898 -0.0216 -0.2490
  338SOL    HW1 1013   1.026   2.999   2.485  2.9289 -3.5602  0.1488
  338SOL    HW2 1014   1.041   0.022   2.573  0.7024 -2.6185  1.9494
  339SOL     OW 1015   0.170   1.246   2.845  0.1841 -0.1102  0.1616
  339SOL    HW1 1016   0.096   1.229   2.773 -0.7522 -1.3759  0.1878
  339SOL    HW2 1017   0.154   1.341   2.879  1.6116  0.3946 -0.1398
  340SOL     OW 1018   2.251   0.369   1.367 -0.3213 -0.1253  0.1540
  340SOL    HW1 1019   2.250   0.448   1.429  2.0273  1.8298 -1.9254
  340SOL    HW2 1020   2.339   0.327   1.376 -4.5135  1.0207 -0.8551
  341SOL     OW 1021   1.812   1.005   0.889  0.0879  0.1852 -0.0981
  341SOL    HW1 1022   1.791   1.006   0.790 -1.9522  0.3736 -2.4484
  341SOL    HW2 1023   1.910   1.019   0.906  0.4757  1.9946  0.7759
  342SOL     OW 1024   2.281   2.695   2.759 -0.1725  0.4646  0.5030
  342SOL    HW1 1025   2.278   2.675   2.858  2.3726  0.6133  1.2535
  342SOL    HW2 1026   2.191   2.742   2.728 -0.6659 -0.3092  0.0333
  343SOL     OW 1027   2.935   2.716   0.983  0.1783 -0.0210 -0.5862
  343SOL    HW1 1028   3.011   2.730   1.041  0.4403 -1.5499 -3.0059
  343SOL    HW2 1029   2.851   2.767   1.010  1.3396 -0.7956 -0.9800
  344SOL     OW 1030   2.421   3.075   0.809  0.0595 -0.2425  0.5403
  344SOL    HW1 1031   2.503   3.099   0.863 -0.2510 -0.2268  1.8508
  344SOL    HW2 1032   2.439   2.992   0.754 -0.8683  0.4656  0.6221
  345SOL     OW 1033   2.512   2.338   0.247  0.0662 -0.5044 -0.2379
  345SOL    HW1 1034   2.584   2.348   0.181 -0.7099  0.8410  0.9868
  345SOL    HW2 1035   2.541   2.399   0.328  3.0988  0.6825  0.6064
  346SOL     OW 1036   1.388   2.075   1.749  0.0508 -0.6857  0.3232
  346SOL    HW1 1037   1.448   2.085   1.832 -0.5731 -3.3640 -2.8435
  346SOL    HW2 1038   1.344   1.980   1.746  0.6583  1.6874  0.2797
  347SOL     OW 1039   1.278   1.944   2.093  0.2209  0.1707 -0.2418
  347SOL    HW1 1040   1.308   1.892   2.177 -0.4737  0.5504 -1.8129
  347SOL    HW2 1041   1.348   1.999   2.048 -0.4719  1.0749 -2.0355
  348SOL     OW 1042   0.882   1.772   1.327  0.4933 -0.1361  0.5864
  348SOL    HW1 1043   0.802   1.763   1.267  1.5936  0.7747  1.3759
  348SOL    HW2 1044   0.861   1.797   1.422  3.5127  1.2996 -0.1471
  349SOL     OW 1045   1.830   1.435   1.498  0.1441  0.1033 -0.2065
  349SOL    HW1 1046   1.868   1.459   1.588 -1.1272  1.1971 -2.5200
  349SOL    HW2 1047   1.752   1.371   1.511 -1.8769 -0.9211  1.6065
  350SOL     OW 1048   2.477   2.309   0.650 -0.2704 -0.0752 -0.0697
  350SOL    HW1 1049   2.439   2.406   0.651  0.2128 -1.2302  1.8967
  350SOL    HW2 1050   2.452   2.258   0.565 -2.1748 -0.9219 -2.0732
  351SOL     OW 1051   0.357   3.060   1.906  0.4036 -0.1106 -0.1048
  351SOL    HW1 1052   0.324   3.045   1.810  0.8007 -0.3106  1.4446
  351SOL    HW2 1053   0.276   3.062   1.971 -1.2102 -2.4452 -0.5020
  352SOL     OW 1054   0.833   0.962   0.157 -0.6267 -0.0905  0.2887
  352SOL    HW1 1055   0.820   0.943   0.256 -1.1323 -0.7235  1.7539
  352SOL    HW2 1056   0.741   0.953   0.113  3.1554  2.1174 -2.2974
  353SOL     OW 1057   1.074   1.795   2.874  0.5231 -0.2007 -0.3798
  353SOL    HW1 1058   1.064   1.855   2.959  0.6227  2.0735  0.5317
  353SOL    HW2 1059   1.016   1.819   2.796 -0.9855  0.4251 -0.0893
  354SOL     OW 1060   1.810   2.777   1.911  0.3688 -0.0063  0.5755
  354SOL    HW1 1061   1.777   2.709   1.979  0.9811 -1.5200 -1.3434
  354SOL    HW2 1062   1.802   2.730   1.816 -1.4775 -2.6106 -1.5670
  355SOL     OW 1063   2.217   0.982   3.076 -0.4843 -0.2212 -0.4645
  355SOL    HW1 1064   2.174   1.035   3.002  1.4202  0.7038  0.8522
  355SOL    HW2 1065   2.245   1.048   0.029  0.6785 -0.2155  1.3966
  356SOL     OW 1066   0.339   2.199   1.322  0.1788  0.3652  0.3865
  356SOL    HW1 1067   0.362   2.120   1.265 -2.2042  1.6342  0.7680
  356SOL    HW2 1068   0.245   2.238   1.301 -3.6339  2.7773 -0.9736
  357SOL     OW 1069   3.099   2.828   1.642 -1.1896  0.7703  0.5374
  357SOL    HW1 1070   3.026   2.760   1.622  0.8389 -0.1162  1.0352
  357SOL    HW2 1071   3.061   2.922   1.644 -0.8882 -3.2918 -1.8653
  358SOL     OW 1072   2.481   1.977   1.482 -0.4034 -0.1669 -0.2667
  358SOL    HW1 1073   2.400   2.025   1.515  1.7417  1.4102  1.5508
  358SOL    HW2 1074   2.470   1.943   1.390  2.3115 -0.7746  1.9661
  359SOL     OW 1075   1.966   2.565   2.495 -0.2586  0.0633 -0.0023
  359SOL    HW1 1076   1.880   2.590   2.447 -0.5694 -2.6246 -0.9628
  359SOL    HW2 1077   1.944   2.483   2.548 -1.8280  0.0179 -0.8528
  360SOL     OW 1078   1.043   2.799   0.890  0.0733  0.2453  0.3177
  360SOL    HW1 1079   0.943   2.797   0.899  1.9949  2.8420  0.6171
  360SOL    HW2 1080   1.088   2.709   0.887 -0.1549  0.4892  0.8483
  361SOL     OW 1081   1.780   0.156   0.663 -0.0404  0.1074  0.3435
  361SOL    HW1 1082   1.735   0.172   0.573  1.9985  0.6221 -1.5286
  361SOL    HW2 1083   1.777   0.061   0.694  1.9900  2.9328 -1.6877
  362SOL     OW 1084   1.416   0.800   1.434  0.2094  0.2704 -0.0138
  362SOL    HW1 1085   1.495   0.807   1.376 -1.6456 -3.0478  1.0793
  362SOL    HW2 1086   1.364   0.890   1.443  0.2184 -1.0004  0.2779
  363SOL     OW 1087   1.903   1.482   1.969  0.3075  0.1167  0.4118
  363SOL    HW1 1088   1.812   1.466   2.022 -2.9531 -0.5307 -0.7550
  363SOL    HW2 1089   1.974   1.517   2.034 -3.0624  0.7011  0.9517
  364SOL     OW 1090   0.585   0.663   1.344 -0.0687 -0.1818 -0.3163
  364SOL    HW1 1091   0.658   0.642   1.278 -1.3255 -2.1234  0.6573
  364SOL    HW2 1092   0.533   0.744   1.315  0.3030 -2.5023  1.0716
  365SOL     OW 1093   0.357   0.402   2.364 -0.1912 -0.0196  1.0224
  365SOL    HW1 1094   0.359   0.447   2.452  1.7835 -1.9517  0.7755
  365SOL    HW2 1095   0.272   0.345   2.359  0.4728 -0.7864  1.4620
  366SOL     OW 1096   2.217   1.531   3.002 -0.2982 -0.4941 -0.2903
  366SOL    HW1 1097   2.241   1.593   3.077 -3.7798 -0.2205  0.7130
  366SOL    HW2 1098   2.129   1.480   3.027 -0.4875 -0.7833 -3.4633
  367SOL     OW 1099   2.767   2.554   2.914  0.3757  0.4268  0.3023
  367SOL    HW1 1100   2.810   2.631   2.963  0.0987 -0.8481  1.0708
  367SOL    HW2 1101   2.711   2.594   2.834 -0.1839  0.7489 -0.0046
  368SOL     OW 1102   0.204   1.138   0.898 -0.1494  0.7028 -0.6851
  368SOL    HW1 1103   0.111   1.144   0.936  1.6610  0.4184  1.4943
  368SOL    HW2 1104   0.248   1.227   0.885  0.8966  1.1091  2.6166
  369SOL     OW 1105   0.674   2.736   2.551 -0.6332  0.2683  0.1207
  369SOL    HW1 1106   0.669   2.780   2.642 -1.0399 -0.8021 -0.1768
  369SOL    HW2 1107   0.582   2.699   2.528 -1.0276 -1.4818  0.2126
  370SOL     OW 1108   2.996   0.530   0.736  0.0928  0.3766  0.4100
  370SOL    HW1 1109   2.949   0.525   0.644 -0.9721  0.0773 -2.5402
  370SOL    HW2 1110   2.934   0.563   0.805  2.0025 -2.2235 -0.6666
  371SOL     OW 1111   1.396   2.431   1.524  0.3955 -0.2919  0.4339
  371SOL    HW1 1112   1.400   2.535   1.539 -0.6276 -0.1433  0.2059
  371SOL    HW2 1113   1.321   2.396   1.576 -0.7386  0.1378  1.1825
  372SOL     OW 1114   2.775   0.337   2.490  0.0401  0.0244 -0.5691
  372SOL    HW1 1115   2.735   0.246   2.486  0.6327 -0.1634  1.2043
  372SOL    HW2 1116   2.877   0.331   2.507 -3.6943  0.2318 -0.4140
  373SOL     OW 1117   0.185   2.163   0.668  0.8291  0.2623 -0.5158
  373SOL    HW1 1118   0.267   2.213   0.708  2.4402  3.3923 -0.5410
  373SOL    HW2 1119   0.103   2.171   0.726  0.2257 -2.0065 -0.9532
  374SOL     OW 1120   0.185   0.046   2.608  0.1405  0.3971  0.1829
  374SOL    HW1 1121   0.208   0.110   2.684  1.6105  0.8246  0.0695
  374SOL    HW2 1122   0.275   0.005   2.573  0.1792 -0.9607 -1.1232
  375SOL     OW 1123   0.624   0.532   2.587 -0.1196 -0.0221  0.3618
  375SOL    HW1 1124   0.670   0.587   2.658 -1.4484 -0.7926  0.4080
  375SOL    HW2 1125   0.550   0.479   2.633 -1.8832  1.1267  2.2394
  376SOL     OW 1126   2.807   2.262   2.001 -0.1196 -0.0594 -0.3027
  376SOL    HW1 1127   2.763   2.314   2.081 -0.9867 -0.6779  3.3130
  376SOL    HW2 1128   2.907   2.278   1.993 -2.6773 -2.3586 -0.4380
  377SOL     OW 1129   1.329   3.062   2.913 -0.6032  0.2018  0.2809
  377SOL    HW1 1130   1.360   2.990   2.974 -0.4248  0.5600  0.7298
  377SOL    HW2 1131   1.351   3.043   2.812 -0.3272 -1.7101 -2.5663
  378SOL     OW 1132   3.036   0.604   2.697  0.6298 -0.3199  0.2365
  378SOL    HW1 1133   3.049   0.698   2.661  1.0465  0.8576 -0.2244
  378SOL    HW2 1134   3.049   0.532   2.626 -1.7276 -0.6794  2.7026
  379SOL     OW 1135   1.098   0.920   0.070  0.0052  0.3211 -0.1577
  379SOL    HW1 1136   0.996   0.920   0.086  0.1737  0.4474  0.9248
  379SOL    HW2 1137   1.146   0.936   0.158 -0.9865  0.9012 -1.7038
  380SOL     OW 1138   0.113   1.669   1.804 -0.4602 -0.0974 -0.6772
  380SOL    HW1 1139   0.139   1.753   1.856  0.1799  1.8926 -1.8665
  380SOL    HW2 1140   0.102   1.687   1.705 -0.9891 -2.3823 -2.0821
  381SOL     OW 1141   3.120   1.219   2.647  0.3844 -0.1093 -0.2164
  381SOL    HW1 1142   0.033   1.225   2.551 -1.4202  1.4674  0.4901
  381SOL    HW2 1143   3.051   1.293   2.661  0.1762 -1.6961 -0.9204
  382SOL     OW 1144   2.341   2.117   0.485  0.3260  0.2371  0.5368
  382SOL    HW1 1145   2.372   2.089   0.395 -3.6710 -0.8355  0.8319
  382SOL    HW2 1146   2.381   2.065   0.559 -1.8318  0.7248  2.1018
  383SOL     OW 1147   0.587   1.924   0.369 -0.2039 -0.7081 -0.5225
  383SOL    HW1 1148   0.571   1.827   0.347  0.2811  0.7805 -4.8943
  383SOL    HW2 1149   0.677   1.957   0.326  0.1491 -1.2148  0.4921
  384SOL     OW 1150   0.624   2.106   2.531  0.4214 -0.1226  0.3099
  384SOL    HW1 1151   0.702   2.083   2.593  0.8015  0.1029 -0.1184
  384SOL    HW2 1152   0.667   2.168   2.460  2.0952  0.8771 -1.1648
  385SOL     OW 1153   2.397   1.938   0.672  0.0432 -0.5366 -0.3030
  385SOL    HW1 1154   2.488   1.919   0.636 -2.3257 -0.4288  0.2928
  385SOL    HW2 1155   2.411   1.957   0.772  1.8758 -0.2570 -0.0022
  386SOL     OW 1156   2.341   0.793   1.335 -0.8211 -0.5866  0.4833
  386SOL    HW1 1157   2.350   0.775   1.233 -0.3269 -0.5797 -1.3742
  386SOL    HW2 1158   2.387   0.880   1.365 -0.8630 -0.3639 -2.4484
  387SOL     OW 1159   3.106   1.142   1.928 -0.6345  0.2554 -0.1242
  387SOL    HW1 1160   0.081   1.160   1.957  0.0088  2.4340 -2.7902
  387SOL    HW2 1161   3.086   1.190   1.842 -0.6807 -0.4331 -1.6178
  388SOL     OW 1162   0.452   1.658   2.244  0.3803 -0.4120 -0.3826
  388SOL    HW1 1163   0.481   1.746   2.203  0.5126 -0.6219 -1.1155
  388SOL    HW2 1164   0.476   1.586   2.180 -1.5760  1.0477  1.0845
  389SOL     OW 1165   0.699   0.971   1.988 -0.1050  0.2688  0.2999
  389SOL    HW1 1166   0.778   0.992   2.046 -0.5342 -0.7325 -1.4586
  389SOL    HW2 1167   0.725   0.935   1.894 -1.6364  0.7781  0.1243
  390SOL     OW 1168   2.719   2.932   0.494 -0.3585  0.0569 -0.1240
  390SOL    HW1 1169   2.622   2.958   0.505 -1.8966 -1.9661 -0.2019
  390SOL    HW2 1170   2.733   2.920   0.396  1.4150  0.8329  0.5543
  391SOL     OW 1171   1.855   1.635   1.358  0.0836 -0.1413 -0.6287
  391SOL    HW1 1172   1.847   1.557   1.423 -0.1678  1.9927  2.8371
  391SOL    HW2 1173   1.812   1.607   1.271  2.6068  0.5172  1.5649
  392SOL     OW 1174   2.827   2.785   3.013  0.1848 -0.6980 -0.3763
  392SOL    HW1 1175   2.836   2.885   2.982 -2.7212  1.7972  0.1104
  392SOL    HW2 1176   2.862   2.773   3.110  0.4807 -0.7341  1.4473
  393SOL     OW 1177   1.711   2.503   2.678  0.3383 -0.5511  0.2054
  393SOL    HW1 1178   1.770   2.550   2.746  0.5273 -0.6325  3.4371
  393SOL    HW2 1179   1.636   2.565   2.645 -1.1385  1.2133  0.9986
  394SOL     OW 1180   3.015   2.508   2.592 -0.0872  0.2824 -0.1096
  394SOL    HW1 1181   3.112   2.492   2.638  4.4844  1.3180  1.4495
  394SOL    HW2 1182   3.021   2.471   2.498 -0.5740 -0.0925  1.5095
  395SOL     OW 1183   0.047   0.341   0.654  0.3781 -0.4870 -0.0297
  395SOL    HW1 1184   3.109   0.406   0.709 -2.2413  1.6778 -0.0077
  395SOL    HW2 1185   0.059   0.254   0.703 -1.7475  4.3206 -2.7884
  396SOL     OW 1186   2.129   0.509   0.415  0.3704  0.0534  0.3420
  396SOL    HW1 1187   2.041   0.561   0.420 -0.0101 -1.0044  0.0278
  396SOL    HW2 1188   2.108   0.414   0.385 -0.5083  0.2042  0.3399
  397SOL     OW 1189   0.099   0.730   2.280 -0.2130 -0.0843 -0.4028
  397SOL    HW1 1190   0.154   0.680   2.210  2.2920 -4.2442  0.9688
  397SOL    HW2 1191   0.008   0.683   2.291  0.8516  0.2305  1.3617
  398SOL     OW 1192   0.889   2.839   0.319  0.8338 -0.4167 -0.2679
  398SOL    HW1 1193   0.947   2.911   0.274 -1.1314  0.5006  1.9586
  398SOL    HW2 1194   0.798   2.879   0.352 -3.5270 -1.9357  0.0024
  399SOL     OW 1195   2.076   0.488   2.183 -0.5671  0.0642  0.2212
  399SOL    HW1 1196   2.105   0.522   2.273 -0.7118  0.2500  0.2473
  399SOL    HW2 1197   2.009   0.544   2.139 -1.0005 -1.2836 -1.0952
  400SOL     OW 1198   0.891   2.055   2.617 -0.0774 -0.3685 -0.3088
  400SOL    HW1 1199   0.977   2.028   2.565 -0.7279 -0.5823 -0.5484
  400SOL    HW2 1200   0.917   2.115   2.695  1.1154  0.4821 -1.5100
  401SOL     OW 1201   0.337   1.142   2.651 -0.6531 -0.3815 -0.1955
  401SOL    HW1 1202   0.282   1.178   2.726  2.4964  0.9250 -3.9410
  401SOL    HW2 1203   0.408   1.076   2.681 -0.0152 -0.2427  0.3983
  402SOL     OW 1204   0.231   2.950   0.338 -0.1307 -0.1816 -0.1673
  402SOL    HW1 1205   0.330   2.937   0.335 -1.9436 -0.9788  0.0511
  402SOL    HW2 1206   0.214   2.984   0.432 -0.6112  1.2281  1.0898
  403SOL     OW 1207   0.561   1.123   1.644 -0.2970 -0.2653 -0.2023
  403SOL    HW1 1208   0.641   1.066   1.626 -0.8060  1.1166 -0.1273
  403SOL    HW2 1209   0.479   1.070   1.662  0.0609 -0.9955  1.3880
  404SOL     OW 1210   2.708   2.404   2.207 -0.1616  0.0683  0.2463
  404SOL    HW1 1211   2.762   2.480   2.241  0.3166 -1.2385  0.1167
  404SOL    HW2 1212   2.623   2.440   2.160 -0.2900  0.0939  1.4572
  405SOL     OW 1213   0.085   0.391   1.880  0.2033 -0.2575 -1.0512
  405SOL    HW1 1214   0.124   0.418   1.972  0.0687 -0.0016 -2.0588
  405SOL    HW2 1215   0.146   0.414   1.802  0.9944 -1.1351 -0.5390
  406SOL     OW 1216   1.260   1.452   2.638 -0.3940 -0.2188  0.1013
  406SOL    HW1 1217   1.283   1.528   2.704  2.5096  2.6177  1.3808
  406SOL    HW2 1218   1.169   1.417   2.666 -1.7727  0.5094  1.1311
  407SOL     OW 1219   1.911   0.956   2.926 -0.3469  0.4598 -0.1195
  407SOL    HW1 1220   1.958   0.919   2.841  1.8289  0.4426 -2.4728
  407SOL    HW2 1221   1.879   1.050   2.905  3.0674 -1.0948 -0.8968
  408SOL     OW 1222   0.181   2.774   2.420 -0.4674 -0.2068 -0.4886
  408SOL    HW1 1223   0.157   2.758   2.518 -3.5771  1.5398  1.7585
  408SOL    HW2 1224   0.208   2.684   2.376  0.2779 -0.6049 -0.4570
  409SOL     OW 1225   0.111   2.372   1.192  0.2294  0.4287 -0.3646
  409SOL    HW1 1226   0.031   2.419   1.234  1.2652  1.8422  0.7492
  409SOL    HW2 1227   0.173   2.450   1.163 -0.6092  2.5255  0.3265
  410SOL     OW 1228   2.871   1.743   0.449 -0.6151 -0.3910  0.0051
  410SOL    HW1 1229   2.919   1.831   0.442 -1.6047  0.7588  0.5776
  410SOL    HW2 1230   2.932   1.671   0.411 -1.8365  3.1543 -0.3340
  411SOL     OW 1231   2.779   0.080   1.059 -0.3648 -0.4528  0.1011
  411SOL    HW1 1232   2.739   0.059   1.155 -1.7111 -0.0521 -0.4647
  411SOL    HW2 1233   2.698   0.115   1.004 -1.5732 -0.1820 -0.5449
  412SOL     OW 1234   2.096   0.330   1.787 -0.1899  0.3493  0.1517
  412SOL    HW1 1235   2.169   0.295   1.725 -1.2583  2.5078  2.6281
  412SOL    HW2 1236   2.018   0.271   1.776  0.0432  2.4602  0.2088
  413SOL     OW 1237   0.182   0.543   2.109 -0.2763 -0.0139 -0.2998
  413SOL    HW1 1238   0.270   0.535   2.058  2.5142  1.4563 -2.4142
  413SOL    HW2 1239   0.174   0.472   2.185  4.7176 -0.9869  3.6651
  414SOL     OW 1240   3.064   1.163   3.039  0.6979 -0.1133 -0.0855
  414SOL    HW1 1241   2.994   1.108   3.094  0.5437 -1.9767 -0.6425
  414SOL    HW2 1242   3.027   1.178   2.947  0.4287 -3.0873  0.7410
  415SOL     OW 1243   1.097   2.473   0.008  0.4682  0.1628 -0.4208
  415SOL    HW1 1244   1.129   2.404   0.073 -1.0925 -1.6960 -0.3111
  415SOL    HW2 1245   1.086   2.566   0.046  1.6545 -0.5246 -0.7499
  416SOL     OW 1246   1.386   3.072   2.392 -0.3630 -0.3094  0.3686
  416SOL    HW1 1247   1.313   3.009   2.383  0.8731  2.8170 -0.7589
  416SOL    HW2 1248   1.450   3.067   2.309 -0.0795 -0.3708  1.0325
  417SOL     OW 1249   0.353   0.661   0.978  0.0291 -0.5076 -0.0161
  417SOL    HW1 1250   0.430   0.597   1.004 -1.5719 -0.5031  0.9554
  417SOL    HW2 1251   0.271   0.607   0.963  3.1260  0.4941  3.6722
  418SOL     OW 1252   2.934   0.114   0.670  0.1556  0.6308  0.2739
  418SOL    HW1 1253   2.909   0.084   0.764  3.0869  0.1397  0.7101
  418SOL    HW2 1254   2.875   0.191   0.642  2.3626 -1.4739  0.0886
  419SOL     OW 1255   0.267   3.009   0.049 -0.2339  0.6024  0.2889
  419SOL    HW1 1256   0.338   2.960   3.114 -0.2862 -1.5097  1.9310
  419SOL    HW2 1257   0.232   2.963   0.135  0.2562  3.5223 -0.0524
  420SOL     OW 1258   0.335   0.919   1.647  0.2464  0.8250  0.3126
  420SOL    HW1 1259   0.305   0.848   1.582  0.2175 -0.0006  3.4575
  420SOL    HW2 1260   0.282   0.902   1.731 -0.2480  1.3975 -0.5129
  421SOL     OW 1261   1.915   2.501   0.793  0.1338 -0.1595 -0.0231
  421SOL    HW1 1262   1.916   2.601   0.787  1.5793 -0.5247  0.2146
  421SOL    HW2 1263   1.847   2.453   0.739 -1.6681  0.4596 -3.3624
  422SOL     OW 1264   0.161   0.519   1.254 -0.1064 -0.4711 -0.2870
  422SOL    HW1 1265   0.236   0.449   1.235  0.4373  0.2855 -2.2088
  422SOL    HW2 1266   0.127   0.563   1.170 -1.6482  0.7221  2.7384
  423SOL     OW 1267   0.985   1.458   1.988  0.0843 -0.2118 -0.3119
  423SOL    HW1 1268   1.046   1.493   1.919 -0.3187 -0.9945  3.7322
  423SOL    HW2 1269   0.888   1.488   1.979  0.5724 -1.9929  1.1627
  424SOL     OW 1270   1.902   2.248   0.505  0.3622  0.0915  0.8099
  424SOL    HW1 1271   1.906   2.231   0.404 -0.5717  0.7724  0.1472
  424SOL    HW2 1272   1.900   2.154   0.544 -0.3100 -0.3111 -1.6874
  425SOL     OW 1273   2.734   0.003   1.922  0.0699 -0.9067  0.4030
  425SOL    HW1 1274   2.772   0.046   2.004 -0.6542  1.3714  0.1357
  425SOL    HW2 1275   2.750   3.024   1.931  2.6562 -1.2613  1.3784
  426SOL     OW 1276   2.991   2.773   2.596  0.5246  0.3938 -0.0146
  426SOL    HW1 1277   3.078   2.798   2.639 -0.0797 -1.0867 -0.3002
  426SOL    HW2 1278   2.978   2.671   2.594 -0.7042 -3.8323  1.1945
  427SOL     OW 1279   0.994   0.239   0.308  0.0453  0.0665  0.6603
  427SOL    HW1 1280   0.926   0.266   0.235  0.7670 -2.0622  1.4355
  427SOL    HW2 1281   0.972   0.143   0.339  0.4029 -1.3985 -0.2684
  428SOL     OW 1282   2.883   0.499   1.132 -0.1823  0.0695  0.1956
  428SOL    HW1 1283   2.918   0.405   1.116  1.6157  1.6851 -0.5676
  428SOL    HW2 1284   2.779   0.500   1.144  0.9500  0.0247 -0.1130
  429SOL     OW 1285   1.954   0.114   0.964 -0.7952  0.6849 -0.0699
  429SOL    HW1 1286   1.883   0.060   0.910  0.6182 -1.1826 -1.7559
  429SOL    HW2 1287   2.043   0.059   0.968  0.1655 -0.9031 -3.3288
  430SOL     OW 1288   0.866   1.663   2.460 -0.0583  0.2968  0.0307
  430SOL    HW1 1289   0.897   1.707   2.550  1.3658  0.8579  2.1083
  430SOL    HW2 1290   0.762   1.661   2.454 -1.2417  0.4811 -2.9107
  431SOL     OW 1291   0.018   1.873   1.116 -0.3817 -0.2179 -0.1597
  431SOL    HW1 1292   0.075   1.864   1.202  1.6653 -0.0863  1.9663
  431SOL    HW2 1293   3.091   1.965   1.117  1.5741  2.7506 -2.6162
  432SOL     OW 1294   1.457   2.622   2.326 -0.0651  0.2764 -0.9113
  432SOL    HW1 1295   1.440   2.692   2.254  2.3709  0.8257 -0.1604
  432SOL    HW2 1296   1.427   2.531   2.296 -0.1655  1.6133 -0.1004
  433SOL     OW 1297   1.419   0.279   2.491  0.7975  0.7569 -0.0069
  433SOL    HW1 1298   1.408   0.230   2.402 -2.1044 -0.1208  1.8994
  433SOL    HW2 1299   1.349   0.356   2.499 -1.8078 -1.2889 -0.9966
  434SOL     OW 1300   0.669   2.421   2.171  0.8738 -0.1690 -0.3475
  434SOL    HW1 1301   0.723   2.409   2.086  2.3198 -1.8623 -1.2934
  434SOL    HW2 1302   0.568   2.401   2.152 -1.3148  1.8271  0.3149
  435SOL     OW 1303   0.371   0.230   0.207 -0.1600  0.3551 -0.1404
  435SOL    HW1 1304   0.315   0.267   0.282 -4.2661  1.8097  0.7709
  435SOL    HW2 1305   0.306   0.195   0.138 -0.3899 -0.6360  1.2921
  436SOL     OW 1306   0.497   1.229   2.441  0.1748  0.2177  0.3571
  436SOL    HW1 1307   0.445   1.217   2.529 -1.6593  0.4936  1.8900
  436SOL    HW2 1308   0.571   1.162   2.429 -0.9697  0.3336  0.7238
  437SOL     OW 1309   0.765   2.489   2.756 -0.2216  0.5211  0.0061
  437SOL    HW1 1310   0.781   2.505   2.659  1.2675 -0.5385  0.4140
  437SOL    HW2 1311   0.668   2.466   2.770  1.4354 -0.4682  0.1509
  438SOL     OW 1312   0.858   1.160   0.707 -0.8516  0.4919 -0.0347
  438SOL    HW1 1313   0.916   1.173   0.784 -0.0758  1.9913 -1.3138
  438SOL    HW2 1314   0.910   1.144   0.620 -1.8022 -2.3868 -2.2450
  439SOL     OW 1315   2.669   1.431   2.459 -0.1190  0.4494 -0.2960
  439SOL    HW1 1316   2.752   1.372   2.441  1.1614 -0.7388  1.5078
  439SOL    HW2 1317   2.697   1.528   2.486 -1.3821  1.0731  1.2507
  440SOL     OW 1318   2.840   0.786   2.853  0.0936  0.3949 -0.5461
  440SOL    HW1 1319   2.868   0.806   2.757  0.0447  2.1639  0.6450
  440SOL    HW2 1320   2.889   0.702   2.890 -0.8905  0.1255 -0.1233
  441SOL     OW 1321   1.192   2.281   1.659 -0.6340  0.2359  0.3232
  441SOL    HW1 1322   1.114   2.251   1.712  0.4450 -0.8619  1.7404
  441SOL    HW2 1323   1.275   2.230   1.694 -0.0554 -0.7756 -0.9782
  442SOL     OW 1324   2.051   1.360   0.834  0.3737 -0.1203 -0.7333
  442SOL    HW1 1325   1.959   1.393   0.813 -0.3154  0.4003  1.8407
  442SOL    HW2 1326   2.069   1.274   0.779 -2.6510  0.1972  1.4055
  443SOL     OW 1327   2.317   2.279   2.906  0.1719  0.4577 -0.2663
  443SOL    HW1 1328   2.413   2.313   2.885  3.5502  1.0564  2.0698
  443SOL    HW2 1329   2.273   2.354   2.957 -0.4139  0.9542 -0.1075
  444SOL     OW 1330   1.881   1.477   2.780  0.1558  0.2273 -0.4014
  444SOL    HW1 1331   1.936   1.447   2.696 -2.7175  0.4997 -1.4124
  444SOL    HW2 1332   1.865   1.575   2.778  0.3339  1.2618  0.7695
  445SOL     OW 1333   0.244   2.116   2.306 -0.2215  0.4410  0.0554
  445SOL    HW1 1334   0.334   2.123   2.258  0.3877 -3.2050 -0.4430
  445SOL    HW2 1335   0.210   2.211   2.324  0.2686  1.3535  2.4871
  446SOL     OW 1336   0.963   1.003   1.591  0.3197  0.2833 -0.3190
  446SOL    HW1 1337   1.037   0.980   1.657  1.8786  0.7823  3.0851
  446SOL    HW2 1338   1.000   1.029   1.501  1.8901  0.8384  1.8381
  447SOL     OW 1339   0.988   1.122   0.480 -0.3121 -0.2177  0.0462
  447SOL    HW1 1340   0.975   1.190   0.406 -1.1793 -1.9034  2.0274
  447SOL    HW2 1341   0.991   1.032   0.433  0.5106 -2.1036 -1.5218
  448SOL     OW 1342   0.794   1.347   2.495 -0.0992  0.0882 -0.3062
  448SOL    HW1 1343   0.786   1.432   2.440  0.5423 -2.6845 -2.2543
  448SOL    HW2 1344   0.714   1.292   2.468  1.7339 -0.9557  2.0545
  449SOL     OW 1345   0.106   1.797   2.660  0.0540 -0.1684  0.1549
  449SOL    HW1 1346   0.140   1.842   2.574 -2.0386  0.4928 -0.5830
  449SOL    HW2 1347   0.006   1.772   2.649 -1.1666  0.4213 -0.5584
  450SOL     OW 1348   2.114   1.567   2.145 -0.1292  0.2948  0.4430
  450SOL    HW1 1349   2.130   1.592   2.243 -0.1705 -4.8696 -0.0290
  450SOL    HW2 1350   2.199   1.530   2.105 -2.9486  0.2388 -0.9299
  451SOL     OW 1351   2.619   1.402   1.180  0.2030  0.0301 -0.0480
  451SOL    HW1 1352   2.642   1.488   1.134 -0.3196 -2.5930  0.5836
  451SOL    HW2 1353   2.701   1.347   1.211  0.7021 -1.1311 -4.2974
  452SOL     OW 1354   0.870   1.287   1.208 -0.3841  0.4736  0.6747
  452SOL    HW1 1355   0.806   1.229   1.259 -0.1813 -1.8895  0.1030
  452SOL    HW2 1356   0.925   1.341   1.272 -1.0377 -1.0451  1.9263
  453SOL     OW 1357   0.693   1.806   0.870 -0.3013 -0.3849  0.0504
  453SOL    HW1 1358   0.595   1.786   0.865  0.0265  1.1267  2.6530
  453SOL    HW2 1359   0.741   1.733   0.815 -1.2927 -0.1977 -0.4780
  454SOL     OW 1360   1.189   1.611   0.130  0.2552  0.2130  0.1095
  454SOL    HW1 1361   1.227   1.625   0.224 -3.1327  2.4256 -0.6285
  454SOL    HW2 1362   1.091   1.577   0.130 -2.6145  0.5985 -1.6421
  455SOL     OW 1363   1.749   0.448   1.370  0.4880  0.5151  0.5866
  455SOL    HW1 1364   1.820   0.505   1.414 -2.1586  0.1284 -1.7402
  455SOL    HW2 1365   1.741   0.477   1.272  0.5226 -0.3786 -2.9826
  456SOL     OW 1366   1.734   2.807   0.757 -0.2812 -0.0644 -0.2698
  456SOL    HW1 1367   1.660   2.826   0.684 -1.9512  0.3333 -2.0554
  456SOL    HW2 1368   1.828   2.792   0.720 -1.6484  2.9317  1.1308
  457SOL     OW 1369   2.091   0.592   2.709  0.4659 -0.1156  0.4794
  457SOL    HW1 1370   2.002   0.573   2.757 -1.1133 -0.6808  2.6247
  457SOL    HW2 1371   2.168   0.552   2.763  0.7853  0.9569 -1.8049
  458SOL     OW 1372   2.642   0.503   2.688  0.3072  0.0180  0.2351
  458SOL    HW1 1373   2.651   0.442   2.607 -1.5990 -1.1134  1.5999
  458SOL    HW2 1374   2.723   0.491   2.746 -0.8498 -0.3270  0.0682
  459SOL     OW 1375   2.456   1.338   2.275  0.0297  0.2119 -0.8069
  459SOL    HW1 1376   2.391   1.413   2.251  0.0739 -4.3388 -1.8734
  459SOL    HW2 1377   2.546   1.369   2.319  2.1321 -0.0423 -0.3178
  460SOL     OW 1378   0.752   0.879   2.920  0.2916 -0.8287  0.4205
  460SOL    HW1 1379   0.711   0.896   3.008  0.4086 -2.1050 -0.9911
  460SOL    HW2 1380   0.784   0.966   2.876  0.7346 -0.1642 -0.3815
  461SOL     OW 1381   0.412   2.133   0.024 -0.0690 -0.4018  0.1577
  461SOL    HW1 1382   0.437   2.147   0.122 -2.7163 -1.4572 -0.3799
  461SOL    HW2 1383   0.313   2.103   0.013 -3.1658  1.0908  1.1875
  462SOL     OW 1384   1.046   3.057   2.175  0.0232  0.0716  0.3009
  462SOL    HW1 1385   1.071   2.992   2.252 -1.3003 -0.7140 -3.1774
  462SOL    HW2 1386   0.990   0.009   2.214  1.2692  0.6128 -3.0242
  463SOL     OW 1387   1.968   2.166   2.121 -0.1767 -0.1191 -0.3750
  463SOL    HW1 1388   1.909   2.091   2.157 -0.9271 -1.3703  1.8603
  463SOL    HW2 1389   2.043   2.140   2.057 -1.9315 -1.5120  0.0844
  464SOL     OW 1390   2.697   2.828   1.011  0.1677 -0.3326  0.1741
  464SOL    HW1 1391   2.634   2.878   1.078 -4.3464  0.9612 -1.8957
  464SOL    HW2 1392   2.649   2.760   0.947 -0.6360 -0.3054 -0.1891
  465SOL     OW 1393   0.050   0.162   1.437 -0.0599 -0.0777 -0.3549
  465SOL    HW1 1394   0.054   0.133   1.530 -1.6368  2.2608 -3.4739
  465SOL    HW2 1395   0.114   0.107   1.378  2.6910  0.0455 -0.2253
  466SOL     OW 1396   1.239   2.228   2.579 -0.2434 -0.8384 -0.0698
  466SOL    HW1 1397   1.206   2.325   2.593  0.2221 -0.2711 -0.6241
  466SOL    HW2 1398   1.282   2.220   2.488 -0.8941 -2.2451 -2.9761
  467SOL     OW 1399   0.088   2.276   0.444  0.2828 -0.5096  0.6733
  467SOL    HW1 1400   0.125   2.234   0.525 -3.3890  1.0858 -0.9965
  467SOL    HW2 1401   0.088   2.221   0.360 -1.7593  2.9363  0.0341
  468SOL     OW 1402   2.008   1.979   3.107 -0.5565  0.1797  0.0886
  468SOL    HW1 1403   1.984   1.890   3.073 -0.0373  5.9940 -0.0721
  468SOL    HW2 1404   2.108   1.999   3.092 -1.1048  0.9621  1.4137
  469SOL     OW 1405   1.136   2.244   0.736  0.1386 -0.2441  0.2775
  469SOL    HW1 1406   1.228   2.242   0.781 -0.0874  0.9794  0.3222
  469SOL    HW2 1407   1.141   2.260   0.634  0.4843  0.9167 -2.3936
  470SOL     OW 1408   2.018   0.727   0.853 -0.0740  0.3315  0.1061
  470SOL    HW1 1409   1.996   0.671   0.932  1.8489 -0.8030 -2.4950
  470SOL    HW2 1410   2.055   0.817   0.888  1.4251  2.8022  0.1477
  471SOL     OW 1411   0.424   2.133   0.289  0.0172  0.2963  0.0353
  471SOL    HW1 1412   0.485   2.064   0.339  1.4426 -0.5727  2.7746
  471SOL    HW2 1413   0.329   2.126   0.319 -0.7895 -2.8171  0.1051
  472SOL     OW 1414   2.558   1.696   2.793 -0.4309 -0.1013 -0.0236
  472SOL    HW1 1415   2.610   1.618   2.834 -3.3355 -0.0691  2.3963
  472SOL    HW2 1416   2.467   1.666   2.758  1.1158  2.2359 -2.6135
  473SOL     OW 1417   1.667   2.012   0.789  0.3414 -0.2062  0.2577
  473SOL    HW1 1418   1.615   2.095   0.748 -3.9384  2.8181  0.6209
  473SOL    HW2 1419   1.663   2.020   0.891 -4.4760  0.9198 -0.0979
  474SOL     OW 1420   2.674   0.440   0.789  0.2762  0.3166  0.3990
  474SOL    HW1 1421   2.637   0.459   0.692 -4.7499  0.6881 -1.0260
  474SOL    HW2 1422   2.702   0.526   0.836 -1.3245  0.3665  1.3597
  475SOL     OW 1423   2.507   2.784   1.395 -0.1029  0.4655 -0.3616
  475SOL    HW1 1424   2.427   2.795   1.459 -1.4054  0.0032  0.2527
  475SOL    HW2 1425   2.499   2.846   1.318 -1.3470  0.6192  1.3515
  476SOL     OW 1426   0.613   0.326   0.823 -0.3929  0.3214 -0.3484
  476SOL    HW1 1427   0.571   0.261   0.757 -1.3163 -1.6010 -0.4947
  476SOL    HW2 1428   0.663   0.398   0.768 -0.4574 -0.7461 -1.3015
  477SOL     OW 1429   1.152   2.345   1.356 -0.3268  0.0150  0.6354
  477SOL    HW1 1430   1.232   2.397   1.320 -2.2139  0.8982 -0.2125
  477SOL    HW2 1431   1.146   2.344   1.456  1.1527  1.6393 -1.6755
  478SOL     OW 1432   1.422   2.661   2.833  0.2719  0.0047  0.4140
  478SOL    HW1 1433   1.341   2.715   2.862  0.1446 -2.1370  1.8852
  478SOL    HW2 1434   1.427   2.653   2.732 -0.3716 -0.2779 -1.6915
  479SOL     OW 1435   2.418   0.893   1.755  0.2373  0.4313 -0.0643
  479SOL    HW1 1436   2.406   0.985   1.720  0.0946 -0.1088  2.9601
  479SOL    HW2 1437   2.505   0.859   1.716 -3.1488 -0.6688  2.2855
  480SOL     OW 1438   2.803   2.094   2.777  0.6487  0.0949 -0.1987
  480SOL    HW1 1439   2.782   2.185   2.735 -2.9408  0.2594  1.7208
  480SOL    HW2 1440   2.804   2.019   2.708  1.4289  0.2793 -1.6302
  481SOL     OW 1441   1.763   0.065   2.057 -0.1120 -1.0338  0.0930
  481SOL    HW1 1442   1.815   0.076   2.144  1.4265 -0.7750 -0.4810
  481SOL    HW2 1443   1.678   0.120   2.055  0.4877 -1.3859  0.0627
  482SOL     OW 1444   1.666   2.247   2.551  0.4671 -0.0148 -0.2030
  482SOL    HW1 1445   1.691   2.333   2.601  3.0811  2.9384  0.8004
  482SOL    HW2 1446   1.745   2.181   2.543  0.6018  0.0754 -2.8212
  483SOL     OW 1447   1.152   2.503   2.605  0.2802  0.7804 -0.2886
  483SOL    HW1 1448   1.132   2.513   2.705  0.4865  0.1086  0.2616
  483SOL    HW2 1449   1.190   2.588   2.567  0.9899  0.0812  1.8966
  484SOL     OW 1450   2.708   3.120   1.319 -0.5752  0.1644 -0.2099
  484SOL    HW1 1451   2.633   0.041   1.376  0.1884 -0.0785 -1.2843
  484SOL    HW2 1452   2.785   3.080   1.376  2.0633 -3.0614  0.8913
  485SOL     OW 1453   1.900   0.662   0.482 -0.3363 -0.6759 -0.0099
  485SOL    HW1 1454   1.839   0.673   0.565  1.7731  0.1516  1.0358
  485SOL    HW2 1455   1.948   0.754   0.469  4.4722  2.3175 -1.6965
  486SOL     OW 1456   2.411   2.774   2.232 -0.3525 -0.3006  0.3493
  486SOL    HW1 1457   2.383   2.867   2.263  2.1245 -1.3801  2.5728
  486SOL    HW2 1458   2.342   2.750   2.164  1.5479  2.5057  2.9654
  487SOL     OW 1459   1.491   0.666   0.480 -0.0497  0.1433 -0.8068
  487SOL    HW1 1460   1.476   0.690   0.574  1.0372 -1.9433 -1.8416
  487SOL    HW2 1461   1.521   0.566   0.467 -1.5751  1.7709 -2.3150
  488SOL     OW 1462   2.647   2.840   2.517 -0.1358  0.3963  0.3588
  488SOL    HW1 1463   2.667   2.846   2.413  0.1093  1.7817 -1.4786
  488SOL    HW2 1464   2.548   2.863   2.540  1.9503 -1.4482 -1.0045
  489SOL     OW 1465   1.540   2.967   0.167 -1.0685 -0.2786  0.2295
  489SOL    HW1 1466   1.485   3.025   0.227  1.4279 -1.3656 -1.0635
  489SOL    HW2 1467   1.629   2.940   0.211  0.0835 -1.1486 -1.1501
  490SOL     OW 1468   1.726   0.379   0.011  0.1422 -0.1375  0.4658
  490SOL    HW1 1469   1.650   0.447   3.118 -0.5635 -0.2640 -2.2760
  490SOL    HW2 1470   1.807   0.412   0.062 -0.1253 -1.9212 -3.5103
  491SOL     OW 1471   0.522   2.849   1.262  0.5504  0.3709  0.2851
  491SOL    HW1 1472   0.526   2.881   1.358 -0.5554 -1.2962 -0.5129
  491SOL    HW2 1473   0.595   2.891   1.204  0.5992 -1.6077 -1.8166
  492SOL     OW 1474   1.563   2.856   0.546  0.3707 -0.0883  0.4709
  492SOL    HW1 1475   1.541   2.755   0.535  2.4837 -1.6739  0.0198
  492SOL    HW2 1476   1.646   2.875   0.483  1.5193 -1.4798 -2.1536
  493SOL     OW 1477   1.179   2.223   2.971 -0.5968  0.4455  0.4825
  493SOL    HW1 1478   1.263   2.228   2.917 -0.8342  0.1029 -1.4695
  493SOL    HW2 1479   1.155   2.306   3.027  2.7059  0.6998  0.2364
  494SOL     OW 1480   0.795   0.875   0.423 -0.9914  0.4216 -0.4362
  494SOL    HW1 1481   0.701   0.837   0.444 -1.2846 -0.7419 -0.8417
  494SOL    HW2 1482   0.838   0.917   0.506 -0.9731  1.1330  1.1762
  495SOL     OW 1483   2.785   0.585   1.795 -0.3223 -0.1423 -0.4720
  495SOL    HW1 1484   2.871   0.543   1.752 -1.3257 -0.0552  1.1653
  495SOL    HW2 1485   2.741   0.659   1.740  0.0978 -1.0958  0.7367
  496SOL     OW 1486   2.211   2.532   2.345 -0.7239  0.4493 -0.2720
  496SOL    HW1 1487   2.235   2.630   2.328  1.1673 -1.6990 -0.0733
  496SOL    HW2 1488   2.115   2.522   2.376  0.3525  1.7467 -2.5251
  497SOL     OW 1489   1.635   1.375   2.752 -0.1045 -0.1789 -0.2293
  497SOL    HW1 1490   1.733   1.418   2.764  1.8631  0.9824 -1.5347
  497SOL    HW2 1491   1.589   1.377   2.843 -2.5245 -0.4212 -0.8109
  498SOL     OW 1492   0.934   2.301   0.928 -0.1262  0.9004  0.1984
  498SOL    HW1 1493   1.019   2.289   0.868  1.4610  0.5971 -0.6239
  498SOL    HW2 1494   0.947   2.259   1.022  0.5213 -0.0629 -2.6473
  499SOL     OW 1495   0.194   2.188   1.013  0.0865 -0.0420  0.4296
  499SOL    HW1 1496   0.124   2.181   0.938 -0.6439  1.7684  0.2096
  499SOL    HW2 1497   0.157   2.251   1.084 -0.0428 -0.3085 -2.2059
  500SOL     OW 1498   1.038   2.726   0.127 -0.1892 -0.4169 -0.2521
  500SOL    HW1 1499   0.987   2.759   0.208  0.8825 -0.6221 -1.0232
  500SOL    HW2 1500   1.139   2.745   0.135  1.9241 -2.1286 -0.8955
  501SOL     OW 1501   1.976   2.754   0.627 -0.1102 -1.3786  0.5895
  501SOL    HW1 1502   1.996   2.851   0.587  1.4879 -0.5933 -0.4578
  501SOL    HW2 1503   2.024   2.685   0.581 -2.2021  2.8028 -0.0788
  502SOL     OW 1504   0.047   0.297   1.040 -0.8397  0.4278 -0.4897
  502SOL    HW1 1505   3.107   0.253   1.116 -3.3156 -0.5408  0.1698
  502SOL    HW2 1506   0.084   0.230   0.974  0.5569  2.1580 -0.5618
  503SOL     OW 1507   2.078   0.001   1.960 -0.1621  0.0170 -0.1640
  503SOL    HW1 1508   2.061   0.088   2.013  0.0924  0.5296  0.1469
  503SOL    HW2 1509   2.117   0.014   1.866 -0.7322 -0.2357 -2.3530
  504SOL     OW 1510   2.044   1.048   1.960 -0.0847  0.1540 -0.8638
  504SOL    HW1 1511   2.074   0.992   1.878  2.7197 -0.9441 -1.0624
  504SOL    HW2 1512   1.999   1.133   1.927 -0.9837 -0.8922  1.5062
  505SOL     OW 1513   1.748   2.934   2.393 -0.5245  0.1898  0.3014
  505SOL    HW1 1514   1.847   2.962   2.374 -0.5180  0.9205 -1.7776
  505SOL    HW2 1515   1.687   2.984   2.332  2.3664  0.1741 -1.5229
  506SOL     OW 1516   0.284   0.785   1.904  0.5299  0.7560 -0.0693
  506SOL    HW1 1517   0.285   0.835   1.994  1.9917  2.0181 -1.3206
  506SOL    HW2 1518   0.377   0.761   1.870  1.2332  0.3010 -3.3052
  507SOL     OW 1519   1.765   0.535   0.300  0.4084 -0.0117 -0.1698
  507SOL    HW1 1520   1.683   0.478   0.320  1.2886 -1.8877  0.9011
  507SOL    HW2 1521   1.812   0.565   0.388  1.0897  1.9780  1.4078
  508SOL     OW 1522   2.051   0.800   2.128  0.0500 -0.0447  0.0481
  508SOL    HW1 1523   2.071   0.864   2.051  0.4064  0.3257 -2.4946
  508SOL    HW2 1524   2.140   0.773   2.172 -0.7220  2.4256  1.9386
  509SOL     OW 1525   0.610   1.771   2.781 -0.5285  0.4453 -0.2760
  509SOL    HW1 1526   0.598   1.822   2.868  0.9572  1.2506  2.3214
  509SOL    HW2 1527   0.557   1.813   2.707  0.7438 -0.6098  3.4179
  510SOL     OW 1528   3.094   0.800   0.781 -0.0168 -0.0747 -0.8341
  510SOL    HW1 1529   3.050   0.710   0.769  2.1539  0.1650  1.6102
  510SOL    HW2 1530   0.024   0.806   0.868  0.1493 -0.5110  1.6203
  511SOL     OW 1531   1.675   1.060   1.309 -0.5315  0.2581 -0.6117
  511SOL    HW1 1532   1.635   1.125   1.376 -1.1688 -1.3641  0.4639
  511SOL    HW2 1533   1.774   1.083   1.291  1.3409 -0.3919 -2.0020
  512SOL     OW 1534   0.504   2.122   0.789 -0.1779  0.6013 -0.4952
  512SOL    HW1 1535   0.572   2.102   0.722 -0.4122 -0.4445  1.7396
  512SOL    HW2 1536   0.471   2.218   0.784  2.3892  0.7919 -0.0660
  513SOL     OW 1537   0.460   2.397   1.036  0.3878 -0.2683 -0.0966
  513SOL    HW1 1538   0.392   2.467   1.066 -0.0355 -0.1199  1.2597
  513SOL    HW2 1539   0.425   2.304   1.059  0.8125 -0.8844 -1.3731
  514SOL     OW 1540   0.698   2.015   0.610 -0.5904 -0.7826 -0.1849
  514SOL    HW1 1541   0.780   1.949   0.611  1.3524 -1.3864 -1.4580
  514SOL    HW2 1542   0.640   2.008   0.526 -2.1420 -0.5005  0.3303
  515SOL     OW 1543   0.162   0.125   0.039  0.0970 -0.2518  0.4082
  515SOL    HW1 1544   0.221   0.040   0.048 -0.2843 -1.6290 -2.4242
  515SOL    HW2 1545   0.066   0.100   0.063 -2.3316  1.3176 -1.3116
  516SOL     OW 1546   1.791   3.089   1.221 -0.1139  0.4133 -0.3135
  516SOL    HW1 1547   1.749   0.053   1.262 -0.8311  0.8872  3.3899
  516SOL    HW2 1548   1.872   3.105   1.167  0.5765  0.5563  1.9279
  517SOL     OW 1549   1.689   1.731   0.854 -0.1810 -0.2593 -0.0824
  517SOL    HW1 1550   1.690   1.823   0.801 -1.6971 -1.0032 -0.8116
  517SOL    HW2 1551   1.756   1.731   0.930  0.5908 -0.7226 -2.4981
  518SOL     OW 1552   1.532   2.801   0.943  0.3232 -0.1696 -0.0932
  518SOL    HW1 1553   1.459   2.727   0.946  1.4649 -2.2573  1.0537
  518SOL    HW2 1554   1.594   2.773   0.871 -2.0122 -1.5204  3.2061
  519SOL     OW 1555   0.056   2.324   0.072 -0.6833  0.6159  0.3111
  519SOL    HW1 1556   0.093   2.366   3.105  1.8517  0.2308  1.5346
  519SOL    HW2 1557   0.119   2.258   0.118  0.8753 -1.1453  3.0639
  520SOL     OW 1558   2.149   1.901   2.286 -0.0745 -0.1716 -0.1154
  520SOL    HW1 1559   2.101   1.983   2.321  1.0487 -0.5895  0.2628
  520SOL    HW2 1560   2.141   1.882   2.186  2.1142  0.4942 -1.2618
  521SOL     OW 1561   1.299   3.032   2.079 -0.0240 -0.3101  0.2468
  521SOL    HW1 1562   1.316   3.058   1.983  2.8244  1.8560 -0.2783
  521SOL    HW2 1563   1.200   3.040   2.107  0.2432  1.9211  0.8841
  522SOL     OW 1564   0.401   2.440   2.125 -0.8679 -0.0453 -0.6238
  522SOL    HW1 1565   0.359   2.505   2.059  1.4341 -2.3847  1.7603
  522SOL    HW2 1566   0.339   2.380   2.183  0.0326  0.4140 -0.6772
  523SOL     OW 1567   1.028   2.008   1.997 -0.3822 -0.2520  0.3249
  523SOL    HW1 1568   0.985   2.033   2.086  2.0294 -5.4629 -2.2290
  523SOL    HW2 1569   1.123   1.968   2.007  0.2519 -1.5207  2.9860
  524SOL     OW 1570   2.417   2.068   0.220  0.1239 -0.4637 -0.8600
  524SOL    HW1 1571   2.446   2.164   0.249  1.3615 -0.6500  0.7064
  524SOL    HW2 1572   2.369   2.065   0.126 -0.2148 -2.1014 -3.4274
  525SOL     OW 1573   2.769   1.075   2.898 -0.1201  0.1712 -0.2421
  525SOL    HW1 1574   2.689   1.085   2.840  1.8756 -1.1002  2.5892
  525SOL    HW2 1575   2.811   0.982   2.881  1.1381 -2.6866 -0.6402
  526SOL     OW 1576   0.229   2.833   0.829  0.0840 -0.2857  0.6028
  526SOL    HW1 1577   0.251   2.733   0.828 -1.6816 -2.9255  1.1193
  526SOL    HW2 1578   0.153   2.858   0.767 -0.6929  0.1149  1.0263
  527SOL     OW 1579   3.097   1.245   0.723 -0.7912  0.0143 -0.4960
  527SOL    HW1 1580   3.014   1.206   0.765  0.3901 -0.7431 -0.5258
  527SOL    HW2 1581   3.066   1.288   0.635  3.2060  0.3338  2.1843
  528SOL     OW 1582   0.709   1.055   2.398  0.4407  0.0378 -0.4567
  528SOL    HW1 1583   0.634   0.984   2.411 -2.2553  0.6823 -1.8221
  528SOL    HW2 1584   0.777   1.047   2.471 -2.8241  1.8501  0.3272
  529SOL     OW 1585   0.950   1.506   0.173  0.1059 -0.1486  0.4338
  529SOL    HW1 1586   0.957   1.403   0.165  0.4613 -1.6678 -1.1211
  529SOL    HW2 1587   0.866   1.549   0.125 -0.6390  3.8003 -0.5902
  530SOL     OW 1588   1.112   1.118   1.999  0.6035  0.4670 -0.1687
  530SOL    HW1 1589   1.163   1.146   1.919 -2.2160  1.5904  1.2426
  530SOL    HW2 1590   1.125   1.020   2.017 -0.7034 -0.5361  0.5025
  531SOL     OW 1591   1.128   2.213   0.160  0.0475  0.3718 -0.0345
  531SOL    HW1 1592   1.115   2.124   0.209  1.6171 -0.5737 -0.3727
  531SOL    HW2 1593   1.204   2.269   0.200 -3.2947 -1.5132  1.2620
  532SOL     OW 1594   2.258   0.816   2.338 -0.0237 -0.2964  0.3794
  532SOL    HW1 1595   2.216   0.903   2.305  1.3495 -1.5792 -2.0049
  532SOL    HW2 1596   2.357   0.837   2.350  1.6812 -1.1129 -1.7343
  533SOL     OW 1597   3.071   0.135   1.909  0.0951 -0.3365 -0.2845
  533SOL    HW1 1598   2.975   0.151   1.932  3.7630 -1.8393  0.5867
  533SOL    HW2 1599   0.002   0.222   1.922  0.8656 -0.5016 -1.9468
  534SOL     OW 1600   2.586   0.137   0.294 -0.0863 -0.5185 -0.5581
  534SOL    HW1 1601   2.679   0.142   0.332  0.4971  1.7546  1.4436
  534SOL    HW2 1602   2.572   0.158   0.196 -0.3187 -1.0079  2.2640
  535SOL     OW 1603   0.420   0.486   3.103 -0.1403  0.0137  0.0852
  535SOL    HW1 1604   0.466   0.557   0.043  2.7134 -3.0838  1.4131
  535SOL    HW2 1605   0.366   0.417   0.037  1.3377 -0.2095 -0.0987
  536SOL     OW 1606   1.108   2.050   1.483 -0.4462 -0.1349  0.1422
  536SOL    HW1 1607   1.091   2.061   1.382 -2.4726  0.6774 -1.1147
  536SOL    HW2 1608   1.092   2.143   1.531  0.2855  0.7555  1.0984
  537SOL     OW 1609   3.002   2.527   1.546  0.3997 -0.4140 -0.3106
  537SOL    HW1 1610   2.925   2.560   1.607 -0.2548 -1.6697 -1.4394
  537SOL    HW2 1611   3.075   2.486   1.603 -3.8265  1.3868 -0.4185
  538SOL     OW 1612   0.510   2.377   0.362  0.3167  0.0264  0.4468
  538SOL    HW1 1613   0.584   2.416   0.301 -0.0873 -0.0528 -0.4276
  538SOL    HW2 1614   0.484   2.281   0.326  0.6107 -0.5488 -0.9169
  539SOL     OW 1615   2.129   1.228   2.401 -0.3066  0.1239 -0.6070
  539SOL    HW1 1616   2.067   1.161   2.451  2.4131  2.8029  3.7192
  539SOL    HW2 1617   2.210   1.187   2.346 -1.2479 -1.1902 -1.0690
  540SOL     OW 1618   1.806   0.733   3.029 -0.6337 -0.4034  0.4443
  540SOL    HW1 1619   1.880   0.706   3.092  1.0928 -4.2354  1.4370
  540SOL    HW2 1620   1.838   0.812   2.971 -0.8216  0.7930 -1.6252
  541SOL     OW 1621   0.480   0.881   2.381 -0.0184 -0.0866 -0.4134
  541SOL    HW1 1622   0.480   0.787   2.344 -3.4759  1.6255 -0.0536
  541SOL    HW2 1623   0.413   0.893   2.457  0.0849  0.1455  1.3543
  542SOL     OW 1624   1.402   2.648   1.920 -0.1321  0.0965 -0.1182
  542SOL    HW1 1625   1.325   2.579   1.945 -1.4487 -1.2658  0.1779
  542SOL    HW2 1626   1.472   2.603   1.860 -2.8022 -0.8644 -0.4538
  543SOL     OW 1627   0.547   2.762   0.310  0.3610  0.2836  0.3614
  543SOL    HW1 1628   0.545   2.731   0.213 -1.9165 -0.2575  0.3655
  543SOL    HW2 1629   0.483   2.709   0.372 -0.8921 -0.1518  1.1838
  544SOL     OW 1630   2.715   2.008   2.509 -0.2910  0.2507 -0.0117
  544SOL    HW1 1631   2.668   2.096   2.498  0.4443 -3.2281  1.8766
  544SOL    HW2 1632   2.810   2.008   2.464  0.4189 -0.2309  1.5954
  545SOL     OW 1633   1.429   1.604   1.833 -0.3240 -0.1370 -0.5828
  545SOL    HW1 1634   1.440   1.635   1.928  0.1266  1.5963  1.5975
  545SOL    HW2 1635   1.333   1.591   1.812  1.4314  1.6286  0.6606
  546SOL     OW 1636   3.073   0.349   2.560 -0.0402 -0.1955 -0.8276
  546SOL    HW1 1637   3.051   0.264   2.605  0.6531  2.0330  0.4472
  546SOL    HW2 1638   0.020   0.335   2.485 -0.8909  0.1967  0.9199
  547SOL     OW 1639   1.311   3.051   1.154 -0.0799 -0.3230  0.6896
  547SOL    HW1 1640   1.236   3.028   1.217  1.6052  0.2262 -1.4170
  547SOL    HW2 1641   1.395   3.000   1.166  2.2511 -0.7599 -0.6834
  548SOL     OW 1642   1.355   2.041   3.084  0.2345  0.4426 -0.5225
  548SOL    HW1 1643   1.430   2.111   3.097  0.1770  1.5030  0.1718
  548SOL    HW2 1644   1.271   2.094   3.062  0.4893 -0.6414  1.9529
  549SOL     OW 1645   2.140   0.754   0.096 -0.3616 -0.3333  0.2379
  549SOL    HW1 1646   2.221   0.697   0.086 -0.5359 -0.8838 -1.8982
  549SOL    HW2 1647   2.144   0.842   0.051  2.1345 -0.4424  0.6026
  550SOL     OW 1648   2.863   2.105   0.883 -0.0819  0.4249 -0.2058
  550SOL    HW1 1649   2.775   2.160   0.878 -0.5402 -0.7251 -0.2004
  550SOL    HW2 1650   2.836   2.009   0.861  2.0561 -0.3337  1.5889
  551SOL     OW 1651   0.963   0.359   1.343  0.0876 -0.1980 -0.0277
  551SOL    HW1 1652   0.879   0.323   1.379 -0.6351  0.3951  1.0173
  551SOL    HW2 1653   1.030   0.371   1.417  0.1840 -0.0416  0.1108
  552SOL     OW 1654   0.064   1.508   2.952  0.1547 -0.6529  0.0454
  552SOL    HW1 1655   0.129   1.572   2.902  0.8453  0.6931  2.5892
  552SOL    HW2 1656   0.026   1.547   3.040 -1.1130  0.1919  0.1505
  553SOL     OW 1657   2.489   2.568   0.424 -0.2507 -0.1235  0.1998
  553SOL    HW1 1658   2.561   2.590   0.491 -0.2266 -1.7152 -0.9889
  553SOL    HW2 1659   2.432   2.645   0.397 -0.5226 -1.7137  2.6386
  554SOL     OW 1660   2.134   1.089   1.541  0.6453  0.0437 -0.6327
  554SOL    HW1 1661   2.054   1.117   1.487 -0.9250  0.7636 -1.1727
  554SOL    HW2 1662   2.108   1.010   1.603  0.0733  0.6969  0.4289
  555SOL     OW 1663   0.963   2.090   2.254  0.1514  0.4982 -0.5360
  555SOL    HW1 1664   1.033   2.056   2.319 -0.9776 -0.6193  1.9554
  555SOL    HW2 1665   0.874   2.094   2.300 -0.6516  1.0550 -2.1344
  556SOL     OW 1666   1.253   1.176   1.760  0.1887 -0.4749 -0.5552
  556SOL    HW1 1667   1.330   1.242   1.794 -0.7632  2.1288  0.5097
  556SOL    HW2 1668   1.298   1.096   1.715 -0.8290  0.5723 -2.5989
  557SOL     OW 1669   1.199   0.106   1.426 -0.0639 -0.0545  0.0030
  557SOL    HW1 1670   1.245   0.135   1.339 -2.9302 -0.0107 -0.3637
  557SOL    HW2 1671   1.179   0.192   1.481  2.3744 -1.6376 -0.6047
  558SOL     OW 1672   0.465   0.650   2.233 -0.2359  0.2665  0.3896
  558SOL    HW1 1673   0.418   0.563   2.252  0.7596 -1.0975  0.2549
  558SOL    HW2 1674   0.565   0.644   2.211  1.2736 -0.7435  1.4193
  559SOL     OW 1675   1.312   2.685   0.223  0.2174  0.0531 -0.0162
  559SOL    HW1 1676   1.304   2.763   0.284 -0.5051 -0.8871  1.7106
  559SOL    HW2 1677   1.381   2.706   0.151  1.8738  1.9194  0.1283
  560SOL     OW 1678   1.527   2.139   0.266  0.3853 -0.1649  0.1016
  560SOL    HW1 1679   1.607   2.085   0.289 -1.4618  1.0719  0.0047
  560SOL    HW2 1680   1.522   2.176   0.167 -0.2208  2.5137 -1.3104
  561SOL     OW 1681   1.341   0.070   0.764 -0.5820 -0.2966 -0.8018
  561SOL    HW1 1682   1.421   0.050   0.821 -2.5114  2.1467  0.9335
  561SOL    HW2 1683   1.257   0.020   0.797 -2.0744 -1.6683  0.1852
  562SOL     OW 1684   0.448   0.993   2.108 -0.0202 -0.0596 -0.1716
  562SOL    HW1 1685   0.530   1.012   2.046  1.9508  1.6833  0.3329
  562SOL    HW2 1686   0.483   0.940   2.191 -0.6123 -0.7707  2.5299
  563SOL     OW 1687   1.409   2.222   2.800  0.0215 -0.3510 -0.1254
  563SOL    HW1 1688   1.357   2.208   2.714  2.0636 -1.1342  1.6238
  563SOL    HW2 1689   1.461   2.139   2.822 -0.1552 -1.2761  2.6912
  564SOL     OW 1690   2.619   0.797   1.091 -0.4461 -0.2875 -0.1108
  564SOL    HW1 1691   2.641   0.887   1.134  2.4200 -2.3506 -0.6085
  564SOL    HW2 1692   2.522   0.778   1.057  0.1541 -0.7840  0.3542
  565SOL     OW 1693   1.251   1.184   0.156 -0.7070 -0.2036  0.2968
  565SOL    HW1 1694   1.265   1.188   0.055 -2.0040 -0.1930  3.3833
  565SOL    HW2 1695   1.304   1.260   0.200  0.6128  2.1458  0.4086
  566SOL     OW 1696   2.198   2.762   3.023  0.0393  0.3428  0.0945
  566SOL    HW1 1697   2.108   2.810   3.002  1.5512 -1.7115 -2.0219
  566SOL    HW2 1698   2.251   2.806   3.091  0.6766 -1.2543 -3.5804
  567SOL     OW 1699   1.635   0.837   1.032  0.0597  0.6036  0.3614
  567SOL    HW1 1700   1.709   0.902   1.004 -2.4360 -0.0927  2.2124
  567SOL    HW2 1701   1.650   0.784   1.118 -2.1961 -1.2241  0.8420
  568SOL     OW 1702   1.509   1.414   2.524  0.1508 -0.2673  0.0597
  568SOL    HW1 1703   1.406   1.422   2.536  0.5332  3.4524 -0.7309
  568SOL    HW2 1704   1.549   1.404   2.619  1.7326  1.0996  1.7830
  569SOL     OW 1705   2.053   1.771   0.903 -0.2466 -0.4466 -0.5869
  569SOL    HW1 1706   2.079   1.857   0.853  0.1628  0.7291 -1.9430
  569SOL    HW2 1707   2.134   1.710   0.914  0.9616  1.2173  0.3743
  570SOL     OW 1708   2.626   2.277   2.450  0.0079 -0.1606 -0.4217
  570SOL    HW1 1709   2.648   2.312   2.355  1.2040  0.6448  0.7490
  570SOL    HW2 1710   2.525   2.277   2.462  0.8612 -1.5564  1.3826
  571SOL     OW 1711   2.701   1.793   1.858 -0.7442 -0.3390 -0.2357
  571SOL    HW1 1712   2.684   1.753   1.951 -1.1000 -2.4906  2.6924
  571SOL    HW2 1713   2.613   1.818   1.815 -0.1922 -1.3818  2.4107
  572SOL     OW 1714   1.516   2.440   2.948  0.3910  0.1116 -0.2311
  572SOL    HW1 1715   1.501   2.523   2.891  1.2730 -2.1323 -0.2643
  572SOL    HW2 1716   1.489   2.358   2.898  1.2714 -0.9551  0.2192
  573SOL     OW 1717   1.470   2.169   1.193 -0.6220 -0.6882 -0.7475
  573SOL    HW1 1718   1.482   2.121   1.283  0.5560 -0.9208 -0.7911
  573SOL    HW2 1719   1.430   2.263   1.209 -2.1240 -1.3503 -2.1532
  574SOL     OW 1720   1.096   2.743   1.386  0.0680  0.4414  0.1056
  574SOL    HW1 1721   1.024   2.676   1.406  0.1367  0.1381  2.6039
  574SOL    HW2 1722   1.078   2.822   1.451 -0.5561 -0.8962  1.1428
  575SOL     OW 1723   0.889   0.628   0.949  0.3117 -0.4934  0.2573
  575SOL    HW1 1724   0.980   0.597   0.979  0.9998 -3.6342  2.1618
  575SOL    HW2 1725   0.890   0.724   0.906  0.0030  0.7158 -0.8943
  576SOL     OW 1726   2.533   0.354   1.351 -0.0860 -0.1066  0.3599
  576SOL    HW1 1727   2.550   0.409   1.264  2.2629 -1.2318  0.4488
  576SOL    HW2 1728   2.621   0.351   1.407 -2.1256  0.7957 -2.3709
  577SOL     OW 1729   2.346   0.237   2.705  0.3266  0.7893 -0.1931
  577SOL    HW1 1730   2.337   0.320   2.764 -0.9757  0.5420 -0.5428
  577SOL    HW2 1731   2.306   0.262   2.615 -0.7634  1.9396  1.0349
  578SOL     OW 1732   2.107   1.837   2.033 -0.2720  0.5938 -0.4810
  578SOL    HW1 1733   2.114   1.737   2.061 -1.2344 -2.8023  0.6040
  578SOL    HW2 1734   2.123   1.857   1.934  1.4129 -3.2846  2.3857
  579SOL     OW 1735   0.692   1.780   1.145 -0.5864 -0.6491  0.2760
  579SOL    HW1 1736   0.738   1.824   1.062  0.8362  1.0181 -0.9291
  579SOL    HW2 1737   0.626   1.710   1.127  0.8292  0.7277  0.1981
  580SOL     OW 1738   1.538   2.682   2.576  0.2575 -0.1981  0.3063
  580SOL    HW1 1739   1.507   2.653   2.485  1.4009 -1.1254 -0.9700
  580SOL    HW2 1740   1.574   2.779   2.568 -1.7063  0.2755  1.3120
  581SOL     OW 1741   0.726   0.680   2.176 -0.3568  0.0926 -0.8770
  581SOL    HW1 1742   0.758   0.611   2.250  1.2766  0.2678  4.8433
  581SOL    HW2 1743   0.797   0.743   2.143 -0.9220  0.3240 -0.1408
  582SOL     OW 1744   0.526   0.635   0.639 -0.1139 -0.1634 -0.1829
  582SOL    HW1 1745   0.612   0.631   0.695 -0.8228 -0.9101 -2.6402
  582SOL    HW2 1746   0.442   0.583   0.669 -3.7649 -0.7511  2.3283
  583SOL     OW 1747   0.731   1.544   1.926 -0.0403 -0.2321  0.1880
  583SOL    HW1 1748   0.644   1.514   1.965 -1.3002 -1.4630 -0.2736
  583SOL    HW2 1749   0.754   1.642   1.958  0.3260  0.2206  1.0547
  584SOL     OW 1750   2.340   2.780   0.393 -0.1376  0.2072  0.3939
  584SOL    HW1 1751   2.260   2.785   0.332 -1.2719 -0.8714 -0.0317
  584SOL    HW2 1752   2.402   2.859   0.375 -0.9656  0.7958  1.6309
  585SOL     OW 1753   2.320   0.777   2.878 -0.2093  0.2027  0.1959
  585SOL    HW1 1754   2.306   0.837   2.960  0.5849  0.7193  0.2780
  585SOL    HW2 1755   2.395   0.714   2.913 -1.4856  0.3825 -0.2168
  586SOL     OW 1756   0.620   1.653   0.387 -0.2232  0.1890  0.0034
  586SOL    HW1 1757   0.554   1.647   0.463  1.8447 -1.8650  0.1396
  586SOL    HW2 1758   0.719   1.628   0.415  2.4218  0.0131 -0.0812
  587SOL     OW 1759   1.677   2.060   1.053 -0.6456  0.0781  0.0790
  587SOL    HW1 1760   1.733   2.015   1.129  1.0597 -1.0356  1.8512
  587SOL    HW2 1761   1.598   2.099   1.101  1.8706  1.2964 -1.2964
  588SOL     OW 1762   0.515   0.451   1.033  0.2445 -0.2294  0.1945
  588SOL    HW1 1763   0.599   0.461   1.085 -2.6264  0.2995  0.0339
  588SOL    HW2 1764   0.529   0.398   0.949 -0.9338  1.7051  0.1320
  589SOL     OW 1765   1.578   2.918   1.184 -0.2193 -0.3648 -0.5446
  589SOL    HW1 1766   1.559   2.872   1.097  0.3164  0.4164 -0.1020
  589SOL    HW2 1767   1.662   2.977   1.176 -0.7738 -0.9160 -2.0260
  590SOL     OW 1768   1.388   1.036   0.336  0.3488  0.3636 -0.2135
  590SOL    HW1 1769   1.442   0.953   0.312 -0.6148 -0.1648 -0.0587
  590SOL    HW2 1770   1.362   1.094   0.253 -0.4573  1.0208 -2.8351
  591SOL     OW 1771   2.356   2.232   2.182 -0.2047  0.4254 -0.2664
  591SOL    HW1 1772   2.327   2.253   2.279  0.9764  1.1683  1.9731
  591SOL    HW2 1773   2.423   2.152   2.172 -0.2757  1.1432  0.5844
  592SOL     OW 1774   1.498   2.049   1.494 -0.1208  0.2862 -0.5222
  592SOL    HW1 1775   1.563   1.973   1.493 -2.6698 -1.5412 -0.1881
  592SOL    HW2 1776   1.459   2.065   1.587  0.3963 -3.3345  0.6677
  593SOL     OW 1777   0.899   0.016   0.451 -0.2549  0.3157 -0.4503
  593SOL    HW1 1778   0.812   3.090   0.438 -1.4441  0.1271  1.7216
  593SOL    HW2 1779   0.912   0.066   0.540  1.9256  1.7408  3.8012
  594SOL     OW 1780   0.012   0.837   1.878  0.2288 -0.1519  0.2725
  594SOL    HW1 1781   3.115   0.932   1.906 -0.3666 -0.5644  1.5292
  594SOL    HW2 1782   0.108   0.816   1.895 -3.1128  1.5864 -1.0609
  595SOL     OW 1783   3.071   2.862   0.639 -0.0689  0.0836  0.0313
  595SOL    HW1 1784   3.091   2.940   0.580 -1.7723  2.2874  1.0548
  595SOL    HW2 1785   2.985   2.880   0.687  0.1714 -2.2994 -1.4448
  596SOL     OW 1786   0.020   0.420   1.461  0.1275 -0.2404  0.5332
  596SOL    HW1 1787   0.046   0.456   1.369  2.6521  0.8647  0.3919
  596SOL    HW2 1788   0.026   0.315   1.457  0.9622 -2.1909 -1.1457
  597SOL     OW 1789   2.336   0.973   0.432  0.5844 -0.5209  0.2396
  597SOL    HW1 1790   2.430   0.989   0.397  0.4750  1.1302 -2.5845
  597SOL    HW2 1791   2.299   1.055   0.479 -1.1593  2.3525  0.4134
  598SOL     OW 1792   0.565   0.070   1.984  0.5136 -0.3498 -0.1405
  598SOL    HW1 1793   0.480   0.020   1.958  1.0623  0.8481 -0.9652
  598SOL    HW2 1794   0.542   0.149   2.043 -0.8947  2.4588 -0.3990
  599SOL     OW 1795   2.625   1.677   0.099  0.0908  0.0464 -0.2998
  599SOL    HW1 1796   2.640   1.781   0.093 -1.5165 -0.4656 -1.8337
  599SOL    HW2 1797   2.704   1.630   0.053 -0.3710  0.2014  0.2393
  600SOL     OW 1798   1.094   1.026   2.922  0.5282 -0.1984 -0.1275
  600SOL    HW1 1799   1.008   1.054   2.873  2.8014  3.8258 -0.5288
  600SOL    HW2 1800   1.073   0.967   3.002 -0.3112  1.6889  2.2969
  601SOL     OW 1801   1.277   1.185   3.016  0.0116  0.0264  0.3977
  601SOL    HW1 1802   1.257   1.289   3.017 -0.5441  0.5970 -0.2607
  601SOL    HW2 1803   1.204   1.131   2.972  0.9838  1.8022  1.2483
  602SOL     OW 1804   1.077   3.046   1.553  0.1422 -0.7452  0.2768
  602SOL    HW1 1805   1.142   2.996   1.618  1.3921 -0.9088 -1.4474
  602SOL    HW2 1806   1.125   0.005   1.505  1.3979  2.5913  0.1892
  603SOL     OW 1807   1.102   2.891   2.365  0.1474 -0.0845 -0.2323
  603SOL    HW1 1808   1.017   2.835   2.353  0.3079  0.7150  0.4548
  603SOL    HW2 1809   1.175   2.848   2.420  1.2199  0.3444 -0.1503
  604SOL     OW 1810   2.871   0.150   2.114  0.0602  0.1534  0.1806
  604SOL    HW1 1811   2.828   0.241   2.131  0.5268 -1.2993  2.4066
  604SOL    HW2 1812   2.890   0.099   2.200  0.0291 -3.0294  1.8213
  605SOL     OW 1813   2.469   2.539   1.271 -0.2997  0.4421 -0.6161
  605SOL    HW1 1814   2.410   2.480   1.336  0.9383 -1.4047  0.5750
  605SOL    HW2 1815   2.493   2.623   1.323  0.6147 -0.0397 -0.1826
  606SOL     OW 1816   2.959   1.857   2.865 -0.1223  0.2206  0.2661
  606SOL    HW1 1817   2.948   1.958   2.878  0.9392 -1.8314 -1.8373
  606SOL    HW2 1818   2.974   1.807   2.953  0.4261 -1.5991  0.5840
  607SOL     OW 1819   0.922   0.189   0.685 -0.1704 -0.1208  0.1733
  607SOL    HW1 1820   0.952   0.273   0.628  1.5871  0.2339 -0.6105
  607SOL    HW2 1821   0.965   0.194   0.777 -2.7777 -0.1476  0.2208
  608SOL     OW 1822   1.644   1.571   2.306 -0.1484 -0.4388  0.5111
  608SOL    HW1 1823   1.614   1.513   2.383  1.8777 -2.2144  2.0959
  608SOL    HW2 1824   1.703   1.515   2.241  2.2119 -1.7106 -0.1050
  609SOL     OW 1825   2.844   0.624   0.913 -0.0171  0.4356  0.0622
  609SOL    HW1 1826   2.851   0.543   0.975  2.4439 -1.0596  0.5687
  609SOL    HW2 1827   2.817   0.713   0.951 -0.7423  0.8891  1.1613
  610SOL     OW 1828   0.738   2.505   0.137  0.7135  0.1102 -0.0384
  610SOL    HW1 1829   0.789   2.534   0.216  0.3134 -0.5668 -1.7012
  610SOL    HW2 1830   0.782   2.428   0.092 -1.9358  0.3455  1.0145
  611SOL     OW 1831   1.930   1.497   0.471  0.3407 -0.0681  0.3583
  611SOL    HW1 1832   1.996   1.425   0.436  0.7288  1.3023  2.2060
  611SOL    HW2 1833   1.855   1.510   0.405 -0.3594 -0.2245  0.4516
  612SOL     OW 1834   0.898   2.476   2.465 -0.0873  0.0327  0.1416
  612SOL    HW1 1835   0.994   2.474   2.507  4.7180  0.8246  2.1376
  612SOL    HW2 1836   0.866   2.571   2.463  0.6691  0.4217 -1.0823
  613SOL     OW 1837   1.314   1.706   0.347  0.1283 -0.0490 -0.4123
  613SOL    HW1 1838   1.348   1.626   0.402 -0.0003 -1.4405  2.3494
  613SOL    HW2 1839   1.277   1.776   0.413  0.1882  1.2875  1.9873
  614SOL     OW 1840   2.669   2.188   1.774 -0.5634 -0.2174  0.2744
  614SOL    HW1 1841   2.720   2.181   1.683  1.2150 -0.8742 -0.9207
  614SOL    HW2 1842   2.732   2.196   1.854  1.0010 -1.9509  2.9982
  615SOL     OW 1843   2.575   1.322   0.056  0.1973 -0.0807 -0.3182
  615SOL    HW1 1844   2.635   1.381   3.121 -0.5037 -0.8388  1.8905
  615SOL    HW2 1845   2.489   1.305   0.006  0.8332  0.8362  2.7655
  616SOL     OW 1846   1.524   0.075   0.993  0.2216 -0.2862 -0.5786
  616SOL    HW1 1847   1.568   0.149   1.042 -0.5770  0.5422  1.6498
  616SOL    HW2 1848   1.472   0.019   1.057  0.3647  0.3159  0.7492
  617SOL     OW 1849   0.872   1.091   2.784  0.0060 -0.1125  0.3306
  617SOL    HW1 1850   0.907   1.071   2.688 -1.6185  0.1592  1.2605
  617SOL    HW2 1851   0.817   1.178   2.797  1.3447  0.4825 -1.4690
  618SOL     OW 1852   0.452   0.525   1.541 -0.1941  0.2880  0.0616
  618SOL    HW1 1853   0.456   0.571   1.633 -0.5967  2.5598 -2.1465
  618SOL    HW2 1854   0.491   0.574   1.466 -0.1308 -3.6169  3.7363
  619SOL     OW 1855   2.877   0.850   1.501  0.1665 -0.4441 -0.3569
  619SOL    HW1 1856   2.918   0.818   1.413 -0.7651  1.7531  0.8337
  619SOL    HW2 1857   2.947   0.853   1.580  0.8969 -0.3049  0.7196
  620SOL     OW 1858   1.965   1.260   0.137  0.0075  0.7639  0.1530
  620SOL    HW1 1859   1.949   1.164   0.104  0.0270 -0.9080  1.0682
  620SOL    HW2 1860   1.968   1.321   0.054  0.2656  0.6020  1.2744
  621SOL     OW 1861   2.260   3.084   1.221 -0.2683  0.2010  0.0682
  621SOL    HW1 1862   2.333   0.032   1.205 -0.7899  1.5640 -0.4760
  621SOL    HW2 1863   2.185   0.006   1.281 -3.2876  0.7681 -0.5800
  622SOL     OW 1864   1.433   0.699   2.038  0.6216  0.2154 -0.4472
  622SOL    HW1 1865   1.506   0.761   2.010 -1.8537  1.4023 -1.2509
  622SOL    HW2 1866   1.444   0.668   2.131 -1.0123 -0.1478 -2.6643
  623SOL     OW 1867   1.008   0.585   2.882  0.1454  0.2893 -0.0832
  623SOL    HW1 1868   0.907   0.604   2.886 -0.1611 -1.9125 -0.8750
  623SOL    HW2 1869   1.055   0.647   2.812 -0.2104  0.9549  1.5180
  624SOL     OW 1870   1.802   0.397   0.807  0.1612 -0.2624 -0.4144
  624SOL    HW1 1871   1.715   0.445   0.793  0.7267  0.2131  0.9232
  624SOL    HW2 1872   1.807   0.298   0.777 -0.4675  0.0316  0.2181
  625SOL     OW 1873   0.794   1.597   0.718  0.4701  0.0660  0.1036
  625SOL    HW1 1874   0.849   1.567   0.638  1.0551 -1.5134 -0.8348
  625SOL    HW2 1875   0.709   1.537   0.732 -4.6472  0.8493  0.0541
  626SOL     OW 1876   1.605   1.093   2.809  0.6352  0.1724 -0.0173
  626SOL    HW1 1877   1.605   1.195   2.804  0.8101  1.2777 -0.4014
  626SOL    HW2 1878   1.530   1.051   2.863 -1.8729 -0.9053  1.1146
  627SOL     OW 1879   0.775   0.322   1.583  0.6487  0.2907  0.0118
  627SOL    HW1 1880   0.810   0.283   1.667 -0.8286 -0.0973 -0.3577
  627SOL    HW2 1881   0.684   0.277   1.564 -1.7560 -2.6902  0.6863
  628SOL     OW 1882   2.138   0.593   2.429  0.8486  0.5528 -0.3353
  628SOL    HW1 1883   2.110   0.592   2.525  0.3064 -0.7809 -1.1673
  628SOL    HW2 1884   2.173   0.691   2.412  0.1582  2.5420  1.4823
  629SOL     OW 1885   0.817   1.538   2.886 -0.0644  0.0584  0.0031
  629SOL    HW1 1886   0.776   1.628   2.865 -0.8670 -2.3018  4.1080
  629SOL    HW2 1887   0.833   1.511   2.983 -0.6034 -1.7940 -1.3300
  630SOL     OW 1888   0.967   0.279   2.230 -0.1560 -0.2469  0.4838
  630SOL    HW1 1889   0.991   0.374   2.252 -2.6356 -0.7991  1.2826
  630SOL    HW2 1890   0.881   0.248   2.276 -0.6981 -0.5935  0.6877
  631SOL     OW 1891   2.580   1.229   0.967 -0.1399 -0.0328  0.1279
  631SOL    HW1 1892   2.607   1.296   1.036 -0.8155 -1.2545 -1.0389
  631SOL    HW2 1893   2.498   1.266   0.918 -0.9834  0.8945  0.4267
  632SOL     OW 1894   2.563   1.466   0.819 -0.2001 -0.0147 -0.1512
  632SOL    HW1 1895   2.654   1.442   0.769  4.1090 -1.2434 -2.5878
  632SOL    HW2 1896   2.526   1.542   0.765  0.3319 -2.3423  1.1664
  633SOL     OW 1897   1.007   1.235   0.963 -0.2072  0.0464 -0.6260
  633SOL    HW1 1898   0.955   1.243   1.048  1.1262  0.7415  0.1515
  633SOL    HW2 1899   1.043   1.328   0.936  0.2629  1.7053 -2.5330
  634SOL     OW 1900   1.742   3.073   0.859 -0.3187 -0.0740 -0.1610
  634SOL    HW1 1901   1.669   0.009   0.906 -0.1989 -0.5782 -1.1675
  634SOL    HW2 1902   1.724   2.973   0.861 -1.4493  0.2424 -1.6254
  635SOL     OW 1903   1.910   0.681   1.447 -0.4961  0.2966  0.0454
  635SOL    HW1 1904   2.003   0.638   1.458  3.4371 -2.6876 -0.6972
  635SOL    HW2 1905   1.880   0.714   1.537 -0.0546 -2.1974 -1.2710
  636SOL     OW 1906   1.412   0.761   0.725  0.8420 -0.2958 -0.1488
  636SOL    HW1 1907   1.310   0.759   0.748 -2.8626  0.8964  1.7821
  636SOL    HW2 1908   1.452   0.847   0.768  3.0915  4.3660  0.5963
  637SOL     OW 1909   1.550   2.223   0.015 -0.3097  0.6167 -0.1810
  637SOL    HW1 1910   1.537   2.314   3.091  0.7491  0.5731  1.9178
  637SOL    HW2 1911   1.640   2.180   3.107  1.2402  0.1934 -0.2714
  638SOL     OW 1912   1.144   2.790   2.844 -0.4137 -0.2639  0.6568
  638SOL    HW1 1913   1.088   2.701   2.835 -1.7962 -2.2435 -2.0712
  638SOL    HW2 1914   1.103   2.854   2.908  1.0867  0.1010  1.3539
  639SOL     OW 1915   1.283   1.859   1.624 -0.2328  0.6060  0.7096
  639SOL    HW1 1916   1.331   1.784   1.575 -0.6380  1.5502  0.7980
  639SOL    HW2 1917   1.230   1.927   1.564 -0.2622  2.2193 -1.4688
  640SOL     OW 1918   0.707   3.036   0.025 -0.1760 -0.0020 -0.1174
  640SOL    HW1 1919   0.622   2.985   0.006 -0.6584 -1.9344  0.4160
  640SOL    HW2 1920   0.691   3.117   0.078 -0.9907 -2.7667 -0.3836
  641SOL     OW 1921   0.169   0.432   0.235 -0.7463  0.4660 -0.3128
  641SOL    HW1 1922   0.124   0.360   0.292 -2.1669  1.1907 -0.8196
  641SOL    HW2 1923   0.217   0.505   0.295 -0.1850 -0.6847 -2.0712
  642SOL     OW 1924   0.487   1.615   1.102  0.2666 -0.1732 -0.2951
  642SOL    HW1 1925   0.420   1.675   1.150  1.5588  0.6877 -1.6384
  642SOL    HW2 1926   0.459   1.517   1.117  0.4383 -1.3428 -0.1649
  643SOL     OW 1927   0.472   1.884   2.575 -0.0718 -0.0379 -0.0713
  643SOL    HW1 1928   0.529   1.968   2.569  2.0070  0.8409 -0.6717
  643SOL    HW2 1929   0.377   1.900   2.540 -0.1402 -0.2829  1.2000
  644SOL     OW 1930   1.698   2.499   0.265  0.5757 -0.6473 -0.5896
  644SOL    HW1 1931   1.774   2.435   0.286  1.3252 -1.4713 -2.0698
  644SOL    HW2 1932   1.635   2.531   0.343 -0.6629  1.2352  0.6244
  645SOL     OW 1933   1.985   2.146   1.779 -0.1031 -0.7695  0.0945
  645SOL    HW1 1934   1.920   2.212   1.810 -1.4593 -1.3902  0.4146
  645SOL    HW2 1935   2.068   2.152   1.837  3.3358 -0.7314  1.2963
  646SOL     OW 1936   0.799   2.589   0.410  0.0245 -0.1790 -0.5145
  646SOL    HW1 1937   0.817   2.682   0.373 -1.1376 -1.9499 -1.4099
  646SOL    HW2 1938   0.742   2.590   0.496  1.7267  0.0844  0.7980
  647SOL     OW 1939   0.117   3.052   2.011 -0.2351 -0.0521 -0.0890
  647SOL    HW1 1940   0.052   0.009   1.983 -2.7376 -0.3831  0.7623
  647SOL    HW2 1941   0.106   3.026   2.110 -0.2359  0.4195  0.4378
  648SOL     OW 1942   2.829   1.191   0.831  0.3656 -0.2646  0.3582
  648SOL    HW1 1943   2.823   1.091   0.816  2.4900  1.2127  0.1322
  648SOL    HW2 1944   2.736   1.224   0.864  1.7229 -0.2472  3.4316
  649SOL     OW 1945   2.036   2.777   2.681  0.5179 -0.3746 -0.1530
  649SOL    HW1 1946   2.022   2.713   2.605 -0.1923 -0.5366 -0.4792
  649SOL    HW2 1947   2.038   2.873   2.652  2.5416 -1.2565  0.4520
  650SOL     OW 1948   2.346   1.525   1.627  0.0318  0.5568 -0.3110
  650SOL    HW1 1949   2.285   1.443   1.649 -2.8798 -1.6199  3.4755
  650SOL    HW2 1950   2.432   1.523   1.679 -2.2764  0.6727 -0.7381
  651SOL     OW 1951   1.320   1.657   2.846 -0.2671  0.9602  0.0798
  651SOL    HW1 1952   1.222   1.684   2.855 -1.9725 -1.1504 -1.3092
  651SOL    HW2 1953   1.390   1.727   2.875 -2.3064  0.5508  2.8193
  652SOL     OW 1954   0.581   2.899   2.812  0.3387  0.1423  0.1905
  652SOL    HW1 1955   0.682   2.922   2.824 -0.0524 -0.6774  0.1914
  652SOL    HW2 1956   0.519   2.976   2.786 -1.7535  0.0008 -0.5391
  653SOL     OW 1957   2.430   2.009   0.922  0.2677  0.2640 -0.0166
  653SOL    HW1 1958   2.510   2.074   0.911  2.6480  2.8374 -0.8542
  653SOL    HW2 1959   2.415   1.980   1.018 -0.2104  1.5809  0.3017
  654SOL     OW 1960   2.470   3.085   2.037 -0.2999  0.0661 -0.6908
  654SOL    HW1 1961   2.397   0.037   2.021  0.0547  0.9611 -0.6621
  654SOL    HW2 1962   2.561   3.115   2.001 -1.1649 -0.7990 -0.2094
  655SOL     OW 1963   2.760   2.229   1.277  0.7057 -0.5817 -0.1498
  655SOL    HW1 1964   2.757   2.332   1.271 -1.4836 -0.0815  1.5602
  655SOL    HW2 1965   2.670   2.197   1.252 -0.0542 -0.1234  0.6143
  656SOL     OW 1966   2.441   1.954   2.920 -0.3666  0.5722  0.2804
  656SOL    HW1 1967   2.524   2.013   2.939  3.5135  1.7404  0.5291
  656SOL    HW2 1968   2.478   1.864   2.901  1.8844  0.9369 -2.9929
  657SOL     OW 1969   0.090   1.095   0.375 -0.1401 -0.1804 -0.5318
  657SOL    HW1 1970   3.108   1.106   0.364 -0.9776 -0.3321 -1.1122
  657SOL    HW2 1971   0.111   1.027   0.446 -1.5840 -1.7932  2.0477
  658SOL     OW 1972   1.384   1.460   1.534 -0.1563  0.2357  0.0767
  658SOL    HW1 1973   1.426   1.548   1.500  2.1691  1.9054 -2.2039
  658SOL    HW2 1974   1.311   1.473   1.604  1.5858  0.0410 -1.6061
  659SOL     OW 1975   0.812   0.074   1.070  0.6120  0.2273  0.0273
  659SOL    HW1 1976   0.899   0.115   1.039  1.1514  3.2882  2.4217
  659SOL    HW2 1977   0.787   0.112   1.161  2.8810 -0.9143 -1.7472
  660SOL     OW 1978   2.360   0.769   1.034 -0.7393 -0.0492  0.6346
  660SOL    HW1 1979   2.354   0.777   0.932 -0.0774  0.3870  0.6182
  660SOL    HW2 1980   2.316   0.682   1.057 -0.4278  1.7788 -0.3272
  661SOL     OW 1981   0.481   1.787   0.154 -0.1948 -0.6298 -0.5950
  661SOL    HW1 1982   0.524   1.699   0.194  1.9687 -2.7196  1.8805
  661SOL    HW2 1983   0.549   1.830   0.089 -1.0672  0.3454 -0.9617
  662SOL     OW 1984   2.438   0.965   2.092 -0.1524 -0.0849 -0.0118
  662SOL    HW1 1985   2.479   0.896   2.150  0.8159  1.4770 -1.9051
  662SOL    HW2 1986   2.480   0.967   2.003 -2.0073  1.1158  1.1632
  663SOL     OW 1987   2.030   1.314   1.120  0.2876  0.4494  0.4117
  663SOL    HW1 1988   1.939   1.297   1.078  1.8070 -0.5352  3.0876
  663SOL    HW2 1989   2.097   1.264   1.058 -0.0901  0.7078 -1.4133
  664SOL     OW 1990   0.177   3.110   1.234 -0.0650 -0.0363 -0.0433
  664SOL    HW1 1991   0.239   3.081   1.157  3.1236  3.1381 -2.4036
  664SOL    HW2 1992   0.087   3.073   1.216  1.2118  0.8864 -2.0892
  665SOL     OW 1993   1.581   0.332   2.902 -0.6021 -0.2614  0.4317
  665SOL    HW1 1994   1.636   0.320   2.988 -0.2761  0.2071  1.8284
  665SOL    HW2 1995   1.515   0.410   2.905  0.6658  2.5684 -1.3821
  666SOL     OW 1996   0.474   0.279   2.158 -0.3499  0.5051  1.6384
  666SOL    HW1 1997   0.447   0.328   2.244 -1.8670 -1.1552 -0.2540
  666SOL    HW2 1998   0.441   0.337   2.083 -3.7495  0.0984 -0.0939
  667SOL     OW 1999   1.885   1.594   1.727 -0.5755 -0.0035  0.4105
  667SOL    HW1 2000   1.981   1.622   1.696  1.3406 -1.6386  0.7491
  667SOL    HW2 2001   1.888   1.552   1.818  1.9311  0.5655 -2.1230
  668SOL     OW 2002   0.042   1.399   2.339 -0.4686 -0.0166  0.1559
  668SOL    HW1 2003   0.070   1.310   2.380 -0.7198  0.6329 -1.9342
  668SOL    HW2 2004   0.001   1.384   2.249 -0.3426 -0.2638 -1.2083
  669SOL     OW 2005   2.445   2.691   0.069  0.4736  0.0578 -0.1976
  669SOL    HW1 2006   2.500   2.707   3.108  2.1495 -0.5751 -4.5853
  669SOL    HW2 2007   2.385   2.774   0.093 -3.3437  1.1380  0.4496
  670SOL     OW 2008   2.608   1.216   1.939 -0.3782 -0.7208  0.2952
  670SOL    HW1 2009   2.655   1.127   1.916  0.5978  0.9143 -1.5463
  670SOL    HW2 2010   2.667   1.266   2.003  2.1584  1.1998 -0.7277
  671SOL     OW 2011   2.662   1.894   0.573 -0.6657  0.3912 -0.2046
  671SOL    HW1 2012   2.721   1.832   0.521  1.4900  1.6092 -0.0256
  671SOL    HW2 2013   2.695   1.992   0.560 -2.6151 -1.8758  1.4284
  672SOL     OW 2014   1.448   1.316   2.117 -0.3975 -0.1316 -0.2929
  672SOL    HW1 2015   1.445   1.294   2.014 -0.4471 -2.6311 -0.9046
  672SOL    HW2 2016   1.357   1.351   2.150 -0.9443 -0.5259  0.5170
  673SOL     OW 2017   2.946   1.873   1.502 -0.2880  0.1066  0.4496
  673SOL    HW1 2018   2.876   1.941   1.503  1.5758 -0.9882  2.6978
  673SOL    HW2 2019   3.028   1.916   1.455  1.5472 -0.0342  0.1220
  674SOL     OW 2020   1.186   1.534   1.719  0.5799  0.7019  0.1111
  674SOL    HW1 2021   1.125   1.447   1.706  0.7714  3.0686 -0.2874
  674SOL    HW2 2022   1.134   1.621   1.740 -2.6345  0.8683  1.0556
  675SOL     OW 2023   0.172   0.866   0.964 -0.0076 -0.3856  0.3043
  675SOL    HW1 2024   0.256   0.812   0.962 -4.5548  1.6377  0.2648
  675SOL    HW2 2025   0.192   0.963   0.960  4.1314 -1.5028  2.2923
  676SOL     OW 2026   3.037   1.107   1.005  0.4097  0.8904 -0.2561
  676SOL    HW1 2027   2.959   1.162   0.967 -0.9088  0.3817  0.9271
  676SOL    HW2 2028   3.004   1.016   1.033  1.6664  0.3293 -0.0119
  677SOL     OW 2029   2.054   1.423   2.572 -0.0507  0.1343 -0.1740
  677SOL    HW1 2030   2.102   1.335   2.539  1.4902 -1.1341  1.2094
  677SOL    HW2 2031   2.073   1.502   2.514  0.2677 -2.4360 -2.1911
  678SOL     OW 2032   3.013   1.627   1.064  0.0341 -0.4161 -0.2895
  678SOL    HW1 2033   2.959   1.628   0.977 -2.8575 -0.7231 -0.1143
  678SOL    HW2 2034   3.027   1.724   1.094 -0.5372  1.5108  2.2742
  679SOL     OW 2035   0.392   2.713   0.529  0.2853  0.3060  0.2555
  679SOL    HW1 2036   0.458   2.726   0.607  1.1902  3.4567  0.8062
  679SOL    HW2 2037   0.292   2.707   0.560 -2.6441  1.3878 -0.7458
  680SOL     OW 2038   0.220   1.769   0.975 -0.0436 -0.4011 -0.0513
  680SOL    HW1 2039   0.142   1.825   1.016 -1.3743  2.3734 -1.0296
  680SOL    HW2 2040   0.230   1.672   1.000 -0.5378 -2.2424  0.0425
  681SOL     OW 2041   1.051   0.163   0.943  0.1025 -0.1581 -0.5113
  681SOL    HW1 2042   1.118   0.221   0.990  1.6512 -0.0397  0.5436
  681SOL    HW2 2043   1.096   0.076   0.907  1.5624  2.9545  0.7531
  682SOL     OW 2044   1.611   2.950   1.611 -0.2660  0.2067 -0.5197
  682SOL    HW1 2045   1.615   2.973   1.710  0.0157  2.6312  0.8217
  682SOL    HW2 2046   1.704   2.940   1.577 -1.3478  0.1285  1.4977
  683SOL     OW 2047   2.372   1.258   1.221  0.5104 -0.2447 -0.3127
  683SOL    HW1 2048   2.313   1.337   1.242  0.6065 -0.8996  2.5083
  683SOL    HW2 2049   2.468   1.284   1.199 -0.5290 -0.5768  1.8172
  684SOL     OW 2050   3.039   1.460   1.780 -0.7173  0.4873  0.5055
  684SOL    HW1 2051   2.947   1.509   1.768  0.7075 -1.3239 -2.5996
  684SOL    HW2 2052   0.002   1.515   1.767  1.3168 -0.2900  0.4986
  685SOL     OW 2053   1.764   1.774   0.169 -0.2243 -0.2519  0.0519
  685SOL    HW1 2054   1.765   1.868   0.209 -1.7207  1.7655  1.2340
  685SOL    HW2 2055   1.701   1.781   0.090 -0.2253 -1.5982 -3.2670
  686SOL     OW 2056   2.980   0.713   1.277  0.2930 -0.3568 -0.1517
  686SOL    HW1 2057   3.066   0.699   1.331  0.1654  0.1406 -0.8978
  686SOL    HW2 2058   2.934   0.623   1.259 -3.1371 -1.2210  0.9429
  687SOL     OW 2059   1.783   0.022   2.794 -0.2259 -0.0561  0.2365
  687SOL    HW1 2060   1.787   0.094   2.868  0.9886  0.1170 -0.7704
  687SOL    HW2 2061   1.754   0.065   2.709  0.2306 -0.3424  2.2605
  688SOL     OW 2062   1.113   2.020   2.475 -0.1552  0.6955 -0.0268
  688SOL    HW1 2063   1.141   2.101   2.531  0.1359 -1.4851 -0.5750
  688SOL    HW2 2064   1.188   1.960   2.446 -0.5607  0.3911 -1.4892
  689SOL     OW 2065   2.174   1.294   1.703  0.0608  0.0231 -0.0852
  689SOL    HW1 2066   2.246   1.271   1.781  1.6312  0.1036  2.2126
  689SOL    HW2 2067   2.158   1.217   1.635  1.8098  1.1922  1.0001
  690SOL     OW 2068   2.341   2.332   1.417 -0.1462 -0.9593 -0.2824
  690SOL    HW1 2069   2.399   2.297   1.341  1.2175  1.2903 -2.3256
  690SOL    HW2 2070   2.262   2.274   1.443  0.9309  0.2926 -1.5999
  691SOL     OW 2071   0.456   1.643   0.587  0.5560  0.1645 -0.1956
  691SOL    HW1 2072   0.460   1.683   0.681  0.9785  1.0020 -0.3130
  691SOL    HW2 2073   0.359   1.627   0.558 -0.4937  0.7344  0.7564
  692SOL     OW 2074   2.834   2.982   2.685 -0.1767 -0.0707  0.4495
  692SOL    HW1 2075   2.750   2.957   2.642 -0.1229  0.6201  1.4352
  692SOL    HW2 2076   2.905   2.905   2.676  1.5999  0.4138 -0.8938
  693SOL     OW 2077   3.027   1.368   2.086 -0.0882  0.3976 -0.0372
  693SOL    HW1 2078   3.058   1.452   2.037  0.5330  0.4730 -3.3796
  693SOL    HW2 2079   3.049   1.282   2.029 -0.0168 -0.4401 -1.7610
  694SOL     OW 2080   2.341   0.200   2.054  0.8858  0.4163  0.1062
  694SOL    HW1 2081   2.367   0.269   1.974 -0.1942  2.2859 -3.0835
  694SOL    HW2 2082   2.241   0.207   2.068 -0.7941  1.4076  1.9355
  695SOL     OW 2083   1.010   0.785   2.269 -0.5014 -0.1063  0.1984
  695SOL    HW1 2084   1.082   0.806   2.341  0.2882 -1.1760  0.9985
  695SOL    HW2 2085   0.967   0.875   2.242  0.0122  1.2677  0.9634
  696SOL     OW 2086   2.057   2.849   1.625 -0.0490  0.0199 -0.0260
  696SOL    HW1 2087   2.022   2.781   1.690  1.2478 -0.0779 -0.0405
  696SOL    HW2 2088   1.983   2.896   1.568  1.5720 -2.0877  0.6424
  697SOL     OW 2089   1.253   0.218   2.215  0.3217  0.4870  0.3901
  697SOL    HW1 2090   1.169   0.210   2.275  2.6955  2.2356 -0.7452
  697SOL    HW2 2091   1.240   0.295   2.150  1.5943 -1.9641 -0.3676
  698SOL     OW 2092   2.454   1.618   2.401 -0.3798  0.0607 -0.4175
  698SOL    HW1 2093   2.441   1.684   2.321 -1.8208 -1.0337 -0.2759
  698SOL    HW2 2094   2.541   1.641   2.452  1.2782  0.7409 -1.2693
  699SOL     OW 2095   1.954   0.553   0.109  0.3947  0.1190  0.6906
  699SOL    HW1 2096   2.034   0.611   0.124 -2.4513 -1.0322 -2.2952
  699SOL    HW2 2097   1.895   0.532   0.193  1.9812 -2.1446  0.7239
  700SOL     OW 2098   1.174   3.039   0.892 -0.0291 -0.0459  0.5594
  700SOL    HW1 2099   1.235   3.037   0.974  2.1459  0.1318 -1.1837
  700SOL    HW2 2100   1.106   2.965   0.891 -1.0764  1.0625 -1.3916
  701SOL     OW 2101   0.027   0.709   0.437 -0.1725  0.5960  0.6049
  701SOL    HW1 2102   0.124   0.668   0.421  2.0746 -0.5894  1.3236
  701SOL    HW2 2103   0.033   0.776   0.518  2.0207 -2.6302  0.3793
  702SOL     OW 2104   1.494   0.072   1.477 -0.6186  0.4250 -0.1999
  702SOL    HW1 2105   1.392   0.068   1.477  0.5632 -1.1535 -0.7892
  702SOL    HW2 2106   1.537   3.094   1.484  3.8762 -2.6213  0.7759
  703SOL     OW 2107   2.917   0.878   1.063  0.2927 -0.4878  0.1834
  703SOL    HW1 2108   2.840   0.931   1.107  0.5313  1.7474  0.4493
  703SOL    HW2 2109   2.957   0.816   1.131 -1.0744  1.0680  2.1743
  704SOL     OW 2110   0.880   2.582   1.447  0.1950  0.2297  0.0955
  704SOL    HW1 2111   0.894   2.483   1.430 -1.3282  0.6635  0.4911
  704SOL    HW2 2112   0.793   2.609   1.400 -1.2677  0.1367  1.8585
  705SOL     OW 2113   0.261   1.799   3.097  0.0050 -0.1857  0.2432
  705SOL    HW1 2114   0.285   1.739   3.017 -0.6640 -1.3757  1.1867
  705SOL    HW2 2115   0.336   1.803   0.046  2.9780 -0.3959  4.7783
  706SOL     OW 2116   3.042   0.043   0.063  0.4290  0.3505  0.1995
  706SOL    HW1 2117   2.971   0.116   0.050 -1.0148 -0.4261  2.8719
  706SOL    HW2 2118   3.013   3.104   0.140  0.0382 -0.2659  0.8810
  707SOL     OW 2119   1.580   3.032   2.208  0.5238 -0.3679  0.1019
  707SOL    HW1 2120   1.571   3.109   2.135 -0.4199  3.3714 -0.8020
  707SOL    HW2 2121   1.540   2.947   2.168 -2.0301  0.0386  0.7077
  708SOL     OW 2122   0.265   3.008   1.648 -0.3298 -0.2779 -0.0031
  708SOL    HW1 2123   0.307   3.060   1.570 -0.1778 -0.1016 -1.8547
  708SOL    HW2 2124   0.265   2.907   1.629  0.5106 -0.5540 -0.7322
  709SOL     OW 2125   3.117   0.838   1.617  0.1465  0.3042 -0.5650
  709SOL    HW1 2126   0.066   0.788   1.561  0.5309 -2.6562 -2.0002
  709SOL    HW2 2127   0.001   0.820   1.719  2.2900 -0.5077 -0.0166
  710SOL     OW 2128   0.530   0.852   0.901  0.1490 -0.2612 -0.2323
  710SOL    HW1 2129   0.502   0.903   0.817  0.6299  0.4262  0.8671
  710SOL    HW2 2130   0.463   0.771   0.912 -1.8567 -2.3170 -0.8445
  711SOL     OW 2131   2.520   0.071   1.507 -0.3747 -0.5479  0.7401
  711SOL    HW1 2132   2.436   0.016   1.525 -2.6763  0.0293 -1.2769
  711SOL    HW2 2133   2.556   0.117   1.591 -0.5161  0.2784 -0.7670
  712SOL     OW 2134   0.196   2.380   2.299 -0.8086 -0.3416 -0.2781
  712SOL    HW1 2135   0.118   2.428   2.257  0.5673 -0.6394  0.0222
  712SOL    HW2 2136   0.189   2.410   2.396 -0.1495 -0.8545  2.2139
  713SOL     OW 2137   2.504   0.387   0.557 -0.5244  0.2959 -0.7718
  713SOL    HW1 2138   2.461   0.397   0.464 -0.4141  1.0475 -2.0877
  713SOL    HW2 2139   2.598   0.348   0.546  1.6774  0.1996  1.7756
  714SOL     OW 2140   1.801   1.999   2.536 -0.0762  0.3520 -0.2538
  714SOL    HW1 2141   1.739   1.939   2.484 -1.0556 -0.2138  1.4299
  714SOL    HW2 2142   1.873   2.034   2.473 -1.5368 -0.3931  3.2592
  715SOL     OW 2143   0.121   0.548   0.976  0.0389  0.1386 -0.2010
  715SOL    HW1 2144   0.131   0.449   0.999  0.0855 -2.2727  0.6522
  715SOL    HW2 2145   0.026   0.566   0.945  0.3972  2.7858  0.8167
  716SOL     OW 2146   0.790   0.615   1.540 -0.0836  0.3248  0.2081
  716SOL    HW1 2147   0.719   0.642   1.475  2.0509 -1.9233  2.4230
  716SOL    HW2 2148   0.791   0.516   1.559 -1.9575 -0.3315  1.9356
  717SOL     OW 2149   0.767   0.482   2.370 -0.1326 -0.9246  0.7713
  717SOL    HW1 2150   0.746   0.386   2.352 -0.0964  1.0363 -1.0134
  717SOL    HW2 2151   0.700   0.517   2.437  2.6396  0.5127  0.9783
  718SOL     OW 2152   1.064   0.377   0.547  0.1092 -0.7031 -0.2800
  718SOL    HW1 2153   1.034   0.475   0.563 -3.7169  1.9996 -0.4438
  718SOL    HW2 2154   1.019   0.336   0.463 -2.5995  0.1954 -0.2172
  719SOL     OW 2155   2.953   2.323   2.910 -0.0619  0.1519 -0.3357
  719SOL    HW1 2156   2.919   2.254   2.844  0.0459 -0.0771 -3.4687
  719SOL    HW2 2157   2.891   2.401   2.917 -0.7610  0.6030 -2.0755
  720SOL     OW 2158   1.025   0.603   1.666  0.0761 -0.0520  0.1919
  720SOL    HW1 2159   1.067   0.692   1.693  1.1788  0.0127  2.7312
  720SOL    HW2 2160   0.928   0.617   1.636 -1.3814 -2.1584 -0.9550
  721SOL     OW 2161   2.828   2.926   0.732 -0.0163  0.3059  0.0104
  721SOL    HW1 2162   2.762   2.891   0.802 -0.1509  0.0643  1.4942
  721SOL    HW2 2163   2.781   2.929   0.643  1.4386 -0.7400  1.4686
  722SOL     OW 2164   0.999   1.393   2.698 -0.0017  0.2761  0.0493
  722SOL    HW1 2165   0.940   1.447   2.758 -0.8284 -0.1934 -0.3020
  722SOL    HW2 2166   0.944   1.363   2.619  1.1625  0.2269  0.0625
  723SOL     OW 2167   2.486   0.634   1.516 -0.1331  0.3677  0.4041
  723SOL    HW1 2168   2.502   0.537   1.506 -1.4647 -1.3543 -0.0753
  723SOL    HW2 2169   2.461   0.671   1.425  0.6079 -1.3054  1.2606
  724SOL     OW 2170   1.087   1.979   0.275  0.4981 -0.1848  0.2456
  724SOL    HW1 2171   1.098   1.935   0.182  0.1828 -2.1399 -1.0839
  724SOL    HW2 2172   1.134   1.936   0.354  0.4227 -1.4492  0.5623
  725SOL     OW 2173   0.189   0.750   1.431 -0.8601 -0.1460  0.1907
  725SOL    HW1 2174   0.257   0.817   1.388  0.2613  0.5978  0.0502
  725SOL    HW2 2175   0.174   0.669   1.373 -1.1074  1.3039  1.1926
  726SOL     OW 2176   2.537   1.253   2.803 -0.1708  0.1177 -0.2001
  726SOL    HW1 2177   2.492   1.260   2.895 -0.7975  1.2798  0.2581
  726SOL    HW2 2178   2.460   1.245   2.735 -1.1308 -0.9127  0.6847
  727SOL     OW 2179   1.912   1.191   2.780  0.4682 -0.4258  0.3048
  727SOL    HW1 2180   1.901   1.294   2.790  1.0530 -0.3772  0.6929
  727SOL    HW2 2181   1.902   1.164   2.683 -3.1064 -1.9181  0.5185
  728SOL     OW 2182   1.736   2.513   1.426 -0.0618  0.4506 -0.2357
  728SOL    HW1 2183   1.678   2.574   1.371  0.1897  1.9497  2.1247
  728SOL    HW2 2184   1.695   2.425   1.446  3.3578  2.3693 -1.8956
  729SOL     OW 2185   1.786   0.777   2.251  0.2687  0.3362  0.5140
  729SOL    HW1 2186   1.875   0.774   2.207 -2.3452  0.9044  2.4038
  729SOL    HW2 2187   1.773   0.869   2.293  0.6530  0.1942 -1.5214
  730SOL     OW 2188   1.158   0.566   1.007  0.4801  0.0720  0.4034
  730SOL    HW1 2189   1.224   0.596   1.078 -2.2688  1.8547  0.0083
  730SOL    HW2 2190   1.178   0.474   0.981 -0.2651  1.0346  0.8824
  731SOL     OW 2191   0.730   0.632   2.846 -0.4663 -0.1353 -0.5174
  731SOL    HW1 2192   0.756   0.729   2.872  0.2693 -0.0498  0.9361
  731SOL    HW2 2193   0.629   0.622   2.859 -0.1974 -0.7274 -1.8988
  732SOL     OW 2194   0.544   0.871   0.533 -0.1956  0.6726  0.5724
  732SOL    HW1 2195   0.485   0.930   0.589  0.7192 -0.9047 -1.7527
  732SOL    HW2 2196   0.545   0.776   0.565 -2.3534  2.0412 -1.1643
  733SOL     OW 2197   1.451   1.658   2.117  0.0910 -0.0851 -0.4041
  733SOL    HW1 2198   1.357   1.632   2.154  0.1839  1.3571  0.6911
  733SOL    HW2 2199   1.521   1.645   2.194 -0.6235 -0.6850 -0.1739
  734SOL     OW 2200   0.100   2.469   2.881  0.0321  0.0231  0.3697
  734SOL    HW1 2201   0.090   2.557   2.928 -0.7652  0.3334 -1.8333
  734SOL    HW2 2202   0.008   2.424   2.881 -1.4624  0.6343 -0.1388
  735SOL     OW 2203   2.315   0.412   0.756  0.2887 -0.6839  0.0643
  735SOL    HW1 2204   2.264   0.494   0.719  1.7812  1.1385 -2.9953
  735SOL    HW2 2205   2.396   0.404   0.694  0.1226  1.6362 -2.8380
  736SOL     OW 2206   2.170   1.625   2.401  0.0461 -0.0581  0.0398
  736SOL    HW1 2207   2.266   1.587   2.393 -0.1104  0.5286 -2.0353
  736SOL    HW2 2208   2.169   1.724   2.389  1.1431 -2.2666  1.2201
  737SOL     OW 2209   2.933   0.521   0.459 -0.2783 -0.0855 -0.0196
  737SOL    HW1 2210   2.872   0.556   0.387 -1.4098  0.4494  0.7428
  737SOL    HW2 2211   3.026   0.558   0.446  0.3714 -1.2160 -2.4308
  738SOL     OW 2212   0.843   2.237   1.595  0.2607  0.5048 -0.4665
  738SOL    HW1 2213   0.881   2.218   1.690 -1.1197 -2.0123  0.7176
  738SOL    HW2 2214   0.739   2.243   1.602 -1.7731 -0.1918  0.1322
  739SOL     OW 2215   1.442   2.817   2.115 -0.0484 -0.3074  0.1737
  739SOL    HW1 2216   1.428   2.756   2.032 -0.9890 -0.2723 -1.2543
  739SOL    HW2 2217   1.389   2.904   2.105 -0.7606  1.2720 -2.9474
  740SOL     OW 2218   1.990   2.608   1.281 -0.4476  0.5490  0.1590
  740SOL    HW1 2219   1.915   2.593   1.344  1.8370 -1.8008 -2.3152
  740SOL    HW2 2220   2.083   2.612   1.323 -1.5249 -1.0543 -0.2721
  741SOL     OW 2221   2.254   0.079   0.052 -0.1472 -0.4785 -0.1387
  741SOL    HW1 2222   2.313   0.038   3.101  1.5001 -1.7124  1.6756
  741SOL    HW2 2223   2.306   0.118   0.128 -0.9378  1.1452 -0.7157
  742SOL     OW 2224   1.332   2.383   0.267 -0.3928  0.2376  0.3275
  742SOL    HW1 2225   1.335   2.486   0.273  1.9685  1.2553 -0.3542
  742SOL    HW2 2226   1.429   2.347   0.273 -0.5521 -1.0348 -0.9743
  743SOL     OW 2227   2.328   1.214   1.909  0.3747  0.3068 -0.1616
  743SOL    HW1 2228   2.429   1.209   1.914 -0.5434 -1.1047 -0.4229
  743SOL    HW2 2229   2.292   1.163   1.993 -3.4273  0.8897 -1.4604
  744SOL     OW 2230   2.767   0.301   0.522 -0.4550 -0.5151 -0.1331
  744SOL    HW1 2231   2.798   0.223   0.455  2.0391  0.9774  0.0275
  744SOL    HW2 2232   2.826   0.384   0.519  0.0879 -1.3557  1.4688
  745SOL     OW 2233   2.363   1.049   1.411  0.1519  0.0158 -0.2437
  745SOL    HW1 2234   2.279   1.048   1.468 -1.7839 -0.3841 -0.5560
  745SOL    HW2 2235   2.354   1.119   1.340 -1.7608  0.5017  1.5591
  746SOL     OW 2236   1.079   1.488   0.876  0.3388  0.1634 -0.3226
  746SOL    HW1 2237   1.132   1.560   0.928 -1.8334  3.1267  0.9133
  746SOL    HW2 2238   1.086   1.501   0.773  1.1662 -0.0847 -4.5872
  747SOL     OW 2239   1.115   1.632   1.293  0.5500  0.0617  0.4028
  747SOL    HW1 2240   1.038   1.703   1.310  2.5291  1.5587  0.8605
  747SOL    HW2 2241   1.083   1.533   1.310 -0.2257  0.3786 -0.1923
  748SOL     OW 2242   0.481   2.859   3.058  0.2715 -0.5596 -0.0477
  748SOL    HW1 2243   0.532   2.898   2.978 -0.7366  4.4757 -0.9703
  748SOL    HW2 2244   0.496   2.754   3.057  0.8138 -1.5762 -0.1039
  749SOL     OW 2245   0.084   0.937   2.925  0.0234 -0.6010  0.1222
  749SOL    HW1 2246   0.034   1.026   2.956 -0.4066  1.1026  1.0055
  749SOL    HW2 2247   0.073   0.920   2.824  3.5204  0.4006  0.4980
  750SOL     OW 2248   1.567   0.969   1.799  0.3011  0.2165  0.8621
  750SOL    HW1 2249   1.511   0.892   1.770 -0.2819  2.2780 -1.1231
  750SOL    HW2 2250   1.624   0.937   1.876 -1.0642 -1.1497 -2.1602
  751SOL     OW 2251   2.637   0.688   0.463  0.5904 -0.1023 -0.7420
  751SOL    HW1 2252   2.702   0.665   0.389 -0.5705  0.5178  0.3584
  751SOL    HW2 2253   2.539   0.676   0.430  0.7755 -0.8850 -0.2142
  752SOL     OW 2254   2.522   2.949   1.180  0.0407  0.4078 -0.3781
  752SOL    HW1 2255   2.578   3.008   1.245  0.3359 -0.7707 -0.3071
  752SOL    HW2 2256   2.423   2.976   1.170  1.0394  0.0432  0.6760
  753SOL     OW 2257   0.874   2.336   1.347 -0.0805  0.1266  0.6426
  753SOL    HW1 2258   0.971   2.310   1.330  0.3364 -1.1604  1.0248
  753SOL    HW2 2259   0.851   2.301   1.441 -1.1945  0.3727  0.4686
  754SOL     OW 2260   3.035   2.705   2.084  0.8800  0.6608  0.5682
  754SOL    HW1 2261   3.019   2.768   2.161  0.6633 -0.2916 -1.2047
  754SOL    HW2 2262   3.113   2.742   2.025  0.9506 -0.9336  0.5696
  755SOL     OW 2263   2.428   0.697   0.096 -0.8288  0.4552 -0.0851
  755SOL    HW1 2264   2.529   0.714   0.074  3.3475  0.0472  2.4584
  755SOL    HW2 2265   2.413   0.672   0.195 -3.8801 -3.4120  4.3336
  756SOL     OW 2266   2.217   2.492   3.027 -0.2014  0.2792  0.5221
  756SOL    HW1 2267   2.194   2.596   3.021 -0.9898  0.0548  0.0386
  756SOL    HW2 2268   2.240   2.475   0.004 -0.4145 -1.3170  0.8074
  757SOL     OW 2269   2.393   0.338   0.316 -0.0821  0.7543 -0.1197
  757SOL    HW1 2270   2.472   0.275   0.322  0.8407 -1.0945  2.1499
  757SOL    HW2 2271   2.306   0.291   0.345  0.1344  0.8729 -1.5956
  758SOL     OW 2272   2.068   0.892   1.724  0.2594  0.0308 -0.0636
  758SOL    HW1 2273   1.987   0.855   1.677  0.4581 -0.0860 -1.1878
  758SOL    HW2 2274   2.136   0.823   1.753 -0.0502  3.1830 -0.9383
  759SOL     OW 2275   2.613   0.511   1.140  0.2172  0.3664  0.4370
  759SOL    HW1 2276   2.607   0.608   1.122 -2.1074 -0.1133  1.6416
  759SOL    HW2 2277   2.548   0.460   1.078 -0.3720  0.7958  1.1504
  760SOL     OW 2278   0.348   1.393   1.200 -0.0439 -0.4348 -0.3579
  760SOL    HW1 2279   0.310   1.417   1.294 -1.0187  2.4002  3.2894
  760SOL    HW2 2280   0.286   1.425   1.124  1.7518 -0.6062  0.6288
  761SOL     OW 2281   0.969   0.610   0.309  0.4185  0.5808  0.1284
  761SOL    HW1 2282   0.967   0.706   0.282 -1.4854 -0.4400 -0.2908
  761SOL    HW2 2283   1.063   0.581   0.330  0.3945 -0.3739  0.8149
  762SOL     OW 2284   0.986   1.991   1.190  0.6996  0.3918  0.5608
  762SOL    HW1 2285   0.924   2.013   1.113 -1.0924  0.0407  1.3957
  762SOL    HW2 2286   0.957   1.905   1.239 -0.2987  0.7315 -1.5003
  763SOL     OW 2287   1.115   0.687   1.340  0.3402 -0.3958 -0.5410
  763SOL    HW1 2288   1.161   0.701   1.432  1.9889 -2.0247  0.8018
  763SOL    HW2 2289   1.056   0.605   1.340  1.3621  2.2955 -1.2695
  764SOL     OW 2290   0.376   2.380   2.977 -0.2039 -0.6303 -0.0711
  764SOL    HW1 2291   0.384   2.298   3.037 -3.2783  1.2642 -1.6770
  764SOL    HW2 2292   0.281   2.399   2.955  2.0305  0.6238  1.0033
  765SOL     OW 2293   0.562   2.735   1.694 -0.3137 -0.4089  0.0624
  765SOL    HW1 2294   0.527   2.749   1.786 -1.4332  0.2896 -2.3812
  765SOL    HW2 2295   0.542   2.815   1.632  0.9813 -0.4828 -0.1629
  766SOL     OW 2296   2.606   1.633   2.129  0.0692 -0.0296  1.0204
  766SOL    HW1 2297   2.539   1.694   2.175  1.0571 -3.5446  0.3566
  766SOL    HW2 2298   2.701   1.665   2.152  0.8889 -0.9530  1.0690
  767SOL     OW 2299   1.519   1.195   2.364 -0.0917 -0.2090 -0.4195
  767SOL    HW1 2300   1.533   1.275   2.422 -0.1023 -1.0201  0.0033
  767SOL    HW2 2301   1.471   1.223   2.278  2.3920  0.4386 -0.0046
  768SOL     OW 2302   1.751   1.990   0.365  0.0661  0.3881 -0.4622
  768SOL    HW1 2303   1.773   1.976   0.465 -0.5580  0.4179 -1.4478
  768SOL    HW2 2304   1.835   2.010   0.312  1.8351 -0.9743 -1.3777
  769SOL     OW 2305   0.582   1.475   0.855 -0.0530  0.5760 -0.2888
  769SOL    HW1 2306   0.521   1.547   0.895 -0.7236 -1.0670 -0.7936
  769SOL    HW2 2307   0.669   1.455   0.902 -2.2961  0.9033  2.5187
  770SOL     OW 2308   1.426   0.964   2.482  0.3505  0.2182  0.1774
  770SOL    HW1 2309   1.479   1.039   2.435 -1.1883  0.5474  0.7403
  770SOL    HW2 2310   1.474   0.938   2.568 -0.2320  0.7804 -2.1594
  771SOL     OW 2311   2.898   0.047   2.357  0.2570 -0.1986 -0.4996
  771SOL    HW1 2312   2.805   0.057   2.393  3.8898  1.9232 -0.4748
  771SOL    HW2 2313   2.946   3.078   2.382 -1.3076 -3.6304 -3.4497
  772SOL     OW 2314   2.417   1.816   2.227  0.2850 -0.6716 -0.1188
  772SOL    HW1 2315   2.316   1.832   2.244  0.0303  1.3226 -0.8513
  772SOL    HW2 2316   2.453   1.894   2.174 -0.6139 -1.1186  0.6681
  773SOL     OW 2317   0.405   1.383   1.600 -0.2525 -0.3305 -0.4928
  773SOL    HW1 2318   0.454   1.297   1.615 -2.1007  1.5560 -1.9578
  773SOL    HW2 2319   0.469   1.446   1.550 -0.5923 -2.3903  0.6144
  774SOL     OW 2320   1.281   0.746   3.007 -0.0144 -0.3113  0.0954
  774SOL    HW1 2321   1.230   0.775   2.920 -1.1584 -1.2640 -1.5535
  774SOL    HW2 2322   1.238   0.768   3.095  3.5925 -0.3673 -3.0511
  775SOL     OW 2323   1.572   2.595   0.040 -0.3595 -0.2843 -0.1059
  775SOL    HW1 2324   1.627   2.549   0.115 -0.9593 -1.4957 -0.8540
  775SOL    HW2 2325   1.538   2.530   3.088 -1.3775 -3.4446 -1.6684
  776SOL     OW 2326   0.017   1.063   1.469  0.6282  0.1345 -0.1015
  776SOL    HW1 2327   3.096   1.138   1.527 -1.9257  2.5218  0.7969
  776SOL    HW2 2328   0.016   0.970   1.513 -1.8471 -0.8927 -0.6029
  777SOL     OW 2329   2.514   2.017   2.095  0.0492 -0.7488  0.6374
  777SOL    HW1 2330   2.611   2.023   2.120  2.4049 -0.4220 -1.4162
  777SOL    HW2 2331   2.492   2.027   1.996 -0.8593  0.7667 -1.5674
  778SOL     OW 2332   1.766   1.020   2.349  0.5791 -0.4350  0.2129
  778SOL    HW1 2333   1.677   1.068   2.376 -2.2097 -0.0148  2.4745
  778SOL    HW2 2334   1.817   1.080   2.283 -1.1937 -0.4502  3.6249
  779SOL     OW 2335   2.899   1.026   0.081 -0.5357 -0.1052 -0.5685
  779SOL    HW1 2336   2.889   0.940   0.136 -1.2905  0.2612 -0.7046
  779SOL    HW2 2337   2.811   1.038   0.032 -0.4701 -0.4758  0.0144
  780SOL     OW 2338   2.261   3.098   2.743  0.1629  0.0893  0.0149
  780SOL    HW1 2339   2.175   3.080   2.694 -0.7027  1.7797 -0.6860
  780SOL    HW2 2340   2.289   0.073   2.718  1.1056  3.1658 -0.0373
  781SOL     OW 2341   3.012   1.456   1.311  0.1535  0.1866  0.1005
  781SOL    HW1 2342   3.016   1.483   1.218 -2.0285 -3.1917  3.9352
  781SOL    HW2 2343   3.103   1.429   1.344  0.2502 -0.9146  1.2213
  782SOL     OW 2344   2.641   2.097   2.999 -0.4731 -0.5387  0.1090
  782SOL    HW1 2345   2.626   2.188   3.048 -1.0632  1.8409  1.1282
  782SOL    HW2 2346   2.709   2.110   2.923  0.2937 -0.9519 -2.5643
  783SOL     OW 2347   0.811   1.457   0.988  0.1572  0.4155 -0.4785
  783SOL    HW1 2348   0.818   1.396   1.071 -0.0590 -1.5338  0.0164
  783SOL    HW2 2349   0.897   1.486   0.934  2.8684  1.0640 -4.1289
  784SOL     OW 2350   2.616   1.038   0.094 -0.5456  0.0467  0.1254
  784SOL    HW1 2351   2.614   1.135   0.066 -0.8992 -1.0804  1.8366
  784SOL    HW2 2352   2.566   1.031   0.186 -3.0015  1.5802  1.8491
  785SOL     OW 2353   2.167   2.433   0.756  0.1263  0.0520  0.2168
  785SOL    HW1 2354   2.072   2.464   0.778  0.2276  0.0386 -0.3900
  785SOL    HW2 2355   2.165   2.370   0.674 -0.8581  0.8797 -1.5016
  786SOL     OW 2356   0.349   2.212   2.583 -0.1047  0.3515 -0.2819
  786SOL    HW1 2357   0.440   2.181   2.548  0.5653  0.0433 -0.8137
  786SOL    HW2 2358   0.289   2.134   2.616  1.9101 -0.0730  2.2943
  787SOL     OW 2359   1.501   0.517   1.490 -0.0401 -0.0348  0.0427
  787SOL    HW1 2360   1.471   0.595   1.430  0.4211  1.2467 -2.0841
  787SOL    HW2 2361   1.589   0.479   1.459 -0.5364 -0.4072 -0.6102
  788SOL     OW 2362   0.404   0.836   0.298  0.5340 -0.4497  0.5023
  788SOL    HW1 2363   0.454   0.871   0.379  0.8025  0.6319  0.6869
  788SOL    HW2 2364   0.357   0.910   0.247  0.2902 -0.8327 -0.6339
  789SOL     OW 2365   0.040   2.042   1.422 -0.1280 -0.7902  0.4587
  789SOL    HW1 2366   0.097   1.968   1.377  0.0364  0.8904  3.0637
  789SOL    HW2 2367   3.111   2.093   1.347 -3.0098  1.5636  0.2875
  790SOL     OW 2368   1.561   0.408   2.047  0.0672  0.3480  0.0001
  790SOL    HW1 2369   1.506   0.455   2.117  2.5623  0.9057  0.4580
  790SOL    HW2 2370   1.529   0.435   1.959  3.5154 -2.8827  1.2333
  791SOL     OW 2371   1.257   0.631   0.338 -0.8731 -0.0840  0.2249
  791SOL    HW1 2372   1.277   0.544   0.290  0.8225 -0.8863 -1.0985
  791SOL    HW2 2373   1.338   0.650   0.405  1.1343  2.0717  0.8672
  792SOL     OW 2374   1.365   3.091   1.803  0.3704 -0.3081  0.3592
  792SOL    HW1 2375   1.321   3.004   1.781 -1.9411 -3.5422 -0.2310
  792SOL    HW2 2376   1.462   3.075   1.814 -1.3164  1.0813  1.5001
  793SOL     OW 2377   0.775   3.097   0.800  0.1014  0.5242  0.0247
  793SOL    HW1 2378   0.831   0.041   0.746 -0.9628 -0.3980  1.9643
  793SOL    HW2 2379   0.773   0.004   0.901 -0.0373 -0.0824  0.3862
  794SOL     OW 2380   0.413   1.261   2.180  0.5526  0.6247  0.0895
  794SOL    HW1 2381   0.410   1.162   2.153  0.9808  0.7938  0.7876
  794SOL    HW2 2382   0.433   1.258   2.280  0.4566  0.3270  0.1154
  795SOL     OW 2383   2.932   1.565   2.398  0.3279  0.8362 -0.2229
  795SOL    HW1 2384   2.924   1.623   2.316 -1.1602  0.4154  1.2620
  795SOL    HW2 2385   3.001   1.496   2.390 -1.6328  2.6610  3.6514
  796SOL     OW 2386   1.933   1.169   2.181  0.2221 -0.1267  0.0058
  796SOL    HW1 2387   1.979   1.110   2.114 -1.4132 -1.4622 -0.8452
  796SOL    HW2 2388   1.992   1.190   2.259 -0.3152 -0.0302 -0.0833
  797SOL     OW 2389   3.026   0.105   2.641  0.0773 -0.0822  0.1974
  797SOL    HW1 2390   3.118   0.070   2.614 -0.6348 -0.7343  1.5684
  797SOL    HW2 2391   2.956   0.030   2.645  1.4847 -0.6250 -0.4802
  798SOL     OW 2392   3.108   2.045   2.228  0.0605  0.4246  0.5074
  798SOL    HW1 2393   3.095   2.047   2.125 -0.7589  0.7916 -2.7068
  798SOL    HW2 2394   0.085   2.070   2.246 -0.0099  1.4715 -0.5021
  799SOL     OW 2395   2.711   2.378   0.026 -0.8420 -0.6195  0.3103
  799SOL    HW1 2396   2.804   2.371   0.067 -1.9074 -0.0945  0.2058
  799SOL    HW2 2397   2.714   2.430   3.057 -0.0939  0.4995 -2.7186
  800SOL     OW 2398   1.434   1.660   0.677  0.0193  0.6081  0.3374
  800SOL    HW1 2399   1.352   1.716   0.689 -0.2099 -2.9681  0.7254
  800SOL    HW2 2400   1.508   1.705   0.726 -1.1056  0.7015  0.1464
  801SOL     OW 2401   2.203   0.625   0.656 -0.1558 -0.1944  0.2278
  801SOL    HW1 2402   2.166   0.604   0.563 -2.8157  0.4490  1.4691
  801SOL    HW2 2403   2.127   0.657   0.713 -1.8986 -0.8106  0.4871
  802SOL     OW 2404   2.657   1.599   0.356 -0.2283  0.2842  0.3556
  802SOL    HW1 2405   2.653   1.640   0.265 -0.2528  0.2571  1.9667
  802SOL    HW2 2406   2.737   1.638   0.409 -1.2404  1.6122 -0.7895
  803SOL     OW 2407   1.482   1.827   2.992 -0.0004  0.1898  0.0886
  803SOL    HW1 2408   1.545   1.870   2.918  1.9244  0.3381 -2.9487
  803SOL    HW2 2409   1.431   1.898   3.047 -1.5364  0.0231 -1.9282
  804SOL     OW 2410   1.989   2.028   0.248 -0.2920  0.0549  0.4190
  804SOL    HW1 2411   2.048   1.957   0.295  1.8634 -2.1353 -0.8959
  804SOL    HW2 2412   1.992   2.006   0.145  0.7491 -4.0239 -6.0568
  805SOL     OW 2413   2.362   1.697   0.069  0.0163  0.1882 -0.4794
  805SOL    HW1 2414   2.362   1.791   0.028  1.2300  1.3700 -0.6684
  805SOL    HW2 2415   2.461   1.676   0.093  0.3741 -1.5619 -1.9403
  806SOL     OW 2416   0.597   0.413   0.432 -0.1687 -0.1424 -0.0786
  806SOL    HW1 2417   0.654   0.437   0.346  0.8615  1.2757 -2.1286
  806SOL    HW2 2418   0.565   0.496   0.474  1.5340 -1.4191 -1.0321
  807SOL     OW 2419   2.308   1.564   2.743 -0.0522  0.5175 -0.3213
  807SOL    HW1 2420   2.279   1.534   2.839  0.7371 -3.5430 -0.3645
  807SOL    HW2 2421   2.233   1.622   2.701 -1.0320 -0.7383  0.4447
  808SOL     OW 2422   0.202   1.571   0.496 -0.2823  0.4554  0.0599
  808SOL    HW1 2423   0.226   1.478   0.468 -0.4788  3.4616 -2.0191
  808SOL    HW2 2424   0.165   1.572   0.589 -0.0116  4.1505  0.3438
  809SOL     OW 2425   2.470   0.935   2.510 -0.0946 -0.1760 -0.4641
  809SOL    HW1 2426   2.468   0.843   2.566  2.7095 -0.8578 -0.2712
  809SOL    HW2 2427   2.544   1.000   2.537 -0.8217  0.1124  0.3501
  810SOL     OW 2428   0.961   1.220   0.162  0.5307 -0.2721  0.1209
  810SOL    HW1 2429   1.058   1.217   0.134  0.7006 -0.0419  1.0206
  810SOL    HW2 2430   0.915   1.128   0.163 -0.5615 -1.5273 -0.8715
  811SOL     OW 2431   1.357   2.576   0.929  0.1732 -0.0881  0.0473
  811SOL    HW1 2432   1.371   2.569   0.825 -0.4342 -0.6168 -1.7550
  811SOL    HW2 2433   1.377   2.489   0.973  0.8600  1.0312 -3.0593
  812SOL     OW 2434   0.409   2.518   1.633  0.0528  0.4020  0.2595
  812SOL    HW1 2435   0.448   2.491   1.541  1.9951 -0.4157  0.8238
  812SOL    HW2 2436   0.469   2.591   1.672 -1.1442  0.6447  2.5791
  813SOL     OW 2437   1.039   0.201   1.944 -0.3935  0.1084 -0.1222
  813SOL    HW1 2438   0.982   0.118   1.954 -0.8249  1.0455 -0.7759
  813SOL    HW2 2439   1.064   0.224   2.042  3.5021 -0.3746  0.7005
  814SOL     OW 2440   1.408   3.036   2.664 -0.3382 -0.0033  0.3365
  814SOL    HW1 2441   1.501   3.005   2.686 -1.2294  0.4752 -0.9666
  814SOL    HW2 2442   1.405   3.060   2.561 -0.0399  1.9240  0.2509
  815SOL     OW 2443   0.405   0.477   1.962  0.3035 -0.2560  0.1251
  815SOL    HW1 2444   0.374   0.515   1.871 -0.2421 -0.8576 -1.0091
  815SOL    HW2 2445   0.509   0.472   1.967  2.5647 -0.9997 -1.7054
  816SOL     OW 2446   2.279   0.454   2.882 -0.7359  0.5663  0.2189
  816SOL    HW1 2447   2.365   0.498   2.911 -2.8772  2.0523  3.5657
  816SOL    HW2 2448   2.222   0.444   2.965 -3.2449 -0.7437 -0.0484
  817SOL     OW 2449   1.984   0.210   2.582  0.8466 -0.4023  0.1502
  817SOL    HW1 2450   1.899   0.250   2.543 -2.2438  0.3915  0.4259
  817SOL    HW2 2451   1.985   0.228   2.681  0.4555  2.8583 -0.2002
  818SOL     OW 2452   1.941   3.087   0.269 -0.2110 -0.6326 -0.3429
  818SOL    HW1 2453   1.904   0.027   0.197  1.7595  1.5948  0.0590
  818SOL    HW2 2454   1.982   3.001   0.228  1.1877 -1.9753 -0.1167
  819SOL     OW 2455   2.281   2.080   3.083  0.1575  0.4870 -0.4510
  819SOL    HW1 2456   2.344   2.048   3.012  0.1207  3.6333  2.5895
  819SOL    HW2 2457   2.255   2.174   3.059 -0.8446 -0.4612  1.6157
  820SOL     OW 2458   0.272   1.834   0.334  0.1234  0.4863  0.1584
  820SOL    HW1 2459   0.351   1.806   0.281  0.3490  0.0255  0.7186
  820SOL    HW2 2460   0.225   1.754   0.376 -0.8049 -5.0279 -0.9352
  821SOL     OW 2461   0.014   2.758   1.186  0.9627  0.3115 -0.3368
  821SOL    HW1 2462   0.112   2.762   1.210 -3.4602 -0.6651  0.7416
  821SOL    HW2 2463   3.101   2.675   1.232 -1.8887  2.9820  0.3477
  822SOL     OW 2464   2.618   2.668   2.722  0.3018 -0.5472 -0.0911
  822SOL    HW1 2465   2.549   2.602   2.692  0.6199 -1.0552 -3.0474
  822SOL    HW2 2466   2.665   2.713   2.646  0.7876 -0.6057 -0.0356
  823SOL     OW 2467   1.608   0.194   2.662  0.3242  0.1612  0.2005
  823SOL    HW1 2468   1.615   0.230   2.758  0.5828  0.1631  1.1515
  823SOL    HW2 2469   1.513   0.222   2.626 -2.7411  4.7326  0.1515
  824SOL     OW 2470   2.874   1.600   1.482 -0.0603 -0.2806  0.0075
  824SOL    HW1 2471   2.899   1.697   1.475  0.9463  0.8484 -0.2775
  824SOL    HW2 2472   2.917   1.549   1.409 -1.0601  2.4979 -0.2672
  825SOL     OW 2473   2.672   1.746   2.559  0.1160  0.0280 -0.3328
  825SOL    HW1 2474   2.641   1.728   2.652  1.3546  0.9271 -0.2634
  825SOL    HW2 2475   2.677   1.848   2.546  0.5715  2.8080 -2.6620
  826SOL     OW 2476   2.304   1.140   2.211  0.6258 -0.2468 -0.6176
  826SOL    HW1 2477   2.356   1.067   2.169  1.9780  2.1382 -0.0688
  826SOL    HW2 2478   2.358   1.230   2.213 -0.7273  3.0211  2.4026
  827SOL     OW 2479   2.339   2.512   1.626  0.2740 -0.3210 -0.0235
  827SOL    HW1 2480   2.401   2.482   1.702 -0.5794  1.5117 -0.5239
  827SOL    HW2 2481   2.355   2.453   1.545  0.2879 -0.3190  1.7165
  828SOL     OW 2482   2.771   2.815   1.514 -0.1209 -0.1068 -0.2437
  828SOL    HW1 2483   2.796   2.912   1.506 -1.4354  0.3960 -0.2140
  828SOL    HW2 2484   2.681   2.794   1.476  2.1363  1.2753  0.5442
  829SOL     OW 2485   1.446   2.183   2.393 -0.1677  0.3004 -0.0666
  829SOL    HW1 2486   1.533   2.200   2.432 -1.9449 -0.6395 -1.2374
  829SOL    HW2 2487   1.421   2.084   2.384 -4.4146 -1.7833  0.0504
  830SOL     OW 2488   1.337   0.279   0.606 -0.4270  0.4675  0.1872
  830SOL    HW1 2489   1.238   0.300   0.584 -3.6641 -1.6309  1.2886
  830SOL    HW2 2490   1.348   0.191   0.658  0.3035  1.8002 -0.1059
  831SOL     OW 2491   2.580   1.349   0.319  0.4701  0.4189  0.1172
  831SOL    HW1 2492   2.593   1.340   0.215  0.3547  0.2041 -3.4783
  831SOL    HW2 2493   2.605   1.448   0.345  2.6834  2.5913 -0.2579
  832SOL     OW 2494   1.530   2.111   1.965  0.4964 -0.3406 -0.3399
  832SOL    HW1 2495   1.584   2.028   1.992  0.7635  0.3364  1.2082
  832SOL    HW2 2496   1.584   2.196   1.994  0.5900  0.8593 -0.5812
  833SOL     OW 2497   2.973   2.840   2.321  0.0837 -0.4061 -0.8569
  833SOL    HW1 2498   3.014   2.824   2.417  0.8934 -1.3106  2.2461
  833SOL    HW2 2499   2.871   2.834   2.315  0.8975  0.6472  0.0564
  834SOL     OW 2500   1.067   1.084   1.348 -0.2768  0.2201  0.7189
  834SOL    HW1 2501   1.051   1.181   1.328 -0.5071 -0.5884 -2.4449
  834SOL    HW2 2502   1.025   1.023   1.275  0.5022 -3.0769 -3.4506
  835SOL     OW 2503   2.872   0.867   2.592 -0.3064  0.1945 -0.4165
  835SOL    HW1 2504   2.874   0.829   2.498  0.7621 -1.2502  0.9176
  835SOL    HW2 2505   2.794   0.928   2.601 -0.2105  0.3904  1.0140
  836SOL     OW 2506   1.139   2.199   1.118 -0.5530 -0.0414 -0.1315
  836SOL    HW1 2507   1.159   2.273   1.184 -0.3930 -3.9625 -0.1943
  836SOL    HW2 2508   1.098   2.114   1.162  0.2814  1.2708 -2.0905
  837SOL     OW 2509   2.068   0.947   0.994  1.1359  0.0850 -0.1996
  837SOL    HW1 2510   2.154   0.994   1.016 -2.6016 -1.8388 -1.6188
  837SOL    HW2 2511   2.036   0.897   1.083 -1.4075 -0.6151  3.5841
  838SOL     OW 2512   1.154   1.654   2.471  0.1834  0.3844 -0.1982
  838SOL    HW1 2513   1.053   1.664   2.472 -1.5036  2.0745  1.2939
  838SOL    HW2 2514   1.188   1.583   2.540  0.2060 -0.5896  0.9404
  839SOL     OW 2515   0.494   2.433   2.745 -0.3327 -0.0715 -0.2230
  839SOL    HW1 2516   0.486   2.363   2.674  0.0136 -1.2134  2.1612
  839SOL    HW2 2517   0.450   2.415   2.835  0.9503  0.4010 -1.6977
  840SOL     OW 2518   0.510   2.570   0.005 -0.1321 -0.5054 -0.0756
  840SOL    HW1 2519   0.483   2.512   3.047 -2.8564  0.6168  1.4715
  840SOL    HW2 2520   0.603   2.554   0.041 -0.6199 -0.7721  0.3997
  841SOL     OW 2521   1.924   2.309   0.230  0.1587 -0.2160  0.8456
  841SOL    HW1 2522   1.959   2.212   0.213 -1.1970 -0.0034 -1.4366
  841SOL    HW2 2523   1.988   2.377   0.192  1.3386 -1.9303  0.7483
  842SOL     OW 2524   1.167   0.786   2.747  0.5642 -0.5655 -0.1858
  842SOL    HW1 2525   1.160   0.881   2.787 -2.7326  0.6773 -0.1328
  842SOL    HW2 2526   1.159   0.792   2.642 -2.4450 -0.6926 -1.7214
  843SOL     OW 2527   1.368   3.049   0.546 -1.0243 -0.3634  0.2979
  843SOL    HW1 2528   1.446   2.983   0.547  0.2981 -2.4855 -1.8640
  843SOL    HW2 2529   1.359   3.098   0.638  1.0095 -1.2973  1.2983
  844SOL     OW 2530   2.394   2.903   2.596  0.0935  0.1429 -0.6956
  844SOL    HW1 2531   2.359   2.984   2.639 -0.3914 -1.4100 -0.1073
  844SOL    HW2 2532   2.368   2.816   2.641  2.0378 -0.2405  1.3594
  845SOL     OW 2533   2.728   2.488   1.199  0.7563 -0.0421  0.2882
  845SOL    HW1 2534   2.632   2.505   1.218 -0.4345  0.7605 -0.0449
  845SOL    HW2 2535   2.742   2.485   1.100 -0.6228  1.2211  1.0575
  846SOL     OW 2536   2.952   1.936   2.410  0.3468 -0.0866 -0.1864
  846SOL    HW1 2537   3.020   1.975   2.339 -1.3615  0.7699 -0.7096
  846SOL    HW2 2538   2.983   1.853   2.462  0.7633  2.8219  0.7738
  847SOL     OW 2539   1.536   0.491   1.748 -0.1720 -0.3268  0.3421
  847SOL    HW1 2540   1.513   0.509   1.649 -0.1353  0.8772 -1.3365
  847SOL    HW2 2541   1.534   0.393   1.764 -2.0127  4.1506  0.4813
  848SOL     OW 2542   2.932   0.327   0.111  0.1199  0.1730 -0.1406
  848SOL    HW1 2543   2.857   0.379   0.060  0.0759 -0.2144 -1.7332
  848SOL    HW2 2544   3.012   0.379   0.141  1.5083 -0.9674  1.3495
  849SOL     OW 2545   0.660   0.387   3.018 -0.5860 -0.0958 -0.0412
  849SOL    HW1 2546   0.719   0.467   3.001 -0.7607 -0.4833  1.6844
  849SOL    HW2 2547   0.567   0.412   3.046  2.9063  1.1414 -1.1152
  850SOL     OW 2548   0.727   2.492   1.031  0.2966  0.2573 -0.2879
  850SOL    HW1 2549   0.802   2.424   1.000  3.2013 -0.2558  1.9992
  850SOL    HW2 2550   0.633   2.450   1.026  0.3454 -0.9931 -0.7925
  851SOL     OW 2551   2.399   0.137   2.315  0.0783  0.0317  0.0995
  851SOL    HW1 2552   2.389   0.163   2.215 -0.7006  0.3236 -4.3761
  851SOL    HW2 2553   2.334   0.195   2.367 -1.4438 -0.0751 -0.3265
  852SOL     OW 2554   1.740   1.374   2.131 -0.0977 -0.1174  0.3485
  852SOL    HW1 2555   1.640   1.355   2.131  2.4007  1.8135  2.3037
  852SOL    HW2 2556   1.797   1.288   2.141  0.0805 -1.7186 -0.2023
  853SOL     OW 2557   2.698   2.663   0.609  0.1012 -0.7578 -0.0016
  853SOL    HW1 2558   2.798   2.638   0.581  2.4485 -1.5089 -2.5356
  853SOL    HW2 2559   2.690   2.763   0.589 -0.5184  1.8835 -0.9393
  854SOL     OW 2560   2.396   0.410   1.006  0.3009 -0.4853 -0.2711
  854SOL    HW1 2561   2.359   0.400   0.916  0.3018 -0.6480  1.9060
  854SOL    HW2 2562   2.324   0.456   1.065 -0.9346 -0.5489  0.0763
  855SOL     OW 2563   1.518   2.219   0.713 -0.0238  0.2241 -0.2307
  855SOL    HW1 2564   1.465   2.200   0.626 -0.1257  0.1627 -3.6756
  855SOL    HW2 2565   1.449   2.234   0.789 -2.0842  0.5871  1.5124
  856SOL     OW 2566   2.750   0.499   3.111  0.5720 -0.0387  0.0679
  856SOL    HW1 2567   2.835   0.543   3.076 -0.4871  0.0555 -0.8255
  856SOL    HW2 2568   2.710   0.446   3.032  2.1946  0.1371 -0.6961
  857SOL     OW 2569   1.657   3.016   1.890 -0.8324  0.2421  0.3084
  857SOL    HW1 2570   1.698   2.921   1.894  2.6605 -0.1986 -1.2023
  857SOL    HW2 2571   1.702   3.070   1.965 -3.1501 -0.6450  0.0444
  858SOL     OW 2572   2.740   2.065   1.500 -0.0289 -0.4651  0.1481
  858SOL    HW1 2573   2.757   2.130   1.422 -0.0926 -0.5711  0.2237
  858SOL    HW2 2574   2.645   2.029   1.492  0.9537 -0.5653 -0.5930
  859SOL     OW 2575   1.343   2.220   0.939 -0.8088 -0.1066  0.2801
  859SOL    HW1 2576   1.264   2.203   1.000 -0.9256  1.7652 -0.2783
  859SOL    HW2 2577   1.425   2.184   0.985  1.1630  0.2409  0.2497
  860SOL     OW 2578   2.295   2.489   0.171  0.1052  0.1596  0.1500
  860SOL    HW1 2579   2.351   2.572   0.152 -0.0666 -3.1529 -0.4516
  860SOL    HW2 2580   2.351   2.418   0.216 -0.5169  3.3092  0.8181
  861SOL     OW 2581   1.612   2.568   1.124 -0.3903  0.4842 -0.0489
  861SOL    HW1 2582   1.699   2.525   1.097 -0.8288  0.7339 -0.7769
  861SOL    HW2 2583   1.583   2.631   1.050  2.5357 -1.1805 -0.8389
  862SOL     OW 2584   2.007   3.052   2.637  0.1746 -0.0733 -0.2590
  862SOL    HW1 2585   2.014   0.019   2.590  2.2755 -0.0497 -1.4297
  862SOL    HW2 2586   1.969   3.060   2.726  2.3794  0.3300  0.9306
  863SOL     OW 2587   0.303   0.478   0.632  0.5218  0.1973 -0.1398
  863SOL    HW1 2588   0.345   0.385   0.644 -1.0174  1.4970  0.9694
  863SOL    HW2 2589   0.204   0.455   0.637 -1.6475 -1.0795 -0.6028
  864SOL     OW 2590   2.610   2.698   1.832  0.2165  0.1491 -0.5153
  864SOL    HW1 2591   2.559   2.607   1.833  1.4145  0.4893  0.3687
  864SOL    HW2 2592   2.558   2.780   1.809  0.6351  1.6148  0.9261
  865SOL     OW 2593   3.013   2.081   3.057  0.0280  0.0465 -0.4688
  865SOL    HW1 2594   2.973   2.076   0.033 -0.9867  0.0480  0.9593
  865SOL    HW2 2595   2.987   2.172   3.013 -1.7268  2.0557 -1.6089
  866SOL     OW 2596   2.506   0.599   2.938  0.0975 -0.3087 -0.3987
  866SOL    HW1 2597   2.574   0.561   2.870 -1.1527 -1.6625  1.7429
  866SOL    HW2 2598   2.544   0.672   2.995 -0.1613 -1.0081 -0.7710
  867SOL     OW 2599   0.460   0.032   2.763  0.2865 -0.3988  0.7876
  867SOL    HW1 2600   0.547   0.082   2.765 -3.3565 -3.3844 -0.5433
  867SOL    HW2 2601   0.382   0.090   2.789  1.2517  0.1904  1.2507
  868SOL     OW 2602   1.319   2.511   0.589  0.0353 -0.3963 -0.3649
  868SOL    HW1 2603   1.258   2.435   0.564 -0.9698 -3.1928  0.7630
  868SOL    HW2 2604   1.261   2.600   0.594  0.0006  3.9595 -3.6020
  869SOL     OW 2605   1.292   1.294   1.320 -0.6559  0.6531 -0.3284
  869SOL    HW1 2606   1.338   1.273   1.227  0.9102 -2.2656 -0.6945
  869SOL    HW2 2607   1.345   1.367   1.373  1.4662  3.6933  1.5838
  870SOL     OW 2608   1.851   1.984   1.250 -0.0796  0.7995  0.2897
  870SOL    HW1 2609   1.907   2.068   1.224  1.7125 -3.3608  2.9590
  870SOL    HW2 2610   1.855   1.976   1.352 -1.3832 -1.3491  1.1072
  871SOL     OW 2611   1.387   1.691   1.384  0.8361  0.0783 -0.1321
  871SOL    HW1 2612   1.298   1.685   1.337  0.0692  0.3701  2.1597
  871SOL    HW2 2613   1.457   1.714   1.316 -1.7005 -1.1282  1.5965
  872SOL     OW 2614   1.350   0.958   1.123  0.0351 -0.0580 -0.5932
  872SOL    HW1 2615   1.403   0.950   1.039 -0.6777 -0.5138 -1.6185
  872SOL    HW2 2616   1.383   1.033   1.188  0.5459  2.1201  1.9047
  873SOL     OW 2617   1.192   0.806   2.467  0.2704  0.0906 -0.2082
  873SOL    HW1 2618   1.229   0.712   2.456 -1.8872 -0.0745 -0.6995
  873SOL    HW2 2619   1.267   0.875   2.465 -0.4467 -2.2565  1.5887
  874SOL     OW 2620   0.384   1.145   1.265  0.4286 -0.0552 -0.1343
  874SOL    HW1 2621   0.285   1.131   1.276  0.9133  1.0081  0.6164
  874SOL    HW2 2622   0.402   1.237   1.231  0.8963 -1.1258  0.9607
  875SOL     OW 2623   2.682   2.874   0.226  0.3872  0.8189 -0.1161
  875SOL    HW1 2624   2.617   2.798   0.200  1.3886  0.8962 -1.9468
  875SOL    HW2 2625   2.695   2.944   0.158  0.1118 -3.7808  3.6130
  876SOL     OW 2626   1.185   0.366   2.786 -0.7450 -0.1104  0.3715
  876SOL    HW1 2627   1.189   0.270   2.821 -1.9587  1.0788  0.2704
  876SOL    HW2 2628   1.117   0.417   2.836 -0.3252 -0.9985 -1.1417
  877SOL     OW 2629   2.922   3.045   1.478  0.4730 -0.4527  0.7929
  877SOL    HW1 2630   2.977   3.105   1.539 -0.7930 -0.8422 -1.0107
  877SOL    HW2 2631   2.981   3.016   1.403 -0.9861  0.8558 -1.2571
  878SOL     OW 2632   1.885   2.619   2.850 -0.5569  0.2314  0.1690
  878SOL    HW1 2633   1.841   2.676   2.921  2.1408 -2.2391 -1.6675
  878SOL    HW2 2634   1.956   2.669   2.792  2.7340  1.2723  0.7813
  879SOL     OW 2635   2.501   1.803   1.689  0.7634 -0.0868 -0.4577
  879SOL    HW1 2636   2.514   1.853   1.601 -1.9246 -0.2391 -0.4220
  879SOL    HW2 2637   2.424   1.744   1.677  0.6935 -1.0390  1.2784
  880SOL     OW 2638   0.733   0.902   1.192 -0.1321 -0.3166  0.0707
  880SOL    HW1 2639   0.830   0.881   1.171 -0.3393  2.6873 -1.2787
  880SOL    HW2 2640   0.663   0.873   1.119 -0.8118  0.6340 -3.1412
  881SOL     OW 2641   1.124   1.872   0.034 -0.3510  0.1977  0.0674
  881SOL    HW1 2642   1.212   1.915   0.005  1.1145  2.1456 -0.1828
  881SOL    HW2 2643   1.145   1.778   0.067  2.4684 -0.4709 -0.3496
  882SOL     OW 2644   1.656   0.284   1.105 -0.3238  0.8122  0.1487
  882SOL    HW1 2645   1.621   0.380   1.083 -0.0214  1.7430 -2.6060
  882SOL    HW2 2646   1.759   0.279   1.122  2.7097  0.5063 -0.3795
  883SOL     OW 2647   1.681   0.545   2.387 -0.6184  0.1403 -0.4888
  883SOL    HW1 2648   1.653   0.562   2.482  2.8008 -1.4080 -0.6381
  883SOL    HW2 2649   1.725   0.626   2.340  0.3668 -0.6154  1.1613
  884SOL     OW 2650   2.778   0.621   0.250  0.2853  0.0504 -0.0679
  884SOL    HW1 2651   2.857   0.685   0.230 -1.5852 -0.0097 -0.9112
  884SOL    HW2 2652   2.737   0.577   0.170 -0.9954 -0.0202 -1.1349
  885SOL     OW 2653   1.026   1.998   0.789 -0.0164  0.2027 -0.2364
  885SOL    HW1 2654   1.055   2.099   0.779  1.0516  2.6322  0.1098
  885SOL    HW2 2655   0.940   1.988   0.845  1.3495 -0.9767 -2.3936
  886SOL     OW 2656   1.547   1.379   3.017 -0.5298 -0.4775 -0.3217
  886SOL    HW1 2657   1.587   1.294   3.058  0.2692 -0.9476  4.3117
  886SOL    HW2 2658   1.451   1.394   3.039  2.3365  1.4059  0.3268
  887SOL     OW 2659   1.563   0.213   1.801  0.3645 -0.0893  0.9481
  887SOL    HW1 2660   1.503   0.192   1.721 -0.1995 -0.1515 -0.8716
  887SOL    HW2 2661   1.528   0.180   1.885  2.2015 -1.0780 -3.0366
  888SOL     OW 2662   2.791   1.566   1.742 -0.0196  0.0384  0.8042
  888SOL    HW1 2663   2.747   1.653   1.771 -2.2787  0.0901  1.8419
  888SOL    HW2 2664   2.817   1.574   1.641 -2.7368  1.5220  0.0098
  889SOL     OW 2665   3.076   2.541   0.775 -0.0648 -0.0946 -0.2543
  889SOL    HW1 2666   0.033   2.593   0.729 -1.7316 -0.0874 -0.5140
  889SOL    HW2 2667   3.023   2.608   0.833  1.6096 -0.4488  0.4645
  890SOL     OW 2668   0.228   1.884   2.440  0.7261 -0.0481  0.2265
  890SOL    HW1 2669   0.203   1.802   2.386  0.7940  0.2102 -1.6815
  890SOL    HW2 2670   0.230   1.967   2.378 -0.8043 -0.1696 -1.1633
  891SOL     OW 2671   0.892   1.840   0.601  0.2245  0.7527  0.0285
  891SOL    HW1 2672   0.856   1.754   0.639  2.0430  2.2090  0.8139
  891SOL    HW2 2673   0.960   1.884   0.662 -1.0024 -1.3471 -2.2272
  892SOL     OW 2674   0.041   2.126   1.677 -0.1265 -0.2408  0.4239
  892SOL    HW1 2675   0.036   2.086   1.581  0.0442 -0.1437 -0.8439
  892SOL    HW2 2676   3.077   2.116   1.729  1.2159 -2.1365  1.7226
  893SOL     OW 2677   0.028   3.115   1.662 -0.0676 -0.5726 -0.3700
  893SOL    HW1 2678   0.007   0.025   1.757  0.9561 -0.4213 -0.3250
  893SOL    HW2 2679   0.123   3.078   1.660 -0.3812 -1.1443  1.8368
  894SOL     OW 2680   2.785   1.837   0.825 -0.0224  0.3578  0.1388
  894SOL    HW1 2681   2.863   1.770   0.798  0.4290 -1.3640 -0.1743
  894SOL    HW2 2682   2.716   1.853   0.746 -0.9793  0.2283 -0.3163
  895SOL     OW 2683   1.828   2.605   1.680  0.5268  0.0833 -1.0214
  895SOL    HW1 2684   1.927   2.586   1.687 -2.4776  0.1645 -0.9828
  895SOL    HW2 2685   1.793   2.581   1.588 -2.4970 -1.4814  0.5326
  896SOL     OW 2686   0.377   0.026   1.442  0.4193 -0.2318 -0.0930
  896SOL    HW1 2687   0.291   0.014   1.380 -1.3832  0.0402  0.0233
  896SOL    HW2 2688   0.424   0.113   1.418 -1.7549 -1.8245 -3.3447
  897SOL     OW 2689   1.334   1.065   1.481  0.1158 -0.1387  0.6325
  897SOL    HW1 2690   1.242   1.086   1.437 -1.2043  0.2378 -2.1823
  897SOL    HW2 2691   1.398   1.139   1.443  0.2302  1.5130 -1.5955
  898SOL     OW 2692   0.794   3.075   1.556  1.0001 -0.0957 -1.0963
  898SOL    HW1 2693   0.781   0.028   1.625 -2.0707 -1.4503 -3.8920
  898SOL    HW2 2694   0.894   3.064   1.536  0.5847  0.5463 -0.2524
  899SOL     OW 2695   1.349   0.236   3.081  0.2224 -0.0371  0.1498
  899SOL    HW1 2696   1.435   0.196   3.054 -0.1842  1.2271  2.5231
  899SOL    HW2 2697   1.269   0.220   3.017 -3.2340 -0.8378 -1.7475
  900SOL     OW 2698   0.731   0.212   2.350  0.0831 -0.0519  0.4187
  900SOL    HW1 2699   0.743   0.145   2.422  1.9220 -1.4385 -2.8374
  900SOL    HW2 2700   0.654   0.186   2.285  0.9192 -2.2793 -2.3063
  901SOL     OW 2701   0.810   2.057   0.310  0.1915 -0.4440 -0.1334
  901SOL    HW1 2702   0.896   2.007   0.331  1.0869  3.5080  2.7332
  901SOL    HW2 2703   0.807   2.156   0.340  0.0899  1.0498 -1.3942
  902SOL     OW 2704   1.962   0.500   1.002 -0.0023  0.2290  0.1484
  902SOL    HW1 2705   1.902   0.473   0.923 -2.0458 -1.6170 -1.6246
  902SOL    HW2 2706   1.954   0.425   1.069 -0.9290 -0.6807  1.1300
  903SOL     OW 2707   2.695   1.093   2.557  0.2545 -0.2713 -0.7889
  903SOL    HW1 2708   2.667   1.174   2.608  0.8637 -0.9612  2.2256
  903SOL    HW2 2709   2.753   1.120   2.481 -2.8483  1.4995  4.8213
  904SOL     OW 2710   1.398   1.397   0.214 -0.2484 -0.7058 -0.2339
  904SOL    HW1 2711   1.455   1.439   0.147 -0.9909 -1.5858  0.5203
  904SOL    HW2 2712   1.434   1.415   0.307 -0.6931  0.1796  0.2922
  905SOL     OW 2713   1.870   2.951   1.465 -0.7704  0.0181  0.1172
  905SOL    HW1 2714   1.904   3.038   1.505  1.3159  1.6691 -0.9868
  905SOL    HW2 2715   1.844   2.976   1.369  0.6446  2.4090  0.3223
  906SOL     OW 2716   2.167   3.087   0.964  0.1479  0.5178 -0.1892
  906SOL    HW1 2717   2.197   3.082   1.058 -0.6288 -2.0522 -1.9133
  906SOL    HW2 2718   2.248   3.102   0.908  1.0803 -1.6064  2.0457
  907SOL     OW 2719   1.764   1.026   0.358  0.1106  0.1807  0.3382
  907SOL    HW1 2720   1.684   0.962   0.342  2.6592 -4.0060 -0.6004
  907SOL    HW2 2721   1.765   1.102   0.291 -3.1191 -1.4790  0.0319
  908SOL     OW 2722   1.720   0.181   1.399  0.0135  0.2981  0.1976
  908SOL    HW1 2723   1.630   0.149   1.430  0.6106  2.8900  0.5266
  908SOL    HW2 2724   1.715   0.278   1.374 -0.1848 -0.9340  0.3665
  909SOL     OW 2725   2.252   0.021   0.591 -0.2512  0.1632  0.7557
  909SOL    HW1 2726   2.333   0.004   0.652  1.6109  0.4805 -0.8207
  909SOL    HW2 2727   2.201   0.100   0.626  0.9586 -0.2610 -1.5235
  910SOL     OW 2728   2.570   0.572   2.181 -0.2615 -0.2170  0.4493
  910SOL    HW1 2729   2.567   0.654   2.234 -0.2026 -3.2573 -0.8638
  910SOL    HW2 2730   2.489   0.557   2.124  1.7251 -1.2696 -1.1535
  911SOL     OW 2731   2.616   0.086   2.742 -0.4986  0.2178 -0.0390
  911SOL    HW1 2732   2.521   0.113   2.766  1.2406  0.6686  0.3899
  911SOL    HW2 2733   2.660   0.018   2.803  1.3562 -1.4574 -0.1870
  912SOL     OW 2734   0.766   1.323   1.505  0.3966 -0.0820  0.1299
  912SOL    HW1 2735   0.799   1.313   1.599 -2.4703  1.8166  0.8929
  912SOL    HW2 2736   0.733   1.238   1.470  0.0877  0.9990  1.4834
  913SOL     OW 2737   3.015   2.518   1.282 -0.4348  0.5023 -0.1217
  913SOL    HW1 2738   3.011   2.526   1.387 -1.7145  1.2909  0.6949
  913SOL    HW2 2739   2.919   2.503   1.249 -0.3184  0.6846  1.5956
  914SOL     OW 2740   2.045   0.848   1.260  0.1481  0.1785  0.0268
  914SOL    HW1 2741   1.980   0.806   1.330 -0.1875  1.7869  1.4492
  914SOL    HW2 2742   2.140   0.834   1.294  1.7563 -0.1687  2.5045
  915SOL     OW 2743   0.185   1.492   1.020  0.5210  0.4933 -0.0099
  915SOL    HW1 2744   0.201   1.456   0.926  1.7024  3.3143  1.3450
  915SOL    HW2 2745   0.083   1.510   1.035 -1.8372  1.6310  1.7172
  916SOL     OW 2746   2.014   2.229   1.164  0.1578 -0.1235  0.3289
  916SOL    HW1 2747   1.960   2.316   1.149  0.1081  3.2737  1.6715
  916SOL    HW2 2748   2.076   2.206   1.084 -0.5455  1.0429 -1.7556
  917SOL     OW 2749   1.795   2.559   2.089 -0.6265 -0.1522 -0.6969
  917SOL    HW1 2750   1.797   2.573   2.194  1.9414  1.3678  3.3579
  917SOL    HW2 2751   1.734   2.483   2.066  0.2534  0.5885  1.8291
  918SOL     OW 2752   2.039   2.132   2.403  0.0855  0.5036  0.1623
  918SOL    HW1 2753   2.016   2.182   2.317 -1.2190  1.7991 -0.8371
  918SOL    HW2 2754   2.018   2.190   2.485 -0.4402  0.6547  0.9512
  919SOL     OW 2755   0.741   0.170   1.318  0.5037  0.6417 -0.0504
  919SOL    HW1 2756   0.652   0.208   1.354  0.4998 -1.2313 -0.0415
  919SOL    HW2 2757   0.746   0.071   1.340 -0.9140  0.2726  0.3040
  920SOL     OW 2758   2.778   0.396   2.224 -0.3328 -0.2294  0.3367
  920SOL    HW1 2759   2.700   0.443   2.184  0.6661 -1.0179  0.8659
  920SOL    HW2 2760   2.757   0.388   2.324 -1.2159  2.4928  0.8176
  921SOL     OW 2761   2.741   1.108   1.581 -0.2949 -0.3911 -0.2395
  921SOL    HW1 2762   2.770   1.017   1.550  1.0050  1.6994 -1.7851
  921SOL    HW2 2763   2.643   1.117   1.619 -1.6975  1.5458  1.0380
  922SOL     OW 2764   2.632   2.258   0.875 -0.1089  0.1762  0.4928
  922SOL    HW1 2765   2.575   2.274   0.792  0.6513  0.4924  0.2797
  922SOL    HW2 2766   2.686   2.347   0.893  1.6747  3.0368  2.3976
  923SOL     OW 2767   0.608   2.477   0.600  0.0669 -0.5644 -0.3114
  923SOL    HW1 2768   0.558   2.440   0.519  1.8601 -0.7090 -1.0533
  923SOL    HW2 2769   0.675   2.410   0.636 -0.6880  0.6226 -1.8239
  924SOL     OW 2770   1.257   1.142   2.628  0.4748 -0.0069  0.0653
  924SOL    HW1 2771   1.296   1.234   2.645  1.5034 -0.4378 -1.0214
  924SOL    HW2 2772   1.323   1.087   2.574 -0.6171  0.4970 -1.4726
  925SOL     OW 2773   2.798   1.431   0.695  0.0503  0.7762  0.6866
  925SOL    HW1 2774   2.852   1.369   0.756  1.3946  1.0801  1.3733
  925SOL    HW2 2775   2.830   1.415   0.598 -0.8112 -4.4213 -0.8961
  926SOL     OW 2776   0.093   0.118   0.857  0.2329  0.6390 -0.0744
  926SOL    HW1 2777   0.171   0.066   0.895  1.1950  0.7133 -1.2896
  926SOL    HW2 2778   0.013   0.062   0.878  2.1930  0.7556  0.8620
  927SOL     OW 2779   0.211   2.032   2.788 -0.4543 -0.3924 -0.5903
  927SOL    HW1 2780   0.190   2.026   2.889 -2.0386  1.2824  0.4564
  927SOL    HW2 2781   0.174   1.955   2.736 -0.6731  1.2922  1.0575
  928SOL     OW 2782   0.116   0.251   2.351 -0.2568  0.0769 -0.0404
  928SOL    HW1 2783   0.079   0.239   2.263  3.8593 -0.0348  1.2948
  928SOL    HW2 2784   0.132   0.158   2.385 -2.1533  0.8592 -0.9906
  929SOL     OW 2785   3.034   2.126   1.213  0.2156  0.8382 -0.2707
  929SOL    HW1 2786   2.940   2.158   1.221  3.9136  0.7796 -1.2357
  929SOL    HW2 2787   3.091   2.193   1.161  2.0171  3.5312 -1.0763
  930SOL     OW 2788   1.740   0.269   2.429 -0.1908 -0.1089  0.2005
  930SOL    HW1 2789   1.682   0.239   2.505  1.3620  0.4161  2.4121
  930SOL    HW2 2790   1.719   0.363   2.387 -2.1863 -0.8872 -1.5108
  931SOL     OW 2791   2.358   1.295   3.006 -0.3497  0.4481 -0.3436
  931SOL    HW1 2792   2.313   1.387   3.008 -1.3708  3.0705  0.9623
  931SOL    HW2 2793   2.283   1.224   3.010 -2.1427 -0.4715 -2.2600
  932SOL     OW 2794   1.759   0.970   0.627  0.3878 -0.7463 -0.3708
  932SOL    HW1 2795   1.769   0.871   0.654  2.3168 -0.2372 -2.1776
  932SOL    HW2 2796   1.773   0.992   0.529  0.3910  4.0291  2.5657
  933SOL     OW 2797   2.371   1.274   0.749 -0.2481 -0.3301 -0.0288
  933SOL    HW1 2798   2.357   1.252   0.647 -1.6553  0.8816 -1.9000
  933SOL    HW2 2799   2.448   1.346   0.758 -1.0267  1.2439  0.0158
  934SOL     OW 2800   2.157   1.151   2.867 -0.0835 -0.2419  0.0842
  934SOL    HW1 2801   2.061   1.176   2.834 -0.2462 -1.3457  1.8478
  934SOL    HW2 2802   2.220   1.120   2.792  1.8696 -1.3397  1.9888
  935SOL     OW 2803   0.230   1.401   0.764  0.6679 -0.0958  0.5501
  935SOL    HW1 2804   0.309   1.366   0.713 -0.3637  1.8611 -1.0242
  935SOL    HW2 2805   0.148   1.349   0.736  0.1667 -2.3784 -2.9525
  936SOL     OW 2806   0.039   2.785   0.285  0.5579  0.5373  0.1199
  936SOL    HW1 2807   0.125   2.840   0.302  1.6225 -2.9722 -0.0486
  936SOL    HW2 2808   0.044   2.686   0.321 -0.8043 -2.1444  0.6167
  937SOL     OW 2809   3.095   2.300   1.963  0.3931 -0.1538  0.5864
  937SOL    HW1 2810   0.023   2.348   1.887  0.7170 -0.0147  0.4601
  937SOL    HW2 2811   3.106   2.203   1.946 -0.5940  2.3386 -1.8682
  938SOL     OW 2812   2.568   2.349   2.804 -0.1771 -0.4725  0.7317
  938SOL    HW1 2813   2.512   2.416   2.746  0.2138  0.4117 -2.6804
  938SOL    HW2 2814   2.663   2.354   2.769  0.8606  1.0872  0.2683
  939SOL     OW 2815   1.005   0.889   1.176 -0.4148  0.4505  0.1148
  939SOL    HW1 2816   1.060   0.826   1.233 -1.5306 -0.4926 -0.5200
  939SOL    HW2 2817   1.052   0.928   1.090 -0.7939 -1.8477 -2.5884
  940SOL     OW 2818   2.404   3.071   2.970  0.5833 -0.2129  0.5561
  940SOL    HW1 2819   2.352   3.072   2.886  1.5299 -2.4546  0.8322
  940SOL    HW2 2820   2.441   2.976   2.990  0.2188 -3.6937  2.2053
  941SOL     OW 2821   2.693   2.817   2.261  0.2787 -0.0812  0.0410
  941SOL    HW1 2822   2.721   2.840   2.165 -1.1306 -0.6006 -0.6753
  941SOL    HW2 2823   2.607   2.764   2.245 -0.3089 -1.1162 -0.0504
  942SOL     OW 2824   1.411   0.301   1.297 -0.3519 -0.2339 -0.0986
  942SOL    HW1 2825   1.511   0.314   1.272  1.9249  1.2194  1.2681
  942SOL    HW2 2826   1.384   0.377   1.362 -1.2597  2.0527 -0.8732
  943SOL     OW 2827   0.600   1.639   2.468  0.2005  0.2041  0.3835
  943SOL    HW1 2828   0.524   1.626   2.405 -1.5958 -0.4695  0.9081
  943SOL    HW2 2829   0.587   1.733   2.504  0.7313 -0.8139 -1.2261
  944SOL     OW 2830   2.366   0.808   0.759 -0.5231  0.2371 -0.2930
  944SOL    HW1 2831   2.320   0.749   0.693  1.2727  0.3026 -0.7746
  944SOL    HW2 2832   2.347   0.902   0.732  1.1399 -4.2090  0.3998
  945SOL     OW 2833   2.985   0.166   2.901  0.3578 -0.1206 -0.1262
  945SOL    HW1 2834   3.017   0.132   2.809  1.1792  0.2851  1.5455
  945SOL    HW2 2835   3.053   0.232   2.939 -1.2890  1.2465  0.8729
  946SOL     OW 2836   0.144   1.366   1.454  0.5174  0.5402  0.4792
  946SOL    HW1 2837   0.201   1.336   1.533  0.3058  0.7795 -0.4385
  946SOL    HW2 2838   0.108   1.289   1.395 -3.8882  0.1775  1.0335
  947SOL     OW 2839   0.922   0.093   3.040 -0.0709 -0.0817 -0.0431
  947SOL    HW1 2840   0.922   0.166   3.112  3.5287  2.2855  1.5318
  947SOL    HW2 2841   0.894   0.002   3.079  0.1366  0.8446  0.6350
  948SOL     OW 2842   2.531   1.716   1.288  0.0880  0.1706  0.0826
  948SOL    HW1 2843   2.528   1.682   1.381  1.3120 -1.1901  1.3403
  948SOL    HW2 2844   2.594   1.660   1.228  3.0372 -2.6119  0.8902
  949SOL     OW 2845   0.369   0.909   2.930 -0.1399 -0.1121  0.3831
  949SOL    HW1 2846   0.417   0.998   2.948 -1.4033  0.1856  0.1359
  949SOL    HW2 2847   0.270   0.926   2.932  2.4115  0.5506 -0.6829
  950SOL     OW 2848   0.275   2.747   1.287 -0.2502 -0.7475 -0.2505
  950SOL    HW1 2849   0.249   2.725   1.382 -0.9203 -0.8258  2.2319
  950SOL    HW2 2850   0.361   2.803   1.285 -0.1515  0.7354 -3.1345
  951SOL     OW 2851   0.865   1.803   2.696 -0.3909 -0.2297 -0.0216
  951SOL    HW1 2852   0.769   1.777   2.722 -0.8487 -1.7528 -0.6497
  951SOL    HW2 2853   0.872   1.893   2.651  1.4670 -0.9683 -0.4159
  952SOL     OW 2854   0.700   1.280   0.513  0.3516 -0.0473  0.0153
  952SOL    HW1 2855   0.763   1.224   0.570  0.3246  3.5898  0.3016
  952SOL    HW2 2856   0.746   1.369   0.488  2.1514  0.6304 -1.2996
  953SOL     OW 2857   2.312   1.931   2.680 -0.0298 -0.0010 -0.1755
  953SOL    HW1 2858   2.381   1.932   2.606 -1.0331 -1.1288 -1.0764
  953SOL    HW2 2859   2.360   1.944   2.767  0.5436  0.7296 -1.7649
  954SOL     OW 2860   1.578   0.538   0.790  0.2186  0.4462  0.7193
  954SOL    HW1 2861   1.522   0.452   0.788 -1.3708 -0.8933  1.3245
  954SOL    HW2 2862   1.517   0.613   0.772 -2.2477 -1.4942  1.9940
  955SOL     OW 2863   0.883   2.017   3.015  0.3358  0.2113  0.0462
  955SOL    HW1 2864   0.902   2.061   2.927  0.4464  0.0983 -1.5181
  955SOL    HW2 2865   0.965   2.011   3.075  0.3792  2.3790  0.5738
  956SOL     OW 2866   2.918   0.735   2.004  0.2768 -0.5468  0.5517
  956SOL    HW1 2867   3.003   0.769   1.956 -2.7044 -1.8729 -1.1035
  956SOL    HW2 2868   2.872   0.658   1.956  1.1087 -0.7816 -0.5350
  957SOL     OW 2869   1.825   1.923   2.183  0.1747 -0.1513 -0.4542
  957SOL    HW1 2870   1.904   1.881   2.131  1.4180 -1.7190 -0.7757
  957SOL    HW2 2871   1.741   1.911   2.124 -1.5204  0.9141 -1.9062
  958SOL     OW 2872   1.667   0.765   1.317  0.4916  0.1106 -0.5616
  958SOL    HW1 2873   1.672   0.864   1.336  1.0093 -0.4876 -0.5620
  958SOL    HW2 2874   1.736   0.711   1.376  3.3355 -2.4513  0.5448
  959SOL     OW 2875   1.646   1.856   2.002 -0.1508 -0.0757 -0.2697
  959SOL    HW1 2876   1.644   1.867   1.901  0.4607 -1.5929 -3.1092
  959SOL    HW2 2877   1.590   1.770   2.028 -2.7540 -0.8262 -1.2597
  960SOL     OW 2878   0.543   0.944   2.686 -0.1146  0.0399  0.2411
  960SOL    HW1 2879   0.463   0.896   2.730 -1.7330 -0.4292  3.2324
  960SOL    HW2 2880   0.635   0.901   2.714 -1.0188 -0.1165  1.4099
  961SOL     OW 2881   0.226   1.223   3.121 -0.1874  0.0226  0.3065
  961SOL    HW1 2882   0.166   1.208   3.040 -0.2733 -0.2725  1.4484
  961SOL    HW2 2883   0.217   1.318   0.037  0.6182  0.1066  1.0624
  962SOL     OW 2884   0.947   2.216   2.833  0.3449  0.4570 -0.5608
  962SOL    HW1 2885   0.894   2.292   2.875 -1.1766  0.2457  0.3982
  962SOL    HW2 2886   1.038   2.211   2.879  1.6924 -0.3473  0.4706
  963SOL     OW 2887   2.967   1.768   0.043 -0.4807 -0.4675 -0.0849
  963SOL    HW1 2888   3.059   1.728   0.060 -1.6736 -0.2492 -0.1783
  963SOL    HW2 2889   2.951   1.862   0.085 -1.3353  2.0578  1.5991
  964SOL     OW 2890   0.766   2.266   2.362  0.7804  0.4657 -0.7040
  964SOL    HW1 2891   0.712   2.315   2.287 -0.2272  0.8933  1.5697
  964SOL    HW2 2892   0.827   2.336   2.411  3.6283 -0.4231 -0.1796
  965SOL     OW 2893   1.718   1.832   1.487  0.2537 -0.3439 -0.4827
  965SOL    HW1 2894   1.786   1.767   1.446  0.8264 -1.6459  0.1390
  965SOL    HW2 2895   1.657   1.789   1.559 -1.7256 -2.3762 -0.0403
  966SOL     OW 2896   3.044   1.570   0.332 -0.3156  0.2641 -0.2846
  966SOL    HW1 2897   0.020   1.575   0.336 -2.4376  1.2287 -0.9639
  966SOL    HW2 2898   3.016   1.505   0.256 -0.2577  1.2151  0.6261
  967SOL     OW 2899   2.186   2.687   2.056  0.0385  0.6221 -0.2408
  967SOL    HW1 2900   2.147   2.599   2.020 -0.2469 -1.2829  0.8759
  967SOL    HW2 2901   2.112   2.757   2.076 -2.5823  2.8558 -1.6123
  968SOL     OW 2902   1.634   1.144   0.019 -0.0732  0.3566 -0.2779
  968SOL    HW1 2903   1.729   1.107   0.034 -0.8643 -3.1182 -0.5624
  968SOL    HW2 2904   1.569   1.069   3.117 -1.5927 -0.2651  0.2642
  969SOL     OW 2905   0.172   1.177   2.428  0.2217  0.2138  0.3406
  969SOL    HW1 2906   0.166   1.097   2.364 -0.1218 -0.3506  2.0742
  969SOL    HW2 2907   0.259   1.172   2.483 -0.8118 -0.4137  0.2742
  970SOL     OW 2908   2.412   2.838   0.668  0.2179  0.0618 -0.6494
  970SOL    HW1 2909   2.388   2.812   0.571 -0.8874 -1.7894 -1.1006
  970SOL    HW2 2910   2.362   2.773   0.728 -0.5261  1.5966 -0.1679
  971SOL     OW 2911   2.218   2.197   0.978 -0.3345 -0.2357 -0.0740
  971SOL    HW1 2912   2.283   2.116   0.967 -0.2137 -3.0089  1.8305
  971SOL    HW2 2913   2.255   2.278   1.030  1.5132 -1.1099 -1.1464
  972SOL     OW 2914   0.251   1.641   2.831  0.8089  0.3760  0.2553
  972SOL    HW1 2915   0.212   1.709   2.763 -0.7912 -2.0989  0.2639
  972SOL    HW2 2916   0.320   1.581   2.791 -0.2719  1.6845  1.6562
  973SOL     OW 2917   0.736   0.507   0.230  0.0026 -0.0128 -0.0660
  973SOL    HW1 2918   0.754   0.425   0.172 -0.4135  0.4248  1.8736
  973SOL    HW2 2919   0.826   0.551   0.257  0.6901  2.1292  1.0210
  974SOL     OW 2920   2.248   0.674   1.755 -0.2460 -0.4290  0.3871
  974SOL    HW1 2921   2.252   0.606   1.830 -1.1247  0.4024 -2.2381
  974SOL    HW2 2922   2.305   0.755   1.775 -3.2756  2.9950 -0.7762
  975SOL     OW 2923   0.017   3.104   0.531 -0.0678  0.0004 -0.1382
  975SOL    HW1 2924   0.106   3.118   0.576  1.4299 -0.7349  2.4610
  975SOL    HW2 2925   3.060   0.028   0.580  0.0183 -0.5174 -0.1552
  976SOL     OW 2926   0.614   1.518   1.419  0.1137  0.3802  0.2179
  976SOL    HW1 2927   0.670   1.448   1.462  0.1980  2.6035 -2.1157
  976SOL    HW2 2928   0.646   1.540   1.325 -1.1803  0.6061 -2.4110
  977SOL     OW 2929   1.360   2.156   0.493 -0.7125 -0.2942  0.2082
  977SOL    HW1 2930   1.423   2.160   0.413 -0.7179 -1.2950  2.4467
  977SOL    HW2 2931   1.280   2.209   0.466  2.4438 -0.2457  0.5151
  978SOL     OW 2932   0.117   0.793   0.035  0.1402 -0.4271  0.0956
  978SOL    HW1 2933   0.106   0.835   3.063  0.9928  0.5728  0.8224
  978SOL    HW2 2934   0.161   0.857   0.096 -1.0465  0.1873 -0.5526
  979SOL     OW 2935   2.112   1.659   0.585 -0.1062  0.0176 -0.0133
  979SOL    HW1 2936   2.040   1.604   0.540 -3.9925  1.6051 -0.2727
  979SOL    HW2 2937   2.091   1.668   0.683  0.9137 -0.2897 -1.2124
  980SOL     OW 2938   0.592   1.898   1.638  0.2983 -0.0995 -0.6384
  980SOL    HW1 2939   0.686   1.875   1.606 -0.6916 -1.1916 -0.1522
  980SOL    HW2 2940   0.561   1.990   1.610 -0.7746  1.2162  0.2514
  981SOL     OW 2941   2.727   1.468   2.860  0.2008 -0.3220 -0.7145
  981SOL    HW1 2942   2.819   1.467   2.811  3.6350 -3.1771 -1.1218
  981SOL    HW2 2943   2.674   1.382   2.842 -1.5329  0.7058  1.2978
  982SOL     OW 2944   0.198   1.958   1.848  0.5182  0.2439  0.0306
  982SOL    HW1 2945   0.167   2.023   1.776  0.1184  0.4215 -2.0581
  982SOL    HW2 2946   0.297   1.932   1.838 -2.7259  0.6919  1.2533
  983SOL     OW 2947   1.492   0.145   2.080  0.2670  0.1291  0.4035
  983SOL    HW1 2948   1.402   0.116   2.109  3.2285  0.8212 -1.7433
  983SOL    HW2 2949   1.498   0.245   2.073  1.4770  0.3494  0.2319
  984SOL     OW 2950   2.824   3.058   2.936 -0.0682  0.3651 -0.0648
  984SOL    HW1 2951   2.878   0.019   2.942 -2.1097 -2.1462  0.5611
  984SOL    HW2 2952   2.835   3.016   2.841 -0.5839  1.3996  0.4276
  985SOL     OW 2953   1.442   1.341   1.839  0.1075 -0.6819 -0.1635
  985SOL    HW1 2954   1.445   1.446   1.842 -0.4756 -1.6488 -0.4226
  985SOL    HW2 2955   1.520   1.295   1.789  3.5382 -1.1540 -1.4410
  986SOL     OW 2956   1.933   0.307   2.839 -0.2447 -0.2884  0.0942
  986SOL    HW1 2957   2.013   0.334   2.896 -1.0135 -1.1966 -0.5141
  986SOL    HW2 2958   1.877   0.390   2.823  0.1842 -2.1390  1.3943
  987SOL     OW 2959   2.974   1.733   2.620  0.2116 -0.5716 -0.2345
  987SOL    HW1 2960   2.936   1.788   2.698  0.8608  0.8967  1.5263
  987SOL    HW2 2961   2.906   1.677   2.563  0.7206 -1.0288 -0.3599
  988SOL     OW 2962   2.991   0.204   1.210 -0.1404 -0.1082  0.7557
  988SOL    HW1 2963   3.021   0.180   1.303 -1.5423 -1.6961 -1.8031
  988SOL    HW2 2964   2.900   0.169   1.177  1.0780 -0.7369  0.4700
  989SOL     OW 2965   1.937   0.289   1.171  0.2317 -0.1512 -0.0449
  989SOL    HW1 2966   1.962   0.245   1.082 -0.6068 -0.0364  2.5753
  989SOL    HW2 2967   1.995   0.256   1.250  2.9192  0.6466 -0.1066
  990SOL     OW 2968   2.638   0.799   3.063 -1.1506 -0.3710 -0.5822
  990SOL    HW1 2969   2.710   0.809   2.992  1.3243 -0.4937 -1.8014
  990SOL    HW2 2970   2.604   0.887   3.097  2.2122  0.2209 -1.2275
  991SOL     OW 2971   0.256   1.312   0.392 -0.2876 -0.2171  0.1302
  991SOL    HW1 2972   0.183   1.239   0.389  2.5224  0.5619  3.1102
  991SOL    HW2 2973   0.347   1.280   0.413  3.0957  3.3585  0.9612
  992SOL     OW 2974   1.907   1.256   1.836 -0.4834  0.3086 -0.2441
  992SOL    HW1 2975   1.916   1.340   1.896 -0.5952  0.8499 -0.5662
  992SOL    HW2 2976   1.954   1.268   1.749  1.3115 -1.6098  2.5254
  993SOL     OW 2977   0.418   2.378   0.774 -0.0594 -0.1899 -0.2006
  993SOL    HW1 2978   0.426   2.396   0.874  2.2737 -0.9220  0.5733
  993SOL    HW2 2979   0.490   2.420   0.724 -0.6201 -1.9531 -0.7680
  994SOL     OW 2980   2.955   1.859   1.781 -0.0092  0.0300  0.2281
  994SOL    HW1 2981   2.857   1.841   1.800  0.6860 -0.9390 -0.3704
  994SOL    HW2 2982   2.975   1.858   1.680 -0.0297 -0.5631  2.4612
  995SOL     OW 2983   1.945   1.823   2.707 -0.3616 -0.3360 -0.3666
  995SOL    HW1 2984   1.888   1.883   2.647  2.5838 -0.5047  0.9747
  995SOL    HW2 2985   2.044   1.849   2.696 -2.6702 -0.5276  0.6229
  996SOL     OW 2986   2.158   2.332   0.506 -0.2125 -0.5926  0.0529
  996SOL    HW1 2987   2.060   2.301   0.491 -0.2649 -0.2364  1.1926
  996SOL    HW2 2988   2.224   2.253   0.509  0.7032  0.6393 -0.8559
  997SOL     OW 2989   0.913   1.692   2.201 -0.8320  0.2798  0.1470
  997SOL    HW1 2990   0.889   1.670   2.297  0.7488  0.1203  0.3521
  997SOL    HW2 2991   0.983   1.626   2.163  1.0543 -1.5460 -0.1593
  998SOL     OW 2992   2.978   2.540   0.513  0.1312  0.3901  0.3121
  998SOL    HW1 2993   3.015   2.535   0.610 -0.6530 -3.0406  2.1644
  998SOL    HW2 2994   3.048   2.547   0.441  1.1935  1.0378 -0.8440
  999SOL     OW 2995   0.666   2.998   0.379  0.1225 -0.2346  0.2865
  999SOL    HW1 2996   0.611   2.922   0.339 -0.5064 -1.8333  1.4939
  999SOL    HW2 2997   0.671   2.988   0.480  1.1769 -1.0856 -1.5490
 1000SOL     OW 2998   1.209   0.150   0.186  1.0515  0.2985 -0.3516
 1000SOL    HW1 2999   1.259   0.201   0.110  0.8637 -0.5787 -2.7547
 1000SOL    HW2 3000   1.146   0.209   0.241 -0.4716  1.1114 -1.7841
   3.12143   3.12143   3.12143
