1000 SPC/Fw water molecules t=  63.00000 step= 63000
 3000
    1SOL     OW    1   2.147   2.587   0.874 -0.3196  0.3611  0.5836
    1SOL    HW1    2   2.061   2.628   0.834 -0.2531 -0.4634 -0.5651
    1SOL    HW2    3   2.225   2.651   0.864 -0.5136 -0.6678  2.0692
    2SOL     OW    4   0.984   1.083   2.620  0.1409 -0.1177  0.4896
    2SOL    HW1    5   0.913   1.120   2.681  1.1464  0.3834  0.9463
    2SOL    HW2    6   1.057   1.153   2.594  1.5624 -0.5179 -0.8079
    3SOL     OW    7   1.341   2.653   2.582 -0.1205  0.1307 -0.0336
    3SOL    HW1    8   1.414   2.683   2.648 -0.8468 -2.1847  0.7007
    3SOL    HW2    9   1.300   2.570   2.628 -0.3428  1.0393 -1.0245
    4SOL     OW   10   1.340   1.650   2.895 -0.2260  0.9885 -0.1529
    4SOL    HW1   11   1.405   1.563   2.910 -1.7297 -0.9595  0.1201
    4SOL    HW2   12   1.378   1.734   2.856  0.5042  1.4704  1.5280
    5SOL     OW   13   1.018   0.712   1.832 -0.1200 -0.1438  0.4840
    5SOL    HW1   14   1.093   0.663   1.878 -3.4526  0.6999 -1.0523
    5SOL    HW2   15   0.930   0.712   1.885  0.8651  0.3124  2.8696
    6SOL     OW   16   1.968   0.703   2.449 -0.1071  0.1590 -0.0972
    6SOL    HW1   17   2.070   0.721   2.439  3.8099  3.3021  0.0261
    6SOL    HW2   18   1.941   0.611   2.482 -0.7513  0.6977  0.2552
    7SOL     OW   19   0.271   0.461   1.744 -0.2700 -0.1537  0.7411
    7SOL    HW1   20   0.194   0.502   1.695 -0.9989 -1.1392  0.3938
    7SOL    HW2   21   0.257   0.456   1.843  1.7934 -0.6739 -3.2600
    8SOL     OW   22   1.942   3.070   1.937 -0.0785  0.0752  0.1724
    8SOL    HW1   23   1.903   2.980   1.962 -0.2716 -0.4345  2.7029
    8SOL    HW2   24   1.885   0.034   1.969 -2.4784 -1.3244 -0.3462
    9SOL     OW   25   0.189   0.016   0.817 -0.1113  0.1822 -0.2862
    9SOL    HW1   26   0.216   0.088   0.759  0.1039  1.3584 -0.2593
    9SOL    HW2   27   0.125   0.039   0.891 -0.7369  2.4509 -0.3492
   10SOL     OW   28   0.426   2.141   2.354  0.7165  0.0316 -0.1317
   10SOL    HW1   29   0.467   2.124   2.267 -1.4725  0.6105  1.7898
   10SOL    HW2   30   0.488   2.186   2.427  1.1072  0.4564 -1.4176
   11SOL     OW   31   0.874   1.473   0.184  0.1961 -0.0667  0.0220
   11SOL    HW1   32   0.796   1.485   0.120  0.5493 -0.0626  1.1590
   11SOL    HW2   33   0.839   1.488   0.279 -0.9958 -0.1633 -0.9946
   12SOL     OW   34   2.766   2.402   1.432 -0.5670  0.1150  0.0177
   12SOL    HW1   35   2.761   2.477   1.498 -0.2569 -3.8844 -0.7911
   12SOL    HW2   36   2.733   2.324   1.486 -0.3571  2.6926 -2.0505
   13SOL     OW   37   0.680   2.918   0.020  0.4267 -0.2070  0.2826
   13SOL    HW1   38   0.689   3.023   0.017  1.8690  4.9806 -1.1083
   13SOL    HW2   39   0.603   2.897   0.083  1.3935  0.0155 -0.1166
   14SOL     OW   40   1.496   1.687   1.370  0.2884  0.2307  0.5273
   14SOL    HW1   41   1.454   1.670   1.457  0.7724  1.6687 -2.0407
   14SOL    HW2   42   1.596   1.689   1.371 -3.4862  0.9358  1.7933
   15SOL     OW   43   0.387   1.830   2.533 -0.2281 -0.2411  0.1664
   15SOL    HW1   44   0.471   1.881   2.566 -2.4923 -0.4020  2.0654
   15SOL    HW2   45   0.310   1.893   2.530  3.4818 -2.8861 -0.1670
   16SOL     OW   46   1.736   0.466   2.814  0.4908  0.3129 -0.4434
   16SOL    HW1   47   1.738   0.468   2.711  0.1256  0.1580 -3.5596
   16SOL    HW2   48   1.731   0.562   2.854  0.2515  1.3309 -0.1622
   17SOL     OW   49   2.928   2.699   2.441  0.0008 -0.2275 -0.1352
   17SOL    HW1   50   2.947   2.625   2.511 -0.8724  1.3828 -0.9147
   17SOL    HW2   51   2.980   2.683   2.353 -0.3267 -0.1719 -0.1341
   18SOL     OW   52   1.169   1.224   0.722  0.1905  0.3004  0.5058
   18SOL    HW1   53   1.113   1.302   0.676 -0.4099  1.5398 -2.2452
   18SOL    HW2   54   1.134   1.205   0.816  0.1878  1.9300  1.3815
   19SOL     OW   55   2.797   1.945   2.425  0.2330 -0.0813 -0.2173
   19SOL    HW1   56   2.867   1.869   2.417 -0.0099  0.6267 -1.7477
   19SOL    HW2   57   2.829   2.019   2.491  0.9531 -0.9293  1.6013
   20SOL     OW   58   2.362   2.445   2.697 -0.4755  0.0021  0.1434
   20SOL    HW1   59   2.391   2.465   2.601  2.1223  0.4627 -0.8350
   20SOL    HW2   60   2.278   2.390   2.697  1.6842 -1.1518  0.0643
   21SOL     OW   61   1.520   1.770   0.310  0.3621  0.6126 -0.0369
   21SOL    HW1   62   1.534   1.677   0.346 -0.5295  1.7059 -0.7925
   21SOL    HW2   63   1.564   1.838   0.378  2.0869  3.8448  0.6749
   22SOL     OW   64   2.297   2.073   1.334 -0.1575  0.2724  0.1191
   22SOL    HW1   65   2.356   2.000   1.370 -0.5827  2.0354 -0.1375
   22SOL    HW2   66   2.348   2.162   1.337 -0.6944  0.6529 -0.7533
   23SOL     OW   67   0.059   1.199   1.162  0.1058  0.3229  0.2911
   23SOL    HW1   68   3.090   1.257   1.185  4.1343 -2.1085 -0.0074
   23SOL    HW2   69   0.028   1.107   1.126 -1.2390 -0.6481  2.3126
   24SOL     OW   70   2.316   1.399   2.098 -0.1184  0.0840  0.2066
   24SOL    HW1   71   2.416   1.380   2.115  1.3713 -0.1832 -0.4085
   24SOL    HW2   72   2.272   1.316   2.062 -0.3996  0.5041  0.5486
   25SOL     OW   73   2.046   0.168   2.562  0.2229 -0.5598 -0.3400
   25SOL    HW1   74   2.130   0.142   2.611 -0.6273  1.5722  1.0778
   25SOL    HW2   75   2.036   0.103   2.486  1.0977  1.0636  0.1956
   26SOL     OW   76   1.143   0.029   0.350 -0.2710  0.2051 -0.1619
   26SOL    HW1   77   1.089   0.098   0.299 -2.7663 -0.7013 -0.6792
   26SOL    HW2   78   1.102   0.022   0.444  2.4314 -1.2134  0.0006
   27SOL     OW   79   0.725   1.707   0.840  0.0456 -0.1202  0.1990
   27SOL    HW1   80   0.697   1.705   0.744 -2.1846  0.2803  1.5976
   27SOL    HW2   81   0.825   1.685   0.850  3.2627  1.0094  2.1727
   28SOL     OW   82   2.417   2.296   0.965 -0.1080  0.4241  0.6061
   28SOL    HW1   83   2.388   2.207   1.004  0.5481  1.0597 -1.4963
   28SOL    HW2   84   2.390   2.376   1.022 -0.3338 -2.3576  0.2476
   29SOL     OW   85   2.105   3.021   1.717 -0.1538 -0.0069  0.0054
   29SOL    HW1   86   2.024   3.044   1.781 -2.0911  0.4114  1.4199
   29SOL    HW2   87   2.196   2.991   1.771  2.2882 -1.1675  1.6021
   30SOL     OW   88   0.685   2.942   1.220 -0.3102  0.0373  0.2729
   30SOL    HW1   89   0.598   2.992   1.196 -0.4146  1.4403  0.0690
   30SOL    HW2   90   0.755   3.001   1.265  3.3302 -1.0714 -1.2287
   31SOL     OW   91   3.080   1.971   2.113 -0.1061  0.2302  0.4190
   31SOL    HW1   92   0.026   2.010   2.037  1.8918  1.9749  0.0877
   31SOL    HW2   93   3.104   1.870   2.125 -0.3741 -0.8093  0.9260
   32SOL     OW   94   1.425   1.560   2.236 -0.0417 -0.4518 -0.0430
   32SOL    HW1   95   1.394   1.624   2.167  1.7311  0.7873  0.4597
   32SOL    HW2   96   1.527   1.559   2.225 -1.9325  0.7201  0.0440
   33SOL     OW   97   0.280   3.047   3.053  0.5325  0.0908  0.4854
   33SOL    HW1   98   0.363   3.090   3.009  0.6970  0.1007 -1.1935
   33SOL    HW2   99   0.288   2.943   3.040  0.5470 -4.1886  0.1269
   34SOL     OW  100   2.589   3.109   0.668 -0.7415 -0.3165 -0.4835
   34SOL    HW1  101   2.512   0.031   0.727  0.4929  0.0082  2.2577
   34SOL    HW2  102   2.610   3.012   0.693 -0.3043 -2.1172 -3.5864
   35SOL     OW  103   2.849   0.259   1.524 -0.0512 -0.0081 -0.4069
   35SOL    HW1  104   2.864   0.335   1.587  0.4709 -1.5324  0.1048
   35SOL    HW2  105   2.757   0.225   1.541  4.3494  2.6229  2.2148
   36SOL     OW  106   2.812   3.101   2.271 -0.0437 -0.2639 -0.6191
   36SOL    HW1  107   2.715   3.106   2.241 -2.3729 -1.5192  0.1762
   36SOL    HW2  108   2.855   3.026   2.217  0.4454  0.7179  1.5975
   37SOL     OW  109   1.576   2.727   0.127 -0.2533 -0.4908  0.1584
   37SOL    HW1  110   1.570   2.818   0.166  0.2483 -0.4247 -1.2635
   37SOL    HW2  111   1.524   2.725   0.037 -1.1719  2.4543 -2.3322
   38SOL     OW  112   0.078   0.887   2.926  0.0610  0.5300  0.2656
   38SOL    HW1  113   3.093   0.885   2.942  2.9102  1.4772  1.4161
   38SOL    HW2  114   0.120   0.808   2.868  2.1320 -1.7156 -0.9056
   39SOL     OW  115   1.678   1.763   1.963 -0.0018 -0.3933  0.0585
   39SOL    HW1  116   1.593   1.816   1.990 -1.9131  0.5752 -0.2765
   39SOL    HW2  117   1.685   1.689   2.032 -0.5518  1.1430 -0.4835
   40SOL     OW  118   0.244   0.438   2.564 -0.6417  0.1116 -0.3260
   40SOL    HW1  119   0.192   0.395   2.643 -1.9077 -0.1080  1.4919
   40SOL    HW2  120   0.338   0.399   2.550  1.5031  0.3420 -1.9500
   41SOL     OW  121   1.813   1.219   1.766 -0.1177 -0.2967  0.8505
   41SOL    HW1  122   1.743   1.219   1.842 -2.4156  0.3650 -2.6796
   41SOL    HW2  123   1.768   1.242   1.678  0.0441 -1.2474 -0.2247
   42SOL     OW  124   3.103   0.176   1.526  0.3845  0.5308 -0.1942
   42SOL    HW1  125   3.008   0.210   1.530  0.1157  0.6489  0.3777
   42SOL    HW2  126   0.048   0.254   1.491 -0.3986  3.6855  1.0836
   43SOL     OW  127   1.529   1.187   1.569  1.0380 -0.0290 -0.6596
   43SOL    HW1  128   1.431   1.202   1.554  2.3457  0.6355  0.5526
   43SOL    HW2  129   1.538   1.092   1.607  0.3296  2.2574 -0.6701
   44SOL     OW  130   2.951   0.356   2.875 -0.2332  0.6384  0.0281
   44SOL    HW1  131   2.990   0.335   2.973  2.1735 -1.1849  1.5662
   44SOL    HW2  132   2.894   0.274   2.841 -0.2296 -1.1990 -1.3165
   45SOL     OW  133   0.301   2.078   1.157  0.6252 -0.7189  0.0832
   45SOL    HW1  134   0.298   2.174   1.117  0.2737  3.2089 -0.2155
   45SOL    HW2  135   0.238   2.018   1.109 -0.4859  0.8833 -2.9915
   46SOL     OW  136   2.342   2.943   1.869 -0.1096 -0.0024  0.6879
   46SOL    HW1  137   2.360   3.022   1.931  0.6561 -1.1591 -0.8464
   46SOL    HW2  138   2.424   2.889   1.827 -1.2129 -2.1798 -2.9685
   47SOL     OW  139   0.341   1.696   1.000  0.0682 -0.0540 -0.2399
   47SOL    HW1  140   0.417   1.642   1.029  0.1539 -0.7512 -0.8250
   47SOL    HW2  141   0.348   1.724   0.897 -3.6141 -0.0474 -1.0638
   48SOL     OW  142   0.542   2.953   0.268  0.3992 -0.2191 -0.1061
   48SOL    HW1  143   0.472   3.013   0.230  3.1680  1.3938 -0.0172
   48SOL    HW2  144   0.507   2.856   0.294  0.3775 -1.8976  0.7865
   49SOL     OW  145   2.882   1.784   1.793  0.2419 -0.5205 -0.0210
   49SOL    HW1  146   2.857   1.728   1.876 -0.5531  2.0021  0.3646
   49SOL    HW2  147   2.980   1.762   1.774 -1.2598 -0.3576  0.2570
   50SOL     OW  148   1.418   3.090   0.638 -0.4095 -0.3698 -0.0269
   50SOL    HW1  149   1.408   0.001   0.534  1.8482 -1.0402 -2.7606
   50SOL    HW2  150   1.351   0.022   0.700 -1.2336  1.5249  1.3449
   51SOL     OW  151   1.055   0.384   1.288  0.3245  0.0779  0.0177
   51SOL    HW1  152   1.131   0.393   1.221  0.1031 -0.1761  3.1271
   51SOL    HW2  153   1.058   0.446   1.366 -1.8624  0.8459  0.8227
   52SOL     OW  154   0.600   1.247   0.427  0.0387  0.4806  0.5029
   52SOL    HW1  155   0.528   1.249   0.357  0.4297  1.6944  2.1744
   52SOL    HW2  156   0.567   1.200   0.514  0.7434 -0.1155  2.8990
   53SOL     OW  157   1.503   3.053   2.468 -0.4845 -0.2849  0.0998
   53SOL    HW1  158   1.564   3.079   2.543 -0.3116 -0.1028 -0.7847
   53SOL    HW2  159   1.420   2.998   2.497 -1.4670 -2.0778  1.0838
   54SOL     OW  160   1.780   0.571   1.656 -0.4112  0.0516 -0.2929
   54SOL    HW1  161   1.769   0.583   1.552 -1.8291 -0.5323 -0.6576
   54SOL    HW2  162   1.875   0.552   1.688 -1.5970 -1.9633 -1.9096
   55SOL     OW  163   2.875   2.570   0.435  0.5916  0.1906 -0.1585
   55SOL    HW1  164   2.877   2.657   0.489 -0.2813  1.1111 -0.9367
   55SOL    HW2  165   2.915   2.494   0.489 -4.4093 -1.1847 -0.5683
   56SOL     OW  166   0.914   2.826   1.688 -0.0444 -0.4657 -0.1776
   56SOL    HW1  167   0.863   2.872   1.764 -0.1273  0.4269  1.9998
   56SOL    HW2  168   1.002   2.869   1.663 -2.7568 -1.1727  0.3683
   57SOL     OW  169   1.694   0.774   2.453  0.7260  0.7034 -0.3197
   57SOL    HW1  170   1.782   0.731   2.468 -0.4712 -0.7025 -0.9271
   57SOL    HW2  171   1.661   0.773   2.359 -2.1357  0.5688  2.4715
   58SOL     OW  172   0.468   1.291   2.132  0.1520 -0.4000 -0.7708
   58SOL    HW1  173   0.506   1.361   2.067 -0.9154 -1.2230 -2.2370
   58SOL    HW2  174   0.436   1.213   2.077  0.9622 -0.3662 -0.9982
   59SOL     OW  175   0.668   2.396   1.902  0.0364  0.3181  0.3633
   59SOL    HW1  176   0.675   2.377   1.997  0.7854  0.8547 -2.3684
   59SOL    HW2  177   0.758   2.429   1.863 -1.6952  1.7641 -1.8306
   60SOL     OW  178   2.327   2.401   0.258  0.5045  0.5162 -0.6368
   60SOL    HW1  179   2.393   2.333   0.228 -2.7594 -0.2631  2.3714
   60SOL    HW2  180   2.363   2.492   0.240 -0.0981 -0.7003 -1.4532
   61SOL     OW  181   1.127   2.824   0.610 -0.1216 -0.2879  0.2680
   61SOL    HW1  182   1.227   2.807   0.606 -1.5871  1.5712  1.3701
   61SOL    HW2  183   1.074   2.762   0.554  0.2638  2.4119  2.3359
   62SOL     OW  184   1.821   2.389   2.904  0.8744  0.1166 -0.4513
   62SOL    HW1  185   1.731   2.360   2.858 -1.6255 -0.3981 -2.0406
   62SOL    HW2  186   1.815   2.351   2.998 -1.5207  1.3858 -0.3451
   63SOL     OW  187   2.223   0.704   2.989  0.2616  0.0742 -0.5420
   63SOL    HW1  188   2.174   0.789   3.014 -1.3250  0.1086  0.4077
   63SOL    HW2  189   2.319   0.713   3.020  1.9945 -0.6696 -1.2388
   64SOL     OW  190   1.339   1.363   0.123 -0.3119 -0.2373 -0.3489
   64SOL    HW1  191   1.247   1.379   0.084  1.7285  0.4978  0.2474
   64SOL    HW2  192   1.343   1.419   0.214 -0.0334  3.0144  0.5601
   65SOL     OW  193   0.855   3.054   1.444 -0.2565 -0.0559 -0.3391
   65SOL    HW1  194   0.929   3.019   1.506  1.2133  2.7692 -0.0636
   65SOL    HW2  195   0.884   0.030   1.406 -2.6687 -0.0251  1.5080
   66SOL     OW  196   0.822   1.316   1.494 -0.0695  0.7820 -0.1262
   66SOL    HW1  197   0.819   1.239   1.564 -0.9294 -2.1934  0.5620
   66SOL    HW2  198   0.856   1.287   1.400 -1.2111 -0.9205 -2.1010
   67SOL     OW  199   2.206   2.470   1.898 -0.3178 -0.1129  0.2356
   67SOL    HW1  200   2.209   2.569   1.910 -0.6880 -4.3106 -1.2088
   67SOL    HW2  201   2.298   2.435   1.897 -2.4375  2.4364 -4.4405
   68SOL     OW  202   1.053   1.128   1.773  0.0694 -0.5362  0.1945
   68SOL    HW1  203   1.010   1.187   1.847 -1.4232  1.1310  1.4874
   68SOL    HW2  204   0.988   1.056   1.735 -1.4196  1.9382  2.1317
   69SOL     OW  205   2.621   2.605   0.095 -0.1712 -0.2824  0.0780
   69SOL    HW1  206   2.641   2.566   0.189 -0.0907  2.2269 -1.5927
   69SOL    HW2  207   2.526   2.648   0.092  0.1008 -1.3083 -1.4716
   70SOL     OW  208   2.460   0.771   2.633 -0.1464  0.1294 -0.1657
   70SOL    HW1  209   2.498   0.765   2.728 -1.7942 -1.5187 -0.3767
   70SOL    HW2  210   2.519   0.837   2.583  1.5587 -0.2093 -1.4242
   71SOL     OW  211   3.050   1.936   0.614  0.2203  0.0052  0.2794
   71SOL    HW1  212   3.007   1.909   0.527  1.6534 -0.8727 -0.5563
   71SOL    HW2  213   3.009   2.027   0.650 -1.8397  3.1985  0.5218
   72SOL     OW  214   2.950   1.875   0.379  0.0393 -0.7626  0.2542
   72SOL    HW1  215   2.934   1.775   0.378 -2.6068 -0.6296  0.2322
   72SOL    HW2  216   2.897   1.919   0.307  1.8477  0.2147  0.8547
   73SOL     OW  217   0.697   0.579   0.773  0.0013 -0.2382 -0.1340
   73SOL    HW1  218   0.723   0.515   0.847  0.0238  0.7042 -1.3997
   73SOL    HW2  219   0.741   0.668   0.792 -1.1466 -0.9015  1.0039
   74SOL     OW  220   2.608   2.341   2.084  0.2672 -0.5605  0.0457
   74SOL    HW1  221   2.592   2.247   2.047 -0.8877  0.3838  0.8910
   74SOL    HW2  222   2.700   2.354   2.122 -2.9858 -1.2190 -0.0551
   75SOL     OW  223   1.789   1.639   1.752  0.0148  0.2777 -0.0540
   75SOL    HW1  224   1.731   1.698   1.818 -1.9926  0.0257  2.9648
   75SOL    HW2  225   1.735   1.576   1.692  2.1606 -0.9156 -0.6960
   76SOL     OW  226   1.154   1.927   1.271  0.2789  0.0690 -0.0011
   76SOL    HW1  227   1.175   1.837   1.234  2.1256 -1.9943  1.9378
   76SOL    HW2  228   1.106   1.917   1.362  0.3872 -0.3922 -1.5060
   77SOL     OW  229   2.805   1.663   2.012 -0.0491 -0.5340 -0.6830
   77SOL    HW1  230   2.882   1.613   2.060  1.8612  0.3852  0.6088
   77SOL    HW2  231   2.774   1.744   2.068 -2.1695 -0.1199  1.3031
   78SOL     OW  232   1.672   0.622   0.492 -0.1986 -0.1123  0.0819
   78SOL    HW1  233   1.659   0.581   0.585  0.6642 -0.7573  1.2630
   78SOL    HW2  234   1.610   0.702   0.471  2.3065  0.2471  1.5555
   79SOL     OW  235   2.050   1.301   1.821 -0.2757 -0.1453 -0.1365
   79SOL    HW1  236   2.092   1.234   1.884 -3.2689 -1.0012  1.0484
   79SOL    HW2  237   1.948   1.279   1.808 -1.9073 -1.2079  0.2209
   80SOL     OW  238   1.084   0.539   1.602  0.1664 -0.4480 -0.7453
   80SOL    HW1  239   1.166   0.566   1.551  0.5684  1.1950  2.0087
   80SOL    HW2  240   1.054   0.608   1.671  2.0622  1.3663  2.1394
   81SOL     OW  241   0.956   2.595   0.761  0.4653 -0.0199  0.3455
   81SOL    HW1  242   0.951   2.620   0.859 -0.4451 -2.6640 -1.5339
   81SOL    HW2  243   0.968   2.498   0.745 -2.3516  1.1638  1.8759
   82SOL     OW  244   1.327   0.351   1.862  0.6445  0.0334 -0.1686
   82SOL    HW1  245   1.405   0.382   1.805 -1.1244 -1.9312 -0.0832
   82SOL    HW2  246   1.354   0.287   1.933 -0.7299  1.4294 -1.0532
   83SOL     OW  247   0.389   2.116   0.731  0.4985 -0.4439 -0.3174
   83SOL    HW1  248   0.311   2.051   0.735 -0.9602 -0.9172 -0.8250
   83SOL    HW2  249   0.393   2.183   0.808 -1.8304 -0.6833 -1.1866
   84SOL     OW  250   2.673   1.521   3.009 -0.3791  0.1355  0.5289
   84SOL    HW1  251   2.674   1.468   2.923 -0.9778 -0.0693 -1.7375
   84SOL    HW2  252   2.747   1.591   3.002  1.2417  2.8656 -0.2671
   85SOL     OW  253   2.523   2.468   1.824  0.0531  0.1389 -0.4850
   85SOL    HW1  254   2.476   2.391   1.778  0.2158  0.7756 -0.8345
   85SOL    HW2  255   2.548   2.441   1.920  0.5056  0.5767  0.0421
   86SOL     OW  256   1.605   2.735   1.216  0.7603 -0.0896  0.1452
   86SOL    HW1  257   1.695   2.702   1.249  1.8169  0.8945 -1.7333
   86SOL    HW2  258   1.612   2.757   1.115 -1.3498 -0.1073  1.2695
   87SOL     OW  259   2.685   1.675   0.377  0.2393  0.6018  0.5408
   87SOL    HW1  260   2.603   1.735   0.392  2.4342 -0.5556  1.6361
   87SOL    HW2  261   2.677   1.632   0.288 -0.2516  1.5885  0.8368
   88SOL     OW  262   0.793   0.450   1.001  0.0069 -0.3475  0.7490
   88SOL    HW1  263   0.717   0.498   1.050  0.0607  3.3775  2.2988
   88SOL    HW2  264   0.784   0.349   1.016  0.7358  2.8598  0.9865
   89SOL     OW  265   0.754   2.961   1.880 -0.0042  0.1775 -0.3888
   89SOL    HW1  266   0.786   3.036   1.944 -0.8311 -1.3912  0.9444
   89SOL    HW2  267   0.670   2.922   1.910  0.6068  1.2621 -2.4120
   90SOL     OW  268   2.985   1.815   1.005 -0.1034 -0.2796  0.7684
   90SOL    HW1  269   2.989   1.807   0.906 -0.2577 -0.4165 -1.1022
   90SOL    HW2  270   3.078   1.850   1.031  2.6589  0.2488  3.1883
   91SOL     OW  271   1.273   1.694   1.210 -0.5226  0.2006 -0.1253
   91SOL    HW1  272   1.358   1.697   1.273 -1.4821 -2.1102  1.1029
   91SOL    HW2  273   1.254   1.594   1.190 -2.1075  0.5767  1.5948
   92SOL     OW  274   2.674   0.092   1.678  0.1667 -0.0447 -0.2303
   92SOL    HW1  275   2.595   0.117   1.739  1.0767 -0.4729 -0.8180
   92SOL    HW2  276   2.766   0.086   1.725  0.0228 -1.8605 -2.4567
   93SOL     OW  277   0.371   1.074   2.686 -0.3003  0.4666 -0.5750
   93SOL    HW1  278   0.433   1.070   2.767  2.2201 -3.1097 -3.2522
   93SOL    HW2  279   0.393   1.153   2.627 -0.1010 -1.1839  0.5596
   94SOL     OW  280   2.392   0.045   2.013 -0.3368 -0.2524 -0.8532
   94SOL    HW1  281   2.310   0.099   2.038 -0.6529 -0.0841 -1.1958
   94SOL    HW2  282   2.437   0.089   1.936 -1.2336 -0.3910 -0.5174
   95SOL     OW  283   1.660   0.646   2.071 -0.3095 -0.0912  0.2355
   95SOL    HW1  284   1.571   0.610   2.098  0.2645  0.9277  2.0200
   95SOL    HW2  285   1.654   0.674   1.974  1.5867 -1.6728  0.0849
   96SOL     OW  286   2.960   0.727   1.771 -0.1788  0.0405  0.5637
   96SOL    HW1  287   3.061   0.738   1.806  1.0806  1.1225  0.9962
   96SOL    HW2  288   2.902   0.798   1.811 -0.1465 -1.1498 -1.3145
   97SOL     OW  289   2.184   2.993   1.471 -0.2943  0.2092  0.0859
   97SOL    HW1  290   2.280   2.959   1.496  2.7024 -2.7061  0.2831
   97SOL    HW2  291   2.134   3.009   1.556  0.6473 -0.1266 -0.6584
   98SOL     OW  292   1.949   2.617   1.693  0.1326  0.1082  0.1652
   98SOL    HW1  293   1.988   2.535   1.640 -1.5959  0.3073 -1.4961
   98SOL    HW2  294   1.983   2.635   1.789  0.0107 -2.1265 -0.9043
   99SOL     OW  295   2.529   0.672   1.668  0.1775 -0.7385 -0.0547
   99SOL    HW1  296   2.486   0.588   1.634  0.7595 -0.1620  0.7502
   99SOL    HW2  297   2.493   0.692   1.764 -3.0265 -2.7970  2.1245
  100SOL     OW  298   2.459   1.655   1.915 -0.0716  0.7879 -0.0869
  100SOL    HW1  299   2.425   1.749   1.946 -1.4289  0.1812 -1.7852
  100SOL    HW2  300   2.439   1.574   1.976  0.6924 -1.3766  1.0370
  101SOL     OW  301   2.167   0.101   0.087  0.8899 -0.0811  0.3573
  101SOL    HW1  302   2.243   0.041   0.110 -2.3107  0.7589  2.0569
  101SOL    HW2  303   2.197   0.197   0.094 -0.1375 -0.4773 -1.8933
  102SOL     OW  304   0.612   0.743   1.368  0.0608  0.2023 -0.1946
  102SOL    HW1  305   0.638   0.658   1.414 -1.0579 -1.4128  3.0021
  102SOL    HW2  306   0.582   0.724   1.273 -0.3297  0.9830  1.3052
  103SOL     OW  307   3.005   0.181   2.319 -0.3594  0.1461  0.1267
  103SOL    HW1  308   2.920   0.130   2.297  2.0519 -0.1806  0.7875
  103SOL    HW2  309   3.080   0.113   2.342  0.6235 -1.5781 -0.8085
  104SOL     OW  310   0.217   2.935   1.540 -0.4678  0.0131 -0.6660
  104SOL    HW1  311   0.242   3.009   1.473  0.7375  1.6084 -1.0776
  104SOL    HW2  312   0.299   2.890   1.583 -1.2252  3.1874  1.0480
  105SOL     OW  313   1.435   1.166   2.054  0.0005 -0.5352 -0.2373
  105SOL    HW1  314   1.388   1.255   2.038  0.3368 -0.7735 -0.2831
  105SOL    HW2  315   1.400   1.094   1.990  0.7974 -1.5370 -1.9535
  106SOL     OW  316   1.953   0.529   0.683 -0.0562 -0.3362  0.2458
  106SOL    HW1  317   1.974   0.568   0.773 -0.0981  0.2220  0.7758
  106SOL    HW2  318   1.943   0.603   0.607 -2.3609  1.3627 -0.5640
  107SOL     OW  319   0.535   0.958   1.484 -0.4374  0.0697 -0.0015
  107SOL    HW1  320   0.485   0.916   1.563  0.2619  0.2981  0.8829
  107SOL    HW2  321   0.571   0.885   1.424 -0.4215 -1.7364 -0.5573
  108SOL     OW  322   0.000   0.654   2.350 -0.2482  0.4863  0.5004
  108SOL    HW1  323   3.050   0.667   2.269 -0.0388  1.5476  2.1280
  108SOL    HW2  324   3.089   0.563   2.391 -0.0402  1.3766  1.0387
  109SOL     OW  325   1.854   3.071   2.811  0.1986 -0.5257  0.3640
  109SOL    HW1  326   1.934   0.019   2.837 -0.4776 -0.0331  1.4359
  109SOL    HW2  327   1.891   2.977   2.805  1.0151  0.3345  1.2218
  110SOL     OW  328   0.079   1.908   2.823 -0.3131  0.1956  0.1154
  110SOL    HW1  329   0.027   1.836   2.877 -2.9185  1.9792 -0.5091
  110SOL    HW2  330   0.165   1.932   2.875  3.3552  2.0426  1.2847
  111SOL     OW  331   2.807   0.584   2.458  0.0323  0.1648 -0.0027
  111SOL    HW1  332   2.720   0.542   2.487 -2.8041 -0.1174  0.6490
  111SOL    HW2  333   2.884   0.516   2.461  2.4450  0.9344  1.9831
  112SOL     OW  334   2.843   2.774   1.127  0.1942 -0.2691 -0.0552
  112SOL    HW1  335   2.754   2.725   1.115 -1.1285 -1.4151 -0.8356
  112SOL    HW2  336   2.910   2.702   1.155  0.0284  1.1308 -0.8296
  113SOL     OW  337   2.262   2.183   2.226  0.1622  0.1187  0.2977
  113SOL    HW1  338   2.303   2.274   2.255  1.1922  2.0272 -0.3205
  113SOL    HW2  339   2.162   2.180   2.215 -0.0787  2.1516  0.4642
  114SOL     OW  340   2.918   0.286   0.242  0.2972 -0.1967 -0.0610
  114SOL    HW1  341   2.885   0.191   0.257 -0.5688  1.3927  0.3030
  114SOL    HW2  342   2.900   0.341   0.323 -0.6414  0.7268 -2.7887
  115SOL     OW  343   2.831   1.751   3.013  0.6287 -0.4353  0.3098
  115SOL    HW1  344   2.918   1.760   3.065 -0.8254 -0.1689 -1.4987
  115SOL    HW2  345   2.846   1.793   2.919 -1.5228  1.4323 -0.8186
  116SOL     OW  346   3.042   1.443   1.893 -0.3060 -0.0857  0.0428
  116SOL    HW1  347   3.087   1.449   1.800  3.8123 -0.6142  1.3195
  116SOL    HW2  348   3.050   1.352   1.934  0.6027  0.6776 -0.0342
  117SOL     OW  349   2.142   0.112   1.004  0.3254 -0.1439  0.0728
  117SOL    HW1  350   2.065   0.045   1.009 -1.0954  0.1751 -1.8275
  117SOL    HW2  351   2.189   0.123   1.093 -0.0775  1.8554 -1.6927
  118SOL     OW  352   2.999   2.552   2.001 -0.4720  0.4384 -0.0590
  118SOL    HW1  353   2.988   2.587   1.907 -0.1062 -2.4618  0.4849
  118SOL    HW2  354   3.100   2.553   2.025  1.2611 -1.6545 -0.3878
  119SOL     OW  355   0.805   1.743   1.356 -0.1334  0.3140  0.1586
  119SOL    HW1  356   0.794   1.837   1.323  0.1559 -0.0998  0.7566
  119SOL    HW2  357   0.713   1.696   1.356 -2.0933  1.0913 -0.6066
  120SOL     OW  358   0.340   1.634   1.342  0.5456 -0.0632 -0.1303
  120SOL    HW1  359   0.280   1.550   1.354 -1.8730 -0.8253 -2.0957
  120SOL    HW2  360   0.298   1.693   1.269  1.8829  0.0818 -3.1151
  121SOL     OW  361   1.849   1.293   0.815  0.0928 -0.1891 -0.0695
  121SOL    HW1  362   1.794   1.377   0.843  1.8221  0.6618 -0.7756
  121SOL    HW2  363   1.832   1.269   0.719  0.3005  1.9321 -0.8663
  122SOL     OW  364   1.873   1.941   2.580 -0.2781 -0.5146  0.3484
  122SOL    HW1  365   1.831   1.909   2.490 -0.6613 -0.8406  3.0985
  122SOL    HW2  366   1.967   1.987   2.563  1.4106  1.3772  1.2679
  123SOL     OW  367   2.872   3.080   0.234  0.2393 -0.4025 -0.4595
  123SOL    HW1  368   2.968   3.051   0.240  0.0170 -1.8752  1.1940
  123SOL    HW2  369   2.842   3.105   0.328 -0.0213  1.2115  1.2283
  124SOL     OW  370   0.865   1.227   0.462 -0.0473  0.2037 -0.3326
  124SOL    HW1  371   0.771   1.257   0.453  1.7896 -1.1002  1.1106
  124SOL    HW2  372   0.928   1.294   0.508  3.3012  0.9366  1.0916
  125SOL     OW  373   0.321   1.413   2.309 -0.4203  0.0456  0.3445
  125SOL    HW1  374   0.343   1.514   2.304  1.5822  1.3563  0.8226
  125SOL    HW2  375   0.384   1.359   2.247  0.0868  0.5091  0.3339
  126SOL     OW  376   0.057   2.462   0.185  0.1560 -0.0927 -0.6094
  126SOL    HW1  377   0.082   2.416   0.273 -0.2582  2.0585  0.6246
  126SOL    HW2  378   3.096   2.530   0.197  0.2833  0.1407 -2.0383
  127SOL     OW  379   2.789   1.670   0.609 -0.0875 -0.1365 -0.5842
  127SOL    HW1  380   2.741   1.670   0.516 -2.5646  0.0882 -2.2880
  127SOL    HW2  381   2.750   1.590   0.666 -2.0403 -3.2294  3.2366
  128SOL     OW  382   1.184   0.961   0.629  0.0504  0.2150 -0.1369
  128SOL    HW1  383   1.194   1.057   0.660 -0.6377 -0.3221 -1.4586
  128SOL    HW2  384   1.257   0.897   0.662 -2.5409 -0.1045 -0.9931
  129SOL     OW  385   2.306   2.044   1.052 -0.1715 -0.0431  0.3170
  129SOL    HW1  386   2.233   1.998   1.001  0.0337 -1.8821 -2.1594
  129SOL    HW2  387   2.278   2.044   1.149 -2.5884 -0.8589  3.2764
  130SOL     OW  388   2.266   1.003   0.888  0.2868  0.0421  0.9461
  130SOL    HW1  389   2.340   1.023   0.947 -4.0536 -2.8416 -1.3687
  130SOL    HW2  390   2.198   1.077   0.883  1.9598 -0.6646  1.4935
  131SOL     OW  391   3.002   1.061   2.622  0.0349  0.1409  0.0121
  131SOL    HW1  392   2.974   0.964   2.613  0.8721 -1.0818 -0.8403
  131SOL    HW2  393   3.101   1.069   2.590  3.1939  2.3577 -2.5624
  132SOL     OW  394   1.689   1.190   1.983  0.2456  0.1455 -0.4517
  132SOL    HW1  395   1.758   1.151   2.046 -3.1715  0.8727 -2.2932
  132SOL    HW2  396   1.595   1.184   2.019  3.3963  0.1883  1.2320
  133SOL     OW  397   3.056   0.989   0.309  0.0604  0.0954 -0.8907
  133SOL    HW1  398   3.073   0.889   0.309 -1.2847 -2.6532 -1.0267
  133SOL    HW2  399   3.089   1.033   0.394 -0.1289  1.1218 -0.6590
  134SOL     OW  400   2.728   0.954   0.357  0.2203  0.3108 -0.3449
  134SOL    HW1  401   2.798   0.930   0.290  0.8224  0.7445 -0.5782
  134SOL    HW2  402   2.678   1.035   0.326  0.4434 -1.2122  1.3975
  135SOL     OW  403   1.678   0.760   0.025 -0.2101 -0.0321  0.4331
  135SOL    HW1  404   1.707   0.753   3.037 -0.6834 -1.5581  0.5140
  135SOL    HW2  405   1.653   0.668   0.064 -0.4809 -3.1125 -2.1753
  136SOL     OW  406   1.812   1.933   1.641 -0.4150  0.2762 -0.2270
  136SOL    HW1  407   1.779   1.837   1.628  1.0305 -2.0299 -1.1263
  136SOL    HW2  408   1.809   1.986   1.552 -1.5696 -1.1055 -2.7504
  137SOL     OW  409   2.479   2.312   0.516  0.0737  0.2960 -0.2113
  137SOL    HW1  410   2.511   2.319   0.617 -0.1479 -0.9493  1.3656
  137SOL    HW2  411   2.383   2.314   0.503  0.4697 -0.6254 -3.1174
  138SOL     OW  412   2.378   0.470   1.543 -0.1295 -0.2903  0.0724
  138SOL    HW1  413   2.326   0.436   1.625 -2.5280 -0.9778  2.8288
  138SOL    HW2  414   2.412   0.391   1.490  1.2196  0.4280 -1.1336
  139SOL     OW  415   2.580   0.235   2.472 -0.4394  0.1199  0.3069
  139SOL    HW1  416   2.572   0.334   2.500  1.1676  0.2476  0.2769
  139SOL    HW2  417   2.658   0.187   2.514 -1.2756 -1.0746  0.7401
  140SOL     OW  418   1.060   1.809   2.166  0.0325  0.3675  0.9385
  140SOL    HW1  419   1.087   1.883   2.227 -1.0737 -2.1910  0.3550
  140SOL    HW2  420   1.147   1.762   2.140 -0.6079  1.1956 -0.7811
  141SOL     OW  421   0.942   0.632   2.456  0.8036 -0.0672 -0.1918
  141SOL    HW1  422   1.016   0.696   2.460 -5.4425 -0.2081  1.5414
  141SOL    HW2  423   0.865   0.680   2.410 -1.3537  0.0211  0.6088
  142SOL     OW  424   2.772   2.792   2.746  0.0931 -0.4159  0.0032
  142SOL    HW1  425   2.691   2.810   2.805  1.7973  0.2762 -1.8536
  142SOL    HW2  426   2.777   2.695   2.726  0.0525  1.1505  0.5220
  143SOL     OW  427   0.954   2.055   0.507  0.0423  0.0171  0.1699
  143SOL    HW1  428   1.049   2.082   0.488  1.4155  2.5533  0.2201
  143SOL    HW2  429   0.907   2.098   0.588 -0.8131  1.1353 -2.0214
  144SOL     OW  430   1.323   2.690   3.078 -0.6199 -0.3105 -1.0436
  144SOL    HW1  431   1.275   2.773   3.044  0.0955 -0.0576 -0.3319
  144SOL    HW2  432   1.316   2.687   0.068  0.5152 -0.6299  4.5126
  145SOL     OW  433   1.603   2.069   2.619 -0.2656 -0.4872 -0.2535
  145SOL    HW1  434   1.692   2.021   2.648  4.6640 -1.8238  2.5769
  145SOL    HW2  435   1.569   2.028   2.530 -1.9809 -2.3712 -3.7096
  146SOL     OW  436   2.303   3.041   2.828  0.1031 -0.1282  0.6170
  146SOL    HW1  437   2.363   3.024   2.911 -1.3031  0.6314  0.7185
  146SOL    HW2  438   2.296   2.960   2.769 -1.0463  0.9415 -0.0761
  147SOL     OW  439   2.730   1.231   1.152 -0.8074  0.3154  0.1170
  147SOL    HW1  440   2.816   1.284   1.167 -1.6298  1.3671  0.4994
  147SOL    HW2  441   2.645   1.290   1.156 -0.3940  0.1426 -0.2974
  148SOL     OW  442   2.143   2.863   0.141  0.4911  0.4680 -0.2762
  148SOL    HW1  443   2.096   2.846   0.234 -1.6590 -1.4293  2.2260
  148SOL    HW2  444   2.078   2.821   0.072  0.9364 -0.1956 -1.6511
  149SOL     OW  445   0.600   1.738   2.723 -0.2916 -0.2804  0.5029
  149SOL    HW1  446   0.532   1.683   2.678  1.7150  2.5110 -1.7057
  149SOL    HW2  447   0.698   1.712   2.706  1.1415 -0.2818 -0.0271
  150SOL     OW  448   0.393   2.503   0.493  0.1167  0.5666 -0.1918
  150SOL    HW1  449   0.476   2.443   0.483 -0.8009 -0.2766 -1.5077
  150SOL    HW2  450   0.371   2.509   0.594  0.1941 -0.5621  0.9251
  151SOL     OW  451   0.158   1.221   0.243  0.1605 -0.0315  0.0953
  151SOL    HW1  452   0.216   1.160   0.295  1.0333 -1.3394  0.6659
  151SOL    HW2  453   0.095   1.165   0.184 -0.4315 -2.2438  0.5230
  152SOL     OW  454   2.876   2.123   0.506 -0.1948  0.0726 -0.0123
  152SOL    HW1  455   2.927   2.071   0.438 -1.8731  1.8389  1.2628
  152SOL    HW2  456   2.774   2.102   0.500 -0.3906  0.0209 -1.0654
  153SOL     OW  457   1.716   2.233   0.668  0.0731  0.3169 -0.6031
  153SOL    HW1  458   1.691   2.245   0.766 -1.7708  0.7516 -0.8068
  153SOL    HW2  459   1.631   2.211   0.617 -0.0083 -1.4235  1.6578
  154SOL     OW  460   0.752   2.699   1.303  0.1785 -0.4197  0.2418
  154SOL    HW1  461   0.686   2.651   1.240 -0.3499 -1.2667  0.1481
  154SOL    HW2  462   0.740   2.800   1.287 -1.3734  0.4554  0.5427
  155SOL     OW  463   2.740   1.918   0.725  0.1771 -0.0626 -0.1466
  155SOL    HW1  464   2.684   1.967   0.659  0.9327 -1.4696  0.7158
  155SOL    HW2  465   2.772   1.829   0.678  1.7508  0.1915 -1.3836
  156SOL     OW  466   2.868   2.173   2.942  0.2208 -0.1279  0.7851
  156SOL    HW1  467   2.851   2.270   2.938 -0.9697 -2.9316  0.4172
  156SOL    HW2  468   2.779   2.120   2.950  0.2655 -1.9084 -1.8429
  157SOL     OW  469   0.513   2.142   1.634 -0.4954 -0.0124  0.0772
  157SOL    HW1  470   0.477   2.233   1.665 -0.4413 -0.6907 -0.1887
  157SOL    HW2  471   0.451   2.102   1.560  1.1888  0.8380 -2.9791
  158SOL     OW  472   1.587   0.268   0.356 -0.2469 -0.0379  0.2604
  158SOL    HW1  473   1.606   0.288   0.258  1.3430  0.0245  0.5448
  158SOL    HW2  474   1.668   0.242   0.412 -0.5054  0.8362  1.9091
  159SOL     OW  475   1.597   0.594   0.215  0.0706 -0.3703 -0.2216
  159SOL    HW1  476   1.634   0.586   0.310 -1.1891 -0.5185 -2.1935
  159SOL    HW2  477   1.521   0.525   0.210 -0.9420 -0.5945 -1.5657
  160SOL     OW  478   0.749   1.451   0.672  0.5513  0.2460 -0.5398
  160SOL    HW1  479   0.776   1.430   0.766 -0.0852 -1.8149 -1.9671
  160SOL    HW2  480   0.643   1.467   0.671 -1.9096  0.0184 -0.6910
  161SOL     OW  481   2.966   2.480   2.598  0.1328  0.0674 -0.0315
  161SOL    HW1  482   2.900   2.413   2.563  0.8183  1.6189 -2.4983
  161SOL    HW2  483   3.060   2.453   2.599 -3.3541 -0.9488  0.0463
  162SOL     OW  484   0.261   2.352   1.161 -0.0967 -0.4047  0.1639
  162SOL    HW1  485   0.321   2.426   1.205  0.3504  0.7591  0.7904
  162SOL    HW2  486   0.181   2.328   1.225 -1.4116 -0.4038  0.6607
  163SOL     OW  487   0.289   0.554   2.940  0.2107 -0.7471  0.2641
  163SOL    HW1  488   0.273   0.632   2.874  0.6475  3.2331 -3.0272
  163SOL    HW2  489   0.194   0.521   2.964 -5.6232  2.5518  1.6109
  164SOL     OW  490   0.316   3.031   2.656 -0.3671  0.6249 -0.2509
  164SOL    HW1  491   0.405   2.976   2.655  0.3990 -0.2174  1.7783
  164SOL    HW2  492   0.233   2.970   2.656  1.4908  1.6104  2.3160
  165SOL     OW  493   2.602   1.041   1.765 -0.5671  0.1842  0.3804
  165SOL    HW1  494   2.616   1.000   1.672  0.4362  0.2892  0.8458
  165SOL    HW2  495   2.509   1.017   1.801 -0.8848  0.9682 -1.2787
  166SOL     OW  496   2.015   2.069   1.275 -0.3915  0.0486  0.0460
  166SOL    HW1  497   2.115   2.065   1.307  1.8138  0.9054  0.2205
  166SOL    HW2  498   2.004   2.130   1.191  1.5223 -0.4408  0.6102
  167SOL     OW  499   0.795   0.996   2.409 -0.4362  0.0755  0.1806
  167SOL    HW1  500   0.860   0.982   2.332 -0.3592 -0.9570  1.3835
  167SOL    HW2  501   0.851   1.027   2.486 -2.3998 -3.0548 -2.3164
  168SOL     OW  502   2.124   0.138   2.056 -0.1633 -0.5705  0.0475
  168SOL    HW1  503   2.115   0.133   2.159  0.1151  0.3838 -1.0373
  168SOL    HW2  504   2.075   0.060   2.016  0.4098 -0.1691 -0.1229
  169SOL     OW  505   0.311   0.993   0.343 -0.1742  0.5277  0.0840
  169SOL    HW1  506   0.384   0.942   0.391 -1.4016  2.7762  1.7878
  169SOL    HW2  507   0.273   0.956   0.258 -1.2466  2.0542  0.8781
  170SOL     OW  508   0.474   1.462   1.679  0.2962  0.4502  0.0724
  170SOL    HW1  509   0.401   1.452   1.614  1.6800 -0.5777  2.2151
  170SOL    HW2  510   0.559   1.509   1.644  1.5584 -2.1386 -2.5244
  171SOL     OW  511   1.032   2.180   1.646 -0.2899  0.1373  0.2015
  171SOL    HW1  512   0.929   2.185   1.650 -0.6729 -0.1267  0.9498
  171SOL    HW2  513   1.076   2.265   1.674 -2.2752 -0.9287  1.4702
  172SOL     OW  514   1.311   2.771   1.958 -0.6437 -0.0482  0.6614
  172SOL    HW1  515   1.235   2.836   1.964  1.8804 -1.0351  0.2011
  172SOL    HW2  516   1.286   2.675   1.982 -2.6767 -3.0995  0.2567
  173SOL     OW  517   1.248   2.512   0.679 -0.0100  0.3060  0.1646
  173SOL    HW1  518   1.222   2.414   0.706 -1.7843 -0.5567 -0.5574
  173SOL    HW2  519   1.225   2.579   0.751  3.3399 -1.6068 -3.6510
  174SOL     OW  520   2.439   3.082   0.423  0.5286  0.4456  0.3889
  174SOL    HW1  521   2.493   3.097   0.506 -0.1199  0.0551 -3.7749
  174SOL    HW2  522   2.387   0.051   0.401  1.0096  1.1260  1.7511
  175SOL     OW  523   1.009   1.412   0.620  0.5504  0.0096 -0.2794
  175SOL    HW1  524   1.048   1.493   0.574  1.9451  1.3934 -1.5877
  175SOL    HW2  525   0.911   1.419   0.639  0.4470 -0.7411 -1.0330
  176SOL     OW  526   0.635   1.739   0.585 -0.1170  0.2896 -0.1776
  176SOL    HW1  527   0.630   1.807   0.507 -1.3219 -0.7986 -0.2120
  176SOL    HW2  528   0.584   1.655   0.560  0.1345  1.3488 -0.3262
  177SOL     OW  529   1.178   1.210   1.309 -0.3390 -0.2929 -0.5026
  177SOL    HW1  530   1.199   1.241   1.403 -0.0440 -2.2585  0.2620
  177SOL    HW2  531   1.252   1.169   1.260 -2.4223 -0.4783  2.4144
  178SOL     OW  532   2.468   1.837   0.405 -0.2139  0.2333  0.0388
  178SOL    HW1  533   2.433   1.908   0.347  3.0868 -1.4147 -1.1761
  178SOL    HW2  534   2.402   1.760   0.394 -0.8197  0.3237 -0.4012
  179SOL     OW  535   1.017   2.414   2.970  0.5034  0.5961  0.9993
  179SOL    HW1  536   0.959   2.409   2.880 -0.9249  1.1567 -2.2539
  179SOL    HW2  537   1.071   2.328   2.980 -1.6354 -0.3808 -0.9267
  180SOL     OW  538   2.104   1.567   2.115  0.2015 -0.0917  0.2515
  180SOL    HW1  539   2.179   1.499   2.110  0.2356  1.3285  0.8184
  180SOL    HW2  540   2.063   1.581   2.021  0.9706  2.3725  0.3224
  181SOL     OW  541   1.115   0.853   2.534 -0.1740 -0.1857  0.4260
  181SOL    HW1  542   1.042   0.887   2.600  0.3913 -0.6323  1.1151
  181SOL    HW2  543   1.196   0.915   2.541  2.0377  1.7438 -3.1595
  182SOL     OW  544   2.939   1.227   2.389  0.3777  0.4142 -0.1638
  182SOL    HW1  545   2.938   1.153   2.461 -1.1546 -0.6574  1.0082
  182SOL    HW2  546   3.039   1.249   2.371  0.5021 -3.0527 -1.1772
  183SOL     OW  547   1.530   0.481   2.437 -0.0898  0.2844 -0.1182
  183SOL    HW1  548   1.505   0.518   2.526  0.7729  0.6295  1.9700
  183SOL    HW2  549   1.475   0.522   2.358 -2.8698  0.0373 -3.3668
  184SOL     OW  550   0.677   0.508   1.936  0.0935 -0.2671 -0.5316
  184SOL    HW1  551   0.716   0.594   1.962  0.4691 -0.5297 -1.6690
  184SOL    HW2  552   0.624   0.521   1.847  1.1349 -0.0933 -1.0633
  185SOL     OW  553   2.111   1.770   0.603  0.1215 -0.0294  0.5935
  185SOL    HW1  554   2.204   1.797   0.626  1.0605 -1.3648 -1.5202
  185SOL    HW2  555   2.077   1.693   0.660  1.6436  1.9442  1.4444
  186SOL     OW  556   0.244   1.817   0.291  0.2568 -0.3015 -0.1423
  186SOL    HW1  557   0.337   1.806   0.258 -2.2284 -2.0501  1.2548
  186SOL    HW2  558   0.202   1.728   0.327  1.3858 -0.1979 -1.8101
  187SOL     OW  559   1.922   2.175   0.221 -0.1287 -0.0297  0.0676
  187SOL    HW1  560   1.886   2.269   0.245  0.2629  0.5449  0.2233
  187SOL    HW2  561   1.891   2.096   0.278  2.3014  1.7334 -0.3960
  188SOL     OW  562   0.876   2.261   1.046  0.4114 -0.1062 -0.1119
  188SOL    HW1  563   0.961   2.229   1.091  0.5500  0.2186 -0.8882
  188SOL    HW2  564   0.805   2.308   1.105  0.8587 -0.6654  0.9533
  189SOL     OW  565   2.260   1.354   2.674  0.5880  0.5421  0.0340
  189SOL    HW1  566   2.184   1.400   2.727 -2.7021  0.5128 -3.4090
  189SOL    HW2  567   2.335   1.419   2.656 -2.2883 -0.1816  0.5054
  190SOL     OW  568   0.945   2.363   2.111  0.2693 -0.2298  0.3989
  190SOL    HW1  569   0.947   2.300   2.027  1.9415 -0.5189  1.3976
  190SOL    HW2  570   0.849   2.397   2.126  0.8732  0.3632  2.5970
  191SOL     OW  571   2.554   0.935   1.527 -0.1006 -0.3879  0.0703
  191SOL    HW1  572   2.507   0.941   1.436 -2.2242 -0.4494 -0.1466
  191SOL    HW2  573   2.532   0.848   1.575 -0.4856 -1.0610  2.6984
  192SOL     OW  574   2.470   0.754   1.924 -0.5345  0.1507  0.1348
  192SOL    HW1  575   2.441   0.681   1.986 -0.6088  2.5226 -1.5914
  192SOL    HW2  576   2.472   0.844   1.973  1.6439  1.4408 -1.0155
  193SOL     OW  577   0.677   0.143   0.240 -0.0223 -0.4273 -0.4881
  193SOL    HW1  578   0.649   0.231   0.281  0.8764  4.3049  2.8316
  193SOL    HW2  579   0.697   0.076   0.312  3.0078  1.1924 -1.0671
  194SOL     OW  580   1.004   2.378   1.356  0.1535 -0.4767 -0.5959
  194SOL    HW1  581   1.062   2.322   1.291 -0.7218 -0.9975 -1.7936
  194SOL    HW2  582   1.064   2.433   1.420  0.5833  0.8617 -0.9568
  195SOL     OW  583   2.402   1.062   0.434  0.0200  0.3614 -0.2778
  195SOL    HW1  584   2.447   1.027   0.517 -1.0124 -0.3242 -0.6755
  195SOL    HW2  585   2.459   1.098   0.355 -0.9865  0.2723 -2.5157
  196SOL     OW  586   0.762   2.207   1.633 -0.9296 -0.0636  0.1749
  196SOL    HW1  587   0.777   2.248   1.538 -0.8900  0.5152 -0.8851
  196SOL    HW2  588   0.669   2.171   1.635  0.9629  1.0127 -1.2771
  197SOL     OW  589   0.436   0.832   2.369  0.4518  0.1451 -0.1720
  197SOL    HW1  590   0.415   0.823   2.269 -0.4624 -0.3164 -1.8193
  197SOL    HW2  591   0.360   0.788   2.423 -1.3095  1.7665 -0.0247
  198SOL     OW  592   1.561   0.847   0.335  0.6580 -0.0049 -0.3054
  198SOL    HW1  593   1.601   0.779   0.275 -0.3221  0.1791  1.2495
  198SOL    HW2  594   1.492   0.896   0.275 -2.3914 -0.2944  0.1331
  199SOL     OW  595   2.726   0.656   2.049  0.0088  0.2359  0.1431
  199SOL    HW1  596   2.726   0.700   2.140 -2.1825 -1.5435 -1.7835
  199SOL    HW2  597   2.648   0.693   1.993  0.3141 -0.2873 -0.3600
  200SOL     OW  598   2.416   2.752   2.665 -0.2497 -0.3648  0.6014
  200SOL    HW1  599   2.462   2.732   2.754  1.3227 -0.0154  0.6934
  200SOL    HW2  600   2.445   2.842   2.627  0.3837  0.5381 -1.3025
  201SOL     OW  601   2.477   0.261   1.399  0.8044 -0.0796  0.1744
  201SOL    HW1  602   2.494   0.161   1.404  0.1873 -2.6404  0.8170
  201SOL    HW2  603   2.550   0.310   1.348 -2.6960 -1.5605  1.0348
  202SOL     OW  604   2.948   2.663   0.196 -0.0770 -0.2890 -0.0355
  202SOL    HW1  605   2.899   2.634   0.283 -0.6650 -0.5319  0.8630
  202SOL    HW2  606   2.889   2.716   0.132 -0.9567 -0.4731 -3.1865
  203SOL     OW  607   0.961   1.985   3.002  0.6165  0.4694 -0.3211
  203SOL    HW1  608   0.989   1.945   3.097  3.9839 -1.7207  2.8356
  203SOL    HW2  609   1.002   1.921   2.935 -0.4010  1.2271  1.1277
  204SOL     OW  610   0.768   1.863   2.490  0.2174  0.3267 -0.5363
  204SOL    HW1  611   0.721   1.843   2.405  2.6898  0.0596  1.3933
  204SOL    HW2  612   0.754   1.954   2.531 -0.5091 -2.3558  1.2345
  205SOL     OW  613   0.990   0.921   1.021  0.2273  0.4972  0.4152
  205SOL    HW1  614   0.965   0.915   1.122  0.5797 -2.4322  1.4041
  205SOL    HW2  615   1.072   0.857   1.003  0.5320 -0.5445  0.0063
  206SOL     OW  616   0.307   0.764   2.780 -0.0322 -0.0008 -0.0312
  206SOL    HW1  617   0.328   0.862   2.797  0.0482 -0.0965  2.3987
  206SOL    HW2  618   0.299   0.739   2.680  0.2970 -2.6836  0.2316
  207SOL     OW  619   1.609   2.329   1.835  0.2477 -0.2054  0.0030
  207SOL    HW1  620   1.651   2.391   1.904 -2.1175  2.1355  0.7182
  207SOL    HW2  621   1.509   2.330   1.847 -0.0419 -0.9004  1.9515
  208SOL     OW  622   0.439   2.982   1.116 -0.1407  0.2602  0.3916
  208SOL    HW1  623   0.383   2.930   1.185  0.8315 -2.4571  2.7166
  208SOL    HW2  624   0.434   2.944   1.021  2.6287 -0.2389 -1.1322
  209SOL     OW  625   1.607   1.273   0.150 -0.4659  0.3214 -0.1221
  209SOL    HW1  626   1.512   1.310   0.132  0.1305  1.2281  0.8404
  209SOL    HW2  627   1.609   1.174   0.136 -0.8230 -1.7994 -4.0624
  210SOL     OW  628   2.430   0.695   0.930  0.0915 -0.2348 -0.2056
  210SOL    HW1  629   2.340   0.721   0.890 -0.6451 -1.0268 -0.3365
  210SOL    HW2  630   2.493   0.705   0.852 -1.8366 -1.3696  1.1423
  211SOL     OW  631   1.577   2.730   0.418  0.1926 -0.0856 -0.4522
  211SOL    HW1  632   1.506   2.684   0.366  0.5712  3.3069 -0.2089
  211SOL    HW2  633   1.593   2.819   0.370  0.4384 -0.5637  1.6349
  212SOL     OW  634   1.978   2.138   0.741 -0.5000 -0.0690 -0.1413
  212SOL    HW1  635   2.059   2.196   0.755 -2.6575 -0.7620  1.6492
  212SOL    HW2  636   1.900   2.199   0.732  3.1483 -1.6952  2.9697
  213SOL     OW  637   1.947   0.820   2.699 -0.0506 -0.3356 -0.0209
  213SOL    HW1  638   2.049   0.804   2.707  2.0565 -1.3249 -2.6729
  213SOL    HW2  639   1.923   0.799   2.606 -2.0219  0.7272  1.9652
  214SOL     OW  640   1.051   1.522   1.993 -0.1873  0.4061  0.2936
  214SOL    HW1  641   1.108   1.460   2.048 -0.7584  1.8265 -4.0771
  214SOL    HW2  642   0.980   1.558   2.052  2.0031 -1.3963 -1.0125
  215SOL     OW  643   2.991   1.404   0.845 -0.5208 -0.0813 -0.1262
  215SOL    HW1  644   3.038   1.453   0.923  1.1066 -0.8797  1.5225
  215SOL    HW2  645   2.893   1.425   0.845  3.4335  1.1832 -0.5017
  216SOL     OW  646   0.305   2.473   2.479 -0.2177 -0.2179  0.4322
  216SOL    HW1  647   0.261   2.443   2.391  0.7588 -1.8010 -1.0601
  216SOL    HW2  648   0.384   2.410   2.507  1.6138 -1.0732  0.8188
  217SOL     OW  649   2.796   1.086   1.421  0.2669  0.2455  0.5358
  217SOL    HW1  650   2.706   1.043   1.443 -1.5128 -0.2437  1.6379
  217SOL    HW2  651   2.776   1.176   1.379 -0.1108 -1.7156  1.0455
  218SOL     OW  652   0.898   2.135   1.916  0.8757 -0.2693 -0.2167
  218SOL    HW1  653   0.850   2.170   1.827 -0.5123  0.6561 -2.3133
  218SOL    HW2  654   0.957   2.055   1.899 -0.2663 -0.4479  3.0832
  219SOL     OW  655   2.141   1.497   0.196 -0.6761  0.2600  0.3529
  219SOL    HW1  656   2.157   1.482   0.094 -2.5558 -1.6782 -0.9934
  219SOL    HW2  657   2.113   1.402   0.235  0.3970 -0.3948  2.7617
  220SOL     OW  658   2.114   1.083   0.464  0.4666  0.7519 -0.0928
  220SOL    HW1  659   2.217   1.082   0.467  1.9877  0.3551 -1.4460
  220SOL    HW2  660   2.065   1.014   0.517  2.4086  2.1248  0.7839
  221SOL     OW  661   3.046   0.699   0.283  0.2178  0.1622  0.4080
  221SOL    HW1  662   3.092   0.642   0.212  1.3478 -1.1028 -3.4128
  221SOL    HW2  663   2.949   0.716   0.254  1.1686 -1.5414  0.1770
  222SOL     OW  664   1.597   1.290   0.471  0.5189 -0.4076 -0.3587
  222SOL    HW1  665   1.564   1.250   0.380  0.0619 -2.2434  0.6408
  222SOL    HW2  666   1.532   1.259   0.542 -1.3347  0.1025 -1.0646
  223SOL     OW  667   0.922   0.059   2.938  0.3803  0.2301 -0.7615
  223SOL    HW1  668   0.835   0.086   2.984  0.9444  1.9745 -0.4054
  223SOL    HW2  669   0.930   0.105   2.845  1.8243  2.6504 -1.9879
  224SOL     OW  670   1.178   3.083   1.251  0.3500  0.0155 -0.3494
  224SOL    HW1  671   1.188   0.036   1.330  0.2825  0.0457  0.0450
  224SOL    HW2  672   1.170   2.984   1.277 -0.4776  1.2958 -0.3099
  225SOL     OW  673   0.160   2.597   2.019 -0.7856  0.0467  0.2720
  225SOL    HW1  674   0.247   2.634   2.062  1.5092 -1.7548  1.5942
  225SOL    HW2  675   0.180   2.526   1.945  0.1206 -1.3770 -1.3828
  226SOL     OW  676   1.347   1.491   0.381 -0.0129  0.3029  0.1937
  226SOL    HW1  677   1.444   1.531   0.395  1.9058  2.5019  0.2935
  226SOL    HW2  678   1.283   1.539   0.445  0.5940 -0.7061  3.6230
  227SOL     OW  679   0.561   1.521   0.988 -0.0831  0.2009  0.1303
  227SOL    HW1  680   0.621   1.571   0.926  2.0360  0.8634 -0.3496
  227SOL    HW2  681   0.528   1.433   0.948  0.6658 -2.3921  4.0878
  228SOL     OW  682   3.082   1.691   0.744 -0.3104 -0.0158 -0.1784
  228SOL    HW1  683   3.059   1.781   0.705  2.5103 -0.4449  2.2639
  228SOL    HW2  684   3.041   1.616   0.685  1.4972  1.6109  2.0878
  229SOL     OW  685   2.409   0.181   2.818  0.4907 -0.2795  0.1504
  229SOL    HW1  686   2.361   0.248   2.751 -0.4479  1.5034 -1.4868
  229SOL    HW2  687   2.366   0.088   2.823 -1.7280 -0.6726 -1.4700
  230SOL     OW  688   1.754   1.058   0.952  0.2377  0.0006 -0.0584
  230SOL    HW1  689   1.804   1.142   0.923  1.9022 -1.1973  2.0033
  230SOL    HW2  690   1.653   1.058   0.938  1.5650 -2.3502 -1.7467
  231SOL     OW  691   1.496   1.409   2.892 -0.2001  0.4182 -0.5995
  231SOL    HW1  692   1.488   1.388   2.798  0.6673 -3.0888  3.0910
  231SOL    HW2  693   1.587   1.393   2.927  0.0240  2.7091 -1.8025
  232SOL     OW  694   2.595   2.309   0.765  0.1157 -0.5552  0.0489
  232SOL    HW1  695   2.688   2.304   0.800 -1.0954  0.0144  0.4890
  232SOL    HW2  696   2.524   2.284   0.835 -2.7118  0.1439 -0.7517
  233SOL     OW  697   0.641   2.566   0.912 -0.4026 -0.1158 -0.7159
  233SOL    HW1  698   0.639   2.666   0.934  0.7929  4.6781  1.8495
  233SOL    HW2  699   0.704   2.542   0.838 -1.4548 -1.3088  1.0118
  234SOL     OW  700   0.521   0.594   2.656  0.5979 -0.3483  0.6366
  234SOL    HW1  701   0.581   0.672   2.618 -0.3686  0.5608  0.5981
  234SOL    HW2  702   0.448   0.636   2.720 -1.5403  2.2030 -0.0902
  235SOL     OW  703   2.748   0.783   2.281 -0.0731 -0.1125  0.1738
  235SOL    HW1  704   2.753   0.722   2.360  1.7752  1.7315 -0.7024
  235SOL    HW2  705   2.822   0.850   2.282 -2.9890  1.7079  0.8789
  236SOL     OW  706   1.610   2.836   1.498 -0.6594 -0.0158  0.4988
  236SOL    HW1  707   1.570   2.807   1.407  0.8193 -0.1122 -0.5665
  236SOL    HW2  708   1.632   2.761   1.563  0.4932 -1.5594 -1.4183
  237SOL     OW  709   1.133   1.342   2.560 -0.2663 -0.2300  0.1579
  237SOL    HW1  710   1.040   1.376   2.540 -0.2216  0.7456 -3.1471
  237SOL    HW2  711   1.160   1.371   2.658  4.2650  0.1264 -0.5153
  238SOL     OW  712   1.088   0.384   2.401 -0.0474  0.0619  0.3735
  238SOL    HW1  713   1.055   0.468   2.445  1.0924 -2.9067 -2.7663
  238SOL    HW2  714   1.044   0.300   2.442  0.3979 -0.8371 -0.7692
  239SOL     OW  715   0.295   2.243   2.048  0.1202  0.0373 -0.0773
  239SOL    HW1  716   0.382   2.203   2.078 -0.6433  1.1009 -0.6851
  239SOL    HW2  717   0.241   2.276   2.125 -2.5188 -1.5135 -1.2643
  240SOL     OW  718   2.681   2.880   0.769 -0.1056 -0.1430 -0.0757
  240SOL    HW1  719   2.756   2.823   0.720  3.9006  2.2467  0.5757
  240SOL    HW2  720   2.627   2.811   0.821  1.6455 -1.7146  0.8412
  241SOL     OW  721   2.612   1.243   0.658  1.1642 -0.2296 -0.1533
  241SOL    HW1  722   2.545   1.296   0.612  0.4676 -0.7054  1.6994
  241SOL    HW2  723   2.572   1.150   0.675  2.7044  2.1085  0.3222
  242SOL     OW  724   1.778   2.489   2.002 -0.3840 -0.3202 -0.2278
  242SOL    HW1  725   1.840   2.415   1.963 -0.0180 -1.8817 -1.6044
  242SOL    HW2  726   1.812   2.581   1.995  0.4620  0.0984 -2.1239
  243SOL     OW  727   0.559   2.687   1.828  0.2238  0.0940  0.4247
  243SOL    HW1  728   0.590   2.661   1.923  0.4523  2.3479  0.8336
  243SOL    HW2  729   0.617   2.646   1.754  1.4397  1.9187 -0.3607
  244SOL     OW  730   2.567   0.490   2.570 -0.3827  0.6126  0.4602
  244SOL    HW1  731   2.565   0.493   2.671 -1.0791  1.1527 -1.5269
  244SOL    HW2  732   2.478   0.525   2.538  0.0656 -0.2932  0.9417
  245SOL     OW  733   1.305   0.141   1.056  0.1758 -0.2132 -0.1923
  245SOL    HW1  734   1.246   0.221   1.056  0.5919 -3.0127 -0.8846
  245SOL    HW2  735   1.269   0.068   1.115 -0.8927  0.4783  0.6872
  246SOL     OW  736   1.841   2.662   0.174 -0.0068  0.7700 -0.0421
  246SOL    HW1  737   1.901   2.677   0.094  0.7255 -1.7811 -0.1410
  246SOL    HW2  738   1.746   2.697   0.156 -2.0436 -0.0449 -0.6920
  247SOL     OW  739   1.399   0.860   2.292 -0.1004  0.0582  0.1633
  247SOL    HW1  740   1.383   0.843   2.389 -0.8561  0.4489 -2.9491
  247SOL    HW2  741   1.445   0.947   2.271  2.5243 -2.3101  0.3490
  248SOL     OW  742   0.195   2.388   1.843 -0.3700  0.6146 -0.2509
  248SOL    HW1  743   0.106   2.345   1.820  0.6650 -0.1646 -1.0845
  248SOL    HW2  744   0.242   2.334   1.917  0.2896 -1.8513  2.4287
  249SOL     OW  745   2.816   0.519   0.083 -0.2853  0.1008 -0.6315
  249SOL    HW1  746   2.890   0.486   0.144  0.8001 -1.0065 -1.4017
  249SOL    HW2  747   2.784   0.444   0.027  0.1993  2.8829  1.6071
  250SOL     OW  748   2.792   0.066   2.541  0.3998 -0.0049 -0.0212
  250SOL    HW1  749   2.873   0.070   2.599 -0.5819 -0.4615 -1.9928
  250SOL    HW2  750   2.817   0.035   2.452 -0.4433  2.0970  0.6165
  251SOL     OW  751   1.382   0.680   0.006  0.0686  0.6350 -0.4832
  251SOL    HW1  752   1.353   0.617   0.081  0.4328  0.4882 -0.5586
  251SOL    HW2  753   1.420   0.765   0.047  0.0854 -0.6111 -0.5587
  252SOL     OW  754   1.332   2.276   1.898  0.0882 -0.0483  0.2296
  252SOL    HW1  755   1.296   2.183   1.872 -0.5167 -2.2726  0.9575
  252SOL    HW2  756   1.335   2.286   1.998 -4.2516 -1.0102  1.7553
  253SOL     OW  757   2.316   2.467   1.158 -0.0800  0.2461 -0.3036
  253SOL    HW1  758   2.359   2.545   1.199 -1.1121 -2.5949 -2.6227
  253SOL    HW2  759   2.215   2.473   1.161  0.5569  0.6196 -1.0852
  254SOL     OW  760   2.139   1.303   0.635 -0.2446  0.7646  0.4101
  254SOL    HW1  761   2.084   1.246   0.570  1.3362  3.8370 -0.7416
  254SOL    HW2  762   2.129   1.282   0.735  0.2834 -2.2206  1.0308
  255SOL     OW  763   1.136   2.955   1.565  0.3030  0.3285  0.2107
  255SOL    HW1  764   1.127   2.874   1.502 -0.2447  0.5583 -0.6818
  255SOL    HW2  765   1.234   2.975   1.590  0.2381 -0.5065 -0.1777
  256SOL     OW  766   1.779   2.173   1.456  0.4696  0.9007 -0.3154
  256SOL    HW1  767   1.863   2.140   1.406 -3.1123 -2.9162  1.1223
  256SOL    HW2  768   1.706   2.117   1.412  0.8801  0.4911  0.8949
  257SOL     OW  769   0.654   2.545   2.509  0.2820  0.3573  0.7518
  257SOL    HW1  770   0.722   2.610   2.470 -0.8113 -1.6558  0.5924
  257SOL    HW2  771   0.635   2.567   2.605 -2.4589 -1.1964 -0.4116
  258SOL     OW  772   0.745   2.645   0.557  0.2966 -0.4403  0.1517
  258SOL    HW1  773   0.783   2.708   0.487 -1.5347 -2.0064 -2.6236
  258SOL    HW2  774   0.804   2.648   0.638  1.1782  0.2199  1.8226
  259SOL     OW  775   1.551   0.269   2.858  0.0982 -0.6029 -0.3099
  259SOL    HW1  776   1.523   0.240   2.953  0.7287 -1.8224  0.2377
  259SOL    HW2  777   1.637   0.329   2.847  2.0674 -0.3900 -0.5608
  260SOL     OW  778   2.751   0.645   1.361 -0.4260  0.2299  0.3552
  260SOL    HW1  779   2.748   0.546   1.328  1.3779 -2.0332  5.4123
  260SOL    HW2  780   2.685   0.657   1.439  0.6309 -0.6345  1.1086
  261SOL     OW  781   0.901   0.497   2.713 -0.0012  0.3976 -0.8939
  261SOL    HW1  782   0.818   0.536   2.759 -1.3515  3.6902 -0.0020
  261SOL    HW2  783   0.930   0.559   2.641  1.4561 -1.6524  4.2149
  262SOL     OW  784   1.355   2.382   2.152  0.2014  0.2300 -0.2359
  262SOL    HW1  785   1.296   2.452   2.113  2.2835 -0.6190  0.9212
  262SOL    HW2  786   1.449   2.419   2.154  0.3148 -1.6278 -0.7049
  263SOL     OW  787   0.535   1.917   2.913  0.2956  0.6677  0.0814
  263SOL    HW1  788   0.603   1.993   2.922  1.1523 -0.9690  0.6504
  263SOL    HW2  789   0.557   1.854   2.834 -0.4653 -0.7279  1.5235
  264SOL     OW  790   1.135   1.466   0.906  0.0735  0.2164 -0.0395
  264SOL    HW1  791   1.130   1.563   0.882 -1.9587 -2.5647  2.8228
  264SOL    HW2  792   1.195   1.410   0.847  0.3976  1.5558 -1.8160
  265SOL     OW  793   1.130   2.568   0.453 -0.5166  0.0350 -0.2509
  265SOL    HW1  794   1.062   2.496   0.428  1.4263  0.0247 -1.3500
  265SOL    HW2  795   1.169   2.552   0.550  1.5623  0.1359  1.5265
  266SOL     OW  796   2.000   0.632   0.923 -0.4109  0.5511 -0.6988
  266SOL    HW1  797   2.031   0.573   0.999 -1.3492 -1.6297  1.0096
  266SOL    HW2  798   1.953   0.714   0.960 -1.1190 -0.4667  2.1006
  267SOL     OW  799   2.999   1.335   2.730  0.1186  0.1586  0.1607
  267SOL    HW1  800   3.029   1.339   2.831 -1.4298 -1.1253 -1.1521
  267SOL    HW2  801   3.024   1.243   2.694  0.3759  0.2110 -0.6341
  268SOL     OW  802   1.594   2.983   0.303  0.2545 -0.1381  0.5187
  268SOL    HW1  803   1.690   3.020   0.311 -1.7993 -0.4320  2.2912
  268SOL    HW2  804   1.529   3.047   0.350 -1.9722 -0.5694 -2.0193
  269SOL     OW  805   2.910   0.825   2.554  0.0756  0.0104  0.0025
  269SOL    HW1  806   2.882   0.728   2.535 -1.6826 -1.7039 -0.8296
  269SOL    HW2  807   2.976   0.847   2.478 -2.3192  0.7646  2.2374
  270SOL     OW  808   0.049   1.473   0.078 -0.1658  0.7211  0.1937
  270SOL    HW1  809   3.070   1.441   0.048 -0.0067  1.0365 -0.2463
  270SOL    HW2  810   0.116   1.407   0.044 -0.4086  1.3296  0.8977
  271SOL     OW  811   2.637   1.449   2.531 -0.1108  0.0725 -0.9273
  271SOL    HW1  812   2.557   1.498   2.487 -0.9328  1.5756 -0.4580
  271SOL    HW2  813   2.634   1.347   2.517  1.6166  0.0440 -0.7026
  272SOL     OW  814   2.774   2.666   2.166 -0.4140  0.4788  0.2743
  272SOL    HW1  815   2.780   2.581   2.222 -0.5949 -0.1042 -2.4662
  272SOL    HW2  816   2.845   2.670   2.096  3.3880 -0.2973 -2.6856
  273SOL     OW  817   0.141   2.752   0.400  0.2677 -0.0201 -0.0313
  273SOL    HW1  818   0.195   2.827   0.440 -1.5961  3.1301  0.6739
  273SOL    HW2  819   0.110   2.776   0.306  1.2952  0.3797 -1.4824
  274SOL     OW  820   0.983   2.309   0.796  0.1863  0.6087  0.1947
  274SOL    HW1  821   1.082   2.281   0.785  1.2885  0.7439 -0.1188
  274SOL    HW2  822   0.953   2.311   0.897 -0.4181  1.3576  0.8896
  275SOL     OW  823   2.377   1.578   0.381 -0.2006 -0.4244  0.3204
  275SOL    HW1  824   2.303   1.585   0.314  1.4723 -2.6603 -1.3700
  275SOL    HW2  825   2.455   1.527   0.341 -0.8297  0.7073 -1.3237
  276SOL     OW  826   2.618   1.736   1.305 -0.4701 -0.8200  0.2777
  276SOL    HW1  827   2.685   1.713   1.376  0.5996 -2.4560  0.4183
  276SOL    HW2  828   2.666   1.766   1.220  0.8198  0.5409  0.1828
  277SOL     OW  829   2.377   0.081   0.836 -0.6876 -0.3918 -0.1487
  277SOL    HW1  830   2.276   0.065   0.858 -1.6456  0.1904 -0.6639
  277SOL    HW2  831   2.429   0.084   0.924  1.0509  1.9655  2.1186
  278SOL     OW  832   1.643   0.217   2.407 -0.2616  0.6309  0.0392
  278SOL    HW1  833   1.603   0.308   2.424 -0.5303  0.1566 -1.3343
  278SOL    HW2  834   1.628   0.155   2.487  0.3481  0.8988  1.6522
  279SOL     OW  835   1.381   2.650   1.316  0.2679  0.1534 -0.6454
  279SOL    HW1  836   1.471   2.690   1.294 -1.9335  1.0154 -0.9241
  279SOL    HW2  837   1.344   2.587   1.245 -0.6133 -0.4652 -0.6790
  280SOL     OW  838   0.918   0.950   0.570  0.0724 -0.5129  0.3735
  280SOL    HW1  839   0.905   1.049   0.540 -0.1478  2.2311 -2.2524
  280SOL    HW2  840   1.016   0.933   0.597  0.3892 -2.0434 -0.2077
  281SOL     OW  841   2.413   1.570   2.715 -0.2091 -0.1122  0.0281
  281SOL    HW1  842   2.498   1.593   2.667 -1.6723 -1.6482 -2.0809
  281SOL    HW2  843   2.372   1.657   2.747 -1.4825 -0.7127  0.9060
  282SOL     OW  844   3.044   1.291   3.003  0.0402  0.1697  0.4408
  282SOL    HW1  845   3.007   1.216   3.058 -1.1527 -3.2678 -0.4773
  282SOL    HW2  846   0.028   1.297   3.019  0.5165  1.3860  0.4230
  283SOL     OW  847   1.698   2.619   2.777  0.4509  0.1631 -0.4525
  283SOL    HW1  848   1.719   2.612   2.678 -2.3277  0.4374  0.4930
  283SOL    HW2  849   1.718   2.533   2.828  1.4785 -0.3765  0.2584
  284SOL     OW  850   0.676   0.074   3.076  0.0564  0.2395  0.2010
  284SOL    HW1  851   0.661   0.132   0.047  0.5400  0.1887 -2.2744
  284SOL    HW2  852   0.602   0.068   3.009  4.5461  0.9130 -0.5652
  285SOL     OW  853   2.206   1.672   2.480  0.1292 -0.1725  0.4449
  285SOL    HW1  854   2.255   1.764   2.478 -0.2685 -0.6315  0.4968
  285SOL    HW2  855   2.108   1.689   2.501  0.3299  1.1810  0.0728
  286SOL     OW  856   1.262   1.970   0.832 -0.3922 -0.1508 -0.5843
  286SOL    HW1  857   1.193   1.942   0.903 -2.2224 -0.2342 -0.8225
  286SOL    HW2  858   1.356   1.972   0.876  0.3794 -0.0114 -1.1015
  287SOL     OW  859   1.731   0.322   1.303  0.0849 -0.2045 -0.5818
  287SOL    HW1  860   1.725   0.293   1.402 -1.6624 -0.0145  2.6545
  287SOL    HW2  861   1.809   0.390   1.290  1.7681  1.8535 -0.2232
  288SOL     OW  862   0.795   2.732   2.348 -0.3942  0.0765 -0.5115
  288SOL    HW1  863   0.888   2.683   2.347 -1.2856  0.5445  0.0226
  288SOL    HW2  864   0.757   2.720   2.258  1.8929 -0.6192  0.5009
  289SOL     OW  865   0.018   1.190   0.764  0.3266  0.4817  0.3242
  289SOL    HW1  866   3.074   1.268   0.799 -0.8086 -1.7723 -1.4162
  289SOL    HW2  867   3.076   1.101   0.765  1.0389  2.5922 -1.9574
  290SOL     OW  868   1.137   2.189   1.178 -0.6493 -0.8362  0.5958
  290SOL    HW1  869   1.229   2.221   1.141  2.7906 -0.7583 -1.3588
  290SOL    HW2  870   1.154   2.101   1.223 -1.4498  3.1892 -0.5934
  291SOL     OW  871   1.923   2.692   0.734 -0.2744 -0.1075  0.5105
  291SOL    HW1  872   1.894   2.790   0.736 -1.5555  2.8420 -1.7884
  291SOL    HW2  873   1.864   2.631   0.676 -0.1037 -0.3703  0.7895
  292SOL     OW  874   0.546   0.120   1.971 -0.2956  0.2266  0.0907
  292SOL    HW1  875   0.481   0.047   1.940 -1.5260 -0.4312  2.4600
  292SOL    HW2  876   0.636   0.075   1.992  0.2473  1.7193  1.0162
  293SOL     OW  877   2.342   1.859   0.708  0.0214  0.1125  0.4520
  293SOL    HW1  878   2.416   1.841   0.776  2.7959  1.9780  1.0667
  293SOL    HW2  879   2.369   1.936   0.645  1.5370 -0.0438  1.1118
  294SOL     OW  880   1.049   0.078   2.254 -0.2178  0.1297 -0.0935
  294SOL    HW1  881   1.064   0.161   2.194 -0.1131  0.5802  1.0906
  294SOL    HW2  882   1.134   0.024   2.257  1.3023  0.6086  0.2207
  295SOL     OW  883   1.028   1.179   0.961 -0.5382  0.2675 -0.4100
  295SOL    HW1  884   1.002   1.235   1.044  0.5654  1.2111 -1.0683
  295SOL    HW2  885   0.996   1.083   0.974  0.7065  0.4452 -0.6139
  296SOL     OW  886   2.111   1.950   0.861 -0.3162  0.0101  0.4143
  296SOL    HW1  887   2.177   1.894   0.806  0.3025  0.1449  1.3477
  296SOL    HW2  888   2.057   2.008   0.796  0.6940  1.8262 -1.5421
  297SOL     OW  889   2.074   0.071   2.912  0.0602  0.2361 -0.2949
  297SOL    HW1  890   2.155   0.030   2.864  0.4102 -2.3893 -0.7577
  297SOL    HW2  891   2.102   0.094   3.008  3.8065  2.3187 -0.7165
  298SOL     OW  892   1.203   0.085   2.555 -0.1561 -0.0955  0.0240
  298SOL    HW1  893   1.257   0.109   2.473  1.4295 -0.7508 -1.7993
  298SOL    HW2  894   1.260   0.025   2.616 -0.9447 -0.5567 -0.0476
  299SOL     OW  895   1.089   2.951   1.961  0.0680  0.1964  0.4282
  299SOL    HW1  896   1.068   3.013   1.887 -2.5088 -2.7115  1.7526
  299SOL    HW2  897   1.123   3.003   2.038 -1.4705 -0.5372 -1.5559
  300SOL     OW  898   2.480   0.232   1.863  0.1566 -0.0183  0.0622
  300SOL    HW1  899   2.533   0.315   1.896  0.7174  2.5232  2.3138
  300SOL    HW2  900   2.385   0.267   1.836  0.7500  2.0407 -0.3291
  301SOL     OW  901   2.235   0.325   1.753 -0.4475  0.3125 -0.4770
  301SOL    HW1  902   2.183   0.356   1.832  0.9275  3.0580 -2.0762
  301SOL    HW2  903   2.188   0.269   1.683  1.0982  0.1195  0.5010
  302SOL     OW  904   0.488   2.569   3.090 -0.2072 -0.1131 -0.1834
  302SOL    HW1  905   0.416   2.501   0.004 -0.3353 -1.2378 -1.0497
  302SOL    HW2  906   0.577   2.542   0.022 -1.0003  2.7855  0.4848
  303SOL     OW  907   1.635   1.990   1.312 -0.2640 -0.1330 -0.2505
  303SOL    HW1  908   1.544   2.033   1.323  0.8985 -1.4340 -1.8418
  303SOL    HW2  909   1.635   1.889   1.331 -0.0043 -0.3561  1.1975
  304SOL     OW  910   0.146   0.600   0.995  0.5406  0.6166 -0.0755
  304SOL    HW1  911   0.150   0.660   1.077  1.8818 -1.0754  1.0791
  304SOL    HW2  912   0.080   0.645   0.930  0.2416  0.9424  1.2377
  305SOL     OW  913   0.842   0.829   0.796 -0.2810  0.0285 -0.3551
  305SOL    HW1  914   0.887   0.858   0.884  0.0298  0.8284  2.8738
  305SOL    HW2  915   0.871   0.890   0.720  0.8143  0.5889 -0.1283
  306SOL     OW  916   0.495   1.015   2.925 -0.0321 -0.4067  0.6882
  306SOL    HW1  917   0.573   0.948   2.901  0.5914  0.3641  0.0428
  306SOL    HW2  918   0.447   0.977   3.007  0.7190 -1.5075 -0.0937
  307SOL     OW  919   1.112   0.268   1.709 -0.3111  0.4471 -0.1561
  307SOL    HW1  920   1.113   0.359   1.666  2.3575 -0.3358  0.2055
  307SOL    HW2  921   1.165   0.268   1.796  0.0352  0.8801  0.0780
  308SOL     OW  922   0.606   0.857   0.925  0.0408 -0.6119 -0.2194
  308SOL    HW1  923   0.699   0.867   0.880 -0.1782 -1.1522 -1.2255
  308SOL    HW2  924   0.530   0.883   0.854 -3.2291  2.6663 -1.9399
  309SOL     OW  925   2.504   1.000   0.682 -0.0852 -0.0938  0.9016
  309SOL    HW1  926   2.412   0.991   0.728  1.2362  0.3837  1.5367
  309SOL    HW2  927   2.560   0.915   0.697  2.0761  0.0290  2.8371
  310SOL     OW  928   1.078   1.359   0.035  0.0207 -0.2615  0.2969
  310SOL    HW1  929   1.003   1.417   0.080 -1.3074 -0.4507 -0.2823
  310SOL    HW2  930   1.046   1.290   3.079  0.7314  2.6021  0.9499
  311SOL     OW  931   2.407   2.697   2.307  0.0404  0.3173 -0.0223
  311SOL    HW1  932   2.490   2.716   2.367  2.0914 -0.4586  1.0247
  311SOL    HW2  933   2.320   2.678   2.359  0.7563  1.6374  3.4502
  312SOL     OW  934   2.181   2.351   3.054 -0.0650  0.7604 -0.2530
  312SOL    HW1  935   2.197   2.267   3.002 -3.0686  0.5382 -0.1930
  312SOL    HW2  936   2.172   2.330   0.040  0.3095  0.5401 -1.1359
  313SOL     OW  937   0.164   0.160   0.043 -0.0748 -0.1015 -0.1102
  313SOL    HW1  938   0.238   0.228   0.056  0.7756  2.2791  0.5790
  313SOL    HW2  939   0.199   0.060   0.043  1.6483 -2.5584 -0.6663
  314SOL     OW  940   2.410   1.452   2.963 -0.0593 -0.2733 -0.0061
  314SOL    HW1  941   2.505   1.466   2.999 -2.2496 -1.7466 -0.9191
  314SOL    HW2  942   2.391   1.504   2.879  0.3428  2.1438 -0.1996
  315SOL     OW  943   1.856   0.478   2.117  0.1858 -0.7253 -0.2416
  315SOL    HW1  944   1.839   0.413   2.193 -2.0157  1.1425 -1.7889
  315SOL    HW2  945   1.780   0.548   2.100 -2.3770  2.6592  0.3971
  316SOL     OW  946   2.932   1.009   0.758 -0.2267  0.4034 -0.2245
  316SOL    HW1  947   2.861   1.014   0.835 -3.2730 -0.0957 -1.6962
  316SOL    HW2  948   2.902   0.941   0.684  0.5825 -0.5711 -0.2700
  317SOL     OW  949   0.932   2.822   0.058 -0.3708  0.3791 -0.0984
  317SOL    HW1  950   0.840   2.861   0.050 -0.0536 -0.8369 -1.8666
  317SOL    HW2  951   0.926   2.719   0.045  0.1726 -0.8296  0.7076
  318SOL     OW  952   1.980   2.774   1.464  0.0506 -0.3545  0.0252
  318SOL    HW1  953   2.054   2.841   1.481 -0.9759 -1.2653  2.2662
  318SOL    HW2  954   1.954   2.738   1.558 -0.0974 -0.3726 -1.1331
  319SOL     OW  955   1.127   1.698   3.048  0.0660  0.1657  0.1123
  319SOL    HW1  956   1.143   1.654   0.025 -2.6341 -1.0821 -3.1388
  319SOL    HW2  957   1.217   1.714   3.003 -2.3049  0.3183  2.5835
  320SOL     OW  958   0.380   1.751   0.744  0.5316 -0.3185  0.5148
  320SOL    HW1  959   0.301   1.796   0.686 -1.2681 -0.9183 -2.2966
  320SOL    HW2  960   0.468   1.793   0.713  0.5980 -3.2545  0.1166
  321SOL     OW  961   1.983   2.696   1.941  0.3492 -0.4764 -0.1313
  321SOL    HW1  962   2.076   2.719   1.981 -0.2867  3.1376 -1.2641
  321SOL    HW2  963   1.920   2.762   1.985  1.6300 -2.8998  2.4827
  322SOL     OW  964   2.354   2.044   2.461 -0.0582  0.8475 -0.5210
  322SOL    HW1  965   2.327   2.098   2.377 -2.4291  0.2892  0.6560
  322SOL    HW2  966   2.416   1.967   2.443  0.1400  1.6412  3.5898
  323SOL     OW  967   2.299   0.271   0.641  0.0660 -0.4891  0.0712
  323SOL    HW1  968   2.328   0.196   0.706 -0.1640 -2.5130  3.0240
  323SOL    HW2  969   2.348   0.259   0.547  2.6472  1.1542 -0.4502
  324SOL     OW  970   2.938   2.881   2.180 -0.4049 -0.2353 -0.2514
  324SOL    HW1  971   3.035   2.883   2.209 -0.1861 -1.3374 -0.7907
  324SOL    HW2  972   2.886   2.820   2.243  0.4655  0.7539  0.0939
  325SOL     OW  973   1.124   0.427   2.834 -0.8939 -0.0589  0.1919
  325SOL    HW1  974   1.185   0.373   2.770  0.5087 -0.6905 -0.5040
  325SOL    HW2  975   1.039   0.464   2.788 -0.5417 -0.5820 -0.1926
  326SOL     OW  976   2.693   2.435   1.148 -0.2716 -0.2434 -0.0471
  326SOL    HW1  977   2.747   2.442   1.235 -0.6939  0.5254  1.5161
  326SOL    HW2  978   2.640   2.524   1.142 -2.2659  1.0685  0.8593
  327SOL     OW  979   2.348   3.037   0.159 -0.2552 -0.6656  0.0501
  327SOL    HW1  980   2.380   3.062   0.251 -0.0602  0.3907  1.6564
  327SOL    HW2  981   2.285   2.955   0.161  0.4576 -2.4610  1.2729
  328SOL     OW  982   0.371   0.802   1.660 -0.8510 -0.0046 -0.1838
  328SOL    HW1  983   0.427   0.724   1.692 -1.0451  1.2199  0.6493
  328SOL    HW2  984   0.310   0.852   1.729 -2.1787  3.4255  0.6850
  329SOL     OW  985   2.065   0.592   1.449 -1.0377  0.1848  0.2036
  329SOL    HW1  986   2.036   0.582   1.548  1.0640 -0.8566  1.0511
  329SOL    HW2  987   2.164   0.620   1.446  1.0138 -1.8525  0.4506
  330SOL     OW  988   0.603   0.653   1.086  0.6069 -0.4490 -0.3478
  330SOL    HW1  989   0.512   0.610   1.102  0.7672 -3.3942  2.2800
  330SOL    HW2  990   0.592   0.720   1.014  1.3828  0.0459  2.6293
  331SOL     OW  991   0.816   1.490   1.823  0.4944 -0.1762  0.1199
  331SOL    HW1  992   0.916   1.514   1.838 -1.7154 -0.3204 -1.1083
  331SOL    HW2  993   0.767   1.548   1.751  1.7097  0.9197 -2.4942
  332SOL     OW  994   2.711   2.560   1.647  0.1067  0.0328 -0.1649
  332SOL    HW1  995   2.787   2.609   1.689 -0.1192 -1.1000 -0.1687
  332SOL    HW2  996   2.648   2.517   1.714  1.3841 -0.0401 -0.2932
  333SOL     OW  997   3.033   2.894   0.969 -0.4771  0.1625 -0.1595
  333SOL    HW1  998   3.009   2.955   0.892  1.1512 -0.1345 -0.6525
  333SOL    HW2  999   2.951   2.852   1.010 -0.6981  0.1457 -0.2470
  334SOL     OW 1000   0.016   1.180   0.490 -0.1269  0.0585 -0.1299
  334SOL    HW1 1001   0.012   1.195   0.597 -1.6067 -0.4329  1.1592
  334SOL    HW2 1002   0.061   1.253   0.437 -1.5226 -0.8030 -0.1272
  335SOL     OW 1003   0.641   2.566   2.769  0.5113 -0.2340 -0.5263
  335SOL    HW1 1004   0.573   2.520   2.828 -0.6591 -0.6440 -2.2361
  335SOL    HW2 1005   0.676   2.645   2.826  1.6613  0.1608  0.2744
  336SOL     OW 1006   2.837   2.935   1.932  0.6271  0.4958  0.2104
  336SOL    HW1 1007   2.887   2.934   2.021 -0.6767  0.5513  1.3033
  336SOL    HW2 1008   2.737   2.933   1.954 -2.0567  1.8277  0.5944
  337SOL     OW 1009   1.424   1.918   1.677  0.3902  0.2870 -0.0495
  337SOL    HW1 1010   1.350   1.959   1.736  1.2047 -1.4496 -1.8204
  337SOL    HW2 1011   1.510   1.943   1.728  2.7976  1.1300  2.3673
  338SOL     OW 1012   0.906   0.226   2.723 -0.4048 -0.5929 -0.0840
  338SOL    HW1 1013   0.908   0.326   2.734 -0.1100 -1.4065  0.8542
  338SOL    HW2 1014   0.919   0.202   2.623 -1.2397 -0.4591  0.5814
  339SOL     OW 1015   0.650   1.219   2.386 -0.0667  0.8050  0.4550
  339SOL    HW1 1016   0.649   1.250   2.287 -0.1021 -0.0962  1.5663
  339SOL    HW2 1017   0.686   1.125   2.381  1.2156  1.0857  0.1257
  340SOL     OW 1018   2.103   0.407   1.051  0.0609  0.5222  0.4726
  340SOL    HW1 1019   2.106   0.311   1.016  1.3742  0.7496 -0.1288
  340SOL    HW2 1020   2.198   0.440   1.067 -0.2786  1.7624  0.1211
  341SOL     OW 1021   2.107   1.219   0.895  0.1568 -0.5338 -0.4159
  341SOL    HW1 1022   2.016   1.248   0.868  2.0840  1.6129  1.5915
  341SOL    HW2 1023   2.107   1.240   0.999 -0.2560 -0.3371  3.5476
  342SOL     OW 1024   2.066   2.490   2.853 -0.5937  0.5944  0.5140
  342SOL    HW1 1025   2.126   2.465   2.933  0.2971  0.1331  2.1506
  342SOL    HW2 1026   1.971   2.472   2.887  3.1339  0.8180  0.0388
  343SOL     OW 1027   0.536   2.548   1.522 -0.1472 -0.5679 -0.1408
  343SOL    HW1 1028   0.637   2.554   1.538  0.5482 -0.9977 -2.4274
  343SOL    HW2 1029   0.499   2.485   1.588  0.0527  0.0822 -0.3407
  344SOL     OW 1030   2.532   2.944   1.215 -0.5951 -0.6763  0.3355
  344SOL    HW1 1031   2.525   2.926   1.315 -0.2741 -3.6989  0.2928
  344SOL    HW2 1032   2.627   2.938   1.188 -0.0599 -0.8281 -0.4859
  345SOL     OW 1033   2.414   2.194   0.051  0.0159  0.3760 -0.0929
  345SOL    HW1 1034   2.507   2.223   0.024 -1.7075  0.9990 -0.5869
  345SOL    HW2 1035   2.368   2.163   3.080  1.2438 -0.9195 -0.0212
  346SOL     OW 1036   1.443   2.293   1.439  0.4912 -0.4976 -0.2686
  346SOL    HW1 1037   1.425   2.191   1.429  0.2835 -1.5076 -0.8067
  346SOL    HW2 1038   1.519   2.318   1.501  0.6045  0.4689  0.8063
  347SOL     OW 1039   0.991   1.758   1.661  0.1483 -0.1331  0.1665
  347SOL    HW1 1040   0.984   1.844   1.605 -0.8536  0.8169  0.7947
  347SOL    HW2 1041   0.981   1.678   1.595 -0.1082  0.4965  2.7365
  348SOL     OW 1042   0.118   2.066   1.896 -0.1043 -0.1867 -0.5751
  348SOL    HW1 1043   0.187   1.998   1.879 -3.3154  0.4203  0.2949
  348SOL    HW2 1044   0.154   2.145   1.953  2.6100  3.7338  0.7082
  349SOL     OW 1045   1.782   1.671   1.394  0.3333 -0.0794 -0.3622
  349SOL    HW1 1046   1.796   1.568   1.414 -0.1284 -2.8877 -2.3474
  349SOL    HW2 1047   1.867   1.708   1.353 -1.3000 -0.2805 -1.1240
  350SOL     OW 1048   2.184   2.099   0.442 -0.3167 -0.0811  0.0522
  350SOL    HW1 1049   2.105   2.040   0.439 -0.3316 -1.4236  1.0338
  350SOL    HW2 1050   2.157   2.191   0.460 -0.0779  0.6405 -1.3044
  351SOL     OW 1051   0.663   3.032   1.631 -0.2387  0.1235  0.5182
  351SOL    HW1 1052   0.703   3.017   1.725 -1.8718  0.6937  0.2144
  351SOL    HW2 1053   0.730   3.028   1.556  1.4899 -0.0814  0.1083
  352SOL     OW 1054   0.376   0.991   0.831  0.0130 -0.1446 -0.2330
  352SOL    HW1 1055   0.296   0.945   0.781  2.7731 -0.1785  0.3841
  352SOL    HW2 1056   0.346   1.055   0.908 -0.4199  2.2941  4.2323
  353SOL     OW 1057   1.160   1.799   2.520 -0.4446  0.0874 -0.2026
  353SOL    HW1 1058   1.075   1.744   2.522  2.5667  0.4657 -1.5231
  353SOL    HW2 1059   1.245   1.745   2.541  0.4631 -0.1365  0.4080
  354SOL     OW 1060   1.762   2.844   2.020  0.3876  0.0360 -0.3857
  354SOL    HW1 1061   1.733   2.876   2.111 -0.2024  3.0461  0.0357
  354SOL    HW2 1062   1.686   2.846   1.953  1.5886  0.3854  1.2826
  355SOL     OW 1063   2.027   1.163   0.012 -0.1322  0.1615 -0.0288
  355SOL    HW1 1064   2.071   1.254   3.098 -1.2117  1.0041  0.4925
  355SOL    HW2 1065   1.952   1.150   3.055 -1.4926 -0.1332 -2.3231
  356SOL     OW 1066   3.032   1.699   1.374  0.2441  0.1005 -0.2595
  356SOL    HW1 1067   3.058   1.798   1.373 -1.3024 -0.8018  0.2303
  356SOL    HW2 1068   3.097   1.652   1.321 -2.4570 -0.3158  2.5863
  357SOL     OW 1069   0.291   2.788   1.220  0.3488  0.9215 -0.2042
  357SOL    HW1 1070   0.241   2.765   1.137  0.2363  0.6370  2.3705
  357SOL    HW2 1071   0.227   2.797   1.299 -3.1647  1.0983  1.3235
  358SOL     OW 1072   2.458   1.894   1.450 -0.2121  0.0169  0.5133
  358SOL    HW1 1073   2.483   1.841   1.539  3.0719  0.6607 -0.5476
  358SOL    HW2 1074   2.537   1.864   1.396  0.7784  0.1345 -2.4226
  359SOL     OW 1075   2.162   2.697   2.695 -0.2801  0.5045  0.1575
  359SOL    HW1 1076   2.262   2.702   2.677 -1.5746 -1.1005 -1.1257
  359SOL    HW2 1077   2.146   2.625   2.771 -1.9376 -1.6281  3.3724
  360SOL     OW 1078   1.156   2.887   0.885 -0.0101  0.1274 -0.0060
  360SOL    HW1 1079   1.255   2.861   0.895  1.0739 -0.4516 -1.0371
  360SOL    HW2 1080   1.134   2.890   0.786 -0.3929  1.6872 -2.1980
  361SOL     OW 1081   2.187   0.449   0.339  0.2193 -0.2074 -0.8270
  361SOL    HW1 1082   2.102   0.421   0.383  0.0105  3.0813 -3.2169
  361SOL    HW2 1083   2.203   0.545   0.373 -2.1057 -0.5239 -0.0761
  362SOL     OW 1084   1.416   0.832   0.780 -0.3917 -0.7033 -0.6589
  362SOL    HW1 1085   1.500   0.772   0.782  2.8309 -2.5928 -0.1378
  362SOL    HW2 1086   1.432   0.931   0.817 -1.8114  3.1625  2.3338
  363SOL     OW 1087   2.325   1.188   2.470 -0.1871 -0.1313 -0.4766
  363SOL    HW1 1088   2.322   1.255   2.546 -0.0332 -1.2775 -0.6299
  363SOL    HW2 1089   2.238   1.130   2.456 -1.7201 -2.3300 -2.0213
  364SOL     OW 1090   0.340   0.464   1.143  0.1200  0.0767 -0.7013
  364SOL    HW1 1091   0.258   0.497   1.090 -1.2181  1.1018 -1.4935
  364SOL    HW2 1092   0.349   0.506   1.235 -0.2834 -1.5944  1.9061
  365SOL     OW 1093   0.646   0.143   2.703 -0.1228  0.2895 -0.0154
  365SOL    HW1 1094   0.662   0.049   2.669  1.1307 -0.2506  0.3857
  365SOL    HW2 1095   0.731   0.192   2.726 -0.7178 -0.4765  0.5433
  366SOL     OW 1096   2.112   2.049   2.620  0.4201 -0.0800  0.4952
  366SOL    HW1 1097   2.177   2.023   2.553  0.5963 -2.3427 -0.1169
  366SOL    HW2 1098   2.124   2.148   2.640  0.4919  0.7410 -1.7268
  367SOL     OW 1099   2.809   2.452   3.045 -0.3414 -0.0992  0.9496
  367SOL    HW1 1100   2.750   2.513   3.103  0.3126 -0.9034 -0.9686
  367SOL    HW2 1101   2.872   2.508   2.987 -0.3036 -0.5003 -1.5996
  368SOL     OW 1102   2.968   1.378   1.259 -0.4686 -0.0327 -0.9389
  368SOL    HW1 1103   2.913   1.391   1.344 -2.9901 -1.2180  1.6635
  368SOL    HW2 1104   2.944   1.446   1.190  2.6979 -2.2231  2.1359
  369SOL     OW 1105   1.003   3.018   2.612  0.1301 -0.6013 -0.0485
  369SOL    HW1 1106   1.046   3.110   2.601 -1.4278 -0.7192 -1.8969
  369SOL    HW2 1107   1.055   2.952   2.664 -2.4038  3.1161 -1.9178
  370SOL     OW 1108   2.723   0.312   0.490  0.0863  0.5216  0.7424
  370SOL    HW1 1109   2.793   0.388   0.486  0.8352 -0.1747 -3.6457
  370SOL    HW2 1110   2.650   0.321   0.419 -0.0819  2.2851  2.6494
  371SOL     OW 1111   1.409   2.227   1.133  0.4185  0.9062 -0.2285
  371SOL    HW1 1112   1.445   2.269   1.215 -0.4998 -1.6927  1.4614
  371SOL    HW2 1113   1.412   2.287   1.056 -0.0928 -1.8322  0.0091
  372SOL     OW 1114   3.031   0.935   2.347 -0.8231  0.3579 -1.0762
  372SOL    HW1 1115   3.020   0.982   2.259 -0.2029 -2.4985  0.6390
  372SOL    HW2 1116   0.002   0.972   2.391  1.3891 -1.8375  0.5878
  373SOL     OW 1117   2.546   1.797   0.886 -0.7548 -0.2908  0.1254
  373SOL    HW1 1118   2.612   1.810   0.812  1.7295 -0.7040 -1.2152
  373SOL    HW2 1119   2.588   1.836   0.971 -0.9932 -0.0381  0.6261
  374SOL     OW 1120   0.587   2.967   2.670  0.4687  0.1217  0.3057
  374SOL    HW1 1121   0.638   2.909   2.735 -1.1815 -0.3280 -1.9932
  374SOL    HW2 1122   0.644   2.978   2.586 -1.0951 -0.9342  2.2223
  375SOL     OW 1123   0.154   0.097   2.804 -0.2304 -0.1039  0.3241
  375SOL    HW1 1124   0.200   0.036   2.735  1.1376 -0.9068 -1.1451
  375SOL    HW2 1125   0.187   0.080   2.900  0.1236 -0.4804 -0.1354
  376SOL     OW 1126   3.025   2.133   1.744  0.0823 -0.8910  0.1141
  376SOL    HW1 1127   3.100   2.096   1.802  2.2897  0.1643 -1.2560
  376SOL    HW2 1128   2.934   2.085   1.759  1.1049 -0.2167  1.2955
  377SOL     OW 1129   1.712   2.174   2.245 -0.2588 -0.0700  0.2382
  377SOL    HW1 1130   1.658   2.126   2.309  1.0376 -0.1866 -0.9228
  377SOL    HW2 1131   1.666   2.262   2.220 -1.4076 -1.6385 -0.7573
  378SOL     OW 1132   0.505   0.328   2.570 -0.0142  0.4235 -0.8107
  378SOL    HW1 1133   0.543   0.417   2.597  1.9873 -1.4409  0.0163
  378SOL    HW2 1134   0.549   0.247   2.623  3.3086 -4.0346  2.2757
  379SOL     OW 1135   0.478   0.646   0.308  0.2455 -0.0830  0.2867
  379SOL    HW1 1136   0.508   0.699   0.389  1.1834  0.9765  0.3628
  379SOL    HW2 1137   0.505   0.697   0.224 -1.9900 -0.5672  0.7552
  380SOL     OW 1138   0.266   1.672   1.719  0.0396 -0.2399 -0.2057
  380SOL    HW1 1139   0.333   1.600   1.735 -1.8775 -1.5310  0.4328
  380SOL    HW2 1140   0.271   1.742   1.795  1.3539  0.3792  0.4262
  381SOL     OW 1141   0.419   1.082   1.963 -0.0683 -0.5361 -0.1206
  381SOL    HW1 1142   0.332   1.037   1.925 -0.0415  0.2286 -0.0404
  381SOL    HW2 1143   0.474   1.124   1.892  0.3238 -1.5231  0.9567
  382SOL     OW 1144   2.379   2.072   0.287  0.5607  0.2561  0.0012
  382SOL    HW1 1145   2.374   2.137   0.207  1.5414  1.2494 -0.9695
  382SOL    HW2 1146   2.290   2.072   0.337 -0.3885  0.3769  2.6464
  383SOL     OW 1147   0.284   2.008   2.969 -0.2074 -0.0598 -0.4716
  383SOL    HW1 1148   0.234   1.971   3.052  0.9230 -0.6793  0.3225
  383SOL    HW2 1149   0.374   1.968   2.953 -5.6585  1.3189 -0.9923
  384SOL     OW 1150   0.730   2.086   2.889 -0.0789 -0.0349 -0.0704
  384SOL    HW1 1151   0.821   2.034   2.896  1.6596  3.2487  2.8747
  384SOL    HW2 1152   0.715   2.137   2.982 -1.0529  1.6964  2.1990
  385SOL     OW 1153   2.603   2.028   0.498  0.1978  0.1974 -0.3486
  385SOL    HW1 1154   2.559   2.112   0.468  0.6339  2.5802  1.8928
  385SOL    HW2 1155   2.546   1.948   0.479  1.6265  2.3347 -0.4560
  386SOL     OW 1156   2.193   1.178   1.599  0.3125  0.1816 -0.6405
  386SOL    HW1 1157   2.258   1.258   1.610  0.5239  2.0400  2.8367
  386SOL    HW2 1158   2.120   1.187   1.675 -2.1768  0.8283  0.2749
  387SOL     OW 1159   2.841   1.456   2.264  0.4810 -0.4563  0.2077
  387SOL    HW1 1160   2.868   1.369   2.307  0.1716  2.4885 -0.7824
  387SOL    HW2 1161   2.857   1.533   2.327 -3.7650 -0.3187 -0.2150
  388SOL     OW 1162   0.249   1.807   1.979 -0.0481 -0.1828 -0.5627
  388SOL    HW1 1163   0.347   1.783   1.966  1.9002 -3.5704 -1.6549
  388SOL    HW2 1164   0.228   1.817   2.075  0.7810  0.1240 -2.0780
  389SOL     OW 1165   1.887   0.952   1.785 -0.5392  0.2782 -0.5298
  389SOL    HW1 1166   1.896   0.925   1.687 -0.5786  1.5750  2.4197
  389SOL    HW2 1167   1.846   1.040   1.796  1.5826 -0.4354 -0.9651
  390SOL     OW 1168   2.134   3.061   0.669 -0.1518 -0.0771 -0.0806
  390SOL    HW1 1169   2.054   3.036   0.725  0.8379  0.8589  0.4894
  390SOL    HW2 1170   2.129   0.049   0.648 -0.6431  3.0364 -4.9496
  391SOL     OW 1171   1.906   1.630   1.080  0.4881 -0.4891 -0.0479
  391SOL    HW1 1172   1.989   1.570   1.091  0.2855 -0.5046 -1.1242
  391SOL    HW2 1173   1.916   1.706   1.148 -3.5084 -1.3808  1.9951
  392SOL     OW 1174   2.639   2.429   0.320  0.5947 -0.0953  0.0549
  392SOL    HW1 1175   2.585   2.377   0.385 -0.0562  2.6851  1.3629
  392SOL    HW2 1176   2.704   2.496   0.365  0.7395  3.7329  0.1606
  393SOL     OW 1177   2.049   1.775   2.800 -0.5565 -0.0147  0.0628
  393SOL    HW1 1178   2.000   1.764   2.890 -2.0925 -0.5684  1.3231
  393SOL    HW2 1179   1.983   1.823   2.740 -2.2581  1.5593 -2.0563
  394SOL     OW 1180   0.129   2.851   2.661  0.2783  0.1158  0.6936
  394SOL    HW1 1181   0.043   2.890   2.626 -0.1929  0.2088 -2.3423
  394SOL    HW2 1182   0.115   2.769   2.714  1.4554  2.0447  0.1736
  395SOL     OW 1183   0.442   0.190   0.540 -0.5399  0.0288 -0.2314
  395SOL    HW1 1184   0.376   0.266   0.537  3.0839 -0.0429  0.9380
  395SOL    HW2 1185   0.536   0.227   0.547  0.8272 -1.8472  1.8140
  396SOL     OW 1186   1.784   0.946   0.474 -0.7129 -0.6908  0.0281
  396SOL    HW1 1187   1.697   0.920   0.435  0.4198 -0.5677 -1.8758
  396SOL    HW2 1188   1.851   0.872   0.461 -0.2390 -0.7863  1.6217
  397SOL     OW 1189   0.714   0.681   2.264  0.3454 -0.6411  0.0517
  397SOL    HW1 1190   0.684   0.595   2.307  0.4793  1.8579  0.1547
  397SOL    HW2 1191   0.644   0.752   2.277 -1.1046  2.2023 -2.4165
  398SOL     OW 1192   0.786   0.001   0.499  0.2870 -0.5051  0.3602
  398SOL    HW1 1193   0.714   0.023   0.573 -2.2012  0.5977  1.4905
  398SOL    HW2 1194   0.884   0.019   0.523 -1.2859 -1.0464 -0.0635
  399SOL     OW 1195   2.433   2.859   1.506  0.5048  0.4674 -0.4220
  399SOL    HW1 1196   2.432   2.761   1.540 -0.0104  2.6299 -0.1874
  399SOL    HW2 1197   2.505   2.910   1.554 -1.5779 -0.1346  1.3789
  400SOL     OW 1198   0.891   1.607   2.240 -0.1609  0.1815 -0.5268
  400SOL    HW1 1199   0.958   1.673   2.200  0.4131 -0.5561 -0.7743
  400SOL    HW2 1200   0.892   1.613   2.342  0.4485  0.5152 -0.9199
  401SOL     OW 1201   0.756   1.145   2.797  0.3246  0.2282  0.1646
  401SOL    HW1 1202   0.693   1.221   2.795 -3.7066  3.4818  1.7284
  401SOL    HW2 1203   0.718   1.057   2.762 -0.4281  0.9259 -1.1552
  402SOL     OW 1204   2.896   2.093   0.874  0.0954  0.8257  0.4498
  402SOL    HW1 1205   2.848   2.185   0.870  1.9398  0.0510 -0.0942
  402SOL    HW2 1206   2.837   2.023   0.822 -0.7140 -0.9980 -0.1132
  403SOL     OW 1207   0.092   1.268   2.308 -0.2655  0.4592 -0.1064
  403SOL    HW1 1208   0.051   1.276   2.215  2.8633  1.2151 -0.6885
  403SOL    HW2 1209   0.188   1.297   2.304 -0.1575 -2.9513  1.2415
  404SOL     OW 1210   0.068   2.637   2.276 -0.2309 -0.3851  0.3164
  404SOL    HW1 1211   0.101   2.636   2.178 -1.0986 -4.4415 -0.2824
  404SOL    HW2 1212   0.127   2.696   2.332 -2.4673 -1.5369  1.2452
  405SOL     OW 1213   0.211   0.455   2.015  0.0097  0.0128 -0.2949
  405SOL    HW1 1214   0.295   0.449   2.074 -0.8320 -0.3008  3.4095
  405SOL    HW2 1215   0.135   0.419   2.069 -1.5056  1.2251 -0.2469
  406SOL     OW 1216   1.409   1.631   2.538 -0.0091 -0.4541 -0.5244
  406SOL    HW1 1217   1.495   1.661   2.583 -0.2640  0.6312  0.2705
  406SOL    HW2 1218   1.432   1.616   2.440  1.9536 -0.2572 -1.9973
  407SOL     OW 1219   1.621   1.063   2.536  0.8702 -0.2698  0.3512
  407SOL    HW1 1220   1.573   1.084   2.443  4.1950  1.5959 -2.3281
  407SOL    HW2 1221   1.696   1.003   2.514  1.1020  0.5510 -0.8579
  408SOL     OW 1222   0.776   2.979   2.476 -0.5682 -0.4792 -0.3152
  408SOL    HW1 1223   0.863   3.004   2.523  1.6915 -2.5187 -0.0818
  408SOL    HW2 1224   0.783   2.883   2.442  1.9483  1.8116 -1.7796
  409SOL     OW 1225   0.037   2.089   0.923  0.6343 -0.2931 -0.1213
  409SOL    HW1 1226   3.045   2.093   0.899  1.2851 -1.8281 -1.2108
  409SOL    HW2 1227   0.071   2.010   0.979  1.2846  2.2198 -1.3705
  410SOL     OW 1228   2.624   1.486   0.171  0.7154 -0.0181  0.1543
  410SOL    HW1 1229   2.710   1.439   0.195 -2.6351 -0.5565  0.1181
  410SOL    HW2 1230   2.616   1.489   0.070  1.0321 -1.5327  1.2668
  411SOL     OW 1231   0.158   0.016   1.148 -0.2706 -0.8767 -0.1192
  411SOL    HW1 1232   0.213   0.020   1.234  3.8540 -0.4036  1.8010
  411SOL    HW2 1233   0.120   3.035   1.139  2.0176  0.0687  1.7065
  412SOL     OW 1234   1.743   0.646   1.394  0.4797  0.4591  0.1400
  412SOL    HW1 1235   1.806   0.584   1.342  0.1265 -2.7999  1.0099
  412SOL    HW2 1236   1.690   0.706   1.334  1.1873  1.7224  1.1818
  413SOL     OW 1237   0.807   0.058   2.040 -0.4098  0.5397 -0.4000
  413SOL    HW1 1238   0.864   0.013   2.110  3.3439 -0.6512  1.0524
  413SOL    HW2 1239   0.819   0.156   2.045 -2.0561 -0.1137  1.3270
  414SOL     OW 1240   2.871   1.541   2.606  0.2724  0.4473 -0.2821
  414SOL    HW1 1241   2.935   1.468   2.637  0.9197 -0.3270 -1.9694
  414SOL    HW2 1242   2.785   1.495   2.584  1.3897  1.0012 -0.4267
  415SOL     OW 1243   0.705   2.481   0.165 -0.2555 -0.0948 -0.1339
  415SOL    HW1 1244   0.802   2.496   0.130 -0.0566 -1.1229 -2.7251
  415SOL    HW2 1245   0.708   2.473   0.268  0.3829  1.3683 -1.7381
  416SOL     OW 1246   1.766   2.982   3.054  0.0767 -0.2149 -0.2974
  416SOL    HW1 1247   1.796   3.056   0.007  0.4284 -1.1559 -2.7245
  416SOL    HW2 1248   1.785   3.020   2.956  0.4935  0.4922 -3.6817
  417SOL     OW 1249   0.239   0.362   0.542  0.0089 -0.1752 -0.2654
  417SOL    HW1 1250   0.260   0.420   0.620  2.1227 -2.1580 -2.9895
  417SOL    HW2 1251   0.146   0.319   0.555 -2.1030  0.9536  1.9594
  418SOL     OW 1252   2.475   0.079   1.125  0.3861  0.2822 -0.0159
  418SOL    HW1 1253   2.385   0.085   1.166  1.6703 -0.5248 -0.8117
  418SOL    HW2 1254   2.526   3.109   1.145 -2.0885  0.7912  2.2319
  419SOL     OW 1255   0.029   2.895   0.695  0.0690  0.3018  0.2101
  419SOL    HW1 1256   0.107   2.962   0.686 -2.7328  2.7659 -0.7969
  419SOL    HW2 1257   0.063   2.797   0.677  0.0029  2.7759  0.0174
  420SOL     OW 1258   0.018   1.429   1.640  0.1078  0.1850 -0.0077
  420SOL    HW1 1259   0.107   1.437   1.592  1.2992 -1.2833 -0.3930
  420SOL    HW2 1260   3.076   1.353   1.598  0.3843 -0.6118 -0.3747
  421SOL     OW 1261   1.405   2.809   0.607  0.4871  0.3476 -0.5887
  421SOL    HW1 1262   1.469   2.773   0.538 -0.1183 -2.6624 -1.9930
  421SOL    HW2 1263   1.417   2.909   0.629 -0.4767  0.6761 -0.4903
  422SOL     OW 1264   0.628   0.490   1.477 -0.4541 -0.5828  0.0526
  422SOL    HW1 1265   0.705   0.442   1.527  3.5666  0.0711  1.1877
  422SOL    HW2 1266   0.590   0.428   1.410 -0.4411 -1.8520  2.6502
  423SOL     OW 1267   1.256   1.205   1.572  0.2024  0.6638 -0.2428
  423SOL    HW1 1268   1.270   1.309   1.570 -0.8531  2.0515  1.1503
  423SOL    HW2 1269   1.194   1.182   1.648 -1.6766  0.3047 -0.5616
  424SOL     OW 1270   2.090   1.953   0.139 -0.3378 -0.3784  0.2652
  424SOL    HW1 1271   2.043   2.029   0.179  0.3549 -3.8674 -2.5968
  424SOL    HW2 1272   2.077   1.880   0.206  0.8564  2.5032 -4.3965
  425SOL     OW 1273   3.094   0.334   2.102  0.3814 -0.5181 -0.2393
  425SOL    HW1 1274   3.065   0.273   2.180  0.3504 -1.0188 -1.9739
  425SOL    HW2 1275   3.035   0.315   2.023 -0.9196 -0.4824  2.1946
  426SOL     OW 1276   0.180   2.644   2.840  0.2223 -0.1449 -0.1457
  426SOL    HW1 1277   0.228   2.715   2.901 -0.2492  0.3317 -1.1571
  426SOL    HW2 1278   0.249   2.575   2.817  1.4152  2.3533 -1.7879
  427SOL     OW 1279   1.252   0.696   2.892  0.1650 -0.2853  0.4484
  427SOL    HW1 1280   1.302   0.673   2.978 -1.5403  0.9468 -1.1743
  427SOL    HW2 1281   1.191   0.616   2.874 -2.0252 -4.1658  0.8157
  428SOL     OW 1282   2.816   0.921   1.898  0.1891 -0.2661 -0.2995
  428SOL    HW1 1283   2.801   0.927   1.998  0.0730 -0.9771  0.6347
  428SOL    HW2 1284   2.741   0.971   1.851 -0.8817 -0.1791  0.8708
  429SOL     OW 1285   2.008   2.801   1.188 -0.0664 -0.2757 -0.0041
  429SOL    HW1 1286   1.973   2.774   1.284 -0.9499 -0.7034  0.7076
  429SOL    HW2 1287   2.047   2.719   1.140 -1.3721  1.1091  0.3990
  430SOL     OW 1288   1.168   1.403   2.829  0.1360 -0.3665 -0.2200
  430SOL    HW1 1289   1.076   1.428   2.865  4.1651 -1.4587  0.2425
  430SOL    HW2 1290   1.235   1.482   2.831  0.7014  1.0563  0.7699
  431SOL     OW 1291   2.799   1.661   1.511  0.9129  0.0219 -0.0924
  431SOL    HW1 1292   2.789   1.734   1.582  1.2192  0.4868 -1.3487
  431SOL    HW2 1293   2.886   1.675   1.454  2.0511  1.4723 -1.0236
  432SOL     OW 1294   1.010   2.544   2.322 -0.1450 -0.0937 -0.5782
  432SOL    HW1 1295   1.045   2.480   2.393  1.7057 -4.8064 -0.3525
  432SOL    HW2 1296   1.000   2.498   2.232 -0.2651  3.3626  1.5395
  433SOL     OW 1297   2.079   0.390   1.950 -0.2388 -0.2280 -0.0227
  433SOL    HW1 1298   2.089   0.291   1.979 -2.0074 -0.0419  2.6390
  433SOL    HW2 1299   2.035   0.446   2.027  0.0026  2.2299  2.9762
  434SOL     OW 1300   0.673   2.420   2.179  0.5437 -0.0765 -0.1985
  434SOL    HW1 1301   0.625   2.515   2.173 -0.7470  1.9936  0.2331
  434SOL    HW2 1302   0.700   2.389   2.273  1.6536 -0.8298  2.4264
  435SOL     OW 1303   0.066   3.066   0.217  0.2556  0.5449 -0.5076
  435SOL    HW1 1304   0.041   0.016   0.141 -1.0336 -1.1113 -0.7582
  435SOL    HW2 1305   0.151   3.102   0.261 -2.1901 -1.2285 -4.3841
  436SOL     OW 1306   0.814   0.739   2.023 -0.7825  0.2615  0.5173
  436SOL    HW1 1307   0.803   0.839   2.005  1.8200  0.4437 -1.2850
  436SOL    HW2 1308   0.798   0.717   2.121  2.3972 -0.1975 -1.1461
  437SOL     OW 1309   0.545   2.312   2.570 -0.1106 -0.5353 -0.0035
  437SOL    HW1 1310   0.574   2.401   2.531  2.6252  0.3100 -0.5379
  437SOL    HW2 1311   0.522   2.326   2.670  2.2806 -2.7275  0.1235
  438SOL     OW 1312   0.913   1.216   1.260  0.0876 -0.8899 -0.1083
  438SOL    HW1 1313   0.868   1.128   1.237  0.1304 -0.5071  0.0923
  438SOL    HW2 1314   1.014   1.202   1.256  1.0307 -3.6574  2.4087
  439SOL     OW 1315   2.588   1.185   2.474  0.3293 -0.2955 -0.2700
  439SOL    HW1 1316   2.639   1.106   2.511  1.1285  4.4482 -3.4290
  439SOL    HW2 1317   2.486   1.172   2.479  0.0389  1.5359  0.2524
  440SOL     OW 1318   0.068   0.526   0.060  0.2246  0.7576  0.1909
  440SOL    HW1 1319   0.027   0.432   0.058 -0.4825 -1.0897  1.1491
  440SOL    HW2 1320   0.134   0.546   0.133  0.7661  1.4838 -0.3511
  441SOL     OW 1321   1.236   2.043   1.806 -0.2828  0.0974 -0.0146
  441SOL    HW1 1322   1.176   2.099   1.751  1.5771 -2.9537  2.0653
  441SOL    HW2 1323   1.182   1.982   1.866  1.1120 -0.5661 -0.2788
  442SOL     OW 1324   2.046   1.554   0.753  0.4993 -0.6082 -0.2652
  442SOL    HW1 1325   2.071   1.547   0.853  0.0106  0.8486  0.4684
  442SOL    HW2 1326   2.075   1.469   0.703  1.9253  0.6899  0.5264
  443SOL     OW 1327   2.707   2.169   2.617 -0.0997  0.1010  0.2479
  443SOL    HW1 1328   2.793   2.162   2.667 -0.0231  1.2874  0.2977
  443SOL    HW2 1329   2.624   2.136   2.663  0.6255 -0.9860  1.3240
  444SOL     OW 1330   1.743   1.704   2.848 -0.3778 -0.6481 -0.1930
  444SOL    HW1 1331   1.746   1.615   2.896 -1.7579  1.5573 -3.3472
  444SOL    HW2 1332   1.731   1.777   2.917 -0.2127 -5.8821  1.5707
  445SOL     OW 1333   2.530   2.755   1.814  0.4101 -0.8112  0.4246
  445SOL    HW1 1334   2.565   2.773   1.906  1.5634  0.1683  0.3256
  445SOL    HW2 1335   2.529   2.658   1.791  4.0159  1.5739  0.8467
  446SOL     OW 1336   0.961   0.913   1.616 -0.6445 -0.0260  0.4401
  446SOL    HW1 1337   1.036   0.921   1.550  1.8363 -2.3152 -1.6630
  446SOL    HW2 1338   0.982   0.845   1.687 -1.5218 -1.8994  1.1920
  447SOL     OW 1339   0.644   1.065   1.100  0.0448 -0.5818 -0.0173
  447SOL    HW1 1340   0.632   0.983   1.046 -1.0789  1.5756  2.1159
  447SOL    HW2 1341   0.571   1.088   1.163 -1.9637 -2.1684  1.2424
  448SOL     OW 1342   1.109   1.209   2.262  0.5998 -0.0263 -0.3504
  448SOL    HW1 1343   1.131   1.198   2.361  2.2356 -1.2777  1.1456
  448SOL    HW2 1344   1.075   1.117   2.226 -1.2998 -2.0997 -0.8556
  449SOL     OW 1345   3.056   2.223   2.294  0.5366  0.7119  0.1558
  449SOL    HW1 1346   3.009   2.197   2.378 -0.0217 -1.5593 -2.8630
  449SOL    HW2 1347   3.061   2.137   2.238 -0.2888 -1.3151  0.4798
  450SOL     OW 1348   2.264   1.771   2.174 -0.1045  0.5429  0.2691
  450SOL    HW1 1349   2.361   1.730   2.181  3.5305 -0.5609 -0.8903
  450SOL    HW2 1350   2.198   1.696   2.172 -0.8752 -2.6190 -1.3868
  451SOL     OW 1351   2.779   1.392   1.456 -0.2460 -0.1773 -0.6995
  451SOL    HW1 1352   2.780   1.490   1.492 -0.9128  1.4146  0.9775
  451SOL    HW2 1353   2.725   1.339   1.526 -0.5722  1.3807  1.7782
  452SOL     OW 1354   0.292   1.363   1.471  0.0650  0.2978 -0.4490
  452SOL    HW1 1355   0.244   1.272   1.465 -2.5759 -0.1334  0.5114
  452SOL    HW2 1356   0.388   1.352   1.437 -1.7792  0.8608 -1.9551
  453SOL     OW 1357   0.570   1.084   0.640 -0.2511  0.3362  0.3340
  453SOL    HW1 1358   0.479   1.069   0.688  1.5035 -1.0131 -1.9622
  453SOL    HW2 1359   0.642   1.125   0.700  0.4099 -1.3797  0.2950
  454SOL     OW 1360   0.716   1.534   0.422 -0.2471 -0.0568 -0.5223
  454SOL    HW1 1361   0.737   1.483   0.510 -0.3947  2.0624 -0.0521
  454SOL    HW2 1362   0.624   1.506   0.382 -0.6351  2.2442  2.2705
  455SOL     OW 1363   1.722   0.523   1.022  0.1506 -0.1817  0.0652
  455SOL    HW1 1364   1.661   0.463   1.069  1.0219  0.2041 -2.5807
  455SOL    HW2 1365   1.816   0.529   1.061  0.8359  0.3682 -1.2807
  456SOL     OW 1366   1.638   2.810   0.930  0.2922 -0.0573 -0.2398
  456SOL    HW1 1367   1.718   2.780   0.875  0.5003  2.6221  1.3533
  456SOL    HW2 1368   1.610   2.902   0.915  1.6329 -1.9513 -0.1644
  457SOL     OW 1369   1.902   0.317   2.354  0.1247  0.1847 -0.0150
  457SOL    HW1 1370   1.806   0.282   2.370  0.5868  1.0707  1.6365
  457SOL    HW2 1371   1.970   0.281   2.420 -0.2246 -0.1252 -0.0975
  458SOL     OW 1372   2.588   0.609   3.024 -0.0649  0.5031 -0.1409
  458SOL    HW1 1373   2.556   0.527   2.968  1.1601 -0.7908  0.2328
  458SOL    HW2 1374   2.688   0.596   3.055  0.9518  1.0973 -2.2996
  459SOL     OW 1375   0.003   1.699   2.095  0.4974  0.0931  0.0098
  459SOL    HW1 1376   0.029   1.646   2.013  0.2914 -1.5370  0.2308
  459SOL    HW2 1377   0.029   1.650   2.184  2.4781 -2.0301  0.1209
  460SOL     OW 1378   0.414   0.774   3.087 -0.5940  0.1589 -0.0530
  460SOL    HW1 1379   0.403   0.684   3.034 -0.6312  2.0077  0.1326
  460SOL    HW2 1380   0.514   0.777   3.108  0.5819  0.1363 -1.0828
  461SOL     OW 1381   3.008   2.344   0.541 -0.0467  0.7491 -0.1693
  461SOL    HW1 1382   2.947   2.257   0.523 -0.7256  0.8109 -2.9344
  461SOL    HW2 1383   3.101   2.349   0.496  2.0022 -1.0170  0.3041
  462SOL     OW 1384   0.050   3.093   1.714 -0.2524  0.2883  0.2934
  462SOL    HW1 1385   0.070   3.010   1.663 -0.5117 -1.8104  1.7853
  462SOL    HW2 1386   0.052   0.071   1.662  2.2709  4.0292  0.6154
  463SOL     OW 1387   1.666   2.068   1.840 -0.0644 -0.3166 -0.3545
  463SOL    HW1 1388   1.731   2.036   1.770  1.7353  1.6131 -2.6030
  463SOL    HW2 1389   1.674   2.167   1.850 -0.4476 -1.8850  0.1023
  464SOL     OW 1390   0.159   2.766   0.995  0.2230 -0.5715 -0.1404
  464SOL    HW1 1391   0.065   2.794   0.968 -1.9383 -1.0872 -2.2091
  464SOL    HW2 1392   0.228   2.811   0.934 -1.0189 -0.1651  1.1825
  465SOL     OW 1393   0.446   0.247   1.731  0.5180  0.0460 -0.9871
  465SOL    HW1 1394   0.491   0.234   1.823 -0.6424  0.3500  3.8726
  465SOL    HW2 1395   0.390   0.334   1.735 -2.8831  3.8127  2.2090
  466SOL     OW 1396   1.115   2.014   2.350  0.3990 -0.3627 -0.1089
  466SOL    HW1 1397   1.122   1.941   2.423 -3.0467  2.2908  0.9856
  466SOL    HW2 1398   1.038   2.076   2.381 -2.4185  2.2647  0.7302
  467SOL     OW 1399   2.721   1.462   0.800 -0.4477 -0.5199  0.0423
  467SOL    HW1 1400   2.638   1.509   0.840 -0.9744  0.2283 -1.9788
  467SOL    HW2 1401   2.690   1.385   0.744 -1.3503  2.5429  2.4630
  468SOL     OW 1402   2.440   2.071   2.699 -0.2170 -0.0575 -0.3304
  468SOL    HW1 1403   2.423   1.974   2.727 -0.0616 -0.2667 -1.9739
  468SOL    HW2 1404   2.386   2.086   2.612  0.7949  2.5612 -1.8539
  469SOL     OW 1405   1.228   2.227   0.717  0.3150  0.3679 -0.4054
  469SOL    HW1 1406   1.251   2.208   0.619 -2.1027  2.3215 -0.7523
  469SOL    HW2 1407   1.254   2.144   0.777 -0.6784  0.0986  1.6628
  470SOL     OW 1408   2.009   1.796   1.295  0.1495 -0.5101 -0.4494
  470SOL    HW1 1409   1.996   1.895   1.289  1.0841 -1.2019 -0.8603
  470SOL    HW2 1410   2.100   1.778   1.337  1.1979 -0.2635  0.4127
  471SOL     OW 1411   0.150   2.333   0.426 -0.1071 -0.8680 -0.5882
  471SOL    HW1 1412   0.226   2.409   0.436  1.2124  1.0790 -0.8511
  471SOL    HW2 1413   0.198   2.245   0.413  1.8174  2.7295  0.9381
  472SOL     OW 1414   2.545   1.866   2.399  0.0439 -0.5171  0.1984
  472SOL    HW1 1415   2.638   1.909   2.409 -0.3975 -0.7633  1.5929
  472SOL    HW2 1416   2.548   1.803   2.317 -0.6604 -0.2796 -1.5099
  473SOL     OW 1417   1.313   2.535   1.053 -0.3916 -0.4328  0.3459
  473SOL    HW1 1418   1.222   2.560   1.085  2.0670  0.0683 -0.9685
  473SOL    HW2 1419   1.358   2.610   1.000  1.5235  0.8819  2.9125
  474SOL     OW 1420   2.877   0.167   1.275  0.2702 -0.2273  0.0081
  474SOL    HW1 1421   2.840   0.079   1.249 -0.7195  3.1503 -0.7565
  474SOL    HW2 1422   2.881   0.183   1.373 -1.0940  0.2635 -1.8769
  475SOL     OW 1423   2.266   2.754   2.054 -0.2804 -0.5015  0.1622
  475SOL    HW1 1424   2.331   2.742   2.136  2.5875 -1.9652 -0.7828
  475SOL    HW2 1425   2.307   2.820   1.987 -0.6639 -0.1738 -2.5346
  476SOL     OW 1426   0.284   0.524   0.775  0.1586  0.8980 -0.3076
  476SOL    HW1 1427   0.352   0.460   0.815  1.4342 -0.2528  2.3520
  476SOL    HW2 1428   0.211   0.530   0.843  2.4581 -1.3031 -2.1198
  477SOL     OW 1429   0.735   1.950   0.966 -0.3003 -0.4689 -0.1990
  477SOL    HW1 1430   0.659   1.994   1.023  0.2038  1.7853  1.5536
  477SOL    HW2 1431   0.713   1.854   0.945 -0.4673 -0.2423 -0.4388
  478SOL     OW 1432   0.836   2.387   2.759  0.2439  0.3628 -0.2401
  478SOL    HW1 1433   0.796   2.297   2.729  0.6870 -0.5553 -1.7576
  478SOL    HW2 1434   0.770   2.459   2.736 -1.0348  0.6304 -0.3412
  479SOL     OW 1435   3.052   1.200   2.017 -0.2422  0.2090  0.4972
  479SOL    HW1 1436   2.961   1.175   2.052  2.1800 -0.3591 -1.6099
  479SOL    HW2 1437   3.073   1.152   1.927  2.4065 -0.2776 -2.3589
  480SOL     OW 1438   0.321   2.398   0.122  0.6939  0.0309  0.4378
  480SOL    HW1 1439   0.224   2.417   0.146 -2.3612 -0.5627  1.4905
  480SOL    HW2 1440   0.362   2.317   0.173  0.6908 -1.2795  0.4171
  481SOL     OW 1441   1.700   2.951   2.274 -0.1565  0.5944  0.0718
  481SOL    HW1 1442   1.762   2.949   2.355  2.7180  0.5651  1.1633
  481SOL    HW2 1443   1.621   3.016   2.280  0.8466  0.8099 -1.4885
  482SOL     OW 1444   1.793   2.121   3.064 -0.2703  0.1310 -0.3030
  482SOL    HW1 1445   1.857   2.117   0.032 -2.1768 -3.1369  0.2089
  482SOL    HW2 1446   1.845   2.116   2.976 -1.6967  2.0916 -0.9087
  483SOL     OW 1447   1.020   2.370   2.560 -0.5773 -0.5700  0.4899
  483SOL    HW1 1448   1.117   2.362   2.593 -0.6631  2.6055  0.8980
  483SOL    HW2 1449   0.968   2.382   2.646  0.4919  2.7237  0.6260
  484SOL     OW 1450   0.663   2.827   0.964  0.0161 -0.2568  0.0211
  484SOL    HW1 1451   0.596   2.879   0.914 -1.3149 -0.4675  0.9443
  484SOL    HW2 1452   0.677   2.865   1.056  0.3531 -3.6669  0.6768
  485SOL     OW 1453   2.215   0.748   0.788  0.4219  0.7112 -0.0965
  485SOL    HW1 1454   2.222   0.849   0.800 -1.6173 -1.5188  1.4279
  485SOL    HW2 1455   2.133   0.704   0.831  0.8194  0.3177  1.7755
  486SOL     OW 1456   2.091   2.882   2.264  0.2709 -0.1654 -0.1901
  486SOL    HW1 1457   2.099   2.792   2.317  0.2618 -1.4615 -2.9768
  486SOL    HW2 1458   2.120   2.872   2.167  0.9230 -0.8249  0.0596
  487SOL     OW 1459   1.068   1.713   0.861 -0.6143  0.2729 -0.0916
  487SOL    HW1 1460   1.079   1.775   0.778 -2.2260 -1.8741 -1.2912
  487SOL    HW2 1461   1.051   1.775   0.940 -1.1919  2.2743  2.4278
  488SOL     OW 1462   2.215   0.377   0.081  0.0519  0.3690 -0.3525
  488SOL    HW1 1463   2.194   0.427   0.165 -2.6735 -0.1108  1.9682
  488SOL    HW2 1464   2.172   0.413   3.109  2.4419 -3.1202 -0.6099
  489SOL     OW 1465   2.291   2.877   0.561 -0.1656  0.0659 -0.9540
  489SOL    HW1 1466   2.354   2.931   0.503  1.1808  0.6340 -0.1833
  489SOL    HW2 1467   2.217   2.942   0.593  0.2489 -1.4400 -0.3607
  490SOL     OW 1468   1.507   2.971   2.977 -0.0033 -0.2603 -0.0446
  490SOL    HW1 1469   1.603   2.975   3.007 -0.6366  2.2697  0.4520
  490SOL    HW2 1470   1.461   3.027   3.047  1.4030  3.1958 -0.9245
  491SOL     OW 1471   0.788   0.165   1.059 -0.0165 -0.1865  0.1728
  491SOL    HW1 1472   0.797   0.186   1.157  1.1509 -1.2412  1.3759
  491SOL    HW2 1473   0.857   0.094   1.025  0.2247  1.1351 -1.9384
  492SOL     OW 1474   1.854   3.039   0.350 -0.3872  0.2545  0.2880
  492SOL    HW1 1475   1.862   3.095   0.436  0.0645 -2.3304 -1.4790
  492SOL    HW2 1476   1.915   2.956   0.366  1.1707  0.0818 -1.6437
  493SOL     OW 1477   1.355   2.400   2.907 -0.2755 -0.0579 -0.3048
  493SOL    HW1 1478   1.373   2.487   2.961 -1.0543  2.3059  0.2531
  493SOL    HW2 1479   1.301   2.330   2.957 -0.3286  0.8008 -3.9354
  494SOL     OW 1480   0.298   1.146   1.056  0.1740  0.2799  0.1271
  494SOL    HW1 1481   0.354   1.128   1.137 -1.9618 -0.2888 -2.0537
  494SOL    HW2 1482   0.196   1.166   1.087 -3.3405 -1.1203 -2.4127
  495SOL     OW 1483   2.938   0.471   1.695 -0.0390 -0.7115 -0.7775
  495SOL    HW1 1484   3.023   0.476   1.635  2.5877  2.1566 -0.5253
  495SOL    HW2 1485   2.912   0.569   1.718  3.0805  2.2722  2.4820
  496SOL     OW 1486   2.410   2.427   2.237 -0.1772  0.3909 -0.5439
  496SOL    HW1 1487   2.486   2.393   2.179  0.5112 -0.7713 -0.1794
  496SOL    HW2 1488   2.415   2.529   2.250  3.2840  0.0941  1.3977
  497SOL     OW 1489   1.518   1.332   2.625  0.3496  0.2367  0.0735
  497SOL    HW1 1490   1.552   1.238   2.615  1.5338 -0.7535 -2.0597
  497SOL    HW2 1491   1.457   1.347   2.544  0.8014 -2.0354 -0.7600
  498SOL     OW 1492   0.816   2.114   0.736 -0.6428 -0.2773 -0.3281
  498SOL    HW1 1493   0.883   2.187   0.767 -1.3583 -0.6269 -0.4033
  498SOL    HW2 1494   0.782   2.062   0.815 -2.0084  2.0742 -1.2429
  499SOL     OW 1495   0.101   1.591   0.943 -0.0416  0.2347  0.8237
  499SOL    HW1 1496   0.060   1.632   0.859 -0.6779 -2.2519  2.3358
  499SOL    HW2 1497   0.200   1.619   0.958 -0.6923 -0.8898 -0.2397
  500SOL     OW 1498   1.440   2.437   0.501  0.0844 -0.6116  0.0671
  500SOL    HW1 1499   1.413   2.471   0.409 -2.7203  0.6847 -1.7722
  500SOL    HW2 1500   1.376   2.474   0.579  0.8681  2.4410  1.0227
  501SOL     OW 1501   2.031   2.489   1.119  0.5776  0.3153  0.7525
  501SOL    HW1 1502   2.006   2.388   1.108 -0.2075 -0.6274 -1.2324
  501SOL    HW2 1503   2.035   2.526   1.024 -0.8754 -0.6891 -2.9853
  502SOL     OW 1504   0.513   0.571   1.707  0.0635  0.2337 -0.2641
  502SOL    HW1 1505   0.419   0.528   1.719 -0.9240  2.6326  1.8741
  502SOL    HW2 1506   0.558   0.542   1.616  2.9032 -0.7566 -1.4261
  503SOL     OW 1507   2.104   0.179   1.558 -0.1617  0.3261 -0.4950
  503SOL    HW1 1508   2.010   0.207   1.521 -1.6283  1.0424  0.1527
  503SOL    HW2 1509   2.103   0.080   1.591 -0.1252 -1.5541  0.7828
  504SOL     OW 1510   2.117   0.833   1.830 -0.2650  0.2236 -0.2598
  504SOL    HW1 1511   2.032   0.888   1.832 -1.4199  0.0763  2.9252
  504SOL    HW2 1512   2.195   0.894   1.822 -1.1004 -0.2046  1.8679
  505SOL     OW 1513   1.261   3.022   2.227  0.2157  0.0391 -0.3106
  505SOL    HW1 1514   1.242   2.951   2.295  0.7833  2.0013  0.2487
  505SOL    HW2 1515   1.333   3.003   2.160 -0.6181 -0.6123  1.3982
  506SOL     OW 1516   0.477   0.381   2.116 -0.1992  0.0783 -0.0592
  506SOL    HW1 1517   0.525   0.443   2.050 -0.6257  1.0873  0.4867
  506SOL    HW2 1518   0.490   0.285   2.097  1.4261  1.8354 -1.3922
  507SOL     OW 1519   1.503   0.142   3.100 -0.1111 -0.0007 -0.0986
  507SOL    HW1 1520   1.461   0.065   0.040 -0.5863 -0.3216 -1.8113
  507SOL    HW2 1521   1.581   0.182   0.041  0.3759  1.5472 -0.5405
  508SOL     OW 1522   2.097   0.513   2.250  0.0726  0.1049 -0.1458
  508SOL    HW1 1523   2.102   0.593   2.180 -2.0889 -0.0346  0.9028
  508SOL    HW2 1524   2.004   0.477   2.237  0.7486 -0.3952  0.9388
  509SOL     OW 1525   0.878   1.338   2.202 -0.5055  0.5528 -0.2250
  509SOL    HW1 1526   0.963   1.294   2.237  1.5132  0.0652 -0.4657
  509SOL    HW2 1527   0.882   1.441   2.217  0.7563  0.0291  0.9437
  510SOL     OW 1528   2.891   0.597   1.005 -0.1403  0.7361  0.2500
  510SOL    HW1 1529   2.961   0.643   0.946 -1.8274  2.1381 -1.5179
  510SOL    HW2 1530   2.816   0.657   1.037 -0.3651  0.2550 -0.7142
  511SOL     OW 1531   1.588   1.416   1.279 -0.3304  0.5360 -0.4337
  511SOL    HW1 1532   1.536   1.495   1.309  1.9225 -1.6961  0.9001
  511SOL    HW2 1533   1.682   1.421   1.317  0.1808  0.9457  1.9720
  512SOL     OW 1534   0.478   1.498   0.665 -0.3232 -0.3310 -0.2761
  512SOL    HW1 1535   0.429   1.583   0.690 -2.0336  0.7859 -0.7925
  512SOL    HW2 1536   0.468   1.422   0.733 -1.0212 -4.6199  2.3940
  513SOL     OW 1537   0.561   2.095   1.128 -0.1859 -0.4447  0.5324
  513SOL    HW1 1538   0.473   2.066   1.170  1.4576  0.5703 -2.0748
  513SOL    HW2 1539   0.569   2.199   1.146  1.7990  2.4085  1.3927
  514SOL     OW 1540   0.200   2.066   0.374  0.8071 -0.5082  0.6482
  514SOL    HW1 1541   0.098   2.087   0.352 -0.1264 -1.7410 -2.9851
  514SOL    HW2 1542   0.231   1.971   0.343  2.5377 -0.3551 -0.0479
  515SOL     OW 1543   2.759   3.033   3.106  0.3541  0.3618  0.4965
  515SOL    HW1 1544   2.776   2.934   3.089 -0.4687  0.2552  2.5802
  515SOL    HW2 1545   2.790   3.060   0.086 -0.4582  0.3127 -3.1618
  516SOL     OW 1546   1.958   3.050   1.084 -0.2204 -0.6796 -0.4595
  516SOL    HW1 1547   1.890   3.093   1.147  0.1328  1.5390  0.7599
  516SOL    HW2 1548   1.975   2.957   1.119 -0.4341 -1.5095  0.4190
  517SOL     OW 1549   1.624   1.562   0.458 -0.3636 -0.0965  0.1047
  517SOL    HW1 1550   1.693   1.599   0.521 -1.9258 -0.9012  0.9834
  517SOL    HW2 1551   1.627   1.462   0.450 -0.9736  1.7314 -1.0514
  518SOL     OW 1552   1.210   0.400   1.051  0.3967 -0.5325  0.4336
  518SOL    HW1 1553   1.143   0.463   1.002 -0.4167 -0.3575 -0.3756
  518SOL    HW2 1554   1.302   0.418   1.021 -3.4141  0.9466 -2.3267
  519SOL     OW 1555   2.725   2.260   0.119 -0.2426 -0.4020  0.2044
  519SOL    HW1 1556   2.703   2.306   0.208  0.5576  1.2321  2.9544
  519SOL    HW2 1557   2.767   2.319   0.046  0.1972  0.5545  0.5235
  520SOL     OW 1558   1.984   2.077   1.810  0.3685  0.6513  0.1376
  520SOL    HW1 1559   1.976   2.025   1.901 -1.9172 -1.7161  2.5789
  520SOL    HW2 1560   1.938   2.030   1.734  2.4536  1.6081 -0.1851
  521SOL     OW 1561   1.559   2.697   2.367 -0.2470 -0.1965  0.1962
  521SOL    HW1 1562   1.475   2.699   2.430 -3.4467 -1.8355  0.2287
  521SOL    HW2 1563   1.580   2.793   2.335 -0.6518  2.8532 -0.3204
  522SOL     OW 1564   2.925   0.299   1.895 -0.6464 -0.2019  0.5753
  522SOL    HW1 1565   2.917   0.363   1.813 -0.0858 -0.2914  0.4169
  522SOL    HW2 1566   2.902   0.201   1.871  1.4655 -2.4357  0.7561
  523SOL     OW 1567   1.000   1.961   1.488 -0.1076  0.1150  0.4698
  523SOL    HW1 1568   1.025   2.043   1.545 -0.1975 -0.2930  0.4098
  523SOL    HW2 1569   0.933   1.989   1.416  0.7828 -2.0663  1.3370
  524SOL     OW 1570   2.268   2.136   2.924  0.0804 -0.0305  0.2754
  524SOL    HW1 1571   2.304   2.138   2.830 -0.0265 -0.7900 -1.9749
  524SOL    HW2 1572   2.253   2.039   2.956 -2.1382 -0.1468 -0.8761
  525SOL     OW 1573   2.984   1.102   0.092  0.1668  0.2751  0.2075
  525SOL    HW1 1574   3.025   1.058   0.178  0.0087 -1.5309  2.9462
  525SOL    HW2 1575   2.911   1.039   0.049 -2.7949 -1.2154  1.5457
  526SOL     OW 1576   0.925   2.749   0.970 -0.1879 -0.0083  0.4376
  526SOL    HW1 1577   0.994   2.813   0.927 -2.0361  0.9607  0.9291
  526SOL    HW2 1578   0.831   2.786   0.959 -0.7960  3.5803 -1.2963
  527SOL     OW 1579   2.370   1.431   0.601 -0.7859 -0.2194 -0.3439
  527SOL    HW1 1580   2.281   1.381   0.599  0.5738  2.0290  1.0523
  527SOL    HW2 1581   2.371   1.496   0.522  1.4469 -2.4862  1.3910
  528SOL     OW 1582   0.632   0.843   2.568 -0.0597 -0.3337 -0.7244
  528SOL    HW1 1583   0.700   0.896   2.512 -0.4825  1.8097 -0.1843
  528SOL    HW2 1584   0.544   0.854   2.519  0.3832 -0.7907  0.6008
  529SOL     OW 1585   0.684   1.502   3.050  0.2030  0.1732  0.2434
  529SOL    HW1 1586   0.620   1.576   3.076 -1.8139 -1.3734  1.5440
  529SOL    HW2 1587   0.640   1.419   3.068  0.3121  1.9762  0.4467
  530SOL     OW 1588   1.491   0.922   1.692  0.0863  0.5812 -0.4918
  530SOL    HW1 1589   1.538   0.855   1.757  1.3304  0.2760  1.6497
  530SOL    HW2 1590   1.413   0.960   1.748 -0.9481  1.5919  0.4620
  531SOL     OW 1591   1.166   2.192   3.050  0.4618  0.2176  0.4324
  531SOL    HW1 1592   1.095   2.116   3.053  1.3178  1.0620  1.7163
  531SOL    HW2 1593   1.251   2.139   3.056 -1.2983  1.0976 -1.5600
  532SOL     OW 1594   2.428   0.820   0.029 -0.3651  0.1013  0.7912
  532SOL    HW1 1595   2.389   0.784   0.120 -0.0406 -1.8598  1.3512
  532SOL    HW2 1596   2.500   0.753   3.102  1.7905 -2.0560 -1.8794
  533SOL     OW 1597   2.996   0.607   2.095 -0.5207  0.3508  0.1847
  533SOL    HW1 1598   3.006   0.507   2.099 -1.0603  2.6717  1.6657
  533SOL    HW2 1599   2.903   0.640   2.090  4.3463 -1.6580  0.9655
  534SOL     OW 1600   1.891   0.060   0.111  0.5707 -0.4843  0.0921
  534SOL    HW1 1601   1.886   0.007   0.199 -1.1801  1.8781  1.7735
  534SOL    HW2 1602   1.990   0.076   0.094  1.2482  0.9412  0.2754
  535SOL     OW 1603   0.434   0.091   2.913  0.1685 -0.0539 -0.2276
  535SOL    HW1 1604   0.424   0.056   2.820 -0.6208  0.5092 -1.4669
  535SOL    HW2 1605   0.448   0.189   2.919 -1.4014 -2.2168 -0.3512
  536SOL     OW 1606   0.688   1.663   1.640  0.5467 -0.3722 -0.1458
  536SOL    HW1 1607   0.621   1.716   1.582  1.5739 -1.7941 -0.1173
  536SOL    HW2 1608   0.766   1.725   1.659 -0.1319 -0.8458 -0.7099
  537SOL     OW 1609   3.069   2.796   1.554  0.5515  0.0259 -0.5173
  537SOL    HW1 1610   0.051   2.828   1.551 -0.0829 -2.3292 -1.3058
  537SOL    HW2 1611   3.050   2.769   1.456 -2.6290 -2.1398 -0.1632
  538SOL     OW 1612   3.070   2.162   0.272  0.3738  0.6239  0.0357
  538SOL    HW1 1613   3.038   2.257   0.287  1.7963 -1.6446 -1.4399
  538SOL    HW2 1614   3.070   2.148   0.170  1.6172 -0.6860 -2.2736
  539SOL     OW 1615   2.603   0.870   2.861  0.1050 -0.0324  0.3368
  539SOL    HW1 1616   2.612   0.803   2.938 -0.8574 -2.1004 -3.0861
  539SOL    HW2 1617   2.623   0.967   2.894 -0.3878 -2.2999 -1.4513
  540SOL     OW 1618   1.929   0.741   0.169  0.2567  0.0765 -0.2286
  540SOL    HW1 1619   1.996   0.800   0.122 -1.2602 -1.8038  0.3445
  540SOL    HW2 1620   1.838   0.767   0.136 -0.8610  0.1255 -0.2040
  541SOL     OW 1621   1.074   0.360   2.128  0.1815  0.3328 -0.0789
  541SOL    HW1 1622   1.094   0.368   2.228  1.0749 -2.0652 -0.4112
  541SOL    HW2 1623   0.971   0.357   2.109 -1.7393 -1.0873 -0.4612
  542SOL     OW 1624   1.625   2.456   2.219 -0.4497  0.6042  0.5001
  542SOL    HW1 1625   1.601   2.546   2.259  0.4209 -1.9798  0.3771
  542SOL    HW2 1626   1.690   2.459   2.141  0.6869  0.6067 -0.0946
  543SOL     OW 1627   0.856   2.854   0.387 -0.1872 -0.2716 -0.4542
  543SOL    HW1 1628   0.816   2.928   0.445  0.2819 -1.4040  0.9515
  543SOL    HW2 1629   0.818   2.859   0.295  2.2989  0.7247  2.0752
  544SOL     OW 1630   2.808   1.934   2.144 -0.6142  0.1103 -0.0886
  544SOL    HW1 1631   2.911   1.958   2.127  2.2760 -0.0734  0.7751
  544SOL    HW2 1632   2.790   1.940   2.244  1.2233  1.1776 -0.4329
  545SOL     OW 1633   1.365   2.036   1.420  0.1612  0.5374 -0.5616
  545SOL    HW1 1634   1.374   1.989   1.508  0.6383  0.7283 -1.6557
  545SOL    HW2 1635   1.280   2.016   1.365 -2.5202 -0.4830 -1.7607
  546SOL     OW 1636   0.597   0.030   2.304  0.3115 -0.4546  0.6479
  546SOL    HW1 1637   0.662   3.092   2.368 -0.1805  0.6933  1.5344
  546SOL    HW2 1638   0.502   0.037   2.341  2.4664  2.6981  1.6095
  547SOL     OW 1639   1.073   0.397   0.381 -0.7688  1.1261  0.0442
  547SOL    HW1 1640   1.013   0.323   0.341  1.7963  2.8367  0.5031
  547SOL    HW2 1641   1.024   0.479   0.396  0.9727 -2.9981  1.3688
  548SOL     OW 1642   1.409   2.080   0.020  0.0301  0.0012 -0.1849
  548SOL    HW1 1643   1.455   2.171   0.042  3.3980  4.0138 -1.5356
  548SOL    HW2 1644   1.478   2.011   3.104  0.2773  0.6514  3.3730
  549SOL     OW 1645   2.262   1.170   0.155  0.3531 -0.4651 -0.5750
  549SOL    HW1 1646   2.169   1.162   0.117  2.4540  0.0001  0.8171
  549SOL    HW2 1647   2.264   1.170   0.258  1.6991  1.2717  1.5764
  550SOL     OW 1648   2.736   2.013   0.252 -0.8486  0.2302  0.7149
  550SOL    HW1 1649   2.678   2.009   0.337 -1.4376  0.8273 -0.0076
  550SOL    HW2 1650   2.726   2.094   0.194  3.1119 -0.0938 -0.6713
  551SOL     OW 1651   1.419   0.365   1.461 -0.2739 -0.1000  0.5610
  551SOL    HW1 1652   1.445   0.371   1.364 -1.3207  0.3937 -1.3823
  551SOL    HW2 1653   1.350   0.288   1.472 -0.1279  1.4506  0.6350
  552SOL     OW 1654   0.233   2.255   2.885 -0.2164 -0.0060 -0.4921
  552SOL    HW1 1655   0.239   2.158   2.924  0.4842 -1.4065  0.9856
  552SOL    HW2 1656   0.165   2.308   2.949 -1.1890  2.4950  0.2360
  553SOL     OW 1657   2.904   2.745   0.653 -0.6513  0.0802  0.0868
  553SOL    HW1 1658   2.926   2.664   0.706 -1.4071 -0.2609 -0.0105
  553SOL    HW2 1659   2.987   2.806   0.659  1.2861  0.6529 -1.9265
  554SOL     OW 1660   2.027   1.561   1.878 -0.0851  0.2171  0.1239
  554SOL    HW1 1661   2.046   1.461   1.864 -0.1713 -0.4295  2.9317
  554SOL    HW2 1662   1.935   1.589   1.841  1.6737 -0.1446  0.2162
  555SOL     OW 1663   1.340   2.111   2.211 -0.1234  0.5095 -0.6649
  555SOL    HW1 1664   1.274   2.066   2.278  0.0290 -2.2166 -0.2507
  555SOL    HW2 1665   1.341   2.212   2.218 -1.3127 -3.2964 -1.4569
  556SOL     OW 1666   1.279   1.551   1.846  0.1552  0.1195 -0.0216
  556SOL    HW1 1667   1.176   1.542   1.852  1.0930 -1.3930  0.3415
  556SOL    HW2 1668   1.308   1.476   1.914 -1.6920 -0.1076  3.7712
  557SOL     OW 1669   1.479   0.012   1.837 -0.2711 -0.6727  0.4077
  557SOL    HW1 1670   1.498   3.028   1.866  0.1490 -0.8549 -0.3556
  557SOL    HW2 1671   1.419   0.060   1.905 -1.4396  4.0653 -3.2879
  558SOL     OW 1672   0.537   2.944   2.111  0.0633 -0.2569  0.3545
  558SOL    HW1 1673   0.482   2.981   2.029 -0.4683 -1.1921 -2.3793
  558SOL    HW2 1674   0.557   3.008   2.185  0.5403 -0.4455  1.2519
  559SOL     OW 1675   1.802   2.411   0.287 -0.3278  0.4733  0.3152
  559SOL    HW1 1676   1.827   2.500   0.239  0.5467 -0.2448  0.7295
  559SOL    HW2 1677   1.848   2.405   0.375 -1.3798  0.1305  0.0603
  560SOL     OW 1678   1.240   2.157   0.452  0.0679  0.0130 -0.4642
  560SOL    HW1 1679   1.292   2.074   0.427  0.4472 -1.1900  2.0676
  560SOL    HW2 1680   1.237   2.219   0.370 -0.8326 -2.3159  1.7581
  561SOL     OW 1681   1.266   0.538   0.195 -0.3321  0.3705 -0.3562
  561SOL    HW1 1682   1.253   0.545   0.295  1.1026 -1.4037  1.1554
  561SOL    HW2 1683   1.265   0.438   0.166 -1.1543 -1.6124  0.7279
  562SOL     OW 1684   0.544   1.466   1.965 -0.0510  0.1168 -0.1978
  562SOL    HW1 1685   0.636   1.458   1.925 -0.9138 -0.9881 -2.8182
  562SOL    HW2 1686   0.482   1.418   1.900 -0.0127 -1.3066 -2.4168
  563SOL     OW 1687   1.607   2.294   2.791  0.5795  0.0230  0.4248
  563SOL    HW1 1688   1.521   2.320   2.839  0.2185 -2.0315  0.0332
  563SOL    HW2 1689   1.596   2.216   2.725 -0.4283 -0.1630 -0.7711
  564SOL     OW 1690   2.784   0.991   0.987  0.2417 -0.1212  0.4483
  564SOL    HW1 1691   2.768   0.902   1.038  1.5562 -1.2707 -0.1430
  564SOL    HW2 1692   2.775   1.072   1.047 -0.1562 -0.4901  1.7117
  565SOL     OW 1693   0.542   1.272   3.099 -0.3251 -0.5364  0.5351
  565SOL    HW1 1694   0.487   1.258   3.017 -0.0484 -0.2968 -0.6078
  565SOL    HW2 1695   0.610   1.197   0.003 -0.2878 -1.1401  1.4822
  566SOL     OW 1696   2.530   2.749   2.904 -0.3114 -0.2726 -0.7382
  566SOL    HW1 1697   2.528   2.845   2.943  2.6819 -0.2358 -1.1107
  566SOL    HW2 1698   2.516   2.678   2.974  0.7316 -3.5354 -0.0881
  567SOL     OW 1699   1.411   1.234   1.153  0.0947  0.4884  0.3549
  567SOL    HW1 1700   1.476   1.282   1.219  0.6549  2.2694  1.6109
  567SOL    HW2 1701   1.347   1.302   1.107  0.0289  0.6605  0.0682
  568SOL     OW 1702   1.267   1.118   2.841 -0.5079 -0.4354 -0.0897
  568SOL    HW1 1703   1.199   1.049   2.876 -0.1459 -1.4593 -0.8033
  568SOL    HW2 1704   1.224   1.213   2.847 -1.0186 -0.7480 -0.0334
  569SOL     OW 1705   2.337   1.919   3.076 -0.1170  0.1485 -0.0341
  569SOL    HW1 1706   2.417   1.867   3.111 -1.5981  2.3203 -0.4956
  569SOL    HW2 1707   2.269   1.925   0.038  0.7106  1.2038  2.1040
  570SOL     OW 1708   2.882   2.397   2.188  0.4271 -0.2402  0.6257
  570SOL    HW1 1709   2.921   2.453   2.111  2.9606 -1.4008 -1.3102
  570SOL    HW2 1710   2.959   2.345   2.232 -2.6136 -0.1868  0.5997
  571SOL     OW 1711   2.776   2.030   1.793 -0.1712  0.1358  0.1387
  571SOL    HW1 1712   2.830   1.941   1.805 -0.8075  0.6963 -0.9094
  571SOL    HW2 1713   2.709   2.047   1.870 -0.7454  2.0039  0.9378
  572SOL     OW 1714   1.539   2.219   0.390 -0.1531  0.1703  0.6366
  572SOL    HW1 1715   1.507   2.308   0.433  1.8628  2.7336 -1.8223
  572SOL    HW2 1716   1.598   2.243   0.310  0.3883  0.7725 -0.3346
  573SOL     OW 1717   1.340   1.813   0.613  0.1074  0.7358  0.0474
  573SOL    HW1 1718   1.411   1.853   0.556  0.9644  0.0147  0.5608
  573SOL    HW2 1719   1.320   1.875   0.690  1.0556  0.6124  0.0773
  574SOL     OW 1720   1.410   3.009   1.605 -0.1518 -0.7531 -0.4349
  574SOL    HW1 1721   1.482   2.954   1.563 -0.5932  1.6933 -0.1070
  574SOL    HW2 1722   1.433   3.034   1.700  0.1133  0.6605 -1.6164
  575SOL     OW 1723   0.445   1.106   1.276 -0.5424  0.0010  0.3190
  575SOL    HW1 1724   0.483   1.038   1.342  0.4858 -0.3662  0.9127
  575SOL    HW2 1725   0.469   1.203   1.305 -2.3398  2.2035 -0.6714
  576SOL     OW 1726   2.574   0.301   1.022 -0.0582  0.1236 -0.3029
  576SOL    HW1 1727   2.623   0.274   0.940 -3.2043  1.2303  0.7345
  576SOL    HW2 1728   2.547   0.216   1.070  3.0611  2.6121  2.8714
  577SOL     OW 1729   1.795   0.490   2.536  0.1349  0.6013  0.3058
  577SOL    HW1 1730   1.703   0.494   2.490 -0.3664 -1.5432  2.2884
  577SOL    HW2 1731   1.855   0.432   2.475  2.1762 -1.6644  0.1744
  578SOL     OW 1732   1.923   1.484   2.563  0.2170  0.4845 -0.0703
  578SOL    HW1 1733   1.824   1.506   2.575  0.9560 -0.1442  0.4242
  578SOL    HW2 1734   1.960   1.495   2.658 -3.6707 -1.7357  0.6911
  579SOL     OW 1735   0.593   1.569   1.293  0.4776  0.4952 -0.3261
  579SOL    HW1 1736   0.503   1.607   1.316  3.2291 -0.9933 -0.0986
  579SOL    HW2 1737   0.590   1.526   1.200  0.0783  0.6762  1.8414
  580SOL     OW 1738   1.402   2.461   0.233 -0.0894  0.3712  0.5009
  580SOL    HW1 1739   1.349   2.549   0.240  1.7264 -5.0475  1.5369
  580SOL    HW2 1740   1.477   2.462   0.161  2.4688  0.8266  0.4870
  581SOL     OW 1741   0.987   0.958   2.182  0.0628 -0.3207  0.0238
  581SOL    HW1 1742   0.909   0.972   2.113  0.4457 -0.7519 -1.0938
  581SOL    HW2 1743   1.064   0.902   2.140 -0.1067 -1.8467  0.4496
  582SOL     OW 1744   0.728   1.168   0.844  0.9461 -0.5951 -0.0552
  582SOL    HW1 1745   0.693   1.135   0.935 -1.4204 -0.0454  0.7284
  582SOL    HW2 1746   0.794   1.246   0.852  0.0605 -1.1429 -2.2105
  583SOL     OW 1747   0.887   1.250   1.925  0.0648 -0.1417  0.7321
  583SOL    HW1 1748   0.829   1.326   1.880 -1.5689  1.6230 -0.9393
  583SOL    HW2 1749   0.895   1.267   2.023  1.0468  2.6880  0.0452
  584SOL     OW 1750   2.152   2.649   0.540  0.0945  0.0889  0.0195
  584SOL    HW1 1751   2.096   2.634   0.624  1.9254  0.6572 -1.4424
  584SOL    HW2 1752   2.206   2.733   0.549 -2.9283  0.0850  1.2749
  585SOL     OW 1753   2.008   0.369   2.748  0.1840  0.0162  0.3077
  585SOL    HW1 1754   2.007   0.290   2.679  1.0872 -1.0548 -0.9904
  585SOL    HW2 1755   1.918   0.386   2.795  0.7631  0.9946 -0.6084
  586SOL     OW 1756   0.108   1.581   0.347 -0.0757 -0.2127  0.0024
  586SOL    HW1 1757   0.039   1.567   0.425 -0.5359  1.4072  0.5221
  586SOL    HW2 1758   0.077   1.532   0.267  0.8032  1.4338  2.9050
  587SOL     OW 1759   1.783   1.923   0.636  0.1790  0.2477  0.1803
  587SOL    HW1 1760   1.818   1.987   0.706  0.0182  1.0225 -1.6044
  587SOL    HW2 1761   1.764   1.833   0.676 -2.1415  3.1981  1.1728
  588SOL     OW 1762   0.443   0.331   0.918 -0.2349 -0.1521 -0.6195
  588SOL    HW1 1763   0.421   0.360   1.013 -0.6311 -0.3239  0.8150
  588SOL    HW2 1764   0.486   0.242   0.926 -3.0113  0.1254 -1.1064
  589SOL     OW 1765   1.051   0.558   0.888 -0.0762  0.2615  0.2683
  589SOL    HW1 1766   0.953   0.541   0.909 -1.1185 -0.5033 -1.6590
  589SOL    HW2 1767   1.084   0.647   0.920 -0.4179 -0.5793 -2.3737
  590SOL     OW 1768   1.346   1.005   0.185 -0.1972  0.1973  0.8566
  590SOL    HW1 1769   1.381   1.060   0.106  0.2472  0.7813 -1.8772
  590SOL    HW2 1770   1.318   1.064   0.264  0.0089  0.2077  1.3332
  591SOL     OW 1771   2.632   2.711   2.440 -0.1801 -0.3092  0.2592
  591SOL    HW1 1772   2.623   2.658   2.527  0.5604  1.2574 -0.9183
  591SOL    HW2 1773   2.728   2.720   2.411 -1.4777 -1.3665 -2.1938
  592SOL     OW 1774   1.467   1.982   1.015 -0.5413 -0.2231  0.2134
  592SOL    HW1 1775   1.569   1.987   1.017  1.2524  2.8070  0.8000
  592SOL    HW2 1776   1.429   2.067   1.057  2.6104  1.4709 -1.4027
  593SOL     OW 1777   0.982   3.096   1.020  0.3759  0.1880 -0.6042
  593SOL    HW1 1778   1.037   3.055   0.947  1.1355 -0.0195  0.5383
  593SOL    HW2 1779   1.033   3.094   1.110  1.7352 -4.0443 -0.3319
  594SOL     OW 1780   0.342   0.779   2.111  0.4788  0.0885  0.0769
  594SOL    HW1 1781   0.389   0.859   2.072 -0.1607  0.3380  1.9009
  594SOL    HW2 1782   0.252   0.769   2.065  1.2031  2.3383 -1.2760
  595SOL     OW 1783   0.450   2.570   1.282  0.4195  0.3466 -0.1648
  595SOL    HW1 1784   0.493   2.568   1.377 -0.4853  0.9747  1.2401
  595SOL    HW2 1785   0.408   2.661   1.262  0.5239  0.8308  2.4712
  596SOL     OW 1786   0.210   0.865   1.450  0.1388 -0.5960 -0.2485
  596SOL    HW1 1787   0.265   0.854   1.533  0.0157  0.2231 -0.8881
  596SOL    HW2 1788   0.125   0.806   1.464  0.9195  0.1183  2.6585
  597SOL     OW 1789   1.878   1.966   0.389  0.1837  0.0269  0.0931
  597SOL    HW1 1790   1.835   1.972   0.483  0.0288 -1.1615  0.4439
  597SOL    HW2 1791   1.941   1.884   0.390  0.1849  0.0236 -0.1969
  598SOL     OW 1792   0.440   2.861   1.666  0.1594 -0.0514 -0.0445
  598SOL    HW1 1793   0.525   2.906   1.625 -1.0149 -1.3072 -1.4398
  598SOL    HW2 1794   0.467   2.776   1.727 -1.8502 -3.5154  1.6591
  599SOL     OW 1795   2.614   2.077   2.923 -0.2295 -0.0261 -0.8726
  599SOL    HW1 1796   2.550   2.071   2.840  1.5224 -0.8530 -0.4628
  599SOL    HW2 1797   2.586   2.003   2.987 -2.5806  0.3658  2.6908
  600SOL     OW 1798   0.688   0.835   0.106 -0.0475  0.2744  0.7159
  600SOL    HW1 1799   0.704   0.934   0.077  2.7284  1.2116 -1.6221
  600SOL    HW2 1800   0.705   0.812   0.202 -3.8064 -0.5802 -0.2879
  601SOL     OW 1801   0.784   0.790   0.397 -0.0160  0.0957 -0.1245
  601SOL    HW1 1802   0.851   0.843   0.450  1.0043 -1.4745  1.6758
  601SOL    HW2 1803   0.690   0.820   0.422  1.0635 -0.0056  1.6359
  602SOL     OW 1804   1.383   2.718   0.856  0.4147 -0.5677 -0.4833
  602SOL    HW1 1805   1.459   2.772   0.892 -2.1411 -1.3633 -0.1639
  602SOL    HW2 1806   1.378   2.733   0.756 -0.3601  1.9478  2.2142
  603SOL     OW 1807   0.674   2.721   2.088  0.1054 -0.3914  0.2823
  603SOL    HW1 1808   0.624   2.805   2.116 -2.1841  1.3400 -1.5384
  603SOL    HW2 1809   0.764   2.733   2.042  0.7261 -3.2311  1.0743
  604SOL     OW 1810   0.104   0.012   2.380  0.4679 -0.0224  0.0793
  604SOL    HW1 1811   0.111   3.058   2.304  1.9260  0.6063  0.4845
  604SOL    HW2 1812   0.197   0.044   2.399 -3.0179 -3.6240  1.7715
  605SOL     OW 1813   2.663   2.125   1.153 -0.3741 -0.4049  0.5014
  605SOL    HW1 1814   2.701   2.213   1.114  0.2978  1.3556 -2.2021
  605SOL    HW2 1815   2.574   2.139   1.200 -1.3663 -0.2547 -0.2464
  606SOL     OW 1816   0.390   1.526   2.909  0.0849 -0.0722  0.6905
  606SOL    HW1 1817   0.411   1.601   2.972 -0.1839 -1.8532 -2.6429
  606SOL    HW2 1818   0.351   1.568   2.825  0.7028  0.5599 -0.2416
  607SOL     OW 1819   0.954   0.230   0.186 -0.1747 -0.3847  0.3178
  607SOL    HW1 1820   0.865   0.175   0.168  0.0335 -4.2787  0.9303
  607SOL    HW2 1821   0.998   0.262   0.104 -0.3896  0.1165  3.2291
  608SOL     OW 1822   1.775   1.243   2.312 -0.2019  0.0047  0.1909
  608SOL    HW1 1823   1.674   1.231   2.304  0.6998 -0.4159  4.2082
  608SOL    HW2 1824   1.812   1.234   2.409  3.1520  0.4168 -0.0945
  609SOL     OW 1825   2.995   0.370   0.902 -0.7993 -0.0300  1.0274
  609SOL    HW1 1826   3.024   0.317   0.986  1.6752 -0.6148 -1.5159
  609SOL    HW2 1827   2.951   0.461   0.930 -2.2271  2.7733  1.7745
  610SOL     OW 1828   0.516   2.659   0.318  0.3203  0.7172  0.0291
  610SOL    HW1 1829   0.577   2.588   0.266 -0.4268 -3.2281 -0.3921
  610SOL    HW2 1830   0.455   2.613   0.384 -2.5728 -1.1445 -0.4667
  611SOL     OW 1831   1.663   1.043   3.101 -0.1416 -0.2332 -0.2545
  611SOL    HW1 1832   1.680   0.945   0.005  0.4471  0.8900  0.8813
  611SOL    HW2 1833   1.561   1.061   3.090 -0.2265  1.5373  0.8209
  612SOL     OW 1834   0.902   2.162   2.411 -0.5063  0.4303  0.6946
  612SOL    HW1 1835   0.843   2.132   2.493 -2.4111 -1.5076  1.9148
  612SOL    HW2 1836   0.942   2.255   2.431  1.8851  0.2297 -0.3569
  613SOL     OW 1837   1.143   2.309   0.211  0.5256 -0.1893 -0.2121
  613SOL    HW1 1838   1.227   2.365   0.209 -0.0722 -0.6158 -0.2449
  613SOL    HW2 1839   1.128   2.265   0.118  1.5680 -1.0863 -2.2916
  614SOL     OW 1840   2.621   3.092   1.433 -0.2097 -0.1955  0.0228
  614SOL    HW1 1841   2.690   3.089   1.358 -3.1714  2.3863  2.2951
  614SOL    HW2 1842   2.648   0.010   1.527 -0.8068  0.9764  0.9702
  615SOL     OW 1843   2.168   1.392   3.053  0.1657 -0.1211  0.1669
  615SOL    HW1 1844   2.103   1.393   2.971 -2.2006  1.7332 -1.5935
  615SOL    HW2 1845   2.263   1.414   3.023 -1.0415 -2.0958 -0.7792
  616SOL     OW 1846   1.413   0.053   0.394 -0.3503 -0.2976 -0.3830
  616SOL    HW1 1847   1.323   0.064   0.351  2.2748 -0.2231 -0.5313
  616SOL    HW2 1848   1.467   0.138   0.387 -0.7985 -0.8192  1.7404
  617SOL     OW 1849   0.748   1.105   0.040 -0.2893  0.3469  0.1147
  617SOL    HW1 1850   0.799   1.129   3.071 -0.7973  0.7762 -0.3330
  617SOL    HW2 1851   0.814   1.102   0.117 -0.3690  0.5493 -2.5792
  618SOL     OW 1852   0.809   0.330   2.098  0.4545 -0.5801 -0.2354
  618SOL    HW1 1853   0.779   0.329   2.197  0.2579 -0.0511  0.3074
  618SOL    HW2 1854   0.754   0.397   2.038 -1.2501 -1.8228  1.7924
  619SOL     OW 1855   0.165   1.135   1.410 -0.1328  0.6926  0.9991
  619SOL    HW1 1856   0.157   1.143   1.306  1.9871 -1.5024 -2.2080
  619SOL    HW2 1857   0.188   1.035   1.425 -1.3335 -2.4090 -2.1570
  620SOL     OW 1858   1.736   1.226   2.887  0.0327 -0.6410  0.0840
  620SOL    HW1 1859   1.806   1.177   2.831 -0.5741 -0.3120  1.5258
  620SOL    HW2 1860   1.679   1.154   2.933  3.2413 -2.2681  1.3709
  621SOL     OW 1861   2.285   2.931   1.080  0.7027 -0.0414 -0.2221
  621SOL    HW1 1862   2.204   2.921   1.144 -0.2447 -0.1086  2.1565
  621SOL    HW2 1863   2.364   2.965   1.136 -1.8801 -2.2133  0.7544
  622SOL     OW 1864   1.450   0.808   2.551 -0.1290  0.3263  0.2636
  622SOL    HW1 1865   1.552   0.795   2.527 -0.9942 -1.0705  0.7285
  622SOL    HW2 1866   1.431   0.736   2.616  1.6551  1.5803 -2.5351
  623SOL     OW 1867   1.272   0.282   0.089  0.0580  0.6005 -0.1530
  623SOL    HW1 1868   1.185   0.263   0.038 -2.7759 -0.2881  1.0729
  623SOL    HW2 1869   1.354   0.257   0.040 -0.1910  0.0373  1.9663
  624SOL     OW 1870   1.860   0.483   0.067 -0.2058 -0.1339  0.4296
  624SOL    HW1 1871   1.867   0.571   0.117  0.6491 -0.5197 -0.0149
  624SOL    HW2 1872   1.933   0.481   3.112  1.3860 -0.3732  1.2907
  625SOL     OW 1873   0.851   1.413   0.912  0.4053 -0.0628 -0.1427
  625SOL    HW1 1874   0.950   1.395   0.899  0.4777  0.0587  0.0593
  625SOL    HW2 1875   0.826   1.439   1.007  0.6695  1.3300  1.6188
  626SOL     OW 1876   1.419   1.151   3.068 -0.1399  0.2420  0.0181
  626SOL    HW1 1877   1.412   1.250   3.083  1.5047  0.3947 -1.2731
  626SOL    HW2 1878   1.394   1.133   2.972  2.1122  0.4195  1.8991
  627SOL     OW 1879   0.912   2.708   1.965 -0.0711 -0.2844 -0.2660
  627SOL    HW1 1880   0.902   2.650   1.881 -0.1719 -2.0646 -3.6729
  627SOL    HW2 1881   0.943   2.803   1.938 -0.1759 -0.4022 -1.4260
  628SOL     OW 1882   2.525   0.321   2.200  0.2135  0.0729 -0.1940
  628SOL    HW1 1883   2.594   0.343   2.128 -0.5083 -0.3045  1.7310
  628SOL    HW2 1884   2.570   0.273   2.277 -0.8829 -0.4234  1.5469
  629SOL     OW 1885   0.973   1.153   2.991 -0.0111 -0.0790  0.7776
  629SOL    HW1 1886   1.033   1.068   2.986  0.5098  0.4695 -0.8629
  629SOL    HW2 1887   0.913   1.138   2.908  0.2880 -0.3469  0.2463
  630SOL     OW 1888   1.315   0.241   2.291  0.3744  0.3907  0.1038
  630SOL    HW1 1889   1.265   0.320   2.341 -0.0965 -0.4357 -2.2005
  630SOL    HW2 1890   1.411   0.226   2.317  0.9569  0.4508 -2.1185
  631SOL     OW 1891   2.605   0.714   0.714  0.7007  0.1009 -0.0788
  631SOL    HW1 1892   2.595   0.612   0.717 -0.9726 -0.2900  1.1968
  631SOL    HW2 1893   2.687   0.749   0.665  1.3377  1.8224  0.4237
  632SOL     OW 1894   2.021   1.001   1.218 -0.5481  0.1160 -0.8773
  632SOL    HW1 1895   1.976   0.934   1.155  0.1795 -0.3422 -0.9562
  632SOL    HW2 1896   2.099   0.960   1.274  0.0169  1.6581  0.7807
  633SOL     OW 1897   1.635   0.651   0.788 -0.1237  0.0904 -0.7249
  633SOL    HW1 1898   1.695   0.725   0.763 -2.0187 -0.6291 -0.2802
  633SOL    HW2 1899   1.667   0.604   0.874  1.1956  2.5827  0.0389
  634SOL     OW 1900   1.912   2.997   0.825 -0.0098 -0.1029 -0.2023
  634SOL    HW1 1901   1.936   3.005   0.921 -3.0812 -2.1557 -1.7158
  634SOL    HW2 1902   1.826   3.052   0.807  0.0552  1.9064  2.0526
  635SOL     OW 1903   1.598   0.773   1.216  0.2396 -0.2476  0.5233
  635SOL    HW1 1904   1.504   0.741   1.201 -0.4662 -0.0354 -0.2489
  635SOL    HW2 1905   1.608   0.875   1.228  0.7297  1.2547 -0.4097
  636SOL     OW 1906   0.478   0.669   0.623 -0.6652  0.4291 -0.0242
  636SOL    HW1 1907   0.381   0.652   0.661 -3.0693  1.8130  0.0473
  636SOL    HW2 1908   0.546   0.604   0.668  1.4947  1.4253 -0.6682
  637SOL     OW 1909   1.919   2.347   0.504 -0.1362  0.1642 -0.4170
  637SOL    HW1 1910   1.855   2.311   0.579 -3.0442  2.8744 -0.2671
  637SOL    HW2 1911   2.020   2.338   0.530  1.7530 -0.7116 -1.6606
  638SOL     OW 1912   1.470   2.779   2.793 -0.3944 -0.4325  0.4210
  638SOL    HW1 1913   1.468   2.855   2.862 -1.9363  1.4166  0.4053
  638SOL    HW2 1914   1.557   2.725   2.796  1.1606  0.5015 -3.9990
  639SOL     OW 1915   0.816   2.011   1.269  1.0784 -0.0213  0.0011
  639SOL    HW1 1916   0.774   2.011   1.176  0.0787 -0.5462 -1.0336
  639SOL    HW2 1917   0.803   2.102   1.313 -0.2282 -0.3893 -2.7655
  640SOL     OW 1918   0.051   2.814   0.133  0.2561 -0.2293 -0.4069
  640SOL    HW1 1919   3.072   2.771   0.148  1.8048  2.6878 -0.8514
  640SOL    HW2 1920   0.060   2.908   0.172  0.3423 -0.7194 -3.3628
  641SOL     OW 1921   3.049   0.293   3.109 -0.0866 -0.3092  0.1824
  641SOL    HW1 1922   2.987   0.278   0.081 -0.1966  0.8553  1.1986
  641SOL    HW2 1923   0.022   0.237   0.009  3.1077  2.7423  0.3589
  642SOL     OW 1924   3.057   0.939   1.090  0.2335 -0.2549 -0.0560
  642SOL    HW1 1925   2.995   0.918   1.168  2.3075  1.6017 -1.4967
  642SOL    HW2 1926   3.009   0.968   1.004 -0.0709 -2.2718  0.6906
  643SOL     OW 1927   0.696   1.792   2.196  0.0014  0.7836 -0.4772
  643SOL    HW1 1928   0.740   1.879   2.178 -0.5911 -4.5286 -0.0200
  643SOL    HW2 1929   0.751   1.719   2.242  0.7744  1.7653 -2.0876
  644SOL     OW 1930   1.735   2.573   0.599  0.7258  0.6991  0.4543
  644SOL    HW1 1931   1.701   2.489   0.551  1.5207  1.6130 -0.3897
  644SOL    HW2 1932   1.691   2.659   0.563  2.5205 -1.2911 -0.6358
  645SOL     OW 1933   1.614   2.459   1.091  0.0324  0.3992 -0.6603
  645SOL    HW1 1934   1.698   2.450   1.153 -1.6229  0.5226  2.1974
  645SOL    HW2 1935   1.558   2.531   1.128 -1.3798 -2.3765  0.2025
  646SOL     OW 1936   1.259   2.687   0.256 -0.2754 -0.1734  0.3493
  646SOL    HW1 1937   1.200   2.657   0.333 -1.2406  1.6703  0.3939
  646SOL    HW2 1938   1.223   2.779   0.224  0.0922  0.4950 -1.4922
  647SOL     OW 1939   0.393   3.027   1.895  0.3032 -0.2914 -0.1371
  647SOL    HW1 1940   0.303   3.074   1.911  0.9850 -0.7883 -0.6707
  647SOL    HW2 1941   0.381   2.965   1.814 -0.1963  1.9902 -1.7661
  648SOL     OW 1942   1.882   0.858   1.061  0.2563 -0.1873 -0.7696
  648SOL    HW1 1943   1.819   0.781   1.087 -1.3351 -2.3301  2.4920
  648SOL    HW2 1944   1.838   0.947   1.037  0.1632  0.5687 -1.5204
  649SOL     OW 1945   1.904   2.047   2.846 -0.5601 -0.0118 -0.2473
  649SOL    HW1 1946   1.860   2.039   2.755  2.3931 -1.4871 -1.6031
  649SOL    HW2 1947   2.006   2.039   2.836  3.4395 -0.8688 -3.1326
  650SOL     OW 1948   2.548   1.739   1.649 -0.2979 -0.7577 -0.1012
  650SOL    HW1 1949   2.612   1.672   1.613 -0.8348  0.2256  2.2201
  650SOL    HW2 1950   2.517   1.717   1.742 -1.0517  1.2337  0.4961
  651SOL     OW 1951   1.473   1.871   2.787 -0.3567 -0.2228 -0.2703
  651SOL    HW1 1952   1.514   1.900   2.878 -1.0476 -0.3066  1.0795
  651SOL    HW2 1953   1.465   1.946   2.717  0.2144  0.1272  0.5768
  652SOL     OW 1954   1.176   2.828   2.720  0.0842 -0.1788  0.5409
  652SOL    HW1 1955   1.240   2.756   2.691  2.1704 -0.8061 -3.9619
  652SOL    HW2 1956   1.112   2.793   2.789  4.1935 -2.7869  2.0013
  653SOL     OW 1957   2.004   2.224   1.038 -0.1221  0.3216  0.0563
  653SOL    HW1 1958   2.076   2.243   0.969 -2.0438  0.2963 -1.5914
  653SOL    HW2 1959   1.928   2.166   1.001  0.7612 -0.4207  2.1118
  654SOL     OW 1960   2.606   2.862   2.058 -0.2668  0.1719  0.1388
  654SOL    HW1 1961   2.656   2.799   2.121  0.1420  1.0947 -1.1543
  654SOL    HW2 1962   2.558   2.930   2.116  1.9752 -0.2193 -2.1613
  655SOL     OW 1963   2.951   2.111   1.211  0.1897 -0.1851  0.0440
  655SOL    HW1 1964   2.992   2.094   1.119 -0.9643  1.3874 -0.6716
  655SOL    HW2 1965   2.844   2.107   1.211 -0.5975  0.3576 -0.4825
  656SOL     OW 1966   0.114   2.339   2.666  0.0118 -0.0895  0.2891
  656SOL    HW1 1967   0.188   2.367   2.604  1.2058 -2.9690  2.7652
  656SOL    HW2 1968   0.154   2.306   2.753  0.6028  1.9138  0.3243
  657SOL     OW 1969   2.817   0.845   0.577  0.1179  0.8656  0.3303
  657SOL    HW1 1970   2.915   0.819   0.562  0.1784 -1.0845  0.7003
  657SOL    HW2 1971   2.783   0.910   0.501  0.6865 -1.4347 -1.0463
  658SOL     OW 1972   1.450   1.709   0.983  0.1692 -0.4371  0.1155
  658SOL    HW1 1973   1.397   1.704   1.070 -0.8115  2.3353  1.6779
  658SOL    HW2 1974   1.472   1.806   0.980  0.5923  1.2406 -2.8892
  659SOL     OW 1975   1.501   0.391   1.181  0.2195 -0.4086  0.3108
  659SOL    HW1 1976   1.573   0.371   1.248  1.2990 -1.8410  0.3201
  659SOL    HW2 1977   1.490   0.321   1.110 -1.8867 -1.4374  2.2824
  660SOL     OW 1978   1.834   1.211   0.543  0.4463  0.2995  0.6195
  660SOL    HW1 1979   1.816   1.117   0.508  0.7851  1.5989 -0.6639
  660SOL    HW2 1980   1.750   1.267   0.523 -0.8887  1.6409  1.1960
  661SOL     OW 1981   0.419   1.541   0.346 -0.2336  0.8423 -0.2614
  661SOL    HW1 1982   0.431   1.442   0.319  0.7607 -1.8264 -0.7173
  661SOL    HW2 1983   0.320   1.546   0.363  0.1813 -1.2257  0.8430
  662SOL     OW 1984   2.853   1.097   2.159  0.0782 -0.1595 -0.3987
  662SOL    HW1 1985   2.879   1.136   2.249  0.4468 -1.5335  0.7087
  662SOL    HW2 1986   2.756   1.110   2.137 -0.1556 -1.6942  0.4170
  663SOL     OW 1987   2.135   1.347   1.411  0.2226 -0.1840 -0.2313
  663SOL    HW1 1988   2.139   1.251   1.446 -0.1737 -0.8858  0.1906
  663SOL    HW2 1989   2.206   1.402   1.462 -0.7220  0.2391 -1.3397
  664SOL     OW 1990   0.553   0.079   0.968 -0.7031 -0.2398  0.2864
  664SOL    HW1 1991   0.501   0.012   1.024 -0.6176 -0.1223  0.2459
  664SOL    HW2 1992   0.640   0.121   1.011  0.6277  1.4156  0.8597
  665SOL     OW 1993   1.312   3.045   2.753 -0.3744 -0.0225 -0.0990
  665SOL    HW1 1994   1.406   3.012   2.783  0.6040 -1.1342 -0.7044
  665SOL    HW2 1995   1.254   2.960   2.749 -0.0062 -0.9444 -2.7874
  666SOL     OW 1996   0.528   0.507   2.335  0.6754  0.5852  0.3420
  666SOL    HW1 1997   0.510   0.448   2.251  1.2245 -3.8954  0.6352
  666SOL    HW2 1998   0.444   0.542   2.377  0.8635 -0.4897 -3.1707
  667SOL     OW 1999   1.910   1.598   2.300 -0.1132 -0.0913 -0.1342
  667SOL    HW1 2000   1.981   1.593   2.230 -1.1467 -1.6353 -1.4618
  667SOL    HW2 2001   1.941   1.572   2.394  1.1551  0.5715  1.0660
  668SOL     OW 2002   0.071   1.529   2.625  0.2085  0.7800 -0.0002
  668SOL    HW1 2003   0.048   1.443   2.677 -2.9966 -0.9612 -2.1832
  668SOL    HW2 2004   3.110   1.593   2.616 -1.3385 -0.0747  2.3168
  669SOL     OW 2005   2.381   0.043   2.433 -0.1727  1.0946 -1.1249
  669SOL    HW1 2006   2.412   3.075   2.496 -2.9484 -0.4785  2.9425
  669SOL    HW2 2007   2.448   0.114   2.461  1.0783 -1.0885 -0.5016
  670SOL     OW 2008   2.667   0.959   2.603 -0.2131 -0.1421 -0.1148
  670SOL    HW1 2009   2.761   0.943   2.558  3.0174 -1.7275 -1.4499
  670SOL    HW2 2010   2.673   0.938   2.702  1.0118  1.7244  0.1085
  671SOL     OW 2011   2.605   1.852   0.027 -0.4311  0.2762 -0.3416
  671SOL    HW1 2012   2.631   1.885   0.119 -0.3443  1.6327  0.3069
  671SOL    HW2 2013   2.683   1.805   3.088  0.9454  0.3057 -4.5065
  672SOL     OW 2014   2.508   1.659   2.210  0.4048  0.2879 -0.4040
  672SOL    HW1 2015   2.454   1.619   2.288  0.2673  0.2329  2.5288
  672SOL    HW2 2016   2.579   1.596   2.178 -0.4287 -1.8456  0.6870
  673SOL     OW 2017   2.881   1.545   1.062  0.0263  0.2219 -0.0845
  673SOL    HW1 2018   2.810   1.535   0.989 -1.0708 -0.7314  0.9495
  673SOL    HW2 2019   2.920   1.636   1.059  1.4397 -3.7135 -0.4072
  674SOL     OW 2020   1.315   1.737   2.068 -0.2484  0.2752 -0.2316
  674SOL    HW1 2021   1.373   1.822   2.042 -0.4992  3.9077 -0.2225
  674SOL    HW2 2022   1.307   1.672   1.994  0.5453  0.9491  0.8552
  675SOL     OW 2023   2.713   0.391   1.264  0.8804 -0.3498  0.2387
  675SOL    HW1 2024   2.783   0.322   1.292  1.0327 -0.6548 -0.3186
  675SOL    HW2 2025   2.669   0.376   1.174 -1.6887  0.9676  1.4909
  676SOL     OW 2026   2.870   1.296   0.516  0.7304 -0.2469  0.2160
  676SOL    HW1 2027   2.810   1.261   0.593 -2.0383 -2.6268  2.9145
  676SOL    HW2 2028   2.928   1.216   0.485  0.6625  0.6921 -0.0329
  677SOL     OW 2029   1.700   1.538   2.139 -1.0117 -0.2370 -0.0956
  677SOL    HW1 2030   1.777   1.545   2.203  0.8952 -0.1797 -5.0973
  677SOL    HW2 2031   1.728   1.468   2.071 -1.5775  1.0620 -1.5390
  678SOL     OW 2032   2.464   1.352   1.084  0.2602  0.2422  0.2721
  678SOL    HW1 2033   2.471   1.405   0.998  0.4049 -0.0390 -0.7594
  678SOL    HW2 2034   2.431   1.406   1.166 -0.7465 -2.0964 -1.4298
  679SOL     OW 2035   0.362   2.481   0.775 -0.2911 -0.3436 -0.5435
  679SOL    HW1 2036   0.404   2.532   0.854 -0.7022 -0.5421  2.4656
  679SOL    HW2 2037   0.319   2.397   0.817 -2.5269  0.2655 -2.6030
  680SOL     OW 2038   2.724   1.863   1.091  0.2191 -0.0021  0.0210
  680SOL    HW1 2039   2.821   1.851   1.063  0.4409 -2.5733  0.5387
  680SOL    HW2 2040   2.696   1.957   1.109 -0.9722 -1.7435 -2.7534
  681SOL     OW 2041   0.907   0.896   1.278  0.5476 -0.2175  0.0750
  681SOL    HW1 2042   0.991   0.903   1.334 -1.9381  1.9565 -3.6147
  681SOL    HW2 2043   0.839   0.838   1.319  2.5313 -1.3328  1.9074
  682SOL     OW 2044   1.678   0.031   0.746 -0.4118 -0.1913  0.1222
  682SOL    HW1 2045   1.653   0.026   0.848  1.8370  2.0059  2.0999
  682SOL    HW2 2046   1.594   0.006   0.690 -2.5037 -0.1564  0.0695
  683SOL     OW 2047   2.374   1.393   1.617  0.1156 -0.7872 -0.2617
  683SOL    HW1 2048   2.339   1.469   1.675 -3.1437 -1.8062 -2.4049
  683SOL    HW2 2049   2.472   1.379   1.642 -1.8041  1.1734 -0.4591
  684SOL     OW 2050   0.032   1.760   1.636 -0.7590  0.5858 -0.3274
  684SOL    HW1 2051   3.110   1.693   1.564 -3.3270  0.6043  0.5887
  684SOL    HW2 2052   0.130   1.738   1.666  1.7945 -2.7717  0.9513
  685SOL     OW 2053   2.036   1.744   0.324  0.1733  0.0539  0.3733
  685SOL    HW1 2054   2.059   1.747   0.425  0.8538 -0.6681  0.4561
  685SOL    HW2 2055   2.048   1.657   0.276  0.6120  0.7586 -0.7071
  686SOL     OW 2056   2.758   0.254   0.810 -0.2699  0.4180 -0.2079
  686SOL    HW1 2057   2.821   0.323   0.854 -1.0227 -2.0215  0.7940
  686SOL    HW2 2058   2.784   0.225   0.719  0.4001  0.7740 -0.0383
  687SOL     OW 2059   1.674   0.075   2.666  0.3880 -0.2018  0.1437
  687SOL    HW1 2060   1.617   0.129   2.735 -2.6992  0.8933  1.0689
  687SOL    HW2 2061   1.750   0.029   2.714  0.5987  0.5364  1.0551
  688SOL     OW 2062   1.544   1.979   2.358 -0.3797  0.4211  0.4315
  688SOL    HW1 2063   1.576   1.881   2.358 -0.8782 -0.0923 -1.2073
  688SOL    HW2 2064   1.486   1.998   2.275 -1.6502  1.3217  0.3011
  689SOL     OW 2065   2.629   1.430   2.092 -0.2024  0.5845  0.0167
  689SOL    HW1 2066   2.715   1.427   2.138 -0.6753 -2.4183 -4.0261
  689SOL    HW2 2067   2.650   1.462   1.999 -1.0096 -1.7871 -1.0383
  690SOL     OW 2068   1.747   2.028   1.065  0.0433 -0.7221  0.3132
  690SOL    HW1 2069   1.721   1.995   1.158  0.3671  1.5274  0.0620
  690SOL    HW2 2070   1.800   1.958   1.012  1.0259  0.4515  0.7412
  691SOL     OW 2071   0.479   1.289   0.867 -0.2642 -0.5529  0.3067
  691SOL    HW1 2072   0.555   1.221   0.861 -0.5127  1.1146 -1.8814
  691SOL    HW2 2073   0.394   1.256   0.913 -2.3592  0.7178  2.0024
  692SOL     OW 2074   2.556   3.065   2.206  1.0471 -0.0017  0.1010
  692SOL    HW1 2075   2.515   0.005   2.128  1.3510 -2.7006 -0.0925
  692SOL    HW2 2076   2.507   3.082   2.298 -0.4922 -2.5281  0.5470
  693SOL     OW 2077   0.089   1.632   2.333  0.3018  0.6106  0.3511
  693SOL    HW1 2078   0.081   1.554   2.405  2.1567 -1.4587  0.5570
  693SOL    HW2 2079   0.186   1.650   2.312 -1.2308 -2.6473  0.8458
  694SOL     OW 2080   2.231   0.087   1.280  0.5106 -0.0720  0.5920
  694SOL    HW1 2081   2.202   0.007   1.338 -0.3748 -1.1575  1.0433
  694SOL    HW2 2082   2.238   0.170   1.337 -0.6523 -0.3830 -0.4655
  695SOL     OW 2083   1.128   0.930   2.977 -0.5716 -0.6428  0.0275
  695SOL    HW1 2084   1.098   0.919   3.077 -0.5374  0.5267  1.6763
  695SOL    HW2 2085   1.169   0.843   2.945  0.2086 -0.5387 -0.1174
  696SOL     OW 2086   1.810   0.189   2.004  0.3262  0.2008 -0.1786
  696SOL    HW1 2087   1.840   0.284   2.025 -0.6142 -2.0426  0.6728
  696SOL    HW2 2088   1.769   0.174   1.912 -0.2749 -0.4859 -0.6038
  697SOL     OW 2089   1.606   0.106   2.169 -0.1889  0.0282 -0.1375
  697SOL    HW1 2090   1.611   0.140   2.264  0.1994  2.6784 -2.1350
  697SOL    HW2 2091   1.686   0.131   2.119 -2.4720  2.5520  1.3392
  698SOL     OW 2092   1.690   1.753   2.417 -0.1300 -0.0728  0.4966
  698SOL    HW1 2093   1.693   1.700   2.503 -1.0388 -0.0181 -0.5323
  698SOL    HW2 2094   1.775   1.728   2.368 -1.1859 -0.2011 -0.2946
  699SOL     OW 2095   1.935   0.673   0.434  0.1148  0.4523 -0.1722
  699SOL    HW1 2096   1.935   0.697   0.337 -2.3550 -0.6980  1.3206
  699SOL    HW2 2097   1.837   0.650   0.459  1.5573  0.1856 -0.1775
  700SOL     OW 2098   1.404   3.034   0.119 -0.0175 -0.6365  0.4036
  700SOL    HW1 2099   1.477   3.000   0.184 -0.9814 -1.1906 -1.2814
  700SOL    HW2 2100   1.313   2.996   0.138  0.5971  1.1273 -2.9402
  701SOL     OW 2101   0.102   0.367   1.339 -0.0372  0.7975 -0.0963
  701SOL    HW1 2102   0.040   0.342   1.263  2.1437 -1.4650 -3.1228
  701SOL    HW2 2103   0.197   0.348   1.313  2.4514 -0.9102 -0.2201
  702SOL     OW 2104   1.818   0.170   1.562 -0.3140 -0.5081  0.2903
  702SOL    HW1 2105   1.778   0.176   1.652  0.1769 -1.6965  0.8089
  702SOL    HW2 2106   1.820   0.073   1.529 -1.5559 -1.6289  1.6432
  703SOL     OW 2107   2.893   0.871   1.296  0.0329 -0.4580 -0.0966
  703SOL    HW1 2108   2.839   0.789   1.310  0.7662  0.3489 -1.6842
  703SOL    HW2 2109   2.868   0.948   1.360 -2.4468  0.4056 -0.7963
  704SOL     OW 2110   0.779   2.257   1.369  0.4991 -0.5818 -0.4388
  704SOL    HW1 2111   0.865   2.313   1.372  1.1445  1.8433  0.5377
  704SOL    HW2 2112   0.722   2.272   1.288  2.1122  0.0104  0.1885
  705SOL     OW 2113   0.370   1.684   2.292  0.0955  0.3890  0.2894
  705SOL    HW1 2114   0.412   1.724   2.209 -1.4576  1.4990 -1.0759
  705SOL    HW2 2115   0.401   1.738   2.375 -0.0961  0.3363 -1.2930
  706SOL     OW 2116   2.727   0.303   3.065  0.1214 -0.3214 -0.1808
  706SOL    HW1 2117   2.632   0.283   3.098  0.2674  0.6579  0.8258
  706SOL    HW2 2118   2.771   0.226   3.012  1.5213 -1.7228  0.8023
  707SOL     OW 2119   1.806   2.637   2.474  0.0462 -0.4433 -0.2114
  707SOL    HW1 2120   1.845   2.730   2.469  1.0849 -3.3450  0.1508
  707SOL    HW2 2121   1.720   2.632   2.422 -0.7351 -0.7595 -0.5550
  708SOL     OW 2122   0.471   2.398   1.720  0.6543  0.0566 -0.3780
  708SOL    HW1 2123   0.550   2.391   1.779 -0.1584  0.6272  1.5337
  708SOL    HW2 2124   0.382   2.393   1.769 -0.5411  0.5296  3.9143
  709SOL     OW 2125   0.209   0.951   1.858  0.2009 -0.0246 -0.2026
  709SOL    HW1 2126   0.122   1.006   1.834 -1.0237  0.7537 -1.5006
  709SOL    HW2 2127   0.171   0.867   1.905  1.4260  0.0396  0.0414
  710SOL     OW 2128   0.053   0.506   1.561  0.1486 -0.5592  0.0815
  710SOL    HW1 2129   0.075   0.455   1.474  0.4585 -0.5951  0.0076
  710SOL    HW2 2130   0.024   0.601   1.537  1.6212  1.5086  3.2886
  711SOL     OW 2131   3.015   2.552   1.127  0.5141  0.1491 -0.2829
  711SOL    HW1 2132   3.051   2.467   1.174 -0.0053 -1.2390 -0.4916
  711SOL    HW2 2133   3.054   2.566   1.035 -0.4115 -0.9574 -0.4922
  712SOL     OW 2134   0.363   0.071   2.446 -0.0672 -0.3466 -0.0118
  712SOL    HW1 2135   0.358   0.011   2.529  1.5313  1.1621 -2.0653
  712SOL    HW2 2136   0.406   0.161   2.469 -0.1353  2.4635 -1.4407
  713SOL     OW 2137   2.355   0.237   0.389 -0.1833  0.4209 -0.9367
  713SOL    HW1 2138   2.275   0.297   0.370 -1.3378 -0.0630  0.5633
  713SOL    HW2 2139   2.439   0.273   0.341  1.9300 -1.9042  0.3346
  714SOL     OW 2140   1.704   1.700   0.093  0.2732  0.3571 -0.9765
  714SOL    HW1 2141   1.645   1.730   0.170  3.6823 -0.1197  1.1199
  714SOL    HW2 2142   1.738   1.606   0.121  0.7304  0.3263 -3.1755
  715SOL     OW 2143   3.091   0.310   0.636  0.4175 -0.2717 -0.3253
  715SOL    HW1 2144   3.061   0.213   0.638 -0.7573 -0.3856  1.8835
  715SOL    HW2 2145   3.082   0.345   0.728  0.8545 -1.4657 -2.6434
  716SOL     OW 2146   1.228   0.568   1.975  0.3894  0.6590  1.0241
  716SOL    HW1 2147   1.271   0.490   1.926  0.3551  1.2326 -2.3191
  716SOL    HW2 2148   1.162   0.530   2.040  2.5783 -1.1296 -0.2599
  717SOL     OW 2149   0.465   0.353   2.952 -0.5571  0.2455  0.6358
  717SOL    HW1 2150   0.395   0.420   2.934  2.8123 -1.8596  0.3508
  717SOL    HW2 2151   0.558   0.396   2.925  3.3991  0.0531  0.5638
  718SOL     OW 2152   1.029   0.673   0.120  0.1913  0.0764  0.3575
  718SOL    HW1 2153   1.039   0.774   0.113  1.4935 -0.3409 -0.9427
  718SOL    HW2 2154   1.122   0.632   0.146  2.7929 -0.0719  0.5066
  719SOL     OW 2155   2.638   2.545   2.682 -0.2844  0.1083 -0.0145
  719SOL    HW1 2156   2.689   2.477   2.626  3.6630 -0.0790 -0.5588
  719SOL    HW2 2157   2.560   2.519   2.747  0.1377  0.1939 -0.2105
  720SOL     OW 2158   1.383   0.628   1.189 -0.0521 -0.7290  0.1527
  720SOL    HW1 2159   1.310   0.607   1.257  0.3194  0.0718 -2.9351
  720SOL    HW2 2160   1.439   0.547   1.166 -0.5658  1.3949  1.9173
  721SOL     OW 2161   3.080   2.753   1.294  0.2691  0.2979 -0.1997
  721SOL    HW1 2162   3.051   2.827   1.233 -1.7518 -1.4936  2.1208
  721SOL    HW2 2163   3.077   2.661   1.244 -2.2321 -2.8942 -0.1419
  722SOL     OW 2164   0.926   1.518   2.939 -0.1282  0.1359 -0.0599
  722SOL    HW1 2165   0.836   1.519   2.991 -0.8594  1.5443  1.4870
  722SOL    HW2 2166   1.001   1.569   2.990  1.3330 -1.7362  2.5522
  723SOL     OW 2167   2.028   0.282   0.616 -0.3022  0.4187 -0.0359
  723SOL    HW1 2168   2.130   0.280   0.639 -0.9426 -0.1670  0.5844
  723SOL    HW2 2169   1.992   0.371   0.644 -0.1952 -3.2166 -0.4784
  724SOL     OW 2170   0.696   2.209   0.036 -0.2091  0.6876 -0.1868
  724SOL    HW1 2171   0.745   2.148   0.102 -0.0269 -1.4121 -0.7034
  724SOL    HW2 2172   0.677   2.298   0.080 -1.1635 -0.9117  1.9534
  725SOL     OW 2173   0.178   0.810   1.179 -0.2289 -0.3381 -0.1536
  725SOL    HW1 2174   0.093   0.864   1.157  0.0111  3.1322 -1.8698
  725SOL    HW2 2175   0.215   0.840   1.268 -3.2401  0.1434  1.8888
  726SOL     OW 2176   2.609   0.696   0.396 -0.1146 -0.2850 -0.2820
  726SOL    HW1 2177   2.678   0.770   0.372  2.1032  0.2931 -0.1190
  726SOL    HW2 2178   2.585   0.695   0.498 -1.5369  3.4350 -0.4679
  727SOL     OW 2179   1.931   1.213   2.541 -0.0008 -0.3799  0.0212
  727SOL    HW1 2180   1.941   1.317   2.551  2.4853  1.1849 -0.4283
  727SOL    HW2 2181   1.948   1.162   2.626 -0.2194 -0.4643 -2.6431
  728SOL     OW 2182   1.816   3.028   1.448 -0.4182 -0.6473  0.7106
  728SOL    HW1 2183   1.907   2.984   1.430 -0.7253  0.6386 -0.4292
  728SOL    HW2 2184   1.739   2.970   1.479  0.5637 -1.6862 -0.1854
  729SOL     OW 2185   2.298   0.854   2.339  0.6536  0.1330 -0.0851
  729SOL    HW1 2186   2.298   0.796   2.421 -1.4397  3.1615 -2.4265
  729SOL    HW2 2187   2.237   0.933   2.355 -0.1820 -3.2571  0.5072
  730SOL     OW 2188   1.143   0.964   1.430 -0.4403 -0.6901  0.6057
  730SOL    HW1 2189   1.153   1.062   1.412  1.4931 -0.7566  0.6347
  730SOL    HW2 2190   1.236   0.920   1.422 -0.9059  0.0454 -1.6616
  731SOL     OW 2191   0.389   0.300   0.095 -0.4470  0.1277  0.4118
  731SOL    HW1 2192   0.458   0.338   0.163  1.2671  1.7728 -0.4697
  731SOL    HW2 2193   0.421   0.324   3.111 -0.0451 -0.8868 -1.2287
  732SOL     OW 2194   0.239   0.516   0.288 -0.0156 -0.1813  0.8851
  732SOL    HW1 2195   0.327   0.567   0.288  1.0521  1.7341 -0.0908
  732SOL    HW2 2196   0.235   0.466   0.376  1.2488 -0.0349 -1.2990
  733SOL     OW 2197   1.666   1.584   2.628  0.0754  0.1749  0.0340
  733SOL    HW1 2198   1.637   1.487   2.631  3.0613  1.0569  0.9430
  733SOL    HW2 2199   1.664   1.622   2.719 -1.1745 -4.1074 -0.4634
  734SOL     OW 2200   3.095   1.901   2.580  0.1230  0.2319 -0.1561
  734SOL    HW1 2201   0.053   1.944   2.526 -1.0971 -0.6848  0.2163
  734SOL    HW2 2202   0.021   1.886   2.676 -1.0823  0.1217 -2.6800
  735SOL     OW 2203   1.926   0.517   1.243  0.0012 -0.4503  0.0062
  735SOL    HW1 2204   1.980   0.455   1.181  1.3982  0.7239  1.0577
  735SOL    HW2 2205   1.988   0.557   1.312  2.7645  2.5297  0.9165
  736SOL     OW 2206   1.613   1.911   3.040 -0.3664 -0.2376  0.0187
  736SOL    HW1 2207   1.660   1.846   3.107  0.3643 -1.3833  1.0169
  736SOL    HW2 2208   1.670   1.992   3.028 -1.8888  1.3431 -2.3985
  737SOL     OW 2209   2.960   0.459   0.443 -0.5996 -0.1653  0.4801
  737SOL    HW1 2210   3.006   0.551   0.426  0.0540  0.7915 -2.5303
  737SOL    HW2 2211   3.011   0.398   0.508  0.2140  2.7516 -0.8256
  738SOL     OW 2212   0.499   1.962   1.838  0.0931  0.2497 -0.7728
  738SOL    HW1 2213   0.494   2.030   1.763 -0.1427 -1.5409  1.5320
  738SOL    HW2 2214   0.501   1.861   1.818 -0.9033 -1.6708  1.3993
  739SOL     OW 2215   1.200   2.792   2.348 -0.0768  0.5381 -0.3033
  739SOL    HW1 2216   1.122   2.724   2.333 -3.0860 -2.9536  0.2766
  739SOL    HW2 2217   1.253   2.765   2.426 -0.6823  0.6357 -0.9685
  740SOL     OW 2218   1.652   2.380   1.577 -0.1419 -0.0156  0.1452
  740SOL    HW1 2219   1.712   2.313   1.525  2.6175  0.6780 -2.4391
  740SOL    HW2 2220   1.655   2.350   1.675  0.3790 -1.1472  1.0771
  741SOL     OW 2221   2.361   0.758   0.288 -0.1740 -0.0797  0.1425
  741SOL    HW1 2222   2.444   0.744   0.339 -1.4224 -0.2974 -0.4430
  741SOL    HW2 2223   2.287   0.780   0.353 -1.2452  1.5601  2.3165
  742SOL     OW 2224   0.990   2.545   0.096  0.3413  0.1654 -0.5400
  742SOL    HW1 2225   0.994   2.497   0.008 -0.8265 -1.5448  1.5538
  742SOL    HW2 2226   1.049   2.500   0.165  0.9759  0.2629 -0.2907
  743SOL     OW 2227   2.442   0.960   2.140 -0.7079 -0.1199  0.6842
  743SOL    HW1 2228   2.403   0.907   2.219  0.0023 -0.1490 -0.3429
  743SOL    HW2 2229   2.511   1.036   2.166  2.1627 -2.2144  2.6304
  744SOL     OW 2230   2.541   0.443   0.696  0.0856  0.9019  0.1063
  744SOL    HW1 2231   2.451   0.393   0.687 -1.4391 -0.3980  2.7190
  744SOL    HW2 2232   2.619   0.384   0.727  0.4249 -0.3880 -2.5350
  745SOL     OW 2233   2.621   1.285   1.653 -0.2402 -0.1947 -0.6406
  745SOL    HW1 2234   2.615   1.191   1.692  2.1253  1.7810 -0.1722
  745SOL    HW2 2235   2.677   1.351   1.715  1.2512  1.2713  1.8453
  746SOL     OW 2236   1.440   1.276   0.704 -0.1772 -0.4240 -0.3970
  746SOL    HW1 2237   1.441   1.378   0.727 -0.5519 -1.3385  0.4212
  746SOL    HW2 2238   1.346   1.240   0.690  1.3211  0.1938  0.0126
  747SOL     OW 2239   1.376   1.675   1.619  0.0992  0.0803  0.0411
  747SOL    HW1 2240   1.410   1.770   1.623  0.2651  0.4096  0.1796
  747SOL    HW2 2241   1.352   1.646   1.713 -0.2104 -0.4866  0.8115
  748SOL     OW 2242   0.313   2.771   3.057 -0.3597 -0.7689 -0.1385
  748SOL    HW1 2243   0.392   2.707   3.071  0.2203 -0.5695  2.6065
  748SOL    HW2 2244   0.239   2.752   0.013 -0.7756 -1.1740  3.0557
  749SOL     OW 2245   0.459   1.305   2.536  0.0917 -0.3037 -0.1351
  749SOL    HW1 2246   0.525   1.254   2.478 -3.2297 -0.1263  2.6612
  749SOL    HW2 2247   0.402   1.373   2.481 -0.8408  0.6788  0.1495
  750SOL     OW 2248   1.888   0.829   2.165 -0.0385  0.3166 -0.2094
  750SOL    HW1 2249   1.984   0.799   2.154  0.9421 -0.8115  0.3236
  750SOL    HW2 2250   1.826   0.756   2.124  0.2245  0.4544 -1.8659
  751SOL     OW 2251   2.570   0.349   0.263 -0.1156  0.1669 -0.0968
  751SOL    HW1 2252   2.567   0.335   0.160  0.3248  0.1031 -0.9855
  751SOL    HW2 2253   2.574   0.448   0.293 -0.3595  0.4756  2.2979
  752SOL     OW 2254   0.244   2.280   0.905 -0.2747  0.1233  0.2388
  752SOL    HW1 2255   0.163   2.220   0.908 -0.5999 -1.0470 -0.6107
  752SOL    HW2 2256   0.266   2.316   1.001  1.6365  0.6754  1.0345
  753SOL     OW 2257   1.070   2.606   1.162 -0.2600  0.2078 -0.2373
  753SOL    HW1 2258   1.025   2.542   1.228  0.8133 -1.1243  1.3549
  753SOL    HW2 2259   1.015   2.640   1.084  1.1979 -0.2930  0.4427
  754SOL     OW 2260   0.141   3.111   1.957 -0.0850  0.0619  0.2192
  754SOL    HW1 2261   0.096   0.084   1.986 -2.6179 -0.6765  0.6110
  754SOL    HW2 2262   0.115   3.094   1.860  0.5942 -0.3757 -1.0069
  755SOL     OW 2263   2.171   0.778   0.516 -0.3453 -0.6374 -0.1471
  755SOL    HW1 2264   2.071   0.746   0.503 -0.4071 -0.8951 -0.5312
  755SOL    HW2 2265   2.204   0.762   0.615 -1.4538 -1.0029 -0.4753
  756SOL     OW 2266   2.128   2.321   2.665  0.5011  0.0149  0.1988
  756SOL    HW1 2267   2.102   2.390   2.736  0.6618  0.2541  0.4879
  756SOL    HW2 2268   2.081   2.340   2.575 -0.6375 -1.1557 -0.5417
  757SOL     OW 2269   1.833   0.122   0.538 -0.0423 -0.9828  0.2292
  757SOL    HW1 2270   1.907   0.181   0.574 -2.1968 -0.6035  0.5352
  757SOL    HW2 2271   1.762   0.097   0.605 -1.7699 -0.4601  0.6106
  758SOL     OW 2272   2.334   0.620   1.314  0.3260 -0.3273 -0.1272
  758SOL    HW1 2273   2.362   0.562   1.393 -1.0124 -0.8636 -1.1399
  758SOL    HW2 2274   2.324   0.570   1.222 -3.4243 -0.1908 -2.6059
  759SOL     OW 2275   2.382   0.492   1.072 -0.0250 -0.0994  0.2360
  759SOL    HW1 2276   2.440   0.409   1.048  1.5964 -1.6315 -1.9597
  759SOL    HW2 2277   2.416   0.581   1.034  0.3781  0.2192  2.1956
  760SOL     OW 2278   2.113   1.257   1.167 -0.2160  0.0154  0.0119
  760SOL    HW1 2279   2.125   1.298   1.259  0.8759  2.2767 -2.6102
  760SOL    HW2 2280   2.079   1.163   1.175 -0.8263 -0.6860 -0.5349
  761SOL     OW 2281   0.602   0.414   0.279  0.3071  0.1536 -0.2806
  761SOL    HW1 2282   0.704   0.452   0.274  2.5960  2.3520 -2.0476
  761SOL    HW2 2283   0.540   0.497   0.291 -0.8928  1.0885 -0.9252
  762SOL     OW 2284   1.007   1.926   1.005 -0.0045 -0.1023  0.1200
  762SOL    HW1 2285   1.016   1.970   1.094  0.8260  0.7264 -0.8207
  762SOL    HW2 2286   0.909   1.913   0.979  0.9397 -0.7530  1.6300
  763SOL     OW 2287   1.412   0.875   1.449  0.5962  0.4763 -0.0362
  763SOL    HW1 2288   1.471   0.884   1.532  5.1884  1.2606 -2.7516
  763SOL    HW2 2289   1.449   0.947   1.385 -4.7963  1.2937  1.0492
  764SOL     OW 2290   0.319   1.615   2.667 -0.2224 -0.7217 -0.4679
  764SOL    HW1 2291   0.233   1.570   2.657  3.2544 -0.3301 -0.3706
  764SOL    HW2 2292   0.323   1.701   2.608  0.0596  1.1641 -1.4633
  765SOL     OW 2293   0.826   2.615   1.546  0.3270  0.1303  0.2850
  765SOL    HW1 2294   0.800   2.644   1.453 -1.0185  3.1358 -0.2440
  765SOL    HW2 2295   0.868   2.695   1.595 -2.0257  1.4440 -1.8848
  766SOL     OW 2296   2.724   2.381   2.452 -0.0399 -0.1591 -0.0734
  766SOL    HW1 2297   2.706   2.296   2.504 -0.2810  2.2932 -1.4746
  766SOL    HW2 2298   2.721   2.370   2.353  1.2617  0.5197  0.1933
  767SOL     OW 2299   1.507   1.143   2.309 -0.2050 -0.5874  0.4712
  767SOL    HW1 2300   1.490   1.155   2.212  0.4068 -1.6529  0.4326
  767SOL    HW2 2301   1.448   1.211   2.358 -0.7018  2.3715  2.0999
  768SOL     OW 2302   1.302   1.912   0.200  0.0731 -0.4781 -0.4903
  768SOL    HW1 2303   1.365   1.839   0.230 -3.0912  1.0979 -1.7363
  768SOL    HW2 2304   1.352   1.986   0.143  1.1140  0.5266 -1.1069
  769SOL     OW 2305   0.338   2.067   1.434  0.3607 -0.1096 -0.4411
  769SOL    HW1 2306   0.312   2.087   1.338  1.6190 -0.5447  1.3863
  769SOL    HW2 2307   0.255   2.034   1.483 -0.4140  1.7699 -0.3947
  770SOL     OW 2308   1.554   0.971   2.796  0.0097 -0.3641  0.0335
  770SOL    HW1 2309   1.464   1.017   2.798  0.7437  1.1866 -1.0994
  770SOL    HW2 2310   1.593   0.991   2.702  0.8135 -0.1827 -1.7651
  771SOL     OW 2311   0.137   2.951   2.184  0.8252  0.2419 -0.3549
  771SOL    HW1 2312   0.208   2.878   2.181  1.8657  0.9272  3.7189
  771SOL    HW2 2313   0.132   3.006   2.100 -2.8989 -0.0726 -1.3606
  772SOL     OW 2314   2.244   2.122   1.812  0.1211 -0.7783  0.3127
  772SOL    HW1 2315   2.294   2.074   1.882 -1.2225  1.7202 -0.3184
  772SOL    HW2 2316   2.144   2.098   1.806 -0.6070 -0.4383  0.7403
  773SOL     OW 2317   0.496   1.810   1.494 -0.3863 -0.5770  0.0013
  773SOL    HW1 2318   0.426   1.746   1.454  1.0149 -0.7355  3.0274
  773SOL    HW2 2319   0.480   1.908   1.468  0.7363 -1.9560 -2.7490
  774SOL     OW 2320   1.421   0.555   2.690 -0.1642  0.5802 -0.8401
  774SOL    HW1 2321   1.387   0.462   2.671  1.6666  2.3332  0.6658
  774SOL    HW2 2322   1.395   0.588   2.780 -1.3347  2.3803  1.5277
  775SOL     OW 2323   1.958   2.773   3.076 -0.2509 -0.1069 -0.2169
  775SOL    HW1 2324   1.879   2.842   3.079  0.4758 -0.9904 -1.6241
  775SOL    HW2 2325   1.976   2.757   2.978  0.5223  2.5588 -1.5231
  776SOL     OW 2326   0.102   0.703   1.950  0.4375 -0.4362 -0.5323
  776SOL    HW1 2327   0.021   0.688   2.009 -2.7328  2.9555 -1.0924
  776SOL    HW2 2328   0.161   0.621   1.954  1.9507 -0.8998  0.0139
  777SOL     OW 2329   2.325   1.987   2.043 -0.3293 -0.1018 -0.1994
  777SOL    HW1 2330   2.300   1.899   2.093 -1.0885 -3.1863  0.2618
  777SOL    HW2 2331   2.290   2.066   2.098  0.1197 -3.0884 -3.1646
  778SOL     OW 2332   1.918   1.108   2.127  0.1693  0.0575  0.0369
  778SOL    HW1 2333   1.882   1.172   2.200  1.5418  0.9819  2.1971
  778SOL    HW2 2334   1.892   1.007   2.139  0.9163 -0.4106 -1.2675
  779SOL     OW 2335   2.591   1.136   0.204  0.2663  0.1722 -0.4002
  779SOL    HW1 2336   2.661   1.198   0.170 -2.0289  0.4015  0.5651
  779SOL    HW2 2337   2.511   1.124   0.144 -0.8770  1.8031 -1.5044
  780SOL     OW 2338   2.597   0.392   2.833 -0.6735  0.2063 -0.0750
  780SOL    HW1 2339   2.674   0.342   2.882  1.5711 -2.8185  1.9007
  780SOL    HW2 2340   2.524   0.326   2.803 -0.6579  0.8933 -0.3056
  781SOL     OW 2341   0.105   2.001   1.577 -0.0463 -0.5261 -0.4119
  781SOL    HW1 2342   0.047   2.068   1.631  0.5566  1.3172 -0.2090
  781SOL    HW2 2343   0.090   1.905   1.608 -3.3587 -1.6008 -0.9691
  782SOL     OW 2344   2.394   2.503   2.959  0.1631  0.6408  0.7936
  782SOL    HW1 2345   2.376   2.475   2.863  0.9671 -0.8307 -1.8588
  782SOL    HW2 2346   2.416   2.414   3.010  3.0409 -2.8422 -2.3990
  783SOL     OW 2347   0.546   1.324   1.406 -0.1833  0.0037  0.4720
  783SOL    HW1 2348   0.631   1.300   1.458  0.1386  0.0621 -0.5379
  783SOL    HW2 2349   0.568   1.404   1.345  0.5314  0.0578  1.3618
  784SOL     OW 2350   1.742   0.749   2.866  0.2531  0.3088  0.1302
  784SOL    HW1 2351   1.818   0.760   2.796  1.0762 -0.4664 -1.0211
  784SOL    HW2 2352   1.661   0.811   2.847 -0.7120 -1.1245  0.2984
  785SOL     OW 2353   2.544   2.638   0.845 -0.0679 -0.3609 -0.0794
  785SOL    HW1 2354   2.558   2.545   0.801  0.6597  0.8404  2.5912
  785SOL    HW2 2355   2.455   2.677   0.812 -2.1659 -2.3845 -0.5226
  786SOL     OW 2356   0.799   2.052   2.173  0.4066  0.4497 -0.1005
  786SOL    HW1 2357   0.817   2.099   2.083 -2.5338  1.2062 -1.9021
  786SOL    HW2 2358   0.842   2.094   2.257  0.7656  0.3425 -0.9314
  787SOL     OW 2359   1.224   0.790   1.000 -0.0304  0.3917  0.5393
  787SOL    HW1 2360   1.278   0.751   1.076 -1.2726  0.0423 -2.9649
  787SOL    HW2 2361   1.281   0.807   0.916  0.1667 -1.0529  0.9807
  788SOL     OW 2362   3.079   0.777   0.553  0.1510 -0.0342 -0.0235
  788SOL    HW1 2363   0.057   0.820   0.576 -1.1266 -0.2341 -1.8621
  788SOL    HW2 2364   3.086   0.737   0.460  1.1406  3.3820 -1.7675
  789SOL     OW 2365   0.026   1.932   1.326  0.1614  0.8262  0.5447
  789SOL    HW1 2366   3.084   2.011   1.286 -0.1454  3.3301 -1.4207
  789SOL    HW2 2367   0.050   1.955   1.421  0.7870 -0.6699  0.8312
  790SOL     OW 2368   1.229   0.806   2.091  0.2490 -0.2231 -0.0390
  790SOL    HW1 2369   1.232   0.708   2.061 -0.7631 -1.9761  0.4186
  790SOL    HW2 2370   1.286   0.817   2.176  2.5085  1.1243 -1.0697
  791SOL     OW 2371   1.319   0.418   0.481  0.3920 -0.3100 -0.0633
  791SOL    HW1 2372   1.383   0.350   0.443  3.6986 -1.4594 -1.3021
  791SOL    HW2 2373   1.221   0.397   0.457 -2.9664  1.5769  1.8843
  792SOL     OW 2374   1.540   2.846   1.831  0.0774 -0.4332  0.4904
  792SOL    HW1 2375   1.456   2.814   1.879 -2.4132 -0.5366  3.0616
  792SOL    HW2 2376   1.563   2.776   1.756 -0.0119 -1.5402 -1.6576
  793SOL     OW 2377   1.235   0.404   0.743  0.4356 -0.3235  0.3468
  793SOL    HW1 2378   1.163   0.464   0.786 -0.9757  0.3298  1.5013
  793SOL    HW2 2379   1.247   0.421   0.641 -1.4506  3.1927  0.6906
  794SOL     OW 2380   0.787   0.999   1.985  0.3796  0.3932 -0.6043
  794SOL    HW1 2381   0.686   1.024   1.971 -3.9320 -0.0113  1.2385
  794SOL    HW2 2382   0.846   1.066   1.938 -1.2726 -1.3657 -0.9346
  795SOL     OW 2383   0.226   2.053   2.507  0.2070 -0.1181 -0.0823
  795SOL    HW1 2384   0.301   2.074   2.438 -0.0897 -2.4516 -0.7932
  795SOL    HW2 2385   0.195   2.125   2.562  1.7161 -4.1556 -2.6987
  796SOL     OW 2386   2.579   1.177   2.193 -0.7868 -0.1605 -0.2553
  796SOL    HW1 2387   2.596   1.186   2.294 -0.4134 -2.6761 -1.6950
  796SOL    HW2 2388   2.594   1.270   2.134  0.5697  1.1588 -1.8983
  797SOL     OW 2389   2.990   2.592   2.870 -0.1509 -0.6235  0.0488
  797SOL    HW1 2390   3.091   2.608   2.863 -0.2704  0.2304  0.5676
  797SOL    HW2 2391   2.962   2.558   2.779  0.0761  0.1335  2.4051
  798SOL     OW 2392   0.161   2.368   2.255  0.3916  0.8766  0.6729
  798SOL    HW1 2393   0.135   2.467   2.242  0.1523  0.2248 -0.2846
  798SOL    HW2 2394   0.072   2.318   2.271  0.2239  1.5866  4.1221
  799SOL     OW 2395   0.485   2.346   2.841  0.2472  0.1089  0.1108
  799SOL    HW1 2396   0.545   2.328   2.921  0.6360 -2.8644  1.3819
  799SOL    HW2 2397   0.392   2.300   2.859 -1.0319  1.8790  0.2343
  800SOL     OW 2398   1.087   1.657   0.198 -0.1217 -0.3602 -0.3473
  800SOL    HW1 2399   1.003   1.600   0.204 -2.8059 -2.7606 -1.0348
  800SOL    HW2 2400   1.146   1.657   0.282  0.3112  0.3771  1.0232
  801SOL     OW 2401   1.850   1.409   1.384 -0.6282  0.2128 -0.2778
  801SOL    HW1 2402   1.823   1.313   1.381 -0.5415 -3.9749 -0.8666
  801SOL    HW2 2403   1.941   1.414   1.428  0.0674 -2.8382 -0.4630
  802SOL     OW 2404   2.886   1.355   0.237 -0.3226  0.1574  0.5191
  802SOL    HW1 2405   2.886   1.356   0.342  1.3885 -0.6398  1.2463
  802SOL    HW2 2406   2.952   1.284   0.202  0.1124 -0.1532  1.8180
  803SOL     OW 2407   1.049   1.827   2.794 -0.9162 -0.2826  0.4846
  803SOL    HW1 2408   1.055   1.737   2.844 -1.2296 -0.3705 -1.2340
  803SOL    HW2 2409   1.103   1.842   2.709 -0.7162 -0.7489  1.6729
  804SOL     OW 2410   1.834   1.425   0.139  0.2772  0.0624 -0.0703
  804SOL    HW1 2411   1.763   1.357   0.141 -0.1938  1.8894  1.7283
  804SOL    HW2 2412   1.914   1.394   0.198  0.1007 -3.4829 -0.9722
  805SOL     OW 2413   2.596   1.798   2.658 -0.2703  0.0915 -0.0134
  805SOL    HW1 2414   2.574   1.847   2.568 -1.1543 -0.5843 -0.7129
  805SOL    HW2 2415   2.683   1.832   2.694 -0.1560 -1.6820 -1.1972
  806SOL     OW 2416   0.291   2.958   0.504 -0.5212 -0.4674 -0.1054
  806SOL    HW1 2417   0.309   3.014   0.414  1.6196  3.4701 -2.8021
  806SOL    HW2 2418   0.381   2.931   0.549  4.7181 -0.8901  0.9915
  807SOL     OW 2419   2.029   1.508   2.795  0.1843  0.8082  0.1841
  807SOL    HW1 2420   2.037   1.609   2.797 -1.7064  0.0306 -1.6647
  807SOL    HW2 2421   1.970   1.488   2.881  0.6114  0.7259  1.5286
  808SOL     OW 2422   3.002   1.533   0.509  0.4246 -0.1848 -0.2365
  808SOL    HW1 2423   2.981   1.433   0.513  0.9413 -0.2771  1.0002
  808SOL    HW2 2424   2.930   1.590   0.557  0.1943 -1.5051  3.3794
  809SOL     OW 2425   2.401   1.087   3.060  0.5829 -0.3807  0.2821
  809SOL    HW1 2426   2.436   0.992   3.082  2.3418 -0.3630  1.5145
  809SOL    HW2 2427   2.332   1.121   0.018  0.6914 -0.1237 -0.8729
  810SOL     OW 2428   0.428   1.288   0.223  0.2093 -0.6158 -0.4113
  810SOL    HW1 2429   0.476   1.300   0.133  0.5028 -0.7992 -2.1594
  810SOL    HW2 2430   0.328   1.290   0.212  0.8032  0.6786  0.3259
  811SOL     OW 2431   1.251   2.471   1.481 -0.0899  0.4053  0.3169
  811SOL    HW1 2432   1.289   2.550   1.427 -0.9473 -0.1509 -1.9231
  811SOL    HW2 2433   1.316   2.388   1.482  1.9848 -0.0244 -2.4151
  812SOL     OW 2434   0.906   2.487   1.788 -1.1656  0.5503  0.0910
  812SOL    HW1 2435   0.858   2.504   1.699  1.1168 -0.3736  0.6852
  812SOL    HW2 2436   1.008   2.459   1.774  1.7334 -1.0158 -1.1105
  813SOL     OW 2437   1.392   0.168   2.039 -0.0224 -0.5742  1.0118
  813SOL    HW1 2438   1.481   0.131   2.069 -2.3344 -0.2425  2.3140
  813SOL    HW2 2439   1.347   0.197   2.125 -2.2146 -1.7861 -1.8616
  814SOL     OW 2440   1.255   2.318   2.668 -0.1808 -0.6388 -0.0328
  814SOL    HW1 2441   1.299   2.344   2.757 -1.4311  3.6022 -0.6513
  814SOL    HW2 2442   1.325   2.277   2.604  0.9325 -0.7221  1.0639
  815SOL     OW 2443   0.912   0.173   2.469 -0.4368 -0.1942  0.0929
  815SOL    HW1 2444   0.958   0.114   2.398 -0.4165  0.2717  0.4529
  815SOL    HW2 2445   0.825   0.213   2.436  0.7591 -0.8920  1.3757
  816SOL     OW 2446   2.086   0.476   2.982 -0.3166  0.2923  0.1303
  816SOL    HW1 2447   2.135   0.565   2.969  0.3322  1.0058 -0.0315
  816SOL    HW2 2448   2.069   0.421   2.899 -0.0305 -3.5612 -1.5135
  817SOL     OW 2449   2.289   0.383   2.376 -0.8013  0.1954  0.6226
  817SOL    HW1 2450   2.368   0.372   2.314 -0.0628  3.2526  1.6339
  817SOL    HW2 2451   2.211   0.428   2.333  2.2815 -0.9730  0.7582
  818SOL     OW 2452   1.709   0.254   0.122  0.1119 -0.0125 -0.0644
  818SOL    HW1 2453   1.745   0.349   0.112 -1.6610 -0.7367  1.4580
  818SOL    HW2 2454   1.778   0.184   0.110 -1.9900  0.5590  2.1624
  819SOL     OW 2455   2.327   1.819   2.821  0.3852  0.1944 -0.4540
  819SOL    HW1 2456   2.226   1.825   2.816  4.0447  0.0843 -0.6191
  819SOL    HW2 2457   2.364   1.820   2.919 -0.1089 -0.4597  1.4001
  820SOL     OW 2458   0.130   1.944   0.059 -0.0191 -0.3567  0.0201
  820SOL    HW1 2459   0.063   2.021   0.054  1.0981  0.0303 -0.5912
  820SOL    HW2 2460   0.149   1.921   0.157  0.7389  0.9241  1.1900
  821SOL     OW 2461   0.353   2.894   0.848  0.1670  0.6790  0.6111
  821SOL    HW1 2462   0.385   2.870   0.759 -0.4252  0.3147  4.5013
  821SOL    HW2 2463   0.309   2.984   0.841  1.1564 -2.6090 -0.5494
  822SOL     OW 2464   2.799   2.779   3.072 -0.1443  0.1116  0.4643
  822SOL    HW1 2465   2.732   2.703   3.078  4.9624  2.5420  0.2762
  822SOL    HW2 2466   2.862   2.761   2.995 -1.6260  1.8695  0.5321
  823SOL     OW 2467   1.329   0.302   2.694 -0.1407 -0.3449  0.1447
  823SOL    HW1 2468   1.278   0.225   2.656 -0.4500 -1.4577 -1.1816
  823SOL    HW2 2469   1.422   0.274   2.732 -0.4545  2.8826 -0.0610
  824SOL     OW 2470   2.574   2.077   2.031  0.0273  0.4286 -0.1761
  824SOL    HW1 2471   2.625   1.999   2.075 -2.5204  0.6550  1.0475
  824SOL    HW2 2472   2.475   2.046   2.028  0.4203 -0.7041 -2.0575
  825SOL     OW 2473   2.988   2.150   2.560 -0.3099  0.0584  0.5346
  825SOL    HW1 2474   3.002   2.051   2.590  2.1840 -0.9138 -0.2826
  825SOL    HW2 2475   3.056   2.218   2.598 -0.6361 -0.9084  1.2402
  826SOL     OW 2476   2.384   1.485   2.411  0.1345 -0.1385  0.3591
  826SOL    HW1 2477   2.381   1.382   2.402 -1.3268 -0.5624  0.6859
  826SOL    HW2 2478   2.302   1.519   2.459 -0.5997 -0.8165 -0.4487
  827SOL     OW 2479   2.437   2.313   1.356 -0.0600 -0.4087 -0.5537
  827SOL    HW1 2480   2.404   2.381   1.286  2.4574 -1.8240  3.0930
  827SOL    HW2 2481   2.499   2.361   1.417  0.0273  0.0650 -0.4761
  828SOL     OW 2482   0.254   0.059   1.410 -0.1823 -0.3290 -0.3952
  828SOL    HW1 2483   0.182   0.074   1.487 -3.4495 -1.0329  1.3821
  828SOL    HW2 2484   0.352   0.080   1.440  1.7861 -4.1693  0.3945
  829SOL     OW 2485   1.474   2.290   2.479 -0.3786  0.1425  0.4170
  829SOL    HW1 2486   1.521   2.204   2.508 -0.8503  1.7040  0.9707
  829SOL    HW2 2487   1.545   2.346   2.430  0.1216 -2.4329  0.1669
  830SOL     OW 2488   0.644   0.379   0.582  0.1680 -0.7572  0.3114
  830SOL    HW1 2489   0.628   0.436   0.497  1.6304  1.5159  0.8117
  830SOL    HW2 2490   0.654   0.447   0.660 -0.8763  0.4875  1.7460
  831SOL     OW 2491   2.721   1.360   2.792 -0.5276 -0.0290 -0.1777
  831SOL    HW1 2492   2.820   1.330   2.770  0.4126  0.7394  0.4290
  831SOL    HW2 2493   2.671   1.383   2.709  1.1008 -0.3714 -0.8262
  832SOL     OW 2494   1.493   1.945   2.047  0.2976 -0.4428  0.4130
  832SOL    HW1 2495   1.434   1.999   2.111  1.3177 -3.9277 -1.8602
  832SOL    HW2 2496   1.564   2.000   1.998 -0.8388 -1.1388  0.7161
  833SOL     OW 2497   0.688   0.270   2.344 -0.5233  0.1867 -0.1190
  833SOL    HW1 2498   0.619   0.334   2.369 -1.1402  0.5182  0.0224
  833SOL    HW2 2499   0.643   0.181   2.321  0.6984  1.1167 -1.8592
  834SOL     OW 2500   0.732   1.074   1.626 -0.5430  0.1330 -0.5061
  834SOL    HW1 2501   0.657   1.031   1.575  0.3419  2.3967  1.6731
  834SOL    HW2 2502   0.817   1.015   1.631  3.3678 -1.2396 -1.4355
  835SOL     OW 2503   2.800   0.954   3.057 -0.0551 -0.2064  0.3412
  835SOL    HW1 2504   2.831   0.894   2.977 -0.1439 -0.3586 -0.4380
  835SOL    HW2 2505   2.744   1.037   3.030  0.7657  2.0772  0.0822
  836SOL     OW 2506   1.156   1.645   0.507  0.0828  0.2076 -0.4745
  836SOL    HW1 2507   1.062   1.683   0.492  0.3996  0.1065 -0.6503
  836SOL    HW2 2508   1.213   1.714   0.555 -2.8802 -1.8325  1.0877
  837SOL     OW 2509   1.681   1.516   0.936 -0.3791  0.7341 -0.1203
  837SOL    HW1 2510   1.751   1.544   1.004 -2.8624  1.0367  1.5528
  837SOL    HW2 2511   1.596   1.564   0.972  2.7334  0.1156 -2.9018
  838SOL     OW 2512   1.282   1.375   2.102  0.4245  0.3471 -0.3085
  838SOL    HW1 2513   1.226   1.302   2.149  0.4602 -0.1868  1.0291
  838SOL    HW2 2514   1.346   1.424   2.164 -0.3265 -1.3623 -1.0807
  839SOL     OW 2515   0.715   2.090   2.606  0.1830  0.6466  0.4459
  839SOL    HW1 2516   0.721   2.062   2.706 -0.2920  2.0117  2.4882
  839SOL    HW2 2517   0.650   2.171   2.592 -1.0197  0.7190  0.4835
  840SOL     OW 2518   0.662   2.411   0.450  0.1097  0.2851 -0.1251
  840SOL    HW1 2519   0.705   2.497   0.490 -0.8245 -0.4137  2.6377
  840SOL    HW2 2520   0.668   2.328   0.512  2.6092 -1.6917  0.4744
  841SOL     OW 2521   1.997   2.792   0.359 -0.1494  0.0953  0.1234
  841SOL    HW1 2522   2.056   2.738   0.420 -1.3869 -0.1283 -0.9474
  841SOL    HW2 2523   1.925   2.726   0.318 -1.0627 -1.6441  0.7730
  842SOL     OW 2524   0.740   0.436   2.937  0.2287  0.5302  0.0525
  842SOL    HW1 2525   0.801   0.351   2.943 -1.0113 -2.2516  0.0469
  842SOL    HW2 2526   0.773   0.520   2.980 -0.5111 -1.4686  0.3809
  843SOL     OW 2527   1.217   0.145   0.788 -0.2493  0.5238  0.5090
  843SOL    HW1 2528   1.244   0.137   0.887 -0.8367  2.5709  0.3043
  843SOL    HW2 2529   1.232   0.240   0.758  3.7043  0.6980 -1.5407
  844SOL     OW 2530   2.985   2.885   2.630 -0.0648 -0.1955 -0.1377
  844SOL    HW1 2531   2.966   2.839   2.541  0.1660 -1.7477 -1.4857
  844SOL    HW2 2532   2.910   2.862   2.692  2.0120  0.1508 -3.6763
  845SOL     OW 2533   2.808   2.354   0.918  0.1242  0.1449  0.5820
  845SOL    HW1 2534   2.854   2.426   0.857 -1.7948 -1.7013  0.0086
  845SOL    HW2 2535   2.784   2.391   1.012  1.2180  0.4812  0.8005
  846SOL     OW 2536   2.941   1.717   2.407  0.4178 -0.3644  0.0952
  846SOL    HW1 2537   2.897   1.676   2.491  2.3655  0.4575  0.4786
  846SOL    HW2 2538   3.041   1.710   2.400 -1.7501  0.7486  0.3929
  847SOL     OW 2539   1.298   0.611   1.452 -0.7358  0.0037 -0.1499
  847SOL    HW1 2540   1.339   0.705   1.462  1.8026  0.4402 -2.0140
  847SOL    HW2 2541   1.367   0.537   1.468 -0.5028  0.9625  0.8225
  848SOL     OW 2542   2.483   2.987   3.039  0.3566 -0.3414  0.8584
  848SOL    HW1 2543   2.436   2.979   0.019 -0.8673 -2.1214  2.2583
  848SOL    HW2 2544   2.563   3.055   3.043  2.0710  0.0641  0.3247
  849SOL     OW 2545   0.752   2.801   2.854 -0.2646 -0.4746  0.5269
  849SOL    HW1 2546   0.708   2.817   2.942  0.5263 -0.8022 -1.7100
  849SOL    HW2 2547   0.853   2.828   2.845  0.5997 -1.3911 -2.5693
  850SOL     OW 2548   1.159   2.824   1.318 -0.7908  0.1826 -0.2021
  850SOL    HW1 2549   1.252   2.781   1.330  0.2569 -1.2048 -0.6712
  850SOL    HW2 2550   1.112   2.758   1.255  0.1536 -0.9019 -0.9042
  851SOL     OW 2551   2.711   0.383   2.026  0.6014  0.4031 -0.1148
  851SOL    HW1 2552   2.703   0.482   2.026  0.5897  0.3944  2.1100
  851SOL    HW2 2553   2.793   0.360   1.970 -0.9076  1.5953 -2.2865
  852SOL     OW 2554   2.105   1.076   2.365 -0.1717 -0.0925  0.0321
  852SOL    HW1 2555   2.064   1.089   2.274 -1.1568 -0.1603  0.9819
  852SOL    HW2 2556   2.048   1.112   2.439  0.1820  0.8017  0.2676
  853SOL     OW 2557   2.770   0.065   0.483 -0.1155 -0.4771  0.3381
  853SOL    HW1 2558   2.750   0.168   0.476 -1.9244  1.8970  0.8718
  853SOL    HW2 2559   2.731   0.027   0.567  0.6790  1.2152 -0.7534
  854SOL     OW 2560   2.180   1.166   2.010 -0.1144 -0.1381  0.1501
  854SOL    HW1 2561   2.085   1.168   2.050 -1.5826 -1.7311 -0.3821
  854SOL    HW2 2562   2.249   1.133   2.075  0.4013  0.7764  2.5333
  855SOL     OW 2563   0.939   2.374   0.413  0.4390  0.1275 -0.5491
  855SOL    HW1 2564   0.840   2.358   0.433  0.1851 -1.1112  1.1393
  855SOL    HW2 2565   0.974   2.310   0.335 -0.0888 -1.8253 -1.4140
  856SOL     OW 2566   0.065   0.321   2.727 -0.2506 -0.1097  0.3740
  856SOL    HW1 2567   0.100   0.225   2.738  0.0883 -1.8427 -1.5958
  856SOL    HW2 2568   3.092   0.338   2.779  0.4782  2.5515 -0.6466
  857SOL     OW 2569   1.008   0.018   1.742  0.0081  1.0572  0.4099
  857SOL    HW1 2570   1.020   0.115   1.739  1.4543 -1.0434  1.5719
  857SOL    HW2 2571   1.043   3.085   1.662  0.4702 -1.9138 -0.4395
  858SOL     OW 2572   2.420   2.292   1.674 -0.0237  0.0609 -0.5067
  858SOL    HW1 2573   2.450   2.266   1.583  0.8768 -1.8021  2.4785
  858SOL    HW2 2574   2.348   2.234   1.717  0.8399 -1.9296  0.0335
  859SOL     OW 2575   1.157   2.413   1.731  0.3606 -0.1057 -0.2140
  859SOL    HW1 2576   1.240   2.381   1.783  2.1415  0.1001 -0.0938
  859SOL    HW2 2577   1.178   2.452   1.635  0.1912  1.0911 -0.9354
  860SOL     OW 2578   2.349   2.658   0.083  0.0948  0.0336  0.9895
  860SOL    HW1 2579   2.340   2.600   0.001  0.5772 -1.1597  0.8609
  860SOL    HW2 2580   2.266   2.719   0.089  0.6031  0.9030 -0.4319
  861SOL     OW 2581   2.330   2.798   0.814  0.3100  0.0981 -0.2275
  861SOL    HW1 2582   2.335   2.831   0.716  0.1028  0.1519 -1.5101
  861SOL    HW2 2583   2.313   2.875   0.874  0.6769  0.3245 -2.9257
  862SOL     OW 2584   1.863   2.909   2.503 -0.3426 -0.2447  0.6591
  862SOL    HW1 2585   1.941   2.946   2.440  1.3851  0.1915  1.5050
  862SOL    HW2 2586   1.841   2.971   2.579 -2.3926 -0.0967 -1.9538
  863SOL     OW 2587   3.060   0.739   0.834  0.4637 -0.3031 -0.0739
  863SOL    HW1 2588   3.072   0.837   0.861  1.9078 -0.0934 -1.2652
  863SOL    HW2 2589   3.061   0.740   0.732  0.0299 -0.5915  1.1907
  864SOL     OW 2590   0.334   2.739   2.182 -0.4359  0.1334  0.2161
  864SOL    HW1 2591   0.404   2.812   2.156 -2.2028  1.3302  1.7960
  864SOL    HW2 2592   0.324   2.740   2.285 -0.2930 -2.1850  0.9084
  865SOL     OW 2593   0.578   1.350   2.778  0.3643 -0.3170  0.2693
  865SOL    HW1 2594   0.531   1.410   2.849 -1.9287  0.5918  0.0991
  865SOL    HW2 2595   0.516   1.340   2.697 -0.2387 -0.6076 -1.2332
  866SOL     OW 2596   2.926   0.804   2.867  0.2091  0.4594 -0.4107
  866SOL    HW1 2597   2.910   0.821   2.767  0.0321  1.5743 -3.4851
  866SOL    HW2 2598   2.971   0.714   2.882 -3.7017  1.9545  1.3624
  867SOL     OW 2599   3.016   0.033   2.710  0.1542  0.1291 -0.2848
  867SOL    HW1 2600   3.106   0.051   2.746  0.8807 -2.1693 -1.0545
  867SOL    HW2 2601   3.009   3.049   2.680 -0.2321 -0.0145 -2.0306
  868SOL     OW 2602   1.041   3.098   0.610 -0.0361 -0.3018 -0.2941
  868SOL    HW1 2603   1.094   0.037   0.679 -0.3850 -3.1157 -0.1153
  868SOL    HW2 2604   1.070   3.002   0.615  2.6389  0.4645 -1.0050
  869SOL     OW 2605   1.434   1.550   0.756  0.0493  1.1351 -0.3328
  869SOL    HW1 2606   1.448   1.606   0.675 -1.1766 -1.9892  3.2592
  869SOL    HW2 2607   1.424   1.610   0.839 -1.1748  2.0774 -0.6047
  870SOL     OW 2608   1.872   1.841   0.915 -0.4016 -0.1165 -0.2679
  870SOL    HW1 2609   1.975   1.872   0.902  2.8323  1.0930  1.0745
  870SOL    HW2 2610   1.871   1.757   0.971 -2.5730 -0.9699 -0.1350
  871SOL     OW 2611   1.192   1.468   1.499  0.2379  0.0156  0.2578
  871SOL    HW1 2612   1.240   1.541   1.549 -0.0346 -2.2358 -1.2510
  871SOL    HW2 2613   1.092   1.490   1.490  0.5911  1.6183 -0.4851
  872SOL     OW 2614   0.949   1.545   1.508  0.2135 -0.0226  0.4915
  872SOL    HW1 2615   0.900   1.604   1.443  0.7639  0.7537  0.1696
  872SOL    HW2 2616   0.911   1.453   1.510  2.7541  3.2429  0.6402
  873SOL     OW 2617   1.319   1.029   2.583 -0.1337  0.0170  0.0094
  873SOL    HW1 2618   1.312   1.071   2.674 -0.6193  1.8892 -2.8112
  873SOL    HW2 2619   1.391   0.955   2.580  2.3580 -0.5327 -0.4214
  874SOL     OW 2620   0.087   1.545   1.222  0.2198 -0.2731 -0.4341
  874SOL    HW1 2621   0.100   1.553   1.118 -0.2822 -0.0104  1.2379
  874SOL    HW2 2622   0.051   1.454   1.243  1.3152  0.7793  0.1310
  875SOL     OW 2623   2.782   3.102   0.922  0.1083 -0.2021 -0.0060
  875SOL    HW1 2624   2.807   0.075   0.879 -0.0833 -1.8731  0.7489
  875SOL    HW2 2625   2.736   3.039   0.863 -1.5585 -0.9974 -0.9277
  876SOL     OW 2626   0.845   0.709   3.032 -0.9159 -0.5147 -0.0827
  876SOL    HW1 2627   0.930   0.681   3.079  2.4973 -0.6804  2.6644
  876SOL    HW2 2628   0.780   0.758   3.093 -1.3974  0.3898 -0.8085
  877SOL     OW 2629   3.095   0.237   1.125 -0.7210  0.1774 -0.1639
  877SOL    HW1 2630   3.005   0.229   1.178  1.0643  1.2499  2.5965
  877SOL    HW2 2631   0.054   0.162   1.138  0.8139 -0.9626 -2.1968
  878SOL     OW 2632   1.624   2.306   0.084  0.1104  0.8425  0.0124
  878SOL    HW1 2633   1.688   2.333   0.159 -0.0029  2.6683  0.7984
  878SOL    HW2 2634   1.668   2.246   0.014  0.2581 -1.4593 -1.4417
  879SOL     OW 2635   2.241   1.716   1.448  0.1901 -0.6448  0.1626
  879SOL    HW1 2636   2.214   1.682   1.542  1.2355 -0.1378  0.2536
  879SOL    HW2 2637   2.313   1.792   1.461  2.4043  1.2795  1.2872
  880SOL     OW 2638   0.854   0.370   1.574 -0.5102  0.4827 -0.0770
  880SOL    HW1 2639   0.936   0.435   1.578  0.4794  0.1518  1.4564
  880SOL    HW2 2640   0.861   0.310   1.657  0.4120  0.6607 -0.3612
  881SOL     OW 2641   1.040   1.926   0.133 -0.1677  0.1020 -0.6426
  881SOL    HW1 2642   1.139   1.943   0.154  1.4634 -2.3613  0.9780
  881SOL    HW2 2643   1.024   1.820   0.124 -1.0984 -4.1394 -0.8665
  882SOL     OW 2644   2.157   0.922   1.453 -0.1555 -0.2513  0.4248
  882SOL    HW1 2645   2.168   1.009   1.502 -1.4090  0.9521  1.2006
  882SOL    HW2 2646   2.247   0.887   1.418  0.9716 -0.2223 -0.4460
  883SOL     OW 2647   1.437   0.595   2.216  0.3103 -0.1109 -0.3874
  883SOL    HW1 2648   1.417   0.685   2.258  2.7696 -0.8718 -2.9874
  883SOL    HW2 2649   1.358   0.566   2.155 -1.1666  0.5281 -1.1367
  884SOL     OW 2650   2.471   0.302   3.112 -0.2243 -0.1271  0.3360
  884SOL    HW1 2651   2.457   0.267   3.021  0.2248  0.8855  1.1226
  884SOL    HW2 2652   2.383   0.326   0.044  0.2932  2.7443  0.4906
  885SOL     OW 2653   0.209   1.927   0.607  0.3757 -0.2422  0.1674
  885SOL    HW1 2654   0.252   2.007   0.556  1.2831  0.0873 -1.3615
  885SOL    HW2 2655   0.107   1.919   0.596 -2.4698  2.8344  2.0728
  886SOL     OW 2656   1.827   1.467   2.972 -0.0107  0.2432 -0.4851
  886SOL    HW1 2657   1.792   1.372   2.959  0.0816  1.5470  0.5670
  886SOL    HW2 2658   1.820   1.500   3.071  1.5273  0.7828  1.2286
  887SOL     OW 2659   1.529   0.420   1.687 -0.0462 -0.2458  0.2159
  887SOL    HW1 2660   1.601   0.492   1.691  3.9741 -0.4204  2.4312
  887SOL    HW2 2661   1.493   0.402   1.594 -2.8506  0.1232 -0.9047
  888SOL     OW 2662   3.036   1.168   1.520  0.4768  0.3401  0.1143
  888SOL    HW1 2663   0.000   1.168   1.456 -2.6378  0.8355 -0.2660
  888SOL    HW2 2664   2.946   1.134   1.484 -1.0010  0.8680  0.4035
  889SOL     OW 2665   0.074   2.520   0.916 -0.2018  0.0776  0.1804
  889SOL    HW1 2666   0.132   2.597   0.939  1.7685  0.6559 -2.4724
  889SOL    HW2 2667   0.115   2.430   0.953 -0.2618 -1.7616  0.3728
  890SOL     OW 2668   0.248   2.742   2.438  0.3535  0.2260  0.0869
  890SOL    HW1 2669   0.260   2.649   2.473  1.8882 -1.5677  0.9307
  890SOL    HW2 2670   0.201   2.803   2.506 -0.7481  0.8861 -1.4122
  891SOL     OW 2671   0.507   1.781   0.226 -0.3629  0.2421  0.1483
  891SOL    HW1 2672   0.564   1.857   0.268  0.6409 -0.0295  1.5929
  891SOL    HW2 2673   0.487   1.706   0.293  0.0906 -3.5561 -0.9935
  892SOL     OW 2674   0.011   2.328   1.272  0.3038 -0.1442 -0.2618
  892SOL    HW1 2675   3.112   2.330   1.375  0.1664 -2.1306  1.0850
  892SOL    HW2 2676   3.055   2.259   1.239 -0.4557 -1.2397  0.5895
  893SOL     OW 2677   0.487   0.107   1.520  0.3690  0.3392 -0.2922
  893SOL    HW1 2678   0.533   0.025   1.553 -1.1136  1.3648  1.8150
  893SOL    HW2 2679   0.465   0.167   1.601 -2.0264  3.7769 -1.3642
  894SOL     OW 2680   2.451   1.514   0.854 -0.4409  0.1683 -0.2860
  894SOL    HW1 2681   2.447   1.616   0.866 -0.2775 -0.2157 -1.0642
  894SOL    HW2 2682   2.424   1.488   0.762  2.5775  1.0763  2.1125
  895SOL     OW 2683   2.429   2.582   1.551 -0.3533 -1.0869  0.4789
  895SOL    HW1 2684   2.368   2.513   1.601  0.3719  0.5707  3.4705
  895SOL    HW2 2685   2.520   2.559   1.573 -0.0786  1.1254 -0.0281
  896SOL     OW 2686   0.880   0.194   1.348  0.0783  0.4485 -0.1094
  896SOL    HW1 2687   0.956   0.248   1.307 -0.0580 -0.0190 -2.1604
  896SOL    HW2 2688   0.853   0.230   1.440  0.5056 -0.0991 -2.1200
  897SOL     OW 2689   0.921   1.582   1.149 -0.4776  0.2858  0.0628
  897SOL    HW1 2690   0.864   1.627   1.225 -0.4645  2.4068  3.5788
  897SOL    HW2 2691   1.008   1.632   1.128  0.9897  1.6823  0.1735
  898SOL     OW 2692   1.687   2.629   1.650 -0.0639  0.0970  0.1610
  898SOL    HW1 2693   1.672   2.531   1.616  1.2941 -2.8329 -0.5581
  898SOL    HW2 2694   1.784   2.640   1.683 -0.6714  0.1459 -0.7685
  899SOL     OW 2695   1.052   0.264   3.048 -0.1661 -0.2859  0.1107
  899SOL    HW1 2696   1.087   0.329   2.983 -2.4021  1.5853  1.1465
  899SOL    HW2 2697   1.004   0.189   2.998  0.0187  1.2047 -2.2629
  900SOL     OW 2698   1.186   2.547   2.035  0.3621  0.1372 -0.1032
  900SOL    HW1 2699   1.114   2.598   2.081  0.9035 -1.4570  0.2072
  900SOL    HW2 2700   1.151   2.473   1.978  1.7963 -0.9981  1.3175
  901SOL     OW 2701   0.842   2.075   0.268 -0.4326  0.5444 -0.0330
  901SOL    HW1 2702   0.876   2.093   0.362  1.6531  0.6589  1.8258
  901SOL    HW2 2703   0.915   2.023   0.218 -2.1598 -0.0631 -2.4483
  902SOL     OW 2704   1.453   1.083   0.905  0.1043  0.0189 -0.0836
  902SOL    HW1 2705   1.418   1.144   0.988 -0.9589  1.0577  1.8883
  902SOL    HW2 2706   1.473   1.143   0.825 -1.2772  1.3902  1.4256
  903SOL     OW 2707   2.637   1.145   2.939 -0.2965  0.6249  0.0086
  903SOL    HW1 2708   2.668   1.235   2.901 -2.5547 -0.8662  0.6538
  903SOL    HW2 2709   2.540   1.138   2.956  2.5911 -0.4717 -1.1395
  904SOL     OW 2710   0.954   1.154   0.201  0.0007 -0.0193 -0.2969
  904SOL    HW1 2711   1.020   1.225   0.163  0.2637  2.7119 -0.7912
  904SOL    HW2 2712   0.931   1.177   0.297  0.4886 -1.1882  1.5393
  905SOL     OW 2713   1.751   0.059   1.199 -0.5177  0.3608 -0.1574
  905SOL    HW1 2714   1.752   0.156   1.229  0.4711 -0.2007 -0.2472
  905SOL    HW2 2715   1.740   3.112   1.284  0.0781 -3.0459  1.9062
  906SOL     OW 2716   2.596   2.680   1.101  0.0640 -0.1658 -0.5557
  906SOL    HW1 2717   2.539   2.748   1.147  0.2884 -1.2662  0.0454
  906SOL    HW2 2718   2.569   2.677   1.001 -1.9908 -0.4448 -1.0840
  907SOL     OW 2719   1.280   1.184   0.396  0.3410 -0.5406  0.5052
  907SOL    HW1 2720   1.241   1.140   0.480 -0.2418 -1.1457  3.1403
  907SOL    HW2 2721   1.287   1.289   0.399  1.2937  0.3819 -0.9235
  908SOL     OW 2722   1.609   3.102   0.996  0.2509 -0.4286 -0.2603
  908SOL    HW1 2723   1.512   0.023   1.007 -1.0226 -0.6843 -3.2135
  908SOL    HW2 2724   1.664   0.020   1.079  0.5763  2.3963  1.1230
  909SOL     OW 2725   2.380   0.897   1.298  0.3190  0.2223 -0.0751
  909SOL    HW1 2726   2.402   0.916   1.201  0.5258  0.1410  1.1183
  909SOL    HW2 2727   2.377   0.796   1.322 -1.3796  0.1619  0.1047
  910SOL     OW 2728   2.173   0.746   2.121  0.1765 -0.4863  0.0640
  910SOL    HW1 2729   2.228   0.751   2.035 -0.1646  1.5719  0.2055
  910SOL    HW2 2730   2.226   0.768   2.206  1.4094  2.0356  2.1070
  911SOL     OW 2731   2.205   0.762   2.704  0.0066 -0.0088 -0.2845
  911SOL    HW1 2732   2.296   0.797   2.670  1.0734  2.5524 -0.1025
  911SOL    HW2 2733   2.218   0.711   2.790  1.5417  0.9145  0.0796
  912SOL     OW 2734   0.580   1.217   1.802 -0.2034  0.2957 -0.4332
  912SOL    HW1 2735   0.641   1.161   1.743  1.2277 -1.2662  2.2320
  912SOL    HW2 2736   0.528   1.290   1.757 -0.6954 -1.2256 -1.2318
  913SOL     OW 2737   3.024   2.286   1.509  0.1570 -0.4769  0.1527
  913SOL    HW1 2738   3.013   2.225   1.588 -0.1229  0.2413 -2.6206
  913SOL    HW2 2739   2.939   2.331   1.482  2.1200  1.6184  0.2520
  914SOL     OW 2740   1.681   0.772   1.821 -0.2226  0.1753 -0.8243
  914SOL    HW1 2741   1.751   0.845   1.830 -2.3056 -2.3622  0.1319
  914SOL    HW2 2742   1.718   0.697   1.762 -3.1465 -0.8332 -1.2029
  915SOL     OW 2743   2.476   1.033   1.056  0.2980  0.3558  0.2644
  915SOL    HW1 2744   2.576   1.021   1.044  0.7042  1.2555 -0.6089
  915SOL    HW2 2745   2.453   1.133   1.043 -0.9635 -0.5194 -1.4382
  916SOL     OW 2746   1.668   2.242   0.935 -0.7865  0.0129 -0.1798
  916SOL    HW1 2747   1.636   2.319   0.998  0.5791 -2.5153  1.0206
  916SOL    HW2 2748   1.701   2.164   0.987 -1.0534 -0.6498 -0.1265
  917SOL     OW 2749   1.978   2.228   2.182 -0.1521  0.2353  0.4537
  917SOL    HW1 2750   1.889   2.196   2.219 -0.8464  0.5607  1.9181
  917SOL    HW2 2751   1.969   2.275   2.094 -0.5769  1.8919  0.1383
  918SOL     OW 2752   1.988   2.426   2.428  0.3055 -0.3677  0.2774
  918SOL    HW1 2753   1.908   2.484   2.463 -2.4256  0.3832  2.8638
  918SOL    HW2 2754   1.962   2.367   2.350 -0.7518  0.0294  2.2778
  919SOL     OW 2755   1.247   0.146   1.488 -0.4127 -0.3563  0.7249
  919SOL    HW1 2756   1.296   0.083   1.547 -1.7628 -1.0721 -1.3269
  919SOL    HW2 2757   1.180   0.192   1.546 -0.7402 -0.7038  0.4276
  920SOL     OW 2758   3.043   0.413   2.462  0.2860 -0.2638 -0.2215
  920SOL    HW1 2759   0.000   0.408   2.533 -0.2079 -1.8839 -0.2793
  920SOL    HW2 2760   3.028   0.324   2.410 -0.4252 -2.7706  1.3673
  921SOL     OW 2761   3.072   1.080   1.766  0.3503 -0.5157  0.3698
  921SOL    HW1 2762   3.071   1.126   1.675  0.2593  0.5137  0.1985
  921SOL    HW2 2763   2.987   1.037   1.783  0.8448  3.3273  1.1965
  922SOL     OW 2764   2.196   2.369   0.494 -0.4272  0.1689  0.3097
  922SOL    HW1 2765   2.199   2.465   0.534  0.2081  0.0531  0.4603
  922SOL    HW2 2766   2.209   2.377   0.391 -1.9598  2.8317 -2.0286
  923SOL     OW 2767   0.617   2.183   0.577 -0.2883 -0.2779  0.1988
  923SOL    HW1 2768   0.688   2.135   0.635 -4.2437  2.0825 -1.0597
  923SOL    HW2 2769   0.528   2.190   0.622  1.4468  0.7624 -0.6000
  924SOL     OW 2770   1.079   0.924   0.135 -0.7946 -0.2134  0.1950
  924SOL    HW1 2771   1.013   0.997   0.171  0.2757  1.1902  0.3655
  924SOL    HW2 2772   1.169   0.937   0.173 -1.8814  1.1281  1.0007
  925SOL     OW 2773   2.680   0.740   1.100  0.8269 -0.5640 -0.3915
  925SOL    HW1 2774   2.698   0.693   1.193  1.3419  0.2965  3.9010
  925SOL    HW2 2775   2.599   0.705   1.051  1.0768 -1.4271 -0.3478
  926SOL     OW 2776   0.543   0.304   1.298 -0.2749 -0.0867  0.0313
  926SOL    HW1 2777   0.523   0.234   1.367  1.2334  0.6350 -0.4014
  926SOL    HW2 2778   0.483   0.291   1.220 -0.9048 -1.0698 -0.3194
  927SOL     OW 2779   0.856   1.343   2.511  0.3904  0.8729 -0.4965
  927SOL    HW1 2780   0.823   1.412   2.576 -1.4766 -0.2953 -0.6265
  927SOL    HW2 2781   0.776   1.295   2.466 -0.6116 -1.9354 -1.4583
  928SOL     OW 2782   0.232   0.692   2.487  0.1580  0.0069 -0.3660
  928SOL    HW1 2783   0.159   0.710   2.419  2.3399 -0.4626  0.0298
  928SOL    HW2 2784   0.224   0.593   2.517 -2.4062 -0.7554  1.0668
  929SOL     OW 2785   2.800   3.033   1.193  0.1542 -0.8224  0.7227
  929SOL    HW1 2786   2.819   2.933   1.188  0.2099  0.3096 -1.1089
  929SOL    HW2 2787   2.793   3.060   1.092  1.3263 -2.1355  0.2767
  930SOL     OW 2788   2.023   0.570   1.751  0.1705 -0.0199 -0.2498
  930SOL    HW1 2789   2.042   0.487   1.810 -0.6574 -0.8276 -0.4333
  930SOL    HW2 2790   2.079   0.641   1.788 -1.5756 -1.0859  0.4752
  931SOL     OW 2791   2.131   0.913   0.057 -0.0340  0.4342  0.0911
  931SOL    HW1 2792   2.087   1.000   0.033 -1.9537 -0.4168  0.3861
  931SOL    HW2 2793   2.226   0.913   0.093  1.4250 -0.8783 -0.5984
  932SOL     OW 2794   2.010   1.283   0.315  0.0975  1.1860 -0.0434
  932SOL    HW1 2795   2.055   1.199   0.353  0.6881 -0.5676  0.7305
  932SOL    HW2 2796   1.936   1.315   0.376  1.2920  1.1290 -2.0426
  933SOL     OW 2797   2.163   1.493   1.026  0.4012  0.4349  0.0687
  933SOL    HW1 2798   2.241   1.551   1.049 -0.1274  1.4957 -2.6938
  933SOL    HW2 2799   2.165   1.407   1.081  0.5527  0.6614  0.0590
  934SOL     OW 2800   1.961   1.096   2.783  0.0572  0.1009  0.3711
  934SOL    HW1 2801   2.056   1.132   2.809 -0.0362 -0.9549 -2.9049
  934SOL    HW2 2802   1.958   0.996   2.782  0.1445  1.8477  3.3855
  935SOL     OW 2803   0.167   0.956   0.616  0.0209 -0.3611 -0.1694
  935SOL    HW1 2804   0.208   0.971   0.524 -1.8870  0.1325 -0.4078
  935SOL    HW2 2805   0.119   1.041   0.642  1.5764  1.1031  2.1436
  936SOL     OW 2806   0.602   0.001   0.691  0.6007 -0.1627  0.2371
  936SOL    HW1 2807   0.595   0.030   0.786 -0.7070 -1.7228 -1.6365
  936SOL    HW2 2808   0.525   0.047   0.637 -3.3453  2.6678 -0.9124
  937SOL     OW 2809   2.890   0.039   1.793  0.0955 -0.4843 -0.3146
  937SOL    HW1 2810   2.986   0.045   1.754  1.5192  2.3019 -2.0630
  937SOL    HW2 2811   2.863   3.067   1.845 -1.0579 -1.1084 -1.4566
  938SOL     OW 2812   0.038   2.375   3.048  0.5031 -0.2322  0.1981
  938SOL    HW1 2813   3.081   2.413   2.981 -2.3025  0.8095 -3.2012
  938SOL    HW2 2814   0.042   2.407   0.033 -0.6141  0.9842  1.2200
  939SOL     OW 2815   1.212   1.452   1.164  0.2885  0.1386  0.4029
  939SOL    HW1 2816   1.198   1.375   1.228  2.5153 -0.3601  0.5341
  939SOL    HW2 2817   1.157   1.453   1.077 -0.4982  0.6892  1.9325
  940SOL     OW 2818   3.097   0.583   2.914  0.3088  0.8738  0.5050
  940SOL    HW1 2819   3.028   0.508   2.890 -1.4928 -4.3315 -3.1861
  940SOL    HW2 2820   0.000   0.581   3.014  0.1357 -0.3845  0.3744
  941SOL     OW 2821   2.287   0.352   2.645  0.3488 -0.1187  0.3092
  941SOL    HW1 2822   2.289   0.360   2.543  0.0850  0.6022  1.4039
  941SOL    HW2 2823   2.195   0.382   2.683 -0.8713 -0.7244  0.9218
  942SOL     OW 2824   1.436   0.414   0.910  0.4891 -0.4678 -0.0255
  942SOL    HW1 2825   1.386   0.410   0.824  2.9520  0.9757 -0.1381
  942SOL    HW2 2826   1.522   0.472   0.893 -2.2780 -0.3611  0.0940
  943SOL     OW 2827   1.302   1.003   1.873 -0.0907 -0.1177 -0.0468
  943SOL    HW1 2828   1.270   0.923   1.929 -0.8959 -0.5545  1.3679
  943SOL    HW2 2829   1.223   1.049   1.830  0.6017 -1.3431  1.1297
  944SOL     OW 2830   1.908   0.865   1.530  0.5168 -0.8035 -0.3282
  944SOL    HW1 2831   1.868   0.787   1.474  2.6307 -0.3588 -2.2410
  944SOL    HW2 2832   2.004   0.885   1.501 -2.7267  0.2056 -3.9176
  945SOL     OW 2833   2.813   0.106   2.889 -0.3125 -0.3267  0.2499
  945SOL    HW1 2834   2.871   0.065   2.815 -0.3321  0.4723 -0.5948
  945SOL    HW2 2835   2.799   0.039   2.966  0.3552 -0.7107  1.1225
  946SOL     OW 2836   2.773   1.448   1.807 -0.1514  0.2682  0.1206
  946SOL    HW1 2837   2.876   1.420   1.803  3.1239 -3.0645  0.1410
  946SOL    HW2 2838   2.769   1.543   1.846 -0.2995  1.8222 -1.0916
  947SOL     OW 2839   1.174   2.922   0.190 -0.1602 -0.2956 -0.2474
  947SOL    HW1 2840   1.091   2.887   0.143  2.1436  1.3415  1.1277
  947SOL    HW2 2841   1.145   3.004   0.248  1.2275  0.6001 -1.0259
  948SOL     OW 2842   2.374   1.564   1.260  0.3770  1.0220 -0.1957
  948SOL    HW1 2843   2.319   1.585   1.344  1.5660 -0.5108 -0.9694
  948SOL    HW2 2844   2.460   1.614   1.258 -1.0146 -2.3948  0.9454
  949SOL     OW 2845   0.208   1.324   3.031 -0.1852  0.0462  0.1637
  949SOL    HW1 2846   0.177   1.258   2.956  2.0355 -0.6869 -0.4734
  949SOL    HW2 2847   0.264   1.401   2.992  2.8626  3.2706 -1.1917
  950SOL     OW 2848   0.606   2.383   1.155  0.5132 -0.4523 -0.0884
  950SOL    HW1 2849   0.543   2.446   1.208  0.7629  0.4418 -1.3515
  950SOL    HW2 2850   0.610   2.418   1.056 -0.1958  1.9138 -0.5062
  951SOL     OW 2851   0.794   1.503   2.713 -0.3067  0.4947 -0.6350
  951SOL    HW1 2852   0.835   1.521   2.806 -0.7310  0.7386  0.3312
  951SOL    HW2 2853   0.713   1.446   2.726  1.8175  2.4315  0.8452
  952SOL     OW 2854   0.529   0.877   0.466 -0.1808  0.0435  0.4207
  952SOL    HW1 2855   0.512   0.804   0.534 -1.3396  0.6831 -0.2507
  952SOL    HW2 2856   0.559   0.957   0.523  0.5866  0.1625 -0.8673
  953SOL     OW 2857   2.546   2.969   2.537 -0.1042  0.3645 -0.2972
  953SOL    HW1 2858   2.577   2.881   2.501 -2.0898  0.5355 -0.5929
  953SOL    HW2 2859   2.620   3.030   2.559 -2.0125 -0.2782 -1.5660
  954SOL     OW 2860   1.829   0.850   0.743  0.3570 -0.3650  0.1318
  954SOL    HW1 2861   1.860   0.891   0.833 -0.5746 -1.4066 -1.1083
  954SOL    HW2 2862   1.823   0.912   0.664  0.7770 -0.4928  1.3084
  955SOL     OW 2863   0.650   1.949   0.418 -0.0838  0.2601  0.0670
  955SOL    HW1 2864   0.718   1.980   0.347 -2.4688 -3.8647  1.2114
  955SOL    HW2 2865   0.612   2.029   0.466 -0.4008 -0.8446 -2.1412
  956SOL     OW 2866   2.381   0.536   2.090 -0.3824 -0.4692 -0.1390
  956SOL    HW1 2867   2.281   0.532   2.116  0.9311 -0.5694  1.8642
  956SOL    HW2 2868   2.440   0.466   2.130 -0.1144 -2.0559  0.1607
  957SOL     OW 2869   1.983   2.321   1.924  0.2257  0.4195 -0.3283
  957SOL    HW1 2870   2.070   2.376   1.922 -1.1501 -0.7214  0.8869
  957SOL    HW2 2871   1.996   2.248   1.848  1.7991  1.4833 -1.8576
  958SOL     OW 2872   1.583   1.039   1.291 -0.4557  0.1051  0.4585
  958SOL    HW1 2873   1.551   1.104   1.222 -1.5269 -0.4406  4.2124
  958SOL    HW2 2874   1.655   1.087   1.349 -0.6094  0.0230 -0.7247
  959SOL     OW 2875   1.900   1.932   2.040 -0.4252  0.1171 -0.4732
  959SOL    HW1 2876   1.828   1.873   2.011  2.2637  1.1013  3.8459
  959SOL    HW2 2877   1.922   1.909   2.141  1.7524 -1.6781 -0.2525
  960SOL     OW 2878   0.669   0.843   2.844  0.1576  0.2489 -0.0208
  960SOL    HW1 2879   0.659   0.813   2.746  1.0070 -1.2442 -0.2238
  960SOL    HW2 2880   0.737   0.785   2.894  2.1145  0.6053 -0.1662
  961SOL     OW 2881   0.162   1.125   2.845 -0.3651 -0.2369  0.0520
  961SOL    HW1 2882   0.118   1.038   2.881 -2.0619 -0.1817 -0.8121
  961SOL    HW2 2883   0.238   1.096   2.781  1.9549 -2.3473  0.6773
  962SOL     OW 2884   0.936   1.655   2.504 -0.0819  0.5928  0.2802
  962SOL    HW1 2885   0.901   1.589   2.576  0.4103  0.9874  1.6429
  962SOL    HW2 2886   0.892   1.747   2.524 -0.9090 -3.4124  1.4046
  963SOL     OW 2887   3.069   2.133   0.002 -0.1089 -0.3198  0.2249
  963SOL    HW1 2888   2.990   2.123   3.048  1.5161 -1.7138 -0.0395
  963SOL    HW2 2889   0.002   2.221   3.091 -1.5949  0.9195  3.4893
  964SOL     OW 2890   1.019   1.879   1.894 -0.5213 -0.1325 -0.2078
  964SOL    HW1 2891   1.009   1.828   1.978 -2.0561 -1.4201 -2.4931
  964SOL    HW2 2892   1.011   1.820   1.808  0.1554  0.3044  1.2665
  965SOL     OW 2893   1.557   1.959   0.499 -0.4814  0.0580  0.2020
  965SOL    HW1 2894   1.554   2.047   0.444 -0.1531 -1.5546  0.7516
  965SOL    HW2 2895   1.638   1.956   0.561 -0.6049  1.5144  1.8326
  966SOL     OW 2896   3.096   1.739   3.082 -0.3174  0.1785  0.6393
  966SOL    HW1 2897   0.048   1.815   3.109  0.7737  1.1055  1.5179
  966SOL    HW2 2898   0.029   1.652   3.102 -0.0572  0.7661 -0.0545
  967SOL     OW 2899   2.126   0.015   2.332  0.3654 -0.2244  0.1073
  967SOL    HW1 2900   2.220   0.033   2.364  2.9309 -0.4055 -0.0907
  967SOL    HW2 2901   2.114   3.029   2.309  0.5030  2.1503  0.5854
  968SOL     OW 2902   0.845   0.547   0.302  0.6895  0.0027 -0.1703
  968SOL    HW1 2903   0.813   0.634   0.349 -1.1076  0.9729  1.4279
  968SOL    HW2 2904   0.923   0.572   0.247 -0.3963  1.7310 -0.4053
  969SOL     OW 2905   0.512   1.722   1.999  0.5861  0.1895 -0.0121
  969SOL    HW1 2906   0.593   1.767   2.043 -0.5437 -2.5889  0.3847
  969SOL    HW2 2907   0.528   1.624   1.976  0.4927 -1.0371  1.8971
  970SOL     OW 2908   1.820   2.565   1.275 -0.6281 -0.2633 -0.6204
  970SOL    HW1 2909   1.895   2.548   1.210  0.2731 -2.6035  0.0585
  970SOL    HW2 2910   1.864   2.584   1.364  0.0261 -1.6101 -1.8963
  971SOL     OW 2911   2.149   2.312   0.838  0.4499  0.2274  0.5842
  971SOL    HW1 2912   2.127   2.411   0.839 -2.5605  1.4555  2.7014
  971SOL    HW2 2913   2.250   2.300   0.847  0.6266  0.0435  2.7534
  972SOL     OW 2914   0.126   1.075   2.480 -0.2461 -0.0643  0.2150
  972SOL    HW1 2915   0.126   1.160   2.424  2.6820 -1.9073 -2.6437
  972SOL    HW2 2916   0.222   1.041   2.498 -2.8039  1.6548 -1.1106
  973SOL     OW 2917   0.302   0.070   0.307  0.0591 -0.7739  0.1363
  973SOL    HW1 2918   0.343   0.097   0.396  0.1732  2.3594 -2.4320
  973SOL    HW2 2919   0.310   0.145   0.237  1.0393  0.1708  0.5182
  974SOL     OW 2920   2.305   1.033   1.804 -0.1746  0.1125  0.2607
  974SOL    HW1 2921   2.280   1.086   1.721 -1.1461 -0.5914 -0.8880
  974SOL    HW2 2922   2.289   1.091   1.886  0.2864 -1.4380 -1.7012
  975SOL     OW 2923   2.980   0.054   0.659 -0.0417  0.5941 -0.5664
  975SOL    HW1 2924   2.922   0.036   0.578 -0.2426  2.1755 -0.5843
  975SOL    HW2 2925   3.049   3.092   0.669  3.4398  1.9105 -0.4521
  976SOL     OW 2926   0.141   1.870   1.068  0.2794  0.2978 -0.0903
  976SOL    HW1 2927   0.114   1.868   1.167  1.3744  2.1541 -1.6356
  976SOL    HW2 2928   0.218   1.801   1.062 -0.2753  1.2882  0.1444
  977SOL     OW 2929   0.915   1.756   0.522 -0.0127  0.2142  0.3091
  977SOL    HW1 2930   0.821   1.712   0.529 -0.6070  0.0714  0.9089
  977SOL    HW2 2931   0.911   1.856   0.500 -1.8234 -1.9911  0.7611
  978SOL     OW 2932   0.218   0.925   0.088 -0.3214  0.4723 -0.2181
  978SOL    HW1 2933   0.308   0.889   0.060 -4.0342  2.9658 -2.0343
  978SOL    HW2 2934   0.146   0.885   0.026 -1.2843 -0.8635 -3.2373
  979SOL     OW 2935   1.778   1.609   0.688 -0.3518 -0.0669 -0.6935
  979SOL    HW1 2936   1.881   1.617   0.709  2.8416 -1.8621 -2.6691
  979SOL    HW2 2937   1.722   1.583   0.773 -4.2437 -1.8075  2.5091
  980SOL     OW 2938   0.524   2.059   2.102 -0.5843 -0.3480  0.4980
  980SOL    HW1 2939   0.610   2.028   2.148 -0.8760 -0.6323  2.1049
  980SOL    HW2 2940   0.516   2.029   2.008 -0.7128  1.9458  0.0913
  981SOL     OW 2941   2.204   1.159   2.852 -0.2213  0.2951 -0.0911
  981SOL    HW1 2942   2.241   1.221   2.781  0.3806  0.7048 -2.3301
  981SOL    HW2 2943   2.270   1.128   2.922 -2.3806  1.5320  0.1165
  982SOL     OW 2944   2.916   2.728   1.772  0.2982  0.3716 -0.4506
  982SOL    HW1 2945   2.883   2.817   1.813 -2.1203  1.9789 -0.7741
  982SOL    HW2 2946   2.977   2.736   1.689 -1.2702 -3.2417  1.3033
  983SOL     OW 2947   1.665   0.201   1.781  0.1285  0.1901 -0.1838
  983SOL    HW1 2948   1.619   0.286   1.757 -1.5236 -2.4508 -0.5360
  983SOL    HW2 2949   1.602   0.124   1.783  0.7779  2.3547 -0.4940
  984SOL     OW 2950   1.919   2.817   2.775 -0.3794 -0.4889 -0.3383
  984SOL    HW1 2951   2.002   2.781   2.726 -1.5117 -1.1264  1.2839
  984SOL    HW2 2952   1.847   2.744   2.782  0.3325  0.4218 -0.7577
  985SOL     OW 2953   1.608   1.443   1.583  0.3146 -0.1358  0.4032
  985SOL    HW1 2954   1.581   1.350   1.554 -0.1435  1.3472 -0.9133
  985SOL    HW2 2955   1.523   1.495   1.612 -2.1377 -0.1945 -1.0865
  986SOL     OW 2956   2.175   2.638   2.424  0.0683  0.4642 -0.4734
  986SOL    HW1 2957   2.173   2.676   2.521 -2.4738  1.0241 -0.5233
  986SOL    HW2 2958   2.113   2.556   2.420 -2.3981 -0.4477 -0.3201
  987SOL     OW 2959   2.873   1.794   2.731 -0.0649  0.0947 -0.3263
  987SOL    HW1 2960   2.868   1.698   2.705 -1.2678  2.8985  0.6160
  987SOL    HW2 2961   2.955   1.835   2.684  0.3839 -0.9023  0.3258
  988SOL     OW 2962   3.077   0.783   1.503  0.0096  0.2905 -0.2871
  988SOL    HW1 2963   3.021   0.797   1.587  0.3602 -2.2283  0.6037
  988SOL    HW2 2964   3.019   0.787   1.422  2.7960 -2.2529  2.0555
  989SOL     OW 2965   1.818   1.119   1.415  0.1241  0.3027 -0.2595
  989SOL    HW1 2966   1.863   1.060   1.342  1.0217 -1.9393  0.8768
  989SOL    HW2 2967   1.833   1.068   1.503 -3.4037  0.8644  0.0047
  990SOL     OW 2968   2.820   0.780   0.149 -0.0011  0.0471  0.4734
  990SOL    HW1 2969   2.819   0.826   0.056 -0.4553  0.0534  0.3194
  990SOL    HW2 2970   2.799   0.681   0.134  0.7687 -2.3476  1.9517
  991SOL     OW 2971   0.500   1.711   3.088  0.1399 -0.2847  0.5184
  991SOL    HW1 2972   0.524   1.790   3.029 -1.4861 -1.4561  3.5823
  991SOL    HW2 2973   0.511   1.740   0.073  2.8838  2.8947  2.3409
  992SOL     OW 2974   2.256   1.626   1.737 -0.7138  0.1394 -0.0758
  992SOL    HW1 2975   2.164   1.610   1.774  0.1929 -0.1852  0.0886
  992SOL    HW2 2976   2.323   1.637   1.816  2.4901 -0.4890  2.0224
  993SOL     OW 2977   0.526   2.852   0.643  0.3344 -0.1030 -0.4413
  993SOL    HW1 2978   0.582   2.929   0.663 -3.2123 -5.6320 -2.4360
  993SOL    HW2 2979   0.571   2.794   0.567 -1.5180 -1.3525 -1.2493
  994SOL     OW 2980   2.684   2.190   1.559  0.6489 -0.0250  0.1491
  994SOL    HW1 2981   2.709   2.144   1.648  0.9407  0.3046  5.3495
  994SOL    HW2 2982   2.617   2.133   1.501 -1.5332  0.2916 -1.6321
  995SOL     OW 2983   2.041   1.937   2.266  0.2759  0.5812  0.2056
  995SOL    HW1 2984   2.039   2.027   2.221 -1.4620 -0.6492 -0.2619
  995SOL    HW2 2985   2.129   1.891   2.241 -2.5926  1.4994  2.5573
  996SOL     OW 2986   1.940   1.762   3.084 -0.3321  0.1433  0.5477
  996SOL    HW1 2987   1.856   1.744   0.027  1.0071  1.2030 -0.3956
  996SOL    HW2 2988   1.995   1.842   0.012  1.0924 -0.6518 -1.2144
  997SOL     OW 2989   1.353   1.350   2.391 -0.1977 -0.7123 -0.0480
  997SOL    HW1 2990   1.267   1.352   2.444  0.6557 -0.1569 -2.7444
  997SOL    HW2 2991   1.372   1.441   2.354  2.9662 -3.0488  1.0912
  998SOL     OW 2992   2.969   2.511   0.753  0.7420  0.1675 -0.1376
  998SOL    HW1 2993   2.982   2.438   0.682  2.2667 -4.0222 -2.7011
  998SOL    HW2 2994   3.062   2.538   0.792  1.2667  0.1315 -3.0877
  999SOL     OW 2995   0.096   2.639   0.633  0.0477  0.3215  0.6815
  999SOL    HW1 2996   0.170   2.585   0.682  2.4368  0.6732  0.3806
  999SOL    HW2 2997   0.109   2.652   0.534 -1.4272 -1.2562  0.0927
 1000SOL     OW 2998   1.014   2.900   2.931  0.2346 -0.8624  0.1849
 1000SOL    HW1 2999   0.983   2.872   3.023 -1.3339  1.7107 -3.0871
 1000SOL    HW2 3000   1.005   2.998   2.907  1.3745 -1.2434  0.7349
   3.11239   3.11239   3.11239
