1000 SPC/Fw water molecules t=  12.00000 step= 12000
 3000
    1SOL     OW    1   1.503   2.559   0.307 -0.5759  0.6131 -0.1471
    1SOL    HW1    2   1.519   2.624   0.231 -0.4726 -0.8823 -1.5798
    1SOL    HW2    3   1.426   2.594   0.364  1.1586  4.9099  2.2790
    2SOL     OW    4   1.515   0.846   1.907  0.1500  0.1828 -0.3182
    2SOL    HW1    5   1.492   0.776   1.840 -1.2246 -0.2458  1.6673
    2SOL    HW2    6   1.576   0.918   1.862  0.4859  1.1167 -2.8643
    3SOL     OW    7   0.797   0.061   2.882 -0.1600  0.5485 -0.9162
    3SOL    HW1    8   0.813   0.118   2.965  0.6132 -1.3511 -3.1431
    3SOL    HW2    9   0.697   0.067   2.860 -1.2930 -0.7789 -0.8342
    4SOL     OW   10   1.583   1.556   3.026  0.3276  0.0655  0.0943
    4SOL    HW1   11   1.530   1.530   0.015  1.3324 -1.8794  1.2538
    4SOL    HW2   12   1.529   1.625   2.971 -0.7961  2.7503  1.8623
    5SOL     OW   13   0.755   1.006   2.285 -0.3044  0.0795 -0.1571
    5SOL    HW1   14   0.836   0.945   2.290 -0.3776 -0.5037 -0.7039
    5SOL    HW2   15   0.787   1.100   2.318  0.1489 -1.3206 -0.3809
    6SOL     OW   16   2.302   1.089   2.479 -0.2711 -0.1759 -0.2326
    6SOL    HW1   17   2.212   1.064   2.431 -1.9590 -1.0564 -2.7952
    6SOL    HW2   18   2.342   1.175   2.440  0.7256  0.7647  1.0620
    7SOL     OW   19   0.377   0.917   1.260 -0.0026 -0.2446  0.3091
    7SOL    HW1   20   0.363   0.823   1.218 -0.5879 -1.6865  0.6835
    7SOL    HW2   21   0.372   0.990   1.188 -1.9469 -1.7844  0.8803
    8SOL     OW   22   2.093   2.753   1.819 -0.1096 -0.0039  0.7957
    8SOL    HW1   23   2.003   2.749   1.776 -0.8290 -0.2217 -1.6295
    8SOL    HW2   24   2.119   2.850   1.843  0.3737  0.4575  1.1404
    9SOL     OW   25   3.040   2.565   0.632 -0.0970 -0.0278  0.1374
    9SOL    HW1   26   3.071   2.489   0.573 -2.5734  1.6396  0.7902
    9SOL    HW2   27   0.021   2.594   0.695  0.3111 -1.4018  0.9375
   10SOL     OW   28   3.061   2.388   2.497  0.3682 -0.1738  0.0333
   10SOL    HW1   29   3.087   2.484   2.480 -0.5300  2.4224  2.2778
   10SOL    HW2   30   0.015   2.326   2.429  1.3177 -0.1116  3.0143
   11SOL     OW   31   0.408   1.633   3.032 -0.1771 -0.3570 -0.0816
   11SOL    HW1   32   0.402   1.534   3.014 -0.1340  2.7126  1.1658
   11SOL    HW2   33   0.424   1.662   0.037  0.8495  1.5996 -0.6230
   12SOL     OW   34   1.920   2.710   0.718 -0.2548  0.0656 -0.4798
   12SOL    HW1   35   1.860   2.633   0.731 -0.7831 -0.6619 -1.0890
   12SOL    HW2   36   1.999   2.715   0.785  4.2062  2.0820  0.8013
   13SOL     OW   37   0.278   0.338   2.650  0.0559  0.7020  0.1114
   13SOL    HW1   38   0.259   0.267   2.723 -2.1045  0.8442 -1.7483
   13SOL    HW2   39   0.296   0.430   2.691 -0.0690  3.3003 -1.2057
   14SOL     OW   40   1.283   1.022   1.633 -0.0223 -0.2941 -0.4873
   14SOL    HW1   41   1.229   0.964   1.690 -0.0565  1.0268 -0.8522
   14SOL    HW2   42   1.262   1.119   1.650  0.3200  1.6060  0.7550
   15SOL     OW   43   0.339   1.614   2.241 -0.3336 -0.0829  0.3043
   15SOL    HW1   44   0.261   1.573   2.188  1.0908 -1.9137  0.7142
   15SOL    HW2   45   0.423   1.563   2.224 -3.4361  1.5893  1.4066
   16SOL     OW   46   1.698   1.069   2.794  0.4301  0.0323 -0.1811
   16SOL    HW1   47   1.670   1.165   2.767 -2.5236  3.0722 -3.0510
   16SOL    HW2   48   1.786   1.059   2.847  0.2012  0.4042 -1.4516
   17SOL     OW   49   0.089   2.537   2.257 -0.3689  0.1208 -0.1705
   17SOL    HW1   50   0.026   2.597   2.206 -1.8773  0.6402  0.3771
   17SOL    HW2   51   0.091   2.447   2.214 -0.1306  0.2640 -0.7353
   18SOL     OW   52   1.449   1.206   0.686 -0.0891  0.2277 -0.3755
   18SOL    HW1   53   1.462   1.104   0.700  0.8516  0.7921  1.2397
   18SOL    HW2   54   1.359   1.228   0.640 -0.3954 -1.4143 -0.6524
   19SOL     OW   55   0.182   1.249   2.008  0.3779 -0.3239 -0.6189
   19SOL    HW1   56   0.250   1.241   1.935 -0.7580 -3.9165  0.4012
   19SOL    HW2   57   0.112   1.178   1.996  1.6111  0.1338  1.8999
   20SOL     OW   58   2.053   2.137   2.967 -0.2409 -0.4676 -0.7229
   20SOL    HW1   59   2.066   2.177   3.061 -3.9153 -1.3769 -2.8838
   20SOL    HW2   60   1.981   2.183   2.917  0.7930  0.1804  0.5472
   21SOL     OW   61   1.776   1.855   1.152 -0.1380  0.6345  0.1434
   21SOL    HW1   62   1.720   1.874   1.236 -2.3601 -0.9909  0.5391
   21SOL    HW2   63   1.828   1.769   1.162 -0.7442  0.1451  1.7501
   22SOL     OW   64   2.039   2.157   1.447 -0.0771  0.2578  0.3064
   22SOL    HW1   65   1.969   2.142   1.522 -2.0938  1.8893 -0.3409
   22SOL    HW2   66   1.991   2.175   1.359 -0.6533  0.4844 -1.2151
   23SOL     OW   67   0.002   1.019   1.187  0.2606  0.6537 -0.4784
   23SOL    HW1   68   0.013   0.962   1.270 -1.8154 -2.3806 -1.4013
   23SOL    HW2   69   3.030   0.976   1.118  0.2225 -1.0537  0.7746
   24SOL     OW   70   1.684   1.462   1.760 -0.0579 -0.1136 -0.1953
   24SOL    HW1   71   1.664   1.476   1.659 -0.0107 -1.2916  0.7019
   24SOL    HW2   72   1.774   1.494   1.791 -1.1151  2.5793  1.3557
   25SOL     OW   73   1.792   0.175   2.201  0.5253  0.2085  0.0967
   25SOL    HW1   74   1.858   0.208   2.272  1.6424  0.8893  1.9778
   25SOL    HW2   75   1.696   0.200   2.238 -0.7326 -0.1572  1.3781
   26SOL     OW   76   0.631   2.855   0.730  0.1958 -0.0681 -0.4011
   26SOL    HW1   77   0.716   2.890   0.761 -5.1048 -1.9754  3.3158
   26SOL    HW2   78   0.640   2.759   0.692 -1.3819 -0.7980  0.8780
   27SOL     OW   79   1.144   1.110   0.885  0.1954 -0.2059  0.2592
   27SOL    HW1   80   1.241   1.076   0.905  2.1443 -0.5812 -1.0111
   27SOL    HW2   81   1.140   1.201   0.929 -1.3869 -0.5555  2.5228
   28SOL     OW   82   2.062   2.411   1.132  0.3201 -0.2865 -0.1927
   28SOL    HW1   83   2.013   2.502   1.135 -3.0390 -0.3013 -1.5263
   28SOL    HW2   84   1.992   2.341   1.164 -0.3978  0.5889  0.2457
   29SOL     OW   85   2.249   2.918   2.183 -0.0185  0.4614  0.3849
   29SOL    HW1   86   2.222   2.834   2.237 -1.6400 -0.0471  0.7376
   29SOL    HW2   87   2.244   3.006   2.234  0.3787  1.9446 -0.8538
   30SOL     OW   88   0.087   2.865   2.026 -0.1425  0.1012  0.0748
   30SOL    HW1   89   0.001   2.913   1.993 -1.2110 -0.9878  0.6305
   30SOL    HW2   90   0.120   2.910   2.114  2.3672 -0.4359  1.0273
   31SOL     OW   91   0.015   1.865   2.324 -0.2145 -0.2646  0.1555
   31SOL    HW1   92   3.056   1.953   2.329  0.8392 -0.7734  2.3616
   31SOL    HW2   93   0.059   1.860   2.231 -0.9789  1.1938 -1.2510
   32SOL     OW   94   1.101   2.523   2.188 -0.6411 -0.1687  0.1934
   32SOL    HW1   95   1.039   2.590   2.232 -1.7816  2.4463 -0.0881
   32SOL    HW2   96   1.186   2.565   2.144  3.8543 -0.3995  0.8350
   33SOL     OW   97   0.266   0.377   3.046 -0.0539 -0.2550 -0.1798
   33SOL    HW1   98   0.288   0.375   0.052 -1.3823  1.5979 -0.3937
   33SOL    HW2   99   0.315   0.453   3.005 -1.1251  1.0033 -1.7928
   34SOL     OW  100   2.744   0.270   0.016 -0.4630 -0.2051  0.3943
   34SOL    HW1  101   2.698   0.207   3.044 -0.0223 -0.8024 -1.4514
   34SOL    HW2  102   2.809   0.329   3.060  2.7791  0.4199  2.5042
   35SOL     OW  103   3.050   2.563   1.757  0.4926  0.1019 -0.1771
   35SOL    HW1  104   0.041   2.595   1.794 -2.4117  0.0136 -1.0811
   35SOL    HW2  105   3.021   2.617   1.672 -0.8071  0.2173 -0.9326
   36SOL     OW  106   2.205   0.067   2.335 -0.3252 -0.0174  0.1445
   36SOL    HW1  107   2.202   0.033   2.432  2.4504 -2.3634 -0.1000
   36SOL    HW2  108   2.129   0.132   2.310 -0.0651  0.1752 -1.2481
   37SOL     OW  109   1.646   2.706   2.957  0.2744  0.3548  0.2475
   37SOL    HW1  110   1.582   2.722   2.879  3.1491 -2.4130  1.6221
   37SOL    HW2  111   1.597   2.712   3.048 -1.1171  3.1304  0.2274
   38SOL     OW  112   0.384   0.375   0.702 -0.4062  0.1259 -0.6481
   38SOL    HW1  113   0.461   0.431   0.660  1.1728  1.1736  0.9114
   38SOL    HW2  114   0.300   0.359   0.638 -1.4453  1.0853 -1.9045
   39SOL     OW  115   1.265   1.979   2.036 -0.4346 -0.3937  0.2230
   39SOL    HW1  116   1.307   1.899   1.988  2.6099  0.6993 -1.8919
   39SOL    HW2  117   1.335   2.013   2.099 -0.8673  1.2379  1.0566
   40SOL     OW  118   3.057   0.958   0.122  0.5207  0.5382  0.0428
   40SOL    HW1  119   2.970   0.903   0.115  0.7051  1.6047 -0.9331
   40SOL    HW2  120   3.053   1.038   0.056 -0.0337  2.7574  2.2071
   41SOL     OW  121   1.427   0.355   1.815  0.2655 -0.3748  0.1494
   41SOL    HW1  122   1.447   0.357   1.720 -0.3910  1.9838  1.5657
   41SOL    HW2  123   1.338   0.409   1.834 -2.3069  1.0643 -0.0484
   42SOL     OW  124   2.435   0.178   1.190 -0.0414 -0.3393 -0.3043
   42SOL    HW1  125   2.420   0.205   1.090  1.3815 -0.7357 -1.4562
   42SOL    HW2  126   2.397   0.241   1.255 -0.8633 -2.8682  1.3830
   43SOL     OW  127   1.498   0.685   1.700  0.0761  0.1637 -0.2671
   43SOL    HW1  128   1.546   0.711   1.611 -2.1355  0.4599 -2.2566
   43SOL    HW2  129   1.510   0.586   1.721  0.3609 -0.2342  3.0458
   44SOL     OW  130   0.403   0.716   0.038 -0.2605 -0.3808  0.1106
   44SOL    HW1  131   0.401   0.652   0.109  0.1058  2.1939 -2.5645
   44SOL    HW2  132   0.314   0.759   0.036  3.8556 -1.7059  0.7073
   45SOL     OW  133   0.696   1.672   1.968 -0.2497  0.5424  0.3724
   45SOL    HW1  134   0.751   1.615   1.907  3.2603  1.6591 -0.1152
   45SOL    HW2  135   0.685   1.755   1.920  0.6231 -5.3900 -0.0330
   46SOL     OW  136   2.238   2.520   1.815  0.0478  0.2646  0.3186
   46SOL    HW1  137   2.273   2.500   1.909  0.7856 -0.5619 -3.3505
   46SOL    HW2  138   2.193   2.614   1.810 -2.1672  1.6895 -2.9557
   47SOL     OW  139   0.351   1.844   1.601  0.2518  0.0239  0.2157
   47SOL    HW1  140   0.311   1.755   1.638 -1.0180 -1.6545  2.5101
   47SOL    HW2  141   0.378   1.902   1.678  0.5490 -0.6034 -0.2125
   48SOL     OW  142   1.025   2.688   2.725  0.1890 -0.3837  0.0671
   48SOL    HW1  143   0.971   2.645   2.649 -1.5442 -0.8589  1.4687
   48SOL    HW2  144   0.971   2.687   2.808  3.2832 -0.7120 -0.1546
   49SOL     OW  145   2.573   1.453   2.008 -0.0088  0.0364 -0.4352
   49SOL    HW1  146   2.658   1.488   1.969  0.9787 -0.6573  1.7982
   49SOL    HW2  147   2.566   1.355   1.994 -0.5203  1.1166  0.3502
   50SOL     OW  148   0.989   2.723   0.615 -0.1689 -0.2673 -0.3010
   50SOL    HW1  149   1.077   2.775   0.615 -1.9308  1.3799 -0.0519
   50SOL    HW2  150   0.921   2.773   0.564 -0.3915 -0.3608  0.4344
   51SOL     OW  151   1.236   0.174   1.242  0.1974 -0.6074  0.5275
   51SOL    HW1  152   1.206   0.273   1.242  1.8738  2.7878 -1.6838
   51SOL    HW2  153   1.178   0.124   1.179 -1.1703  1.4712 -0.1393
   52SOL     OW  154   0.215   0.821   0.525 -0.2290 -0.0356 -0.1534
   52SOL    HW1  155   0.154   0.814   0.444 -0.1016  2.6197 -0.5608
   52SOL    HW2  156   0.238   0.918   0.537 -0.5853 -1.2171  2.2916
   53SOL     OW  157   1.279   0.044   2.717 -0.3428  0.4653 -0.2159
   53SOL    HW1  158   1.190   0.002   2.741 -1.6173 -1.0212 -1.7439
   53SOL    HW2  159   1.292   0.042   2.616 -1.2454 -0.5826 -0.4345
   54SOL     OW  160   2.217   0.534   2.309 -0.2095  0.1955  0.0967
   54SOL    HW1  161   2.302   0.484   2.281  2.5941  1.1330  0.9671
   54SOL    HW2  162   2.138   0.505   2.249  0.3401 -0.8379  1.3119
   55SOL     OW  163   2.669   2.713   0.205 -0.1363 -0.1138  0.3396
   55SOL    HW1  164   2.771   2.704   0.212  0.0891 -0.2553 -1.5307
   55SOL    HW2  165   2.636   2.695   0.110 -0.3931 -1.2747 -2.4070
   56SOL     OW  166   0.801   0.130   2.076 -0.3776 -0.2315 -0.1768
   56SOL    HW1  167   0.715   0.104   2.036  2.5924  0.8980  1.9395
   56SOL    HW2  168   0.791   0.150   2.176  2.0037  0.6300  1.2405
   57SOL     OW  169   1.736   0.988   2.372 -0.2928  0.6277  0.4735
   57SOL    HW1  170   1.769   1.083   2.359  0.9897 -1.7735 -0.7189
   57SOL    HW2  171   1.780   0.932   2.298  0.6838 -2.3979 -2.3710
   58SOL     OW  172   3.047   1.050   2.152 -0.0399  0.2199  0.6965
   58SOL    HW1  173   2.980   1.080   2.078 -1.0361  1.8402 -0.5818
   58SOL    HW2  174   0.017   0.975   2.118 -1.2725  0.0146 -0.0284
   59SOL     OW  175   0.519   2.622   1.563 -0.0820 -0.7449  0.4262
   59SOL    HW1  176   0.518   2.715   1.607  2.0359  0.0785  1.1902
   59SOL    HW2  177   0.560   2.636   1.472  0.8184  1.7431  2.8906
   60SOL     OW  178   1.916   2.789   0.250  0.1991  0.0747  0.0733
   60SOL    HW1  179   1.931   2.715   0.315  0.1174  3.5822  2.6304
   60SOL    HW2  180   1.995   2.853   0.240  1.7927  1.2310 -1.3661
   61SOL     OW  181   1.420   2.280   0.383  0.0693 -0.1750 -0.2373
   61SOL    HW1  182   1.470   2.293   0.472  0.6619  0.9012 -0.9848
   61SOL    HW2  183   1.461   2.347   0.317  1.0558 -0.6919  0.1967
   62SOL     OW  184   1.790   2.659   2.693 -0.3352 -0.0170  0.2872
   62SOL    HW1  185   1.733   2.609   2.763  0.6105  0.4905  1.8104
   62SOL    HW2  186   1.886   2.625   2.700 -1.5109 -0.8062  0.8524
   63SOL     OW  187   2.209   0.847   0.700  0.6187 -0.6001 -0.4293
   63SOL    HW1  188   2.234   0.907   0.621 -1.5600  0.2097  0.1012
   63SOL    HW2  189   2.105   0.830   0.699 -2.1946  0.2210 -1.6787
   64SOL     OW  190   1.599   1.068   0.050  0.2169 -0.4824 -0.2143
   64SOL    HW1  191   1.622   1.166   0.031 -0.7894  0.0715 -1.4530
   64SOL    HW2  192   1.507   1.046   0.004 -2.8994 -0.6531 -0.1052
   65SOL     OW  193   0.661   2.219   1.644  0.1236 -0.0794  0.1455
   65SOL    HW1  194   0.569   2.195   1.612 -0.7877  0.2812 -0.3540
   65SOL    HW2  195   0.668   2.311   1.680 -0.8987 -0.3004 -0.9559
   66SOL     OW  196   0.997   1.150   1.437 -0.0499 -0.5217  0.2590
   66SOL    HW1  197   1.079   1.124   1.381  2.5403  0.2786 -2.6750
   66SOL    HW2  198   1.017   1.163   1.534  2.6880  0.2437  0.9402
   67SOL     OW  199   2.482   1.973   1.854 -0.1900  0.3087 -0.1545
   67SOL    HW1  200   2.576   1.940   1.867 -0.2377 -1.6366 -1.6470
   67SOL    HW2  201   2.413   1.903   1.883 -0.6043  2.0901  0.4555
   68SOL     OW  202   1.040   1.712   1.880  0.0854 -1.0514 -0.7104
   68SOL    HW1  203   1.030   1.720   1.779  0.7130  0.4440 -0.3382
   68SOL    HW2  204   1.003   1.798   1.926  0.9308  1.3041 -0.1150
   69SOL     OW  205   0.005   0.049   3.072  0.0980 -0.5722  0.0751
   69SOL    HW1  206   0.025   3.041   3.080  0.9351 -1.1493 -1.4503
   69SOL    HW2  207   3.093   0.085   0.070 -0.4026 -2.6736 -2.7398
   70SOL     OW  208   2.393   1.302   2.297  0.4053  0.0816  0.1074
   70SOL    HW1  209   2.309   1.354   2.332 -0.4888  0.4910  1.2553
   70SOL    HW2  210   2.472   1.349   2.337 -0.1006  1.2497  0.4453
   71SOL     OW  211   0.915   1.999   0.773 -0.1909  0.4321 -0.4566
   71SOL    HW1  212   0.984   2.073   0.773  1.5323 -0.8144  0.0753
   71SOL    HW2  213   0.925   1.940   0.859 -0.1156  0.2885  0.7405
   72SOL     OW  214   2.325   2.011   0.548  0.1651 -0.0848 -0.4646
   72SOL    HW1  215   2.342   2.110   0.522  1.4196  0.9372  2.0309
   72SOL    HW2  216   2.391   1.982   0.614 -2.9234  0.5234 -0.8661
   73SOL     OW  217   0.922   0.697   0.841 -0.2369 -0.5902 -0.4908
   73SOL    HW1  218   0.922   0.799   0.853  0.3295  3.5529 -0.0254
   73SOL    HW2  219   0.836   0.652   0.866 -2.3901  1.9855 -0.3901
   74SOL     OW  220   2.880   2.184   1.930  0.4274  0.2058  0.0694
   74SOL    HW1  221   2.900   2.235   1.844  2.3211 -2.3435  1.7177
   74SOL    HW2  222   2.924   2.233   2.009 -1.8420 -0.7010 -1.8594
   75SOL     OW  223   1.563   1.903   2.002 -0.3260 -0.2435 -0.2348
   75SOL    HW1  224   1.543   1.880   1.902 -0.4463  1.0075 -0.2578
   75SOL    HW2  225   1.553   1.818   2.052 -1.9404 -0.3721 -2.1073
   76SOL     OW  226   1.227   1.499   1.167  0.0126  0.6420 -0.3790
   76SOL    HW1  227   1.194   1.446   1.090 -2.0735 -2.1398  2.2131
   76SOL    HW2  228   1.292   1.565   1.130 -1.4712 -2.2391 -0.4172
   77SOL     OW  229   2.338   1.159   1.514 -0.7064  0.0424 -0.6198
   77SOL    HW1  230   2.366   1.256   1.528 -2.3228 -1.8916 -2.4458
   77SOL    HW2  231   2.237   1.148   1.497  1.6809  2.0562 -0.8522
   78SOL     OW  232   1.501   0.607   0.279 -0.4066 -0.0412 -0.5851
   78SOL    HW1  233   1.554   0.658   0.208 -1.4331 -1.0883 -0.7419
   78SOL    HW2  234   1.425   0.664   0.314  1.5376 -0.3598 -3.2898
   79SOL     OW  235   1.077   1.530   2.146  0.4030 -0.0162 -0.1131
   79SOL    HW1  236   1.062   1.602   2.076 -0.9177 -1.5191  1.6563
   79SOL    HW2  237   1.031   1.560   2.231  3.7108 -0.8226  0.0221
   80SOL     OW  238   1.023   0.237   1.469 -0.6068 -0.2654  0.7110
   80SOL    HW1  239   1.028   0.338   1.467  0.4081  0.3219  0.3007
   80SOL    HW2  240   1.103   0.198   1.524  1.5581 -1.2884  0.2951
   81SOL     OW  241   0.447   2.402   0.320 -0.0674  0.5603 -0.0082
   81SOL    HW1  242   0.533   2.362   0.286 -1.3336  0.8488 -0.7984
   81SOL    HW2  243   0.439   2.383   0.422 -0.3289 -0.2241  2.0430
   82SOL     OW  244   1.224   0.117   1.589  0.2071 -0.0076  0.4444
   82SOL    HW1  245   1.176   0.079   1.670 -0.3337 -0.2667 -1.1970
   82SOL    HW2  246   1.318   0.087   1.583 -1.3635 -0.8008  1.9252
   83SOL     OW  247   0.353   2.305   0.955 -0.5447  0.0559  0.0983
   83SOL    HW1  248   0.295   2.347   1.031 -0.4084  1.1402  0.6562
   83SOL    HW2  249   0.305   2.217   0.928  1.3379  0.4494  1.3501
   84SOL     OW  250   2.773   1.375   1.166 -0.0807  0.0612  0.2932
   84SOL    HW1  251   2.780   1.335   1.072 -0.7870 -0.5581 -0.3465
   84SOL    HW2  252   2.861   1.411   1.198 -0.6113  1.7929 -0.3984
   85SOL     OW  253   2.382   2.035   1.218  0.5508  0.2407  0.2417
   85SOL    HW1  254   2.371   1.982   1.305 -1.1271 -3.4640 -0.8103
   85SOL    HW2  255   2.482   2.045   1.204  0.9845 -2.6773  2.1512
   86SOL     OW  256   1.378   2.380   1.928 -0.3235 -0.1173  0.0328
   86SOL    HW1  257   1.323   2.320   1.865 -2.4507 -1.2667 -1.8952
   86SOL    HW2  258   1.437   2.450   1.879 -0.5527  0.6118 -0.4824
   87SOL     OW  259   2.267   1.538   0.774  0.1831 -0.3075  0.0296
   87SOL    HW1  260   2.250   1.554   0.673 -1.4390  1.3027  1.1457
   87SOL    HW2  261   2.367   1.538   0.794  2.7139 -0.5119  1.0815
   88SOL     OW  262   0.464   2.951   0.929  0.1546  0.0285  0.8759
   88SOL    HW1  263   0.496   2.884   0.859  0.3510  0.8800  4.7035
   88SOL    HW2  264   0.534   3.025   0.945 -1.7197 -0.5116 -2.1970
   89SOL     OW  265   0.487   0.957   1.869 -0.2825 -0.2745 -0.2677
   89SOL    HW1  266   0.480   1.007   1.959  1.5721  0.3306 -0.3646
   89SOL    HW2  267   0.541   0.872   1.875  0.1188 -0.0186 -0.8657
   90SOL     OW  268   2.768   1.963   0.264 -0.2645 -0.6223 -0.0548
   90SOL    HW1  269   2.707   2.027   0.315 -2.3889  2.6862  2.2408
   90SOL    HW2  270   2.793   1.885   0.327  0.6626 -1.0766  1.7084
   91SOL     OW  271   0.877   1.879   1.010  0.4350  0.0696  0.1931
   91SOL    HW1  272   0.907   1.897   1.106 -0.9353 -2.2473  0.7535
   91SOL    HW2  273   0.795   1.820   1.008 -0.0026 -3.8389 -2.9576
   92SOL     OW  274   2.223   0.008   1.722  0.3957  0.0017 -0.0674
   92SOL    HW1  275   2.310   0.045   1.761  4.8322  1.5236  1.7477
   92SOL    HW2  276   2.166   3.057   1.794 -1.2956 -0.8222 -1.1798
   93SOL     OW  277   0.494   1.774   2.819  0.1511 -0.0829  0.1680
   93SOL    HW1  278   0.450   1.715   2.892  1.2784 -0.0948  0.4783
   93SOL    HW2  279   0.593   1.779   2.834 -0.9147 -0.1208  0.0713
   94SOL     OW  280   2.460   0.129   1.874  0.6053  0.4632  0.0647
   94SOL    HW1  281   2.440   0.209   1.931 -1.2014  0.4082 -2.1515
   94SOL    HW2  282   2.558   0.123   1.849 -2.1337 -1.4298  2.3593
   95SOL     OW  283   2.046   0.260   1.962 -0.3560 -0.3971  0.1262
   95SOL    HW1  284   2.099   0.258   1.880 -2.7586 -0.1767  0.6221
   95SOL    HW2  285   1.997   0.171   1.974  0.2204 -0.6214  2.0572
   96SOL     OW  286   0.235   0.545   1.860 -0.1174 -0.1168 -0.2189
   96SOL    HW1  287   0.143   0.519   1.897 -1.0433  0.8479  1.7658
   96SOL    HW2  288   0.229   0.614   1.785  1.2559 -0.9129  1.4830
   97SOL     OW  289   2.099   0.044   1.336 -0.1391  0.1007  0.5016
   97SOL    HW1  290   2.099   0.147   1.347  0.2763  0.2076 -0.4149
   97SOL    HW2  291   2.016   0.012   1.390 -3.3791  1.3065  0.7361
   98SOL     OW  292   2.002   2.313   1.774 -0.2540  0.2141 -0.0353
   98SOL    HW1  293   2.090   2.340   1.735 -1.4549  1.3060  0.1047
   98SOL    HW2  294   2.016   2.300   1.874  2.8809 -0.8406 -0.8196
   99SOL     OW  295   0.606   0.844   0.907 -0.5816  0.1059  0.3427
   99SOL    HW1  296   0.512   0.872   0.886 -1.7224  3.7930  1.2997
   99SOL    HW2  297   0.610   0.741   0.899 -0.6111 -1.4224  1.9308
  100SOL     OW  298   2.788   1.971   2.061 -0.4851 -0.0919  0.4639
  100SOL    HW1  299   2.805   2.037   1.982  0.9950 -1.2107  0.9891
  100SOL    HW2  300   2.824   2.015   2.146 -0.4578 -0.5446 -3.9154
  101SOL     OW  301   1.689   0.004   3.046 -0.1719  0.1525  0.6206
  101SOL    HW1  302   1.656   0.102   3.049  2.5120 -0.0252  0.5726
  101SOL    HW2  303   1.613   3.039   3.013 -0.8580  1.6589 -1.1460
  102SOL     OW  304   2.912   0.044   1.183 -0.2627  0.3222 -0.2312
  102SOL    HW1  305   2.818   0.081   1.168  2.2529 -1.9679  1.5866
  102SOL    HW2  306   2.967   0.044   1.098 -0.6464  0.8639 -0.5724
  103SOL     OW  307   0.453   2.985   2.303  0.4485  0.1058  0.1468
  103SOL    HW1  308   0.444   2.935   2.392 -0.1078 -1.7384 -0.9766
  103SOL    HW2  309   0.544   2.958   2.259  3.2233  1.4601 -0.4875
  104SOL     OW  310   0.391   2.188   1.569 -0.1609  0.4935 -0.0319
  104SOL    HW1  311   0.324   2.253   1.548  3.5083 -3.1343  1.2071
  104SOL    HW2  312   0.395   2.124   1.490 -1.9726  1.9170 -0.5331
  105SOL     OW  313   0.782   2.046   2.162  0.0032  0.2348  0.1520
  105SOL    HW1  314   0.775   1.970   2.226 -1.1306  3.0200  0.1014
  105SOL    HW2  315   0.842   2.118   2.197  0.4380 -0.3566 -2.5326
  106SOL     OW  316   2.344   3.044   0.417  0.4710  0.1020  0.1440
  106SOL    HW1  317   2.360   3.046   0.517  0.3830 -0.0657  0.5641
  106SOL    HW2  318   2.423   3.019   0.366 -2.3236  1.7609 -0.1561
  107SOL     OW  319   0.717   1.190   1.118  0.6400 -0.1134 -0.0197
  107SOL    HW1  320   0.616   1.210   1.132 -0.8303 -0.2100  0.4324
  107SOL    HW2  321   0.734   1.089   1.116 -1.6779 -1.5468 -1.6884
  108SOL     OW  322   2.892   1.182   1.978  0.0038  0.2520 -0.3389
  108SOL    HW1  323   2.792   1.202   1.976 -1.4010  0.9369 -3.9493
  108SOL    HW2  324   2.947   1.245   1.925  1.9841 -0.9532 -2.1173
  109SOL     OW  325   1.895   2.715   3.066 -0.3494 -0.5461 -0.2912
  109SOL    HW1  326   1.896   2.737   0.071  2.7690  2.2894 -3.2086
  109SOL    HW2  327   1.798   2.709   3.028  1.6995  1.0605 -0.9935
  110SOL     OW  328   0.179   2.099   2.905 -0.3004 -0.0529  0.0343
  110SOL    HW1  329   0.204   2.122   2.812  1.6495  0.1650  3.1661
  110SOL    HW2  330   0.216   2.004   2.920  2.1583 -1.9480  1.9071
  111SOL     OW  331   2.822   0.845   2.406 -0.3379 -0.0563  0.4531
  111SOL    HW1  332   2.809   0.848   2.307  1.7162 -1.6320  1.3001
  111SOL    HW2  333   2.924   0.839   2.428  1.3834 -0.5362  0.7911
  112SOL     OW  334   2.446   2.729   1.589 -0.0200 -0.2900  0.0748
  112SOL    HW1  335   2.431   2.828   1.558  1.9911 -0.6917  0.2729
  112SOL    HW2  336   2.452   2.732   1.690 -0.2709 -0.1283  0.4294
  113SOL     OW  337   2.216   1.952   2.615  0.3229 -0.2247  0.0484
  113SOL    HW1  338   2.257   1.858   2.626 -0.4412 -0.2399 -1.6495
  113SOL    HW2  339   2.243   2.007   2.695  1.4613  0.6398  1.3664
  114SOL     OW  340   0.734   0.029   0.503  0.7476 -0.3524 -0.5780
  114SOL    HW1  341   0.779   3.040   0.469 -0.3037  2.8025  2.1258
  114SOL    HW2  342   0.794   0.069   0.575  1.5576  3.8169 -0.1586
  115SOL     OW  343   3.089   1.811   3.057  0.0869  0.2712  0.8382
  115SOL    HW1  344   3.091   1.711   3.076 -0.1656  2.0444  0.0179
  115SOL    HW2  345   0.090   1.848   3.046 -1.1780 -0.7925  1.1782
  116SOL     OW  346   3.063   1.307   1.779 -0.3254  0.2858  0.1356
  116SOL    HW1  347   0.057   1.359   1.781 -0.3021  3.6844  0.6902
  116SOL    HW2  348   2.992   1.359   1.730  3.9838 -2.4721 -0.6393
  117SOL     OW  349   2.095   0.313   1.385  0.8005 -0.4786  0.1638
  117SOL    HW1  350   2.174   0.379   1.403  1.0370  2.5754  1.4573
  117SOL    HW2  351   2.011   0.361   1.365  2.9923 -0.2489  2.2456
  118SOL     OW  352   2.864   2.481   2.011 -0.5397  0.4011  0.9061
  118SOL    HW1  353   2.807   2.527   1.938  1.5977  1.8244  0.8418
  118SOL    HW2  354   2.915   2.555   2.064 -1.6107  2.4333  0.6215
  119SOL     OW  355   0.461   1.522   1.801 -0.2927  0.1053  0.1572
  119SOL    HW1  356   0.525   1.522   1.721  0.6157  0.7151  1.0573
  119SOL    HW2  357   0.518   1.535   1.881 -4.0267  1.9332 -1.8932
  120SOL     OW  358   0.265   1.403   1.675 -0.0024 -0.9488  0.2469
  120SOL    HW1  359   0.295   1.308   1.688  0.6902  2.5849 -0.8992
  120SOL    HW2  360   0.337   1.458   1.719 -3.0087 -2.0063 -1.9440
  121SOL     OW  361   1.514   0.917   0.697  0.0887  0.1902  0.0771
  121SOL    HW1  362   1.438   0.855   0.667 -0.2569 -0.0865 -1.7016
  121SOL    HW2  363   1.602   0.879   0.657 -0.0864 -0.0798 -0.5171
  122SOL     OW  364   2.277   2.150   2.787 -0.0312  0.0843 -0.0282
  122SOL    HW1  365   2.210   2.175   2.855  0.9685 -1.3539 -0.2025
  122SOL    HW2  366   2.305   2.223   2.722 -0.7925  1.6750  0.8295
  123SOL     OW  367   0.119   0.172   0.333  0.1505 -0.5458  0.5258
  123SOL    HW1  368   0.085   0.088   0.377 -1.2334 -0.7693 -0.8139
  123SOL    HW2  369   0.148   0.237   0.408 -0.4484  0.2228  1.5694
  124SOL     OW  370   1.753   1.330   0.083  0.3625 -0.3334 -0.0757
  124SOL    HW1  371   1.799   1.383   0.005  1.3920 -1.4041 -1.9433
  124SOL    HW2  372   1.826   1.302   0.149  1.8870 -3.3909  2.4990
  125SOL     OW  373   0.001   0.655   2.238 -0.1575 -0.0082 -0.1077
  125SOL    HW1  374   3.089   0.711   2.321 -0.3686 -1.7172  0.9063
  125SOL    HW2  375   0.077   0.588   2.240  0.6688  1.5532 -0.4200
  126SOL     OW  376   0.018   2.653   3.003  0.0377 -0.9465 -0.4305
  126SOL    HW1  377   3.034   2.614   2.961  1.1428  2.4933  1.1159
  126SOL    HW2  378   0.063   2.587   3.065 -0.2589  0.7099 -1.6805
  127SOL     OW  379   2.660   1.830   0.000 -0.3011 -0.2977  0.2174
  127SOL    HW1  380   2.699   1.894   0.070  1.1078 -1.5257 -2.0601
  127SOL    HW2  381   2.584   1.876   3.044 -0.9105  1.4840  0.1057
  128SOL     OW  382   0.937   0.961   0.875  0.4367  0.2821 -0.3499
  128SOL    HW1  383   1.029   1.007   0.882  0.8392  0.8349  0.2662
  128SOL    HW2  384   0.862   1.019   0.910 -0.0821 -0.1883  1.9322
  129SOL     OW  385   2.307   2.275   1.078 -0.5920  0.1021 -0.0971
  129SOL    HW1  386   2.319   2.182   1.125  0.3081  0.5141 -0.1887
  129SOL    HW2  387   2.231   2.330   1.112  1.8043  2.7911 -1.2794
  130SOL     OW  388   1.969   0.856   0.119  0.2688 -0.7151 -0.1987
  130SOL    HW1  389   2.070   0.853   0.116 -0.3041 -1.1024  0.1842
  130SOL    HW2  390   1.933   0.769   0.082 -0.7223  3.4433 -2.0328
  131SOL     OW  391   2.974   1.538   2.646 -0.5439  0.5188 -0.0267
  131SOL    HW1  392   2.983   1.579   2.553  0.7002 -0.4396  4.8137
  131SOL    HW2  393   3.016   1.605   2.714 -2.2022  3.2853  1.8658
  132SOL     OW  394   1.190   1.028   2.050  0.5213  0.0522  0.0607
  132SOL    HW1  395   1.148   1.120   2.059 -2.5974  3.4067 -1.2644
  132SOL    HW2  396   1.168   0.999   1.950  0.8898  0.6357 -2.1325
  133SOL     OW  397   0.472   1.230   0.753  0.9578  0.3286 -0.1004
  133SOL    HW1  398   0.575   1.214   0.756 -2.3717  0.1074  0.8730
  133SOL    HW2  399   0.440   1.315   0.801  1.8480 -2.6440  3.2733
  134SOL     OW  400   3.049   1.535   0.002  0.4192 -0.0250  0.6493
  134SOL    HW1  401   3.059   1.508   0.100  1.9338 -2.1644  0.4576
  134SOL    HW2  402   0.002   1.464   3.039  2.9178 -2.9149  0.8922
  135SOL     OW  403   1.629   0.726   0.069 -0.1408 -0.0257  0.6557
  135SOL    HW1  404   1.584   0.793   0.009  0.6919 -1.6231  1.2234
  135SOL    HW2  405   1.726   0.707   0.039  1.5359 -2.6451  0.1300
  136SOL     OW  406   2.217   1.934   1.445 -0.3133  0.2870  0.0743
  136SOL    HW1  407   2.156   1.870   1.395 -1.1485  1.5321 -0.3865
  136SOL    HW2  408   2.188   2.027   1.424  0.8849 -3.5902  0.1617
  137SOL     OW  409   2.385   2.635   0.891 -0.1134  0.0898 -0.4266
  137SOL    HW1  410   2.447   2.638   0.970  0.0469  3.0039  0.3957
  137SOL    HW2  411   2.289   2.657   0.920  0.7825 -0.3901 -1.5893
  138SOL     OW  412   2.219   0.530   1.786 -0.0500 -0.3334 -0.1502
  138SOL    HW1  413   2.137   0.567   1.835 -3.7590  1.7921 -0.2651
  138SOL    HW2  414   2.213   0.438   1.739 -0.8775  3.4800 -2.5449
  139SOL     OW  415   2.656   2.399   2.742  0.0231 -0.2181  0.1843
  139SOL    HW1  416   2.683   2.307   2.708  1.4030 -0.5451  0.8743
  139SOL    HW2  417   2.632   2.460   2.660  0.8462  0.9028 -0.3517
  140SOL     OW  418   1.672   1.926   2.631 -0.2726 -0.0921 -0.7073
  140SOL    HW1  419   1.766   1.964   2.637 -0.0492 -1.1390  1.6930
  140SOL    HW2  420   1.658   1.880   2.540  2.5315  0.0585 -1.2621
  141SOL     OW  421   1.080   1.310   2.486  0.4481  0.0146 -0.4498
  141SOL    HW1  422   1.110   1.396   2.438 -0.0953  0.1930 -0.1541
  141SOL    HW2  423   1.161   1.252   2.508 -0.6585 -1.0071 -0.5623
  142SOL     OW  424   2.002   2.596   2.034 -0.3812  0.5749 -0.5405
  142SOL    HW1  425   2.013   2.492   2.036 -0.0058 -1.8834 -2.2012
  142SOL    HW2  426   2.044   2.627   1.948  0.6316 -3.2451  2.3190
  143SOL     OW  427   1.170   2.327   0.423  0.1550 -0.0620  0.0130
  143SOL    HW1  428   1.269   2.301   0.399 -0.8307  1.2125 -0.2147
  143SOL    HW2  429   1.168   2.357   0.522  1.0082  0.9855 -1.3072
  144SOL     OW  430   0.636   2.641   0.573 -0.6495  0.2564  0.5567
  144SOL    HW1  431   0.641   2.547   0.610 -1.5552  0.0516  0.4674
  144SOL    HW2  432   0.671   2.651   0.478 -0.7297 -1.9434  1.1099
  145SOL     OW  433   1.635   2.439   2.748 -0.1949 -0.1586  0.2004
  145SOL    HW1  434   1.581   2.435   2.660 -0.0380 -1.1984 -1.0513
  145SOL    HW2  435   1.580   2.418   2.830  3.1995 -0.2473 -3.8053
  146SOL     OW  436   2.119   2.552   0.011  0.0977 -0.3585 -0.3354
  146SOL    HW1  437   2.043   2.612   3.068  0.3776  0.5417 -0.7351
  146SOL    HW2  438   2.157   2.598   0.100 -0.2269 -1.0333  2.3617
  147SOL     OW  439   0.247   1.682   1.830  0.4285 -0.1665  0.1008
  147SOL    HW1  440   0.314   1.610   1.821 -1.8689 -0.6699 -0.7719
  147SOL    HW2  441   0.153   1.642   1.839  0.2355 -0.2269 -0.7969
  148SOL     OW  442   1.527   2.764   0.121 -0.1788 -0.7905  0.1692
  148SOL    HW1  443   1.575   2.844   0.176  1.6328  2.5824  0.2066
  148SOL    HW2  444   1.423   2.780   0.106 -2.1167  0.7221 -0.2092
  149SOL     OW  445   0.444   1.978   0.137  0.4021 -0.0955 -0.3202
  149SOL    HW1  446   0.522   2.006   0.077 -0.3979 -1.1513  2.0521
  149SOL    HW2  447   0.393   2.063   0.163  1.1182  1.3250 -1.4207
  150SOL     OW  448   0.226   2.713   1.229 -0.5765  0.1744 -0.0175
  150SOL    HW1  449   0.234   2.705   1.328  1.4454 -2.7492 -2.1793
  150SOL    HW2  450   0.148   2.779   1.208 -1.8183  1.1645 -3.0097
  151SOL     OW  451   0.396   1.355   3.003  0.2267 -0.4578 -0.4792
  151SOL    HW1  452   0.451   1.335   2.918 -0.6749  0.2203  1.4568
  151SOL    HW2  453   0.444   1.317   3.086 -2.6149  1.3587 -0.6165
  152SOL     OW  454   3.016   2.143   1.051 -0.4991  0.0332  0.2689
  152SOL    HW1  455   2.934   2.090   1.072  2.8929 -3.3461  1.0873
  152SOL    HW2  456   3.007   2.233   1.098  1.2244 -0.7202  0.3668
  153SOL     OW  457   1.508   2.179   0.640 -0.0260 -0.3005  0.1360
  153SOL    HW1  458   1.594   2.118   0.631 -0.6490 -1.4474 -0.6136
  153SOL    HW2  459   1.424   2.120   0.634 -2.7398  2.3041 -1.9036
  154SOL     OW  460   0.545   0.023   1.464  0.1329  0.3675 -0.4184
  154SOL    HW1  461   0.558   0.001   1.368  1.0789  1.1361  0.6358
  154SOL    HW2  462   0.627   0.075   1.493 -0.4230 -1.7494  0.0063
  155SOL     OW  463   2.638   2.186   0.388 -0.3225 -0.1408 -0.3412
  155SOL    HW1  464   2.683   2.239   0.462  0.0721 -0.5647  1.7029
  155SOL    HW2  465   2.540   2.187   0.390  3.7642 -0.0470 -1.5485
  156SOL     OW  466   2.337   1.953   0.259 -0.0012  0.4471  0.1697
  156SOL    HW1  467   2.349   2.025   0.192  1.3386 -1.9161  1.5963
  156SOL    HW2  468   2.302   1.981   0.349 -1.5253  1.5007  3.1538
  157SOL     OW  469   0.653   2.930   1.902  0.8243  0.3142 -0.4226
  157SOL    HW1  470   0.620   3.014   1.952 -3.6389 -1.3895 -1.5968
  157SOL    HW2  471   0.642   2.848   1.959 -0.1134 -0.2803 -0.1897
  158SOL     OW  472   1.135   0.439   1.199  0.3475  0.1170  0.4262
  158SOL    HW1  473   1.131   0.531   1.152 -1.2327 -0.1590  0.0590
  158SOL    HW2  474   1.128   0.460   1.304 -1.6298  0.4152  0.7206
  159SOL     OW  475   1.894   1.033   3.015  0.3565  0.3094 -0.1576
  159SOL    HW1  476   1.798   1.029   3.059  0.1396 -3.3628  4.0335
  159SOL    HW2  477   1.960   0.964   3.057 -0.3058 -0.7503  0.9023
  160SOL     OW  478   1.175   1.898   0.409 -0.1415 -0.0990 -1.0597
  160SOL    HW1  479   1.259   1.948   0.396 -2.0596 -1.9711 -0.3724
  160SOL    HW2  480   1.146   1.879   0.315  1.4664  2.5185  0.4087
  161SOL     OW  481   2.605   2.128   2.411 -0.0950  0.0843  0.2033
  161SOL    HW1  482   2.503   2.130   2.390 -2.0594  0.4892 -1.4243
  161SOL    HW2  483   2.624   2.142   2.513 -0.6145 -0.7998  1.6797
  162SOL     OW  484   0.207   2.350   1.427  0.1208  0.2098  0.5801
  162SOL    HW1  485   0.120   2.293   1.439  2.8417 -0.5132 -1.0604
  162SOL    HW2  486   0.218   2.373   1.328  0.9366 -0.2985  2.6110
  163SOL     OW  487   0.326   0.592   2.777  0.6129  0.0844 -0.1307
  163SOL    HW1  488   0.415   0.617   2.822  2.0165 -1.9326 -0.1138
  163SOL    HW2  489   0.247   0.621   2.833  1.0761  1.2080  0.3615
  164SOL     OW  490   0.236   2.501   2.739  0.0957  0.4937  0.4386
  164SOL    HW1  491   0.166   2.433   2.768  0.6314 -0.7261  0.7146
  164SOL    HW2  492   0.251   2.574   2.806  1.3647 -1.2356  0.4006
  165SOL     OW  493   2.386   0.887   1.491  0.7553  0.8512  0.1824
  165SOL    HW1  494   2.401   0.989   1.496  0.7992 -1.1379  1.6678
  165SOL    HW2  495   2.468   0.836   1.521  0.8503 -2.2506 -0.3589
  166SOL     OW  496   1.997   1.718   1.387  1.0873 -0.5967 -0.0382
  166SOL    HW1  497   2.062   1.642   1.406  1.8636 -2.2653 -0.5997
  166SOL    HW2  498   1.932   1.690   1.318  0.6948  2.9269  2.0999
  167SOL     OW  499   0.140   0.736   2.954  0.6871 -0.1681 -0.4738
  167SOL    HW1  500   0.070   0.712   3.027 -0.4552  1.1440 -3.2915
  167SOL    HW2  501   0.116   0.832   2.924 -1.8101 -0.1256 -0.7041
  168SOL     OW  502   2.090   0.251   2.709 -0.0885 -0.3911  0.0884
  168SOL    HW1  503   2.010   0.302   2.684  2.4961  0.4019  0.2883
  168SOL    HW2  504   2.171   0.312   2.692 -1.8227 -1.0230 -1.6420
  169SOL     OW  505   0.618   1.092   3.023  0.0978 -0.2468  0.2628
  169SOL    HW1  506   0.620   1.037   0.015  0.2577  0.1276  1.4512
  169SOL    HW2  507   0.527   1.091   2.973  1.5776 -3.1432  0.8144
  170SOL     OW  508   0.967   1.285   1.771  0.6786  0.3297  0.5391
  170SOL    HW1  509   0.992   1.289   1.873 -0.5806 -0.6534  1.1454
  170SOL    HW2  510   1.051   1.320   1.722  2.4818  1.6526  1.0387
  171SOL     OW  511   1.401   2.638   1.136  0.5025 -0.3206 -0.2796
  171SOL    HW1  512   1.389   2.736   1.166  1.5968 -1.2412 -0.1810
  171SOL    HW2  513   1.499   2.622   1.141 -0.5753  0.8213 -1.9190
  172SOL     OW  514   0.861   2.960   1.709  0.4850 -0.2062 -0.6226
  172SOL    HW1  515   0.781   2.944   1.774 -2.5290  0.0889  1.6929
  172SOL    HW2  516   0.906   2.872   1.685 -0.5963 -1.6038 -1.4888
  173SOL     OW  517   0.687   2.404   0.732  0.2476  0.2783 -0.3135
  173SOL    HW1  518   0.791   2.420   0.739  2.7610 -0.6133 -1.0459
  173SOL    HW2  519   0.634   2.455   0.808 -0.4825  0.9768  4.0522
  174SOL     OW  520   2.143   0.124   0.399 -0.3974  0.6661 -0.4069
  174SOL    HW1  521   2.052   0.084   0.386  1.2021  3.3551 -1.9038
  174SOL    HW2  522   2.217   0.060   0.391  1.9989  0.7936 -0.0394
  175SOL     OW  523   1.098   1.377   0.955  0.0117 -0.0350 -0.3192
  175SOL    HW1  524   1.127   1.454   0.896  0.6483  3.5206 -0.0960
  175SOL    HW2  525   0.994   1.374   0.951 -0.3975  0.7937  0.8644
  176SOL     OW  526   1.157   1.882   0.961  0.0215 -0.1779  0.2719
  176SOL    HW1  527   1.215   1.938   1.021 -0.1365 -0.3063 -0.3039
  176SOL    HW2  528   1.058   1.891   0.984 -0.7010  1.5018 -1.6735
  177SOL     OW  529   1.388   1.004   0.953 -0.4689  0.3279  0.0705
  177SOL    HW1  530   1.402   0.935   1.033  0.9442 -3.3078  1.4597
  177SOL    HW2  531   1.459   1.000   0.878  1.9173 -0.0703  1.8229
  178SOL     OW  532   2.291   1.500   0.494 -0.5648 -0.1968 -0.5036
  178SOL    HW1  533   2.388   1.523   0.480 -2.4705 -1.4577  1.0239
  178SOL    HW2  534   2.236   1.493   0.406 -0.6817  0.4953  1.2840
  179SOL     OW  535   1.231   2.712   0.077 -0.0807 -0.2035  0.9233
  179SOL    HW1  536   1.159   2.700   0.151  0.2044 -1.3959 -2.2750
  179SOL    HW2  537   1.256   2.621   0.036  0.5789  0.0988 -0.7257
  180SOL     OW  538   1.852   1.349   1.459 -0.2996  0.7096 -0.3501
  180SOL    HW1  539   1.820   1.437   1.500 -0.0671 -1.2232 -0.4143
  180SOL    HW2  540   1.863   1.359   1.354 -1.5636 -0.4664  1.5897
  181SOL     OW  541   0.821   1.053   1.768 -0.3307  0.1388 -0.1591
  181SOL    HW1  542   0.882   1.132   1.760 -1.1663 -2.7504 -0.8384
  181SOL    HW2  543   0.862   0.967   1.734 -0.9706  0.8434  3.8793
  182SOL     OW  544   2.741   0.940   2.974 -0.2992 -0.3558 -0.0959
  182SOL    HW1  545   2.790   0.906   2.888 -0.8626  0.3757  0.4992
  182SOL    HW2  546   2.768   1.038   2.986 -0.0203  0.8633  1.7169
  183SOL     OW  547   1.638   0.299   1.963 -0.0716  0.1950 -0.4971
  183SOL    HW1  548   1.649   0.333   2.054 -2.9747  4.8760 -1.6347
  183SOL    HW2  549   1.541   0.311   1.934  0.5454 -1.2605  2.0010
  184SOL     OW  550   0.794   0.562   1.210 -0.4623 -0.1318  0.1111
  184SOL    HW1  551   0.869   0.578   1.142  2.5598 -0.0771  2.7571
  184SOL    HW2  552   0.794   0.464   1.251  0.1585  0.5828  1.2666
  185SOL     OW  553   2.379   1.208   0.578 -0.8536  0.0781 -0.7052
  185SOL    HW1  554   2.476   1.188   0.592  0.3185  1.9444 -0.6383
  185SOL    HW2  555   2.360   1.306   0.589  0.6826  0.0299 -1.7416
  186SOL     OW  556   0.121   1.979   0.321 -0.2454  0.8339 -0.3557
  186SOL    HW1  557   0.033   2.003   0.292  1.4853  1.9740  0.3527
  186SOL    HW2  558   0.194   2.038   0.283 -1.4566 -0.8333 -1.4594
  187SOL     OW  559   1.822   1.956   2.961 -0.3382 -0.5147  0.4580
  187SOL    HW1  560   1.838   1.866   2.915  1.9889  0.4340 -0.8621
  187SOL    HW2  561   1.910   2.003   2.968 -1.7279 -0.3995 -1.2488
  188SOL     OW  562   1.220   2.393   1.490  0.6329  0.3186  0.3022
  188SOL    HW1  563   1.261   2.477   1.449  0.7783  0.2653 -0.4357
  188SOL    HW2  564   1.273   2.311   1.462  0.6091 -0.5868 -0.0548
  189SOL     OW  565   2.667   1.244   2.666  0.2557  0.2523 -0.0269
  189SOL    HW1  566   2.662   1.279   2.567 -2.6051  1.5581 -2.5573
  189SOL    HW2  567   2.764   1.221   2.688  1.3603  0.9828 -1.3205
  190SOL     OW  568   1.063   2.819   2.192  0.0402  0.4618  0.2954
  190SOL    HW1  569   0.977   2.768   2.158 -1.7596 -3.6258 -1.9088
  190SOL    HW2  570   1.054   2.921   2.199 -1.0070 -1.3561  0.9511
  191SOL     OW  571   2.717   1.025   1.048  0.2086 -0.3873  0.7602
  191SOL    HW1  572   2.638   0.965   1.025 -1.1595  0.0582 -0.7419
  191SOL    HW2  573   2.704   1.067   1.138 -0.3219  1.6518  0.3908
  192SOL     OW  574   2.139   0.529   0.946  0.1344 -0.2789  0.5427
  192SOL    HW1  575   2.145   0.523   1.044 -3.2623 -0.3226  0.3473
  192SOL    HW2  576   2.161   0.441   0.901 -1.4863  0.6548  0.4326
  193SOL     OW  577   1.047   0.107   0.200 -0.6495 -0.6027 -0.0139
  193SOL    HW1  578   1.119   0.109   0.124  1.2911  0.6925 -3.5331
  193SOL    HW2  579   0.961   0.153   0.158 -0.5135  1.3693 -3.8810
  194SOL     OW  580   1.632   2.341   1.107 -0.0409  0.3257 -0.3062
  194SOL    HW1  581   1.606   2.353   1.013  1.0865 -1.1959  2.4997
  194SOL    HW2  582   1.602   2.251   1.143  2.2827 -0.9874 -1.0843
  195SOL     OW  583   2.993   0.860   0.560  0.8267  0.1834  0.0570
  195SOL    HW1  584   2.937   0.900   0.635  0.0012 -1.9779 -1.9659
  195SOL    HW2  585   2.937   0.811   0.487  1.3532  3.0280  1.9858
  196SOL     OW  586   0.634   2.462   1.754  0.6725 -0.1727 -0.8217
  196SOL    HW1  587   0.583   2.497   1.673 -1.0547  2.7019 -2.0867
  196SOL    HW2  588   0.573   2.421   1.829  0.7562 -0.3515  1.2071
  197SOL     OW  589   2.965   0.413   2.492  0.5893 -0.3986 -0.3582
  197SOL    HW1  590   2.888   0.484   2.500 -1.8560  4.8586 -0.9014
  197SOL    HW2  591   2.922   0.324   2.496 -0.3739  4.0097  0.7588
  198SOL     OW  592   2.149   1.498   0.265  0.1736 -0.3905  0.4218
  198SOL    HW1  593   2.239   1.518   0.222 -1.1933  0.3780  1.5915
  198SOL    HW2  594   2.075   1.556   0.221 -3.9759  1.4442 -2.0304
  199SOL     OW  595   2.450   0.667   1.807 -0.0178  0.2889 -0.7896
  199SOL    HW1  596   2.458   0.676   1.910 -0.8805  0.7653  1.9884
  199SOL    HW2  597   2.376   0.605   1.783  3.4582  2.5298 -1.7538
  200SOL     OW  598   1.729   0.029   2.636  0.3504 -0.2992  0.0557
  200SOL    HW1  599   1.816   0.045   2.688 -0.7707  2.7775  0.3466
  200SOL    HW2  600   1.672   3.046   2.675 -2.8198  0.5910  0.7354
  201SOL     OW  601   2.684   0.183   1.107 -0.1258 -0.3287 -0.5067
  201SOL    HW1  602   2.590   0.164   1.146  2.2453  1.2201  0.0016
  201SOL    HW2  603   2.702   0.284   1.094  0.6774  1.0340  0.4887
  202SOL     OW  604   2.950   2.701   0.243 -0.1290 -0.0154  0.1941
  202SOL    HW1  605   2.989   2.757   0.169 -3.9618 -0.8025  2.5348
  202SOL    HW2  606   2.949   2.749   0.336  1.2923 -1.6322 -1.3159
  203SOL     OW  607   1.750   1.715   0.640  0.2907  0.1478  0.1623
  203SOL    HW1  608   1.662   1.759   0.662 -3.0727 -2.5133  1.8224
  203SOL    HW2  609   1.828   1.775   0.615  1.5522  2.4583 -2.2409
  204SOL     OW  610   0.502   1.819   2.174 -0.3213  0.2347  0.2696
  204SOL    HW1  611   0.584   1.771   2.130 -2.5172 -3.4488 -1.4561
  204SOL    HW2  612   0.425   1.750   2.177 -0.4989 -1.1795 -2.4740
  205SOL     OW  613   0.674   0.569   0.853  0.4737  0.7056  0.2333
  205SOL    HW1  614   0.734   0.486   0.874  0.6148  2.3075 -0.5596
  205SOL    HW2  615   0.632   0.567   0.757  0.7058  1.9389 -4.2313
  206SOL     OW  616   0.522   0.765   2.887  0.2426  0.5508  0.3747
  206SOL    HW1  617   0.491   0.732   2.977 -0.1395 -0.3228 -0.6216
  206SOL    HW2  618   0.472   0.853   2.866 -3.8340 -0.2302 -1.6956
  207SOL     OW  619   1.162   2.531   1.740  0.0642 -0.1652  0.4415
  207SOL    HW1  620   1.114   2.493   1.824 -1.0901 -0.6616 -0.9762
  207SOL    HW2  621   1.174   2.455   1.671 -0.2294 -0.2779 -0.3811
  208SOL     OW  622   2.521   0.279   1.648 -0.2219  0.1378  0.1968
  208SOL    HW1  623   2.604   0.324   1.681  0.0743 -1.6140 -0.8006
  208SOL    HW2  624   2.463   0.245   1.725 -0.5996  2.5777  0.1696
  209SOL     OW  625   1.946   0.803   0.645 -0.3432  0.5236  0.0708
  209SOL    HW1  626   1.921   0.793   0.744  3.2268 -0.2819 -0.9266
  209SOL    HW2  627   1.858   0.820   0.593 -2.4297  0.2311  1.1565
  210SOL     OW  628   2.643   1.157   0.611  0.1328  0.2128  0.1255
  210SOL    HW1  629   2.684   1.080   0.665 -0.1966 -0.2954 -1.7687
  210SOL    HW2  630   2.719   1.211   0.572 -2.1256 -3.3210 -0.7546
  211SOL     OW  631   1.124   2.920   3.036 -0.3167  0.2587  0.7980
  211SOL    HW1  632   1.163   3.012   3.054 -1.1615 -0.5397  1.1307
  211SOL    HW2  633   1.181   2.846   3.083 -0.1858 -0.8828  0.7712
  212SOL     OW  634   1.985   1.904   0.618 -0.5388  0.5106 -0.7073
  212SOL    HW1  635   2.007   1.878   0.711  0.1300 -0.4974  0.7708
  212SOL    HW2  636   2.055   1.864   0.551  1.1458  0.9926 -0.4746
  213SOL     OW  637   2.239   3.020   3.026 -0.1357  0.0834 -0.0654
  213SOL    HW1  638   2.199   2.957   2.958  2.2147  1.1770  0.7601
  213SOL    HW2  639   2.217   0.025   3.007  2.1960  1.1182  0.5921
  214SOL     OW  640   1.413   2.430   2.191 -0.2932 -0.3488  0.3480
  214SOL    HW1  641   1.367   2.524   2.197 -1.1346  1.1160  1.2131
  214SOL    HW2  642   1.407   2.393   2.092  0.2777  2.5380 -2.5454
  215SOL     OW  643   0.306   1.424   1.109  0.2170 -0.5155  0.3041
  215SOL    HW1  644   0.213   1.406   1.084  2.0227  0.7943  2.1951
  215SOL    HW2  645   0.369   1.439   1.029  0.4793  0.5880 -0.8750
  216SOL     OW  646   0.403   3.018   2.635  0.1995 -0.2088  0.1511
  216SOL    HW1  647   0.421   2.933   2.584 -1.3547  0.8200 -0.2349
  216SOL    HW2  648   0.378   2.998   2.732 -3.8467  1.5161  0.7271
  217SOL     OW  649   2.843   1.386   1.670 -0.0776  0.0285 -0.0148
  217SOL    HW1  650   2.872   1.422   1.582 -0.6056 -0.4153  0.7778
  217SOL    HW2  651   2.806   1.291   1.657 -1.2156  0.5165 -0.7815
  218SOL     OW  652   0.872   2.048   1.656  0.6784 -0.3178 -0.0661
  218SOL    HW1  653   0.798   2.113   1.627 -0.4495  0.5822 -1.2763
  218SOL    HW2  654   0.924   2.094   1.730 -1.0888 -0.0291 -2.3468
  219SOL     OW  655   2.056   1.821   0.214  0.0370 -0.4592 -0.1386
  219SOL    HW1  656   2.121   1.827   0.294  1.3783 -2.1128  0.5415
  219SOL    HW2  657   2.102   1.849   0.131  1.2245  1.4599 -0.0829
  220SOL     OW  658   1.898   0.040   2.861 -0.9753  0.0724  0.2356
  220SOL    HW1  659   1.993   0.056   2.890  0.5800  0.3510  1.3586
  220SOL    HW2  660   1.837   0.032   2.941  1.1044 -1.8017 -0.0291
  221SOL     OW  661   2.816   0.809   0.109  0.1917 -0.1751  0.4753
  221SOL    HW1  662   2.779   0.714   0.119 -0.4271 -0.0448 -1.3151
  221SOL    HW2  663   2.796   0.850   0.019 -0.2095 -1.9774 -1.3397
  222SOL     OW  664   1.561   1.440   0.814  0.6460 -0.5164  0.3183
  222SOL    HW1  665   1.543   1.348   0.782  0.0116  0.2882  1.3578
  222SOL    HW2  666   1.660   1.464   0.807  1.4533 -1.7431  1.9640
  223SOL     OW  667   1.028   0.422   2.808 -0.2978 -0.2542 -0.1158
  223SOL    HW1  668   1.111   0.362   2.806  0.4264  0.1229 -0.4180
  223SOL    HW2  669   1.015   0.467   2.898 -0.9349  1.2286 -0.6381
  224SOL     OW  670   0.883   2.783   1.042  0.1935 -0.4086 -0.5758
  224SOL    HW1  671   0.848   2.837   1.122  0.3478  0.0179  0.0446
  224SOL    HW2  672   0.857   2.686   1.059 -1.4499 -1.4715  1.5221
  225SOL     OW  673   1.040   0.009   2.196 -0.2392  0.3848  0.1275
  225SOL    HW1  674   0.965   0.044   2.134  1.0635  2.5072 -1.4184
  225SOL    HW2  675   1.028   0.039   2.288  3.3174 -0.0532 -2.2337
  226SOL     OW  676   1.371   1.587   0.669 -0.2858 -0.3197  0.1000
  226SOL    HW1  677   1.422   1.680   0.670  2.7522  1.3339  3.3963
  226SOL    HW2  678   1.417   1.515   0.720 -4.1501  1.1165 -1.6335
  227SOL     OW  679   0.483   1.964   1.393 -0.1879  0.3244  0.5801
  227SOL    HW1  680   0.420   1.916   1.457  1.9713 -0.0097 -1.9526
  227SOL    HW2  681   0.471   1.939   1.295 -2.3915  2.3173 -1.1340
  228SOL     OW  682   3.007   1.774   0.656 -0.1886  0.0135  0.0957
  228SOL    HW1  683   3.084   1.712   0.639  1.6527  1.2555  0.5857
  228SOL    HW2  684   3.033   1.862   0.697 -0.7376 -0.2854  0.0825
  229SOL     OW  685   2.598   0.157   2.922 -0.0595  0.5742 -0.1152
  229SOL    HW1  686   2.566   0.251   2.913  2.3948  0.4567 -0.2464
  229SOL    HW2  687   2.530   0.095   2.876 -2.6729 -3.2951 -1.3109
  230SOL     OW  688   2.527   0.698   0.431 -0.8136 -0.2910  0.2853
  230SOL    HW1  689   2.535   0.794   0.397  0.8967  1.0288  0.8058
  230SOL    HW2  690   2.444   0.653   0.393  0.8082  0.1851 -0.3369
  231SOL     OW  691   1.902   1.625   0.178  0.5907 -0.1100  0.2938
  231SOL    HW1  692   1.899   1.589   0.082  1.8479  0.2156  0.4339
  231SOL    HW2  693   1.953   1.717   0.180  0.5407  3.0275  0.4506
  232SOL     OW  694   1.927   2.035   1.016 -0.3687 -0.0939  0.4269
  232SOL    HW1  695   1.853   1.978   1.058 -1.5972  2.1664  0.2033
  232SOL    HW2  696   1.993   1.979   0.969 -1.6345 -0.9446 -1.3483
  233SOL     OW  697   0.244   2.938   1.516 -0.2902  0.0956  0.0914
  233SOL    HW1  698   0.330   2.917   1.572  2.3963 -1.5708 -2.4159
  233SOL    HW2  699   0.190   2.855   1.522 -0.6873  1.0439  0.2743
  234SOL     OW  700   0.717   0.324   2.610  0.3229  0.1490  0.4281
  234SOL    HW1  701   0.810   0.293   2.625 -3.6524  2.2497  0.9297
  234SOL    HW2  702   0.709   0.421   2.626 -0.6296 -5.1280  0.8973
  235SOL     OW  703   2.517   1.070   1.709  0.0181 -0.0996  0.2514
  235SOL    HW1  704   2.521   0.970   1.720 -0.5057  1.3350 -1.8554
  235SOL    HW2  705   2.434   1.087   1.649 -1.3415 -0.3295 -0.9807
  236SOL     OW  706   1.362   2.757   1.513  0.1710  0.6445  0.2680
  236SOL    HW1  707   1.287   2.721   1.450 -0.8287 -0.2188 -2.5633
  236SOL    HW2  708   1.442   2.697   1.500 -2.7207  0.4025  0.9763
  237SOL     OW  709   0.619   1.543   2.654 -0.1435  0.6524  0.2751
  237SOL    HW1  710   0.672   1.503   2.576  0.0678 -0.8041  0.3314
  237SOL    HW2  711   0.589   1.635   2.630  2.5821 -1.4534  0.1063
  238SOL     OW  712   0.969   0.832   2.302  0.8715 -0.1348  0.2887
  238SOL    HW1  713   1.040   0.872   2.356 -2.6529 -1.1187  1.4639
  238SOL    HW2  714   0.925   0.747   2.343 -1.5243 -1.8689 -0.7969
  239SOL     OW  715   0.809   1.855   2.347  0.2742  0.0403 -0.2051
  239SOL    HW1  716   0.747   1.815   2.419  0.5620 -1.1163 -0.3505
  239SOL    HW2  717   0.895   1.899   2.385  0.7442 -1.2138  1.8115
  240SOL     OW  718   2.186   2.897   0.200  0.1403  0.2586 -0.1118
  240SOL    HW1  719   2.225   2.928   0.111 -0.5202 -1.1011 -1.1986
  240SOL    HW2  720   2.210   2.962   0.272 -1.4943 -0.2940 -1.5764
  241SOL     OW  721   0.402   1.052   0.284  0.0111 -0.3623  0.5166
  241SOL    HW1  722   0.391   1.075   0.382  0.1615 -0.2437 -0.0798
  241SOL    HW2  723   0.432   1.136   0.235  0.5227  1.1443 -0.6791
  242SOL     OW  724   1.567   2.599   1.449 -0.0417  0.0880  0.1952
  242SOL    HW1  725   1.563   2.499   1.481  3.5238 -2.9482  0.9911
  242SOL    HW2  726   1.598   2.609   1.354 -1.6573 -2.5005  1.3907
  243SOL     OW  727   0.844   2.607   1.840 -0.1223 -0.1057  0.0342
  243SOL    HW1  728   0.895   2.652   1.763 -1.7708  0.3791  1.4223
  243SOL    HW2  729   0.767   2.540   1.809 -0.4269 -2.7191 -0.9385
  244SOL     OW  730   2.349   0.681   2.593  0.6070  0.8132 -0.4663
  244SOL    HW1  731   2.280   0.734   2.533 -0.9815 -0.2418  1.2255
  244SOL    HW2  732   2.382   0.734   2.671 -0.6642  0.0704 -1.3467
  245SOL     OW  733   1.663   2.602   1.205 -0.5598  0.1005  0.1454
  245SOL    HW1  734   1.670   2.506   1.176  1.0125  1.3689  0.4932
  245SOL    HW2  735   1.714   2.660   1.139 -0.4935  0.7492  0.7926
  246SOL     OW  736   1.456   3.076   0.414  0.3232 -0.0227 -0.5476
  246SOL    HW1  737   1.476   0.005   0.321 -0.4362 -2.0969  3.6899
  246SOL    HW2  738   1.355   3.058   0.430  0.1865 -1.5315  0.9109
  247SOL     OW  739   1.761   0.551   1.802 -0.0509  0.0151  0.8531
  247SOL    HW1  740   1.744   0.524   1.705 -0.6699 -1.4579 -1.6131
  247SOL    HW2  741   1.720   0.480   1.862 -0.6760 -1.0142  0.7786
  248SOL     OW  742   0.119   1.997   1.859  0.1941  0.1416  0.2877
  248SOL    HW1  743   0.216   1.962   1.856 -2.9511 -1.8316 -0.5753
  248SOL    HW2  744   0.058   1.965   1.787  0.8521 -0.8077 -0.3768
  249SOL     OW  745   0.363   0.340   0.193 -0.2515 -0.3759 -0.1149
  249SOL    HW1  746   0.393   0.433   0.220  2.8501 -0.1338  0.7615
  249SOL    HW2  747   0.430   0.273   0.232  3.2318  0.4864 -2.1431
  250SOL     OW  748   2.414   0.230   2.302  0.1023 -0.6386 -0.3096
  250SOL    HW1  749   2.361   0.147   2.306  2.4924  1.2820  0.1808
  250SOL    HW2  750   2.382   0.289   2.225  0.4254 -1.1807  0.9426
  251SOL     OW  751   1.498   0.483   3.017  0.2081  0.6775  0.2774
  251SOL    HW1  752   1.406   0.512   3.040  1.3733 -2.1907  1.2567
  251SOL    HW2  753   1.566   0.543   3.065  1.6916 -2.5522  2.7695
  252SOL     OW  754   1.317   2.685   2.179  0.6615 -0.0975 -0.1641
  252SOL    HW1  755   1.221   2.724   2.184 -2.0289  0.4860  1.9678
  252SOL    HW2  756   1.372   2.734   2.109 -1.9725 -0.3715  1.6138
  253SOL     OW  757   2.679   2.560   0.507 -0.2536  0.0259  0.4249
  253SOL    HW1  758   2.700   2.659   0.517 -0.6765 -0.2615 -0.9485
  253SOL    HW2  759   2.611   2.545   0.436  1.1473  0.5725 -1.6419
  254SOL     OW  760   2.439   1.085   1.175  0.0057  0.1943 -0.4694
  254SOL    HW1  761   2.500   1.131   1.245  0.7407 -0.6152  1.9134
  254SOL    HW2  762   2.447   1.128   1.079 -3.7184 -1.2027 -2.1777
  255SOL     OW  763   0.678   2.672   1.304  0.6149  0.2294 -0.2260
  255SOL    HW1  764   0.720   2.763   1.297  1.2740 -2.6889 -0.5317
  255SOL    HW2  765   0.607   2.664   1.231  3.3290  0.6074  2.1400
  256SOL     OW  766   1.916   1.722   1.644 -0.8691  0.1848 -0.2700
  256SOL    HW1  767   1.918   1.639   1.703 -0.9670  1.6749  1.4411
  256SOL    HW2  768   1.957   1.710   1.552  0.8256 -2.7495 -0.7035
  257SOL     OW  769   0.449   2.378   2.627 -0.2999 -0.8130 -0.0264
  257SOL    HW1  770   0.395   2.427   2.703  0.3495  0.3749  0.2475
  257SOL    HW2  771   0.419   2.283   2.606 -1.5528  0.0923  1.1321
  258SOL     OW  772   0.547   2.522   0.939 -0.1455  0.0430 -0.2610
  258SOL    HW1  773   0.462   2.474   0.911  0.8661 -0.5649  1.7545
  258SOL    HW2  774   0.518   2.606   0.985  0.8844 -2.2048 -0.8091
  259SOL     OW  775   1.505   0.660   2.604  0.3856 -0.1620  0.1293
  259SOL    HW1  776   1.566   0.735   2.584 -0.9759 -3.0196  0.7378
  259SOL    HW2  777   1.421   0.661   2.541 -1.8387 -4.2180 -1.1706
  260SOL     OW  778   0.259   0.308   0.983  0.1680 -0.1606 -0.2410
  260SOL    HW1  779   0.265   0.208   0.964 -0.1215 -2.0591 -0.7781
  260SOL    HW2  780   0.333   0.353   0.935 -0.3938 -1.6831 -0.2267
  261SOL     OW  781   0.795   0.200   2.340 -0.4583  0.6289  0.6811
  261SOL    HW1  782   0.731   0.141   2.395  1.3653 -1.1352 -1.3213
  261SOL    HW2  783   0.803   0.293   2.381  2.0793 -1.3866  0.1046
  262SOL     OW  784   0.999   2.728   1.629 -0.2256  0.4890 -0.1312
  262SOL    HW1  785   0.974   2.690   1.537 -2.7567 -0.6703 -2.0288
  262SOL    HW2  786   1.078   2.677   1.672 -2.7876  0.7096  1.2200
  263SOL     OW  787   0.633   1.995   3.052 -0.1868  0.6982 -0.4485
  263SOL    HW1  788   0.577   2.046   2.987  0.3197  0.3699  3.8490
  263SOL    HW2  789   0.726   2.039   3.064  2.2424 -0.5215 -0.5264
  264SOL     OW  790   1.504   1.603   1.046  0.0292 -0.3162  0.3119
  264SOL    HW1  791   1.532   1.702   1.029 -2.0844  1.8262  1.7200
  264SOL    HW2  792   1.526   1.543   0.967  0.5683  0.6705 -2.8783
  265SOL     OW  793   0.972   2.140   0.425 -0.0732  0.3842 -0.0781
  265SOL    HW1  794   1.040   2.218   0.429  0.3835  0.3464 -0.4309
  265SOL    HW2  795   1.016   2.050   0.454  2.7986 -0.7104 -1.5346
  266SOL     OW  796   2.954   0.645   1.006  0.0037 -0.5039  0.1355
  266SOL    HW1  797   2.922   0.603   0.917  0.1582 -2.3958 -0.7726
  266SOL    HW2  798   2.987   0.575   1.072  1.2780 -1.2032  0.0354
  267SOL     OW  799   0.042   1.510   0.260  0.1899 -0.3270 -0.1204
  267SOL    HW1  800   0.091   1.430   0.310  0.9312 -2.9630  0.3076
  267SOL    HW2  801   0.083   1.596   0.291  0.3693 -1.5257  2.5029
  268SOL     OW  802   1.333   0.369   0.229  0.6591 -0.7959  0.4651
  268SOL    HW1  803   1.239   0.410   0.218  1.8609 -1.6236  2.3916
  268SOL    HW2  804   1.398   0.439   0.261 -1.3868  1.0221  0.4949
  269SOL     OW  805   2.768   0.787   2.140  0.0497  0.1385 -0.0565
  269SOL    HW1  806   2.809   0.831   2.054  1.2783 -1.8569 -4.0929
  269SOL    HW2  807   2.721   0.708   2.103  3.0175  1.2708 -1.2033
  270SOL     OW  808   2.949   1.113   0.437 -0.1309 -0.0913 -0.0044
  270SOL    HW1  809   2.939   1.015   0.463  0.8084 -0.4454 -1.3038
  270SOL    HW2  810   2.906   1.134   0.352  0.4503  3.2771  4.4120
  271SOL     OW  811   2.851   1.524   2.176  0.3310 -0.5075  0.5782
  271SOL    HW1  812   2.759   1.534   2.214 -1.8132 -1.7233 -2.4840
  271SOL    HW2  813   2.847   1.531   2.074 -0.3952 -1.9233 -0.6124
  272SOL     OW  814   2.525   2.392   1.783 -0.3802 -0.4168 -0.5683
  272SOL    HW1  815   2.606   2.447   1.819  2.0690 -1.7870  2.9080
  272SOL    HW2  816   2.444   2.449   1.756 -0.9385  0.6008 -0.4317
  273SOL     OW  817   0.099   2.485   0.089  0.0334 -0.1255 -0.5077
  273SOL    HW1  818   0.169   2.420   0.053  1.6235  0.3718 -0.4222
  273SOL    HW2  819   0.030   2.431   0.146 -2.9632  3.0689  0.3706
  274SOL     OW  820   0.698   2.143   0.863 -0.1726 -0.3352 -0.5250
  274SOL    HW1  821   0.693   2.229   0.804 -1.0398  3.1647 -3.1394
  274SOL    HW2  822   0.773   2.079   0.837  0.7354  0.5820 -2.4873
  275SOL     OW  823   1.407   1.803   2.694 -0.1679  0.1811 -0.0632
  275SOL    HW1  824   1.493   1.847   2.724  1.1471  1.4439 -0.1397
  275SOL    HW2  825   1.428   1.706   2.663  0.9918 -2.0906 -0.0706
  276SOL     OW  826   2.573   1.515   2.252 -0.3155  0.4256  0.4549
  276SOL    HW1  827   2.556   1.489   2.154 -3.1648 -0.2449 -1.3320
  276SOL    HW2  828   2.553   1.612   2.260 -0.8508  0.3195  2.8135
  277SOL     OW  829   2.192   0.116   0.811  0.6630  0.0017 -0.4498
  277SOL    HW1  830   2.148   0.186   0.746  0.4826 -0.8315 -0.6704
  277SOL    HW2  831   2.129   0.036   0.822 -2.3497  2.8900 -0.4062
  278SOL     OW  832   1.209   0.370   2.159  0.3798 -0.4101 -0.3265
  278SOL    HW1  833   1.220   0.268   2.154  0.4079  0.9650  1.6898
  278SOL    HW2  834   1.148   0.393   2.239 -4.0732 -0.1655 -0.7755
  279SOL     OW  835   1.160   2.699   0.975  0.3125  1.0501  0.0054
  279SOL    HW1  836   1.197   2.680   1.067 -1.0188  2.0711 -1.3815
  279SOL    HW2  837   1.053   2.719   0.980 -2.4289  1.5614 -0.8213
  280SOL     OW  838   1.195   1.190   0.611  0.3447 -0.3223  0.5166
  280SOL    HW1  839   1.149   1.141   0.533  1.5796  0.4914 -0.4067
  280SOL    HW2  840   1.139   1.198   0.697  2.0156  0.7503 -0.3683
  281SOL     OW  841   2.165   1.761   0.478 -0.0640 -0.2199  0.0735
  281SOL    HW1  842   2.244   1.823   0.481 -1.7406 -0.5925  0.3370
  281SOL    HW2  843   2.195   1.668   0.503 -1.2915 -1.8832 -1.0834
  282SOL     OW  844   2.832   1.348   0.553  0.2022 -0.2613 -0.0611
  282SOL    HW1  845   2.903   1.294   0.504  0.5782 -0.0084 -4.5878
  282SOL    HW2  846   2.827   1.438   0.502  0.4384 -0.1710  1.1932
  283SOL     OW  847   1.623   2.870   2.650  0.4287  0.2189  0.6510
  283SOL    HW1  848   1.613   2.888   2.549 -0.9068  1.1357  0.3517
  283SOL    HW2  849   1.686   2.793   2.668  0.9106  0.1307  1.3574
  284SOL     OW  850   0.483   0.315   2.457 -0.2751 -0.4989 -0.5935
  284SOL    HW1  851   0.575   0.327   2.501 -1.5784 -1.2507 -0.2139
  284SOL    HW2  852   0.408   0.334   2.518  1.9989 -1.3601 -4.3654
  285SOL     OW  853   1.843   1.541   3.005  0.3477 -0.3696 -0.0989
  285SOL    HW1  854   1.750   1.574   3.028  2.5180 -0.9009 -0.8579
  285SOL    HW2  855   1.889   1.612   2.947 -0.6104  0.3071 -0.6953
  286SOL     OW  856   1.540   2.205   1.728  0.0529  0.8619 -0.5190
  286SOL    HW1  857   1.442   2.218   1.756  0.7366  2.2103 -2.2464
  286SOL    HW2  858   1.601   2.205   1.809 -0.2314 -2.0531  0.2114
  287SOL     OW  859   1.823   3.091   1.454  0.4997 -0.1151 -0.9491
  287SOL    HW1  860   1.776   3.075   1.543 -0.2168 -0.6934  0.5271
  287SOL    HW2  861   1.786   0.080   1.407 -0.4473 -1.7249  2.4025
  288SOL     OW  862   0.502   2.706   1.939  0.4092 -0.4572 -0.1286
  288SOL    HW1  863   0.541   2.620   1.898  0.1989  0.3274 -1.3893
  288SOL    HW2  864   0.454   2.684   2.028 -1.8778  0.0793  0.0855
  289SOL     OW  865   0.293   1.726   0.851  0.0462  0.0143 -0.3549
  289SOL    HW1  866   0.243   1.727   0.939 -1.1305 -0.4611 -2.6117
  289SOL    HW2  867   0.354   1.806   0.831 -1.0675 -1.6712 -0.5648
  290SOL     OW  868   0.992   2.154   1.856 -0.4667  0.2447 -0.6820
  290SOL    HW1  869   0.990   2.070   1.915 -2.1828 -0.7909  1.7021
  290SOL    HW2  870   0.993   2.235   1.913  0.4300 -3.2719  0.5739
  291SOL     OW  871   1.663   0.196   0.474 -0.0963  0.2299 -0.4725
  291SOL    HW1  872   1.581   0.132   0.461 -2.5439  0.0278  0.1391
  291SOL    HW2  873   1.750   0.148   0.452 -0.6822 -1.0610 -0.2524
  292SOL     OW  874   0.357   0.373   1.473 -0.0203  0.9941  0.2875
  292SOL    HW1  875   0.358   0.452   1.532  0.3216 -0.6211 -2.1936
  292SOL    HW2  876   0.366   0.287   1.526  1.4468 -0.1525  0.7274
  293SOL     OW  877   2.383   1.574   1.086  0.2526 -0.1415  0.6822
  293SOL    HW1  878   2.454   1.553   1.156 -1.0741  1.3585  0.6145
  293SOL    HW2  879   2.425   1.562   0.996 -1.0815 -2.3219 -0.8082
  294SOL     OW  880   0.444   0.151   2.258 -0.4291  0.3131 -0.1954
  294SOL    HW1  881   0.458   0.052   2.272 -2.1161 -2.1423 -1.4757
  294SOL    HW2  882   0.480   0.214   2.329  1.1340  2.0940 -1.6248
  295SOL     OW  883   0.820   1.325   0.493 -0.2386 -0.0652  0.4353
  295SOL    HW1  884   0.909   1.379   0.492  0.1741  2.2407  0.5460
  295SOL    HW2  885   0.831   1.251   0.420  2.0340 -1.7210  1.9728
  296SOL     OW  886   2.450   1.190   0.930 -0.4840  0.5407  0.1514
  296SOL    HW1  887   2.365   1.183   0.874  0.2716  1.6859 -0.8622
  296SOL    HW2  888   2.529   1.203   0.870 -0.9428 -1.9402  2.7047
  297SOL     OW  889   1.919   0.712   2.627  0.6506  0.2717  0.4380
  297SOL    HW1  890   1.826   0.756   2.608  1.0675  0.4920 -2.2209
  297SOL    HW2  891   1.985   0.751   2.566 -2.2967 -0.5365  0.7437
  298SOL     OW  892   1.010   0.285   2.563 -0.8224  0.1997  0.1994
  298SOL    HW1  893   1.007   0.345   2.642  0.8233  0.4631 -0.8863
  298SOL    HW2  894   1.043   0.335   2.485 -2.6620  2.7024  2.3098
  299SOL     OW  895   1.223   0.682   1.968  0.5027  0.0018  0.1358
  299SOL    HW1  896   1.303   0.685   2.031  2.9682  0.2410 -1.1072
  299SOL    HW2  897   1.182   0.591   1.951 -0.2780 -0.2146 -1.1452
  300SOL     OW  898   2.710   0.102   1.812  0.2620  0.3735  0.4082
  300SOL    HW1  899   2.741   0.006   1.788  0.1035 -2.9790 -1.3049
  300SOL    HW2  900   2.791   0.166   1.805  0.6390 -1.2105 -1.3553
  301SOL     OW  901   1.718   0.792   1.503 -0.2636 -0.2632  0.4279
  301SOL    HW1  902   1.645   0.848   1.462  2.1548 -2.2402  2.8833
  301SOL    HW2  903   1.734   0.816   1.601  1.1080  0.4321  3.3326
  302SOL     OW  904   0.701   2.769   2.681  0.4752  0.4758 -0.2611
  302SOL    HW1  905   0.741   2.854   2.640  0.6122  1.8694  0.5043
  302SOL    HW2  906   0.730   2.756   2.777  0.1909  0.1962  1.3637
  303SOL     OW  907   2.016   1.875   1.867 -0.2195  0.0729 -0.1765
  303SOL    HW1  908   2.010   1.972   1.835 -1.1874 -0.4251  1.8355
  303SOL    HW2  909   2.011   1.813   1.784 -0.9656 -0.9590  0.5268
  304SOL     OW  910   0.452   2.992   0.565  0.4702 -0.3457 -0.0958
  304SOL    HW1  911   0.508   3.046   0.502 -1.5282  0.2581 -0.6642
  304SOL    HW2  912   0.516   2.939   0.623 -0.7950 -0.9713 -0.4531
  305SOL     OW  913   1.249   0.728   0.337 -0.2381 -0.7573 -0.0648
  305SOL    HW1  914   1.284   0.814   0.303 -0.8264 -0.4891  1.1956
  305SOL    HW2  915   1.242   0.732   0.441  1.3209  0.2157  4.6105
  306SOL     OW  916   0.492   1.301   0.184  0.0519  0.3960  0.3633
  306SOL    HW1  917   0.593   1.315   0.184  1.5361  0.8380  0.9142
  306SOL    HW2  918   0.459   1.322   0.279  0.5691  0.8794  2.2717
  307SOL     OW  919   0.622   0.707   1.914  0.2978  0.1623 -0.5238
  307SOL    HW1  920   0.698   0.731   1.976 -2.1975  1.2317 -0.3443
  307SOL    HW2  921   0.653   0.677   1.822  0.2963  0.6420 -0.7342
  308SOL     OW  922   0.595   0.048   1.204  0.4852 -0.2159  0.0785
  308SOL    HW1  923   0.616   0.055   1.106 -1.5880  0.4648  2.7075
  308SOL    HW2  924   0.573   0.138   1.240 -0.3493  1.1932 -0.5182
  309SOL     OW  925   2.227   0.835   0.056 -0.7369  0.6143 -0.2841
  309SOL    HW1  926   2.297   0.768   0.089  0.5877  0.1548  0.2533
  309SOL    HW2  927   2.279   0.920   0.038  1.4117 -0.9898 -0.6612
  310SOL     OW  928   1.220   1.367   3.093 -0.0660  0.4892 -0.1716
  310SOL    HW1  929   1.135   1.386   3.041  0.0896  1.8329  3.5411
  310SOL    HW2  930   1.219   1.427   0.082 -0.8527  1.1191  0.8775
  311SOL     OW  931   1.761   2.439   2.355  0.4219  0.0144  0.4618
  311SOL    HW1  932   1.739   2.421   2.254 -1.3998 -0.0040 -2.9986
  311SOL    HW2  933   1.755   2.543   2.367 -0.1886  0.4638 -0.4843
  312SOL     OW  934   2.070   2.830   2.888  0.9855  0.0162 -0.3783
  312SOL    HW1  935   2.021   2.840   2.798 -0.4048 -1.4967 -1.7502
  312SOL    HW2  936   2.009   2.811   2.969 -1.4143  0.2123 -1.1324
  313SOL     OW  937   0.688   0.629   0.222 -0.5697  0.1074  0.0002
  313SOL    HW1  938   0.621   0.681   0.277  1.5678  1.9662  1.1583
  313SOL    HW2  939   0.773   0.667   0.255 -1.2685  0.8693  1.3127
  314SOL     OW  940   2.626   1.469   2.951 -0.0247 -0.1938  0.6807
  314SOL    HW1  941   2.653   1.507   2.860 -2.5362 -0.4455 -1.2045
  314SOL    HW2  942   2.689   1.505   3.025  0.8931  1.5024 -0.4675
  315SOL     OW  943   1.772   0.827   1.781 -0.1457  0.0982 -0.1830
  315SOL    HW1  944   1.754   0.730   1.787  1.6242 -1.0052  2.1354
  315SOL    HW2  945   1.782   0.858   1.877  2.2640 -1.9516  2.8405
  316SOL     OW  946   0.064   0.647   0.677 -0.0016 -0.3561 -0.5292
  316SOL    HW1  947   3.066   0.685   0.690 -0.9214 -1.5014 -0.0769
  316SOL    HW2  948   0.129   0.718   0.645 -0.1104  3.2298 -0.9695
  317SOL     OW  949   0.809   0.179   0.105 -0.4100 -0.5748 -0.8522
  317SOL    HW1  950   0.755   0.269   0.097 -0.3384 -0.4016  0.7317
  317SOL    HW2  951   0.758   0.104   0.157 -2.2160  0.4870  1.1876
  318SOL     OW  952   2.512   2.588   1.149  0.2733  0.5312 -0.1600
  318SOL    HW1  953   2.530   2.580   1.249 -0.3947  3.3289 -3.5144
  318SOL    HW2  954   2.599   2.620   1.105 -0.7205 -0.6226 -0.2443
  319SOL     OW  955   1.062   1.419   0.535 -0.2487 -0.4411  0.5033
  319SOL    HW1  956   1.132   1.344   0.552  0.7327 -0.5819  2.3811
  319SOL    HW2  957   1.104   1.508   0.503  1.0473  3.1874 -0.8211
  320SOL     OW  958   0.603   2.249   1.088 -0.0502 -0.3698 -0.0147
  320SOL    HW1  959   0.520   2.308   1.076 -0.7188  1.7592 -0.6068
  320SOL    HW2  960   0.636   2.208   0.999  0.5058  2.8212  2.0404
  321SOL     OW  961   2.126   2.636   2.289 -0.0197 -0.0967 -0.4614
  321SOL    HW1  962   2.064   2.647   2.374 -2.3177 -1.5710  0.6205
  321SOL    HW2  963   2.074   2.635   2.202 -1.0073  2.5139  2.6982
  322SOL     OW  964   2.815   2.365   2.421 -0.1526 -0.4936  0.0382
  322SOL    HW1  965   2.912   2.380   2.459  3.3346  2.6236  0.4354
  322SOL    HW2  966   2.749   2.432   2.456  1.6656 -0.7389 -0.1992
  323SOL     OW  967   2.794   0.624   0.762 -0.3428  0.4128  0.2194
  323SOL    HW1  968   2.752   0.536   0.726 -0.2309  0.0560  0.5434
  323SOL    HW2  969   2.733   0.706   0.751 -1.1632  0.8885 -0.1456
  324SOL     OW  970   2.300   2.087   2.398  0.4578  0.0255 -0.2865
  324SOL    HW1  971   2.342   2.034   2.315  2.3981 -0.2538 -0.3337
  324SOL    HW2  972   2.271   2.030   2.478 -1.6967  3.7882 -2.1299
  325SOL     OW  973   1.252   0.671   2.462  0.0003 -0.1447  0.0687
  325SOL    HW1  974   1.277   0.720   2.377  1.1574 -0.4541 -1.2863
  325SOL    HW2  975   1.213   0.737   2.528  2.4671 -0.2735  1.5746
  326SOL     OW  976   2.837   2.317   0.551 -0.5071 -0.6296 -0.6325
  326SOL    HW1  977   2.811   2.411   0.536 -0.3294  2.2656 -2.7824
  326SOL    HW2  978   2.936   2.299   0.532 -0.9937 -0.8852 -1.1612
  327SOL     OW  979   2.455   3.053   2.776  0.0830  0.2274 -0.0965
  327SOL    HW1  980   2.389   2.980   2.801 -0.8553  0.9022  2.4291
  327SOL    HW2  981   2.545   3.021   2.737  1.6870  2.3726 -0.5921
  328SOL     OW  982   1.015   0.418   0.468  0.5252 -0.4719 -0.5188
  328SOL    HW1  983   0.915   0.406   0.460  0.1562  0.3951  1.8173
  328SOL    HW2  984   1.052   0.446   0.379  0.1808  1.8650  3.0477
  329SOL     OW  985   2.065   0.740   1.341 -0.6460 -0.3260  0.1035
  329SOL    HW1  986   2.074   0.824   1.285  1.4460  2.7134 -0.8907
  329SOL    HW2  987   2.075   0.759   1.441  2.8957 -0.2127  0.8261
  330SOL     OW  988   1.140   0.203   0.586 -0.1760  0.0491 -0.3640
  330SOL    HW1  989   1.106   0.271   0.519 -0.2111  0.1692 -2.1869
  330SOL    HW2  990   1.202   0.243   0.656 -0.6369 -2.5251 -1.2799
  331SOL     OW  991   0.531   2.142   2.044 -0.0595 -0.6303 -0.0904
  331SOL    HW1  992   0.552   2.246   2.028  1.7633  2.9593  0.5659
  331SOL    HW2  993   0.614   2.086   2.064  0.5720  0.7635 -0.8317
  332SOL     OW  994   2.325   2.198   1.783  0.3804 -1.0416 -0.2160
  332SOL    HW1  995   2.389   2.272   1.814  1.2440  1.3568  0.8134
  332SOL    HW2  996   2.363   2.107   1.800 -0.1130  1.5330 -0.5177
  333SOL     OW  997   2.741   2.923   0.924 -0.0347 -0.5279  0.8647
  333SOL    HW1  998   2.838   2.926   0.887 -0.1499  1.3861 -2.0682
  333SOL    HW2  999   2.682   3.002   0.895 -1.2847 -2.5109  1.8639
  334SOL     OW 1000   2.990   1.639   1.089  0.1388 -0.4404 -0.1000
  334SOL    HW1 1001   3.087   1.670   1.097 -0.8781 -0.7888 -1.1387
  334SOL    HW2 1002   2.943   1.682   1.008  1.3184 -1.7694 -1.2317
  335SOL     OW 1003   0.438   2.791   2.511 -0.3263  0.0383  0.2617
  335SOL    HW1 1004   0.379   2.711   2.487 -0.1335 -0.5055  1.7534
  335SOL    HW2 1005   0.506   2.764   2.583  0.6540  0.8776  2.8127
  336SOL     OW 1006   0.203   2.642   1.894 -0.1851  0.0265  0.1414
  336SOL    HW1 1007   0.274   2.675   1.831 -0.6852 -3.3958  0.3137
  336SOL    HW2 1008   0.162   2.721   1.945 -0.4357 -1.0633  2.5590
  337SOL     OW 1009   1.003   1.995   2.483 -0.1725  0.2218  0.0560
  337SOL    HW1 1010   0.936   2.060   2.523 -0.1237 -1.7040  0.1353
  337SOL    HW2 1011   1.083   1.983   2.547 -1.3735 -0.7630  1.4852
  338SOL     OW 1012   1.063   0.031   2.481  0.1756  0.5976 -0.1721
  338SOL    HW1 1013   1.155   0.037   2.437 -0.0012  1.4745  0.3923
  338SOL    HW2 1014   1.036   0.119   2.531 -1.1263  1.2753  1.2853
  339SOL     OW 1015   0.142   1.333   2.929 -0.4621  0.5473  0.3034
  339SOL    HW1 1016   0.151   1.323   2.828 -0.6413 -0.1415 -0.2274
  339SOL    HW2 1017   0.230   1.336   2.973 -0.2197 -0.3320  1.4296
  340SOL     OW 1018   2.202   0.525   1.205  0.3386  0.2297 -0.2294
  340SOL    HW1 1019   2.160   0.598   1.267  2.2117  1.6752  1.3759
  340SOL    HW2 1020   2.299   0.515   1.227  1.0564  2.0955 -0.9666
  341SOL     OW 1021   1.843   1.120   1.017 -0.7866  0.2471 -0.0757
  341SOL    HW1 1022   1.852   1.161   0.924 -0.3401  2.8897  0.0438
  341SOL    HW2 1023   1.911   1.045   1.014 -0.9463  1.0812 -0.8361
  342SOL     OW 1024   2.057   2.432   2.686 -0.0492  0.1765  0.3688
  342SOL    HW1 1025   2.130   2.463   2.757 -0.4962  0.5184  0.6519
  342SOL    HW2 1026   2.042   2.497   2.610 -1.6697 -1.3904 -0.2958
  343SOL     OW 1027   0.070   2.702   0.891 -0.6228 -0.0343  0.2054
  343SOL    HW1 1028   0.140   2.635   0.865 -0.4063  2.5340 -0.8065
  343SOL    HW2 1029   0.088   2.749   0.979  0.5643  0.3690  0.2464
  344SOL     OW 1030   2.484   2.801   0.681 -0.1719  0.8621 -0.3482
  344SOL    HW1 1031   2.452   2.895   0.699  0.6233 -2.1794 -1.0487
  344SOL    HW2 1032   2.415   2.730   0.720 -3.5980 -2.4438  2.4980
  345SOL     OW 1033   2.376   2.263   0.397 -0.4163 -0.4001  0.5126
  345SOL    HW1 1034   2.296   2.259   0.340 -1.0202  2.5065  0.3530
  345SOL    HW2 1035   2.426   2.352   0.385  2.4820  5.4356 -3.0335
  346SOL     OW 1036   1.257   2.222   1.747  0.3219 -0.3189 -0.0985
  346SOL    HW1 1037   1.170   2.192   1.793  0.7820  0.0684 -0.9673
  346SOL    HW2 1038   1.261   2.179   1.657 -0.7691  2.3811  1.3553
  347SOL     OW 1039   1.482   2.082   2.184  0.7174  0.3734  0.0274
  347SOL    HW1 1040   1.537   2.029   2.116  1.9502  1.1645  0.4076
  347SOL    HW2 1041   1.541   2.132   2.249 -2.8276 -0.9321 -2.0794
  348SOL     OW 1042   0.625   1.692   1.324 -0.4394  0.4208 -0.2527
  348SOL    HW1 1043   0.633   1.726   1.230 -1.0635  0.6509  0.4296
  348SOL    HW2 1044   0.683   1.740   1.389  2.2666 -0.0883  1.4736
  349SOL     OW 1045   1.639   1.547   1.502 -0.5888  0.1834  0.3080
  349SOL    HW1 1046   1.643   1.642   1.535 -0.0503  0.7940 -2.2191
  349SOL    HW2 1047   1.547   1.528   1.466  2.0537  2.8517 -0.5594
  350SOL     OW 1048   2.473   2.240   0.858  0.1601  1.0041 -0.2435
  350SOL    HW1 1049   2.396   2.262   0.919  1.4153  1.7007 -1.4970
  350SOL    HW2 1050   2.487   2.309   0.792 -0.6839 -1.1336 -0.6810
  351SOL     OW 1051   0.326   0.044   1.848  0.0702  0.0785 -0.3299
  351SOL    HW1 1052   0.314   0.066   1.747  0.2275 -1.4474 -0.5697
  351SOL    HW2 1053   0.296   3.044   1.862 -1.0265  2.2811 -0.6270
  352SOL     OW 1054   0.851   0.924   0.155 -0.3789 -0.0442 -0.3782
  352SOL    HW1 1055   0.901   0.842   0.188 -1.5376 -0.3210 -0.4063
  352SOL    HW2 1056   0.753   0.914   0.169  0.9774  1.2209  1.0769
  353SOL     OW 1057   0.747   1.517   3.006 -0.1818 -0.0814  0.3251
  353SOL    HW1 1058   0.805   1.596   3.016  0.2971 -1.1568 -0.7887
  353SOL    HW2 1059   0.690   1.520   2.925  0.1080 -1.6014  1.8858
  354SOL     OW 1060   1.828   2.520   1.718 -0.3225  0.1658 -0.2430
  354SOL    HW1 1061   1.858   2.547   1.633 -1.7410 -1.4526  3.7572
  354SOL    HW2 1062   1.881   2.438   1.759 -2.2724 -1.6590  0.5108
  355SOL     OW 1063   2.223   0.584   2.977  0.1078 -0.0354  0.2089
  355SOL    HW1 1064   2.160   0.662   2.958 -1.2862  2.6824 -1.4246
  355SOL    HW2 1065   2.287   0.602   3.054  0.0552  1.2193 -0.5520
  356SOL     OW 1066   0.707   2.073   1.277 -0.3581 -0.1030  1.1326
  356SOL    HW1 1067   0.650   2.119   1.208  0.7520 -1.6263  1.3289
  356SOL    HW2 1068   0.637   2.025   1.337 -0.6718  0.5248 -0.3398
  357SOL     OW 1069   2.961   3.012   1.902 -0.5538 -0.2158 -0.0094
  357SOL    HW1 1070   2.906   2.989   1.819  0.2261 -1.9379  2.3048
  357SOL    HW2 1071   2.989   0.016   1.890 -0.0788 -1.8335  1.3625
  358SOL     OW 1072   2.485   1.862   1.532  0.1089 -0.4714 -0.7152
  358SOL    HW1 1073   2.399   1.916   1.541  0.1593  0.1603 -0.0108
  358SOL    HW2 1074   2.568   1.905   1.576  0.2889  0.3198  0.0078
  359SOL     OW 1075   1.920   2.249   2.519 -0.4817 -0.8187 -0.0615
  359SOL    HW1 1076   1.867   2.315   2.462 -0.9171  0.7642  1.4951
  359SOL    HW2 1077   1.989   2.307   2.565 -1.3163  3.5529  0.2298
  360SOL     OW 1078   1.365   2.537   0.797 -1.0918 -1.0431 -0.0520
  360SOL    HW1 1079   1.301   2.549   0.872 -2.7825  2.2355 -1.9538
  360SOL    HW2 1080   1.414   2.624   0.786 -1.4408  0.2084 -1.1162
  361SOL     OW 1081   1.870   0.030   0.409 -0.4670 -0.0148  0.6139
  361SOL    HW1 1082   1.824   3.075   0.332  0.1589 -1.2244 -1.0743
  361SOL    HW2 1083   1.859   3.070   0.494  0.5197 -0.5782 -0.2525
  362SOL     OW 1084   1.471   0.946   1.467  0.4463  0.4260  0.3495
  362SOL    HW1 1085   1.512   1.034   1.435  1.0487  0.3950 -0.1043
  362SOL    HW2 1086   1.402   0.963   1.542 -0.0912 -1.2430 -0.6019
  363SOL     OW 1087   1.916   1.593   2.063  0.4119  0.0362  0.2524
  363SOL    HW1 1088   1.830   1.578   2.111 -0.2250 -0.7541 -3.0113
  363SOL    HW2 1089   2.002   1.566   2.114 -0.9086  0.1627  0.5575
  364SOL     OW 1090   0.620   0.650   1.415  0.7715 -0.0411  0.6829
  364SOL    HW1 1091   0.691   0.616   1.350 -0.4560  0.0818  0.7841
  364SOL    HW2 1092   0.635   0.751   1.413  1.0076  0.5644  2.6617
  365SOL     OW 1093   0.452   0.706   2.542 -0.2049 -0.2269  0.2686
  365SOL    HW1 1094   0.397   0.680   2.623  1.4035  1.7599 -0.3684
  365SOL    HW2 1095   0.425   0.663   2.453 -1.4914  3.7058 -0.3721
  366SOL     OW 1096   2.241   1.448   2.992 -0.6599 -0.8562 -0.2478
  366SOL    HW1 1097   2.166   1.377   3.016  0.8897 -3.5811 -1.2335
  366SOL    HW2 1098   2.295   1.473   3.068  0.5125 -0.1490 -0.3752
  367SOL     OW 1099   2.956   2.655   2.695  0.2370  0.0192 -0.0609
  367SOL    HW1 1100   2.913   2.595   2.762 -0.8090 -0.4021  1.2944
  367SOL    HW2 1101   2.888   2.728   2.666 -3.4680  2.2062 -1.6990
  368SOL     OW 1102   3.016   1.267   1.309 -0.6088  0.1885 -0.9519
  368SOL    HW1 1103   3.081   1.252   1.385 -1.0844  0.4052 -0.1829
  368SOL    HW2 1104   2.993   1.180   1.270  0.5706  3.0191  0.2044
  369SOL     OW 1105   0.697   2.895   2.241 -0.1069  0.5994  0.1996
  369SOL    HW1 1106   0.738   2.837   2.164 -0.6278 -0.6801 -0.3976
  369SOL    HW2 1107   0.761   2.895   2.319 -1.5386 -0.7734  1.0372
  370SOL     OW 1108   2.854   0.228   0.498 -0.1148 -0.5831  0.8787
  370SOL    HW1 1109   2.820   0.181   0.412 -1.5667 -0.9234 -2.5186
  370SOL    HW2 1110   2.914   0.314   0.479  4.6310  1.9088 -0.8521
  371SOL     OW 1111   0.958   2.325   1.456  0.2568 -0.4017 -0.1966
  371SOL    HW1 1112   1.049   2.351   1.487 -2.6288  1.7303  0.8232
  371SOL    HW2 1113   0.908   2.268   1.528 -1.2070 -1.4330  1.4060
  372SOL     OW 1114   2.535   0.469   2.416 -0.0425  0.4821  0.2695
  372SOL    HW1 1115   2.481   0.507   2.488  0.4411 -1.2880  0.7717
  372SOL    HW2 1116   2.493   0.387   2.374 -0.8325  2.5231 -3.7219
  373SOL     OW 1117   0.024   1.974   0.809  0.2244  0.7227  0.0705
  373SOL    HW1 1118   0.119   2.001   0.793  1.4352 -0.5371  2.6366
  373SOL    HW2 1119   3.073   2.042   0.866 -0.3534  0.6138  0.7173
  374SOL     OW 1120   0.045   0.077   2.437  0.0844 -0.3422 -0.0699
  374SOL    HW1 1121   3.042   0.088   2.466  0.0012  2.9870  1.6980
  374SOL    HW2 1122   0.063   0.128   2.352  0.1459 -1.5373  0.7168
  375SOL     OW 1123   0.691   0.581   2.647  0.4343 -0.5349  0.5229
  375SOL    HW1 1124   0.624   0.654   2.635  1.8965 -0.8469  0.8755
  375SOL    HW2 1125   0.788   0.618   2.662  3.8023  2.5690  1.7230
  376SOL     OW 1126   0.079   2.260   1.892  0.1778  0.0992 -0.4068
  376SOL    HW1 1127   0.019   2.304   1.822  0.6848 -1.9832 -1.1546
  376SOL    HW2 1128   0.079   2.156   1.888 -0.2104 -1.8022 -0.5565
  377SOL     OW 1129   1.264   0.273   2.843  0.1521  0.0241  0.1598
  377SOL    HW1 1130   1.275   0.187   2.785 -1.7613 -3.4490  0.8471
  377SOL    HW2 1131   1.341   0.338   2.823  1.5681 -0.4660 -0.4511
  378SOL     OW 1132   2.894   0.851   2.779 -0.1798  0.7360  0.8529
  378SOL    HW1 1133   2.967   0.782   2.792  1.2577 -0.6133  0.1347
  378SOL    HW2 1134   2.897   0.881   2.680  2.4554  2.9984 -2.8693
  379SOL     OW 1135   1.183   0.831   2.887  0.0375 -0.6511 -0.4170
  379SOL    HW1 1136   1.174   0.848   2.787 -1.2065  0.9754 -3.1452
  379SOL    HW2 1137   1.118   0.881   2.946 -2.0439 -2.9045  1.1287
  380SOL     OW 1138   0.126   1.848   2.090 -0.1554  0.3188  0.3037
  380SOL    HW1 1139   0.217   1.805   2.087 -0.9864  2.9169  0.2612
  380SOL    HW2 1140   0.115   1.920   2.019  0.3346 -2.3972 -4.1007
  381SOL     OW 1141   0.126   1.096   2.590 -0.0026 -0.6803 -0.0770
  381SOL    HW1 1142   0.165   1.091   2.497 -1.8137  2.0400  2.2095
  381SOL    HW2 1143   0.056   1.173   2.599  0.5080  1.0329  0.7107
  382SOL     OW 1144   2.067   2.228   0.618  0.8877  0.2958 -0.6337
  382SOL    HW1 1145   2.097   2.132   0.597  0.6750 -1.7771  0.2301
  382SOL    HW2 1146   2.063   2.255   0.720  2.1589  0.0500 -0.4181
  383SOL     OW 1147   0.702   1.619   0.279  0.3609  0.5627 -0.5690
  383SOL    HW1 1148   0.752   1.709   0.298 -1.5716  1.5081 -0.8195
  383SOL    HW2 1149   0.674   1.572   0.366  0.8312  1.8545  1.3081
  384SOL     OW 1150   0.748   2.271   2.471 -0.2283 -0.2103 -0.2627
  384SOL    HW1 1151   0.719   2.363   2.494  0.3931 -0.2214  1.2062
  384SOL    HW2 1152   0.795   2.229   2.551  0.3486 -1.6632 -0.3213
  385SOL     OW 1153   2.509   1.985   0.758  0.2774 -0.1580  0.2417
  385SOL    HW1 1154   2.481   1.937   0.845  1.2664  1.4965  2.3714
  385SOL    HW2 1155   2.495   2.084   0.772  2.3729 -0.2375  0.3047
  386SOL     OW 1156   2.483   0.836   1.074  0.3770 -0.0825 -0.0621
  386SOL    HW1 1157   2.422   0.822   0.994 -2.0958  1.8447  0.0616
  386SOL    HW2 1158   2.450   0.912   1.130 -2.3540  0.6631  0.6115
  387SOL     OW 1159   0.152   0.923   2.015 -0.1750 -0.2547  0.1345
  387SOL    HW1 1160   0.227   0.900   2.079  0.3405 -0.6500 -1.1373
  387SOL    HW2 1161   0.178   0.925   1.917 -1.3346  2.5707 -1.1561
  388SOL     OW 1162   0.782   1.626   2.208 -0.1651  0.3536 -0.1334
  388SOL    HW1 1163   0.785   1.720   2.253 -0.5894  1.6928 -0.6010
  388SOL    HW2 1164   0.748   1.636   2.111 -0.4979  0.4281  1.0039
  389SOL     OW 1165   0.772   1.153   2.032 -0.0610  0.3037 -0.2865
  389SOL    HW1 1166   0.743   1.087   2.105 -3.4834  0.1865  1.6536
  389SOL    HW2 1167   0.763   1.102   1.940  4.1682  1.0256 -0.7990
  390SOL     OW 1168   2.690   2.852   0.521  0.2859 -0.8221 -0.2708
  390SOL    HW1 1169   2.616   2.828   0.593 -3.6038 -0.2500 -1.2995
  390SOL    HW2 1170   2.640   2.905   0.450 -0.8974 -0.7354 -1.3051
  391SOL     OW 1171   1.869   1.603   1.136 -0.2027  0.9368  0.1602
  391SOL    HW1 1172   1.833   1.508   1.150  2.3827 -3.4518 -0.7900
  391SOL    HW2 1173   1.947   1.591   1.081 -3.5835 -0.0104  2.0759
  392SOL     OW 1174   2.853   2.829   2.932 -0.5080  0.2999  0.0438
  392SOL    HW1 1175   2.871   2.926   2.909 -0.9319  0.0891 -2.3032
  392SOL    HW2 1176   2.928   2.773   2.890  2.9301 -0.3339  0.0030
  393SOL     OW 1177   1.554   2.160   2.732 -0.3625  0.0607 -0.2347
  393SOL    HW1 1178   1.588   2.080   2.677 -0.5534  0.5519 -0.5283
  393SOL    HW2 1179   1.601   2.248   2.718 -0.1923  0.4270 -1.2906
  394SOL     OW 1180   0.038   2.335   2.813  0.0566 -0.6513 -0.8208
  394SOL    HW1 1181   0.023   2.303   2.719  2.4147  0.2748 -0.3981
  394SOL    HW2 1182   3.081   2.280   2.884  0.2641  2.2992 -1.2634
  395SOL     OW 1183   0.160   0.263   0.599 -0.4007 -0.0973 -0.2177
  395SOL    HW1 1184   0.096   0.314   0.665 -2.0565  0.1127  0.5165
  395SOL    HW2 1185   0.206   0.184   0.640  0.1327  3.4122  1.1853
  396SOL     OW 1186   2.096   0.276   0.623 -0.6972 -0.5238 -0.2048
  396SOL    HW1 1187   2.018   0.335   0.589 -1.3374 -0.7820 -4.5521
  396SOL    HW2 1188   2.115   0.212   0.545 -2.6617  2.3610 -0.1433
  397SOL     OW 1189   3.086   0.828   2.486  0.4037 -0.2916  0.2463
  397SOL    HW1 1190   3.083   0.764   2.566  0.0325 -0.2704  1.5902
  397SOL    HW2 1191   0.055   0.905   2.503 -1.5679  0.6052 -1.5409
  398SOL     OW 1192   0.842   2.936   3.039  1.0113  0.4003 -0.0043
  398SOL    HW1 1193   0.803   3.007   2.973  1.8729 -0.9163  1.4260
  398SOL    HW2 1194   0.945   2.945   3.048 -0.8460  2.8649 -1.2267
  399SOL     OW 1195   2.014   0.432   2.165  0.4614 -0.4610 -0.2581
  399SOL    HW1 1196   1.912   0.462   2.180  2.2321  0.6214 -0.7366
  399SOL    HW2 1197   2.018   0.364   2.094 -1.5657 -0.0550 -0.6848
  400SOL     OW 1198   1.098   2.363   2.749  0.0701 -0.3578  0.3294
  400SOL    HW1 1199   1.076   2.364   2.649  1.8817 -2.4293  0.2448
  400SOL    HW2 1200   1.123   2.458   2.782 -1.5270 -1.1626  2.4962
  401SOL     OW 1201   0.261   1.383   2.648  0.4221 -0.0024 -0.2575
  401SOL    HW1 1202   0.248   1.334   2.562  2.8770 -0.0171  1.2819
  401SOL    HW2 1203   0.234   1.482   2.626 -2.0159  0.7641 -2.0717
  402SOL     OW 1204   0.242   2.873   0.285 -0.3688  0.5201  0.7126
  402SOL    HW1 1205   0.270   2.773   0.271  0.2306 -0.2762  0.8209
  402SOL    HW2 1206   0.203   2.889   0.376  1.0028 -1.6149 -0.7296
  403SOL     OW 1207   0.344   1.146   1.767 -0.0357 -0.2394  0.0198
  403SOL    HW1 1208   0.408   1.083   1.810  0.8947 -0.3932 -2.8723
  403SOL    HW2 1209   0.341   1.113   1.669  2.5194 -0.5862  1.9926
  404SOL     OW 1210   2.331   2.526   2.068 -0.0274 -0.2059  0.3124
  404SOL    HW1 1211   2.398   2.567   2.128  0.2133  0.5629 -1.1997
  404SOL    HW2 1212   2.297   2.436   2.098  1.8913 -0.7171 -0.7155
  405SOL     OW 1213   2.954   0.224   1.823  0.1442 -0.8516 -0.3485
  405SOL    HW1 1214   2.978   0.211   1.923  1.0971  0.4759 -0.7196
  405SOL    HW2 1215   3.039   0.236   1.767 -0.4029 -0.0376 -2.1965
  406SOL     OW 1216   1.162   1.562   2.839  0.3525 -0.1281  0.2313
  406SOL    HW1 1217   1.132   1.604   2.746 -0.5279  0.7421 -2.7106
  406SOL    HW2 1218   1.226   1.624   2.884 -1.3981 -0.7356 -1.1400
  407SOL     OW 1219   2.050   0.789   2.879  0.0716 -0.4245 -0.3343
  407SOL    HW1 1220   2.007   0.753   2.795 -1.0703  0.4583 -0.5816
  407SOL    HW2 1221   2.115   0.862   2.845 -0.6569  0.1996  0.1278
  408SOL     OW 1222   0.408   2.677   2.206 -0.2943 -0.2727 -0.7607
  408SOL    HW1 1223   0.354   2.621   2.269  0.3603 -4.7452 -1.6712
  408SOL    HW2 1224   0.454   2.750   2.259  3.9881  2.9192 -0.2422
  409SOL     OW 1225   0.211   2.445   1.149  0.5073 -0.2139  0.0295
  409SOL    HW1 1226   0.111   2.420   1.170  0.2058  0.4037  2.5643
  409SOL    HW2 1227   0.233   2.542   1.167  1.1997  0.9294  0.8240
  410SOL     OW 1228   2.845   1.783   0.445  1.0414  0.8458  0.5222
  410SOL    HW1 1229   2.913   1.785   0.520 -1.1148 -1.2643 -2.5923
  410SOL    HW2 1230   2.843   1.685   0.406 -1.5305 -0.9713 -2.8709
  411SOL     OW 1231   2.581   2.874   1.182  0.1247 -0.0636  0.2266
  411SOL    HW1 1232   2.486   2.897   1.199  3.6718  2.0275 -1.0217
  411SOL    HW2 1233   2.610   2.890   1.080  2.2922  0.3004 -6.5236
  412SOL     OW 1234   2.137   0.279   1.679  0.0177 -0.2194  0.1536
  412SOL    HW1 1235   2.175   0.185   1.679 -1.3548 -0.7931 -0.0561
  412SOL    HW2 1236   2.067   0.286   1.603 -0.2862  0.6009 -0.5469
  413SOL     OW 1237   0.160   0.231   2.222 -0.0463 -0.0594 -0.3142
  413SOL    HW1 1238   0.149   0.302   2.296  0.3708 -0.0253  4.6311
  413SOL    HW2 1239   0.256   0.194   2.210 -0.3754 -1.3032 -2.0163
  414SOL     OW 1240   2.777   1.222   3.015 -0.5702 -0.3110 -0.1187
  414SOL    HW1 1241   2.704   1.279   2.973 -1.5830  0.3688  0.4986
  414SOL    HW2 1242   2.767   1.199   0.022  0.7125 -1.9305 -0.2640
  415SOL     OW 1243   0.883   2.490   0.145  0.2715 -0.5535  0.4263
  415SOL    HW1 1244   0.878   2.562   0.072 -3.2113  1.1005 -1.6646
  415SOL    HW2 1245   0.969   2.438   0.135 -0.8784 -0.0473 -1.2429
  416SOL     OW 1246   1.526   2.951   2.382  0.2431 -0.0053  0.7197
  416SOL    HW1 1247   1.496   2.859   2.411  0.0072  1.8434 -0.6644
  416SOL    HW2 1248   1.585   2.954   2.298  0.8814  0.5316 -0.6576
  417SOL     OW 1249   0.338   0.687   1.107  0.0381  0.3383  0.2122
  417SOL    HW1 1250   0.410   0.616   1.126  0.3915  1.6841  0.3926
  417SOL    HW2 1251   0.302   0.675   1.009 -1.3134  1.7448 -2.8796
  418SOL     OW 1252   2.604   0.046   0.848  0.2153  0.1313 -0.2498
  418SOL    HW1 1253   2.597   0.121   0.915 -0.3523 -2.5198 -2.1416
  418SOL    HW2 1254   2.688   0.061   0.790 -1.2610 -1.7426  1.0742
  419SOL     OW 1255   0.352   0.032   0.242 -0.2583  0.5207  0.1453
  419SOL    HW1 1256   0.323   3.032   0.272 -2.8237 -0.3175  1.1703
  419SOL    HW2 1257   0.275   0.097   0.263 -0.2992 -1.4873 -2.5978
  420SOL     OW 1258   0.337   1.068   1.493  0.1181 -0.2291  0.2030
  420SOL    HW1 1259   0.335   0.990   1.425  0.8391 -1.9719 -0.7270
  420SOL    HW2 1260   0.241   1.096   1.511  0.3267 -0.3446  1.8187
  421SOL     OW 1261   1.817   2.453   0.803 -0.3485 -0.1585  0.5604
  421SOL    HW1 1262   1.883   2.382   0.833 -0.3523  1.8442 -2.9237
  421SOL    HW2 1263   1.722   2.423   0.829  2.0822  1.0925 -1.0345
  422SOL     OW 1264   0.161   0.302   1.288  0.8541  0.5998  0.0186
  422SOL    HW1 1265   0.201   0.270   1.202 -2.7198  1.7852 -0.4280
  422SOL    HW2 1266   0.234   0.337   1.350 -1.4379 -0.0890  0.9527
  423SOL     OW 1267   1.044   1.257   2.041  0.3437 -0.3900  0.0568
  423SOL    HW1 1268   0.953   1.219   2.063 -1.6614  0.3419  1.0470
  423SOL    HW2 1269   1.061   1.352   2.084  0.7153  4.8607  0.6097
  424SOL     OW 1270   1.750   2.028   0.577 -0.2943  0.0241  0.0281
  424SOL    HW1 1271   1.697   1.999   0.497 -0.3364 -0.9010 -1.1649
  424SOL    HW2 1272   1.848   1.999   0.567  2.2476 -1.9795 -3.9485
  425SOL     OW 1273   2.744   2.924   2.037  0.1581  0.2083 -0.5543
  425SOL    HW1 1274   2.659   2.971   2.003 -0.0438  1.1711  2.6853
  425SOL    HW2 1275   2.819   2.954   1.980 -2.5993 -1.3631 -0.8070
  426SOL     OW 1276   0.048   2.771   2.545 -0.0354 -0.5783  0.2923
  426SOL    HW1 1277   3.092   2.711   2.614  2.7782 -7.2797 -0.9027
  426SOL    HW2 1278   0.126   2.720   2.511 -3.5122  0.1328 -0.7628
  427SOL     OW 1279   0.894   2.916   0.415 -0.1032  0.3543 -0.3977
  427SOL    HW1 1280   0.977   2.968   0.394 -1.3672 -3.6990 -2.1422
  427SOL    HW2 1281   0.830   2.928   0.338  0.8604  0.8607  1.8937
  428SOL     OW 1282   2.839   0.436   1.455 -0.4101 -0.4977 -0.3669
  428SOL    HW1 1283   2.837   0.332   1.461  1.4596 -0.0782  1.3169
  428SOL    HW2 1284   2.752   0.476   1.413 -3.4201  0.7720 -3.4717
  429SOL     OW 1285   2.040   2.974   0.802 -0.3584 -0.5373  0.2547
  429SOL    HW1 1286   1.965   2.944   0.738 -0.3526  0.3141  2.0591
  429SOL    HW2 1287   2.080   2.887   0.839 -0.9291 -0.3908 -3.5870
  430SOL     OW 1288   0.998   1.641   2.623  0.1356  0.0590  0.3039
  430SOL    HW1 1289   0.947   1.727   2.645 -0.3950  0.4273 -0.9000
  430SOL    HW2 1290   0.942   1.577   2.566 -0.6838  0.4517  2.3524
  431SOL     OW 1291   0.147   1.970   1.439 -0.1415  0.0941 -0.3265
  431SOL    HW1 1292   0.222   1.924   1.494  1.4985  0.4686  0.1254
  431SOL    HW2 1293   0.064   1.991   1.493  0.0235 -1.8235 -0.2717
  432SOL     OW 1294   1.421   2.461   2.556  0.3456  0.0108  0.3994
  432SOL    HW1 1295   1.429   2.553   2.509  0.6294  0.5881  0.0215
  432SOL    HW2 1296   1.401   2.382   2.492 -0.7572 -3.0137 -1.2705
  433SOL     OW 1297   1.086   0.460   2.381 -0.1178 -0.0697 -0.0797
  433SOL    HW1 1298   0.999   0.512   2.390 -0.7052  1.1975  0.9776
  433SOL    HW2 1299   1.165   0.522   2.405 -1.2368 -1.6543 -1.6404
  434SOL     OW 1300   0.823   2.706   2.087 -0.9222  0.4344 -0.8147
  434SOL    HW1 1301   0.834   2.676   1.988 -0.0316 -3.1566  0.6547
  434SOL    HW2 1302   0.767   2.645   2.143 -0.2171  1.6236 -4.5134
  435SOL     OW 1303   0.354   0.108   3.061  0.1474  0.1041 -0.1864
  435SOL    HW1 1304   0.405   0.076   0.051  2.6529 -0.0161 -0.2083
  435SOL    HW2 1305   0.309   0.201   3.074  0.2068  2.0925 -0.8510
  436SOL     OW 1306   0.516   1.347   2.319 -0.4994  0.5445 -0.3624
  436SOL    HW1 1307   0.417   1.332   2.345 -0.6375  0.9942 -1.2942
  436SOL    HW2 1308   0.575   1.268   2.348  0.7301  0.2170 -2.6620
  437SOL     OW 1309   1.084   2.367   2.474 -0.3048 -0.1464 -0.0411
  437SOL    HW1 1310   1.162   2.311   2.436 -3.2113 -1.2477 -0.8921
  437SOL    HW2 1311   1.067   2.452   2.420  1.0383  2.2954 -0.7915
  438SOL     OW 1312   0.704   0.918   0.664  0.0759 -0.1622 -0.3736
  438SOL    HW1 1313   0.698   0.896   0.761  2.5139  1.1945 -2.2020
  438SOL    HW2 1314   0.799   0.909   0.629 -3.3551  0.3230  1.9243
  439SOL     OW 1315   2.979   1.303   2.301 -0.5614  0.5565 -0.0729
  439SOL    HW1 1316   2.979   1.212   2.255  0.4443 -1.0557  0.6021
  439SOL    HW2 1317   2.964   1.379   2.235  0.9179 -2.2991  2.3065
  440SOL     OW 1318   2.832   0.460   2.913 -0.0118  0.4676 -0.0936
  440SOL    HW1 1319   2.915   0.458   2.854 -1.3214  1.5674  0.2308
  440SOL    HW2 1320   2.754   0.484   2.854  1.9470 -0.5974  1.0459
  441SOL     OW 1321   0.759   1.827   1.533  0.6839  0.2708  0.0021
  441SOL    HW1 1322   0.794   1.920   1.561  2.2073  1.4404 -1.5510
  441SOL    HW2 1323   0.706   1.790   1.614 -0.4875 -0.7494 -0.9323
  442SOL     OW 1324   1.925   1.219   0.795 -0.0679 -0.4744  0.5080
  442SOL    HW1 1325   1.880   1.172   0.717  2.3256 -1.7799  0.0505
  442SOL    HW2 1326   1.906   1.320   0.783  0.7274  1.2345 -1.5201
  443SOL     OW 1327   2.488   2.004   2.939 -0.7092 -0.1519  0.5595
  443SOL    HW1 1328   2.426   2.027   2.863  0.0432 -0.9778  0.0314
  443SOL    HW2 1329   2.456   2.041   3.031  0.8819 -0.8020  1.6671
  444SOL     OW 1330   1.855   1.397   2.715  0.2740 -0.2889 -0.2200
  444SOL    HW1 1331   1.939   1.350   2.677  0.9346  1.2119  0.0692
  444SOL    HW2 1332   1.874   1.471   2.782 -2.5796  0.8287  1.9770
  445SOL     OW 1333   0.700   2.463   2.201 -0.1436  0.3036  0.1244
  445SOL    HW1 1334   0.672   2.497   2.292  0.4688 -1.2776  2.0263
  445SOL    HW2 1335   0.768   2.389   2.221  0.4676  0.7759  2.5999
  446SOL     OW 1336   0.904   0.810   1.674 -0.1021  0.1169  0.5388
  446SOL    HW1 1337   0.827   0.744   1.680  0.3706  0.1559  0.6749
  446SOL    HW2 1338   0.948   0.808   1.578 -0.0594  0.3040 -0.7853
  447SOL     OW 1339   0.950   0.867   0.541 -0.2512  1.1169  0.2403
  447SOL    HW1 1340   1.025   0.924   0.504  1.1745  0.2296  0.5245
  447SOL    HW2 1341   0.999   0.788   0.586  0.8651  1.1720 -0.0267
  448SOL     OW 1342   1.338   1.472   2.133  0.2496 -0.7079  0.6055
  448SOL    HW1 1343   1.239   1.489   2.145  1.8260  0.3060 -2.6518
  448SOL    HW2 1344   1.349   1.391   2.072 -2.0477 -0.0977  1.0160
  449SOL     OW 1345   0.198   1.610   2.499  0.5376 -0.4483 -0.7759
  449SOL    HW1 1346   0.095   1.599   2.486  0.1976 -0.8630 -1.6575
  449SOL    HW2 1347   0.248   1.609   2.414 -1.6865  0.0601 -0.2198
  450SOL     OW 1348   2.193   1.491   2.153 -0.2390 -0.4682  0.4070
  450SOL    HW1 1349   2.233   1.517   2.244  1.0999 -0.9465  3.1954
  450SOL    HW2 1350   2.253   1.516   2.077 -0.7530 -1.1211  0.3014
  451SOL     OW 1351   2.698   1.146   1.307  0.1874  0.0265  0.0443
  451SOL    HW1 1352   2.739   1.234   1.272  0.1231 -0.2282  0.3815
  451SOL    HW2 1353   2.713   1.124   1.402  2.0137 -0.6312 -1.5199
  452SOL     OW 1354   0.725   1.117   1.496 -0.0905 -0.1097 -0.0037
  452SOL    HW1 1355   0.724   1.073   1.585 -1.6396  0.9298 -0.1476
  452SOL    HW2 1356   0.820   1.122   1.465 -0.7356  0.0888  0.4487
  453SOL     OW 1357   0.437   1.958   1.111 -0.2166  0.3837  0.2781
  453SOL    HW1 1358   0.346   1.989   1.146  3.1230 -1.3427 -1.5627
  453SOL    HW2 1359   0.443   1.975   1.011  0.7729  0.7089 -1.5574
  454SOL     OW 1360   1.263   1.495   0.236  0.0387  0.2834  0.3893
  454SOL    HW1 1361   1.361   1.474   0.231 -0.9380 -1.0812 -1.1751
  454SOL    HW2 1362   1.241   1.553   0.317 -3.6807  2.4588 -0.0484
  455SOL     OW 1363   1.643   0.538   0.932 -0.3219 -0.1074  0.1545
  455SOL    HW1 1364   1.731   0.491   0.949  0.0757 -0.3048  0.4896
  455SOL    HW2 1365   1.660   0.627   0.898  2.2598 -2.2681  2.0825
  456SOL     OW 1366   1.815   2.952   0.589  0.1164  0.1375  0.0803
  456SOL    HW1 1367   1.856   2.859   0.577  0.1131  1.7704 -1.3326
  456SOL    HW2 1368   1.720   2.947   0.625 -1.5320  0.8450  1.0687
  457SOL     OW 1369   2.083   1.013   2.301 -0.1988  0.0117  0.2458
  457SOL    HW1 1370   2.093   0.981   2.207 -1.8469  0.4965  0.6254
  457SOL    HW2 1371   2.055   1.108   2.296  0.5724  2.6030  0.5971
  458SOL     OW 1372   2.760   0.586   2.493 -0.3521  0.0140  0.1813
  458SOL    HW1 1373   2.783   0.663   2.434 -1.5480 -1.5308 -0.3176
  458SOL    HW2 1374   2.680   0.535   2.458 -0.0444 -1.7831 -0.8144
  459SOL     OW 1375   2.699   1.303   2.403  0.2939 -0.5113 -0.2788
  459SOL    HW1 1376   2.654   1.394   2.379  1.0257  0.4780 -1.1865
  459SOL    HW2 1377   2.798   1.307   2.387 -0.4025 -1.4296  0.6237
  460SOL     OW 1378   0.857   0.938   2.700 -0.3485  0.4335  0.2454
  460SOL    HW1 1379   0.848   1.019   2.758  2.7780 -1.3608 -1.7801
  460SOL    HW2 1380   0.779   0.931   2.637 -1.7564  1.1696  0.7261
  461SOL     OW 1381   0.290   2.185   0.229  0.4694 -0.1821 -0.1044
  461SOL    HW1 1382   0.327   2.248   0.297  0.3433 -0.5030 -0.8526
  461SOL    HW2 1383   0.264   2.240   0.148  0.4677 -1.5981  1.5150
  462SOL     OW 1384   1.305   0.097   2.132 -0.1673  0.6669  0.3412
  462SOL    HW1 1385   1.364   0.030   2.076  2.7635 -0.3163 -0.9189
  462SOL    HW2 1386   1.211   0.054   2.139 -0.4629  1.4922 -0.5209
  463SOL     OW 1387   2.030   2.331   2.058 -0.0497 -0.3385  0.0364
  463SOL    HW1 1388   1.964   2.272   2.106  2.7374  0.0410 -2.7109
  463SOL    HW2 1389   2.116   2.333   2.115 -0.5252  0.5445  1.9696
  464SOL     OW 1390   2.541   2.455   0.734 -0.1716  0.0111 -0.1229
  464SOL    HW1 1391   2.471   2.513   0.785 -0.2614  1.6298  0.4321
  464SOL    HW2 1392   2.580   2.507   0.659 -2.0177 -1.8326  0.6995
  465SOL     OW 1393   3.089   0.089   1.370 -0.5605 -0.2762 -0.5490
  465SOL    HW1 1394   3.024   0.074   1.292  1.0766 -0.7444  1.7285
  465SOL    HW2 1395   0.062   0.163   1.348  0.2953  0.8192  1.7700
  466SOL     OW 1396   1.381   2.718   2.440 -0.2192  0.0791  0.6605
  466SOL    HW1 1397   1.325   2.781   2.491  0.7839  0.1699 -0.2371
  466SOL    HW2 1398   1.345   2.714   2.346 -0.3616  0.1329 -2.4013
  467SOL     OW 1399   3.044   2.318   0.233 -0.3286 -0.1898 -0.1844
  467SOL    HW1 1400   3.049   2.223   0.198 -1.8952 -3.5116  1.4359
  467SOL    HW2 1401   2.954   2.357   0.204  1.4432 -0.2520 -0.7450
  468SOL     OW 1402   2.145   1.909   3.069 -0.4662  0.1362 -0.1368
  468SOL    HW1 1403   2.211   1.858   3.011  0.5078  2.8684 -2.6615
  468SOL    HW2 1404   2.127   1.996   3.015  0.9219  1.4601  1.9023
  469SOL     OW 1405   0.837   1.845   0.586  0.0120 -0.6492 -0.3900
  469SOL    HW1 1406   0.874   1.901   0.661 -1.7240  0.0153 -0.2178
  469SOL    HW2 1407   0.839   1.745   0.610  0.7840 -0.3571  1.0608
  470SOL     OW 1408   1.909   0.722   0.910  0.5356 -0.3188 -0.0005
  470SOL    HW1 1409   1.945   0.629   0.901 -2.3096  2.5289  0.1034
  470SOL    HW2 1410   1.976   0.791   0.948  2.0510 -1.1857  1.2615
  471SOL     OW 1411   0.284   1.761   0.390  0.0172 -0.2698 -0.1853
  471SOL    HW1 1412   0.337   1.728   0.310 -0.0561  1.1060 -2.3109
  471SOL    HW2 1413   0.209   1.822   0.361  1.5622 -0.5377  2.8358
  472SOL     OW 1414   2.797   1.869   2.473  1.0702  0.2308 -0.3957
  472SOL    HW1 1415   2.743   1.818   2.404  1.1665 -0.6044  0.8393
  472SOL    HW2 1416   2.838   1.951   2.430  0.3588 -0.0853  1.9461
  473SOL     OW 1417   1.503   1.826   0.720 -0.3846  0.0849 -0.2357
  473SOL    HW1 1418   1.439   1.901   0.687  1.6969  0.9853  0.2189
  473SOL    HW2 1419   1.536   1.852   0.815  1.6236 -0.5580  1.6280
  474SOL     OW 1420   2.696   0.450   1.077  0.1575 -0.2022  0.6569
  474SOL    HW1 1421   2.611   0.464   1.021 -0.6001 -0.6553  0.8250
  474SOL    HW2 1422   2.774   0.443   1.014  1.7900 -0.8312  0.3245
  475SOL     OW 1423   2.800   2.962   1.680 -0.3654  0.7115 -0.2041
  475SOL    HW1 1424   2.861   2.903   1.621 -2.5624  1.7654 -0.5857
  475SOL    HW2 1425   2.716   2.996   1.633  1.4122  0.5232  0.0368
  476SOL     OW 1426   0.573   0.189   0.732 -0.0750 -0.4272  0.0830
  476SOL    HW1 1427   0.639   0.193   0.656 -2.2307  2.0002  0.1144
  476SOL    HW2 1428   0.500   0.260   0.721 -0.0600  0.5759  1.5134
  477SOL     OW 1429   1.345   2.382   1.200 -0.4332 -0.1050  0.1200
  477SOL    HW1 1430   1.446   2.356   1.207  0.9400  0.5546  1.8538
  477SOL    HW2 1431   1.344   2.480   1.169  1.4699  1.3330  0.3599
  478SOL     OW 1432   1.288   2.566   2.818 -0.3075 -0.8550 -0.8178
  478SOL    HW1 1433   1.254   2.665   2.813 -1.3790  3.7255  1.9445
  478SOL    HW2 1434   1.353   2.539   2.743 -0.4482  0.8997 -1.9858
  479SOL     OW 1435   2.329   0.944   1.934 -0.7857 -0.3206  0.1450
  479SOL    HW1 1436   2.378   0.981   2.012 -0.5970  1.1220  0.6051
  479SOL    HW2 1437   2.351   0.846   1.931  3.3747  1.2449 -1.2761
  480SOL     OW 1438   2.781   2.159   2.647  0.0743 -0.2316 -0.2218
  480SOL    HW1 1439   2.806   2.224   2.577  1.2935 -3.4546 -0.8420
  480SOL    HW2 1440   2.858   2.097   2.677 -0.6284 -1.4730  1.6391
  481SOL     OW 1441   1.663   3.022   1.706  0.7432  0.2318 -0.1410
  481SOL    HW1 1442   1.686   2.932   1.746  1.3487 -1.0429 -0.5709
  481SOL    HW2 1443   1.568   3.018   1.677  0.4371  1.0377  1.8177
  482SOL     OW 1444   1.663   2.440   2.098  0.0989 -0.1150  0.2213
  482SOL    HW1 1445   1.648   2.439   1.996 -1.6960  0.7110 -4.3226
  482SOL    HW2 1446   1.578   2.423   2.151  3.0733 -0.4010  0.0680
  483SOL     OW 1447   1.178   2.874   2.573  0.4578  0.1646 -0.1102
  483SOL    HW1 1448   1.142   2.830   2.658  0.4070  0.1531  1.5992
  483SOL    HW2 1449   1.137   2.969   2.565 -0.1112  2.2339  1.7177
  484SOL     OW 1450   2.626   0.000   1.529  0.8037 -0.2881  0.2055
  484SOL    HW1 1451   2.547   3.035   1.516  0.0105 -0.6702 -2.1327
  484SOL    HW2 1452   2.600   0.096   1.563  1.0090 -2.2034  2.1346
  485SOL     OW 1453   1.926   0.487   0.498 -0.0861 -0.3578  0.0857
  485SOL    HW1 1454   1.980   0.572   0.507  3.2790  0.8202 -4.1027
  485SOL    HW2 1455   1.824   0.503   0.502 -3.1503 -1.8318  0.5235
  486SOL     OW 1456   2.385   2.540   2.390 -0.0830  0.8363  0.3673
  486SOL    HW1 1457   2.383   2.618   2.453  0.6972 -0.8543 -1.4149
  486SOL    HW2 1458   2.311   2.544   2.318  1.5140 -1.1446 -0.4495
  487SOL     OW 1459   1.373   0.714   0.595 -0.2829  0.5565  0.0855
  487SOL    HW1 1460   1.286   0.715   0.642  4.0206  0.9572  1.0986
  487SOL    HW2 1461   1.412   0.624   0.622  0.1276 -0.3845 -0.6703
  488SOL     OW 1462   2.565   2.867   2.416 -0.7853  0.1248  0.5551
  488SOL    HW1 1463   2.596   2.811   2.334  1.8193  0.6410  2.7249
  488SOL    HW2 1464   2.481   2.826   2.457 -0.4196 -0.3289  0.1303
  489SOL     OW 1465   1.280   2.617   0.471 -0.3172  0.1944  0.1168
  489SOL    HW1 1466   1.270   2.714   0.500 -1.1976  1.8965  0.2406
  489SOL    HW2 1467   1.232   2.560   0.533  1.6160  2.4440 -0.1686
  490SOL     OW 1468   1.636   0.259   3.075  0.3136  0.0051  0.7446
  490SOL    HW1 1469   1.725   0.287   3.034  2.9735  1.8604 -1.1013
  490SOL    HW2 1470   1.572   0.338   3.069  0.5396  4.2253  2.6625
  491SOL     OW 1471   0.790   2.937   1.270 -0.2901 -0.5298  0.5843
  491SOL    HW1 1472   0.725   3.005   1.230 -2.0911 -1.5743  1.5976
  491SOL    HW2 1473   0.840   2.978   1.348 -0.3904  1.4859  0.7094
  492SOL     OW 1474   1.655   2.565   0.571 -0.2231  0.4370 -0.1890
  492SOL    HW1 1475   1.705   2.476   0.569  0.9249 -0.4986  0.4229
  492SOL    HW2 1476   1.603   2.572   0.486  1.4811 -1.5032  1.2840
  493SOL     OW 1477   1.192   2.126   3.031 -0.2232  0.3640  0.4018
  493SOL    HW1 1478   1.244   2.171   2.951 -0.7593 -1.6777 -3.4207
  493SOL    HW2 1479   1.153   2.193   3.093 -0.3055 -2.5365  1.2083
  494SOL     OW 1480   0.914   0.723   0.315 -0.5996 -0.0088 -0.2345
  494SOL    HW1 1481   0.994   0.660   0.295  0.2981 -0.6597 -0.4602
  494SOL    HW2 1482   0.926   0.778   0.399 -2.4763 -2.3680 -0.4794
  495SOL     OW 1483   2.749   0.410   1.717 -0.2007  0.2735  0.4909
  495SOL    HW1 1484   2.836   0.359   1.714  1.3656  0.1369 -2.3252
  495SOL    HW2 1485   2.759   0.494   1.667 -0.1668 -3.3497 -0.3642
  496SOL     OW 1486   2.378   2.302   2.555 -0.6641  0.1686 -0.5708
  496SOL    HW1 1487   2.365   2.395   2.512  2.7626  1.0690  0.4095
  496SOL    HW2 1488   2.355   2.228   2.491 -0.9328 -1.8449  0.7342
  497SOL     OW 1489   1.735   1.537   2.501  0.1861  0.3118  0.9069
  497SOL    HW1 1490   1.781   1.463   2.551 -0.8031  0.8047 -1.5515
  497SOL    HW2 1491   1.637   1.553   2.531 -1.6015  0.4313 -0.5452
  498SOL     OW 1492   0.820   2.521   1.046 -0.5927  0.2545  0.4718
  498SOL    HW1 1493   0.728   2.516   1.016  3.0154 -0.5925  0.6570
  498SOL    HW2 1494   0.849   2.435   1.093  0.7275  0.2925 -0.6927
  499SOL     OW 1495   0.143   2.004   1.162 -0.0623 -0.4473 -0.0343
  499SOL    HW1 1496   0.065   2.061   1.139 -1.5290 -0.3880  0.1255
  499SOL    HW2 1497   0.164   2.018   1.260  1.1850  1.3363  0.0887
  500SOL     OW 1498   0.824   2.693   2.969 -0.4205 -0.3398 -0.1436
  500SOL    HW1 1499   0.732   2.658   2.964  1.3758 -0.0894 -0.5070
  500SOL    HW2 1500   0.825   2.793   2.994 -1.9556  1.4334  1.1111
  501SOL     OW 1501   1.713   2.973   0.210  0.0155 -0.2184 -0.0876
  501SOL    HW1 1502   1.786   2.906   0.219 -0.9731  2.7561 -0.4251
  501SOL    HW2 1503   1.699   3.004   0.115  1.6192  0.3690 -2.0555
  502SOL     OW 1504   2.835   0.130   0.730  0.4059 -0.2010 -0.1615
  502SOL    HW1 1505   2.845   0.155   0.633 -0.3934  0.5768  2.3545
  502SOL    HW2 1506   2.920   0.115   0.780  1.1241 -0.0650 -0.9068
  503SOL     OW 1507   2.136   3.005   1.948 -0.1628 -0.0928  0.7460
  503SOL    HW1 1508   2.175   2.971   2.036 -1.7479 -1.5683 -0.4734
  503SOL    HW2 1509   2.049   3.054   1.959  0.0094  0.1641 -3.2583
  504SOL     OW 1510   2.191   1.096   1.781 -0.0276  0.6618 -0.2237
  504SOL    HW1 1511   2.126   1.039   1.728  0.8957 -0.6824  0.5590
  504SOL    HW2 1512   2.258   1.037   1.831 -0.3615 -1.7901 -1.2057
  505SOL     OW 1513   1.899   0.043   1.994  0.1553  0.4498 -0.4196
  505SOL    HW1 1514   1.848   0.098   2.066 -2.1513  0.0298  1.4127
  505SOL    HW2 1515   1.837   3.077   1.936  0.4549  0.0671  1.2362
  506SOL     OW 1516   3.022   0.630   1.957 -0.1485 -0.1306 -0.1467
  506SOL    HW1 1517   2.966   0.544   1.972  1.5411  2.2332 -0.2877
  506SOL    HW2 1518   3.053   0.671   2.046 -0.3492 -0.0029 -3.4088
  507SOL     OW 1519   1.650   0.476   0.451 -0.7029  0.0477  0.0094
  507SOL    HW1 1520   1.608   0.534   0.382 -0.0109  0.5915  0.3546
  507SOL    HW2 1521   1.651   0.376   0.422 -0.7818 -2.5388  0.3421
  508SOL     OW 1522   2.015   0.632   1.959  0.4637 -0.7934  0.1260
  508SOL    HW1 1523   2.021   0.562   2.033  1.6255  2.1180 -1.8309
  508SOL    HW2 1524   1.924   0.653   1.916  1.5454  0.8884  2.6360
  509SOL     OW 1525   0.764   1.859   2.823  0.2917 -0.1873 -0.1313
  509SOL    HW1 1526   0.824   1.785   2.854 -0.4372 -0.7212 -1.0965
  509SOL    HW2 1527   0.717   1.915   2.897  0.5813  0.5773 -0.6973
  510SOL     OW 1528   0.239   1.079   1.051 -0.2155 -0.3932  0.0398
  510SOL    HW1 1529   0.155   1.034   1.096  2.1478  0.3472  1.5690
  510SOL    HW2 1530   0.285   1.134   1.125  0.7089  3.3831  1.6591
  511SOL     OW 1531   1.443   1.253   1.506 -0.1326  0.5637 -0.0901
  511SOL    HW1 1532   1.532   1.209   1.483  4.0720 -2.6262  1.0276
  511SOL    HW2 1533   1.442   1.350   1.478 -0.6063 -1.8554  0.3500
  512SOL     OW 1534   0.503   1.941   0.822  0.7090  0.2338  0.7457
  512SOL    HW1 1535   0.482   1.903   0.728 -1.6276  0.1272 -1.9113
  512SOL    HW2 1536   0.593   1.988   0.821 -0.8501  2.2056 -0.8644
  513SOL     OW 1537   0.240   2.516   0.785  0.9200 -0.0750  0.2784
  513SOL    HW1 1538   0.279   2.547   0.693 -1.1259  2.0844 -2.8523
  513SOL    HW2 1539   0.258   2.419   0.808 -1.2749  4.4683  1.3301
  514SOL     OW 1540   0.669   2.043   0.521  0.4256  0.0520  0.2053
  514SOL    HW1 1541   0.746   2.089   0.478 -0.4727 -2.9189 -2.2388
  514SOL    HW2 1542   0.696   1.950   0.549  0.8455 -0.0475 -0.9944
  515SOL     OW 1543   0.102   0.244   2.865  0.2258  0.3034 -0.5047
  515SOL    HW1 1544   0.068   0.165   2.917 -1.5364  0.7357  0.9622
  515SOL    HW2 1545   0.150   0.311   2.924  0.0696  3.3836  1.9976
  516SOL     OW 1546   2.338   3.043   1.226 -0.0697 -0.2533 -0.1589
  516SOL    HW1 1547   2.241   3.057   1.251 -0.5719  1.8841  1.2094
  516SOL    HW2 1548   2.392   0.037   1.215  2.8998  0.7533  0.2213
  517SOL     OW 1549   1.813   1.480   0.787 -0.4300 -0.2141 -0.0701
  517SOL    HW1 1550   1.819   1.544   0.706 -0.8502  1.4000 -4.8352
  517SOL    HW2 1551   1.886   1.491   0.857  2.1740 -0.1426  2.5366
  518SOL     OW 1552   1.736   2.725   0.989 -0.1356 -0.4777  0.3389
  518SOL    HW1 1553   1.820   2.673   0.971 -1.0887 -1.2271  2.4757
  518SOL    HW2 1554   1.674   2.724   0.909  0.1734 -0.6925 -1.5732
  519SOL     OW 1555   2.836   2.480   0.124  0.4099 -0.0432 -0.6223
  519SOL    HW1 1556   2.840   2.477   0.023  0.0325 -0.3620 -0.1229
  519SOL    HW2 1557   2.878   2.559   0.172 -0.6745 -0.1494 -1.2967
  520SOL     OW 1558   2.153   1.766   2.387 -0.1711 -0.6092 -0.0277
  520SOL    HW1 1559   2.074   1.763   2.450  2.6592  0.5802  2.3465
  520SOL    HW2 1560   2.140   1.836   2.313  0.5025 -0.1869 -2.3172
  521SOL     OW 1561   1.328   3.059   1.845 -0.7223  0.0001 -0.2696
  521SOL    HW1 1562   1.356   3.052   1.750  0.9145  0.5304 -0.2544
  521SOL    HW2 1563   1.228   3.082   1.861 -0.4748 -1.1750 -0.7781
  522SOL     OW 1564   0.521   2.425   1.991  0.4587  0.9667 -0.3249
  522SOL    HW1 1565   0.422   2.418   2.001  0.6589  1.7996  0.2255
  522SOL    HW2 1566   0.575   2.429   2.080 -0.6868  0.9849  2.2047
  523SOL     OW 1567   0.998   2.428   1.940  0.2493 -0.5196 -0.6810
  523SOL    HW1 1568   0.929   2.503   1.907 -3.0105  1.3925 -2.8654
  523SOL    HW2 1569   1.013   2.446   2.038  0.1128 -0.9677  1.0678
  524SOL     OW 1570   2.095   2.275   0.347 -0.0295 -0.5572 -0.5110
  524SOL    HW1 1571   2.039   2.192   0.324 -2.1296  1.5924  0.3842
  524SOL    HW2 1572   2.094   2.278   0.452  0.9987 -3.4540 -0.3076
  525SOL     OW 1573   2.658   0.602   2.779 -0.0161  0.1131 -0.3271
  525SOL    HW1 1574   2.703   0.633   2.691  1.9572  0.2019 -1.8654
  525SOL    HW2 1575   2.612   0.681   2.824  1.5687  0.1194  0.5980
  526SOL     OW 1576   0.344   2.622   0.552  0.1873  0.2427 -0.1866
  526SOL    HW1 1577   0.439   2.651   0.562 -2.3840  1.8208  0.7459
  526SOL    HW2 1578   0.294   2.713   0.558 -1.3774 -0.7019  1.4123
  527SOL     OW 1579   0.012   1.111   0.891 -0.7388  0.0098 -0.1981
  527SOL    HW1 1580   0.099   1.104   0.941 -1.6944 -2.3926  0.9821
  527SOL    HW2 1581   3.047   1.040   0.932  1.3966  0.6350  1.1313
  528SOL     OW 1582   0.830   1.221   2.413  0.6943 -0.2927 -0.7875
  528SOL    HW1 1583   0.764   1.198   2.488 -0.8688 -1.2348  1.0929
  528SOL    HW2 1584   0.927   1.220   2.445 -1.4575 -0.4696 -2.6240
  529SOL     OW 1585   0.868   1.153   0.287 -0.1080  0.3588  0.1727
  529SOL    HW1 1586   0.836   1.069   0.238 -2.4571 -0.2780  1.4661
  529SOL    HW2 1587   0.826   1.233   0.236 -0.8157 -0.7003  0.8599
  530SOL     OW 1588   1.129   0.902   1.821 -0.0654 -0.0539  0.6007
  530SOL    HW1 1589   1.036   0.878   1.781  0.9636 -0.8986 -0.0198
  530SOL    HW2 1590   1.168   0.835   1.884 -0.9871  1.5077 -0.1171
  531SOL     OW 1591   1.152   2.343   0.159  0.2242 -0.5233  0.0928
  531SOL    HW1 1592   1.220   2.386   0.104 -1.1036  1.0987  2.2326
  531SOL    HW2 1593   1.169   2.346   0.253  2.0528  3.4761 -1.6421
  532SOL     OW 1594   2.484   0.784   2.323  0.5223 -0.0677  1.0422
  532SOL    HW1 1595   2.554   0.849   2.356  0.2526 -0.9971  1.6727
  532SOL    HW2 1596   2.491   0.694   2.372  1.6774 -3.0728 -0.2671
  533SOL     OW 1597   3.016   0.203   2.104  0.6872 -0.4798  0.0053
  533SOL    HW1 1598   0.022   0.190   2.120  0.5478 -0.7584 -1.2112
  533SOL    HW2 1599   2.962   0.130   2.151 -3.6514 -2.0649  0.4128
  534SOL     OW 1600   2.499   3.022   0.020  0.7740 -0.4104  0.0455
  534SOL    HW1 1601   2.560   3.080   3.053  2.1232  2.8987  0.2836
  534SOL    HW2 1602   2.400   3.022   3.083  0.2740 -0.6470 -2.9582
  535SOL     OW 1603   0.680   0.411   0.047  0.4569  0.6680 -0.2730
  535SOL    HW1 1604   0.693   0.488   0.106  0.8585 -1.3324  2.0789
  535SOL    HW2 1605   0.632   0.431   3.055  1.3246  2.2874  1.1167
  536SOL     OW 1606   1.132   2.087   1.283  0.0878  0.1637  0.1332
  536SOL    HW1 1607   1.052   2.021   1.289 -0.5211 -1.3196 -1.2439
  536SOL    HW2 1608   1.116   2.157   1.212  0.8146 -0.1508  0.0264
  537SOL     OW 1609   2.956   2.310   1.686 -0.1554 -0.2352 -0.0564
  537SOL    HW1 1610   2.992   2.404   1.691 -0.2475  0.0057 -0.7755
  537SOL    HW2 1611   2.858   2.319   1.665 -1.2721 -1.6847  0.3272
  538SOL     OW 1612   0.499   2.261   0.547 -0.0871 -0.8956 -0.8111
  538SOL    HW1 1613   0.533   2.163   0.563  2.5663 -1.7339  1.4107
  538SOL    HW2 1614   0.561   2.329   0.595  1.1124 -0.4392  0.1508
  539SOL     OW 1615   2.051   1.295   2.276 -0.2660  0.2027  0.0892
  539SOL    HW1 1616   1.950   1.303   2.294  0.0982 -1.2611  1.2039
  539SOL    HW2 1617   2.097   1.369   2.227 -1.3266 -2.9842 -1.1668
  540SOL     OW 1618   1.867   0.658   3.049  0.2475  0.2696  0.3401
  540SOL    HW1 1619   1.844   0.566   3.009  0.2964 -1.7897 -1.1852
  540SOL    HW2 1620   1.922   0.705   2.979 -0.5069 -2.4726  0.9924
  541SOL     OW 1621   0.645   0.887   2.544 -0.1525 -0.5200 -0.5814
  541SOL    HW1 1622   0.561   0.834   2.545  0.2169  0.7065  1.6611
  541SOL    HW2 1623   0.656   0.940   2.459  0.7633 -0.3163 -0.6545
  542SOL     OW 1624   1.382   2.677   1.768 -0.4037  0.0990 -0.1564
  542SOL    HW1 1625   1.306   2.605   1.780 -2.8396 -0.6638  4.4742
  542SOL    HW2 1626   1.364   2.725   1.679  0.9262  2.7474  0.8462
  543SOL     OW 1627   0.555   2.750   0.117 -0.1142  0.2413 -0.5986
  543SOL    HW1 1628   0.542   2.712   0.027 -1.8478 -0.4788  2.5022
  543SOL    HW2 1629   0.470   2.744   0.172  0.6720 -0.5106 -2.1409
  544SOL     OW 1630   3.060   2.258   2.141  0.5590 -0.5655  0.4193
  544SOL    HW1 1631   0.014   2.258   2.053  2.6497 -0.8484  1.5483
  544SOL    HW2 1632   0.033   2.235   2.217 -1.0222  1.2445 -2.3047
  545SOL     OW 1633   1.492   1.935   1.731 -0.1991 -0.1407  0.0085
  545SOL    HW1 1634   1.508   2.032   1.702 -1.5855 -0.9998 -1.0970
  545SOL    HW2 1635   1.396   1.910   1.706 -0.3370 -0.8026  0.8745
  546SOL     OW 1636   3.014   0.420   2.749 -0.2808 -0.0304  0.2142
  546SOL    HW1 1637   3.001   0.415   2.647 -2.0453  2.4061  0.3613
  546SOL    HW2 1638   3.077   0.354   2.790 -0.3669  0.6172  0.8712
  547SOL     OW 1639   1.570   3.031   1.009 -0.0965  0.2437 -0.2916
  547SOL    HW1 1640   1.506   2.974   1.067 -2.9223 -1.8867 -2.2094
  547SOL    HW2 1641   1.665   2.997   1.007 -3.2948 -1.4818  1.3403
  548SOL     OW 1642   1.265   1.912   0.083 -0.0629 -0.1198  0.2969
  548SOL    HW1 1643   1.328   1.940   0.159 -1.0718 -1.6616  0.7031
  548SOL    HW2 1644   1.249   1.997   0.032 -1.5951  2.3134  0.6417
  549SOL     OW 1645   2.073   0.397   0.003 -0.2013  0.6845  0.2928
  549SOL    HW1 1646   2.048   0.409   0.103  0.0196 -0.7172  1.5479
  549SOL    HW2 1647   2.152   0.455   3.069  1.1511  2.2597  2.0396
  550SOL     OW 1648   2.807   1.958   0.973 -0.9748 -0.2559 -0.2607
  550SOL    HW1 1649   2.819   2.028   0.901 -0.3273  1.2112 -1.2080
  550SOL    HW2 1650   2.821   1.864   0.936 -0.5068  0.2014 -0.1503
  551SOL     OW 1651   1.071   0.063   1.045  0.2002 -0.4317  0.4009
  551SOL    HW1 1652   0.976   0.091   1.024  1.0883 -0.3146  0.6563
  551SOL    HW2 1653   1.118   0.052   0.957  0.0042  2.8422 -0.1404
  552SOL     OW 1654   0.008   1.751   2.795  0.4366  0.0134  0.4306
  552SOL    HW1 1655   0.098   1.761   2.754  0.6707  3.2924 -0.3519
  552SOL    HW2 1656   0.008   1.762   2.896  2.5188 -1.0601  0.9728
  553SOL     OW 1657   2.490   2.525   0.282  0.1958 -0.7873 -0.0717
  553SOL    HW1 1658   2.566   2.588   0.257 -0.1461  1.3716 -1.3138
  553SOL    HW2 1659   2.402   2.554   0.243  1.5437  3.0738 -2.0491
  554SOL     OW 1660   2.069   1.187   1.485  0.2427  0.2210  0.2099
  554SOL    HW1 1661   2.014   1.254   1.437 -0.1912 -1.9027 -1.5339
  554SOL    HW2 1662   2.013   1.128   1.546  2.2084 -0.5760  2.9549
  555SOL     OW 1663   0.669   2.515   2.550 -0.3885 -0.0420 -0.8025
  555SOL    HW1 1664   0.602   2.461   2.606  0.1406  0.3486  1.3840
  555SOL    HW2 1665   0.675   2.612   2.587  1.5093 -0.3909  0.1967
  556SOL     OW 1666   1.167   1.340   1.599 -0.1607  0.5889 -0.2525
  556SOL    HW1 1667   1.264   1.324   1.578 -1.9669  1.4513  1.2865
  556SOL    HW2 1668   1.133   1.396   1.522  0.4568 -1.1552  0.7338
  557SOL     OW 1669   1.367   2.904   1.215 -0.4790  0.2398 -0.4139
  557SOL    HW1 1670   1.417   2.980   1.265  2.1612  1.2279  1.7559
  557SOL    HW2 1671   1.269   2.919   1.223 -1.0770 -2.0824  0.3646
  558SOL     OW 1672   0.324   0.611   2.315 -0.0257 -0.1698 -0.4712
  558SOL    HW1 1673   0.364   0.577   2.229  1.9569 -0.2943 -0.3406
  558SOL    HW2 1674   0.242   0.560   2.343 -1.2922  0.6743 -0.1203
  559SOL     OW 1675   1.061   2.710   0.294  0.1357  0.1651  0.1412
  559SOL    HW1 1676   0.994   2.766   0.347  2.3811 -1.2770 -0.3028
  559SOL    HW2 1677   1.128   2.646   0.345 -0.9201 -2.2436  1.7451
  560SOL     OW 1678   1.653   1.893   0.310  0.0480 -0.6793 -0.0552
  560SOL    HW1 1679   1.656   1.797   0.282 -0.1693  3.2670 -0.2740
  560SOL    HW2 1680   1.689   1.963   0.243  0.7403 -1.6099  0.9129
  561SOL     OW 1681   1.224   2.888   0.563 -0.2696  0.3280 -0.0556
  561SOL    HW1 1682   1.192   2.956   0.497 -0.9965 -0.7078  1.0131
  561SOL    HW2 1683   1.264   2.925   0.648  1.0871 -1.6696 -3.2545
  562SOL     OW 1684   0.335   0.867   2.219  0.1645 -0.3772  0.3466
  562SOL    HW1 1685   0.429   0.900   2.204 -1.0423  0.3016  1.0361
  562SOL    HW2 1686   0.324   0.778   2.268  0.7850  5.7405 -1.4701
  563SOL     OW 1687   1.340   2.266   2.392 -0.5467  0.2426 -0.1742
  563SOL    HW1 1688   1.364   2.340   2.331 -0.1865 -2.1111 -1.5078
  563SOL    HW2 1689   1.372   2.175   2.364  2.0586 -2.5374  2.5445
  564SOL     OW 1690   2.425   0.669   1.294  0.2129  0.0119 -0.1786
  564SOL    HW1 1691   2.438   0.724   1.209 -1.9241 -0.9331 -1.3866
  564SOL    HW2 1692   2.394   0.731   1.373 -0.1810  1.6116  2.2375
  565SOL     OW 1693   1.349   0.976   0.272  0.2336 -0.1087 -0.1017
  565SOL    HW1 1694   1.337   1.043   0.197 -0.7872  0.8681 -0.8838
  565SOL    HW2 1695   1.447   0.974   0.300  1.7025  0.7343  1.6047
  566SOL     OW 1696   2.227   2.520   2.858  0.3934  0.0450  0.2651
  566SOL    HW1 1697   2.321   2.563   2.849  1.3697  0.8357  0.4344
  566SOL    HW2 1698   2.188   2.536   2.951  0.6585  1.7250  0.0115
  567SOL     OW 1699   1.701   0.976   1.217 -0.8532  0.3917  0.7218
  567SOL    HW1 1700   1.760   1.023   1.148  1.0602 -1.8012 -0.3266
  567SOL    HW2 1701   1.644   0.898   1.177 -1.3833 -1.0755  0.9918
  568SOL     OW 1702   1.189   1.589   2.432  0.0438  0.2641 -0.0429
  568SOL    HW1 1703   1.123   1.610   2.506 -0.6229 -1.7953 -2.4653
  568SOL    HW2 1704   1.196   1.668   2.368 -0.3316 -1.8212  1.8195
  569SOL     OW 1705   2.047   1.545   0.924 -0.7602 -0.5698 -0.4481
  569SOL    HW1 1706   2.115   1.538   0.849 -1.3116 -2.0090  0.9797
  569SOL    HW2 1707   2.092   1.513   1.006  1.5335  2.7450 -1.4964
  570SOL     OW 1708   2.690   2.345   2.175 -0.0115 -0.5584 -0.2904
  570SOL    HW1 1709   2.750   2.395   2.106 -0.3395  0.8360 -5.1948
  570SOL    HW2 1710   2.737   2.330   2.264  0.7149  0.1384  0.7702
  571SOL     OW 1711   2.820   1.800   1.847  0.1858  0.2748  0.0213
  571SOL    HW1 1712   2.818   1.868   1.925 -0.7069  0.2784  0.7094
  571SOL    HW2 1713   2.775   1.842   1.765 -0.8291  2.2744 -1.0912
  572SOL     OW 1714   1.300   2.194   2.778 -0.2997  0.4885 -0.3823
  572SOL    HW1 1715   1.240   2.272   2.744 -1.6285 -1.0639 -0.8841
  572SOL    HW2 1716   1.396   2.198   2.743 -1.9501 -1.3017  1.3403
  573SOL     OW 1717   1.549   2.143   1.261 -0.0165  0.5467 -0.0692
  573SOL    HW1 1718   1.492   2.068   1.233 -0.7963 -0.6190  0.7063
  573SOL    HW2 1719   1.623   2.103   1.323 -0.5281  3.1694 -0.6898
  574SOL     OW 1720   1.158   2.696   1.331  0.2403  0.4367 -0.5345
  574SOL    HW1 1721   1.079   2.639   1.353  3.0064  3.0826  0.1982
  574SOL    HW2 1722   1.131   2.784   1.280 -2.4489  1.2677 -1.1360
  575SOL     OW 1723   0.811   0.342   0.911 -0.1682  0.0868  0.4477
  575SOL    HW1 1724   0.910   0.343   0.923 -2.0957  0.4506 -3.0807
  575SOL    HW2 1725   0.765   0.285   0.984 -0.8147 -0.7207  0.0313
  576SOL     OW 1726   2.389   0.410   1.435  0.7683 -0.0719  0.3013
  576SOL    HW1 1727   2.438   0.492   1.391  3.1742  0.0385  0.3634
  576SOL    HW2 1728   2.443   0.377   1.511 -1.1181  0.5827 -3.3471
  577SOL     OW 1729   2.148   0.157   2.948  0.5612 -0.2644  0.6112
  577SOL    HW1 1730   2.142   0.224   3.021 -0.5629 -1.8555 -2.9172
  577SOL    HW2 1731   2.111   0.200   2.864 -1.2157 -3.2901  0.4383
  578SOL     OW 1732   1.881   1.879   2.105  0.1568 -0.2527 -0.1470
  578SOL    HW1 1733   1.879   1.787   2.139  0.2131  0.6638 -0.6372
  578SOL    HW2 1734   1.924   1.881   2.012  0.8230  0.4340  1.8119
  579SOL     OW 1735   0.630   1.782   1.064  0.5219  0.5364 -0.4986
  579SOL    HW1 1736   0.571   1.867   1.064  0.8901  2.4958 -1.1515
  579SOL    HW2 1737   0.615   1.728   0.976  3.4617 -2.0509 -3.7473
  580SOL     OW 1738   1.479   3.004   2.862  0.0589 -0.1741  0.5200
  580SOL    HW1 1739   1.408   3.073   2.826 -2.6064  3.7384 -0.7814
  580SOL    HW2 1740   1.524   2.960   2.781 -2.2519  1.2164 -0.6137
  581SOL     OW 1741   0.872   0.754   2.047  0.1684  0.2586 -0.3690
  581SOL    HW1 1742   0.968   0.752   2.011 -2.1848 -0.7791  2.4145
  581SOL    HW2 1743   0.875   0.779   2.145  0.1135  1.4149 -0.5174
  582SOL     OW 1744   0.356   0.630   0.822 -0.8234  0.0536  0.0194
  582SOL    HW1 1745   0.345   0.698   0.743 -1.5695  2.5533 -0.4572
  582SOL    HW2 1746   0.338   0.535   0.797  0.3757  3.3258  0.5439
  583SOL     OW 1747   0.981   1.927   2.025  0.7365 -0.5439 -0.2312
  583SOL    HW1 1748   0.900   1.971   2.073 -1.8371  1.9208  0.3386
  583SOL    HW2 1749   1.070   1.965   2.051 -2.6022 -0.3853 -0.8385
  584SOL     OW 1750   2.238   2.622   0.256 -0.6770 -0.1298  0.2601
  584SOL    HW1 1751   2.180   2.605   0.334 -1.1032 -0.3630 -1.3181
  584SOL    HW2 1752   2.241   2.724   0.235 -0.9198  0.8960 -0.2995
  585SOL     OW 1753   2.284   0.453   2.760 -0.4339 -0.0208  0.0902
  585SOL    HW1 1754   2.236   0.508   2.831  0.7405  1.7770  0.7920
  585SOL    HW2 1755   2.328   0.509   2.685 -0.3627  0.8613  2.3193
  586SOL     OW 1756   0.430   1.316   0.452 -0.4095  0.1740 -0.2151
  586SOL    HW1 1757   0.489   1.342   0.527  0.1656 -2.0060 -0.0286
  586SOL    HW2 1758   0.333   1.342   0.465  0.6514  3.9760  1.3585
  587SOL     OW 1759   1.559   1.887   0.979  0.3601  0.3513  0.0697
  587SOL    HW1 1760   1.632   1.880   1.052 -0.0824 -0.3768 -0.6961
  587SOL    HW2 1761   1.478   1.943   1.005 -0.3798 -0.7945 -0.2620
  588SOL     OW 1762   0.547   0.509   1.094  0.0925  0.0136  0.0221
  588SOL    HW1 1763   0.637   0.521   1.147 -1.3613 -1.6915  1.0299
  588SOL    HW2 1764   0.556   0.543   1.000  0.6495  0.4066 -0.1472
  589SOL     OW 1765   1.851   2.991   1.014  0.7318  0.2454  0.6694
  589SOL    HW1 1766   1.940   3.015   0.973 -1.6241  1.0909 -0.0321
  589SOL    HW2 1767   1.822   2.897   0.996  0.1186  0.1587  3.0323
  590SOL     OW 1768   1.610   0.986   0.316 -0.7109  0.6187 -0.0654
  590SOL    HW1 1769   1.643   0.976   0.221 -0.2442 -0.8585  0.0595
  590SOL    HW2 1770   1.625   1.081   0.350 -0.6073 -1.4765 -0.7207
  591SOL     OW 1771   2.273   2.293   2.177 -0.7971 -0.1524  0.0434
  591SOL    HW1 1772   2.264   2.238   2.261  1.3346  2.3435  1.2978
  591SOL    HW2 1773   2.336   2.252   2.106 -0.2503  3.6982 -1.4000
  592SOL     OW 1774   1.345   1.980   1.139 -0.3985 -0.3619  0.6848
  592SOL    HW1 1775   1.374   1.902   1.197  0.4835  1.0686 -0.2919
  592SOL    HW2 1776   1.257   2.027   1.167  0.4041  1.6194 -0.4811
  593SOL     OW 1777   0.662   0.044   0.944  0.2502  0.1878 -0.2497
  593SOL    HW1 1778   0.739   3.076   0.922 -1.6733 -1.7194  1.0187
  593SOL    HW2 1779   0.627   0.095   0.859 -0.1661  0.0569 -2.2947
  594SOL     OW 1780   2.845   0.903   1.903  0.0611 -0.2411 -0.0641
  594SOL    HW1 1781   2.850   1.002   1.935  0.1072  0.4611  1.3784
  594SOL    HW2 1782   2.922   0.888   1.839 -1.3504  1.3052  0.1267
  595SOL     OW 1783   0.097   3.029   0.466 -0.6506 -0.1705 -0.1077
  595SOL    HW1 1784   0.008   2.980   0.482 -1.4687 -1.5641 -2.5460
  595SOL    HW2 1785   0.148   3.051   0.555  3.1348  1.3899  3.5837
  596SOL     OW 1786   0.002   0.423   1.502  0.0504 -0.4336  0.0699
  596SOL    HW1 1787   0.064   0.425   1.418 -0.5492  0.4137  0.7260
  596SOL    HW2 1788   2.994   0.433   1.478  0.3906  0.5301  0.3726
  597SOL     OW 1789   2.249   0.997   0.467 -0.2029  0.3427  0.0490
  597SOL    HW1 1790   2.308   0.956   0.392 -1.3236 -0.5452 -1.6202
  597SOL    HW2 1791   2.296   1.087   0.492 -3.1227 -1.4155  0.4951
  598SOL     OW 1792   0.543   0.044   2.028 -0.4290  0.2607 -0.0120
  598SOL    HW1 1793   0.472   0.057   1.953  0.8468 -2.1245  0.5494
  598SOL    HW2 1794   0.514   0.103   2.107 -0.6832 -1.3954  1.8328
  599SOL     OW 1795   2.535   1.740   0.210 -0.1152  0.1694 -0.0981
  599SOL    HW1 1796   2.454   1.805   0.224 -3.5516  3.6477  0.0373
  599SOL    HW2 1797   2.584   1.763   0.126  0.0593  1.6828  1.9327
  600SOL     OW 1798   0.995   0.972   3.043 -0.3238  0.0208  0.2059
  600SOL    HW1 1799   0.948   1.035   2.980 -0.3732  2.0139 -2.1853
  600SOL    HW2 1800   0.936   0.946   0.029  2.1272  1.1270  0.1882
  601SOL     OW 1801   1.281   1.099   0.010  0.2331  0.2650  0.1917
  601SOL    HW1 1802   1.250   1.200   3.088 -1.1856  1.0449 -1.7301
  601SOL    HW2 1803   1.207   1.031   0.006  0.9878  0.5801 -0.4952
  602SOL     OW 1804   0.962   3.044   1.465  0.3439 -0.0295  0.2647
  602SOL    HW1 1805   0.928   3.024   1.559  1.7941 -1.4956  1.4942
  602SOL    HW2 1806   1.014   0.038   1.450 -1.4189  0.0632  0.1804
  603SOL     OW 1807   0.864   2.924   2.440  0.0187 -0.4164 -0.2170
  603SOL    HW1 1808   0.810   3.009   2.468 -1.9754  0.0082  0.5893
  603SOL    HW2 1809   0.962   2.953   2.433 -1.3651  0.6295  1.8343
  604SOL     OW 1810   2.866   3.090   2.210  0.2518 -0.0271  0.9125
  604SOL    HW1 1811   2.785   0.045   2.255 -0.5048  1.8301 -0.4352
  604SOL    HW2 1812   2.830   3.004   2.168 -4.3728 -2.4498 -1.0101
  605SOL     OW 1813   2.776   2.753   1.368 -0.1103 -0.8494 -0.1478
  605SOL    HW1 1814   2.709   2.679   1.387 -0.8184 -0.7773 -0.5325
  605SOL    HW2 1815   2.731   2.821   1.303 -3.9003  0.4925 -0.3897
  606SOL     OW 1816   2.970   2.015   2.763  0.3111 -0.6053 -0.1695
  606SOL    HW1 1817   2.969   2.075   2.847  0.5733 -1.1188  2.0819
  606SOL    HW2 1818   2.991   1.920   2.784 -0.4512  0.3623  1.9767
  607SOL     OW 1819   0.870   0.170   0.683 -0.1675 -0.7614 -0.4979
  607SOL    HW1 1820   0.964   0.200   0.653  1.5172 -2.0330  1.7787
  607SOL    HW2 1821   0.845   0.227   0.761  0.7334 -2.1095 -0.0750
  608SOL     OW 1822   1.667   1.870   2.368  0.3063 -0.1368 -0.0588
  608SOL    HW1 1823   1.580   1.835   2.320 -0.8103  0.4430 -1.2208
  608SOL    HW2 1824   1.732   1.912   2.303  0.9159 -0.9482 -1.3446
  609SOL     OW 1825   2.882   0.348   0.904 -0.0672  0.0476  0.4400
  609SOL    HW1 1826   2.848   0.265   0.861  3.6394 -0.8030 -2.8576
  609SOL    HW2 1827   2.958   0.387   0.851 -1.2506 -1.8153 -1.4929
  610SOL     OW 1828   0.692   2.307   0.189  0.2469  0.1708 -0.3270
  610SOL    HW1 1829   0.749   2.390   0.190  1.2222 -1.4709  0.7848
  610SOL    HW2 1830   0.744   2.223   0.178 -1.2755  1.0590 -2.4017
  611SOL     OW 1831   1.806   1.089   0.575 -0.0793  0.0640  0.3287
  611SOL    HW1 1832   1.718   1.126   0.546 -0.4787  0.3571 -1.7830
  611SOL    HW2 1833   1.856   1.060   0.487  0.0151 -2.5826 -1.3682
  612SOL     OW 1834   0.956   2.615   2.407  0.1438  0.1369 -0.0326
  612SOL    HW1 1835   0.856   2.595   2.433 -2.4608  0.3077  0.0549
  612SOL    HW2 1836   0.981   2.711   2.421  0.2660 -0.7828 -3.5065
  613SOL     OW 1837   1.203   1.623   0.461  0.5308  0.3967  0.5369
  613SOL    HW1 1838   1.277   1.581   0.513 -0.1555  1.3471 -1.7447
  613SOL    HW2 1839   1.192   1.726   0.462 -0.9135  0.1543 -0.9172
  614SOL     OW 1840   2.670   2.278   1.601  0.4835  0.5710  0.1681
  614SOL    HW1 1841   2.646   2.301   1.504  1.5688  0.0581 -2.4464
  614SOL    HW2 1842   2.601   2.309   1.671 -1.3993 -0.9024  0.6637
  615SOL     OW 1843   2.495   1.304   0.030  0.4712 -0.4865  0.2760
  615SOL    HW1 1844   2.530   1.364   3.049  2.3811  0.7856 -2.6881
  615SOL    HW2 1845   2.449   1.222   3.082 -1.6238 -0.1575 -1.5475
  616SOL     OW 1846   1.498   0.141   0.841 -0.0383  0.4156  0.1500
  616SOL    HW1 1847   1.508   0.074   0.916 -0.5595  3.3677  0.3851
  616SOL    HW2 1848   1.579   0.190   0.819 -3.1616  0.4271  1.8715
  617SOL     OW 1849   0.502   1.345   2.763  0.1512  0.6373 -0.1803
  617SOL    HW1 1850   0.557   1.426   2.728  0.7112 -2.1822  0.3822
  617SOL    HW2 1851   0.409   1.345   2.727  2.7205 -1.4862  2.5016
  618SOL     OW 1852   0.259   0.812   1.752  0.2256  0.3606  0.1233
  618SOL    HW1 1853   0.288   0.770   1.662 -0.4122  0.8871 -2.8814
  618SOL    HW2 1854   0.339   0.850   1.801 -1.1169  0.5026  0.0632
  619SOL     OW 1855   2.611   0.809   1.637 -0.4451 -0.0990 -0.6646
  619SOL    HW1 1856   2.697   0.767   1.607  0.9355 -0.6650  0.2987
  619SOL    HW2 1857   2.556   0.733   1.682 -2.4013 -3.5469  2.8245
  620SOL     OW 1858   2.066   1.250   3.050 -0.2416  0.1540 -0.0186
  620SOL    HW1 1859   2.027   1.166   3.004 -1.0878  2.1186  0.3154
  620SOL    HW2 1860   2.037   1.250   0.054  0.7412  2.0901 -0.0174
  621SOL     OW 1861   2.331   2.937   0.977 -0.0138 -0.0170 -0.4617
  621SOL    HW1 1862   2.334   2.983   1.068  1.3341  0.3214  2.4535
  621SOL    HW2 1863   2.391   2.984   0.913 -2.4147 -1.5568  1.5742
  622SOL     OW 1864   1.448   0.723   2.156 -0.2004 -0.1011  0.0887
  622SOL    HW1 1865   1.457   0.761   2.059  1.0130 -1.1485  1.3958
  622SOL    HW2 1866   1.378   0.778   2.204  0.2372  1.3539  1.6048
  623SOL     OW 1867   1.093   0.885   2.583  0.0451  0.6735 -0.0926
  623SOL    HW1 1868   1.005   0.914   2.621  4.2779 -0.0773 -1.5649
  623SOL    HW2 1869   1.160   0.958   2.567 -1.1617  0.1547  0.2433
  624SOL     OW 1870   1.779   0.186   0.745  0.0833 -0.1089 -0.2526
  624SOL    HW1 1871   1.766   0.209   0.648  0.0395  2.9404 -0.8868
  624SOL    HW2 1872   1.813   0.094   0.754  0.6971  1.7022 -1.4952
  625SOL     OW 1873   0.622   1.507   0.531 -0.5355 -0.3066  0.0534
  625SOL    HW1 1874   0.690   1.428   0.521 -0.7558  0.0599 -1.3634
  625SOL    HW2 1875   0.631   1.570   0.611  1.0578 -0.2832 -0.7508
  626SOL     OW 1876   1.766   1.265   2.280 -0.1389  0.5768 -0.5439
  626SOL    HW1 1877   1.775   1.230   2.186  0.6890 -1.6171 -1.8907
  626SOL    HW2 1878   1.677   1.316   2.291 -3.0051 -0.0127  0.9731
  627SOL     OW 1879   0.668   0.336   1.758  0.4673  0.2355 -0.0326
  627SOL    HW1 1880   0.744   0.329   1.826  1.2217  0.4272  0.5292
  627SOL    HW2 1881   0.574   0.331   1.797 -1.5668  0.9211  1.3666
  628SOL     OW 1882   2.108   0.762   2.445  0.0414  0.5241  0.0830
  628SOL    HW1 1883   2.133   0.681   2.387  1.2193  1.5567  1.9067
  628SOL    HW2 1884   2.100   0.847   2.388  0.0913 -1.3648 -1.1916
  629SOL     OW 1885   0.761   1.368   0.161  0.0315 -0.0115 -0.6565
  629SOL    HW1 1886   0.749   1.461   0.196 -0.3456 -0.7619 -0.4588
  629SOL    HW2 1887   0.761   1.380   0.062  0.3405  2.0078  1.5918
  630SOL     OW 1888   0.791   0.498   2.053  0.1157 -0.3143  0.6264
  630SOL    HW1 1889   0.818   0.596   2.044 -0.1041  1.1107  1.7197
  630SOL    HW2 1890   0.722   0.483   2.125  2.4577 -2.1978 -0.4546
  631SOL     OW 1891   2.765   0.946   0.732  0.0652 -0.0839 -0.1559
  631SOL    HW1 1892   2.782   0.929   0.831  0.6286 -0.3907  1.5015
  631SOL    HW2 1893   2.689   0.895   0.693 -1.1895 -0.3484  2.1116
  632SOL     OW 1894   2.543   1.588   0.838  0.5010 -0.2620  0.3603
  632SOL    HW1 1895   2.628   1.548   0.872 -1.8250  0.1952  0.7590
  632SOL    HW2 1896   2.560   1.655   0.761 -0.0597 -1.4746 -3.1261
  633SOL     OW 1897   0.811   1.355   0.917 -0.4465 -0.4871 -0.4757
  633SOL    HW1 1898   0.781   1.290   0.992  1.0415 -0.4960  1.9189
  633SOL    HW2 1899   0.802   1.310   0.823  0.5579 -0.4537 -2.7823
  634SOL     OW 1900   1.562   3.014   0.664  0.5621 -0.1333 -0.3391
  634SOL    HW1 1901   1.537   3.034   0.568  2.3866  0.2195  2.4721
  634SOL    HW2 1902   1.526   3.085   0.730 -2.2786 -0.1805 -1.6767
  635SOL     OW 1903   1.892   0.537   1.408 -0.2440  0.1190 -0.3036
  635SOL    HW1 1904   1.965   0.595   1.370 -1.3006 -0.4449 -0.9637
  635SOL    HW2 1905   1.826   0.592   1.468 -2.2214  2.3634  1.5545
  636SOL     OW 1906   1.108   0.642   0.616  0.4675  0.2887 -0.2139
  636SOL    HW1 1907   1.067   0.622   0.708 -0.9458  0.5730  0.1116
  636SOL    HW2 1908   1.093   0.559   0.556 -2.8079 -0.6588  0.6357
  637SOL     OW 1909   1.605   2.102   2.970  0.6762  0.1946 -0.1043
  637SOL    HW1 1910   1.579   2.105   2.871  0.6239  2.2047 -1.0200
  637SOL    HW2 1911   1.684   2.043   2.977 -2.0328  1.4695  2.2531
  638SOL     OW 1912   1.046   3.067   2.815 -0.1015 -0.0086 -0.6924
  638SOL    HW1 1913   1.054   3.028   2.909 -1.0863 -1.9414  0.0755
  638SOL    HW2 1914   0.957   0.017   2.816 -1.9749 -1.6319  1.9339
  639SOL     OW 1915   1.273   2.067   1.516 -0.3831 -0.1196  0.8550
  639SOL    HW1 1916   1.262   1.973   1.544 -0.7957  0.6167  1.8882
  639SOL    HW2 1917   1.214   2.086   1.438  1.9350 -1.3823 -0.0568
  640SOL     OW 1918   0.501   0.127   2.833 -0.3214  0.1706  0.0965
  640SOL    HW1 1919   0.443   0.119   2.917 -0.1862  1.6040 -1.1430
  640SOL    HW2 1920   0.459   0.064   2.762 -0.8382 -0.2595 -3.0037
  641SOL     OW 1921   0.346   0.588   0.331  0.0394 -0.3208  0.2188
  641SOL    HW1 1922   0.254   0.622   0.309 -1.0264  0.2775  0.5382
  641SOL    HW2 1923   0.390   0.629   0.415 -0.8648 -0.0365 -0.7152
  642SOL     OW 1924   0.325   1.636   1.307 -0.2582 -0.4515  0.2327
  642SOL    HW1 1925   0.424   1.664   1.321  2.8022 -1.6677 -2.8603
  642SOL    HW2 1926   0.315   1.571   1.227  2.2906  0.1523  0.3496
  643SOL     OW 1927   0.601   1.801   2.535 -0.2219 -0.0006  0.5047
  643SOL    HW1 1928   0.535   1.859   2.488  3.1486 -1.8682 -1.4112
  643SOL    HW2 1929   0.601   1.826   2.634 -0.2176  0.7717 -1.9962
  644SOL     OW 1930   1.689   2.370   0.212 -0.1505  0.1426 -0.2818
  644SOL    HW1 1931   1.781   2.413   0.206  0.5290 -0.0544  2.3257
  644SOL    HW2 1932   1.617   2.442   0.227  0.5041 -1.7391  1.4912
  645SOL     OW 1933   1.867   2.109   1.667  0.0916  0.1550  0.4163
  645SOL    HW1 1934   1.792   2.088   1.730  0.7952  0.3589 -1.0643
  645SOL    HW2 1935   1.911   2.198   1.702  3.1422  0.5285 -1.3644
  646SOL     OW 1936   0.724   2.664   0.319  0.5415  0.2983  0.3961
  646SOL    HW1 1937   0.806   2.622   0.275  0.2752  0.2677  0.8375
  646SOL    HW2 1938   0.674   2.705   0.243  2.4532 -2.8960  0.7711
  647SOL     OW 1939   0.196   2.985   2.255 -0.0295  0.0720  0.4893
  647SOL    HW1 1940   0.160   3.032   2.339 -4.6725  0.3579  0.4165
  647SOL    HW2 1941   0.299   2.978   2.255  2.6140  1.2766 -0.5934
  648SOL     OW 1942   2.944   0.909   0.996  0.1625 -0.2509  0.3202
  648SOL    HW1 1943   2.939   0.811   1.008  1.1823  4.5277  1.3109
  648SOL    HW2 1944   2.852   0.946   1.000  0.8396  0.8524 -1.8603
  649SOL     OW 1945   2.004   2.641   2.523  0.6262 -0.3039  0.1115
  649SOL    HW1 1946   1.905   2.660   2.510 -2.6705 -2.8998  1.7625
  649SOL    HW2 1947   2.063   2.723   2.537  1.0805 -1.8769  2.6845
  650SOL     OW 1948   2.338   1.553   1.937  0.0406  0.8246  0.0220
  650SOL    HW1 1949   2.300   1.504   1.855 -1.9357  0.6655  0.6069
  650SOL    HW2 1950   2.424   1.505   1.966  0.3387  0.6104 -0.6983
  651SOL     OW 1951   1.191   1.955   2.675  0.1740 -0.1626 -0.0602
  651SOL    HW1 1952   1.211   2.037   2.729 -0.3457 -2.2817  0.2438
  651SOL    HW2 1953   1.277   1.905   2.668 -0.2240 -1.1791  1.7904
  652SOL     OW 1954   0.660   0.029   2.539 -0.2210  0.0385 -0.8881
  652SOL    HW1 1955   0.566   0.011   2.562  0.4876 -0.0675  0.6515
  652SOL    HW2 1956   0.683   0.118   2.582 -4.0495 -0.1019  2.2881
  653SOL     OW 1957   2.371   1.858   0.991 -0.0015  0.3279 -0.2396
  653SOL    HW1 1958   2.396   1.765   1.011  1.2615  0.1508 -1.2701
  653SOL    HW2 1959   2.372   1.909   1.082 -1.1856  0.9610  2.0770
  654SOL     OW 1960   2.445   2.977   2.007  0.1562  0.3443 -0.3278
  654SOL    HW1 1961   2.373   2.956   2.072  4.9252 -1.7232 -2.6607
  654SOL    HW2 1962   2.420   3.052   1.945  0.1859  0.3552 -3.1976
  655SOL     OW 1963   2.594   2.320   1.097 -0.4696  0.0087  0.6540
  655SOL    HW1 1964   2.535   2.304   1.014 -2.2448 -3.2021 -1.1494
  655SOL    HW2 1965   2.589   2.417   1.133 -1.8636  1.2900 -0.4846
  656SOL     OW 1966   2.645   1.860   2.694  0.2297  0.3424 -0.4560
  656SOL    HW1 1967   2.708   1.868   2.615  4.4124 -0.4014 -0.4115
  656SOL    HW2 1968   2.622   1.953   2.733  0.5145  1.3052 -0.7486
  657SOL     OW 1969   0.046   1.193   0.622 -0.0096  0.1218  0.7161
  657SOL    HW1 1970   3.077   1.150   0.554  1.2432  1.0583  0.5198
  657SOL    HW2 1971   0.028   1.157   0.716 -0.0159 -0.3043  0.1322
  658SOL     OW 1972   1.385   1.524   1.412 -0.5258  0.2135 -0.2994
  658SOL    HW1 1973   1.318   1.499   1.339 -0.1851 -0.2637 -0.2207
  658SOL    HW2 1974   1.338   1.592   1.471  0.4224 -2.4761 -1.6564
  659SOL     OW 1975   1.093   2.952   1.244 -0.3383  0.3087  0.3376
  659SOL    HW1 1976   1.078   3.025   1.175  0.2964 -0.4166  1.7347
  659SOL    HW2 1977   1.053   2.975   1.334  0.4973  0.0183 -1.5108
  660SOL     OW 1978   2.340   0.703   0.860 -0.5883  0.6669 -0.0254
  660SOL    HW1 1979   2.292   0.751   0.780  0.6314  0.0223  1.8273
  660SOL    HW2 1980   2.275   0.639   0.906  1.9882  1.2835  0.4483
  661SOL     OW 1981   0.459   1.712   0.194  0.4373 -0.1644  0.3054
  661SOL    HW1 1982   0.545   1.662   0.209  3.2892  2.6361 -0.6198
  661SOL    HW2 1983   0.489   1.805   0.176  2.0933 -1.9733 -0.5261
  662SOL     OW 1984   2.078   0.888   2.045 -0.0167  0.1864 -0.0642
  662SOL    HW1 1985   2.059   0.793   2.011 -1.2334  1.3648 -0.4060
  662SOL    HW2 1986   2.172   0.912   2.015 -1.0015  0.6461 -1.5100
  663SOL     OW 1987   1.889   1.329   1.186  0.0164 -0.5567  0.3016
  663SOL    HW1 1988   1.866   1.254   1.121 -0.0141  1.1616  1.3434
  663SOL    HW2 1989   1.984   1.368   1.161  1.9169  1.7206 -0.6949
  664SOL     OW 1990   0.266   0.026   0.978  0.0397 -0.1114  0.3685
  664SOL    HW1 1991   0.349   3.065   0.954  0.4753  0.6312 -1.5119
  664SOL    HW2 1992   0.256   0.020   1.078 -0.4317  1.0813 -0.3874
  665SOL     OW 1993   1.487   0.429   2.754  0.2064  0.2814 -0.2361
  665SOL    HW1 1994   1.499   0.445   2.854  1.9118 -0.8663 -0.0299
  665SOL    HW2 1995   1.497   0.514   2.693 -0.5356 -0.7133 -0.6901
  666SOL     OW 1996   0.423   0.558   2.046 -0.1335  0.1077  0.1583
  666SOL    HW1 1997   0.348   0.537   1.979  1.1398  0.2764 -0.7854
  666SOL    HW2 1998   0.491   0.610   1.996 -0.1117 -0.2387  1.0764
  667SOL     OW 1999   1.674   1.808   1.567  0.1056 -0.1408 -0.6825
  667SOL    HW1 2000   1.768   1.779   1.588 -0.1179 -1.2250  1.5761
  667SOL    HW2 2001   1.621   1.835   1.653 -1.4662  1.0919  2.2696
  668SOL     OW 2002   0.231   1.327   2.378 -0.3062  0.4833 -0.2379
  668SOL    HW1 2003   0.191   1.239   2.344 -0.3720 -0.3787  0.2480
  668SOL    HW2 2004   0.202   1.406   2.328 -1.6856 -2.5561  1.9288
  669SOL     OW 2005   2.488   2.584   2.860 -0.0336  0.5099  0.0911
  669SOL    HW1 2006   2.536   2.507   2.815 -4.1284  1.1728  2.5139
  669SOL    HW2 2007   2.552   2.641   2.917  3.2645  1.4232 -0.3747
  670SOL     OW 2008   2.571   1.178   1.961  0.4446  0.2453  0.1193
  670SOL    HW1 2009   2.518   1.145   1.881 -1.4600 -0.7009  1.8770
  670SOL    HW2 2010   2.556   1.122   2.045  1.9844  1.4447  0.1507
  671SOL     OW 2011   2.637   1.767   0.648 -0.4730 -0.2330 -0.1075
  671SOL    HW1 2012   2.588   1.848   0.694 -0.4755 -3.1440 -0.4987
  671SOL    HW2 2013   2.725   1.792   0.597 -1.3225 -1.0701  0.4810
  672SOL     OW 2014   1.380   1.273   1.982  0.2048 -0.5887  0.3721
  672SOL    HW1 2015   1.460   1.261   1.925 -0.7203 -1.7920  2.7656
  672SOL    HW2 2016   1.333   1.187   2.002  3.6608  0.6233  0.3544
  673SOL     OW 2017   2.720   1.969   1.612  0.1430  0.0598  0.3844
  673SOL    HW1 2018   2.704   2.070   1.629  0.7315 -0.9406 -0.6254
  673SOL    HW2 2019   2.760   1.952   1.520 -2.7509 -1.7639  0.1515
  674SOL     OW 2020   1.327   1.705   1.600  0.1751 -0.2419  0.3248
  674SOL    HW1 2021   1.349   1.645   1.684  0.4347 -2.5354  0.3853
  674SOL    HW2 2022   1.236   1.739   1.603 -0.2354 -2.1031 -1.6806
  675SOL     OW 2023   0.125   0.588   1.296 -0.0073  0.1915  0.4656
  675SOL    HW1 2024   0.200   0.612   1.232 -0.1011 -1.5714  1.0810
  675SOL    HW2 2025   0.037   0.593   1.249 -0.2132  2.4764  1.3015
  676SOL     OW 2026   2.971   0.948   1.554 -0.5886  0.1449 -0.1275
  676SOL    HW1 2027   2.991   0.894   1.642  1.1689  0.6637  2.5307
  676SOL    HW2 2028   2.941   0.886   1.480 -1.3055  1.6425 -2.1446
  677SOL     OW 2029   2.070   1.284   2.608 -0.2613  0.0819  0.1040
  677SOL    HW1 2030   2.070   1.306   2.509 -0.2240 -0.4530  3.1208
  677SOL    HW2 2031   2.163   1.291   2.648 -0.5280  0.6404  1.6687
  678SOL     OW 2032   2.610   1.558   1.265  0.0274  0.0946 -0.8184
  678SOL    HW1 2033   2.640   1.479   1.206  0.5566 -0.1455 -1.8910
  678SOL    HW2 2034   2.688   1.627   1.276  1.9185  2.4326  1.4294
  679SOL     OW 2035   0.323   2.623   0.223 -0.0427  0.4866 -0.2159
  679SOL    HW1 2036   0.234   2.596   0.178 -0.7450 -1.0682 -2.5563
  679SOL    HW2 2037   0.372   2.537   0.254 -1.4997 -1.6278  1.0546
  680SOL     OW 2038   0.178   1.748   1.095  0.1880 -0.1152  0.2415
  680SOL    HW1 2039   0.140   1.842   1.111 -0.0745 -1.4402  1.4239
  680SOL    HW2 2040   0.229   1.718   1.179 -1.6272  2.9863 -1.2076
  681SOL     OW 2041   1.119   3.073   0.780  0.5942 -0.1213  0.0179
  681SOL    HW1 2042   1.156   0.035   0.703  1.6958  2.0751  0.5567
  681SOL    HW2 2043   1.186   3.003   0.810  0.5034 -0.2794 -2.4092
  682SOL     OW 2044   1.972   2.642   1.524 -0.0620 -0.2536  0.0622
  682SOL    HW1 2045   2.074   2.631   1.517  0.9256 -0.1783  1.0307
  682SOL    HW2 2046   1.940   2.729   1.483  0.2110 -0.7518 -2.2850
  683SOL     OW 2047   2.480   1.427   1.586 -0.1246 -0.1557 -0.3608
  683SOL    HW1 2048   2.475   1.509   1.523  0.8054 -0.1756 -2.3542
  683SOL    HW2 2049   2.576   1.390   1.603  2.2577  2.3066  1.3496
  684SOL     OW 2050   0.005   1.638   1.931  0.0055 -0.1616 -0.2067
  684SOL    HW1 2051   2.998   1.618   1.919  2.0921 -1.5489  1.3791
  684SOL    HW2 2052   0.023   1.727   1.973 -0.3952  0.5899 -0.4598
  685SOL     OW 2053   1.532   1.452   0.246 -0.2169  0.3415 -0.2508
  685SOL    HW1 2054   1.588   1.519   0.303  4.4597 -0.1476  0.3130
  685SOL    HW2 2055   1.600   1.398   0.189  1.3872  1.8109 -1.8955
  686SOL     OW 2056   2.851   0.675   1.607 -0.0668 -0.1597 -0.5221
  686SOL    HW1 2057   2.915   0.690   1.683  0.1342 -1.4200  0.5103
  686SOL    HW2 2058   2.890   0.614   1.535 -1.5413  3.9305 -0.8822
  687SOL     OW 2059   1.643   0.258   2.556 -0.0154 -0.5377  0.0640
  687SOL    HW1 2060   1.668   0.159   2.588  2.0507 -2.4978  0.6728
  687SOL    HW2 2061   1.599   0.317   2.630 -0.2095  1.8968  1.6664
  688SOL     OW 2062   1.225   1.845   2.281  0.0080 -0.2628  0.5403
  688SOL    HW1 2063   1.217   1.865   2.179  1.4405  1.4127 -1.9584
  688SOL    HW2 2064   1.167   1.915   2.325  2.6565  1.5893 -0.8917
  689SOL     OW 2065   2.278   1.355   1.751 -0.0163 -0.1091  0.3671
  689SOL    HW1 2066   2.249   1.253   1.740  0.4057 -4.6184  1.9459
  689SOL    HW2 2067   2.362   1.372   1.697 -1.7483 -0.8386 -1.1976
  690SOL     OW 2068   2.239   2.309   1.548 -0.2274 -0.5057 -0.1916
  690SOL    HW1 2069   2.278   2.261   1.623 -0.5866 -1.4962 -0.2625
  690SOL    HW2 2070   2.167   2.253   1.510  2.3420  3.8145 -0.5701
  691SOL     OW 2071   0.170   1.665   0.623 -0.3020  0.0350  0.0876
  691SOL    HW1 2072   0.206   1.725   0.551 -2.8749 -0.5017 -0.4536
  691SOL    HW2 2073   0.203   1.687   0.718 -3.6529 -1.8696  0.4824
  692SOL     OW 2074   2.782   2.819   2.563  0.2955 -0.3549  0.6194
  692SOL    HW1 2075   2.694   2.867   2.532 -0.1252  1.6657 -0.6770
  692SOL    HW2 2076   2.853   2.813   2.488  0.7037 -1.0003 -1.8421
  693SOL     OW 2077   0.136   1.487   2.124 -0.0796 -0.1196 -0.3484
  693SOL    HW1 2078   0.150   1.393   2.089 -0.0340 -0.0093  1.8170
  693SOL    HW2 2079   0.079   1.540   2.059 -2.1035  0.2254  0.0865
  694SOL     OW 2080   2.417   0.419   2.108 -0.4855 -0.1372 -0.0010
  694SOL    HW1 2081   2.508   0.426   2.061  1.8630  0.3188  0.1159
  694SOL    HW2 2082   2.359   0.474   2.045 -1.9925  0.6074  0.6142
  695SOL     OW 2083   1.282   0.891   2.287 -0.9435 -0.3145  0.0785
  695SOL    HW1 2084   1.335   0.966   2.317 -1.8966 -1.7939 -0.1832
  695SOL    HW2 2085   1.225   0.918   2.201 -0.4752  1.5682  2.0484
  696SOL     OW 2086   2.385   2.971   1.498  0.5124  0.7375 -0.1785
  696SOL    HW1 2087   2.316   3.034   1.540  0.3670  1.4579  0.8508
  696SOL    HW2 2088   2.368   2.966   1.398 -0.9104  0.7057  0.4055
  697SOL     OW 2089   0.890   0.303   1.913 -0.0761 -0.2827  0.0168
  697SOL    HW1 2090   0.861   0.394   1.953 -0.3203  1.7285  1.4627
  697SOL    HW2 2091   0.852   0.232   1.975  0.6507 -2.1720  0.8932
  698SOL     OW 2092   2.389   1.740   2.690 -0.4004  0.3276 -0.2151
  698SOL    HW1 2093   2.388   1.640   2.665 -0.9233 -1.4156  1.2240
  698SOL    HW2 2094   2.479   1.787   2.667  0.0267 -0.6516  0.5599
  699SOL     OW 2095   2.057   0.732   0.389 -0.3462  0.5470 -0.2404
  699SOL    HW1 2096   1.984   0.777   0.335  3.8585 -3.1016 -0.7624
  699SOL    HW2 2097   2.047   0.755   0.489  0.4277  0.6355 -0.8763
  700SOL     OW 2098   1.309   2.889   0.845 -0.3312  0.4276  0.0157
  700SOL    HW1 2099   1.402   2.864   0.815 -3.7711  1.0448  2.5456
  700SOL    HW2 2100   1.260   2.816   0.894  0.2113  0.8960 -1.9708
  701SOL     OW 2101   2.955   0.482   0.443  0.1519 -0.3520  0.1603
  701SOL    HW1 2102   2.937   0.577   0.407 -1.9656  0.1206 -1.2034
  701SOL    HW2 2103   3.028   0.494   0.511 -2.0155  0.5557 -1.8297
  702SOL     OW 2104   1.829   2.840   1.357  0.0161  0.4742  0.1322
  702SOL    HW1 2105   1.744   2.790   1.340  1.3735 -0.1675 -0.6906
  702SOL    HW2 2106   1.818   2.942   1.365  1.4445 -0.7634  1.1635
  703SOL     OW 2107   3.055   0.412   1.135  0.2035  0.2169  0.0548
  703SOL    HW1 2108   3.052   0.359   1.053  0.3821  0.0415 -0.3928
  703SOL    HW2 2109   0.027   0.371   1.199 -0.1027  1.1907  1.9011
  704SOL     OW 2110   0.914   2.585   1.413  0.3664  0.1566  0.1497
  704SOL    HW1 2111   0.929   2.485   1.429  0.1348 -0.3853  1.6553
  704SOL    HW2 2112   0.819   2.603   1.368 -3.2481  0.2123 -1.3943
  705SOL     OW 2113   0.263   1.867   3.055  0.6750 -0.1051  0.0583
  705SOL    HW1 2114   0.291   1.775   3.020  1.2240 -2.4624 -1.5214
  705SOL    HW2 2115   0.328   1.910   0.025  2.4618  0.8999  1.5711
  706SOL     OW 2116   0.015   0.398   0.162  0.8901 -0.3626 -0.4496
  706SOL    HW1 2117   0.090   0.340   0.208  0.0678 -0.1271 -0.4858
  706SOL    HW2 2118   3.024   0.401   0.222 -2.7346 -1.1672  0.6914
  707SOL     OW 2119   1.709   2.981   2.174  0.3249  0.2661  0.0117
  707SOL    HW1 2120   1.658   3.042   2.117  0.3783 -2.8362  2.4597
  707SOL    HW2 2121   1.701   2.889   2.129 -0.7964 -0.3925 -2.3751
  708SOL     OW 2122   0.302   0.095   1.595  0.2399  0.3894  0.0571
  708SOL    HW1 2123   0.395   0.078   1.560  3.5157  2.6572  1.4154
  708SOL    HW2 2124   0.234   0.031   1.557  2.3003  0.4533 -1.3645
  709SOL     OW 2125   3.075   0.805   1.752  0.0615 -0.1987 -0.1697
  709SOL    HW1 2126   0.085   0.808   1.746  4.4086 -2.5324  0.3472
  709SOL    HW2 2127   3.050   0.743   1.832 -0.9585 -1.6559  0.1897
  710SOL     OW 2128   0.369   0.946   0.849 -0.3856  0.4324 -0.1223
  710SOL    HW1 2129   0.329   0.982   0.765  1.1661 -0.2058  0.7937
  710SOL    HW2 2130   0.359   1.014   0.925  0.4300  0.5182  0.0170
  711SOL     OW 2131   2.454   2.734   1.874 -0.3073 -0.1054 -0.1688
  711SOL    HW1 2132   2.408   2.671   1.939  2.3966  1.2947 -2.2139
  711SOL    HW2 2133   2.453   2.830   1.919 -0.9566  2.6123  0.5430
  712SOL     OW 2134   0.276   2.567   2.451  0.1777 -0.2241  0.2412
  712SOL    HW1 2135   0.212   2.540   2.377 -2.1261 -1.0850  2.0733
  712SOL    HW2 2136   0.288   2.495   2.520  2.8737 -0.7603 -2.4216
  713SOL     OW 2137   2.629   0.403   0.609 -0.3053 -0.0007  0.4711
  713SOL    HW1 2138   2.543   0.344   0.608 -1.0415 -1.9566  1.7955
  713SOL    HW2 2139   2.707   0.356   0.556  2.3136 -0.8937 -0.3491
  714SOL     OW 2140   1.932   1.711   2.552  0.0782 -0.2766 -0.0193
  714SOL    HW1 2141   1.855   1.664   2.511  0.3200  0.2143 -1.7875
  714SOL    HW2 2142   1.912   1.810   2.557  1.6648  0.8815 -4.4418
  715SOL     OW 2143   0.054   0.407   0.795  0.8477 -0.0502  0.1526
  715SOL    HW1 2144   0.112   0.394   0.875  0.0790  1.4840 -0.2879
  715SOL    HW2 2145   0.067   0.499   0.752  2.0801  0.2470  0.0309
  716SOL     OW 2146   0.673   0.609   1.669  0.6141  0.1216  0.1358
  716SOL    HW1 2147   0.646   0.603   1.568 -0.7407 -1.0809 -2.5292
  716SOL    HW2 2148   0.686   0.515   1.711  2.2951 -2.4780  1.6083
  717SOL     OW 2149   0.792   0.605   2.387 -0.1473  0.1800  0.0622
  717SOL    HW1 2150   0.711   0.553   2.346  0.5376 -2.5486 -2.7830
  717SOL    HW2 2151   0.793   0.603   2.487  1.7070 -0.9863 -4.8787
  718SOL     OW 2152   1.172   0.008   0.402  0.1923 -0.5379  0.1693
  718SOL    HW1 2153   1.153   0.079   0.469  0.1148 -1.7327  0.7656
  718SOL    HW2 2154   1.149   0.038   0.309  0.0263 -1.2008 -1.0048
  719SOL     OW 2155   2.906   2.496   2.885 -0.3268  0.0155  0.1320
  719SOL    HW1 2156   2.993   2.444   2.861  1.9208 -0.5356 -3.7083
  719SOL    HW2 2157   2.819   2.463   2.851  0.5635 -1.1737 -0.8673
  720SOL     OW 2158   1.233   0.568   1.654 -0.5259  0.1223  0.4453
  720SOL    HW1 2159   1.305   0.635   1.680 -0.2359 -0.8793  0.1310
  720SOL    HW2 2160   1.186   0.532   1.740 -1.3777  0.8129  0.3236
  721SOL     OW 2161   2.978   2.894   0.804 -0.0927  0.0238 -0.4632
  721SOL    HW1 2162   2.943   2.868   0.714  0.4121 -0.1709 -0.9396
  721SOL    HW2 2163   3.044   2.821   0.840 -1.6037  0.5690 -1.3898
  722SOL     OW 2164   0.838   1.131   2.874  0.1540  0.0284  0.1959
  722SOL    HW1 2165   0.875   1.224   2.886 -1.9692  0.9478  1.3216
  722SOL    HW2 2166   0.752   1.134   2.927 -0.4783  0.3890  1.1371
  723SOL     OW 2167   2.167   1.008   1.232  0.1949  0.1651 -0.3624
  723SOL    HW1 2168   2.258   1.057   1.230 -1.1861 -0.1578  1.5206
  723SOL    HW2 2169   2.107   1.054   1.291 -1.3112 -3.5274 -1.1317
  724SOL     OW 2170   0.879   1.811   0.323  0.3696 -0.2624 -0.4678
  724SOL    HW1 2171   0.956   1.750   0.298  0.1837 -0.8756  0.6922
  724SOL    HW2 2172   0.876   1.834   0.424 -0.2302 -0.0446 -4.7028
  725SOL     OW 2173   0.313   0.678   1.519  0.1188  0.3515  0.3854
  725SOL    HW1 2174   0.410   0.658   1.494 -0.8707  1.2028 -2.4738
  725SOL    HW2 2175   0.243   0.641   1.453 -2.0014  0.4344  0.6093
  726SOL     OW 2176   2.491   0.995   0.022  0.2534  0.0204  0.8345
  726SOL    HW1 2177   2.420   1.030   3.052  2.8724 -1.5801  0.7810
  726SOL    HW2 2178   2.578   0.980   3.065  0.9740  0.0673  1.6484
  727SOL     OW 2179   2.147   1.058   2.770 -0.0422  0.4140 -0.4435
  727SOL    HW1 2180   2.102   1.128   2.712 -0.7347 -2.0184 -2.6187
  727SOL    HW2 2181   2.231   1.032   2.720 -2.1022 -1.2253 -0.7419
  728SOL     OW 2182   1.906   2.196   1.221  0.6963  0.7183  0.0080
  728SOL    HW1 2183   1.821   2.247   1.199 -3.3669  0.0179 -1.0985
  728SOL    HW2 2184   1.941   2.137   1.142 -0.0355 -0.6486 -2.2349
  729SOL     OW 2185   1.812   0.970   2.045  0.3564  0.8378  0.1156
  729SOL    HW1 2186   1.913   0.942   2.050  3.7766 -0.7915 -1.5895
  729SOL    HW2 2187   1.805   1.067   2.023 -1.2773 -4.5457 -1.7647
  730SOL     OW 2188   1.063   0.332   0.952  0.2705 -0.2251 -0.0576
  730SOL    HW1 2189   1.093   0.358   1.044  0.6334 -2.7960 -0.1142
  730SOL    HW2 2190   1.144   0.318   0.892 -0.9182  1.1148 -2.9684
  731SOL     OW 2191   0.806   0.738   2.871  0.2867  0.0268  0.3282
  731SOL    HW1 2192   0.837   0.818   2.813  1.0631  2.0728  2.2819
  731SOL    HW2 2193   0.709   0.741   2.904  1.0206 -2.7435  0.0718
  732SOL     OW 2194   0.537   0.778   0.466 -0.0778 -0.5582 -0.0165
  732SOL    HW1 2195   0.597   0.821   0.538  1.9740  0.8429  1.8860
  732SOL    HW2 2196   0.458   0.838   0.441  0.4818 -2.3218  1.3036
  733SOL     OW 2197   1.472   1.707   2.221  0.2907  0.4359  0.3443
  733SOL    HW1 2198   1.396   1.765   2.255 -0.4791  3.2257 -0.7299
  733SOL    HW2 2199   1.441   1.623   2.171  1.0341 -0.9044 -0.3935
  734SOL     OW 2200   0.309   2.317   3.072  0.2099 -0.6827  0.2223
  734SOL    HW1 2201   0.284   2.251   2.994 -2.5315 -0.8311 -2.6055
  734SOL    HW2 2202   0.409   2.343   3.077 -1.3263  1.1910 -1.4555
  735SOL     OW 2203   2.498   0.471   0.866  0.0648 -0.0593  0.3339
  735SOL    HW1 2204   2.473   0.566   0.858 -0.6464 -0.3194 -0.9155
  735SOL    HW2 2205   2.545   0.440   0.784 -5.2633 -0.8309 -2.3049
  736SOL     OW 2206   2.261   1.511   2.413 -0.0524  0.0640 -0.4269
  736SOL    HW1 2207   2.331   1.514   2.485  2.0173  2.5340 -2.6836
  736SOL    HW2 2208   2.230   1.610   2.405  0.0354  2.2508 -3.7835
  737SOL     OW 2209   0.116   0.700   0.241  0.0518 -0.7245  0.2094
  737SOL    HW1 2210   0.067   0.789   0.224 -1.9125  2.6323 -2.0171
  737SOL    HW2 2211   0.069   0.618   0.197 -2.8971 -1.3861  2.0861
  738SOL     OW 2212   0.936   1.911   1.276  0.1545 -0.0429  0.3090
  738SOL    HW1 2213   0.940   1.834   1.342 -0.6939  0.1545  1.3634
  738SOL    HW2 2214   0.848   1.963   1.279 -1.5069 -0.8940 -2.8984
  739SOL     OW 2215   1.433   2.831   1.981 -0.1421  0.0599  0.3896
  739SOL    HW1 2216   1.426   2.766   1.905 -0.4852 -0.6865  1.1882
  739SOL    HW2 2217   1.424   2.924   1.944 -0.7482 -1.3848 -0.8399
  740SOL     OW 2218   2.232   2.596   1.478 -0.5897 -0.3376 -0.0872
  740SOL    HW1 2219   2.223   2.492   1.488  0.1295  1.3875 -3.6110
  740SOL    HW2 2220   2.295   2.649   1.541 -1.8054  1.3848  0.5608
  741SOL     OW 2221   2.270   0.611   0.322  0.0676 -0.3230 -0.3605
  741SOL    HW1 2222   2.230   0.521   0.310  2.5271  0.9617 -0.3377
  741SOL    HW2 2223   2.196   0.675   0.342 -0.9174  0.2355 -3.6104
  742SOL     OW 2224   1.340   2.490   3.070 -0.2998  0.4253 -0.2681
  742SOL    HW1 2225   1.436   2.470   3.087 -0.7609 -0.2163 -0.7974
  742SOL    HW2 2226   1.321   2.527   2.980 -1.1987  0.9265 -0.0699
  743SOL     OW 2227   2.488   1.071   2.185  0.1274 -0.1079  0.1111
  743SOL    HW1 2228   2.469   0.996   2.248 -0.4961 -0.1775 -0.8919
  743SOL    HW2 2229   2.474   1.163   2.219  0.8893  1.3357 -0.9274
  744SOL     OW 2230   2.722   0.163   0.265 -0.1364  0.0095  0.2898
  744SOL    HW1 2231   2.728   0.200   0.167  1.0318 -0.8487 -2.2064
  744SOL    HW2 2232   2.667   0.080   0.263 -0.3613  3.0345  0.2852
  745SOL     OW 2233   2.149   1.508   1.468  0.0462  0.2262 -0.6716
  745SOL    HW1 2234   2.125   1.458   1.556 -1.5622  1.3020 -0.6217
  745SOL    HW2 2235   2.245   1.541   1.470  1.6769 -0.1648  2.3378
  746SOL     OW 2236   0.936   1.596   0.687  0.1412  0.2820 -0.3886
  746SOL    HW1 2237   1.004   1.637   0.753 -0.9397  4.0758  4.1723
  746SOL    HW2 2238   0.978   1.521   0.630  2.1247 -0.8899  1.1943
  747SOL     OW 2239   0.962   1.612   1.600  0.3290  0.3176 -0.4293
  747SOL    HW1 2240   0.984   1.550   1.525  2.6643  2.5145  1.8130
  747SOL    HW2 2241   0.874   1.585   1.647 -1.6819 -1.4601  3.6734
  748SOL     OW 2242   0.289   2.997   2.883 -0.0625 -0.0138  0.0684
  748SOL    HW1 2243   0.210   3.009   2.820  2.2333  0.6022  0.7513
  748SOL    HW2 2244   0.295   3.062   2.961  2.3891  0.9905  1.3109
  749SOL     OW 2245   0.096   0.984   2.851  0.3837 -0.0141 -0.0953
  749SOL    HW1 2246   0.045   1.046   2.908  0.9470 -2.0817  1.1844
  749SOL    HW2 2247   0.090   1.016   2.754  0.8089  0.4356 -0.5340
  750SOL     OW 2248   1.569   1.224   1.794 -0.5909  0.3389 -0.1493
  750SOL    HW1 2249   1.544   1.167   1.714  0.9039  0.2838  3.0919
  750SOL    HW2 2250   1.615   1.308   1.761  1.3014 -0.7040  0.1188
  751SOL     OW 2251   2.837   0.745   0.383 -0.1685  0.0839  0.2774
  751SOL    HW1 2252   2.824   0.787   0.290  1.0907 -0.3024 -0.0509
  751SOL    HW2 2253   2.752   0.697   0.406  1.3686 -1.2532 -0.1370
  752SOL     OW 2254   2.773   2.657   1.029  0.2169  0.2533 -0.5851
  752SOL    HW1 2255   2.767   2.760   1.009  0.8589  0.4467 -2.0604
  752SOL    HW2 2256   2.780   2.602   0.945 -2.5073 -1.1979  1.5710
  753SOL     OW 2257   0.898   2.288   1.199  0.1169 -0.2528 -0.3790
  753SOL    HW1 2258   0.909   2.302   1.302  0.5013  1.2287  0.9994
  753SOL    HW2 2259   0.809   2.242   1.177 -2.4832  1.3778  0.3327
  754SOL     OW 2260   2.992   2.677   2.143  0.0212 -0.8156 -0.1126
  754SOL    HW1 2261   2.955   2.737   2.214  2.4618  1.2475 -2.3506
  754SOL    HW2 2262   3.061   2.737   2.095 -0.7131  0.0776 -1.8641
  755SOL     OW 2263   2.437   0.686   0.139  0.2287 -0.7574  0.4128
  755SOL    HW1 2264   2.527   0.641   0.127 -1.0513  2.1019  0.8011
  755SOL    HW2 2265   2.385   0.645   0.216 -0.8400  1.9594  0.1861
  756SOL     OW 2266   1.943   2.470   0.198 -0.1962  0.6021  0.1015
  756SOL    HW1 2267   2.004   2.414   0.260 -1.1669 -2.2286 -1.2965
  756SOL    HW2 2268   1.969   2.472   0.100  0.5306  3.1440 -1.3060
  757SOL     OW 2269   2.397   0.252   0.561 -0.4882 -0.1463 -0.1313
  757SOL    HW1 2270   2.316   0.300   0.588  1.8814 -2.0640 -1.6232
  757SOL    HW2 2271   2.380   0.202   0.476  2.7679  0.9749 -1.0176
  758SOL     OW 2272   1.974   0.981   1.642 -0.0118  1.2966  0.4222
  758SOL    HW1 2273   1.891   0.952   1.696  2.0633  0.1650 -0.2072
  758SOL    HW2 2274   2.030   0.894   1.628 -0.4312 -1.1212 -1.0129
  759SOL     OW 2275   2.689   0.620   1.287 -0.3479 -0.4464 -0.2288
  759SOL    HW1 2276   2.588   0.630   1.299 -0.9218  0.3471  1.7692
  759SOL    HW2 2277   2.702   0.547   1.212 -0.3537 -2.5740  1.0511
  760SOL     OW 2278   0.521   1.262   1.452  0.5401  0.1289 -0.1048
  760SOL    HW1 2279   0.609   1.215   1.459 -1.7975  0.7147  1.3461
  760SOL    HW2 2280   0.449   1.199   1.483 -3.0379  0.7181  1.9169
  761SOL     OW 2281   1.233   0.583   3.005  0.3973  0.1797 -0.1132
  761SOL    HW1 2282   1.139   0.564   2.986  0.8405 -1.7394 -0.5838
  761SOL    HW2 2283   1.258   0.677   2.983 -1.1493  0.6290 -0.7509
  762SOL     OW 2284   1.060   1.867   1.579  0.2382  0.1751 -0.7362
  762SOL    HW1 2285   1.018   1.774   1.579  3.1722 -1.2377  2.6452
  762SOL    HW2 2286   0.990   1.944   1.611 -4.9644  1.0619 -1.7905
  763SOL     OW 2287   0.982   0.792   1.413  0.0273  0.2762  0.0735
  763SOL    HW1 2288   1.061   0.849   1.387 -0.2744  0.2550  3.2297
  763SOL    HW2 2289   0.912   0.805   1.336  2.2676  2.8683 -1.4154
  764SOL     OW 2290   0.269   2.719   2.896 -0.3992  0.5949  0.3999
  764SOL    HW1 2291   0.283   2.820   2.899 -1.9053 -0.1774  0.3320
  764SOL    HW2 2292   0.173   2.695   2.917 -3.9104  0.2327 -0.9358
  765SOL     OW 2293   0.543   2.896   1.636  0.4540 -0.1084 -0.4688
  765SOL    HW1 2294   0.614   2.873   1.701 -2.2911 -0.9537 -4.0190
  765SOL    HW2 2295   0.561   2.977   1.578  0.4556 -2.5063  0.7917
  766SOL     OW 2296   2.631   1.792   2.236 -0.1605 -0.4632 -0.1620
  766SOL    HW1 2297   2.559   1.860   2.259  1.5633 -0.7960  0.1457
  766SOL    HW2 2298   2.689   1.813   2.156  0.1971 -2.6025  2.2152
  767SOL     OW 2299   1.516   1.349   2.290  0.1885 -0.0925  0.1475
  767SOL    HW1 2300   1.490   1.349   2.388  1.3286  1.8931  4.5137
  767SOL    HW2 2301   1.444   1.386   2.227 -0.7061 -2.4462 -2.0156
  768SOL     OW 2302   1.705   1.617   0.365 -0.5909 -0.3991 -0.8174
  768SOL    HW1 2303   1.724   1.661   0.452  0.7411 -0.5971 -0.9212
  768SOL    HW2 2304   1.789   1.619   0.305  3.2282  0.9557  2.5195
  769SOL     OW 2305   0.447   1.488   0.880 -0.1725 -0.2148 -0.8884
  769SOL    HW1 2306   0.382   1.566   0.856 -1.7388 -2.1145 -0.0447
  769SOL    HW2 2307   0.541   1.504   0.847  0.0885  0.4090  1.8791
  770SOL     OW 2308   1.469   1.079   2.371  0.0730 -0.8425 -0.5372
  770SOL    HW1 2309   1.559   1.033   2.392  0.6199  0.0448 -1.7438
  770SOL    HW2 2310   1.471   1.146   2.297 -0.5791 -1.8559 -2.4627
  771SOL     OW 2311   2.647   0.089   2.337  0.0315 -0.3561  0.1586
  771SOL    HW1 2312   2.565   0.145   2.316  0.2875 -1.3346 -0.1347
  771SOL    HW2 2313   2.621   3.091   2.371 -1.3870 -4.2294  0.4433
  772SOL     OW 2314   2.393   1.963   2.158  0.3551 -0.1262  0.0375
  772SOL    HW1 2315   2.347   1.912   2.082  3.1651 -0.3421  4.6306
  772SOL    HW2 2316   2.449   2.045   2.124 -0.5772  0.1818 -0.4489
  773SOL     OW 2317   0.759   1.484   1.740  0.1915  0.1282 -0.2671
  773SOL    HW1 2318   0.814   1.399   1.741 -1.0267 -0.9898  0.7910
  773SOL    HW2 2319   0.704   1.495   1.659  0.8655  0.2172 -0.1931
  774SOL     OW 2320   1.521   0.846   2.932 -0.8462  0.0373 -0.1769
  774SOL    HW1 2321   1.450   0.806   2.873 -2.8154  0.2911  0.7116
  774SOL    HW2 2322   1.580   0.911   2.886  0.4062 -0.4641  2.2816
  775SOL     OW 2323   1.588   2.378   3.023  0.1972  0.3496  0.5198
  775SOL    HW1 2324   1.681   2.403   3.056  0.2710 -0.6265 -3.0763
  775SOL    HW2 2325   1.581   2.280   3.003  1.2403  2.2001  1.1670
  776SOL     OW 2326   0.042   1.164   1.562 -0.0617 -0.6148  0.6341
  776SOL    HW1 2327   3.079   1.084   1.542  1.4560  0.9311 -1.5302
  776SOL    HW2 2328   0.024   1.197   1.656  3.6852 -0.6862 -4.2650
  777SOL     OW 2329   2.497   2.196   2.065  0.4335  0.3100 -0.2050
  777SOL    HW1 2330   2.560   2.241   2.131 -0.8031 -1.4378  1.7077
  777SOL    HW2 2331   2.537   2.188   1.973  0.6963  3.0280 -2.1329
  778SOL     OW 2332   1.813   1.245   2.026 -0.4685  0.5332  0.5369
  778SOL    HW1 2333   1.751   1.300   1.973  1.0810 -2.0455  0.8913
  778SOL    HW2 2334   1.909   1.263   1.992  0.2669  1.4527  1.3824
  779SOL     OW 2335   2.776   1.079   0.201  0.3594 -0.0730  0.4404
  779SOL    HW1 2336   2.781   0.980   0.190  0.6907 -1.7917 -1.3616
  779SOL    HW2 2337   2.681   1.109   0.229 -0.3367 -1.8893  0.8152
  780SOL     OW 2338   2.099   2.894   2.538  0.0713 -0.4267 -0.2148
  780SOL    HW1 2339   2.009   2.925   2.495  0.5527 -1.8877 -0.2844
  780SOL    HW2 2340   2.151   2.978   2.575 -0.5112  1.1609  0.9896
  781SOL     OW 2341   2.834   1.716   1.296 -0.0585 -0.0337  0.3891
  781SOL    HW1 2342   2.900   1.710   1.214  0.8435  0.3661  1.5416
  781SOL    HW2 2343   2.867   1.653   1.370  0.4716  1.4265  3.1265
  782SOL     OW 2344   2.706   2.168   2.982 -0.2992  0.1767  0.9940
  782SOL    HW1 2345   2.668   2.227   3.057 -1.6429  1.3187  0.2312
  782SOL    HW2 2346   2.637   2.096   2.953 -4.5182  0.4527  0.3095
  783SOL     OW 2347   0.700   1.596   0.852 -0.0891  0.1059  0.2441
  783SOL    HW1 2348   0.714   1.508   0.900 -0.6167  1.4595 -2.8800
  783SOL    HW2 2349   0.781   1.604   0.790 -0.8869  0.7012 -0.2157
  784SOL     OW 2350   2.534   1.190   0.280 -0.1605  0.8930  0.5512
  784SOL    HW1 2351   2.511   1.236   0.191 -2.0532  1.1550 -3.9069
  784SOL    HW2 2352   2.545   1.260   0.354  1.4942  2.4934  1.6494
  785SOL     OW 2353   1.954   2.613   0.450  0.1499  0.0805 -0.4178
  785SOL    HW1 2354   1.957   2.655   0.545 -1.1784 -2.0460  0.5956
  785SOL    HW2 2355   1.911   2.524   0.451 -0.4002  0.8997 -0.0567
  786SOL     OW 2356   0.676   2.227   2.846  0.6957  0.0287 -0.2675
  786SOL    HW1 2357   0.612   2.226   2.764  1.1035 -1.4203 -2.6373
  786SOL    HW2 2358   0.774   2.227   2.820  0.9780  1.8762  0.7549
  787SOL     OW 2359   1.438   0.556   1.109  0.4378  0.3985  0.1207
  787SOL    HW1 2360   1.343   0.548   1.068 -0.8063  1.1657 -0.1908
  787SOL    HW2 2361   1.514   0.539   1.043 -2.4277  0.4530  3.5867
  788SOL     OW 2362   0.583   0.914   0.144 -0.1318  0.6747 -0.0516
  788SOL    HW1 2363   0.537   0.847   0.089 -1.7129  0.0736  2.6342
  788SOL    HW2 2364   0.525   0.947   0.219  1.9324 -1.1028 -1.1869
  789SOL     OW 2365   2.840   2.007   1.358 -0.2420  0.1012  0.0870
  789SOL    HW1 2366   2.857   1.919   1.315 -0.8517 -0.2273  1.5483
  789SOL    HW2 2367   2.775   2.059   1.304 -1.1923 -1.6490  0.8818
  790SOL     OW 2368   1.148   0.439   1.895  0.2205 -0.0931  0.1881
  790SOL    HW1 2369   1.174   0.410   1.989  1.1954 -0.9092  0.4230
  790SOL    HW2 2370   1.067   0.384   1.860 -2.7443 -0.7048 -3.4367
  791SOL     OW 2371   1.088   0.555   0.213  0.5436  0.5492 -0.1946
  791SOL    HW1 2372   1.061   0.538   0.115  2.3143  0.0761  1.0371
  791SOL    HW2 2373   1.163   0.623   0.227  0.0968  0.5676  2.4275
  792SOL     OW 2374   1.422   3.013   1.600  0.3028  0.5573  0.1641
  792SOL    HW1 2375   1.384   2.920   1.580 -2.3381  0.4892  1.5608
  792SOL    HW2 2376   1.451   3.059   1.518 -0.7976  0.9140  2.8845
  793SOL     OW 2377   0.860   2.964   0.833 -0.0799 -0.0615 -0.0083
  793SOL    HW1 2378   0.946   3.019   0.813 -0.6271 -0.5733 -3.5312
  793SOL    HW2 2379   0.874   2.895   0.907 -0.4900  2.2555 -0.1390
  794SOL     OW 2380   0.475   1.136   2.090  0.3132  0.0848 -0.3259
  794SOL    HW1 2381   0.562   1.185   2.085 -1.2754 -2.1197 -2.1562
  794SOL    HW2 2382   0.393   1.195   2.101  3.1015 -1.1010  0.2485
  795SOL     OW 2383   3.015   1.617   2.404 -0.4374  0.4553 -0.3570
  795SOL    HW1 2384   3.055   1.706   2.384 -4.3485 -1.1631 -0.3447
  795SOL    HW2 2385   2.943   1.589   2.334 -1.5891  1.6877 -0.1253
  796SOL     OW 2386   2.050   1.296   1.918 -0.0489 -0.2971  0.1734
  796SOL    HW1 2387   2.099   1.242   1.844  2.2629 -1.2855 -0.9145
  796SOL    HW2 2388   2.118   1.311   1.996  4.4063  0.5487  0.7783
  797SOL     OW 2389   0.096   3.015   2.684  0.0308  0.3220  0.1448
  797SOL    HW1 2390   0.114   3.088   2.617 -0.2841 -0.7852  1.6336
  797SOL    HW2 2391   0.073   2.931   2.630 -0.5508 -1.5422  0.5570
  798SOL     OW 2392   0.297   2.150   2.183 -0.1691  0.2302  0.1435
  798SOL    HW1 2393   0.263   2.237   2.143 -1.3431  1.6397  1.3992
  798SOL    HW2 2394   0.374   2.128   2.131 -1.9741 -0.6289 -0.2316
  799SOL     OW 2395   2.639   2.293   0.130 -0.0146 -0.0872 -0.7371
  799SOL    HW1 2396   2.631   2.249   0.221  0.2322 -1.2748 -0.1676
  799SOL    HW2 2397   2.685   2.383   0.140 -2.0197 -0.5566 -1.2200
  800SOL     OW 2398   1.147   1.644   0.837 -0.7370 -0.6210  0.3238
  800SOL    HW1 2399   1.136   1.730   0.892 -0.7194 -0.7997 -0.8986
  800SOL    HW2 2400   1.237   1.651   0.784  3.8017 -0.1113 -1.0345
  801SOL     OW 2401   2.558   0.792   0.692 -0.1442  0.7297  0.0627
  801SOL    HW1 2402   2.475   0.777   0.750  1.1370  1.7989  1.1049
  801SOL    HW2 2403   2.546   0.766   0.595  0.5114  1.1631 -0.3765
  802SOL     OW 2404   2.536   1.632   0.449 -0.5460  0.6105 -0.1199
  802SOL    HW1 2405   2.546   1.677   0.360  1.3313 -2.9017  0.0794
  802SOL    HW2 2406   2.570   1.696   0.519  0.2780 -0.6263 -1.5241
  803SOL     OW 2407   1.354   1.730   2.947  0.0094  0.3953 -0.1374
  803SOL    HW1 2408   1.380   1.769   2.860 -2.9455 -3.5915  1.4042
  803SOL    HW2 2409   1.301   1.794   3.012 -0.2640  0.7015 -0.6906
  804SOL     OW 2410   1.947   2.065   0.260 -0.1738 -0.4434  0.0438
  804SOL    HW1 2411   1.859   2.083   0.215  0.3799 -2.2776  0.9736
  804SOL    HW2 2412   1.985   1.974   0.236  0.0615  0.6709 -2.7164
  805SOL     OW 2413   2.697   1.585   2.708 -0.3200 -0.3457 -0.7504
  805SOL    HW1 2414   2.677   1.685   2.719 -3.1486  0.8228 -0.9905
  805SOL    HW2 2415   2.787   1.558   2.667  1.5956 -2.2066 -1.3699
  806SOL     OW 2416   0.591   0.536   0.586  0.6216 -0.0327 -0.2198
  806SOL    HW1 2417   0.647   0.487   0.516 -1.9227  1.7027  1.6927
  806SOL    HW2 2418   0.564   0.627   0.552 -1.8956  0.1204  1.1736
  807SOL     OW 2419   2.318   1.312   2.743 -0.3021  0.2363  0.5456
  807SOL    HW1 2420   2.292   1.364   2.827  1.6035 -1.7880 -0.9801
  807SOL    HW2 2421   2.377   1.237   2.774 -1.0492  0.3074  1.1369
  808SOL     OW 2422   0.153   1.412   0.495  0.6093 -0.0617 -0.6073
  808SOL    HW1 2423   0.105   1.334   0.538  1.2729  1.5429 -0.3871
  808SOL    HW2 2424   0.155   1.496   0.556 -0.7243  3.1222  2.1942
  809SOL     OW 2425   2.488   0.804   2.848 -0.2548  0.0203 -0.1145
  809SOL    HW1 2426   2.470   0.799   2.950 -1.1614  0.9570  1.3649
  809SOL    HW2 2427   2.504   0.903   2.825  0.4532  1.9893  1.5930
  810SOL     OW 2428   1.106   1.023   0.396 -0.2587 -0.9476  0.1352
  810SOL    HW1 2429   1.199   1.013   0.354  3.8247 -2.7288 -0.8778
  810SOL    HW2 2430   1.035   1.056   0.329 -1.0544 -1.2875 -0.3246
  811SOL     OW 2431   1.554   2.368   0.838 -0.1911  0.1249 -0.6320
  811SOL    HW1 2432   1.480   2.436   0.813  0.2354  0.3658 -2.9842
  811SOL    HW2 2433   1.554   2.296   0.767 -0.6562 -3.2811 -1.3597
  812SOL     OW 2434   0.247   2.641   1.500  0.3064  0.0194 -0.2708
  812SOL    HW1 2435   0.212   2.544   1.487 -1.3715 -0.3491  1.4464
  812SOL    HW2 2436   0.342   2.635   1.537  0.6736 -0.4721 -0.8559
  813SOL     OW 2437   1.047   0.040   1.782 -0.3004 -0.2038 -0.4584
  813SOL    HW1 2438   0.985   3.052   1.762  2.5605  0.4880  1.4986
  813SOL    HW2 2439   0.988   0.125   1.803 -0.9640  2.1413 -0.2637
  814SOL     OW 2440   1.317   0.042   2.407  0.1201 -0.3868  0.1748
  814SOL    HW1 2441   1.386   3.057   2.421  3.1171 -0.0166  0.8421
  814SOL    HW2 2442   1.331   0.085   2.311 -0.5121  1.0838 -0.0752
  815SOL     OW 2443   0.396   0.313   1.845 -0.0019  0.5744  0.4218
  815SOL    HW1 2444   0.341   0.232   1.873  0.8087  1.9850 -1.6861
  815SOL    HW2 2445   0.329   0.385   1.852 -1.6551 -1.7737  0.9357
  816SOL     OW 2446   2.389   0.404   0.042 -0.3086  0.2935 -0.0908
  816SOL    HW1 2447   2.475   0.409   0.096  2.3801 -1.2220 -2.2247
  816SOL    HW2 2448   2.408   0.400   3.037  0.2124  1.1560  1.1688
  817SOL     OW 2449   1.906   0.440   2.618  0.1295  0.2427  0.1065
  817SOL    HW1 2450   1.925   0.540   2.612 -0.2577  1.6473  0.4019
  817SOL    HW2 2451   1.805   0.421   2.620  0.7955  0.6393 -2.2726
  818SOL     OW 2452   2.119   0.385   0.295  0.2554 -0.0084 -0.2890
  818SOL    HW1 2453   2.155   0.291   0.309 -0.1648  1.2720  0.2404
  818SOL    HW2 2454   2.042   0.399   0.354 -2.0297  0.2134 -0.0434
  819SOL     OW 2455   2.386   1.518   0.141  0.0526 -0.2964  0.1450
  819SOL    HW1 2456   2.435   1.607   0.164  1.0915  1.9235  2.3342
  819SOL    HW2 2457   2.458   1.446   0.127  2.8945  1.8043 -0.1183
  820SOL     OW 2458   3.003   2.026   0.152 -0.8446 -0.2793  0.0209
  820SOL    HW1 2459   3.034   1.947   0.097  0.0561  5.0843 -0.8341
  820SOL    HW2 2460   2.910   2.005   0.195 -1.4159  0.5083 -1.4426
  821SOL     OW 2461   0.019   2.854   1.186  0.7073 -0.0625  0.0921
  821SOL    HW1 2462   3.048   2.774   1.197  0.1907  0.0290 -0.6069
  821SOL    HW2 2463   3.053   2.935   1.200  1.4710  0.3720  1.1334
  822SOL     OW 2464   2.617   2.563   2.528  0.2591 -0.2075  0.2112
  822SOL    HW1 2465   2.647   2.657   2.532  0.4256 -0.4782 -1.2893
  822SOL    HW2 2466   2.541   2.552   2.460 -0.0803 -1.5440 -0.2783
  823SOL     OW 2467   1.569   0.360   2.317 -0.1728 -0.6251  0.0419
  823SOL    HW1 2468   1.490   0.423   2.341 -1.1820  0.8153 -0.5342
  823SOL    HW2 2469   1.606   0.315   2.401  0.0926  1.1930 -0.0609
  824SOL     OW 2470   2.415   1.625   1.437 -0.3452 -0.0528 -0.2534
  824SOL    HW1 2471   2.418   1.717   1.480  0.3311 -1.1434  0.3512
  824SOL    HW2 2472   2.491   1.613   1.370  1.5217  1.0635  0.5596
  825SOL     OW 2473   2.891   2.092   2.293  0.1840  0.9072  1.1239
  825SOL    HW1 2474   2.808   2.136   2.327 -1.2415  0.4250  0.3833
  825SOL    HW2 2475   2.958   2.156   2.248  0.3230 -1.7870 -0.4751
  826SOL     OW 2476   2.629   1.021   2.444  0.4235  0.5508 -0.3848
  826SOL    HW1 2477   2.629   1.116   2.409 -2.0248 -1.7745  2.3141
  826SOL    HW2 2478   2.710   0.966   2.427 -2.8148  1.9079 -0.1782
  827SOL     OW 2479   2.577   2.565   1.417 -0.8414 -0.3524 -0.4148
  827SOL    HW1 2480   2.533   2.471   1.413 -0.6970  0.5038 -0.2859
  827SOL    HW2 2481   2.524   2.628   1.476 -0.5129  1.3967 -4.9640
  828SOL     OW 2482   2.972   2.736   1.551  0.2916  0.0323 -0.4147
  828SOL    HW1 2483   3.019   2.821   1.530 -2.3729 -2.8446  1.4386
  828SOL    HW2 2484   2.895   2.729   1.484  1.3519 -0.6640 -0.7231
  829SOL     OW 2485   1.674   2.186   2.364  0.1555 -0.4450 -0.3530
  829SOL    HW1 2486   1.698   2.286   2.356 -0.8652 -0.3322  0.7669
  829SOL    HW2 2487   1.710   2.145   2.450  0.1329  0.6799 -1.8357
  830SOL     OW 2488   1.483   0.499   0.710 -0.3033  0.2931  0.1487
  830SOL    HW1 2489   1.548   0.498   0.790 -1.8211  0.3466 -0.1070
  830SOL    HW2 2490   1.525   0.439   0.636  1.3739 -3.0541 -3.4051
  831SOL     OW 2491   2.768   1.452   0.814  0.0553  0.1474  0.0401
  831SOL    HW1 2492   2.793   1.381   0.878 -0.9423  1.4922 -2.1965
  831SOL    HW2 2493   2.758   1.415   0.717 -0.9818  0.5978  2.8110
  832SOL     OW 2494   1.596   2.527   1.846 -0.6003 -0.1531 -0.7789
  832SOL    HW1 2495   1.536   2.600   1.816  1.6868 -2.9144 -0.3520
  832SOL    HW2 2496   1.683   2.523   1.786  2.4311 -1.3859 -0.6027
  833SOL     OW 2497   2.964   2.861   2.354 -0.0135 -0.2749 -0.4466
  833SOL    HW1 2498   2.963   2.957   2.318  0.5794  0.4064  2.2467
  833SOL    HW2 2499   3.038   2.834   2.422 -0.5406 -2.6833  1.9500
  834SOL     OW 2500   1.030   0.912   1.169  0.3821  0.4735  0.8083
  834SOL    HW1 2501   1.081   0.992   1.204 -0.9834 -1.2628 -0.7711
  834SOL    HW2 2502   0.948   0.935   1.120 -1.2619 -0.8528  1.1507
  835SOL     OW 2503   0.007   0.679   2.716  0.4687  0.8087  0.3033
  835SOL    HW1 2504   3.070   0.586   2.730 -1.0327  0.6287  1.0689
  835SOL    HW2 2505   0.078   0.699   2.779 -2.6408 -0.5908 -0.9264
  836SOL     OW 2506   1.135   2.282   1.064  0.4803 -0.4083  0.1911
  836SOL    HW1 2507   1.049   2.289   1.118  0.0731 -1.7230 -1.9033
  836SOL    HW2 2508   1.209   2.333   1.102 -3.1480  0.6108 -0.8208
  837SOL     OW 2509   2.057   0.949   0.991 -0.3989  0.2882  0.4589
  837SOL    HW1 2510   2.105   1.006   0.918 -1.4928  2.4016 -1.2684
  837SOL    HW2 2511   2.097   0.965   1.081 -0.1027 -0.9570  0.8835
  838SOL     OW 2512   1.433   1.523   2.568  0.3027 -0.7411 -0.1967
  838SOL    HW1 2513   1.410   1.463   2.643  0.6380  2.0444 -0.9104
  838SOL    HW2 2514   1.345   1.551   2.518 -1.6724  0.0127  1.2448
  839SOL     OW 2515   0.574   2.359   3.048  0.2359 -0.0070  0.7233
  839SOL    HW1 2516   0.598   2.312   2.958  1.8762 -1.1880 -4.1016
  839SOL    HW2 2517   0.635   2.325   0.030 -0.2176 -0.7577  1.5737
  840SOL     OW 2518   0.569   2.632   2.962 -0.4027 -0.5856  0.1888
  840SOL    HW1 2519   0.487   2.663   2.921  4.8453  0.0093  0.8119
  840SOL    HW2 2520   0.562   2.537   2.999 -0.6831 -0.6072 -0.8580
  841SOL     OW 2521   1.706   2.109   0.149  0.1274 -0.6640  0.1385
  841SOL    HW1 2522   1.664   2.097   0.060  1.3713  1.0564  0.9691
  841SOL    HW2 2523   1.685   2.203   0.181 -2.0620  2.3846 -2.6754
  842SOL     OW 2524   1.270   1.112   2.549 -0.0559 -0.4067  0.4803
  842SOL    HW1 2525   1.296   1.174   2.628 -0.4429  3.7485  1.1969
  842SOL    HW2 2526   1.347   1.098   2.483  2.4966  1.0669  1.5653
  843SOL     OW 2527   1.563   2.743   0.758  0.1959  0.4422 -0.2354
  843SOL    HW1 2528   1.602   2.681   0.686  1.6654 -1.6856  0.1149
  843SOL    HW2 2529   1.558   2.842   0.729  0.2677 -2.0280 -1.2330
  844SOL     OW 2530   2.360   2.778   2.538 -0.7270  0.2250  0.4806
  844SOL    HW1 2531   2.274   2.814   2.508  0.5126 -0.5017  0.1325
  844SOL    HW2 2532   2.365   2.789   2.642  1.3304  1.4036  0.2964
  845SOL     OW 2533   2.953   2.633   1.222  0.2759  0.3132  0.4589
  845SOL    HW1 2534   2.892   2.681   1.286 -1.3700 -1.4657  1.0211
  845SOL    HW2 2535   2.897   2.624   1.138  0.5184  0.3124  0.3950
  846SOL     OW 2536   0.102   2.163   2.351 -0.6410 -1.0363 -0.2020
  846SOL    HW1 2537   0.183   2.123   2.297  0.7773  0.3953  2.2261
  846SOL    HW2 2538   0.079   2.100   2.427  3.2726  0.1350 -0.8081
  847SOL     OW 2539   1.632   0.438   1.572 -0.3294  0.0533 -0.4669
  847SOL    HW1 2540   1.659   0.465   1.483 -1.9466  0.6429  1.8048
  847SOL    HW2 2541   1.662   0.344   1.585 -1.5221  0.3564 -0.6596
  848SOL     OW 2542   3.034   0.617   0.001  0.3243  0.1562  0.6156
  848SOL    HW1 2543   3.056   0.534   0.053  1.2163  1.4936  2.0405
  848SOL    HW2 2544   2.963   0.607   3.021  1.5445  0.8070 -1.2509
  849SOL     OW 2545   0.952   0.552   3.065  0.8146  0.2034  0.3412
  849SOL    HW1 2546   0.919   0.638   3.018 -0.7644  1.5002 -0.0644
  849SOL    HW2 2547   0.882   0.485   3.060 -0.2139  2.3842 -2.2987
  850SOL     OW 2548   0.453   2.730   1.096 -0.0726  0.2180  0.5598
  850SOL    HW1 2549   0.363   2.737   1.143  3.1991  0.7078  0.9719
  850SOL    HW2 2550   0.475   2.818   1.053  0.3611 -1.9719  0.4523
  851SOL     OW 2551   1.986   0.259   2.370 -0.2311 -0.4715  0.0619
  851SOL    HW1 2552   2.007   0.335   2.303 -0.5074  0.0722  1.6113
  851SOL    HW2 2553   1.967   0.305   2.458  0.2273 -1.0299 -1.7496
  852SOL     OW 2554   1.708   1.567   2.223 -0.9729  0.2110  0.0243
  852SOL    HW1 2555   1.737   1.535   2.311  2.3398 -0.1077 -2.2662
  852SOL    HW2 2556   1.611   1.593   2.218  1.5451  1.7486  1.2351
  853SOL     OW 2557   2.946   2.796   0.514  0.3952 -0.7148 -0.2832
  853SOL    HW1 2558   2.977   2.712   0.563 -1.8292  1.5653  0.6969
  853SOL    HW2 2559   2.846   2.809   0.524  2.7349 -2.2789  1.4554
  854SOL     OW 2560   2.364   0.261   0.958  0.3550  0.6123  0.1664
  854SOL    HW1 2561   2.298   0.213   0.893 -2.1971 -1.7115 -3.6698
  854SOL    HW2 2562   2.404   0.350   0.927 -1.2668 -0.8007  2.5731
  855SOL     OW 2563   1.284   2.016   0.624 -0.3543  0.2816 -0.0585
  855SOL    HW1 2564   1.217   1.961   0.570  0.8779 -1.7432  1.9357
  855SOL    HW2 2565   1.240   2.077   0.696 -1.3375  2.8075  1.4504
  856SOL     OW 2566   2.613   0.412   0.317  0.5840 -0.6348 -0.2640
  856SOL    HW1 2567   2.614   0.465   0.408 -1.9734  3.0936 -1.2179
  856SOL    HW2 2568   2.646   0.319   0.327  1.6448 -2.1846  1.5022
  857SOL     OW 2569   1.758   2.785   1.817  0.1851  0.3341 -0.2033
  857SOL    HW1 2570   1.737   2.769   1.918  2.3386  0.5032  0.4033
  857SOL    HW2 2571   1.772   2.698   1.770  1.8828  2.9121 -2.5307
  858SOL     OW 2572   2.472   2.335   1.391 -0.0604 -0.3612  0.1896
  858SOL    HW1 2573   2.432   2.307   1.302  1.0280 -0.9324 -0.3956
  858SOL    HW2 2574   2.400   2.336   1.464  2.3966  0.9931 -0.0428
  859SOL     OW 2575   1.167   2.404   0.671  0.1397 -0.5496  0.3927
  859SOL    HW1 2576   1.085   2.458   0.704  0.4938 -2.0121 -1.2856
  859SOL    HW2 2577   1.256   2.427   0.707 -0.5236 -0.0336 -1.4654
  860SOL     OW 2578   2.196   2.285   0.060 -0.8862  0.1852  0.0707
  860SOL    HW1 2579   2.211   2.360   3.085  1.9125 -2.2074 -1.7814
  860SOL    HW2 2580   2.174   2.327   0.145 -0.0177 -1.0323 -0.9598
  861SOL     OW 2581   2.245   2.698   1.227 -0.5347 -0.0756  0.0235
  861SOL    HW1 2582   2.341   2.677   1.200 -0.4380  0.2965 -1.6784
  861SOL    HW2 2583   2.242   2.673   1.327 -0.9630 -1.0923 -2.7264
  862SOL     OW 2584   1.848   2.983   2.414  0.2932 -0.2912  0.5110
  862SOL    HW1 2585   1.802   2.999   2.324  0.3853 -0.1816 -2.0731
  862SOL    HW2 2586   1.821   3.059   2.481 -1.2125  2.5539  0.0552
  863SOL     OW 2587   0.570   0.153   0.315 -0.0545  0.0605 -0.3014
  863SOL    HW1 2588   0.622   0.108   0.391  0.2949  1.0469 -5.9758
  863SOL    HW2 2589   0.478   0.104   0.294 -1.3478 -0.0138 -0.7642
  864SOL     OW 2590   2.706   2.598   1.811  0.0000 -0.0396  0.7207
  864SOL    HW1 2591   2.788   2.625   1.756  1.2703  0.1523 -1.6024
  864SOL    HW2 2592   2.646   2.679   1.824  0.4895 -0.5471  1.9341
  865SOL     OW 2593   2.981   2.194   2.989 -0.2041 -0.3952 -0.4171
  865SOL    HW1 2594   3.014   2.134   3.065 -1.0277  2.3333 -1.0623
  865SOL    HW2 2595   2.879   2.190   2.976 -1.3532  0.2749  0.4385
  866SOL     OW 2596   2.508   0.407   2.894 -0.2670  0.0585 -0.1491
  866SOL    HW1 2597   2.568   0.479   2.852  4.0904  2.3432 -0.6798
  866SOL    HW2 2598   2.419   0.402   2.848  4.3622  0.7916  1.0854
  867SOL     OW 2599   2.871   0.168   2.505 -0.0980 -0.2750 -0.1413
  867SOL    HW1 2600   2.804   0.155   2.431  1.2038  0.2412  1.6607
  867SOL    HW2 2601   2.831   0.162   2.595  0.5212 -0.4779 -0.1690
  868SOL     OW 2602   0.934   2.511   0.782 -0.0597 -0.0374 -0.2956
  868SOL    HW1 2603   0.933   2.527   0.882  1.7693  1.6235 -1.3317
  868SOL    HW2 2604   0.944   2.602   0.731 -1.8072  0.7866 -1.5870
  869SOL     OW 2605   1.437   1.165   1.207  0.4722  0.2203 -0.1565
  869SOL    HW1 2606   1.517   1.102   1.211 -3.2510 -1.5467 -0.0949
  869SOL    HW2 2607   1.439   1.220   1.123 -1.5386  1.4540  2.3574
  870SOL     OW 2608   1.737   2.015   1.416  0.4168  0.1752 -0.1873
  870SOL    HW1 2609   1.787   2.077   1.483 -0.3485 -0.0980  1.0184
  870SOL    HW2 2610   1.708   1.934   1.471 -0.7139  0.7662 -1.3189
  871SOL     OW 2611   1.065   1.459   1.390 -0.7665 -0.0843  0.5030
  871SOL    HW1 2612   1.126   1.486   1.304 -0.1457 -0.5668 -1.0083
  871SOL    HW2 2613   0.987   1.400   1.370 -0.0956 -2.1912 -0.4086
  872SOL     OW 2614   1.111   0.670   1.068 -0.1996  0.0552  0.1895
  872SOL    HW1 2615   1.110   0.765   1.106  1.2832 -2.9844  2.0300
  872SOL    HW2 2616   1.052   0.670   0.984 -0.8888 -0.3283 -2.4975
  873SOL     OW 2617   1.673   0.878   2.614 -0.6875 -0.0519 -0.3401
  873SOL    HW1 2618   1.686   0.945   2.692 -0.1890 -0.4877 -0.0028
  873SOL    HW2 2619   1.706   0.916   2.527  1.5639  0.0899  2.0628
  874SOL     OW 2620   0.429   1.204   1.190 -0.3629 -0.7355 -0.0336
  874SOL    HW1 2621   0.484   1.217   1.275  0.1553  1.5596 -0.7823
  874SOL    HW2 2622   0.388   1.292   1.159 -1.6499  1.6339 -1.2924
  875SOL     OW 2623   2.605   2.777   3.023  0.3728 -0.2745  0.2652
  875SOL    HW1 2624   2.557   2.866   3.053  0.4928 -1.6485 -1.5166
  875SOL    HW2 2625   2.695   2.802   2.980 -1.7306  0.6595  1.2315
  876SOL     OW 2626   0.967   0.634   2.621  0.0884  0.0385  0.2379
  876SOL    HW1 2627   0.978   0.573   2.708 -2.0472 -2.0061  3.3084
  876SOL    HW2 2628   1.015   0.722   2.623 -1.1377 -2.1620  0.9871
  877SOL     OW 2629   3.046   2.984   1.581  0.0891 -0.4430  0.6743
  877SOL    HW1 2630   2.994   3.049   1.642 -0.0549  1.1752  0.5303
  877SOL    HW2 2631   3.077   3.038   1.499  0.5243  1.5307 -2.2012
  878SOL     OW 2632   1.879   2.293   2.832  0.3824  0.2538 -0.6423
  878SOL    HW1 2633   1.796   2.340   2.804  3.7843  0.0791  1.6168
  878SOL    HW2 2634   1.949   2.336   2.777 -3.7323 -1.4764  2.2353
  879SOL     OW 2635   2.284   1.814   1.943 -0.2089 -0.2415  0.5496
  879SOL    HW1 2636   2.189   1.828   1.926 -0.8099  0.2951 -3.8398
  879SOL    HW2 2637   2.310   1.717   1.947 -1.7419  0.4879  1.6192
  880SOL     OW 2638   0.766   0.909   1.107  0.2800  0.1300 -0.0129
  880SOL    HW1 2639   0.723   0.892   1.197 -1.3205 -1.0056  1.0937
  880SOL    HW2 2640   0.701   0.893   1.032  1.1235  0.2577 -1.2759
  881SOL     OW 2641   1.107   1.731   0.162 -0.0657 -0.2451 -0.2514
  881SOL    HW1 2642   1.174   1.804   0.120 -0.5813  3.2186 -2.4258
  881SOL    HW2 2643   1.151   1.638   0.169  1.1598 -3.0474 -2.4100
  882SOL     OW 2644   1.674   0.184   1.295 -0.3621  0.1267 -0.0845
  882SOL    HW1 2645   1.660   0.283   1.295  1.3702 -1.3985 -1.1563
  882SOL    HW2 2646   1.742   0.159   1.222 -0.2553 -0.8741  1.4396
  883SOL     OW 2647   1.703   0.771   2.169 -0.4309 -0.2251 -0.0664
  883SOL    HW1 2648   1.603   0.779   2.177 -0.0735  0.8959  0.8290
  883SOL    HW2 2649   1.742   0.847   2.113 -0.1067 -0.9871 -0.1712
  884SOL     OW 2650   2.660   0.551   0.092  0.2177 -0.2301  0.4402
  884SOL    HW1 2651   2.706   0.497   0.018 -0.5007  1.4116  0.2187
  884SOL    HW2 2652   2.634   0.489   0.173 -0.3781 -0.8423 -0.2862
  885SOL     OW 2653   1.125   2.177   0.826 -0.3563 -0.3018  0.4041
  885SOL    HW1 2654   1.120   2.264   0.770 -1.7503 -0.6628 -1.4404
  885SOL    HW2 2655   1.150   2.204   0.919  2.2868 -1.5336 -3.8472
  886SOL     OW 2656   1.370   1.326   2.737  0.0225  0.1610  0.1791
  886SOL    HW1 2657   1.464   1.332   2.776 -2.3154 -1.0890 -2.4502
  886SOL    HW2 2658   1.296   1.348   2.807 -1.5939  0.4527  2.6013
  887SOL     OW 2659   1.733   0.197   1.709 -0.1759 -0.0984  0.4550
  887SOL    HW1 2660   1.714   0.095   1.711  2.3270  0.8443  1.0320
  887SOL    HW2 2661   1.718   0.234   1.802 -1.0769 -0.0067  0.9173
  888SOL     OW 2662   2.809   1.545   1.903 -0.8626  0.3744  0.2511
  888SOL    HW1 2663   2.811   1.643   1.888  0.8068  1.9759 -1.3425
  888SOL    HW2 2664   2.827   1.487   1.816 -0.3085 -1.9461 -0.6275
  889SOL     OW 2665   2.859   2.530   0.821  0.0427 -0.3357 -0.5072
  889SOL    HW1 2666   2.902   2.548   0.731  0.6101 -0.0872 -1.5245
  889SOL    HW2 2667   2.835   2.433   0.822 -0.7964  2.0101 -1.3187
  890SOL     OW 2668   0.426   1.971   2.386 -0.1433  0.3914 -0.5111
  890SOL    HW1 2669   0.447   1.915   2.301  3.5453 -1.0885 -1.8181
  890SOL    HW2 2670   0.458   2.068   2.377 -1.2482 -0.9574  1.4677
  891SOL     OW 2671   0.437   1.863   0.583 -0.6289  0.5312 -0.5899
  891SOL    HW1 2672   0.482   1.943   0.532 -0.4790 -0.1911 -0.0015
  891SOL    HW2 2673   0.388   1.800   0.518 -0.3389  1.4370 -1.7686
  892SOL     OW 2674   3.055   2.218   1.448 -0.0962 -0.2892 -0.1525
  892SOL    HW1 2675   3.016   2.255   1.536  0.7645  0.3165 -0.5009
  892SOL    HW2 2676   3.002   2.132   1.421 -1.1033 -2.5396 -1.4708
  893SOL     OW 2677   0.092   0.253   1.702  0.1339  0.4901 -0.5438
  893SOL    HW1 2678   0.073   0.326   1.637 -1.7167 -0.9417 -0.3226
  893SOL    HW2 2679   0.180   0.209   1.678 -1.7912 -0.1304  1.5065
  894SOL     OW 2680   2.849   1.713   0.873  0.1193 -0.0925  0.8963
  894SOL    HW1 2681   2.904   1.726   0.787  0.0801 -1.0216 -1.1738
  894SOL    HW2 2682   2.810   1.617   0.863 -0.1165 -1.4100 -2.1041
  895SOL     OW 2683   1.582   2.325   1.476 -0.0599 -0.4013 -0.0159
  895SOL    HW1 2684   1.575   2.277   1.564 -0.0168 -1.1766 -0.4891
  895SOL    HW2 2685   1.557   2.260   1.404  1.4676 -1.3020  0.7401
  896SOL     OW 2686   0.537   0.319   1.289 -0.4130  0.0501  0.1184
  896SOL    HW1 2687   0.531   0.382   1.205  0.2598 -1.2883 -2.1916
  896SOL    HW2 2688   0.462   0.330   1.355  3.0363  1.2287 -3.1755
  897SOL     OW 2689   1.221   1.048   1.337 -0.1341 -0.6407 -0.5329
  897SOL    HW1 2690   1.285   1.088   1.268  0.8791  0.8977  0.9199
  897SOL    HW2 2691   1.273   1.024   1.420  1.0478  1.3393 -0.5621
  898SOL     OW 2692   0.766   0.188   1.532  0.1495 -0.0731 -0.1476
  898SOL    HW1 2693   0.740   0.261   1.598  0.5952  0.5487 -1.2048
  898SOL    HW2 2694   0.866   0.180   1.512 -0.7790  1.4349 -0.8559
  899SOL     OW 2695   1.463   0.123   0.173  0.1707 -0.2745  0.3334
  899SOL    HW1 2696   1.544   0.146   0.111  3.8838  0.3166 -0.4891
  899SOL    HW2 2697   1.419   0.203   0.214 -0.1728 -0.1302  2.7320
  900SOL     OW 2698   0.587   0.467   2.264  0.1785  0.0663  0.1723
  900SOL    HW1 2699   0.520   0.411   2.325 -2.9642 -2.1434  2.7092
  900SOL    HW2 2700   0.551   0.505   2.179 -1.7669  0.3229  1.0439
  901SOL     OW 2701   0.855   2.064   0.188  0.5814  0.1777 -0.3969
  901SOL    HW1 2702   0.861   1.971   0.220  2.2526  1.1821 -4.3393
  901SOL    HW2 2703   0.901   2.124   0.255 -1.0202 -2.9919 -1.7887
  902SOL     OW 2704   1.831   0.355   0.983 -0.5138  0.1352  0.1901
  902SOL    HW1 2705   1.807   0.322   0.889 -0.2544 -0.5033 -0.3071
  902SOL    HW2 2706   1.860   0.279   1.047  1.5288 -1.3847  2.6443
  903SOL     OW 2707   3.044   1.289   2.576  0.6023 -0.5142 -0.4821
  903SOL    HW1 2708   3.018   1.385   2.599  0.5199  0.2151 -0.0148
  903SOL    HW2 2709   3.055   1.288   2.475 -1.1615 -1.9555 -0.7444
  904SOL     OW 2710   1.585   1.219   0.434 -0.2101 -0.1386 -0.4725
  904SOL    HW1 2711   1.574   1.305   0.376  0.1343 -0.9002 -1.6734
  904SOL    HW2 2712   1.539   1.227   0.522  1.5864  0.6132 -0.1192
  905SOL     OW 2713   1.988   2.705   1.162 -0.2574 -0.7534 -0.6030
  905SOL    HW1 2714   1.913   2.750   1.221 -1.2628 -0.2060  1.1490
  905SOL    HW2 2715   2.078   2.706   1.208  2.2494  1.4668 -0.4241
  906SOL     OW 2716   2.138   2.752   0.947  0.0117  0.0247  0.5810
  906SOL    HW1 2717   2.096   2.735   1.037 -0.9417 -0.1050  0.1077
  906SOL    HW2 2718   2.206   2.826   0.969 -1.1954 -0.6427 -0.1826
  907SOL     OW 2719   1.988   1.016   0.349 -0.4976  0.7516 -0.1045
  907SOL    HW1 2720   2.079   1.003   0.390  1.0439  0.6753 -2.0410
  907SOL    HW2 2721   1.979   0.966   0.263  0.9354  0.7717  0.1643
  908SOL     OW 2722   1.643   0.445   1.277  0.3681  0.0244  0.1585
  908SOL    HW1 2723   1.562   0.480   1.219 -1.8150  2.1339 -2.3171
  908SOL    HW2 2724   1.727   0.504   1.262  3.4110  0.7033 -0.0388
  909SOL     OW 2725   2.375   3.066   0.693  0.0354 -0.0108 -0.5419
  909SOL    HW1 2726   2.462   0.005   0.730  1.7424 -0.5073 -2.0230
  909SOL    HW2 2727   2.293   0.014   0.739 -0.2082 -0.8125 -1.8690
  910SOL     OW 2728   2.346   0.692   2.086  0.1035 -0.6023  0.0336
  910SOL    HW1 2729   2.254   0.683   2.119 -1.0179  1.1853  0.0726
  910SOL    HW2 2730   2.411   0.697   2.164 -0.9907  0.4801  0.3974
  911SOL     OW 2731   2.238   0.026   2.630 -0.1247  0.7467  0.2635
  911SOL    HW1 2732   2.178   0.098   2.664 -3.4819 -0.8348  2.7228
  911SOL    HW2 2733   2.330   0.036   2.668  1.4632  0.1834  2.0315
  912SOL     OW 2734   0.636   0.909   1.347 -0.0228  0.6630  0.1524
  912SOL    HW1 2735   0.662   0.981   1.410 -0.2595  0.1121 -0.7911
  912SOL    HW2 2736   0.535   0.913   1.326  0.7925 -2.3524  0.3956
  913SOL     OW 2737   3.057   2.388   1.226  0.5650  0.4709  0.0787
  913SOL    HW1 2738   3.032   2.486   1.235 -0.9743 -0.7453  0.7012
  913SOL    HW2 2739   3.037   2.339   1.311  1.0547  3.1843 -1.0083
  914SOL     OW 2740   1.466   0.818   1.165 -0.0484  0.0820  0.1230
  914SOL    HW1 2741   1.461   0.836   1.266 -0.5277 -1.9472  0.5133
  914SOL    HW2 2742   1.445   0.718   1.149  2.6071 -0.0738  2.5885
  915SOL     OW 2743   0.145   1.584   1.485 -0.2338  0.1338 -0.3003
  915SOL    HW1 2744   0.208   1.628   1.417  0.5887  1.4881 -1.4071
  915SOL    HW2 2745   0.196   1.515   1.543  0.9788 -0.8319 -1.2050
  916SOL     OW 2746   2.007   2.286   0.896  0.1097  0.0186  0.3438
  916SOL    HW1 2747   2.054   2.346   0.962 -1.4139 -1.5845 -1.1509
  916SOL    HW2 2748   1.980   2.195   0.937 -0.2281 -0.5387  1.3008
  917SOL     OW 2749   1.756   2.702   2.095 -0.7320 -0.1221  0.6482
  917SOL    HW1 2750   1.855   2.694   2.075 -3.7159  2.1368 -0.1149
  917SOL    HW2 2751   1.714   2.612   2.103 -0.1470  2.3850 -0.9139
  918SOL     OW 2752   1.955   1.983   2.570  0.3074  0.3236  0.3033
  918SOL    HW1 2753   1.955   2.084   2.554  0.1013 -2.3839 -0.6286
  918SOL    HW2 2754   2.045   1.949   2.598 -2.9390  2.8152 -1.7961
  919SOL     OW 2755   0.823   0.298   1.276  0.1798  0.0621 -0.2253
  919SOL    HW1 2756   0.752   0.290   1.349  0.7297 -2.5079  0.4055
  919SOL    HW2 2757   0.901   0.236   1.294  1.3266  0.9638 -1.9030
  920SOL     OW 2758   2.864   0.431   2.116 -0.4119  0.0263  0.2953
  920SOL    HW1 2759   2.935   0.356   2.115 -0.3732  3.4885  0.2764
  920SOL    HW2 2760   2.897   0.504   2.177 -0.5735 -2.8042  1.1364
  921SOL     OW 2761   2.745   1.122   1.591  0.3981 -0.4664 -0.2803
  921SOL    HW1 2762   2.819   1.060   1.588 -2.2194  0.6890  2.6477
  921SOL    HW2 2763   2.655   1.085   1.626 -1.2446 -0.8566  0.4183
  922SOL     OW 2764   2.791   2.223   0.802 -0.1940  0.0097  0.1999
  922SOL    HW1 2765   2.693   2.231   0.816 -1.4238  0.7326  0.9312
  922SOL    HW2 2766   2.818   2.258   0.707  0.3430  0.9983 -1.8882
  923SOL     OW 2767   0.226   2.169   0.531 -0.4182 -0.3778  0.5693
  923SOL    HW1 2768   0.234   2.082   0.480  1.2103 -1.1049 -3.5419
  923SOL    HW2 2769   0.308   2.227   0.532 -0.9315  0.7043 -0.4063
  924SOL     OW 2770   1.022   1.343   2.903 -0.4331 -1.0454  0.2896
  924SOL    HW1 2771   1.045   1.440   2.888  1.3071 -0.1109  0.7093
  924SOL    HW2 2772   1.070   1.275   2.847 -4.0218 -2.7995  2.3244
  925SOL     OW 2773   2.846   1.229   0.957 -0.3539 -0.1641 -0.3743
  925SOL    HW1 2774   2.942   1.199   0.931  1.0810 -2.7333 -1.4874
  925SOL    HW2 2775   2.791   1.146   0.971 -0.6908  1.9447 -1.0276
  926SOL     OW 2776   3.064   0.030   0.927  0.2126 -0.0833 -0.8227
  926SOL    HW1 2777   0.072   0.025   0.939  1.1122  1.0839 -0.5115
  926SOL    HW2 2778   3.024   3.038   0.888  1.5189 -0.5915 -1.3294
  927SOL     OW 2779   0.344   2.133   2.589 -0.2148  0.2872 -0.0097
  927SOL    HW1 2780   0.245   2.104   2.603  0.4425 -0.8738  0.7840
  927SOL    HW2 2781   0.388   2.062   2.525 -0.4235 -0.3097  0.4585
  928SOL     OW 2782   0.122   0.458   2.411  0.0170 -0.1492  0.3853
  928SOL    HW1 2783   0.184   0.399   2.467 -0.7889 -1.6551  1.1865
  928SOL    HW2 2784   0.023   0.453   2.436  0.4163  1.4041 -0.3664
  929SOL     OW 2785   2.658   2.064   1.166  0.2251  0.4204  0.7875
  929SOL    HW1 2786   2.643   2.163   1.146 -2.9854  0.8337 -2.7871
  929SOL    HW2 2787   2.705   2.019   1.089  1.3697 -1.5197 -0.7988
  930SOL     OW 2788   1.775   0.527   2.232  0.4707 -0.4172  0.3481
  930SOL    HW1 2789   1.707   0.475   2.285  2.6210 -0.0595 -3.7351
  930SOL    HW2 2790   1.740   0.611   2.195 -0.6146 -4.1867 -1.0050
  931SOL     OW 2791   2.294   1.100   2.995  0.6017 -0.1108 -0.4804
  931SOL    HW1 2792   2.223   1.164   3.036 -3.0065  2.4494  3.9639
  931SOL    HW2 2793   2.254   1.067   2.905  0.2100 -2.7468 -0.5288
  932SOL     OW 2794   1.707   0.785   0.514  0.1191 -0.2320 -0.1277
  932SOL    HW1 2795   1.664   0.695   0.506 -0.5372 -2.2054  1.3165
  932SOL    HW2 2796   1.655   0.857   0.467 -1.1776  2.0606  0.5874
  933SOL     OW 2797   2.198   1.145   0.810  0.3300  0.0014  0.4904
  933SOL    HW1 2798   2.220   1.095   0.723 -1.3494 -0.9152 -4.3054
  933SOL    HW2 2799   2.109   1.194   0.793  0.0873  0.6348  1.2121
  934SOL     OW 2800   2.468   1.068   2.753 -0.0913  0.2330 -0.3397
  934SOL    HW1 2801   2.553   1.123   2.749  1.1650 -1.5422 -0.8304
  934SOL    HW2 2802   2.446   1.035   2.658  1.1080 -1.9052  1.2172
  935SOL     OW 2803   0.035   1.407   1.108 -0.0277 -0.4921 -0.1701
  935SOL    HW1 2804   3.068   1.486   1.100  1.1289 -0.4186 -0.1760
  935SOL    HW2 2805   0.009   1.343   1.184 -0.2882  0.5769  2.7721
  936SOL     OW 2806   0.022   2.882   0.073 -0.2930 -0.0640  0.1840
  936SOL    HW1 2807   0.099   2.863   0.133  1.0871  0.1071  1.4831
  936SOL    HW2 2808   0.019   2.809   3.093  1.4912 -1.5249 -0.7315
  937SOL     OW 2809   0.239   2.414   2.025 -0.4412  0.3483 -0.0893
  937SOL    HW1 2810   0.236   2.507   1.984 -1.6355 -0.6073 -0.7981
  937SOL    HW2 2811   0.173   2.357   1.975  1.4292 -0.2453  3.2954
  938SOL     OW 2812   2.414   2.139   0.057  0.2765  0.0186 -0.6095
  938SOL    HW1 2813   2.485   2.212   0.073  1.9470  0.4522 -1.7615
  938SOL    HW2 2814   2.315   2.177   0.062 -0.6082  1.5540  0.3288
  939SOL     OW 2815   1.053   0.506   1.446  0.0543 -0.3766 -0.2332
  939SOL    HW1 2816   1.117   0.531   1.523  3.2840 -0.0285 -3.4320
  939SOL    HW2 2817   1.017   0.592   1.413  0.5198 -1.3789 -0.9058
  940SOL     OW 2818   2.343   2.820   2.829 -0.4644 -0.3092 -0.6276
  940SOL    HW1 2819   2.245   2.815   2.844 -1.2830 -0.6463 -2.7573
  940SOL    HW2 2820   2.388   2.749   2.884 -0.9786  0.2082  1.3825
  941SOL     OW 2821   2.634   2.719   2.207 -0.4839 -0.4820  0.2592
  941SOL    HW1 2822   2.681   2.629   2.205 -1.2918 -0.6434 -0.7371
  941SOL    HW2 2823   2.680   2.786   2.144  1.1245  0.8302  1.1065
  942SOL     OW 2824   1.466   0.052   1.359  0.2129  0.5495  0.1755
  942SOL    HW1 2825   1.552   0.103   1.340 -2.2854 -0.0056 -0.0974
  942SOL    HW2 2826   1.385   0.101   1.323  1.3006 -1.4018 -1.4428
  943SOL     OW 2827   0.801   1.498   2.436 -0.0054  0.4812  0.7199
  943SOL    HW1 2828   0.814   1.399   2.440 -0.1121  0.3919  1.4182
  943SOL    HW2 2829   0.774   1.521   2.338 -1.5912 -0.3817 -1.6737
  944SOL     OW 2830   2.817   0.857   1.312 -0.1201  0.1923  0.6621
  944SOL    HW1 2831   2.793   0.762   1.291  1.5764  0.1875 -1.0418
  944SOL    HW2 2832   2.738   0.914   1.315  0.6200  0.2237 -0.6447
  945SOL     OW 2833   2.722   0.016   2.697  0.3687  0.2049 -0.1291
  945SOL    HW1 2834   2.738   0.074   2.778  1.2647 -0.2707 -1.0199
  945SOL    HW2 2835   2.789   3.034   2.693  3.5263 -2.0337  1.2393
  946SOL     OW 2836   2.988   1.488   1.459 -0.0187  0.0112  0.3030
  946SOL    HW1 2837   3.075   1.542   1.459  2.1865 -0.2249 -1.5879
  946SOL    HW2 2838   2.999   1.413   1.386 -0.1281 -0.0377 -2.7769
  947SOL     OW 2839   0.566   0.444   2.898  0.1688 -0.7148  0.2750
  947SOL    HW1 2840   0.602   0.524   2.843  1.9273  2.9576  0.0120
  947SOL    HW2 2841   0.561   0.352   2.848 -1.4423 -1.9450  1.8214
  948SOL     OW 2842   2.152   1.479   1.163  0.4090  0.1950 -0.1548
  948SOL    HW1 2843   2.142   1.469   1.264 -1.9474 -0.1747 -1.0493
  948SOL    HW2 2844   2.243   1.507   1.141 -2.9883  0.0748  0.6350
  949SOL     OW 2845   0.352   0.989   2.949 -0.3853  0.4961  0.1332
  949SOL    HW1 2846   0.328   0.953   3.040 -0.1085 -0.2241 -0.7790
  949SOL    HW2 2847   0.274   1.027   2.897  1.4076 -1.3549 -1.9531
  950SOL     OW 2848   0.287   3.067   1.246  0.4544  0.0679  0.2200
  950SOL    HW1 2849   0.246   3.015   1.325 -1.8787  1.4121  0.2263
  950SOL    HW2 2850   0.377   0.017   1.253  0.5576 -1.2999 -0.6479
  951SOL     OW 2851   0.910   2.176   2.682  0.9260 -0.2802  0.0578
  951SOL    HW1 2852   0.930   2.090   2.729  0.9398  2.2374 -1.7976
  951SOL    HW2 2853   0.967   2.255   2.721  1.5075  0.5173  1.8863
  952SOL     OW 2854   0.744   1.188   0.721 -0.3692  0.3064 -0.0197
  952SOL    HW1 2855   0.725   1.091   0.703  1.1415  0.0834 -1.5201
  952SOL    HW2 2856   0.767   1.227   0.628 -0.3201  1.2594 -1.3153
  953SOL     OW 2857   2.239   1.700   2.905  0.3800 -1.0512  0.8488
  953SOL    HW1 2858   2.306   1.728   2.833  0.0468  0.0336 -1.6031
  953SOL    HW2 2859   2.259   1.606   2.938  1.3201  2.4084 -2.2857
  954SOL     OW 2860   1.292   0.303   0.784  0.6628  0.0877 -0.1194
  954SOL    HW1 2861   1.353   0.386   0.758  1.3855  2.8785 -0.1033
  954SOL    HW2 2862   1.348   0.238   0.836 -0.6806  3.0444 -0.2962
  955SOL     OW 2863   0.915   1.752   3.039  0.3433  0.1864 -0.3909
  955SOL    HW1 2864   0.923   1.853   3.028  1.2081  0.1746 -0.8004
  955SOL    HW2 2865   0.974   1.709   0.015 -0.1251 -1.0781  0.2899
  956SOL     OW 2866   2.627   0.440   1.962 -0.0593 -0.7347  0.6989
  956SOL    HW1 2867   2.657   0.426   1.868 -0.8202 -0.8624 -0.5971
  956SOL    HW2 2868   2.713   0.429   2.017 -2.2801 -0.2884  1.1049
  957SOL     OW 2869   1.862   2.142   2.181 -0.4960  0.2874 -0.1462
  957SOL    HW1 2870   1.881   2.047   2.154 -0.1054 -1.3552 -0.6324
  957SOL    HW2 2871   1.796   2.152   2.258  2.1177  0.5382 -0.3933
  958SOL     OW 2872   1.676   1.143   1.443  0.1778 -0.1526 -0.2266
  958SOL    HW1 2873   1.739   1.218   1.471  2.2183  2.3830  1.6507
  958SOL    HW2 2874   1.708   1.084   1.371  0.3253  1.5905  0.2288
  959SOL     OW 2875   1.724   2.129   1.928 -0.3205  0.0738 -0.1546
  959SOL    HW1 2876   1.663   2.049   1.954  0.4736  0.0793 -1.7662
  959SOL    HW2 2877   1.775   2.158   2.008 -2.0630 -3.0794 -1.9028
  960SOL     OW 2878   0.606   1.183   2.553 -0.5512  0.1319 -0.0260
  960SOL    HW1 2879   0.566   1.237   2.629  2.6798  2.2819 -0.0042
  960SOL    HW2 2880   0.607   1.083   2.578 -0.1056 -3.4825 -3.8164
  961SOL     OW 2881   3.062   1.151   3.009 -0.1478  0.4492 -0.5300
  961SOL    HW1 2882   0.034   1.230   2.994  1.1265  0.1528  2.2813
  961SOL    HW2 2883   2.968   1.189   3.005 -0.2269 -0.4120 -2.0089
  962SOL     OW 2884   0.916   2.027   3.025 -0.0852  0.4743  0.4397
  962SOL    HW1 2885   0.998   2.064   2.973  0.4573 -1.3933  1.7425
  962SOL    HW2 2886   0.915   2.051   0.032 -0.5657 -0.9523  0.7338
  963SOL     OW 2887   2.788   1.587   0.046  0.3950 -0.2620  0.0013
  963SOL    HW1 2888   2.890   1.576   0.027  0.6447 -2.6307  0.2121
  963SOL    HW2 2889   2.751   1.685   0.034 -0.0524  3.5061  1.2111
  964SOL     OW 2890   0.910   2.288   2.237  0.1424 -0.5568  0.4130
  964SOL    HW1 2891   0.990   2.352   2.234 -1.2884  1.1862 -1.5880
  964SOL    HW2 2892   0.890   2.252   2.331 -0.0183 -1.1148  2.3385
  965SOL     OW 2893   1.471   1.826   1.323  0.1516  0.0716 -0.4768
  965SOL    HW1 2894   1.480   1.727   1.301  0.8265  0.1282 -0.4733
  965SOL    HW2 2895   1.470   1.845   1.424  1.8127  0.1594 -0.5267
  966SOL     OW 2896   2.885   1.533   0.328 -0.2503  0.4605  0.2214
  966SOL    HW1 2897   2.982   1.523   0.287  0.3306  1.3565 -2.5634
  966SOL    HW2 2898   2.815   1.505   0.258 -0.6514  0.6563  3.8319
  967SOL     OW 2899   1.748   2.714   2.363  0.5799  0.2334  0.4066
  967SOL    HW1 2900   1.776   2.806   2.392 -0.2514 -2.4248 -0.0092
  967SOL    HW2 2901   1.748   2.705   2.259  0.3508 -0.3259 -2.1356
  968SOL     OW 2902   1.625   1.350   2.832  0.0187 -0.0243  0.1818
  968SOL    HW1 2903   1.714   1.354   2.779  1.6507  0.6723  0.7098
  968SOL    HW2 2904   1.643   1.383   2.927  1.8365 -1.8248  0.4835
  969SOL     OW 2905   0.157   1.066   2.319  0.3487  0.2077 -0.3144
  969SOL    HW1 2906   0.086   1.073   2.248  3.5079  1.2595  0.6968
  969SOL    HW2 2907   0.232   0.996   2.299 -0.4171 -0.5681 -1.2732
  970SOL     OW 2908   2.549   2.940   0.284  0.0906 -0.2339  0.4740
  970SOL    HW1 2909   2.584   2.847   0.268  0.4516  1.3630 -1.2378
  970SOL    HW2 2910   2.531   2.985   0.192  1.1695  4.2537 -1.0589
  971SOL     OW 2911   2.090   1.857   0.886 -0.4582 -0.0427 -0.7577
  971SOL    HW1 2912   2.189   1.865   0.907  0.3244 -0.3066  0.3913
  971SOL    HW2 2913   2.062   1.763   0.876 -1.3011  3.0316  0.5629
  972SOL     OW 2914   0.279   1.825   2.660  0.2558 -0.3773 -0.1467
  972SOL    HW1 2915   0.265   1.748   2.597 -1.8906  0.5288 -0.8785
  972SOL    HW2 2916   0.364   1.813   2.724 -1.2630 -0.8647 -1.3363
  973SOL     OW 2917   0.699   0.403   0.387 -0.2371  0.3086 -0.0285
  973SOL    HW1 2918   0.634   0.319   0.385 -1.6687 -3.7485 -1.0466
  973SOL    HW2 2919   0.684   0.470   0.314  2.1320  1.2847 -1.2619
  974SOL     OW 2920   2.150   0.753   1.626  0.3504  0.1676  0.1188
  974SOL    HW1 2921   2.169   0.673   1.678  2.4165  4.1395 -2.1202
  974SOL    HW2 2922   2.235   0.798   1.595 -0.7313 -3.5968  1.0967
  975SOL     OW 2923   0.246   0.005   0.704  0.0375  0.4755 -0.4375
  975SOL    HW1 2924   0.333   3.058   0.663 -0.3024  0.2606 -3.4524
  975SOL    HW2 2925   0.254   0.002   0.807 -0.2896 -2.8637  0.2306
  976SOL     OW 2926   0.581   1.501   1.546 -0.2894 -0.0648 -0.0260
  976SOL    HW1 2927   0.549   1.408   1.518 -0.3697 -0.0583 -0.7573
  976SOL    HW2 2928   0.602   1.556   1.461 -1.1571  0.0053 -1.2733
  977SOL     OW 2929   1.400   2.027   0.303 -0.1521 -0.1344  0.3646
  977SOL    HW1 2930   1.492   1.986   0.318 -0.1651  3.0329 -1.4951
  977SOL    HW2 2931   1.402   2.126   0.332 -0.1791 -0.5830 -1.1308
  978SOL     OW 2932   0.240   0.937   0.105  0.0423 -0.4231  0.0533
  978SOL    HW1 2933   0.140   0.970   0.108 -1.2357  2.1139  0.0057
  978SOL    HW2 2934   0.292   0.976   0.183  2.2355 -3.0663  1.7366
  979SOL     OW 2935   1.991   1.279   0.229 -0.5411  0.4019 -0.0105
  979SOL    HW1 2936   2.061   1.354   0.254  0.3020  2.9927  3.6505
  979SOL    HW2 2937   2.001   1.200   0.287  1.6579  2.3607  0.5510
  980SOL     OW 2938   0.685   1.881   1.826  0.2745  0.2640  0.0061
  980SOL    HW1 2939   0.763   1.922   1.781 -0.8075  0.4365 -0.5941
  980SOL    HW2 2940   0.600   1.930   1.805 -2.7001  0.1603 -1.2099
  981SOL     OW 2941   2.459   1.475   2.593  1.0829  0.1976 -0.2338
  981SOL    HW1 2942   2.554   1.501   2.605  0.1943  1.0891 -1.8358
  981SOL    HW2 2943   2.418   1.413   2.661  0.2072  2.0344 -0.2090
  982SOL     OW 2944   0.422   2.018   1.789 -0.2115  0.4984  0.4878
  982SOL    HW1 2945   0.406   2.096   1.722 -4.3337  0.1549  0.6121
  982SOL    HW2 2946   0.437   2.053   1.882  2.5236  0.1204 -1.1261
  983SOL     OW 2947   1.580   0.033   1.974 -0.0557 -0.0785  0.2677
  983SOL    HW1 2948   1.504   0.027   1.903 -1.7305  1.4512 -1.3975
  983SOL    HW2 2949   1.622   0.126   1.964  2.4928 -2.9130  1.3089
  984SOL     OW 2950   2.980   3.058   2.836 -0.0616 -0.2039  0.4153
  984SOL    HW1 2951   2.998   0.038   2.899  1.7509  0.1966  0.6066
  984SOL    HW2 2952   3.062   3.028   2.782  0.7936  0.8567 -3.7579
  985SOL     OW 2953   1.425   1.488   1.833 -0.2646  0.3518 -0.3831
  985SOL    HW1 2954   1.521   1.487   1.796  1.9597 -2.3890 -1.3858
  985SOL    HW2 2955   1.400   1.410   1.899  0.8598 -0.8936  0.2944
  986SOL     OW 2956   1.850   0.412   2.918  0.0252 -0.3053  0.3400
  986SOL    HW1 2957   1.929   0.376   2.964 -3.7765 -0.9956 -2.9200
  986SOL    HW2 2958   1.870   0.414   2.817 -1.5644 -0.7542  3.0064
  987SOL     OW 2959   0.096   2.038   2.596  0.1669  0.1538  0.2403
  987SOL    HW1 2960   0.010   2.037   2.650  1.4747 -1.1642 -0.8604
  987SOL    HW2 2961   0.129   1.943   2.600  1.9237 -1.2629 -0.9744
  988SOL     OW 2962   2.861   0.174   1.487 -0.1374 -0.2767 -0.4529
  988SOL    HW1 2963   2.950   0.129   1.461 -0.1837 -1.7535  0.3864
  988SOL    HW2 2964   2.788   0.110   1.466  1.8925  0.8813 -1.8954
  989SOL     OW 2965   1.909   0.130   1.133  0.9369  0.2305  0.2238
  989SOL    HW1 2966   1.865   0.045   1.095 -0.4406  0.0928  0.9328
  989SOL    HW2 2967   1.990   0.113   1.193  2.5405 -0.2621  0.6735
  990SOL     OW 2968   2.479   0.937   0.314 -0.7546 -0.1735 -0.1843
  990SOL    HW1 2969   2.485   0.898   0.221 -0.3291 -0.7510 -1.3338
  990SOL    HW2 2970   2.508   1.035   0.318 -2.7558  1.5370 -0.9153
  991SOL     OW 2971   0.301   1.086   0.604  0.5061  0.4117 -0.2453
  991SOL    HW1 2972   0.213   1.130   0.596  2.0679  0.8828 -0.6074
  991SOL    HW2 2973   0.373   1.138   0.655 -0.2670  1.9396 -0.7325
  992SOL     OW 2974   1.938   1.509   1.808 -0.0191 -0.1954 -0.3980
  992SOL    HW1 2975   1.924   1.557   1.897 -0.2342 -0.7152 -1.2548
  992SOL    HW2 2976   1.971   1.413   1.826  1.2710  2.2355 -0.5156
  993SOL     OW 2977   0.263   2.091   0.793 -0.0352 -0.6562 -0.3075
  993SOL    HW1 2978   0.358   2.047   0.798  2.5979  0.4970 -2.4877
  993SOL    HW2 2979   0.237   2.119   0.697 -1.1732  0.6944 -3.5131
  994SOL     OW 2980   3.068   1.824   1.658  0.5874  0.4001 -0.1121
  994SOL    HW1 2981   2.989   1.780   1.699  0.6744  1.2999  0.1118
  994SOL    HW2 2982   0.042   1.757   1.620 -1.0153  0.9096  2.0425
  995SOL     OW 2983   1.967   1.741   2.838  0.0693 -0.3846 -0.0111
  995SOL    HW1 2984   1.968   1.705   2.744  1.6701  0.8227  0.5631
  995SOL    HW2 2985   2.055   1.733   2.884  0.2000  0.1393  0.5786
  996SOL     OW 2986   1.823   2.359   0.512  0.2291  0.1857  0.2768
  996SOL    HW1 2987   1.785   2.281   0.459 -0.2256 -3.9766 -3.8703
  996SOL    HW2 2988   1.872   2.328   0.595  0.4175  2.7439  0.5305
  997SOL     OW 2989   1.313   1.727   1.928  0.3263  0.6080  0.2915
  997SOL    HW1 2990   1.213   1.702   1.917 -1.9037  1.1219 -2.2999
  997SOL    HW2 2991   1.375   1.649   1.896  1.8242  0.4621  1.1911
  998SOL     OW 2992   0.001   2.345   0.489  0.0210  0.1646  0.5602
  998SOL    HW1 2993   3.075   2.347   0.386 -0.7427  0.6195  1.3151
  998SOL    HW2 2994   0.076   2.277   0.510  2.4098 -0.6872  0.7504
  999SOL     OW 2995   0.733   2.956   0.197  0.5961  0.4900  0.2510
  999SOL    HW1 2996   0.657   2.891   0.178  0.4877 -0.5661 -0.2783
  999SOL    HW2 2997   0.794   2.969   0.115  1.7811 -1.3121  2.1502
 1000SOL     OW 2998   1.249   0.074   3.059 -0.3192 -0.1138 -0.0176
 1000SOL    HW1 2999   1.254   0.145   2.985 -0.1923  1.8047  0.6125
 1000SOL    HW2 3000   1.335   0.073   0.018  0.8770  0.8914  2.0590
   3.09340   3.09340   3.09340
