1000 SPC/Fw water molecules t= 249.00000 step= 249000
 3000
    1SOL     OW    1   2.761   2.381   1.027 -0.2085 -0.1674 -0.1598
    1SOL    HW1    2   2.768   2.306   1.099 -1.0048 -1.5181  1.3166
    1SOL    HW2    3   2.700   2.348   0.953  1.8784 -0.9352  4.5371
    2SOL     OW    4   1.736   1.892   1.221 -0.2572 -0.0639  0.1627
    2SOL    HW1    5   1.635   1.909   1.221  0.8117  2.7124 -2.4273
    2SOL    HW2    6   1.762   1.815   1.156  0.8830  0.1879 -0.7206
    3SOL     OW    7   1.250   2.544   2.957  0.6398  0.2720  0.2131
    3SOL    HW1    8   1.248   2.614   3.032 -0.5232  2.1818  2.2468
    3SOL    HW2    9   1.266   2.592   2.867 -0.7910  0.3891  1.0148
    4SOL     OW   10   1.964   1.982   1.831  0.7154 -0.1568 -0.8969
    4SOL    HW1   11   2.038   1.973   1.901 -0.2794 -0.8204  0.9596
    4SOL    HW2   12   1.980   1.927   1.748 -0.0145 -1.2613  1.2718
    5SOL     OW   13   1.600   1.080   1.415  0.4023  0.1831  0.2918
    5SOL    HW1   14   1.605   1.164   1.359  0.0795  0.3846 -0.1935
    5SOL    HW2   15   1.673   1.005   1.394  1.9229 -1.2365 -0.2262
    6SOL     OW   16   2.526   0.112   0.100 -0.0408 -0.6073 -0.4913
    6SOL    HW1   17   2.569   0.136   0.010 -1.8401  1.4650  1.9582
    6SOL    HW2   18   2.452   0.041   0.090  1.6902 -2.5145 -0.4722
    7SOL     OW   19   2.646   1.530   1.481  0.1078  0.2319 -0.3836
    7SOL    HW1   20   2.685   1.491   1.569  0.6657 -1.9232  1.6637
    7SOL    HW2   21   2.729   1.561   1.427 -2.3118  0.6372 -0.3118
    8SOL     OW   22   1.110   0.217   0.880 -0.1885 -0.3398  0.2421
    8SOL    HW1   23   1.123   0.183   0.974 -1.2447 -0.1203 -0.2655
    8SOL    HW2   24   1.191   0.181   0.828 -3.1663  1.7401  1.9477
    9SOL     OW   25   1.641   0.168   2.415  0.0206  0.1090 -0.4055
    9SOL    HW1   26   1.613   0.265   2.397  0.2362 -0.5450  1.1113
    9SOL    HW2   27   1.744   0.163   2.433  0.1715  0.2268 -0.0661
   10SOL     OW   28   0.568   2.035   0.306 -0.6627  0.2343 -0.1590
   10SOL    HW1   29   0.478   1.991   0.325 -0.2260  0.2490 -0.5370
   10SOL    HW2   30   0.651   1.975   0.319 -1.0930  1.2389  1.9299
   11SOL     OW   31   1.168   1.073   0.283 -0.0303  0.4936  0.0762
   11SOL    HW1   32   1.144   1.120   0.369  1.4513  0.8369 -2.2521
   11SOL    HW2   33   1.236   1.132   0.231  1.5612 -0.5476  2.3035
   12SOL     OW   34   3.079   0.136   1.735  0.0404  0.1993 -0.0809
   12SOL    HW1   35   3.022   0.213   1.771 -2.1225 -0.6254 -2.6131
   12SOL    HW2   36   0.046   0.172   1.672 -2.1820  0.1560  1.0827
   13SOL     OW   37   1.516   0.178   0.340 -0.1567  0.1158  0.3010
   13SOL    HW1   38   1.463   0.201   0.423  0.2192  1.4125  0.3547
   13SOL    HW2   39   1.615   0.185   0.371  0.3681 -1.3678  2.6021
   14SOL     OW   40   1.095   2.378   1.454 -0.1873  0.8002 -0.3307
   14SOL    HW1   41   1.126   2.302   1.515  0.8234 -0.2437  0.5599
   14SOL    HW2   42   1.170   2.420   1.400 -1.5378 -2.8248  0.0380
   15SOL     OW   43   2.509   1.268   1.640  0.3232 -0.4225  0.6000
   15SOL    HW1   44   2.523   1.219   1.551 -0.4325 -1.4664 -1.2058
   15SOL    HW2   45   2.594   1.297   1.686  0.1957  0.0901  1.4835
   16SOL     OW   46   2.128   2.748   0.399  0.2683 -0.4969 -0.6710
   16SOL    HW1   47   2.190   2.826   0.372  1.3200 -0.7722 -0.4820
   16SOL    HW2   48   2.035   2.763   0.358  1.1651 -0.6737 -0.0424
   17SOL     OW   49   0.957   0.087   1.406 -0.2090 -0.3612  0.5518
   17SOL    HW1   50   0.896   0.166   1.388  1.3279  0.6754  1.5321
   17SOL    HW2   51   0.901   0.012   1.431  0.8922  0.4460  0.7958
   18SOL     OW   52   1.517   0.672   2.756  0.3809 -0.2468 -0.0841
   18SOL    HW1   53   1.553   0.681   2.847 -0.1131  1.4634 -1.6147
   18SOL    HW2   54   1.587   0.690   2.681  2.0179 -0.4717  0.4527
   19SOL     OW   55   1.794   1.913   0.138 -0.5359  0.3932  0.3304
   19SOL    HW1   56   1.857   1.856   0.079  1.4668  2.1281  2.2085
   19SOL    HW2   57   1.812   2.018   0.131  2.4283  4.6790  1.0636
   20SOL     OW   58   2.146   2.204   1.820 -0.2491 -0.1731  0.3491
   20SOL    HW1   59   2.207   2.162   1.889  0.3194 -0.9943  1.2166
   20SOL    HW2   60   2.052   2.196   1.854 -0.9389  3.1744  1.8048
   21SOL     OW   61   0.992   1.662   3.054 -0.2754 -0.3172 -0.2324
   21SOL    HW1   62   1.051   1.590   3.093 -2.6154 -0.4358 -0.5962
   21SOL    HW2   63   0.958   1.726   0.029 -1.6761 -0.1933 -1.4843
   22SOL     OW   64   1.968   2.909   1.316 -0.3344  0.1543  0.2040
   22SOL    HW1   65   1.912   2.984   1.273 -1.7696  1.9206 -0.7861
   22SOL    HW2   66   1.923   2.874   1.400  1.2229  1.8102  0.8791
   23SOL     OW   67   2.954   0.597   1.827 -0.2905 -0.5324  0.4951
   23SOL    HW1   68   2.988   0.626   1.737 -1.5868  0.1090  2.9433
   23SOL    HW2   69   2.878   0.658   1.858  0.3197  1.2153  0.3870
   24SOL     OW   70   2.228   2.501   0.818  0.3451  0.5147 -0.1941
   24SOL    HW1   71   2.130   2.499   0.846 -0.1480 -0.6485 -1.2466
   24SOL    HW2   72   2.289   2.435   0.868 -0.7958  0.1999 -0.6364
   25SOL     OW   73   1.173   2.699   2.720  0.4080 -0.5797 -0.7177
   25SOL    HW1   74   1.268   2.732   2.722  0.0874  1.2198  0.9046
   25SOL    HW2   75   1.107   2.775   2.709  1.2735 -1.9462  0.2721
   26SOL     OW   76   2.152   2.595   2.987 -0.0639  0.1613  0.4180
   26SOL    HW1   77   2.114   2.691   2.975  0.1196  2.7945  0.5622
   26SOL    HW2   78   2.095   2.553   3.059  2.1549  0.3447 -3.1170
   27SOL     OW   79   2.957   1.897   2.884 -0.2146  0.3296  0.3350
   27SOL    HW1   80   2.855   1.907   2.851 -3.0667 -1.1409  1.9196
   27SOL    HW2   81   3.018   1.877   2.805 -0.5419  0.0373  0.6778
   28SOL     OW   82   2.886   0.927   1.687 -0.8187 -0.1385  0.1964
   28SOL    HW1   83   2.787   0.918   1.715  1.7472 -1.2952 -1.5723
   28SOL    HW2   84   2.902   1.000   1.620  2.2652 -0.8085 -1.2894
   29SOL     OW   85   2.446   2.425   1.400 -0.4525 -0.7148  0.1202
   29SOL    HW1   86   2.388   2.502   1.428 -0.9164 -1.5465 -0.4282
   29SOL    HW2   87   2.543   2.455   1.394 -0.3376 -0.4203  2.4600
   30SOL     OW   88   1.536   0.582   0.153 -0.1987 -0.0436 -0.1947
   30SOL    HW1   89   1.463   0.513   0.168  1.3038  0.6891  0.4467
   30SOL    HW2   90   1.607   0.570   0.226 -3.5068 -0.2081 -2.6385
   31SOL     OW   91   2.782   2.729   1.720 -0.3951 -0.3846 -0.3857
   31SOL    HW1   92   2.813   2.719   1.622 -0.8599 -1.1243 -0.0542
   31SOL    HW2   93   2.811   2.652   1.774 -0.3394 -0.2587 -2.8250
   32SOL     OW   94   0.839   1.651   1.471 -0.4102 -0.2210  0.5068
   32SOL    HW1   95   0.817   1.725   1.405  2.5925 -2.7457  0.1686
   32SOL    HW2   96   0.870   1.565   1.420  2.1328 -1.3013 -2.7738
   33SOL     OW   97   0.488   2.641   2.349 -0.0445  0.0550 -0.0721
   33SOL    HW1   98   0.583   2.620   2.377  0.3325 -1.0819  0.2886
   33SOL    HW2   99   0.487   2.737   2.319  0.3093  0.1682  0.0241
   34SOL     OW  100   1.419   2.991   0.810  0.1560 -0.4839  0.0049
   34SOL    HW1  101   1.484   2.971   0.886  1.2658 -1.6095 -0.7864
   34SOL    HW2  102   1.450   2.951   0.722  0.6040 -1.4651  0.6329
   35SOL     OW  103   2.102   3.059   0.964  0.0055  0.3060  0.2498
   35SOL    HW1  104   2.017   3.092   0.921  0.2117 -1.4092  1.0342
   35SOL    HW2  105   2.113   3.089   1.065 -1.0200 -3.0896  1.6932
   36SOL     OW  106   1.940   2.647   2.392  0.0074  0.4129 -0.0760
   36SOL    HW1  107   1.837   2.652   2.391 -1.3024  2.2243 -3.6033
   36SOL    HW2  108   1.973   2.632   2.487  0.9267  1.9129  0.4511
   37SOL     OW  109   0.599   2.963   2.306  0.2528 -0.4480  0.0688
   37SOL    HW1  110   0.646   2.932   2.222 -1.8261  0.8483  0.5784
   37SOL    HW2  111   0.663   2.966   2.383  0.8594  0.8469  0.3098
   38SOL     OW  112   0.062   2.533   2.562  0.3463 -0.2211 -0.2651
   38SOL    HW1  113   0.149   2.486   2.570 -1.8168  2.3836  1.6941
   38SOL    HW2  114   0.055   2.595   2.484  0.8216  0.1117  2.3525
   39SOL     OW  115   2.483   1.329   2.060  0.3376  0.4878 -0.1368
   39SOL    HW1  116   2.391   1.312   2.018  1.2931  2.3440 -3.0807
   39SOL    HW2  117   2.490   1.283   2.150 -3.2143 -1.1689 -3.1906
   40SOL     OW  118   0.645   2.846   3.092 -0.1870  0.5689 -0.0584
   40SOL    HW1  119   0.743   2.834   3.065  0.3325  2.3275  2.0979
   40SOL    HW2  120   0.631   2.836   0.095  2.2167 -0.9974 -0.0095
   41SOL     OW  121   2.151   1.039   1.028 -0.1766 -0.5028 -0.1914
   41SOL    HW1  122   2.248   1.027   1.056  2.7080 -1.2476  2.0774
   41SOL    HW2  123   2.148   1.096   0.944  3.1477  2.0939 -1.5243
   42SOL     OW  124   0.565   0.504   1.117  0.5227  0.3019  0.3173
   42SOL    HW1  125   0.587   0.576   1.049 -3.1160  0.3291  0.4070
   42SOL    HW2  126   0.529   0.549   1.199 -0.5931  1.9259 -0.6043
   43SOL     OW  127   2.196   1.225   2.551  0.6062  0.2733  0.1903
   43SOL    HW1  128   2.254   1.143   2.579 -1.1155 -1.9649  0.3279
   43SOL    HW2  129   2.256   1.300   2.512 -0.6078  1.9440  0.0822
   44SOL     OW  130   3.097   2.827   0.827  0.3890 -0.1212  0.0262
   44SOL    HW1  131   0.030   2.885   0.754 -2.1694 -1.0792  1.8181
   44SOL    HW2  132   0.068   2.803   0.901  0.4336  0.3795  1.0384
   45SOL     OW  133   0.044   2.556   1.157  0.2308  0.0281 -0.5964
   45SOL    HW1  134   0.111   2.619   1.106 -0.2774  1.2459  2.6193
   45SOL    HW2  135   3.050   2.549   1.116 -0.2656  0.5483 -0.9222
   46SOL     OW  136   2.369   2.708   2.590  0.1213  0.0531  0.5156
   46SOL    HW1  137   2.387   2.681   2.495 -1.8736  1.3769  1.1158
   46SOL    HW2  138   2.452   2.755   2.620 -2.2373 -1.1416  1.7825
   47SOL     OW  139   2.018   1.997   1.171  0.0024 -0.7124 -0.3021
   47SOL    HW1  140   1.992   1.932   1.103  0.9118  2.1311  2.2294
   47SOL    HW2  141   1.969   1.972   1.258  0.6263 -0.0449 -2.1149
   48SOL     OW  142   0.781   1.607   0.281  0.2464 -0.2463 -0.0162
   48SOL    HW1  143   0.799   1.689   0.220  4.4848 -0.4328  1.3487
   48SOL    HW2  144   0.730   1.536   0.229  0.8361  1.6952 -0.0128
   49SOL     OW  145   2.892   0.138   2.620  0.4519 -0.2848 -0.2602
   49SOL    HW1  146   2.926   0.086   2.698  0.1491  0.3492 -0.5517
   49SOL    HW2  147   2.902   0.083   2.533  0.9111  0.6774 -0.3455
   50SOL     OW  148   2.061   0.754   0.275 -0.0022 -0.0129 -0.0103
   50SOL    HW1  149   2.005   0.838   0.261  1.9618 -0.6678 -1.4737
   50SOL    HW2  150   2.042   0.722   0.370 -0.6986  1.1636  0.3361
   51SOL     OW  151   2.371   0.746   0.783  0.1674  0.2520  0.4261
   51SOL    HW1  152   2.431   0.826   0.804  0.5635  3.1085  0.1839
   51SOL    HW2  153   2.316   0.781   0.700  0.7349  1.3257 -0.6324
   52SOL     OW  154   1.601   1.429   2.448 -0.3409  0.5250 -0.6347
   52SOL    HW1  155   1.594   1.365   2.369  1.5580  0.2625 -3.2514
   52SOL    HW2  156   1.692   1.413   2.495  1.8335  0.3572  1.8291
   53SOL     OW  157   0.629   1.903   2.152  0.2691 -0.3013  0.5357
   53SOL    HW1  158   0.726   1.889   2.128 -1.5087 -0.3339  1.2555
   53SOL    HW2  159   0.609   1.867   2.244  0.0715  0.5376 -2.3373
   54SOL     OW  160   2.171   0.276   0.782 -0.1547  0.3082  0.8173
   54SOL    HW1  161   2.214   0.186   0.794 -2.4105 -0.0250  2.3983
   54SOL    HW2  162   2.226   0.357   0.811  3.3082  1.1608 -1.4402
   55SOL     OW  163   2.391   2.315   0.956  0.1579 -0.3449 -0.9743
   55SOL    HW1  164   2.367   2.215   0.939  1.5021 -4.7259  2.9073
   55SOL    HW2  165   2.488   2.325   0.928  0.4369 -2.0439  1.1638
   56SOL     OW  166   1.094   2.990   1.748 -0.0943  0.0860  0.4832
   56SOL    HW1  167   1.134   3.025   1.836 -1.3278  0.6139 -1.3895
   56SOL    HW2  168   1.106   3.069   1.685  0.0805  0.7322  2.8810
   57SOL     OW  169   1.366   1.535   0.157 -0.4858  0.2534 -0.7188
   57SOL    HW1  170   1.339   1.581   0.246 -3.9210 -0.9668  1.5459
   57SOL    HW2  171   1.466   1.511   0.149  1.9534 -0.0325  1.9453
   58SOL     OW  172   3.033   0.808   2.445 -0.0433  0.4633 -0.0339
   58SOL    HW1  173   0.030   0.835   2.423  1.8373 -0.9274  0.7055
   58SOL    HW2  174   2.998   0.723   2.405 -1.5112 -0.1901 -1.3885
   59SOL     OW  175   0.759   2.715   2.801  0.0125 -0.0462 -0.3630
   59SOL    HW1  176   0.785   2.763   2.889  0.1532 -1.4889  0.1137
   59SOL    HW2  177   0.823   2.644   2.772 -2.0311 -0.0229 -1.5233
   60SOL     OW  178   2.492   2.259   0.356 -0.2045 -0.4358  0.7180
   60SOL    HW1  179   2.562   2.223   0.290  0.7123  1.1793  1.1352
   60SOL    HW2  180   2.484   2.364   0.351  1.1725  5.1094  3.8041
   61SOL     OW  181   1.287   2.050   0.569 -0.5931  0.2056 -0.0443
   61SOL    HW1  182   1.229   1.992   0.627 -0.0330 -1.1297 -0.2419
   61SOL    HW2  183   1.252   2.142   0.586  0.0175 -0.8026  0.5145
   62SOL     OW  184   2.242   2.250   2.655 -0.5035  0.2811  0.1852
   62SOL    HW1  185   2.310   2.194   2.711 -0.7079  0.3668  0.2592
   62SOL    HW2  186   2.175   2.297   2.719  1.0913 -0.6795  0.0932
   63SOL     OW  187   2.434   2.632   2.989 -0.2398 -0.1715  0.3778
   63SOL    HW1  188   2.334   2.621   2.982  0.9234 -0.7067 -0.1917
   63SOL    HW2  189   2.466   2.728   2.986 -0.2658  0.9668  0.9702
   64SOL     OW  190   1.741   1.056   2.715  0.2745  0.1206 -0.2939
   64SOL    HW1  191   1.734   1.073   2.613 -1.1223 -1.8191  1.2108
   64SOL    HW2  192   1.838   1.033   2.744  1.4525 -0.8268  0.3670
   65SOL     OW  193   1.435   2.356   3.001  0.2117 -0.6074 -0.0307
   65SOL    HW1  194   1.381   2.318   2.926  2.3199 -0.2422 -1.7014
   65SOL    HW2  195   1.399   2.443   3.033  1.6749 -1.2079 -0.6401
   66SOL     OW  196   0.323   1.264   1.951 -0.2899 -0.9805  0.0506
   66SOL    HW1  197   0.418   1.280   1.984 -3.5045 -0.6921 -0.2499
   66SOL    HW2  198   0.324   1.184   1.888 -1.6830  1.0141 -3.5150
   67SOL     OW  199   2.863   2.649   2.856  0.4658  0.2168  0.0507
   67SOL    HW1  200   2.766   2.630   2.832 -0.3599  2.3773  1.4472
   67SOL    HW2  201   2.905   2.730   2.805  1.4275 -1.0487  0.1435
   68SOL     OW  202   0.860   2.545   1.527  0.2260 -0.0269  0.3841
   68SOL    HW1  203   0.932   2.476   1.520 -1.3865  2.2491 -0.6425
   68SOL    HW2  204   0.875   2.622   1.464 -1.7105  0.2311  1.4030
   69SOL     OW  205   0.713   2.247   0.428 -0.2790  0.1711  0.1059
   69SOL    HW1  206   0.646   2.286   0.491 -1.9708 -2.5805 -0.2013
   69SOL    HW2  207   0.674   2.164   0.381  0.6769  1.5004 -0.3685
   70SOL     OW  208   2.577   0.856   2.548 -0.2323  0.2680 -0.5266
   70SOL    HW1  209   2.672   0.899   2.549  3.6234  0.4783  0.7750
   70SOL    HW2  210   2.582   0.753   2.552 -1.0394 -1.9888  1.1546
   71SOL     OW  211   0.591   1.086   2.480  0.2291  0.4931 -0.5102
   71SOL    HW1  212   0.608   0.991   2.452  0.7765 -0.8523  2.6910
   71SOL    HW2  213   0.549   1.140   2.404 -0.2537  1.1440 -1.3493
   72SOL     OW  214   0.352   1.980   0.612  0.4062  0.4206  0.8150
   72SOL    HW1  215   0.331   1.954   0.510 -0.8770  0.0648 -2.8729
   72SOL    HW2  216   0.273   2.026   0.655  2.3241 -2.9353 -1.3127
   73SOL     OW  217   1.003   1.483   0.384  0.1932 -0.0137 -0.6007
   73SOL    HW1  218   0.904   1.508   0.364  2.0203  0.5969  1.5107
   73SOL    HW2  219   1.047   1.547   0.450  0.5431  1.6384  0.5469
   74SOL     OW  220   2.651   3.020   0.223  0.0072 -0.3823  0.0955
   74SOL    HW1  221   2.598   2.934   0.206 -1.3407  0.7979 -0.5420
   74SOL    HW2  222   2.600   3.093   0.172 -0.3516 -1.2343 -0.9140
   75SOL     OW  223   2.392   1.723   2.157 -0.0051  0.1269 -0.0227
   75SOL    HW1  224   2.313   1.676   2.206 -2.1745 -1.6748  1.2018
   75SOL    HW2  225   2.385   1.725   2.056  0.4639  0.4937 -1.9346
   76SOL     OW  226   1.777   2.575   1.685 -0.0900  0.1231 -0.4543
   76SOL    HW1  227   1.783   2.674   1.707 -0.6791  0.1212  0.8970
   76SOL    HW2  228   1.820   2.561   1.596 -1.1051  0.0077 -0.5465
   77SOL     OW  229   2.505   0.468   1.348  0.3373 -0.2362  0.2923
   77SOL    HW1  230   2.448   0.407   1.411  0.4847 -0.2503  0.5876
   77SOL    HW2  231   2.544   0.542   1.410  1.2014 -2.5416  2.6001
   78SOL     OW  232   2.016   1.090   2.727 -0.0538  0.3200  0.6274
   78SOL    HW1  233   2.067   1.142   2.653  3.1508 -1.7299 -1.4189
   78SOL    HW2  234   2.072   1.082   2.809 -1.1500 -0.7234  0.9559
   79SOL     OW  235   0.109   1.471   1.909  0.1126 -0.1607  0.0280
   79SOL    HW1  236   0.186   1.412   1.883  0.6389  1.2619  1.3988
   79SOL    HW2  237   0.059   1.507   1.830 -0.6184 -1.1606  2.6920
   80SOL     OW  238   1.942   1.156   1.173  0.3170 -0.0861 -0.0355
   80SOL    HW1  239   2.015   1.098   1.142 -3.5627  0.5472  0.3752
   80SOL    HW2  240   1.882   1.183   1.095  3.2586  0.1552  2.9754
   81SOL     OW  241   1.302   0.375   1.359 -1.1153 -0.7103  0.3548
   81SOL    HW1  242   1.332   0.287   1.314  1.6256  1.8265 -0.6522
   81SOL    HW2  243   1.215   0.411   1.317 -0.7157 -0.6160 -0.1582
   82SOL     OW  244   1.372   2.422   1.843 -0.2780 -0.1698  0.1434
   82SOL    HW1  245   1.426   2.483   1.780 -0.2046 -0.5295 -2.3852
   82SOL    HW2  246   1.423   2.342   1.876 -0.6490  0.1633  1.3820
   83SOL     OW  247   0.505   0.043   0.725 -0.3036 -0.5132  0.4073
   83SOL    HW1  248   0.474   3.066   0.776  0.2431  1.5035 -4.3683
   83SOL    HW2  249   0.429   0.110   0.708  0.0739 -0.7342  0.4162
   84SOL     OW  250   0.221   0.930   2.788  0.5910 -0.0605  0.5449
   84SOL    HW1  251   0.294   0.923   2.718  0.0668  1.3237  0.4700
   84SOL    HW2  252   0.211   1.026   2.818  1.4965  2.1834  0.9300
   85SOL     OW  253   2.662   2.336   1.737 -0.2769 -0.4757  1.0987
   85SOL    HW1  254   2.715   2.348   1.648 -0.6712 -0.1408 -0.0478
   85SOL    HW2  255   2.595   2.414   1.748  0.8143  0.4994  0.6598
   86SOL     OW  256   2.861   2.346   1.553  0.3723 -0.0192  0.3785
   86SOL    HW1  257   2.940   2.402   1.527  0.3487  1.5731 -0.1314
   86SOL    HW2  258   2.874   2.254   1.511  0.0292 -2.9356 -0.6882
   87SOL     OW  259   0.537   2.792   0.261 -0.1824 -0.0686 -0.8441
   87SOL    HW1  260   0.559   2.695   0.260 -0.2877 -0.4380 -0.3112
   87SOL    HW2  261   0.621   2.847   0.290 -0.3747  1.4108 -0.0666
   88SOL     OW  262   0.212   1.934   1.116 -0.2843 -0.2132 -0.5758
   88SOL    HW1  263   0.184   2.031   1.096 -1.2643 -3.0333  1.4949
   88SOL    HW2  264   0.312   1.921   1.095  3.7049 -0.9694 -1.9336
   89SOL     OW  265   1.121   0.923   1.755  0.4979 -0.2455 -0.0089
   89SOL    HW1  266   1.151   0.954   1.843 -2.4147 -0.5699  0.6666
   89SOL    HW2  267   1.159   0.832   1.735  0.0574  1.7595  1.5189
   90SOL     OW  268   2.637   1.539   1.968  0.0386  0.1238 -0.5365
   90SOL    HW1  269   2.580   1.464   2.007  0.9473 -2.6582 -0.3768
   90SOL    HW2  270   2.576   1.619   1.946  2.0548  2.4260 -2.4697
   91SOL     OW  271   1.374   1.820   0.863 -0.3286 -0.0140  0.2934
   91SOL    HW1  272   1.304   1.863   0.807  2.2651 -1.3260 -2.1795
   91SOL    HW2  273   1.341   1.753   0.929 -0.3069  1.3821  1.2338
   92SOL     OW  274   2.127   0.705   0.939  0.2898 -0.7518  0.0490
   92SOL    HW1  275   2.174   0.684   1.026 -1.2897 -2.9389  1.4219
   92SOL    HW2  276   2.188   0.712   0.859 -0.4091 -0.4875 -2.2771
   93SOL     OW  277   2.179   1.342   0.208  0.1458  0.2600  0.3297
   93SOL    HW1  278   2.250   1.272   0.245  4.2755 -2.0814 -0.0417
   93SOL    HW2  279   2.130   1.297   0.132  0.0578  2.0648 -1.1313
   94SOL     OW  280   2.233   2.257   2.390  0.4028 -0.1236 -0.0598
   94SOL    HW1  281   2.241   2.258   2.490 -0.8738 -1.5203  0.0447
   94SOL    HW2  282   2.320   2.250   2.340 -0.2999 -1.6338  0.4125
   95SOL     OW  283   1.830   0.534   1.014  0.6242 -0.4565 -0.2742
   95SOL    HW1  284   1.870   0.570   1.101 -0.6167  0.8656 -0.9578
   95SOL    HW2  285   1.871   0.446   0.982 -0.6874  2.9020 -0.2244
   96SOL     OW  286   2.782   3.019   1.514  0.1309 -0.2854 -0.3521
   96SOL    HW1  287   2.724   2.934   1.523 -0.8258 -0.4768 -0.9988
   96SOL    HW2  288   2.733   3.085   1.451  0.0867  0.6866 -2.0043
   97SOL     OW  289   2.175   0.167   1.150  0.1646  0.3874 -0.3409
   97SOL    HW1  290   2.204   0.250   1.100  2.2505 -1.3251  1.6444
   97SOL    HW2  291   2.249   0.133   1.214  0.2035 -1.2991  1.5991
   98SOL     OW  292   1.619   2.271   1.542  0.1612 -0.5747  0.0106
   98SOL    HW1  293   1.671   2.334   1.487 -0.8434  0.4811  2.6968
   98SOL    HW2  294   1.638   2.296   1.639 -0.4599  0.5163  1.3544
   99SOL     OW  295   2.506   2.856   1.762 -0.4664  0.2745 -0.3300
   99SOL    HW1  296   2.494   2.925   1.841  0.5942 -0.2800  0.0459
   99SOL    HW2  297   2.599   2.816   1.770  0.3487 -0.9096 -0.1605
  100SOL     OW  298   0.419   0.883   2.607 -0.2190  0.1657 -0.3848
  100SOL    HW1  299   0.487   0.940   2.662  0.2493  2.4194  1.9116
  100SOL    HW2  300   0.431   0.783   2.622 -0.2310  2.6380  2.5493
  101SOL     OW  301   1.913   0.741   2.992 -0.0893 -0.0039  0.1176
  101SOL    HW1  302   1.908   0.693   2.903  0.0960  0.1486 -1.0240
  101SOL    HW2  303   1.962   0.686   3.064  0.2652  0.8046 -0.1196
  102SOL     OW  304   0.385   0.461   1.711 -0.1959  0.0693 -0.0829
  102SOL    HW1  305   0.302   0.452   1.772 -2.3239 -0.9921  1.4997
  102SOL    HW2  306   0.446   0.376   1.703  0.7287  0.9796 -0.7362
  103SOL     OW  307   2.802   1.080   2.212  0.4901  0.2727  0.2714
  103SOL    HW1  308   2.801   1.135   2.295 -1.2912  0.1826  1.2098
  103SOL    HW2  309   2.749   1.122   2.134  1.0370 -1.6257  1.8723
  104SOL     OW  310   0.324   0.270   2.677 -0.2284 -0.3240 -0.5208
  104SOL    HW1  311   0.425   0.282   2.668  0.8762 -1.5886  1.2460
  104SOL    HW2  312   0.271   0.355   2.660 -0.7238  0.9891  2.0909
  105SOL     OW  313   2.080   1.627   1.440 -0.0509  0.4457  0.0733
  105SOL    HW1  314   1.992   1.594   1.395 -1.3293  3.3524 -2.9467
  105SOL    HW2  315   2.137   1.552   1.463 -2.0646  0.3843  0.9512
  106SOL     OW  316   1.933   0.232   0.483 -0.2569 -0.9390 -0.1600
  106SOL    HW1  317   1.955   0.135   0.500  1.3412  2.6132  0.2799
  106SOL    HW2  318   2.012   0.291   0.521  4.0127 -0.4390 -0.0008
  107SOL     OW  319   0.117   1.598   1.468  0.4898  0.1399  0.2030
  107SOL    HW1  320   0.172   1.628   1.387  1.4763  0.9600  0.1537
  107SOL    HW2  321   0.019   1.622   1.446  0.9770  0.8521  0.2931
  108SOL     OW  322   3.079   2.715   2.054 -0.8556  0.2221 -0.2713
  108SOL    HW1  323   0.084   2.730   2.051  0.1839 -0.3612 -2.0615
  108SOL    HW2  324   3.058   2.615   2.050  0.6904  2.4768  1.7015
  109SOL     OW  325   1.694   0.203   0.592  0.6812 -0.1776  0.1517
  109SOL    HW1  326   1.783   0.216   0.544 -1.9512 -3.8077  0.8577
  109SOL    HW2  327   1.683   0.116   0.641 -2.2372  0.0224 -0.6054
  110SOL     OW  328   0.329   2.086   2.292 -0.0713  0.0867 -0.5833
  110SOL    HW1  329   0.285   2.131   2.371  1.6358  0.6420  1.2683
  110SOL    HW2  330   0.303   1.985   2.294 -1.9036  0.9295 -0.3929
  111SOL     OW  331   1.652   2.478   2.176 -0.1630 -0.1867  0.3875
  111SOL    HW1  332   1.705   2.388   2.179 -0.7217  0.6789  0.2534
  111SOL    HW2  333   1.566   2.458   2.234  1.4539 -3.1368  1.2334
  112SOL     OW  334   1.568   2.797   2.993  0.0319  0.2056 -0.4472
  112SOL    HW1  335   1.605   2.783   3.086  0.1953  1.4176 -0.0663
  112SOL    HW2  336   1.607   2.717   2.941  2.3735  0.0154 -0.0882
  113SOL     OW  337   2.044   2.483   1.502  0.0488 -0.0713 -0.3446
  113SOL    HW1  338   2.099   2.514   1.421 -1.9879 -2.1597  3.1661
  113SOL    HW2  339   2.031   2.384   1.502  0.9851 -1.6398  0.7162
  114SOL     OW  340   3.045   0.929   0.810  0.4246 -0.2346  0.3779
  114SOL    HW1  341   3.072   1.028   0.816  2.0534  2.5607 -0.8378
  114SOL    HW2  342   3.097   0.863   0.865 -0.9678 -1.2308 -2.8332
  115SOL     OW  343   0.631   0.977   2.767  0.2798 -0.1740 -0.4910
  115SOL    HW1  344   0.588   1.045   2.829 -0.9631 -0.0142  3.6606
  115SOL    HW2  345   0.667   0.899   2.826 -0.4825 -1.5169  1.1398
  116SOL     OW  346   2.803   1.461   2.264 -0.4572 -0.0426  0.2813
  116SOL    HW1  347   2.797   1.422   2.166  1.2377  0.6280 -2.9783
  116SOL    HW2  348   2.885   1.522   2.264  0.0425  0.2911 -1.8265
  117SOL     OW  349   2.670   3.084   0.724  0.2463 -0.1336  0.3905
  117SOL    HW1  350   2.766   3.090   0.689 -1.7513  2.8353 -1.2161
  117SOL    HW2  351   2.613   3.049   0.648 -0.8556  1.6516  0.1300
  118SOL     OW  352   1.156   2.006   1.472 -0.5681 -0.2593  0.1626
  118SOL    HW1  353   1.209   1.914   1.472 -0.6258 -1.7582 -0.1526
  118SOL    HW2  354   1.214   2.078   1.521  0.8117 -0.0588 -0.7899
  119SOL     OW  355   0.484   2.314   2.779  0.1768  0.1782  0.2135
  119SOL    HW1  356   0.536   2.346   2.862  0.2391  1.1755  1.3797
  119SOL    HW2  357   0.392   2.285   2.806  1.0444  0.0958 -0.9935
  120SOL     OW  358   0.684   0.788   2.947  0.5375 -0.2340  0.1971
  120SOL    HW1  359   0.663   0.698   2.902 -1.3837 -2.8544 -2.4392
  120SOL    HW2  360   0.781   0.792   2.976  0.2279  0.8579  0.8991
  121SOL     OW  361   1.679   2.691   1.007  0.2482  0.2635  0.0483
  121SOL    HW1  362   1.770   2.675   1.053 -0.9911  0.0555  0.4824
  121SOL    HW2  363   1.609   2.616   1.027 -1.9187 -1.3905 -3.2140
  122SOL     OW  364   2.269   2.405   1.684 -0.2098  0.4617 -0.3524
  122SOL    HW1  365   2.216   2.435   1.607  0.1833 -1.8023 -0.1147
  122SOL    HW2  366   2.210   2.333   1.727 -0.4248 -0.4280 -0.1291
  123SOL     OW  367   0.305   2.793   0.754 -0.0511 -0.0779  0.2669
  123SOL    HW1  368   0.256   2.842   0.681 -1.4713 -0.7569 -0.0293
  123SOL    HW2  369   0.285   2.695   0.741 -1.3623  0.6463 -0.0293
  124SOL     OW  370   2.311   1.368   2.857  0.3476  0.4727 -0.0382
  124SOL    HW1  371   2.378   1.295   2.840  0.6913  2.0824 -0.8141
  124SOL    HW2  372   2.342   1.425   2.936  0.2667 -0.4107  0.0108
  125SOL     OW  373   0.603   1.053   0.414 -0.5596  0.6719 -0.0415
  125SOL    HW1  374   0.667   1.041   0.499  0.1103  1.6939  3.2592
  125SOL    HW2  375   0.604   1.148   0.376 -1.1795 -0.1000  0.5426
  126SOL     OW  376   2.656   1.711   0.791  0.3172  0.2285  0.4736
  126SOL    HW1  377   2.681   1.799   0.748 -1.0859 -2.1707  1.7720
  126SOL    HW2  378   2.709   1.635   0.746  1.1510 -0.5069  1.2490
  127SOL     OW  379   0.071   2.098   1.806 -0.1910  0.1769 -0.8518
  127SOL    HW1  380   0.118   2.062   1.724 -2.1182  1.1144  1.2828
  127SOL    HW2  381   0.120   2.065   1.889  0.3644  1.4465  0.8582
  128SOL     OW  382   1.147   0.913   0.061  0.7712 -0.4993 -0.5694
  128SOL    HW1  383   1.192   0.825   0.058 -1.4347 -1.0319  0.5049
  128SOL    HW2  384   1.135   0.938   0.160 -1.1352  0.0419 -0.2215
  129SOL     OW  385   2.567   0.947   0.796 -0.1226 -0.2166  0.5494
  129SOL    HW1  386   2.540   1.020   0.854 -0.8859 -4.9310 -2.9593
  129SOL    HW2  387   2.583   0.985   0.700 -1.7055  1.5819  1.2534
  130SOL     OW  388   2.302   0.933   1.384 -0.0323 -0.1444  0.0465
  130SOL    HW1  389   2.384   0.946   1.446  0.2043  1.3096  1.4186
  130SOL    HW2  390   2.304   0.979   1.292 -1.7776 -2.5558  0.9280
  131SOL     OW  391   3.071   2.758   3.070 -0.1377  0.3773  0.6023
  131SOL    HW1  392   2.999   2.694   3.037  1.3177 -0.4112  0.0882
  131SOL    HW2  393   0.037   2.712   0.035 -2.2367 -0.4972 -1.1886
  132SOL     OW  394   2.900   2.091   1.739  0.5499  0.2963 -0.4626
  132SOL    HW1  395   2.900   2.189   1.729 -0.2130  0.2336  2.0327
  132SOL    HW2  396   2.991   2.057   1.765 -0.0809  0.1827 -0.5725
  133SOL     OW  397   1.165   0.460   1.134 -0.2836  0.1167 -0.3212
  133SOL    HW1  398   1.212   0.396   1.073 -0.7595  2.2898  0.5678
  133SOL    HW2  399   1.063   0.459   1.126  1.8417  0.4765  1.7177
  134SOL     OW  400   0.048   1.358   0.278  0.1287  0.3579  0.0016
  134SOL    HW1  401   3.047   1.374   0.261 -2.4481  1.3830  1.6190
  134SOL    HW2  402   0.096   1.346   0.188  0.8858  1.3271 -1.1345
  135SOL     OW  403   2.322   1.111   1.791 -0.3583 -0.0365 -0.5198
  135SOL    HW1  404   2.403   1.141   1.737  1.2586  3.5538  1.3360
  135SOL    HW2  405   2.287   1.191   1.838  4.0476 -1.9804 -0.0213
  136SOL     OW  406   0.086   0.893   0.549  0.3286 -0.0807  0.4335
  136SOL    HW1  407   0.011   0.930   0.605  2.1926  1.2795 -1.9966
  136SOL    HW2  408   0.066   0.913   0.449  0.4883 -2.5842 -3.2296
  137SOL     OW  409   2.649   1.141   1.418  0.6930  0.1972 -0.3344
  137SOL    HW1  410   2.616   1.175   1.325 -1.6205  2.6252  0.7886
  137SOL    HW2  411   2.749   1.136   1.415 -0.4883  1.9040  0.6425
  138SOL     OW  412   1.854   0.984   1.391  0.1470  0.3293  0.2300
  138SOL    HW1  413   1.884   0.894   1.347  0.7123 -0.6317  0.1367
  138SOL    HW2  414   1.892   1.057   1.326  2.5388  0.1581 -2.9778
  139SOL     OW  415   2.077   3.044   0.016 -0.0531  0.3298 -0.3228
  139SOL    HW1  416   2.027   3.037   0.105  0.8496  0.5342 -0.7137
  139SOL    HW2  417   2.032   0.018   3.062 -1.1984  1.9208 -0.9875
  140SOL     OW  418   1.361   2.014   1.842  0.2274  0.5535  0.4416
  140SOL    HW1  419   1.398   2.092   1.903  0.6573  0.1587  1.3412
  140SOL    HW2  420   1.427   1.932   1.834 -0.4489 -2.0226 -2.2392
  141SOL     OW  421   1.817   2.116   0.744  0.0900 -0.4764 -0.5087
  141SOL    HW1  422   1.920   2.106   0.737  0.6684 -0.7022 -1.4107
  141SOL    HW2  423   1.770   2.073   0.662  0.5714 -0.8128 -2.6714
  142SOL     OW  424   0.432   0.962   0.053  0.1017  0.1590  0.1144
  142SOL    HW1  425   0.362   0.910   3.098  1.8752  1.2878 -1.0104
  142SOL    HW2  426   0.532   0.953   0.026  1.6432 -1.5994  1.5818
  143SOL     OW  427   0.241   2.201   2.805 -0.5582  0.4022 -0.2011
  143SOL    HW1  428   0.237   2.242   2.897 -0.9909  1.5259  0.3696
  143SOL    HW2  429   0.143   2.181   2.782 -0.1782 -0.4051 -0.9905
  144SOL     OW  430   1.408   0.002   1.451  0.3405 -0.2285 -0.5930
  144SOL    HW1  431   1.328   0.013   1.511  1.8493 -1.6422  0.6791
  144SOL    HW2  432   1.387   0.036   1.357 -0.9205 -1.9647  1.2254
  145SOL     OW  433   2.470   1.275   0.580 -0.1726  0.4937  0.3064
  145SOL    HW1  434   2.546   1.341   0.560 -1.5040 -2.1733 -1.6484
  145SOL    HW2  435   2.470   1.243   0.677  1.1688 -1.2378 -0.2543
  146SOL     OW  436   2.368   2.201   3.078  0.3669  0.0112  0.0121
  146SOL    HW1  437   2.399   2.158   2.995 -0.5118  0.3985  1.5958
  146SOL    HW2  438   2.412   2.288   3.094 -1.7436 -0.7257 -1.6122
  147SOL     OW  439   2.248   2.964   1.246 -0.8413  0.5561 -0.4059
  147SOL    HW1  440   2.267   2.863   1.250  0.1864  0.2131 -0.0356
  147SOL    HW2  441   2.150   2.991   1.273 -2.6415  0.4058  0.4281
  148SOL     OW  442   1.470   2.898   2.075 -0.0638 -0.5153  0.5463
  148SOL    HW1  443   1.536   2.825   2.106  1.2151 -1.8272  2.0927
  148SOL    HW2  444   1.377   2.882   2.110 -0.8617  2.2878 -0.1681
  149SOL     OW  445   1.311   0.332   2.397  0.4972  0.0808 -0.2563
  149SOL    HW1  446   1.337   0.230   2.392  1.1368 -1.7513  1.1532
  149SOL    HW2  447   1.344   0.371   2.485 -0.0700 -1.2077  0.2757
  150SOL     OW  448   0.543   2.628   0.531  0.1608  0.3705 -0.4157
  150SOL    HW1  449   0.526   2.723   0.570 -1.9070 -0.5987  0.4225
  150SOL    HW2  450   0.568   2.626   0.431 -0.3888  0.6730  2.3688
  151SOL     OW  451   0.201   1.579   0.026 -0.4044 -0.3082  0.4753
  151SOL    HW1  452   0.112   1.623   0.059 -1.8764 -0.8112 -1.0668
  151SOL    HW2  453   0.203   1.579   3.024  0.4232 -0.2946  0.5532
  152SOL     OW  454   2.889   3.071   0.562 -0.2731  0.5178  0.1920
  152SOL    HW1  455   2.898   2.983   0.505  0.1497 -2.3346  0.1943
  152SOL    HW2  456   2.961   0.044   0.539 -1.0529  0.4405  0.9481
  153SOL     OW  457   2.328   0.067   0.851 -0.2462 -0.0827 -0.1263
  153SOL    HW1  458   2.243   0.026   0.892 -0.0049 -0.9901  1.9106
  153SOL    HW2  459   2.382   3.098   0.799 -0.3770 -0.0101 -1.2474
  154SOL     OW  460   1.131   0.360   1.685  0.0160  1.0128  0.1075
  154SOL    HW1  461   1.128   0.375   1.788 -0.4445  0.8053 -0.3563
  154SOL    HW2  462   1.214   0.406   1.642  0.4470  0.6005  0.4321
  155SOL     OW  463   2.504   1.266   1.129  0.1446 -0.2972 -0.5434
  155SOL    HW1  464   2.601   1.278   1.109 -3.6686  0.8217  1.4137
  155SOL    HW2  465   2.464   1.332   1.196 -0.4582 -0.5282 -0.7811
  156SOL     OW  466   2.670   2.111   0.198  0.3160  0.6697  0.3596
  156SOL    HW1  467   2.726   2.147   0.119  0.1900  0.2855 -2.1101
  156SOL    HW2  468   2.579   2.073   0.164  3.0763 -1.0413 -1.6111
  157SOL     OW  469   1.027   3.014   0.244 -0.1881  0.8718  0.0439
  157SOL    HW1  470   1.125   2.985   0.222  2.7948  1.3046  1.1124
  157SOL    HW2  471   1.006   3.084   0.173  0.2354 -0.4855 -0.5764
  158SOL     OW  472   2.393   0.224   2.720  0.4828 -0.3570  0.1274
  158SOL    HW1  473   2.490   0.224   2.687  0.3504 -0.1760 -2.0213
  158SOL    HW2  474   2.336   0.146   2.691 -0.7074  0.3380  3.2986
  159SOL     OW  475   0.444   0.107   0.129  0.4707  0.1057 -0.1042
  159SOL    HW1  476   0.484   0.188   0.179  3.1657  1.2636  1.6806
  159SOL    HW2  477   0.516   0.059   0.077  0.8083  1.5539 -0.1667
  160SOL     OW  478   1.059   1.932   2.998 -0.0032  0.1289  0.0580
  160SOL    HW1  479   0.987   1.995   2.964 -1.1942 -0.0838 -1.0240
  160SOL    HW2  480   1.020   1.844   3.015  1.4523  2.1061 -1.5609
  161SOL     OW  481   3.002   1.857   2.436 -0.4366 -0.4761  0.3383
  161SOL    HW1  482   2.906   1.881   2.456  0.9345  1.9102 -1.6729
  161SOL    HW2  483   3.055   1.837   2.521  1.9693 -0.3749  3.2356
  162SOL     OW  484   0.144   2.329   1.288  0.5091 -0.1097 -0.2169
  162SOL    HW1  485   0.187   2.337   1.383  1.4420 -1.3824  1.3717
  162SOL    HW2  486   0.113   2.423   1.259 -0.0794  3.8782 -2.0392
  163SOL     OW  487   2.175   0.372   2.768  0.0888 -0.4328  0.3980
  163SOL    HW1  488   2.120   0.321   2.836  0.1999  2.0021  2.0322
  163SOL    HW2  489   2.239   0.319   2.709 -3.4273 -1.2419  0.1383
  164SOL     OW  490   2.789   1.560   0.622 -0.2567 -0.1540  0.5337
  164SOL    HW1  491   2.774   1.520   0.526  0.1990 -0.0656 -2.4763
  164SOL    HW2  492   2.870   1.514   0.667  0.4639 -0.1035 -0.1523
  165SOL     OW  493   0.161   3.051   2.083 -0.6149 -0.6368 -0.1338
  165SOL    HW1  494   0.192   2.956   2.063 -0.7291 -0.7677 -0.9004
  165SOL    HW2  495   0.181   0.016   2.009  2.2452  1.7649  2.0171
  166SOL     OW  496   2.241   0.816   0.576 -0.1503  0.1865  0.2819
  166SOL    HW1  497   2.301   0.833   0.498  1.0864  3.7536 -2.5487
  166SOL    HW2  498   2.164   0.755   0.552  3.9155  0.8524 -0.0490
  167SOL     OW  499   0.521   0.659   0.469  0.8522  0.1005  0.1404
  167SOL    HW1  500   0.455   0.734   0.433 -1.8871  0.8421 -0.5610
  167SOL    HW2  501   0.531   0.673   0.571 -0.1126 -1.0317  0.4783
  168SOL     OW  502   1.994   2.765   2.157 -0.6102 -0.4480  0.4079
  168SOL    HW1  503   1.970   2.694   2.227 -2.6389 -1.0575  0.0163
  168SOL    HW2  504   2.003   2.854   2.208 -1.2982 -1.8253 -0.4242
  169SOL     OW  505   1.119   1.035   0.756  0.2411 -0.4156 -0.6678
  169SOL    HW1  506   1.066   0.985   0.684 -1.8229 -3.4990  0.2800
  169SOL    HW2  507   1.066   1.049   0.845 -0.4506 -0.5276 -0.4791
  170SOL     OW  508   0.109   0.376   1.276  0.4717  0.1432  0.1201
  170SOL    HW1  509   0.167   0.429   1.341  0.3189  1.0354 -1.0015
  170SOL    HW2  510   0.007   0.403   1.280 -0.6236 -0.2385  1.5793
  171SOL     OW  511   0.902   2.759   1.763  0.2270  0.5814  0.6192
  171SOL    HW1  512   0.933   2.670   1.721  0.1372  0.6948 -0.7885
  171SOL    HW2  513   0.962   2.838   1.741  1.0410 -1.1160 -0.5724
  172SOL     OW  514   0.313   2.349   1.506 -0.1009  0.5954  0.4536
  172SOL    HW1  515   0.300   2.252   1.533  0.5892  0.4223 -1.0952
  172SOL    HW2  516   0.409   2.369   1.472 -0.5076 -0.4678 -1.7536
  173SOL     OW  517   1.313   0.839   2.678 -0.1504  0.2367 -0.3009
  173SOL    HW1  518   1.277   0.835   2.581 -0.0977 -3.1452  1.2361
  173SOL    HW2  519   1.379   0.762   2.691  2.9403  0.1672  0.1734
  174SOL     OW  520   1.807   3.017   2.921 -0.0611  0.1631  0.1024
  174SOL    HW1  521   1.760   2.929   2.911  0.9551  1.1007 -1.3249
  174SOL    HW2  522   1.828   3.058   2.829 -2.5335  0.3821 -2.7272
  175SOL     OW  523   1.858   2.749   0.248  0.4424 -0.1528  0.1390
  175SOL    HW1  524   1.759   2.767   0.215 -0.2338 -1.2601  1.5823
  175SOL    HW2  525   1.890   2.664   0.203  0.7331 -0.8589 -0.8153
  176SOL     OW  526   1.577   0.201   2.723  0.1929 -0.6985 -0.1638
  176SOL    HW1  527   1.659   0.248   2.757  3.1581  1.5894  1.1116
  176SOL    HW2  528   1.575   0.197   2.619 -0.7729 -1.5721 -3.4917
  177SOL     OW  529   1.128   1.645   0.592  0.8922  0.3358 -0.2474
  177SOL    HW1  530   1.178   1.586   0.660 -1.8534 -2.7411  1.9685
  177SOL    HW2  531   1.034   1.664   0.625  0.1953  0.8709 -2.9775
  178SOL     OW  532   2.862   2.209   2.423  0.1724 -0.0051  0.0688
  178SOL    HW1  533   2.852   2.300   2.471  3.2093  0.6931  0.1717
  178SOL    HW2  534   2.945   2.212   2.364  0.0447 -0.5192 -3.7209
  179SOL     OW  535   0.327   2.480   2.581  0.2083 -0.0989  0.3534
  179SOL    HW1  536   0.369   2.523   2.500  0.0830 -1.0448 -1.4793
  179SOL    HW2  537   0.375   2.514   2.665  0.8192  0.5939  0.3886
  180SOL     OW  538   1.615   1.919   0.824 -0.0295 -0.0977 -0.0206
  180SOL    HW1  539   1.660   1.995   0.871  1.0345 -2.2952 -1.1544
  180SOL    HW2  540   1.523   1.890   0.865  2.0442 -3.1436 -0.3479
  181SOL     OW  541   2.031   1.164   2.354  0.0931  0.3727  0.7184
  181SOL    HW1  542   2.094   1.190   2.430  2.7402 -0.6604 -2.0511
  181SOL    HW2  543   2.036   1.068   2.319  0.5639 -0.3250  1.8422
  182SOL     OW  544   2.866   2.742   2.455 -0.1571  0.2648 -0.4516
  182SOL    HW1  545   2.818   2.750   2.367 -1.1437 -0.9814 -0.9939
  182SOL    HW2  546   2.912   2.834   2.469  1.1014  1.8289  0.6335
  183SOL     OW  547   1.371   0.565   2.273 -0.0877  0.2142 -0.1782
  183SOL    HW1  548   1.359   0.473   2.315  0.9500  2.5710 -0.9315
  183SOL    HW2  549   1.416   0.556   2.179  0.0358  2.4579 -0.2625
  184SOL     OW  550   0.824   0.669   1.799 -0.4598 -0.2739 -0.4367
  184SOL    HW1  551   0.750   0.647   1.862 -0.4132 -0.3915 -0.5704
  184SOL    HW2  552   0.909   0.676   1.855 -1.2455  1.0146 -0.7404
  185SOL     OW  553   1.929   1.222   0.604  0.2558  0.1896  0.3737
  185SOL    HW1  554   1.867   1.221   0.524  1.6354  1.7766 -0.3858
  185SOL    HW2  555   2.023   1.181   0.588 -1.7355 -0.4626 -3.2730
  186SOL     OW  556   0.012   2.122   2.668  0.8312  0.0862 -0.0803
  186SOL    HW1  557   0.033   2.023   2.667  1.7724 -1.3540  0.4804
  186SOL    HW2  558   3.010   2.145   2.676  1.5395 -0.2298  0.8131
  187SOL     OW  559   2.503   1.393   0.297 -0.6588  0.3632 -0.5233
  187SOL    HW1  560   2.485   1.484   0.260  2.7664  2.1389 -2.4674
  187SOL    HW2  561   2.432   1.322   0.280  3.3399 -2.4370 -0.7050
  188SOL     OW  562   0.231   1.612   0.813 -0.1201 -0.2859  0.6504
  188SOL    HW1  563   0.319   1.639   0.866  1.4262  2.5337  5.1429
  188SOL    HW2  564   0.183   1.693   0.776 -1.4007 -2.2649  1.5880
  189SOL     OW  565   2.482   0.642   0.231 -0.2621 -0.0012  0.0252
  189SOL    HW1  566   2.423   0.644   0.147 -1.2201  0.5963 -2.1503
  189SOL    HW2  567   2.510   0.548   0.259  0.5267 -1.8857 -1.8652
  190SOL     OW  568   1.188   1.667   2.098  0.4347 -0.0031  0.3295
  190SOL    HW1  569   1.188   1.757   2.147  0.2056  0.4593 -1.6158
  190SOL    HW2  570   1.143   1.591   2.155 -3.5482 -4.0074  1.3126
  191SOL     OW  571   2.763   0.248   1.663 -0.7582  0.7185  0.0581
  191SOL    HW1  572   2.709   0.175   1.710 -0.2739  1.3019 -1.4894
  191SOL    HW2  573   2.844   0.265   1.728  1.4337 -0.5247  1.5466
  192SOL     OW  574   1.850   1.364   1.574 -1.2810 -0.3460  0.4320
  192SOL    HW1  575   1.928   1.378   1.505  0.6822 -0.5438  1.2517
  192SOL    HW2  576   1.829   1.267   1.596  2.1038 -2.8064  1.0526
  193SOL     OW  577   1.213   0.777   0.558 -0.3483  0.2959 -0.3514
  193SOL    HW1  578   1.116   0.792   0.524  1.1303 -3.3060  0.7101
  193SOL    HW2  579   1.217   0.764   0.658 -1.1079 -0.3027  0.6830
  194SOL     OW  580   1.221   2.800   1.136  0.2409 -0.4492  0.6284
  194SOL    HW1  581   1.157   2.878   1.120 -1.5914  0.1976  0.1480
  194SOL    HW2  582   1.191   2.716   1.082 -2.3690  0.3413  0.6079
  195SOL     OW  583   2.273   0.296   0.280 -0.0924 -0.3712  0.1229
  195SOL    HW1  584   2.333   0.242   0.346  1.4162 -0.1780 -0.1018
  195SOL    HW2  585   2.332   0.367   0.235 -2.2203 -1.2835 -3.5155
  196SOL     OW  586   0.556   2.426   1.420 -0.3162 -0.1736 -0.1374
  196SOL    HW1  587   0.607   2.339   1.432  1.0023 -1.0787  0.3632
  196SOL    HW2  588   0.620   2.505   1.411  0.2643  0.8340 -0.7208
  197SOL     OW  589   0.565   2.365   0.622 -0.0390  0.3998  0.3705
  197SOL    HW1  590   0.579   2.462   0.594 -1.5643 -1.6646  0.6733
  197SOL    HW2  591   0.467   2.329   0.618  1.1090  1.7870 -0.7185
  198SOL     OW  592   0.805   1.018   0.645  0.0222 -0.1818  0.1953
  198SOL    HW1  593   0.762   0.997   0.739  0.0802  1.8985  0.3230
  198SOL    HW2  594   0.832   1.118   0.631  0.8213  1.2560  3.0547
  199SOL     OW  595   3.003   3.060   1.312 -0.1525  0.4518  0.4871
  199SOL    HW1  596   2.942   3.068   1.394  0.5060  1.4646 -0.9252
  199SOL    HW2  597   3.052   2.971   1.310  1.5966  3.1204  0.9154
  200SOL     OW  598   2.334   1.595   2.686  0.0268  0.0463 -0.5525
  200SOL    HW1  599   2.379   1.579   2.597  2.1415  1.2424  1.1061
  200SOL    HW2  600   2.341   1.506   2.743 -0.9322 -0.9150 -1.7700
  201SOL     OW  601   2.795   2.212   1.219  0.3545  0.4282  0.2304
  201SOL    HW1  602   2.880   2.207   1.280 -0.9062  1.3065 -0.3572
  201SOL    HW2  603   2.719   2.156   1.257  0.6586  1.6209  1.9937
  202SOL     OW  604   2.763   0.271   0.411  0.5554 -0.7621  0.3114
  202SOL    HW1  605   2.718   0.267   0.321  4.6025  1.8529 -0.5959
  202SOL    HW2  606   2.853   0.225   0.404 -2.2653  0.0298 -1.5065
  203SOL     OW  607   1.054   2.219   2.084 -0.0567 -0.1513  0.6366
  203SOL    HW1  608   1.092   2.203   2.179 -0.9922  3.2665  0.5874
  203SOL    HW2  609   1.091   2.312   2.059 -1.5346 -0.5954 -2.6857
  204SOL     OW  610   1.089   1.637   1.605  0.1137  0.2565 -0.2726
  204SOL    HW1  611   0.998   1.638   1.558 -1.5495  0.0202 -0.1940
  204SOL    HW2  612   1.087   1.687   1.700 -0.3494  1.1931  2.9227
  205SOL     OW  613   0.924   2.068   1.650  0.4109  0.3059  0.2971
  205SOL    HW1  614   0.991   2.042   1.575 -1.3539 -0.7943 -0.3246
  205SOL    HW2  615   0.917   1.992   1.717 -1.2768  2.3493  0.5640
  206SOL     OW  616   0.225   0.504   2.675 -0.8653  0.0532  0.2776
  206SOL    HW1  617   0.313   0.558   2.694  0.2561  1.8140  1.5580
  206SOL    HW2  618   0.142   0.564   2.681  1.8546  1.4487  0.0739
  207SOL     OW  619   1.613   0.007   1.946  0.2771  0.0683 -0.2611
  207SOL    HW1  620   1.581   0.030   1.854  0.1859 -0.2887  1.2244
  207SOL    HW2  621   1.567   3.022   1.983  1.3367 -0.6254  0.5514
  208SOL     OW  622   0.641   2.368   1.861 -0.1986  0.4587 -0.0980
  208SOL    HW1  623   0.673   2.371   1.957  0.2100 -1.9841 -1.8738
  208SOL    HW2  624   0.668   2.452   1.804  1.6981  0.2291 -1.0517
  209SOL     OW  625   1.896   1.004   2.996  0.5154 -0.4655 -0.2416
  209SOL    HW1  626   1.907   0.905   2.986 -0.6708  0.4357  0.8410
  209SOL    HW2  627   1.801   1.031   3.001 -1.2985  0.7153  0.3357
  210SOL     OW  628   0.125   0.432   1.009  0.7087 -0.3289 -0.1662
  210SOL    HW1  629   0.047   0.386   0.964 -0.6605  1.4688 -0.5671
  210SOL    HW2  630   0.128   0.417   1.109  0.7661  0.2995 -0.5283
  211SOL     OW  631   0.892   0.826   1.441 -0.0263  0.2841  0.5184
  211SOL    HW1  632   0.810   0.771   1.443  1.1904 -0.3446  1.7035
  211SOL    HW2  633   0.982   0.776   1.452 -1.5588  2.2299 -0.0761
  212SOL     OW  634   1.160   2.317   1.033 -0.0901  0.3448  0.0710
  212SOL    HW1  635   1.098   2.313   1.117 -1.1012  0.3839  0.7640
  212SOL    HW2  636   1.098   2.328   0.957  0.3993  0.3694 -0.9639
  213SOL     OW  637   2.120   0.235   1.894 -0.0341  0.0126 -0.2575
  213SOL    HW1  638   2.019   0.215   1.903 -0.8222 -1.2123  0.2064
  213SOL    HW2  639   2.164   0.147   1.872  0.7880  3.6429 -2.4781
  214SOL     OW  640   1.324   2.398   2.609 -0.0267  0.4809  0.2033
  214SOL    HW1  641   1.318   2.315   2.671 -0.2062 -0.4751 -0.1968
  214SOL    HW2  642   1.425   2.425   2.619  1.3337  0.9871 -1.0263
  215SOL     OW  643   2.985   1.718   1.451  0.0139 -0.4270 -0.2364
  215SOL    HW1  644   2.921   1.783   1.505  0.1315  2.0254  1.7048
  215SOL    HW2  645   2.936   1.687   1.373 -0.9682  0.7159  1.9251
  216SOL     OW  646   0.391   0.265   2.118  0.0464  0.0653  0.1401
  216SOL    HW1  647   0.457   0.205   2.164 -1.1371 -2.0077 -0.5630
  216SOL    HW2  648   0.390   0.251   2.023 -1.8858  3.7839  3.0601
  217SOL     OW  649   2.778   0.395   0.097 -0.6528  0.1720  0.0075
  217SOL    HW1  650   2.756   0.468   0.029  0.5317 -0.2578 -0.6188
  217SOL    HW2  651   2.875   0.403   0.125  2.4857  4.5379  0.2895
  218SOL     OW  652   1.601   2.050   2.188  0.3169  0.0357 -0.1596
  218SOL    HW1  653   1.592   1.976   2.255  2.0416 -3.4184 -0.5526
  218SOL    HW2  654   1.648   2.018   2.101  1.5019 -0.3299 -0.4101
  219SOL     OW  655   1.850   0.931   0.263 -0.3660 -0.4335 -0.3660
  219SOL    HW1  656   1.819   1.001   0.195 -0.6164  0.0255 -2.0748
  219SOL    HW2  657   1.774   0.894   0.319 -0.5460 -1.0674 -0.1258
  220SOL     OW  658   1.404   2.244   1.138  0.1840  0.5206  0.6121
  220SOL    HW1  659   1.422   2.142   1.139  1.1144 -1.7021  0.7990
  220SOL    HW2  660   1.307   2.264   1.103 -1.3234 -0.1542 -2.3704
  221SOL     OW  661   0.241   0.810   3.032  0.0015 -0.2518  0.4825
  221SOL    HW1  662   0.153   0.834   3.075  0.7144  2.0380 -0.5636
  221SOL    HW2  663   0.227   0.817   2.932 -0.7176 -2.4976  0.6450
  222SOL     OW  664   1.179   2.750   1.400 -0.4982  0.0129 -0.1449
  222SOL    HW1  665   1.241   2.722   1.473  0.6481 -0.8656 -0.0565
  222SOL    HW2  666   1.220   2.743   1.302 -1.2475 -1.3478 -2.2634
  223SOL     OW  667   1.393   0.447   2.650 -0.1972 -0.5395  0.2450
  223SOL    HW1  668   1.461   0.378   2.680  1.5664 -1.0003 -0.2533
  223SOL    HW2  669   1.432   0.537   2.679 -1.1186  2.3913  0.3063
  224SOL     OW  670   2.868   1.009   1.236 -0.1120 -0.5799 -0.4728
  224SOL    HW1  671   2.810   0.928   1.255  0.3620  1.0820 -0.3165
  224SOL    HW2  672   2.967   0.993   1.245 -0.8092  2.4725 -1.5029
  225SOL     OW  673   0.998   1.201   1.473 -0.1047 -0.0223  0.3696
  225SOL    HW1  674   0.941   1.131   1.516 -0.0202  3.4550 -2.0885
  225SOL    HW2  675   0.940   1.281   1.449 -0.4187 -0.8456  0.4302
  226SOL     OW  676   1.296   2.965   0.149  0.2516  0.1328 -0.5844
  226SOL    HW1  677   1.331   2.983   0.057  0.8357 -0.5765 -1.3962
  226SOL    HW2  678   1.375   2.976   0.216  2.9948  2.0515  0.7605
  227SOL     OW  679   0.652   1.438   1.156 -0.4252  0.5111 -0.5895
  227SOL    HW1  680   0.677   1.408   1.060  0.5689 -1.2417 -1.9358
  227SOL    HW2  681   0.587   1.519   1.152  0.5273 -1.1794  3.4870
  228SOL     OW  682   0.276   2.759   1.499  0.0018  0.2369 -0.3676
  228SOL    HW1  683   0.362   2.807   1.473  0.1013  2.4397 -1.6496
  228SOL    HW2  684   0.289   2.685   1.567  0.7123 -0.1277 -2.2081
  229SOL     OW  685   2.386   1.113   0.271  0.8138  0.0919  0.8076
  229SOL    HW1  686   2.327   1.028   0.266 -1.9790 -2.1514 -1.9711
  229SOL    HW2  687   2.480   1.089   0.242 -0.6623  0.0974  0.2478
  230SOL     OW  688   0.798   1.175   1.949  0.0338  0.5910 -0.1205
  230SOL    HW1  689   0.756   1.090   1.905  0.2268  0.6850 -0.6009
  230SOL    HW2  690   0.850   1.160   2.036 -1.5155  0.1308  0.7085
  231SOL     OW  691   1.367   2.137   1.604 -0.2985  0.4295  0.1424
  231SOL    HW1  692   1.447   2.198   1.593 -1.0287  2.9973 -0.6054
  231SOL    HW2  693   1.350   2.121   1.702  0.8203  0.4123 -1.5654
  232SOL     OW  694   1.902   2.492   0.520  0.0724 -0.5322  0.7499
  232SOL    HW1  695   1.885   2.551   0.606  0.6345  3.0518  1.9418
  232SOL    HW2  696   2.004   2.480   0.505  1.2549 -0.4280 -1.8647
  233SOL     OW  697   0.862   2.469   3.034  0.1658  1.0768 -0.4236
  233SOL    HW1  698   0.920   2.523   0.003  2.2886  2.7977 -0.8984
  233SOL    HW2  699   0.894   2.485   2.939 -1.1062 -2.2310  1.1854
  234SOL     OW  700   0.997   0.201   2.583  0.0467  0.4754  0.0908
  234SOL    HW1  701   1.069   0.249   2.636  0.8370 -1.8486 -2.0513
  234SOL    HW2  702   0.961   0.120   2.633  1.6871  1.1835 -0.9740
  235SOL     OW  703   3.089   2.106   3.033 -0.6160 -0.0581 -0.0166
  235SOL    HW1  704   3.051   2.035   2.968 -0.8555 -0.3617  3.5603
  235SOL    HW2  705   0.060   2.060   3.096  1.7314 -0.0613 -0.5831
  236SOL     OW  706   2.091   2.640   2.617  0.0674  0.1699 -0.3127
  236SOL    HW1  707   2.122   2.546   2.636 -0.5625 -1.0681 -1.7529
  236SOL    HW2  708   2.174   2.696   2.596  0.8588 -1.1590 -2.4770
  237SOL     OW  709   2.074   1.319   1.400  0.1815  0.2453  0.3020
  237SOL    HW1  710   2.160   1.320   1.455 -1.5778 -1.4260  0.6336
  237SOL    HW2  711   2.080   1.265   1.317 -0.0756  2.5835 -0.0478
  238SOL     OW  712   2.183   0.033   2.336  0.2806  0.1117  0.5291
  238SOL    HW1  713   2.180   0.136   2.345 -1.2650  0.4930  1.4849
  238SOL    HW2  714   2.086   3.091   2.335 -4.1826 -2.6797  1.3260
  239SOL     OW  715   0.529   1.744   1.702  0.0593  0.1104  0.7661
  239SOL    HW1  716   0.468   1.663   1.684  2.7792  0.8073  2.7031
  239SOL    HW2  717   0.624   1.711   1.715  0.7123  0.2468 -1.7339
  240SOL     OW  718   0.115   2.117   0.708  0.1458 -0.3729 -0.1270
  240SOL    HW1  719   0.041   2.188   0.713  1.6391  0.2394 -2.6113
  240SOL    HW2  720   0.093   2.042   0.773 -0.7671 -1.0243 -2.4777
  241SOL     OW  721   1.341   2.330   0.352  0.0522  0.6377 -0.0724
  241SOL    HW1  722   1.390   2.348   0.438 -1.2773 -1.9274 -0.7413
  241SOL    HW2  723   1.385   2.255   0.301  0.2722 -1.1264 -0.3539
  242SOL     OW  724   1.737   1.204   0.403  0.2793 -0.0610 -0.3710
  242SOL    HW1  725   1.762   1.189   0.304  2.0240  3.2756 -1.3073
  242SOL    HW2  726   1.637   1.191   0.415  1.1246 -2.1349 -1.5561
  243SOL     OW  727   0.862   0.004   2.026  0.5356  0.1013 -0.6907
  243SOL    HW1  728   0.962   3.079   2.046  1.0497 -2.5284 -1.4949
  243SOL    HW2  729   0.826   0.082   2.080  1.7805 -1.5227  0.1420
  244SOL     OW  730   2.058   2.842   2.935  0.7639  0.3543  0.2907
  244SOL    HW1  731   1.971   2.867   2.886 -3.6730  1.5525 -0.9502
  244SOL    HW2  732   2.066   2.906   3.012 -1.1030 -2.7631 -0.6139
  245SOL     OW  733   1.405   3.013   2.992  0.2210  0.1432 -0.3975
  245SOL    HW1  734   1.430   0.011   2.961  0.7947 -0.7823 -1.1674
  245SOL    HW2  735   1.479   2.950   2.966 -2.6106  0.2543  0.6592
  246SOL     OW  736   0.978   0.753   2.414  0.0006  0.3924  0.8335
  246SOL    HW1  737   0.934   0.664   2.436 -0.3176  1.5757  2.6151
  246SOL    HW2  738   0.937   0.822   2.477  0.7197  1.0403  1.1712
  247SOL     OW  739   0.171   0.395   1.877 -0.0555 -0.2206  0.2722
  247SOL    HW1  740   0.217   0.485   1.909 -1.6828 -0.6530 -0.3457
  247SOL    HW2  741   0.067   0.398   1.893 -1.2710 -3.9733 -0.9000
  248SOL     OW  742   0.732   0.826   2.071 -0.0920 -0.7479  0.3270
  248SOL    HW1  743   0.832   0.824   2.103 -0.6209 -2.3738  0.6482
  248SOL    HW2  744   0.725   0.867   1.979 -0.1345  1.3367 -0.8025
  249SOL     OW  745   2.049   0.601   0.060 -0.1940  0.2618  0.2242
  249SOL    HW1  746   2.038   0.497   0.071 -1.4302 -1.8563  0.4778
  249SOL    HW2  747   2.041   0.639   0.155 -0.0845 -1.0031 -0.3127
  250SOL     OW  748   0.354   0.430   0.413  0.0111  0.0865  0.1980
  250SOL    HW1  749   0.407   0.518   0.406  0.4923  0.7094  0.2669
  250SOL    HW2  750   0.352   0.399   0.510 -0.5963 -1.4082 -1.5165
  251SOL     OW  751   1.015   0.323   2.363 -0.5007 -0.0762 -0.5584
  251SOL    HW1  752   1.001   0.256   2.446 -2.3857 -1.4978  0.9451
  251SOL    HW2  753   1.114   0.353   2.353  3.6299 -2.2063 -1.2159
  252SOL     OW  754   1.547   1.764   1.810  0.6754 -0.0043  0.6159
  252SOL    HW1  755   1.637   1.753   1.765 -3.4500  1.4194  1.0594
  252SOL    HW2  756   1.476   1.717   1.753  1.5279 -0.4931 -0.7095
  253SOL     OW  757   1.697   2.750   2.111 -0.1389 -0.2644  0.6701
  253SOL    HW1  758   1.784   2.787   2.141  0.2841 -1.2984 -0.1073
  253SOL    HW2  759   1.682   2.647   2.121 -0.2219  2.1317  1.4005
  254SOL     OW  760   0.772   2.181   2.056  0.0163  0.2499  0.8773
  254SOL    HW1  761   0.875   2.196   2.066 -0.8967 -0.0785 -0.5462
  254SOL    HW2  762   0.750   2.105   1.988  0.4750 -1.8176  0.6316
  255SOL     OW  763   1.346   0.535   0.511 -0.0669 -0.4572  0.6622
  255SOL    HW1  764   1.302   0.611   0.560  0.7097 -0.4016  0.0443
  255SOL    HW2  765   1.298   0.521   0.426  0.8680  0.0150  1.6087
  256SOL     OW  766   1.975   1.866   1.585  0.1915 -0.2822 -0.0221
  256SOL    HW1  767   2.032   1.820   1.515  1.5852  0.8364 -0.2811
  256SOL    HW2  768   1.895   1.913   1.544 -0.4043 -1.3701  2.2286
  257SOL     OW  769   0.215   2.238   2.489  0.3798  0.4536  0.0607
  257SOL    HW1  770   0.260   2.320   2.520 -2.8861 -1.7545 -1.0316
  257SOL    HW2  771   0.158   2.204   2.569  0.4990 -0.8563  3.4840
  258SOL     OW  772   0.837   0.167   2.232 -0.4859 -0.4212  0.5559
  258SOL    HW1  773   0.904   0.225   2.279  1.2692  2.0437  1.8854
  258SOL    HW2  774   0.745   0.175   2.270  0.3718 -0.0783 -2.7614
  259SOL     OW  775   1.235   0.770   2.412  0.1084  0.0600  0.4579
  259SOL    HW1  776   1.130   0.766   2.418  0.5262  1.5695 -2.1089
  259SOL    HW2  777   1.279   0.692   2.371 -1.0403  1.2991 -0.0008
  260SOL     OW  778   1.629   0.811   0.736  0.5757  0.1632 -0.5917
  260SOL    HW1  779   1.561   0.796   0.809 -2.0676  2.0913 -0.8547
  260SOL    HW2  780   1.700   0.742   0.740 -0.0998  1.4484  1.5027
  261SOL     OW  781   0.527   3.067   2.963  0.5754 -0.0291 -1.1243
  261SOL    HW1  782   0.564   2.991   3.019  0.4651 -1.5260  0.2812
  261SOL    HW2  783   0.470   3.028   2.891  3.2506 -0.8864  0.4408
  262SOL     OW  784   2.631   0.005   2.846 -0.2170  0.2456  0.0089
  262SOL    HW1  785   2.725   3.072   2.846  0.1565  1.3472  0.7091
  262SOL    HW2  786   2.616   0.104   2.869 -0.3038 -0.8202  0.4291
  263SOL     OW  787   0.082   2.088   0.327 -0.0033 -0.3086 -0.2693
  263SOL    HW1  788   0.012   2.103   0.395  1.3563 -0.2230 -0.5035
  263SOL    HW2  789   0.123   2.177   0.302 -1.0681  0.6959 -0.3422
  264SOL     OW  790   0.655   1.356   1.634 -0.1907  0.4627  0.4695
  264SOL    HW1  791   0.712   1.343   1.713 -1.5441 -0.9326 -0.8637
  264SOL    HW2  792   0.658   1.455   1.607 -1.6547  0.6836 -2.5733
  265SOL     OW  793   0.605   1.290   0.293 -0.7632 -0.4520 -0.4169
  265SOL    HW1  794   0.523   1.262   0.242 -1.0602  0.2871 -1.8185
  265SOL    HW2  795   0.671   1.333   0.224 -0.1942 -0.7760 -0.6896
  266SOL     OW  796   1.736   1.460   0.483  0.5653  0.2648 -0.0459
  266SOL    HW1  797   1.719   1.370   0.441 -2.7593 -0.3302 -2.9093
  266SOL    HW2  798   1.779   1.454   0.573 -2.6242 -1.4369 -0.3855
  267SOL     OW  799   3.050   0.427   0.057 -0.1252 -0.1505 -0.1980
  267SOL    HW1  800   0.038   0.372   0.042  2.5787  0.7147  1.3964
  267SOL    HW2  801   3.046   0.500   3.082 -4.6355  1.8721  0.8941
  268SOL     OW  802   0.422   2.872   2.637 -0.2386 -0.0608 -0.1956
  268SOL    HW1  803   0.389   2.875   2.732  1.6481 -0.9854 -0.4508
  268SOL    HW2  804   0.391   2.948   2.577  2.3008 -0.8856  0.1362
  269SOL     OW  805   1.988   0.093   2.727 -0.9169 -0.2099  0.5999
  269SOL    HW1  806   2.001   0.139   2.817  0.5516 -1.1320  1.0947
  269SOL    HW2  807   2.072   0.046   2.688  4.0407 -2.0566 -0.5180
  270SOL     OW  808   0.852   0.962   2.568  0.2963  0.5786  0.5799
  270SOL    HW1  809   0.762   0.957   2.615  1.2318 -1.6489  1.4010
  270SOL    HW2  810   0.913   1.018   2.627 -0.5030  3.1388 -0.3244
  271SOL     OW  811   2.660   1.056   0.240 -0.3207 -0.2600  0.1669
  271SOL    HW1  812   2.682   0.959   0.240 -2.0617  1.5979  2.6755
  271SOL    HW2  813   2.676   1.097   0.150 -0.4431 -2.3503  1.4926
  272SOL     OW  814   2.748   1.878   2.475  0.5077  0.2102 -0.5455
  272SOL    HW1  815   2.681   1.960   2.479 -2.5952  3.2791  1.8883
  272SOL    HW2  816   2.709   1.815   2.405  0.7329  1.8824 -3.4046
  273SOL     OW  817   2.398   0.406   2.962  0.9861 -0.1531 -0.1032
  273SOL    HW1  818   2.329   0.346   2.917 -0.8186 -1.1418 -1.6274
  273SOL    HW2  819   2.456   0.450   2.892  2.3924 -0.0160  1.7479
  274SOL     OW  820   0.179   2.782   1.047  0.2167  0.2684 -0.6854
  274SOL    HW1  821   0.144   2.866   1.086 -2.2819 -3.5871 -5.0331
  274SOL    HW2  822   0.281   2.784   1.049  1.7398  2.3915 -0.6314
  275SOL     OW  823   2.090   1.479   0.791 -0.3710 -0.1417 -0.2298
  275SOL    HW1  824   1.986   1.477   0.769 -3.5923  0.5146  1.3130
  275SOL    HW2  825   2.139   1.452   0.707 -1.7548  0.5018  2.4219
  276SOL     OW  826   0.269   1.370   2.702 -0.5609  0.6936 -0.3628
  276SOL    HW1  827   0.363   1.352   2.671 -1.6921 -0.9879 -2.3801
  276SOL    HW2  828   0.201   1.396   2.627 -0.6264  0.3727  1.3473
  277SOL     OW  829   1.675   2.802   1.825 -0.3020  0.0168  0.9626
  277SOL    HW1  830   1.603   2.736   1.783 -2.3548 -0.5650  0.7657
  277SOL    HW2  831   1.683   2.792   1.928 -2.5151 -0.1303  0.5070
  278SOL     OW  832   1.530   0.505   1.981 -0.2336 -0.1219 -0.6080
  278SOL    HW1  833   1.530   0.456   1.893  0.4680 -1.5842 -0.7367
  278SOL    HW2  834   1.512   0.604   1.961 -2.1938 -0.3300  0.7872
  279SOL     OW  835   1.954   1.521   0.228  0.2414 -0.2802 -0.3084
  279SOL    HW1  836   2.041   1.468   0.245 -2.5749  0.4236  2.1736
  279SOL    HW2  837   1.916   1.545   0.320  1.0248 -1.0005 -1.5881
  280SOL     OW  838   0.685   1.369   0.849 -0.7575 -0.1676 -0.1957
  280SOL    HW1  839   0.618   1.342   0.778 -2.0677 -0.1291 -0.3620
  280SOL    HW2  840   0.776   1.342   0.815  0.7029  0.8904 -0.6269
  281SOL     OW  841   0.364   0.017   2.528  0.2007 -0.0392  0.5079
  281SOL    HW1  842   0.379   0.106   2.580 -2.1994  0.5747  4.7800
  281SOL    HW2  843   0.279   0.021   2.469  0.7203 -0.1864  0.8268
  282SOL     OW  844   0.354   0.880   1.273  0.4289 -0.7376  0.3550
  282SOL    HW1  845   0.320   0.892   1.179  0.0181 -1.7660 -1.6330
  282SOL    HW2  846   0.276   0.839   1.325 -0.1564  1.6598 -0.6219
  283SOL     OW  847   1.788   2.193   0.145 -0.4424 -0.3770 -0.0467
  283SOL    HW1  848   1.846   2.254   0.089 -1.7187 -1.1168 -0.2795
  283SOL    HW2  849   1.696   2.222   0.119 -1.7689 -0.0333  2.8768
  284SOL     OW  850   1.504   1.605   0.763 -0.4359 -0.2318  0.0496
  284SOL    HW1  851   1.459   1.692   0.802  1.8894 -1.1080 -0.9634
  284SOL    HW2  852   1.532   1.618   0.663  0.9686  0.4382 -2.6725
  285SOL     OW  853   2.891   3.028   2.840  0.2440  0.2525 -0.0355
  285SOL    HW1  854   2.931   3.043   2.932  3.0725  0.3967 -4.1890
  285SOL    HW2  855   2.942   2.962   2.777 -0.4465 -0.1421  0.8861
  286SOL     OW  856   1.862   0.061   1.510 -0.3385  0.2758  0.1107
  286SOL    HW1  857   1.847   3.092   1.588  1.4691 -0.1909  0.3060
  286SOL    HW2  858   1.803   0.041   1.432 -0.4386 -2.5174  1.2869
  287SOL     OW  859   0.885   1.003   1.238 -0.0697 -0.6410 -0.1528
  287SOL    HW1  860   0.893   0.935   1.310  2.2537  0.3513  0.9545
  287SOL    HW2  861   0.812   1.069   1.270 -2.0331 -3.8638 -1.3384
  288SOL     OW  862   1.781   0.071   0.060 -0.4984 -0.1187  0.3830
  288SOL    HW1  863   1.774   3.098   3.087 -1.7758 -2.1146  0.5756
  288SOL    HW2  864   1.734   0.153   0.038  0.9963 -2.2960 -0.4414
  289SOL     OW  865   0.194   1.604   2.840 -0.2226  0.3806 -0.1777
  289SOL    HW1  866   0.104   1.610   2.791 -1.7523  1.3894 -2.7647
  289SOL    HW2  867   0.246   1.529   2.799 -0.6259  2.4941  1.7881
  290SOL     OW  868   1.127   2.652   0.691  0.1469  0.1043 -0.3032
  290SOL    HW1  869   1.028   2.639   0.713 -1.2328 -2.2024  1.8244
  290SOL    HW2  870   1.179   2.577   0.736  0.7576 -0.8577 -0.5134
  291SOL     OW  871   2.163   1.912   2.889  0.4909  0.1328 -0.0169
  291SOL    HW1  872   2.129   1.880   2.799  0.5102  1.6374  1.5195
  291SOL    HW2  873   2.215   1.836   2.932 -1.9443 -0.1012 -1.0116
  292SOL     OW  874   1.195   1.010   1.990  0.6004  0.1581 -0.1860
  292SOL    HW1  875   1.244   0.950   2.052 -1.3051  0.4511  0.4162
  292SOL    HW2  876   1.153   1.091   2.043  0.0244  3.5000 -0.3206
  293SOL     OW  877   2.074   2.808   0.886  0.5318  0.2052  0.1488
  293SOL    HW1  878   2.100   2.898   0.926  0.5721  0.5203  2.6767
  293SOL    HW2  879   2.144   2.739   0.908  0.3199 -0.0037 -0.4031
  294SOL     OW  880   0.173   0.532   2.396 -0.1784 -0.1160  0.3931
  294SOL    HW1  881   0.191   0.509   2.495  2.6295 -2.1699  0.2273
  294SOL    HW2  882   0.261   0.529   2.343  0.5677 -0.5717 -0.9618
  295SOL     OW  883   1.276   1.929   0.305 -0.0265  0.2203  0.6161
  295SOL    HW1  884   1.311   1.960   0.395 -0.4098  1.5016 -1.6264
  295SOL    HW2  885   1.292   1.827   0.300  3.3366 -0.3581 -2.1593
  296SOL     OW  886   1.961   1.755   0.012 -0.2740 -0.0047 -0.4253
  296SOL    HW1  887   1.965   1.760   3.008 -0.5430  2.2203  0.7133
  296SOL    HW2  888   1.952   1.657   0.044 -1.5827 -1.6109  0.6027
  297SOL     OW  889   2.321   0.621   0.018  0.6520  0.0227  0.1869
  297SOL    HW1  890   2.352   0.536   3.067 -0.1311 -1.1273 -1.3393
  297SOL    HW2  891   2.224   0.621   0.047 -4.7275  0.7159 -0.4001
  298SOL     OW  892   0.884   2.261   2.661 -0.0742 -0.0465 -0.1573
  298SOL    HW1  893   0.954   2.281   2.586 -0.2779 -1.7653 -0.7045
  298SOL    HW2  894   0.791   2.252   2.611 -0.7254  1.0114 -1.2344
  299SOL     OW  895   1.086   2.957   2.675  0.5436  0.5495 -1.3300
  299SOL    HW1  896   1.164   2.993   2.622 -1.4958  0.7006  1.4344
  299SOL    HW2  897   1.006   3.018   2.673 -1.1466 -0.2111 -1.5255
  300SOL     OW  898   2.634   0.244   2.969 -0.2623 -0.1796  0.3147
  300SOL    HW1  899   2.706   0.317   2.973  0.4871  2.6162 -1.3507
  300SOL    HW2  900   2.540   0.291   2.965  0.2307 -0.1629  1.6081
  301SOL     OW  901   1.372   1.388   1.364  0.4994 -0.1373  0.1720
  301SOL    HW1  902   1.391   1.345   1.454  0.4377 -1.0424 -2.4732
  301SOL    HW2  903   1.459   1.412   1.317  0.5487 -0.1616 -1.1376
  302SOL     OW  904   2.734   2.549   0.388 -0.4614 -0.1779 -0.3947
  302SOL    HW1  905   2.791   2.479   0.435 -2.0420  0.4983 -0.4595
  302SOL    HW2  906   2.735   2.534   0.288  0.9980 -0.8188  2.6072
  303SOL     OW  907   2.911   2.483   2.482  0.6066  0.2897 -0.3555
  303SOL    HW1  908   2.886   2.583   2.469 -1.8771 -0.9342  0.8579
  303SOL    HW2  909   3.007   2.483   2.519 -1.9098  1.0624  0.8520
  304SOL     OW  910   0.006   0.786   2.009 -0.2763  0.3674 -0.4208
  304SOL    HW1  911   3.037   0.709   1.995  0.1978 -0.4472  1.2858
  304SOL    HW2  912   3.066   0.875   2.043 -2.2626  0.5206  0.8343
  305SOL     OW  913   0.437   1.832   1.987 -0.2126  0.6749 -0.2137
  305SOL    HW1  914   0.520   1.856   2.039 -4.0059 -1.6244  0.1883
  305SOL    HW2  915   0.437   1.870   1.891  1.5134  0.4322 -0.0857
  306SOL     OW  916   2.655   0.908   1.808  0.1382  0.3839  0.2724
  306SOL    HW1  917   2.661   1.000   1.854 -0.6527 -0.9695  0.8942
  306SOL    HW2  918   2.588   0.844   1.849  0.0911  1.1160 -0.0890
  307SOL     OW  919   1.890   1.111   1.639  0.5686 -0.3571 -0.2212
  307SOL    HW1  920   1.990   1.137   1.647 -0.5256  1.3157 -0.5208
  307SOL    HW2  921   1.876   1.063   1.550  1.2801 -0.3531 -0.8007
  308SOL     OW  922   2.730   1.718   1.069 -0.2679  0.3644  0.5697
  308SOL    HW1  923   2.640   1.758   1.111 -0.2775  1.5352  0.7273
  308SOL    HW2  924   2.715   1.702   0.968  0.6883  0.0049  0.3664
  309SOL     OW  925   2.219   1.597   1.729 -0.4024  0.1991 -0.0779
  309SOL    HW1  926   2.168   1.668   1.679  1.3455 -1.0286  0.3182
  309SOL    HW2  927   2.268   1.543   1.661  0.1153 -1.2047 -0.1838
  310SOL     OW  928   2.803   1.628   2.621 -0.0741 -0.0875  0.3135
  310SOL    HW1  929   2.774   1.722   2.595  0.7809  0.1199  0.4673
  310SOL    HW2  930   2.728   1.559   2.611  2.3149  0.0728  1.1333
  311SOL     OW  931   2.459   1.861   2.782 -0.2985  0.4757  0.0237
  311SOL    HW1  932   2.408   1.835   2.868  1.2169  0.2645 -1.5932
  311SOL    HW2  933   2.448   1.793   2.710  1.9805  1.2608 -1.4174
  312SOL     OW  934   2.484   1.832   1.181  0.0649 -0.3398  0.3562
  312SOL    HW1  935   2.427   1.787   1.248 -1.1198  0.8692  0.9283
  312SOL    HW2  936   2.429   1.906   1.135 -0.2331 -1.4499  1.3940
  313SOL     OW  937   2.276   2.699   1.087 -0.4439 -0.0319  0.2129
  313SOL    HW1  938   2.355   2.744   1.042  0.1736 -0.6287  1.3682
  313SOL    HW2  939   2.281   2.599   1.085 -0.3557  0.7988  2.2403
  314SOL     OW  940   1.030   2.032   0.292  0.0754 -0.1851  0.2315
  314SOL    HW1  941   1.128   1.998   0.304  1.4123 -0.2545  2.5916
  314SOL    HW2  942   0.980   2.038   0.381 -2.1875  0.4665 -1.1286
  315SOL     OW  943   0.765   2.586   2.461 -0.5219 -0.5737  0.0436
  315SOL    HW1  944   0.752   2.515   2.525 -0.3031 -2.6011 -1.4087
  315SOL    HW2  945   0.855   2.575   2.418 -1.2349 -0.4514  1.1169
  316SOL     OW  946   0.161   0.640   0.634  0.0372 -0.0037 -0.2099
  316SOL    HW1  947   0.116   0.722   0.597  0.6215 -2.0021  1.3439
  316SOL    HW2  948   0.119   0.552   0.596  0.0766  1.3679  0.4740
  317SOL     OW  949   0.978   0.379   0.485 -0.5939 -0.4072 -0.3104
  317SOL    HW1  950   0.885   0.391   0.462  4.4364  2.2348  0.8227
  317SOL    HW2  951   0.993   0.383   0.586 -1.1524  1.4738 -1.3933
  318SOL     OW  952   2.948   2.398   0.510 -0.3805  0.1525  0.5485
  318SOL    HW1  953   2.946   2.453   0.596 -3.0183 -0.7383 -0.9323
  318SOL    HW2  954   2.969   2.302   0.532 -0.7791  1.3183  0.3176
  319SOL     OW  955   0.296   1.400   2.358 -0.5485  0.3880 -0.3026
  319SOL    HW1  956   0.390   1.362   2.337  1.2406  1.3464  0.0982
  319SOL    HW2  957   0.282   1.473   2.281 -1.8344 -0.2777 -0.3034
  320SOL     OW  958   0.824   2.626   2.022 -0.4971  0.3587  0.1482
  320SOL    HW1  959   0.796   2.642   1.925 -0.1974 -0.4937  0.4488
  320SOL    HW2  960   0.756   2.575   2.082  0.5822 -2.1631 -0.0077
  321SOL     OW  961   1.000   2.650   0.089 -0.2138 -0.0252  0.1532
  321SOL    HW1  962   1.102   2.647   0.071  0.0433  1.3928 -0.5147
  321SOL    HW2  963   0.976   2.727   0.149 -0.9866 -1.1723 -2.4901
  322SOL     OW  964   2.698   1.168   1.971 -0.7445 -0.2240  0.2906
  322SOL    HW1  965   2.607   1.210   1.998  0.4401  0.7767 -0.7085
  322SOL    HW2  966   2.764   1.242   1.966 -1.7419 -0.4581 -0.5907
  323SOL     OW  967   2.312   0.831   0.328  0.2039 -0.5446  0.7393
  323SOL    HW1  968   2.213   0.802   0.309  0.4453 -1.0976 -0.5498
  323SOL    HW2  969   2.380   0.760   0.307 -2.4452  1.5333  2.5991
  324SOL     OW  970   0.226   2.595   0.074 -0.8336 -0.1187  0.4366
  324SOL    HW1  971   0.201   2.501   0.031  0.4007 -5.7472  0.2768
  324SOL    HW2  972   0.326   2.618   0.053  1.5539  1.8431  2.3636
  325SOL     OW  973   1.892   0.132   2.469  0.1836  0.0884  0.1691
  325SOL    HW1  974   1.926   0.099   2.561 -3.6607 -2.7094  1.1298
  325SOL    HW2  975   1.910   0.062   2.396 -1.3590 -0.1896 -2.5874
  326SOL     OW  976   2.233   2.636   1.362  0.2515  0.2976  0.0463
  326SOL    HW1  977   2.237   2.710   1.435  1.4237  1.7308 -0.7607
  326SOL    HW2  978   2.247   2.680   1.269 -4.0532  0.3604 -1.7821
  327SOL     OW  979   1.755   0.349   2.897 -0.2242 -0.6171  0.2712
  327SOL    HW1  980   1.716   0.321   2.983  2.5763  1.5287 -3.7111
  327SOL    HW2  981   1.770   0.450   2.891  0.8008 -0.3773  0.5845
  328SOL     OW  982   2.767   1.271   2.470  0.9385  0.1041 -0.4683
  328SOL    HW1  983   2.789   1.341   2.401 -1.8841 -0.6039 -2.5044
  328SOL    HW2  984   2.711   1.310   2.543  1.6008 -1.5839 -0.0383
  329SOL     OW  985   1.844   0.262   1.932  0.9101 -0.5625  0.1004
  329SOL    HW1  986   1.812   0.164   1.920  1.0479 -0.3199 -2.8763
  329SOL    HW2  987   1.813   0.298   2.024 -1.4746  0.6646  0.2512
  330SOL     OW  988   2.580   1.750   1.641  0.1318  0.3506  0.0325
  330SOL    HW1  989   2.538   1.828   1.591  1.9521 -2.1822 -0.1859
  330SOL    HW2  990   2.601   1.668   1.583 -0.7783 -0.5295  0.1561
  331SOL     OW  991   0.488   1.212   1.506  0.2945 -0.5709 -0.6470
  331SOL    HW1  992   0.457   1.272   1.427 -1.5982  0.2448  2.6864
  331SOL    HW2  993   0.562   1.254   1.563 -0.7110  1.9059 -1.4577
  332SOL     OW  994   0.629   0.227   1.226 -0.0046 -0.3688 -0.5104
  332SOL    HW1  995   0.569   0.303   1.183 -0.5211  3.1083 -2.6589
  332SOL    HW2  996   0.713   0.268   1.264  0.2115 -3.4339 -0.3686
  333SOL     OW  997   2.292   2.766   1.612  0.2296  0.1444  0.3560
  333SOL    HW1  998   2.378   2.799   1.654 -0.2988  1.4538  2.3054
  333SOL    HW2  999   2.233   2.723   1.687 -0.2667  1.5845  2.4096
  334SOL     OW 1000   0.901   1.438   1.327 -0.0362  0.4808  0.5890
  334SOL    HW1 1001   0.814   1.412   1.284  1.7045 -0.9472  0.3522
  334SOL    HW2 1002   0.973   1.462   1.260  2.2937  1.1269  1.7675
  335SOL     OW 1003   0.469   2.636   3.009  0.3663  0.2717  0.4769
  335SOL    HW1 1004   0.525   2.709   3.049  1.5658 -0.1470 -3.0065
  335SOL    HW2 1005   0.484   2.628   2.907 -2.2243 -0.5856 -1.4443
  336SOL     OW 1006   2.953   3.004   1.739 -0.0076 -0.2991  0.4970
  336SOL    HW1 1007   3.007   3.091   1.741 -1.5346 -2.2475  0.1952
  336SOL    HW2 1008   2.887   3.009   1.660 -1.6896 -0.3153 -1.3284
  337SOL     OW 1009   2.526   2.161   0.605  0.0524 -0.4185 -0.4020
  337SOL    HW1 1010   2.429   2.147   0.629 -0.0331 -1.0850  0.1900
  337SOL    HW2 1011   2.532   2.191   0.505  1.4356 -1.6057 -2.0982
  338SOL     OW 1012   0.996   2.038   1.247  0.0681 -0.2341 -0.3422
  338SOL    HW1 1013   1.075   2.028   1.319  0.4643  0.3165 -0.1420
  338SOL    HW2 1014   0.977   2.132   1.226  0.0534 -4.6063  1.3159
  339SOL     OW 1015   2.987   0.555   2.351 -0.2109 -0.2501 -0.0608
  339SOL    HW1 1016   2.940   0.469   2.323 -0.9595 -2.4620 -1.6946
  339SOL    HW2 1017   3.088   0.540   2.371 -1.1262 -0.4823  2.4009
  340SOL     OW 1018   1.601   2.947   1.041 -0.1628  0.5719 -0.4778
  340SOL    HW1 1019   1.523   2.932   1.105 -1.1052  0.4083  2.0806
  340SOL    HW2 1020   1.637   2.858   1.007  0.2605 -2.2303 -0.6750
  341SOL     OW 1021   1.545   1.595   1.211 -0.9894  0.2724  0.6478
  341SOL    HW1 1022   1.468   1.602   1.146  1.7871 -2.7366 -0.1887
  341SOL    HW2 1023   1.630   1.562   1.163  0.4580  0.3678  0.1452
  342SOL     OW 1024   0.262   1.137   0.862 -0.2673 -0.2813  0.1577
  342SOL    HW1 1025   0.174   1.156   0.807 -0.7171 -3.1909 -0.8814
  342SOL    HW2 1026   0.335   1.149   0.794 -2.2866  1.4866  2.4948
  343SOL     OW 1027   1.822   0.520   1.350 -0.5241  0.7032  0.5598
  343SOL    HW1 1028   1.734   0.477   1.322  0.8350  1.9759 -2.0063
  343SOL    HW2 1029   1.831   0.614   1.312 -2.4081  4.6478 -0.0827
  344SOL     OW 1030   2.023   2.472   1.202  0.2295 -0.2624  0.2955
  344SOL    HW1 1031   2.123   2.467   1.215  0.3558  1.2613  1.1453
  344SOL    HW2 1032   1.996   2.567   1.175 -1.1314 -1.1476  1.4716
  345SOL     OW 1033   2.696   2.253   2.939 -0.0021  0.1816  0.0414
  345SOL    HW1 1034   2.641   2.332   2.898 -0.7463  1.8118 -0.1593
  345SOL    HW2 1035   2.663   2.163   2.906  0.5816  2.7527  0.5684
  346SOL     OW 1036   3.018   1.441   0.725  0.1557 -0.3456 -0.0160
  346SOL    HW1 1037   3.047   1.496   0.804 -1.0746 -1.1363 -2.9196
  346SOL    HW2 1038   3.079   1.450   0.641 -0.7962  0.8645 -1.0406
  347SOL     OW 1039   1.876   2.694   0.724  0.0034  0.1129  0.2880
  347SOL    HW1 1040   1.819   2.644   0.789 -1.6064 -0.2296  0.7681
  347SOL    HW2 1041   1.953   2.748   0.770  0.3306  3.3177  1.1371
  348SOL     OW 1042   1.418   1.317   2.667 -0.6381 -0.3984 -0.6401
  348SOL    HW1 1043   1.455   1.225   2.687  0.0311  0.1233 -0.7562
  348SOL    HW2 1044   1.463   1.360   2.584  0.1240  0.2401 -1.3737
  349SOL     OW 1045   2.385   1.064   2.273  0.0350 -0.6303 -0.7777
  349SOL    HW1 1046   2.335   1.021   2.196 -1.5580 -0.3699  2.7137
  349SOL    HW2 1047   2.363   1.027   2.364 -1.2468  0.2899 -0.2950
  350SOL     OW 1048   0.087   1.935   1.391 -0.1594  0.1105  0.0442
  350SOL    HW1 1049   0.035   1.847   1.409  0.8891 -0.5652 -2.6576
  350SOL    HW2 1050   0.123   1.938   1.296  1.6131 -0.7028  0.5348
  351SOL     OW 1051   0.580   0.307   2.617  0.4703  1.0487  0.3656
  351SOL    HW1 1052   0.617   0.262   2.699  0.9572 -0.0704 -0.7912
  351SOL    HW2 1053   0.649   0.363   2.569  1.1591  1.2697  2.2041
  352SOL     OW 1054   0.896   2.802   1.368 -0.1402  0.1248  0.3866
  352SOL    HW1 1055   1.001   2.795   1.384  2.9950 -0.6375 -0.7551
  352SOL    HW2 1056   0.850   2.870   1.436 -1.3721 -0.0019 -1.7799
  353SOL     OW 1057   0.992   1.129   2.158  0.1334  0.5565 -0.0888
  353SOL    HW1 1058   0.939   1.155   2.245 -2.5124 -0.0552 -2.8312
  353SOL    HW2 1059   0.999   1.024   2.156 -2.0178 -1.4048 -0.9083
  354SOL     OW 1060   1.820   1.419   0.742  0.1083 -0.0057 -0.4450
  354SOL    HW1 1061   1.728   1.381   0.772 -0.4589  0.0236 -0.1501
  354SOL    HW2 1062   1.868   1.343   0.693  3.4327 -1.1234  1.3020
  355SOL     OW 1063   2.398   0.437   0.495 -0.4218 -0.1600  0.4600
  355SOL    HW1 1064   2.464   0.515   0.473  1.5154 -2.9218 -1.0166
  355SOL    HW2 1065   2.451   0.355   0.521  2.1855 -3.4732  0.3737
  356SOL     OW 1066   2.795   0.984   2.546 -0.1455  0.1618 -0.4216
  356SOL    HW1 1067   2.819   1.081   2.520  0.9469 -0.3452  3.2996
  356SOL    HW2 1068   2.876   0.923   2.513  1.4154 -0.4108 -1.6359
  357SOL     OW 1069   0.639   2.849   1.746  0.0915  0.1339  0.4385
  357SOL    HW1 1070   0.743   2.836   1.756  0.4944 -0.9352  0.0883
  357SOL    HW2 1071   0.608   2.923   1.809  1.2996  1.2442  1.6559
  358SOL     OW 1072   2.994   1.161   2.794 -0.3142  0.0291  1.2634
  358SOL    HW1 1073   2.942   1.077   2.805 -0.7513 -0.9451 -0.0755
  358SOL    HW2 1074   3.020   1.155   2.693  1.2597 -0.4855 -0.7228
  359SOL     OW 1075   2.555   2.460   2.821 -0.2688  0.4133 -0.0503
  359SOL    HW1 1076   2.510   2.525   2.888 -2.9613  2.2267  1.0260
  359SOL    HW2 1077   2.584   2.510   2.736  1.2699 -1.6217  0.6764
  360SOL     OW 1078   1.752   1.186   0.960  0.0240  0.0714  0.2157
  360SOL    HW1 1079   1.702   1.257   0.907  1.3860 -0.5483  0.7450
  360SOL    HW2 1080   1.771   1.108   0.896  0.0263  0.2565 -2.7274
  361SOL     OW 1081   1.949   2.713   1.128 -0.2975 -0.3530 -0.2843
  361SOL    HW1 1082   1.956   2.790   1.201  0.0505  4.1117  1.2989
  361SOL    HW2 1083   1.968   2.755   1.038 -1.0798 -1.2024  0.9206
  362SOL     OW 1084   1.326   1.609   1.035  0.1012  0.0646  0.2310
  362SOL    HW1 1085   1.301   1.510   1.027  1.4006  0.3652  2.7533
  362SOL    HW2 1086   1.263   1.652   1.102 -0.7297 -0.3761  1.4244
  363SOL     OW 1087   2.718   1.894   2.781  0.0719 -0.5782  0.3660
  363SOL    HW1 1088   2.621   1.869   2.792  1.3675 -1.1391  3.3164
  363SOL    HW2 1089   2.721   1.989   2.740 -1.9155 -1.5216  2.3158
  364SOL     OW 1090   1.902   0.669   1.602  0.4276 -0.8741  0.5804
  364SOL    HW1 1091   1.797   0.669   1.600  1.5224 -0.9356  1.8801
  364SOL    HW2 1092   1.947   0.597   1.549  1.7789 -0.5921 -1.9283
  365SOL     OW 1093   2.829   2.589   1.180  0.1477 -0.0917  0.2201
  365SOL    HW1 1094   2.864   2.662   1.114 -2.0581 -1.8634 -1.3733
  365SOL    HW2 1095   2.777   2.512   1.129  0.2011  0.1836 -1.3344
  366SOL     OW 1096   2.900   1.355   0.162 -0.1290 -0.4205 -0.4772
  366SOL    HW1 1097   2.896   1.343   0.055  0.4589 -0.9472 -2.5227
  366SOL    HW2 1098   2.891   1.267   0.211 -0.1704  1.1307  0.6314
  367SOL     OW 1099   2.436   2.141   2.813 -0.2890 -0.1876  0.3103
  367SOL    HW1 1100   2.483   2.190   2.736  1.6003  0.9085 -0.4867
  367SOL    HW2 1101   2.427   2.041   2.795 -1.7738  0.9263  0.7246
  368SOL     OW 1102   2.635   2.021   1.326  0.3437  0.4139 -0.2071
  368SOL    HW1 1103   2.585   2.032   1.414  0.2870 -0.0466  2.9361
  368SOL    HW2 1104   2.601   1.939   1.272 -1.2475 -2.9359 -1.5878
  369SOL     OW 1105   0.705   0.444   0.473 -0.2619  0.3860 -0.1674
  369SOL    HW1 1106   0.688   0.390   0.558 -2.1005  0.6543  0.1146
  369SOL    HW2 1107   0.633   0.517   0.473  1.3480 -1.9862 -0.3659
  370SOL     OW 1108   0.891   0.518   1.159  0.2053  0.1668 -0.8883
  370SOL    HW1 1109   0.874   0.599   1.219  0.5212 -2.0397  4.0058
  370SOL    HW2 1110   0.882   0.549   1.063  2.3567 -0.2796  5.2084
  371SOL     OW 1111   2.475   1.639   0.167  0.0004  0.7747 -0.1164
  371SOL    HW1 1112   2.560   1.686   0.190 -2.3939 -0.3130 -0.0988
  371SOL    HW2 1113   2.387   1.677   0.201 -0.5830  2.5063  0.8929
  372SOL     OW 1114   0.209   0.908   2.408  0.5786  0.2509 -0.2975
  372SOL    HW1 1115   0.289   0.910   2.470 -0.4318  0.5899 -3.2816
  372SOL    HW2 1116   0.244   0.907   2.312  0.5771  1.1329 -0.3280
  373SOL     OW 1117   2.934   0.990   0.564  0.1757 -0.3547  0.5776
  373SOL    HW1 1118   2.953   0.948   0.659  1.5042 -4.0656  1.4884
  373SOL    HW2 1119   2.905   0.923   0.496  1.3411 -0.8431 -0.6081
  374SOL     OW 1120   0.448   2.334   0.199 -0.0677 -0.2761 -0.6638
  374SOL    HW1 1121   0.462   2.245   0.247  0.2063 -3.5310 -0.0262
  374SOL    HW2 1122   0.502   2.343   0.110  3.3127  2.6757 -3.0510
  375SOL     OW 1123   1.092   0.519   3.037 -0.5643 -0.0241 -0.4095
  375SOL    HW1 1124   1.066   0.576   2.956 -2.7212  0.6129  0.4635
  375SOL    HW2 1125   1.053   0.561   0.023 -1.4757  2.5123 -0.4648
  376SOL     OW 1126   0.013   2.762   1.658 -0.2540  0.5319  0.6806
  376SOL    HW1 1127   3.041   2.831   1.674 -1.9527  1.6374 -1.9458
  376SOL    HW2 1128   0.107   2.805   1.646  0.4923  1.9943 -1.4221
  377SOL     OW 1129   0.245   1.820   2.309 -0.3590 -0.2248  0.2079
  377SOL    HW1 1130   0.149   1.860   2.309  2.0245  1.6364  0.4118
  377SOL    HW2 1131   0.253   1.730   2.259 -0.9187 -1.4183 -0.1242
  378SOL     OW 1132   1.658   0.849   0.457 -0.0320 -0.1001  0.0612
  378SOL    HW1 1133   1.564   0.869   0.413 -1.7172  2.9769 -1.5119
  378SOL    HW2 1134   1.642   0.826   0.557 -2.0159 -0.9105  3.0603
  379SOL     OW 1135   1.124   1.456   0.083  0.3448  0.3068 -0.2889
  379SOL    HW1 1136   1.090   1.434   0.175  1.7932 -0.1183 -0.9736
  379SOL    HW2 1137   1.219   1.501   0.100  1.5437  2.4522  2.3200
  380SOL     OW 1138   2.436   2.311   2.165 -0.0977  0.5204 -0.0957
  380SOL    HW1 1139   2.523   2.259   2.189 -3.2505 -1.9687  1.9829
  380SOL    HW2 1140   2.457   2.397   2.120 -2.0460 -1.6341  1.7898
  381SOL     OW 1141   0.280   0.853   1.978  0.0783  0.3628 -0.3343
  381SOL    HW1 1142   0.293   0.930   1.911  1.1049  1.1540 -0.2611
  381SOL    HW2 1143   0.180   0.838   1.987  0.5132  2.4992 -1.2521
  382SOL     OW 1144   2.705   2.460   0.141  0.0081 -0.0445 -0.0700
  382SOL    HW1 1145   2.603   2.449   0.158 -2.1143 -0.7959 -0.0554
  382SOL    HW2 1146   2.750   2.379   0.106 -0.2146 -0.8098  2.4757
  383SOL     OW 1147   2.079   1.264   2.093 -0.1695  0.1649  0.0110
  383SOL    HW1 1148   2.020   1.189   2.054 -2.3245 -0.6562 -1.6425
  383SOL    HW2 1149   2.074   1.250   2.197 -0.9487 -1.0968 -0.4785
  384SOL     OW 1150   0.558   2.246   2.260  0.3535  0.2676 -0.1841
  384SOL    HW1 1151   0.649   2.226   2.217 -0.4588  0.5348 -0.9414
  384SOL    HW2 1152   0.500   2.165   2.267  1.3176  0.6983 -0.2957
  385SOL     OW 1153   2.609   2.323   0.810  0.1236  0.0582  0.4286
  385SOL    HW1 1154   2.598   2.248   0.738 -0.8104 -1.6386  1.3211
  385SOL    HW2 1155   2.586   2.421   0.788  0.1300 -3.7838 -1.1855
  386SOL     OW 1156   1.641   0.654   3.006  0.6142 -0.1317 -0.3046
  386SOL    HW1 1157   1.597   0.610   3.089  0.6615 -2.2506  1.3255
  386SOL    HW2 1158   1.715   0.719   3.021 -1.8975 -1.4234  0.0945
  387SOL     OW 1159   0.476   0.776   1.728 -0.1403 -0.7962 -0.2773
  387SOL    HW1 1160   0.433   0.689   1.758  0.1120 -2.1854  0.3852
  387SOL    HW2 1161   0.408   0.850   1.714 -0.0308 -1.5703  0.4736
  388SOL     OW 1162   2.965   0.729   1.543 -0.5233 -0.1872 -0.4167
  388SOL    HW1 1163   2.885   0.688   1.498  1.7705 -0.4829 -0.9833
  388SOL    HW2 1164   2.936   0.804   1.605  0.8792 -3.6286 -1.4431
  389SOL     OW 1165   1.792   1.318   2.741  0.3825 -0.1757  0.3832
  389SOL    HW1 1166   1.706   1.338   2.799 -2.7988 -2.3204  0.9538
  389SOL    HW2 1167   1.792   1.216   2.727 -1.3262  0.1675  0.1103
  390SOL     OW 1168   1.922   2.194   0.392  0.2518 -0.2497 -0.2033
  390SOL    HW1 1169   1.899   2.289   0.420  0.3020 -1.7608 -3.1595
  390SOL    HW2 1170   1.876   2.179   0.305  1.8264  0.8341  1.6412
  391SOL     OW 1171   1.074   2.610   1.018 -0.4577  0.2861  0.1435
  391SOL    HW1 1172   0.977   2.612   1.053  0.5900 -3.9816  2.6070
  391SOL    HW2 1173   1.108   2.511   1.032  0.7045 -0.4109 -1.1785
  392SOL     OW 1174   2.632   2.778   1.468 -0.0294 -0.4459 -0.7332
  392SOL    HW1 1175   2.653   2.684   1.441 -2.1204  0.2610 -0.1461
  392SOL    HW2 1176   2.573   2.815   1.400 -0.4935 -0.9381  2.7630
  393SOL     OW 1177   1.872   2.390   2.659  0.0719  0.6392  0.4538
  393SOL    HW1 1178   1.951   2.402   2.724 -1.9956  1.1461 -3.4630
  393SOL    HW2 1179   1.891   2.335   2.573 -0.2646  0.0061 -1.6630
  394SOL     OW 1180   0.504   2.640   2.730  0.5531  0.2404  0.4845
  394SOL    HW1 1181   0.471   2.714   2.671  0.4125  0.5503 -0.6255
  394SOL    HW2 1182   0.601   2.662   2.752 -1.0324  1.3610 -0.5453
  395SOL     OW 1183   0.553   1.013   1.145  0.1122  0.3017 -0.2373
  395SOL    HW1 1184   0.492   0.939   1.165  2.5895  0.6462 -0.8846
  395SOL    HW2 1185   0.597   1.052   1.227 -1.4870  0.6124 -0.1425
  396SOL     OW 1186   1.867   1.515   2.560 -0.0149  0.1159 -0.3034
  396SOL    HW1 1187   1.957   1.556   2.581  2.5534 -1.0472 -1.2813
  396SOL    HW2 1188   1.838   1.447   2.630 -0.0444  2.3433 -1.0375
  397SOL     OW 1189   2.659   0.243   2.619  0.6709 -0.2685 -0.0674
  397SOL    HW1 1190   2.738   0.182   2.625 -1.5690 -0.6237 -1.7824
  397SOL    HW2 1191   2.691   0.339   2.634  2.5817  1.9776  1.0767
  398SOL     OW 1192   1.620   0.448   0.591  0.2007 -0.4965 -0.0230
  398SOL    HW1 1193   1.632   0.351   0.615  1.4614  1.0600  0.4248
  398SOL    HW2 1194   1.524   0.471   0.576 -1.9350  0.5971  0.8231
  399SOL     OW 1195   2.254   3.069   1.549 -0.3481  0.6958  0.1197
  399SOL    HW1 1196   2.209   0.054   1.504  1.8009 -0.7079  0.1280
  399SOL    HW2 1197   2.311   3.008   1.492  0.4661 -1.3904 -0.3779
  400SOL     OW 1198   3.066   2.346   1.849 -0.3436 -0.2271 -0.4803
  400SOL    HW1 1199   0.002   2.255   1.816  0.7953 -0.2119  2.1989
  400SOL    HW2 1200   0.032   2.423   1.826 -0.5337 -0.3974 -0.2114
  401SOL     OW 1201   0.551   0.290   0.301 -0.0939  0.0315  0.1574
  401SOL    HW1 1202   0.629   0.308   0.360 -0.0831 -1.3497  0.3518
  401SOL    HW2 1203   0.464   0.332   0.338  0.4061 -0.4357  0.9141
  402SOL     OW 1204   0.671   2.592   1.720  0.4442  0.7922 -0.2361
  402SOL    HW1 1205   0.747   2.579   1.654 -1.6228 -0.6479 -0.5480
  402SOL    HW2 1206   0.644   2.692   1.728 -1.9202  0.7305  2.7912
  403SOL     OW 1207   0.257   1.056   1.794  0.5749 -0.6393  0.3831
  403SOL    HW1 1208   0.157   1.066   1.809 -1.1818  0.5259 -0.3686
  403SOL    HW2 1209   0.280   1.037   1.695  0.9128  3.6771 -0.2780
  404SOL     OW 1210   2.829   2.450   1.936  0.5261  0.0957 -0.6540
  404SOL    HW1 1211   2.920   2.426   1.892  0.1942  0.9621  0.4855
  404SOL    HW2 1212   2.754   2.398   1.889 -1.9137  2.3294 -0.5570
  405SOL     OW 1213   2.536   0.230   2.384 -0.3281  0.0454  0.2341
  405SOL    HW1 1214   2.496   0.141   2.354  1.4808  0.5325  2.0932
  405SOL    HW2 1215   2.583   0.229   2.479  0.1060  0.5618  3.1733
  406SOL     OW 1216   1.600   2.798   0.211 -0.4441  0.3177 -0.3532
  406SOL    HW1 1217   1.585   2.884   0.262 -0.7033 -3.7637  0.0294
  406SOL    HW2 1218   1.529   2.732   0.236  0.5581 -1.6431  0.4461
  407SOL     OW 1219   1.584   1.678   0.525  0.4580  0.7358 -0.5112
  407SOL    HW1 1220   1.631   1.584   0.504 -0.7052 -2.7544 -2.7662
  407SOL    HW2 1221   1.629   1.752   0.467 -0.7392 -1.1302  0.2559
  408SOL     OW 1222   0.334   0.598   1.983 -0.0864 -0.0606 -0.4412
  408SOL    HW1 1223   0.332   0.573   2.084  0.8503 -0.0465 -1.2375
  408SOL    HW2 1224   0.326   0.702   1.969  1.2244 -1.0476  0.9762
  409SOL     OW 1225   2.924   1.338   2.974 -0.2477  0.0841 -0.2363
  409SOL    HW1 1226   2.879   1.426   2.949 -0.8454 -0.5763  1.6167
  409SOL    HW2 1227   2.952   1.284   2.889 -0.5064 -0.4248 -2.3478
  410SOL     OW 1228   2.451   1.456   1.306 -0.0936 -0.5254  0.1835
  410SOL    HW1 1229   2.532   1.482   1.363 -0.1986  1.0225  0.1779
  410SOL    HW2 1230   2.395   1.540   1.282  0.7316 -1.9696  1.3942
  411SOL     OW 1231   0.013   0.426   0.540  0.1836  0.0088  0.8809
  411SOL    HW1 1232   0.041   0.376   0.460  1.2567 -0.8841  1.7484
  411SOL    HW2 1233   3.009   0.436   0.541 -0.6388  0.3988 -1.3005
  412SOL     OW 1234   1.630   0.313   0.048  0.2234  0.4489  0.0339
  412SOL    HW1 1235   1.541   0.348   0.084  2.9169  0.4419  1.0425
  412SOL    HW2 1236   1.704   0.350   0.112  2.0187  1.4180 -0.7019
  413SOL     OW 1237   1.333   0.527   1.585 -0.1551 -1.0612  0.4163
  413SOL    HW1 1238   1.404   0.462   1.623  1.4000 -1.5430 -1.2474
  413SOL    HW2 1239   1.315   0.508   1.485 -3.0204 -0.0956 -0.5480
  414SOL     OW 1240   0.409   1.224   0.114  0.1037 -0.0759 -0.2638
  414SOL    HW1 1241   0.429   1.134   0.085 -1.9958 -0.2124 -1.6265
  414SOL    HW2 1242   0.318   1.242   0.075  3.1804 -1.4396 -1.0885
  415SOL     OW 1243   0.084   1.509   0.518  0.3889 -0.1344  0.2444
  415SOL    HW1 1244   0.093   1.600   0.474 -0.0344  0.1028 -1.6691
  415SOL    HW2 1245   0.069   1.438   0.443  0.0028 -0.6904 -0.2407
  416SOL     OW 1246   2.084   1.068   0.330 -0.4015  0.1536 -0.1498
  416SOL    HW1 1247   2.124   1.072   0.424  1.8180  1.3052 -0.6608
  416SOL    HW2 1248   1.988   1.057   0.325  0.0829 -0.9114  1.7553
  417SOL     OW 1249   2.927   3.068   0.223  0.0054 -0.1943 -0.1030
  417SOL    HW1 1250   2.976   3.069   0.133  1.3992 -1.9200  1.1101
  417SOL    HW2 1251   2.827   3.049   0.211  3.2209 -0.7040  0.8269
  418SOL     OW 1252   2.700   0.804   0.236 -0.1633  0.5673 -0.5051
  418SOL    HW1 1253   2.623   0.736   0.245  0.0722 -0.7363 -0.9818
  418SOL    HW2 1254   2.778   0.782   0.304 -0.0511  2.5767  1.6487
  419SOL     OW 1255   0.754   0.473   0.161  0.0026 -0.1677 -0.0607
  419SOL    HW1 1256   0.677   0.455   0.093 -1.5843 -0.1327 -2.2518
  419SOL    HW2 1257   0.734   0.445   0.254  0.0572  0.2214 -0.5458
  420SOL     OW 1258   0.516   1.142   0.757  0.2587 -0.1495  0.1384
  420SOL    HW1 1259   0.473   1.070   0.697  0.6721 -0.6338  0.9819
  420SOL    HW2 1260   0.567   1.105   0.840 -0.3047 -2.6706 -2.1285
  421SOL     OW 1261   0.337   1.904   0.344  0.1404 -0.6356  0.0572
  421SOL    HW1 1262   0.351   1.803   0.336  1.0517 -1.7312  0.9493
  421SOL    HW2 1263   0.248   1.925   0.298  0.4258 -0.7093 -0.5441
  422SOL     OW 1264   2.763   0.409   1.413  0.5516  0.3845 -0.2991
  422SOL    HW1 1265   2.670   0.439   1.383  0.7921  0.2529  0.5447
  422SOL    HW2 1266   2.758   0.344   1.494 -0.8669 -1.4928  1.1377
  423SOL     OW 1267   1.938   1.757   0.526 -0.1900  0.1682  0.1803
  423SOL    HW1 1268   1.909   1.759   0.622  0.2861  0.3508 -2.1000
  423SOL    HW2 1269   1.861   1.776   0.464  2.0916 -1.6245 -0.3833
  424SOL     OW 1270   1.623   1.516   0.038  0.3696  0.8525  0.0605
  424SOL    HW1 1271   1.624   1.611   0.006 -0.3477  0.4704  0.3674
  424SOL    HW2 1272   1.718   1.484   0.054 -0.0343 -1.8801  0.5614
  425SOL     OW 1273   0.250   2.760   2.073  0.0513  0.9998  0.0433
  425SOL    HW1 1274   0.302   2.815   2.143  0.6015  3.1874  1.5026
  425SOL    HW2 1275   0.282   2.661   2.076  0.8643 -1.3444 -0.5846
  426SOL     OW 1276   2.463   2.918   2.927  0.1254  0.3357 -0.0613
  426SOL    HW1 1277   2.543   2.969   2.885  1.4166  0.7938  0.2589
  426SOL    HW2 1278   2.380   2.927   2.870  1.5580 -0.4257  1.1862
  427SOL     OW 1279   0.572   1.323   2.017 -0.4998  0.0763 -0.0983
  427SOL    HW1 1280   0.660   1.283   1.985  0.8330 -0.6691  2.5429
  427SOL    HW2 1281   0.563   1.429   2.024  1.5119  0.9314  0.5510
  428SOL     OW 1282   2.333   1.352   2.328 -0.3667  0.1664 -0.0782
  428SOL    HW1 1283   2.336   1.247   2.313  1.3095 -0.5301 -1.2742
  428SOL    HW2 1284   2.269   1.392   2.260  3.1100 -0.6226  0.6455
  429SOL     OW 1285   2.574   0.230   0.593 -0.7240 -0.1650  0.0704
  429SOL    HW1 1286   2.656   0.233   0.529 -0.6625  0.4879  0.4279
  429SOL    HW2 1287   2.604   0.191   0.684  2.9195 -0.4927  1.6203
  430SOL     OW 1288   1.627   1.783   2.276 -0.0087  0.0882 -0.2218
  430SOL    HW1 1289   1.580   1.764   2.185 -1.7424 -1.9068 -1.2876
  430SOL    HW2 1290   1.723   1.757   2.277 -1.5644 -0.9657  2.4868
  431SOL     OW 1291   2.849   1.701   1.760 -0.2535 -0.7898  0.3096
  431SOL    HW1 1292   2.790   1.744   1.686  1.2428  0.9703 -2.0843
  431SOL    HW2 1293   2.834   1.731   1.856 -0.6941  1.1145 -0.8710
  432SOL     OW 1294   1.092   2.647   2.058  0.1749 -0.4779  0.2184
  432SOL    HW1 1295   1.123   2.628   1.961  1.1627 -0.1393 -1.8714
  432SOL    HW2 1296   0.992   2.637   2.067 -0.9026 -0.4126 -2.8867
  433SOL     OW 1297   1.146   2.927   0.727 -0.5470  0.2939  0.5075
  433SOL    HW1 1298   1.239   2.955   0.745  2.5798 -1.8293 -2.2802
  433SOL    HW2 1299   1.147   2.825   0.708  0.1518  0.3347  0.7262
  434SOL     OW 1300   0.282   2.266   2.073 -0.1107  0.6708 -0.3032
  434SOL    HW1 1301   0.319   2.236   1.978  0.3632 -1.0239 -1.2782
  434SOL    HW2 1302   0.284   2.189   2.141 -0.3257  0.3504 -0.9741
  435SOL     OW 1303   0.669   1.376   0.549  0.1042 -0.1792 -0.0206
  435SOL    HW1 1304   0.762   1.332   0.575  1.2143  1.4684 -0.0489
  435SOL    HW2 1305   0.647   1.351   0.451  0.2664 -0.1631  0.8138
  436SOL     OW 1306   0.380   1.538   1.628  0.2622 -0.2203 -0.0525
  436SOL    HW1 1307   0.319   1.567   1.553 -1.1938 -2.2589  0.9705
  436SOL    HW2 1308   0.352   1.446   1.653 -1.4624 -0.7504 -2.1553
  437SOL     OW 1309   1.157   0.476   0.297  0.2520  0.7612 -0.3215
  437SOL    HW1 1310   1.098   0.443   0.372 -0.2140 -1.3416 -0.3112
  437SOL    HW2 1311   1.106   0.538   0.232  1.5794 -1.2862  0.1244
  438SOL     OW 1312   0.778   1.869   1.292 -0.0102  0.1118  0.2642
  438SOL    HW1 1313   0.697   1.924   1.312  2.8996 -3.3859  1.2759
  438SOL    HW2 1314   0.859   1.921   1.269 -0.8496 -3.7513 -0.0644
  439SOL     OW 1315   1.564   2.105   2.597 -0.0157 -0.7139 -0.2407
  439SOL    HW1 1316   1.527   2.085   2.691  1.1507 -0.8746 -0.3197
  439SOL    HW2 1317   1.664   2.073   2.601  1.9962  2.8538  2.3626
  440SOL     OW 1318   1.607   0.385   1.268 -0.1253 -0.1878 -0.0118
  440SOL    HW1 1319   1.518   0.378   1.317  3.0485 -1.1077 -1.4072
  440SOL    HW2 1320   1.589   0.394   1.170 -0.9938  0.2037  0.7008
  441SOL     OW 1321   0.782   2.987   1.518 -0.1724  0.1339  0.2610
  441SOL    HW1 1322   0.695   3.025   1.477  0.2037 -1.9834  1.8225
  441SOL    HW2 1323   0.792   3.014   1.614  1.8616 -2.6379  1.5146
  442SOL     OW 1324   2.281   2.135   0.666  0.6203  0.4920  0.2605
  442SOL    HW1 1325   2.285   2.109   0.764  0.4643  3.4097 -1.5202
  442SOL    HW2 1326   2.210   2.080   0.616  0.6753 -0.5159 -0.6353
  443SOL     OW 1327   2.846   0.324   2.321  0.3244  0.3340  0.2273
  443SOL    HW1 1328   2.753   0.286   2.342  0.6577  0.7827 -0.1086
  443SOL    HW2 1329   2.889   0.281   2.238  1.7376  1.3934 -1.1400
  444SOL     OW 1330   1.754   1.192   2.465 -0.0044 -0.0792 -0.2206
  444SOL    HW1 1331   1.695   1.233   2.393  1.4598  0.2624  2.1878
  444SOL    HW2 1332   1.846   1.195   2.423 -2.3105 -1.7900  0.2543
  445SOL     OW 1333   2.464   1.989   1.544  0.1946  0.0613 -0.0755
  445SOL    HW1 1334   2.404   2.058   1.494 -1.4306  2.5689 -0.5280
  445SOL    HW2 1335   2.485   2.025   1.641 -0.1031 -0.1668 -3.0448
  446SOL     OW 1336   0.366   0.889   0.633 -0.0557 -0.0864  0.3788
  446SOL    HW1 1337   0.368   0.803   0.682 -1.9891  0.7997 -1.3821
  446SOL    HW2 1338   0.278   0.890   0.580 -1.1904  1.3218 -0.4536
  447SOL     OW 1339   0.811   1.832   0.910 -0.3799 -0.4319 -0.3172
  447SOL    HW1 1340   0.776   1.914   0.958  0.0341 -0.8162 -1.6508
  447SOL    HW2 1341   0.726   1.779   0.882 -0.8498  0.5005 -2.9546
  448SOL     OW 1342   1.508   1.330   1.795 -1.1735 -0.8657  0.5101
  448SOL    HW1 1343   1.430   1.381   1.844 -2.1090  3.2803  2.3238
  448SOL    HW2 1344   1.470   1.272   1.717 -0.3449 -0.6294 -0.1316
  449SOL     OW 1345   0.408   1.765   2.916  0.2634  0.1189  0.5452
  449SOL    HW1 1346   0.330   1.700   2.898 -0.0602  1.2924  1.5211
  449SOL    HW2 1347   0.389   1.815   3.004  1.0761 -2.0057 -2.3315
  450SOL     OW 1348   2.537   2.505   2.019 -0.2159  0.0310  0.2306
  450SOL    HW1 1349   2.512   2.511   1.919 -0.2753 -0.5226 -0.2627
  450SOL    HW2 1350   2.639   2.521   2.029 -0.7966  0.6669  0.3341
  451SOL     OW 1351   2.285   0.395   2.085  0.0754 -0.0101  0.0525
  451SOL    HW1 1352   2.216   0.340   2.030 -2.1343 -0.1400 -0.3360
  451SOL    HW2 1353   2.261   0.494   2.075  0.5450  1.7159  0.0229
  452SOL     OW 1354   0.809   2.688   1.141  0.3347  0.5852 -0.2746
  452SOL    HW1 1355   0.779   2.766   1.081  1.3056 -0.1946 -3.0937
  452SOL    HW2 1356   0.850   2.730   1.223 -0.6054  0.9469 -1.1609
  453SOL     OW 1357   0.957   1.089   0.984  0.0531  0.3980  0.2252
  453SOL    HW1 1358   0.981   1.187   0.973 -0.0407 -0.2863  0.4467
  453SOL    HW2 1359   0.930   1.068   1.082 -0.8995  0.3853 -3.0458
  454SOL     OW 1360   3.065   1.181   0.862  0.3197 -0.0194  0.0547
  454SOL    HW1 1361   3.051   1.201   0.959  1.8402  2.8537  2.2433
  454SOL    HW2 1362   3.033   1.264   0.807 -1.6935 -1.3728  0.7909
  455SOL     OW 1363   0.161   0.264   0.313  0.5077  0.1431  0.3803
  455SOL    HW1 1364   0.157   0.258   0.208 -0.4083  0.8471 -4.1164
  455SOL    HW2 1365   0.217   0.346   0.338  1.0656  0.7034 -2.9582
  456SOL     OW 1366   2.202   2.378   0.565 -0.1641  0.3568  0.0399
  456SOL    HW1 1367   2.194   2.428   0.656  1.8148 -0.4328  0.8216
  456SOL    HW2 1368   2.256   2.294   0.579  1.7825 -1.4097  1.2809
  457SOL     OW 1369   1.124   2.995   2.954 -0.8138 -0.1017  0.0858
  457SOL    HW1 1370   1.224   2.986   2.985 -1.0284  2.5735  1.2367
  457SOL    HW2 1371   1.114   2.972   2.852  0.5956 -0.4917 -1.1679
  458SOL     OW 1372   2.707   2.684   0.598  0.3595 -0.0436 -0.0794
  458SOL    HW1 1373   2.634   2.636   0.655  0.2618  1.2080 -0.8530
  458SOL    HW2 1374   2.726   2.636   0.512 -1.1635 -1.5803 -0.1490
  459SOL     OW 1375   2.535   0.318   2.127 -0.3454 -0.0005  0.5986
  459SOL    HW1 1376   2.551   0.285   2.221  1.0733 -0.4026  2.9652
  459SOL    HW2 1377   2.438   0.361   2.116 -1.5751  2.1025  2.3270
  460SOL     OW 1378   3.083   0.631   0.225 -0.1884 -0.0440  0.9646
  460SOL    HW1 1379   0.001   0.715   0.165  1.2931  1.1860 -0.3200
  460SOL    HW2 1380   3.068   0.542   0.171 -0.6326 -2.2942 -1.1064
  461SOL     OW 1381   0.468   1.915   1.047  0.1020 -0.1697  0.4248
  461SOL    HW1 1382   0.531   1.926   0.966  0.8244  0.4433 -1.7720
  461SOL    HW2 1383   0.491   1.968   1.128 -1.5941  0.7671 -0.3700
  462SOL     OW 1384   2.922   2.794   1.013  0.3009 -0.3919  0.3332
  462SOL    HW1 1385   2.985   2.793   0.936 -0.9852 -0.1571  0.7125
  462SOL    HW2 1386   2.876   2.887   1.022  0.9029  0.9198  0.7474
  463SOL     OW 1387   2.695   1.166   3.077 -0.2342  0.6876 -0.4026
  463SOL    HW1 1388   2.708   1.089   3.008 -0.7987 -1.2769 -2.5840
  463SOL    HW2 1389   2.759   1.244   3.051 -1.7368 -3.3149 -2.5645
  464SOL     OW 1390   0.359   2.558   1.276  0.0833 -0.6413  0.1163
  464SOL    HW1 1391   0.405   2.482   1.325 -0.6480 -1.7421  1.0216
  464SOL    HW2 1392   0.335   2.627   1.343 -0.5931  0.0530  0.5398
  465SOL     OW 1393   0.911   0.611   0.900  0.4840  0.3691  0.1316
  465SOL    HW1 1394   0.911   0.521   0.853 -1.9633 -0.3594  0.8995
  465SOL    HW2 1395   0.824   0.658   0.871 -1.5930 -0.2572 -1.0546
  466SOL     OW 1396   1.397   2.722   2.459 -0.6477 -0.3268 -0.4691
  466SOL    HW1 1397   1.393   2.649   2.385  0.7516 -1.9157 -0.4815
  466SOL    HW2 1398   1.396   2.678   2.547 -1.8582  1.3737  0.8648
  467SOL     OW 1399   1.072   0.353   1.953 -0.0668  0.1069 -0.8707
  467SOL    HW1 1400   1.121   0.300   2.023 -1.6676 -0.8272 -0.1033
  467SOL    HW2 1401   0.969   0.345   1.958 -2.3911 -1.5312 -0.7416
  468SOL     OW 1402   0.363   0.968   2.201  0.6406 -0.0445 -0.3114
  468SOL    HW1 1403   0.351   0.920   2.110  0.1157 -0.7639 -1.9393
  468SOL    HW2 1404   0.315   1.057   2.197  3.2158  0.2222  1.8823
  469SOL     OW 1405   0.526   1.761   0.656  0.2975 -0.2176 -0.3055
  469SOL    HW1 1406   0.470   1.843   0.642  1.8804 -0.4951  1.7463
  469SOL    HW2 1407   0.484   1.678   0.618 -0.7059 -1.2663  0.0842
  470SOL     OW 1408   2.345   2.115   1.993  0.7827  0.4332  0.3057
  470SOL    HW1 1409   2.423   2.082   1.936  0.9258  1.1882  2.2197
  470SOL    HW2 1410   2.384   2.184   2.059 -0.8964  1.3325 -1.6481
  471SOL     OW 1411   1.161   0.350   2.736  0.2694 -0.3105  0.2162
  471SOL    HW1 1412   1.185   0.296   2.822  2.2768 -1.1152 -0.4568
  471SOL    HW2 1413   1.243   0.388   2.690 -0.1916 -2.4717  1.1084
  472SOL     OW 1414   0.362   2.560   1.692 -0.1551  0.3147  0.3533
  472SOL    HW1 1415   0.347   2.490   1.616 -2.6019 -0.1962 -2.0516
  472SOL    HW2 1416   0.464   2.565   1.719  0.2916 -0.7419  1.5937
  473SOL     OW 1417   0.555   0.164   2.331 -0.0302 -0.0444 -0.1106
  473SOL    HW1 1418   0.536   0.189   2.429 -0.7511  1.3039  0.4477
  473SOL    HW2 1419   0.544   0.064   2.312  3.0728 -0.3135 -1.0168
  474SOL     OW 1420   1.817   0.233   1.167  0.1260 -0.2147 -0.2367
  474SOL    HW1 1421   1.775   0.310   1.224  0.9540 -0.8791 -2.3264
  474SOL    HW2 1422   1.845   0.268   1.075  2.2279  1.4040  1.6831
  475SOL     OW 1423   1.945   0.771   1.241  0.3345  0.0828 -0.6643
  475SOL    HW1 1424   2.046   0.738   1.235  3.8846 -2.0128 -0.7165
  475SOL    HW2 1425   1.914   0.806   1.152 -2.1887 -0.2029  2.6090
  476SOL     OW 1426   0.716   0.993   0.919 -0.2009 -0.8451  0.3171
  476SOL    HW1 1427   0.658   1.029   0.996 -1.8549  0.2836  2.1740
  476SOL    HW2 1428   0.814   1.001   0.940 -2.5552 -1.6632 -0.2857
  477SOL     OW 1429   1.005   2.383   0.807 -0.1100  0.2667 -0.1105
  477SOL    HW1 1430   1.072   2.350   0.739 -2.9554  2.0070 -0.5596
  477SOL    HW2 1431   0.968   2.461   0.754  1.9786  0.5074 -0.9260
  478SOL     OW 1432   0.066   2.675   2.327  0.5098 -0.2678  0.2768
  478SOL    HW1 1433   3.088   2.684   2.261 -0.5151 -1.0613 -0.2388
  478SOL    HW2 1434   0.147   2.638   2.277 -0.2863 -2.9511 -0.5234
  479SOL     OW 1435   2.440   0.577   1.122 -0.0058  0.6409 -0.1607
  479SOL    HW1 1436   2.472   0.536   1.211 -0.9665 -0.2146 -1.9729
  479SOL    HW2 1437   2.491   0.532   1.049  0.1320  0.1416  1.6504
  480SOL     OW 1438   0.293   2.309   0.577  0.1692  0.0678  0.0399
  480SOL    HW1 1439   0.281   2.318   0.474 -2.1593 -0.1742 -0.5091
  480SOL    HW2 1440   0.234   2.231   0.610 -0.8732 -1.3351 -1.7449
  481SOL     OW 1441   2.049   2.227   1.531  0.1732  0.8536 -0.4985
  481SOL    HW1 1442   1.987   2.162   1.480  0.5207  3.4735 -0.2902
  481SOL    HW2 1443   2.060   2.196   1.628  0.7794 -0.1325  3.3199
  482SOL     OW 1444   1.459   2.715   2.747 -0.0797  0.0783  0.4855
  482SOL    HW1 1445   1.468   2.783   2.819 -0.5990 -2.7506 -0.2531
  482SOL    HW2 1446   1.540   2.651   2.745 -0.6953  0.5788  0.4963
  483SOL     OW 1447   0.743   1.945   1.855  0.1048  0.0817 -0.2725
  483SOL    HW1 1448   0.829   1.933   1.912 -0.1113 -0.4655 -0.3793
  483SOL    HW2 1449   0.696   1.852   1.852  0.2226 -1.0622 -0.8335
  484SOL     OW 1450   0.841   0.346   1.348  0.1755  0.1933  0.0284
  484SOL    HW1 1451   0.838   0.392   1.434 -1.5085 -2.6543 -1.5465
  484SOL    HW2 1452   0.860   0.421   1.281 -0.4792  1.4197 -2.5894
  485SOL     OW 1453   2.117   1.081   0.063 -0.5868  0.3624  0.6394
  485SOL    HW1 1454   2.033   1.073   0.004  0.7786 -2.3080 -1.5061
  485SOL    HW2 1455   2.093   1.059   0.157 -1.9822 -0.5306  0.9972
  486SOL     OW 1456   2.102   0.155   1.410 -0.0602  0.0513  0.7351
  486SOL    HW1 1457   2.013   0.128   1.449  1.3674 -1.6603 -3.0458
  486SOL    HW2 1458   2.080   0.182   1.310 -0.6953 -0.2022 -1.7725
  487SOL     OW 1459   0.544   2.026   1.288  0.3546 -0.5854 -0.1019
  487SOL    HW1 1460   0.545   2.127   1.267  0.6119  0.9085 -3.4966
  487SOL    HW2 1461   0.529   2.011   1.390 -0.6596 -1.2881 -0.0312
  488SOL     OW 1462   2.109   2.158   2.989  0.6066  0.3665  0.1113
  488SOL    HW1 1463   2.113   2.073   2.929 -1.2654  0.4574  1.7721
  488SOL    HW2 1464   2.199   2.181   3.035  0.5744  0.6084 -0.4509
  489SOL     OW 1465   1.814   3.034   0.647  0.1577 -0.5149 -0.0592
  489SOL    HW1 1466   1.763   2.956   0.612 -1.0096 -0.4006  1.2530
  489SOL    HW2 1467   1.900   3.048   0.596 -2.2280 -1.0450  1.4640
  490SOL     OW 1468   0.877   2.144   2.908 -0.2638 -0.3647 -0.1496
  490SOL    HW1 1469   0.885   2.192   2.814 -1.3609  0.7926 -1.6224
  490SOL    HW2 1470   0.916   2.204   2.979  0.5728  0.4824 -1.0740
  491SOL     OW 1471   0.508   1.988   1.555  0.0711  0.1076 -0.0281
  491SOL    HW1 1472   0.492   1.898   1.604  0.9384 -1.4016 -0.9309
  491SOL    HW2 1473   0.585   2.045   1.598 -0.1625  0.0326  3.4196
  492SOL     OW 1474   0.916   1.405   1.844  0.2940  0.1859 -0.0781
  492SOL    HW1 1475   1.010   1.387   1.797  1.9416  1.7948  2.6389
  492SOL    HW2 1476   0.894   1.323   1.898 -0.2923 -0.6399 -3.3976
  493SOL     OW 1477   2.383   1.783   0.839  0.5694  0.4697  0.6464
  493SOL    HW1 1478   2.350   1.793   0.744  0.1093  1.4473  0.1270
  493SOL    HW2 1479   2.470   1.731   0.830  0.4012 -0.6150  0.5367
  494SOL     OW 1480   2.987   1.823   1.020  0.5396 -0.2701  0.3501
  494SOL    HW1 1481   2.902   1.779   1.045  1.4154 -0.8607  0.8698
  494SOL    HW2 1482   2.981   1.920   1.045  0.7546 -0.8047 -0.4507
  495SOL     OW 1483   2.277   2.713   0.659  0.0262  0.3767 -0.0773
  495SOL    HW1 1484   2.217   2.730   0.576  0.4321 -1.0303  0.5657
  495SOL    HW2 1485   2.245   2.638   0.717  1.0189 -1.1679 -4.2014
  496SOL     OW 1486   2.445   0.151   1.294  0.0482 -0.5766 -0.3179
  496SOL    HW1 1487   2.549   0.135   1.309  3.4645  1.5409  0.4874
  496SOL    HW2 1488   2.418   0.220   1.361  0.0831 -1.1051 -0.2496
  497SOL     OW 1489   2.479   1.183   2.734  0.3514 -0.6856 -0.4390
  497SOL    HW1 1490   2.464   1.117   2.658 -3.3823  0.4155 -1.6101
  497SOL    HW2 1491   2.535   1.144   2.809  1.0662  0.0041 -1.3051
  498SOL     OW 1492   2.826   1.930   1.534  0.4669  0.4405  0.0796
  498SOL    HW1 1493   2.836   1.998   1.611  1.2882 -0.6395  0.8068
  498SOL    HW2 1494   2.762   1.970   1.464  1.4753  0.7734 -0.2151
  499SOL     OW 1495   1.058   2.381   2.501  0.2021 -0.6927 -0.2858
  499SOL    HW1 1496   1.055   2.456   2.429  0.4308 -1.3943 -1.6794
  499SOL    HW2 1497   1.145   2.398   2.544 -1.5938  2.0893 -5.7049
  500SOL     OW 1498   1.260   1.467   0.750 -0.1654 -0.3454  0.1184
  500SOL    HW1 1499   1.354   1.505   0.760 -0.6820 -0.7134 -2.6075
  500SOL    HW2 1500   1.242   1.405   0.829 -1.8648  0.1748 -0.7390
  501SOL     OW 1501   1.757   0.328   1.560 -0.4249  0.2481  0.5610
  501SOL    HW1 1502   1.783   0.394   1.485  0.1198 -1.7602 -0.5030
  501SOL    HW2 1503   1.812   0.246   1.543 -0.7064  0.9057  0.1705
  502SOL     OW 1504   2.619   0.459   1.709  0.0410 -0.4533  0.3360
  502SOL    HW1 1505   2.599   0.494   1.804  0.5554  1.6499  1.1938
  502SOL    HW2 1506   2.674   0.370   1.704  2.7756  0.5807 -1.3158
  503SOL     OW 1507   2.636   1.720   2.278  0.0186 -0.3606 -0.2004
  503SOL    HW1 1508   2.571   1.738   2.205 -0.6230 -0.6842  0.3684
  503SOL    HW2 1509   2.670   1.627   2.263 -3.9016 -1.5999 -0.1690
  504SOL     OW 1510   1.618   1.491   1.599 -0.1134 -0.0630  0.3245
  504SOL    HW1 1511   1.582   1.430   1.667  2.1075  2.2951 -0.7162
  504SOL    HW2 1512   1.685   1.440   1.547 -1.2245  1.0389  1.1597
  505SOL     OW 1513   0.579   0.064   1.443 -0.1200  0.0697 -0.7094
  505SOL    HW1 1514   0.539   0.128   1.510 -0.7415 -0.6099  0.0144
  505SOL    HW2 1515   0.587   0.111   1.354  0.5239  2.4841 -1.0842
  506SOL     OW 1516   0.227   0.336   0.037  0.0632  0.1619  0.2280
  506SOL    HW1 1517   0.259   0.427   0.065 -0.3058  0.5006  0.0259
  506SOL    HW2 1518   0.287   0.283   3.069  0.5307  1.3605  1.3278
  507SOL     OW 1519   0.141   2.340   2.998  0.2394  0.2476 -0.2851
  507SOL    HW1 1520   0.109   2.420   2.941 -1.6037 -0.0295 -3.2920
  507SOL    HW2 1521   0.075   2.267   3.007  2.2422  2.2708  4.4100
  508SOL     OW 1522   1.215   0.184   2.153 -0.0816 -0.3289 -0.3772
  508SOL    HW1 1523   1.308   0.194   2.118  1.0642  0.6345 -0.4480
  508SOL    HW2 1524   1.203   0.236   2.240 -2.6634  0.4277  1.9805
  509SOL     OW 1525   1.428   1.980   1.128 -0.2079  0.1873  0.0170
  509SOL    HW1 1526   1.436   1.983   1.229 -0.3732  1.8831 -0.5347
  509SOL    HW2 1527   1.337   1.945   1.097  0.0389  1.9362  0.5075
  510SOL     OW 1528   2.513   0.952   1.581  0.4806  0.4922  0.0600
  510SOL    HW1 1529   2.584   0.941   1.655  1.9990  0.3712 -0.3017
  510SOL    HW2 1530   2.553   1.017   1.518  2.0894 -1.8920  1.0077
  511SOL     OW 1531   1.141   1.677   1.214  0.0524  0.2622 -0.1375
  511SOL    HW1 1532   1.129   1.766   1.162  0.4507  1.7668 -0.7749
  511SOL    HW2 1533   1.187   1.700   1.301  1.0679 -0.1477  1.2292
  512SOL     OW 1534   0.077   1.749   0.390 -0.1851  0.2896 -0.2707
  512SOL    HW1 1535   0.028   1.793   0.463  1.1895 -0.8882 -1.3025
  512SOL    HW2 1536   0.039   1.748   0.294  2.7710 -0.4538 -0.5506
  513SOL     OW 1537   0.170   1.310   0.028 -0.0031 -0.4460  0.1924
  513SOL    HW1 1538   0.165   1.414   0.023 -1.1798  1.8836 -1.3822
  513SOL    HW2 1539   0.150   1.269   3.033 -0.9098 -0.1867  1.1648
  514SOL     OW 1540   2.183   2.525   2.296  0.4055 -0.6496 -0.2273
  514SOL    HW1 1541   2.096   2.547   2.349 -1.8023 -0.1186  1.4090
  514SOL    HW2 1542   2.211   2.425   2.304 -1.5799 -1.1210  0.9858
  515SOL     OW 1543   2.567   1.028   0.544  0.7002 -0.3540  0.2327
  515SOL    HW1 1544   2.522   1.122   0.550 -1.0369  1.4126 -0.4067
  515SOL    HW2 1545   2.588   1.009   0.444  3.3397 -2.3160 -2.2256
  516SOL     OW 1546   2.608   2.735   0.184 -0.3016  0.9104  0.0971
  516SOL    HW1 1547   2.655   2.661   0.136 -0.4413  2.1512  0.4915
  516SOL    HW2 1548   2.527   2.703   0.236  0.6218 -1.2828 -1.6986
  517SOL     OW 1549   0.658   1.672   2.780 -0.3241 -0.4327  0.5060
  517SOL    HW1 1550   0.716   1.745   2.736  1.0540 -3.3878  0.5480
  517SOL    HW2 1551   0.562   1.710   2.787  0.3907  0.7744 -3.8825
  518SOL     OW 1552   0.200   0.128   1.899  0.0523 -0.6774 -0.1228
  518SOL    HW1 1553   0.132   0.096   1.835  0.8146  2.3552  2.0863
  518SOL    HW2 1554   0.204   0.230   1.887 -1.6504  3.0546 -1.2534
  519SOL     OW 1555   1.354   1.209   0.156  0.0106 -0.4101  0.4548
  519SOL    HW1 1556   1.426   1.155   0.114 -2.1864 -0.6494  3.1811
  519SOL    HW2 1557   1.313   1.272   0.090  2.0985  0.5366 -0.5659
  520SOL     OW 1558   2.711   2.763   2.187 -0.0606 -0.4978  0.6452
  520SOL    HW1 1559   2.751   2.801   2.105 -2.0194 -0.7837  2.4439
  520SOL    HW2 1560   2.738   2.662   2.190 -1.6722 -0.2424  2.1513
  521SOL     OW 1561   0.205   1.967   2.015  0.0039  0.6876 -0.1277
  521SOL    HW1 1562   0.156   1.985   2.101  0.5480 -1.5280  1.5003
  521SOL    HW2 1563   0.290   1.920   2.042  1.0716 -1.5959 -0.2973
  522SOL     OW 1564   1.478   0.106   1.717  0.6263  0.1682 -0.0902
  522SOL    HW1 1565   1.381   0.096   1.741  5.0248  0.9888 -0.1451
  522SOL    HW2 1566   1.491   0.089   1.617 -0.5711  0.5178 -3.1140
  523SOL     OW 1567   1.861   2.248   1.181  0.2465 -0.6228  0.0671
  523SOL    HW1 1568   1.901   2.158   1.180  1.3411  0.3704  0.0097
  523SOL    HW2 1569   1.936   2.310   1.180 -1.9145 -0.9939 -1.2758
  524SOL     OW 1570   0.918   2.128   0.822 -0.0752 -0.1594 -0.2087
  524SOL    HW1 1571   0.943   2.227   0.819  2.0722 -2.7299 -1.8857
  524SOL    HW2 1572   0.848   2.104   0.893 -1.9315  0.0363  1.9608
  525SOL     OW 1573   2.852   0.489   0.545 -0.5697 -0.1752 -0.0382
  525SOL    HW1 1574   2.841   0.491   0.648  3.1333 -3.1742  0.4847
  525SOL    HW2 1575   2.790   0.425   0.498 -0.3006  0.7660  2.8494
  526SOL     OW 1576   1.112   0.098   0.438  0.2230 -0.2477  0.1374
  526SOL    HW1 1577   1.068   0.184   0.406 -2.0428  2.6537  0.6380
  526SOL    HW2 1578   1.072   0.020   0.384 -0.3271  0.2197  1.8352
  527SOL     OW 1579   1.787   1.518   1.064 -0.1133  0.2107  0.7618
  527SOL    HW1 1580   1.790   1.417   1.034 -1.1246  0.8578 -0.7415
  527SOL    HW2 1581   1.857   1.573   1.017 -0.6333  0.5592 -2.2834
  528SOL     OW 1582   2.831   2.519   2.193 -0.3297  0.7307  0.4508
  528SOL    HW1 1583   2.909   2.481   2.246  0.5937 -1.8670  1.9096
  528SOL    HW2 1584   2.831   2.479   2.096 -0.7794 -1.1890 -1.4009
  529SOL     OW 1585   0.851   1.178   2.363 -0.3809 -0.1208 -0.0702
  529SOL    HW1 1586   0.843   1.106   2.437  0.7831 -0.9755  2.6008
  529SOL    HW2 1587   0.819   1.268   2.396 -1.0943 -1.4757 -0.6252
  530SOL     OW 1588   1.718   0.696   2.521 -0.1209 -0.5520  0.6052
  530SOL    HW1 1589   1.735   0.774   2.458 -0.8232 -0.4454 -1.4164
  530SOL    HW2 1590   1.803   0.645   2.543 -0.1541 -0.3604 -0.2894
  531SOL     OW 1591   0.381   0.954   0.317  0.0120 -0.1370  0.0663
  531SOL    HW1 1592   0.459   0.970   0.382 -1.3012  1.4198  3.6485
  531SOL    HW2 1593   0.407   0.960   0.216  2.3379  2.0331 -0.1106
  532SOL     OW 1594   1.580   1.367   0.859  0.2684 -0.2612  0.1391
  532SOL    HW1 1595   1.490   1.325   0.880  1.1524  0.9590 -2.9069
  532SOL    HW2 1596   1.565   1.466   0.836 -0.5398 -1.5462  0.0755
  533SOL     OW 1597   0.388   0.517   2.229  0.4307 -0.0106 -0.2821
  533SOL    HW1 1598   0.407   0.431   2.182  1.7063  1.9075  0.9026
  533SOL    HW2 1599   0.464   0.548   2.292  0.1615 -1.3406  1.9797
  534SOL     OW 1600   0.690   0.143   2.846 -0.4095  0.4532  0.1274
  534SOL    HW1 1601   0.753   0.189   2.913  0.6798 -1.0950 -0.3385
  534SOL    HW2 1602   0.640   0.067   2.894  3.1540  0.5396  0.0141
  535SOL     OW 1603   0.528   0.422   3.084 -0.3501 -0.5498  0.1547
  535SOL    HW1 1604   0.456   0.485   0.016  1.7699  1.2679  1.6865
  535SOL    HW2 1605   0.486   0.349   3.019 -0.7795  1.2251 -0.3741
  536SOL     OW 1606   0.594   0.853   2.318  0.2893  0.1300 -0.0514
  536SOL    HW1 1607   0.497   0.872   2.299 -1.2113  0.3065  0.9397
  536SOL    HW2 1608   0.647   0.844   2.235  0.2424 -2.0325  3.0110
  537SOL     OW 1609   1.346   0.158   1.217  0.2528 -0.2007 -0.3381
  537SOL    HW1 1610   1.259   0.109   1.204  0.3897 -1.3932  1.3521
  537SOL    HW2 1611   1.367   0.219   1.138  0.3197 -0.2350 -0.6183
  538SOL     OW 1612   0.709   1.940   3.060  0.1686 -0.2755  0.0917
  538SOL    HW1 1613   0.726   2.036   3.024  2.2959  2.2807  0.0629
  538SOL    HW2 1614   0.703   1.867   2.990  1.1803  0.6826  0.2242
  539SOL     OW 1615   2.243   1.348   1.914  0.0774  0.2720 -1.1931
  539SOL    HW1 1616   2.238   1.439   1.870 -0.1532 -3.0741 -1.2872
  539SOL    HW2 1617   2.185   1.341   1.998  1.1716 -1.8456 -2.2923
  540SOL     OW 1618   1.782   1.699   1.707  0.2787 -0.1821  0.1040
  540SOL    HW1 1619   1.740   1.623   1.650 -1.0196  1.2201  1.5195
  540SOL    HW2 1620   1.862   1.743   1.663  1.8803 -1.1208  2.1777
  541SOL     OW 1621   0.786   1.641   1.732 -0.2721 -0.0692 -0.2748
  541SOL    HW1 1622   0.851   1.574   1.770  2.6875 -0.8976  0.2915
  541SOL    HW2 1623   0.810   1.674   1.636  1.6166  0.0995  1.4056
  542SOL     OW 1624   1.869   0.895   2.362 -0.1478 -0.2198 -0.0214
  542SOL    HW1 1625   1.895   0.971   2.426  1.4917  0.8433  0.4882
  542SOL    HW2 1626   1.953   0.847   2.330 -1.0691 -2.6210  1.1052
  543SOL     OW 1627   0.965   0.846   0.475 -0.6477  0.7881 -0.3181
  543SOL    HW1 1628   0.914   0.895   0.549 -0.7892 -1.6886 -0.6853
  543SOL    HW2 1629   0.931   0.873   0.382 -2.8894 -0.8432 -0.8167
  544SOL     OW 1630   2.278   1.915   2.508 -0.1825  0.3274 -0.6061
  544SOL    HW1 1631   2.217   1.965   2.446  2.9054 -0.9240  0.3321
  544SOL    HW2 1632   2.373   1.950   2.502  1.6448 -1.2056 -2.1533
  545SOL     OW 1633   1.828   2.043   1.440  0.1153 -1.4382  0.2929
  545SOL    HW1 1634   1.786   1.986   1.365  2.6202  1.2113 -2.8557
  545SOL    HW2 1635   1.757   2.107   1.479 -1.1402 -1.0420 -2.2629
  546SOL     OW 1636   0.383   0.230   2.940  0.2171  0.0508  0.0853
  546SOL    HW1 1637   0.352   0.231   2.841  1.5842 -0.4785 -0.2191
  546SOL    HW2 1638   0.406   0.132   2.964 -0.6871 -0.2894 -1.7181
  547SOL     OW 1639   2.361   0.833   2.946 -0.0688  0.2158 -0.2971
  547SOL    HW1 1640   2.305   0.918   2.947  2.3429 -1.7143  0.8590
  547SOL    HW2 1641   2.339   0.766   3.021  1.4214 -0.4130  0.0456
  548SOL     OW 1642   2.098   2.029   2.285  0.3776  0.6290  0.2174
  548SOL    HW1 1643   2.149   2.109   2.321 -3.4398 -2.9143  0.5332
  548SOL    HW2 1644   2.108   2.011   2.184  0.2765 -3.5759  0.8731
  549SOL     OW 1645   2.135   0.399   0.558 -0.2011 -0.4839 -0.1922
  549SOL    HW1 1646   2.150   0.343   0.639  2.2938  0.1077 -3.6569
  549SOL    HW2 1647   2.227   0.430   0.518 -1.8498  1.2222 -0.4876
  550SOL     OW 1648   2.158   1.654   0.417  0.2987  0.0226 -0.2961
  550SOL    HW1 1649   2.182   1.698   0.326  0.2962 -1.4436  0.7948
  550SOL    HW2 1650   2.072   1.690   0.458 -0.6823  0.7356  1.0389
  551SOL     OW 1651   1.530   0.386   1.709  0.0766  1.0515  0.4899
  551SOL    HW1 1652   1.495   0.296   1.742 -1.2087  0.8037 -0.4366
  551SOL    HW2 1653   1.600   0.371   1.639 -1.0715 -0.7008 -0.0191
  552SOL     OW 1654   0.021   2.260   2.273 -0.4533 -0.2139 -0.1756
  552SOL    HW1 1655   0.031   2.317   2.191 -0.8986 -2.1548  2.1679
  552SOL    HW2 1656   0.096   2.274   2.339 -1.8447 -1.4648 -1.7125
  553SOL     OW 1657   0.754   2.960   0.244 -0.6021 -0.0215 -0.2824
  553SOL    HW1 1658   0.740   3.055   0.205  1.6604  1.1094  1.4945
  553SOL    HW2 1659   0.854   2.941   0.259  1.0132 -1.8141 -0.7269
  554SOL     OW 1660   1.719   2.338   1.790 -0.3109 -0.3605 -0.2640
  554SOL    HW1 1661   1.794   2.311   1.854  1.9443  1.0902 -1.7303
  554SOL    HW2 1662   1.743   2.432   1.762  0.1002  1.7569 -0.3985
  555SOL     OW 1663   1.062   2.017   1.888 -0.1288 -0.0696 -0.0868
  555SOL    HW1 1664   1.049   2.089   1.962 -1.8799  1.1691  1.5043
  555SOL    HW2 1665   1.158   2.027   1.856 -0.5552  2.2417 -3.4840
  556SOL     OW 1666   1.113   1.926   0.797 -0.1626 -0.2700  0.1552
  556SOL    HW1 1667   1.054   1.872   0.734 -2.3528 -1.8039  0.0499
  556SOL    HW2 1668   1.089   2.027   0.784 -0.1529  2.7344 -0.9605
  557SOL     OW 1669   1.530   2.220   1.952 -0.3582  0.2057  0.2952
  557SOL    HW1 1670   1.598   2.276   1.896 -0.3476 -0.2800  1.3345
  557SOL    HW2 1671   1.582   2.156   2.013 -2.4127  1.0335 -2.5027
  558SOL     OW 1672   0.515   0.244   1.689 -0.1323 -0.1779  0.3933
  558SOL    HW1 1673   0.481   0.152   1.710  0.9860  0.8605 -0.6136
  558SOL    HW2 1674   0.616   0.251   1.707 -1.9038  0.3044  1.1766
  559SOL     OW 1675   2.494   2.874   1.255  0.4954  0.0121  0.4102
  559SOL    HW1 1676   2.547   2.879   1.164  1.4482  0.1710 -2.7816
  559SOL    HW2 1677   2.433   2.955   1.270 -1.0356  0.1035 -0.4173
  560SOL     OW 1678   0.913   2.427   0.401  0.2106  0.1574  0.6220
  560SOL    HW1 1679   0.980   2.382   0.335  0.1546 -1.4319 -3.0380
  560SOL    HW2 1680   0.831   2.369   0.419 -1.6203 -1.3883  0.6825
  561SOL     OW 1681   0.958   0.664   0.131 -0.5554  0.1987  0.0680
  561SOL    HW1 1682   0.878   0.596   0.118  0.9097  0.1223 -0.4564
  561SOL    HW2 1683   0.924   0.757   0.143 -2.3510 -1.2591 -0.7160
  562SOL     OW 1684   0.865   0.506   2.496  0.1632  0.0200  0.0102
  562SOL    HW1 1685   0.918   0.510   2.584  0.6835  0.0674  3.1637
  562SOL    HW2 1686   0.895   0.420   2.447 -2.2215  0.0701 -2.1539
  563SOL     OW 1687   1.610   2.375   2.577  0.3058 -0.4305  0.5178
  563SOL    HW1 1688   1.584   2.277   2.560  0.3963 -0.0353 -2.0267
  563SOL    HW2 1689   1.696   2.384   2.632 -3.6218 -2.1157  0.3757
  564SOL     OW 1690   0.104   1.027   0.296 -0.3722  0.4758 -0.2144
  564SOL    HW1 1691   0.202   1.031   0.317 -0.6102  0.7316 -0.5650
  564SOL    HW2 1692   0.051   1.113   0.277  2.5506 -0.4757 -0.5247
  565SOL     OW 1693   1.583   3.034   2.678  0.0109  0.3772 -0.0167
  565SOL    HW1 1694   1.485   3.020   2.668  1.1687  0.5071 -0.0418
  565SOL    HW2 1695   1.597   0.031   2.705 -4.1284 -5.3587 -0.4242
  566SOL     OW 1696   1.911   2.982   2.336  0.1773 -0.0527  0.3286
  566SOL    HW1 1697   1.858   2.924   2.402 -1.6774  0.1723  0.3990
  566SOL    HW2 1698   1.853   3.011   2.261 -0.0290  0.5824  1.7369
  567SOL     OW 1699   2.453   1.209   0.836  0.1409 -0.4748  0.4872
  567SOL    HW1 1700   2.368   1.160   0.850  2.0070  3.6628 -1.9379
  567SOL    HW2 1701   2.479   1.285   0.902 -0.2223  1.3653 -2.5163
  568SOL     OW 1702   1.722   1.873   0.397  0.3437  0.4896  0.7681
  568SOL    HW1 1703   1.762   1.906   0.310 -0.2060  2.1108  0.0242
  568SOL    HW2 1704   1.681   1.952   0.450 -2.5130  1.7497 -0.0447
  569SOL     OW 1705   1.911   1.744   2.846  0.1151 -0.6982 -0.0342
  569SOL    HW1 1706   1.815   1.736   2.807 -1.8904 -1.8735 -0.2590
  569SOL    HW2 1707   1.972   1.736   2.766  1.4995  0.4478 -0.2656
  570SOL     OW 1708   3.037   2.534   1.469 -0.3109 -0.2154  0.2973
  570SOL    HW1 1709   3.015   2.572   1.375 -1.5475  0.7075 -3.5124
  570SOL    HW2 1710   3.063   2.606   1.534  0.2954 -0.5432 -1.7813
  571SOL     OW 1711   0.136   0.298   2.235 -0.6854 -0.1396 -0.0493
  571SOL    HW1 1712   0.216   0.290   2.176 -3.6308 -0.8639 -1.2036
  571SOL    HW2 1713   0.133   0.395   2.268 -0.0623 -1.4060 -0.3453
  572SOL     OW 1714   0.975   1.373   0.877 -0.0054  0.0126 -0.0437
  572SOL    HW1 1715   0.952   1.451   0.936  0.1241 -3.0915  1.1024
  572SOL    HW2 1716   1.076   1.366   0.879 -0.1141  1.1663 -1.4596
  573SOL     OW 1717   0.890   0.288   2.967  0.1293 -0.0680  0.2402
  573SOL    HW1 1718   0.960   0.220   2.989 -1.8372  0.8794  0.8941
  573SOL    HW2 1719   0.924   0.372   3.006 -0.0802 -0.0714 -1.9953
  574SOL     OW 1720   0.711   0.217   0.663 -0.0576  0.4984  0.2478
  574SOL    HW1 1721   0.785   0.150   0.670 -0.8902  1.0200 -0.9607
  574SOL    HW2 1722   0.620   0.166   0.653 -0.0522  2.2865 -0.9820
  575SOL     OW 1723   2.962   1.130   1.534 -0.2185  0.4380  0.0498
  575SOL    HW1 1724   3.042   1.115   1.472  2.5062 -0.6617 -1.7617
  575SOL    HW2 1725   2.982   1.205   1.604  2.4771 -0.6961 -0.2144
  576SOL     OW 1726   2.188   0.446   1.713  0.0784 -0.0972  0.0418
  576SOL    HW1 1727   2.166   0.368   1.777 -1.7647 -2.0207 -0.2599
  576SOL    HW2 1728   2.221   0.417   1.620  2.3379 -0.7118 -0.8565
  577SOL     OW 1729   2.929   1.329   2.041  0.1993  0.6433 -0.7524
  577SOL    HW1 1730   2.978   1.246   2.067 -0.1866  2.4043 -0.1116
  577SOL    HW2 1731   2.992   1.410   2.041 -0.1814  0.2366  4.1544
  578SOL     OW 1732   1.733   2.864   2.513 -0.0934 -0.0299 -0.1896
  578SOL    HW1 1733   1.690   2.778   2.474 -2.3485  0.6162 -0.0815
  578SOL    HW2 1734   1.660   2.915   2.560 -1.9404 -1.5831 -1.1894
  579SOL     OW 1735   1.911   2.318   1.985 -0.1463  0.2644 -0.0207
  579SOL    HW1 1736   1.977   2.396   1.990 -2.3768  0.7442 -2.9557
  579SOL    HW2 1737   1.887   2.284   2.078  0.5624 -0.9271  1.6326
  580SOL     OW 1738   1.715   1.492   2.139 -0.4012 -0.2985  0.4291
  580SOL    HW1 1739   1.644   1.559   2.110  0.8838  2.1227  0.7179
  580SOL    HW2 1740   1.790   1.488   2.066  2.4452  1.4924 -0.3369
  581SOL     OW 1741   1.474   1.054   2.729 -0.0145 -0.3138  0.1762
  581SOL    HW1 1742   1.574   1.045   2.732 -0.4556  0.6923  0.3819
  581SOL    HW2 1743   1.435   0.961   2.708  0.1391  0.5518  0.3563
  582SOL     OW 1744   0.378   2.149   1.841  0.2774  0.1392 -0.1976
  582SOL    HW1 1745   0.473   2.122   1.816 -3.2212  1.1330  1.2067
  582SOL    HW2 1746   0.311   2.121   1.769 -0.6631 -0.7045  0.4759
  583SOL     OW 1747   1.601   1.248   1.170 -0.6383 -0.6058  0.1536
  583SOL    HW1 1748   1.511   1.221   1.129  0.7001 -1.5381 -1.7849
  583SOL    HW2 1749   1.672   1.209   1.111 -2.5393 -1.2439  0.1856
  584SOL     OW 1750   1.163   2.289   0.599 -0.0359  0.3621 -1.0463
  584SOL    HW1 1751   1.196   2.360   0.533 -0.2866  2.3528  0.8038
  584SOL    HW2 1752   1.083   2.236   0.559  0.0941 -1.3571 -0.5609
  585SOL     OW 1753   2.865   2.254   0.051  0.5972  0.5997 -0.2343
  585SOL    HW1 1754   2.954   2.209   0.044 -1.7038 -0.4501  0.3261
  585SOL    HW2 1755   2.818   2.253   3.062  0.3362  0.0703  2.9134
  586SOL     OW 1756   2.758   1.487   0.351 -0.4544 -0.0480 -0.6640
  586SOL    HW1 1757   2.825   1.423   0.301 -3.3108 -0.7542  1.4589
  586SOL    HW2 1758   2.662   1.450   0.338 -2.1718 -0.6021  2.0775
  587SOL     OW 1759   1.144   1.533   2.832  0.3445 -0.0647  0.1401
  587SOL    HW1 1760   1.155   1.431   2.824  0.5857 -1.7815  3.0788
  587SOL    HW2 1761   1.073   1.553   2.900  0.0725  1.5889  0.7760
  588SOL     OW 1762   0.340   0.256   0.652 -0.4506 -0.3394  0.1929
  588SOL    HW1 1763   0.249   0.217   0.673  0.9350  2.6551 -0.2179
  588SOL    HW2 1764   0.383   0.300   0.731 -0.7942  2.9629 -0.1400
  589SOL     OW 1765   1.327   0.246   0.515 -0.3974  0.6646 -0.2633
  589SOL    HW1 1766   1.253   0.177   0.480  2.0813 -0.2086 -1.8837
  589SOL    HW2 1767   1.291   0.339   0.530  2.3032 -1.9152 -3.5547
  590SOL     OW 1768   2.141   2.450   0.289  0.2988  0.0233 -0.1406
  590SOL    HW1 1769   2.173   2.382   0.360  3.0024 -1.4600 -1.1833
  590SOL    HW2 1770   2.135   2.541   0.330  1.3159  0.4126 -0.8976
  591SOL     OW 1771   0.297   2.813   1.801 -0.7094  0.4865  0.1895
  591SOL    HW1 1772   0.280   2.798   1.902  0.2093  1.2928 -0.9270
  591SOL    HW2 1773   0.343   2.738   1.758 -0.3173  2.1505  0.4064
  592SOL     OW 1774   3.032   1.643   2.227  0.5816  0.0782 -0.5852
  592SOL    HW1 1775   3.030   1.718   2.297  0.0555 -1.6757  3.0421
  592SOL    HW2 1776   3.051   1.680   2.132  3.0931  2.5232  0.6266
  593SOL     OW 1777   1.822   1.566   1.323 -0.8278 -0.1938  0.3928
  593SOL    HW1 1778   1.747   1.523   1.371  3.0635 -0.2152 -2.0924
  593SOL    HW2 1779   1.814   1.563   1.223  0.9221  0.4138  1.8521
  594SOL     OW 1780   0.473   1.180   2.848  0.4105  0.1184 -0.0977
  594SOL    HW1 1781   0.478   1.255   2.919  0.8314  1.5097 -0.3783
  594SOL    HW2 1782   0.515   1.214   2.759  0.1120  0.5291 -0.6849
  595SOL     OW 1783   1.421   1.112   0.989  0.1789 -0.3168  0.4312
  595SOL    HW1 1784   1.347   1.064   1.038 -2.1587  1.7814 -4.3151
  595SOL    HW2 1785   1.401   1.104   0.889  0.4921 -1.0434 -0.5404
  596SOL     OW 1786   2.762   1.222   1.106  0.2884  0.4479 -0.9989
  596SOL    HW1 1787   2.783   1.143   1.164  1.0232 -1.3260  1.4110
  596SOL    HW2 1788   2.839   1.292   1.115  0.7934 -2.3708 -0.9849
  597SOL     OW 1789   0.953   2.336   1.758 -0.2781 -0.2682  0.2737
  597SOL    HW1 1790   0.858   2.353   1.793  3.1219  1.3303  2.4610
  597SOL    HW2 1791   0.948   2.241   1.710 -1.2081  1.5918 -2.0110
  598SOL     OW 1792   2.074   2.658   1.758  0.2635  0.0486  0.0704
  598SOL    HW1 1793   2.081   2.593   1.831  0.5807  0.4595 -1.6343
  598SOL    HW2 1794   2.039   2.613   1.679 -0.6574  0.6317  0.9720
  599SOL     OW 1795   0.935   1.137   0.108 -0.4256 -0.6461  0.2472
  599SOL    HW1 1796   1.038   1.125   0.104  2.5042  1.3086 -0.7434
  599SOL    HW2 1797   0.884   1.049   0.129 -1.7330 -2.0206 -0.4745
  600SOL     OW 1798   1.315   0.702   0.046 -0.0136  0.3349 -0.4488
  600SOL    HW1 1799   1.286   0.651   3.060  0.2627  0.1945 -2.1997
  600SOL    HW2 1800   1.389   0.652   0.095 -0.0906  2.1766 -1.5352
  601SOL     OW 1801   0.876   0.452   1.595 -0.0967  0.0488 -0.4403
  601SOL    HW1 1802   0.971   0.412   1.604 -1.2273 -2.0383 -0.9017
  601SOL    HW2 1803   0.871   0.542   1.649  2.7235  2.6708  1.0969
  602SOL     OW 1804   0.567   2.085   0.775 -0.4826 -0.6068  0.4938
  602SOL    HW1 1805   0.499   2.034   0.719  1.2471 -0.4288 -2.2879
  602SOL    HW2 1806   0.595   2.172   0.729 -1.6800  1.5701  0.2295
  603SOL     OW 1807   1.041   2.576   2.311  0.7003  0.2608  0.6520
  603SOL    HW1 1808   1.058   2.591   2.213 -0.6379  2.1375  0.7737
  603SOL    HW2 1809   1.082   2.657   2.362  0.2606  1.2611  1.0889
  604SOL     OW 1810   0.155   1.991   0.099  0.0463 -0.4070  0.1503
  604SOL    HW1 1811   0.131   2.035   0.188  1.6520 -4.0107 -0.8871
  604SOL    HW2 1812   0.256   1.992   0.084 -1.3963 -1.4387 -1.7862
  605SOL     OW 1813   2.097   1.643   1.973 -0.8222 -0.0820 -0.1374
  605SOL    HW1 1814   2.004   1.625   1.995  3.2588 -0.4757  1.9512
  605SOL    HW2 1815   2.117   1.620   1.878 -0.4265  4.4385  0.7840
  606SOL     OW 1816   0.924   1.146   2.747  0.5375 -0.5930  0.1483
  606SOL    HW1 1817   0.833   1.197   2.769 -1.3051  1.6427  1.1636
  606SOL    HW2 1818   1.005   1.208   2.751  1.1267  1.4387 -0.1457
  607SOL     OW 1819   1.228   0.962   1.148 -0.0843 -0.1387  0.1565
  607SOL    HW1 1820   1.247   0.872   1.187 -0.1973 -0.7624 -0.8187
  607SOL    HW2 1821   1.136   0.997   1.167  0.9196  0.9230  1.5916
  608SOL     OW 1822   2.751   2.064   1.971 -0.2837 -0.5686 -0.3871
  608SOL    HW1 1823   2.788   2.090   1.879  1.3400  0.3880 -1.5342
  608SOL    HW2 1824   2.767   1.967   1.998  2.2088  2.9372 -0.6903
  609SOL     OW 1825   2.444   0.080   0.411  0.2615  0.1742  0.0961
  609SOL    HW1 1826   2.488   0.100   0.321  0.1240  0.8128 -1.2279
  609SOL    HW2 1827   2.492   0.124   0.490  0.7954 -0.3990  0.1151
  610SOL     OW 1828   3.023   2.161   1.354 -0.3816 -0.6025 -0.1634
  610SOL    HW1 1829   3.096   2.210   1.299  0.3225 -4.6038  1.2387
  610SOL    HW2 1830   3.062   2.076   1.395 -0.5930  0.8349 -0.4229
  611SOL     OW 1831   1.453   2.434   0.588  0.0353 -0.3397  0.3364
  611SOL    HW1 1832   1.551   2.452   0.600 -0.3200  3.3623  0.4892
  611SOL    HW2 1833   1.396   2.447   0.676 -1.8641  1.7168 -0.5924
  612SOL     OW 1834   0.790   3.090   1.762  0.1175 -0.1828  0.0732
  612SOL    HW1 1835   0.813   3.095   1.863 -1.0050 -0.4867  1.7989
  612SOL    HW2 1836   0.784   0.081   1.718 -1.4173 -1.0387  1.4553
  613SOL     OW 1837   2.942   1.807   0.580  0.2310 -0.2787 -0.2774
  613SOL    HW1 1838   2.869   1.739   0.605 -1.8389 -0.1336  0.4667
  613SOL    HW2 1839   2.896   1.868   0.512  0.6452 -0.6089  0.2259
  614SOL     OW 1840   1.896   0.505   2.286  0.1848  0.0976  0.1115
  614SOL    HW1 1841   1.931   0.537   2.379  2.5665  0.7724  2.1568
  614SOL    HW2 1842   1.871   0.582   2.226 -0.4300 -0.6282 -1.4738
  615SOL     OW 1843   1.161   1.278   1.219  0.1522  0.0281 -0.5815
  615SOL    HW1 1844   1.107   1.221   1.283 -0.0723  1.1335 -1.0433
  615SOL    HW2 1845   1.237   1.324   1.276 -0.8781 -0.3823  2.5860
  616SOL     OW 1846   1.583   1.776   3.089  0.2074 -0.0618 -0.3834
  616SOL    HW1 1847   1.487   1.804   0.012  1.8071  1.7114  0.6293
  616SOL    HW2 1848   1.646   1.817   0.063  0.4322  0.5685 -0.6146
  617SOL     OW 1849   2.037   3.075   0.503  0.0910  0.5397  0.5011
  617SOL    HW1 1850   2.132   3.096   0.505 -5.4479  1.9496  0.2254
  617SOL    HW2 1851   2.013   3.036   0.412  1.0692 -2.2299 -0.8011
  618SOL     OW 1852   0.611   0.566   2.406 -0.0111 -0.3578  0.2468
  618SOL    HW1 1853   0.619   0.663   2.368  0.1398  0.9738 -0.6599
  618SOL    HW2 1854   0.703   0.525   2.430  0.4217  1.8318  1.3129
  619SOL     OW 1855   2.833   1.576   1.281  0.3749 -0.1967 -0.5164
  619SOL    HW1 1856   2.885   1.506   1.230 -0.7340  1.0332 -2.6558
  619SOL    HW2 1857   2.808   1.643   1.208  2.0880 -3.0284  1.5868
  620SOL     OW 1858   2.251   2.894   2.760 -0.3037 -0.3225 -0.5843
  620SOL    HW1 1859   2.295   2.811   2.725  0.7880  1.8291 -0.4349
  620SOL    HW2 1860   2.175   2.874   2.827  0.2991 -0.5633  0.8116
  621SOL     OW 1861   2.513   1.485   3.057 -0.4776  0.6558  0.3743
  621SOL    HW1 1862   2.508   1.384   3.054  0.3442  2.2303 -2.5782
  621SOL    HW2 1863   2.483   1.523   0.048 -0.3509  2.3515 -2.2077
  622SOL     OW 1864   1.851   3.045   2.087  0.1787  0.1331  0.4867
  622SOL    HW1 1865   1.759   3.082   2.060 -0.2299 -0.4150 -2.7859
  622SOL    HW2 1866   1.908   3.026   2.007 -1.0715 -1.1502 -0.9199
  623SOL     OW 1867   1.165   1.893   1.065  0.2009 -0.6699  0.0858
  623SOL    HW1 1868   1.108   1.970   1.103 -0.7024  0.4469 -0.4233
  623SOL    HW2 1869   1.155   1.894   0.963  2.3649 -0.6626 -2.1781
  624SOL     OW 1870   0.223   3.057   0.031  0.5786  0.2570  0.4370
  624SOL    HW1 1871   0.188   2.986   0.092 -0.3968  1.1091 -1.3518
  624SOL    HW2 1872   0.276   0.026   0.088  0.8024  1.5619  0.3056
  625SOL     OW 1873   0.907   1.817   0.643  0.4449  0.1426 -0.4786
  625SOL    HW1 1874   0.862   1.828   0.737 -0.6049  2.7117  2.4825
  625SOL    HW2 1875   0.841   1.834   0.568  0.0882 -2.3241 -1.0528
  626SOL     OW 1876   3.050   3.043   3.076 -0.6420  0.1534  0.1972
  626SOL    HW1 1877   0.049   3.080   3.064  0.7545  1.3065  0.3974
  626SOL    HW2 1878   3.046   2.946   3.051  1.6717  0.6791 -2.6204
  627SOL     OW 1879   1.333   1.718   2.697 -0.2124  0.3278 -0.0991
  627SOL    HW1 1880   1.348   1.701   2.598  0.2240  0.9856  0.1239
  627SOL    HW2 1881   1.275   1.642   2.736 -1.0620 -0.2309 -1.2422
  628SOL     OW 1882   0.316   2.896   2.912  0.6629  0.2279  0.3194
  628SOL    HW1 1883   0.258   2.811   2.915 -2.1300  0.6611 -0.2116
  628SOL    HW2 1884   0.275   2.956   2.981  1.3689  2.3427 -2.1856
  629SOL     OW 1885   0.702   2.915   2.584  0.5120 -0.3802  0.4264
  629SOL    HW1 1886   0.729   2.826   2.623  0.8047  2.4139 -0.8312
  629SOL    HW2 1887   0.600   2.921   2.576 -0.1653  1.2003  0.4540
  630SOL     OW 1888   1.393   1.203   2.066  0.0983 -0.5974  0.0194
  630SOL    HW1 1889   1.403   1.113   2.021  1.5169  0.6612  0.1079
  630SOL    HW2 1890   1.341   1.269   2.008  2.0661  1.6383  2.0301
  631SOL     OW 1891   2.198   1.094   0.573 -0.1778 -0.0367 -0.0685
  631SOL    HW1 1892   2.276   1.159   0.560 -0.0912 -0.9436  1.2120
  631SOL    HW2 1893   2.224   0.995   0.568  1.1168 -0.0488 -0.5538
  632SOL     OW 1894   2.633   0.533   1.982 -0.2397 -0.7272  0.0607
  632SOL    HW1 1895   2.695   0.584   2.044 -0.4896  0.2640 -0.8311
  632SOL    HW2 1896   2.610   0.438   2.016 -1.6652 -1.4191 -0.2455
  633SOL     OW 1897   0.867   1.827   0.140  0.2625  0.4521 -0.1051
  633SOL    HW1 1898   0.797   1.874   0.081  2.4477  3.1184  1.4232
  633SOL    HW2 1899   0.925   1.896   0.190  0.4576 -1.0892 -0.5907
  634SOL     OW 1900   1.886   2.792   2.716  0.4491 -0.2027 -0.3072
  634SOL    HW1 1901   1.842   2.831   2.630  0.1610 -0.2682 -0.7020
  634SOL    HW2 1902   1.958   2.721   2.688 -1.4553 -0.8801 -2.8605
  635SOL     OW 1903   2.045   0.331   0.103 -0.0225 -0.0211 -0.0452
  635SOL    HW1 1904   2.125   0.324   0.164 -0.5052 -1.9722 -0.2620
  635SOL    HW2 1905   1.959   0.317   0.150  0.0952 -1.0570 -1.2457
  636SOL     OW 1906   0.894   1.263   0.644 -0.0489 -0.0480  0.0269
  636SOL    HW1 1907   0.986   1.237   0.606  2.2119 -0.8828  0.8956
  636SOL    HW2 1908   0.915   1.324   0.720  0.2087  1.4004  0.5869
  637SOL     OW 1909   2.988   2.127   0.506  0.3257  0.3595  0.5282
  637SOL    HW1 1910   2.920   2.067   0.457 -0.5910 -0.4960 -2.3954
  637SOL    HW2 1911   2.975   2.106   0.605  3.3148 -0.6213 -0.0838
  638SOL     OW 1912   0.922   2.509   2.768 -0.8969 -0.2115  0.1069
  638SOL    HW1 1913   1.017   2.536   2.743  0.5097  0.6961 -0.3574
  638SOL    HW2 1914   0.889   2.427   2.720  1.4395  0.4965 -0.4059
  639SOL     OW 1915   1.331   1.952   0.042 -0.0274 -0.1548  0.1287
  639SOL    HW1 1916   1.257   1.942   3.072 -2.3965 -1.6978 -2.4630
  639SOL    HW2 1917   1.294   1.958   0.135  1.2299 -2.1779  1.3665
  640SOL     OW 1918   1.849   0.028   0.892 -0.2540 -0.7964  0.1799
  640SOL    HW1 1919   1.765   0.000   0.945 -0.8984 -0.5774 -0.8403
  640SOL    HW2 1920   1.847   3.084   0.796 -0.5869  0.9643  0.9046
  641SOL     OW 1921   3.018   2.867   0.395 -0.1641  0.0932  0.2063
  641SOL    HW1 1922   2.984   2.928   0.319 -4.0586  0.6638 -1.6282
  641SOL    HW2 1923   3.064   2.786   0.351  1.1762  1.0112  1.1171
  642SOL     OW 1924   1.179   0.106   1.592  0.2445 -0.4557  0.5911
  642SOL    HW1 1925   1.122   0.086   1.509 -2.6812  1.0043 -1.8476
  642SOL    HW2 1926   1.176   0.205   1.610 -0.3527 -2.7380  0.7958
  643SOL     OW 1927   0.564   1.587   2.026 -0.6281  0.5995 -0.2728
  643SOL    HW1 1928   0.654   1.604   2.072 -1.5066  0.4641  1.3277
  643SOL    HW2 1929   0.505   1.673   2.017 -1.8509  0.9473 -0.1623
  644SOL     OW 1930   0.592   2.538   0.281 -0.6876  0.0406  0.3476
  644SOL    HW1 1931   0.684   2.522   0.241 -0.8436  1.8368 -0.7689
  644SOL    HW2 1932   0.530   2.454   0.269  0.3382 -1.0443 -2.8926
  645SOL     OW 1933   1.485   2.189   0.135 -0.5144  0.0456  0.3101
  645SOL    HW1 1934   1.463   2.240   0.051 -2.3516 -2.2781  0.3377
  645SOL    HW2 1935   1.475   2.088   0.124 -0.8999  3.7018  1.0994
  646SOL     OW 1936   0.493   1.403   3.008  0.0354 -0.2368 -0.0229
  646SOL    HW1 1937   0.449   1.385   0.001  0.2783 -0.2335 -0.4993
  646SOL    HW2 1938   0.566   1.478   3.009 -0.7522  3.0321  0.3966
  647SOL     OW 1939   0.436   2.859   1.157  0.3532  0.1645  0.5449
  647SOL    HW1 1940   0.452   2.822   1.252  0.8524 -2.2085 -1.9129
  647SOL    HW2 1941   0.448   2.955   1.149  1.1996 -1.7224  0.8397
  648SOL     OW 1942   1.819   0.527   1.830 -0.2635 -0.1840  0.2657
  648SOL    HW1 1943   1.842   0.426   1.848  1.5718 -2.9488  0.6599
  648SOL    HW2 1944   1.871   0.565   1.755  0.3526 -1.8297  2.1292
  649SOL     OW 1945   1.237   1.939   2.787  0.3006 -0.6360 -0.2998
  649SOL    HW1 1946   1.268   1.845   2.753 -1.9866  0.3531 -2.0181
  649SOL    HW2 1947   1.173   1.926   2.864  0.0632 -0.4151 -0.0980
  650SOL     OW 1948   2.823   1.825   2.072 -0.2291  0.3386  0.1382
  650SOL    HW1 1949   2.804   1.801   2.170  0.6661 -0.0531  2.1315
  650SOL    HW2 1950   2.922   1.799   2.040  1.7078 -1.7145 -0.6979
  651SOL     OW 1951   1.024   0.086   0.023  0.1332  0.0902  0.0511
  651SOL    HW1 1952   1.026   0.002   3.061  1.0522 -0.6312 -0.9640
  651SOL    HW2 1953   1.096   0.150   0.007 -1.8984 -0.5385 -1.3319
  652SOL     OW 1954   2.863   1.719   3.081 -0.8741 -0.3226  0.1809
  652SOL    HW1 1955   2.814   1.644   3.027 -3.3471  0.4582  2.1727
  652SOL    HW2 1956   2.908   1.784   3.021 -0.4767 -1.3477  0.4433
  653SOL     OW 1957   0.242   3.079   0.997  0.3901 -0.0446  0.0264
  653SOL    HW1 1958   0.170   0.033   1.051 -0.7143 -0.0641  0.3375
  653SOL    HW2 1959   0.325   3.089   1.048 -0.0046  2.7395  2.2148
  654SOL     OW 1960   2.250   0.012   2.606  0.9290  0.3356  0.5116
  654SOL    HW1 1961   2.267   3.094   2.506 -0.8190  1.8071 -2.1271
  654SOL    HW2 1962   2.248   3.023   2.658  1.6383  0.3010 -0.1979
  655SOL     OW 1963   0.368   2.467   1.021 -0.0794 -0.2196  0.3651
  655SOL    HW1 1964   0.276   2.444   0.985 -1.6277  0.5575 -1.8415
  655SOL    HW2 1965   0.359   2.522   1.108  2.3151  0.4291 -0.8854
  656SOL     OW 1966   0.041   2.914   2.482  0.5438 -0.5905 -0.5041
  656SOL    HW1 1967   0.074   3.005   2.447  0.5288 -1.1915  0.1761
  656SOL    HW2 1968   0.068   2.837   2.422 -0.6326 -0.1844  2.5216
  657SOL     OW 1969   2.520   0.507   2.494 -0.1784 -0.2987 -0.2602
  657SOL    HW1 1970   2.513   0.579   2.422 -1.1294  0.1526  0.7446
  657SOL    HW2 1971   2.502   0.413   2.458 -1.0918 -0.3495 -0.2466
  658SOL     OW 1972   1.952   1.777   1.018  0.3408  0.4947 -0.4623
  658SOL    HW1 1973   2.047   1.742   1.007  1.5156  0.0551  0.4927
  658SOL    HW2 1974   1.905   1.768   0.927 -3.2452 -0.0802  0.3119
  659SOL     OW 1975   2.341   3.018   0.058 -0.0334 -0.2211  0.2672
  659SOL    HW1 1976   2.391   2.965   3.086 -1.6595 -0.6397 -1.0570
  659SOL    HW2 1977   2.246   3.045   0.035 -1.3848  2.8244 -0.1931
  660SOL     OW 1978   1.555   1.349   2.921 -0.0893 -0.8334 -0.0167
  660SOL    HW1 1979   1.593   1.415   2.995  3.1848  3.0860  1.3585
  660SOL    HW2 1980   1.473   1.386   2.868 -1.9358  2.7364 -1.4096
  661SOL     OW 1981   2.278   2.430   1.160  0.4297 -0.1292  0.0284
  661SOL    HW1 1982   2.311   2.368   1.083  0.3624 -0.7536 -1.1149
  661SOL    HW2 1983   2.343   2.418   1.232 -0.2958 -0.2894 -2.9384
  662SOL     OW 1984   0.798   0.956   0.262 -0.4643  0.2335  0.3676
  662SOL    HW1 1985   0.761   0.883   0.205 -1.6876 -1.7919  1.3330
  662SOL    HW2 1986   0.722   0.997   0.316 -1.1793 -1.0953 -0.6565
  663SOL     OW 1987   1.970   2.529   0.110  0.2614 -0.3363  0.1944
  663SOL    HW1 1988   1.935   2.466   0.035 -1.2134  1.7435 -1.1592
  663SOL    HW2 1989   2.016   2.479   0.194 -2.9787 -1.4746  5.3756
  664SOL     OW 1990   0.727   2.203   1.461  0.5321  0.0156 -0.4077
  664SOL    HW1 1991   0.826   2.220   1.482  0.2054 -1.6471 -0.6409
  664SOL    HW2 1992   0.684   2.174   1.550  0.1417  1.0522  3.2790
  665SOL     OW 1993   1.772   2.241   2.217 -0.4138  0.5454  0.2107
  665SOL    HW1 1994   1.811   2.239   2.311 -1.6924  0.5808  1.7162
  665SOL    HW2 1995   1.700   2.168   2.206 -0.0349 -0.2353 -0.9363
  666SOL     OW 1996   0.183   2.329   0.274  0.2086  0.1019 -0.4079
  666SOL    HW1 1997   0.270   2.364   0.237  0.2539 -0.7864  2.4510
  666SOL    HW2 1998   0.107   2.395   0.255 -3.5647  1.1124  2.4100
  667SOL     OW 1999   2.147   1.609   2.231  0.1721  0.3963 -0.5568
  667SOL    HW1 2000   2.055   1.618   2.275  1.7385  0.5322  1.3206
  667SOL    HW2 2001   2.134   1.604   2.127 -0.5403 -0.2023 -2.0094
  668SOL     OW 2002   0.473   0.607   2.652 -0.0063  0.6796  0.0800
  668SOL    HW1 2003   0.500   0.580   2.559 -0.0314  0.3528  2.3404
  668SOL    HW2 2004   0.549   0.587   2.718  0.8276  1.5429  2.1464
  669SOL     OW 2005   1.696   2.321   2.919  0.2804  0.2501  0.0531
  669SOL    HW1 2006   1.601   2.349   2.942  3.5745  0.8976 -0.1544
  669SOL    HW2 2007   1.696   2.244   2.855  0.1955  1.6038  1.1198
  670SOL     OW 2008   2.329   1.742   2.989 -0.3535  0.4504  0.0156
  670SOL    HW1 2009   2.332   1.760   3.091  1.0725 -1.5532 -0.7207
  670SOL    HW2 2010   2.359   1.648   2.974  0.3720  1.1541 -1.1397
  671SOL     OW 2011   0.382   1.226   1.091  0.3889 -0.1910  0.0328
  671SOL    HW1 2012   0.316   1.223   1.010 -0.7296  0.4103 -1.6326
  671SOL    HW2 2013   0.446   1.148   1.084 -0.6246 -0.2112  0.7798
  672SOL     OW 2014   2.652   0.860   2.271  0.0553 -0.3289 -0.3285
  672SOL    HW1 2015   2.717   0.938   2.237  2.0371  0.3355 -1.0746
  672SOL    HW2 2016   2.642   0.877   2.370 -1.2625  1.0335  1.0580
  673SOL     OW 2017   2.356   2.761   2.058  0.2754  0.1056 -0.1716
  673SOL    HW1 2018   2.411   2.678   2.046  0.4475  1.8938 -1.5236
  673SOL    HW2 2019   2.259   2.739   2.028 -1.7613 -0.4589  0.3114
  674SOL     OW 2020   1.424   2.478   2.325  0.4107  0.5753 -0.1444
  674SOL    HW1 2021   1.365   2.461   2.240  0.1810 -1.7367 -0.5707
  674SOL    HW2 2022   1.445   2.397   2.383 -1.0517  3.7716  3.3021
  675SOL     OW 2023   0.489   0.669   1.334  0.4504  0.0095  0.3283
  675SOL    HW1 2024   0.444   0.761   1.314  2.9839  1.6733  4.2654
  675SOL    HW2 2025   0.549   0.673   1.411  0.5653 -0.6533  0.3270
  676SOL     OW 2026   1.834   1.025   0.772  0.3482  0.1787  0.1161
  676SOL    HW1 2027   1.768   0.964   0.723  2.0210  0.5120  0.8447
  676SOL    HW2 2028   1.875   1.081   0.703 -1.3436 -1.2648 -2.2595
  677SOL     OW 2029   3.075   1.565   2.688  0.0680 -0.0013  0.5668
  677SOL    HW1 2030   3.095   1.504   2.605 -1.8724 -1.4080 -1.5427
  677SOL    HW2 2031   2.973   1.579   2.689 -2.3454  2.1541 -0.8420
  678SOL     OW 2032   2.347   2.056   0.916  0.1827  0.6458 -0.0812
  678SOL    HW1 2033   2.365   1.956   0.884 -2.3182 -0.7916 -1.2722
  678SOL    HW2 2034   2.314   2.055   1.012  0.8775 -1.0126 -0.0759
  679SOL     OW 2035   1.741   2.805   0.528 -0.0820 -0.0476 -0.9402
  679SOL    HW1 2036   1.762   2.787   0.435 -1.1307  2.4770  3.9533
  679SOL    HW2 2037   1.798   2.755   0.599 -0.0276 -2.2658  1.0639
  680SOL     OW 2038   0.294   2.512   2.213  0.2377 -0.3301 -0.1221
  680SOL    HW1 2039   0.379   2.550   2.262  2.2712  0.9111  1.4001
  680SOL    HW2 2040   0.304   2.414   2.188  1.6472  0.6567  2.4168
  681SOL     OW 2041   2.721   1.415   1.732  0.3435  0.0484 -0.7183
  681SOL    HW1 2042   2.814   1.367   1.725 -1.5545  0.3867 -0.2629
  681SOL    HW2 2043   2.722   1.482   1.813  0.8343  1.8773  2.0259
  682SOL     OW 2044   0.530   1.693   1.192  0.2919 -0.0324  0.0852
  682SOL    HW1 2045   0.616   1.713   1.238  3.6328  0.0838 -3.3012
  682SOL    HW2 2046   0.505   1.762   1.121  0.8206 -0.5619 -1.2993
  683SOL     OW 2047   2.279   1.665   1.274 -0.2409  0.2748  0.0326
  683SOL    HW1 2048   2.247   1.664   1.176 -3.5419 -1.5775 -2.1655
  683SOL    HW2 2049   2.197   1.657   1.335 -0.1435  1.7338  0.9874
  684SOL     OW 2050   2.751   1.539   2.914 -0.2388  0.5844  0.3640
  684SOL    HW1 2051   2.741   1.578   2.824  0.4843 -2.7594  0.2334
  684SOL    HW2 2052   2.665   1.526   2.965  2.6375  0.1087 -2.0552
  685SOL     OW 2053   1.606   1.099   3.035  0.7809 -0.1349  0.5224
  685SOL    HW1 2054   1.593   1.173   2.965 -2.1644  3.4528 -1.2368
  685SOL    HW2 2055   1.529   1.031   3.029 -3.2228 -0.2898  0.5924
  686SOL     OW 2056   0.283   0.512   1.440  0.0866 -0.2266 -0.7028
  686SOL    HW1 2057   0.361   0.562   1.402 -0.6994 -1.8778 -0.0942
  686SOL    HW2 2058   0.301   0.494   1.543 -0.2444 -0.1679 -0.1217
  687SOL     OW 2059   1.172   2.193   2.317  0.2412 -0.4099 -0.1563
  687SOL    HW1 2060   1.266   2.183   2.354  1.2344  0.0127 -0.0192
  687SOL    HW2 2061   1.122   2.250   2.384  0.0675  0.5504 -1.2673
  688SOL     OW 2062   0.255   1.661   1.237  0.2796 -0.0363 -0.1803
  688SOL    HW1 2063   0.350   1.688   1.223  0.4528  2.3881 -1.7973
  688SOL    HW2 2064   0.192   1.740   1.217  0.0433  0.8276  0.9505
  689SOL     OW 2065   1.428   1.225   1.565 -0.0469  0.4255  0.4238
  689SOL    HW1 2066   1.493   1.166   1.507  0.8424 -0.1829 -2.5214
  689SOL    HW2 2067   1.337   1.176   1.575 -2.6962 -0.1101  0.1383
  690SOL     OW 2068   2.588   0.809   1.085  0.3500 -0.0420  0.1631
  690SOL    HW1 2069   2.542   0.720   1.104 -0.9039  1.1958  0.3924
  690SOL    HW2 2070   2.660   0.791   1.018  0.1725 -3.4773  2.5590
  691SOL     OW 2071   0.641   2.143   1.718 -0.0602 -0.4078  0.0057
  691SOL    HW1 2072   0.685   2.057   1.763  0.0986 -1.3646 -0.7549
  691SOL    HW2 2073   0.640   2.226   1.777  0.1289  0.8938 -0.7254
  692SOL     OW 2074   1.914   0.282   0.903  0.0481 -0.6558 -0.0692
  692SOL    HW1 2075   1.885   0.185   0.886 -3.1116 -1.4280 -0.6582
  692SOL    HW2 2076   2.000   0.301   0.853  2.3266 -1.1391  0.5915
  693SOL     OW 2077   0.195   1.218   2.194 -0.6942 -0.1876  0.0058
  693SOL    HW1 2078   0.213   1.237   2.094  1.8594 -1.4053  1.3017
  693SOL    HW2 2079   0.239   1.291   2.249  2.2740  1.5452 -3.6521
  694SOL     OW 2080   2.219   0.689   1.198 -0.3501  0.3644 -0.0530
  694SOL    HW1 2081   2.300   0.640   1.159 -4.7152  1.2835 -0.9928
  694SOL    HW2 2082   2.248   0.741   1.282  0.2980 -1.9907 -2.2142
  695SOL     OW 2083   1.152   1.409   1.711 -0.0110 -0.3160 -0.3007
  695SOL    HW1 2084   1.142   1.505   1.681 -1.2753 -2.5226 -0.5739
  695SOL    HW2 2085   1.137   1.345   1.637  0.5776  2.7686  1.3846
  696SOL     OW 2086   1.271   2.718   0.075  0.0959 -0.1876  0.3303
  696SOL    HW1 2087   1.273   2.819   0.091  1.3083 -0.1784 -1.4676
  696SOL    HW2 2088   1.318   2.669   0.149  1.2681  2.5809 -3.4985
  697SOL     OW 2089   0.914   0.358   0.760 -0.3586  0.7240 -0.5592
  697SOL    HW1 2090   0.825   0.312   0.732  1.1505  3.6798  2.3725
  697SOL    HW2 2091   0.985   0.299   0.810  0.7863 -1.6992  0.0910
  698SOL     OW 2092   1.229   1.491   2.435 -0.0991  0.3164  0.4234
  698SOL    HW1 2093   1.238   1.444   2.523 -0.9725 -0.9214 -1.2796
  698SOL    HW2 2094   1.314   1.547   2.427 -1.9259 -3.9984 -0.2026
  699SOL     OW 2095   1.590   0.856   1.108  0.3477  0.1299  0.5188
  699SOL    HW1 2096   1.536   0.939   1.078 -4.5286 -1.8894 -0.3127
  699SOL    HW2 2097   1.677   0.852   1.060 -2.8111 -1.4344 -0.3186
  700SOL     OW 2098   0.789   2.828   0.592  0.0752 -0.5562 -0.2925
  700SOL    HW1 2099   0.695   2.848   0.557  0.0678  0.7736  1.1818
  700SOL    HW2 2100   0.834   2.920   0.608 -2.2199 -2.1698 -0.2320
  701SOL     OW 2101   2.565   2.897   2.630  0.0900  0.4303 -0.3954
  701SOL    HW1 2102   2.595   2.980   2.680  0.2805  0.3145  0.3392
  701SOL    HW2 2103   2.583   2.903   2.531 -0.9973 -0.5599  1.6696
  702SOL     OW 2104   1.190   0.259   3.024 -0.4394 -0.1535  0.3100
  702SOL    HW1 2105   1.279   0.224   2.998  0.3927  0.2839 -0.2454
  702SOL    HW2 2106   1.179   0.361   3.026 -0.1363 -1.4747 -0.4928
  703SOL     OW 2107   2.631   2.926   2.377  0.3395  0.2073  0.0036
  703SOL    HW1 2108   2.556   2.987   2.350 -0.3857 -0.3637  0.2457
  703SOL    HW2 2109   2.659   2.860   2.299  1.3302 -0.3227 -2.0112
  704SOL     OW 2110   0.050   1.863   0.799  0.2559 -0.0758 -0.3331
  704SOL    HW1 2111   0.003   1.867   0.888  1.0421 -3.3235 -1.2974
  704SOL    HW2 2112   3.083   1.845   0.725 -1.0947 -0.5589 -2.2505
  705SOL     OW 2113   2.968   3.067   2.159  0.0368 -0.9857  0.5809
  705SOL    HW1 2114   3.072   3.049   2.160 -0.0169 -1.7213 -1.1085
  705SOL    HW2 2115   2.917   3.007   2.095  0.3422 -1.0794  0.8419
  706SOL     OW 2116   1.923   3.011   0.247 -0.1633  0.1153 -0.1879
  706SOL    HW1 2117   1.904   2.911   0.232  1.2149 -1.2797  0.5479
  706SOL    HW2 2118   1.866   3.077   0.195  1.3279  1.4010 -0.6800
  707SOL     OW 2119   0.890   1.844   2.086  0.4004  0.1245  0.6084
  707SOL    HW1 2120   0.972   1.883   2.133 -2.6181 -0.7625  0.8041
  707SOL    HW2 2121   0.883   1.739   2.082  0.3575 -3.6288 -0.4994
  708SOL     OW 2122   0.118   2.547   1.794  0.4316 -0.5530  0.0518
  708SOL    HW1 2123   0.216   2.549   1.768 -0.0134 -0.1211  2.2149
  708SOL    HW2 2124   0.075   2.633   1.758  1.1903 -0.3296  0.6038
  709SOL     OW 2125   2.210   3.076   1.826  0.3765 -0.0002 -0.0217
  709SOL    HW1 2126   2.147   2.997   1.831 -2.3845 -0.9163 -0.2074
  709SOL    HW2 2127   2.249   3.074   1.736 -2.1509  0.6852 -0.0269
  710SOL     OW 2128   2.118   0.844   2.641 -0.3844 -0.4886  0.3279
  710SOL    HW1 2129   2.044   0.905   2.679  0.0747  0.3982  0.5933
  710SOL    HW2 2130   2.159   0.774   2.704  1.4458  0.4842 -0.3065
  711SOL     OW 2131   1.110   2.315   3.024  0.1806 -0.1351 -0.0326
  711SOL    HW1 2132   1.106   2.304   0.028 -1.2634  1.0385  0.2654
  711SOL    HW2 2133   1.156   2.402   2.997  1.1733  2.3694 -1.7531
  712SOL     OW 2134   0.627   2.469   2.127 -0.7089 -0.0251  0.9791
  712SOL    HW1 2135   0.553   2.539   2.120 -0.1006  0.9235  0.0944
  712SOL    HW2 2136   0.595   2.380   2.164 -0.1753  1.2318  0.5502
  713SOL     OW 2137   1.761   1.171   0.142 -0.7711  0.0391 -0.9514
  713SOL    HW1 2138   1.699   1.137   0.066 -1.9675  0.8413 -0.9646
  713SOL    HW2 2139   1.813   1.247   0.104  1.2779 -0.7394 -1.1874
  714SOL     OW 2140   0.680   1.195   1.297  0.7003  0.3231 -0.0040
  714SOL    HW1 2141   0.632   1.208   1.389 -1.5369  1.2434  0.7203
  714SOL    HW2 2142   0.634   1.250   1.226  0.1666  0.1064  1.4455
  715SOL     OW 2143   2.020   0.244   2.954 -0.4048  0.4071  0.1776
  715SOL    HW1 2144   1.934   0.287   2.920  0.7893  0.0601 -1.3293
  715SOL    HW2 2145   2.036   0.270   3.050  2.4185  0.2493  0.2111
  716SOL     OW 2146   2.876   2.872   1.989  0.3973 -0.3841 -0.6376
  716SOL    HW1 2147   2.895   2.921   1.902  1.1608 -0.7654  1.9943
  716SOL    HW2 2148   2.961   2.817   2.009 -1.1452 -1.2444  0.0162
  717SOL     OW 2149   0.152   0.693   0.913 -0.5553  0.0465 -0.1864
  717SOL    HW1 2150   0.135   0.679   0.815 -1.8131 -1.1912  0.8066
  717SOL    HW2 2151   0.134   0.606   0.966 -0.0921 -0.4541 -0.6743
  718SOL     OW 2152   0.545   1.312   2.286 -0.1319 -0.0614 -1.0779
  718SOL    HW1 2153   0.585   1.390   2.329 -0.7070 -0.4323 -0.8565
  718SOL    HW2 2154   0.564   1.311   2.185 -2.2966  2.2370 -0.4798
  719SOL     OW 2155   2.439   1.228   3.092 -0.3711 -0.5602 -0.1422
  719SOL    HW1 2156   2.379   1.183   0.066  0.8257  2.7764  0.0745
  719SOL    HW2 2157   2.527   1.180   3.096 -3.0630 -0.6094  1.0488
  720SOL     OW 2158   1.165   0.756   0.844  0.6396  0.0579  0.0970
  720SOL    HW1 2159   1.084   0.698   0.870  1.1305  0.7495 -1.5997
  720SOL    HW2 2160   1.143   0.857   0.856 -2.1110  2.9434  2.1005
  721SOL     OW 2161   2.544   0.374   0.213 -0.4946  0.0006 -0.2028
  721SOL    HW1 2162   2.627   0.380   0.160 -1.0584 -2.1998 -0.5182
  721SOL    HW2 2163   2.496   0.297   0.170 -1.3671 -1.7604 -0.7805
  722SOL     OW 2164   1.924   0.569   2.750  0.3780 -0.0914 -0.1014
  722SOL    HW1 2165   2.023   0.555   2.761 -1.2937  0.8803 -0.3601
  722SOL    HW2 2166   1.876   0.495   2.704  0.9851  2.1291  2.9254
  723SOL     OW 2167   2.886   0.734   0.406 -0.2272  0.1264  1.2267
  723SOL    HW1 2168   2.876   0.656   0.471 -0.8193  0.5060  0.0192
  723SOL    HW2 2169   2.965   0.718   0.349 -1.0023  0.4050  2.8208
  724SOL     OW 2170   0.863   1.567   2.082 -0.3853 -0.2357 -0.6055
  724SOL    HW1 2171   0.924   1.527   2.164  0.2826 -2.6115  3.4386
  724SOL    HW2 2172   0.876   1.502   2.000  1.6526 -1.3658 -1.1065
  725SOL     OW 2173   1.844   0.695   2.054 -1.0672 -0.0033 -0.6998
  725SOL    HW1 2174   1.938   0.744   2.055  2.1688  0.2879  0.1228
  725SOL    HW2 2175   1.835   0.635   1.972  2.0980  0.7104  2.4189
  726SOL     OW 2176   1.450   2.865   0.567  0.0499 -0.1880  0.1733
  726SOL    HW1 2177   1.551   2.843   0.564  1.8994  2.1333  0.8504
  726SOL    HW2 2178   1.390   2.817   0.498 -2.6201  0.5562 -3.0152
  727SOL     OW 2179   1.503   1.690   2.061  0.0981  0.0227 -0.2862
  727SOL    HW1 2180   1.406   1.659   2.073 -0.2156 -0.4323 -1.4680
  727SOL    HW2 2181   1.524   1.705   1.961 -1.2706  0.5013  0.1944
  728SOL     OW 2182   1.844   2.975   1.716  0.4325 -0.2568  0.1413
  728SOL    HW1 2183   1.774   2.903   1.745 -0.8908 -1.1665  0.5453
  728SOL    HW2 2184   1.934   2.963   1.766  0.9206 -1.1279  1.0204
  729SOL     OW 2185   2.175   1.205   0.819  0.1073 -0.3526  0.0972
  729SOL    HW1 2186   2.130   1.294   0.821  2.3216  0.0723  0.3016
  729SOL    HW2 2187   2.163   1.150   0.737  1.4417 -1.9581 -0.4218
  730SOL     OW 2188   0.594   1.321   2.626 -0.5400 -0.3890 -0.4076
  730SOL    HW1 2189   0.681   1.365   2.653 -1.7766  1.6048 -1.8580
  730SOL    HW2 2190   0.607   1.257   2.549  0.1416 -1.2246  1.7192
  731SOL     OW 2191   0.135   0.072   0.768  0.0113  0.2809 -0.0381
  731SOL    HW1 2192   0.140   3.083   0.714 -2.7616 -1.3734 -1.8378
  731SOL    HW2 2193   0.170   0.053   0.863  0.9776  0.2938  0.4812
  732SOL     OW 2194   1.388   0.931   0.409  0.0953  0.4367 -0.7169
  732SOL    HW1 2195   1.324   0.966   0.342 -0.5896  0.3701  0.2174
  732SOL    HW2 2196   1.333   0.874   0.471 -1.7437 -0.5438 -1.4466
  733SOL     OW 2197   0.612   1.641   0.884 -0.0544  0.2227 -0.2693
  733SOL    HW1 2198   0.637   1.541   0.884 -2.3534  1.5725 -0.6021
  733SOL    HW2 2199   0.567   1.680   0.800  2.2438  0.7535  1.6789
  734SOL     OW 2200   3.012   2.402   0.250 -0.4984  0.1773  0.1904
  734SOL    HW1 2201   2.949   2.341   0.195 -0.8782 -1.4705 -0.0888
  734SOL    HW2 2202   2.982   2.397   0.352 -2.0887 -1.6471  0.5636
  735SOL     OW 2203   1.236   0.699   1.248 -0.0813  0.6054  0.0398
  735SOL    HW1 2204   1.206   0.611   1.198 -2.2125 -1.6220 -3.7214
  735SOL    HW2 2205   1.336   0.692   1.278  0.2386  1.2747 -1.5559
  736SOL     OW 2206   2.444   2.474   0.095  0.1272  0.3936  0.2155
  736SOL    HW1 2207   2.459   2.547   0.023  1.4508 -1.7451 -0.2590
  736SOL    HW2 2208   2.357   2.492   0.142  1.1224  3.0542 -2.2226
  737SOL     OW 2209   2.796   0.555   0.819 -0.0832 -0.1162 -0.0144
  737SOL    HW1 2210   2.725   0.517   0.882 -0.5788 -0.0064 -0.9738
  737SOL    HW2 2211   2.813   0.654   0.838 -0.2987 -1.6117 -0.6527
  738SOL     OW 2212   2.482   0.202   1.034 -0.6156  0.3909  0.3509
  738SOL    HW1 2213   2.446   0.186   1.126  1.0482 -0.6551 -2.3637
  738SOL    HW2 2214   2.434   0.154   0.961 -0.0589 -0.4917  1.6122
  739SOL     OW 2215   1.384   2.602   0.285  0.3218  0.1666  0.1171
  739SOL    HW1 2216   1.385   2.503   0.304  0.7052  1.0871 -1.1771
  739SOL    HW2 2217   1.319   2.643   0.357 -1.3208 -1.1958  0.0851
  740SOL     OW 2218   1.556   0.515   0.980  0.1078  0.1738 -0.0133
  740SOL    HW1 2219   1.503   0.584   0.929 -1.4448  2.7603 -0.0423
  740SOL    HW2 2220   1.657   0.532   0.987  0.6722  0.1805 -0.9211
  741SOL     OW 2221   2.801   0.803   0.884  0.4441 -0.2481  0.4052
  741SOL    HW1 2222   2.882   0.866   0.867 -2.4007 -0.4419  0.0228
  741SOL    HW2 2223   2.718   0.857   0.855 -0.6962 -0.2855 -0.9498
  742SOL     OW 2224   0.820   1.451   2.697  0.1134  0.3735  0.1766
  742SOL    HW1 2225   0.829   1.477   2.601 -1.5175 -2.6249  0.6341
  742SOL    HW2 2226   0.759   1.512   2.748  2.9494 -0.8140 -0.2901
  743SOL     OW 2227   1.496   0.772   1.924  0.1857 -0.7313  0.1145
  743SOL    HW1 2228   1.572   0.830   1.882 -1.1729 -0.6408 -3.2268
  743SOL    HW2 2229   1.465   0.821   2.011 -1.9472  0.0679  0.6816
  744SOL     OW 2230   2.175   0.926   1.665  0.0439  0.3727 -0.3776
  744SOL    HW1 2231   2.210   0.905   1.572 -0.0313  0.1078 -0.3805
  744SOL    HW2 2232   2.233   1.001   1.716 -1.9199 -0.2549  3.8698
  745SOL     OW 2233   1.541   1.695   1.449  0.3022 -0.0510 -0.3456
  745SOL    HW1 2234   1.538   1.652   1.355  2.1758  0.1792 -0.1489
  745SOL    HW2 2235   1.563   1.621   1.518  1.2925 -0.3313  2.1814
  746SOL     OW 2236   1.806   1.711   0.774  0.3508 -0.0972  0.4255
  746SOL    HW1 2237   1.736   1.782   0.783  1.9104  1.3790  0.2545
  746SOL    HW2 2238   1.764   1.616   0.759 -1.4080 -1.6586 -0.8479
  747SOL     OW 2239   2.204   1.636   0.997  0.5021 -0.2777 -0.1739
  747SOL    HW1 2240   2.276   1.686   0.947  1.5822  1.2645  0.7457
  747SOL    HW2 2241   2.159   1.565   0.936  1.1841 -0.8676  0.0827
  748SOL     OW 2242   0.709   2.073   0.999  0.1095  0.3491  0.9473
  748SOL    HW1 2243   0.643   2.085   0.922 -2.0888  1.4091  0.9815
  748SOL    HW2 2244   0.676   2.126   1.082 -1.1232 -0.3976 -1.6246
  749SOL     OW 2245   2.445   3.020   1.974 -0.1126 -0.5790 -0.1023
  749SOL    HW1 2246   2.370   3.059   1.911 -1.1867  3.1618 -1.6895
  749SOL    HW2 2247   2.419   2.929   2.011 -0.5162  3.5225 -4.7578
  750SOL     OW 2248   2.371   0.485   0.771 -0.1933 -0.2422 -0.1327
  750SOL    HW1 2249   2.396   0.456   0.677  1.0832  0.7954 -0.6562
  750SOL    HW2 2250   2.362   0.588   0.774  0.2083 -1.6028 -0.2305
  751SOL     OW 2251   2.607   2.946   0.498  0.4523  0.1670  0.2013
  751SOL    HW1 2252   2.664   2.869   0.532 -0.0360  1.2217 -2.7166
  751SOL    HW2 2253   2.628   2.970   0.405 -1.6501 -0.5861  3.4140
  752SOL     OW 2254   0.136   2.940   0.574 -0.2326  0.0104  0.1216
  752SOL    HW1 2255   0.052   2.916   0.525  0.0200 -0.4820  3.9346
  752SOL    HW2 2256   0.197   2.983   0.502 -1.6633  0.5860  1.1964
  753SOL     OW 2257   1.666   0.862   2.176 -0.1552  0.4482 -0.1663
  753SOL    HW1 2258   1.716   0.795   2.115 -0.8702 -0.9989  1.9662
  753SOL    HW2 2259   1.732   0.914   2.225  0.4869 -0.2193 -1.3778
  754SOL     OW 2260   1.292   2.397   2.110 -0.0552  0.1264 -0.2353
  754SOL    HW1 2261   1.300   2.439   2.022  1.1374  2.0065  0.6822
  754SOL    HW2 2262   1.333   2.305   2.111 -1.5215  0.2358 -0.5221
  755SOL     OW 2263   2.550   0.661   0.541 -0.0234 -0.1289  0.3415
  755SOL    HW1 2264   2.515   0.678   0.633  0.8400 -3.1798 -2.1224
  755SOL    HW2 2265   2.571   0.751   0.493  0.1188 -0.0565 -1.2034
  756SOL     OW 2266   1.019   1.705   2.643 -0.4297 -0.1897  0.3342
  756SOL    HW1 2267   1.065   1.643   2.710  0.1699 -1.1941 -1.2046
  756SOL    HW2 2268   0.925   1.737   2.679 -2.7129 -0.1289 -1.2648
  757SOL     OW 2269   0.883   3.064   0.665 -0.4968  0.4157 -0.6140
  757SOL    HW1 2270   0.836   3.040   0.757 -1.8615  1.5060 -0.6614
  757SOL    HW2 2271   0.981   3.083   0.681 -1.7706  0.8778  0.8294
  758SOL     OW 2272   1.113   0.057   1.164  0.1047 -0.0982 -0.1253
  758SOL    HW1 2273   1.086   3.081   1.100  0.6770  0.2610 -1.6912
  758SOL    HW2 2274   1.055   0.057   1.246  1.9788 -1.4875 -3.0184
  759SOL     OW 2275   0.398   0.630   0.740 -0.1523  0.6287 -0.2500
  759SOL    HW1 2276   0.317   0.620   0.679  0.8000 -0.9018  1.0020
  759SOL    HW2 2277   0.402   0.558   0.814  1.5756  2.5149 -0.2082
  760SOL     OW 2278   2.402   1.012   1.107  0.3575  0.5044  0.3677
  760SOL    HW1 2279   2.473   0.942   1.119 -0.1011  0.7448  2.5533
  760SOL    HW2 2280   2.435   1.108   1.128  2.3637  2.0861  0.3954
  761SOL     OW 2281   1.812   0.595   0.715 -0.3077 -0.9926  0.0986
  761SOL    HW1 2282   1.736   0.539   0.666  0.1368 -1.7455  0.7363
  761SOL    HW2 2283   1.824   0.562   0.814 -1.3240 -1.1215  2.0830
  762SOL     OW 2284   2.075   2.014   0.568  0.3468  0.0125  0.2275
  762SOL    HW1 2285   2.057   1.917   0.532 -3.4773 -0.5285 -0.8301
  762SOL    HW2 2286   2.034   2.084   0.505 -2.6549  0.7492 -2.9187
  763SOL     OW 2287   1.296   1.437   1.944 -0.1462 -0.1721 -0.1627
  763SOL    HW1 2288   1.272   1.515   2.004 -0.9855  1.8064 -1.8339
  763SOL    HW2 2289   1.219   1.426   1.881 -3.1508 -2.8172 -1.0224
  764SOL     OW 2290   2.541   2.039   2.447 -0.5380  0.4416  0.3364
  764SOL    HW1 2291   2.544   2.128   2.492  0.9038  2.0867  0.3231
  764SOL    HW2 2292   2.567   2.047   2.349  1.1403  0.1383  1.5335
  765SOL     OW 2293   0.772   2.430   1.108 -0.0593 -0.6149 -0.2022
  765SOL    HW1 2294   0.725   2.415   1.023  0.6480  0.7149 -0.0482
  765SOL    HW2 2295   0.780   2.531   1.117 -3.5761  1.3089 -1.9600
  766SOL     OW 2296   0.061   1.398   2.451 -0.6030 -0.5420 -0.6247
  766SOL    HW1 2297   0.153   1.405   2.408  0.7445 -0.2187 -0.4130
  766SOL    HW2 2298   3.091   1.413   2.380  0.8141 -1.8124  1.4979
  767SOL     OW 2299   2.215   0.646   2.784 -0.4128 -0.1487  0.3893
  767SOL    HW1 2300   2.235   0.548   2.770 -0.8749  0.0014 -0.0849
  767SOL    HW2 2301   2.277   0.693   2.851  4.1851 -0.2962 -1.8634
  768SOL     OW 2302   0.862   3.094   2.706  0.1841  0.1920 -0.6931
  768SOL    HW1 2303   0.802   0.043   2.776 -1.6330 -0.8069  1.4701
  768SOL    HW2 2304   0.808   3.039   2.642  1.1764  1.1429  2.0030
  769SOL     OW 2305   0.114   2.385   0.887 -0.0564 -0.4165 -0.0123
  769SOL    HW1 2306   0.143   2.454   0.822 -0.0010 -3.5216  1.5325
  769SOL    HW2 2307   0.017   2.364   0.872  1.3584  2.0052 -1.8543
  770SOL     OW 2308   0.772   0.126   0.148 -0.4436  0.5627 -0.0502
  770SOL    HW1 2309   0.861   0.153   0.112 -0.9801  0.1807  0.0309
  770SOL    HW2 2310   0.707   0.202   0.166  0.0330  2.0819  1.2368
  771SOL     OW 2311   1.168   1.869   2.469  0.5249  0.0787 -0.2295
  771SOL    HW1 2312   1.113   1.807   2.524  0.2798 -1.3346 -2.1776
  771SOL    HW2 2313   1.223   1.937   2.522 -3.1785 -1.4537  0.4637
  772SOL     OW 2314   2.460   3.082   2.263  0.1381 -0.0110  0.1048
  772SOL    HW1 2315   2.487   3.095   2.167 -0.0600 -0.5460 -1.6594
  772SOL    HW2 2316   2.359   3.088   2.269 -0.4468 -0.4420  1.6671
  773SOL     OW 2317   1.477   0.178   2.101 -0.0294  0.3394  0.5110
  773SOL    HW1 2318   1.552   0.243   2.109 -3.2240 -0.9720  0.7845
  773SOL    HW2 2319   1.511   0.106   2.039 -1.7091  1.9243  2.0713
  774SOL     OW 2320   1.483   0.899   1.585 -0.7378  0.0246 -0.2203
  774SOL    HW1 2321   1.394   0.932   1.620 -0.5417  0.8439  1.0107
  774SOL    HW2 2322   1.521   0.967   1.516  0.8816 -1.3058 -2.6126
  775SOL     OW 2323   2.280   2.966   0.325  0.1003  0.9266 -0.1309
  775SOL    HW1 2324   2.347   3.042   0.358  0.7717  2.3147 -0.3347
  775SOL    HW2 2325   2.297   2.956   0.223  1.0184 -0.5075 -2.2002
  776SOL     OW 2326   2.073   0.892   2.148  0.1382 -0.2170 -0.0052
  776SOL    HW1 2327   1.992   0.951   2.128 -0.6081  0.0837 -0.5308
  776SOL    HW2 2328   2.144   0.917   2.080 -1.6137  2.5837 -0.1686
  777SOL     OW 2329   3.098   1.142   2.557 -0.2110 -0.0414 -0.2813
  777SOL    HW1 2330   0.063   1.073   2.519 -1.4320  0.0955  0.2870
  777SOL    HW2 2331   0.023   1.232   2.515  0.5369  1.7696 -0.2185
  778SOL     OW 2332   2.345   0.984   2.542  0.0553 -0.1421 -0.1538
  778SOL    HW1 2333   2.275   0.944   2.607  1.1013  0.8445  1.5760
  778SOL    HW2 2334   2.429   0.924   2.540 -2.1494 -3.6449  0.7780
  779SOL     OW 2335   2.896   0.414   2.612 -0.1415 -0.0319 -0.2564
  779SOL    HW1 2336   2.929   0.451   2.524  1.4044 -0.1189  2.5114
  779SOL    HW2 2337   2.897   0.312   2.604 -1.2161 -0.1588 -1.5749
  780SOL     OW 2338   2.417   2.648   2.331  0.3941  0.0106 -0.5166
  780SOL    HW1 2339   2.329   2.599   2.298  0.4290  0.5540 -2.1484
  780SOL    HW2 2340   2.485   2.680   2.260 -0.8659  1.1362 -1.1406
  781SOL     OW 2341   3.092   1.074   1.846 -0.0357  0.1194  0.3276
  781SOL    HW1 2342   3.075   1.062   1.947 -0.0141  0.8450 -1.8749
  781SOL    HW2 2343   3.023   1.021   1.793  2.1080 -2.3635  0.2470
  782SOL     OW 2344   1.932   2.322   3.053  0.5981 -0.2853 -0.2657
  782SOL    HW1 2345   1.843   2.298   3.010  1.1755 -0.5416  1.5940
  782SOL    HW2 2346   1.998   2.245   3.042  0.7170  1.9894  0.9311
  783SOL     OW 2347   0.535   2.269   1.163  0.6515 -0.0181 -0.4250
  783SOL    HW1 2348   0.457   2.315   1.113  1.2646  1.1516 -0.1930
  783SOL    HW2 2349   0.613   2.333   1.173 -1.4727 -0.8651 -0.5026
  784SOL     OW 2350   2.431   0.669   2.291  0.2394 -0.1214 -0.2665
  784SOL    HW1 2351   2.386   0.626   2.213  2.3315  1.6057 -1.0618
  784SOL    HW2 2352   2.479   0.756   2.266 -0.3645  0.3739 -0.3457
  785SOL     OW 2353   0.088   0.121   1.192 -0.7450 -0.5343 -0.3405
  785SOL    HW1 2354   0.090   0.223   1.216 -2.1920 -0.3272 -0.3024
  785SOL    HW2 2355   0.023   0.065   1.246 -0.9963  1.3861 -0.2540
  786SOL     OW 2356   1.203   2.732   0.433 -0.3316 -0.0255 -0.1539
  786SOL    HW1 2357   1.183   2.710   0.529  1.2263  0.2616  2.0098
  786SOL    HW2 2358   1.113   2.725   0.387  0.2696  0.6604  0.9659
  787SOL     OW 2359   1.340   0.146   0.767 -0.4949 -0.0538 -0.5922
  787SOL    HW1 2360   1.345   0.178   0.671 -1.9297  1.5823 -0.1584
  787SOL    HW2 2361   1.369   0.047   0.772 -1.1133 -0.6164 -0.8572
  788SOL     OW 2362   2.992   1.385   1.173 -0.2520  0.0873  0.4157
  788SOL    HW1 2363   3.046   1.464   1.137  0.4844  1.1285 -2.3310
  788SOL    HW2 2364   3.056   1.329   1.230  0.7760  0.1943  0.7951
  789SOL     OW 2365   2.832   0.673   2.137  0.1330  0.2434 -0.1527
  789SOL    HW1 2366   2.777   0.750   2.170 -0.1346  1.1160 -2.1140
  789SOL    HW2 2367   2.887   0.643   2.218  3.0086  1.1017 -0.0873
  790SOL     OW 2368   1.097   0.758   2.833 -0.0495  0.4345  0.0239
  790SOL    HW1 2369   1.163   0.802   2.766  1.0090  0.8347 -4.1209
  790SOL    HW2 2370   1.027   0.827   2.862 -0.7248  1.6432  0.1207
  791SOL     OW 2371   0.061   2.643   0.263  0.3353  0.2440  0.5387
  791SOL    HW1 2372   0.134   2.617   0.195  2.0058  1.6322  0.3297
  791SOL    HW2 2373   3.084   2.575   0.262 -0.6412  0.4857  0.5030
  792SOL     OW 2374   1.279   0.694   1.778 -0.3023 -0.2056 -0.3969
  792SOL    HW1 2375   1.361   0.737   1.823 -1.6049 -1.4194 -1.2510
  792SOL    HW2 2376   1.298   0.645   1.689 -0.5018  2.5234 -0.7072
  793SOL     OW 2377   2.958   0.451   1.238 -0.4667  0.3282 -0.1210
  793SOL    HW1 2378   2.890   0.458   1.313  1.8072 -0.0339  0.0548
  793SOL    HW2 2379   2.910   0.435   1.150 -0.8100  0.8089  2.0272
  794SOL     OW 2380   2.989   0.232   2.082 -0.5040 -0.2470  0.4247
  794SOL    HW1 2381   2.969   0.134   2.088  1.5630  0.3379  0.2574
  794SOL    HW2 2382   3.083   0.248   2.119 -2.1262 -1.3457 -0.3835
  795SOL     OW 2383   0.420   1.890   0.062 -0.1122 -0.3091  0.2606
  795SOL    HW1 2384   0.431   1.807   0.120 -0.6438 -0.0009 -1.1976
  795SOL    HW2 2385   0.510   1.938   0.040  1.2964  0.3991 -1.9783
  796SOL     OW 2386   2.795   0.829   3.086  0.1633  0.7307 -0.5075
  796SOL    HW1 2387   2.723   0.775   3.030 -1.7812 -0.2908 -0.9814
  796SOL    HW2 2388   2.764   0.837   0.083 -1.0070 -0.4871 -4.0127
  797SOL     OW 2389   2.558   2.290   2.615  0.3219 -0.0382 -0.5390
  797SOL    HW1 2390   2.510   2.348   2.683 -1.3066 -1.1461  0.6395
  797SOL    HW2 2391   2.610   2.347   2.551  1.3058 -1.8306 -0.2249
  798SOL     OW 2392   2.863   0.066   1.089 -0.4664 -0.1254 -0.3125
  798SOL    HW1 2393   2.943   0.031   1.147 -1.1984 -0.9163 -1.9362
  798SOL    HW2 2394   2.886   0.160   1.057 -1.2623 -0.2811 -0.5350
  799SOL     OW 2395   0.170   0.242   1.546  0.0659  0.7032 -0.0328
  799SOL    HW1 2396   0.259   0.294   1.569  1.6083  0.1107  0.9775
  799SOL    HW2 2397   0.132   0.257   1.453 -1.9317 -3.9169 -0.7285
  800SOL     OW 2398   0.397   1.666   0.222  0.0964  0.4179 -0.1559
  800SOL    HW1 2399   0.328   1.627   0.150  0.5875  0.7484 -2.9561
  800SOL    HW2 2400   0.410   1.607   0.302  1.0170  0.7940  0.9571
  801SOL     OW 2401   1.590   2.046   0.567 -0.4535 -0.5048 -0.1480
  801SOL    HW1 2402   1.498   2.066   0.533 -1.6085 -0.5557 -0.3137
  801SOL    HW2 2403   1.584   1.995   0.657  1.7759  0.2692 -2.6006
  802SOL     OW 2404   1.314   1.030   2.987  0.0306  0.0761 -0.7421
  802SOL    HW1 2405   1.335   0.966   2.912  1.0474 -0.3301  0.0592
  802SOL    HW2 2406   1.256   0.984   3.057 -0.5165 -2.3100 -2.2749
  803SOL     OW 2407   1.075   1.742   1.843 -0.0205 -0.1779 -0.0387
  803SOL    HW1 2408   1.065   1.846   1.837  0.0245  0.7267 -0.1794
  803SOL    HW2 2409   1.088   1.702   1.936 -4.6206 -0.2204  1.8817
  804SOL     OW 2410   1.532   2.436   1.003 -0.0705  0.7001  0.1916
  804SOL    HW1 2411   1.610   2.396   0.953 -2.3463  1.0329 -0.5045
  804SOL    HW2 2412   1.484   2.362   1.053  2.1980  2.6923 -0.0127
  805SOL     OW 2413   0.052   2.446   2.089 -0.3305  0.2789 -0.2228
  805SOL    HW1 2414   0.043   2.386   2.009 -0.7266  0.7759 -0.9106
  805SOL    HW2 2415   0.149   2.468   2.117 -0.8610  1.2398  1.8770
  806SOL     OW 2416   0.284   3.097   0.410 -0.3797 -0.2011  0.0283
  806SOL    HW1 2417   0.266   0.097   0.407  0.3492 -0.7744  1.3008
  806SOL    HW2 2418   0.320   3.064   0.324 -1.8455  0.8440 -0.5896
  807SOL     OW 2419   2.610   0.758   2.895 -0.0336  0.1624  0.1407
  807SOL    HW1 2420   2.523   0.799   2.927  3.2713 -2.6333 -0.8006
  807SOL    HW2 2421   2.593   0.656   2.866  0.5998  0.0844  0.5848
  808SOL     OW 2422   1.332   2.466   0.817  0.3900  0.2002  0.0643
  808SOL    HW1 2423   1.297   2.374   0.840 -4.0487  2.9552 -2.2230
  808SOL    HW2 2424   1.406   2.493   0.882  1.8707 -2.9470  0.3151
  809SOL     OW 2425   3.014   0.157   0.388 -0.3236 -0.1549 -0.7114
  809SOL    HW1 2426   2.988   0.086   0.317  0.9958 -0.7044 -1.4042
  809SOL    HW2 2427   0.015   0.186   0.382 -1.5531 -2.4051  2.2387
  810SOL     OW 2428   1.249   1.317   0.972  0.6465  0.5525 -0.4798
  810SOL    HW1 2429   1.203   1.318   1.064 -1.8490 -0.6225  1.6093
  810SOL    HW2 2430   1.326   1.247   0.977  0.6328 -1.2484  0.8764
  811SOL     OW 2431   1.453   2.884   1.247  0.0881  0.2434 -0.8202
  811SOL    HW1 2432   1.450   2.931   1.337  0.7249 -1.4972 -0.6131
  811SOL    HW2 2433   1.361   2.854   1.214 -1.1696 -0.7306  0.9995
  812SOL     OW 2434   1.393   0.372   0.175  0.1957  0.3977 -0.1951
  812SOL    HW1 2435   1.435   0.302   0.239  2.1091 -1.2595 -0.1241
  812SOL    HW2 2436   1.292   0.381   0.199 -1.3797 -1.5125  0.5144
  813SOL     OW 2437   1.161   3.069   2.006  0.0927  0.2493  0.1444
  813SOL    HW1 2438   1.151   0.059   2.054 -2.2061  1.3386 -2.9055
  813SOL    HW2 2439   1.199   2.991   2.058  1.2821  1.4246 -1.5676
  814SOL     OW 2440   0.500   2.929   0.900 -0.0321 -0.2107 -0.1619
  814SOL    HW1 2441   0.482   2.903   0.992  1.9764  1.1497 -1.6753
  814SOL    HW2 2442   0.439   2.877   0.840  0.8025 -0.0027 -0.1125
  815SOL     OW 2443   0.198   2.560   0.692 -0.5562  0.1411  0.0000
  815SOL    HW1 2444   0.113   2.554   0.632 -1.8473 -2.7918 -1.4650
  815SOL    HW2 2445   0.263   2.489   0.658 -1.0513 -0.8204 -0.0374
  816SOL     OW 2446   2.604   1.430   2.633  0.2031 -0.7289 -0.6893
  816SOL    HW1 2447   2.568   1.347   2.673  0.4007  2.7100 -0.6929
  816SOL    HW2 2448   2.561   1.455   2.549  3.1196  0.7568  1.8198
  817SOL     OW 2449   1.703   2.617   2.847 -0.3011 -0.0518  0.0390
  817SOL    HW1 2450   1.735   2.523   2.883 -1.0938 -0.6469 -0.4283
  817SOL    HW2 2451   1.780   2.671   2.801 -1.3744  1.4624  1.2265
  818SOL     OW 2452   1.473   1.184   0.411 -0.2815  0.0249  0.2786
  818SOL    HW1 2453   1.458   1.206   0.309  0.2275  0.6985 -1.0858
  818SOL    HW2 2454   1.449   1.089   0.434  1.8829  1.6826  0.6890
  819SOL     OW 2455   1.498   2.045   2.854  0.3596  0.4517  0.2407
  819SOL    HW1 2456   1.483   2.081   2.951  1.0567  1.9527  0.1271
  819SOL    HW2 2457   1.414   2.000   2.826 -1.8467 -0.5842  2.8816
  820SOL     OW 2458   0.640   0.753   0.147  0.3312  0.2142 -0.3946
  820SOL    HW1 2459   0.629   0.736   0.048  1.4274  0.3772 -0.1084
  820SOL    HW2 2460   0.623   0.666   0.190  0.9435  0.8460 -0.7117
  821SOL     OW 2461   0.512   0.025   1.105 -0.3392  0.5252 -0.2282
  821SOL    HW1 2462   0.566   0.002   1.018  0.7114  0.9455 -1.3990
  821SOL    HW2 2463   0.570   0.080   1.164  0.6245 -1.1982  1.6850
  822SOL     OW 2464   1.677   2.609   2.403  0.1796  0.2833  0.4199
  822SOL    HW1 2465   1.648   2.526   2.449 -0.5895  0.6480  1.3504
  822SOL    HW2 2466   1.635   2.602   2.307 -3.9405 -1.3460 -1.9132
  823SOL     OW 2467   0.984   0.841   2.135 -0.1894  0.1286  0.4562
  823SOL    HW1 2468   1.035   0.780   2.074 -2.1358  3.5595 -1.2751
  823SOL    HW2 2469   0.990   0.805   2.232  0.8251  2.5960  3.3549
  824SOL     OW 2470   2.320   0.302   1.504  0.1375 -0.5363  0.3249
  824SOL    HW1 2471   2.237   0.254   1.463  0.3176  1.3898  0.3823
  824SOL    HW2 2472   2.364   0.237   1.570  1.7970 -1.6104  2.8768
  825SOL     OW 2473   0.777   1.371   0.113 -0.3395 -0.0792 -0.5649
  825SOL    HW1 2474   0.833   1.284   0.095 -1.9673 -0.5392 -2.2828
  825SOL    HW2 2475   0.763   1.422   0.027  2.1434  0.6934 -2.1985
  826SOL     OW 2476   1.844   0.380   2.584 -0.8570  0.2096 -0.1436
  826SOL    HW1 2477   1.896   0.293   2.557 -0.0700  1.4976  0.9979
  826SOL    HW2 2478   1.755   0.398   2.535  1.6098  1.1384  0.1680
  827SOL     OW 2479   0.635   2.282   2.545  0.5852 -0.2995  0.1066
  827SOL    HW1 2480   0.593   2.304   2.456 -1.3858  0.5524  0.8651
  827SOL    HW2 2481   0.565   2.296   2.623  0.7847  1.1187 -0.5159
  828SOL     OW 2482   2.710   0.130   1.320 -0.5934  0.3101  0.6529
  828SOL    HW1 2483   2.762   0.103   1.238  1.3368  0.6998 -0.6451
  828SOL    HW2 2484   2.747   0.211   1.365 -1.6637 -0.3382 -0.0631
  829SOL     OW 2485   1.262   1.763   1.463  0.3804  0.0763 -0.0603
  829SOL    HW1 2486   1.352   1.715   1.447  2.7132 -0.3573 -0.5491
  829SOL    HW2 2487   1.202   1.703   1.527 -1.0066 -2.2853  3.1423
  830SOL     OW 2488   0.697   0.956   1.831  0.0711 -0.7171 -0.7291
  830SOL    HW1 2489   0.769   0.968   1.757 -0.4189 -2.8676  0.0868
  830SOL    HW2 2490   0.638   0.875   1.804 -0.9911 -0.5767  2.1091
  831SOL     OW 2491   0.002   1.754   0.123  0.1709 -0.3597  0.0193
  831SOL    HW1 2492   3.004   1.756   0.097  0.6045 -0.1836  0.1087
  831SOL    HW2 2493   0.046   1.833   0.077 -1.8480 -0.5510 -1.0246
  832SOL     OW 2494   0.897   2.828   3.013  0.2971 -0.0124 -0.0487
  832SOL    HW1 2495   0.967   2.905   3.014  0.8409  0.6934  0.4989
  832SOL    HW2 2496   0.937   2.754   3.073  1.0115 -0.4741  0.9719
  833SOL     OW 2497   2.943   0.330   1.850  0.6342  0.1509  0.7485
  833SOL    HW1 2498   2.959   0.296   1.944  0.7992 -3.3668  1.1849
  833SOL    HW2 2499   2.922   0.434   1.851 -2.7247  1.4492  0.8261
  834SOL     OW 2500   0.235   0.913   1.027  0.0294  0.1172  0.6879
  834SOL    HW1 2501   0.253   0.988   0.957 -3.5697  1.3674 -0.0019
  834SOL    HW2 2502   0.206   0.825   0.980  0.1184 -1.1462 -0.5008
  835SOL     OW 2503   2.475   2.823   0.939 -0.0777 -0.6396 -0.0086
  835SOL    HW1 2504   2.406   2.871   0.879  0.2514 -3.3239 -1.0792
  835SOL    HW2 2505   2.564   2.866   0.934 -3.8770  0.1502  3.1707
  836SOL     OW 2506   0.771   1.914   2.726 -0.3380 -0.6619  0.3853
  836SOL    HW1 2507   0.690   1.937   2.670 -0.8955 -1.9909  0.5460
  836SOL    HW2 2508   0.812   1.993   2.773 -0.2027 -0.8690  1.1934
  837SOL     OW 2509   1.778   1.976   2.883  0.2460  0.1717  0.0551
  837SOL    HW1 2510   1.677   1.965   2.890  0.2275  0.8495  1.8582
  837SOL    HW2 2511   1.839   1.895   2.903 -1.2726  0.9154  0.4440
  838SOL     OW 2512   3.053   1.056   2.116  0.5799  0.0752 -0.0956
  838SOL    HW1 2513   2.968   1.059   2.171  0.0873 -1.0992 -0.1677
  838SOL    HW2 2514   0.037   1.092   2.170  0.2882  1.6560  1.8112
  839SOL     OW 2515   0.949   0.922   2.969  0.1784 -0.5562 -0.0312
  839SOL    HW1 2516   0.943   1.010   2.923 -0.7365  0.2877  2.0972
  839SOL    HW2 2517   1.018   0.923   3.044 -2.7013 -0.5361  2.2282
  840SOL     OW 2518   1.710   0.587   0.358 -1.0908  0.4030 -0.1407
  840SOL    HW1 2519   1.696   0.687   0.372  0.2389 -0.2501 -0.1557
  840SOL    HW2 2520   1.685   0.534   0.444  0.1728 -0.2528 -0.4139
  841SOL     OW 2521   0.842   2.587   0.725  0.1525  0.3752  0.2516
  841SOL    HW1 2522   0.759   2.527   0.747 -2.4286 -0.0670 -0.4172
  841SOL    HW2 2523   0.817   2.660   0.660  3.4493 -2.9508 -2.3521
  842SOL     OW 2524   0.253   0.706   0.303  0.3155  0.3663  0.6835
  842SOL    HW1 2525   0.154   0.682   0.286  0.3711 -0.6254 -2.6616
  842SOL    HW2 2526   0.279   0.803   0.294  0.4398 -3.0991  1.2991
  843SOL     OW 2527   0.663   0.707   1.560  0.4825  0.2592 -0.2915
  843SOL    HW1 2528   0.725   0.645   1.610  2.1418 -1.3198 -1.9197
  843SOL    HW2 2529   0.591   0.743   1.624  0.0595  2.2225  1.8066
  844SOL     OW 2530   2.107   2.398   2.815 -0.2175 -0.7797 -0.1261
  844SOL    HW1 2531   2.142   2.479   2.865  2.8790 -0.8679  1.1583
  844SOL    HW2 2532   2.093   2.322   2.884  1.7524 -0.2104  0.7676
  845SOL     OW 2533   2.468   0.107   1.681 -0.3299 -0.1040  0.2873
  845SOL    HW1 2534   2.539   0.100   1.752  0.9646 -2.0690 -1.2737
  845SOL    HW2 2535   2.472   0.036   1.610 -0.0339  0.4863  2.2248
  846SOL     OW 2536   2.117   1.747   2.658  1.0612  0.3554 -0.2725
  846SOL    HW1 2537   2.191   1.681   2.679 -0.0077  2.8692  0.5927
  846SOL    HW2 2538   2.152   1.815   2.591 -0.5148 -1.1044  1.7320
  847SOL     OW 2539   2.029   2.891   1.909  0.2077 -0.1318  0.4127
  847SOL    HW1 2540   2.029   2.849   1.999  0.7616  1.2834 -2.1560
  847SOL    HW2 2541   2.032   2.816   1.836 -0.2387 -0.6179 -0.0246
  848SOL     OW 2542   0.265   2.864   0.230  0.2107 -0.1045  0.2940
  848SOL    HW1 2543   0.353   2.824   0.235 -3.0518  0.4944  0.2103
  848SOL    HW2 2544   0.187   2.809   0.271 -3.5369 -2.5645 -0.4005
  849SOL     OW 2545   0.508   2.883   1.463 -0.4608  0.2550  0.1779
  849SOL    HW1 2546   0.517   2.984   1.457 -1.8217  1.3917 -0.0513
  849SOL    HW2 2547   0.577   2.847   1.528 -0.6159 -2.1169  0.1977
  850SOL     OW 2548   0.020   1.546   0.964  0.0844 -0.1515  0.2729
  850SOL    HW1 2549   0.016   1.640   0.999 -1.6476  1.1114 -1.3886
  850SOL    HW2 2550   0.098   1.543   0.896  1.1073 -1.2219 -0.7590
  851SOL     OW 2551   3.018   0.665   2.940 -0.0711  0.3333  0.2685
  851SOL    HW1 2552   3.088   0.691   2.873 -1.9610  1.3149  0.0206
  851SOL    HW2 2553   2.970   0.741   2.979  0.3845 -3.3747  0.0926
  852SOL     OW 2554   1.925   2.189   2.471 -0.1089  0.1373  0.2087
  852SOL    HW1 2555   1.890   2.113   2.529 -0.8032 -1.4376 -0.7685
  852SOL    HW2 2556   2.004   2.157   2.413  0.6442  0.9613 -2.5095
  853SOL     OW 2557   0.695   1.825   0.431  0.0519 -0.2956  0.0358
  853SOL    HW1 2558   0.625   1.814   0.504  1.6769  0.6347  0.1422
  853SOL    HW2 2559   0.712   1.734   0.383 -0.1983 -0.7605  1.5327
  854SOL     OW 2560   1.756   1.232   1.870  0.2352  0.2365 -0.1784
  854SOL    HW1 2561   1.660   1.259   1.851 -1.0064 -1.3423  2.2249
  854SOL    HW2 2562   1.803   1.205   1.784  1.2908  2.1309  0.0935
  855SOL     OW 2563   0.303   1.966   2.727 -0.2344 -0.0699  0.2273
  855SOL    HW1 2564   0.350   1.903   2.795  2.3920 -1.3497  1.9679
  855SOL    HW2 2565   0.278   2.059   2.764 -0.2201  0.7130 -0.6267
  856SOL     OW 2566   0.400   3.069   1.800  0.0715 -0.3737  0.0567
  856SOL    HW1 2567   0.356   2.979   1.783  1.8241  1.3010 -0.3677
  856SOL    HW2 2568   0.329   0.044   1.820 -2.2520  0.0208 -0.9923
  857SOL     OW 2569   0.779   0.250   1.734 -0.2705 -0.2605 -0.2673
  857SOL    HW1 2570   0.791   0.276   1.835 -0.1344  0.5941  1.3508
  857SOL    HW2 2571   0.832   0.322   1.682 -1.3198  0.1678  2.3134
  858SOL     OW 2572   0.034   1.978   2.230  0.4889  0.1099 -0.4563
  858SOL    HW1 2573   3.058   1.936   2.286 -1.0354 -0.6537 -0.6793
  858SOL    HW2 2574   0.028   2.079   2.240 -1.5484 -2.2862 -0.2738
  859SOL     OW 2575   2.010   2.451   0.941 -0.7055 -0.1183 -0.7656
  859SOL    HW1 2576   2.025   2.450   1.047  2.8893 -0.8481  2.9739
  859SOL    HW2 2577   1.920   2.409   0.919 -0.3474  2.1948  1.1123
  860SOL     OW 2578   2.010   0.641   0.521  0.4384  0.5753  0.3609
  860SOL    HW1 2579   2.052   0.548   0.534 -1.2663  0.3475 -0.1665
  860SOL    HW2 2580   1.939   0.649   0.595  0.0992  1.7091  2.5169
  861SOL     OW 2581   0.395   0.402   0.902  0.2932 -0.4368 -0.0260
  861SOL    HW1 2582   0.457   0.426   0.983 -2.5000  0.9800  1.0671
  861SOL    HW2 2583   0.298   0.411   0.926  2.3452 -0.3886 -4.3405
  862SOL     OW 2584   2.253   0.696   1.781  0.2429 -0.7185  0.2905
  862SOL    HW1 2585   2.225   0.605   1.753  0.5725  0.8086 -2.7009
  862SOL    HW2 2586   2.212   0.770   1.723 -1.8395  0.3718  2.6066
  863SOL     OW 2587   0.329   1.368   1.321  0.6272 -0.9780  0.0438
  863SOL    HW1 2588   0.348   1.315   1.235  0.6439 -1.2178 -0.1429
  863SOL    HW2 2589   0.315   1.469   1.295 -1.9705  1.9732 -1.3362
  864SOL     OW 2590   2.640   0.136   1.880 -0.7217  0.2304  0.4750
  864SOL    HW1 2591   2.628   0.213   1.946 -0.9771  0.5771  1.1025
  864SOL    HW2 2592   2.587   0.054   1.900 -0.0113  0.9276 -1.6210
  865SOL     OW 2593   1.695   0.378   2.169  0.2998 -0.3615  0.1250
  865SOL    HW1 2594   1.639   0.440   2.108 -1.2671 -1.6643 -2.2041
  865SOL    HW2 2595   1.778   0.423   2.200 -2.9102  1.2671  3.3104
  866SOL     OW 2596   2.399   2.974   0.672 -0.0277 -0.1396 -0.0948
  866SOL    HW1 2597   2.341   2.887   0.666 -2.4849 -1.1252  0.1779
  866SOL    HW2 2598   2.475   2.971   0.607  2.8750 -0.7636  0.9411
  867SOL     OW 2599   2.512   2.581   0.789  0.2488  0.0499  0.0583
  867SOL    HW1 2600   2.511   2.665   0.849 -0.7925  2.6082 -1.4349
  867SOL    HW2 2601   2.421   2.531   0.785  0.7054 -1.6827  0.8594
  868SOL     OW 2602   1.564   1.737   2.815  0.4172 -0.0976 -0.3075
  868SOL    HW1 2603   1.474   1.709   2.773  0.3624 -2.2194 -0.8429
  868SOL    HW2 2604   1.556   1.752   2.916 -2.1178  1.0334  1.4339
  869SOL     OW 2605   2.327   1.796   0.572 -0.7383  0.2780  0.0845
  869SOL    HW1 2606   2.277   1.723   0.527  1.2663 -1.1659  0.7983
  869SOL    HW2 2607   2.378   1.854   0.505 -2.5598  0.7658 -2.5297
  870SOL     OW 2608   2.833   1.956   0.356  0.9167  0.0536 -0.5126
  870SOL    HW1 2609   2.797   1.864   0.322 -2.9889 -1.1195  2.1920
  870SOL    HW2 2610   2.787   2.029   0.300  0.9522 -1.6996  0.9491
  871SOL     OW 2611   0.309   1.014   1.537 -0.2239  0.0795 -0.4513
  871SOL    HW1 2612   0.371   1.093   1.542 -0.5482 -0.3822 -0.6837
  871SOL    HW2 2613   0.295   0.985   1.445 -0.9667  1.0139  2.3894
  872SOL     OW 2614   0.281   1.572   2.141 -0.4323  0.6015  0.0457
  872SOL    HW1 2615   0.213   1.537   2.074 -1.8178 -1.3520 -2.4892
  872SOL    HW2 2616   0.371   1.584   2.095  0.7434  1.1819 -0.6988
  873SOL     OW 2617   0.061   2.852   1.332 -0.2356  0.4038  0.2798
  873SOL    HW1 2618   0.131   2.840   1.401  0.3727 -1.2448 -1.2216
  873SOL    HW2 2619   0.060   2.772   1.262  0.0126 -2.7364 -0.4277
  874SOL     OW 2620   1.047   0.640   1.986  0.1854  0.0111  0.0832
  874SOL    HW1 2621   1.118   0.691   1.934 -2.3469 -1.4052 -0.6113
  874SOL    HW2 2622   1.060   0.536   1.975  1.0417 -2.4262  1.8447
  875SOL     OW 2623   2.706   2.987   0.974 -0.4487 -0.9059  0.3065
  875SOL    HW1 2624   2.751   3.052   1.040 -1.6077  0.5304  2.5404
  875SOL    HW2 2625   2.697   3.016   0.880  0.2844 -0.9236  4.5279
  876SOL     OW 2626   1.148   1.265   0.537  0.1044 -0.1466  0.5373
  876SOL    HW1 2627   1.116   1.350   0.485  1.5908  0.8894 -1.1751
  876SOL    HW2 2628   1.238   1.297   0.579  0.6226 -0.7869  1.7669
  877SOL     OW 2629   1.107   0.665   1.481  0.5736 -0.5094 -0.0125
  877SOL    HW1 2630   1.177   0.610   1.531 -2.8435  2.9831 -1.6556
  877SOL    HW2 2631   1.146   0.690   1.387 -0.2961  1.3684 -0.6982
  878SOL     OW 2632   2.369   2.053   0.192 -0.0799  0.3974 -0.4276
  878SOL    HW1 2633   2.359   2.112   0.270 -0.8934  1.6837 -0.5163
  878SOL    HW2 2634   2.352   2.103   0.105  0.1316 -2.8340  1.4228
  879SOL     OW 2635   2.544   2.085   1.800  0.5075 -0.0702 -0.1136
  879SOL    HW1 2636   2.614   2.050   1.866 -0.7438 -0.2264 -1.8689
  879SOL    HW2 2637   2.564   2.181   1.769 -0.2480 -2.3154  2.3901
  880SOL     OW 2638   0.978   2.303   1.219 -0.2172  0.5221 -0.1243
  880SOL    HW1 2639   1.003   2.334   1.310 -0.1544 -1.4827 -3.1095
  880SOL    HW2 2640   0.895   2.356   1.186  0.9969  1.1498 -0.6303
  881SOL     OW 2641   0.934   2.119   0.538 -0.3805  0.1754  0.2684
  881SOL    HW1 2642   0.908   2.083   0.631 -0.7323  1.1963 -0.3295
  881SOL    HW2 2643   0.855   2.154   0.485  0.0410 -5.3964 -2.5737
  882SOL     OW 2644   1.889   1.374   0.034 -0.0625 -0.1399 -0.0369
  882SOL    HW1 2645   1.956   1.375   3.058 -1.6255  1.4050  3.0037
  882SOL    HW2 2646   1.923   1.430   0.111 -1.1349 -0.3988  0.6154
  883SOL     OW 2647   1.493   0.689   1.340 -0.1809  0.4183 -0.4972
  883SOL    HW1 2648   1.545   0.747   1.278 -1.9957 -0.5035  0.8932
  883SOL    HW2 2649   1.517   0.716   1.435  2.4882 -0.3985 -0.0435
  884SOL     OW 2650   2.980   2.636   0.682  0.7462  0.1134 -0.1627
  884SOL    HW1 2651   2.885   2.669   0.655 -2.0178  0.0486  0.8422
  884SOL    HW2 2652   3.026   2.706   0.739  2.0492  0.0014  0.7256
  885SOL     OW 2653   1.036   1.418   2.233  0.1785 -0.1956  0.2105
  885SOL    HW1 2654   1.055   1.326   2.204 -0.0208  0.9921  1.3039
  885SOL    HW2 2655   1.117   1.449   2.289  1.3761 -1.1579 -2.9815
  886SOL     OW 2656   0.869   1.563   2.410  0.8094 -0.4635 -1.0196
  886SOL    HW1 2657   0.945   1.604   2.464  2.5149 -0.1589  1.6110
  886SOL    HW2 2658   0.910   1.495   2.348 -0.9289  0.3129  2.5902
  887SOL     OW 2659   1.434   0.757   0.907  0.1081  0.1219 -0.5263
  887SOL    HW1 2660   1.480   0.766   0.996  0.8369  1.4202  0.5926
  887SOL    HW2 2661   1.337   0.729   0.918 -3.0795  0.6871  2.7502
  888SOL     OW 2662   2.068   0.663   2.455  0.4895  0.3718 -0.4867
  888SOL    HW1 2663   2.077   0.724   2.537 -1.3440 -0.4763  0.4291
  888SOL    HW2 2664   2.148   0.599   2.439  0.8511 -1.4107  1.6958
  889SOL     OW 2665   2.704   1.964   0.673  0.0086 -0.2476 -0.3650
  889SOL    HW1 2666   2.652   2.048   0.639  1.2304 -1.4995  1.0502
  889SOL    HW2 2667   2.798   1.994   0.692 -0.2272  0.4283  2.1249
  890SOL     OW 2668   1.112   2.303   0.238 -0.3335  0.4054  0.1940
  890SOL    HW1 2669   1.199   2.310   0.295 -0.8430  3.6051 -0.9640
  890SOL    HW2 2670   1.067   2.210   0.257 -3.5495  0.3879 -1.6305
  891SOL     OW 2671   2.819   0.500   2.858 -0.1689  0.3308  0.1855
  891SOL    HW1 2672   2.895   0.550   2.915  2.4667  1.4417  2.2972
  891SOL    HW2 2673   2.848   0.467   2.766 -1.8626 -1.9867 -0.1464
  892SOL     OW 2674   2.978   2.090   1.022  0.4454 -0.3371 -0.2770
  892SOL    HW1 2675   3.078   2.109   1.033 -0.5011 -0.7751  0.6858
  892SOL    HW2 2676   2.920   2.137   1.097 -2.0847  0.4459  1.6888
  893SOL     OW 2677   1.398   0.305   1.001 -0.5925 -0.3455  0.2155
  893SOL    HW1 2678   1.412   0.232   0.933  0.6574 -1.9293  3.0673
  893SOL    HW2 2679   1.473   0.372   0.998  1.5778 -3.4037 -3.3389
  894SOL     OW 2680   2.892   0.297   0.978 -0.4133 -0.0859  0.1751
  894SOL    HW1 2681   2.956   0.276   0.898 -0.4259 -2.8997  0.1697
  894SOL    HW2 2682   2.807   0.335   0.932 -0.2443 -1.0742 -0.9988
  895SOL     OW 2683   1.754   1.751   2.578 -0.1575  0.4613  0.0262
  895SOL    HW1 2684   1.773   1.655   2.564 -3.1004 -3.1803  0.7690
  895SOL    HW2 2685   1.672   1.763   2.636 -0.9473  1.4003  0.6584
  896SOL     OW 2686   1.939   0.863   1.799  0.2546  0.1488  0.3052
  896SOL    HW1 2687   2.001   0.926   1.758 -1.8082  0.9657  0.7487
  896SOL    HW2 2688   1.939   0.780   1.735 -0.9922 -0.5450  0.7307
  897SOL     OW 2689   0.073   1.234   1.304 -0.5170 -0.0084 -0.2209
  897SOL    HW1 2690   0.164   1.273   1.326 -0.1763  0.6917  0.0596
  897SOL    HW2 2691   0.080   1.135   1.286 -3.9136 -3.1193  0.2719
  898SOL     OW 2692   2.073   2.542   2.038  0.4339  0.2157 -0.0564
  898SOL    HW1 2693   2.029   2.629   2.071  0.3473  0.5623  1.0008
  898SOL    HW2 2694   2.145   2.515   2.110 -1.5845 -3.0318 -0.4132
  899SOL     OW 2695   0.945   1.596   1.033 -0.0174  0.0404 -0.1661
  899SOL    HW1 2696   1.002   1.625   1.109 -0.0511 -0.3288 -2.6933
  899SOL    HW2 2697   0.904   1.675   0.985 -0.7792 -0.4711  0.3217
  900SOL     OW 2698   1.130   2.816   2.417 -0.3714  0.2038 -0.3022
  900SOL    HW1 2699   1.209   2.767   2.457 -0.2979  3.7126 -1.6830
  900SOL    HW2 2700   1.083   2.881   2.481  1.6875  1.8663  1.0624
  901SOL     OW 2701   0.617   1.565   2.389  0.1231 -0.3735 -0.3210
  901SOL    HW1 2702   0.563   1.652   2.409 -1.9609  0.4616 -1.9322
  901SOL    HW2 2703   0.720   1.585   2.392  0.7297  0.5455  2.9985
  902SOL     OW 2704   2.228   1.081   2.911  1.1632  0.8829  0.0694
  902SOL    HW1 2705   2.182   1.066   2.999 -0.6457  2.6935  1.6731
  902SOL    HW2 2706   2.259   1.174   2.905  0.4952 -0.4754  0.2055
  903SOL     OW 2707   2.037   1.412   2.911  0.5254  0.7137 -0.1141
  903SOL    HW1 2708   2.130   1.383   2.889 -5.1373 -0.2660 -0.6315
  903SOL    HW2 2709   1.968   1.370   2.853 -0.1137  0.0432  0.6889
  904SOL     OW 2710   1.376   0.841   2.174  0.8373 -0.0670 -0.2931
  904SOL    HW1 2711   1.475   0.843   2.183 -0.2296  0.3733 -0.6019
  904SOL    HW2 2712   1.325   0.823   2.264  1.8761  0.4938  0.1147
  905SOL     OW 2713   2.577   0.424   0.933  0.3163 -0.2991  0.5386
  905SOL    HW1 2714   2.550   0.334   0.981 -0.8322 -1.4333 -1.7593
  905SOL    HW2 2715   2.505   0.445   0.861  1.2338  0.4578 -0.5806
  906SOL     OW 2716   0.425   1.547   0.517  0.0691  0.3471 -0.2520
  906SOL    HW1 2717   0.495   1.477   0.532  1.5859  0.3031 -4.3746
  906SOL    HW2 2718   0.332   1.540   0.556  0.3165  1.2952 -0.4563
  907SOL     OW 2719   1.490   3.015   0.317 -0.3280 -0.6491 -0.1088
  907SOL    HW1 2720   1.478   3.009   0.419 -0.3212  0.7650 -1.4086
  907SOL    HW2 2721   1.509   0.014   0.289  0.0792 -0.4891  0.3802
  908SOL     OW 2722   1.474   2.615   1.658 -0.1949 -0.1700  0.1915
  908SOL    HW1 2723   1.516   2.631   1.568  0.6898  0.5313  0.6232
  908SOL    HW2 2724   1.424   2.694   1.699  0.9971  0.0872 -2.4918
  909SOL     OW 2725   2.464   0.739   1.916  0.3142  0.4621 -0.4193
  909SOL    HW1 2726   2.521   0.666   1.957 -0.0318 -2.7104 -1.3136
  909SOL    HW2 2727   2.380   0.700   1.872  3.2351 -0.2211 -0.3969
  910SOL     OW 2728   1.327   2.988   2.572  0.1373 -0.1748  0.4685
  910SOL    HW1 2729   1.339   3.065   2.505 -0.4319 -0.5351 -1.8050
  910SOL    HW2 2730   1.388   2.915   2.541  0.6883  0.5072 -1.9364
  911SOL     OW 2731   2.473   1.562   2.440 -0.4882  0.0106  0.2415
  911SOL    HW1 2732   2.505   1.647   2.390 -0.6395 -0.8694  1.5752
  911SOL    HW2 2733   2.415   1.505   2.381 -0.3979  0.2701  0.7839
  912SOL     OW 2734   2.319   2.175   1.436 -0.4629  0.1751 -0.1154
  912SOL    HW1 2735   2.363   2.262   1.409 -1.2091 -0.1940  0.6347
  912SOL    HW2 2736   2.225   2.195   1.465  0.5879 -0.9774 -0.0203
  913SOL     OW 2737   2.500   2.552   1.766 -0.1442 -0.1137  0.2686
  913SOL    HW1 2738   2.526   2.628   1.706 -0.4022 -0.5315  1.3837
  913SOL    HW2 2739   2.411   2.505   1.741  0.7425 -1.0128  0.9487
  914SOL     OW 2740   2.290   2.056   1.175 -0.0420  0.0567  0.0712
  914SOL    HW1 2741   2.340   2.094   1.254  0.3925 -0.2055  0.1211
  914SOL    HW2 2742   2.188   2.054   1.181 -1.2339 -0.7911 -2.2253
  915SOL     OW 2743   1.131   2.537   1.813 -0.0290  0.0632  0.0824
  915SOL    HW1 2744   1.056   2.467   1.801 -2.4721 -2.2241  0.8284
  915SOL    HW2 2745   1.217   2.487   1.806 -0.2992 -2.2253 -1.0893
  916SOL     OW 2746   0.133   2.184   1.059  0.5886  0.2855  0.3659
  916SOL    HW1 2747   0.134   2.242   0.971  0.9373 -0.2855 -0.0147
  916SOL    HW2 2748   0.144   2.242   1.144  1.2425  1.0343  0.3194
  917SOL     OW 2749   2.709   1.009   2.826  0.4524 -0.0575 -0.4569
  917SOL    HW1 2750   2.685   0.917   2.865  0.4543  1.1329  2.5656
  917SOL    HW2 2751   2.746   0.994   2.733 -1.3044  1.4161  1.3198
  918SOL     OW 2752   1.824   2.001   2.616 -0.8470  0.5410  0.0446
  918SOL    HW1 2753   1.828   2.014   2.719  0.5154  1.0438 -1.6033
  918SOL    HW2 2754   1.822   1.898   2.588  1.8082 -1.3698 -1.0152
  919SOL     OW 2755   1.730   2.498   1.267  0.8505 -0.4799  0.0231
  919SOL    HW1 2756   1.757   2.400   1.283  1.6984 -0.2295  1.7723
  919SOL    HW2 2757   1.811   2.550   1.239 -0.9149 -1.7492  0.5482
  920SOL     OW 2758   0.959   0.518   2.750  0.0275  0.0328 -0.5855
  920SOL    HW1 2759   1.033   0.449   2.757 -0.3657  2.3059 -0.1169
  920SOL    HW2 2760   1.000   0.612   2.765  2.7750 -0.9491  3.1956
  921SOL     OW 2761   3.042   2.841   2.727 -0.3612  0.0191  0.1967
  921SOL    HW1 2762   3.080   2.875   2.638 -1.7385 -1.3142  0.1253
  921SOL    HW2 2763   0.000   2.760   2.753  1.4103 -0.7833  0.0220
  922SOL     OW 2764   2.417   1.734   1.864  0.8254 -0.5342 -0.0753
  922SOL    HW1 2765   2.482   1.747   1.788  0.2266  2.1194 -0.0421
  922SOL    HW2 2766   2.336   1.691   1.819 -0.5497 -1.4636 -2.3844
  923SOL     OW 2767   0.561   2.012   2.612 -0.3400 -0.4062 -0.5952
  923SOL    HW1 2768   0.464   2.003   2.647  0.8471 -3.4445 -1.1216
  923SOL    HW2 2769   0.588   2.107   2.583  0.7206  1.2049 -0.1963
  924SOL     OW 2770   1.610   0.438   2.440  0.0492 -0.1980  0.3412
  924SOL    HW1 2771   1.623   0.445   2.337  3.2017 -1.5385 -0.1355
  924SOL    HW2 2772   1.573   0.530   2.470  0.6829  2.2861  1.5717
  925SOL     OW 2773   3.042   0.856   0.083  0.9631  0.5305  0.1769
  925SOL    HW1 2774   2.947   0.871   0.047 -2.0981 -1.3832  1.0476
  925SOL    HW2 2775   3.078   0.933   0.138 -1.0222 -1.7488  0.5510
  926SOL     OW 2776   3.075   0.298   0.788 -0.1696  0.2850 -0.1045
  926SOL    HW1 2777   0.032   0.214   0.785  0.1385  2.3009 -2.5316
  926SOL    HW2 2778   3.072   0.343   0.696  2.3065  1.2408 -0.0974
  927SOL     OW 2779   1.360   1.141   0.734 -0.1346  0.2403  0.2490
  927SOL    HW1 2780   1.392   1.132   0.641 -0.5005 -1.9509 -0.2058
  927SOL    HW2 2781   1.263   1.111   0.738 -1.3813 -0.9461 -3.1645
  928SOL     OW 2782   0.147   0.031   2.341 -0.1132  0.4555  0.0262
  928SOL    HW1 2783   0.157   0.004   2.247  1.1282  0.8908  2.4365
  928SOL    HW2 2784   0.146   0.132   2.343  1.2248  0.9402 -1.8512
  929SOL     OW 2785   2.605   0.674   1.533 -0.1764  0.0966  0.2605
  929SOL    HW1 2786   2.538   0.742   1.565 -0.9868 -3.8818 -1.5385
  929SOL    HW2 2787   2.621   0.596   1.599  2.3478 -1.8897  1.3003
  930SOL     OW 2788   1.766   2.304   0.928 -0.5769  0.0326 -0.1850
  930SOL    HW1 2789   1.772   2.234   0.853 -1.5102 -3.7660  1.8270
  930SOL    HW2 2790   1.797   2.269   1.020 -2.1851  2.2538  0.0040
  931SOL     OW 2791   1.872   0.838   0.976 -0.2030 -0.8554 -0.1191
  931SOL    HW1 2792   1.851   0.909   0.903  0.1286 -1.3975 -0.7146
  931SOL    HW2 2793   1.959   0.787   0.951  1.5466 -1.5208  2.1016
  932SOL     OW 2794   0.105   0.735   1.395  0.5753 -0.1827  0.6710
  932SOL    HW1 2795   0.015   0.738   1.452  1.0802  0.1749  3.0351
  932SOL    HW2 2796   0.152   0.645   1.395 -0.6747 -1.2337  2.5223
  933SOL     OW 2797   2.141   1.939   2.046  0.0467 -0.1844  0.2698
  933SOL    HW1 2798   2.163   1.836   2.058  1.9169 -0.5631 -0.2618
  933SOL    HW2 2799   2.227   1.990   2.022 -2.3286 -1.3093  2.0989
  934SOL     OW 2800   1.763   3.083   1.227  0.4092 -0.2004  0.2957
  934SOL    HW1 2801   1.766   0.085   1.204 -0.6619  1.3802  1.4213
  934SOL    HW2 2802   1.688   3.032   1.178 -2.0498  1.4715  2.3681
  935SOL     OW 2803   0.043   0.965   1.240  0.4404  0.0670 -0.1294
  935SOL    HW1 2804   0.063   0.875   1.280 -0.9299  0.3515 -2.1891
  935SOL    HW2 2805   0.098   0.976   1.156 -2.6392 -0.3234  0.4653
  936SOL     OW 2806   2.741   0.773   1.328  0.3690 -0.3063 -0.1571
  936SOL    HW1 2807   2.670   0.774   1.253 -2.9480 -2.3423  1.6098
  936SOL    HW2 2808   2.694   0.750   1.417 -0.0173  1.2975  2.4118
  937SOL     OW 2809   1.046   2.985   0.984 -0.4477 -0.0844  0.2020
  937SOL    HW1 2810   0.946   2.970   0.979  0.7731  0.3559 -0.4708
  937SOL    HW2 2811   1.093   2.961   0.894  1.9513 -0.6589 -0.3139
  938SOL     OW 2812   2.898   2.158   0.769 -0.9449 -0.4449  0.2320
  938SOL    HW1 2813   2.888   2.104   0.854  2.2587 -0.9732 -1.5333
  938SOL    HW2 2814   2.915   2.257   0.787  1.8656  0.7037 -2.9302
  939SOL     OW 2815   0.059   1.841   2.697 -0.6166 -0.0921 -0.1082
  939SOL    HW1 2816   0.049   1.743   2.687  0.5340  2.9001 -1.9699
  939SOL    HW2 2817   0.156   1.876   2.699  2.1681  0.9823 -0.5164
  940SOL     OW 2818   2.661   2.635   2.643  0.0507  0.0759  0.2065
  940SOL    HW1 2819   2.686   2.584   2.557 -1.8179 -1.4994 -3.5648
  940SOL    HW2 2820   2.687   2.736   2.648  2.2283 -1.2328  1.6914
  941SOL     OW 2821   1.453   0.188   2.974 -0.3822 -0.4184 -0.7265
  941SOL    HW1 2822   1.487   0.182   2.879  0.2889 -0.2947  2.1310
  941SOL    HW2 2823   1.528   0.215   3.038  0.4117  0.2357  0.8140
  942SOL     OW 2824   1.480   1.969   1.404 -0.1821 -0.2193 -0.0020
  942SOL    HW1 2825   1.512   1.874   1.433  0.8856 -4.2600  2.1152
  942SOL    HW2 2826   1.452   2.027   1.482 -1.2597  2.1359 -1.9397
  943SOL     OW 2827   1.918   1.040   1.997 -0.0348 -0.0974  0.3789
  943SOL    HW1 2828   1.915   0.964   1.926 -0.1212 -1.7076 -2.8378
  943SOL    HW2 2829   1.839   1.108   1.974 -1.0744  0.2790 -2.6728
  944SOL     OW 2830   1.654   0.951   1.817 -0.0353  0.3225  0.1457
  944SOL    HW1 2831   1.755   0.946   1.798  1.3368  0.2655  0.0642
  944SOL    HW2 2832   1.601   0.957   1.732  1.9593 -0.3179  1.3077
  945SOL     OW 2833   2.701   2.500   1.410 -0.0159 -0.0466  0.1866
  945SOL    HW1 2834   2.747   2.517   1.319  1.0252  0.4853  0.1888
  945SOL    HW2 2835   2.767   2.439   1.465  1.4447 -1.0978 -0.1662
  946SOL     OW 2836   0.876   1.012   1.631  0.1760  0.3100 -0.2757
  946SOL    HW1 2837   0.958   1.004   1.695  2.0498 -1.6583  4.1273
  946SOL    HW2 2838   0.875   0.927   1.575 -0.0696  1.6720  2.2057
  947SOL     OW 2839   0.620   2.480   0.883 -0.3921 -0.3582  0.5943
  947SOL    HW1 2840   0.540   2.502   0.940  1.6772 -0.3584 -0.1803
  947SOL    HW2 2841   0.597   2.431   0.796 -1.8925 -0.0994 -0.7241
  948SOL     OW 2842   2.980   1.331   1.715  0.2533  0.0851  0.0475
  948SOL    HW1 2843   3.027   1.273   1.778 -3.0498  0.3930 -4.7183
  948SOL    HW2 2844   3.017   1.427   1.703 -2.9875 -0.0987  1.8738
  949SOL     OW 2845   0.803   0.362   1.986 -0.2047 -0.2214 -0.7960
  949SOL    HW1 2846   0.812   0.307   2.070 -1.9214 -0.8753  0.2787
  949SOL    HW2 2847   0.757   0.452   2.013 -0.5078 -0.7174 -0.2517
  950SOL     OW 2848   0.640   0.720   0.896  0.6821 -0.0961 -0.0839
  950SOL    HW1 2849   0.642   0.818   0.916  1.4522  2.0056 -2.8588
  950SOL    HW2 2850   0.549   0.692   0.853 -2.0107  0.8397 -2.6451
  951SOL     OW 2851   1.121   1.905   2.207  0.2270 -0.2172 -0.0853
  951SOL    HW1 2852   1.159   2.001   2.187 -1.3961  2.1877  0.3871
  951SOL    HW2 2853   1.134   1.882   2.307  0.4323 -0.8574  1.0686
  952SOL     OW 2854   1.193   1.264   2.809 -0.1765 -0.2677 -0.1476
  952SOL    HW1 2855   1.263   1.280   2.738  1.7644 -0.6558 -0.2889
  952SOL    HW2 2856   1.221   1.183   2.864  0.3233  1.2471 -0.1619
  953SOL     OW 2857   1.230   2.852   2.183  0.1973 -0.0431 -0.5177
  953SOL    HW1 2858   1.185   2.780   2.131  2.0319  0.6936  2.3131
  953SOL    HW2 2859   1.195   2.845   2.279 -0.2835 -0.6320  3.5884
  954SOL     OW 2860   2.217   1.410   0.563 -0.2214 -0.2047 -0.4950
  954SOL    HW1 2861   2.190   1.502   0.523 -0.1494  2.0251 -2.0153
  954SOL    HW2 2862   2.321   1.396   0.556 -1.7205 -1.1784  0.8865
  955SOL     OW 2863   2.814   2.132   2.678  0.0617 -0.3648 -0.0416
  955SOL    HW1 2864   2.811   2.139   2.580 -0.6418 -0.3892  2.9228
  955SOL    HW2 2865   2.796   2.224   2.719 -0.0089  0.6781 -0.8327
  956SOL     OW 2866   1.205   1.095   1.589  0.0520 -0.0509  0.5328
  956SOL    HW1 2867   1.176   1.030   1.657  1.1833  3.3427 -1.0060
  956SOL    HW2 2868   1.120   1.126   1.537 -4.2011 -0.6809 -0.8664
  957SOL     OW 2869   1.881   1.616   2.311  0.0281  0.0473 -0.3777
  957SOL    HW1 2870   1.853   1.555   2.232 -2.0051 -1.2654 -1.1729
  957SOL    HW2 2871   1.869   1.564   2.397  0.1239  0.4471 -1.0061
  958SOL     OW 2872   1.576   2.670   1.422 -0.3936 -0.6723  0.2236
  958SOL    HW1 2873   1.635   2.599   1.376  1.1966 -1.7968  0.4657
  958SOL    HW2 2874   1.541   2.741   1.357 -0.6287 -0.3247 -3.7789
  959SOL     OW 2875   1.706   1.987   1.958  0.1387 -0.1266  0.0427
  959SOL    HW1 2876   1.806   1.994   1.933  0.5799  3.9465  1.1344
  959SOL    HW2 2877   1.663   1.906   1.911 -2.5043 -2.7667  1.0963
  960SOL     OW 2878   0.038   0.741   2.699  0.1958  0.6503  0.3589
  960SOL    HW1 2879   0.095   0.825   2.712 -2.3390  1.8512  1.0920
  960SOL    HW2 2880   3.096   0.751   2.607 -0.2094  0.0175  0.0327
  961SOL     OW 2881   0.648   0.575   2.026 -0.2215 -0.5409 -0.4101
  961SOL    HW1 2882   0.692   0.664   2.050 -0.7950 -1.1926  0.5297
  961SOL    HW2 2883   0.548   0.578   2.030 -1.7147  0.7527  0.3115
  962SOL     OW 2884   1.321   1.670   0.404  0.0286  0.4324  0.0675
  962SOL    HW1 2885   1.247   1.670   0.471  0.6152 -0.2133  0.0725
  962SOL    HW2 2886   1.411   1.665   0.453 -0.1628  0.8308 -0.0826
  963SOL     OW 2887   1.251   2.232   2.809  0.3450  0.1143 -0.2771
  963SOL    HW1 2888   1.178   2.278   2.861  0.8433 -0.1776 -1.8082
  963SOL    HW2 2889   1.228   2.134   2.808 -0.5758  0.1909 -1.5912
  964SOL     OW 2890   0.914   2.691   0.380 -0.1149  0.2934 -0.3913
  964SOL    HW1 2891   0.914   2.589   0.396  0.6094 -1.3824  1.6178
  964SOL    HW2 2892   0.860   2.752   0.446 -0.5335  2.4065 -0.1630
  965SOL     OW 2893   0.779   2.915   0.900 -0.0699  0.3501  0.0402
  965SOL    HW1 2894   0.681   2.936   0.883  0.8562 -1.1616 -0.2890
  965SOL    HW2 2895   0.804   2.830   0.845  0.6725 -0.9754 -0.0583
  966SOL     OW 2896   0.145   1.202   2.878 -0.2124 -0.0088  0.7184
  966SOL    HW1 2897   0.193   1.279   2.827 -1.1008  2.5867 -2.8039
  966SOL    HW2 2898   0.045   1.197   2.854 -1.7333 -1.3116  1.1724
  967SOL     OW 2899   1.271   2.780   1.722  0.3751 -0.0216 -0.3437
  967SOL    HW1 2900   1.214   2.862   1.742  1.1288 -0.0756 -0.3482
  967SOL    HW2 2901   1.209   2.703   1.734  0.6266  2.1063 -0.7783
  968SOL     OW 2902   1.804   0.351   0.254 -0.1124  0.6226 -0.2998
  968SOL    HW1 2903   1.839   0.287   0.329  2.7070 -0.5534  2.0992
  968SOL    HW2 2904   1.774   0.437   0.300  0.6957 -0.9454 -0.4027
  969SOL     OW 2905   3.085   1.776   1.999 -0.9957  0.1108  0.4056
  969SOL    HW1 2906   0.003   1.740   1.908  1.4298 -0.5058  2.2404
  969SOL    HW2 2907   0.052   1.853   2.026  1.7548 -0.2167  0.3166
  970SOL     OW 2908   2.303   1.432   1.523 -0.4014  0.1945 -0.1931
  970SOL    HW1 2909   2.338   1.443   1.425  1.5996  1.9251 -1.1901
  970SOL    HW2 2910   2.360   1.366   1.575  0.7825  0.9284 -1.9520
  971SOL     OW 2911   1.639   0.659   1.631 -0.5240  0.0646 -0.5527
  971SOL    HW1 2912   1.647   0.593   1.711 -1.0920 -0.8460 -0.0452
  971SOL    HW2 2913   1.560   0.718   1.651 -2.1639  0.8390  0.9110
  972SOL     OW 2914   0.324   2.904   2.295 -0.2703  0.0071 -0.5014
  972SOL    HW1 2915   0.423   2.921   2.299 -0.4312 -2.0627 -0.6541
  972SOL    HW2 2916   0.283   2.986   2.339 -1.9817  2.6211  1.2141
  973SOL     OW 2917   2.885   1.162   0.361 -0.0619 -0.1062 -0.0079
  973SOL    HW1 2918   2.790   1.135   0.334  4.3445  1.0142 -2.0496
  973SOL    HW2 2919   2.923   1.116   0.442  1.8727  1.7436 -1.8505
  974SOL     OW 2920   1.599   1.275   2.235  0.1590 -0.1267 -0.1498
  974SOL    HW1 2921   1.513   1.236   2.192 -0.0063 -1.0090  3.3118
  974SOL    HW2 2922   1.658   1.336   2.178 -1.3816 -0.3334  2.8129
  975SOL     OW 2923   2.949   2.415   0.822 -0.5419 -0.3510  0.1135
  975SOL    HW1 2924   2.965   2.507   0.785  2.4179 -0.3260  4.8648
  975SOL    HW2 2925   2.872   2.425   0.885  1.3109 -1.8684 -1.5944
  976SOL     OW 2926   0.001   1.587   1.709 -0.0540  0.2898 -0.2367
  976SOL    HW1 2927   0.054   1.595   1.619  1.4418 -0.6609 -4.0143
  976SOL    HW2 2928   3.011   1.631   1.704  0.6699  0.0718  0.0217
  977SOL     OW 2929   0.598   2.423   3.089  0.1375 -0.1330  0.2935
  977SOL    HW1 2930   0.541   2.505   3.063  0.9752 -0.2214 -2.6912
  977SOL    HW2 2931   0.697   2.437   3.066  0.5595  1.6210  1.4829
  978SOL     OW 2932   0.518   1.831   2.392 -0.0860 -0.5653  0.3336
  978SOL    HW1 2933   0.417   1.852   2.372 -2.2543  0.2597 -0.1002
  978SOL    HW2 2934   0.551   1.891   2.466  0.9033  0.1316  0.5965
  979SOL     OW 2935   1.321   2.467   1.318 -0.4258 -0.2156 -0.2136
  979SOL    HW1 2936   1.394   2.534   1.340 -0.5737 -0.1595  0.4233
  979SOL    HW2 2937   1.362   2.391   1.262 -0.3447 -1.8221 -0.1680
  980SOL     OW 2938   0.749   1.534   3.005  0.0330 -0.3893 -0.4850
  980SOL    HW1 2939   0.721   1.579   2.913 -1.9000 -0.4931 -0.4128
  980SOL    HW2 2940   0.846   1.563   3.027 -0.9092  3.0537  2.0441
  981SOL     OW 2941   2.880   3.061   2.401  0.3781  0.2876 -0.0794
  981SOL    HW1 2942   2.784   3.028   2.395  0.9738 -0.7000  1.3740
  981SOL    HW2 2943   2.925   3.051   2.312  2.9202 -1.1811  1.5608
  982SOL     OW 2944   0.024   2.545   2.824 -0.0827  0.5797 -0.1865
  982SOL    HW1 2945   0.047   2.542   2.719  0.6666 -2.0432  1.2774
  982SOL    HW2 2946   3.021   2.556   2.837  2.3722 -1.7950  1.7534
  983SOL     OW 2947   2.318   0.942   2.015  0.3410 -0.4300  0.0015
  983SOL    HW1 2948   2.320   1.011   1.937  1.1680  2.3896 -0.4167
  983SOL    HW2 2949   2.373   0.861   1.996 -2.0359  2.2537 -1.3332
  984SOL     OW 2950   1.416   0.058   2.369 -0.6211  0.2894  0.2502
  984SOL    HW1 2951   1.514   0.091   2.388  0.1766  0.6838 -0.9321
  984SOL    HW2 2952   1.415   0.037   2.269 -1.3544  1.1480 -0.3927
  985SOL     OW 2953   1.445   2.209   2.376 -0.3832  0.2116 -0.4906
  985SOL    HW1 2954   1.492   2.173   2.291 -1.1800 -0.7624 -0.9169
  985SOL    HW2 2955   1.476   2.157   2.457  0.0897  0.7288 -0.9806
  986SOL     OW 2956   2.174   0.306   2.340 -0.4355 -0.4345 -0.2920
  986SOL    HW1 2957   2.231   0.315   2.258  0.2355 -0.4966  3.0224
  986SOL    HW2 2958   2.119   0.386   2.370  1.2549 -0.9061  0.9871
  987SOL     OW 2959   2.210   0.661   2.074 -0.3706  0.6944  0.1206
  987SOL    HW1 2960   2.176   0.737   2.136 -2.9037  1.8022 -2.5904
  987SOL    HW2 2961   2.215   0.701   1.979  2.6373 -0.3533  0.5133
  988SOL     OW 2962   2.556   0.509   2.774  0.2902  0.0998 -0.2422
  988SOL    HW1 2963   2.655   0.492   2.798  0.2647  1.2315  0.4385
  988SOL    HW2 2964   2.532   0.500   2.674  1.5157 -1.0871 -0.6928
  989SOL     OW 2965   2.626   2.471   2.409  0.0190  0.1369 -0.3787
  989SOL    HW1 2966   2.536   2.515   2.384 -1.0210 -0.5768  1.1365
  989SOL    HW2 2967   2.694   2.478   2.331  1.5979  1.6295 -0.5574
  990SOL     OW 2968   0.324   0.584   0.077  0.4552  0.1844  0.5944
  990SOL    HW1 2969   0.318   0.618   0.174 -1.3414  1.7647 -0.7514
  990SOL    HW2 2970   0.339   0.660   0.010  1.3720  2.8358 -2.0960
  991SOL     OW 2971   0.672   0.542   2.822  0.4437 -0.4371  0.4514
  991SOL    HW1 2972   0.631   0.489   2.897 -2.0967 -1.5073  0.7570
  991SOL    HW2 2973   0.766   0.511   2.800 -2.3672 -1.8587  1.8313
  992SOL     OW 2974   2.678   2.153   2.214 -0.4739 -0.2084 -0.1972
  992SOL    HW1 2975   2.752   2.179   2.276 -1.5396 -0.8277  1.8355
  992SOL    HW2 2976   2.723   2.133   2.121 -0.4326  0.0337 -1.3317
  993SOL     OW 2977   0.521   2.906   0.541  0.1476  0.3937  0.0002
  993SOL    HW1 2978   0.514   2.998   0.589  0.6013  3.2279 -1.3668
  993SOL    HW2 2979   0.494   2.918   0.442 -0.7620  1.7988 -1.9494
  994SOL     OW 2980   0.234   2.058   1.569  0.2979  0.4285  0.3388
  994SOL    HW1 2981   0.331   2.028   1.564  0.4640  1.0697  0.3812
  994SOL    HW2 2982   0.171   2.017   1.499 -0.1955 -1.1380 -4.4115
  995SOL     OW 2983   2.237   1.793   0.170 -0.3455  0.5846 -0.7153
  995SOL    HW1 2984   2.275   1.888   0.175 -2.4482  0.6659  1.5935
  995SOL    HW2 2985   2.149   1.790   0.120  1.1825 -0.2513  2.0430
  996SOL     OW 2986   1.451   1.639   2.438  0.0822 -0.0600 -0.3355
  996SOL    HW1 2987   1.505   1.552   2.429  0.3399  1.4747 -1.1949
  996SOL    HW2 2988   1.511   1.718   2.410 -0.0034 -0.5227  0.0190
  997SOL     OW 2989   1.858   1.504   1.915  0.0315  0.2744  0.1069
  997SOL    HW1 2990   1.814   1.574   1.851 -1.1640 -2.4591  0.9190
  997SOL    HW2 2991   1.854   1.411   1.878  2.0241  2.4098  0.5250
  998SOL     OW 2992   2.719   1.726   0.233  0.1507  0.5593 -0.5502
  998SOL    HW1 2993   2.745   1.638   0.280 -0.6313 -1.1845 -1.3564
  998SOL    HW2 2994   2.762   1.729   0.141  1.1322  0.7404  1.4413
  999SOL     OW 2995   2.431   2.575   0.390  0.9592  0.3972  0.3359
  999SOL    HW1 2996   2.361   2.619   0.455 -1.5110  1.4396  0.4382
  999SOL    HW2 2997   2.519   2.564   0.435 -2.7059  1.5715  0.9570
 1000SOL     OW 2998   0.734   2.875   2.080 -0.4282 -0.1450  0.0159
 1000SOL    HW1 2999   0.790   2.957   2.059 -0.9030  0.0326  1.9948
 1000SOL    HW2 3000   0.783   2.786   2.077 -2.1072 -1.2442  1.8566
   3.09856   3.09856   3.09856
