1000 SPC/Fw water molecules t= 422.00000 step= 422000
 3000
    1SOL     OW    1   0.128   2.982   1.155 -0.1069 -0.4253  0.3191
    1SOL    HW1    2   0.212   3.021   1.196  0.2853  2.2625  0.0138
    1SOL    HW2    3   0.114   2.893   1.196 -2.1498  1.2979  0.9832
    2SOL     OW    4   2.645   0.030   0.174  0.6518 -0.1111  0.0876
    2SOL    HW1    5   2.677   3.006   0.183 -1.5092 -0.5142  0.3296
    2SOL    HW2    6   2.711   0.077   0.113  1.1279 -3.2483 -1.6792
    3SOL     OW    7   1.562   2.620   0.078  0.3853 -0.1998  0.0959
    3SOL    HW1    8   1.622   2.570   0.011  1.7662 -2.6338 -1.7987
    3SOL    HW2    9   1.503   2.683   0.024  2.0927 -2.4745 -0.1115
    4SOL     OW   10   1.126   0.045   2.245  0.2416  0.4290 -0.1656
    4SOL    HW1   11   1.044   0.083   2.295 -0.5840 -0.9494  0.7806
    4SOL    HW2   12   1.097   3.026   2.202  1.6113 -2.8317 -1.2109
    5SOL     OW   13   2.237   0.174   1.938 -0.3217  0.3244  0.3926
    5SOL    HW1   14   2.181   0.088   1.944 -0.6398  0.2763  2.7903
    5SOL    HW2   15   2.176   0.251   1.926 -3.0439  1.0342  1.3597
    6SOL     OW   16   2.453   1.966   1.325  0.3829  0.5075 -0.1391
    6SOL    HW1   17   2.409   1.978   1.236  0.8836 -1.1309  0.3706
    6SOL    HW2   18   2.418   1.886   1.375 -0.6683  1.1004 -1.2885
    7SOL     OW   19   1.896   1.152   0.701 -0.2854  0.5001  0.0590
    7SOL    HW1   20   1.954   1.208   0.756 -5.1236 -0.4142 -2.8970
    7SOL    HW2   21   1.953   1.086   0.644  0.8769 -0.4858 -1.9093
    8SOL     OW   22   0.284   1.594   0.943  0.1802  0.2153 -0.2109
    8SOL    HW1   23   0.349   1.656   0.987  1.2639  0.9478 -0.9264
    8SOL    HW2   24   0.230   1.550   1.022 -1.1231  0.2275  4.6694
    9SOL     OW   25   2.969   2.710   1.419  0.2694 -0.4542  0.3181
    9SOL    HW1   26   2.913   2.676   1.500  1.8973  0.7426  3.0523
    9SOL    HW2   27   2.908   2.761   1.356  0.6518 -0.1228  4.7037
   10SOL     OW   28   1.221   2.299   0.503  0.0611  0.0254  0.1147
   10SOL    HW1   29   1.302   2.351   0.470  1.4617  3.2000 -1.6465
   10SOL    HW2   30   1.138   2.340   0.463  0.9749 -0.1435  0.6173
   11SOL     OW   31   1.606   1.803   1.072 -0.0266 -0.3072  0.1202
   11SOL    HW1   32   1.704   1.792   1.054 -1.0257 -0.3072 -0.7825
   11SOL    HW2   33   1.548   1.755   1.004 -1.3170  0.1964 -0.2980
   12SOL     OW   34   0.027   0.819   2.161  0.0593  0.6074  0.1790
   12SOL    HW1   35   0.045   0.896   2.091  2.1399  0.4952  0.9028
   12SOL    HW2   36   0.069   0.729   2.128  2.9101 -0.8297 -0.2387
   13SOL     OW   37   2.426   2.745   0.322  0.4109  0.4490 -0.5065
   13SOL    HW1   38   2.476   2.749   0.236 -1.2358 -0.4470 -0.2439
   13SOL    HW2   39   2.460   2.667   0.380  2.4950 -1.7283  0.5748
   14SOL     OW   40   1.352   1.782   0.268  0.1245 -0.6423  0.1676
   14SOL    HW1   41   1.350   1.785   0.166  1.3396  0.9062  2.3487
   14SOL    HW2   42   1.405   1.863   0.303 -0.1014  0.9863 -1.3344
   15SOL     OW   43   2.885   2.700   1.873 -0.0536 -0.4814 -0.6322
   15SOL    HW1   44   2.973   2.682   1.829 -1.3107  1.6209  3.7354
   15SOL    HW2   45   2.892   2.793   1.916  2.2903  3.4087 -0.9194
   16SOL     OW   46   2.894   0.454   0.813  0.0988 -0.4472  0.2511
   16SOL    HW1   47   2.962   0.424   0.882  0.3690 -1.1075  0.7129
   16SOL    HW2   48   2.864   0.371   0.761 -0.1665 -0.2572  0.5309
   17SOL     OW   49   1.106   0.054   0.718  0.0995  0.4090 -0.6479
   17SOL    HW1   50   1.050   0.135   0.683 -1.1472  0.5139 -0.4418
   17SOL    HW2   51   1.141   0.073   0.816  3.5379 -0.2594 -0.2117
   18SOL     OW   52   1.145   0.230   0.912  0.5687 -0.1638  0.0309
   18SOL    HW1   53   1.229   0.250   0.962 -2.7483  0.8709 -1.9614
   18SOL    HW2   54   1.107   0.325   0.897 -1.8434  2.4217  2.9262
   19SOL     OW   55   2.132   1.032   0.551 -0.1029  0.3663 -0.1131
   19SOL    HW1   56   2.201   1.083   0.609 -2.5279  0.4570 -2.7051
   19SOL    HW2   57   2.166   1.034   0.457  0.4304  3.1178  1.1315
   20SOL     OW   58   2.317   1.450   2.754 -0.4371 -0.4544  0.4108
   20SOL    HW1   59   2.306   1.412   2.659 -0.3021 -0.4431  0.1331
   20SOL    HW2   60   2.338   1.546   2.746 -2.5644 -2.8699 -0.3404
   21SOL     OW   61   1.483   3.064   0.195 -0.1192 -0.7483  0.2601
   21SOL    HW1   62   1.563   3.055   0.256 -3.3516 -0.3562 -1.4829
   21SOL    HW2   63   1.396   3.065   0.250 -2.8026 -1.5819 -0.0957
   22SOL     OW   64   2.826   1.177   0.941  0.0933  0.0298 -0.3926
   22SOL    HW1   65   2.764   1.147   1.021  0.4745  2.6311  1.9266
   22SOL    HW2   66   2.774   1.234   0.872  1.1041 -0.4237 -3.3403
   23SOL     OW   67   0.526   0.251   2.116 -0.1949 -0.6217  0.5832
   23SOL    HW1   68   0.524   0.347   2.085  1.0456 -1.8475 -0.6696
   23SOL    HW2   69   0.496   0.192   2.037  1.1350 -1.3116  0.3858
   24SOL     OW   70   2.269   2.094   0.740 -0.0310 -0.0937  0.6482
   24SOL    HW1   71   2.214   2.184   0.747 -3.3876  1.5799  0.5610
   24SOL    HW2   72   2.206   2.025   0.691  0.2325 -2.0795 -2.2282
   25SOL     OW   73   1.743   3.004   2.572  0.5283 -0.0682  0.0566
   25SOL    HW1   74   1.688   3.022   2.490 -0.0027 -2.2918  0.3196
   25SOL    HW2   75   1.677   2.978   2.648 -0.9398  1.0803  1.2673
   26SOL     OW   76   1.524   2.211   0.013  0.2117  0.2330 -0.0525
   26SOL    HW1   77   1.587   2.290   3.067 -2.1773 -1.0658 -0.9373
   26SOL    HW2   78   1.489   2.175   2.991 -2.6274 -1.2764 -2.1366
   27SOL     OW   79   1.516   0.391   1.236  0.7193  0.7597  0.1930
   27SOL    HW1   80   1.475   0.357   1.149 -0.6226 -0.3535  0.6163
   27SOL    HW2   81   1.613   0.369   1.240 -1.2766 -1.4475 -2.7667
   28SOL     OW   82   0.953   1.489   0.575  0.1397 -0.2197 -0.3161
   28SOL    HW1   83   0.884   1.526   0.639 -1.2285 -2.2072 -0.5596
   28SOL    HW2   84   1.041   1.539   0.570 -2.4292 -0.0698 -1.3070
   29SOL     OW   85   2.552   0.270   1.596  0.3076  0.4473  0.1609
   29SOL    HW1   86   2.508   0.183   1.554 -3.8883 -0.5378 -0.9928
   29SOL    HW2   87   2.552   0.275   1.697  1.0334  2.5578  2.4614
   30SOL     OW   88   1.386   2.356   1.469 -0.6712 -0.0885 -1.0009
   30SOL    HW1   89   1.462   2.286   1.469 -2.8722 -0.9398 -1.1758
   30SOL    HW2   90   1.297   2.314   1.442  1.1327 -0.7520 -0.5834
   31SOL     OW   91   1.989   2.683   1.425  0.0764 -0.1014 -0.0137
   31SOL    HW1   92   1.906   2.742   1.401  2.1304  1.8903 -1.7028
   31SOL    HW2   93   2.045   2.669   1.341  1.2451  1.2486  1.6221
   32SOL     OW   94   2.019   1.379   2.418 -0.6686  0.6774  0.3791
   32SOL    HW1   95   1.946   1.310   2.434  0.5374  1.5648  2.6949
   32SOL    HW2   96   2.102   1.347   2.474  0.9726 -2.2314  1.7208
   33SOL     OW   97   2.423   0.526   2.950 -0.0979 -0.4803  0.1729
   33SOL    HW1   98   2.365   0.528   3.033  0.7952  2.6145 -0.8776
   33SOL    HW2   99   2.370   0.577   2.879 -2.3375 -1.3315 -1.0700
   34SOL     OW  100   1.877   0.346   0.239 -0.5768  0.8795 -0.2553
   34SOL    HW1  101   1.778   0.336   0.259 -0.0990  0.4120 -2.1225
   34SOL    HW2  102   1.926   0.261   0.277  0.0256 -2.6740  0.3572
   35SOL     OW  103   0.140   1.931   1.878  0.6083 -0.1890 -0.1317
   35SOL    HW1  104   0.130   2.026   1.915  0.0224  0.5421 -0.8581
   35SOL    HW2  105   0.121   1.865   1.956 -3.0249 -1.6700  1.8340
   36SOL     OW  106   2.482   1.683   2.733 -0.9445  0.3563 -0.7041
   36SOL    HW1  107   2.508   1.735   2.818  2.0966 -0.4575 -0.1439
   36SOL    HW2  108   2.536   1.728   2.655  1.5020 -0.8035 -1.4379
   37SOL     OW  109   1.379   2.873   1.647 -0.1556  0.1132 -0.9039
   37SOL    HW1  110   1.451   2.797   1.637  0.9683 -2.4415 -0.4430
   37SOL    HW2  111   1.379   2.903   1.747 -1.2425  0.3305 -0.3799
   38SOL     OW  112   0.511   0.840   2.509 -0.0550 -0.8299 -0.3545
   38SOL    HW1  113   0.422   0.860   2.461 -2.0307  0.1291 -3.1306
   38SOL    HW2  114   0.591   0.830   2.449 -1.2021 -0.1221 -0.0214
   39SOL     OW  115   1.907   0.817   1.367  0.3274 -0.1929  0.1243
   39SOL    HW1  116   1.872   0.724   1.345  3.2475  1.2162  0.7523
   39SOL    HW2  117   1.925   0.866   1.282  0.6256 -0.0070  0.3484
   40SOL     OW  118   1.267   2.355   0.790  0.6168 -0.0075 -0.2861
   40SOL    HW1  119   1.241   2.265   0.833  2.1365 -1.3828  0.7286
   40SOL    HW2  120   1.233   2.368   0.695 -0.3057 -1.0625  0.9044
   41SOL     OW  121   2.052   2.033   0.972  1.1602 -0.2816  0.2109
   41SOL    HW1  122   2.000   1.976   0.906 -1.9275 -1.6862  1.8658
   41SOL    HW2  123   2.011   2.125   0.972  0.2614  0.1238 -0.1150
   42SOL     OW  124   2.426   0.507   0.714 -0.2589  0.1470  0.1160
   42SOL    HW1  125   2.511   0.502   0.775  1.4803  0.6640  2.3416
   42SOL    HW2  126   2.423   0.590   0.652  1.3163 -1.2784 -0.1647
   43SOL     OW  127   0.551   1.577   2.298  0.1554  0.2233 -0.9472
   43SOL    HW1  128   0.577   1.579   2.201  1.2543 -0.1571 -1.2298
   43SOL    HW2  129   0.557   1.669   2.335 -1.7703 -4.0131 -0.9256
   44SOL     OW  130   1.710   2.464   1.321 -0.1789  0.0093  0.2487
   44SOL    HW1  131   1.638   2.461   1.246 -2.3992  1.2805 -0.3831
   44SOL    HW2  132   1.792   2.428   1.273  1.0110 -0.7770  0.5510
   45SOL     OW  133   0.912   0.143   2.455  0.0233 -0.4526 -0.0303
   45SOL    HW1  134   0.967   0.226   2.442 -1.4881 -0.9500  0.5747
   45SOL    HW2  135   0.903   0.122   2.554  2.1805 -0.9834 -0.2585
   46SOL     OW  136   0.671   2.605   1.896  0.0214  0.1099  0.3499
   46SOL    HW1  137   0.676   2.668   1.816  3.3639 -1.2801 -1.3819
   46SOL    HW2  138   0.664   2.662   1.981 -0.9753  1.8795 -1.0580
   47SOL     OW  139   1.020   1.908   0.961 -0.2459  0.1618  0.1117
   47SOL    HW1  140   1.075   1.827   0.942 -1.4896 -1.0898 -0.0337
   47SOL    HW2  141   0.977   1.898   1.052 -2.0025 -0.3820  0.0258
   48SOL     OW  142   0.854   2.446   1.358 -0.5532 -0.5317 -0.0552
   48SOL    HW1  143   0.914   2.507   1.304 -2.3060 -2.5331 -2.8798
   48SOL    HW2  144   0.865   2.462   1.461 -1.5221 -2.7693  1.6278
   49SOL     OW  145   2.873   0.244   2.798 -0.0066  0.3898 -0.1994
   49SOL    HW1  146   2.808   0.315   2.833  1.4615 -1.3553 -0.1718
   49SOL    HW2  147   2.963   0.290   2.797  2.0207 -1.6676 -0.6303
   50SOL     OW  148   1.508   1.017   0.405  0.3374 -0.1253  0.6787
   50SOL    HW1  149   1.480   0.963   0.481  1.3988  0.0825 -0.7764
   50SOL    HW2  150   1.430   1.069   0.363  1.8375  0.1104  0.5490
   51SOL     OW  151   1.968   3.067   0.593 -0.0192 -0.6158  0.2889
   51SOL    HW1  152   1.989   0.028   0.494  0.6609  1.1801 -2.9383
   51SOL    HW2  153   2.014   0.058   0.662 -0.0791 -0.5374  0.0489
   52SOL     OW  154   0.953   1.490   0.164 -0.0468 -0.4771  0.3955
   52SOL    HW1  155   0.948   1.474   0.064  0.3689 -0.8562  0.1292
   52SOL    HW2  156   0.885   1.563   0.181  0.2773 -1.2219  3.3641
   53SOL     OW  157   0.179   1.006   2.586  0.1247  0.2896 -0.0310
   53SOL    HW1  158   0.218   1.012   2.681  0.4678 -0.1941 -1.2693
   53SOL    HW2  159   0.183   1.093   2.538  1.2177  1.0684  0.9440
   54SOL     OW  160   2.284   1.917   2.945  0.1840  0.0470 -0.0694
   54SOL    HW1  161   2.385   1.897   2.940 -0.6349 -1.4249 -1.8215
   54SOL    HW2  162   2.223   1.834   2.954 -2.5901  1.8486  0.3373
   55SOL     OW  163   2.265   2.206   1.292  0.9315  0.7337 -0.4165
   55SOL    HW1  164   2.343   2.218   1.354  0.8103 -0.7119 -1.1720
   55SOL    HW2  165   2.277   2.126   1.230 -1.4453  1.9372  2.2839
   56SOL     OW  166   1.783   3.046   1.263  0.2597 -0.9310  0.1780
   56SOL    HW1  167   1.777   2.948   1.281 -0.5690  0.0484  0.9305
   56SOL    HW2  168   1.763   3.059   1.163 -0.7610  0.0927  0.2301
   57SOL     OW  169   1.622   1.457   0.712  0.7362 -0.0229 -0.1807
   57SOL    HW1  170   1.622   1.404   0.625  1.8493  1.2770 -1.2137
   57SOL    HW2  171   1.704   1.516   0.715  0.7853  0.1631 -0.7329
   58SOL     OW  172   2.429   0.019   1.735 -0.6449 -0.4660  0.1874
   58SOL    HW1  173   2.347   0.055   1.770  0.5653 -1.0001 -0.1180
   58SOL    HW2  174   2.444   0.058   1.639 -2.7895  0.5177  1.7485
   59SOL     OW  175   1.060   2.850   2.499  0.0311 -0.2339  0.1074
   59SOL    HW1  176   1.029   2.777   2.439 -0.1231  0.3855 -0.7723
   59SOL    HW2  177   0.994   2.860   2.581  1.1024  2.8244  0.6868
   60SOL     OW  178   0.554   0.276   2.514  0.6077  0.0612  0.1826
   60SOL    HW1  179   0.498   0.323   2.584 -2.2139  0.8607 -0.4321
   60SOL    HW2  180   0.624   0.338   2.474  0.1460  1.4322 -1.1225
   61SOL     OW  181   0.851   2.113   0.850 -0.1442  0.6784 -0.2882
   61SOL    HW1  182   0.844   2.090   0.747 -2.2241 -0.4656 -2.9256
   61SOL    HW2  183   0.895   2.037   0.897  2.4817 -3.0223  0.2313
   62SOL     OW  184   1.032   2.080   2.085 -0.4440 -0.4989  0.0434
   62SOL    HW1  185   1.113   2.127   2.126 -3.0119 -1.1318 -0.3370
   62SOL    HW2  186   1.063   2.000   2.033  1.7736 -1.4401 -0.9221
   63SOL     OW  187   1.304   1.829   0.645  0.1216 -0.0151 -0.2344
   63SOL    HW1  188   1.214   1.835   0.603 -0.7808  2.9555 -2.0745
   63SOL    HW2  189   1.361   1.748   0.624  0.2828  0.2759  1.1234
   64SOL     OW  190   1.635   1.503   0.331 -0.3748 -0.2967  0.3464
   64SOL    HW1  191   1.584   1.524   0.241 -2.4854 -1.6490 -2.1290
   64SOL    HW2  192   1.611   1.410   0.360 -2.7352  1.5204  0.6971
   65SOL     OW  193   1.549   1.917   2.376  0.0348 -0.1347  0.1330
   65SOL    HW1  194   1.558   1.829   2.333 -2.2088  1.6931  0.6717
   65SOL    HW2  195   1.584   1.908   2.472  0.1044 -0.7075  1.4274
   66SOL     OW  196   0.273   0.848   1.301  0.3215  0.2552 -0.4300
   66SOL    HW1  197   0.216   0.767   1.267 -2.3171 -1.5862  1.2330
   66SOL    HW2  198   0.362   0.861   1.257 -2.2281  1.3158 -1.7388
   67SOL     OW  199   2.098   2.545   0.404  0.0544  0.7204  0.7200
   67SOL    HW1  200   2.014   2.568   0.463 -0.9843 -1.7822  0.3687
   67SOL    HW2  201   2.067   2.468   0.343  0.4946 -0.1551  1.2737
   68SOL     OW  202   2.253   2.302   1.621  0.4187  0.0644  0.2263
   68SOL    HW1  203   2.340   2.353   1.597  0.0500 -0.1396  0.4180
   68SOL    HW2  204   2.273   2.225   1.685  0.9998  2.3538 -2.2760
   69SOL     OW  205   2.382   2.351   2.513 -0.2704 -0.0445  0.1298
   69SOL    HW1  206   2.298   2.409   2.516  0.9659  0.5386 -2.7636
   69SOL    HW2  207   2.358   2.253   2.493  1.6489  1.9814  4.7647
   70SOL     OW  208   0.195   1.252   2.460  0.0077  0.2236 -0.3256
   70SOL    HW1  209   0.136   1.293   2.533 -0.1457 -1.7502 -1.3650
   70SOL    HW2  210   0.139   1.226   2.381 -0.8899 -1.6389 -0.7436
   71SOL     OW  211   0.689   0.989   2.106 -0.1026  0.2547 -0.2385
   71SOL    HW1  212   0.719   0.923   2.178  0.0764  1.1808  0.7425
   71SOL    HW2  213   0.634   0.941   2.031  0.0250  0.4292 -1.8960
   72SOL     OW  214   2.214   1.236   1.771 -0.3540 -0.2267 -0.9141
   72SOL    HW1  215   2.178   1.199   1.689  3.8986  1.3913  0.6873
   72SOL    HW2  216   2.318   1.226   1.772  1.6202 -0.7918  1.1647
   73SOL     OW  217   0.848   2.025   3.033 -0.7377 -0.3079 -0.0122
   73SOL    HW1  218   0.896   2.012   0.050 -0.1431  1.4613 -0.1915
   73SOL    HW2  219   0.779   1.955   3.011 -2.4721  1.7542  0.6638
   74SOL     OW  220   1.668   2.836   2.066  0.1988  0.2832  0.3036
   74SOL    HW1  221   1.718   2.779   1.996  2.7515 -1.9197 -0.4118
   74SOL    HW2  222   1.585   2.880   2.025  3.4349  2.5527 -0.9296
   75SOL     OW  223   1.213   2.662   0.682 -0.3787  0.4618  0.4606
   75SOL    HW1  224   1.282   2.611   0.628  0.7242  0.2728  0.1556
   75SOL    HW2  225   1.219   2.757   0.652 -2.0800  1.5143  1.7230
   76SOL     OW  226   2.778   2.249   2.746 -0.5342  0.3603  0.2117
   76SOL    HW1  227   2.838   2.303   2.805  0.1671  2.4845  0.8664
   76SOL    HW2  228   2.809   2.255   2.650  0.2034  0.1328  0.6478
   77SOL     OW  229   0.024   2.539   1.248  0.1252  0.5301 -0.4848
   77SOL    HW1  230   3.058   2.612   1.311  0.4721  0.4392 -0.1827
   77SOL    HW2  231   0.106   2.495   1.291  0.7575 -0.3084 -0.0537
   78SOL     OW  232   2.571   1.055   0.313 -0.3807 -0.4565 -0.0002
   78SOL    HW1  233   2.609   1.130   0.251  0.9904 -0.0053 -2.3875
   78SOL    HW2  234   2.586   1.069   0.411 -0.5402 -3.6641 -2.4718
   79SOL     OW  235   0.156   1.859   2.784 -0.2338 -0.0513  0.2839
   79SOL    HW1  236   0.137   1.759   2.788 -0.5493  0.8363  0.3581
   79SOL    HW2  237   0.171   1.895   2.880 -1.2943 -0.7816 -0.5605
   80SOL     OW  238   1.644   1.416   1.593  0.2946 -0.3578 -0.2007
   80SOL    HW1  239   1.666   1.469   1.680 -2.4195 -0.8429  0.1327
   80SOL    HW2  240   1.558   1.448   1.550 -0.7957  0.8175 -1.4553
   81SOL     OW  241   1.976   0.960   2.001 -0.2250 -0.1535 -0.0554
   81SOL    HW1  242   1.891   1.016   1.985  1.2738  1.8676 -0.0841
   81SOL    HW2  243   2.036   1.010   2.064 -1.6286  0.1030 -1.8625
   82SOL     OW  244   1.536   1.192   1.674 -0.1241  0.7384 -0.3120
   82SOL    HW1  245   1.566   1.268   1.610 -2.0359  0.8094 -3.5917
   82SOL    HW2  246   1.478   1.227   1.747  1.4455  2.3511  0.7676
   83SOL     OW  247   0.250   0.397   2.979 -0.1023 -0.2228  0.2520
   83SOL    HW1  248   0.183   0.378   3.057 -1.2697  0.1212  0.1813
   83SOL    HW2  249   0.199   0.381   2.890  0.7781 -2.7161  0.3458
   84SOL     OW  250   0.321   1.297   2.896 -0.0788 -0.5620  0.3337
   84SOL    HW1  251   0.288   1.203   2.858 -0.9815 -2.9205 -0.6245
   84SOL    HW2  252   0.247   1.338   2.958 -0.1263  0.4245 -0.6546
   85SOL     OW  253   2.222   1.573   2.013 -0.0212  0.1960 -0.2272
   85SOL    HW1  254   2.324   1.558   2.006  0.0869 -0.2285  1.3492
   85SOL    HW2  255   2.205   1.601   2.110 -0.7357 -0.9214 -0.8624
   86SOL     OW  256   0.474   0.961   1.154  0.5225  0.0868  0.2970
   86SOL    HW1  257   0.546   1.029   1.166 -1.8774 -0.9104 -0.2131
   86SOL    HW2  258   0.486   0.907   1.069  1.9187 -0.5091 -1.2880
   87SOL     OW  259   2.594   2.055   2.473  0.1031  0.1838  0.8705
   87SOL    HW1  260   2.562   2.061   2.374 -0.1232 -0.6731  0.1107
   87SOL    HW2  261   2.694   2.062   2.485  2.5065  3.0978 -0.0634
   88SOL     OW  262   0.418   2.851   0.164 -0.0269 -0.2597 -0.5741
   88SOL    HW1  263   0.397   2.806   0.252 -1.2355 -1.8696 -2.0023
   88SOL    HW2  264   0.427   2.777   0.089 -1.6752  0.3261  0.3639
   89SOL     OW  265   1.597   0.621   0.258  0.3189 -0.0914  0.2687
   89SOL    HW1  266   1.570   0.660   0.167  0.3023 -1.4288 -1.1617
   89SOL    HW2  267   1.696   0.647   0.286 -0.0004  3.0449 -0.8838
   90SOL     OW  268   2.899   1.620   2.224 -0.3515 -0.2913  0.1657
   90SOL    HW1  269   2.844   1.540   2.266 -2.4729 -0.7526  2.8687
   90SOL    HW2  270   2.973   1.651   2.289  0.6829 -1.7305  0.5870
   91SOL     OW  271   2.159   2.891   1.273  0.4474 -0.1956  0.5993
   91SOL    HW1  272   2.130   2.881   1.177 -1.3103 -2.7876 -0.3005
   91SOL    HW2  273   2.087   2.944   1.325  0.4732 -2.0663 -0.0893
   92SOL     OW  274   2.157   1.476   1.004 -0.6179  0.1638  0.2030
   92SOL    HW1  275   2.072   1.438   0.976  3.2179  1.3626 -0.7999
   92SOL    HW2  276   2.143   1.569   1.032  1.1415 -2.6549 -0.2835
   93SOL     OW  277   0.205   1.403   0.035 -0.0950  0.0971 -0.1126
   93SOL    HW1  278   0.135   1.423   0.107  2.4096  0.6345  1.3410
   93SOL    HW2  279   0.292   1.443   0.071  0.6334  0.7351 -2.1356
   94SOL     OW  280   1.093   2.652   1.738 -0.7413  0.0693 -0.1754
   94SOL    HW1  281   1.060   2.654   1.837  2.8791 -0.9294 -0.0887
   94SOL    HW2  282   1.150   2.567   1.712  0.1201 -0.9224 -0.4325
   95SOL     OW  283   0.156   0.596   0.816  0.1650  0.1893 -0.0204
   95SOL    HW1  284   0.174   0.679   0.869  0.6872 -2.1053 -0.8872
   95SOL    HW2  285   0.076   0.553   0.857  2.2502  3.4183  2.1562
   96SOL     OW  286   0.053   2.655   1.776 -0.0863  0.4507  1.1046
   96SOL    HW1  287   0.054   2.757   1.784 -2.2813  0.9558  2.9340
   96SOL    HW2  288   0.129   2.614   1.722 -0.2439  1.6673 -0.1032
   97SOL     OW  289   2.298   0.299   1.309 -0.3489 -0.0011  0.8601
   97SOL    HW1  290   2.317   0.393   1.273  1.9882  2.9257 -0.9598
   97SOL    HW2  291   2.278   0.241   1.226  1.1411 -2.5381 -0.3907
   98SOL     OW  292   2.890   2.384   1.597 -0.1302 -0.1632  0.4701
   98SOL    HW1  293   2.842   2.470   1.610  0.6388  1.0072  0.5323
   98SOL    HW2  294   2.908   2.366   1.500 -1.6568 -0.8618  2.2269
   99SOL     OW  295   0.177   0.299   1.371 -0.4018  0.1725 -0.3404
   99SOL    HW1  296   0.085   0.258   1.401 -0.0687 -0.5703 -2.3606
   99SOL    HW2  297   0.195   0.374   1.437 -1.3045 -3.0910  2.7111
  100SOL     OW  298   2.259   0.427   2.536  0.1548  0.6685 -0.4552
  100SOL    HW1  299   2.163   0.409   2.518  2.3145 -2.6173  0.6767
  100SOL    HW2  300   2.272   0.392   2.633 -2.7272 -0.3832  2.1508
  101SOL     OW  301   0.378   0.160   2.336  0.5751  0.5527  0.2029
  101SOL    HW1  302   0.422   0.175   2.250 -0.0571  0.3944 -0.3187
  101SOL    HW2  303   0.439   0.189   2.416 -1.9357  1.7524  0.1542
  102SOL     OW  304   0.557   0.311   1.749 -0.7214  0.0058 -0.1853
  102SOL    HW1  305   0.539   0.340   1.651 -0.4885 -0.7429  0.3731
  102SOL    HW2  306   0.654   0.293   1.769 -1.6301 -0.7431 -1.6744
  103SOL     OW  307   1.084   1.001   2.372 -0.5947 -0.3805  0.4779
  103SOL    HW1  308   1.160   1.068   2.377 -0.0176  2.1144 -0.0971
  103SOL    HW2  309   1.116   0.926   2.317 -2.8865  0.0330  2.9048
  104SOL     OW  310   0.161   0.498   1.862  0.1465 -0.0238 -0.1248
  104SOL    HW1  311   0.087   0.561   1.833 -0.7069 -0.6518  1.6774
  104SOL    HW2  312   0.175   0.506   1.965  0.9986 -0.3643 -0.3728
  105SOL     OW  313   2.175   1.944   1.641  0.3164  0.5551  0.8992
  105SOL    HW1  314   2.080   1.946   1.612  0.3321  0.1177 -1.4351
  105SOL    HW2  315   2.166   1.882   1.720 -1.1162  0.0777  0.6361
  106SOL     OW  316   1.592   0.203   0.516 -0.2029 -0.1274  0.0923
  106SOL    HW1  317   1.488   0.202   0.521 -0.1549  0.6105 -0.7329
  106SOL    HW2  318   1.622   0.251   0.433 -0.7091 -1.0355  1.4281
  107SOL     OW  319   2.296   1.999   1.096  0.0153 -0.1866  0.1775
  107SOL    HW1  320   2.205   2.012   1.048  0.6200  1.6893 -0.8612
  107SOL    HW2  321   2.350   1.922   1.056 -0.4453 -0.1709 -1.2102
  108SOL     OW  322   0.240   2.226   1.048  0.0829  0.2680  0.1936
  108SOL    HW1  323   0.268   2.309   0.994 -1.8509  0.9823  0.9841
  108SOL    HW2  324   0.257   2.243   1.148  0.1964 -0.1305 -0.8662
  109SOL     OW  325   1.587   2.690   0.914  0.2780  0.0075 -0.8241
  109SOL    HW1  326   1.543   2.622   0.857 -1.1912 -1.3535  1.9063
  109SOL    HW2  327   1.542   2.700   1.006 -0.1936 -1.1259  1.7017
  110SOL     OW  328   1.871   1.721   1.043 -0.2019 -0.5177  0.9660
  110SOL    HW1  329   1.970   1.730   1.080  2.0630 -1.8822  0.4853
  110SOL    HW2  330   1.828   1.640   1.078  1.9728  2.3316 -0.0665
  111SOL     OW  331   1.443   2.353   1.877  0.0995  0.6700  0.6083
  111SOL    HW1  332   1.543   2.356   1.852 -0.6261  1.6036 -0.1828
  111SOL    HW2  333   1.434   2.426   1.948  0.3228  1.1021 -1.5990
  112SOL     OW  334   1.970   2.329   3.015  0.3367  0.3856 -0.2304
  112SOL    HW1  335   2.014   2.289   0.032 -1.2857 -0.1101  0.0390
  112SOL    HW2  336   2.024   2.409   2.987 -0.0322  0.8847 -1.2629
  113SOL     OW  337   2.121   1.631   1.766 -0.3481  0.1012  0.1033
  113SOL    HW1  338   2.145   1.615   1.863  1.9803  0.4861  0.6320
  113SOL    HW2  339   2.061   1.554   1.732 -2.2820  1.4304 -0.0743
  114SOL     OW  340   2.896   1.152   1.857  0.2829 -0.1575  0.1997
  114SOL    HW1  341   2.823   1.145   1.928  0.8008 -2.9432 -0.8691
  114SOL    HW2  342   2.877   1.237   1.803 -0.2621  1.4856 -1.4217
  115SOL     OW  343   2.931   1.023   0.140 -0.4661  0.4052  0.1842
  115SOL    HW1  344   3.017   1.057   0.089 -1.5928  1.3411 -1.6816
  115SOL    HW2  345   2.954   0.943   0.199  1.1602  4.4040  0.5128
  116SOL     OW  346   2.752   0.689   2.883 -0.0426  0.3338 -0.3047
  116SOL    HW1  347   2.720   0.681   2.980  0.9497  2.5644  0.0947
  116SOL    HW2  348   2.702   0.766   2.841  3.9750 -1.3095 -1.1485
  117SOL     OW  349   2.693   2.293   0.042 -0.0161  0.0716  1.0900
  117SOL    HW1  350   2.753   2.361   3.064 -0.6959  1.6531 -0.7034
  117SOL    HW2  351   2.631   2.243   3.041  0.2171 -2.8898  0.2749
  118SOL     OW  352   0.430   2.129   2.748 -0.3267 -0.3224  0.2595
  118SOL    HW1  353   0.440   2.231   2.752 -1.1636  0.5334 -0.3961
  118SOL    HW2  354   0.437   2.085   2.841 -0.5493 -0.6771  3.7617
  119SOL     OW  355   0.771   2.682   0.361 -0.1065 -0.2467 -0.1881
  119SOL    HW1  356   0.823   2.596   0.386 -0.1130 -1.7391 -0.5975
  119SOL    HW2  357   0.764   2.742   0.445 -1.6483  2.3399 -1.3811
  120SOL     OW  358   1.257   0.847   0.037  0.4536 -0.5317  0.2624
  120SOL    HW1  359   1.231   0.863   0.134 -0.2978  0.3827 -0.1202
  120SOL    HW2  360   1.355   0.815   0.029  2.7490 -0.0232  2.0701
  121SOL     OW  361   1.509   2.946   0.789  0.1863  0.0620 -0.2980
  121SOL    HW1  362   1.537   2.853   0.813  0.5056  2.3184  1.3253
  121SOL    HW2  363   1.570   2.998   0.719  0.5467 -0.0745  1.6124
  122SOL     OW  364   2.508   1.418   2.340 -0.0211  0.4701  0.1426
  122SOL    HW1  365   2.505   1.364   2.251  0.1764 -0.3797 -2.9238
  122SOL    HW2  366   2.499   1.521   2.326 -2.6745  2.4212  0.1643
  123SOL     OW  367   1.195   1.115   1.351 -0.4134 -0.0449 -0.0625
  123SOL    HW1  368   1.115   1.166   1.385 -2.0851 -1.3378 -0.6884
  123SOL    HW2  369   1.181   1.013   1.347  0.4310 -2.6564  1.5031
  124SOL     OW  370   0.556   0.627   0.157 -0.0452 -0.2252 -0.1975
  124SOL    HW1  371   0.506   0.539   0.153 -0.0669  0.3186  1.7545
  124SOL    HW2  372   0.514   0.695   0.093 -0.2269  0.6221  1.9830
  125SOL     OW  373   0.730   0.289   0.512  0.2146  0.7031 -0.4894
  125SOL    HW1  374   0.692   0.234   0.436 -1.3970 -1.2082 -0.0837
  125SOL    HW2  375   0.655   0.340   0.554 -4.9512 -3.2212 -0.2129
  126SOL     OW  376   0.210   1.655   0.354 -0.1310  0.0125  0.0397
  126SOL    HW1  377   0.231   1.740   0.412 -2.5751  2.1274 -0.7624
  126SOL    HW2  378   0.141   1.600   0.403  0.9880  2.6018 -0.9028
  127SOL     OW  379   0.705   2.771   1.694 -0.1062  0.2760  0.7224
  127SOL    HW1  380   0.618   2.776   1.636 -4.0415  1.3544 -3.5431
  127SOL    HW2  381   0.723   2.876   1.707 -1.7564  2.3405  0.0603
  128SOL     OW  382   1.120   1.625   0.338 -0.3832  0.2439 -0.0874
  128SOL    HW1  383   1.062   1.572   0.275 -0.1007  2.2515  0.6765
  128SOL    HW2  384   1.188   1.684   0.283  0.6685  0.7500  0.4452
  129SOL     OW  385   1.794   1.431   2.014 -0.2384  0.2432  0.4361
  129SOL    HW1  386   1.732   1.465   1.941 -0.7639 -3.3000  1.6404
  129SOL    HW2  387   1.876   1.385   1.974  0.6226  1.3189 -1.2416
  130SOL     OW  388   1.605   2.154   1.474  0.3298 -0.2174 -0.6477
  130SOL    HW1  389   1.640   2.201   1.555 -2.5171 -4.2767 -3.7734
  130SOL    HW2  390   1.679   2.105   1.422 -2.4676  0.0209  1.9516
  131SOL     OW  391   0.101   2.192   1.967  0.1569 -0.0745 -0.1871
  131SOL    HW1  392   0.054   2.264   1.914 -0.4698 -0.8866 -2.4161
  131SOL    HW2  393   0.195   2.223   1.995  1.7242  2.0078 -1.1317
  132SOL     OW  394   2.742   1.760   0.697  0.1746  0.0756 -0.1800
  132SOL    HW1  395   2.810   1.824   0.657  0.9521  3.5095 -0.2366
  132SOL    HW2  396   2.719   1.779   0.792 -3.8858 -1.5185 -1.9266
  133SOL     OW  397   0.615   0.697   1.675 -0.3843  0.4696 -0.4162
  133SOL    HW1  398   0.606   0.711   1.576 -1.4099 -2.3466  1.2229
  133SOL    HW2  399   0.694   0.636   1.690 -3.1435  2.7407  0.4545
  134SOL     OW  400   2.313   1.522   0.077  0.1150  0.0631  0.0375
  134SOL    HW1  401   2.289   1.558   0.167 -0.9652 -3.8384 -4.9914
  134SOL    HW2  402   2.264   1.572   0.003 -1.8074 -1.7231  1.0787
  135SOL     OW  403   1.713   0.945   2.458  0.4912  0.7346 -0.3678
  135SOL    HW1  404   1.621   0.988   2.492 -2.2455  0.3322 -0.1859
  135SOL    HW2  405   1.769   0.927   2.538  0.3927 -1.9544 -1.3349
  136SOL     OW  406   2.719   1.877   1.259  0.1694  0.0543 -0.8932
  136SOL    HW1  407   2.689   1.780   1.237  3.2003  1.1869 -0.2142
  136SOL    HW2  408   2.632   1.927   1.291 -1.2154  1.0698 -2.2364
  137SOL     OW  409   2.367   1.823   0.444 -0.1967  0.3987 -0.4789
  137SOL    HW1  410   2.440   1.866   0.385  0.0170 -0.1008 -1.2988
  137SOL    HW2  411   2.367   1.858   0.539  0.8072  0.7016 -3.1369
  138SOL     OW  412   2.822   0.732   0.721 -0.2171 -0.5909  0.4366
  138SOL    HW1  413   2.827   0.732   0.620  0.0363 -0.5867 -1.3623
  138SOL    HW2  414   2.840   0.639   0.754 -1.4700  1.1632 -2.5868
  139SOL     OW  415   0.074   0.074   0.080 -0.4459 -0.5031 -0.0445
  139SOL    HW1  416   0.146   0.117   0.023  0.9640  3.7405  0.9665
  139SOL    HW2  417   0.084   0.104   0.174 -1.0951 -0.0913 -0.9636
  140SOL     OW  418   0.745   1.134   1.592 -0.2497  0.2116  0.0096
  140SOL    HW1  419   0.704   1.187   1.670 -1.0972  2.0982 -0.3261
  140SOL    HW2  420   0.677   1.075   1.548  1.1388  1.4163 -3.8418
  141SOL     OW  421   1.446   1.484   1.093 -0.0665  0.0361 -0.3153
  141SOL    HW1  422   1.393   1.404   1.119 -0.7892  0.1634 -2.1468
  141SOL    HW2  423   1.403   1.570   1.123 -0.1238 -0.0933 -0.1477
  142SOL     OW  424   1.317   0.703   1.087 -0.0486  0.2241  0.3997
  142SOL    HW1  425   1.277   0.730   0.997 -0.9174  0.0011  1.0298
  142SOL    HW2  426   1.273   0.613   1.117 -1.5453 -1.9071  1.3510
  143SOL     OW  427   0.490   1.078   2.268  0.3303  0.2440  0.0920
  143SOL    HW1  428   0.567   1.055   2.203  0.7426  2.7605  0.8842
  143SOL    HW2  429   0.500   1.176   2.277 -1.7431 -3.2648 -1.8404
  144SOL     OW  430   2.453   0.117   0.320 -0.2329  0.1992  0.5514
  144SOL    HW1  431   2.507   0.162   0.391 -0.4743 -1.0424  0.8050
  144SOL    HW2  432   2.522   0.089   0.248 -1.1384  0.6773 -0.6140
  145SOL     OW  433   2.234   0.289   2.793 -0.2672 -0.2836 -0.2351
  145SOL    HW1  434   2.324   0.277   2.841  0.6941 -1.5797 -0.1875
  145SOL    HW2  435   2.170   0.355   2.836  0.4540 -1.9765 -1.1179
  146SOL     OW  436   2.915   2.869   0.435 -0.8973 -0.2684  0.1873
  146SOL    HW1  437   2.939   2.780   0.391  0.0652  0.3982  0.0126
  146SOL    HW2  438   2.869   2.855   0.524 -0.2975  0.7076 -1.1482
  147SOL     OW  439   0.861   1.199   2.584  0.4718 -0.0362  0.2123
  147SOL    HW1  440   0.920   1.268   2.542 -0.1692 -0.7753  1.2894
  147SOL    HW2  441   0.869   1.108   2.546 -0.8891  0.5460  1.4956
  148SOL     OW  442   1.555   0.212   0.035 -0.6157 -0.0097  0.4955
  148SOL    HW1  443   1.525   0.149   0.103  1.4743  1.0174 -1.3423
  148SOL    HW2  444   1.489   0.220   3.027  2.0268  0.1145 -0.3285
  149SOL     OW  445   1.525   0.073   1.993 -0.2534 -0.6193  0.4018
  149SOL    HW1  446   1.595   0.114   2.063  1.1122  1.0229  1.0039
  149SOL    HW2  447   1.446   0.136   1.984 -2.1010  1.4113  1.5801
  150SOL     OW  448   2.301   2.868   0.044  0.0831 -0.0756  0.5313
  150SOL    HW1  449   2.249   2.789   0.086  0.1851 -1.7793  0.4168
  150SOL    HW2  450   2.402   2.853   0.060  0.5394  0.1653  1.3216
  151SOL     OW  451   0.629   1.584   2.994  0.1808  0.0267 -0.5946
  151SOL    HW1  452   0.543   1.638   3.000  0.4775  1.1641  1.5966
  151SOL    HW2  453   0.609   1.492   2.970  0.2918  0.1925  2.1671
  152SOL     OW  454   0.333   0.090   1.280 -0.3372 -0.1263  0.2496
  152SOL    HW1  455   0.412   0.127   1.220  1.0264  0.6757  1.1546
  152SOL    HW2  456   0.273   0.162   1.317 -0.8003 -2.6255 -0.7370
  153SOL     OW  457   2.611   2.680   1.945 -0.2293  0.1309  0.4719
  153SOL    HW1  458   2.706   2.695   1.912 -0.6586 -1.1008 -2.2581
  153SOL    HW2  459   2.595   2.723   2.040 -0.3338 -1.1931  0.8969
  154SOL     OW  460   2.401   2.783   2.478 -0.2791 -0.4643  0.1818
  154SOL    HW1  461   2.490   2.741   2.451 -1.8587  0.1702 -1.5665
  154SOL    HW2  462   2.316   2.722   2.457  0.3422 -1.8946 -0.0293
  155SOL     OW  463   0.300   1.148   0.631 -0.0084  0.2710  0.2129
  155SOL    HW1  464   0.198   1.154   0.601 -2.7752  1.4782  0.3228
  155SOL    HW2  465   0.318   1.238   0.683  1.3292  5.2359  1.6344
  156SOL     OW  466   2.538   1.642   0.564  0.2455  0.7489  0.2363
  156SOL    HW1  467   2.627   1.691   0.589  1.0225  2.1866 -1.9607
  156SOL    HW2  468   2.482   1.707   0.500 -1.7106  3.6551 -1.8017
  157SOL     OW  469   0.919   0.445   0.340 -0.5168 -0.1258  0.2060
  157SOL    HW1  470   0.868   0.405   0.419 -0.2471 -1.5610 -1.8734
  157SOL    HW2  471   1.014   0.424   0.341 -2.2092  1.3089 -0.1287
  158SOL     OW  472   1.761   0.879   1.039  0.0676  0.1160  0.8185
  158SOL    HW1  473   1.721   0.971   1.045  0.7394 -0.8063 -0.5070
  158SOL    HW2  474   1.698   0.811   1.078  2.3604  1.2462 -0.5009
  159SOL     OW  475   0.202   0.749   0.294  0.5073  0.1012  0.0915
  159SOL    HW1  476   0.222   0.686   0.369 -2.3836  1.1576 -1.5280
  159SOL    HW2  477   0.214   0.704   0.205  0.9083  0.5820  3.0223
  160SOL     OW  478   2.293   1.974   2.014 -0.3234 -0.3920 -0.3072
  160SOL    HW1  479   2.209   1.927   2.051 -0.0005 -1.0651 -1.0136
  160SOL    HW2  480   2.311   2.066   2.055 -0.3836 -0.5123 -0.2178
  161SOL     OW  481   0.288   1.022   2.849  0.0641  0.1660 -0.0178
  161SOL    HW1  482   0.379   0.981   2.823 -1.0515 -2.8036  0.0784
  161SOL    HW2  483   0.254   0.992   2.938 -1.1290  0.2995 -0.0635
  162SOL     OW  484   0.444   0.448   1.934  0.1379  0.2639  0.1369
  162SOL    HW1  485   0.485   0.384   1.860 -1.3479 -1.2437  0.2212
  162SOL    HW2  486   0.347   0.474   1.901 -1.4539 -0.6706 -1.7099
  163SOL     OW  487   2.741   0.008   2.733 -0.4731  0.2005 -0.2544
  163SOL    HW1  488   2.781   0.094   2.767 -1.5498 -1.5953  3.3718
  163SOL    HW2  489   2.676   0.031   2.656 -0.6071 -1.4810  2.8916
  164SOL     OW  490   2.273   2.150   0.244 -0.1700  0.1570  0.2494
  164SOL    HW1  491   2.250   2.185   0.151 -1.1010  0.0483 -2.2531
  164SOL    HW2  492   2.348   2.080   0.232  1.5104  0.2433 -0.0233
  165SOL     OW  493   0.523   0.158   1.075 -0.3167 -0.0980 -0.5709
  165SOL    HW1  494   0.589   0.213   1.021  3.5209  1.5641 -1.7373
  165SOL    HW2  495   0.577   0.084   1.124  0.0997  0.4829  2.3730
  166SOL     OW  496   2.488   0.416   0.269 -0.3176 -0.2801  0.2343
  166SOL    HW1  497   2.591   0.408   0.255  0.3169 -0.1758 -0.3949
  166SOL    HW2  498   2.469   0.415   0.367 -0.9019  1.0792  0.6102
  167SOL     OW  499   2.287   0.864   3.059 -0.2056 -0.0742 -0.5357
  167SOL    HW1  500   2.380   0.901   3.046 -2.4591 -1.3815  0.5395
  167SOL    HW2  501   2.300   0.781   0.052 -0.6918 -1.9048  3.7841
  168SOL     OW  502   1.295   2.775   2.123  0.5258  0.6662 -0.0056
  168SOL    HW1  503   1.205   2.820   2.108 -0.9637  1.0220  0.8899
  168SOL    HW2  504   1.334   2.810   2.213 -1.2214  2.1585  0.2839
  169SOL     OW  505   0.500   1.888   0.596 -0.6183  0.0663  0.2045
  169SOL    HW1  506   0.486   1.983   0.631  0.7783  1.1422  1.4514
  169SOL    HW2  507   0.569   1.837   0.655  3.2427 -0.0486  1.0912
  170SOL     OW  508   2.933   0.851   1.173 -0.0486 -0.4814  0.6779
  170SOL    HW1  509   2.864   0.794   1.218 -1.9151  0.0373 -2.6134
  170SOL    HW2  510   2.919   0.834   1.073  2.2086  0.5134 -0.6913
  171SOL     OW  511   2.771   1.421   2.361  0.0189 -0.2590  0.6435
  171SOL    HW1  512   2.816   1.338   2.319 -0.0048 -0.5535  0.9141
  171SOL    HW2  513   2.669   1.416   2.364 -0.3635 -1.5190 -4.5938
  172SOL     OW  514   0.942   1.824   1.273 -0.4107 -0.3742 -0.3661
  172SOL    HW1  515   1.000   1.904   1.292  1.2163 -1.5004 -1.0765
  172SOL    HW2  516   0.891   1.785   1.354 -0.2565  3.3306 -2.2297
  173SOL     OW  517   1.877   1.824   3.041 -0.5958  0.1718  0.2006
  173SOL    HW1  518   1.890   1.922   3.051 -1.3330 -0.2560  0.6651
  173SOL    HW2  519   1.893   1.776   0.063  2.1948 -3.7185  1.8184
  174SOL     OW  520   1.713   0.750   2.698 -0.3224  0.2129 -0.0896
  174SOL    HW1  521   1.774   0.711   2.622  1.8577  2.4357  2.5836
  174SOL    HW2  522   1.755   0.726   2.787 -0.4280  1.8950 -0.3188
  175SOL     OW  523   0.796   1.597   1.132  0.2171  0.4020  0.5211
  175SOL    HW1  524   0.705   1.574   1.177 -2.4839  1.7168  2.0177
  175SOL    HW2  525   0.866   1.632   1.193 -0.4238  0.4700 -0.7410
  176SOL     OW  526   1.073   0.080   0.287 -0.2155 -0.4788 -0.2330
  176SOL    HW1  527   0.988   0.058   0.342 -1.2049  2.0078  2.3181
  176SOL    HW2  528   1.094   0.180   0.283  2.3739  1.6565 -0.6643
  177SOL     OW  529   0.387   1.542   0.165  0.0796 -0.8198 -0.4574
  177SOL    HW1  530   0.342   1.603   0.237 -0.8270  2.4456 -1.1768
  177SOL    HW2  531   0.454   1.475   0.205 -0.4950 -1.7944 -1.2028
  178SOL     OW  532   3.046   2.436   2.548 -0.5188  0.1314  0.0296
  178SOL    HW1  533   3.044   2.518   2.606  0.5008  1.6544  0.5147
  178SOL    HW2  534   0.001   2.343   2.597  2.1519 -2.1196  4.8045
  179SOL     OW  535   2.779   2.819   2.649  0.0180 -0.1178  0.9826
  179SOL    HW1  536   2.703   2.789   2.584  1.3499 -2.4097 -0.3661
  179SOL    HW2  537   2.757   2.909   2.687  0.3777 -2.5257 -0.0516
  180SOL     OW  538   2.192   0.413   0.804 -0.4042 -0.0333  0.4059
  180SOL    HW1  539   2.158   0.457   0.892 -1.7251 -0.5459 -1.2648
  180SOL    HW2  540   2.281   0.455   0.775 -0.3753  1.1384  0.2888
  181SOL     OW  541   2.612   0.355   2.570 -0.0851  0.1511  0.1966
  181SOL    HW1  542   2.712   0.332   2.571  0.1214  0.6106  0.6547
  181SOL    HW2  543   2.561   0.265   2.560 -2.7068  1.0892  1.9574
  182SOL     OW  544   2.281   2.083   2.451  0.0807  0.6882  0.6125
  182SOL    HW1  545   2.260   1.980   2.431  0.6278  0.5756  1.4827
  182SOL    HW2  546   2.199   2.141   2.424 -3.1096 -0.1150  0.0907
  183SOL     OW  547   2.342   0.528   1.746  0.3642 -0.3412 -0.4065
  183SOL    HW1  548   2.331   0.499   1.843  2.3297  0.8944  0.0039
  183SOL    HW2  549   2.423   0.586   1.734 -2.9573 -6.1247 -1.1202
  184SOL     OW  550   3.049   1.513   0.462  0.0238  0.0109 -0.0381
  184SOL    HW1  551   3.065   1.471   0.556  0.3403 -2.0392  0.9765
  184SOL    HW2  552   2.991   1.597   0.465 -4.4046 -1.1233 -0.3234
  185SOL     OW  553   2.817   0.197   0.765  0.2212 -0.7139 -0.5142
  185SOL    HW1  554   2.827   0.132   0.846 -0.4085 -3.5189  1.1853
  185SOL    HW2  555   2.766   0.148   0.692  0.3371 -0.3764 -2.6836
  186SOL     OW  556   2.254   2.589   2.750  0.3559  0.6738 -0.3404
  186SOL    HW1  557   2.168   2.604   2.801 -0.2399  0.9830  1.2044
  186SOL    HW2  558   2.307   2.678   2.756  0.3143  2.0656  1.7619
  187SOL     OW  559   0.362   1.609   0.645 -0.1594  0.2585  0.1457
  187SOL    HW1  560   0.330   1.615   0.741  0.7064  1.8989  0.3525
  187SOL    HW2  561   0.320   1.679   0.587 -2.0923  2.6812 -0.2769
  188SOL     OW  562   1.942   1.596   0.684 -0.1476 -0.0067 -0.2846
  188SOL    HW1  563   1.903   1.595   0.587  0.9323  1.9389 -0.0148
  188SOL    HW2  564   1.927   1.688   0.731 -0.2995  2.9546 -0.0174
  189SOL     OW  565   2.840   1.340   2.905  0.0013 -0.2272  0.1039
  189SOL    HW1  566   2.883   1.264   2.854 -0.0991 -1.6108  0.8420
  189SOL    HW2  567   2.755   1.382   2.858 -0.6328  1.7109 -1.2700
  190SOL     OW  568   2.437   0.356   2.329  0.4728  0.1759  0.2154
  190SOL    HW1  569   2.380   0.375   2.415  2.3094 -0.1086  0.9651
  190SOL    HW2  570   2.395   0.282   2.273 -2.0501 -0.0183  1.7800
  191SOL     OW  571   1.112   0.327   2.335 -0.1119  0.7219 -0.3390
  191SOL    HW1  572   1.200   0.283   2.373  1.1128  0.6080  0.2275
  191SOL    HW2  573   1.130   0.429   2.328 -0.8084  1.4527 -0.0207
  192SOL     OW  574   1.171   1.742   1.792  0.5393  0.6245 -0.0316
  192SOL    HW1  575   1.133   1.702   1.707 -0.2765  0.2531  0.0258
  192SOL    HW2  576   1.196   1.840   1.773 -0.6399 -0.0717 -1.5148
  193SOL     OW  577   1.504   2.618   1.170  0.2752 -0.0656 -0.1022
  193SOL    HW1  578   1.462   2.605   1.262 -0.3634  1.3672 -0.8877
  193SOL    HW2  579   1.446   2.563   1.104 -0.9046  0.3791  1.0094
  194SOL     OW  580   1.013   1.675   1.998  0.2781  0.1523 -0.1574
  194SOL    HW1  581   1.049   1.629   2.082 -1.4350 -3.1791  0.9159
  194SOL    HW2  582   1.076   1.681   1.920  0.4418 -0.5502  1.2519
  195SOL     OW  583   2.006   0.418   0.571 -0.2739 -0.1130 -0.1847
  195SOL    HW1  584   2.065   0.396   0.653  2.0066 -3.2932  2.4633
  195SOL    HW2  585   2.020   0.356   0.491  0.3305  0.3734 -0.9249
  196SOL     OW  586   1.330   1.546   2.165  0.4026 -0.4661 -0.2500
  196SOL    HW1  587   1.364   1.598   2.246 -0.6945  0.7275  0.2401
  196SOL    HW2  588   1.228   1.529   2.175 -0.9160 -0.2009  2.4789
  197SOL     OW  589   0.119   0.060   1.927 -0.4877 -0.2025 -0.6115
  197SOL    HW1  590   0.070   0.076   2.018 -0.4062  0.7594 -0.9049
  197SOL    HW2  591   0.220   0.062   1.945 -0.0865 -0.0733 -0.3639
  198SOL     OW  592   0.192   1.131   1.021 -0.5778  0.4281 -0.2853
  198SOL    HW1  593   0.172   1.029   1.028  0.2045  1.6991  0.7655
  198SOL    HW2  594   0.110   1.192   1.042 -1.6833 -0.8984  0.7454
  199SOL     OW  595   0.331   2.442   0.908 -0.0044  0.0873 -0.1388
  199SOL    HW1  596   0.238   2.469   0.876 -0.9458 -0.9486 -0.1337
  199SOL    HW2  597   0.394   2.525   0.926  1.7472  0.5394  3.4381
  200SOL     OW  598   1.572   1.508   2.800 -1.0001  0.0087 -0.4780
  200SOL    HW1  599   1.654   1.568   2.798 -0.2325  0.3467  0.4514
  200SOL    HW2  600   1.600   1.411   2.771 -1.7093 -0.2824 -1.9745
  201SOL     OW  601   0.373   2.307   1.722  0.4798 -0.1099  0.1199
  201SOL    HW1  602   0.452   2.307   1.658 -1.7207  1.7082 -1.9306
  201SOL    HW2  603   0.310   2.229   1.697 -0.2047 -0.0295  2.8650
  202SOL     OW  604   1.028   2.757   3.034 -0.3883 -0.3383  0.3996
  202SOL    HW1  605   1.099   2.682   3.036 -1.6045 -0.1462  0.8427
  202SOL    HW2  606   1.080   2.841   3.062 -2.5299  1.6776 -1.5502
  203SOL     OW  607   1.479   0.357   2.064 -0.3446  0.0069 -0.1568
  203SOL    HW1  608   1.393   0.397   2.022  0.2443 -1.1171  0.7367
  203SOL    HW2  609   1.558   0.420   2.061  1.5885  1.2269  0.5233
  204SOL     OW  610   0.508   0.990   1.506  0.3588 -0.5251 -0.2081
  204SOL    HW1  611   0.541   0.902   1.463 -0.6718 -1.7820  0.9944
  204SOL    HW2  612   0.453   1.039   1.437  1.5735 -0.2069  2.1827
  205SOL     OW  613   2.003   0.996   2.522  0.0811  0.0538 -0.5091
  205SOL    HW1  614   2.090   1.036   2.556 -0.8584 -1.9565 -0.2497
  205SOL    HW2  615   2.021   0.927   2.448  0.7018 -0.4428 -0.2145
  206SOL     OW  616   0.482   2.010   2.973 -0.4999  0.3102 -0.0284
  206SOL    HW1  617   0.397   1.972   3.014  2.5123 -0.6062 -0.9915
  206SOL    HW2  618   0.556   1.941   2.967  1.0379 -0.3167 -0.4696
  207SOL     OW  619   0.413   0.086   1.893 -0.0575  0.6023 -0.1212
  207SOL    HW1  620   0.474   0.149   1.838  2.1779  1.2561  0.7698
  207SOL    HW2  621   0.464   3.065   1.906  0.1719  1.2234 -1.9728
  208SOL     OW  622   0.560   2.458   1.302 -0.4355 -0.1749 -0.1832
  208SOL    HW1  623   0.554   2.402   1.390 -0.7658 -0.2597 -0.0242
  208SOL    HW2  624   0.661   2.476   1.280  2.5686  1.0660 -1.7945
  209SOL     OW  625   1.365   2.652   2.833  0.5598  0.1854  0.3193
  209SOL    HW1  626   1.307   2.611   2.910 -4.0745  0.0742 -1.7304
  209SOL    HW2  627   1.385   2.750   2.855  1.3591  0.6438  1.2034
  210SOL     OW  628   2.648   1.397   1.727  0.6300 -0.0049 -0.0661
  210SOL    HW1  629   2.745   1.384   1.695 -0.0950  0.4037  0.2177
  210SOL    HW2  630   2.610   1.483   1.680  2.4406  2.4603  0.5405
  211SOL     OW  631   1.304   0.263   1.661  0.2593  0.0244 -0.2154
  211SOL    HW1  632   1.375   0.334   1.672 -0.7757  1.7608  1.1898
  211SOL    HW2  633   1.354   0.184   1.621 -0.1009 -1.3211 -0.1606
  212SOL     OW  634   0.942   2.271   1.627  0.2473  0.0621  0.1907
  212SOL    HW1  635   0.874   2.341   1.604  1.3409 -3.3103 -0.4586
  212SOL    HW2  636   0.962   2.272   1.726 -0.9972 -1.1981 -0.5210
  213SOL     OW  637   2.440   0.553   2.034  0.4426 -0.0043 -0.2554
  213SOL    HW1  638   2.527   0.589   2.066 -2.5585 -0.6455 -2.1541
  213SOL    HW2  639   2.370   0.557   2.110  0.1733  2.5296  1.4751
  214SOL     OW  640   0.777   1.932   1.693  0.0612 -0.3928 -0.2893
  214SOL    HW1  641   0.871   1.963   1.663  2.1111  0.8232  1.3694
  214SOL    HW2  642   0.740   1.997   1.767  2.1806  3.6312  2.1598
  215SOL     OW  643   2.654   1.884   0.919  0.5444 -0.1762  0.0592
  215SOL    HW1  644   2.685   1.970   0.971 -0.3100  2.6626  2.4579
  215SOL    HW2  645   2.576   1.841   0.970  1.7666  0.7464 -0.6142
  216SOL     OW  646   2.634   0.855   1.030 -0.1570 -0.1871  0.1871
  216SOL    HW1  647   2.604   0.828   0.941  1.6549  4.9895  0.4420
  216SOL    HW2  648   2.579   0.822   1.110  1.5827  0.5546 -1.9340
  217SOL     OW  649   2.430   0.071   1.459  0.3292  0.2337 -0.5697
  217SOL    HW1  650   2.419   0.155   1.400  0.0286  0.2023 -0.0516
  217SOL    HW2  651   2.404   3.056   1.402 -4.9400 -2.4978  1.0937
  218SOL     OW  652   1.582   2.319   1.056 -0.2369 -0.2809  0.2570
  218SOL    HW1  653   1.646   2.246   1.073 -2.7283 -0.2243 -2.2647
  218SOL    HW2  654   1.613   2.366   0.970 -0.1594 -0.7187 -0.6256
  219SOL     OW  655   1.732   2.059   0.152  0.3608 -0.5113 -0.2662
  219SOL    HW1  656   1.757   2.141   0.209  0.1750 -2.4885  3.3585
  219SOL    HW2  657   1.662   2.090   0.088 -0.1399 -0.3140  2.2305
  220SOL     OW  658   1.711   2.431   2.980 -0.1086 -0.0601 -0.1457
  220SOL    HW1  659   1.738   2.520   2.929 -0.5977 -2.8425 -1.4756
  220SOL    HW2  660   1.778   2.356   2.963  0.8684  1.2673 -1.9486
  221SOL     OW  661   2.996   2.225   0.675 -0.2015 -0.1126 -0.2992
  221SOL    HW1  662   0.025   2.236   0.644 -1.0215 -0.5604  0.2773
  221SOL    HW2  663   2.988   2.248   0.774  0.4569 -1.2889 -0.7120
  222SOL     OW  664   1.782   2.450   0.821  0.1373  0.2843 -0.2413
  222SOL    HW1  665   1.816   2.453   0.722  2.5443  0.1179 -1.1793
  222SOL    HW2  666   1.704   2.514   0.825 -2.5675  1.9231  1.5734
  223SOL     OW  667   0.398   2.637   2.267  0.0893  0.4853  0.0461
  223SOL    HW1  668   0.447   2.637   2.354 -3.3960 -1.2399 -2.1459
  223SOL    HW2  669   0.438   2.555   2.215 -1.7987 -1.5079 -1.7101
  224SOL     OW  670   2.902   1.972   1.101  0.1058 -0.1136 -0.6056
  224SOL    HW1  671   2.951   2.047   1.151 -1.5842 -3.8894 -2.5549
  224SOL    HW2  672   2.833   1.923   1.165 -1.6678  0.5770  2.3926
  225SOL     OW  673   2.118   1.895   0.661 -0.1132 -0.0946 -0.4029
  225SOL    HW1  674   2.181   1.820   0.693  2.5404 -0.5325 -1.6072
  225SOL    HW2  675   2.028   1.888   0.707 -0.5502  2.5534  1.1289
  226SOL     OW  676   1.317   2.547   0.385  0.0486 -0.3398  0.0989
  226SOL    HW1  677   1.390   2.616   0.382 -1.1224 -0.9871  0.1189
  226SOL    HW2  678   1.295   2.500   0.296 -0.2946 -0.4022  1.0895
  227SOL     OW  679   1.910   0.640   1.000  0.1686  0.0355 -0.1709
  227SOL    HW1  680   1.879   0.737   1.003 -0.6474  0.0326 -1.3148
  227SOL    HW2  681   1.828   0.580   0.971 -0.6399 -1.9762 -0.0793
  228SOL     OW  682   1.300   0.730   2.014 -0.5313  0.3077  0.4706
  228SOL    HW1  683   1.397   0.729   2.049 -1.1667 -0.3591  0.8002
  228SOL    HW2  684   1.294   0.788   1.928 -0.8253 -1.1639  0.1633
  229SOL     OW  685   2.742   1.059   2.569  0.1200  0.7745 -0.3000
  229SOL    HW1  686   2.781   1.149   2.571 -0.7080 -1.8209 -0.1639
  229SOL    HW2  687   2.805   1.000   2.623 -0.3279  0.6006  0.2787
  230SOL     OW  688   1.057   1.113   1.049 -0.2936  0.8023  0.3555
  230SOL    HW1  689   1.133   1.157   0.999  0.7821  0.2601  0.4652
  230SOL    HW2  690   0.993   1.181   1.087  0.7302 -0.1259  1.8242
  231SOL     OW  691   2.613   2.821   2.182 -0.0796 -0.0373  0.1191
  231SOL    HW1  692   2.626   2.921   2.171  0.6587  0.2715  0.2488
  231SOL    HW2  693   2.644   2.789   2.278  0.6028  0.0649  2.4363
  232SOL     OW  694   0.454   1.988   0.214  0.1247 -0.1344  0.3304
  232SOL    HW1  695   0.365   2.025   0.174 -3.9724 -1.5441 -1.9480
  232SOL    HW2  696   0.514   2.068   0.231 -0.2105 -1.4201  1.1857
  233SOL     OW  697   1.210   2.242   2.233  0.3530 -0.2535 -0.1052
  233SOL    HW1  698   1.194   2.326   2.290  0.2468 -2.1657 -0.2165
  233SOL    HW2  699   1.269   2.178   2.284  0.4325  1.2480 -0.2363
  234SOL     OW  700   0.995   1.427   1.742  0.2242 -0.8226  0.2370
  234SOL    HW1  701   1.062   1.355   1.713  0.3789  0.2129  2.4590
  234SOL    HW2  702   1.004   1.510   1.684 -1.7382 -0.0294  0.3996
  235SOL     OW  703   0.760   1.727   1.916  0.3711  0.4926  0.4323
  235SOL    HW1  704   0.760   1.790   1.834 -0.6433  0.4120 -1.3442
  235SOL    HW2  705   0.850   1.688   1.939  0.9721 -0.5748  1.2148
  236SOL     OW  706   1.609   2.650   2.414  0.1417  0.1753  0.2481
  236SOL    HW1  707   1.698   2.629   2.373  0.9371 -2.1124  2.4839
  236SOL    HW2  708   1.600   2.596   2.502  1.9090 -0.7345  2.3412
  237SOL     OW  709   1.284   2.917   0.642 -0.4092  0.2341 -0.5618
  237SOL    HW1  710   1.208   2.981   0.665  0.8149  1.9557  0.3153
  237SOL    HW2  711   1.363   2.927   0.706 -0.2927 -0.0443  1.2620
  238SOL     OW  712   0.989   0.938   2.815  0.1175 -0.0886 -0.2647
  238SOL    HW1  713   1.053   0.859   2.836  0.1631  0.2548 -1.8741
  238SOL    HW2  714   0.895   0.916   2.855 -1.6109  0.3935  0.4309
  239SOL     OW  715   0.175   0.542   2.127  0.3636  0.2488 -0.7929
  239SOL    HW1  716   0.262   0.590   2.134 -4.1904 -0.4180  0.0093
  239SOL    HW2  717   0.174   0.470   2.202  0.7767  1.2280  2.0984
  240SOL     OW  718   2.228   2.545   0.665 -0.4635  0.1290  0.4409
  240SOL    HW1  719   2.141   2.575   0.617  0.4799 -2.5439 -1.1843
  240SOL    HW2  720   2.309   2.599   0.642  1.7293 -1.7759  1.4197
  241SOL     OW  721   1.570   1.061   1.323  0.2928  0.7084 -0.5874
  241SOL    HW1  722   1.481   1.054   1.374  2.2380 -1.0586 -0.0900
  241SOL    HW2  723   1.633   0.992   1.368 -0.1918  2.8397  1.9262
  242SOL     OW  724   0.269   0.899   0.768  0.1717 -0.3258  0.9469
  242SOL    HW1  725   0.216   0.907   0.850 -0.2556 -3.1235 -2.2565
  242SOL    HW2  726   0.305   0.988   0.738  0.6939 -2.5006  0.8423
  243SOL     OW  727   0.123   0.640   1.189  0.4913 -0.3914  0.1355
  243SOL    HW1  728   0.051   0.600   1.246  0.5421  1.6195 -0.1962
  243SOL    HW2  729   0.203   0.578   1.172  1.9419 -0.1280 -0.7914
  244SOL     OW  730   0.973   0.498   2.965  0.1370 -0.7585  0.4825
  244SOL    HW1  731   0.894   0.559   2.991 -0.3210  2.1807 -1.2418
  244SOL    HW2  732   0.973   0.411   3.019 -1.3671 -0.0664  0.1622
  245SOL     OW  733   2.040   0.893   0.063 -0.0154 -0.0499 -0.1879
  245SOL    HW1  734   2.139   0.905   0.047 -0.3268 -0.8183  0.3109
  245SOL    HW2  735   1.985   0.966   0.021 -1.6888  0.3521  0.7608
  246SOL     OW  736   0.042   1.084   2.002  0.0888 -0.3021 -0.1980
  246SOL    HW1  737   3.034   1.095   1.938 -0.2833  1.2208 -0.2338
  246SOL    HW2  738   0.058   1.170   2.055 -1.8204  0.6206 -1.0644
  247SOL     OW  739   0.539   2.929   1.919 -0.0422 -0.0744  0.2142
  247SOL    HW1  740   0.460   2.875   1.956 -1.2908 -0.9843 -0.7888
  247SOL    HW2  741   0.635   2.901   1.950  2.9333  0.4411 -3.2105
  248SOL     OW  742   0.636   1.519   2.043 -0.0038  0.1902  0.3015
  248SOL    HW1  743   0.659   1.608   2.002  0.3655 -1.5287  0.6737
  248SOL    HW2  744   0.686   1.444   1.993 -0.3873  1.8370 -1.7312
  249SOL     OW  745   0.464   0.403   2.738 -0.1955 -0.0524 -0.5831
  249SOL    HW1  746   0.394   0.404   2.812 -1.4445 -2.1144  1.0142
  249SOL    HW2  747   0.485   0.502   2.715  1.4186 -0.2437 -0.7153
  250SOL     OW  748   0.141   0.157   2.838  0.4771 -0.5165 -0.1689
  250SOL    HW1  749   0.142   0.061   2.814 -0.2826  1.9405  1.1866
  250SOL    HW2  750   0.111   0.221   2.769 -0.9257 -0.3515  0.7217
  251SOL     OW  751   2.854   1.594   1.006 -0.0455 -0.1186 -0.5923
  251SOL    HW1  752   2.848   1.550   0.911  0.4750  1.2027 -1.5363
  251SOL    HW2  753   2.930   1.657   1.013 -0.0442 -0.2219  1.9764
  252SOL     OW  754   1.691   2.439   2.156  0.2190 -0.4549  0.4208
  252SOL    HW1  755   1.712   2.429   2.057 -0.4940  1.6490 -0.5916
  252SOL    HW2  756   1.754   2.504   2.203 -0.8899  0.8345  1.6685
  253SOL     OW  757   1.393   1.699   2.860  0.3173 -0.0673 -0.4435
  253SOL    HW1  758   1.365   1.722   2.763  4.0517  0.1780 -1.1041
  253SOL    HW2  759   1.477   1.640   2.841  0.2435 -1.3773 -0.6056
  254SOL     OW  760   0.431   1.489   1.765  0.7295  0.3678  0.6319
  254SOL    HW1  761   0.347   1.459   1.720  0.2206  1.3231 -1.2008
  254SOL    HW2  762   0.429   1.580   1.817  0.1635  4.0501  2.1531
  255SOL     OW  763   0.881   3.014   1.491  0.3545 -0.1193  0.9401
  255SOL    HW1  764   0.945   2.947   1.533 -1.2655  0.2528 -0.3284
  255SOL    HW2  765   0.824   3.062   1.565 -0.5102 -0.1664  0.0411
  256SOL     OW  766   2.952   2.501   1.018 -0.1987 -0.5060 -0.2119
  256SOL    HW1  767   2.992   2.528   1.111  1.8204  2.2531 -0.6467
  256SOL    HW2  768   2.966   2.399   1.006 -0.1827  1.3914 -1.1298
  257SOL     OW  769   0.363   2.822   2.815  0.0660 -0.1866  0.5046
  257SOL    HW1  770   0.439   2.893   2.807  1.4292  0.1868 -1.4123
  257SOL    HW2  771   0.269   2.855   2.811  1.3367  0.3129  3.1746
  258SOL     OW  772   0.959   2.287   1.902  0.8825  0.7420 -0.4333
  258SOL    HW1  773   0.977   2.207   1.962  2.1776  0.9293  3.3990
  258SOL    HW2  774   1.035   2.353   1.908 -0.8001  0.6402 -0.5470
  259SOL     OW  775   1.134   1.855   2.331  0.3301  0.3278 -0.0939
  259SOL    HW1  776   1.122   1.815   2.424 -2.1176 -0.4088  0.2946
  259SOL    HW2  777   1.041   1.855   2.286 -0.2285  0.6305  1.4459
  260SOL     OW  778   2.259   0.727   2.244  0.7995 -0.1707 -0.5076
  260SOL    HW1  779   2.252   0.721   2.349 -3.1566  0.6798  4.1624
  260SOL    HW2  780   2.232   0.634   2.208  1.3434  1.5420  0.3448
  261SOL     OW  781   1.239   0.747   0.815  0.5396 -0.5864  0.5562
  261SOL    HW1  782   1.283   0.674   0.765  1.6416 -2.5616 -0.8579
  261SOL    HW2  783   1.248   0.834   0.757 -2.1656  1.4257 -2.2315
  262SOL     OW  784   2.166   1.951   2.708 -0.1419  0.2252  0.0805
  262SOL    HW1  785   2.204   1.948   2.808  1.0915  1.7989 -0.2884
  262SOL    HW2  786   2.091   2.020   2.696 -2.5889  0.9314 -1.4223
  263SOL     OW  787   0.603   2.270   0.799 -0.8220 -0.5636  0.1554
  263SOL    HW1  788   0.629   2.342   0.733  0.8811 -0.5601  2.1715
  263SOL    HW2  789   0.681   2.216   0.830  0.5961  1.2267 -1.5356
  264SOL     OW  790   0.059   2.509   0.477 -0.3373 -0.0183 -0.0824
  264SOL    HW1  791   0.022   2.490   0.384 -0.1148  2.3381  1.8705
  264SOL    HW2  792   0.128   2.439   0.500 -0.9045 -0.3239 -0.8833
  265SOL     OW  793   0.696   1.233   0.107  0.6018 -0.1793  0.1550
  265SOL    HW1  794   0.680   1.298   0.030 -1.9477 -2.3457  1.5670
  265SOL    HW2  795   0.795   1.226   0.132  1.0107  0.9503 -1.5408
  266SOL     OW  796   0.776   2.139   2.480 -0.3674  0.5415 -0.6388
  266SOL    HW1  797   0.876   2.149   2.506 -0.2648  1.9009 -0.5248
  266SOL    HW2  798   0.724   2.077   2.539  1.3195 -0.9096 -1.2155
  267SOL     OW  799   1.700   0.710   2.304  0.0171  0.1192  0.2927
  267SOL    HW1  800   1.719   0.798   2.354 -0.7667 -0.2593 -1.5192
  267SOL    HW2  801   1.654   0.641   2.363  2.7005  0.4472  2.6051
  268SOL     OW  802   0.804   0.913   0.169  0.0572 -0.0946 -0.1929
  268SOL    HW1  803   0.873   0.985   0.151 -1.6185  1.0343 -1.5271
  268SOL    HW2  804   0.738   0.937   0.247 -2.1425 -2.8225  3.0420
  269SOL     OW  805   2.450   1.685   2.304 -0.0949 -0.4673 -0.2142
  269SOL    HW1  806   2.477   1.746   2.381  0.7270 -2.8788 -1.5686
  269SOL    HW2  807   2.444   1.746   2.216  0.3137 -0.3380 -1.0087
  270SOL     OW  808   1.172   1.980   3.029 -0.4563 -0.5727 -0.2835
  270SOL    HW1  809   1.112   1.924   0.026 -1.3592 -1.2181 -1.7694
  270SOL    HW2  810   1.273   1.960   3.030  1.4592  1.6961 -0.5421
  271SOL     OW  811   0.247   0.645   0.052  0.1551  0.0567  0.6982
  271SOL    HW1  812   0.312   0.683   3.052 -0.7891 -1.8945 -2.3797
  271SOL    HW2  813   0.253   0.540   0.042 -1.3243 -1.9941  0.4060
  272SOL     OW  814   2.985   0.488   0.372 -0.6807  0.3720 -0.2462
  272SOL    HW1  815   3.026   0.396   0.369  1.0968 -0.8414 -2.3177
  272SOL    HW2  816   3.035   0.541   0.447 -1.0721  1.5273  1.1971
  273SOL     OW  817   0.373   2.990   1.633 -0.7627  0.2513  0.3739
  273SOL    HW1  818   0.362   3.015   1.727  1.3687  1.0840 -2.8830
  273SOL    HW2  819   0.302   3.032   1.573  1.0262  1.3660  1.4871
  274SOL     OW  820   2.777   0.440   1.550  0.3297  0.3417 -0.8462
  274SOL    HW1  821   2.875   0.419   1.582 -0.1181 -1.1041 -3.8216
  274SOL    HW2  822   2.703   0.369   1.564 -1.6443 -1.9910  2.1930
  275SOL     OW  823   0.868   1.571   0.876  0.2488  0.2120 -0.1418
  275SOL    HW1  824   0.830   1.564   0.972 -0.1893  0.6108  1.1196
  275SOL    HW2  825   0.863   1.479   0.830 -1.5507 -0.0004 -1.0226
  276SOL     OW  826   0.572   1.256   1.784  0.7740  0.2023 -0.0106
  276SOL    HW1  827   0.526   1.347   1.784  0.3137 -3.4987 -0.0497
  276SOL    HW2  828   0.503   1.184   1.765 -0.3562  2.3164  3.3936
  277SOL     OW  829   0.961   2.652   1.960  0.1295 -0.1136  0.3628
  277SOL    HW1  830   0.996   2.578   2.023  0.7730 -1.0500  0.5155
  277SOL    HW2  831   0.867   2.636   1.924  0.1550 -1.0453 -2.3236
  278SOL     OW  832   2.219   2.804   2.044  0.2933 -0.3123  0.3825
  278SOL    HW1  833   2.298   2.766   2.097 -0.4904 -1.8232  0.6239
  278SOL    HW2  834   2.175   2.727   1.997  1.0332 -0.1401  0.9563
  279SOL     OW  835   1.527   1.507   0.080 -0.1278 -0.3934 -0.0779
  279SOL    HW1  836   1.567   1.477   3.061  2.6574 -0.2164 -0.0541
  279SOL    HW2  837   1.437   1.551   0.067  1.9538 -1.3605  1.0561
  280SOL     OW  838   1.505   0.759   0.003  0.5875  0.5677 -0.2872
  280SOL    HW1  839   1.584   0.819   3.057  0.4309 -0.9165  1.6207
  280SOL    HW2  840   1.512   0.677   3.010  1.1497 -3.8665  1.0732
  281SOL     OW  841   0.524   0.365   1.491 -0.2492 -0.1794 -0.3218
  281SOL    HW1  842   0.555   0.421   1.411 -1.7143 -2.3202  1.3817
  281SOL    HW2  843   0.428   0.391   1.509 -0.3831 -1.0793 -0.2295
  282SOL     OW  844   0.095   2.528   0.827 -1.0294  0.2976  0.0271
  282SOL    HW1  845   0.009   2.537   0.881  1.4832  0.1215 -3.0452
  282SOL    HW2  846   0.084   2.558   0.733 -0.7633 -3.2571  0.7849
  283SOL     OW  847   1.318   2.122   1.954  0.6420  0.7470 -0.4788
  283SOL    HW1  848   1.358   2.108   2.046  2.7483  1.5492  0.5671
  283SOL    HW2  849   1.345   2.215   1.918 -0.0962 -0.7296 -2.5956
  284SOL     OW  850   2.811   2.804   1.219 -0.4049 -0.1018 -0.1156
  284SOL    HW1  851   2.793   2.890   1.166 -0.1172 -1.1973  1.2017
  284SOL    HW2  852   2.754   2.724   1.191 -1.9903  0.0869  1.2660
  285SOL     OW  853   0.321   2.280   0.232 -0.1359 -0.2118 -1.1790
  285SOL    HW1  854   0.288   2.376   0.255  0.1128  0.6058 -0.0756
  285SOL    HW2  855   0.421   2.276   0.236  0.0602  0.2854 -1.6432
  286SOL     OW  856   0.491   2.875   0.922 -0.1687 -0.0600  0.1388
  286SOL    HW1  857   0.578   2.920   0.951  1.6209  0.5678  0.7841
  286SOL    HW2  858   0.411   2.934   0.938  1.6612 -0.3474 -0.7155
  287SOL     OW  859   0.661   1.294   0.622  0.2928  0.0909 -0.1990
  287SOL    HW1  860   0.729   1.229   0.581 -1.0045  2.1998 -0.5350
  287SOL    HW2  861   0.669   1.388   0.586 -1.6432 -2.5640  2.0293
  288SOL     OW  862   1.805   1.670   2.811  0.2565 -0.1987 -0.2411
  288SOL    HW1  863   1.894   1.633   2.778 -3.0397  2.4942  1.8769
  288SOL    HW2  864   1.814   1.738   2.888  2.0748  0.2865 -0.0852
  289SOL     OW  865   3.017   2.019   0.263  0.0183 -0.2262  0.0788
  289SOL    HW1  866   2.959   2.048   0.188 -0.4562  1.8633  1.6083
  289SOL    HW2  867   3.055   1.926   0.248 -0.8752  2.8533 -0.8571
  290SOL     OW  868   1.403   1.435   1.441  0.0116  0.0702  0.2168
  290SOL    HW1  869   1.363   1.529   1.449  3.1742  0.1276  0.9137
  290SOL    HW2  870   1.408   1.406   1.343 -1.3256  1.6100  0.5335
  291SOL     OW  871   0.962   1.495   2.970 -0.1451  0.7692  0.3536
  291SOL    HW1  872   0.951   1.579   2.909 -0.9394 -1.4155 -0.9007
  291SOL    HW2  873   0.940   1.403   2.928 -0.1574  1.9015  3.5702
  292SOL     OW  874   1.026   1.273   0.328  0.0874 -0.0614 -0.4920
  292SOL    HW1  875   1.034   1.284   0.427 -0.7151 -1.6984 -0.1106
  292SOL    HW2  876   1.029   1.364   0.287  0.7842  0.3866  0.8124
  293SOL     OW  877   1.152   2.781   0.936  0.0693  0.3744 -0.3345
  293SOL    HW1  878   1.058   2.792   0.897  1.9281  2.0512  0.6352
  293SOL    HW2  879   1.212   2.758   0.857 -0.2460 -2.5618  1.3178
  294SOL     OW  880   1.843   1.193   2.384  0.3271 -0.1590  0.0693
  294SOL    HW1  881   1.767   1.193   2.314 -1.5943 -0.7143  1.0554
  294SOL    HW2  882   1.881   1.101   2.409 -0.3346 -0.6133  1.4797
  295SOL     OW  883   1.421   1.870   0.018 -0.8916  0.0340 -0.0132
  295SOL    HW1  884   1.430   1.796   3.014 -1.1113 -0.4784  1.7446
  295SOL    HW2  885   1.479   1.951   3.065 -1.4587  2.2481  1.7942
  296SOL     OW  886   1.292   0.809   1.763 -0.1947 -0.5068  0.1858
  296SOL    HW1  887   1.263   0.722   1.716  0.2841  1.1822  1.1934
  296SOL    HW2  888   1.281   0.884   1.696 -0.3108  0.3817  1.9263
  297SOL     OW  889   3.032   0.631   1.758  0.2782  0.0582 -0.2219
  297SOL    HW1  890   2.941   0.656   1.795 -0.6126  0.6954  0.0887
  297SOL    HW2  891   0.013   0.717   1.736  0.9810  0.8418 -0.5284
  298SOL     OW  892   1.276   1.706   1.410 -0.7912 -0.5934 -0.3614
  298SOL    HW1  893   1.251   1.719   1.316  1.3331  1.6843 -1.6859
  298SOL    HW2  894   1.320   1.794   1.445  2.3109  2.4249  0.3361
  299SOL     OW  895   1.285   2.963   2.536  0.3157  0.3392 -0.1123
  299SOL    HW1  896   1.364   2.934   2.477  1.6258  0.8134 -0.8441
  299SOL    HW2  897   1.192   2.935   2.495 -1.8746  1.8235 -0.1217
  300SOL     OW  898   2.540   1.432   0.009 -1.1090  0.3240  0.3988
  300SOL    HW1  899   2.550   1.401   2.981 -0.9430 -0.2483 -1.8014
  300SOL    HW2  900   2.447   1.464   0.028  0.2422  1.1458  1.5812
  301SOL     OW  901   1.914   0.672   2.510 -0.3207  0.0974 -0.2745
  301SOL    HW1  902   1.969   0.590   2.524 -0.4581  1.3843 -1.2318
  301SOL    HW2  903   1.935   0.726   2.426 -0.3063  2.3664  1.0660
  302SOL     OW  904   2.402   2.100   2.712  0.4517  0.2295 -0.0928
  302SOL    HW1  905   2.469   2.069   2.638  0.9650 -3.1512  0.6552
  302SOL    HW2  906   2.313   2.056   2.690 -1.1190 -1.2342 -0.6495
  303SOL     OW  907   0.191   2.182   3.057 -0.3000  0.2101  0.3133
  303SOL    HW1  908   0.240   2.225   0.068 -3.0644 -1.8234  1.5216
  303SOL    HW2  909   0.153   2.251   2.991  1.7349 -2.6251  1.1444
  304SOL     OW  910   0.200   1.832   1.176  0.0458  0.6724 -0.2276
  304SOL    HW1  911   0.173   1.850   1.279 -0.2059 -0.2652  1.3173
  304SOL    HW2  912   0.286   1.782   1.169 -3.4113  0.3335  1.1030
  305SOL     OW  913   2.709   0.685   1.839 -0.1091 -0.1138  0.3054
  305SOL    HW1  914   2.731   0.587   1.861  1.7775 -2.2039  3.0455
  305SOL    HW2  915   2.652   0.690   1.753 -0.1143  0.0425  0.5392
  306SOL     OW  916   1.723   1.488   1.091 -0.1381 -0.2629  0.3771
  306SOL    HW1  917   1.630   1.528   1.082  1.1472  0.3937 -2.6798
  306SOL    HW2  918   1.728   1.415   1.160 -0.4155  2.4855  0.7607
  307SOL     OW  919   0.012   0.392   1.003  0.0449  0.1370 -0.7243
  307SOL    HW1  920   0.040   0.295   1.023 -0.5777 -1.6390 -0.7975
  307SOL    HW2  921   3.001   0.406   1.064  2.9909  2.0923 -2.1372
  308SOL     OW  922   0.188   1.340   1.708  0.3133  0.5977  0.0150
  308SOL    HW1  923   0.153   1.286   1.629 -1.7142 -0.4641  0.1967
  308SOL    HW2  924   0.227   1.282   1.784  0.7386  0.3323 -1.4182
  309SOL     OW  925   2.740   1.975   2.024 -0.5262 -0.3386 -0.0390
  309SOL    HW1  926   2.785   2.061   1.984 -0.0600 -0.9285 -2.3325
  309SOL    HW2  927   2.703   1.991   2.120 -1.0873  0.8040  1.6828
  310SOL     OW  928   2.304   1.076   2.583  0.5752  0.7483 -0.1522
  310SOL    HW1  929   2.383   1.049   2.521  1.3040  0.8321 -0.5737
  310SOL    HW2  930   2.309   1.028   2.673  1.1533  0.9442  4.1922
  311SOL     OW  931   1.576   1.217   0.010 -0.2554  0.3891 -0.0141
  311SOL    HW1  932   1.483   1.256   0.024  0.7918  1.7521  2.7725
  311SOL    HW2  933   1.581   1.112   0.008  0.0310 -0.0326  1.3166
  312SOL     OW  934   1.328   2.202   2.636 -0.0485 -0.5765 -0.0539
  312SOL    HW1  935   1.420   2.234   2.604  0.8604  0.3757 -0.6234
  312SOL    HW2  936   1.297   2.130   2.570  0.6597  1.9607  0.5957
  313SOL     OW  937   0.307   0.406   0.698 -0.1011  0.4101  0.1920
  313SOL    HW1  938   0.383   0.448   0.643  0.7995  0.6599 -1.7539
  313SOL    HW2  939   0.263   0.483   0.748 -0.5125  1.2050 -1.7057
  314SOL     OW  940   0.719   1.949   1.180  0.1893 -0.4210  0.2886
  314SOL    HW1  941   0.751   2.044   1.182  0.5596 -0.7441 -2.4923
  314SOL    HW2  942   0.787   1.891   1.228  0.6961  2.4258 -1.4616
  315SOL     OW  943   0.569   2.212   2.336 -0.0612 -0.4962  0.1377
  315SOL    HW1  944   0.524   2.138   2.286  0.7423  0.3024  2.0061
  315SOL    HW2  945   0.655   2.175   2.380  2.9722 -0.2205  1.9930
  316SOL     OW  946   0.581   2.498   0.658 -0.1738 -0.5073 -0.2588
  316SOL    HW1  947   0.496   2.459   0.703 -1.9004 -3.5561 -2.7771
  316SOL    HW2  948   0.568   2.591   0.622  2.7668  0.0541  1.1717
  317SOL     OW  949   2.607   0.001   1.148  0.7862  0.1694  0.4575
  317SOL    HW1  950   2.570   0.071   1.086  1.4752  1.0930 -0.7175
  317SOL    HW2  951   2.595   2.973   1.115  3.6309 -2.1964 -0.2897
  318SOL     OW  952   2.170   2.797   0.373 -0.5310 -0.1459  0.7053
  318SOL    HW1  953   2.266   2.799   0.338  1.4036 -1.0869  2.8912
  318SOL    HW2  954   2.139   2.702   0.392 -0.3881  1.6953 -1.1280
  319SOL     OW  955   1.479   0.767   2.567 -0.3573  0.0322  0.2369
  319SOL    HW1  956   1.558   0.736   2.625  0.5666 -0.8107 -1.5273
  319SOL    HW2  957   1.457   0.690   2.504 -1.9482 -1.7639  1.9024
  320SOL     OW  958   3.064   2.131   2.246 -0.3723  0.1462  0.3686
  320SOL    HW1  959   0.008   2.095   2.151  0.9866 -1.6586 -0.4369
  320SOL    HW2  960   0.009   2.229   2.243 -0.2263 -0.7640 -1.9437
  321SOL     OW  961   0.592   2.537   0.223 -0.2740 -0.1089 -0.1109
  321SOL    HW1  962   0.660   2.599   0.275  2.4213  2.5127 -0.5114
  321SOL    HW2  963   0.558   2.588   0.137 -1.5938  0.9541 -0.2000
  322SOL     OW  964   2.542   0.637   2.610  0.0036 -0.5666  0.2850
  322SOL    HW1  965   2.575   0.542   2.599  0.5465 -2.3939 -0.9451
  322SOL    HW2  966   2.445   0.642   2.588  0.3835  1.3624 -1.2215
  323SOL     OW  967   2.493   1.065   0.865 -0.1702  0.1808 -0.6040
  323SOL    HW1  968   2.555   1.072   0.953  0.4073 -0.7750  0.7040
  323SOL    HW2  969   2.531   0.997   0.803  0.5394  0.0099 -1.0768
  324SOL     OW  970   2.869   0.419   1.157 -0.1501 -0.4222  0.4938
  324SOL    HW1  971   2.921   0.445   1.238 -3.6062 -0.1647  0.1015
  324SOL    HW2  972   2.775   0.464   1.155  0.2380  3.3473  1.8960
  325SOL     OW  973   0.047   2.937   1.748 -0.0800  0.1493 -0.0064
  325SOL    HW1  974   0.079   3.018   1.804 -0.3636  2.1211 -0.2257
  325SOL    HW2  975   0.067   2.957   1.648  0.4381 -0.1827 -0.0098
  326SOL     OW  976   1.932   2.883   0.285  0.9098  0.6147  0.2217
  326SOL    HW1  977   1.891   2.806   0.232 -1.4450 -0.0355 -1.1435
  326SOL    HW2  978   2.020   2.857   0.330 -0.4804 -0.0883  0.9110
  327SOL     OW  979   1.841   1.642   0.447  0.0370 -0.1330  0.3569
  327SOL    HW1  980   1.861   1.727   0.401  0.9880 -2.5233  2.0926
  327SOL    HW2  981   1.766   1.589   0.400  1.0578 -0.7636 -0.9245
  328SOL     OW  982   0.038   2.227   2.683 -0.5502  0.2424 -0.3081
  328SOL    HW1  983   0.054   2.264   2.778  1.0913 -1.9216 -0.4308
  328SOL    HW2  984   0.104   2.152   2.671 -1.3329  1.6617 -1.5758
  329SOL     OW  985   0.192   2.172   1.371  0.1883  0.3961 -0.4212
  329SOL    HW1  986   0.291   2.163   1.336  1.3593  1.6162  0.9214
  329SOL    HW2  987   0.186   2.126   1.467 -1.9994 -1.9051  1.3945
  330SOL     OW  988   2.580   0.868   2.738  0.2529 -0.3406 -0.3668
  330SOL    HW1  989   2.559   0.794   2.677 -1.2985  0.9366  1.8161
  330SOL    HW2  990   2.601   0.951   2.687 -0.0786 -1.5441  1.1730
  331SOL     OW  991   2.376   2.345   0.929 -0.0241  0.5575  0.1713
  331SOL    HW1  992   2.354   2.254   0.898 -1.0409  1.0436  0.3068
  331SOL    HW2  993   2.394   2.348   1.029  0.0044  0.6670 -1.1516
  332SOL     OW  994   0.521   2.771   0.626  0.0324 -0.4306  0.0323
  332SOL    HW1  995   0.579   2.851   0.606 -2.1251 -0.7353  0.2031
  332SOL    HW2  996   0.490   2.774   0.719  2.0509 -0.7380 -3.4318
  333SOL     OW  997   2.217   1.713   2.607 -0.2827  0.0678 -0.1053
  333SOL    HW1  998   2.192   1.807   2.641  0.2106 -2.0456 -0.5814
  333SOL    HW2  999   2.318   1.695   2.618  4.7508  1.3320 -0.3441
  334SOL     OW 1000   0.426   1.369   0.747 -0.3414 -0.0156  0.2852
  334SOL    HW1 1001   0.402   1.455   0.698  1.7102  0.8157  1.3534
  334SOL    HW2 1002   0.515   1.333   0.708 -0.7456  0.4172 -0.5532
  335SOL     OW 1003   2.886   2.022   2.433  0.2008 -0.0083 -0.5874
  335SOL    HW1 1004   2.965   2.053   2.379  3.8051  1.6075  2.1482
  335SOL    HW2 1005   2.909   1.948   2.498  1.8635  1.6723 -2.3865
  336SOL     OW 1006   2.397   2.666   2.193 -0.1450 -0.4075 -0.3480
  336SOL    HW1 1007   2.424   2.569   2.169 -0.0719  0.9428 -0.2876
  336SOL    HW2 1008   2.478   2.728   2.175  1.5100  0.1720  2.8345
  337SOL     OW 1009   0.741   0.929   0.799 -0.2138  0.2246  0.4184
  337SOL    HW1 1010   0.651   0.894   0.829 -1.1547  2.0383  0.8474
  337SOL    HW2 1011   0.799   0.935   0.883  1.9203 -0.5370 -0.2682
  338SOL     OW 1012   1.409   1.971   1.171  0.0924  0.5814  0.4033
  338SOL    HW1 1013   1.507   1.959   1.144  1.4041  0.7557 -0.0439
  338SOL    HW2 1014   1.373   2.064   1.157 -0.6110 -1.5571  1.7381
  339SOL     OW 1015   0.131   1.864   1.453  0.6354  0.0068  0.3844
  339SOL    HW1 1016   0.160   1.841   1.546  1.2410  1.6395 -1.2105
  339SOL    HW2 1017   0.029   1.875   1.455  0.5012 -3.7174  0.1624
  340SOL     OW 1018   1.126   3.001   1.827  0.0007  0.3964 -0.0469
  340SOL    HW1 1019   1.167   0.025   1.847  1.3228  1.4210 -1.1054
  340SOL    HW2 1020   1.115   2.984   1.730 -3.5888  0.0578  3.8955
  341SOL     OW 1021   1.572   1.691   1.335 -0.2401  0.3773  0.2740
  341SOL    HW1 1022   1.477   1.709   1.359 -1.5447 -3.3606 -0.2578
  341SOL    HW2 1023   1.587   1.728   1.243 -2.0247  0.6449 -0.5975
  342SOL     OW 1024   2.437   1.406   0.917  0.3974 -1.1281 -0.8552
  342SOL    HW1 1025   2.489   1.383   1.001  1.6164 -2.0217  1.4200
  342SOL    HW2 1026   2.331   1.416   0.933 -2.9969  0.0751  1.0993
  343SOL     OW 1027   2.065   0.158   0.774  0.1823  0.4599 -0.6029
  343SOL    HW1 1028   2.118   0.241   0.785 -3.8708 -2.5242 -1.1386
  343SOL    HW2 1029   2.105   0.091   0.840 -0.6389 -0.0855 -1.0409
  344SOL     OW 1030   2.204   0.238   0.361 -0.1052 -0.1670  0.2556
  344SOL    HW1 1031   2.218   0.328   0.312  0.6416  1.0508 -3.7855
  344SOL    HW2 1032   2.297   0.195   0.357  0.1869  0.8689 -1.3997
  345SOL     OW 1033   0.811   3.018   1.769 -0.4439  0.2092  0.1998
  345SOL    HW1 1034   0.760   3.055   1.849 -2.4524  1.1211  1.8979
  345SOL    HW2 1035   0.908   2.989   1.802  2.9577 -0.2875  1.3598
  346SOL     OW 1036   2.495   1.973   0.652 -0.3159 -0.3116  0.3226
  346SOL    HW1 1037   2.552   1.917   0.713  1.9261  0.3563  0.8175
  346SOL    HW2 1038   2.413   2.016   0.692  0.9084 -0.7242 -1.6221
  347SOL     OW 1039   2.426   2.869   1.304  0.3497 -0.6348 -0.0543
  347SOL    HW1 1040   2.479   2.859   1.214 -0.0109 -0.1459 -1.9609
  347SOL    HW2 1041   2.327   2.893   1.280 -3.1846 -2.6232  0.7385
  348SOL     OW 1042   0.943   0.943   1.588  0.1191 -0.1548  0.2275
  348SOL    HW1 1043   0.859   1.000   1.569  1.8573  0.5729 -0.7193
  348SOL    HW2 1044   0.933   0.844   1.561 -0.7001 -0.8585  0.6145
  349SOL     OW 1045   2.257   0.710   2.527  0.3920  0.5074 -0.3744
  349SOL    HW1 1046   2.272   0.606   2.512  0.2457 -2.2521 -0.6448
  349SOL    HW2 1047   2.198   0.724   2.609 -0.0858 -1.7784  0.5178
  350SOL     OW 1048   2.029   2.327   0.234 -0.1993 -0.3736  0.2662
  350SOL    HW1 1049   1.935   2.290   0.255  0.9192 -0.1635 -0.4211
  350SOL    HW2 1050   2.097   2.253   0.248 -0.5647  1.2075 -0.3488
  351SOL     OW 1051   1.326   0.527   0.152  0.0771  0.5618 -0.2975
  351SOL    HW1 1052   1.339   0.568   0.060  2.0587  1.5351  1.2622
  351SOL    HW2 1053   1.356   0.583   0.231 -0.1279  1.2463 -0.7076
  352SOL     OW 1054   1.936   1.914   2.384 -0.2855 -0.0249 -0.2559
  352SOL    HW1 1055   1.877   1.830   2.371  1.8363 -1.6532 -1.2623
  352SOL    HW2 1056   1.921   1.950   2.478 -2.1127 -0.5615  0.8218
  353SOL     OW 1057   0.428   1.396   2.482  0.1503  0.2737 -0.0431
  353SOL    HW1 1058   0.337   1.369   2.453  2.1116 -0.5169  1.8852
  353SOL    HW2 1059   0.472   1.462   2.417  0.9778 -2.0303 -0.7846
  354SOL     OW 1060   0.575   2.611   2.480  0.3110 -0.0638 -0.0682
  354SOL    HW1 1061   0.568   2.641   2.576 -0.0842  2.0501  1.4590
  354SOL    HW2 1062   0.662   2.559   2.464  2.2488 -3.0556  0.0252
  355SOL     OW 1063   2.295   2.645   1.405 -0.0007 -0.3934  0.2006
  355SOL    HW1 1064   2.336   2.728   1.360 -0.3860 -0.6155  2.3889
  355SOL    HW2 1065   2.260   2.680   1.497  1.0194  1.9253  0.1934
  356SOL     OW 1066   2.961   0.945   0.902  0.3049 -0.2835  0.0272
  356SOL    HW1 1067   2.907   1.032   0.903 -1.1111 -2.0027 -0.8029
  356SOL    HW2 1068   2.928   0.873   0.841 -0.6220 -0.6667 -0.5521
  357SOL     OW 1069   3.005   0.152   1.425  0.4836  0.3275 -0.1789
  357SOL    HW1 1070   2.973   0.185   1.520 -0.7548  2.0538  6.2809
  357SOL    HW2 1071   2.921   0.142   1.367  1.1174  1.0453  2.1440
  358SOL     OW 1072   2.902   1.371   1.654  0.4363 -0.0314  0.4520
  358SOL    HW1 1073   2.907   1.468   1.680 -1.5722 -1.4337  0.7548
  358SOL    HW2 1074   2.957   1.352   1.567 -1.6712 -2.3321 -3.8173
  359SOL     OW 1075   2.663   2.682   2.441  0.0026 -0.9752  0.4212
  359SOL    HW1 1076   2.646   2.583   2.455 -0.5437  0.7425 -0.2951
  359SOL    HW2 1077   2.759   2.703   2.413  0.2850 -0.5777  2.9699
  360SOL     OW 1078   1.211   0.487   1.210  0.3278 -0.2350 -0.1432
  360SOL    HW1 1079   1.144   0.419   1.229  2.8158  2.1427 -2.7150
  360SOL    HW2 1080   1.270   0.514   1.286 -3.2336  0.1648 -1.7684
  361SOL     OW 1081   2.267   2.582   0.988  0.3813 -0.2659 -0.7999
  361SOL    HW1 1082   2.313   2.505   0.935  1.2717  0.2996 -0.8088
  361SOL    HW2 1083   2.254   2.558   1.090  1.1838 -0.5280  1.9340
  362SOL     OW 1084   1.325   0.197   0.527  0.6222  0.8020 -0.0886
  362SOL    HW1 1085   1.251   0.201   0.596  1.8315  1.1749 -0.9574
  362SOL    HW2 1086   1.314   0.114   0.470 -1.4941 -0.4540 -0.9696
  363SOL     OW 1087   1.501   1.298   0.903 -0.1470 -0.2544  0.4373
  363SOL    HW1 1088   1.567   1.333   0.833  0.8158 -0.1197 -1.2629
  363SOL    HW2 1089   1.477   1.372   0.967  0.6096 -0.1917 -0.0254
  364SOL     OW 1090   0.312   0.741   1.588 -0.7059 -0.4371  0.0400
  364SOL    HW1 1091   0.408   0.775   1.590  0.9592  1.4258 -0.5161
  364SOL    HW2 1092   0.264   0.773   1.501  0.0098  3.2669  0.0020
  365SOL     OW 1093   2.624   0.483   0.899  0.6242  0.6531 -0.0056
  365SOL    HW1 1094   2.709   0.465   0.859 -1.5551  3.1629  3.9289
  365SOL    HW2 1095   2.640   0.532   0.990  2.3160  1.4118 -0.2021
  366SOL     OW 1096   2.849   1.504   0.745 -0.0840  0.0517 -0.4796
  366SOL    HW1 1097   2.821   1.595   0.712 -1.9270  0.0999 -0.1711
  366SOL    HW2 1098   2.767   1.439   0.739  0.4041  2.2448 -3.4266
  367SOL     OW 1099   2.179   1.860   2.271  0.2083 -0.2621 -0.8472
  367SOL    HW1 1100   2.099   1.894   2.321 -2.1743 -0.0046  1.9428
  367SOL    HW2 1101   2.176   1.762   2.247  1.4824  0.7173 -0.6985
  368SOL     OW 1102   2.511   2.203   1.431  0.4120  0.4113 -0.7782
  368SOL    HW1 1103   2.534   2.201   1.530  1.3085  0.4528  2.1597
  368SOL    HW2 1104   2.505   2.109   1.394  0.3326  1.4684 -1.6208
  369SOL     OW 1105   2.387   2.843   2.782  0.2253  0.0365 -0.2957
  369SOL    HW1 1106   2.410   2.847   2.681  1.0320 -0.8240 -0.8907
  369SOL    HW2 1107   2.437   2.908   2.839  0.4056 -0.9034 -0.9266
  370SOL     OW 1108   0.769   0.391   1.179 -0.3854 -0.3459  0.3713
  370SOL    HW1 1109   0.756   0.374   1.078  0.3546 -0.9909 -1.4634
  370SOL    HW2 1110   0.815   0.306   1.209  2.0611 -1.0867 -0.1579
  371SOL     OW 1111   0.606   1.551   0.504  0.0323 -0.4763 -0.1515
  371SOL    HW1 1112   0.624   1.628   0.439 -1.7569  0.6848  0.8975
  371SOL    HW2 1113   0.526   1.570   0.565  1.1666 -1.6763 -2.3439
  372SOL     OW 1114   0.595   1.242   2.643  0.8290  0.4043  0.0438
  372SOL    HW1 1115   0.681   1.231   2.595  0.2129  0.4412 -1.2265
  372SOL    HW2 1116   0.528   1.291   2.580  0.5280 -0.0937 -0.2402
  373SOL     OW 1117   1.257   2.641   2.586  0.2842  0.0558 -0.0690
  373SOL    HW1 1118   1.177   2.708   2.565 -0.3605  2.6348  1.1743
  373SOL    HW2 1119   1.321   2.672   2.661 -0.5094  1.3046  2.6933
  374SOL     OW 1120   0.819   1.998   0.589 -0.5759 -0.3160  0.1611
  374SOL    HW1 1121   0.769   1.929   0.641 -1.0564  0.7109 -2.4334
  374SOL    HW2 1122   0.890   1.957   0.528 -1.2064 -0.8677 -1.4655
  375SOL     OW 1123   0.838   0.551   1.727  0.8496  0.2061  0.4192
  375SOL    HW1 1124   0.880   0.456   1.745  0.8137 -0.8821  1.7585
  375SOL    HW2 1125   0.887   0.623   1.778  2.9707  0.5582  0.1253
  376SOL     OW 1126   0.230   2.427   1.379 -0.1486  0.6041 -0.0488
  376SOL    HW1 1127   0.199   2.328   1.359  2.4554 -2.9036  0.2548
  376SOL    HW2 1128   0.239   2.444   1.482  3.3077  2.9886  1.4343
  377SOL     OW 1129   2.951   1.701   2.783 -0.2618  0.7734  0.2537
  377SOL    HW1 1130   3.034   1.644   2.764 -4.8282  0.6465  0.1882
  377SOL    HW2 1131   2.909   1.673   2.874  3.7374  3.2758  0.4027
  378SOL     OW 1132   1.753   2.865   3.012  0.4445  0.4331  0.1462
  378SOL    HW1 1133   1.661   2.873   3.062 -1.8419 -0.7587  0.3390
  378SOL    HW2 1134   1.820   2.932   3.051 -2.5970 -0.5389 -0.3121
  379SOL     OW 1135   1.826   0.642   0.666 -0.0323 -1.1902 -0.2848
  379SOL    HW1 1136   1.895   0.581   0.626  1.2260 -0.3731  0.0019
  379SOL    HW2 1137   1.860   0.738   0.659 -3.8854  1.4391 -1.6584
  380SOL     OW 1138   0.261   1.807   1.673 -0.2354  0.6850 -0.9177
  380SOL    HW1 1139   0.221   1.843   1.762  2.4224  1.3397  1.3448
  380SOL    HW2 1140   0.339   1.745   1.694 -1.3251 -1.8853  0.4984
  381SOL     OW 1141   2.280   1.330   2.501  0.5164 -0.3162  0.5154
  381SOL    HW1 1142   2.359   1.343   2.437  0.7755 -0.7602 -2.0201
  381SOL    HW2 1143   2.281   1.231   2.541 -1.0702 -0.0902  0.6326
  382SOL     OW 1144   0.090   2.938   2.831 -0.1202  0.6711  0.1629
  382SOL    HW1 1145   0.042   2.977   2.913  0.2318 -0.7136 -1.3323
  382SOL    HW2 1146   0.042   2.953   2.742  2.6957 -1.5305 -2.0225
  383SOL     OW 1147   1.309   1.268   0.049  0.1442  0.1964 -0.5553
  383SOL    HW1 1148   1.292   1.367   0.057  1.3307  1.0756  1.1492
  383SOL    HW2 1149   1.249   1.226   3.048  2.3738  0.1565 -0.5968
  384SOL     OW 1150   1.114   2.008   1.329 -0.0719 -0.3399  0.2553
  384SOL    HW1 1151   1.211   1.980   1.310  0.7237 -0.2978 -1.8012
  384SOL    HW2 1152   1.112   2.106   1.359 -1.1007  4.2200 -0.4426
  385SOL     OW 1153   1.818   2.805   0.915  0.1705  0.0388  0.0155
  385SOL    HW1 1154   1.803   2.902   0.941  2.1661  1.8525  1.1369
  385SOL    HW2 1155   1.731   2.751   0.915 -0.3294  1.0118  0.1657
  386SOL     OW 1156   1.503   1.663   0.854 -0.0678  0.4677 -0.5650
  386SOL    HW1 1157   1.400   1.671   0.859 -1.6547 -2.3349  0.5787
  386SOL    HW2 1158   1.533   1.575   0.812 -0.4483  1.4189 -2.2655
  387SOL     OW 1159   2.648   2.424   1.358  0.4727  0.9154 -0.8991
  387SOL    HW1 1160   2.740   2.391   1.324 -1.1910  0.2167  0.0609
  387SOL    HW2 1161   2.595   2.340   1.397  1.1894 -1.3327  4.9741
  388SOL     OW 1162   2.928   0.897   1.576 -0.2004 -0.4804 -0.2377
  388SOL    HW1 1163   2.980   0.933   1.495 -1.0748 -0.2372 -1.2478
  388SOL    HW2 1164   2.983   0.902   1.661 -1.2053 -2.3957  1.0986
  389SOL     OW 1165   1.914   0.517   0.009  0.5743  0.5131  0.3847
  389SOL    HW1 1166   1.846   0.446   0.024  2.1617  1.0203  2.6307
  389SOL    HW2 1167   1.969   0.521   0.094 -0.9320 -0.1536 -1.4389
  390SOL     OW 1168   1.384   1.712   2.590 -0.3737 -0.1442 -0.4391
  390SOL    HW1 1169   1.483   1.732   2.577  2.0519  0.4384 -1.8448
  390SOL    HW2 1170   1.348   1.637   2.531 -1.1232 -0.9179  1.4456
  391SOL     OW 1171   1.122   2.181   0.154 -0.2154  0.2759 -0.5942
  391SOL    HW1 1172   1.132   2.103   0.225 -0.8710 -3.2265 -2.0322
  391SOL    HW2 1173   1.109   2.139   0.064  2.4312  1.2145 -1.4037
  392SOL     OW 1174   0.273   2.552   1.626 -0.1405  0.0807 -0.2563
  392SOL    HW1 1175   0.355   2.615   1.617  3.3821  3.5128 -0.4091
  392SOL    HW2 1176   0.301   2.467   1.678  1.3464 -1.6509  0.2334
  393SOL     OW 1177   1.330   2.362   0.132  0.0550 -0.2205  0.4375
  393SOL    HW1 1178   1.248   2.301   0.131  0.2999  0.6459 -0.0950
  393SOL    HW2 1179   1.401   2.323   0.067  0.0286 -1.8058 -2.3361
  394SOL     OW 1180   0.415   0.714   2.147  0.4655 -0.7041 -0.4347
  394SOL    HW1 1181   0.363   0.788   2.198 -0.4888  2.7851 -1.1611
  394SOL    HW2 1182   0.493   0.684   2.209 -0.4381 -2.5532  2.3451
  395SOL     OW 1183   0.432   1.271   1.007  1.4508  0.0610  0.1479
  395SOL    HW1 1184   0.450   1.300   0.912  1.6193 -1.4330  2.7718
  395SOL    HW2 1185   0.343   1.219   1.018  0.3330  1.0811 -0.8735
  396SOL     OW 1186   1.743   1.087   1.970  0.0241 -0.2832 -0.4618
  396SOL    HW1 1187   1.682   1.037   1.909  1.7998  0.8592  0.3856
  396SOL    HW2 1188   1.689   1.152   2.026  0.1598  0.4823 -0.7465
  397SOL     OW 1189   0.924   0.281   0.101  0.3100 -0.1534  0.1731
  397SOL    HW1 1190   0.828   0.284   0.071  1.7216  3.8292  0.5004
  397SOL    HW2 1191   0.940   0.332   0.186 -0.5332 -2.1497 -0.6354
  398SOL     OW 1192   0.662   2.493   2.901 -0.2307  0.5040 -0.2263
  398SOL    HW1 1193   0.749   2.477   2.851 -0.9828 -3.2894 -1.7478
  398SOL    HW2 1194   0.637   2.409   2.955 -1.5499 -1.5553  0.1875
  399SOL     OW 1195   1.804   1.607   2.436 -0.1311  0.0139 -0.2408
  399SOL    HW1 1196   1.761   1.516   2.451  1.4847  1.3296 -2.6821
  399SOL    HW2 1197   1.900   1.608   2.472  0.2482  1.6830 -3.7492
  400SOL     OW 1198   2.140   1.629   1.355 -0.6258 -0.0034 -0.6295
  400SOL    HW1 1199   2.040   1.630   1.378 -0.9567 -0.9500 -1.2383
  400SOL    HW2 1200   2.173   1.535   1.323 -0.8844  1.3980  1.5276
  401SOL     OW 1201   1.274   1.316   1.188 -0.4738  0.0323 -0.6063
  401SOL    HW1 1202   1.252   1.230   1.246 -1.4104 -1.9445  0.0234
  401SOL    HW2 1203   1.234   1.303   1.098 -0.6576 -0.7802 -0.5615
  402SOL     OW 1204   3.021   2.390   1.835 -0.3683 -0.2274  0.1235
  402SOL    HW1 1205   2.982   2.389   1.739  1.2396 -0.8657  0.9328
  402SOL    HW2 1206   0.008   2.474   1.843  1.1327 -0.7517 -0.5342
  403SOL     OW 1207   0.085   1.588   1.690  0.1462 -0.3035 -0.1049
  403SOL    HW1 1208   0.147   1.663   1.687 -1.7746 -0.0470  0.7425
  403SOL    HW2 1209   0.127   1.497   1.678 -1.0291 -0.0404  0.8972
  404SOL     OW 1210   2.005   2.150   1.395  0.1750 -0.1049 -0.1413
  404SOL    HW1 1211   2.010   2.176   1.494 -0.8014  1.1257  2.3672
  404SOL    HW2 1212   2.098   2.168   1.360  1.2533 -2.6826  0.6153
  405SOL     OW 1213   2.673   0.430   2.832  0.1427 -0.2262 -0.0449
  405SOL    HW1 1214   2.691   0.528   2.841 -0.0563 -2.6283 -2.6081
  405SOL    HW2 1215   2.626   0.399   2.746 -1.2844 -2.8680  0.2681
  406SOL     OW 1216   0.891   1.483   2.614  0.5024  0.5521 -0.1632
  406SOL    HW1 1217   0.821   1.474   2.541  1.2392  0.5360 -2.4567
  406SOL    HW2 1218   0.854   1.463   2.710 -0.9644 -0.0106  1.4743
  407SOL     OW 1219   1.820   2.648   0.175 -0.0369 -0.0125 -0.2428
  407SOL    HW1 1220   1.879   2.566   0.163  0.3405  0.4052 -0.1341
  407SOL    HW2 1221   1.727   2.620   0.141  1.0284 -1.9628  1.2103
  408SOL     OW 1222   0.429   0.027   0.607 -0.1503  0.0751  0.0912
  408SOL    HW1 1223   0.369   0.074   0.535 -2.0883  0.9944 -1.4917
  408SOL    HW2 1224   0.372   3.046   0.671  2.1095 -0.5617  2.7612
  409SOL     OW 1225   2.422   1.772   1.014  0.3877  0.8680 -0.4506
  409SOL    HW1 1226   2.401   1.720   0.927 -2.7014 -0.6536 -1.3987
  409SOL    HW2 1227   2.468   1.704   1.075 -0.1174  1.0133  0.8410
  410SOL     OW 1228   2.233   2.165   3.038 -0.3766  0.1045 -0.2926
  410SOL    HW1 1229   2.267   2.074   3.003  2.1596 -0.7534 -0.8686
  410SOL    HW2 1230   2.211   2.227   2.959 -0.3502 -0.9157  1.3521
  411SOL     OW 1231   0.035   0.913   0.601 -0.3536  0.9196  0.5050
  411SOL    HW1 1232   0.125   0.890   0.641  1.7825  1.3403  0.5247
  411SOL    HW2 1233   0.021   1.012   0.587 -0.7387 -0.2732  0.1922
  412SOL     OW 1234   1.518   2.735   0.338 -0.0084  0.2406 -0.0321
  412SOL    HW1 1235   1.551   2.823   0.376  2.8806 -2.1437  2.9096
  412SOL    HW2 1236   1.546   2.722   0.241 -4.4492  1.8828  1.1264
  413SOL     OW 1237   2.067   0.229   2.202  0.2942 -0.7526 -0.2441
  413SOL    HW1 1238   2.020   0.209   2.113  1.4627  1.1352  0.3401
  413SOL    HW2 1239   2.044   0.155   2.270  1.3954 -1.4435  1.6128
  414SOL     OW 1240   0.103   0.255   0.573  0.8543 -0.3241 -0.1017
  414SOL    HW1 1241   0.163   0.322   0.615 -0.1262 -0.7107  2.1253
  414SOL    HW2 1242   0.071   0.199   0.654 -1.2355 -0.6854  3.5434
  415SOL     OW 1243   0.788   1.706   1.468 -0.3659  0.0442 -0.0908
  415SOL    HW1 1244   0.766   1.756   1.557  1.6604 -0.1159  0.0771
  415SOL    HW2 1245   0.756   1.609   1.482  0.8534  0.4766  0.8737
  416SOL     OW 1246   0.575   0.086   0.385 -0.1700  0.0795 -0.2681
  416SOL    HW1 1247   0.518   0.069   0.306  0.7769 -0.2897  2.9569
  416SOL    HW2 1248   0.547   0.031   0.464  0.9399  1.3861  0.5164
  417SOL     OW 1249   2.576   2.833   1.067 -0.0356 -0.7093 -0.3314
  417SOL    HW1 1250   2.617   2.738   1.067  3.5109 -0.9781 -0.3839
  417SOL    HW2 1251   2.512   2.845   0.990  0.3589  0.4822  0.7908
  418SOL     OW 1252   0.833   0.481   2.446 -0.0056 -0.2493 -0.3163
  418SOL    HW1 1253   0.923   0.508   2.412  0.0023 -2.8445  1.8179
  418SOL    HW2 1254   0.837   0.466   2.550  3.1176  0.1444  0.4340
  419SOL     OW 1255   0.087   1.531   1.114  0.0546 -0.7604 -0.0382
  419SOL    HW1 1256   0.058   1.434   1.086 -0.0856 -0.5555 -0.0196
  419SOL    HW2 1257   0.014   1.598   1.084  1.0382 -1.5242 -2.1565
  420SOL     OW 1258   1.425   2.037   0.795  0.0399  0.0413  0.1262
  420SOL    HW1 1259   1.344   2.041   0.855  1.6649  3.0652 -4.7120
  420SOL    HW2 1260   1.419   1.949   0.740  1.2756  0.2722 -1.1348
  421SOL     OW 1261   1.881   1.832   1.950  0.1977  0.3755 -0.7056
  421SOL    HW1 1262   1.926   1.807   1.862  0.1479 -2.3197 -1.7690
  421SOL    HW2 1263   1.897   1.760   2.020 -0.5275 -0.7241  0.8510
  422SOL     OW 1264   3.010   0.639   2.860 -0.1518 -0.0563 -0.1926
  422SOL    HW1 1265   2.907   0.638   2.859 -1.8175 -0.5469 -2.0158
  422SOL    HW2 1266   3.043   0.655   2.958  0.4036 -3.2490  1.1198
  423SOL     OW 1267   1.206   2.097   0.932 -0.1225  0.1263 -0.3820
  423SOL    HW1 1268   1.117   2.045   0.925 -2.9048 -0.0447  2.4664
  423SOL    HW2 1269   1.235   2.119   1.027  1.2446  0.9845  1.9917
  424SOL     OW 1270   0.651   1.460   1.517 -0.2514  0.2098  0.3385
  424SOL    HW1 1271   0.620   1.388   1.454  2.6919  0.8421 -0.9850
  424SOL    HW2 1272   0.590   1.462   1.598 -0.5022 -0.5177 -0.2712
  425SOL     OW 1273   2.983   2.629   2.105 -0.2615 -0.0040 -0.0474
  425SOL    HW1 1274   0.018   2.625   2.088 -0.2288 -1.3567 -1.5422
  425SOL    HW2 1275   2.930   2.619   2.019  0.5858 -0.9206 -2.8810
  426SOL     OW 1276   1.914   2.808   0.659 -0.7470  0.0733 -0.6957
  426SOL    HW1 1277   1.871   2.806   0.752 -1.5568 -0.9020 -1.4131
  426SOL    HW2 1278   1.940   2.907   0.637  0.5485 -1.6761  0.7793
  427SOL     OW 1279   0.527   0.987   2.740 -0.0915  0.0488  0.0074
  427SOL    HW1 1280   0.533   1.090   2.723 -2.3394 -1.6004  2.1243
  427SOL    HW2 1281   0.524   0.942   2.650  0.4587  1.3919  2.4005
  428SOL     OW 1282   2.021   1.275   0.328  0.0345  0.2095 -0.1006
  428SOL    HW1 1283   1.962   1.239   0.252 -2.3563 -0.0204  4.2108
  428SOL    HW2 1284   2.091   1.212   0.359  0.3893  2.0306 -0.9938
  429SOL     OW 1285   3.051   0.222   0.309  0.1674 -0.0499  0.7430
  429SOL    HW1 1286   0.037   0.213   0.389 -2.9788 -0.5497 -1.2074
  429SOL    HW2 1287   2.974   0.153   0.306  1.6152 -0.0928 -1.3797
  430SOL     OW 1288   0.725   2.909   2.327  0.3878  0.0100 -0.7435
  430SOL    HW1 1289   0.763   3.000   2.303 -2.5614 -0.9980  1.6636
  430SOL    HW2 1290   0.650   2.918   2.393 -1.1643 -0.1580  0.1064
  431SOL     OW 1291   2.548   1.089   1.373 -0.3690  0.3454 -0.6358
  431SOL    HW1 1292   2.505   1.170   1.420 -0.6829  0.4034  0.0930
  431SOL    HW2 1293   2.620   1.048   1.430 -3.2431  0.5944 -2.8034
  432SOL     OW 1294   1.895   2.233   1.948 -0.6166 -0.2922 -0.2168
  432SOL    HW1 1295   1.980   2.278   1.913 -1.5891  1.2605  2.6668
  432SOL    HW2 1296   1.914   2.165   2.018 -0.9552 -1.4420 -0.9679
  433SOL     OW 1297   1.026   1.846   0.473  0.2860 -0.3318  0.0122
  433SOL    HW1 1298   1.064   1.758   0.441  0.3008  3.3695 -0.5681
  433SOL    HW2 1299   1.095   1.925   0.462 -1.7016  2.2773  1.4282
  434SOL     OW 1300   0.279   2.080   2.513 -0.2505 -0.6302 -0.0617
  434SOL    HW1 1301   0.341   2.108   2.587  0.1538  1.1794  0.5922
  434SOL    HW2 1302   0.331   2.091   2.425  1.6250  0.6820 -1.3118
  435SOL     OW 1303   0.630   0.701   0.404 -0.4715 -0.3073 -0.5497
  435SOL    HW1 1304   0.622   0.671   0.306  0.7289 -1.4295  1.4150
  435SOL    HW2 1305   0.630   0.804   0.409  3.8126  2.2406  1.4489
  436SOL     OW 1306   0.141   2.802   1.332 -0.2975  0.0188 -0.5205
  436SOL    HW1 1307   0.215   2.741   1.294  1.2524 -0.1238 -0.0395
  436SOL    HW2 1308   0.060   2.748   1.354  1.3892  2.1580  0.5702
  437SOL     OW 1309   1.385   1.930   1.481 -0.2283 -0.1835 -0.4564
  437SOL    HW1 1310   1.327   1.956   1.563  0.0020 -0.3571 -0.2578
  437SOL    HW2 1311   1.437   2.012   1.447  0.7718 -1.8210 -1.4539
  438SOL     OW 1312   0.015   1.796   0.726 -0.2499  0.0693  0.6691
  438SOL    HW1 1313   0.003   1.783   0.828 -1.2915  1.4652 -1.0293
  438SOL    HW2 1314   0.113   1.794   0.685  2.4000 -3.4655 -1.8185
  439SOL     OW 1315   0.293   0.437   1.148 -0.2202  1.0897  0.1731
  439SOL    HW1 1316   0.269   0.356   1.206  3.4045 -2.6688  1.9712
  439SOL    HW2 1317   0.261   0.418   1.053 -0.6301  1.7532  1.5831
  440SOL     OW 1318   0.096   2.819   2.446  0.0564  0.0759  0.1507
  440SOL    HW1 1319   0.152   2.739   2.476  1.6702 -1.0305 -3.9712
  440SOL    HW2 1320   0.147   2.866   2.365  0.0135 -0.5058 -2.0697
  441SOL     OW 1321   3.009   0.542   1.374  0.4318  0.3309 -0.1236
  441SOL    HW1 1322   2.945   0.619   1.376 -0.5749 -2.5661  0.1090
  441SOL    HW2 1323   3.033   0.501   1.466 -2.4759  1.5228 -1.0455
  442SOL     OW 1324   1.691   2.099   2.649 -0.0100  0.1819 -0.0441
  442SOL    HW1 1325   1.681   2.189   2.607 -2.3162 -1.4084  1.8425
  442SOL    HW2 1326   1.789   2.070   2.663  1.3581 -0.2915  0.2630
  443SOL     OW 1327   0.590   1.287   2.919  0.5920  0.3605 -0.0531
  443SOL    HW1 1328   0.492   1.263   2.935  1.1991 -1.2856  1.5236
  443SOL    HW2 1329   0.616   1.293   2.823  0.9807  2.9181 -0.1455
  444SOL     OW 1330   1.377   1.579   1.902 -0.4016 -0.2142  0.6323
  444SOL    HW1 1331   1.305   1.641   1.863  1.9229  2.6342  2.7470
  444SOL    HW2 1332   1.362   1.572   2.003 -0.1624 -0.9674 -1.2576
  445SOL     OW 1333   0.243   3.013   0.916  0.0031 -0.2581 -0.2216
  445SOL    HW1 1334   0.271   0.045   0.922 -0.9646  1.6112  1.4008
  445SOL    HW2 1335   0.191   2.995   0.999  0.4103 -1.4161 -0.4246
  446SOL     OW 1336   2.329   0.559   1.237  0.4993 -0.5351  0.1060
  446SOL    HW1 1337   2.271   0.632   1.289 -2.5889  1.7035  2.3105
  446SOL    HW2 1338   2.272   0.520   1.164  1.0857  1.6935  4.0770
  447SOL     OW 1339   0.502   1.056   3.064  0.0131  0.8502 -0.1338
  447SOL    HW1 1340   0.570   1.127   0.027 -0.5078 -2.0994  1.2748
  447SOL    HW2 1341   0.422   1.054   0.059  2.1666  3.7439  0.5895
  448SOL     OW 1342   1.238   1.983   1.728  0.1760  0.3836 -0.2106
  448SOL    HW1 1343   1.158   2.019   1.679 -1.2993  0.5537 -1.8078
  448SOL    HW2 1344   1.271   2.055   1.795 -0.9606  1.0917 -0.6736
  449SOL     OW 1345   1.112   1.297   0.682 -0.3634 -0.3845  0.4043
  449SOL    HW1 1346   1.021   1.344   0.671  1.0370  0.4664 -0.8689
  449SOL    HW2 1347   1.122   1.213   0.627 -0.9131 -0.3540  2.8003
  450SOL     OW 1348   2.695   1.857   1.774 -0.0800 -0.2402 -0.1564
  450SOL    HW1 1349   2.753   1.776   1.749  0.9767  2.4968  1.8730
  450SOL    HW2 1350   2.721   1.896   1.865  0.6450 -0.6007 -0.6946
  451SOL     OW 1351   2.589   1.433   2.800 -0.1117  0.2053  0.3126
  451SOL    HW1 1352   2.502   1.378   2.811 -3.9847 -0.4433  0.5234
  451SOL    HW2 1353   2.567   1.531   2.782  0.0515  2.9168  1.9282
  452SOL     OW 1354   1.709   0.603   1.381  0.2177 -0.1379  0.7123
  452SOL    HW1 1355   1.689   0.663   1.463  0.3494  0.4891  0.9010
  452SOL    HW2 1356   1.656   0.636   1.297 -0.8729  3.6718 -1.5396
  453SOL     OW 1357   1.917   1.154   1.037  0.3115 -0.1927  0.2351
  453SOL    HW1 1358   1.932   1.246   0.998  0.3611 -0.3520  0.2922
  453SOL    HW2 1359   1.825   1.115   1.017 -0.0895 -3.5617 -3.0049
  454SOL     OW 1360   2.988   0.812   0.297  0.0300  0.3842 -0.0472
  454SOL    HW1 1361   0.016   0.823   0.316 -0.9988 -1.3081  0.2077
  454SOL    HW2 1362   2.944   0.796   0.390  0.1855  0.9101  0.1009
  455SOL     OW 1363   2.598   1.602   1.116 -0.0600  0.3759 -0.5701
  455SOL    HW1 1364   2.696   1.606   1.085  3.2108 -0.4744  0.2328
  455SOL    HW2 1365   2.570   1.507   1.134 -1.0906 -0.2821  1.0136
  456SOL     OW 1366   0.846   0.126   1.299  0.2401 -0.0554  0.6415
  456SOL    HW1 1367   0.747   0.120   1.270  1.0426 -0.6892  0.4466
  456SOL    HW2 1368   0.869   0.065   1.379  0.8137 -2.6002  2.1555
  457SOL     OW 1369   1.740   3.063   0.998 -0.1365  0.0179  0.2343
  457SOL    HW1 1370   1.641   3.044   0.982 -0.9607  0.1419 -1.5517
  457SOL    HW2 1371   1.759   0.081   0.948  1.2617  2.6944  0.2042
  458SOL     OW 1372   2.531   0.298   0.572 -0.4925  0.4133  0.4798
  458SOL    HW1 1373   2.527   0.208   0.626 -0.1039 -0.7997  2.5828
  458SOL    HW2 1374   2.505   0.374   0.632  0.6350 -1.7733 -3.5467
  459SOL     OW 1375   1.834   0.747   2.945 -0.0334  0.1161  0.0897
  459SOL    HW1 1376   1.852   0.830   3.001  2.5902 -0.1099  0.6649
  459SOL    HW2 1377   1.866   0.668   2.999 -0.7229  0.8038 -2.7111
  460SOL     OW 1378   3.026   2.663   2.696 -0.5435 -0.0577 -0.2342
  460SOL    HW1 1379   0.014   2.662   2.782 -0.7202 -0.8938 -2.0045
  460SOL    HW2 1380   2.949   2.724   2.696  0.6631 -1.5420  1.8377
  461SOL     OW 1381   0.759   1.685   0.164  0.4615 -0.3942 -0.4432
  461SOL    HW1 1382   0.693   1.723   0.234 -2.4161  0.6006 -1.4646
  461SOL    HW2 1383   0.714   1.651   0.079  0.1258  2.5077 -1.4153
  462SOL     OW 1384   2.118   2.312   0.738 -0.0685  0.5790  0.8734
  462SOL    HW1 1385   2.143   2.409   0.733 -0.2309  0.5333 -1.4197
  462SOL    HW2 1386   2.070   2.284   0.823 -0.7996 -0.2002  0.0520
  463SOL     OW 1387   0.010   0.631   0.580 -0.3585 -0.1801  0.3495
  463SOL    HW1 1388   0.069   0.589   0.653  0.6070 -2.3862  1.4360
  463SOL    HW2 1389   0.014   0.734   0.583 -0.0854 -2.0792 -1.2723
  464SOL     OW 1390   0.819   2.471   0.523  0.1657  0.7489 -0.5393
  464SOL    HW1 1391   0.735   2.502   0.574 -2.5440 -1.4879  0.2425
  464SOL    HW2 1392   0.812   2.373   0.490  0.7748 -1.8131 -0.0676
  465SOL     OW 1393   2.434   0.716   0.506 -0.2209  0.3274 -0.2342
  465SOL    HW1 1394   2.333   0.704   0.499  0.8540 -0.5027 -1.0880
  465SOL    HW2 1395   2.474   0.757   0.422 -0.1946  2.1587 -1.2494
  466SOL     OW 1396   2.213   0.041   0.004  0.3183  0.1819  0.2830
  466SOL    HW1 1397   2.278   0.104   3.025 -0.7472 -1.4148 -0.5577
  466SOL    HW2 1398   2.256   3.018   0.007 -0.1124  2.7158  0.9450
  467SOL     OW 1399   1.244   0.483   1.926 -0.9322  0.4696 -0.2267
  467SOL    HW1 1400   1.262   0.482   1.826 -1.6977  0.0582  0.5523
  467SOL    HW2 1401   1.258   0.574   1.968 -1.0225 -2.5507 -2.3222
  468SOL     OW 1402   2.948   0.487   2.088  0.0035  0.1707  0.5365
  468SOL    HW1 1403   3.041   0.509   2.131 -0.2708 -0.6874 -4.2802
  468SOL    HW2 1404   2.872   0.492   2.148 -0.0664  0.6572  0.0915
  469SOL     OW 1405   0.855   2.887   2.667  0.5133 -0.0956 -0.4473
  469SOL    HW1 1406   0.829   2.828   2.740  0.8546  3.2446  0.0478
  469SOL    HW2 1407   0.769   2.896   2.615  1.1707 -1.8694  2.5592
  470SOL     OW 1408   1.670   1.262   2.174 -0.0796  0.0019 -0.0143
  470SOL    HW1 1409   1.583   1.283   2.223  0.7120  0.7532 -0.6201
  470SOL    HW2 1410   1.716   1.345   2.129  1.5723  1.5228 -0.2253
  471SOL     OW 1411   2.707   1.131   0.011  0.4011 -0.0839 -0.0873
  471SOL    HW1 1412   2.768   1.207   3.047 -2.8936  1.5278 -0.4972
  471SOL    HW2 1413   2.765   1.065   0.064  2.0579  0.3589  0.5212
  472SOL     OW 1414   0.346   2.768   0.421 -0.4301 -0.2088 -0.4345
  472SOL    HW1 1415   0.269   2.828   0.449  2.4901 -0.3507 -1.8800
  472SOL    HW2 1416   0.416   2.770   0.496 -1.8739  1.6188  2.8757
  473SOL     OW 1417   0.884   0.103   2.728  0.5981 -0.4315  0.4536
  473SOL    HW1 1418   0.793   0.138   2.755  4.6482  0.8218  0.3699
  473SOL    HW2 1419   0.888   0.002   2.715 -2.1488 -0.3320  1.0435
  474SOL     OW 1420   1.763   3.064   2.166  0.3355  0.0579 -0.5751
  474SOL    HW1 1421   1.733   2.970   2.138 -1.1737  2.3514 -0.2459
  474SOL    HW2 1422   1.838   0.031   2.106 -0.0456  0.1437  2.0981
  475SOL     OW 1423   1.060   2.591   0.312 -0.6734 -0.3210  0.3354
  475SOL    HW1 1424   1.151   2.603   0.363  1.2519  0.5827 -1.1580
  475SOL    HW2 1425   1.011   2.679   0.304  1.7331  5.2300  0.3853
  476SOL     OW 1426   0.500   0.824   0.905 -0.0651  0.5041 -0.2470
  476SOL    HW1 1427   0.407   0.830   0.858 -0.2934 -1.3728  0.1109
  476SOL    HW2 1428   0.542   0.734   0.893 -1.5380  1.2954  2.0129
  477SOL     OW 1429   1.801   1.973   1.330 -0.5480  0.7072  0.0378
  477SOL    HW1 1430   1.753   1.990   1.243 -1.4038 -0.8470 -1.5286
  477SOL    HW2 1431   1.870   2.044   1.360  2.7509 -1.8083 -1.6199
  478SOL     OW 1432   0.450   1.346   2.161  0.4463 -0.6224  0.1175
  478SOL    HW1 1433   0.518   1.413   2.127  4.5467  2.0969  3.0005
  478SOL    HW2 1434   0.432   1.272   2.095 -2.8682  2.3251  2.5894
  479SOL     OW 1435   0.645   0.131   0.779  0.0166  0.0936  0.3527
  479SOL    HW1 1436   0.676   0.042   0.820  1.4454 -1.2879 -1.3463
  479SOL    HW2 1437   0.560   0.122   0.724 -0.7794 -1.4108 -0.5991
  480SOL     OW 1438   2.509   2.541   2.909  0.3907  0.1225  0.1140
  480SOL    HW1 1439   2.433   2.559   2.847  0.6992  0.7879  2.1235
  480SOL    HW2 1440   2.594   2.521   2.855 -0.3603  1.4215 -1.9587
  481SOL     OW 1441   2.627   0.564   1.175 -0.0817  0.7520 -0.3842
  481SOL    HW1 1442   2.526   0.568   1.188  0.2676 -0.6645 -0.8183
  481SOL    HW2 1443   2.678   0.608   1.249 -1.5092  1.7149 -1.1608
  482SOL     OW 1444   1.268   2.468   1.693  0.2516  0.5248  0.0808
  482SOL    HW1 1445   1.300   2.416   1.610 -0.4550  2.2010 -0.8766
  482SOL    HW2 1446   1.337   2.457   1.766 -0.5480  0.3668  2.7525
  483SOL     OW 1447   0.137   1.584   2.755  0.3541 -0.1416  0.5453
  483SOL    HW1 1448   0.082   1.511   2.713  1.5264 -0.1283  0.1574
  483SOL    HW2 1449   0.239   1.561   2.758  2.1016 -0.5427 -0.2947
  484SOL     OW 1450   1.292   2.049   2.411  0.1477  0.0836 -0.3308
  484SOL    HW1 1451   1.237   1.981   2.362  1.8652 -1.8050  1.6237
  484SOL    HW2 1452   1.386   2.010   2.415  5.5462  0.3135 -1.9684
  485SOL     OW 1453   3.026   0.189   2.461  0.3989 -0.1373  0.8057
  485SOL    HW1 1454   2.955   0.207   2.388 -1.6472  0.9476 -1.6659
  485SOL    HW2 1455   3.005   0.097   2.506 -0.8239 -1.8242  1.8410
  486SOL     OW 1456   1.693   3.060   0.644  0.4820 -0.1250  0.4033
  486SOL    HW1 1457   1.664   0.082   0.612 -1.8155 -1.2548 -1.5319
  486SOL    HW2 1458   1.794   3.053   0.638  0.7019  2.3952 -1.2805
  487SOL     OW 1459   1.295   2.520   1.026 -0.0520 -0.0803 -0.0109
  487SOL    HW1 1460   1.286   2.456   0.951 -2.6636  3.0519  0.2728
  487SOL    HW2 1461   1.240   2.602   1.011  4.1406 -1.0054 -2.0334
  488SOL     OW 1462   1.731   0.929   0.749 -0.1515  0.3287  0.5780
  488SOL    HW1 1463   1.759   0.884   0.842  0.3001 -0.4563 -2.1349
  488SOL    HW2 1464   1.777   1.022   0.739 -2.0821  0.0244  1.3680
  489SOL     OW 1465   1.190   2.751   1.386  0.0802  0.7604  0.6872
  489SOL    HW1 1466   1.270   2.701   1.431 -1.7782 -2.4170 -1.0540
  489SOL    HW2 1467   1.137   2.805   1.451 -0.1072 -1.1024 -2.9292
  490SOL     OW 1468   0.850   0.756   0.647  0.3908  0.1313 -0.5826
  490SOL    HW1 1469   0.799   0.828   0.705  0.8961  1.1436  0.1548
  490SOL    HW2 1470   0.791   0.723   0.574 -0.9411  0.9844  1.5220
  491SOL     OW 1471   1.458   2.893   3.039 -0.3926 -0.2407  0.1473
  491SOL    HW1 1472   1.453   2.958   0.047 -0.3372 -1.9233  0.4237
  491SOL    HW2 1473   1.385   2.905   2.971 -0.7483  1.7359 -0.7688
  492SOL     OW 1474   1.398   1.269   2.211  0.0308 -0.5354 -0.2668
  492SOL    HW1 1475   1.387   1.361   2.179  3.3183 -3.0834  3.0077
  492SOL    HW2 1476   1.332   1.247   2.285  2.0976  0.0837  1.4169
  493SOL     OW 1477   0.016   1.775   0.175 -0.0109 -0.2465  0.0802
  493SOL    HW1 1478   3.031   1.704   0.122  1.3613 -2.2038  0.5580
  493SOL    HW2 1479   0.085   1.722   0.229 -0.4720  1.7866 -1.4834
  494SOL     OW 1480   2.124   1.419   0.519 -0.5818 -0.1833 -0.2514
  494SOL    HW1 1481   2.060   1.468   0.578  5.3321  0.2706 -0.6749
  494SOL    HW2 1482   2.070   1.374   0.450  0.0089  1.3336  0.5401
  495SOL     OW 1483   0.004   0.802   2.506  0.1376  0.1432 -0.3824
  495SOL    HW1 1484   3.015   0.828   2.429 -0.9402  0.7238  0.8205
  495SOL    HW2 1485   0.082   0.869   2.523  1.9541 -0.1332 -0.4224
  496SOL     OW 1486   2.788   3.034   2.401  0.4481 -0.1769  0.5153
  496SOL    HW1 1487   2.768   0.012   2.310 -0.4802  0.9319  0.2262
  496SOL    HW2 1488   2.841   2.949   2.378  0.2917  2.6863  3.1494
  497SOL     OW 1489   2.574   0.882   0.704  0.2842  0.3642 -0.2523
  497SOL    HW1 1490   2.516   0.823   0.641  0.6523  2.4584 -0.4601
  497SOL    HW2 1491   2.664   0.829   0.707  2.3755  2.5577 -0.6255
  498SOL     OW 1492   3.050   2.674   2.985 -0.6765 -0.4931 -0.8372
  498SOL    HW1 1493   3.045   2.777   2.983 -2.6344 -1.0817  1.3513
  498SOL    HW2 1494   0.044   2.638   3.059  0.6746 -1.1035  0.3019
  499SOL     OW 1495   1.499   2.498   0.745 -0.0042 -0.0645 -0.1483
  499SOL    HW1 1496   1.403   2.472   0.763  3.2558  2.5497  0.1179
  499SOL    HW2 1497   1.552   2.423   0.699  1.7363  2.7668  0.9610
  500SOL     OW 1498   1.158   0.379   2.640 -0.1260 -0.2846 -0.1955
  500SOL    HW1 1499   1.056   0.365   2.645 -0.1302 -1.6558  0.1230
  500SOL    HW2 1500   1.183   0.478   2.635 -1.4852  1.6940  0.8555
  501SOL     OW 1501   1.077   0.277   1.263 -0.0514  0.0625 -0.0632
  501SOL    HW1 1502   1.155   0.222   1.236 -0.1011  0.7766  1.9921
  501SOL    HW2 1503   1.001   0.212   1.294 -0.4155 -1.6840 -0.2367
  502SOL     OW 1504   0.025   0.048   2.172 -0.4061 -0.0529  0.1896
  502SOL    HW1 1505   0.089   0.036   2.255  0.4512  0.9916  1.9803
  502SOL    HW2 1506   3.029   0.127   2.188 -2.0670  2.9860  1.3499
  503SOL     OW 1507   1.479   2.083   2.172  0.2195 -0.5532 -0.6181
  503SOL    HW1 1508   1.480   2.176   2.211 -1.3482 -1.1537 -0.4251
  503SOL    HW2 1509   1.503   2.010   2.241 -0.1886  2.1827 -0.4928
  504SOL     OW 1510   2.260   2.752   1.645 -0.4318 -0.5205 -0.3815
  504SOL    HW1 1511   2.354   2.766   1.674 -0.5215 -0.6244 -0.9590
  504SOL    HW2 1512   2.208   2.838   1.642 -0.0133 -0.3330 -1.4558
  505SOL     OW 1513   2.672   0.915   1.521  0.5638  0.5050 -0.0259
  505SOL    HW1 1514   2.770   0.924   1.556  0.2267  2.0086 -0.0439
  505SOL    HW2 1515   2.610   0.858   1.580  1.1511  0.0696  5.0003
  506SOL     OW 1516   0.255   1.482   2.263  0.4195  0.1036  0.1066
  506SOL    HW1 1517   0.175   1.419   2.248 -1.4843  0.9409  0.3050
  506SOL    HW2 1518   0.338   1.431   2.225  2.3040  0.3034 -1.5051
  507SOL     OW 1519   0.141   3.029   1.501  0.7835 -0.1201  0.4002
  507SOL    HW1 1520   0.076   0.031   1.469 -0.6307  1.9290  0.3765
  507SOL    HW2 1521   0.146   2.957   1.432 -0.5274 -0.7173  1.6729
  508SOL     OW 1522   1.394   0.504   1.421 -0.2376 -0.3339 -0.3854
  508SOL    HW1 1523   1.429   0.600   1.396 -0.8024  1.6536  1.2829
  508SOL    HW2 1524   1.430   0.429   1.359  1.4103  2.7313 -1.0330
  509SOL     OW 1525   1.142   2.257   1.417 -0.6221 -0.6271  0.6144
  509SOL    HW1 1526   1.113   2.321   1.338  0.9503 -0.4691 -2.9668
  509SOL    HW2 1527   1.075   2.278   1.488 -0.0619  3.6964  0.2318
  510SOL     OW 1528   2.468   1.208   2.949 -0.3089  0.0304 -0.6587
  510SOL    HW1 1529   2.430   1.215   3.041 -0.2382 -1.5333 -2.2183
  510SOL    HW2 1530   2.568   1.202   2.964 -0.6324 -0.1530  0.1438
  511SOL     OW 1531   0.548   1.466   1.188  0.4386  0.1177 -0.3068
  511SOL    HW1 1532   0.497   1.446   1.275 -1.2146  0.3552 -0.9757
  511SOL    HW2 1533   0.519   1.403   1.115  0.6317  0.2428 -1.3820
  512SOL     OW 1534   2.702   2.407   0.293  0.0640  0.5276  0.4751
  512SOL    HW1 1535   2.777   2.352   0.337  1.1138  0.6669  1.4886
  512SOL    HW2 1536   2.687   2.370   0.197  1.6262 -1.3091 -2.2883
  513SOL     OW 1537   0.433   1.525   2.735  0.0811 -0.1132 -0.2038
  513SOL    HW1 1538   0.428   1.453   2.804 -2.0653  1.3044  0.8641
  513SOL    HW2 1539   0.420   1.487   2.641 -0.6955  1.2135  1.6851
  514SOL     OW 1540   0.071   2.398   2.914 -0.3628  0.2878  0.4008
  514SOL    HW1 1541   0.127   2.474   2.869  1.9115  1.1327 -2.8497
  514SOL    HW2 1542   3.043   2.422   2.942 -2.7435  0.7614  1.9617
  515SOL     OW 1543   1.457   1.052   2.040 -0.1323 -0.5255  0.4048
  515SOL    HW1 1544   1.362   1.076   2.008  2.7410 -0.4638  0.7047
  515SOL    HW2 1545   1.489   1.120   2.111 -0.0025  1.0828 -1.2480
  516SOL     OW 1546   1.966   2.165   0.538  0.0010  0.3039  0.1967
  516SOL    HW1 1547   2.014   2.074   0.534  0.3024 -0.7385  0.7539
  516SOL    HW2 1548   2.010   2.227   0.602 -0.7796  1.5708 -2.6503
  517SOL     OW 1549   1.300   1.497   0.716  0.3062 -0.3920  0.0486
  517SOL    HW1 1550   1.269   1.403   0.691  0.7155 -1.3650  1.8278
  517SOL    HW2 1551   1.364   1.533   0.645  0.3053 -0.9585 -1.1737
  518SOL     OW 1552   2.066   2.223   2.294 -0.0035 -0.6922  0.0689
  518SOL    HW1 1553   2.001   2.179   2.230  6.0579 -0.5521 -0.4531
  518SOL    HW2 1554   2.016   2.266   2.373  1.7380 -3.2458  1.1337
  519SOL     OW 1555   1.749   2.102   1.072 -0.4411  0.1199 -0.0037
  519SOL    HW1 1556   1.823   2.172   1.072 -0.1903 -1.6292 -0.1237
  519SOL    HW2 1557   1.719   2.081   0.977 -0.9464  2.7777 -2.8999
  520SOL     OW 1558   2.645   2.422   2.531 -0.0924  0.2962  0.5806
  520SOL    HW1 1559   2.713   2.347   2.510  0.2739 -1.1209  0.6840
  520SOL    HW2 1560   2.549   2.380   2.512 -1.8412  0.3548 -2.1955
  521SOL     OW 1561   3.024   1.405   1.958  0.0088  0.0752  0.4340
  521SOL    HW1 1562   2.928   1.418   1.929 -0.0387  1.4257  0.8643
  521SOL    HW2 1563   0.028   1.430   1.893  1.5807  1.0925 -0.8893
  522SOL     OW 1564   0.715   0.509   2.013  0.2674  0.1775 -0.3902
  522SOL    HW1 1565   0.622   0.514   1.971 -0.8286  2.6130 -2.2907
  522SOL    HW2 1566   0.784   0.491   1.943  0.6862 -2.1583  1.2168
  523SOL     OW 1567   0.579   1.951   0.951 -0.0159 -0.0956  0.3702
  523SOL    HW1 1568   0.628   1.982   1.036  1.7982  1.0671 -0.8794
  523SOL    HW2 1569   0.477   1.970   0.964  0.5590  0.4488  1.3509
  524SOL     OW 1570   1.672   2.966   0.382 -0.0026 -0.1625  0.0436
  524SOL    HW1 1571   1.769   2.935   0.367  3.0742 -1.4798  1.7298
  524SOL    HW2 1572   1.662   2.979   0.486  1.2076  0.2024  1.7639
  525SOL     OW 1573   2.453   0.521   1.477 -0.0970 -0.5122  0.3050
  525SOL    HW1 1574   2.420   0.532   1.381  1.1049 -4.2924 -1.2431
  525SOL    HW2 1575   2.458   0.421   1.505 -2.4160 -1.2285  0.9560
  526SOL     OW 1576   1.006   2.515   0.723 -0.2250 -0.5262  0.1380
  526SOL    HW1 1577   1.080   2.583   0.694 -0.2912 -1.6940 -4.0288
  526SOL    HW2 1578   0.934   2.498   0.650  2.0696 -0.8215 -1.7318
  527SOL     OW 1579   2.547   2.528   0.471 -0.3375 -0.5931 -0.7066
  527SOL    HW1 1580   2.466   2.473   0.507  1.8720 -0.1356  2.8812
  527SOL    HW2 1581   2.592   2.475   0.394 -1.1373 -3.0830 -0.0797
  528SOL     OW 1582   2.335   0.283   0.073 -0.1209 -0.5087 -0.0883
  528SOL    HW1 1583   2.388   0.328   0.146  0.4072  1.2830 -0.1696
  528SOL    HW2 1584   2.284   0.199   0.100 -0.2451 -0.8839  1.5199
  529SOL     OW 1585   1.481   1.509   2.450 -0.3306 -0.2274 -0.2007
  529SOL    HW1 1586   1.559   1.458   2.494 -0.3445 -0.2158  0.2928
  529SOL    HW2 1587   1.523   1.551   2.366  3.0242 -2.2811  1.6389
  530SOL     OW 1588   2.316   0.608   0.131  0.1562  0.5157 -0.3386
  530SOL    HW1 1589   2.221   0.591   0.172 -0.0806  1.5238  0.0412
  530SOL    HW2 1590   2.383   0.566   0.193 -2.0341  1.1648 -1.8177
  531SOL     OW 1591   1.614   0.961   2.884 -0.4273  0.0588  0.7435
  531SOL    HW1 1592   1.627   0.885   2.810  0.2879 -2.3124 -3.0028
  531SOL    HW2 1593   1.554   1.036   2.849 -0.7802  1.8874 -0.4678
  532SOL     OW 1594   1.588   0.627   0.532 -0.4994  0.0121  0.1211
  532SOL    HW1 1595   1.672   0.606   0.576 -0.2257  3.4903 -1.1311
  532SOL    HW2 1596   1.597   0.624   0.430  0.8860  1.0643  0.9676
  533SOL     OW 1597   0.971   0.975   1.995 -0.3053  0.1316  0.5945
  533SOL    HW1 1598   0.886   0.975   2.047 -0.9810  0.1284  0.4060
  533SOL    HW2 1599   0.950   0.917   1.913 -0.3894 -0.4850  0.1978
  534SOL     OW 1600   1.533   0.349   2.631  0.3712 -0.1620  0.2926
  534SOL    HW1 1601   1.605   0.275   2.648 -0.9961  1.3285 -0.7166
  534SOL    HW2 1602   1.442   0.313   2.647  2.4396  1.9272  1.0190
  535SOL     OW 1603   0.383   0.363   0.348 -0.1576 -0.2975  0.4145
  535SOL    HW1 1604   0.425   0.276   0.379  0.0989 -0.5907 -3.2128
  535SOL    HW2 1605   0.374   0.360   0.247 -1.1524 -1.0080 -2.1237
  536SOL     OW 1606   0.983   0.273   0.660  0.0312 -0.2119  0.2767
  536SOL    HW1 1607   0.883   0.246   0.655 -1.3555 -2.4505  1.2277
  536SOL    HW2 1608   1.004   0.356   0.713 -2.3018 -0.9394 -2.3054
  537SOL     OW 1609   1.491   0.874   0.643 -0.5980  0.1960 -0.6482
  537SOL    HW1 1610   1.585   0.899   0.683 -0.2081 -0.2066  5.0655
  537SOL    HW2 1611   1.489   0.774   0.626 -2.6537  0.5934 -2.2360
  538SOL     OW 1612   2.870   2.056   0.054 -0.2430 -0.1284 -0.0559
  538SOL    HW1 1613   2.787   2.117   0.052 -0.0286  0.1719 -1.2702
  538SOL    HW2 1614   2.905   2.038   3.029  0.1754 -1.4747  1.5574
  539SOL     OW 1615   2.035   1.628   0.107  0.0011  0.5193 -0.3026
  539SOL    HW1 1616   2.086   1.612   0.193 -3.1036 -2.8513 -3.6072
  539SOL    HW2 1617   2.019   1.538   0.061 -0.6089  0.8060 -0.5587
  540SOL     OW 1618   0.373   2.649   1.239  0.4159 -0.1432 -0.5996
  540SOL    HW1 1619   0.396   2.556   1.276  0.9825 -0.0196  3.5607
  540SOL    HW2 1620   0.434   2.659   1.161 -0.0115 -1.7182  1.2055
  541SOL     OW 1621   2.045   2.852   2.266 -0.5970  0.0612  0.0686
  541SOL    HW1 1622   2.015   2.949   2.298  0.6493  2.3394  0.5343
  541SOL    HW2 1623   2.074   2.859   2.171  0.5901 -2.3908  1.1725
  542SOL     OW 1624   0.115   0.619   2.652 -0.0037  0.2592 -0.2970
  542SOL    HW1 1625   0.065   0.631   2.737 -0.3275  0.0420 -1.9290
  542SOL    HW2 1626   0.075   0.664   2.574 -1.0100 -2.2076  1.2233
  543SOL     OW 1627   3.061   1.290   1.094  0.4687 -0.1097  0.2839
  543SOL    HW1 1628   3.016   1.332   1.177 -1.6221 -2.6902  2.9120
  543SOL    HW2 1629   2.993   1.254   1.027 -1.7882  1.0431 -1.3798
  544SOL     OW 1630   2.517   0.216   0.973 -0.1406 -0.1342 -0.4181
  544SOL    HW1 1631   2.550   0.310   0.974 -3.0984  0.5436  2.0282
  544SOL    HW2 1632   2.487   0.198   0.880  3.9094  1.1433 -0.6971
  545SOL     OW 1633   1.644   2.492   0.421  0.0626  0.2299  0.5669
  545SOL    HW1 1634   1.616   2.585   0.393 -0.6908 -0.0303  0.7001
  545SOL    HW2 1635   1.576   2.426   0.384 -0.8356 -0.4055 -0.9326
  546SOL     OW 1636   2.079   2.641   1.869  0.0633  0.3841  0.0652
  546SOL    HW1 1637   2.103   2.544   1.896  0.5143  1.1896  1.2195
  546SOL    HW2 1638   2.112   2.654   1.775 -1.3605 -0.8382  0.1890
  547SOL     OW 1639   0.248   2.995   2.305  0.2046  0.2345 -0.6397
  547SOL    HW1 1640   0.286   0.023   2.322  1.1657  2.2463 -1.2344
  547SOL    HW2 1641   0.250   2.959   2.208  0.2745  0.3761  0.9912
  548SOL     OW 1642   1.666   1.249   2.794  0.1588  0.4013 -0.4696
  548SOL    HW1 1643   1.613   1.241   2.881  0.8080  1.1451 -2.2799
  548SOL    HW2 1644   1.758   1.209   2.797  1.8183 -0.4458 -2.4783
  549SOL     OW 1645   2.947   1.197   0.350  0.7900 -0.3657  0.0209
  549SOL    HW1 1646   2.863   1.208   0.406  4.0968 -1.5104  2.8017
  549SOL    HW2 1647   2.944   1.133   0.266 -0.2673 -2.6102 -1.6903
  550SOL     OW 1648   1.693   2.069   0.818  0.1634  0.1405 -0.2318
  550SOL    HW1 1649   1.724   2.143   0.760  1.2601 -0.5749  2.3750
  550SOL    HW2 1650   1.593   2.049   0.806 -0.1643  2.3567 -0.4158
  551SOL     OW 1651   1.358   0.484   0.822  0.1910  0.2072 -0.5008
  551SOL    HW1 1652   1.368   0.491   0.921 -1.1572  0.2092 -0.7641
  551SOL    HW2 1653   1.445   0.449   0.779  1.6199 -0.3993  0.2646
  552SOL     OW 1654   2.910   2.764   2.341  0.2547 -0.3350 -0.8887
  552SOL    HW1 1655   2.995   2.775   2.397  1.4213 -0.1053 -0.4541
  552SOL    HW2 1656   2.930   2.743   2.242  0.8469  1.9334  1.1187
  553SOL     OW 1657   3.027   3.010   2.601 -0.1756 -0.2038  1.1492
  553SOL    HW1 1658   2.925   2.992   2.611 -0.0648 -2.0692  1.8127
  553SOL    HW2 1659   0.002   2.943   2.533  2.5789 -2.4985 -1.5192
  554SOL     OW 1660   0.983   2.657   1.243  0.7180 -0.4974 -0.2788
  554SOL    HW1 1661   0.907   2.717   1.261  0.2212 -0.0025 -0.4474
  554SOL    HW2 1662   1.066   2.688   1.293 -1.3403 -0.5837  1.0831
  555SOL     OW 1663   2.508   2.428   2.107  0.4150 -0.2472  0.3291
  555SOL    HW1 1664   2.505   2.442   2.005  1.6545  1.0218 -0.8568
  555SOL    HW2 1665   2.599   2.391   2.128 -1.6316  1.6087  1.7485
  556SOL     OW 1666   1.320   0.177   2.642 -0.0645 -0.0510  0.2750
  556SOL    HW1 1667   1.249   0.253   2.637 -0.9253 -2.8376  1.2675
  556SOL    HW2 1668   1.311   0.094   2.581  0.4881  1.2495 -0.0929
  557SOL     OW 1669   0.316   1.748   2.265 -0.9725  0.3955  0.9508
  557SOL    HW1 1670   0.293   1.762   2.367 -0.5362  2.0360  1.0053
  557SOL    HW2 1671   0.322   1.649   2.240  0.1601 -4.6913  1.1675
  558SOL     OW 1672   2.031   0.858   2.277 -0.0461 -0.3972 -0.2313
  558SOL    HW1 1673   2.123   0.823   2.254  0.4705 -1.1358 -1.3169
  558SOL    HW2 1674   1.976   0.858   2.191 -0.6713 -0.3524  1.3687
  559SOL     OW 1675   2.566   2.080   2.202  0.4555 -0.4146 -0.1811
  559SOL    HW1 1676   2.640   2.148   2.170  2.4556 -1.5096 -3.0088
  559SOL    HW2 1677   2.470   2.119   2.194 -3.0997 -1.6540  0.7569
  560SOL     OW 1678   2.532   0.796   2.185  0.1592 -0.1895 -0.6968
  560SOL    HW1 1679   2.433   0.783   2.184 -0.9307  2.4622  1.3878
  560SOL    HW2 1680   2.566   0.847   2.103 -0.5287  2.4296  2.3927
  561SOL     OW 1681   0.462   0.374   0.082  0.6567 -0.5105 -1.1824
  561SOL    HW1 1682   0.402   0.354   0.002 -0.7975 -2.1801 -2.1129
  561SOL    HW2 1683   0.558   0.347   0.071  1.7106  0.2140 -0.3554
  562SOL     OW 1684   0.967   1.276   1.435 -0.3261 -0.1429 -0.6121
  562SOL    HW1 1685   1.024   1.313   1.511  0.8963  1.0106  1.1249
  562SOL    HW2 1686   0.885   1.229   1.475  0.2760 -0.8183 -0.3916
  563SOL     OW 1687   1.577   2.944   2.775  0.4170  0.2797  0.6916
  563SOL    HW1 1688   1.478   2.954   2.787 -0.0845 -0.4671  0.9057
  563SOL    HW2 1689   1.619   2.920   2.863 -1.3770  0.1566  0.4801
  564SOL     OW 1690   3.059   2.236   0.949 -0.4188 -0.3735  0.0422
  564SOL    HW1 1691   3.001   2.158   0.976 -1.2143  2.7303  2.1385
  564SOL    HW2 1692   0.086   2.214   0.973 -1.9777  1.1721 -0.9564
  565SOL     OW 1693   0.550   2.423   2.157 -0.4822 -0.3027 -0.0473
  565SOL    HW1 1694   0.622   2.460   2.095 -1.1520 -0.3029 -1.2302
  565SOL    HW2 1695   0.593   2.358   2.224 -1.0504 -0.1461 -2.4910
  566SOL     OW 1696   1.128   2.459   2.050  0.6347 -0.0021 -0.0494
  566SOL    HW1 1697   1.144   2.399   2.128 -2.9541 -1.1137  0.0952
  566SOL    HW2 1698   1.209   2.518   2.032 -0.9109  0.9923  1.3716
  567SOL     OW 1699   1.974   2.304   0.977 -0.5825  0.6511 -0.0879
  567SOL    HW1 1700   1.979   2.345   1.070 -0.7432 -1.8508 -0.0929
  567SOL    HW2 1701   1.915   2.363   0.920  1.4068  1.2888 -0.9473
  568SOL     OW 1702   2.164   0.648   0.500  0.1494  0.1847  0.4158
  568SOL    HW1 1703   2.133   0.710   0.575 -0.2218  0.4455 -1.3578
  568SOL    HW2 1704   2.122   0.557   0.524  0.0227 -1.6535  1.4232
  569SOL     OW 1705   2.858   1.717   2.525 -0.1934  0.1862  0.0964
  569SOL    HW1 1706   2.952   1.682   2.492 -0.7363  0.5775  0.2139
  569SOL    HW2 1707   2.860   1.701   2.624 -0.8186 -0.1832 -0.3084
  570SOL     OW 1708   3.006   0.088   1.092  0.1958  0.4721  0.3000
  570SOL    HW1 1709   0.006   0.017   1.118 -1.4943  0.9020  0.1445
  570SOL    HW2 1710   2.972   0.126   1.178  1.1741 -1.3732 -1.8843
  571SOL     OW 1711   3.026   0.422   1.615 -0.2331  0.3433  0.1654
  571SOL    HW1 1712   3.032   0.505   1.674  0.2354  0.1048  0.5864
  571SOL    HW2 1713   3.031   0.334   1.672  0.5964  1.0550  1.6813
  572SOL     OW 1714   2.769   2.360   0.624 -0.3210  0.0956  0.2018
  572SOL    HW1 1715   2.714   2.313   0.551  3.5923  0.3697 -0.5194
  572SOL    HW2 1716   2.837   2.295   0.667 -1.9302  0.5591  0.6235
  573SOL     OW 1717   0.782   0.661   3.048  0.0204 -0.0044  0.2147
  573SOL    HW1 1718   0.711   0.637   0.054  1.0806 -0.2263  2.9797
  573SOL    HW2 1719   0.766   0.749   2.995  2.5308  1.4736 -1.4843
  574SOL     OW 1720   3.002   2.940   3.054 -0.2822  0.3201  0.0214
  574SOL    HW1 1721   2.922   2.904   0.041  0.9532  0.3583 -0.1014
  574SOL    HW2 1722   3.043   3.016   0.038 -0.3468 -1.3734  1.2453
  575SOL     OW 1723   1.323   2.221   1.157  0.3040 -0.2528 -0.1718
  575SOL    HW1 1724   1.235   2.278   1.168 -2.2672 -1.0434  0.1971
  575SOL    HW2 1725   1.397   2.270   1.113 -2.1918 -0.7677  1.4349
  576SOL     OW 1726   0.793   2.564   1.030  0.7355  0.1263 -0.1315
  576SOL    HW1 1727   0.839   2.480   0.986  0.3867 -2.7597  0.1999
  576SOL    HW2 1728   0.830   2.590   1.121  0.7149  0.4867 -3.2983
  577SOL     OW 1729   2.128   1.750   1.113  0.0276  0.0354  0.4181
  577SOL    HW1 1730   2.151   1.726   1.206 -3.2058 -0.0922  0.5251
  577SOL    HW2 1731   2.174   1.833   1.075  0.6223 -0.9535 -1.1949
  578SOL     OW 1732   1.602   0.351   0.294 -0.3596  0.2539  0.3487
  578SOL    HW1 1733   1.605   0.457   0.283  1.0033  0.1855  2.6924
  578SOL    HW2 1734   1.592   0.310   0.199  0.7465  0.6377 -0.0794
  579SOL     OW 1735   2.261   1.050   2.848 -0.5479  0.4271  0.5715
  579SOL    HW1 1736   2.344   1.103   2.875 -0.9900 -2.0285 -0.8189
  579SOL    HW2 1737   2.236   0.986   2.924 -1.0948  1.8646  1.9040
  580SOL     OW 1738   1.779   0.424   1.911 -0.7405  0.0962 -0.5414
  580SOL    HW1 1739   1.717   0.496   1.877  0.0490  0.3347  0.2859
  580SOL    HW2 1740   1.801   0.458   2.004 -1.9267  0.1735 -2.6288
  581SOL     OW 1741   0.669   1.150   1.085 -0.3441  0.1749  0.1510
  581SOL    HW1 1742   0.587   1.198   1.045 -2.5860 -0.4884 -0.4670
  581SOL    HW2 1743   0.739   1.219   1.119 -0.2877  1.1368  0.5878
  582SOL     OW 1744   2.636   0.025   2.154 -0.2889  0.4466  0.2188
  582SOL    HW1 1745   2.540   0.058   2.156 -2.0345  1.3626  0.2996
  582SOL    HW2 1746   2.687   0.036   2.066 -0.7927 -2.4097 -0.1254
  583SOL     OW 1747   2.798   0.418   1.879  0.4635  0.0153 -0.2646
  583SOL    HW1 1748   2.873   0.448   1.945  0.8617 -0.7082  0.3929
  583SOL    HW2 1749   2.801   0.319   1.854  2.4481  1.9510  0.3982
  584SOL     OW 1750   1.114   1.835   2.605  0.3306 -0.4419 -0.5982
  584SOL    HW1 1751   1.106   1.925   2.649  1.3489 -2.1232 -1.5470
  584SOL    HW2 1752   1.212   1.808   2.599 -0.1385 -0.6955  1.1652
  585SOL     OW 1753   0.441   0.061   0.163  0.4661  0.0624  0.1698
  585SOL    HW1 1754   0.414   3.035   0.160 -0.2640  0.9828 -0.2391
  585SOL    HW2 1755   0.408   0.110   0.078  2.1136  1.4731  0.7353
  586SOL     OW 1756   1.683   1.789   2.594  0.6225  0.1123 -0.0607
  586SOL    HW1 1757   1.713   1.755   2.682 -0.9899 -1.0308 -0.5461
  586SOL    HW2 1758   1.729   1.736   2.521 -0.7497  0.3206  2.0041
  587SOL     OW 1759   2.376   2.333   0.523 -0.4746 -0.0235 -0.4512
  587SOL    HW1 1760   2.296   2.294   0.477 -0.0023  2.0911 -0.2023
  587SOL    HW2 1761   2.341   2.382   0.606 -0.9443  3.7628  1.9766
  588SOL     OW 1762   2.257   0.166   1.088 -0.3247  0.0905  0.3467
  588SOL    HW1 1763   2.354   0.178   1.057  1.5377 -1.7738  1.3531
  588SOL    HW2 1764   2.224   0.078   1.050 -2.4158  1.6799 -1.1633
  589SOL     OW 1765   0.659   0.592   0.825 -0.1297 -0.3144  0.2304
  589SOL    HW1 1766   0.759   0.604   0.799 -0.6362  0.6870 -0.7717
  589SOL    HW2 1767   0.610   0.585   0.733  1.1026 -0.2224 -0.8735
  590SOL     OW 1768   2.103   1.960   0.368 -0.5190 -0.5297 -0.1051
  590SOL    HW1 1769   2.146   1.916   0.445 -2.4215  1.1421 -0.3571
  590SOL    HW2 1770   2.168   2.022   0.319  2.7935  0.2604  1.6007
  591SOL     OW 1771   0.578   2.293   1.084 -0.3970 -0.1102  0.0043
  591SOL    HW1 1772   0.582   2.327   0.992  1.2450 -0.9663  1.7476
  591SOL    HW2 1773   0.550   2.359   1.158  0.8876  0.1289  4.4403
  592SOL     OW 1774   0.957   0.702   1.454  0.4538  0.2215  0.0729
  592SOL    HW1 1775   0.919   0.703   1.361  0.3866  0.2373 -0.7770
  592SOL    HW2 1776   0.927   0.617   1.500  2.0326 -0.1772 -0.6571
  593SOL     OW 1777   0.860   1.317   1.169 -0.1454 -0.2377  0.8218
  593SOL    HW1 1778   0.909   1.303   1.257  0.6009  0.1216  0.1767
  593SOL    HW2 1779   0.865   1.412   1.138  0.7706  0.6502  1.9218
  594SOL     OW 1780   0.781   2.216   0.416  0.2633 -0.3683 -0.3550
  594SOL    HW1 1781   0.869   2.249   0.383 -0.4175  1.0163  0.0893
  594SOL    HW2 1782   0.786   2.138   0.482  0.0054  1.0601 -1.2647
  595SOL     OW 1783   1.785   0.350   1.327  0.2558 -0.1644  0.1010
  595SOL    HW1 1784   1.739   0.438   1.355  0.0382  0.5189 -1.7125
  595SOL    HW2 1785   1.864   0.330   1.388 -1.9787  0.4475 -0.2848
  596SOL     OW 1786   2.865   1.480   1.247  0.2148 -0.0645 -0.2224
  596SOL    HW1 1787   2.852   1.540   1.163  0.7507  0.9983 -1.8499
  596SOL    HW2 1788   2.784   1.498   1.311 -2.3639 -0.1799  1.5436
  597SOL     OW 1789   0.245   2.585   2.548  0.1590 -0.3071  0.0577
  597SOL    HW1 1790   0.178   2.559   2.617  2.3688  0.8533  1.3122
  597SOL    HW2 1791   0.323   2.521   2.536 -1.2428  2.1883 -1.5928
  598SOL     OW 1792   2.807   2.223   1.938  0.2248 -0.5146 -0.5425
  598SOL    HW1 1793   2.883   2.285   1.920  3.5179 -0.8292 -0.9075
  598SOL    HW2 1794   2.737   2.238   1.864 -0.6580 -0.5224 -0.3959
  599SOL     OW 1795   1.062   0.116   2.956 -0.3696 -0.6148 -0.2361
  599SOL    HW1 1796   0.998   0.164   3.025 -1.8058 -0.9105 -1.7994
  599SOL    HW2 1797   1.007   0.109   2.868 -1.5699 -3.0095  1.4888
  600SOL     OW 1798   0.482   2.662   3.049 -0.1348 -0.2365 -0.2449
  600SOL    HW1 1799   0.560   2.611   3.022 -0.7354  0.5015  1.2798
  600SOL    HW2 1800   0.427   2.714   2.978 -3.4799 -2.4877  1.1894
  601SOL     OW 1801   0.611   0.749   1.387  0.5978 -0.6817  0.3410
  601SOL    HW1 1802   0.699   0.729   1.348 -3.5722 -0.3382  0.4314
  601SOL    HW2 1803   0.545   0.690   1.346  0.1336  1.9774 -0.6320
  602SOL     OW 1804   0.905   2.730   0.861  0.3401  0.4022  0.1356
  602SOL    HW1 1805   0.951   2.655   0.809 -0.0372 -0.3109  1.7303
  602SOL    HW2 1806   0.826   2.678   0.908  1.6695 -2.0309 -0.6493
  603SOL     OW 1807   0.641   0.611   2.273 -0.5060  0.1544 -0.6677
  603SOL    HW1 1808   0.675   0.564   2.189  0.3363 -1.9215 -0.0318
  603SOL    HW2 1809   0.689   0.574   2.357  0.7484  0.5891  2.8306
  604SOL     OW 1810   0.474   2.760   1.543 -0.2033  0.0505  0.3384
  604SOL    HW1 1811   0.432   2.846   1.574 -0.7234  0.2268 -0.0677
  604SOL    HW2 1812   0.430   2.730   1.457 -2.3067  0.0580 -2.4705
  605SOL     OW 1813   1.649   0.668   1.856 -0.4155  0.2455 -0.3826
  605SOL    HW1 1814   1.673   0.759   1.815 -0.3557  2.2587  1.0997
  605SOL    HW2 1815   1.626   0.679   1.954  0.5214 -0.8875  1.6566
  606SOL     OW 1816   2.585   2.778   3.050  0.1837  0.1120 -0.6259
  606SOL    HW1 1817   2.573   2.689   3.000 -0.9316 -2.3191 -0.9432
  606SOL    HW2 1818   2.557   2.850   2.984 -0.3224 -0.5121 -3.5832
  607SOL     OW 1819   0.826   0.664   1.220 -0.0387 -0.1523 -0.2442
  607SOL    HW1 1820   0.817   0.563   1.222 -0.3433 -2.1042 -0.1122
  607SOL    HW2 1821   0.819   0.696   1.122 -2.2588  0.7377 -1.9382
  608SOL     OW 1822   0.222   1.821   2.508  0.5047  0.1510  0.0835
  608SOL    HW1 1823   0.268   1.907   2.494 -0.6885 -2.6755 -2.3556
  608SOL    HW2 1824   0.182   1.817   2.603 -0.1109 -2.8715  0.5537
  609SOL     OW 1825   1.307   1.165   0.306 -0.2867  0.6180  0.4449
  609SOL    HW1 1826   1.316   1.206   0.212  0.1113  2.2001 -1.4243
  609SOL    HW2 1827   1.220   1.192   0.352 -1.2269  0.3544 -0.9794
  610SOL     OW 1828   0.523   0.521   1.239  0.2650  0.0596 -0.4356
  610SOL    HW1 1829   0.602   0.480   1.183  2.0574 -2.1228 -3.1722
  610SOL    HW2 1830   0.437   0.485   1.196  0.3213 -1.4785 -0.6903
  611SOL     OW 1831   1.288   1.014   0.718  0.0073  0.3227 -0.2517
  611SOL    HW1 1832   1.307   1.104   0.760 -0.8507 -0.4452  0.6911
  611SOL    HW2 1833   1.379   0.970   0.699  0.7513 -0.6425  2.0077
  612SOL     OW 1834   1.755   0.972   0.315  0.2640 -0.8493  0.3111
  612SOL    HW1 1835   1.659   1.002   0.342 -2.7870 -2.0824  1.5646
  612SOL    HW2 1836   1.804   1.047   0.257  1.7129  0.6056 -3.9750
  613SOL     OW 1837   2.093   0.522   0.254  0.6290 -0.2218  0.5383
  613SOL    HW1 1838   2.005   0.481   0.287  0.4544  1.2045  0.9352
  613SOL    HW2 1839   2.125   0.592   0.324  1.3755  0.9256  3.7565
  614SOL     OW 1840   2.569   0.058   2.507 -0.0135 -0.2219 -0.6801
  614SOL    HW1 1841   2.648   0.014   2.460 -2.2500 -0.7963  1.5708
  614SOL    HW2 1842   2.485   0.042   2.455 -0.9332 -0.9339 -2.0109
  615SOL     OW 1843   0.697   1.778   0.762 -0.5760  0.2485 -0.1560
  615SOL    HW1 1844   0.765   1.709   0.798 -4.2435 -1.0389 -2.0470
  615SOL    HW2 1845   0.643   1.824   0.834  3.6842  0.4063  0.8999
  616SOL     OW 1846   1.386   1.163   2.808 -0.1025  0.3517  0.2432
  616SOL    HW1 1847   1.355   1.258   2.793 -1.9241  0.9411  2.9136
  616SOL    HW2 1848   1.324   1.113   2.876 -0.0921 -2.2155  1.1080
  617SOL     OW 1849   1.487   0.554   2.889 -0.0324 -0.5898 -0.0034
  617SOL    HW1 1850   1.409   0.534   2.829  1.0916 -0.3454  1.8559
  617SOL    HW2 1851   1.563   0.487   2.879 -3.7922 -1.0881  2.4569
  618SOL     OW 1852   1.618   2.318   2.515  0.1543 -0.5951  0.1269
  618SOL    HW1 1853   1.558   2.304   2.434 -0.1317 -1.3069 -1.9319
  618SOL    HW2 1854   1.585   2.396   2.574 -1.2990 -0.0552 -2.0121
  619SOL     OW 1855   2.404   1.640   0.796 -0.3425 -0.6917 -0.2315
  619SOL    HW1 1856   2.451   1.642   0.704 -1.6812 -0.8397 -0.5145
  619SOL    HW2 1857   2.429   1.552   0.836  2.2233 -0.7694 -2.3704
  620SOL     OW 1858   2.200   2.652   2.369 -0.6017 -0.1073  0.1145
  620SOL    HW1 1859   2.277   2.631   2.302  0.3633 -0.8881 -0.8704
  620SOL    HW2 1860   2.155   2.737   2.339  0.7718 -0.8381  1.6953
  621SOL     OW 1861   0.024   1.434   0.708  0.0804  0.5363 -1.1077
  621SOL    HW1 1862   0.093   1.482   0.762  1.6187 -0.1649 -2.8561
  621SOL    HW2 1863   2.995   1.467   0.716  1.6084  0.0664 -0.2063
  622SOL     OW 1864   1.292   1.430   2.740 -0.1249 -0.4584  0.2683
  622SOL    HW1 1865   1.369   1.491   2.760  2.0886 -0.1209 -0.6610
  622SOL    HW2 1866   1.254   1.439   2.644 -1.9425 -3.0634 -2.9805
  623SOL     OW 1867   3.065   2.424   2.267 -0.2589 -0.0588 -0.2295
  623SOL    HW1 1868   0.017   2.433   2.368 -0.3079 -1.5633  0.5785
  623SOL    HW2 1869   3.026   2.512   2.227 -0.1686  2.3602 -1.5501
  624SOL     OW 1870   0.803   2.986   3.029  0.2416  0.3225  0.8202
  624SOL    HW1 1871   0.858   2.924   2.972  1.5639 -0.8356 -0.0099
  624SOL    HW2 1872   0.773   2.945   0.047 -1.8420  1.5849 -1.0796
  625SOL     OW 1873   0.375   2.040   2.264  0.4082 -0.9625  0.8487
  625SOL    HW1 1874   0.336   2.092   2.185 -2.3841 -0.2200  0.5197
  625SOL    HW2 1875   0.364   1.942   2.259 -1.4342  0.4889  1.1559
  626SOL     OW 1876   0.373   0.124   2.975  0.1882 -0.4191 -0.3554
  626SOL    HW1 1877   0.293   0.145   2.915 -1.0420 -0.9859  0.8759
  626SOL    HW2 1878   0.447   0.063   2.934  2.7915 -3.0404  1.0021
  627SOL     OW 1879   1.960   1.393   3.055  0.1350 -0.9050 -0.4250
  627SOL    HW1 1880   1.907   1.367   2.967  0.6979  0.6267  0.6219
  627SOL    HW2 1881   1.935   1.330   0.067  0.8491  0.4127  1.9890
  628SOL     OW 1882   1.211   2.041   0.380  0.8718 -0.3317 -0.1129
  628SOL    HW1 1883   1.293   1.982   0.398  1.4771 -2.8679  3.4274
  628SOL    HW2 1884   1.232   2.129   0.424 -2.6396 -1.2957 -0.0973
  629SOL     OW 1885   2.964   0.189   1.722  0.0059 -0.5740  0.0995
  629SOL    HW1 1886   3.042   0.148   1.778  1.1507 -0.8847  0.5871
  629SOL    HW2 1887   2.875   0.160   1.757  1.2082 -0.3646 -4.1732
  630SOL     OW 1888   1.986   0.560   1.677  0.2216  0.1626  0.1937
  630SOL    HW1 1889   1.985   0.576   1.577 -0.6368  2.0575  0.2889
  630SOL    HW2 1890   1.901   0.515   1.709 -0.8993  1.5967 -2.0159
  631SOL     OW 1891   1.429   0.266   0.994  0.1286  0.3026  0.2386
  631SOL    HW1 1892   1.463   0.286   0.902  1.1841 -4.9338 -0.5019
  631SOL    HW2 1893   1.411   0.165   1.004 -0.4642  0.0753  0.1036
  632SOL     OW 1894   2.575   0.917   1.952  0.2367  0.5400  0.3451
  632SOL    HW1 1895   2.629   0.857   1.891  1.9745 -0.3830 -0.6299
  632SOL    HW2 1896   2.475   0.895   1.946 -0.1697 -0.1488  0.4975
  633SOL     OW 1897   0.923   0.901   2.552 -0.2252  0.7042  0.3738
  633SOL    HW1 1898   1.003   0.928   2.495  2.8980  0.4100 -2.4283
  633SOL    HW2 1899   0.940   0.918   2.656 -0.6929 -0.7703  0.4243
  634SOL     OW 1900   0.560   3.007   2.850  0.6013 -0.2334 -0.3953
  634SOL    HW1 1901   0.590   3.015   2.754  0.4952 -0.7427 -0.0192
  634SOL    HW2 1902   0.640   3.010   2.910 -2.9505 -1.1168 -1.4705
  635SOL     OW 1903   3.063   1.427   1.419 -0.6074  0.6842 -0.1394
  635SOL    HW1 1904   2.985   1.455   1.362  0.0386  1.2157 -0.3124
  635SOL    HW2 1905   0.058   1.505   1.439  0.9518  1.0932 -0.2576
  636SOL     OW 1906   0.379   1.712   3.019 -0.0488 -0.2147  0.6728
  636SOL    HW1 1907   0.390   1.647   0.028  5.0394 -2.7119 -0.8568
  636SOL    HW2 1908   0.304   1.770   3.040 -0.2843  0.2009  1.6508
  637SOL     OW 1909   3.026   2.400   0.236  0.0903  0.2821 -0.6872
  637SOL    HW1 1910   0.008   2.378   0.152  1.5120  0.6639  2.7374
  637SOL    HW2 1911   2.987   2.317   0.276 -1.1143 -1.2398 -2.1084
  638SOL     OW 1912   2.892   2.644   0.266  0.2434  0.5570  0.1351
  638SOL    HW1 1913   2.968   2.601   0.212  0.3208  3.7343  4.6358
  638SOL    HW2 1914   2.823   2.570   0.284  0.9176  0.5250  2.1274
  639SOL     OW 1915   1.130   0.723   2.903 -0.5786  0.4135  0.1455
  639SOL    HW1 1916   1.086   0.636   2.930  0.5616  0.5081 -1.3671
  639SOL    HW2 1917   1.187   0.766   2.977 -0.6386 -0.2171  1.0528
  640SOL     OW 1918   1.916   2.079   1.685 -0.3387 -0.4257 -0.8075
  640SOL    HW1 1919   1.897   1.975   1.687 -1.1735 -1.0932 -0.6266
  640SOL    HW2 1920   1.906   2.119   1.778  1.5388  0.9867  0.2519
  641SOL     OW 1921   2.828   3.008   0.919 -0.7009 -0.1260  0.7845
  641SOL    HW1 1922   2.902   3.040   0.980 -0.9496  1.0148 -1.3224
  641SOL    HW2 1923   2.861   2.926   0.872  0.7235  0.9492 -1.5441
  642SOL     OW 1924   1.196   1.048   1.657 -0.2809 -0.1802  0.0152
  642SOL    HW1 1925   1.211   1.141   1.622  0.5005 -0.2091 -0.6949
  642SOL    HW2 1926   1.102   1.020   1.635 -0.8294  2.1781  1.4132
  643SOL     OW 1927   0.637   1.948   2.580  0.3203  0.1642 -0.0541
  643SOL    HW1 1928   0.701   1.872   2.556 -0.5169 -1.3917 -0.6678
  643SOL    HW2 1929   0.562   1.909   2.637 -0.8603 -1.2074 -0.2371
  644SOL     OW 1930   1.201   2.487   2.353  0.1953 -0.0261 -0.3540
  644SOL    HW1 1931   1.137   2.556   2.318 -0.9527 -2.9781  0.3914
  644SOL    HW2 1932   1.262   2.521   2.432  2.3871  1.4904  1.7756
  645SOL     OW 1933   1.595   0.959   1.777  0.0205  0.2329 -0.4372
  645SOL    HW1 1934   1.574   1.048   1.733  0.9662 -1.3698  1.4939
  645SOL    HW2 1935   1.508   0.919   1.814 -0.8046 -2.8590  1.3665
  646SOL     OW 1936   1.133   2.402   2.694  0.1424  0.1680  0.3416
  646SOL    HW1 1937   1.172   2.497   2.680  1.5446  0.4247 -1.7801
  646SOL    HW2 1938   1.211   2.332   2.703  2.6363 -3.5527 -1.0436
  647SOL     OW 1939   1.296   3.035   0.395  0.6474  0.6272  0.3779
  647SOL    HW1 1940   1.291   2.992   0.486 -0.4974 -0.7677  1.3349
  647SOL    HW2 1941   1.203   0.000   0.370  0.7399  3.9552 -0.3224
  648SOL     OW 1942   2.656   2.565   1.120 -0.3716 -0.3736 -0.0950
  648SOL    HW1 1943   2.647   2.503   1.041 -0.3351  2.9566 -0.6765
  648SOL    HW2 1944   2.636   2.525   1.210  0.5522 -0.0449 -1.0497
  649SOL     OW 1945   0.447   2.426   2.742 -0.1956  0.0923  0.8816
  649SOL    HW1 1946   0.435   2.409   2.643  1.6673  1.8499 -0.7946
  649SOL    HW2 1947   0.547   2.448   2.764  0.7182 -2.2915 -0.7173
  650SOL     OW 1948   2.582   1.792   2.523  0.3558  0.1228 -0.2995
  650SOL    HW1 1949   2.668   1.749   2.497  0.1156 -0.4197 -1.1432
  650SOL    HW2 1950   2.577   1.891   2.495  0.9962 -0.3507  1.0866
  651SOL     OW 1951   2.734   2.327   2.200 -0.1374 -0.6905 -0.0153
  651SOL    HW1 1952   2.814   2.328   2.137  1.4053 -1.2503 -1.2154
  651SOL    HW2 1953   2.774   2.320   2.297  0.2769 -1.1977 -0.5305
  652SOL     OW 1954   2.602   2.153   0.468  0.0281 -0.9447 -0.6295
  652SOL    HW1 1955   2.587   2.073   0.534  0.7337 -2.6966  0.5934
  652SOL    HW2 1956   2.526   2.223   0.484 -2.3247  0.9478  0.7272
  653SOL     OW 1957   2.660   1.101   1.122 -0.3533  0.3392  0.0758
  653SOL    HW1 1958   2.669   1.001   1.106 -0.7847  0.4547  1.3450
  653SOL    HW2 1959   2.629   1.109   1.221  2.4281 -1.4308  0.8966
  654SOL     OW 1960   0.861   0.452   2.699  0.5299  0.2556  0.0375
  654SOL    HW1 1961   0.793   0.385   2.726  1.4208  1.1551 -2.8931
  654SOL    HW2 1962   0.923   0.473   2.779 -1.2884  0.8172 -0.0645
  655SOL     OW 1963   0.952   0.052   1.028 -1.0219 -0.5497 -0.7041
  655SOL    HW1 1964   1.017   0.129   1.003  0.7568 -0.1184  0.9113
  655SOL    HW2 1965   0.959   0.036   1.128 -0.3042  2.3090  1.8478
  656SOL     OW 1966   0.345   2.298   2.012  0.4599  0.2126 -0.0269
  656SOL    HW1 1967   0.365   2.322   1.914  2.4593 -0.3496  1.0491
  656SOL    HW2 1968   0.422   2.332   2.066  1.7782 -2.4689 -0.0479
  657SOL     OW 1969   2.597   0.780   0.295  0.1424  0.0480 -0.2193
  657SOL    HW1 1970   2.563   0.743   0.207 -1.9160 -0.2948 -0.7239
  657SOL    HW2 1971   2.610   0.882   0.287 -0.9675  2.5218  2.6258
  658SOL     OW 1972   1.890   1.875   0.807 -0.4472 -0.4887  0.0098
  658SOL    HW1 1973   1.815   1.945   0.794 -0.4967 -0.9063 -1.8704
  658SOL    HW2 1974   1.888   1.824   0.895 -0.9513  1.2532 -0.2772
  659SOL     OW 1975   2.544   1.848   2.960  0.4195 -0.7017  0.2525
  659SOL    HW1 1976   2.609   1.796   3.020 -0.6539 -0.9062  0.0966
  659SOL    HW2 1977   2.579   1.944   2.947 -0.8787  2.3300  1.5737
  660SOL     OW 1978   1.165   0.345   0.318  0.3579  0.2301  0.1229
  660SOL    HW1 1979   1.222   0.321   0.396 -0.7283  2.3792  0.4423
  660SOL    HW2 1980   1.221   0.389   0.244  0.7319  0.0597 -2.0766
  661SOL     OW 1981   1.975   3.019   0.046  0.3251 -0.2497  0.7087
  661SOL    HW1 1982   1.966   2.963   0.131 -3.2278  0.2394  1.9850
  661SOL    HW2 1983   2.065   3.067   0.038  4.1512  2.8445  1.7594
  662SOL     OW 1984   0.802   2.876   0.550 -0.9758  0.2162  0.0127
  662SOL    HW1 1985   0.821   2.964   0.499  0.6503  0.8306 -2.8867
  662SOL    HW2 1986   0.855   2.873   0.639  2.3029  0.6300  3.2178
  663SOL     OW 1987   1.583   0.029   2.380  0.5778 -0.6141  0.0945
  663SOL    HW1 1988   1.642   0.036   2.302  0.7768  1.1538  2.4801
  663SOL    HW2 1989   1.505   0.091   2.363 -0.5785 -4.8971 -0.4724
  664SOL     OW 1990   0.762   2.824   1.343  0.2355 -0.2717 -0.0645
  664SOL    HW1 1991   0.690   2.785   1.400 -0.7751 -2.3448  1.0819
  664SOL    HW2 1992   0.808   2.902   1.396 -1.4374 -0.2865 -0.0301
  665SOL     OW 1993   0.620   2.310   1.562  0.1692  0.5475  0.1424
  665SOL    HW1 1994   0.660   2.311   1.657  1.1892  0.7006 -0.0416
  665SOL    HW2 1995   0.621   2.215   1.526  1.5443  1.4379  0.8312
  666SOL     OW 1996   0.621   0.016   2.588  0.1703  0.3180 -0.6513
  666SOL    HW1 1997   0.583   0.111   2.573 -1.1793  2.2487 -2.5292
  666SOL    HW2 1998   0.571   3.017   2.530  0.7217 -0.9885  0.7667
  667SOL     OW 1999   1.944   1.465   1.639 -0.0942 -0.5062  0.0182
  667SOL    HW1 2000   1.912   1.517   1.559  0.5623 -2.5506  0.7640
  667SOL    HW2 2001   1.894   1.373   1.651 -0.1646 -2.5116  0.3532
  668SOL     OW 2002   1.805   2.906   1.718  0.0904  0.4273  0.2781
  668SOL    HW1 2003   1.804   2.840   1.800  0.6174 -3.1673  2.1104
  668SOL    HW2 2004   1.747   2.988   1.730 -0.2501 -0.3416 -0.2446
  669SOL     OW 2005   2.624   2.412   0.879  0.1154  0.1569 -0.1233
  669SOL    HW1 2006   2.526   2.376   0.886 -0.1180  2.2050 -0.1357
  669SOL    HW2 2007   2.651   2.422   0.783 -0.1680 -2.0663  0.4986
  670SOL     OW 2008   1.086   2.035   2.792  0.2952 -0.3885  0.1742
  670SOL    HW1 2009   1.128   2.018   2.882 -1.6010 -1.3677 -0.8719
  670SOL    HW2 2010   0.993   2.076   2.811 -0.9383  1.9355  2.5329
  671SOL     OW 2011   0.849   1.074   0.579  0.2549 -0.8885  0.4796
  671SOL    HW1 2012   0.945   1.060   0.549 -0.5368  0.6707  0.5264
  671SOL    HW2 2013   0.833   1.031   0.670  1.6215 -0.6352 -1.5014
  672SOL     OW 2014   2.532   1.023   2.394  0.0574  0.1873  0.2541
  672SOL    HW1 2015   2.606   1.033   2.464 -1.4266  1.6467  0.2691
  672SOL    HW2 2016   2.558   0.937   2.336  1.6782 -2.8814 -4.8379
  673SOL     OW 2017   2.570   2.108   1.685  0.0873 -0.0681  0.2212
  673SOL    HW1 2018   2.607   2.016   1.700  1.7541  0.1088  0.9435
  673SOL    HW2 2019   2.497   2.134   1.745  2.5457 -1.3820 -0.6560
  674SOL     OW 2020   0.400   2.364   2.475 -0.7026 -0.4367  0.1882
  674SOL    HW1 2021   0.331   2.366   2.406  3.1122 -2.4913  2.5565
  674SOL    HW2 2022   0.476   2.302   2.451 -1.8531  0.8433  0.8403
  675SOL     OW 2023   1.203   0.572   1.625  0.0066  0.0343  0.3088
  675SOL    HW1 2024   1.135   0.496   1.611  0.5000 -0.9692  1.8585
  675SOL    HW2 2025   1.269   0.566   1.546  0.2291  0.9676 -0.8704
  676SOL     OW 2026   2.010   0.024   1.406  0.2257  0.1422  0.2448
  676SOL    HW1 2027   1.924   3.069   1.354 -1.6661  1.4005  1.7866
  676SOL    HW2 2028   2.007   0.119   1.451  0.3023  1.4574  0.4013
  677SOL     OW 2029   2.138   1.279   2.816  0.4691 -0.0904  0.0355
  677SOL    HW1 2030   2.219   1.337   2.821 -0.4772  0.7205 -0.1519
  677SOL    HW2 2031   2.176   1.186   2.833 -3.5442  0.0572 -1.2318
  678SOL     OW 2032   2.545   1.341   1.148  0.2721 -0.0808  0.3032
  678SOL    HW1 2033   2.607   1.266   1.121 -3.0814  0.4938 -1.4316
  678SOL    HW2 2034   2.504   1.333   1.242  1.0980 -1.9588 -1.9357
  679SOL     OW 2035   2.628   0.613   0.063 -0.0708 -0.0787  0.1782
  679SOL    HW1 2036   2.672   0.549   0.131 -0.9715 -0.9046  2.1186
  679SOL    HW2 2037   2.553   0.574   0.006  0.4875 -2.0782 -0.5551
  680SOL     OW 2038   0.404   1.733   1.904  0.3973 -0.3936 -0.1371
  680SOL    HW1 2039   0.324   1.735   1.965  1.0750 -2.8395  0.1591
  680SOL    HW2 2040   0.476   1.795   1.945 -0.2070  1.7358  2.5102
  681SOL     OW 2041   2.310   2.104   1.782  0.4765  0.1324 -0.1613
  681SOL    HW1 2042   2.310   2.051   1.870 -2.4303 -0.9776  3.7920
  681SOL    HW2 2043   2.261   2.042   1.713 -2.3148 -1.4542 -1.1164
  682SOL     OW 2044   0.174   1.902   3.053  0.0550  0.1371  0.2118
  682SOL    HW1 2045   0.161   1.998   0.005  0.3197  0.2108  1.3024
  682SOL    HW2 2046   0.120   1.842   0.051 -1.0023 -1.5907 -0.0192
  683SOL     OW 2047   3.019   2.126   1.286 -0.4346  0.5422  0.2096
  683SOL    HW1 2048   2.998   2.041   1.337 -1.4938 -1.4161 -0.0698
  683SOL    HW2 2049   0.052   2.147   1.298  2.2627 -2.0487 -1.2409
  684SOL     OW 2050   2.692   1.157   2.027  0.0523  0.0231 -0.0970
  684SOL    HW1 2051   2.614   1.226   2.038 -0.3810  1.1782 -1.4838
  684SOL    HW2 2052   2.654   1.066   2.007  1.3642 -0.3439  0.1998
  685SOL     OW 2053   1.336   0.636   0.414 -0.4217 -0.4132 -0.6794
  685SOL    HW1 2054   1.425   0.615   0.462  1.4564  1.8753  0.9322
  685SOL    HW2 2055   1.260   0.608   0.472  0.5676 -1.1694 -2.8755
  686SOL     OW 2056   0.686   0.355   0.927 -0.3776 -0.7924 -0.7543
  686SOL    HW1 2057   0.663   0.450   0.895 -1.3239 -0.4268 -2.1366
  686SOL    HW2 2058   0.676   0.289   0.849 -1.5317  2.0004  0.4984
  687SOL     OW 2059   0.782   2.150   2.792 -0.8714  0.4069 -0.2208
  687SOL    HW1 2060   0.682   2.137   2.786  1.5575 -0.2621  0.4984
  687SOL    HW2 2061   0.821   2.126   2.883 -2.3573  1.3452  1.0092
  688SOL     OW 2062   2.207   0.373   1.574 -0.1769 -0.7123 -0.6869
  688SOL    HW1 2063   2.267   0.443   1.619  2.4060  0.5390  1.5789
  688SOL    HW2 2064   2.241   0.340   1.489 -2.8154  0.1408  3.8655
  689SOL     OW 2065   1.666   0.557   0.871 -0.8404 -0.1609  0.4395
  689SOL    HW1 2066   1.645   0.460   0.846 -0.8222 -0.2462 -1.0262
  689SOL    HW2 2067   1.730   0.592   0.796 -0.6355  0.5035  1.6378
  690SOL     OW 2068   2.661   1.598   1.378 -0.2865  0.1014  0.5547
  690SOL    HW1 2069   2.587   1.570   1.316 -1.4328  1.1030  0.3267
  690SOL    HW2 2070   2.629   1.628   1.467 -0.8117  0.3821 -2.0587
  691SOL     OW 2071   0.432   2.108   1.253  0.4687 -0.1503  0.0346
  691SOL    HW1 2072   0.484   2.156   1.177  1.2348 -0.4001 -1.9348
  691SOL    HW2 2073   0.497   2.037   1.295 -1.2626  0.3935 -1.1822
  692SOL     OW 2074   1.440   0.068   1.552 -0.1332  0.2701 -0.8070
  692SOL    HW1 2075   1.441   3.035   1.570 -1.4627 -2.3192  0.5025
  692SOL    HW2 2076   1.505   0.092   1.476  0.7048  0.1490 -2.8196
  693SOL     OW 2077   0.883   1.875   2.186 -0.6248 -0.4440  0.2332
  693SOL    HW1 2078   0.904   1.972   2.161  0.6138 -1.7698  0.5620
  693SOL    HW2 2079   0.919   1.808   2.124 -1.0942 -0.5264  1.0171
  694SOL     OW 2080   1.918   1.426   0.915 -0.4343 -1.0292  0.5584
  694SOL    HW1 2081   1.914   1.488   0.836 -0.6938 -1.3108 -1.7447
  694SOL    HW2 2082   1.835   1.440   0.971  1.6329  1.3949 -1.1683
  695SOL     OW 2083   1.186   0.816   1.311  0.4149 -0.0016  0.3335
  695SOL    HW1 2084   1.228   0.777   1.231 -2.3691  0.1876  1.2891
  695SOL    HW2 2085   1.127   0.745   1.354  2.0570  2.1807 -0.9326
  696SOL     OW 2086   0.240   0.086   0.429 -0.5245  0.3577 -0.2446
  696SOL    HW1 2087   0.191   0.173   0.456 -3.1115  0.4835  0.5353
  696SOL    HW2 2088   0.184   0.002   0.430 -0.4442  0.2581  0.8564
  697SOL     OW 2089   2.140   0.473   1.059 -0.4689  0.4076 -0.2840
  697SOL    HW1 2090   2.074   0.548   1.054  3.9849 -2.0460  1.3429
  697SOL    HW2 2091   2.082   0.389   1.062 -1.1555 -0.0566  0.4993
  698SOL     OW 2092   1.360   1.318   1.844  0.0502  0.3461  0.2771
  698SOL    HW1 2093   1.365   1.419   1.861 -0.4129 -2.7745 -0.0076
  698SOL    HW2 2094   1.300   1.275   1.919 -0.3098 -0.8683  2.0174
  699SOL     OW 2095   2.897   0.254   2.230  0.1026 -0.2583 -0.5570
  699SOL    HW1 2096   2.814   0.294   2.279 -2.7903  2.6408 -1.7229
  699SOL    HW2 2097   2.910   0.307   2.144 -0.0982  0.9460 -1.0285
  700SOL     OW 2098   1.861   2.566   0.570  0.1643  0.1817 -0.6039
  700SOL    HW1 2099   1.890   2.660   0.602  0.7619  1.7454 -0.2056
  700SOL    HW2 2100   1.783   2.570   0.508  1.1529  1.2223 -0.1284
  701SOL     OW 2101   0.024   1.641   2.425 -0.1163 -0.0869 -0.6033
  701SOL    HW1 2102   0.098   1.683   2.477 -0.4112 -1.3561  1.0249
  701SOL    HW2 2103   0.061   1.572   2.358  0.6844 -0.3173  0.2460
  702SOL     OW 2104   0.846   0.040   0.420 -0.4016  0.3674  0.1595
  702SOL    HW1 2105   0.842   0.116   0.490 -0.7811 -0.4854  1.3504
  702SOL    HW2 2106   0.756   0.031   0.369 -1.8750  2.1484 -1.4241
  703SOL     OW 2107   1.912   2.819   2.678  0.2901 -0.1486 -0.5429
  703SOL    HW1 2108   1.976   2.843   2.752  1.0451 -0.8070  3.3231
  703SOL    HW2 2109   1.868   2.904   2.645  0.4599  2.7923  0.6768
  704SOL     OW 2110   2.756   1.847   0.189 -0.5037  0.0490  0.7187
  704SOL    HW1 2111   2.819   1.909   0.132  1.9694  0.2678 -0.4735
  704SOL    HW2 2112   2.723   1.766   0.140 -1.8714  2.0302  1.9832
  705SOL     OW 2113   2.850   2.279   2.463 -0.0839  0.0253 -0.0066
  705SOL    HW1 2114   2.874   2.183   2.442 -2.8991  2.0161 -2.4550
  705SOL    HW2 2115   2.931   2.341   2.457  0.1200  0.9145 -1.7102
  706SOL     OW 2116   2.869   0.032   0.335 -0.1196 -0.5963  0.2961
  706SOL    HW1 2117   2.770   0.051   0.320 -1.4549  1.7165 -3.4884
  706SOL    HW2 2118   2.890   3.002   0.362  0.5975 -1.4995 -2.5741
  707SOL     OW 2119   1.365   0.195   2.917 -0.0456 -0.6466  1.0522
  707SOL    HW1 2120   1.357   0.197   2.814  0.6697  0.6739 -2.4934
  707SOL    HW2 2121   1.273   0.170   2.957  0.5855 -0.1366 -0.6947
  708SOL     OW 2122   0.244   2.082   1.636  0.1062 -0.1505 -0.3105
  708SOL    HW1 2123   0.168   2.042   1.693  1.5977  0.6496 -0.3626
  708SOL    HW2 2124   0.317   2.015   1.621 -1.9747  1.6850 -1.7914
  709SOL     OW 2125   1.417   2.914   1.918  0.2325  0.2916  0.0692
  709SOL    HW1 2126   1.445   3.003   1.965  1.9997 -1.1739  1.3276
  709SOL    HW2 2127   1.363   2.859   1.983  2.5971  0.7217 -1.7504
  710SOL     OW 2128   1.584   2.537   2.671  0.5253 -0.3173  0.4883
  710SOL    HW1 2129   1.675   2.542   2.716  1.2964  2.8319 -2.3478
  710SOL    HW2 2130   1.521   2.611   2.706 -1.8338 -1.8990 -0.0288
  711SOL     OW 2131   0.801   2.722   2.874  0.0721 -0.8754  0.1899
  711SOL    HW1 2132   0.880   2.731   2.936  1.1031 -1.3186  1.3067
  711SOL    HW2 2133   0.749   2.639   2.897  1.9834  2.0330  1.4504
  712SOL     OW 2134   0.948   1.895   0.192 -0.1862 -0.0030 -0.2766
  712SOL    HW1 2135   0.964   1.912   0.295  0.7745  0.8587  3.2155
  712SOL    HW2 2136   0.887   1.816   0.172 -0.4709  0.6129  3.3339
  713SOL     OW 2137   1.993   1.188   1.305 -0.3368 -0.0031  0.1643
  713SOL    HW1 2138   2.017   1.114   1.236  0.9746 -0.2690 -0.3193
  713SOL    HW2 2139   1.905   1.232   1.281  0.0852 -1.7072 -1.4482
  714SOL     OW 2140   1.044   1.294   2.073 -0.2588 -0.2582 -0.3797
  714SOL    HW1 2141   0.948   1.301   2.044 -1.6698 -1.2661  1.5363
  714SOL    HW2 2142   1.084   1.216   2.022  0.6450  3.1660 -0.9446
  715SOL     OW 2143   2.763   0.390   0.246 -0.1540  0.2433 -0.1650
  715SOL    HW1 2144   2.835   0.430   0.308  0.6484  0.4207  0.5314
  715SOL    HW2 2145   2.797   0.311   0.196  0.8066 -1.7729  2.2366
  716SOL     OW 2146   0.527   2.634   1.015  0.1674  0.7264 -0.0062
  716SOL    HW1 2147   0.623   2.593   1.008  2.5483 -2.0861  1.0532
  716SOL    HW2 2148   0.518   2.730   0.981  0.5542 -0.5754  0.2836
  717SOL     OW 2149   2.811   0.715   0.456 -0.1665 -0.0507 -0.1348
  717SOL    HW1 2150   2.845   0.627   0.412  1.7004 -1.7742 -2.3870
  717SOL    HW2 2151   2.720   0.736   0.421  1.7838 -2.1559 -2.2313
  718SOL     OW 2152   1.737   1.313   1.315 -0.0267  0.4318  0.4696
  718SOL    HW1 2153   1.738   1.359   1.405 -0.4036  0.2743 -0.8268
  718SOL    HW2 2154   1.675   1.232   1.314 -1.9397  2.1811 -0.0732
  719SOL     OW 2155   2.780   2.860   0.150 -0.5688  0.2303 -0.1954
  719SOL    HW1 2156   2.717   2.810   0.083  1.2001 -2.2467 -0.7695
  719SOL    HW2 2157   2.824   2.798   0.221  1.1440 -1.5514  3.8771
  720SOL     OW 2158   1.069   0.494   0.842 -0.1245 -0.3699  0.6141
  720SOL    HW1 2159   1.039   0.563   0.914  1.5294  1.1933 -0.1666
  720SOL    HW2 2160   1.159   0.518   0.805  1.6938 -3.0591  1.2896
  721SOL     OW 2161   1.830   0.241   0.880 -0.7097  0.0627  0.1003
  721SOL    HW1 2162   1.915   0.205   0.827  1.3363 -0.7721 -0.8537
  721SOL    HW2 2163   1.870   0.266   0.971  2.8894 -1.1885  2.9742
  722SOL     OW 2164   0.588   2.060   1.876 -0.0305 -0.6091  0.0567
  722SOL    HW1 2165   0.562   2.005   1.954 -0.7795  2.4615 -1.5737
  722SOL    HW2 2166   0.540   2.153   1.873  0.0831  3.3562  0.2501
  723SOL     OW 2167   1.269   0.082   1.281  0.1723 -0.3629 -0.5125
  723SOL    HW1 2168   1.272   3.053   1.247 -2.5560  0.6857 -1.2289
  723SOL    HW2 2169   1.340   0.105   1.348 -0.7652  0.9329  0.7068
  724SOL     OW 2170   1.925   1.801   1.676  0.4035  0.7687  0.3524
  724SOL    HW1 2171   1.829   1.791   1.653  3.7293 -2.4792  1.0661
  724SOL    HW2 2172   1.976   1.714   1.668 -3.2686 -1.9133  2.8678
  725SOL     OW 2173   1.425   2.619   1.423 -0.1456  0.5507 -0.6729
  725SOL    HW1 2174   1.516   2.642   1.454 -0.9008 -1.0587  1.2041
  725SOL    HW2 2175   1.395   2.524   1.461  0.8384  1.1245  1.5435
  726SOL     OW 2176   1.786   0.085   2.949  0.3063  0.2129 -0.3808
  726SOL    HW1 2177   1.875   0.073   2.996  0.0302  0.6540 -2.4675
  726SOL    HW2 2178   1.707   0.078   3.022 -3.5093 -0.1820  4.1098
  727SOL     OW 2179   1.491   2.277   0.371 -0.4567  0.3884 -0.3690
  727SOL    HW1 2180   1.459   2.297   0.273  0.1827  1.6578  2.2311
  727SOL    HW2 2181   1.505   2.180   0.391 -0.1565  0.7178  1.6430
  728SOL     OW 2182   1.830   2.645   2.264  0.4179  0.7532  0.4881
  728SOL    HW1 2183   1.822   2.733   2.215 -2.0703  2.9892  1.8723
  728SOL    HW2 2184   1.920   2.642   2.310 -1.8815  1.7416  1.9576
  729SOL     OW 2185   2.137   2.379   1.859  0.0442 -0.0623 -0.4455
  729SOL    HW1 2186   2.170   2.364   1.763 -2.7240 -3.5336  0.6933
  729SOL    HW2 2187   2.202   2.345   1.931  0.7394  0.4323 -0.7496
  730SOL     OW 2188   1.458   0.512   2.411  0.5344 -0.5046  0.2023
  730SOL    HW1 2189   1.494   0.438   2.474  1.6556  0.1624  0.2295
  730SOL    HW2 2190   1.355   0.503   2.403  0.6553 -1.4794 -1.6962
  731SOL     OW 2191   0.624   3.015   1.244 -0.0182 -0.0776 -0.7112
  731SOL    HW1 2192   0.675   2.928   1.265  0.6550  0.3947 -2.6589
  731SOL    HW2 2193   0.587   3.058   1.333 -1.4637  2.6017  3.0601
  732SOL     OW 2194   1.776   2.777   1.272  0.2436  0.1902 -0.6582
  732SOL    HW1 2195   1.736   2.702   1.329  0.1187 -0.5834  0.3531
  732SOL    HW2 2196   1.781   2.739   1.184  0.9407  1.5998  4.6141
  733SOL     OW 2197   1.474   0.767   1.437 -0.4040 -0.1636  0.6578
  733SOL    HW1 2198   1.397   0.819   1.395 -0.0295  0.0339 -0.7722
  733SOL    HW2 2199   1.547   0.833   1.467  1.7843  1.1154  0.6337
  734SOL     OW 2200   2.518   1.974   0.278 -0.2101  0.0952 -0.1791
  734SOL    HW1 2201   2.598   1.943   0.224 -3.1248 -1.4131 -0.9734
  734SOL    HW2 2202   2.545   2.057   0.331  1.3877  1.2702  2.4093
  735SOL     OW 2203   0.537   0.502   0.547 -0.3390 -0.0007  0.2891
  735SOL    HW1 2204   0.585   0.584   0.519 -0.6804 -0.6192 -0.2938
  735SOL    HW2 2205   0.465   0.482   0.480  0.5939  2.2673  2.7141
  736SOL     OW 2206   1.967   2.167   2.716 -0.0457 -0.5894 -0.0071
  736SOL    HW1 2207   2.016   2.232   2.782 -3.0092  1.8490 -0.9989
  736SOL    HW2 2208   1.949   2.220   2.628 -2.7247  2.9036  0.5540
  737SOL     OW 2209   1.090   2.371   1.156 -0.2297  0.6512  0.1971
  737SOL    HW1 2210   1.127   2.465   1.136  0.0831 -2.0823 -1.3938
  737SOL    HW2 2211   1.027   2.354   1.076 -2.0408  2.2133 -0.6056
  738SOL     OW 2212   1.424   2.537   2.090 -0.1946  0.0581  0.6262
  738SOL    HW1 2213   1.378   2.627   2.096  0.2281 -3.5741 -1.0837
  738SOL    HW2 2214   1.514   2.541   2.136  1.7245  2.1436  0.4704
  739SOL     OW 2215   0.690   2.340   1.829 -0.2060  0.1608 -0.0805
  739SOL    HW1 2216   0.779   2.308   1.868  0.0233 -0.0137 -0.6985
  739SOL    HW2 2217   0.683   2.440   1.848 -1.2721 -0.6965 -0.5858
  740SOL     OW 2218   1.730   2.382   1.582 -0.7955  0.0282 -0.4255
  740SOL    HW1 2219   1.691   2.398   1.489  1.2298  1.2708  0.0929
  740SOL    HW2 2220   1.831   2.381   1.579 -0.4029 -0.5265 -0.8775
  741SOL     OW 2221   2.164   1.669   2.947 -0.1664  0.0068 -0.0197
  741SOL    HW1 2222   2.097   1.669   3.019  0.1531  1.7009 -0.9402
  741SOL    HW2 2223   2.115   1.636   2.867  1.7318 -1.3974  2.2789
  742SOL     OW 2224   0.742   1.409   2.393  0.8352 -0.3734  0.1579
  742SOL    HW1 2225   0.675   1.467   2.346  1.5320  0.5994 -1.1201
  742SOL    HW2 2226   0.750   1.327   2.332 -0.2555  2.7362 -1.5709
  743SOL     OW 2227   2.860   1.168   2.253 -0.1567 -0.4263 -0.0579
  743SOL    HW1 2228   2.873   1.077   2.291 -1.4711  0.8975 -0.2984
  743SOL    HW2 2229   2.816   1.160   2.159  1.1416  1.7267 -0.0191
  744SOL     OW 2230   2.299   2.240   2.113  0.2083 -1.0138 -0.0934
  744SOL    HW1 2231   2.230   2.276   2.180  2.0118  3.6038 -0.6480
  744SOL    HW2 2232   2.370   2.311   2.107 -1.9488  0.9362  0.0126
  745SOL     OW 2233   2.343   1.769   1.463  0.0537  0.1704  0.4559
  745SOL    HW1 2234   2.303   1.844   1.523 -2.5920 -1.9223  1.4957
  745SOL    HW2 2235   2.263   1.720   1.420  0.5581  1.9683 -0.8903
  746SOL     OW 2236   2.655   1.323   0.769  0.1808 -0.3496 -0.3021
  746SOL    HW1 2237   2.631   1.260   0.691 -2.7438 -1.2762  1.3993
  746SOL    HW2 2238   2.565   1.352   0.802  2.7562 -0.7006 -0.2366
  747SOL     OW 2239   1.793   2.266   0.348 -0.1043 -0.2774 -0.2640
  747SOL    HW1 2240   1.851   2.222   0.421 -0.5075 -1.4917  3.5030
  747SOL    HW2 2241   1.739   2.348   0.387 -0.0423  3.3449 -0.5120
  748SOL     OW 2242   1.011   2.335   0.324  0.0587 -0.5608 -0.6022
  748SOL    HW1 2243   1.023   2.429   0.293 -3.1052 -1.0587 -0.7007
  748SOL    HW2 2244   1.046   2.266   0.253  0.3962 -0.3554  0.3703
  749SOL     OW 2245   2.687   0.432   2.275 -0.3275 -0.1803 -0.3157
  749SOL    HW1 2246   2.705   0.499   2.351 -0.9554  0.2947  1.6159
  749SOL    HW2 2247   2.593   0.388   2.289  3.1968 -1.8774 -1.5177
  750SOL     OW 2248   1.621   0.147   1.369 -0.2173  0.0907 -0.3938
  750SOL    HW1 2249   1.666   0.234   1.391 -1.1115 -0.8640 -1.4576
  750SOL    HW2 2250   1.692   0.082   1.336 -2.8316  0.1678  2.0670
  751SOL     OW 2251   1.898   2.343   2.489 -0.7376  0.1643 -0.2495
  751SOL    HW1 2252   1.797   2.328   2.463 -1.2378 -1.0780 -1.6013
  751SOL    HW2 2253   1.922   2.442   2.507  0.1668  3.8376 -0.9358
  752SOL     OW 2254   1.686   1.884   0.550 -0.0817 -0.2969 -0.3706
  752SOL    HW1 2255   1.701   1.802   0.612 -0.6900 -0.6843  0.0747
  752SOL    HW2 2256   1.769   1.908   0.500  0.4642  0.1677 -0.3001
  753SOL     OW 2257   1.552   0.797   2.088  0.1756  0.5343  0.1511
  753SOL    HW1 2258   1.592   0.780   2.179 -1.8081 -0.7559  1.6884
  753SOL    HW2 2259   1.521   0.893   2.079 -0.5010 -1.3709 -1.8905
  754SOL     OW 2260   0.081   2.884   0.743 -0.0429  0.0662  0.4823
  754SOL    HW1 2261   0.148   2.924   0.807 -0.2144  2.9470 -0.6216
  754SOL    HW2 2262   0.033   2.813   0.791 -2.3394  3.8067 -2.5541
  755SOL     OW 2263   2.066   2.941   1.634  0.1469 -0.2857 -0.5141
  755SOL    HW1 2264   2.061   2.999   1.554  0.1650 -0.0957  0.1672
  755SOL    HW2 2265   1.971   2.909   1.657  2.0121  1.4474  0.2212
  756SOL     OW 2266   1.501   1.046   2.582  0.6953  0.0433  0.4872
  756SOL    HW1 2267   1.470   0.951   2.581  0.0681 -0.9727 -3.2418
  756SOL    HW2 2268   1.462   1.091   2.663  1.1387 -0.0410 -0.5788
  757SOL     OW 2269   2.772   2.633   1.628 -0.1359  0.1864 -0.1361
  757SOL    HW1 2270   2.798   2.654   1.722  1.0512  0.6200 -2.3537
  757SOL    HW2 2271   2.712   2.710   1.589 -1.6816  1.1884 -1.3358
  758SOL     OW 2272   0.547   0.058   1.478  0.5241  0.2104  0.1079
  758SOL    HW1 2273   0.496   0.001   1.543 -1.4316  0.7324  1.2385
  758SOL    HW2 2274   0.524   0.155   1.493 -1.2311  0.8461 -1.4808
  759SOL     OW 2275   2.271   1.184   0.714  0.3631  0.4657  0.0632
  759SOL    HW1 2276   2.278   1.270   0.663 -0.3609 -0.6366  2.5668
  759SOL    HW2 2277   2.339   1.167   0.785 -0.8574  1.5226 -0.5616
  760SOL     OW 2278   1.957   0.261   1.535  0.2030 -0.0952 -0.3012
  760SOL    HW1 2279   1.916   0.223   1.622 -2.4922 -0.5530  0.7343
  760SOL    HW2 2280   2.050   0.302   1.554 -3.4281 -0.5328  2.0472
  761SOL     OW 2281   1.999   0.069   0.342 -0.0539  0.2354 -0.4418
  761SOL    HW1 2282   2.096   0.103   0.336  1.0200  0.4425  1.6449
  761SOL    HW2 2283   1.990   3.042   0.315 -0.7706 -1.2756 -0.7724
  762SOL     OW 2284   2.354   2.445   0.043  0.4721  0.1151  0.6361
  762SOL    HW1 2285   2.420   2.478   3.045 -2.6695 -1.0009  1.2172
  762SOL    HW2 2286   2.375   2.353   0.072  1.1268  1.2218 -0.0648
  763SOL     OW 2287   0.849   0.956   1.025  0.1851  0.3473  0.2127
  763SOL    HW1 2288   0.930   1.008   1.047 -0.5412 -0.6841 -0.7462
  763SOL    HW2 2289   0.777   1.000   1.084 -3.0205 -1.1530 -1.6060
  764SOL     OW 2290   2.222   2.300   2.813 -0.4395  0.1854  0.0956
  764SOL    HW1 2291   2.227   2.399   2.795  2.0653  2.5240 -0.5775
  764SOL    HW2 2292   2.300   2.252   2.771 -0.5006 -0.6685 -1.6163
  765SOL     OW 2293   0.535   0.802   1.923 -0.1353 -0.0568 -0.0327
  765SOL    HW1 2294   0.485   0.767   2.008  1.2677 -2.7865  1.1683
  765SOL    HW2 2295   0.558   0.724   1.857 -0.5792  2.5566 -1.1601
  766SOL     OW 2296   2.802   1.350   2.614  0.3452 -0.4057  0.0803
  766SOL    HW1 2297   2.723   1.372   2.676 -0.4782 -1.2273 -0.6537
  766SOL    HW2 2298   2.794   1.390   2.518 -1.2969 -1.9389 -0.2372
  767SOL     OW 2299   0.148   1.723   2.052 -0.7392 -0.1766  0.7710
  767SOL    HW1 2300   0.072   1.675   2.094  0.6424  1.1642 -0.4982
  767SOL    HW2 2301   0.208   1.757   2.129 -0.2186 -2.1095  0.2904
  768SOL     OW 2302   0.914   1.252   2.845  0.1457 -0.0225 -0.2312
  768SOL    HW1 2303   0.929   1.163   2.897  0.2672  1.0006  1.8117
  768SOL    HW2 2304   0.890   1.234   2.751 -1.7976  0.6205  0.3132
  769SOL     OW 2305   1.797   2.658   2.859  0.2106  0.3904 -0.3778
  769SOL    HW1 2306   1.836   2.691   2.773  1.8865  0.1251  0.6405
  769SOL    HW2 2307   1.780   2.737   2.921 -1.1479 -1.2194  0.0758
  770SOL     OW 2308   0.168   0.335   2.327  0.0538 -0.1860 -0.3848
  770SOL    HW1 2309   0.090   0.301   2.382  1.4349  1.8554 -1.5066
  770SOL    HW2 2310   0.248   0.275   2.338 -1.4898 -0.1816 -1.4646
  771SOL     OW 2311   0.788   2.213   1.229 -0.2418 -0.3841  0.2232
  771SOL    HW1 2312   0.822   2.292   1.285 -0.5669  2.9744  2.0319
  771SOL    HW2 2313   0.720   2.251   1.166  1.6839 -1.2159  3.9199
  772SOL     OW 2314   0.448   0.784   3.008  0.1169 -0.3000 -0.0440
  772SOL    HW1 2315   0.438   0.779   2.909 -2.0596  2.4877 -1.0652
  772SOL    HW2 2316   0.479   0.878   3.034  0.7028  1.8873  0.1200
  773SOL     OW 2317   2.265   0.921   1.634 -0.7018 -0.3761  0.5642
  773SOL    HW1 2318   2.237   0.998   1.576 -1.2006 -3.8240 -0.1351
  773SOL    HW2 2319   2.190   0.877   1.690  0.3322 -0.5491 -1.6262
  774SOL     OW 2320   1.118   1.062   0.528 -0.5730 -0.1407  0.4581
  774SOL    HW1 2321   1.170   1.031   0.612 -1.1366 -1.8649  0.3545
  774SOL    HW2 2322   1.144   1.015   0.442  0.5410 -1.3302  3.9808
  775SOL     OW 2323   2.129   2.928   2.860 -0.6061  0.5315 -0.0498
  775SOL    HW1 2324   2.224   2.889   2.855 -0.2426  1.3197 -0.8827
  775SOL    HW2 2325   2.125   3.009   2.924  1.1121  0.3466  0.6255
  776SOL     OW 2326   2.320   3.022   2.424  0.0479  0.4554  0.3004
  776SOL    HW1 2327   2.265   3.069   2.492  0.0744  1.0861  0.7045
  776SOL    HW2 2328   2.352   2.927   2.450 -0.6649  3.3193  2.0179
  777SOL     OW 2329   0.677   1.835   2.907  0.9697 -0.5445  0.1040
  777SOL    HW1 2330   0.628   1.843   2.819  0.2470  0.7278 -0.2698
  777SOL    HW2 2331   0.694   1.738   2.939 -1.0009 -1.0514  1.4295
  778SOL     OW 2332   0.678   2.872   0.176  0.5841  0.6297 -0.1999
  778SOL    HW1 2333   0.579   2.871   0.166  0.6576 -2.9125 -0.1661
  778SOL    HW2 2334   0.712   2.787   0.226  0.5352  0.9784 -0.4438
  779SOL     OW 2335   3.030   1.148   2.839  0.0481  0.0926  0.4453
  779SOL    HW1 2336   0.028   1.144   2.920  3.0242  1.5527  2.7313
  779SOL    HW2 2337   3.013   1.058   2.787  1.9711  0.4623  0.4083
  780SOL     OW 2338   1.983   0.394   2.511  0.5101  0.0145  0.3033
  780SOL    HW1 2339   1.931   0.422   2.592  2.5883 -1.7850  1.2367
  780SOL    HW2 2340   1.918   0.345   2.449 -1.8926  0.1726  0.6145
  781SOL     OW 2341   2.063   0.790   1.775 -0.0847  0.0696  0.1976
  781SOL    HW1 2342   2.056   0.835   1.866 -0.8293  0.3758 -0.0392
  781SOL    HW2 2343   2.045   0.691   1.777  1.1044  0.2199 -0.6060
  782SOL     OW 2344   1.602   1.692   2.243 -0.2725 -0.4409  0.4477
  782SOL    HW1 2345   1.592   1.692   2.144 -1.1963  1.0275  1.2326
  782SOL    HW2 2346   1.689   1.645   2.271  0.0306  3.4912 -0.6872
  783SOL     OW 2347   1.266   2.909   1.169 -0.2184  0.1492  0.2437
  783SOL    HW1 2348   1.292   2.838   1.238 -2.0910  2.0230 -0.7994
  783SOL    HW2 2349   1.208   2.864   1.101  1.1894  0.1555  3.2905
  784SOL     OW 2350   1.238   0.665   2.672  0.1956 -0.2378  0.4218
  784SOL    HW1 2351   1.323   0.718   2.660 -0.3544  2.4607 -3.8993
  784SOL    HW2 2352   1.189   0.686   2.759  1.4876 -1.8010  1.1370
  785SOL     OW 2353   1.819   0.473   2.704  0.0198 -0.1423 -0.6164
  785SOL    HW1 2354   1.734   0.524   2.690  1.2077  0.0056 -1.2372
  785SOL    HW2 2355   1.804   0.426   2.798  0.6884  0.4663  1.2490
  786SOL     OW 2356   0.057   1.191   0.573 -0.1952  0.7195 -0.1859
  786SOL    HW1 2357   0.038   1.217   0.478  1.7842  0.2887 -1.2641
  786SOL    HW2 2358   0.051   1.274   0.634 -0.6166 -0.5030 -0.9346
  787SOL     OW 2359   1.525   1.988   0.355 -0.2301 -0.0155  0.3446
  787SOL    HW1 2360   1.570   1.970   0.269 -1.5294  0.7567  1.5033
  787SOL    HW2 2361   1.574   1.944   0.432  1.2103 -0.0131 -0.8153
  788SOL     OW 2362   1.865   1.649   1.394 -0.8106 -0.3174 -0.7600
  788SOL    HW1 2363   1.774   1.617   1.375  3.2340  2.7256  0.1785
  788SOL    HW2 2364   1.871   1.751   1.385  0.9634  3.9460  0.6520
  789SOL     OW 2365   0.027   1.290   2.194 -0.1202 -0.3493 -0.5123
  789SOL    HW1 2366   3.020   1.225   2.216 -1.7602 -1.2559  1.1241
  789SOL    HW2 2367   3.060   1.354   2.118  0.9175 -0.6761 -1.5534
  790SOL     OW 2368   0.667   0.169   0.043  0.1462  0.0109 -0.2346
  790SOL    HW1 2369   0.585   0.133   0.098 -1.6324 -0.0593 -1.2096
  790SOL    HW2 2370   0.740   0.099   0.033  0.6864  1.7657  4.4932
  791SOL     OW 2371   0.749   0.142   2.250  0.6014 -0.0360 -0.1129
  791SOL    HW1 2372   0.653   0.164   2.241  0.1482 -1.4413  2.2995
  791SOL    HW2 2373   0.786   0.166   2.344 -1.0854  1.3137 -1.8836
  792SOL     OW 2374   1.869   0.548   2.158  0.1669  0.6287  0.4973
  792SOL    HW1 2375   1.814   0.621   2.208 -0.5062  1.6659 -3.5496
  792SOL    HW2 2376   1.965   0.540   2.187  1.8687 -0.4494 -0.9251
  793SOL     OW 2377   2.760   0.675   1.381 -0.3783 -0.5074  0.1686
  793SOL    HW1 2378   2.732   0.595   1.440 -0.6180 -2.7899 -3.5790
  793SOL    HW2 2379   2.737   0.766   1.425  0.2993  1.5092  0.2439
  794SOL     OW 2380   0.281   0.470   1.605  0.0355  0.2627  0.3491
  794SOL    HW1 2381   0.301   0.570   1.590 -1.2270 -0.0412 -2.8560
  794SOL    HW2 2382   0.197   0.462   1.671 -2.2127 -1.1793  0.4119
  795SOL     OW 2383   0.010   1.426   0.206 -0.4487  0.3666 -0.5208
  795SOL    HW1 2384   0.012   1.482   0.288 -1.3466  1.7113 -2.9634
  795SOL    HW2 2385   3.050   1.331   0.234 -1.6370 -1.6010  1.2092
  796SOL     OW 2386   0.335   2.526   0.300 -0.2355 -0.2322 -0.4612
  796SOL    HW1 2387   0.436   2.556   0.285  1.2442  0.5531 -1.5470
  796SOL    HW2 2388   0.280   2.595   0.351 -0.6798  1.5644 -1.4209
  797SOL     OW 2389   2.057   2.583   2.938 -0.3855  0.6458 -0.1729
  797SOL    HW1 2390   2.092   2.613   3.029 -1.6356 -0.4233  0.5492
  797SOL    HW2 2391   1.962   2.620   2.926  0.6731  2.9267 -1.6442
  798SOL     OW 2392   0.110   1.185   1.478  0.0088  0.5266  0.4350
  798SOL    HW1 2393   0.060   1.118   1.418  1.7340 -1.6915  0.7317
  798SOL    HW2 2394   0.083   1.278   1.445 -1.1128 -0.3032  0.6469
  799SOL     OW 2395   2.945   0.898   2.731 -0.3789 -0.0163  0.1698
  799SOL    HW1 2396   2.989   0.866   2.643  1.2906  0.0305  0.5787
  799SOL    HW2 2397   2.940   0.824   2.803  0.6581  1.5410  0.9547
  800SOL     OW 2398   2.911   1.739   0.416 -0.7262 -0.1502 -0.2473
  800SOL    HW1 2399   2.872   1.754   0.324 -0.9142 -0.7535 -1.0344
  800SOL    HW2 2400   2.899   1.821   0.480 -0.7223  5.0569  2.1200
  801SOL     OW 2401   1.624   1.115   1.054 -0.3520  0.1055 -0.1000
  801SOL    HW1 2402   1.570   1.168   0.987  0.6703  0.3747 -0.8949
  801SOL    HW2 2403   1.599   1.127   1.151 -0.6386  0.3365 -2.2973
  802SOL     OW 2404   1.007   2.016   1.574  0.5581 -0.3186 -0.4522
  802SOL    HW1 2405   1.045   1.996   1.482  0.9489  3.4218 -1.6268
  802SOL    HW2 2406   0.991   2.115   1.589 -0.6070 -2.4682  2.6097
  803SOL     OW 2407   0.233   1.861   0.528  0.0604 -0.8031  0.0660
  803SOL    HW1 2408   0.326   1.886   0.577  2.4600 -1.6793  1.9338
  803SOL    HW2 2409   0.199   1.941   0.472  0.2896 -0.2039 -0.1217
  804SOL     OW 2410   0.875   2.570   1.600  0.5019  0.0420  0.1196
  804SOL    HW1 2411   0.958   2.588   1.650 -1.9469 -2.1847 -1.0906
  804SOL    HW2 2412   0.802   2.645   1.616 -0.1138 -0.7623 -0.0733
  805SOL     OW 2413   1.822   1.182   0.146  0.2522  0.0547  0.0567
  805SOL    HW1 2414   1.834   1.133   0.052 -1.2199 -1.6975 -2.8853
  805SOL    HW2 2415   1.729   1.222   0.149 -1.5017 -3.5572  1.8732
  806SOL     OW 2416   1.444   3.058   1.016 -0.0841  0.0975 -0.1245
  806SOL    HW1 2417   1.451   3.025   0.920 -0.2369  1.6075 -0.7390
  806SOL    HW2 2418   1.367   3.015   1.068 -0.8512  0.4075  0.8319
  807SOL     OW 2419   2.539   3.021   2.931  0.2061 -0.3602  0.4206
  807SOL    HW1 2420   2.502   0.037   2.975  1.8337 -1.1327 -0.0940
  807SOL    HW2 2421   2.618   3.048   2.877 -2.5853 -0.4500  0.9893
  808SOL     OW 2422   0.106   1.139   0.021  0.2694 -0.0571  0.2306
  808SOL    HW1 2423   0.180   1.088   0.071 -1.9720  1.6249 -1.3562
  808SOL    HW2 2424   0.116   1.242   0.035  1.4148  3.4950 -1.0031
  809SOL     OW 2425   2.688   0.708   2.398  0.4664 -0.3290  0.0397
  809SOL    HW1 2426   2.652   0.666   2.480 -1.0459  0.0185 -1.0464
  809SOL    HW2 2427   2.614   0.729   2.329 -1.5562 -0.3615 -0.0957
  810SOL     OW 2428   2.111   3.001   1.900  0.3961  0.2296 -0.2669
  810SOL    HW1 2429   2.085   2.977   1.807  1.4908  3.4739  1.9644
  810SOL    HW2 2430   2.159   2.924   1.944 -1.5859  0.2566  1.3810
  811SOL     OW 2431   2.458   2.496   1.841  0.0330 -0.3122  0.0773
  811SOL    HW1 2432   2.517   2.567   1.878  2.1586 -0.4358  1.2249
  811SOL    HW2 2433   2.478   2.482   1.739  1.2709  0.1131 -0.8994
  812SOL     OW 2434   1.703   0.172   2.711  0.1095  0.3323  0.1124
  812SOL    HW1 2435   1.718   0.133   2.803 -3.1326 -1.7968 -0.5869
  812SOL    HW2 2436   1.721   0.101   2.643  0.2778  2.4063  1.7484
  813SOL     OW 2437   1.938   0.105   1.971  0.1629  0.8730 -0.1134
  813SOL    HW1 2438   2.000   0.028   1.945  0.0461 -0.0928 -0.4046
  813SOL    HW2 2439   1.898   0.156   1.891 -2.3882  0.3057 -2.0023
  814SOL     OW 2440   1.812   1.217   1.745  0.4034  0.0682 -0.3024
  814SOL    HW1 2441   1.822   1.170   1.835  0.7626  1.9010  0.3063
  814SOL    HW2 2442   1.716   1.241   1.726  2.8882 -0.3800  0.2738
  815SOL     OW 2443   0.645   0.984   0.396 -0.7029 -0.3044  0.2470
  815SOL    HW1 2444   0.555   1.036   0.413 -1.3113  4.0431  2.8563
  815SOL    HW2 2445   0.720   1.012   0.458  0.5144  1.3621 -0.6762
  816SOL     OW 2446   2.019   1.543   2.691 -0.1005  0.3602  0.2115
  816SOL    HW1 2447   2.101   1.589   2.651 -0.6415 -0.3025  0.1035
  816SOL    HW2 2448   2.041   1.443   2.707  0.8821  0.4028  1.1707
  817SOL     OW 2449   0.106   2.920   0.475  0.0970 -0.1763  0.5632
  817SOL    HW1 2450   0.106   2.901   0.578  2.2400 -0.0422 -0.9305
  817SOL    HW2 2451   0.009   2.908   0.439 -0.3907 -2.7549 -3.0291
  818SOL     OW 2452   2.011   0.026   2.385  0.4996 -1.2498 -0.3128
  818SOL    HW1 2453   2.075   0.051   2.457 -1.5958  0.0641 -2.5563
  818SOL    HW2 2454   1.926   3.061   2.430 -0.1654 -0.7685  2.0819
  819SOL     OW 2455   1.197   0.856   0.297  0.3364  0.0869 -0.0232
  819SOL    HW1 2456   1.272   0.803   0.348  1.2278  0.6299  1.3951
  819SOL    HW2 2457   1.104   0.822   0.323  1.5285  0.5538  0.4174
  820SOL     OW 2458   2.089   0.819   0.695 -0.1631 -0.2545 -0.3980
  820SOL    HW1 2459   2.126   0.820   0.794 -1.2556  1.9138  2.5073
  820SOL    HW2 2460   2.110   0.905   0.640 -1.7233 -1.9931  1.8750
  821SOL     OW 2461   2.298   3.009   0.534  0.1588 -0.2485 -0.5772
  821SOL    HW1 2462   2.334   3.034   0.441  2.6082 -1.1303 -0.8709
  821SOL    HW2 2463   2.208   2.962   0.526 -1.4050  0.0142 -1.0508
  822SOL     OW 2464   0.463   2.891   2.455  0.1750  0.1271  0.1618
  822SOL    HW1 2465   0.389   2.935   2.399 -0.0734  2.0606  0.2903
  822SOL    HW2 2466   0.424   2.807   2.497 -1.0641  1.2994 -2.1396
  823SOL     OW 2467   2.823   2.124   1.611  0.0365  0.0823  0.3166
  823SOL    HW1 2468   2.856   2.219   1.608 -0.6033  0.8900  0.3834
  823SOL    HW2 2469   2.725   2.119   1.635 -0.3380  0.8856  1.4183
  824SOL     OW 2470   0.732   2.801   2.065  0.1718  0.5469 -0.2072
  824SOL    HW1 2471   0.686   2.823   2.157 -0.3433  1.1261 -0.4434
  824SOL    HW2 2472   0.824   2.843   2.069 -1.4194 -4.1334  0.7224
  825SOL     OW 2473   1.412   1.596   0.477 -0.0369 -0.4671  0.2540
  825SOL    HW1 2474   1.500   1.575   0.430 -0.6906 -0.8596 -1.0098
  825SOL    HW2 2475   1.344   1.630   0.408  0.8607  0.7111 -0.0094
  826SOL     OW 2476   1.683   0.366   2.933 -0.0000  0.1084 -0.2782
  826SOL    HW1 2477   1.686   0.299   2.859 -1.7400  2.0684  3.1051
  826SOL    HW2 2478   1.630   0.330   3.008 -1.1373  2.1196 -1.2019
  827SOL     OW 2479   0.222   1.587   1.363  0.8465 -0.1922 -0.3005
  827SOL    HW1 2480   0.196   1.685   1.382 -1.1120  0.0292 -0.0460
  827SOL    HW2 2481   0.195   1.567   1.269  1.6912 -0.3381 -0.0875
  828SOL     OW 2482   2.062   1.136   1.587 -0.0306 -0.1971 -0.4329
  828SOL    HW1 2483   2.059   1.158   1.490 -0.8457  1.4084  1.8746
  828SOL    HW2 2484   1.970   1.142   1.627 -1.9409  0.5346  0.0722
  829SOL     OW 2485   0.181   2.078   0.361  0.3365  0.3161  0.4071
  829SOL    HW1 2486   0.099   2.049   0.307 -2.1917  1.6142 -0.9821
  829SOL    HW2 2487   0.240   2.148   0.314 -1.2972  0.8221 -2.3506
  830SOL     OW 2488   0.991   0.723   0.996 -0.4804 -0.4808  0.5934
  830SOL    HW1 2489   1.049   0.743   0.918 -0.9217  0.6685  0.1412
  830SOL    HW2 2490   0.962   0.813   1.033 -0.6172 -1.9405 -2.5108
  831SOL     OW 2491   2.700   1.657   0.024  0.2204 -0.1347  0.1220
  831SOL    HW1 2492   2.786   1.606   0.029 -4.2296  1.8458 -1.4071
  831SOL    HW2 2493   2.629   1.585   0.014 -1.5887 -0.2998 -1.3836
  832SOL     OW 2494   1.244   2.800   0.209 -0.8295  0.2156  0.1368
  832SOL    HW1 2495   1.220   2.885   0.161  3.6051  1.1734  3.0065
  832SOL    HW2 2496   1.305   2.829   0.286  0.8450 -0.5301  0.2420
  833SOL     OW 2497   1.055   0.311   2.051  0.0173  0.0300  0.0304
  833SOL    HW1 2498   1.073   0.326   2.153 -1.7311  3.5331  1.2779
  833SOL    HW2 2499   1.115   0.379   1.997  3.0780  1.6895 -2.1751
  834SOL     OW 2500   0.124   0.840   0.984 -0.0179  0.5587  0.1508
  834SOL    HW1 2501   0.032   0.871   0.952  0.4924 -1.4527  1.0594
  834SOL    HW2 2502   0.116   0.770   1.063  0.2263  1.1057 -0.4461
  835SOL     OW 2503   2.497   0.287   1.868 -0.0918 -0.3596  0.0529
  835SOL    HW1 2504   2.503   0.373   1.928 -0.7857  2.0131 -0.0489
  835SOL    HW2 2505   2.405   0.246   1.881 -1.6819 -0.0430  1.3162
  836SOL     OW 2506   0.376   2.108   0.709 -0.3285  0.1041  0.0525
  836SOL    HW1 2507   0.432   2.182   0.744 -0.6302 -0.1210  3.4989
  836SOL    HW2 2508   0.337   2.052   0.785  1.5874  0.3209 -0.8782
  837SOL     OW 2509   2.182   1.603   2.284 -0.0840  0.0341  0.2881
  837SOL    HW1 2510   2.132   1.529   2.332  1.8034  0.4446  0.2323
  837SOL    HW2 2511   2.278   1.615   2.323 -0.0112  0.7545  0.7664
  838SOL     OW 2512   0.361   1.126   1.332 -0.0323 -0.1305 -0.2767
  838SOL    HW1 2513   0.369   1.077   1.244  2.8227 -2.2366 -1.6498
  838SOL    HW2 2514   0.268   1.118   1.377  0.5646 -3.0249 -0.1776
  839SOL     OW 2515   0.305   0.216   0.935 -0.0156 -0.3118 -0.4290
  839SOL    HW1 2516   0.340   0.252   0.845 -0.6335 -0.0553  0.3633
  839SOL    HW2 2517   0.383   0.208   0.999 -0.2954 -0.2920 -0.7289
  840SOL     OW 2518   0.076   0.338   2.662  0.5835 -0.1423 -0.1743
  840SOL    HW1 2519   0.025   0.298   2.584 -0.8615  0.6028  0.3381
  840SOL    HW2 2520   0.072   0.442   2.667  2.4957  2.9872 -1.2639
  841SOL     OW 2521   0.170   2.585   0.088 -0.2620 -0.2669 -0.0863
  841SOL    HW1 2522   0.224   2.549   0.005 -0.3211  1.4995 -0.8570
  841SOL    HW2 2523   0.213   2.566   0.180 -0.3284  2.8758  0.6550
  842SOL     OW 2524   0.751   2.965   0.918  0.2704  0.0295 -0.2831
  842SOL    HW1 2525   0.803   2.876   0.903 -0.7895 -0.0358  0.0610
  842SOL    HW2 2526   0.800   3.018   0.983 -2.4210 -0.0485  0.1565
  843SOL     OW 2527   0.008   1.340   2.658  0.1137  0.2122  0.0839
  843SOL    HW1 2528   0.022   1.275   2.733 -0.3138  2.0437 -1.7986
  843SOL    HW2 2529   2.984   1.329   2.626  2.4679 -2.9775  0.8604
  844SOL     OW 2530   0.814   2.461   2.485  0.4806 -0.6741  0.3141
  844SOL    HW1 2531   0.858   2.451   2.577  1.8075 -1.5648 -2.2565
  844SOL    HW2 2532   0.760   2.382   2.459 -0.7380  2.5235 -2.1227
  845SOL     OW 2533   1.964   2.593   2.509  0.0364  0.1367  0.4870
  845SOL    HW1 2534   2.059   2.577   2.473 -2.0282  0.2430  2.4357
  845SOL    HW2 2535   1.966   2.680   2.562 -0.0729  1.2425  2.4201
  846SOL     OW 2536   1.691   1.365   2.537 -0.4973  0.7719  0.2079
  846SOL    HW1 2537   1.670   1.309   2.619  0.7120 -0.8414 -2.1098
  846SOL    HW2 2538   1.738   1.303   2.474 -1.9552  1.2510 -1.1227
  847SOL     OW 2539   2.852   0.178   0.068  0.6164 -0.2353  0.3152
  847SOL    HW1 2540   2.940   0.133   0.086 -1.1753  0.5438  2.1204
  847SOL    HW2 2541   2.854   0.202   3.039  3.2468  2.9374  0.3676
  848SOL     OW 2542   0.279   1.010   0.190 -0.3391 -0.4070 -0.1857
  848SOL    HW1 2543   0.237   0.918   0.201 -1.2728  1.5638  0.1582
  848SOL    HW2 2544   0.306   1.050   0.284  0.9497  1.6595  2.3096
  849SOL     OW 2545   1.370   0.171   2.275 -0.1158 -0.4423  0.3512
  849SOL    HW1 2546   1.286   0.118   2.249 -0.5931 -1.6393 -1.3747
  849SOL    HW2 2547   1.396   0.246   2.210  1.5660  1.8468  1.0652
  850SOL     OW 2548   0.408   1.119   0.400 -0.4822 -0.0699 -0.0111
  850SOL    HW1 2549   0.456   1.201   0.365  1.2420 -2.2678  1.7039
  850SOL    HW2 2550   0.360   1.134   0.489  0.3694 -0.1841 -1.2723
  851SOL     OW 2551   0.567   1.399   0.290 -0.4519 -0.5894  0.2886
  851SOL    HW1 2552   0.603   1.440   0.375 -0.1198  3.0848  2.2384
  851SOL    HW2 2553   0.652   1.367   0.241  0.0381  0.4229 -0.4113
  852SOL     OW 2554   1.213   1.321   1.619 -0.8922  0.4831  0.0080
  852SOL    HW1 2555   1.272   1.305   1.700 -3.1460 -0.6029 -1.1973
  852SOL    HW2 2556   1.266   1.368   1.549  0.7852 -0.5813  0.1302
  853SOL     OW 2557   2.674   1.464   0.413  0.3128  0.3030  1.2418
  853SOL    HW1 2558   2.623   1.531   0.468  1.9813 -1.0413 -2.0985
  853SOL    HW2 2559   2.776   1.473   0.407  2.4742 -1.7901  2.9964
  854SOL     OW 2560   1.261   1.197   2.450  0.2850 -0.0078 -0.4400
  854SOL    HW1 2561   1.358   1.173   2.461  0.6739 -0.3685 -0.9706
  854SOL    HW2 2562   1.234   1.290   2.487 -1.5102 -0.1537 -0.0492
  855SOL     OW 2563   0.261   2.572   2.848  0.5279  0.1828 -0.1925
  855SOL    HW1 2564   0.336   2.506   2.821 -0.4276 -1.4942 -1.8419
  855SOL    HW2 2565   0.287   2.670   2.831 -0.6232 -0.5618 -0.8282
  856SOL     OW 2566   1.206   1.102   1.955  0.3765 -0.1225 -0.2535
  856SOL    HW1 2567   1.202   1.100   1.853  1.1370 -1.6384  2.3115
  856SOL    HW2 2568   1.139   1.036   1.992  0.4709  0.4405  0.6818
  857SOL     OW 2569   1.093   0.779   2.167  0.3875  0.1286 -0.0426
  857SOL    HW1 2570   1.181   0.787   2.112 -0.2085  1.3645 -1.1166
  857SOL    HW2 2571   1.016   0.818   2.112 -2.8661  0.6611 -0.3958
  858SOL     OW 2572   0.081   0.866   1.787  0.0387  0.4273 -0.0659
  858SOL    HW1 2573   0.081   0.954   1.837 -0.5659 -1.9411 -0.1838
  858SOL    HW2 2574   0.169   0.841   1.735  3.0517 -1.3401 -2.3029
  859SOL     OW 2575   2.620   2.933   0.762  0.5684  0.1725 -0.1245
  859SOL    HW1 2576   2.687   2.948   0.834  1.2927  0.2715 -0.0099
  859SOL    HW2 2577   2.640   2.847   0.707  0.9359 -0.0619 -0.8446
  860SOL     OW 2578   1.597   0.309   0.779  0.2690  0.1634  0.0176
  860SOL    HW1 2579   1.611   0.281   0.683  1.5018  0.7281  4.7158
  860SOL    HW2 2580   1.671   0.270   0.834 -1.2823  1.8802  0.0805
  861SOL     OW 2581   1.578   0.701   1.139  0.0914 -0.3587  0.2795
  861SOL    HW1 2582   1.484   0.734   1.117  2.0619  0.5542  4.0787
  861SOL    HW2 2583   1.606   0.627   1.072  0.6127  0.7459  1.0166
  862SOL     OW 2584   1.452   2.850   2.364  0.2345 -0.0344  0.0139
  862SOL    HW1 2585   1.501   2.759   2.372  0.7857 -1.0337 -1.5908
  862SOL    HW2 2586   1.518   2.922   2.351 -1.6051 -3.7980  0.4553
  863SOL     OW 2587   2.939   2.731   0.857  0.1392  0.8499  0.0885
  863SOL    HW1 2588   2.918   2.658   0.931 -3.0176 -4.3910  0.9225
  863SOL    HW2 2589   2.933   2.682   0.762 -2.5310 -1.0638 -2.1290
  864SOL     OW 2590   2.381   0.119   2.192  0.6106  0.2450 -0.5010
  864SOL    HW1 2591   2.319   0.037   2.220 -2.6416 -0.9315 -1.3610
  864SOL    HW2 2592   2.334   0.172   2.116  0.0359 -0.1179  0.7885
  865SOL     OW 2593   1.072   1.499   2.225 -0.2398 -0.0232  0.7811
  865SOL    HW1 2594   1.064   1.407   2.174 -1.4336  1.2576 -0.5190
  865SOL    HW2 2595   0.980   1.519   2.263 -0.8959  0.6576  1.5833
  866SOL     OW 2596   2.078   2.765   1.031 -0.0452  0.5258 -0.0819
  866SOL    HW1 2597   1.986   2.723   1.008 -1.3933 -2.5318 -2.4844
  866SOL    HW2 2598   2.150   2.705   0.981  0.9646  0.4254 -1.3093
  867SOL     OW 2599   2.362   2.818   0.886 -0.1390 -0.1467  0.4361
  867SOL    HW1 2600   2.361   2.816   0.781  0.5436  2.8158 -0.3979
  867SOL    HW2 2601   2.328   2.729   0.927 -1.3801  1.2411  1.6072
  868SOL     OW 2602   2.940   1.917   1.446 -0.6388 -0.1876 -0.4865
  868SOL    HW1 2603   2.867   1.864   1.399  0.3012 -0.3696  1.4627
  868SOL    HW2 2604   2.903   1.986   1.513  0.3705 -1.3300 -1.9662
  869SOL     OW 2605   1.920   2.057   2.154 -0.1098 -0.9236 -0.2806
  869SOL    HW1 2606   1.916   2.009   2.244 -1.9817  2.2958  0.2920
  869SOL    HW2 2607   1.895   2.000   2.075  0.0623  0.0825 -0.8317
  870SOL     OW 2608   1.227   1.271   0.932 -0.2050  0.2961  0.0479
  870SOL    HW1 2609   1.175   1.271   0.843 -2.1704  1.8071  2.8756
  870SOL    HW2 2610   1.327   1.273   0.907  2.7206  0.6397  1.5786
  871SOL     OW 2611   2.851   1.730   1.991 -0.4186  0.0787 -0.5816
  871SOL    HW1 2612   2.842   1.831   2.005 -1.4646  1.7114 -2.9709
  871SOL    HW2 2613   2.867   1.680   2.078 -0.7929 -0.6177  0.0122
  872SOL     OW 2614   1.162   1.455   2.487  0.1560  0.5621  0.0730
  872SOL    HW1 2615   1.081   1.466   2.546  3.4542  1.2536  0.6330
  872SOL    HW2 2616   1.139   1.476   2.391 -0.0378 -2.4098  0.4879
  873SOL     OW 2617   0.793   1.345   1.923  0.4458  0.4189 -0.3865
  873SOL    HW1 2618   0.739   1.292   1.853 -0.2291  1.1631 -0.9895
  873SOL    HW2 2619   0.874   1.380   1.875 -0.0330  0.8840 -0.3461
  874SOL     OW 2620   1.703   0.912   1.528 -0.1099 -0.0582 -0.2308
  874SOL    HW1 2621   1.802   0.907   1.506  0.7371  1.5363 -0.8420
  874SOL    HW2 2622   1.685   0.942   1.622 -0.2723 -1.4285  0.0791
  875SOL     OW 2623   0.069   0.413   0.104  0.4091 -0.5430  0.1412
  875SOL    HW1 2624   0.034   0.340   0.168  1.1719 -0.3008  0.1902
  875SOL    HW2 2625   0.018   0.501   0.117  0.3895  0.4624 -2.2951
  876SOL     OW 2626   0.976   1.121   0.121 -0.0729 -0.1865 -0.3974
  876SOL    HW1 2627   0.999   1.180   0.202  1.8842 -2.9444  2.5151
  876SOL    HW2 2628   1.057   1.109   0.060  2.1774  2.4177 -3.1473
  877SOL     OW 2629   2.417   2.763   0.620 -0.2709  0.7488 -0.2563
  877SOL    HW1 2630   2.515   2.751   0.622 -3.2681  1.0983 -0.7357
  877SOL    HW2 2631   2.387   2.844   0.566 -1.6362 -0.8969 -1.4515
  878SOL     OW 2632   1.854   1.882   0.338  0.0805  0.8977  0.1455
  878SOL    HW1 2633   1.950   1.912   0.360  1.3350 -0.2446  0.5868
  878SOL    HW2 2634   1.806   1.950   0.280 -2.1464  0.8689 -1.0768
  879SOL     OW 2635   2.888   1.606   1.767  0.1085  0.1823 -0.0511
  879SOL    HW1 2636   2.980   1.620   1.729 -1.0499 -0.2600  0.1792
  879SOL    HW2 2637   2.876   1.654   1.857  0.1339 -0.2276 -0.7784
  880SOL     OW 2638   0.275   1.966   0.927 -0.1235 -0.8350  0.2446
  880SOL    HW1 2639   0.257   2.059   0.967  0.2313 -0.5936  0.5376
  880SOL    HW2 2640   0.244   1.893   0.987 -1.8606 -1.6230 -1.3809
  881SOL     OW 2641   1.264   0.154   1.930 -0.4567  0.4286 -0.3057
  881SOL    HW1 2642   1.252   0.198   1.838 -0.8671 -0.3908 -1.4947
  881SOL    HW2 2643   1.195   0.178   1.998 -0.7082  1.1452  0.0306
  882SOL     OW 2644   2.298   0.871   0.993  0.2142 -0.1213 -0.1836
  882SOL    HW1 2645   2.339   0.943   0.933  0.7882  1.5572  0.7349
  882SOL    HW2 2646   2.333   0.874   1.091  0.7777  0.8867 -0.5290
  883SOL     OW 2647   1.615   0.027   1.741  0.0771 -0.5529 -0.0696
  883SOL    HW1 2648   1.552   0.058   1.667 -3.0525 -1.0119  0.8837
  883SOL    HW2 2649   1.570   0.042   1.830  1.1813 -2.5615 -1.7868
  884SOL     OW 2650   2.941   2.932   1.967  0.2582 -0.6524 -0.0222
  884SOL    HW1 2651   2.957   3.002   2.039 -0.1334  1.0447  0.6439
  884SOL    HW2 2652   2.980   2.958   1.875  0.5594 -0.9498 -1.2209
  885SOL     OW 2653   1.240   1.550   3.042  0.1742  0.4253 -0.9807
  885SOL    HW1 2654   1.276   1.609   2.965  0.4102 -0.1441  0.5158
  885SOL    HW2 2655   1.141   1.526   3.029  0.3345 -2.6727 -2.5164
  886SOL     OW 2656   2.033   0.498   2.852 -0.9547  0.2904 -0.1363
  886SOL    HW1 2657   1.995   0.512   2.947 -1.8080  0.8332  1.8927
  886SOL    HW2 2658   1.960   0.501   2.781  1.6922 -0.2971  0.1614
  887SOL     OW 2659   1.118   2.881   1.604  0.0431 -0.5632 -0.7423
  887SOL    HW1 2660   1.222   2.875   1.599 -1.6588 -1.9789 -1.0050
  887SOL    HW2 2661   1.094   2.804   1.659  0.2390  2.3207  0.3893
  888SOL     OW 2662   1.923   1.652   2.164 -0.9286  0.0072 -0.0978
  888SOL    HW1 2663   1.900   1.574   2.107  2.0323  2.7084  0.3403
  888SOL    HW2 2664   2.019   1.633   2.196  4.5535 -1.1531  0.2318
  889SOL     OW 2665   1.982   2.371   1.233 -0.1851  0.2917  0.0638
  889SOL    HW1 2666   1.976   2.292   1.298  1.1955  0.9264 -0.2491
  889SOL    HW2 2667   2.074   2.420   1.237  0.3943  0.6058 -0.7799
  890SOL     OW 2668   1.284   1.734   1.125  0.1451 -0.8342 -0.3528
  890SOL    HW1 2669   1.325   1.828   1.122 -2.6856 -0.6921  1.2425
  890SOL    HW2 2670   1.221   1.718   1.047 -0.6101  1.3625 -1.1512
  891SOL     OW 2671   2.526   1.332   0.240  0.2698  0.4595 -0.3640
  891SOL    HW1 2672   2.548   1.370   0.154  1.3434 -0.2554  1.9338
  891SOL    HW2 2673   2.590   1.372   0.310 -0.6100  0.1645  1.9135
  892SOL     OW 2674   2.239   1.239   0.071  0.2935 -0.4985  0.2435
  892SOL    HW1 2675   2.185   1.289   3.066 -2.9396 -0.2557 -0.4845
  892SOL    HW2 2676   2.288   1.304   0.128 -2.5317 -0.8713  0.7105
  893SOL     OW 2677   1.997   2.409   1.547 -0.0702 -0.4557 -0.2626
  893SOL    HW1 2678   1.993   2.499   1.498 -1.1257 -1.4392 -1.1660
  893SOL    HW2 2679   2.086   2.379   1.583 -2.9752  0.5644  0.3412
  894SOL     OW 2680   2.680   2.692   0.654 -0.2062  0.5046 -0.0695
  894SOL    HW1 2681   2.649   2.608   0.604 -1.2586  1.0242 -0.1494
  894SOL    HW2 2682   2.771   2.670   0.696  1.3241  0.4568 -0.9207
  895SOL     OW 2683   2.756   2.556   2.756  0.1093 -0.5648  0.1028
  895SOL    HW1 2684   2.771   2.649   2.714 -0.3744 -2.7731 -0.1627
  895SOL    HW2 2685   2.719   2.491   2.686 -0.0504  0.0785 -0.0423
  896SOL     OW 2686   2.179   0.059   2.629  0.1836 -0.0356 -0.0703
  896SOL    HW1 2687   2.189   0.155   2.660  0.2237 -2.1437  2.3537
  896SOL    HW2 2688   2.147   0.000   2.702 -0.2926  0.2388 -2.1985
  897SOL     OW 2689   0.564   1.863   2.073 -0.0765 -0.0916  0.5207
  897SOL    HW1 2690   0.650   1.827   2.031  1.8127 -2.1522  2.7943
  897SOL    HW2 2691   0.571   1.861   2.172 -2.2157  1.4485  0.5086
  898SOL     OW 2692   2.566   1.675   1.605  0.2824 -0.3665 -0.5622
  898SOL    HW1 2693   2.585   1.746   1.678  1.9491  0.3518 -1.8874
  898SOL    HW2 2694   2.488   1.696   1.545  1.9589 -0.6796  0.2931
  899SOL     OW 2695   1.645   2.680   1.609 -0.5092  0.8111  0.5223
  899SOL    HW1 2696   1.711   2.753   1.632 -1.3776  0.7814  2.0498
  899SOL    HW2 2697   1.682   2.588   1.618 -0.1250  1.5599  1.3491
  900SOL     OW 2698   1.174   1.060   2.980 -0.0922 -0.0389 -0.4181
  900SOL    HW1 2699   1.094   1.025   2.928  0.4125  1.0014 -1.2598
  900SOL    HW2 2700   1.209   0.991   3.045 -2.6156 -0.4252  1.5303
  901SOL     OW 2701   0.811   1.202   2.214 -0.4368 -0.2061  0.6495
  901SOL    HW1 2702   0.739   1.143   2.166  1.3281 -2.2852 -1.4034
  901SOL    HW2 2703   0.893   1.152   2.252 -1.5825 -0.0717 -3.2068
  902SOL     OW 2704   2.861   2.205   0.352 -0.0249 -0.5977  0.9592
  902SOL    HW1 2705   2.767   2.173   0.375 -1.2552  0.0319 -1.5401
  902SOL    HW2 2706   2.929   2.130   0.342 -1.5166  0.7732 -1.2649
  903SOL     OW 2707   2.478   1.178   1.777  0.2383  0.3831  0.1320
  903SOL    HW1 2708   2.545   1.257   1.751  1.0938  0.0135 -3.2792
  903SOL    HW2 2709   2.502   1.131   1.862 -0.4046  0.9161 -0.5340
  904SOL     OW 2710   1.847   0.716   0.305 -0.7709 -0.6904  0.0139
  904SOL    HW1 2711   1.941   0.717   0.260  1.5750  3.4207 -1.7262
  904SOL    HW2 2712   1.817   0.811   0.326  1.4432 -1.6636  0.8913
  905SOL     OW 2713   2.240   2.453   1.224  0.0688 -1.0647 -0.2978
  905SOL    HW1 2714   2.276   2.507   1.304 -0.2663  0.9274  0.4241
  905SOL    HW2 2715   2.260   2.357   1.246  2.0198  2.6069 -0.5340
  906SOL     OW 2716   1.451   2.092   2.865  0.5447  0.1694 -0.3641
  906SOL    HW1 2717   1.380   2.119   2.798  0.2144 -0.6334  0.0063
  906SOL    HW2 2718   1.535   2.088   2.812 -1.8362 -0.8998  1.9261
  907SOL     OW 2719   0.938   2.351   0.935 -0.5377  0.3912 -0.2916
  907SOL    HW1 2720   0.926   2.256   0.899  1.1669  2.8765 -2.1823
  907SOL    HW2 2721   0.978   2.406   0.854  1.7207  3.7019  0.4188
  908SOL     OW 2722   1.052   2.886   2.044  0.3884  0.2697  0.7520
  908SOL    HW1 2723   1.036   2.789   2.002  0.8639 -0.7644 -0.9361
  908SOL    HW2 2724   1.078   2.942   1.962 -1.4865 -2.8909 -2.3336
  909SOL     OW 2725   1.818   0.207   1.748 -0.4641 -0.2250 -0.0098
  909SOL    HW1 2726   1.760   0.130   1.765  0.8752  2.3310  0.6011
  909SOL    HW2 2727   1.786   0.289   1.802  1.5493  2.8078 -0.9691
  910SOL     OW 2728   1.113   0.603   2.385 -0.0671 -0.1963 -0.5878
  910SOL    HW1 2729   1.118   0.657   2.470 -1.3304  0.7499 -0.4918
  910SOL    HW2 2730   1.112   0.659   2.301 -3.0062 -0.9082  0.5841
  911SOL     OW 2731   3.044   0.676   0.060  0.8681 -0.2749  0.6826
  911SOL    HW1 2732   2.995   0.727   0.134 -0.2797 -1.8526  1.8328
  911SOL    HW2 2733   0.072   0.679   0.074 -0.4903  1.2884  2.5996
  912SOL     OW 2734   2.887   2.479   2.964 -0.1149 -0.4065  0.4674
  912SOL    HW1 2735   2.830   2.496   2.876  2.9180 -0.0130  0.1835
  912SOL    HW2 2736   2.935   2.564   2.994  2.3157 -2.2371  3.1710
  913SOL     OW 2737   2.583   2.160   2.901  0.0186  0.3071 -0.1272
  913SOL    HW1 2738   2.500   2.151   2.839 -1.2481 -0.0470 -0.1982
  913SOL    HW2 2739   2.660   2.181   2.841  0.8060 -3.8439  0.2627
  914SOL     OW 2740   1.647   1.783   1.628 -0.5164  0.5998  0.3942
  914SOL    HW1 2741   1.580   1.844   1.670  1.8695 -0.8729 -0.4969
  914SOL    HW2 2742   1.645   1.791   1.524 -0.2640  0.2774 -2.1790
  915SOL     OW 2743   0.189   2.619   2.122  0.2330  0.5878 -0.0212
  915SOL    HW1 2744   0.172   2.519   2.138 -0.2897  0.9530 -1.4537
  915SOL    HW2 2745   0.263   2.640   2.188 -1.0470  0.8244 -0.6628
  916SOL     OW 2746   0.404   1.379   1.404 -0.5021 -0.2234 -0.2798
  916SOL    HW1 2747   0.329   1.447   1.393  0.3102 -1.6149 -1.3216
  916SOL    HW2 2748   0.382   1.291   1.365 -0.0473  2.5167 -1.7993
  917SOL     OW 2749   2.502   0.233   2.936 -0.1955  0.3238 -0.2607
  917SOL    HW1 2750   2.439   0.262   3.007  0.0034  0.7153 -0.1322
  917SOL    HW2 2751   2.563   0.311   2.916  2.1962  0.6380  2.9278
  918SOL     OW 2752   1.475   2.333   2.284 -0.1324 -0.2270  0.0165
  918SOL    HW1 2753   1.385   2.374   2.260 -0.9960  0.8453 -1.1759
  918SOL    HW2 2754   1.550   2.379   2.236 -0.8224 -1.1603  2.3108
  919SOL     OW 2755   1.714   2.414   1.847 -0.0265 -0.4654  0.3907
  919SOL    HW1 2756   1.718   2.412   1.743 -1.9814  1.1323 -1.6086
  919SOL    HW2 2757   1.785   2.354   1.889  0.8260  1.8259 -0.3756
  920SOL     OW 2758   0.718   0.913   2.922  0.0496  0.0813 -0.3330
  920SOL    HW1 2759   0.641   0.941   2.862  1.5945 -1.2003 -1.0508
  920SOL    HW2 2760   0.717   0.969   3.003 -1.4879  0.1075 -2.3866
  921SOL     OW 2761   2.880   0.895   2.334  0.0557  0.3182  0.0992
  921SOL    HW1 2762   2.802   0.836   2.359  1.5266  0.2896 -1.3924
  921SOL    HW2 2763   2.919   0.851   2.252 -0.9368 -0.9010 -2.1770
  922SOL     OW 2764   0.559   1.776   0.357  0.1374  0.0160 -0.0921
  922SOL    HW1 2765   0.524   1.790   0.448 -0.6394 -1.8206  0.0373
  922SOL    HW2 2766   0.535   1.853   0.295  1.3244  1.3350 -0.5558
  923SOL     OW 2767   0.442   1.014   1.771  0.0174 -0.4880  0.4889
  923SOL    HW1 2768   0.480   0.939   1.828 -0.5949 -0.5392  2.1176
  923SOL    HW2 2769   0.441   0.992   1.669  1.5235  0.3015  1.0672
  924SOL     OW 2770   1.276   2.934   2.813 -0.3920  0.1341 -0.2147
  924SOL    HW1 2771   1.294   2.954   2.716  1.1584 -2.2024  0.2258
  924SOL    HW2 2772   1.181   2.962   2.823 -1.3304 -0.6591 -0.6668
  925SOL     OW 2773   2.427   1.346   1.385 -0.2963 -0.5246 -0.7539
  925SOL    HW1 2774   2.340   1.335   1.337  1.9078 -1.5550 -1.4790
  925SOL    HW2 2775   2.411   1.381   1.481 -0.3368 -0.0948  1.4603
  926SOL     OW 2776   2.082   0.410   1.906  0.1924  0.3135 -0.2982
  926SOL    HW1 2777   2.101   0.440   1.813  1.3441  0.5162 -0.4065
  926SOL    HW2 2778   1.985   0.376   1.928 -0.5347 -0.0546  2.3349
  927SOL     OW 2779   2.452   2.474   1.567  0.2543  0.0781  0.7901
  927SOL    HW1 2780   2.537   2.491   1.514  3.9092 -1.7501 -0.0950
  927SOL    HW2 2781   2.374   2.539   1.536  0.6742  3.0239  0.2825
  928SOL     OW 2782   0.295   0.873   2.326 -0.2784 -0.0594 -0.0623
  928SOL    HW1 2783   0.194   0.872   2.314  0.6554 -0.5271 -0.4615
  928SOL    HW2 2784   0.329   0.969   2.299  2.5868  3.8088 -1.3436
  929SOL     OW 2785   2.447   0.068   0.709  0.2674 -0.1106  0.0331
  929SOL    HW1 2786   2.503   3.056   0.738  2.9104  1.1956 -0.4421
  929SOL    HW2 2787   2.380   0.035   0.641  0.0472  2.5066 -2.0137
  930SOL     OW 2788   2.737   0.003   1.570  0.0248  0.5616  0.2796
  930SOL    HW1 2789   2.729   2.975   1.533 -1.0712  1.6546 -0.6151
  930SOL    HW2 2790   2.714   0.071   1.497 -2.0690  1.4845 -1.9888
  931SOL     OW 2791   2.265   1.055   0.290  0.4552  0.4754  0.0986
  931SOL    HW1 2792   2.250   1.112   0.201  0.1897  0.5797 -3.1158
  931SOL    HW2 2793   2.362   1.047   0.316  3.0795 -1.2131  0.8052
  932SOL     OW 2794   2.302   1.478   1.617  0.1478  0.3516  0.0277
  932SOL    HW1 2795   2.257   1.398   1.664  1.1566  2.0118  1.0303
  932SOL    HW2 2796   2.256   1.559   1.651 -2.9595 -0.1151 -1.5522
  933SOL     OW 2797   2.909   2.357   1.327  0.5342 -0.3374 -0.2563
  933SOL    HW1 2798   2.970   2.433   1.300  0.5832  2.5303  1.1784
  933SOL    HW2 2799   2.946   2.263   1.304 -1.4521  0.2064 -0.9684
  934SOL     OW 2800   0.612   2.033   1.499 -0.1457  0.6209  0.2464
  934SOL    HW1 2801   0.688   2.051   1.435 -1.6880  1.8637  1.8590
  934SOL    HW2 2802   0.647   2.002   1.590  1.6248  1.5765  0.1935
  935SOL     OW 2803   2.467   1.287   2.091 -0.4061 -0.2180 -0.1017
  935SOL    HW1 2804   2.392   1.229   2.053 -0.0966 -4.1078  0.3758
  935SOL    HW2 2805   2.474   1.381   2.045  0.5909 -1.4593 -0.0848
  936SOL     OW 2806   2.498   1.524   1.956 -0.1704  0.0498  0.2955
  936SOL    HW1 2807   2.528   1.622   1.966  0.0791  2.2063 -0.6818
  936SOL    HW2 2808   2.543   1.493   1.871  0.9015  1.4056  0.7805
  937SOL     OW 2809   2.078   1.216   2.173  0.1343 -0.5611  0.2613
  937SOL    HW1 2810   2.011   1.245   2.248  2.4369 -2.1892 -0.3997
  937SOL    HW2 2811   2.073   1.276   2.090 -0.3894  2.9433  1.3343
  938SOL     OW 2812   0.869   2.394   2.769 -0.1713  0.0868 -0.6396
  938SOL    HW1 2813   0.829   2.300   2.769 -0.5557  1.5848  1.8875
  938SOL    HW2 2814   0.967   2.397   2.742  2.0571  2.2270  1.7038
  939SOL     OW 2815   2.531   0.931   2.991  0.4538 -0.1230  0.3543
  939SOL    HW1 2816   2.548   0.898   2.897  0.0327  1.3700  1.2518
  939SOL    HW2 2817   2.589   1.011   3.018 -0.3692  1.8697 -1.9538
  940SOL     OW 2818   1.126   1.658   0.879 -0.2906 -0.1519 -0.1208
  940SOL    HW1 2819   1.184   1.591   0.830 -0.6690  1.8714  0.5804
  940SOL    HW2 2820   1.030   1.621   0.881  1.0640 -0.3182 -2.9352
  941SOL     OW 2821   0.912   2.675   2.340  0.3501  0.2013 -0.2305
  941SOL    HW1 2822   0.854   2.758   2.335  1.0061 -2.0971  2.2788
  941SOL    HW2 2823   0.859   2.593   2.371 -0.8189 -3.6132  3.3283
  942SOL     OW 2824   0.592   2.266   0.233  0.1009  0.4179 -0.1517
  942SOL    HW1 2825   0.587   2.369   0.231 -0.0208  1.8947  1.3183
  942SOL    HW2 2826   0.678   2.240   0.285 -0.8440  0.3121 -1.8386
  943SOL     OW 2827   1.823   2.692   1.868 -0.2834 -0.3418 -0.0990
  943SOL    HW1 2828   1.750   2.617   1.886 -2.5438  1.7705 -3.3613
  943SOL    HW2 2829   1.917   2.667   1.902  3.2247 -1.5213 -0.9266
  944SOL     OW 2830   0.989   1.759   2.902 -0.1616  0.1482 -0.8664
  944SOL    HW1 2831   1.056   1.807   2.841  1.7666  2.8033 -0.1835
  944SOL    HW2 2832   0.920   1.816   2.948 -0.4066 -1.5862 -1.5245
  945SOL     OW 2833   2.923   2.566   0.636  0.1502 -0.0061  0.5165
  945SOL    HW1 2834   2.865   2.482   0.625 -0.1065 -2.6051 -2.0458
  945SOL    HW2 2835   3.006   2.560   0.575  0.1990  1.8872 -2.4627
  946SOL     OW 2836   0.866   1.765   2.544  0.1453 -0.4869  0.6839
  946SOL    HW1 2837   0.951   1.815   2.565 -1.7930  0.0513 -1.7766
  946SOL    HW2 2838   0.869   1.668   2.582  0.2822 -1.2603  1.9771
  947SOL     OW 2839   2.718   0.123   1.828 -0.1112  0.1360  0.0041
  947SOL    HW1 2840   2.702   0.067   1.744 -0.4102  0.1784 -0.5480
  947SOL    HW2 2841   2.634   0.175   1.855 -0.8593  3.5146 -1.9958
  948SOL     OW 2842   3.054   1.774   1.009  0.1128 -0.3679  0.6476
  948SOL    HW1 2843   2.989   1.842   1.043 -0.2633 -1.2576  2.3774
  948SOL    HW2 2844   0.076   1.792   1.055 -0.1713  0.3971  0.1287
  949SOL     OW 2845   1.010   0.777   1.787 -0.2373 -0.0189 -0.1247
  949SOL    HW1 2846   1.112   0.775   1.775  2.3861  0.5447  1.0682
  949SOL    HW2 2847   0.968   0.840   1.722  1.7265  1.3061 -1.0093
  950SOL     OW 2848   0.013   0.978   1.350 -0.0237  0.1050 -0.2746
  950SOL    HW1 2849   0.110   0.955   1.319  2.6950  0.5584  0.2841
  950SOL    HW2 2850   3.025   0.944   1.274  3.0488 -0.9642 -1.2927
  951SOL     OW 2851   0.627   1.858   2.325  0.0098  0.0098  0.7715
  951SOL    HW1 2852   0.598   1.898   2.412 -2.5598 -3.5457 -1.3747
  951SOL    HW2 2853   0.724   1.887   2.297  1.8783  0.2994  0.1711
  952SOL     OW 2854   1.558   2.246   0.635  0.4347 -0.1496 -0.6669
  952SOL    HW1 2855   1.544   2.262   0.534  0.4385 -1.0717  0.9855
  952SOL    HW2 2856   1.492   2.182   0.676 -1.2733  1.0913 -1.5874
  953SOL     OW 2857   0.949   0.735   0.333  0.4895 -0.1471 -0.3136
  953SOL    HW1 2858   0.914   0.642   0.326  2.5809 -1.7754 -1.5627
  953SOL    HW2 2859   0.886   0.798   0.271 -2.2168  2.2290 -0.2578
  954SOL     OW 2860   2.059   0.950   1.162  0.0069 -0.0990  0.1720
  954SOL    HW1 2861   2.145   0.920   1.119 -0.0872 -0.6545  2.2202
  954SOL    HW2 2862   2.017   1.016   1.097 -0.2533  0.5245  0.3711
  955SOL     OW 2863   2.361   1.264   0.455 -0.7422  0.0981  0.0885
  955SOL    HW1 2864   2.289   1.334   0.462  3.5485 -1.5912  0.1604
  955SOL    HW2 2865   2.430   1.287   0.382  0.2425 -0.3397  0.2646
  956SOL     OW 2866   0.843   0.279   1.789 -0.3073 -0.7891  0.2632
  956SOL    HW1 2867   0.835   0.203   1.857 -1.2828 -2.0193 -0.9041
  956SOL    HW2 2868   0.911   0.261   1.718  1.3958  0.2847  2.2925
  957SOL     OW 2869   1.954   0.269   1.115 -0.2317 -1.0201 -0.6994
  957SOL    HW1 2870   1.875   0.296   1.175 -0.9642  0.8824  0.6457
  957SOL    HW2 2871   2.020   0.208   1.160 -2.5937  0.6620  0.7288
  958SOL     OW 2872   0.192   2.257   0.582  0.3472 -0.1378 -0.0594
  958SOL    HW1 2873   0.171   2.200   0.497 -0.3119 -1.8475 -1.2558
  958SOL    HW2 2874   0.255   2.208   0.640  0.3126  1.3658 -2.4006
  959SOL     OW 2875   2.056   1.377   1.941  0.2516  0.7851 -0.0935
  959SOL    HW1 2876   2.130   1.447   1.946  0.1445 -0.3862  0.9048
  959SOL    HW2 2877   2.089   1.302   1.885  2.4420 -0.1236  2.3838
  960SOL     OW 2878   2.928   1.975   2.864 -0.2922  0.1895 -0.1028
  960SOL    HW1 2879   2.887   2.022   2.785  0.7440 -0.1445 -2.0261
  960SOL    HW2 2880   2.963   1.885   2.831 -1.3688  2.1240 -1.1822
  961SOL     OW 2881   0.460   1.737   1.108  0.5705 -0.2140 -0.0240
  961SOL    HW1 2882   0.495   1.643   1.136 -0.7932 -0.0363 -1.7370
  961SOL    HW2 2883   0.533   1.797   1.062  1.5004  1.0166  0.5207
  962SOL     OW 2884   0.814   1.292   0.841  0.0248  0.1298  0.3750
  962SOL    HW1 2885   0.747   1.277   0.769  0.4850 -0.2369 -1.4863
  962SOL    HW2 2886   0.814   1.209   0.906 -0.0520 -1.1263 -0.9592
  963SOL     OW 2887   1.049   2.191   2.518 -0.1374 -0.3071 -0.9588
  963SOL    HW1 2888   1.119   2.141   2.458  3.6026 -0.2994  0.6034
  963SOL    HW2 2889   1.082   2.279   2.551  1.1086  0.2225 -2.2732
  964SOL     OW 2890   0.220   2.877   2.047  0.4209 -0.5637  0.1751
  964SOL    HW1 2891   0.147   2.923   1.998  2.0886 -1.8537  1.3736
  964SOL    HW2 2892   0.213   2.777   2.056 -1.4848  0.4470  1.0783
  965SOL     OW 2893   0.597   2.263   3.014  0.1719 -0.3848  0.2959
  965SOL    HW1 2894   0.620   2.269   0.045  0.7874 -1.8256 -2.8851
  965SOL    HW2 2895   0.550   2.175   2.997  2.2407 -0.1887  1.4202
  966SOL     OW 2896   2.940   1.538   3.061  0.1645 -0.1240  0.5411
  966SOL    HW1 2897   3.022   1.509   0.039 -0.6871  2.2500 -1.8494
  966SOL    HW2 2898   2.907   1.461   3.004  0.8859  1.1985 -0.0840
  967SOL     OW 2899   2.165   2.619   0.117  0.1344  0.5189  0.5845
  967SOL    HW1 2900   2.227   2.538   0.100 -0.5890 -2.2909 -1.2245
  967SOL    HW2 2901   2.144   2.633   0.217 -2.2206  2.0755  2.6792
  968SOL     OW 2902   2.184   3.029   0.932 -0.4015  0.7344  0.5101
  968SOL    HW1 2903   2.129   2.952   0.967  2.5489 -0.5861 -0.2186
  968SOL    HW2 2904   2.268   2.987   0.894 -1.4703 -1.0353  0.8605
  969SOL     OW 2905   0.330   1.163   1.965 -0.3832  0.2336 -0.0020
  969SOL    HW1 2906   0.238   1.125   1.985 -1.3417  0.0050 -1.8446
  969SOL    HW2 2907   0.383   1.098   1.913 -1.6675  1.8308  2.6880
  970SOL     OW 2908   1.642   1.252   0.519  0.0744  0.4031 -0.0455
  970SOL    HW1 2909   1.740   1.226   0.538  1.5676 -0.0825 -0.0703
  970SOL    HW2 2910   1.581   1.169   0.504  0.0747 -2.7795 -0.3346
  971SOL     OW 2911   2.619   2.807   1.494  0.2132 -0.0882 -0.2554
  971SOL    HW1 2912   2.558   2.817   1.572  3.8559 -0.0698 -0.6802
  971SOL    HW2 2913   2.562   2.831   1.413  0.3370 -0.8376 -0.0431
  972SOL     OW 2914   2.732   0.152   1.336  1.0114  0.7544  0.1898
  972SOL    HW1 2915   2.677   0.122   1.255 -0.6495  2.0463  0.6970
  972SOL    HW2 2916   2.692   0.239   1.372 -1.5402  0.2566 -0.1996
  973SOL     OW 2917   0.380   0.679   2.734  0.1522  0.1648  0.9094
  973SOL    HW1 2918   0.414   0.741   2.663 -1.4409 -3.8547  3.4797
  973SOL    HW2 2919   0.287   0.645   2.706  1.6635  0.2953  0.9108
  974SOL     OW 2920   2.306   0.891   1.926 -0.5551  0.3040  0.0447
  974SOL    HW1 2921   2.262   0.917   1.834 -0.0987  0.1472  1.8689
  974SOL    HW2 2922   2.285   0.955   2.003  2.9633 -1.1188  0.0100
  975SOL     OW 2923   1.059   0.314   1.585 -0.3378 -0.2171 -0.4905
  975SOL    HW1 2924   1.042   0.296   1.489  0.6002 -1.5097  0.1140
  975SOL    HW2 2925   1.157   0.293   1.616  1.1023 -2.8251  0.0994
  976SOL     OW 2926   1.046   1.650   1.569 -0.0782  0.2696 -0.4834
  976SOL    HW1 2927   1.110   1.691   1.504  2.0511 -1.0183  3.1110
  976SOL    HW2 2928   0.955   1.631   1.528 -1.4888 -0.0822  0.7351
  977SOL     OW 2929   1.107   2.995   0.068 -0.5430 -0.5719  0.0356
  977SOL    HW1 2930   1.092   3.046   3.051 -0.5241 -0.9222 -1.5445
  977SOL    HW2 2931   1.088   3.058   0.146 -0.1207  1.3048  0.7630
  978SOL     OW 2932   2.322   1.049   2.156 -0.0993 -0.7386  0.3191
  978SOL    HW1 2933   2.381   1.039   2.236  0.3172  0.9122  0.6276
  978SOL    HW2 2934   2.240   1.105   2.173  1.7438 -1.9059  0.1348
  979SOL     OW 2935   1.501   0.474   1.689  0.5493 -0.1445 -0.0989
  979SOL    HW1 2936   1.524   0.566   1.717  0.1604 -1.4105 -0.2169
  979SOL    HW2 2937   1.472   0.473   1.591  0.6612 -0.8949 -1.6991
  980SOL     OW 2938   1.647   1.551   1.838 -0.1341  0.7703  0.3746
  980SOL    HW1 2939   1.686   1.644   1.820  1.6433  1.8452  3.8786
  980SOL    HW2 2940   1.548   1.563   1.855  2.5220 -2.1413 -1.4384
  981SOL     OW 2941   2.206   0.764   1.388  0.8722  0.5743  0.0248
  981SOL    HW1 2942   2.103   0.772   1.379  0.0737 -0.8572  0.1285
  981SOL    HW2 2943   2.237   0.773   1.486  0.1369 -0.0610  1.7651
  982SOL     OW 2944   0.681   0.258   2.830 -0.4492  0.4357 -0.5469
  982SOL    HW1 2945   0.597   0.308   2.803 -1.2365 -1.0085  1.9231
  982SOL    HW2 2946   0.675   0.235   2.927  1.4894  1.1855 -2.2987
  983SOL     OW 2947   2.234   0.696   2.828  0.0606  0.1764 -0.3400
  983SOL    HW1 2948   2.154   0.630   2.834 -1.5896 -0.7821  1.1923
  983SOL    HW2 2949   2.223   0.771   2.889  1.3353 -4.8450  2.1137
  984SOL     OW 2950   0.847   0.104   2.012 -0.5083 -0.2965  0.2767
  984SOL    HW1 2951   0.914   0.180   2.018  2.6963  0.7231 -1.7567
  984SOL    HW2 2952   0.794   0.100   2.101 -2.1584  0.3099 -0.1693
  985SOL     OW 2953   1.625   1.854   2.015  0.7317  0.4539  0.1226
  985SOL    HW1 2954   1.723   1.841   1.990 -1.6050 -0.6014  0.3501
  985SOL    HW2 2955   1.601   1.952   1.995 -0.0996  1.2543 -1.3017
  986SOL     OW 2956   2.516   2.839   1.740  0.2017 -0.2368 -0.1331
  986SOL    HW1 2957   2.529   2.791   1.830 -0.1631  3.0424 -1.2802
  986SOL    HW2 2958   2.488   2.939   1.753  1.1695  1.5280 -0.7084
  987SOL     OW 2959   2.186   1.381   1.252 -0.0300 -0.1333  0.1895
  987SOL    HW1 2960   2.172   1.408   1.154 -0.1922  0.3973 -0.0419
  987SOL    HW2 2961   2.121   1.309   1.277  1.0055 -0.6831  2.2158
  988SOL     OW 2962   2.499   1.807   2.066  0.2407 -0.1293  0.5703
  988SOL    HW1 2963   2.588   1.849   2.047  0.0428  1.1666  1.9745
  988SOL    HW2 2964   2.424   1.874   2.045  0.0898  1.2999 -2.5311
  989SOL     OW 2965   1.261   2.604   0.013  0.1464 -0.1237  0.3097
  989SOL    HW1 2966   1.255   2.667   0.087  0.5946  1.8351  0.5664
  989SOL    HW2 2967   1.268   2.512   0.051  2.4597 -2.6848 -1.2121
  990SOL     OW 2968   1.854   1.035   2.990 -0.2253  0.4976  0.0453
  990SOL    HW1 2969   1.901   1.056   2.905  1.8069 -3.0172  0.2660
  990SOL    HW2 2970   1.764   1.000   2.961  1.2077 -0.2722  1.6443
  991SOL     OW 2971   1.110   0.629   0.574  0.1970  0.5654  0.3708
  991SOL    HW1 2972   1.071   0.691   0.507 -1.8307 -0.3890  2.8058
  991SOL    HW2 2973   1.044   0.633   0.653 -2.8257  0.2943 -1.3787
  992SOL     OW 2974   2.406   0.882   1.236 -0.0220 -0.2788 -0.2018
  992SOL    HW1 2975   2.455   0.959   1.280  1.5627 -0.6139 -2.1789
  992SOL    HW2 2976   2.339   0.843   1.301  1.2596  1.3415 -0.7426
  993SOL     OW 2977   2.496   0.763   1.668  0.5708 -0.2095  0.4012
  993SOL    HW1 2978   2.493   0.708   1.586 -0.6422  1.5795  1.7967
  993SOL    HW2 2979   2.414   0.824   1.672 -1.9963  0.5906  3.3098
  994SOL     OW 2980   0.463   1.802   2.716 -0.1922 -0.4430  0.8833
  994SOL    HW1 2981   0.378   1.824   2.766 -0.0154  0.1254 -0.9889
  994SOL    HW2 2982   0.484   1.704   2.729 -2.7907 -2.1563  2.6826
  995SOL     OW 2983   1.927   1.139   2.747  0.2454  0.3394  0.4206
  995SOL    HW1 2984   2.013   1.190   2.763 -0.7545  1.7427 -1.1004
  995SOL    HW2 2985   1.935   1.079   2.664  1.0314  0.3392  0.1560
  996SOL     OW 2986   2.221   1.613   0.322 -0.4886 -0.3242  0.4510
  996SOL    HW1 2987   2.194   1.539   0.384  0.8631 -1.5203 -0.7902
  996SOL    HW2 2988   2.273   1.683   0.375 -0.9943 -0.9531 -0.0179
  997SOL     OW 2989   2.169   0.497   2.157  0.0125 -0.6405  0.7100
  997SOL    HW1 2990   2.146   0.487   2.054 -0.6269  3.2246 -4.1855
  997SOL    HW2 2991   2.151   0.411   2.208  1.6351  0.2844 -0.6021
  998SOL     OW 2992   2.565   1.136   0.574  0.5761  0.0341 -0.1115
  998SOL    HW1 2993   2.467   1.160   0.548  1.3429  3.2419  1.5203
  998SOL    HW2 2994   2.580   1.047   0.623  0.7827  0.0935 -1.2733
  999SOL     OW 2995   2.901   1.945   0.617  0.2297 -0.2495  0.1011
  999SOL    HW1 2996   2.943   2.038   0.607 -0.3837  1.0755 -0.4244
  999SOL    HW2 2997   2.967   1.888   0.670  0.8043 -0.5042  0.7802
 1000SOL     OW 2998   0.768   0.831   2.301  0.1211  0.2715 -0.2983
 1000SOL    HW1 2999   0.823   0.840   2.387  0.1312 -0.4992  2.2356
 1000SOL    HW2 3000   0.736   0.733   2.281 -0.9702 -2.8177 -2.4824
   3.06904   3.06904   3.06904
