1000 SPC/Fw water molecules t= 175.00000 step= 175000
 3000
    1SOL     OW    1   2.604   3.028   0.945 -0.5185  0.4489  0.1180
    1SOL    HW1    2   2.538   3.106   0.952 -0.2168 -0.2238  3.1862
    1SOL    HW2    3   2.632   3.020   0.847  1.0098 -0.0247  0.1114
    2SOL     OW    4   1.673   1.753   2.139  1.0443 -0.3076  0.2529
    2SOL    HW1    5   1.579   1.734   2.096 -2.1399 -2.3089  0.9782
    2SOL    HW2    6   1.710   1.667   2.177  1.1072 -1.0330  1.5804
    3SOL     OW    7   1.807   2.544   2.290  0.4250  0.0143 -0.1990
    3SOL    HW1    8   1.863   2.605   2.231 -1.1866 -0.4159  1.4219
    3SOL    HW2    9   1.722   2.590   2.323 -0.0689 -0.0581  0.7420
    4SOL     OW   10   1.949   2.039   1.939 -0.1135  0.3899  0.0159
    4SOL    HW1   11   1.970   2.025   2.039 -0.4504  0.6807  2.2884
    4SOL    HW2   12   1.984   2.126   1.896 -0.0525  1.7977 -1.3274
    5SOL     OW   13   0.992   0.570   1.890 -0.4787 -0.0742  0.4937
    5SOL    HW1   14   1.050   0.528   1.814 -0.1965  0.6266  2.6458
    5SOL    HW2   15   0.977   0.671   1.878 -0.4681 -1.3313  1.2796
    6SOL     OW   16   2.683   0.979   2.980  0.7169 -0.1583 -0.1457
    6SOL    HW1   17   2.687   0.908   2.907 -0.3517 -0.4269 -0.1822
    6SOL    HW2   18   2.596   0.974   3.034 -2.7964 -0.5596 -0.2133
    7SOL     OW   19   1.159   1.031   1.503 -0.2916  0.3016  0.6037
    7SOL    HW1   20   1.192   0.943   1.547  0.4786 -1.5761  0.5210
    7SOL    HW2   21   1.075   1.010   1.449 -1.4295 -0.9266 -0.1770
    8SOL     OW   22   1.033   0.034   1.139 -0.3639  0.0342 -0.0612
    8SOL    HW1   23   1.060   0.093   1.217  0.5993 -0.4092  1.5850
    8SOL    HW2   24   0.942   3.129   1.150  1.7216  1.0259  0.1765
    9SOL     OW   25   0.840   0.908   0.077 -0.0326 -0.2739 -0.2902
    9SOL    HW1   26   0.757   0.958   0.049  1.0831 -2.1770  0.5002
    9SOL    HW2   27   0.870   0.918   0.175 -0.4799  0.9405 -0.0010
   10SOL     OW   28   0.554   2.922   0.147 -0.4549  0.0384 -0.3822
   10SOL    HW1   29   0.470   2.876   0.183 -0.4753  3.1487 -1.7062
   10SOL    HW2   30   0.617   2.862   0.092 -0.8672  0.5408  0.1572
   11SOL     OW   31   0.225   1.380   3.036  0.4181 -0.6667 -0.2037
   11SOL    HW1   32   0.308   1.375   2.979  1.0077  0.6842  0.5282
   11SOL    HW2   33   0.151   1.419   2.981 -0.4327 -2.1805  0.3264
   12SOL     OW   34   0.770   3.027   1.413  0.2810  0.2163  0.1321
   12SOL    HW1   35   0.861   3.048   1.451  1.2735 -0.6879 -0.3362
   12SOL    HW2   36   0.722   2.949   1.461 -1.6830 -1.6578  3.1092
   13SOL     OW   37   0.950   2.847   0.614  0.1162 -0.0068 -0.1971
   13SOL    HW1   38   1.009   2.927   0.639  0.1268  0.0698 -1.7592
   13SOL    HW2   39   0.857   2.893   0.607 -1.0225  1.9723 -1.8643
   14SOL     OW   40   1.010   2.224   1.200  0.0989 -0.4010 -0.0491
   14SOL    HW1   41   0.956   2.186   1.281  0.3659 -3.4799  2.4227
   14SOL    HW2   42   1.081   2.165   1.163  0.2499 -0.0190 -0.3503
   15SOL     OW   43   2.743   0.801   2.360 -0.1741  0.1684  0.6078
   15SOL    HW1   44   2.663   0.855   2.392  0.8892 -2.8404  0.0861
   15SOL    HW2   45   2.725   0.702   2.373  2.2277 -1.8932 -0.2899
   16SOL     OW   46   1.264   2.875   2.676 -0.1827  0.0789  0.0372
   16SOL    HW1   47   1.358   2.845   2.645 -1.2573  0.1406  1.0566
   16SOL    HW2   48   1.237   2.834   2.763  0.2490  0.8584 -0.4905
   17SOL     OW   49   1.037   3.049   1.566 -0.2584  0.1958 -0.1640
   17SOL    HW1   50   1.038   3.018   1.663  0.6095 -0.4059  1.2135
   17SOL    HW2   51   1.086   0.001   1.558  0.5928 -1.3453 -1.8895
   18SOL     OW   52   1.328   0.615   0.232  0.1779 -0.6006 -0.3259
   18SOL    HW1   53   1.345   0.577   0.142 -2.8446  1.2627  0.2985
   18SOL    HW2   54   1.307   0.543   0.299 -1.1519 -0.7919 -0.9965
   19SOL     OW   55   2.283   1.665   2.951 -0.6412  0.3874 -0.2095
   19SOL    HW1   56   2.231   1.654   3.034  0.7264  0.0820  1.2638
   19SOL    HW2   57   2.354   1.591   2.945  3.3245 -2.5908 -1.2545
   20SOL     OW   58   1.965   1.669   1.790 -0.0104  0.2031 -0.0674
   20SOL    HW1   59   2.019   1.686   1.873 -1.3214  0.9840 -2.5332
   20SOL    HW2   60   1.870   1.703   1.798 -1.4124  1.5407 -0.8584
   21SOL     OW   61   0.466   1.353   2.887  0.2799  0.1152  0.0348
   21SOL    HW1   62   0.563   1.321   2.899  0.1188  0.6554 -1.9214
   21SOL    HW2   63   0.442   1.360   2.791  3.7812 -2.6300  3.2196
   22SOL     OW   64   2.626   3.055   1.477 -0.6077 -0.0348  0.0383
   22SOL    HW1   65   2.544   3.017   1.428 -0.6509  0.5916 -0.4674
   22SOL    HW2   66   2.635   0.021   1.457 -0.9426  0.1623  0.2750
   23SOL     OW   67   2.984   0.834   1.898  0.1039 -0.4438 -0.2519
   23SOL    HW1   68   2.892   0.877   1.910 -0.6734 -2.8844  0.2546
   23SOL    HW2   69   2.984   0.784   1.805 -2.0439 -1.1925  1.2823
   24SOL     OW   70   2.602   2.183   1.576  0.2190  0.6012  0.0309
   24SOL    HW1   71   2.684   2.235   1.608 -0.6944  0.2155 -0.9248
   24SOL    HW2   72   2.576   2.118   1.650  0.0607 -1.2442  0.8280
   25SOL     OW   73   2.040   2.870   2.533 -0.0572 -0.6794 -0.1096
   25SOL    HW1   74   2.041   2.882   2.431  1.1894 -1.1117  0.9960
   25SOL    HW2   75   2.010   2.776   2.552  1.5040 -1.8039 -1.7677
   26SOL     OW   76   1.315   0.048   3.044 -0.2645 -0.4899  0.3678
   26SOL    HW1   77   1.370   3.113   3.093  1.2804 -1.1680  0.9010
   26SOL    HW2   78   1.304   0.028   2.946  1.2644 -0.0380  0.0055
   27SOL     OW   79   0.632   2.135   3.048 -0.4253 -0.0006  0.2418
   27SOL    HW1   80   0.641   2.128   0.012 -0.0062 -2.3002  0.5571
   27SOL    HW2   81   0.545   2.178   3.024 -0.7593 -0.4809  2.1276
   28SOL     OW   82   3.125   1.632   1.338  0.3775 -0.7433 -0.6367
   28SOL    HW1   83   3.085   1.545   1.305  0.3541  2.6944  0.0172
   28SOL    HW2   84   0.053   1.661   1.270  1.6571 -4.5232  3.7613
   29SOL     OW   85   2.701   2.009   2.157  0.0414 -0.1334 -0.0506
   29SOL    HW1   86   2.632   1.948   2.201 -1.8738 -0.5674  1.5812
   29SOL    HW2   87   2.791   1.965   2.143  2.9345  1.0827  0.2710
   30SOL     OW   88   1.124   2.970   0.960 -0.1573 -0.1124  0.1434
   30SOL    HW1   89   1.081   2.878   0.953  0.2899  0.7172  0.2192
   30SOL    HW2   90   1.092   3.028   1.041 -0.5613  3.3154 -0.7947
   31SOL     OW   91   0.036   2.307   2.035 -0.2672  0.4110  0.4391
   31SOL    HW1   92   0.006   2.380   1.972 -2.2466 -0.8383 -1.8863
   31SOL    HW2   93   0.129   2.267   2.022 -0.5457 -1.4301  2.8423
   32SOL     OW   94   1.511   1.077   1.733  0.6994 -0.5068 -0.4076
   32SOL    HW1   95   1.476   1.138   1.660 -1.0464  1.2089 -1.2972
   32SOL    HW2   96   1.473   1.113   1.821 -0.5925  0.9287  0.6422
   33SOL     OW   97   0.115   2.588   2.199 -0.1081 -0.0002 -0.2261
   33SOL    HW1   98   0.089   2.652   2.124  0.1431  0.8228  1.1566
   33SOL    HW2   99   0.212   2.557   2.190  0.5174 -1.5214 -0.7113
   34SOL     OW  100   1.973   0.077   0.862 -0.0864 -0.0648  0.3489
   34SOL    HW1  101   1.871   0.074   0.843  1.2077 -0.4071 -1.0294
   34SOL    HW2  102   2.016   0.157   0.816  2.5858 -1.5761  0.9194
   35SOL     OW  103   2.314   0.779   1.460 -0.3697 -0.0149 -0.3686
   35SOL    HW1  104   2.261   0.854   1.423  0.5400 -0.2137 -1.4464
   35SOL    HW2  105   2.398   0.812   1.505  0.3470  0.7006 -0.2891
   36SOL     OW  106   2.434   2.441   2.131 -0.4315 -0.5178 -0.1575
   36SOL    HW1  107   2.495   2.385   2.185 -3.6178  0.7446  0.5671
   36SOL    HW2  108   2.360   2.379   2.107  1.1650 -0.7351  0.1982
   37SOL     OW  109   0.939   2.339   2.407 -0.4812 -0.1615  0.0987
   37SOL    HW1  110   1.027   2.386   2.436  2.1226  0.3693  0.4835
   37SOL    HW2  111   0.882   2.352   2.489 -0.4666  0.6387  3.0430
   38SOL     OW  112   2.481   0.398   0.003  0.4147 -0.6088 -0.0994
   38SOL    HW1  113   2.507   0.302   3.112  0.2666 -1.9801  2.4015
   38SOL    HW2  114   2.381   0.412   3.136  0.4216 -0.5217  0.9324
   39SOL     OW  115   2.158   1.668   2.007 -0.3351 -0.5662 -0.3247
   39SOL    HW1  116   2.244   1.623   1.982  0.0259  2.0232  0.5021
   39SOL    HW2  117   2.084   1.598   2.012  2.0101 -2.8127  0.8528
   40SOL     OW  118   0.047   2.915   2.591  0.1874 -0.1098 -0.0235
   40SOL    HW1  119   3.104   2.854   2.594  0.9514 -2.6385 -2.1937
   40SOL    HW2  120   0.120   2.860   2.543 -1.9519 -0.6271  0.9787
   41SOL     OW  121   1.920   0.601   1.206  0.0418 -0.2739  0.3240
   41SOL    HW1  122   1.990   0.533   1.181 -0.4095  1.9569  1.1836
   41SOL    HW2  123   1.840   0.585   1.140 -0.3588 -2.1774 -2.1379
   42SOL     OW  124   1.047   0.283   1.871  0.6761 -0.3268  0.3134
   42SOL    HW1  125   1.055   0.375   1.913  0.4575 -0.1317  1.5009
   42SOL    HW2  126   0.949   0.252   1.864 -2.0113 -0.1924  2.8131
   43SOL     OW  127   2.026   0.830   1.922  0.1987  0.7733  0.1577
   43SOL    HW1  128   2.123   0.841   1.961  0.5461  0.1648  1.6790
   43SOL    HW2  129   1.980   0.920   1.886  1.0123  0.9371 -4.6098
   44SOL     OW  130   0.177   2.862   0.102  0.5482 -0.0552  0.2741
   44SOL    HW1  131   0.121   2.785   0.070  1.0183 -0.8089  0.1339
   44SOL    HW2  132   0.191   2.929   0.026 -2.6950 -2.2140  0.8770
   45SOL     OW  133   0.241   2.388   1.759 -0.1069  0.3715 -0.0800
   45SOL    HW1  134   0.143   2.411   1.772  0.0953  0.3266 -1.3319
   45SOL    HW2  135   0.293   2.467   1.722  0.0791 -0.7898  1.1149
   46SOL     OW  136   2.093   2.253   2.333  0.3009  0.4793  0.5654
   46SOL    HW1  137   2.165   2.201   2.393 -0.8207 -1.8739  0.8506
   46SOL    HW2  138   2.142   2.284   2.248  1.5007  0.2145  0.6663
   47SOL     OW  139   1.558   2.219   1.575 -0.0636 -0.2096 -0.1834
   47SOL    HW1  140   1.576   2.321   1.584  2.9519  1.0337  0.7707
   47SOL    HW2  141   1.460   2.195   1.557  0.9202 -0.0920 -1.6104
   48SOL     OW  142   0.471   1.547   0.465 -0.4770  0.0034 -0.6121
   48SOL    HW1  143   0.558   1.604   0.465  0.5251  2.0188  1.3277
   48SOL    HW2  144   0.416   1.543   0.553  1.7959  1.3445  2.9038
   49SOL     OW  145   2.766   0.425   2.631  0.4540  0.4397 -0.4783
   49SOL    HW1  146   2.791   0.500   2.698  2.4452 -0.2530 -0.4199
   49SOL    HW2  147   2.805   0.442   2.543 -2.0007 -2.3193 -0.0682
   50SOL     OW  148   2.001   0.751   0.696 -0.1919  0.1307 -0.0080
   50SOL    HW1  149   1.954   0.831   0.662 -1.0994 -1.6427  1.1835
   50SOL    HW2  150   2.092   0.787   0.730  1.0267  0.1501 -2.3607
   51SOL     OW  151   1.436   0.659   0.901  0.2476  0.2709 -0.0180
   51SOL    HW1  152   1.407   0.574   0.945  1.4373  1.1426 -3.4672
   51SOL    HW2  153   1.386   0.665   0.814 -1.0093 -1.9932 -0.6174
   52SOL     OW  154   1.368   1.249   3.115 -0.4146  0.0478  0.3538
   52SOL    HW1  155   1.331   1.210   0.063 -0.8753 -0.0471  2.3154
   52SOL    HW2  156   1.384   1.351   3.132  0.2793  1.6334 -2.3121
   53SOL     OW  157   1.134   2.015   2.878 -0.1948  0.4239  0.7690
   53SOL    HW1  158   1.043   2.058   2.902 -1.2646  1.7279 -2.7214
   53SOL    HW2  159   1.193   2.076   2.828  1.7137 -1.3394 -0.0056
   54SOL     OW  160   2.148   0.462   1.167  0.7111  0.1561 -0.0626
   54SOL    HW1  161   2.213   0.537   1.148 -1.7813  1.6000 -0.1308
   54SOL    HW2  162   2.162   0.431   1.263 -1.5298  0.3264 -0.7318
   55SOL     OW  163   2.307   2.700   0.668 -0.0069 -0.0306 -0.3610
   55SOL    HW1  164   2.404   2.717   0.639  0.3943  1.5254  0.2672
   55SOL    HW2  165   2.257   2.702   0.581 -1.0146  1.7265 -0.9077
   56SOL     OW  166   0.658   2.779   1.575  0.6463  0.2691  0.4213
   56SOL    HW1  167   0.711   2.699   1.538 -0.0057 -1.9011 -1.6715
   56SOL    HW2  168   0.668   2.770   1.677 -2.8714 -0.4734 -0.1881
   57SOL     OW  169   1.714   1.446   0.389  0.0485  0.6564 -0.2315
   57SOL    HW1  170   1.688   1.354   0.361  0.9246  1.7161 -2.1454
   57SOL    HW2  171   1.811   1.455   0.412 -1.5015 -1.5619  2.8634
   58SOL     OW  172   0.232   0.913   2.134 -0.2834  0.3041 -0.4168
   58SOL    HW1  173   0.167   0.964   2.076  1.9977  0.1056  1.2952
   58SOL    HW2  174   0.182   0.844   2.190  1.4203  1.7293 -0.3894
   59SOL     OW  175   1.013   2.883   2.262 -0.2050 -0.2738 -0.3644
   59SOL    HW1  176   1.032   2.883   2.358 -0.1534 -0.0003 -3.0580
   59SOL    HW2  177   1.071   2.960   2.229  0.6151 -0.4195  0.2531
   60SOL     OW  178   2.376   2.609   1.036  0.2490  0.0112 -0.3070
   60SOL    HW1  179   2.297   2.597   0.970 -1.9736 -1.6628  1.1811
   60SOL    HW2  180   2.340   2.641   1.126 -0.8582  0.4512 -0.5098
   61SOL     OW  181   1.112   2.017   0.920  0.5926 -0.4292 -0.2678
   61SOL    HW1  182   1.013   2.001   0.916 -0.3335 -1.3462  1.5071
   61SOL    HW2  183   1.127   2.117   0.921  0.6032 -0.3820  0.4511
   62SOL     OW  184   2.215   2.692   2.763  0.1282 -0.0195 -0.0615
   62SOL    HW1  185   2.161   2.641   2.836  0.7443  0.0564 -1.0949
   62SOL    HW2  186   2.259   2.772   2.803 -2.3991 -3.3603 -4.4797
   63SOL     OW  187   2.242   0.603   3.029 -0.0178 -0.0231 -0.4644
   63SOL    HW1  188   2.137   0.606   3.038 -0.3001  0.5933  0.4728
   63SOL    HW2  189   2.291   0.591   3.119  0.8830  0.2722 -0.4412
   64SOL     OW  190   1.030   0.877   3.040 -0.0446 -0.1131 -0.6870
   64SOL    HW1  191   1.081   0.965   3.033 -0.9092 -4.0720  1.1992
   64SOL    HW2  192   0.961   0.883   3.115 -2.3162 -0.9971 -0.1671
   65SOL     OW  193   1.145   2.441   0.410 -0.1688 -0.0072  0.1803
   65SOL    HW1  194   1.152   2.542   0.383  0.7153  1.1974  1.1677
   65SOL    HW2  195   1.152   2.429   0.512  0.6603  1.0899 -2.2066
   66SOL     OW  196   0.830   1.267   1.671 -0.2358 -0.1300 -0.5158
   66SOL    HW1  197   0.876   1.181   1.670 -4.4248 -0.0496  0.5719
   66SOL    HW2  198   0.820   1.302   1.769 -2.8826  0.5724 -3.6437
   67SOL     OW  199   2.333   2.958   2.519  0.5094 -0.7296  0.5181
   67SOL    HW1  200   2.243   2.933   2.477  0.5529  1.4615  0.7689
   67SOL    HW2  201   2.365   3.045   2.474 -0.3328 -1.1540 -1.6135
   68SOL     OW  202   0.712   1.476   1.269  0.1472  0.0763 -0.2122
   68SOL    HW1  203   0.798   1.507   1.326  3.4507  1.2880  0.5046
   68SOL    HW2  204   0.718   1.375   1.257  1.5248  1.7570  0.7372
   69SOL     OW  205   1.400   2.350   0.301 -0.2162 -0.2842 -0.0585
   69SOL    HW1  206   1.325   2.374   0.362  1.6804  2.1592  1.2784
   69SOL    HW2  207   1.495   2.355   0.340  1.9252 -0.0425 -1.9978
   70SOL     OW  208   0.012   1.035   2.467  0.5188 -0.2621  0.1496
   70SOL    HW1  209   3.077   1.069   2.529  1.0646 -3.6167  1.1615
   70SOL    HW2  210   0.003   0.935   2.449 -0.5490  1.7464 -0.7987
   71SOL     OW  211   3.095   1.810   2.654  0.6206  0.4680 -0.0736
   71SOL    HW1  212   3.136   1.753   2.582 -2.6240  1.7807  1.1278
   71SOL    HW2  213   0.014   1.813   2.734  0.0767 -0.8143 -1.2171
   72SOL     OW  214   2.947   2.277   0.461 -0.7490 -0.1195 -0.0938
   72SOL    HW1  215   2.926   2.207   0.533  1.0053  1.5972 -0.8988
   72SOL    HW2  216   2.889   2.271   0.380  1.8784 -1.7536 -1.9814
   73SOL     OW  217   0.669   1.720   0.446  0.0596 -0.4581 -0.2438
   73SOL    HW1  218   0.640   1.820   0.438  1.2683  0.7986 -0.3691
   73SOL    HW2  219   0.733   1.693   0.369 -0.1200  0.4720 -2.0315
   74SOL     OW  220   0.022   1.430   2.595 -0.0969  0.1608  0.0337
   74SOL    HW1  221   0.027   1.498   2.522  2.3855  0.1324  0.4024
   74SOL    HW2  222   0.053   1.343   2.560 -1.3640  3.4046 -0.1234
   75SOL     OW  223   1.670   1.510   1.699 -0.3307 -0.5279  0.1763
   75SOL    HW1  224   1.703   1.605   1.692  0.9455  0.5269 -1.7879
   75SOL    HW2  225   1.568   1.514   1.698 -1.4744  1.9604  1.1525
   76SOL     OW  226   1.879   2.515   1.400 -0.6514 -0.5576  0.0939
   76SOL    HW1  227   1.963   2.559   1.362 -1.6439  2.1375 -2.4183
   76SOL    HW2  228   1.839   2.449   1.334 -0.6942 -1.1811  1.3931
   77SOL     OW  229   2.666   1.089   1.187 -0.2108 -0.0927  0.6629
   77SOL    HW1  230   2.745   1.050   1.236 -1.6828  0.5923  0.6857
   77SOL    HW2  231   2.606   1.012   1.154  2.5184 -0.8171 -0.4921
   78SOL     OW  232   1.342   1.018   0.519 -0.0178 -0.4101 -0.2375
   78SOL    HW1  233   1.342   1.107   0.569  3.2027  1.0433 -0.0049
   78SOL    HW2  234   1.437   0.988   0.501 -1.9310  1.2460 -1.0481
   79SOL     OW  235   3.136   1.619   1.831  0.1351 -0.3112  0.9304
   79SOL    HW1  236   3.129   1.607   1.729  0.5492  0.0299 -1.1114
   79SOL    HW2  237   3.067   1.558   1.877 -0.8482  2.0751  0.4286
   80SOL     OW  238   1.634   0.863   1.398  0.5094  0.9051  0.4019
   80SOL    HW1  239   1.650   0.783   1.458  1.5256  1.7420 -0.2277
   80SOL    HW2  240   1.532   0.871   1.382 -0.9707  0.8996 -0.7715
   81SOL     OW  241   0.644   0.137   0.996 -0.3093  0.0014  0.0986
   81SOL    HW1  242   0.690   0.133   0.902  0.7048 -0.5070 -0.8228
   81SOL    HW2  243   0.540   0.127   0.983 -3.3113 -1.1274  0.3117
   82SOL     OW  244   1.524   2.889   1.612  0.2134 -0.4503 -0.4873
   82SOL    HW1  245   1.490   2.963   1.552  0.2051 -0.1462  0.0399
   82SOL    HW2  246   1.599   2.831   1.570  1.5064  1.9842 -1.2217
   83SOL     OW  247   0.765   2.272   1.064 -0.0146  0.1177  0.2016
   83SOL    HW1  248   0.721   2.180   1.046 -1.0628 -3.0119 -2.1296
   83SOL    HW2  249   0.844   2.264   1.126  0.2839 -1.7691  1.4480
   84SOL     OW  250   0.384   1.364   2.635 -0.0963  0.2291 -0.2057
   84SOL    HW1  251   0.306   1.353   2.572 -0.5147  2.1616 -0.1484
   84SOL    HW2  252   0.436   1.447   2.615 -0.0491  2.4713 -1.2058
   85SOL     OW  253   0.125   2.343   1.466  0.4655 -0.4016 -0.3197
   85SOL    HW1  254   0.038   2.389   1.434  0.3194 -0.9226 -3.8826
   85SOL    HW2  255   0.198   2.409   1.487 -0.5091  0.3520  0.1078
   86SOL     OW  256   2.380   2.234   1.419 -0.2453  0.4872  0.0011
   86SOL    HW1  257   2.452   2.191   1.481  0.2844 -1.6611  1.4315
   86SOL    HW2  258   2.386   2.339   1.409 -0.4409  1.4601  1.4303
   87SOL     OW  259   2.783   2.257   0.240 -0.1952  0.0444  0.3308
   87SOL    HW1  260   2.718   2.188   0.283 -1.5935  2.9345 -0.5988
   87SOL    HW2  261   2.820   2.216   0.149 -0.7895 -0.9460 -1.3764
   88SOL     OW  262   0.487   1.445   1.068  0.8625 -0.0995 -0.8672
   88SOL    HW1  263   0.422   1.525   1.074  2.3243  2.3975  0.6427
   88SOL    HW2  264   0.559   1.443   1.142  1.3862  2.1613  3.3810
   89SOL     OW  265   1.100   2.976   1.814  0.3471  0.2520  0.1094
   89SOL    HW1  266   1.166   2.897   1.802  1.6617 -2.5634  2.4269
   89SOL    HW2  267   1.137   3.058   1.855  1.7559 -0.7097 -2.0922
   90SOL     OW  268   3.028   1.900   1.440  0.0264  0.3196  0.1668
   90SOL    HW1  269   2.984   1.885   1.530 -1.0459 -0.7340 -2.4857
   90SOL    HW2  270   3.043   1.809   1.397 -2.5805 -2.1975 -0.2571
   91SOL     OW  271   1.391   1.970   1.179 -0.1592  0.4661  0.4642
   91SOL    HW1  272   1.292   1.962   1.177  1.3050 -3.5538  0.7057
   91SOL    HW2  273   1.421   1.905   1.255  1.2980  1.0091  0.9483
   92SOL     OW  274   2.402   2.507   1.351 -0.6959 -0.3678 -0.6733
   92SOL    HW1  275   2.399   2.589   1.413 -0.1250 -0.8974 -0.6906
   92SOL    HW2  276   2.500   2.493   1.320 -0.4571 -3.7098 -0.8806
   93SOL     OW  277   2.620   1.697   2.750 -0.1904 -0.4386 -0.1493
   93SOL    HW1  278   2.625   1.600   2.728  1.2403 -0.0555  1.2861
   93SOL    HW2  279   2.706   1.747   2.740  0.0497 -0.1541  2.6309
   94SOL     OW  280   2.722   2.854   2.074  0.2102  0.6655 -0.9316
   94SOL    HW1  281   2.671   2.817   2.154  0.0568 -4.2396 -1.2531
   94SOL    HW2  282   2.694   2.801   1.990 -1.3911 -0.8762  0.4068
   95SOL     OW  283   1.669   0.163   1.757 -0.1998 -0.0574  0.2497
   95SOL    HW1  284   1.744   0.224   1.790  2.2269 -0.5746  0.6675
   95SOL    HW2  285   1.701   0.067   1.737 -0.1277  1.1136  0.7817
   96SOL     OW  286   3.059   2.888   1.497 -0.5753  0.3615 -0.1683
   96SOL    HW1  287   2.986   2.907   1.425  1.3086 -0.4004 -0.1456
   96SOL    HW2  288   3.127   2.823   1.455  1.3747  0.9877  0.2439
   97SOL     OW  289   2.275   0.360   1.499 -0.1537 -0.2127  0.2286
   97SOL    HW1  290   2.189   0.364   1.557 -3.3343 -0.0697  0.3973
   97SOL    HW2  291   2.359   0.406   1.543  2.8828  0.1008 -0.2316
   98SOL     OW  292   1.377   2.442   1.855 -0.1039 -0.3130  0.6181
   98SOL    HW1  293   1.350   2.527   1.807 -0.2785  2.1825 -2.1165
   98SOL    HW2  294   1.322   2.362   1.817 -1.4864 -2.0860  2.4246
   99SOL     OW  295   0.118   0.024   1.846  0.0327 -0.4420 -0.0050
   99SOL    HW1  296   0.155   3.068   1.817 -0.2660  0.6744  2.8558
   99SOL    HW2  297   0.081   0.021   1.944 -0.1868 -0.8415  1.4963
  100SOL     OW  298   3.001   1.136   2.232 -0.1724  0.0285  0.3684
  100SOL    HW1  299   3.015   1.236   2.239 -0.0698  3.0761 -0.7780
  100SOL    HW2  300   3.041   1.087   2.314  1.0540 -0.9140  2.6025
  101SOL     OW  301   1.785   0.530   0.240  0.4131 -0.3182  0.4947
  101SOL    HW1  302   1.824   0.556   0.332  1.2820  0.6511 -0.6073
  101SOL    HW2  303   1.833   0.456   0.186 -0.0709 -0.2200 -2.8106
  102SOL     OW  304   3.132   0.630   1.414  0.1415 -0.3096 -0.0367
  102SOL    HW1  305   3.070   0.595   1.345  2.4277  2.1358 -0.1274
  102SOL    HW2  306   0.054   0.692   1.358 -0.1373  0.3278 -1.2153
  103SOL     OW  307   2.376   0.785   2.876  0.3150  0.2541  0.0089
  103SOL    HW1  308   2.335   0.714   2.936  0.6629 -2.3324 -0.1711
  103SOL    HW2  309   2.305   0.850   2.848  3.0535 -2.1121 -1.2805
  104SOL     OW  310   0.023   0.092   2.321  0.9701 -0.1694 -0.0077
  104SOL    HW1  311   3.084   0.075   2.391  2.2415 -0.4462 -0.8150
  104SOL    HW2  312   0.121   0.084   2.356 -1.3177 -1.4461 -1.2362
  105SOL     OW  313   2.215   1.032   1.627 -0.2892 -0.3413  0.4699
  105SOL    HW1  314   2.225   1.023   1.524  2.1076  0.1863  0.7034
  105SOL    HW2  315   2.160   1.113   1.652  0.6377  2.8278 -0.9051
  106SOL     OW  316   1.137   3.068   0.685 -0.0577 -0.2320 -0.1238
  106SOL    HW1  317   1.162   0.031   0.676  1.2883  0.3685 -1.2946
  106SOL    HW2  318   1.145   3.038   0.782  0.7380  2.2559 -1.4214
  107SOL     OW  319   0.081   1.458   0.828 -0.2767 -0.2805 -0.4508
  107SOL    HW1  320   0.086   1.504   0.917 -3.7727 -0.7230  0.2346
  107SOL    HW2  321   0.157   1.496   0.771  0.8412  2.4339 -1.2280
  108SOL     OW  322   0.289   0.103   2.458 -0.2536 -1.2204 -0.3534
  108SOL    HW1  323   0.236   0.099   2.544  1.7847  1.8942 -1.9698
  108SOL    HW2  324   0.362   0.176   2.462  3.4296  1.6048  1.6332
  109SOL     OW  325   2.676   0.360   0.504  0.0231  0.1907 -0.1519
  109SOL    HW1  326   2.613   0.363   0.423  0.6451  2.0486  0.1437
  109SOL    HW2  327   2.767   0.337   0.468 -1.9905  0.4560 -3.0577
  110SOL     OW  328   0.341   2.442   2.835  0.0398  0.1915 -0.1878
  110SOL    HW1  329   0.260   2.405   2.789 -2.9882  1.0077  0.7941
  110SOL    HW2  330   0.408   2.479   2.771 -2.0778 -0.4592  3.0811
  111SOL     OW  331   1.831   2.944   1.965  0.3523 -0.0442 -0.1979
  111SOL    HW1  332   1.800   2.985   1.875 -0.2988 -0.1318  1.2726
  111SOL    HW2  333   1.851   3.024   2.027 -0.3753  0.2616  1.3821
  112SOL     OW  334   2.078   2.640   2.997  0.1691  0.4945 -0.1329
  112SOL    HW1  335   2.032   2.572   3.054  0.5131  1.0042  0.4334
  112SOL    HW2  336   2.039   2.732   3.014  0.4170 -1.3860  0.0940
  113SOL     OW  337   2.695   2.132   1.922 -0.1464  0.0535  0.0030
  113SOL    HW1  338   2.699   2.088   2.014 -0.3577  0.1121  0.5578
  113SOL    HW2  339   2.756   2.216   1.922 -1.8691  4.8350  1.4582
  114SOL     OW  340   2.507   0.892   1.039 -0.2224 -0.2668  0.2512
  114SOL    HW1  341   2.412   0.910   1.058  0.2365  0.3409  1.5942
  114SOL    HW2  342   2.514   0.863   0.938 -1.5990 -1.6187 -0.2350
  115SOL     OW  343   0.147   1.810   2.874  0.1733  0.2207 -0.1190
  115SOL    HW1  344   0.236   1.759   2.868  0.2783  1.5287  1.0084
  115SOL    HW2  345   0.162   1.911   2.891  0.8570  1.9453  1.0693
  116SOL     OW  346   0.173   1.444   1.988 -0.2170 -0.0299  0.3801
  116SOL    HW1  347   0.276   1.443   1.973  2.3919 -0.9838 -0.8214
  116SOL    HW2  348   0.125   1.525   1.943  2.2674  2.8883 -1.0151
  117SOL     OW  349   2.436   0.123   1.009  0.0296 -0.2199  0.2641
  117SOL    HW1  350   2.398   0.134   1.101 -0.8909 -0.1841 -0.5964
  117SOL    HW2  351   2.386   0.176   0.941  0.2010  2.0062 -0.6437
  118SOL     OW  352   0.524   2.089   1.574 -0.2691  0.2971 -0.1634
  118SOL    HW1  353   0.530   2.091   1.471  0.4449  0.4820 -1.6544
  118SOL    HW2  354   0.607   2.054   1.615 -2.9492  0.8233 -1.4368
  119SOL     OW  355   1.677   2.087   0.532 -0.1337 -0.5102 -0.1745
  119SOL    HW1  356   1.747   2.114   0.601 -0.4739  0.1087 -1.2052
  119SOL    HW2  357   1.709   2.001   0.489 -1.8869 -0.2769 -0.0653
  120SOL     OW  358   0.343   1.697   2.566  0.1277  0.1810  0.8718
  120SOL    HW1  359   0.331   1.756   2.649  1.8766  0.3643 -0.0578
  120SOL    HW2  360   0.424   1.724   2.505  1.0493 -4.3591 -3.5649
  121SOL     OW  361   2.141   2.118   1.531  0.1305  0.2630 -0.0792
  121SOL    HW1  362   2.141   2.021   1.518  1.5765  1.9573 -0.5413
  121SOL    HW2  363   2.220   2.162   1.483  1.7537  0.2745 -0.0822
  122SOL     OW  364   2.259   1.876   2.204  0.5115  0.1411  0.1993
  122SOL    HW1  365   2.330   1.832   2.261  0.5335  2.2096 -1.8473
  122SOL    HW2  366   2.217   1.806   2.146  0.6934  0.7653  1.0544
  123SOL     OW  367   0.035   2.933   0.751 -0.2659 -0.2871  0.3595
  123SOL    HW1  368   3.107   2.859   0.732 -0.6509 -1.2859 -1.2216
  123SOL    HW2  369   3.127   3.025   0.748  0.2970  1.4047 -2.8885
  124SOL     OW  370   1.700   0.778   2.333  0.1889 -0.6584  0.3472
  124SOL    HW1  371   1.691   0.847   2.256  0.3497  1.8167 -0.1344
  124SOL    HW2  372   1.755   0.698   2.303 -1.6631  1.5116 -2.0484
  125SOL     OW  373   0.348   1.393   0.159  0.3691  0.0257  0.1723
  125SOL    HW1  374   0.287   1.388   0.079  1.8949 -2.6701  0.3885
  125SOL    HW2  375   0.413   1.317   0.163 -0.2844  1.2912 -0.1080
  126SOL     OW  376   2.644   2.101   0.413  0.0738 -0.0630  0.2047
  126SOL    HW1  377   2.564   2.094   0.351 -2.2342 -0.0384  0.6825
  126SOL    HW2  378   2.618   2.145   0.501 -1.7755  2.2633  0.7782
  127SOL     OW  379   0.338   1.678   1.112  0.4285 -0.2370 -0.7979
  127SOL    HW1  380   0.248   1.682   1.067 -1.1618  0.2904  0.3410
  127SOL    HW2  381   0.334   1.674   1.218  0.6457  0.3468  3.0936
  128SOL     OW  382   0.735   0.601   3.099 -0.1198  0.3033 -0.0856
  128SOL    HW1  383   0.727   0.567   2.999  0.9311 -0.3398 -0.8131
  128SOL    HW2  384   0.828   0.580   3.134 -1.5067 -1.3426 -0.3264
  129SOL     OW  385   2.277   1.527   0.677 -0.2014 -0.4452 -0.3432
  129SOL    HW1  386   2.312   1.435   0.664 -1.8606 -1.2477  2.6261
  129SOL    HW2  387   2.175   1.518   0.689 -0.2966 -1.0231  1.4808
  130SOL     OW  388   2.200   1.839   1.178  0.1424  0.4037  0.4071
  130SOL    HW1  389   2.221   1.940   1.154  1.2425  2.2400 -0.7973
  130SOL    HW2  390   2.120   1.804   1.118 -1.7685 -1.9053 -1.5202
  131SOL     OW  391   2.842   1.196   2.920 -0.3590  0.2241  0.1143
  131SOL    HW1  392   2.775   1.117   2.913 -2.1687 -0.8487 -1.5216
  131SOL    HW2  393   2.935   1.163   2.947  0.3290  0.5457  0.7105
  132SOL     OW  394   2.824   1.705   1.971 -0.3543 -0.6680  1.0383
  132SOL    HW1  395   2.873   1.783   2.003 -5.9034 -2.1079 -0.3928
  132SOL    HW2  396   2.876   1.618   1.954 -1.1249  0.9970 -0.6771
  133SOL     OW  397   2.956   0.669   0.557 -0.1790 -0.0529 -0.0264
  133SOL    HW1  398   3.052   0.647   0.532 -0.4261  0.0599 -1.2946
  133SOL    HW2  399   2.919   0.598   0.623 -0.5497 -0.9360  0.3879
  134SOL     OW  400   0.308   0.919   0.254 -0.0141  1.3577 -0.2958
  134SOL    HW1  401   0.278   0.819   0.256 -0.9788  0.6114 -0.0229
  134SOL    HW2  402   0.240   0.970   0.199  0.7188 -2.1865 -1.4296
  135SOL     OW  403   1.960   1.740   0.755 -0.0529 -0.0147 -0.4353
  135SOL    HW1  404   1.972   1.632   0.741 -0.9257 -0.7556  1.2421
  135SOL    HW2  405   1.967   1.791   0.666 -0.7019 -1.7233 -0.3408
  136SOL     OW  406   2.032   1.461   1.060  0.6767 -0.3347 -0.0528
  136SOL    HW1  407   2.050   1.438   1.159 -0.7321 -4.1161  1.3472
  136SOL    HW2  408   2.003   1.560   1.047 -1.4955  0.4428  0.6558
  137SOL     OW  409   2.631   1.695   0.760  0.2925  0.1051  0.3482
  137SOL    HW1  410   2.535   1.690   0.791 -0.2388  4.0033  1.9742
  137SOL    HW2  411   2.679   1.774   0.813  1.0620 -0.5386  2.6855
  138SOL     OW  412   1.598   0.539   1.820  0.3095 -0.0774 -0.4482
  138SOL    HW1  413   1.656   0.555   1.902  3.7405 -0.7420  0.4007
  138SOL    HW2  414   1.644   0.576   1.740  0.0406 -3.5742  0.3289
  139SOL     OW  415   1.952   0.021   3.069 -0.3977  0.0298  0.3307
  139SOL    HW1  416   1.974   0.100   3.009 -1.8234 -1.1789 -1.1471
  139SOL    HW2  417   2.000   0.027   0.022 -0.1100  2.0699 -0.7664
  140SOL     OW  418   1.338   2.148   2.434 -0.0584 -0.2494 -0.7160
  140SOL    HW1  419   1.337   2.048   2.414  1.4140  1.8468  2.3912
  140SOL    HW2  420   1.392   2.194   2.363  0.4244  2.8709 -2.4175
  141SOL     OW  421   1.264   1.392   1.772  0.2136 -0.6908  0.4338
  141SOL    HW1  422   1.304   1.333   1.700 -2.1065  4.4674 -0.0639
  141SOL    HW2  423   1.166   1.413   1.757 -1.7588 -0.3515 -1.9869
  142SOL     OW  424   2.585   0.162   3.052  0.4214 -0.2251  0.3580
  142SOL    HW1  425   2.545   0.074   3.081 -1.3510  1.3272  0.2114
  142SOL    HW2  426   2.685   0.144   3.029 -1.3898 -2.0493  0.8447
  143SOL     OW  427   0.745   2.506   2.878  0.2759 -0.0232  0.2038
  143SOL    HW1  428   0.712   2.480   2.973 -0.1742 -1.5618  2.3139
  143SOL    HW2  429   0.819   2.576   2.895  1.3414 -0.7241  0.7710
  144SOL     OW  430   0.931   2.866   2.005 -0.3693 -0.2689  0.3436
  144SOL    HW1  431   0.956   2.857   2.100 -2.5694  0.5979 -1.8362
  144SOL    HW2  432   1.009   2.893   1.944 -0.5351  1.8239 -2.5396
  145SOL     OW  433   2.580   1.528   0.362 -0.2674  0.3012  0.4045
  145SOL    HW1  434   2.607   1.440   0.317  0.6971  1.4402 -0.4010
  145SOL    HW2  435   2.662   1.591   0.378 -0.6556  1.4589  1.5160
  146SOL     OW  436   2.636   2.938   2.793 -0.2682 -0.0450  0.7371
  146SOL    HW1  437   2.612   3.035   2.767 -0.5221  2.6214  1.2050
  146SOL    HW2  438   2.633   2.912   2.889  0.8648 -0.0274 -1.3675
  147SOL     OW  439   2.567   2.393   1.004 -0.1194  0.0450  0.0498
  147SOL    HW1  440   2.623   2.402   1.088 -0.4528 -0.1575  1.6858
  147SOL    HW2  441   2.505   2.471   0.989  0.5798  2.1473  0.1416
  148SOL     OW  442   1.698   0.140   3.062 -0.1623  0.0762  0.6602
  148SOL    HW1  443   1.652   0.186   0.004 -1.2930 -0.2880 -2.4493
  148SOL    HW2  444   1.781   0.092   3.095 -0.9566 -0.8443 -0.1272
  149SOL     OW  445   0.971   1.310   2.851  0.1533 -0.0876 -0.0966
  149SOL    HW1  446   0.975   1.228   2.916  0.9114 -0.2440  0.7687
  149SOL    HW2  447   1.050   1.302   2.783 -0.1015 -1.8854 -1.4371
  150SOL     OW  448   1.054   2.587   0.662 -0.4733 -0.2499 -0.5470
  150SOL    HW1  449   1.031   2.669   0.606  0.1836 -0.6466  0.3025
  150SOL    HW2  450   0.983   2.516   0.653  1.3866  1.1039  2.2389
  151SOL     OW  451   0.337   2.157   0.076 -0.1061 -0.5319  0.7032
  151SOL    HW1  452   0.338   2.062   0.104  3.6725  1.3746 -0.9956
  151SOL    HW2  453   0.353   2.170   3.112  0.8796  3.5399 -2.7221
  152SOL     OW  454   3.072   1.030   0.655  0.2627  0.5421  0.4306
  152SOL    HW1  455   2.988   1.038   0.714 -0.2536  0.2922  2.0496
  152SOL    HW2  456   3.098   0.935   0.637 -0.7282 -0.0437 -1.3376
  153SOL     OW  457   2.564   2.590   3.100  0.1194  0.3487  0.3936
  153SOL    HW1  458   2.630   2.580   0.045  2.8516  0.0057 -1.3043
  153SOL    HW2  459   2.610   2.551   3.015  1.1701 -2.4086  0.0775
  154SOL     OW  460   0.407   0.265   1.215  0.7363 -0.3237 -0.1333
  154SOL    HW1  461   0.323   0.216   1.191 -2.3345 -0.6716 -0.1738
  154SOL    HW2  462   0.476   0.197   1.242  0.0847  0.8745 -1.2886
  155SOL     OW  463   0.161   2.082   1.081  0.0385 -0.0520 -0.2740
  155SOL    HW1  464   0.166   2.022   1.001  1.0083  0.6787  1.0576
  155SOL    HW2  465   0.069   2.073   1.124 -0.2637 -0.0250 -0.1037
  156SOL     OW  466   2.442   2.301   3.084 -0.4894  0.3853  0.6185
  156SOL    HW1  467   2.521   2.248   3.048  0.2046 -1.1514 -0.6955
  156SOL    HW2  468   2.467   2.392   3.116 -0.9537 -0.2217 -1.2119
  157SOL     OW  469   0.877   2.547   1.051  0.3581 -0.0879 -0.0706
  157SOL    HW1  470   0.827   2.461   1.042 -1.1771 -1.1856 -2.6192
  157SOL    HW2  471   0.859   2.588   1.143 -1.6032  1.3209  0.5001
  158SOL     OW  472   1.921   0.804   2.838  0.1494 -0.1392 -0.3662
  158SOL    HW1  473   1.901   0.782   2.933  1.3409  0.8133 -1.2991
  158SOL    HW2  474   1.843   0.788   2.779  3.5457  0.7610 -1.5407
  159SOL     OW  475   0.868   0.395   2.561  0.2094 -0.4029  0.1386
  159SOL    HW1  476   0.904   0.318   2.625  2.1274  1.2993 -1.1096
  159SOL    HW2  477   0.945   0.462   2.538  4.5524  0.6754 -0.2762
  160SOL     OW  478   0.886   1.874   0.634  0.4262 -0.1904  0.1247
  160SOL    HW1  479   0.897   1.879   0.733  0.7309  1.3936 -1.3777
  160SOL    HW2  480   0.949   1.801   0.601  0.1183 -1.4683 -2.4259
  161SOL     OW  481   0.032   2.067   0.058 -0.1898  0.6452 -0.2753
  161SOL    HW1  482   3.125   1.998   0.118 -0.7796  0.0352  2.8235
  161SOL    HW2  483   0.122   2.100   0.092  0.4347 -0.9266 -1.1207
  162SOL     OW  484   0.483   2.541   0.855 -0.1654  0.3001 -0.5841
  162SOL    HW1  485   0.400   2.598   0.845  1.2318 -3.0150 -2.0254
  162SOL    HW2  486   0.490   2.500   0.949  1.5170 -0.9650  0.1966
  163SOL     OW  487   2.476   0.870   3.133 -0.3637 -0.4522  0.0773
  163SOL    HW1  488   2.504   0.788   0.049  0.0270 -1.6653 -1.0944
  163SOL    HW2  489   2.436   0.843   3.043  1.5168  0.3251  2.0553
  164SOL     OW  490   0.120   2.864   0.361  0.1383 -0.0844  0.7296
  164SOL    HW1  491   0.066   2.779   0.380  0.9633  0.9792 -0.0777
  164SOL    HW2  492   0.138   2.859   0.258  0.3649 -1.3138 -0.6646
  165SOL     OW  493   2.646   0.554   1.431  0.7584  0.7112 -0.2126
  165SOL    HW1  494   2.549   0.519   1.442 -1.5561 -0.3812  1.4166
  165SOL    HW2  495   2.720   0.480   1.441  1.8767  0.1412  0.9324
  166SOL     OW  496   2.041   0.406   0.905  0.2021 -0.1967 -0.4303
  166SOL    HW1  497   2.106   0.372   0.836 -1.4385  1.7035 -1.3842
  166SOL    HW2  498   2.069   0.390   1.005 -0.0619 -2.0133  0.8321
  167SOL     OW  499   0.367   0.620   1.513 -0.0464  0.2828  0.1813
  167SOL    HW1  500   0.289   0.574   1.559  1.3063 -0.2568  1.3625
  167SOL    HW2  501   0.348   0.715   1.493  1.5721 -1.0332  0.0285
  168SOL     OW  502   2.723   0.007   2.081  0.0554  0.4512  0.3553
  168SOL    HW1  503   2.754   0.030   2.175  0.6390 -0.1470  0.6087
  168SOL    HW2  504   2.727   3.039   2.079  0.4417 -0.5824  0.4664
  169SOL     OW  505   3.004   1.529   0.610 -0.2550  0.3208 -0.4510
  169SOL    HW1  506   3.083   1.591   0.591  1.0509 -1.0160 -0.5314
  169SOL    HW2  507   2.952   1.556   0.696  0.4541  0.8161  1.8657
  170SOL     OW  508   2.994   0.695   1.660  0.3210  0.0577  0.5689
  170SOL    HW1  509   3.063   0.687   1.587 -1.1367  0.3311  0.9768
  170SOL    HW2  510   2.946   0.601   1.674 -2.7545  0.5775  2.3020
  171SOL     OW  511   1.248   2.205   1.818 -0.0472  0.0467  0.3917
  171SOL    HW1  512   1.332   2.150   1.810  1.0490  1.1128 -1.6937
  171SOL    HW2  513   1.208   2.201   1.910  0.7843 -0.2706 -0.6547
  172SOL     OW  514   0.511   2.391   1.109  0.1160 -0.1787  0.0957
  172SOL    HW1  515   0.599   2.338   1.120 -0.4774 -1.8221  0.5363
  172SOL    HW2  516   0.445   2.345   1.048 -0.1604 -2.4279  0.9239
  173SOL     OW  517   1.059   0.067   0.181  0.4177  0.3313 -0.1815
  173SOL    HW1  518   0.964   0.045   0.209 -0.1201  2.1370 -3.3133
  173SOL    HW2  519   1.063   0.044   0.082 -1.7110  1.2394 -1.8758
  174SOL     OW  520   0.838   2.800   2.613  0.4957  0.0635  0.6604
  174SOL    HW1  521   0.828   2.798   2.715  0.9577  0.3701 -0.7380
  174SOL    HW2  522   0.903   2.869   2.578 -1.0158 -0.2781 -0.9312
  175SOL     OW  523   1.097   0.615   3.129  0.1132  0.0263 -0.1424
  175SOL    HW1  524   1.196   0.594   0.004 -0.1292 -2.5364  1.0462
  175SOL    HW2  525   1.083   0.713   3.105 -1.1556  2.8634 -1.8456
  176SOL     OW  526   1.284   0.439   0.454  0.6718  0.2926 -0.2961
  176SOL    HW1  527   1.215   0.368   0.426  0.0984  3.0274  4.5984
  176SOL    HW2  528   1.346   0.403   0.522 -0.4400  1.3513  1.6177
  177SOL     OW  529   1.352   0.900   1.055  0.3398 -0.4561  0.1697
  177SOL    HW1  530   1.358   0.812   1.002 -0.7295 -3.1021  0.0384
  177SOL    HW2  531   1.323   0.983   0.998 -1.0898 -1.6625  1.5662
  178SOL     OW  532   2.494   1.901   2.580 -0.6584 -0.2345 -0.1884
  178SOL    HW1  533   2.505   1.815   2.629 -0.0277 -1.1354 -1.1020
  178SOL    HW2  534   2.501   1.975   2.648  2.7244 -1.5384  1.0252
  179SOL     OW  535   0.555   2.766   2.569 -0.6162  0.1815 -0.0931
  179SOL    HW1  536   0.654   2.796   2.560 -2.7376 -0.1769 -0.4817
  179SOL    HW2  537   0.497   2.808   2.495 -0.1298  1.1240 -2.4009
  180SOL     OW  538   1.725   1.778   1.690 -0.3431 -0.1378  0.0479
  180SOL    HW1  539   1.695   1.823   1.600  1.6636 -0.2189  0.3788
  180SOL    HW2  540   1.698   1.830   1.773 -0.4052 -0.1603  0.7842
  181SOL     OW  541   1.529   1.455   2.428  0.0371 -0.3300 -0.2939
  181SOL    HW1  542   1.540   1.448   2.528 -2.0050 -0.1932 -0.7249
  181SOL    HW2  543   1.519   1.363   2.387  0.0252 -0.8936  1.6277
  182SOL     OW  544   3.055   0.549   2.681 -0.0241 -0.1139  0.3430
  182SOL    HW1  545   2.978   0.586   2.733  1.0393 -1.9308 -1.0786
  182SOL    HW2  546   3.073   0.452   2.704 -1.8006 -0.1628 -0.6767
  183SOL     OW  547   1.443   0.146   2.609 -0.8436 -0.1251 -0.2710
  183SOL    HW1  548   1.480   0.199   2.530 -0.0148  0.8104  0.7647
  183SOL    HW2  549   1.492   0.173   2.697  1.9294  0.6126  1.9006
  184SOL     OW  550   0.851   0.508   1.572  0.2593  0.0004 -0.0418
  184SOL    HW1  551   0.847   0.437   1.648 -1.9992 -0.2564 -0.2322
  184SOL    HW2  552   0.772   0.574   1.575  0.0051  1.4500 -0.8729
  185SOL     OW  553   2.834   1.312   0.866 -0.0837 -0.5743 -0.5589
  185SOL    HW1  554   2.864   1.411   0.850  0.5346  1.1678 -0.6986
  185SOL    HW2  555   2.806   1.313   0.967 -1.1467 -1.2948  0.7964
  186SOL     OW  556   0.539   1.919   2.929 -0.1233  0.2068  0.4771
  186SOL    HW1  557   0.570   2.006   2.965 -1.7205 -1.5965 -1.3801
  186SOL    HW2  558   0.474   1.946   2.853 -1.6037  0.8038 -4.2032
  187SOL     OW  559   2.654   1.279   0.280  0.1885 -0.9169 -0.3029
  187SOL    HW1  560   2.711   1.288   0.366  1.8687  1.6122  0.3071
  187SOL    HW2  561   2.707   1.220   0.215  0.5382 -0.5641  1.5578
  188SOL     OW  562   0.260   2.112   0.701  0.5840 -0.9561 -0.4331
  188SOL    HW1  563   0.338   2.051   0.700 -2.7375  3.2192  0.5178
  188SOL    HW2  564   0.252   2.161   0.611 -3.2816  0.0262 -0.3169
  189SOL     OW  565   2.694   0.930   0.285 -0.2008  0.3560  0.0137
  189SOL    HW1  566   2.714   1.006   0.220 -0.4079 -0.6500 -2.1050
  189SOL    HW2  567   2.652   0.960   0.370 -2.2753  2.6995 -0.4776
  190SOL     OW  568   1.342   1.624   2.279  0.1436  0.5626 -0.0753
  190SOL    HW1  569   1.414   1.564   2.326  0.9588 -2.2621  1.0633
  190SOL    HW2  570   1.247   1.591   2.292  0.2830  0.1205 -2.3995
  191SOL     OW  571   2.491   0.473   1.647 -0.0969  0.0443  0.1340
  191SOL    HW1  572   2.544   0.390   1.669  0.7362  1.6860 -0.9920
  191SOL    HW2  573   2.492   0.537   1.724 -1.2902 -0.9756  0.5148
  192SOL     OW  574   2.156   0.220   1.826 -0.0483  0.7724 -0.0931
  192SOL    HW1  575   2.132   0.119   1.846 -1.4198 -1.0264 -0.1700
  192SOL    HW2  576   2.246   0.245   1.874 -0.5377  0.9871 -1.5435
  193SOL     OW  577   0.894   0.645   0.457  0.2674  0.1454  0.7120
  193SOL    HW1  578   0.889   0.564   0.514 -0.0782  3.3291  0.9660
  193SOL    HW2  579   0.812   0.699   0.454  2.3749 -0.1556  3.3334
  194SOL     OW  580   1.079   2.822   1.393  0.2572 -0.1167  0.1179
  194SOL    HW1  581   1.177   2.827   1.366  3.1037  0.1359  0.3950
  194SOL    HW2  582   1.058   2.898   1.463 -1.3935 -2.4475 -0.1296
  195SOL     OW  583   2.224   0.854   1.045  0.4873  0.0959 -0.0585
  195SOL    HW1  584   2.237   0.891   0.951 -1.4264  0.7217 -0.9526
  195SOL    HW2  585   2.150   0.901   1.094  2.9092 -3.8160 -1.6646
  196SOL     OW  586   1.806   2.441   2.004  0.1177 -0.3098 -0.0481
  196SOL    HW1  587   1.730   2.382   1.977  3.4748  1.4132 -0.2619
  196SOL    HW2  588   1.804   2.458   2.105 -2.2084 -1.9809 -0.3333
  197SOL     OW  589   0.112   0.058   0.072 -0.0881  0.7297 -0.5689
  197SOL    HW1  590   0.179   0.061   0.149  0.4006  0.8037 -2.2251
  197SOL    HW2  591   0.153   0.003   3.134  3.0525  0.0380 -2.1608
  198SOL     OW  592   1.300   1.255   0.692 -0.2414 -0.1203  0.1968
  198SOL    HW1  593   1.262   1.346   0.708  3.0134  1.2738 -0.3431
  198SOL    HW2  594   1.290   1.201   0.777  2.0053  1.4154 -2.8179
  199SOL     OW  595   2.782   0.995   2.160  0.4045 -0.3232 -0.5501
  199SOL    HW1  596   2.771   0.906   2.208  0.0080  1.6930 -1.6146
  199SOL    HW2  597   2.860   1.052   2.197  1.9689 -0.8734 -0.2850
  200SOL     OW  598   2.875   2.159   2.673 -0.0951 -0.2502  0.5282
  200SOL    HW1  599   2.824   2.210   2.597 -2.4792 -0.5486 -0.7184
  200SOL    HW2  600   2.883   2.219   2.755  0.2516  1.4064  1.2439
  201SOL     OW  601   2.591   0.197   1.416  0.4237  0.0519 -0.6302
  201SOL    HW1  602   2.669   0.259   1.390  2.0510  2.7101  1.7034
  201SOL    HW2  603   2.501   0.219   1.377 -0.1544 -2.5989 -0.2836
  202SOL     OW  604   2.007   0.631   0.440  0.6326  0.6109 -1.0730
  202SOL    HW1  605   2.016   0.646   0.540  3.0910 -1.7144 -1.3053
  202SOL    HW2  606   2.039   0.710   0.390 -0.7243 -2.1893  2.5155
  203SOL     OW  607   1.798   1.932   2.311  0.2509  0.3566  0.5020
  203SOL    HW1  608   1.757   1.872   2.236  0.7238 -1.5475  4.1122
  203SOL    HW2  609   1.864   1.999   2.270 -0.0896  0.0668 -1.3087
  204SOL     OW  610   0.872   1.786   2.270 -0.2100 -0.3646  0.3271
  204SOL    HW1  611   0.868   1.855   2.194  1.2228 -0.3559 -1.3925
  204SOL    HW2  612   0.932   1.819   2.349  2.5369 -0.7345  1.7167
  205SOL     OW  613   1.032   1.720   1.619 -0.1348  0.0058 -0.5729
  205SOL    HW1  614   0.995   1.770   1.536  0.7316 -0.2632 -0.2018
  205SOL    HW2  615   1.132   1.747   1.646  2.5215 -0.6909  1.6393
  206SOL     OW  616   3.046   0.473   3.027 -0.0801  0.0199  0.1571
  206SOL    HW1  617   3.043   0.373   3.053  2.8200 -2.5244 -0.3003
  206SOL    HW2  618   2.956   0.523   3.025 -0.2924  0.5021 -0.9737
  207SOL     OW  619   1.922   2.683   2.113  0.3088 -0.4822  0.1600
  207SOL    HW1  620   1.864   2.755   2.065 -1.9071  1.5301 -0.7828
  207SOL    HW2  621   1.977   2.629   2.042  1.6406 -1.1079  0.5851
  208SOL     OW  622   0.552   2.126   1.319  0.2062  0.2619  0.2353
  208SOL    HW1  623   0.539   2.035   1.274 -1.2915  1.2870 -0.6987
  208SOL    HW2  624   0.468   2.180   1.292 -1.4210 -0.2436  0.6700
  209SOL     OW  625   1.553   1.145   2.335 -0.5398 -0.2794 -0.5534
  209SOL    HW1  626   1.469   1.088   2.354 -1.9738 -0.8147  2.3257
  209SOL    HW2  627   1.557   1.184   2.242  1.4060  0.9090 -0.2136
  210SOL     OW  628   2.012   1.037   1.158  0.3430  0.0847  0.1328
  210SOL    HW1  629   1.976   1.092   1.080  1.5513  0.0117  2.2435
  210SOL    HW2  630   1.938   0.969   1.186 -0.1541  0.3591 -3.1081
  211SOL     OW  631   0.350   0.199   0.726  0.4473 -0.3009  0.0806
  211SOL    HW1  632   0.268   0.218   0.665 -0.9856 -0.1478 -0.5431
  211SOL    HW2  633   0.436   0.240   0.688 -1.2960  1.0396  2.4711
  212SOL     OW  634   1.899   1.654   0.180 -0.0575  0.4670 -0.0846
  212SOL    HW1  635   1.923   1.601   0.267  1.6023 -2.4644  4.5210
  212SOL    HW2  636   1.804   1.686   0.187  3.3167  0.8186 -0.6232
  213SOL     OW  637   1.548   0.439   2.512  0.3643 -0.3257 -0.6058
  213SOL    HW1  638   1.597   0.453   2.603  0.8038 -0.3278  0.7797
  213SOL    HW2  639   1.517   0.536   2.476  1.8887  3.9978 -0.1986
  214SOL     OW  640   1.744   1.521   2.267  0.1073  0.3095 -0.1967
  214SOL    HW1  641   1.808   1.537   2.342 -1.0238 -0.7507  1.6634
  214SOL    HW2  642   1.653   1.492   2.305  0.6778  0.1190  1.3640
  215SOL     OW  643   0.393   1.866   0.487 -0.3012  0.4066 -0.0121
  215SOL    HW1  644   0.366   1.811   0.411 -1.9203  2.8345  1.0692
  215SOL    HW2  645   0.423   1.961   0.462 -1.3430  0.6262  0.2819
  216SOL     OW  646   0.587   2.770   2.168  0.1301  0.2440  0.4599
  216SOL    HW1  647   0.678   2.732   2.199  2.5793  0.7258 -1.6882
  216SOL    HW2  648   0.503   2.726   2.195  0.3277  2.4773  0.8564
  217SOL     OW  649   2.314   0.889   0.557  0.3507  0.2939 -0.3463
  217SOL    HW1  650   2.409   0.918   0.528  0.1392  0.8752 -0.3420
  217SOL    HW2  651   2.251   0.921   0.484 -1.4796  2.4714  0.2225
  218SOL     OW  652   1.703   1.942   1.908  0.1091 -0.3352  0.3825
  218SOL    HW1  653   1.782   2.005   1.923  0.0925 -0.1534  2.2495
  218SOL    HW2  654   1.701   1.875   1.988  2.9884 -0.5996  1.1456
  219SOL     OW  655   2.017   1.365   3.122 -0.2707  0.2069 -0.2406
  219SOL    HW1  656   2.070   1.448   0.010  0.4635  1.6826 -1.7844
  219SOL    HW2  657   1.918   1.380   0.003 -5.4550  2.3990 -0.6770
  220SOL     OW  658   1.234   1.661   1.060 -0.0447 -0.1280  0.3622
  220SOL    HW1  659   1.259   1.589   1.125 -0.2919  1.0750  0.9378
  220SOL    HW2  660   1.305   1.684   0.991  0.8300  0.1316 -3.5765
  221SOL     OW  661   0.720   0.467   2.861 -0.4087  0.2673 -0.2068
  221SOL    HW1  662   0.651   0.514   2.805 -0.2747  3.3550 -2.2606
  221SOL    HW2  663   0.688   0.402   2.930 -2.2890  1.4594 -1.0252
  222SOL     OW  664   0.952   1.598   1.305 -0.4945 -0.2994  0.3494
  222SOL    HW1  665   1.040   1.550   1.330  1.0493  0.5695 -0.1270
  222SOL    HW2  666   0.923   1.674   1.369 -0.7749 -0.9557 -0.5286
  223SOL     OW  667   1.321   3.120   2.768  0.2142 -0.0461  0.7239
  223SOL    HW1  668   1.294   3.031   2.726  0.0798  1.9110 -0.2625
  223SOL    HW2  669   1.364   0.044   2.698  0.4750 -1.3237 -1.9672
  224SOL     OW  670   2.681   0.697   1.176  0.2368 -0.1808 -0.2503
  224SOL    HW1  671   2.648   0.649   1.263 -1.6944 -3.8218  2.2167
  224SOL    HW2  672   2.606   0.758   1.149  0.4063 -2.9524  1.0507
  225SOL     OW  673   0.982   0.635   1.366  0.4176  0.5199 -0.0139
  225SOL    HW1  674   0.935   0.726   1.364 -0.4043  0.3693 -3.6244
  225SOL    HW2  675   0.933   0.571   1.431  2.7043  0.7982 -0.2136
  226SOL     OW  676   1.679   1.851   2.935 -0.0658 -0.3274  0.1851
  226SOL    HW1  677   1.593   1.837   2.889 -0.6607 -1.0447 -3.0999
  226SOL    HW2  678   1.672   1.938   2.993 -2.9280 -0.0965  1.6137
  227SOL     OW  679   1.170   1.957   1.456  0.0063  0.9086 -0.4739
  227SOL    HW1  680   1.127   1.927   1.367 -1.1259 -1.8927  0.4195
  227SOL    HW2  681   1.214   1.877   1.511  1.8048  0.1975  3.6873
  228SOL     OW  682   0.554   1.457   0.794  0.7515  0.0208 -0.1685
  228SOL    HW1  683   0.645   1.485   0.780 -0.4580 -2.7297  0.2636
  228SOL    HW2  684   0.530   1.447   0.891  2.6908  0.1757  2.5369
  229SOL     OW  685   1.390   0.524   3.129  0.1739  0.3605  0.5286
  229SOL    HW1  686   1.460   0.457   0.020 -2.9941 -3.3081 -1.0163
  229SOL    HW2  687   1.433   0.589   3.066  0.9008  0.5270  0.5281
  230SOL     OW  688   1.160   0.602   2.287 -0.2457 -0.1253 -0.1811
  230SOL    HW1  689   1.177   0.528   2.213 -0.4881 -0.2086 -2.8624
  230SOL    HW2  690   1.175   0.565   2.381 -2.4177  0.2418  0.3072
  231SOL     OW  691   1.083   1.552   2.434 -0.3410 -0.1115  0.1010
  231SOL    HW1  692   1.153   1.542   2.503  0.7491 -0.0132  0.1719
  231SOL    HW2  693   1.028   1.635   2.458  2.5932  1.6938 -0.1686
  232SOL     OW  694   2.400   1.985   0.970  0.6064  0.1755 -0.4952
  232SOL    HW1  695   2.324   1.973   0.903 -0.6392  1.4881  1.1766
  232SOL    HW2  696   2.420   1.898   1.017  0.3421  0.9926 -2.5452
  233SOL     OW  697   1.823   2.744   0.072 -0.4627  0.0152 -0.9587
  233SOL    HW1  698   1.743   2.680   0.064 -2.5006 -1.1023 -2.6853
  233SOL    HW2  699   1.849   2.790   3.122  1.7538  0.1782 -2.1799
  234SOL     OW  700   0.839   3.128   2.731  0.1641  0.0070 -0.0497
  234SOL    HW1  701   0.869   3.052   2.788 -2.9998  1.6102 -3.9034
  234SOL    HW2  702   0.783   3.090   2.652  0.2042  1.5349 -0.0059
  235SOL     OW  703   2.332   3.043   2.762  0.5630  0.1590  0.1502
  235SOL    HW1  704   2.411   3.104   2.779 -1.8462 -2.7014 -2.1079
  235SOL    HW2  705   2.341   2.999   2.669 -1.5816  2.5754 -0.0710
  236SOL     OW  706   2.604   2.259   2.272 -0.5626  0.4066  0.4585
  236SOL    HW1  707   2.663   2.305   2.338 -2.0522  0.7457 -2.7568
  236SOL    HW2  708   2.638   2.169   2.236 -2.8632 -0.2321  0.5247
  237SOL     OW  709   0.926   1.587   2.092 -0.1423  0.0247 -0.2551
  237SOL    HW1  710   0.970   1.518   2.155  0.2035  0.0848 -2.2165
  237SOL    HW2  711   0.887   1.659   2.150  0.3581  1.2171 -1.8874
  238SOL     OW  712   1.954   0.208   2.459  0.2802 -0.1320  0.0880
  238SOL    HW1  713   1.940   0.115   2.499  1.1171 -0.3429  1.4832
  238SOL    HW2  714   2.034   0.211   2.398 -0.5829 -0.2478 -1.0836
  239SOL     OW  715   0.393   1.847   2.009 -0.4776 -0.3439 -0.3787
  239SOL    HW1  716   0.465   1.775   1.988  0.0609  2.7852  1.2586
  239SOL    HW2  717   0.302   1.814   1.977 -1.8560  0.7880  1.3679
  240SOL     OW  718   2.721   3.001   0.708 -0.4309  0.2231  0.3300
  240SOL    HW1  719   2.785   2.927   0.736  0.5886 -0.7989  0.5766
  240SOL    HW2  720   2.770   3.068   0.650 -0.0386  3.7815  1.6112
  241SOL     OW  721   1.980   1.796   0.492 -0.2296  0.0987  0.6015
  241SOL    HW1  722   2.050   1.866   0.478  0.2799 -1.0278  0.5483
  241SOL    HW2  723   1.893   1.806   0.444  2.1887 -0.5791  1.2600
  242SOL     OW  724   1.445   1.830   2.778 -0.1428  0.1433 -0.3074
  242SOL    HW1  725   1.512   1.816   2.702 -0.3887  2.2152  0.5294
  242SOL    HW2  726   1.350   1.817   2.750  0.4551 -0.6302 -0.3606
  243SOL     OW  727   0.666   2.556   2.374  0.2315  0.0231  0.1844
  243SOL    HW1  728   0.759   2.572   2.330  0.3324 -1.9524  0.5982
  243SOL    HW2  729   0.672   2.515   2.466 -4.1501  1.3526  0.7492
  244SOL     OW  730   2.160   0.107   2.741 -0.1266 -0.4978  0.1374
  244SOL    HW1  731   2.214   0.190   2.767 -0.8273 -0.6322 -1.3624
  244SOL    HW2  732   2.226   0.031   2.724 -2.3104  1.0889  0.3884
  245SOL     OW  733   1.263   2.911   0.488  0.3106 -0.0122 -0.2007
  245SOL    HW1  734   1.216   2.953   0.567  1.0645 -2.0995 -2.4426
  245SOL    HW2  735   1.266   2.981   0.418 -3.6985 -0.1303  0.4441
  246SOL     OW  736   1.150   2.688   0.298  0.1014  0.7430 -0.3206
  246SOL    HW1  737   1.218   2.690   0.227 -1.4604 -0.7994  1.2590
  246SOL    HW2  738   1.166   2.761   0.370 -0.0995 -0.5631 -0.0945
  247SOL     OW  739   0.755   0.661   2.288  0.1819  0.4751 -0.2509
  247SOL    HW1  740   0.793   0.588   2.225  2.0611 -1.7742  2.2516
  247SOL    HW2  741   0.653   0.673   2.276 -1.9125  0.6835 -1.0688
  248SOL     OW  742   1.046   1.377   2.227 -0.2055  0.7461 -0.1724
  248SOL    HW1  743   0.951   1.352   2.264 -3.0351  0.8083  1.0912
  248SOL    HW2  744   1.079   1.441   2.299 -2.7301 -0.0204 -2.0489
  249SOL     OW  745   2.252   0.334   0.265 -0.2023 -0.1550  0.2018
  249SOL    HW1  746   2.354   0.326   0.285 -0.2056 -1.7569 -0.0721
  249SOL    HW2  747   2.202   0.365   0.347  3.4307 -0.6111 -1.4718
  250SOL     OW  748   0.762   0.110   0.536 -0.2207 -0.2844 -0.1545
  250SOL    HW1  749   0.753   0.025   0.591 -0.9634  2.6683  1.3550
  250SOL    HW2  750   0.682   0.173   0.552  4.0197 -1.8859 -0.4380
  251SOL     OW  751   1.611   0.212   2.816 -0.1890 -0.1607 -0.4347
  251SOL    HW1  752   1.647   0.305   2.799  0.7781 -0.5611  1.2526
  251SOL    HW2  753   1.656   0.175   2.900 -0.2356  2.2109  1.8442
  252SOL     OW  754   1.907   1.366   1.791  0.4824  0.3033 -0.2103
  252SOL    HW1  755   1.882   1.386   1.886 -1.6375 -0.1521  0.0334
  252SOL    HW2  756   1.833   1.402   1.731  2.9156  0.3977 -2.5975
  253SOL     OW  757   2.824   2.346   1.828  0.1798  0.1171 -0.4844
  253SOL    HW1  758   2.770   2.392   1.907 -0.2806 -0.2953  0.8720
  253SOL    HW2  759   2.854   2.403   1.756 -1.9353 -1.6736  0.3345
  254SOL     OW  760   0.328   1.294   1.281  0.4536  0.9105 -0.1479
  254SOL    HW1  761   0.378   1.215   1.313  1.0035  0.5562 -0.5751
  254SOL    HW2  762   0.367   1.339   1.203  0.4665  0.7723  0.0860
  255SOL     OW  763   0.885   0.869   1.315 -0.0964  0.3658 -0.1645
  255SOL    HW1  764   0.818   0.834   1.244  0.2529 -0.8758  1.5783
  255SOL    HW2  765   0.963   0.922   1.270  0.8780 -0.2498 -1.3201
  256SOL     OW  766   1.920   2.760   1.688  0.5485  0.2279  0.0542
  256SOL    HW1  767   1.845   2.714   1.740  0.7242 -0.1183 -2.1864
  256SOL    HW2  768   2.006   2.700   1.678  1.8966  0.5084 -2.9910
  257SOL     OW  769   0.382   2.818   3.017  0.4737 -0.0435 -0.2267
  257SOL    HW1  770   0.435   2.807   2.926 -1.5552  0.8954 -2.9686
  257SOL    HW2  771   0.410   2.896   3.075  3.0342  2.2902 -0.6678
  258SOL     OW  772   0.905   2.625   2.274  0.1846 -0.1628 -0.2839
  258SOL    HW1  773   0.936   2.722   2.283 -0.4753 -1.1570  1.0764
  258SOL    HW2  774   0.981   2.561   2.243  1.1159 -0.0300 -3.6614
  259SOL     OW  775   1.265   0.139   2.129 -0.1133 -0.5172  0.0977
  259SOL    HW1  776   1.247   0.098   2.033  0.2123 -2.1319 -0.9699
  259SOL    HW2  777   1.358   0.116   2.163  0.1952  1.9834 -1.3273
  260SOL     OW  778   1.867   0.588   0.862  0.5067 -0.3159  0.1913
  260SOL    HW1  779   1.929   0.510   0.881  1.6798  1.2782  1.5221
  260SOL    HW2  780   1.920   0.658   0.804 -0.3557  0.8265 -4.4357
  261SOL     OW  781   0.480   0.298   2.559 -0.0453  0.7131 -0.1562
  261SOL    HW1  782   0.440   0.386   2.591  1.6480 -1.0252 -0.2070
  261SOL    HW2  783   0.500   0.232   2.635  1.7062 -3.7842  0.8865
  262SOL     OW  784   2.955   2.427   2.185  0.3654 -0.2900  0.6207
  262SOL    HW1  785   2.959   2.498   2.260  1.4039  0.2023 -0.0811
  262SOL    HW2  786   3.046   2.423   2.128  2.7169 -0.7183 -1.9418
  263SOL     OW  787   2.922   1.643   2.282 -0.1105  0.5140 -0.5058
  263SOL    HW1  788   3.009   1.686   2.264 -0.1488  0.3621  0.2526
  263SOL    HW2  789   2.884   1.664   2.376 -0.6330 -0.9122 -1.3151
  264SOL     OW  790   0.575   0.889   0.777 -0.6464  0.3200  0.6567
  264SOL    HW1  791   0.475   0.887   0.758 -2.1152 -2.2159  1.6026
  264SOL    HW2  792   0.599   0.788   0.764  0.9204 -3.7204  0.4880
  265SOL     OW  793   0.972   2.136   0.608 -0.5746  0.1549 -0.0008
  265SOL    HW1  794   0.929   2.046   0.636  0.7328 -0.1589  3.7466
  265SOL    HW2  795   0.943   2.214   0.664  3.0966 -1.1326 -1.2533
  266SOL     OW  796   1.669   0.569   1.072 -0.4450 -0.3319  0.4126
  266SOL    HW1  797   1.731   0.559   0.990  1.7990  0.0408 -1.9938
  266SOL    HW2  798   1.578   0.607   1.050  0.2263 -0.7657  0.3582
  267SOL     OW  799   2.758   1.103   0.097 -0.1042  0.0119 -0.3747
  267SOL    HW1  800   2.855   1.136   0.101  0.7156 -1.9387  0.3557
  267SOL    HW2  801   2.735   1.061   0.005  0.3905 -2.8928 -0.7990
  268SOL     OW  802   1.879   0.294   0.142  0.2542 -0.6545 -0.1498
  268SOL    HW1  803   1.964   0.247   0.167 -1.6087 -1.1093 -1.8214
  268SOL    HW2  804   1.794   0.234   0.160 -0.0781  0.4263  0.9467
  269SOL     OW  805   2.145   0.941   2.882  0.1512  0.3398  0.3111
  269SOL    HW1  806   2.056   0.902   2.862  1.3376  2.1694 -0.1556
  269SOL    HW2  807   2.136   1.005   2.958  2.2492  1.8544 -2.9084
  270SOL     OW  808   0.125   0.952   2.996  0.1479 -0.6348 -0.4038
  270SOL    HW1  809   0.143   0.951   2.897 -2.2826 -2.5017 -0.8834
  270SOL    HW2  810   0.117   0.860   3.023 -0.7174  1.9150  1.4505
  271SOL     OW  811   2.954   0.845   0.372 -0.3371 -0.3172 -0.5054
  271SOL    HW1  812   2.859   0.893   0.368 -0.1840  2.9669 -2.0460
  271SOL    HW2  813   2.953   0.790   0.456 -0.4764  1.3374 -0.2540
  272SOL     OW  814   0.141   2.085   2.928 -0.5579 -0.4261  0.3817
  272SOL    HW1  815   0.078   2.094   2.849  1.1004  0.2728  0.6996
  272SOL    HW2  816   0.085   2.070   3.012 -1.9472 -1.5228 -2.6396
  273SOL     OW  817   2.610   3.008   0.350 -0.0562 -0.1023  0.0298
  273SOL    HW1  818   2.635   3.055   0.435 -0.3886 -2.8922 -0.3867
  273SOL    HW2  819   2.515   2.980   0.354  2.1665  1.5528  1.9465
  274SOL     OW  820   0.608   2.073   0.728 -0.6711  0.2679  0.3110
  274SOL    HW1  821   0.609   2.179   0.737  0.9944  0.5035 -1.2153
  274SOL    HW2  822   0.627   2.054   0.628 -0.9877 -0.0449  1.6881
  275SOL     OW  823   2.803   1.676   0.492  0.2854 -0.1545  0.2332
  275SOL    HW1  824   2.767   1.679   0.588 -1.0980  1.4978  0.3907
  275SOL    HW2  825   2.882   1.617   0.484 -0.5035  0.8304 -0.3216
  276SOL     OW  826   0.010   1.013   2.031  0.1782  0.2344 -0.2052
  276SOL    HW1  827   3.078   1.064   2.083  1.7735 -1.1051  0.0152
  276SOL    HW2  828   3.095   0.944   1.978  0.2502  1.1071  1.6032
  277SOL     OW  829   1.781   2.932   1.084 -0.0604  0.1847 -0.2873
  277SOL    HW1  830   1.798   2.891   0.995 -1.6367 -1.2363  1.8213
  277SOL    HW2  831   1.804   3.030   1.080  1.1832  1.1237 -2.5538
  278SOL     OW  832   1.349   2.559   2.304 -0.1306  0.6766  0.6252
  278SOL    HW1  833   1.361   2.479   2.241  0.7243 -0.1995  1.0783
  278SOL    HW2  834   1.285   2.534   2.378  0.0176 -0.9179 -2.9208
  279SOL     OW  835   1.565   1.995   0.788 -0.5926  0.5628  0.2693
  279SOL    HW1  836   1.639   2.013   0.720 -0.1526  1.2784 -2.3601
  279SOL    HW2  837   1.475   1.999   0.741  0.3177 -1.1319 -1.3341
  280SOL     OW  838   0.088   1.673   0.998  0.2321 -0.2596  0.4425
  280SOL    HW1  839   0.091   1.768   0.952  2.2578  1.9018 -1.1620
  280SOL    HW2  840   3.126   1.645   1.020 -1.2406 -1.9047 -0.1076
  281SOL     OW  841   3.013   0.798   2.399 -0.5000 -0.7334 -0.4274
  281SOL    HW1  842   2.923   0.832   2.370 -1.4235 -1.6623  0.5211
  281SOL    HW2  843   2.993   0.724   2.467 -0.5474 -4.4876 -0.1009
  282SOL     OW  844   0.855   1.285   0.770 -0.1800  0.1327  0.3791
  282SOL    HW1  845   0.778   1.249   0.713 -0.1030 -0.2110 -0.8722
  282SOL    HW2  846   0.852   1.388   0.766 -0.3734  0.5675  0.3586
  283SOL     OW  847   1.839   2.312   0.204 -0.1672  0.5456  0.0415
  283SOL    HW1  848   1.761   2.317   0.270  1.8446 -0.0440  1.3077
  283SOL    HW2  849   1.922   2.317   0.256 -0.3167 -0.7957 -0.1697
  284SOL     OW  850   0.941   0.527   0.193  0.2686 -0.1745  0.3054
  284SOL    HW1  851   0.932   0.593   0.272  0.3572  1.7558 -1.7896
  284SOL    HW2  852   1.000   0.565   0.115  0.5940  1.4289 -1.0788
  285SOL     OW  853   2.426   1.313   2.870 -0.1791 -0.2887 -0.4243
  285SOL    HW1  854   2.335   1.302   2.824 -0.0042  0.7045 -1.2484
  285SOL    HW2  855   2.422   1.355   2.963  0.3798  3.0456 -0.0265
  286SOL     OW  856   1.600   2.469   1.262 -0.1806  0.5045  0.3998
  286SOL    HW1  857   1.526   2.418   1.304 -0.5465 -2.0346  1.9732
  286SOL    HW2  858   1.569   2.561   1.235  0.2028 -1.6812  2.9165
  287SOL     OW  859   0.989   1.055   0.810  0.3353  0.2039  0.0381
  287SOL    HW1  860   0.909   1.015   0.859 -0.1749  0.1502  0.6887
  287SOL    HW2  861   0.956   1.144   0.775 -0.1826 -4.2529  0.3840
  288SOL     OW  862   1.188   2.414   0.048  0.2585 -0.3497  0.0530
  288SOL    HW1  863   1.222   2.484   3.122  0.5316 -0.3020 -1.0640
  288SOL    HW2  864   1.219   2.439   0.142  2.2886 -0.1542  1.4730
  289SOL     OW  865   0.262   1.425   1.516 -0.9056  0.3316 -0.3203
  289SOL    HW1  866   0.263   1.520   1.481  0.0625  0.0118 -0.9388
  289SOL    HW2  867   0.285   1.358   1.443  2.9639  0.0007 -0.8207
  290SOL     OW  868   1.551   2.363   0.905 -0.0488  0.1997 -0.0077
  290SOL    HW1  869   1.504   2.320   0.987  0.3951 -0.5336  0.2292
  290SOL    HW2  870   1.611   2.439   0.932 -0.1230 -1.4915  1.9348
  291SOL     OW  871   1.913   2.881   2.970  0.1814  0.3683  0.1071
  291SOL    HW1  872   1.917   2.969   3.011 -0.5335 -1.7283 -2.8382
  291SOL    HW2  873   1.876   2.879   2.874  0.5728 -1.8481  0.4389
  292SOL     OW  874   0.921   0.510   2.138  0.4225  0.0837  0.2658
  292SOL    HW1  875   0.953   0.530   2.042 -0.5261  0.0299  1.9688
  292SOL    HW2  876   0.992   0.494   2.206 -0.2358  2.0460  0.1516
  293SOL     OW  877   2.238   2.219   0.892 -0.3104 -0.2836  0.5635
  293SOL    HW1  878   2.193   2.130   0.870 -1.0560  4.2255  0.7250
  293SOL    HW2  879   2.250   2.232   0.994 -1.0016  1.3838  0.7907
  294SOL     OW  880   0.496   0.695   2.225 -0.0370 -0.0080  0.3731
  294SOL    HW1  881   0.426   0.636   2.179 -0.8570  1.6236  0.4241
  294SOL    HW2  882   0.447   0.776   2.267 -0.7273 -0.1580  1.0343
  295SOL     OW  883   1.523   1.695   0.899  0.8348 -0.5655  0.2865
  295SOL    HW1  884   1.551   1.627   0.968 -0.7412 -2.3092 -1.7462
  295SOL    HW2  885   1.548   1.786   0.933 -1.3605  1.3359  0.9937
  296SOL     OW  886   2.782   1.869   0.299 -1.0969 -0.0813 -0.2017
  296SOL    HW1  887   2.724   1.945   0.336 -1.8680 -0.5065 -1.4599
  296SOL    HW2  888   2.802   1.792   0.366 -0.1334  1.4656  1.5705
  297SOL     OW  889   2.208   3.101   0.430  0.5333 -0.0697 -0.3858
  297SOL    HW1  890   2.274   3.110   0.507  0.9319 -0.7598  1.1857
  297SOL    HW2  891   2.259   3.098   0.340 -0.5997  0.2480 -2.7242
  298SOL     OW  892   0.999   2.639   2.846  0.0237  0.6073 -0.0323
  298SOL    HW1  893   1.000   2.621   2.746  0.1403 -2.3143 -3.8204
  298SOL    HW2  894   1.093   2.678   2.873  1.6997  0.0661 -0.1692
  299SOL     OW  895   1.187   2.218   2.101  0.0695  0.7844 -0.0921
  299SOL    HW1  896   1.282   2.228   2.134  0.5383 -0.5924 -2.0093
  299SOL    HW2  897   1.132   2.303   2.089 -1.0697 -0.9225  0.8531
  300SOL     OW  898   2.531   0.091   2.792  0.1343  0.5842  0.0247
  300SOL    HW1  899   2.532   0.129   2.890  2.3945 -0.0655 -1.1063
  300SOL    HW2  900   2.533   0.169   2.728  1.2686 -2.8215  1.2217
  301SOL     OW  901   1.367   0.828   2.177 -0.2510 -0.2071 -0.2558
  301SOL    HW1  902   1.297   0.797   2.110  3.0895  0.2824  0.2808
  301SOL    HW2  903   1.458   0.856   2.134  1.1264 -0.4419 -1.2858
  302SOL     OW  904   2.796   2.891   0.155 -0.2269 -0.8594 -0.0076
  302SOL    HW1  905   2.712   2.903   0.215  0.4292 -1.7737 -0.2092
  302SOL    HW2  906   2.874   2.943   0.201  1.5672  1.2786 -0.1837
  303SOL     OW  907   2.677   2.468   2.029 -0.3347 -0.0075 -0.1474
  303SOL    HW1  908   2.577   2.451   2.045  0.2751 -1.0532 -0.6159
  303SOL    HW2  909   2.734   2.437   2.103  2.7618  0.0969 -1.7077
  304SOL     OW  910   2.810   0.628   1.972  0.2418  0.2085 -0.9210
  304SOL    HW1  911   2.805   0.599   1.872 -2.8954  0.6429 -2.0432
  304SOL    HW2  912   2.878   0.701   1.991  0.0984 -3.1742 -1.5131
  305SOL     OW  913   0.649   1.739   1.312 -0.5612 -0.1180  0.1278
  305SOL    HW1  914   0.672   1.650   1.269 -1.9287  1.2410 -0.1895
  305SOL    HW2  915   0.591   1.722   1.397  0.7137 -1.4846  1.2634
  306SOL     OW  916   0.081   1.200   1.858  0.1400  0.6305 -0.0364
  306SOL    HW1  917   0.117   1.288   1.895 -1.9436  1.5915 -2.4729
  306SOL    HW2  918   0.044   1.135   1.930 -0.1400  2.6359  1.3606
  307SOL     OW  919   1.126   0.485   1.647  0.1554 -0.1692 -0.1005
  307SOL    HW1  920   1.046   0.520   1.595  1.3863 -0.2307 -0.5793
  307SOL    HW2  921   1.207   0.463   1.588  1.8843 -1.2395 -3.0321
  308SOL     OW  922   2.886   0.961   1.287  0.3194 -0.5065 -0.0054
  308SOL    HW1  923   2.960   1.011   1.338 -0.5582  0.2678 -3.7702
  308SOL    HW2  924   2.842   0.892   1.351  1.8181  1.5463 -0.9541
  309SOL     OW  925   2.276   1.261   0.820  0.3431  0.7566 -0.6283
  309SOL    HW1  926   2.177   1.235   0.839 -1.1037 -0.2405 -3.2224
  309SOL    HW2  927   2.323   1.296   0.898 -1.3590 -0.6866 -2.7593
  310SOL     OW  928   0.017   2.108   2.692  0.6160 -0.3312  0.5389
  310SOL    HW1  929   0.063   2.032   2.640  0.8046  0.2415  1.9035
  310SOL    HW2  930   3.052   2.106   2.680 -0.0999 -0.1879  0.9250
  311SOL     OW  931   2.887   2.902   2.705 -0.5672  0.0313 -0.2571
  311SOL    HW1  932   2.799   2.949   2.734 -2.2136  0.3762 -0.6813
  311SOL    HW2  933   2.895   2.817   2.756 -0.0920  0.1902  1.7182
  312SOL     OW  934   2.233   2.099   0.194  0.3436  0.6512 -0.0924
  312SOL    HW1  935   2.329   2.127   0.185 -1.7325  0.5228  0.7159
  312SOL    HW2  936   2.202   2.026   0.130 -0.8425  0.8841 -0.1308
  313SOL     OW  937   2.528   2.830   0.574  0.9105  0.2291 -0.0357
  313SOL    HW1  938   2.611   2.875   0.618  3.2842  1.4712 -0.6389
  313SOL    HW2  939   2.463   2.908   0.556 -2.7383 -0.9781 -3.4949
  314SOL     OW  940   1.624   1.191   0.354 -0.0284 -0.0647 -0.6176
  314SOL    HW1  941   1.630   1.097   0.391 -0.4005  0.0530  2.9272
  314SOL    HW2  942   1.613   1.187   0.251  3.7010  2.1091  0.0554
  315SOL     OW  943   1.465   2.751   2.009  0.6078  0.1679 -0.3777
  315SOL    HW1  944   1.411   2.695   2.077  0.2833 -0.7863 -0.7890
  315SOL    HW2  945   1.536   2.808   2.056  2.5420 -0.5535 -0.6508
  316SOL     OW  946   3.118   0.933   0.177  0.5046  0.6857 -0.5461
  316SOL    HW1  947   3.127   0.853   0.111  2.5981 -0.2448 -0.6563
  316SOL    HW2  948   3.064   0.906   0.260 -0.2343 -0.5680  1.4379
  317SOL     OW  949   0.380   0.009   0.278 -0.3196  0.3323  0.7821
  317SOL    HW1  950   0.402   3.066   0.334 -1.6401  2.7307 -1.3225
  317SOL    HW2  951   0.432   3.134   0.192  0.7368 -1.7485  0.8700
  318SOL     OW  952   2.171   2.543   0.844 -0.2342  0.0634  0.1261
  318SOL    HW1  953   2.173   2.448   0.811 -0.6398  0.3013  2.0330
  318SOL    HW2  954   2.218   2.601   0.774  0.6914 -1.1611  0.8359
  319SOL     OW  955   1.056   1.649   3.051 -0.0323  0.0835  0.3736
  319SOL    HW1  956   1.014   1.726   3.108 -1.7071 -1.3770 -3.0644
  319SOL    HW2  957   1.019   1.641   2.958 -0.7883 -1.3308  1.3919
  320SOL     OW  958   0.391   2.398   2.060 -0.3044  0.1845 -0.0587
  320SOL    HW1  959   0.329   2.315   2.047  0.1173 -1.3067 -1.6439
  320SOL    HW2  960   0.397   2.450   1.974 -0.4929 -2.1061 -0.2159
  321SOL     OW  961   1.770   2.954   2.752 -0.1119 -0.1257  0.3014
  321SOL    HW1  962   1.686   2.992   2.792 -3.6341  2.3437 -1.1872
  321SOL    HW2  963   1.826   3.027   2.711 -0.6988 -3.0388 -0.7622
  322SOL     OW  964   3.066   1.425   2.174 -0.3018 -0.0874  0.2584
  322SOL    HW1  965   0.017   1.463   2.135 -0.3533  1.3439  1.3317
  322SOL    HW2  966   3.003   1.491   2.220 -0.0248 -1.1000 -1.5013
  323SOL     OW  967   2.006   1.480   0.740 -0.1016 -0.2097  0.1400
  323SOL    HW1  968   1.960   1.410   0.680  1.5273 -0.2681 -1.7226
  323SOL    HW2  969   1.994   1.454   0.838  1.7761 -1.0439 -1.6166
  324SOL     OW  970   2.990   0.026   2.546  0.5186 -0.0217  0.4750
  324SOL    HW1  971   2.948   0.079   2.621 -0.3777  1.9028 -2.6009
  324SOL    HW2  972   3.054   3.092   2.585  1.5478  1.8237  1.1645
  325SOL     OW  973   1.373   0.781   2.694 -0.1466 -0.2513 -0.3514
  325SOL    HW1  974   1.362   0.751   2.598  1.4658 -0.3566 -0.1728
  325SOL    HW2  975   1.280   0.800   2.738 -0.8127  1.4985 -1.2573
  326SOL     OW  976   2.141   2.567   1.968  0.5693  0.2713 -0.1034
  326SOL    HW1  977   2.156   2.590   1.869  1.4367  0.5769 -1.4725
  326SOL    HW2  978   2.189   2.478   1.984  0.2467 -0.8853 -0.2934
  327SOL     OW  979   2.092   0.138   0.176  0.2220  0.3959  0.2208
  327SOL    HW1  980   2.128   0.057   0.218 -1.8504  1.1417 -1.4186
  327SOL    HW2  981   2.153   0.218   0.203  4.0519  2.3028  0.8869
  328SOL     OW  982   0.198   1.242   2.453 -0.0105  0.6012  0.4537
  328SOL    HW1  983   0.220   1.259   2.356  0.2871  3.1541 -0.4867
  328SOL    HW2  984   0.140   1.163   2.461 -0.5196  1.6766 -1.2570
  329SOL     OW  985   2.114   3.092   1.852  0.0507 -0.2974 -0.0212
  329SOL    HW1  986   2.086   3.051   1.760 -0.0320 -0.3431 -1.5302
  329SOL    HW2  987   2.178   3.029   1.908  0.3809  1.3658  2.5838
  330SOL     OW  988   3.010   1.410   1.228 -0.2145  0.3687 -0.6953
  330SOL    HW1  989   2.910   1.389   1.224  3.6226  0.0313 -0.2820
  330SOL    HW2  990   3.069   1.327   1.212 -1.6626 -1.3031  1.8873
  331SOL     OW  991   0.546   1.804   2.429 -0.0451  0.0312  0.4660
  331SOL    HW1  992   0.525   1.856   2.344  0.5326  2.2394 -2.9477
  331SOL    HW2  993   0.605   1.720   2.406  1.2723  0.6840  0.1086
  332SOL     OW  994   0.086   2.863   1.724  0.4230  0.0767  0.0228
  332SOL    HW1  995   0.180   2.850   1.687 -4.4202 -1.3655 -2.1777
  332SOL    HW2  996   0.011   2.858   1.652 -1.9058  0.9447 -2.5333
  333SOL     OW  997   2.068   2.942   0.970 -0.1159 -0.0261  0.1081
  333SOL    HW1  998   1.993   2.878   0.936 -2.0522  1.8534  2.1661
  333SOL    HW2  999   2.051   3.034   0.929  0.1825  2.2949 -0.5065
  334SOL     OW 1000   0.806   1.589   0.787  0.2305 -0.1689 -0.0063
  334SOL    HW1 1001   0.836   1.641   0.710 -0.3963  0.1094  0.2354
  334SOL    HW2 1002   0.849   1.624   0.874 -1.1933  0.1826  2.8516
  335SOL     OW 1003   0.278   2.568   3.070  0.5401 -0.3778  0.1096
  335SOL    HW1 1004   0.296   2.520   2.983  1.0180  1.3631 -0.2355
  335SOL    HW2 1005   0.315   2.664   3.059 -2.1254  0.6359 -1.0801
  336SOL     OW 1006   0.448   2.977   2.398  0.3308  0.2309 -0.4996
  336SOL    HW1 1007   0.378   3.037   2.443 -2.5230 -0.1156 -1.6876
  336SOL    HW2 1008   0.469   2.997   2.301 -2.4405  0.1574 -1.1303
  337SOL     OW 1009   2.268   2.279   2.666 -0.5640  1.0466  0.0867
  337SOL    HW1 1010   2.245   2.308   2.762  0.7780 -1.8669  1.5521
  337SOL    HW2 1011   2.268   2.358   2.606 -1.2604 -2.2307  1.0611
  338SOL     OW 1012   1.153   1.248   1.172  0.0900 -0.1171  0.0551
  338SOL    HW1 1013   1.073   1.291   1.126  0.3567  2.2240 -0.4127
  338SOL    HW2 1014   1.184   1.313   1.244 -1.4882  2.5224  0.2713
  339SOL     OW 1015   0.035   0.652   1.978 -0.5149 -0.0959  0.0405
  339SOL    HW1 1016   0.075   0.670   2.068  0.6871 -0.0781  0.3935
  339SOL    HW2 1017   3.105   0.721   1.952  0.2047 -0.4887 -0.4742
  340SOL     OW 1018   1.386   2.722   0.124  0.2958  0.1845  0.2348
  340SOL    HW1 1019   1.441   2.716   0.213 -1.4814 -0.9597  1.0886
  340SOL    HW2 1020   1.441   2.754   0.040  0.6631  1.3791 -1.1207
  341SOL     OW 1021   2.024   1.223   0.909  0.2068 -0.3787  0.5164
  341SOL    HW1 1022   1.928   1.217   0.876 -0.7591 -0.8437  1.3936
  341SOL    HW2 1023   2.053   1.299   0.969  2.7647 -1.6009 -2.2110
  342SOL     OW 1024   2.504   3.034   3.090  0.5235 -0.5906  0.4117
  342SOL    HW1 1025   2.419   2.989   3.062 -1.3097 -0.4613  1.8676
  342SOL    HW2 1026   2.579   2.970   3.086 -0.5312  3.0243 -0.9157
  343SOL     OW 1027   1.266   2.200   1.539 -0.3287 -0.5236  0.9514
  343SOL    HW1 1028   1.236   2.196   1.635 -0.3004  0.9704 -2.0304
  343SOL    HW2 1029   1.238   2.115   1.494 -2.7610 -2.8521 -2.3776
  344SOL     OW 1030   1.980   2.521   1.046  0.3262  0.1577 -0.4969
  344SOL    HW1 1031   2.038   2.542   0.962  1.5276  0.0883  0.5077
  344SOL    HW2 1032   2.033   2.538   1.132 -0.4582 -0.3845  0.1092
  345SOL     OW 1033   2.716   2.526   0.180  0.2557  0.0057  0.4160
  345SOL    HW1 1034   2.731   2.433   0.212 -1.6560  0.6395 -2.6324
  345SOL    HW2 1035   2.712   2.585   0.264  1.3081 -0.0165  1.1942
  346SOL     OW 1036   2.702   1.212   0.640 -0.4377 -0.2888  0.4706
  346SOL    HW1 1037   2.757   1.249   0.561  0.3621 -0.0903 -2.3915
  346SOL    HW2 1038   2.751   1.231   0.729 -3.1591 -0.2842  0.5990
  347SOL     OW 1039   2.042   2.359   1.602  0.5019  0.4931 -0.0447
  347SOL    HW1 1040   1.979   2.382   1.525 -0.4396  0.5823 -0.9329
  347SOL    HW2 1041   2.064   2.258   1.592  0.2804  1.9119  0.4423
  348SOL     OW 1042   0.965   1.848   0.075 -0.0958 -0.3170  0.5243
  348SOL    HW1 1043   1.042   1.889   0.126  0.2956 -1.7789 -0.8755
  348SOL    HW2 1044   0.873   1.860   0.116  1.7935 -0.2327  1.1918
  349SOL     OW 1045   2.582   1.494   1.746 -0.1648  0.0739  0.0329
  349SOL    HW1 1046   2.593   1.569   1.815  1.5450 -1.4827 -1.4341
  349SOL    HW2 1047   2.509   1.518   1.678 -0.8876  0.2197  0.9059
  350SOL     OW 1048   2.843   2.665   0.941  0.4978 -0.2206  0.2782
  350SOL    HW1 1049   2.755   2.687   0.985  1.0704 -2.2009 -0.7033
  350SOL    HW2 1050   2.915   2.724   0.984  0.2035  0.9152 -0.0617
  351SOL     OW 1051   0.431   0.369   2.203  0.3674 -0.1956  0.1636
  351SOL    HW1 1052   0.414   0.389   2.103  1.2617  1.0334  0.3463
  351SOL    HW2 1053   0.528   0.383   2.229  0.3924 -1.2227  0.7914
  352SOL     OW 1054   0.504   1.903   1.166 -0.4521 -0.5676  0.1086
  352SOL    HW1 1055   0.563   1.830   1.209  0.2938  0.9397 -0.4453
  352SOL    HW2 1056   0.423   1.861   1.122  0.1342 -0.1490  3.7301
  353SOL     OW 1057   1.599   1.788   2.554 -0.4531 -0.5933  0.3964
  353SOL    HW1 1058   1.662   1.841   2.490  1.8689 -0.3761 -1.7254
  353SOL    HW2 1059   1.639   1.700   2.577 -3.6242  1.9219 -2.3474
  354SOL     OW 1060   1.066   0.631   1.106  0.0356  0.4562 -0.3619
  354SOL    HW1 1061   1.160   0.587   1.099  1.6311  0.0684 -1.1304
  354SOL    HW2 1062   1.026   0.613   1.194 -2.2188 -1.2367  0.8870
  355SOL     OW 1063   2.519   0.790   0.787 -0.6376 -0.5140 -0.4428
  355SOL    HW1 1064   2.621   0.774   0.778  0.5516  0.6414 -1.3938
  355SOL    HW2 1065   2.502   0.871   0.730  1.7223  1.6122 -1.9692
  356SOL     OW 1066   2.541   1.804   2.323 -0.2276  0.4853 -0.2178
  356SOL    HW1 1067   2.513   1.829   2.423 -1.7080 -1.3057  1.2910
  356SOL    HW2 1068   2.586   1.711   2.322 -3.1355 -1.8272  0.6232
  357SOL     OW 1069   0.489   2.602   1.311 -0.1533 -0.1523  0.3740
  357SOL    HW1 1070   0.567   2.671   1.308  0.5984 -0.1731 -2.6176
  357SOL    HW2 1071   0.514   2.522   1.258  0.5536 -0.9531 -2.4431
  358SOL     OW 1072   2.566   0.801   1.794 -0.2011 -0.2970 -0.5812
  358SOL    HW1 1073   2.556   0.841   1.703 -1.6839 -0.7746  1.1742
  358SOL    HW2 1074   2.627   0.858   1.854  2.9278 -0.6533 -3.1875
  359SOL     OW 1075   2.682   2.519   2.855 -0.6917  0.4538 -0.3197
  359SOL    HW1 1076   2.629   2.520   2.770  1.0296 -2.4939  0.1627
  359SOL    HW2 1077   2.743   2.437   2.852  2.2742 -1.8280  2.3938
  360SOL     OW 1078   1.789   0.466   0.582 -0.2408  0.0491 -0.1754
  360SOL    HW1 1079   1.841   0.509   0.660  1.2408 -1.8550  2.3917
  360SOL    HW2 1080   1.703   0.520   0.568  1.0105  0.8847 -1.2368
  361SOL     OW 1081   2.312   0.217   1.281 -0.3678 -0.1550  0.1810
  361SOL    HW1 1082   2.289   0.270   1.364  1.0619 -1.5769 -1.6362
  361SOL    HW2 1083   2.230   0.182   1.230 -0.5999  0.3874 -4.2768
  362SOL     OW 1084   1.222   1.318   0.390 -0.5234 -0.2723  0.5121
  362SOL    HW1 1085   1.270   1.334   0.479  1.1934  1.7473 -2.1463
  362SOL    HW2 1086   1.172   1.403   0.361 -2.1623  0.9896 -0.2196
  363SOL     OW 1087   2.578   1.641   3.017 -0.4522  0.5312  0.4077
  363SOL    HW1 1088   2.664   1.600   3.042  0.2426  0.5898 -0.7545
  363SOL    HW2 1089   2.579   1.693   2.932  3.0595  1.4291 -1.3520
  364SOL     OW 1090   0.810   0.291   1.398 -0.5141 -0.3535  0.3761
  364SOL    HW1 1091   0.820   0.360   1.470 -0.2357 -0.5039 -3.4572
  364SOL    HW2 1092   0.735   0.229   1.405  2.7481 -0.4930  1.3622
  365SOL     OW 1093   0.186   3.042   0.556  0.0480 -0.2911  0.2918
  365SOL    HW1 1094   0.180   2.989   0.470 -0.5195 -2.6508  0.8111
  365SOL    HW2 1095   0.145   2.993   0.636  0.3076  1.1754  0.5301
  366SOL     OW 1096   2.929   1.491   0.155  0.2893 -0.2588 -0.8850
  366SOL    HW1 1097   3.003   1.566   0.161  1.0210  1.6031 -1.2443
  366SOL    HW2 1098   2.971   1.403   0.195 -3.1363 -0.3651  1.2901
  367SOL     OW 1099   2.899   2.670   2.869 -0.7549  0.0287 -0.4089
  367SOL    HW1 1100   2.811   2.619   2.867  1.8062 -0.7241  0.9506
  367SOL    HW2 1101   2.938   2.683   2.962  0.4363  0.4305 -1.6651
  368SOL     OW 1102   0.135   1.898   0.867  0.1579 -0.2356  0.4872
  368SOL    HW1 1103   0.078   1.929   0.792 -2.4498 -0.7917 -0.3356
  368SOL    HW2 1104   0.234   1.890   0.837 -2.9870 -1.5907  1.7770
  369SOL     OW 1105   0.726   2.917   0.360 -0.2782  0.4624 -0.1737
  369SOL    HW1 1106   0.657   2.955   0.294  0.2188 -2.4885 -1.9583
  369SOL    HW2 1107   0.685   2.853   0.434  1.0509 -2.4206  0.9539
  370SOL     OW 1108   0.305   0.965   0.759 -0.1734 -0.0876  0.4098
  370SOL    HW1 1109   0.272   0.883   0.800  0.5596  5.0534 -1.7091
  370SOL    HW2 1110   0.254   1.051   0.786 -3.4251  3.0145 -1.4001
  371SOL     OW 1111   1.812   2.907   0.614  0.5761 -0.0530  0.4494
  371SOL    HW1 1112   1.846   2.812   0.595  0.9329  0.8629  0.3825
  371SOL    HW2 1113   1.844   2.974   0.542  0.2072  0.1557  0.8536
  372SOL     OW 1114   0.151   0.963   2.718  0.2649  0.0161  0.5466
  372SOL    HW1 1115   0.094   1.006   2.647 -0.0844 -1.3886  2.4519
  372SOL    HW2 1116   0.249   0.993   2.712 -0.1099 -0.5814  0.1150
  373SOL     OW 1117   2.868   1.586   0.830 -0.1509  0.3345  0.2762
  373SOL    HW1 1118   2.911   1.640   0.906 -1.9651 -0.3290 -1.4776
  373SOL    HW2 1119   2.772   1.623   0.808 -0.9226 -1.2475 -2.6043
  374SOL     OW 1120   0.488   2.498   0.352  0.1535 -0.2184  0.3817
  374SOL    HW1 1121   0.468   2.465   0.259  0.1343 -0.5206  1.0040
  374SOL    HW2 1122   0.591   2.508   0.365  0.4709 -0.7839  2.0915
  375SOL     OW 1123   0.312   0.613   0.008  0.7368  0.3122 -0.0353
  375SOL    HW1 1124   0.398   0.654   0.047 -1.0790 -2.7348 -1.5820
  375SOL    HW2 1125   0.336   0.535   3.080 -0.0810 -1.5135 -3.1825
  376SOL     OW 1126   0.505   2.826   1.930 -0.0687  0.0461  0.1918
  376SOL    HW1 1127   0.532   2.818   2.030 -1.2679 -0.0466  0.0372
  376SOL    HW2 1128   0.496   2.926   1.906 -1.9699  0.7638  0.9417
  377SOL     OW 1129   1.212   2.398   2.502 -0.2372  0.0114  0.1178
  377SOL    HW1 1130   1.267   2.454   2.570  2.1344 -0.4388  0.8156
  377SOL    HW2 1131   1.257   2.308   2.494 -0.7411  0.9033 -1.3399
  378SOL     OW 1132   1.161   0.886   0.701 -0.1240 -0.0385 -0.8046
  378SOL    HW1 1133   1.075   0.940   0.707 -1.5350  0.9825  1.1139
  378SOL    HW2 1134   1.228   0.940   0.649 -1.4752 -1.7530 -0.3666
  379SOL     OW 1135   0.766   1.573   0.239 -0.1778  0.4841  0.0638
  379SOL    HW1 1136   0.844   1.559   0.171  2.1386 -0.4612 -3.2868
  379SOL    HW2 1137   0.747   1.483   0.290  1.6053 -3.8159  1.8976
  380SOL     OW 1138   0.199   1.911   1.431 -0.1517 -0.1928 -0.1747
  380SOL    HW1 1139   0.100   1.909   1.431  1.5664  0.5298 -2.3024
  380SOL    HW2 1140   0.228   2.001   1.392  0.2392 -0.7345 -0.3286
  381SOL     OW 1141   0.144   1.022   1.644 -0.4549 -0.6554 -0.3507
  381SOL    HW1 1142   0.131   1.101   1.702  2.7845 -1.2462 -0.8459
  381SOL    HW2 1143   0.223   0.971   1.679  0.5923  1.1662 -0.8422
  382SOL     OW 1144   2.591   2.220   0.666  0.3981 -0.1215 -0.4388
  382SOL    HW1 1145   2.504   2.263   0.632 -0.6406  3.8958 -1.9329
  382SOL    HW2 1146   2.596   2.216   0.768  0.5027  1.0878 -0.2865
  383SOL     OW 1147   2.182   1.881   2.585 -0.4161 -0.1021 -0.1647
  383SOL    HW1 1148   2.226   1.894   2.679  1.2713 -0.5682  2.4440
  383SOL    HW2 1149   2.206   1.959   2.526 -1.3970  0.0861  2.8320
  384SOL     OW 1150   0.449   1.970   2.247  0.5910 -0.4246 -0.1189
  384SOL    HW1 1151   0.483   2.065   2.225  0.1209 -0.2064  2.4658
  384SOL    HW2 1152   0.435   1.912   2.163  1.9169  1.0876 -1.7390
  385SOL     OW 1153   2.938   2.379   0.921 -0.4551  0.3614 -0.1393
  385SOL    HW1 1154   2.893   2.465   0.911 -0.0373 -3.3582  1.5957
  385SOL    HW2 1155   3.034   2.386   0.891 -1.1648 -1.1294  0.2587
  386SOL     OW 1156   1.573   0.705   0.308  0.7503 -0.6241 -0.8695
  386SOL    HW1 1157   1.479   0.674   0.276 -1.3344 -1.3131 -2.1487
  386SOL    HW2 1158   1.649   0.657   0.257 -1.5030 -0.2504 -3.6691
  387SOL     OW 1159   0.357   0.836   1.751 -0.3779  0.0272  0.1156
  387SOL    HW1 1160   0.333   0.742   1.748 -0.2359  1.7802 -0.0916
  387SOL    HW2 1161   0.398   0.871   1.839  2.3649  1.1821  3.9680
  388SOL     OW 1162   2.291   1.093   2.388 -0.3074  0.2653 -0.5454
  388SOL    HW1 1163   2.280   1.176   2.338  0.8072 -1.7016 -2.4184
  388SOL    HW2 1164   2.261   1.095   2.487 -1.4929  1.6908 -1.3004
  389SOL     OW 1165   1.648   1.178   2.048 -0.0613 -0.3390 -0.0661
  389SOL    HW1 1166   1.720   1.238   2.009 -1.1112 -1.6184 -1.5078
  389SOL    HW2 1167   1.561   1.206   2.002 -2.6540 -1.7928 -0.3263
  390SOL     OW 1168   1.972   2.622   0.245 -0.1462  0.0323 -0.0331
  390SOL    HW1 1169   1.980   2.529   0.212 -2.0209  3.3729 -0.7359
  390SOL    HW2 1170   1.922   2.681   0.182  0.5571  0.2957  1.4732
  391SOL     OW 1171   1.853   2.316   1.160  0.7614  0.3034  0.3716
  391SOL    HW1 1172   1.898   2.394   1.110 -0.7893 -0.3919  1.2125
  391SOL    HW2 1173   1.758   2.304   1.128 -2.0839  0.4659 -0.1533
  392SOL     OW 1174   3.014   2.459   1.415  0.1997  0.6980 -0.3957
  392SOL    HW1 1175   2.980   2.534   1.360  0.1833  0.6051  0.3422
  392SOL    HW2 1176   2.951   2.381   1.409 -0.2852  1.7680 -0.0171
  393SOL     OW 1177   2.069   1.925   0.028 -0.3247  0.7445 -0.7578
  393SOL    HW1 1178   2.124   1.838   0.030 -2.1085  1.8520  2.0315
  393SOL    HW2 1179   2.074   1.973   3.077  0.4707  0.8190  2.2156
  394SOL     OW 1180   0.167   3.037   3.007  0.3957 -0.1052 -0.4780
  394SOL    HW1 1181   0.074   3.025   2.962  0.3481 -1.6977 -0.7028
  394SOL    HW2 1182   0.250   3.019   2.948 -0.1277  0.3334  0.5171
  395SOL     OW 1183   1.456   1.222   1.292 -0.3862  0.0233 -0.2203
  395SOL    HW1 1184   1.543   1.269   1.262  1.6739 -0.2554  3.8604
  395SOL    HW2 1185   1.464   1.122   1.276  2.0539 -1.0457  1.9866
  396SOL     OW 1186   1.699   0.928   3.098 -0.0619  0.3764  0.3507
  396SOL    HW1 1187   1.676   0.996   0.028  1.0187  1.1103 -1.0211
  396SOL    HW2 1188   1.624   0.865   3.075 -0.4879  1.9010 -3.0882
  397SOL     OW 1189   0.159   0.681   2.754 -0.6799 -0.1231  0.5348
  397SOL    HW1 1190   0.076   0.638   2.711 -1.8718  2.5880 -1.6297
  397SOL    HW2 1191   0.153   0.782   2.744  1.5306 -0.6659 -1.5177
  398SOL     OW 1192   0.982   0.254   2.996  0.3095  0.1783  0.0695
  398SOL    HW1 1193   0.907   0.265   3.058  1.1592  1.9194  0.7806
  398SOL    HW2 1194   1.072   0.267   3.038  1.3018 -1.3156 -1.0712
  399SOL     OW 1195   2.516   2.856   1.770  0.1711  0.4958 -0.1923
  399SOL    HW1 1196   2.584   2.923   1.739 -2.8467  0.4053  0.3761
  399SOL    HW2 1197   2.572   2.791   1.826  1.7264 -1.0299 -0.3816
  400SOL     OW 1198   0.103   1.659   2.453  0.1200  0.1854  0.3341
  400SOL    HW1 1199   0.193   1.661   2.499 -1.3047  0.7696  0.2347
  400SOL    HW2 1200   0.100   1.708   2.362 -1.5247  0.0053 -1.3236
  401SOL     OW 1201   0.580   0.118   2.803  0.2997 -0.8808 -0.2718
  401SOL    HW1 1202   0.616   0.155   2.887 -0.0805  0.0795  0.3358
  401SOL    HW2 1203   0.655   0.074   2.751  0.8436  0.2659  0.0438
  402SOL     OW 1204   0.338   2.147   1.765 -0.0398  0.6853 -0.2777
  402SOL    HW1 1205   0.402   2.130   1.688 -0.4147  3.4210  2.0876
  402SOL    HW2 1206   0.298   2.239   1.757 -0.0228 -2.2755  0.3694
  403SOL     OW 1207   0.582   1.103   1.660  0.1109 -0.6804  0.3019
  403SOL    HW1 1208   0.572   1.008   1.628 -2.5554  0.9034 -1.2311
  403SOL    HW2 1209   0.680   1.131   1.666  0.4743  0.7985  0.7351
  404SOL     OW 1210   2.964   2.522   1.676  0.0417  0.1314  0.0563
  404SOL    HW1 1211   2.941   2.622   1.664 -0.8455 -0.4483  1.6551
  404SOL    HW2 1212   2.997   2.479   1.588  2.8819  2.1421  0.4004
  405SOL     OW 1213   3.038   0.220   1.855 -0.0072 -0.4861  0.1011
  405SOL    HW1 1214   3.106   0.147   1.841  2.0372  0.6742  0.9989
  405SOL    HW2 1215   3.069   0.280   1.931 -1.9908 -0.5971 -1.9539
  406SOL     OW 1216   1.653   2.580   2.935 -0.1256 -0.2168 -0.4788
  406SOL    HW1 1217   1.687   2.481   2.951  0.9655 -1.4982  2.7394
  406SOL    HW2 1218   1.678   2.617   2.843 -2.1424 -0.3501  0.6802
  407SOL     OW 1219   1.812   1.466   1.468 -0.2009  0.5517  0.2052
  407SOL    HW1 1220   1.810   1.377   1.421 -0.1181  0.1342 -1.3646
  407SOL    HW2 1221   1.757   1.474   1.553 -2.8434 -1.1567 -0.3905
  408SOL     OW 1222   0.785   0.097   2.256  0.8144 -0.0427 -0.4118
  408SOL    HW1 1223   0.723   0.173   2.288  0.1707 -1.4501  0.9554
  408SOL    HW2 1224   0.881   0.114   2.282 -1.9491 -0.4676  0.3851
  409SOL     OW 1225   2.924   2.705   0.411  0.5896  0.3475  0.9135
  409SOL    HW1 1226   3.004   2.645   0.390 -0.0986  2.0826 -0.4121
  409SOL    HW2 1227   2.927   2.793   0.369 -1.2052 -0.5143 -0.5904
  410SOL     OW 1228   2.339   1.777   0.593  0.0250  0.8624 -0.0224
  410SOL    HW1 1229   2.302   1.696   0.639 -0.0005  1.0799  0.2918
  410SOL    HW2 1230   2.437   1.760   0.572 -2.4712  0.1192  0.8523
  411SOL     OW 1231   3.100   0.636   0.962  0.1141  0.4878  0.0041
  411SOL    HW1 1232   3.108   0.532   0.975  0.7796 -0.3021 -0.0740
  411SOL    HW2 1233   0.056   0.679   0.948  0.2947  1.0764  1.4135
  412SOL     OW 1234   1.582   0.641   0.567  0.5340  0.5555  0.8726
  412SOL    HW1 1235   1.489   0.615   0.596  1.5159  0.6706 -1.6003
  412SOL    HW2 1236   1.589   0.664   0.468  3.8410 -1.4984  0.6963
  413SOL     OW 1237   0.788   0.353   1.092  0.2020  0.0779 -0.0374
  413SOL    HW1 1238   0.726   0.274   1.081  1.8088 -2.2306  0.7808
  413SOL    HW2 1239   0.795   0.385   1.187  1.4271 -0.3710 -0.5122
  414SOL     OW 1240   0.426   1.806   0.048 -0.6499 -0.1723 -0.0407
  414SOL    HW1 1241   0.421   1.738   3.112  1.7833  1.1752 -0.9447
  414SOL    HW2 1242   0.394   1.761   0.136  0.0482 -1.6027  2.3817
  415SOL     OW 1243   0.418   2.407   0.117  0.7565  0.2901 -0.2493
  415SOL    HW1 1244   0.384   2.312   0.118 -1.1283  1.0261  0.9257
  415SOL    HW2 1245   0.349   2.457   0.061  0.4242  2.2174 -0.0670
  416SOL     OW 1246   1.610   0.949   0.471 -0.2062 -0.2442  0.5239
  416SOL    HW1 1247   1.594   0.875   0.405 -1.4938 -2.0377 -0.7037
  416SOL    HW2 1248   1.627   0.913   0.567  0.3475 -2.5701  1.9016
  417SOL     OW 1249   0.427   0.902   0.500 -0.3376 -0.1958  0.0243
  417SOL    HW1 1250   0.377   0.917   0.408 -1.4304  0.5264 -4.6340
  417SOL    HW2 1251   0.374   0.946   0.577  0.9912  1.8692  1.8811
  418SOL     OW 1252   2.711   1.187   2.557 -0.0868  0.1934  0.1579
  418SOL    HW1 1253   2.689   1.227   2.467  0.9756  1.1619  0.3490
  418SOL    HW2 1254   2.705   1.256   2.633  0.7091  0.7997 -0.3381
  419SOL     OW 1255   0.352   0.340   3.106 -0.1784  0.1565  0.0217
  419SOL    HW1 1256   0.275   0.342   0.038 -0.0065  2.0283 -0.2965
  419SOL    HW2 1257   0.306   0.353   3.014  1.1027 -1.0530  0.3697
  420SOL     OW 1258   0.123   1.155   0.822  0.3652  0.1575 -0.2643
  420SOL    HW1 1259   0.109   1.254   0.827 -0.9708 -4.2013  0.9078
  420SOL    HW2 1260   0.052   1.107   0.765  1.3976  0.4374  2.1887
  421SOL     OW 1261   0.699   1.991   0.458  0.1342  0.1668 -0.4328
  421SOL    HW1 1262   0.763   2.062   0.422 -1.3806  0.6692  0.8608
  421SOL    HW2 1263   0.741   1.923   0.521 -2.2298  1.5929  2.4048
  422SOL     OW 1264   2.787   0.770   1.479 -0.4315  0.1795 -0.3420
  422SOL    HW1 1265   2.854   0.766   1.557 -2.5424 -0.2922 -1.8144
  422SOL    HW2 1266   2.733   0.679   1.471 -1.4542 -0.2453 -1.3566
  423SOL     OW 1267   1.606   1.560   1.113  0.1701 -0.0250  0.4053
  423SOL    HW1 1268   1.649   1.469   1.139 -0.2659 -1.9880 -1.0157
  423SOL    HW2 1269   1.655   1.642   1.149  0.5875 -0.9465 -2.3632
  424SOL     OW 1270   1.880   0.979   0.497 -0.1456  0.0652 -1.0154
  424SOL    HW1 1271   1.926   0.939   0.417 -1.2176 -0.1479  0.8749
  424SOL    HW2 1272   1.778   0.966   0.490 -0.3794 -2.0214 -1.3681
  425SOL     OW 1273   3.132   3.120   2.091  0.1417 -0.0845  0.7174
  425SOL    HW1 1274   0.001   0.025   2.187 -0.0801 -0.3311 -0.9093
  425SOL    HW2 1275   3.088   3.026   2.093  2.5423  0.5733 -1.1569
  426SOL     OW 1276   2.539   2.781   2.599 -0.0420 -0.3578 -0.3079
  426SOL    HW1 1277   2.594   2.830   2.671  0.9108  2.6349 -0.3841
  426SOL    HW2 1278   2.444   2.815   2.588  0.8629 -0.6717  3.3108
  427SOL     OW 1279   1.002   0.809   2.291 -0.0849 -0.4313 -0.2127
  427SOL    HW1 1280   0.910   0.768   2.271  0.9051 -2.3323  0.0195
  427SOL    HW2 1281   1.066   0.731   2.289 -3.5694  0.5631 -0.6137
  428SOL     OW 1282   2.101   0.911   2.368 -0.5071 -0.2580 -0.0271
  428SOL    HW1 1283   2.183   0.965   2.374 -1.7788 -2.0954 -0.8341
  428SOL    HW2 1284   2.019   0.965   2.332 -2.9756 -1.6782  1.7423
  429SOL     OW 1285   2.526   0.245   0.706 -0.1246  0.6427  0.6328
  429SOL    HW1 1286   2.572   0.278   0.624  1.7402 -2.0581  2.1500
  429SOL    HW2 1287   2.575   0.287   0.786  1.7587 -0.8870 -1.1706
  430SOL     OW 1288   2.157   1.398   2.150  0.4764  0.5409 -0.2933
  430SOL    HW1 1289   2.129   1.392   2.249 -1.2652  0.0086  0.0810
  430SOL    HW2 1290   2.197   1.314   2.112  0.1728  1.0465  0.4276
  431SOL     OW 1291   3.074   2.072   1.208 -0.3913  0.3734  0.3487
  431SOL    HW1 1292   2.991   2.130   1.181 -1.6731  0.3038  1.3028
  431SOL    HW2 1293   3.042   2.004   1.280 -0.9383 -1.4647 -0.2634
  432SOL     OW 1294   1.616   2.938   2.169 -0.1859  0.0363 -0.2742
  432SOL    HW1 1295   1.589   3.037   2.169 -0.7889  2.4625  0.8055
  432SOL    HW2 1296   1.709   2.930   2.137 -3.9136  2.2518  1.1217
  433SOL     OW 1297   1.738   3.044   1.724 -0.2148  0.0773 -0.3559
  433SOL    HW1 1298   1.651   3.007   1.685  1.7344  2.1039  0.6947
  433SOL    HW2 1299   1.824   3.017   1.675 -1.5870 -0.9395 -2.4251
  434SOL     OW 1300   0.094   2.348   2.388 -0.5071 -0.3388 -0.1181
  434SOL    HW1 1301   0.010   2.308   2.360  2.4257 -0.1136 -0.0930
  434SOL    HW2 1302   0.114   2.422   2.320  1.3969  0.5849 -1.2531
  435SOL     OW 1303   0.173   2.107   0.356 -0.0351 -0.5121  0.3318
  435SOL    HW1 1304   0.273   2.105   0.347 -1.9453  2.2017  1.8776
  435SOL    HW2 1305   0.130   2.024   0.394 -0.8295  2.7705 -0.4530
  436SOL     OW 1306   0.942   1.030   1.693 -0.2130  0.4461  0.3262
  436SOL    HW1 1307   1.041   1.047   1.667  1.6407 -2.2693  0.5508
  436SOL    HW2 1308   0.927   0.974   1.778 -0.1153 -2.2509 -0.3934
  437SOL     OW 1309   0.677   0.370   2.374 -0.0149  0.0134 -0.1341
  437SOL    HW1 1310   0.761   0.379   2.439  1.6158  1.2895  0.3889
  437SOL    HW2 1311   0.597   0.335   2.430  0.0980 -0.7755  1.7996
  438SOL     OW 1312   0.545   1.738   1.555 -0.0989 -0.5041 -0.0830
  438SOL    HW1 1313   0.557   1.828   1.601  0.1476  1.9017  0.3991
  438SOL    HW2 1314   0.579   1.673   1.621 -1.3641  3.3581 -0.2866
  439SOL     OW 1315   1.957   0.868   0.041  0.3461  0.5050 -0.4486
  439SOL    HW1 1316   1.859   0.892   0.023 -0.4206  2.3072  2.4716
  439SOL    HW2 1317   2.024   0.945   0.017  2.3874  1.6966 -0.4360
  440SOL     OW 1318   0.968   0.868   0.327 -0.4112  0.3415 -0.0135
  440SOL    HW1 1319   1.070   0.886   0.306  1.7203 -1.3458 -0.4668
  440SOL    HW2 1320   0.956   0.778   0.372  2.0887 -0.4403  0.1996
  441SOL     OW 1321   0.605   2.362   1.667  0.0509 -0.1234 -0.2747
  441SOL    HW1 1322   0.677   2.332   1.736  0.5797  0.5260  0.7269
  441SOL    HW2 1323   0.561   2.282   1.622 -3.1382 -0.1447  0.7857
  442SOL     OW 1324   2.889   2.198   0.722  0.0989 -0.0180 -0.5490
  442SOL    HW1 1325   2.904   2.248   0.809  2.0327  0.7665  2.0843
  442SOL    HW2 1326   2.793   2.213   0.693  2.9196 -0.1605  1.5864
  443SOL     OW 1327   2.843   1.866   2.738 -0.0379 -0.2233  0.3157
  443SOL    HW1 1328   2.844   1.949   2.683 -1.0990 -2.9586  3.0979
  443SOL    HW2 1329   2.936   1.819   2.716  0.5690 -0.3401  1.1510
  444SOL     OW 1330   1.293   1.127   0.203 -0.3949 -0.7296  0.4504
  444SOL    HW1 1331   1.273   1.030   0.222 -0.1089 -0.6098  1.2727
  444SOL    HW2 1332   1.288   1.187   0.289 -1.0391 -0.3207 -0.2006
  445SOL     OW 1333   2.704   2.681   1.873  0.6022 -0.5591  0.2672
  445SOL    HW1 1334   2.797   2.694   1.831  0.6628 -0.2483 -0.9101
  445SOL    HW2 1335   2.690   2.598   1.931 -3.0369 -2.0854  3.9496
  446SOL     OW 1336   2.893   1.319   0.454 -0.5137  0.2158 -0.3707
  446SOL    HW1 1337   2.910   1.396   0.516 -1.3545 -2.9652  0.9642
  446SOL    HW2 1338   2.979   1.274   0.417 -0.5584 -1.9651 -0.0973
  447SOL     OW 1339   1.061   2.447   1.488  0.0858 -0.0439 -0.5458
  447SOL    HW1 1340   1.119   2.513   1.540 -0.6838 -1.8361  1.2277
  447SOL    HW2 1341   1.081   2.436   1.389 -0.2924  1.6002  1.1749
  448SOL     OW 1342   1.413   1.600   1.786 -0.0980  0.0012  0.7240
  448SOL    HW1 1343   1.421   1.641   1.879  0.0660 -0.2061 -1.4348
  448SOL    HW2 1344   1.348   1.522   1.785 -0.2419  1.7877 -0.1747
  449SOL     OW 1345   2.976   2.205   2.352  0.2364 -0.1910 -0.0339
  449SOL    HW1 1346   2.902   2.224   2.418 -1.7704 -2.4920  0.1687
  449SOL    HW2 1347   2.954   2.267   2.275 -0.5490  0.3064  0.8953
  450SOL     OW 1348   0.034   1.800   2.225  0.0314  0.4628  0.3545
  450SOL    HW1 1349   0.054   1.886   2.277 -0.0633  0.5204 -0.9742
  450SOL    HW2 1350   0.082   1.813   2.135 -2.1482 -0.2788  0.5121
  451SOL     OW 1351   2.168   0.685   1.712  0.6540  1.0894  0.2861
  451SOL    HW1 1352   2.214   0.733   1.642  1.0580 -0.9824  3.9891
  451SOL    HW2 1353   2.094   0.742   1.749 -0.9192 -0.1496  0.0180
  452SOL     OW 1354   0.964   1.351   1.028 -0.1020 -0.4308 -0.2603
  452SOL    HW1 1355   0.961   1.453   1.016  1.7065  3.5970 -4.3379
  452SOL    HW2 1356   0.906   1.306   0.958 -0.9387  0.8780 -0.9174
  453SOL     OW 1357   1.205   2.278   0.933 -0.6605  0.2102 -0.4452
  453SOL    HW1 1358   1.231   2.370   0.904  0.8121 -2.4672  0.9432
  453SOL    HW2 1359   1.278   2.240   0.986 -0.4598  3.3286 -0.5477
  454SOL     OW 1360   0.149   1.430   0.341  0.2777 -0.4032  0.0482
  454SOL    HW1 1361   0.112   1.350   0.392 -0.2312  2.6838 -2.1528
  454SOL    HW2 1362   0.229   1.403   0.284  1.5067 -0.3385  0.4293
  455SOL     OW 1363   0.968   1.166   0.353 -0.3726  0.5338 -0.1947
  455SOL    HW1 1364   0.964   1.068   0.342 -1.5481 -0.1018  1.9199
  455SOL    HW2 1365   1.064   1.199   0.347  0.4618 -0.8504 -1.7356
  456SOL     OW 1366   1.901   2.642   0.601  0.1023 -0.0751  0.3430
  456SOL    HW1 1367   1.960   2.653   0.517  0.3692  1.3616 -1.3162
  456SOL    HW2 1368   1.884   2.547   0.633 -0.3485  0.8992 -1.5089
  457SOL     OW 1369   1.559   3.054   2.934 -0.4733  0.4325  0.2372
  457SOL    HW1 1370   1.592   3.132   2.990 -0.6101 -2.2861  0.3842
  457SOL    HW2 1371   1.480   3.080   2.876  1.2084 -0.0380 -1.3445
  458SOL     OW 1372   2.575   0.675   0.233 -0.0803  0.4636 -1.0620
  458SOL    HW1 1373   2.479   0.654   0.204 -0.2071  0.1665 -0.7033
  458SOL    HW2 1374   2.574   0.752   0.300 -0.7973 -0.0625 -0.5237
  459SOL     OW 1375   2.165   0.239   2.284 -0.0906  0.2415 -0.1043
  459SOL    HW1 1376   2.144   0.298   2.204  1.0304  1.0366  1.8598
  459SOL    HW2 1377   2.248   0.272   2.328  0.2478 -1.2558 -0.1008
  460SOL     OW 1378   2.799   0.621   2.813  0.0472  0.4036 -0.7282
  460SOL    HW1 1379   2.782   0.599   2.913 -0.5801  2.6502  1.2928
  460SOL    HW2 1380   2.741   0.699   2.792 -0.6421  1.2927  1.8503
  461SOL     OW 1381   0.114   2.438   0.825  0.0122  0.1838 -0.4034
  461SOL    HW1 1382   0.187   2.373   0.845 -4.0158 -0.8921  0.0490
  461SOL    HW2 1383   0.092   2.436   0.726  0.0701  2.0459  1.6860
  462SOL     OW 1384   2.898   2.667   1.271 -0.4200 -0.0156 -0.3373
  462SOL    HW1 1385   2.854   2.759   1.291 -0.8776  3.0416 -0.4548
  462SOL    HW2 1386   2.958   2.683   1.190  1.9209 -0.5233  0.1930
  463SOL     OW 1387   2.484   1.864   0.025  0.0532 -0.4073  0.3553
  463SOL    HW1 1388   2.429   1.879   3.077 -3.8562 -1.3405 -1.1607
  463SOL    HW2 1389   2.568   1.813   0.007 -2.3146  2.1923  0.2616
  464SOL     OW 1390   0.818   2.526   1.542  0.0006 -0.0327 -0.6598
  464SOL    HW1 1391   0.748   2.453   1.572 -2.0698  0.2439 -2.3848
  464SOL    HW2 1392   0.917   2.491   1.540  1.6002  0.9537 -1.1785
  465SOL     OW 1393   1.158   0.178   1.610 -0.3392 -0.1181 -0.1814
  465SOL    HW1 1394   1.254   0.168   1.645  0.6571 -2.0516  0.0264
  465SOL    HW2 1395   1.097   0.227   1.676  0.4824  3.2095  1.7907
  466SOL     OW 1396   1.724   2.658   1.836 -0.0826  0.0929 -0.0384
  466SOL    HW1 1397   1.759   2.583   1.895 -0.2276  0.3277  3.6066
  466SOL    HW2 1398   1.626   2.663   1.861  0.0974 -2.0216 -1.7511
  467SOL     OW 1399   0.831   2.115   1.380 -0.4014  0.1151  0.5816
  467SOL    HW1 1400   0.729   2.127   1.373  1.8010 -3.1203 -0.3518
  467SOL    HW2 1401   0.872   2.144   1.468  0.9155 -0.1665 -1.0457
  468SOL     OW 1402   2.646   1.556   2.266 -0.3510 -0.0778  0.5183
  468SOL    HW1 1403   2.741   1.578   2.231  0.5311  1.7023 -0.1839
  468SOL    HW2 1404   2.639   1.459   2.297 -0.7683 -0.3567  0.3775
  469SOL     OW 1405   0.860   1.898   0.908  0.0892  0.6071  0.5061
  469SOL    HW1 1406   0.772   1.939   0.942 -1.4911 -0.1053 -0.2092
  469SOL    HW2 1407   0.900   1.819   0.964  0.4628  0.7248 -0.2295
  470SOL     OW 1408   1.850   1.374   2.059  0.0916  0.3395 -0.3113
  470SOL    HW1 1409   1.921   1.316   2.099  2.0140  0.2719 -0.4057
  470SOL    HW2 1410   1.813   1.430   2.136 -0.3855  0.4934 -3.0500
  471SOL     OW 1411   0.638   2.467   3.123  0.3558 -0.2303 -0.2358
  471SOL    HW1 1412   0.542   2.449   0.029 -0.1790  0.5868  0.7440
  471SOL    HW2 1413   0.711   2.421   0.042  1.1314 -0.0966  1.7382
  472SOL     OW 1414   0.036   2.754   1.995  0.4779  0.2415  0.1041
  472SOL    HW1 1415   3.088   2.777   2.048 -0.3096  1.8563  2.9898
  472SOL    HW2 1416   0.060   2.826   1.931  1.2015 -1.6037 -0.3448
  473SOL     OW 1417   0.719   2.754   3.119  0.7527  0.1761  0.4496
  473SOL    HW1 1418   0.791   2.747   0.055 -0.2384 -2.9240 -1.5923
  473SOL    HW2 1419   0.660   2.670   3.127  2.0070 -1.0122 -0.5195
  474SOL     OW 1420   2.602   2.791   1.061 -0.9879  0.7692  0.2591
  474SOL    HW1 1421   2.517   2.737   1.042 -1.0377 -1.1837 -2.5310
  474SOL    HW2 1422   2.601   2.877   1.006  0.3221 -0.6892 -0.2806
  475SOL     OW 1423   1.972   3.002   1.611 -0.6045 -0.1263 -0.2905
  475SOL    HW1 1424   1.965   2.904   1.638  1.2112 -3.0022 -0.5478
  475SOL    HW2 1425   1.949   3.011   1.515 -1.4329  1.5911 -0.2192
  476SOL     OW 1426   0.583   1.170   0.696  0.0836 -0.4622  0.7221
  476SOL    HW1 1427   0.565   1.244   0.764  0.3566  0.1227 -1.9227
  476SOL    HW2 1428   0.566   1.079   0.736  0.9162 -1.1942 -0.3820
  477SOL     OW 1429   0.392   1.859   0.754 -0.4030 -0.5626 -0.4733
  477SOL    HW1 1430   0.484   1.896   0.786 -1.5187 -0.8997 -0.2993
  477SOL    HW2 1431   0.396   1.836   0.654 -1.5534 -0.0041  2.0557
  478SOL     OW 1432   2.959   2.571   2.421  0.6571  0.0365  0.3599
  478SOL    HW1 1433   2.899   2.647   2.440  0.6425 -1.8325 -0.2367
  478SOL    HW2 1434   3.018   2.545   2.500  0.7405  1.2985  1.4434
  479SOL     OW 1435   3.056   0.193   1.487 -0.8059 -0.5596  0.4030
  479SOL    HW1 1436   3.032   0.147   1.575 -0.5992 -0.5827  1.1479
  479SOL    HW2 1437   3.114   0.275   1.506 -0.0280 -1.1248 -1.4343
  480SOL     OW 1438   2.931   2.420   3.131  0.4594  0.0855 -0.5565
  480SOL    HW1 1439   2.953   2.326   0.021  1.6488 -1.0492  0.9676
  480SOL    HW2 1440   2.876   2.476   0.060 -0.6505  2.4234  1.8147
  481SOL     OW 1441   2.237   1.914   1.757  0.2706  0.1374  0.1618
  481SOL    HW1 1442   2.151   1.954   1.796 -0.7191 -1.4013  2.1492
  481SOL    HW2 1443   2.313   1.981   1.741 -0.7537 -2.8285  2.4814
  482SOL     OW 1444   1.843   2.214   2.682 -0.1506 -0.4788  0.4836
  482SOL    HW1 1445   1.873   2.120   2.694  0.7699  1.6855  3.2537
  482SOL    HW2 1446   1.813   2.241   2.590 -0.6252  0.8346  1.9035
  483SOL     OW 1447   0.712   1.596   2.371  0.2259  0.1815  0.4688
  483SOL    HW1 1448   0.749   1.498   2.352  1.5493 -2.2312 -1.7156
  483SOL    HW2 1449   0.773   1.668   2.330  0.6797 -1.3093  0.3233
  484SOL     OW 1450   0.048   0.436   1.599  0.0930  0.1725  0.0573
  484SOL    HW1 1451   0.037   0.507   1.526 -1.0501 -3.0700 -1.6675
  484SOL    HW2 1452   0.111   0.469   1.673  0.3406  1.1521  1.5589
  485SOL     OW 1453   2.277   1.084   0.338  1.0418  0.1949 -0.2026
  485SOL    HW1 1454   2.305   1.092   0.243 -0.6615 -0.2456  0.0269
  485SOL    HW2 1455   2.248   1.176   0.376  1.0249 -0.9507  0.6133
  486SOL     OW 1456   1.549   0.083   2.195 -0.4474  0.7787  0.0928
  486SOL    HW1 1457   1.560   0.152   2.115  1.2857  2.5722 -0.2320
  486SOL    HW2 1458   1.610   0.111   2.270  1.4135  0.4435 -1.3306
  487SOL     OW 1459   0.871   1.850   1.424  0.5678  0.1021 -0.2680
  487SOL    HW1 1460   0.848   1.949   1.422  1.1806 -1.5689  0.1853
  487SOL    HW2 1461   0.792   1.802   1.378 -2.6225  0.5341 -1.3273
  488SOL     OW 1462   2.542   1.323   0.018  0.2142 -0.4421 -0.3224
  488SOL    HW1 1463   2.620   1.372   3.110 -2.9913  1.4808  1.8708
  488SOL    HW2 1464   2.565   1.318   0.117  0.6140 -1.5613 -2.0793
  489SOL     OW 1465   2.414   3.116   0.615 -0.5271 -0.3311  0.1706
  489SOL    HW1 1466   2.368   3.060   0.688  0.4972  2.5945 -1.2412
  489SOL    HW2 1467   2.465   0.058   0.649  0.5691 -1.5336 -1.5728
  490SOL     OW 1468   1.233   2.733   2.912  0.4661 -0.7498 -0.4046
  490SOL    HW1 1469   1.299   2.658   2.928  0.1932 -0.3058 -2.4498
  490SOL    HW2 1470   1.198   2.778   2.997 -1.0285 -0.0026 -0.3624
  491SOL     OW 1471   1.244   1.114   0.917  0.1665  0.1637 -0.3596
  491SOL    HW1 1472   1.210   1.180   0.987  0.8608  1.1487 -1.7218
  491SOL    HW2 1473   1.161   1.074   0.875  0.7881  0.7109 -0.2717
  492SOL     OW 1474   1.292   0.349   2.422  0.5338 -0.0328 -0.0010
  492SOL    HW1 1475   1.387   0.371   2.454  1.5684 -0.0643 -0.8720
  492SOL    HW2 1476   1.287   0.256   2.386  1.2718  2.1835  0.5100
  493SOL     OW 1477   1.819   2.018   0.102  0.4576 -0.3013 -0.0064
  493SOL    HW1 1478   1.848   2.091   0.167 -0.6743 -1.0148 -0.6456
  493SOL    HW2 1479   1.896   1.958   0.083 -0.4721 -0.1899  1.6397
  494SOL     OW 1480   0.511   1.242   0.419  0.4010 -0.2597 -0.4516
  494SOL    HW1 1481   0.452   1.328   0.422 -1.0657  2.5749  0.1370
  494SOL    HW2 1482   0.530   1.205   0.512  0.1129  1.5491 -0.9729
  495SOL     OW 1483   2.933   2.783   0.675  0.0532 -0.1076 -0.3332
  495SOL    HW1 1484   2.915   2.705   0.735 -4.4445  0.1049 -2.1115
  495SOL    HW2 1485   2.901   2.765   0.581  2.2752 -0.4190 -0.2028
  496SOL     OW 1486   2.608   0.246   1.704  0.0425 -0.0471  0.2937
  496SOL    HW1 1487   2.590   0.207   1.613 -1.1214  2.1158  0.8510
  496SOL    HW2 1488   2.688   0.202   1.749 -1.4344 -0.6766  0.8309
  497SOL     OW 1489   2.381   1.440   2.456  0.4598  0.1205 -0.0897
  497SOL    HW1 1490   2.395   1.520   2.516  2.0996 -0.3443  1.1479
  497SOL    HW2 1491   2.280   1.423   2.439 -2.3707 -1.2321 -0.3454
  498SOL     OW 1492   0.658   2.049   1.000  0.0871  0.0733  0.2410
  498SOL    HW1 1493   0.601   2.054   0.916  1.1162 -0.6204 -0.0262
  498SOL    HW2 1494   0.610   2.001   1.078 -1.1635 -2.6262  1.8842
  499SOL     OW 1495   0.928   2.228   1.603 -0.2813  0.2036 -0.0904
  499SOL    HW1 1496   0.912   2.257   1.698  0.8367  0.4276  2.1828
  499SOL    HW2 1497   0.996   2.286   1.553 -2.2865 -0.0552 -0.6770
  500SOL     OW 1498   1.159   1.974   0.209  0.2376 -0.1166 -0.0390
  500SOL    HW1 1499   1.180   1.978   0.310 -1.1183  1.8463 -3.7708
  500SOL    HW2 1500   1.238   1.941   0.152  0.7840 -1.2092  0.9724
  501SOL     OW 1501   2.482   2.885   1.311 -0.3717  0.0126  0.2010
  501SOL    HW1 1502   2.394   2.896   1.264  2.7804  2.3549 -1.2043
  501SOL    HW2 1503   2.552   2.843   1.251 -1.5892  1.9023  0.0728
  502SOL     OW 1504   2.856   0.446   1.718  0.5709  0.6265  0.2808
  502SOL    HW1 1505   2.938   0.400   1.756 -0.7717  0.7503  0.3738
  502SOL    HW2 1506   2.773   0.386   1.724  0.2712 -0.8573  0.2305
  503SOL     OW 1507   2.735   1.011   1.895 -0.1554 -0.4677 -0.2932
  503SOL    HW1 1508   2.749   1.012   1.994 -0.4728  3.1363 -0.1133
  503SOL    HW2 1509   2.696   1.098   1.858  0.6281  0.0422  2.9787
  504SOL     OW 1510   1.345   0.855   1.610  0.2143 -0.2686 -0.1038
  504SOL    HW1 1511   1.372   0.761   1.628  0.1502  1.6722  0.5468
  504SOL    HW2 1512   1.419   0.912   1.639 -2.0076  0.4018 -2.5812
  505SOL     OW 1513   0.860   0.020   2.014 -0.4687 -0.1250 -0.1218
  505SOL    HW1 1514   0.886   3.058   2.005 -0.3707 -1.3857 -2.0648
  505SOL    HW2 1515   0.824   0.039   2.107 -1.8117  0.6576 -2.7052
  506SOL     OW 1516   0.032   0.375   0.930 -0.0809 -0.9004  0.9068
  506SOL    HW1 1517   0.034   0.386   0.830  2.5040  0.4716 -0.9759
  506SOL    HW2 1518   0.056   0.278   0.958  1.0071 -1.2424  0.7587
  507SOL     OW 1519   1.706   0.508   3.024  0.0383 -0.2864  0.0231
  507SOL    HW1 1520   1.708   0.453   2.938  1.8314 -1.1426  3.1694
  507SOL    HW2 1521   1.665   0.448   3.099 -0.8115  1.1535  0.9931
  508SOL     OW 1522   1.727   0.262   2.355 -0.2498 -0.3257 -0.0600
  508SOL    HW1 1523   1.675   0.344   2.388 -1.0457  1.2485  0.9112
  508SOL    HW2 1524   1.804   0.238   2.415 -1.0732  2.0053  1.2983
  509SOL     OW 1525   0.803   1.345   1.920 -0.0954 -0.0522  0.0503
  509SOL    HW1 1526   0.848   1.424   1.967 -2.0329  0.9535 -1.2374
  509SOL    HW2 1527   0.801   1.263   1.982  0.4143 -1.1530  3.5671
  510SOL     OW 1528   2.861   1.043   0.830 -0.1162  0.1632  0.2302
  510SOL    HW1 1529   2.888   0.971   0.901 -0.0770  0.6406 -1.4479
  510SOL    HW2 1530   2.850   1.135   0.872 -2.1122  1.0166  2.9827
  511SOL     OW 1531   2.001   2.125   1.247 -0.8113 -0.1350  0.4619
  511SOL    HW1 1532   1.937   2.203   1.221 -0.1195  2.0051  0.1116
  511SOL    HW2 1533   2.103   2.148   1.238  2.3880 -2.3991 -0.1882
  512SOL     OW 1534   0.130   1.628   0.527 -0.1791  0.0571  0.3626
  512SOL    HW1 1535   0.135   1.550   0.458 -0.5781 -1.3280  1.8647
  512SOL    HW2 1536   0.214   1.622   0.586 -0.2474 -0.4555  1.1161
  513SOL     OW 1537   0.078   2.348   0.492 -0.1219 -0.1403  0.0450
  513SOL    HW1 1538   0.107   2.265   0.441  1.7586  3.3798  2.4032
  513SOL    HW2 1539   3.114   2.345   0.484  1.6948  1.1653 -3.5829
  514SOL     OW 1540   2.459   2.106   2.767  0.7499 -0.0113 -0.3218
  514SOL    HW1 1541   2.421   2.186   2.721 -0.5821 -1.6670  0.5998
  514SOL    HW2 1542   2.384   2.039   2.795  0.7922 -0.9995  1.3378
  515SOL     OW 1543   2.241   1.340   0.418 -0.3989  0.1584 -0.1383
  515SOL    HW1 1544   2.242   1.386   0.324  0.0506 -0.4198  1.1222
  515SOL    HW2 1545   2.335   1.349   0.461  0.2829 -0.5380 -0.7981
  516SOL     OW 1546   1.945   3.093   0.454  0.3422  0.1919 -0.1820
  516SOL    HW1 1547   1.911   0.044   0.469  2.5071 -2.7485  0.2321
  516SOL    HW2 1548   2.039   3.084   0.487  0.4098 -1.7918  2.0843
  517SOL     OW 1549   0.931   2.139   3.021 -0.0589  0.0611  0.2452
  517SOL    HW1 1550   0.977   2.138   3.113 -1.1493 -0.9179 -0.1451
  517SOL    HW2 1551   0.831   2.141   3.026 -0.0622 -2.2138  0.2306
  518SOL     OW 1552   0.603   0.581   1.903 -0.0943  0.4459  0.2040
  518SOL    HW1 1553   0.658   0.503   1.943 -1.8381 -0.1733 -0.9711
  518SOL    HW2 1554   0.605   0.664   1.954 -0.7198  1.0593 -3.0768
  519SOL     OW 1555   3.018   1.179   0.133 -0.8127 -0.3977 -0.1080
  519SOL    HW1 1556   3.061   1.187   0.042  0.9948  0.1881 -0.8126
  519SOL    HW2 1557   3.051   1.091   0.167 -3.3307  3.6510 -0.4234
  520SOL     OW 1558   2.563   1.945   1.749  0.1861 -0.0680 -0.0483
  520SOL    HW1 1559   2.485   1.897   1.792  0.6631 -0.4025  3.1095
  520SOL    HW2 1560   2.621   1.994   1.815 -1.9292 -0.6752 -1.8636
  521SOL     OW 1561   0.406   2.575   2.285  0.3621  0.0216 -0.0467
  521SOL    HW1 1562   0.496   2.569   2.338 -0.4836 -1.9267 -0.5532
  521SOL    HW2 1563   0.390   2.489   2.240 -2.3747 -1.4382  0.0504
  522SOL     OW 1564   1.870   0.096   2.111  0.1997 -0.3346 -0.0787
  522SOL    HW1 1565   1.953   0.073   2.167 -2.5385 -1.5452 -0.1187
  522SOL    HW2 1566   1.805   0.144   2.174 -1.5225  1.7512  0.4126
  523SOL     OW 1567   1.893   1.925   1.397  0.1218  0.0824  0.3389
  523SOL    HW1 1568   1.970   1.878   1.443  2.5872  0.7984  0.4520
  523SOL    HW2 1569   1.927   2.011   1.362  1.3972 -2.6930 -0.7093
  524SOL     OW 1570   0.886   2.756   0.190  0.0746 -0.4054 -0.1682
  524SOL    HW1 1571   0.848   2.805   0.268  1.4269 -1.0667 -1.3650
  524SOL    HW2 1572   0.969   2.710   0.225  0.6460 -1.2331 -0.7982
  525SOL     OW 1573   2.998   0.390   0.193 -0.3082  0.2120 -0.0909
  525SOL    HW1 1574   2.940   0.473   0.185  1.0217 -2.0875 -0.5742
  525SOL    HW2 1575   3.103   0.406   0.181  1.6172 -1.5220  0.6133
  526SOL     OW 1576   0.717   3.022   0.673  0.1159 -0.6075  0.0417
  526SOL    HW1 1577   0.730   2.983   0.765  2.7623 -1.2650  0.2060
  526SOL    HW2 1578   0.630   2.992   0.632  1.9146  0.8105  0.5672
  527SOL     OW 1579   2.715   1.859   0.951 -0.0540 -0.2129  0.6502
  527SOL    HW1 1580   2.721   1.818   1.047  1.4295  2.1243 -0.5494
  527SOL    HW2 1581   2.723   1.961   0.958  0.1251  0.5792  0.0684
  528SOL     OW 1582   2.841   0.528   2.400 -0.0230  0.1701 -0.4931
  528SOL    HW1 1583   2.941   0.515   2.384  0.4990  0.0637 -1.4469
  528SOL    HW2 1584   2.786   0.489   2.322  0.3925 -2.1807 -0.6995
  529SOL     OW 1585   1.285   1.556   2.612 -0.2264 -0.6263 -0.3996
  529SOL    HW1 1586   1.385   1.561   2.634 -0.1292  2.8959 -1.5526
  529SOL    HW2 1587   1.233   1.635   2.651 -0.8655 -0.2168 -2.0754
  530SOL     OW 1588   1.964   1.165   2.526  0.3037 -0.4173  0.4754
  530SOL    HW1 1589   1.910   1.106   2.460  0.9738  3.5285  0.6040
  530SOL    HW2 1590   2.053   1.118   2.542 -1.7584  0.2838 -0.8592
  531SOL     OW 1591   0.762   1.913   2.583 -0.5401  0.4140  0.1675
  531SOL    HW1 1592   0.698   1.854   2.532  0.9141  0.3557  3.4482
  531SOL    HW2 1593   0.771   1.873   2.676  0.3801 -1.9718 -0.6825
  532SOL     OW 1594   2.007   1.522   0.406 -0.4155  0.3861 -0.4916
  532SOL    HW1 1595   2.089   1.472   0.428 -0.8878 -1.5655  0.1807
  532SOL    HW2 1596   1.997   1.601   0.470 -1.1643  0.2636 -0.1349
  533SOL     OW 1597   0.351   0.145   1.852 -0.1517 -0.3330 -0.2629
  533SOL    HW1 1598   0.400   0.059   1.835 -3.0757 -1.6230  0.8757
  533SOL    HW2 1599   0.250   0.124   1.848 -2.8589  0.6467  2.8698
  534SOL     OW 1600   0.820   2.873   2.890  0.3418 -0.1769 -0.4583
  534SOL    HW1 1601   0.760   2.861   2.975  0.8209  0.0875 -0.2957
  534SOL    HW2 1602   0.913   2.830   2.897 -2.3089 -1.6989 -1.5615
  535SOL     OW 1603   0.151   0.193   0.528  0.2999 -0.2478 -0.3247
  535SOL    HW1 1604   0.204   0.225   0.446 -0.1089 -1.6516 -0.6541
  535SOL    HW2 1605   0.143   0.090   0.530  3.3268 -0.7910  1.9921
  536SOL     OW 1606   0.452   1.343   1.722  0.0373 -0.1512 -0.3514
  536SOL    HW1 1607   0.489   1.252   1.695 -0.4835  1.0698  1.2570
  536SOL    HW2 1608   0.374   1.368   1.660 -1.1436 -1.1182 -1.4472
  537SOL     OW 1609   1.152   2.633   1.658 -0.1559  0.0954  0.0944
  537SOL    HW1 1610   1.096   2.689   1.595 -0.7705 -1.3335  0.0177
  537SOL    HW2 1611   1.236   2.684   1.687 -0.3576 -2.5927 -0.1413
  538SOL     OW 1612   0.039   1.888   0.473 -0.1709 -0.0554  0.2794
  538SOL    HW1 1613   0.074   1.792   0.494 -1.1867  0.1835  1.3064
  538SOL    HW2 1614   0.002   1.941   0.552  0.5507 -1.3392 -1.2879
  539SOL     OW 1615   2.958   1.153   2.653  0.1497  0.0695 -0.0527
  539SOL    HW1 1616   2.973   1.222   2.729  0.0530 -0.5192 -0.2255
  539SOL    HW2 1617   2.859   1.158   2.622  1.6316  3.1586  0.2619
  540SOL     OW 1618   1.881   1.089   1.865 -0.2297 -0.3066  0.1656
  540SOL    HW1 1619   1.853   1.030   1.791  1.6256 -0.6142  0.1140
  540SOL    HW2 1620   1.923   1.170   1.825 -2.2579 -0.6065  2.1852
  541SOL     OW 1621   0.941   0.845   1.902  0.4091  0.2587  0.2130
  541SOL    HW1 1622   0.839   0.837   1.931 -4.7137 -0.3315 -0.6424
  541SOL    HW2 1623   0.998   0.894   1.972  2.3008  1.2635  0.3919
  542SOL     OW 1624   2.040   0.309   2.950 -0.1721  0.3533 -0.3282
  542SOL    HW1 1625   2.021   0.329   3.053  4.0874  2.6862  3.3063
  542SOL    HW2 1626   2.138   0.340   2.919  1.9988  0.8173  1.4356
  543SOL     OW 1627   1.053   3.125   3.065 -0.0502 -0.0747  0.1398
  543SOL    HW1 1628   1.017   0.078   3.033 -0.4230  0.2977  1.8906
  543SOL    HW2 1629   1.154   3.128   3.055 -2.4471 -0.7778  0.4316
  544SOL     OW 1630   2.945   1.477   1.935  0.4275 -0.4720  0.1222
  544SOL    HW1 1631   2.942   1.447   2.038 -0.4579 -1.3628  0.8435
  544SOL    HW2 1632   2.948   1.398   1.870  0.0197  0.5465 -0.0574
  545SOL     OW 1633   2.004   2.307   1.871 -0.0867  0.0105  0.4699
  545SOL    HW1 1634   1.931   2.367   1.913  1.7802  0.1229 -0.3887
  545SOL    HW2 1635   2.018   2.332   1.771  1.3205  0.7539 -2.8090
  546SOL     OW 1636   0.178   0.013   2.683  0.3528 -0.3798  0.4848
  546SOL    HW1 1637   0.163   3.053   2.670 -1.3286 -1.6247 -0.9567
  546SOL    HW2 1638   0.246   0.024   2.757  0.6580  1.5929  1.1806
  547SOL     OW 1639   1.742   1.214   0.928 -0.8188 -0.5858 -0.0025
  547SOL    HW1 1640   1.689   1.242   0.843  2.9017 -2.0083  1.9880
  547SOL    HW2 1641   1.725   1.112   0.945 -0.4545  0.7198  1.0246
  548SOL     OW 1642   1.929   1.806   2.506  0.0787  0.3568 -0.0981
  548SOL    HW1 1643   1.876   1.867   2.446  1.7144 -0.4788  2.3918
  548SOL    HW2 1644   2.027   1.834   2.507 -2.9782  2.3096 -0.5154
  549SOL     OW 1645   2.108   0.381   0.497 -0.1535 -0.1313 -0.0635
  549SOL    HW1 1646   2.055   0.467   0.499 -0.5583  0.3236 -0.2735
  549SOL    HW2 1647   2.180   0.374   0.570 -1.9275 -0.4501 -0.7325
  550SOL     OW 1648   2.180   1.922   0.787  0.1196 -0.0036  0.0436
  550SOL    HW1 1649   2.239   1.880   0.715 -0.1126 -0.5946  0.7715
  550SOL    HW2 1650   2.106   1.857   0.812  0.8934  0.4241 -1.1180
  551SOL     OW 1651   0.952   2.533   1.826 -0.0721 -0.0046  0.1779
  551SOL    HW1 1652   1.030   2.560   1.766  0.8468 -0.2887 -2.2975
  551SOL    HW2 1653   0.874   2.598   1.818 -0.6411  0.5208  0.3273
  552SOL     OW 1654   0.150   2.353   2.665  0.0312 -0.2831  1.0435
  552SOL    HW1 1655   0.095   2.266   2.676 -0.9474 -0.1065  2.4172
  552SOL    HW2 1656   0.160   2.373   2.564  2.6205  0.2387 -3.1478
  553SOL     OW 1657   0.103   0.107   0.972 -0.0922 -0.0756 -0.0114
  553SOL    HW1 1658   0.207   0.120   0.973  0.0887  3.2924  2.5269
  553SOL    HW2 1659   0.072   0.031   1.029  0.1000 -1.5577 -0.1031
  554SOL     OW 1660   2.429   2.199   1.845 -0.3792  0.0116  0.2838
  554SOL    HW1 1661   2.527   2.193   1.854 -2.7300 -1.7476  1.7685
  554SOL    HW2 1662   2.378   2.157   1.922 -2.1433  0.1081  3.2900
  555SOL     OW 1663   1.605   2.299   1.908 -0.5357  0.0558  0.1022
  555SOL    HW1 1664   1.570   2.210   1.867 -0.0363 -0.9481  0.6480
  555SOL    HW2 1665   1.556   2.374   1.864 -1.9563 -0.4325  0.8954
  556SOL     OW 1666   1.286   1.808   1.659 -0.5124 -0.0664  0.1533
  556SOL    HW1 1667   1.280   1.868   1.738  2.1152 -0.5834 -0.6320
  556SOL    HW2 1668   1.347   1.729   1.680  0.8189 -2.1866  0.3692
  557SOL     OW 1669   1.859   2.329   2.435 -0.1132  0.7374 -0.2135
  557SOL    HW1 1670   1.946   2.277   2.418 -3.9237 -0.8505 -0.3200
  557SOL    HW2 1671   1.845   2.416   2.381 -1.3402  3.6836  1.3416
  558SOL     OW 1672   0.740   2.756   1.838  0.0542 -0.2650  0.3577
  558SOL    HW1 1673   0.652   2.778   1.879 -0.9191  0.3670  0.0055
  558SOL    HW2 1674   0.811   2.790   1.906  1.0328  1.0977  0.8921
  559SOL     OW 1675   2.298   2.926   0.797  0.6510 -0.0822  1.0249
  559SOL    HW1 1676   2.296   2.830   0.754 -0.8698  0.2982  0.3766
  559SOL    HW2 1677   2.231   2.933   0.874  1.2413  0.2176  0.3298
  560SOL     OW 1678   1.741   2.405   0.701 -0.1523 -0.4761 -0.1145
  560SOL    HW1 1679   1.666   2.410   0.773 -0.8565 -0.1543  1.4033
  560SOL    HW2 1680   1.795   2.322   0.711 -0.0999  1.6614  3.0251
  561SOL     OW 1681   1.009   0.220   0.566 -0.5965 -0.1485 -0.6031
  561SOL    HW1 1682   1.028   0.256   0.472 -2.3827  0.7573  0.4717
  561SOL    HW2 1683   0.924   0.170   0.563  1.8877  2.2154 -0.2327
  562SOL     OW 1684   0.788   0.683   2.545 -0.0953 -0.1155  0.0083
  562SOL    HW1 1685   0.800   0.588   2.576 -1.2788  0.6897  1.0134
  562SOL    HW2 1686   0.767   0.685   2.443 -1.3564 -0.2392 -2.2975
  563SOL     OW 1687   1.853   1.654   3.035 -0.0392 -0.0588 -0.0516
  563SOL    HW1 1688   1.795   1.726   2.993  0.0179 -0.2344 -0.1758
  563SOL    HW2 1689   1.852   1.662   0.000  1.2614  1.3589 -0.4844
  564SOL     OW 1690   2.428   1.187   1.326 -0.0852  0.2016  0.4688
  564SOL    HW1 1691   2.428   1.217   1.424 -0.7928 -1.0628  0.3317
  564SOL    HW2 1692   2.525   1.182   1.294  2.2000 -0.9486  1.8871
  565SOL     OW 1693   0.990   0.576   2.839  0.2760 -0.5399  0.0539
  565SOL    HW1 1694   1.005   0.583   2.938 -1.3515  0.3074 -1.9891
  565SOL    HW2 1695   0.908   0.515   2.816  0.8484 -1.4026 -0.2795
  566SOL     OW 1696   1.928   0.365   2.701 -0.4327  0.0712  0.4713
  566SOL    HW1 1697   1.926   0.307   2.620  0.1195  0.0949 -2.3385
  566SOL    HW2 1698   1.977   0.316   2.781  0.8071 -2.5884 -0.5120
  567SOL     OW 1699   2.190   1.974   0.456 -0.0467 -0.5450 -0.3490
  567SOL    HW1 1700   2.234   1.896   0.505  3.0670  0.6311  0.3739
  567SOL    HW2 1701   2.224   1.996   0.364  0.5684  0.3243  0.7108
  568SOL     OW 1702   1.658   1.828   0.180  0.4103 -0.0276  0.4175
  568SOL    HW1 1703   1.706   1.917   0.161  0.6115  0.7363 -1.3562
  568SOL    HW2 1704   1.582   1.812   0.117  2.6844 -1.9124  1.1198
  569SOL     OW 1705   2.107   1.092   3.108  0.4655 -0.7661  0.3297
  569SOL    HW1 1706   2.059   1.181   3.109 -0.8163 -1.0688  2.4711
  569SOL    HW2 1707   2.205   1.103   0.006  2.5447 -2.1127  2.1714
  570SOL     OW 1708   0.405   2.612   1.738  0.2434  0.3907 -0.0017
  570SOL    HW1 1709   0.443   2.686   1.795 -1.2967  0.2400  0.4454
  570SOL    HW2 1710   0.488   2.556   1.709  2.8156 -0.1131 -3.0877
  571SOL     OW 1711   0.435   0.936   1.983  0.6467 -0.5033  0.4635
  571SOL    HW1 1712   0.471   1.032   1.985  0.5914  0.2126  1.4198
  571SOL    HW2 1713   0.350   0.928   2.046 -2.0170  0.3627  0.5964
  572SOL     OW 1714   0.974   1.637   0.557  0.2888  0.0405  0.3490
  572SOL    HW1 1715   0.882   1.613   0.522 -2.3282 -0.9522  1.8690
  572SOL    HW2 1716   1.048   1.623   0.484  0.9977  2.9016 -1.1680
  573SOL     OW 1717   1.640   2.099   3.038  0.1939 -0.3591  0.0109
  573SOL    HW1 1718   1.541   2.114   3.069 -0.4787  0.5200  1.2179
  573SOL    HW2 1719   1.702   2.097   3.117 -1.2677  1.2295  1.9000
  574SOL     OW 1720   1.088   0.286   1.023 -0.2697  0.0210 -0.0633
  574SOL    HW1 1721   1.081   0.192   1.058 -2.3205  1.0270 -0.4525
  574SOL    HW2 1722   1.005   0.339   1.049 -2.0099  2.4708  1.1802
  575SOL     OW 1723   0.278   0.908   1.431  0.3123  0.3747  0.6332
  575SOL    HW1 1724   0.222   0.950   1.501  2.0638 -2.8076 -0.5345
  575SOL    HW2 1725   0.355   0.964   1.396  0.7014 -0.1916 -0.7391
  576SOL     OW 1726   2.234   2.895   1.178  0.2128 -0.1961  0.0913
  576SOL    HW1 1727   2.224   2.960   1.257  1.7919  1.5895  0.4684
  576SOL    HW2 1728   2.189   2.932   1.096  0.0764  1.8931  2.0073
  577SOL     OW 1729   1.045   0.990   2.097  0.2003 -0.0858  0.7376
  577SOL    HW1 1730   1.121   1.057   2.122  0.4766  0.3997  2.0840
  577SOL    HW2 1731   1.030   0.919   2.167  1.0692 -0.0667  1.7397
  578SOL     OW 1732   1.746   0.729   2.638 -0.0589  0.0661 -0.1351
  578SOL    HW1 1733   1.794   0.711   2.551  0.4339 -0.1833 -1.8937
  578SOL    HW2 1734   1.696   0.816   2.633  2.4627  0.2585 -1.0830
  579SOL     OW 1735   2.176   2.596   1.716  0.0503  0.3314  0.0841
  579SOL    HW1 1736   2.157   2.507   1.670 -2.4599 -3.0071  2.1773
  579SOL    HW2 1737   2.228   2.656   1.661  1.0522 -1.2277 -0.9615
  580SOL     OW 1738   1.901   1.533   2.488 -0.5078 -0.7851  0.1222
  580SOL    HW1 1739   1.910   1.630   2.507  1.2890 -0.7679  0.4831
  580SOL    HW2 1740   1.856   1.491   2.565  0.2729 -0.3060  0.8133
  581SOL     OW 1741   1.561   1.485   2.715  0.0801 -0.3636  0.2532
  581SOL    HW1 1742   1.655   1.506   2.751 -1.8871  0.9947 -2.1819
  581SOL    HW2 1743   1.522   1.415   2.777  2.6942  3.1649 -3.9963
  582SOL     OW 1744   0.866   1.666   1.838 -0.0115  0.4553  0.0138
  582SOL    HW1 1745   0.903   1.664   1.936  2.4889  0.2312 -0.8392
  582SOL    HW2 1746   0.941   1.687   1.770  1.5943 -0.9695 -1.1105
  583SOL     OW 1747   1.722   1.067   1.553 -0.2652  0.1186 -0.0188
  583SOL    HW1 1748   1.680   0.997   1.490  0.0712  2.0936 -0.1169
  583SOL    HW2 1749   1.654   1.093   1.626 -0.8619  0.2375  1.0519
  584SOL     OW 1750   2.150   2.658   0.443  0.7602  0.1426  0.0151
  584SOL    HW1 1751   2.075   2.654   0.371 -0.5835 -0.9843  0.9335
  584SOL    HW2 1752   2.225   2.592   0.415  0.5306  0.0075  2.5176
  585SOL     OW 1753   1.945   3.109   2.623  0.5700  0.2454 -0.0333
  585SOL    HW1 1754   1.988   3.015   2.604 -0.4311  0.8990 -0.9928
  585SOL    HW2 1755   2.016   0.032   2.673  0.4233  1.1621  2.5066
  586SOL     OW 1756   2.838   2.257   1.374  0.0096  0.1050  0.3689
  586SOL    HW1 1757   2.820   2.200   1.458  1.0651  1.5615 -0.7485
  586SOL    HW2 1758   2.825   2.207   1.286 -0.5069  0.8658 -2.2583
  587SOL     OW 1759   1.392   1.864   0.050  0.1902 -0.0295 -0.1600
  587SOL    HW1 1760   1.386   1.964   0.031  2.4731 -2.8442 -0.7512
  587SOL    HW2 1761   1.364   1.811   3.109  1.1701  1.0325 -0.2612
  588SOL     OW 1762   0.306   0.446   1.039  0.2450 -0.5248  0.3063
  588SOL    HW1 1763   0.338   0.368   1.095  0.1816  0.5411 -0.0336
  588SOL    HW2 1764   0.218   0.426   0.999  0.4123  0.3854  3.5443
  589SOL     OW 1765   1.069   0.308   0.322  0.1959 -0.1936 -0.4883
  589SOL    HW1 1766   1.022   0.386   0.283 -0.2203 -0.0432 -0.1844
  589SOL    HW2 1767   1.052   0.232   0.256 -2.2492  2.0296 -0.0612
  590SOL     OW 1768   1.525   0.709   2.971 -0.0253 -0.3177  0.1288
  590SOL    HW1 1769   1.475   0.722   2.880 -0.5306  0.7932  0.4540
  590SOL    HW2 1770   1.600   0.636   2.972  0.9120 -1.4349 -1.0478
  591SOL     OW 1771   2.950   1.913   2.104  0.3495 -0.0458 -0.3704
  591SOL    HW1 1772   2.979   1.982   2.038 -1.1340 -0.5104  0.5241
  591SOL    HW2 1773   3.030   1.880   2.166  2.4743 -1.2163  0.9671
  592SOL     OW 1774   2.401   1.552   2.137 -0.0414  0.5002 -0.1687
  592SOL    HW1 1775   2.369   1.454   2.135 -0.6062 -2.2324  2.2567
  592SOL    HW2 1776   2.474   1.565   2.205 -0.5846  0.0050  0.5704
  593SOL     OW 1777   1.359   1.215   1.553 -0.6271  0.5006  0.1816
  593SOL    HW1 1778   1.419   1.235   1.474  2.4755 -0.3192  1.9000
  593SOL    HW2 1779   1.280   1.156   1.534  2.8617 -0.0559  0.3728
  594SOL     OW 1780   2.792   1.421   3.070  0.6654  0.6723 -0.5132
  594SOL    HW1 1781   2.851   1.434   0.019  1.3918  4.8288 -1.0305
  594SOL    HW2 1782   2.812   1.332   3.026 -1.4722  1.3607 -0.2966
  595SOL     OW 1783   0.343   0.651   0.575  0.1397 -0.6640  0.1199
  595SOL    HW1 1784   0.373   0.726   0.510  0.1615  0.7140  0.3422
  595SOL    HW2 1785   0.410   0.622   0.646 -1.9491 -0.6557 -1.4998
  596SOL     OW 1786   0.045   1.191   1.246  0.3250  0.1090 -0.6362
  596SOL    HW1 1787   0.019   1.159   1.333  2.7049 -1.2287 -0.2424
  596SOL    HW2 1788   0.122   1.252   1.259 -0.8803 -1.4507  0.2652
  597SOL     OW 1789   1.124   1.911   1.161  0.2068  0.4665  0.3009
  597SOL    HW1 1790   1.152   1.812   1.154 -0.5177 -4.6904  0.9678
  597SOL    HW2 1791   1.110   1.960   1.071 -3.6326  2.7784 -1.7384
  598SOL     OW 1792   0.537   3.082   1.784 -0.1272 -0.6462 -0.0060
  598SOL    HW1 1793   0.632   3.103   1.758 -1.5888 -1.4096 -1.2579
  598SOL    HW2 1794   0.503   3.011   1.724  2.6423 -1.4771  1.4826
  599SOL     OW 1795   0.395   1.676   2.901  0.0293  0.3277  0.0036
  599SOL    HW1 1796   0.447   1.590   2.886 -4.0449 -1.4110 -1.0524
  599SOL    HW2 1797   0.456   1.757   2.907 -0.5563  0.6836  2.1123
  600SOL     OW 1798   0.266   1.129   0.018  0.8045 -0.4288 -0.3036
  600SOL    HW1 1799   0.241   1.222   3.117  0.1454  1.1575 -0.9986
  600SOL    HW2 1800   0.208   1.058   3.109 -0.9188 -1.5530 -0.7101
  601SOL     OW 1801   0.705   0.757   1.144  0.2614  0.3715 -0.4120
  601SOL    HW1 1802   0.707   0.795   1.049 -1.7250 -1.4914 -0.9758
  601SOL    HW2 1803   0.608   0.732   1.171 -1.3884 -0.3976  0.4392
  602SOL     OW 1804   0.808   0.037   0.287 -0.5791  0.2205 -0.5572
  602SOL    HW1 1805   0.776   0.072   0.378 -0.0737  1.0898  1.5491
  602SOL    HW2 1806   0.810   3.075   0.277  1.9764  0.8199 -3.1279
  603SOL     OW 1807   1.628   2.190   2.318 -0.7410 -0.0032  0.4928
  603SOL    HW1 1808   1.633   2.089   2.323 -1.3576  0.6971  1.2793
  603SOL    HW2 1809   1.717   2.236   2.345  2.4278  2.3028  1.7981
  604SOL     OW 1810   0.547   2.847   2.816  0.1645  0.1929  0.3460
  604SOL    HW1 1811   0.536   2.794   2.729  0.0597 -1.4072 -0.9690
  604SOL    HW2 1812   0.644   2.878   2.825  2.9686  1.0745 -1.9056
  605SOL     OW 1813   2.496   1.181   1.592 -0.0519  0.0653 -0.7006
  605SOL    HW1 1814   2.585   1.214   1.630  0.2681  3.2173 -1.1450
  605SOL    HW2 1815   2.439   1.160   1.675 -1.7545 -0.2589 -0.2279
  606SOL     OW 1816   0.966   1.603   2.792  0.2399  0.3421  0.5211
  606SOL    HW1 1817   0.961   1.497   2.797 -1.3185 -3.1653 -1.7890
  606SOL    HW2 1818   0.874   1.647   2.805  1.2930  0.1449  1.6227
  607SOL     OW 1819   0.546   0.334   0.596 -0.1143 -0.0695  0.1180
  607SOL    HW1 1820   0.535   0.374   0.500 -1.3808  0.7652 -0.7805
  607SOL    HW2 1821   0.566   0.397   0.671 -0.0021 -0.1774 -0.7557
  608SOL     OW 1822   2.734   1.792   1.628 -0.1452  0.2388 -0.5943
  608SOL    HW1 1823   2.678   1.865   1.675  2.5427 -1.5740 -0.2172
  608SOL    HW2 1824   2.777   1.735   1.702 -3.1477 -0.1257 -0.6112
  609SOL     OW 1825   2.556   0.441   0.906 -0.2348 -0.4702  0.0695
  609SOL    HW1 1826   2.519   0.415   0.999 -0.2139 -0.7308 -2.1313
  609SOL    HW2 1827   2.515   0.526   0.865 -1.1432  0.1012 -1.2936
  610SOL     OW 1828   0.293   2.574   1.494 -0.1920  0.1103 -0.2166
  610SOL    HW1 1829   0.338   2.602   1.584  2.8816 -1.4849 -0.1824
  610SOL    HW2 1830   0.366   2.586   1.425  0.9572 -1.4770 -0.2727
  611SOL     OW 1831   1.375   1.649   0.240  0.1315 -0.2807 -0.2211
  611SOL    HW1 1832   1.441   1.644   0.317 -1.0245  0.9970 -0.5070
  611SOL    HW2 1833   1.381   1.739   0.189 -2.6863  2.2203 -1.0486
  612SOL     OW 1834   0.802   0.012   1.742 -0.0946  0.1732  0.6091
  612SOL    HW1 1835   0.823   3.125   1.837 -3.3224  3.0110 -5.0059
  612SOL    HW2 1836   0.817   0.108   1.714 -1.9416 -1.8350 -0.9484
  613SOL     OW 1837   0.559   2.334   0.690 -0.7868  0.4970 -0.8706
  613SOL    HW1 1838   0.468   2.326   0.648  1.7081  0.8922 -0.4391
  613SOL    HW2 1839   0.568   2.411   0.757  0.8747  0.9270  2.4708
  614SOL     OW 1840   2.165   3.124   2.189  0.0195  0.1113  0.2094
  614SOL    HW1 1841   2.174   0.072   2.241  1.0586 -2.8530  0.3430
  614SOL    HW2 1842   2.232   3.120   2.111 -0.3080  0.3362 -1.4743
  615SOL     OW 1843   1.130   1.577   0.344  0.0442  0.1708 -0.2122
  615SOL    HW1 1844   1.082   1.547   0.258 -1.8764 -0.3535 -2.2093
  615SOL    HW2 1845   1.220   1.601   0.321 -1.4423 -1.6756 -0.7636
  616SOL     OW 1846   1.522   1.650   0.450 -0.0654 -0.2140  0.2466
  616SOL    HW1 1847   1.580   1.566   0.447  0.0379  2.1248  0.0941
  616SOL    HW2 1848   1.480   1.666   0.545 -0.1771  1.3716  3.3206
  617SOL     OW 1849   1.456   1.243   2.851  0.3819  0.5306 -0.0880
  617SOL    HW1 1850   1.535   1.184   2.833 -2.1446  0.5121  1.6311
  617SOL    HW2 1851   1.428   1.245   2.951 -0.0688 -0.8737 -0.5404
  618SOL     OW 1852   0.735   0.355   2.001 -0.2260 -0.0328 -0.2044
  618SOL    HW1 1853   0.799   0.396   2.065 -0.6902  0.6786  0.2042
  618SOL    HW2 1854   0.703   0.262   2.034 -0.9198  0.2706 -2.8924
  619SOL     OW 1855   0.011   1.516   1.580  0.9187 -0.2498  0.0271
  619SOL    HW1 1856   0.009   1.553   1.483  3.9439  1.2574 -2.1089
  619SOL    HW2 1857   0.094   1.461   1.576 -0.6241 -0.2059  0.1480
  620SOL     OW 1858   2.496   0.314   2.657 -0.3560  0.1859  0.0813
  620SOL    HW1 1859   2.581   0.362   2.664 -2.1176  0.6639 -1.2200
  620SOL    HW2 1860   2.449   0.337   2.567  0.8078 -0.9206  1.6007
  621SOL     OW 1861   2.056   2.068   2.926 -0.5396  0.2087  0.0340
  621SOL    HW1 1862   2.082   2.165   2.919 -1.8404 -2.9113  0.0336
  621SOL    HW2 1863   1.979   2.042   2.863 -1.4361 -1.1155 -0.7676
  622SOL     OW 1864   1.102   0.808   2.771 -0.3992 -0.6044  0.2377
  622SOL    HW1 1865   1.075   0.712   2.792 -1.1043 -3.0348  1.3563
  622SOL    HW2 1866   1.072   0.861   2.854  0.1540 -0.8430  0.9279
  623SOL     OW 1867   0.821   1.138   2.097 -0.7765  0.2879  0.4319
  623SOL    HW1 1868   0.917   1.117   2.074 -1.9792  0.4360 -1.8095
  623SOL    HW2 1869   0.779   1.065   2.154 -1.2699  2.0552  3.4749
  624SOL     OW 1870   2.913   0.271   0.412  0.3784 -0.4550  0.3737
  624SOL    HW1 1871   2.966   0.317   0.342  0.6647 -1.0302 -0.5373
  624SOL    HW2 1872   2.971   0.243   0.492 -1.7300 -0.8588  1.0258
  625SOL     OW 1873   0.852   2.402   0.602 -0.3973  0.5933 -0.1191
  625SOL    HW1 1874   0.745   2.399   0.593 -0.2023 -1.8540 -1.8154
  625SOL    HW2 1875   0.879   2.354   0.691  1.5625  0.9894  2.3756
  626SOL     OW 1876   2.209   1.099   2.638  0.7340 -0.1557 -0.1648
  626SOL    HW1 1877   2.197   1.024   2.707 -0.1800  0.8332  2.6143
  626SOL    HW2 1878   2.183   1.191   2.675 -1.9623 -0.0195  0.3434
  627SOL     OW 1879   1.372   2.108   2.730 -0.3005  0.0728 -0.2613
  627SOL    HW1 1880   1.349   2.118   2.627 -3.0164 -0.6581 -0.7046
  627SOL    HW2 1881   1.448   2.039   2.741 -1.5197  1.7492  0.7444
  628SOL     OW 1882   2.845   2.817   2.445 -0.2590 -0.6000  0.9858
  628SOL    HW1 1883   2.755   2.833   2.396 -0.9994 -1.5180  0.2534
  628SOL    HW2 1884   2.849   2.865   2.536 -2.7217  1.6407  3.0536
  629SOL     OW 1885   1.495   2.761   2.619  0.0059 -0.4178 -0.3979
  629SOL    HW1 1886   1.507   2.738   2.520 -0.3666  1.5614  0.9748
  629SOL    HW2 1887   1.584   2.746   2.668 -1.0114  0.8364 -0.2184
  630SOL     OW 1888   1.075   0.047   2.283  0.4079  0.0971 -0.7123
  630SOL    HW1 1889   1.124   0.074   2.369  1.5268 -0.2773 -0.9543
  630SOL    HW2 1890   1.121   0.096   2.209 -0.4729 -0.9758  1.0647
  631SOL     OW 1891   1.867   1.255   0.638 -0.4189 -0.1188 -0.2263
  631SOL    HW1 1892   1.800   1.206   0.697 -0.2584  1.7708  0.9458
  631SOL    HW2 1893   1.915   1.186   0.576  2.5138 -1.2643  0.4991
  632SOL     OW 1894   2.462   0.064   2.107  0.7821  0.1318  0.3285
  632SOL    HW1 1895   2.434   0.156   2.070 -1.1390  2.1386  0.6756
  632SOL    HW2 1896   2.563   0.055   2.113 -1.2596  2.1980  2.9473
  633SOL     OW 1897   1.007   1.499   0.119 -0.1418  0.2120 -0.2639
  633SOL    HW1 1898   1.039   1.554   0.038  0.2719 -2.1449  0.2154
  633SOL    HW2 1899   1.000   1.402   0.089  3.3061 -1.6775  1.7030
  634SOL     OW 1900   2.737   3.001   1.726 -0.2060 -0.5433 -0.2712
  634SOL    HW1 1901   2.755   3.088   1.772 -0.7650  0.6712  1.2014
  634SOL    HW2 1902   2.717   3.013   1.627 -0.0517 -0.6291  1.1626
  635SOL     OW 1903   1.625   0.363   0.768  0.6041  0.1117  0.6399
  635SOL    HW1 1904   1.663   0.430   0.700 -2.7705  1.6896 -0.8593
  635SOL    HW2 1905   1.674   0.276   0.759 -0.9686  2.0582 -0.6667
  636SOL     OW 1906   0.623   1.031   3.088 -0.1150  0.2289 -0.2251
  636SOL    HW1 1907   0.588   1.083   0.032 -1.1881  0.7911  1.7501
  636SOL    HW2 1908   0.620   1.095   3.006 -0.7797  0.0978 -1.5094
  637SOL     OW 1909   2.904   2.134   0.034  0.4252 -0.7873  0.3424
  637SOL    HW1 1910   2.858   2.054   3.131 -0.6993 -1.5831 -0.2460
  637SOL    HW2 1911   3.004   2.115   0.033 -1.2397 -0.2326  0.5971
  638SOL     OW 1912   1.309   2.537   2.693 -0.1853 -0.8243 -0.2953
  638SOL    HW1 1913   1.382   2.612   2.675  0.9906 -1.7465  0.1561
  638SOL    HW2 1914   1.326   2.493   2.784  0.1658  0.6141 -0.4216
  639SOL     OW 1915   1.616   1.932   1.039  0.4760 -0.1518  0.1020
  639SOL    HW1 1916   1.525   1.953   1.088  0.7419 -0.0980 -0.4868
  639SOL    HW2 1917   1.616   1.961   0.943 -0.8209 -1.4806  0.9057
  640SOL     OW 1918   2.196   2.805   0.173 -0.2749 -0.0248 -0.0625
  640SOL    HW1 1919   2.226   2.718   0.126  1.7914 -2.2621 -0.0697
  640SOL    HW2 1920   2.125   2.784   0.243  2.2413  0.8377  0.4085
  641SOL     OW 1921   2.753   0.542   3.076  0.3748 -0.1182 -0.0348
  641SOL    HW1 1922   2.787   0.589   0.023  0.7776  1.6501 -0.6191
  641SOL    HW2 1923   2.657   0.508   3.087 -1.6847 -0.2861 -0.2288
  642SOL     OW 1924   0.410   0.689   1.133  0.0490 -0.1039 -0.2737
  642SOL    HW1 1925   0.351   0.677   1.215 -2.5759 -0.8448  1.4048
  642SOL    HW2 1926   0.413   0.610   1.075  0.3177 -0.9840  2.0577
  643SOL     OW 1927   0.771   1.342   2.266 -0.3171 -0.3233  0.2437
  643SOL    HW1 1928   0.793   1.261   2.207  2.9647 -1.3082 -1.1824
  643SOL    HW2 1929   0.742   1.307   2.358  0.2426  0.3039  0.4128
  644SOL     OW 1930   1.852   2.140   0.709  0.1623  0.3437  0.0597
  644SOL    HW1 1931   1.926   2.161   0.644  0.2825 -1.0369 -0.3201
  644SOL    HW2 1932   1.884   2.122   0.800  2.0204 -2.4976 -2.3358
  645SOL     OW 1933   1.419   2.373   0.656 -0.1185  0.2828 -0.1762
  645SOL    HW1 1934   1.454   2.343   0.745  0.7566  0.8118  0.2057
  645SOL    HW2 1935   1.420   2.296   0.589 -0.8086  1.0129  1.0443
  646SOL     OW 1936   0.393   2.213   2.948 -0.7570 -0.1007 -0.0511
  646SOL    HW1 1937   0.396   2.309   2.913 -2.2193  1.8694  1.2528
  646SOL    HW2 1938   0.301   2.169   2.927  1.1931  0.8825  1.7374
  647SOL     OW 1939   1.419   3.091   1.428 -0.1581  0.1989 -0.0538
  647SOL    HW1 1940   1.354   3.023   1.392 -0.9176  0.2853  0.3834
  647SOL    HW2 1941   1.446   0.028   1.364 -2.2290  3.1325  0.9527
  648SOL     OW 1942   1.286   0.474   1.097 -0.7147 -0.4410  0.1163
  648SOL    HW1 1943   1.327   0.427   1.181  3.3848  0.2760  2.5381
  648SOL    HW2 1944   1.223   0.414   1.048 -1.5607  1.0024 -0.0697
  649SOL     OW 1945   1.187   2.060   0.461 -1.0697  0.1257  0.1633
  649SOL    HW1 1946   1.097   2.077   0.501 -1.9213  0.9793  3.6101
  649SOL    HW2 1947   1.234   2.149   0.453  0.5778  0.6466  1.5782
  650SOL     OW 1948   2.292   1.663   1.700 -0.2981  0.2940  0.1043
  650SOL    HW1 1949   2.270   1.756   1.742  0.0982  1.5841  0.2146
  650SOL    HW2 1950   2.226   1.591   1.726  1.8005  0.9648 -2.1139
  651SOL     OW 1951   1.541   2.809   3.069 -0.1134  0.3979 -0.0394
  651SOL    HW1 1952   1.555   2.896   3.015 -0.3496  0.9861  0.8358
  651SOL    HW2 1953   1.568   2.721   3.020 -1.1714  0.5938  1.2936
  652SOL     OW 1954   3.059   1.899   0.223  1.1958  0.4619 -0.2623
  652SOL    HW1 1955   2.957   1.869   0.237 -4.2322 -0.4825 -0.4852
  652SOL    HW2 1956   3.106   1.906   0.313 -1.3629  0.3717 -3.2112
  653SOL     OW 1957   2.803   3.106   1.103 -0.2130  0.6379 -0.6858
  653SOL    HW1 1958   2.769   0.067   1.083  1.2160  1.4158 -2.5710
  653SOL    HW2 1959   2.735   3.045   1.054 -0.8675  1.9990 -1.1865
  654SOL     OW 1960   2.942   2.789   1.783 -0.2339  0.1025  0.6118
  654SOL    HW1 1961   3.044   2.801   1.785  1.6205 -1.0426  1.9945
  654SOL    HW2 1962   2.890   2.871   1.760  0.6479 -0.6505  0.7625
  655SOL     OW 1963   0.335   2.254   0.929  0.4203  0.0600  0.1160
  655SOL    HW1 1964   0.300   2.218   0.839  2.0501  0.4403  1.1624
  655SOL    HW2 1965   0.309   2.190   1.005  0.9107 -2.7500  0.2900
  656SOL     OW 1966   2.799   0.023   2.359 -0.3522 -0.4791  0.0070
  656SOL    HW1 1967   2.880   0.002   2.422  1.9446 -1.5524 -0.4617
  656SOL    HW2 1968   2.716   3.124   2.406  0.3941  0.9354 -2.2323
  657SOL     OW 1969   0.002   1.389   2.873 -0.0965 -0.1150  0.1263
  657SOL    HW1 1970   0.011   1.389   2.769  1.3196 -1.2225 -0.6658
  657SOL    HW2 1971   3.093   1.479   2.891  1.6320 -0.4091 -1.5375
  658SOL     OW 1972   2.754   1.720   1.180  0.0004  0.0424 -0.1184
  658SOL    HW1 1973   2.745   1.796   1.251  0.0773  2.3789  1.1753
  658SOL    HW2 1974   2.695   1.645   1.206  1.6230  0.9506 -1.6872
  659SOL     OW 1975   1.456   3.050   0.078  0.3523  0.1462  0.2575
  659SOL    HW1 1976   1.533   3.103   0.112  1.0426  0.0626 -2.3459
  659SOL    HW2 1977   1.485   2.952   0.058  2.5402  1.2761  0.4586
  660SOL     OW 1978   1.717   1.414   3.115 -0.1405 -0.2833  0.4470
  660SOL    HW1 1979   1.625   1.445   0.005  1.7234  2.4721  2.2050
  660SOL    HW2 1980   1.767   1.497   3.087  2.1104  1.0333  0.7406
  661SOL     OW 1981   0.268   2.181   1.296 -0.3985 -0.3888 -0.4819
  661SOL    HW1 1982   0.227   2.151   1.207  1.4055  0.0815 -1.1519
  661SOL    HW2 1983   0.213   2.251   1.350  0.5535  1.8475  1.0684
  662SOL     OW 1984   0.041   0.698   3.134 -0.4125  0.2774  0.4696
  662SOL    HW1 1985   3.131   0.615   3.106  1.7899  2.8182  0.9461
  662SOL    HW2 1986   0.144   0.682   3.120  3.1336 -3.3101 -1.5441
  663SOL     OW 1987   1.986   1.741   1.037 -0.2095  0.0265 -0.0669
  663SOL    HW1 1988   1.977   1.752   0.937 -0.4722  1.8693 -0.8841
  663SOL    HW2 1989   1.899   1.750   1.091  1.8927  1.1640 -0.8889
  664SOL     OW 1990   1.159   1.449   1.382  0.4334  0.1272 -0.0792
  664SOL    HW1 1991   1.242   1.487   1.340 -2.7862  1.3563  0.4329
  664SOL    HW2 1992   1.165   1.450   1.488 -2.3830  1.5310  1.1629
  665SOL     OW 1993   2.215   2.575   2.279 -0.6176  0.0071  0.2193
  665SOL    HW1 1994   2.298   2.621   2.243 -0.2562 -0.6235 -0.6703
  665SOL    HW2 1995   2.146   2.557   2.205 -1.1010 -0.7653 -0.7678
  666SOL     OW 1996   3.050   3.014   2.903 -0.2069 -0.4593  0.5946
  666SOL    HW1 1997   3.020   2.977   2.812  0.5510  0.1758 -1.6162
  666SOL    HW2 1998   2.978   3.077   2.947 -1.4526  1.5623  2.9603
  667SOL     OW 1999   2.269   1.150   2.034  0.0574 -0.1066 -0.1266
  667SOL    HW1 2000   2.287   1.065   1.980 -2.2785 -0.3289 -2.0072
  667SOL    HW2 2001   2.307   1.231   1.985 -1.6790  0.5506 -3.2241
  668SOL     OW 2002   0.411   0.957   2.382 -0.2696  0.2731  0.2110
  668SOL    HW1 2003   0.386   0.967   2.479  0.2884 -2.8267 -1.4765
  668SOL    HW2 2004   0.336   0.990   2.317 -0.9592  3.0273 -0.8276
  669SOL     OW 2005   2.284   2.097   2.461 -0.2608  0.0291 -0.6522
  669SOL    HW1 2006   2.366   2.042   2.449 -0.7253 -2.2188 -0.7977
  669SOL    HW2 2007   2.289   2.158   2.544  0.9709  0.4099 -0.2004
  670SOL     OW 2008   2.360   1.317   1.851  0.1866  0.3270  0.1517
  670SOL    HW1 2009   2.448   1.356   1.822 -0.1560 -0.8590  3.0094
  670SOL    HW2 2010   2.283   1.352   1.794 -0.3342  0.4323 -1.0994
  671SOL     OW 2011   2.590   0.978   0.536  0.1341 -0.1130  0.1897
  671SOL    HW1 2012   2.662   0.933   0.592 -2.6033  1.6710 -1.0099
  671SOL    HW2 2013   2.604   1.076   0.542 -1.1767  1.7963 -1.1647
  672SOL     OW 2014   2.355   0.607   2.277  0.2069  0.0749 -0.2315
  672SOL    HW1 2015   2.341   0.601   2.174  0.1899  0.9171 -0.6198
  672SOL    HW2 2016   2.317   0.695   2.310 -2.0784  1.6615 -1.1340
  673SOL     OW 2017   2.798   0.116   1.843  0.2763 -0.0856  0.0509
  673SOL    HW1 2018   2.887   0.165   1.857 -1.3098  2.1002 -1.0696
  673SOL    HW2 2019   2.766   0.085   1.934  0.5797 -3.8101  0.8623
  674SOL     OW 2020   1.637   1.971   1.485 -0.0479 -0.0905  0.0542
  674SOL    HW1 2021   1.728   1.948   1.452  1.6543  0.2397 -0.4406
  674SOL    HW2 2022   1.631   2.069   1.512  2.3620  1.7833 -2.5026
  675SOL     OW 2023   0.822   0.426   0.631 -0.1504 -0.3544 -0.1904
  675SOL    HW1 2024   0.791   0.463   0.722 -0.0961 -0.2129  1.4584
  675SOL    HW2 2025   0.883   0.342   0.643  0.6395 -2.5708  1.4537
  676SOL     OW 2026   1.661   0.960   0.998  0.4084 -0.3380  0.2491
  676SOL    HW1 2027   1.565   0.980   1.011  0.6916 -1.2344  0.3585
  676SOL    HW2 2028   1.700   0.896   1.068 -1.1064 -3.4244 -0.0061
  677SOL     OW 2029   2.570   1.294   2.341  0.5009  0.0913  0.4783
  677SOL    HW1 2030   2.552   1.194   2.325 -0.6786 -0.1607 -0.1577
  677SOL    HW2 2031   2.497   1.341   2.393  0.5207  2.2140  0.9242
  678SOL     OW 2032   2.972   1.626   1.062  0.5299  0.1722  0.3132
  678SOL    HW1 2033   3.000   1.548   1.117 -0.6716  2.2309 -1.8041
  678SOL    HW2 2034   2.891   1.671   1.105  0.1689  2.3313 -0.3101
  679SOL     OW 2035   2.303   2.582   0.044  0.1731  0.1418 -0.2558
  679SOL    HW1 2036   2.244   2.561   3.100  1.0128 -1.9962  2.5279
  679SOL    HW2 2037   2.393   2.611   0.006  0.7645  0.1277 -0.5558
  680SOL     OW 2038   0.262   2.131   2.018  0.3483  0.6091  0.1084
  680SOL    HW1 2039   0.224   2.044   2.053  0.6022  1.2451 -1.5379
  680SOL    HW2 2040   0.289   2.128   1.920 -1.0312  0.0195  0.3388
  681SOL     OW 2041   0.479   1.084   1.364  0.2146 -0.0359  0.0559
  681SOL    HW1 2042   0.551   1.096   1.293 -2.6249 -0.4369  0.2035
  681SOL    HW2 2043   0.521   1.058   1.452 -0.3821  0.9435  1.4272
  682SOL     OW 2044   1.246   2.539   0.833  0.2760  0.3226 -0.3202
  682SOL    HW1 2045   1.333   2.544   0.784 -1.0378  0.7873  0.3857
  682SOL    HW2 2046   1.163   2.549   0.775  6.6614 -0.1931  0.1810
  683SOL     OW 2047   2.489   1.355   0.563 -0.2561  0.1659 -0.2894
  683SOL    HW1 2048   2.557   1.305   0.623  3.9607  1.6964  2.0499
  683SOL    HW2 2049   2.526   1.404   0.483 -0.3680 -1.6310  1.7400
  684SOL     OW 2050   0.594   2.046   1.944 -0.2416 -0.0913  0.0198
  684SOL    HW1 2051   0.597   2.144   1.971 -0.4794  2.5092  2.2895
  684SOL    HW2 2052   0.510   1.992   1.964 -0.6647 -0.8836 -0.8954
  685SOL     OW 2053   2.145   1.663   0.064  0.2464  0.1066  0.0635
  685SOL    HW1 2054   2.211   1.665   0.140  1.6206  0.6252 -2.1469
  685SOL    HW2 2055   2.055   1.637   0.102 -1.3648 -1.8091  1.8280
  686SOL     OW 2056   0.213   0.771   0.942 -0.2373 -0.0533 -0.1516
  686SOL    HW1 2057   0.186   0.864   0.982  3.4424  0.3143  0.6660
  686SOL    HW2 2058   0.262   0.711   1.003 -3.2950  1.5439 -2.2698
  687SOL     OW 2059   1.087   2.351   2.865 -0.2079 -0.1203 -0.0701
  687SOL    HW1 2060   1.020   2.294   2.921 -2.0476 -0.3307 -1.2203
  687SOL    HW2 2061   1.039   2.401   2.791 -1.6076  0.6107 -0.2099
  688SOL     OW 2062   2.535   1.686   1.957  0.0730  0.1059 -0.0885
  688SOL    HW1 2063   2.636   1.706   1.969  0.9504  0.3556  0.7828
  688SOL    HW2 2064   2.488   1.635   2.034 -0.0968  0.3043 -0.1324
  689SOL     OW 2065   2.238   0.608   2.009 -0.5404  0.3513 -0.1148
  689SOL    HW1 2066   2.334   0.611   1.978  0.2015  1.0297 -1.7174
  689SOL    HW2 2067   2.180   0.612   1.923 -1.8109 -1.9634 -0.8116
  690SOL     OW 2068   2.233   1.004   1.353 -0.3541  0.0504 -0.0979
  690SOL    HW1 2069   2.174   0.999   1.270 -1.2287  0.5255 -3.2653
  690SOL    HW2 2070   2.310   1.075   1.339 -0.4907  3.5766  0.4151
  691SOL     OW 2071   0.681   1.924   1.720  0.1267  0.1863 -0.0706
  691SOL    HW1 2072   0.671   1.983   1.802 -0.6725 -2.3937 -4.1852
  691SOL    HW2 2073   0.728   1.842   1.750 -1.9675  1.4278  0.3091
  692SOL     OW 2074   2.047   0.124   1.181  0.6602 -0.0466  0.6590
  692SOL    HW1 2075   2.027   0.201   1.245  0.3227 -1.0445 -0.5793
  692SOL    HW2 2076   1.958   0.091   1.148 -1.4795  0.0183  1.2168
  693SOL     OW 2077   0.688   0.997   2.285  0.0149 -0.4520 -0.1171
  693SOL    HW1 2078   0.747   0.980   2.365  1.7622 -0.2718 -0.4005
  693SOL    HW2 2079   0.593   0.973   2.302 -0.4029  1.0544 -2.4611
  694SOL     OW 2080   1.851   2.818   0.859  0.1292 -0.6156  0.6902
  694SOL    HW1 2081   1.806   2.727   0.860  0.7554 -1.1318  0.0044
  694SOL    HW2 2082   1.852   2.859   0.767 -1.4792 -3.4551  1.8526
  695SOL     OW 2083   1.399   1.220   1.953  0.1917 -0.0688 -0.7572
  695SOL    HW1 2084   1.361   1.196   2.044 -0.7420 -0.6466  0.6766
  695SOL    HW2 2085   1.339   1.286   1.901 -0.2754  3.3139 -0.4734
  696SOL     OW 2086   1.543   2.972   0.679 -0.3661 -0.3315 -0.1410
  696SOL    HW1 2087   1.523   2.936   0.586  2.6756 -0.0626  0.4330
  696SOL    HW2 2088   1.642   2.950   0.703 -1.0573  3.2086  0.0125
  697SOL     OW 2089   1.189   0.202   0.763 -0.0105 -0.0280  0.2780
  697SOL    HW1 2090   1.165   0.257   0.845 -0.2183  2.3928  1.9388
  697SOL    HW2 2091   1.123   0.224   0.684 -2.0514 -0.5557  2.0723
  698SOL     OW 2092   1.830   1.048   2.321 -0.2462  0.0315  0.2709
  698SOL    HW1 2093   1.868   1.080   2.233 -0.2843 -1.5256  0.8283
  698SOL    HW2 2094   1.740   1.087   2.342  2.9203 -1.3853 -1.2330
  699SOL     OW 2095   1.383   1.486   1.221 -0.0072 -0.7393  0.0143
  699SOL    HW1 2096   1.409   1.387   1.231  0.9731  0.9214 -0.4135
  699SOL    HW2 2097   1.461   1.534   1.175 -0.6815 -0.1922  2.3320
  700SOL     OW 2098   1.486   0.110   0.427 -0.9562 -0.4106  0.3984
  700SOL    HW1 2099   1.405   0.054   0.393  0.1583 -3.2394 -1.5726
  700SOL    HW2 2100   1.452   0.182   0.496 -1.9569  1.0557  1.4555
  701SOL     OW 2101   0.536   0.228   1.629  0.1872  0.0503  0.2941
  701SOL    HW1 2102   0.496   0.270   1.544  0.1175  0.5687  0.7701
  701SOL    HW2 2103   0.461   0.196   1.688  0.2846  0.0351 -1.5485
  702SOL     OW 2104   1.278   3.124   0.304  0.5972 -0.0268  0.1201
  702SOL    HW1 2105   1.185   0.032   0.298  0.0214  3.4534  2.5072
  702SOL    HW2 2106   1.322   3.104   0.217  2.5059 -0.1873  1.7684
  703SOL     OW 2107   2.588   2.820   2.318  0.1441 -0.3331 -0.8991
  703SOL    HW1 2108   2.558   2.818   2.414  0.9268 -0.5759 -0.4337
  703SOL    HW2 2109   2.506   2.813   2.262 -0.4883  0.3718  0.3169
  704SOL     OW 2110   0.938   2.300   0.830 -0.1152  0.2264 -0.4851
  704SOL    HW1 2111   0.858   2.290   0.894 -2.7862  0.7244 -0.6407
  704SOL    HW2 2112   1.012   2.344   0.880 -1.2885  1.7530  0.1872
  705SOL     OW 2113   0.098   0.704   2.268  0.7707 -0.0259  0.1450
  705SOL    HW1 2114   0.136   0.618   2.304  0.1260 -0.6153 -0.6045
  705SOL    HW2 2115   0.018   0.735   2.323 -0.5681 -0.1038 -1.7198
  706SOL     OW 2116   1.674   0.109   0.210  0.2598  0.6993 -0.1333
  706SOL    HW1 2117   1.726   0.027   0.203 -1.6538 -0.1223  2.0053
  706SOL    HW2 2118   1.619   0.110   0.297  0.6618 -1.8368 -0.9369
  707SOL     OW 2119   1.372   1.877   2.404  0.2969 -0.2734 -0.3063
  707SOL    HW1 2120   1.456   1.855   2.449 -2.2598  1.5482 -1.0032
  707SOL    HW2 2121   1.325   1.800   2.363 -0.3334  2.4509 -0.9958
  708SOL     OW 2122   2.867   2.117   1.647 -0.1792  0.0028  0.0481
  708SOL    HW1 2123   2.843   2.156   1.745 -0.0711 -0.2795  0.1885
  708SOL    HW2 2124   2.969   2.102   1.636  0.8516  0.1407 -1.5268
  709SOL     OW 2125   2.071   0.410   1.649  0.2875  0.2836 -0.1794
  709SOL    HW1 2126   2.069   0.337   1.721 -0.0176 -0.2831 -2.0395
  709SOL    HW2 2127   2.118   0.498   1.677  0.9974 -0.0971 -2.3111
  710SOL     OW 2128   2.825   2.926   1.305 -0.7333  0.1496  0.0687
  710SOL    HW1 2129   2.743   2.957   1.359 -0.8572 -0.0084  0.5250
  710SOL    HW2 2130   2.837   2.983   1.220  0.3349  1.0531 -1.8787
  711SOL     OW 2131   0.346   2.339   0.508  0.0301  0.1887 -0.7979
  711SOL    HW1 2132   0.408   2.397   0.451 -0.2657 -1.0400 -2.2004
  711SOL    HW2 2133   0.251   2.353   0.484 -0.7264 -1.0336  1.7778
  712SOL     OW 2134   0.636   2.221   2.338 -0.1748 -0.3831 -0.4638
  712SOL    HW1 2135   0.566   2.263   2.399 -0.7756  1.6294 -1.5553
  712SOL    HW2 2136   0.723   2.216   2.387  1.1992  0.2974 -1.1322
  713SOL     OW 2137   1.961   0.620   3.067  0.8750  0.1015  0.2204
  713SOL    HW1 2138   1.869   0.575   3.056  0.3598 -1.1517  1.1570
  713SOL    HW2 2139   1.975   0.698   3.137  0.7972  2.2606  0.1524
  714SOL     OW 2140   1.287   1.965   0.707  0.2542 -0.3572 -0.2380
  714SOL    HW1 2141   1.231   1.985   0.787  0.4358  2.6040  0.4837
  714SOL    HW2 2142   1.234   1.992   0.623  1.2432 -0.5340 -1.5146
  715SOL     OW 2143   1.900   0.216   0.544 -0.6690 -0.1956 -0.0735
  715SOL    HW1 2144   1.867   0.307   0.566  1.7049 -1.2708 -1.7412
  715SOL    HW2 2145   1.986   0.231   0.482  2.4480 -0.7382  0.7507
  716SOL     OW 2146   0.679   0.822   2.007  0.1714 -0.0448  0.9388
  716SOL    HW1 2147   0.687   0.791   2.103 -0.5836 -0.6472 -1.8807
  716SOL    HW2 2148   0.595   0.878   2.002 -1.8001  1.2404  0.5729
  717SOL     OW 2149   0.157   0.441   2.949 -0.1018  0.2768  0.5578
  717SOL    HW1 2150   0.162   0.522   2.890  0.2183 -0.9186  0.4373
  717SOL    HW2 2151   0.063   0.435   2.991  0.0645  1.4403  0.5430
  718SOL     OW 2152   1.241   0.887   0.313  0.3848 -0.0047 -0.1828
  718SOL    HW1 2153   1.264   0.921   0.406  0.5928 -0.4861  3.2885
  718SOL    HW2 2154   1.276   0.795   0.292  0.0753  3.3885  1.0975
  719SOL     OW 2155   2.791   1.935   3.011  0.1000  0.5169  0.0909
  719SOL    HW1 2156   2.785   1.855   3.072  1.9452 -1.7247  0.0334
  719SOL    HW2 2157   2.811   1.899   2.916  3.7582  2.1569 -2.1761
  720SOL     OW 2158   1.393   0.943   1.317  0.1486 -0.3220 -0.1891
  720SOL    HW1 2159   1.364   0.918   1.220 -2.4678 -3.2812 -0.3435
  720SOL    HW2 2160   1.307   0.942   1.368 -1.9084  1.1626 -3.0345
  721SOL     OW 2161   2.820   0.492   0.709  0.4994 -0.2716  0.2456
  721SOL    HW1 2162   2.766   0.446   0.637  0.9207  1.0737  0.0569
  721SOL    HW2 2163   2.764   0.557   0.771 -1.1501  2.6721 -0.5503
  722SOL     OW 2164   1.173   1.778   2.763 -0.5540 -0.3682  0.3395
  722SOL    HW1 2165   1.154   1.868   2.806 -0.9576 -0.1275  1.5952
  722SOL    HW2 2166   1.091   1.717   2.758  0.6570  0.3717 -0.2198
  723SOL     OW 2167   0.679   0.823   0.416 -0.2129  0.4960  0.1004
  723SOL    HW1 2168   0.745   0.903   0.414  0.4306  2.1473 -1.4516
  723SOL    HW2 2169   0.584   0.849   0.446  0.4635 -1.2915  2.1592
  724SOL     OW 2170   1.018   2.025   1.860  0.1221 -0.6048  0.4730
  724SOL    HW1 2171   0.989   2.063   1.771 -0.4207  2.0745  0.4147
  724SOL    HW2 2172   0.939   2.000   1.916  1.4209 -1.3167 -0.9586
  725SOL     OW 2173   3.060   1.109   1.501  0.1772  0.5045  0.0202
  725SOL    HW1 2174   0.009   1.068   1.540 -0.9397  3.0608  1.6243
  725SOL    HW2 2175   3.003   1.160   1.570 -1.6795  0.8907  2.2119
  726SOL     OW 2176   1.825   3.038   0.199 -0.4459 -0.1215  0.2457
  726SOL    HW1 2177   1.867   3.059   0.293  0.6031  3.0697  2.3831
  726SOL    HW2 2178   1.829   2.945   0.174 -1.5896  1.3954  0.3449
  727SOL     OW 2179   1.328   1.002   2.374 -0.8807 -0.1544 -0.0500
  727SOL    HW1 2180   1.265   0.970   2.447  0.8800 -0.0049  0.3121
  727SOL    HW2 2181   1.339   0.932   2.302 -0.0493  0.3829  1.0464
  728SOL     OW 2182   1.320   2.859   1.262 -0.0635  0.1886  0.2430
  728SOL    HW1 2183   1.271   2.801   1.191 -0.4775  0.2697 -0.2962
  728SOL    HW2 2184   1.422   2.854   1.256  1.3676 -1.9976  0.5318
  729SOL     OW 2185   1.603   0.477   1.325  0.3957  0.0627  0.1982
  729SOL    HW1 2186   1.591   0.378   1.320 -0.2068  0.3786 -0.0734
  729SOL    HW2 2187   1.633   0.517   1.234 -0.6101  0.6040 -0.1438
  730SOL     OW 2188   0.822   1.968   2.074 -0.2168 -0.2434  0.4769
  730SOL    HW1 2189   0.868   2.036   2.133  1.1748  0.0041  2.2961
  730SOL    HW2 2190   0.745   2.002   2.015  3.3538  2.4176 -1.0407
  731SOL     OW 2191   0.285   0.262   0.300 -0.3575 -0.4235  0.1528
  731SOL    HW1 2192   0.352   0.335   0.330 -0.6118  1.3942 -2.4841
  731SOL    HW2 2193   0.331   0.172   0.293 -0.7158  2.9664  0.6620
  732SOL     OW 2194   0.614   0.314   3.059 -0.2707  0.0663  0.4623
  732SOL    HW1 2195   0.676   0.326   0.004  0.2319 -0.1766 -0.0808
  732SOL    HW2 2196   0.516   0.321   3.090  2.5050  1.3402  2.6268
  733SOL     OW 2197   1.371   2.361   1.337  0.0523 -0.0967 -0.0006
  733SOL    HW1 2198   1.340   2.299   1.414 -0.3488 -1.0976  3.1848
  733SOL    HW2 2199   1.295   2.420   1.314  1.5864 -1.0911  0.9849
  734SOL     OW 2200   3.057   2.567   2.673 -0.0076 -0.3431 -0.0907
  734SOL    HW1 2201   3.126   2.488   2.681 -0.5084  0.5592 -0.1481
  734SOL    HW2 2202   3.000   2.581   2.758 -0.7192 -1.7505 -0.3088
  735SOL     OW 2203   0.748   2.908   0.918 -0.0963 -0.1227  0.1499
  735SOL    HW1 2204   0.767   2.968   1.000 -1.3627  0.6613  1.3168
  735SOL    HW2 2205   0.815   2.838   0.925 -3.0769  1.0384  3.7896
  736SOL     OW 2206   1.702   1.088   2.846 -0.0433  0.3058  0.3825
  736SOL    HW1 2207   1.687   1.011   2.775 -0.3036 -4.9318 -2.8301
  736SOL    HW2 2208   1.695   1.050   2.940  1.5247 -2.1893  2.7611
  737SOL     OW 2209   3.125   0.378   0.648 -0.4459  0.2884 -0.1423
  737SOL    HW1 2210   0.051   0.301   0.620  0.0723  0.1026  1.8825
  737SOL    HW2 2211   3.042   0.346   0.698 -1.6366  0.2762  0.6818
  738SOL     OW 2212   2.681   2.477   1.268 -0.1449 -0.1049 -0.2974
  738SOL    HW1 2213   2.715   2.396   1.325  1.8638 -2.3493  0.3399
  738SOL    HW2 2214   2.754   2.548   1.267 -0.2865  0.2084 -2.1316
  739SOL     OW 2215   1.512   2.761   0.384 -0.2139 -0.4009 -0.1529
  739SOL    HW1 2216   1.436   2.783   0.447  0.8850 -1.1129 -0.5066
  739SOL    HW2 2217   1.577   2.697   0.427 -2.6282  0.6374  1.6424
  740SOL     OW 2218   1.543   0.039   0.981 -0.6526  0.2060  0.0329
  740SOL    HW1 2219   1.492   3.086   0.984  2.1922 -0.7573  0.2788
  740SOL    HW2 2220   1.588   0.049   0.892  0.6355  0.3458 -0.6535
  741SOL     OW 2221   2.261   0.379   0.736 -0.5305 -0.2535  0.1975
  741SOL    HW1 2222   2.343   0.325   0.722 -0.3894  0.0818  0.6335
  741SOL    HW2 2223   2.290   0.474   0.754 -0.7839  2.5008 -0.0166
  742SOL     OW 2224   1.434   2.306   2.159 -0.2063  0.3904  0.4830
  742SOL    HW1 2225   1.496   2.277   2.231  0.2759  0.8504 -1.3015
  742SOL    HW2 2226   1.488   2.318   2.077  0.6614 -0.5467  3.3101
  743SOL     OW 2227   2.368   0.317   2.016 -0.2465  0.2163 -0.0903
  743SOL    HW1 2228   2.420   0.406   2.008 -3.5446 -2.3306 -0.5584
  743SOL    HW2 2229   2.269   0.342   2.022  1.5115  1.1853  2.9744
  744SOL     OW 2230   2.335   0.663   1.209 -0.4718  1.0134  0.0033
  744SOL    HW1 2231   2.333   0.693   1.305 -3.1431  0.9142  1.1462
  744SOL    HW2 2232   2.295   0.741   1.154 -1.8348  1.3011  1.6904
  745SOL     OW 2233   2.150   1.404   1.686 -0.1981  0.1810 -0.0244
  745SOL    HW1 2234   2.068   1.374   1.740 -0.7293 -0.2591  0.7509
  745SOL    HW2 2235   2.126   1.460   1.605 -0.6094 -0.6628  3.2358
  746SOL     OW 2236   1.199   1.514   0.672 -0.4222  0.1904  0.2505
  746SOL    HW1 2237   1.274   1.588   0.680 -1.1140  1.3935 -1.0722
  746SOL    HW2 2238   1.114   1.554   0.633 -2.0175 -0.1161 -0.7898
  747SOL     OW 2239   1.672   1.306   1.180  0.3552 -0.2291 -0.0866
  747SOL    HW1 2240   1.689   1.282   1.081  0.2261 -1.2361 -1.8012
  747SOL    HW2 2241   1.746   1.269   1.240  0.0892  0.6976  0.6199
  748SOL     OW 2242   2.876   0.018   0.527  0.0121 -0.1474 -0.1700
  748SOL    HW1 2243   2.863   0.086   0.447  0.8769  1.1103 -1.8305
  748SOL    HW2 2244   2.936   0.053   0.604  2.3711  3.9116 -0.0024
  749SOL     OW 2245   2.981   0.252   2.160 -0.3167  0.3115  0.0190
  749SOL    HW1 2246   3.008   0.156   2.145  0.0914 -0.3597 -2.6867
  749SOL    HW2 2247   3.028   0.293   2.241  0.2466 -2.2499  3.2487
  750SOL     OW 2248   1.903   3.037   1.351  0.1116  0.4561  0.5375
  750SOL    HW1 2249   1.851   3.119   1.320  0.1920  2.8460 -1.8108
  750SOL    HW2 2250   1.896   2.962   1.283  0.1492 -3.2096  1.3498
  751SOL     OW 2251   2.896   0.271   0.843 -0.3291  0.2869 -0.4864
  751SOL    HW1 2252   2.861   0.351   0.793 -2.2124 -0.0379 -0.3846
  751SOL    HW2 2253   2.833   0.243   0.918 -0.3011 -0.3859 -0.7930
  752SOL     OW 2254   0.324   2.779   1.178  0.3251 -0.1220  0.1994
  752SOL    HW1 2255   0.383   2.716   1.237  2.2416 -2.7566  0.6870
  752SOL    HW2 2256   0.280   2.717   1.108  0.4052 -1.3833 -1.0803
  753SOL     OW 2257   1.342   0.460   1.865 -0.4232 -0.1605  0.1817
  753SOL    HW1 2258   1.277   0.481   1.791  0.2426  2.6131  1.0594
  753SOL    HW2 2259   1.424   0.517   1.854 -0.2289  3.3262  0.0261
  754SOL     OW 2260   1.368   2.758   1.768  0.4240 -0.1773  0.4584
  754SOL    HW1 2261   1.433   2.812   1.707 -0.1992 -0.1327 -1.0919
  754SOL    HW2 2262   1.399   2.746   1.867  0.3665  1.1122 -1.9487
  755SOL     OW 2263   2.780   0.850   0.673 -0.2454  0.3604 -0.1559
  755SOL    HW1 2264   2.808   0.913   0.744  0.7447 -2.7870  0.9845
  755SOL    HW2 2265   2.853   0.779   0.658  0.5918  0.5166  3.5858
  756SOL     OW 2266   2.264   1.919   2.848 -0.6675  0.0930 -0.2208
  756SOL    HW1 2267   2.282   1.836   2.904  0.4738 -5.0894  0.3818
  756SOL    HW2 2268   2.189   1.974   2.891 -1.7285  1.5262  2.5327
  757SOL     OW 2269   1.734   0.066   0.735 -0.7057  0.3278 -0.0626
  757SOL    HW1 2270   1.790   0.117   0.663 -0.1792  1.3119  0.1516
  757SOL    HW2 2271   1.658   0.019   0.685 -2.2396 -1.8337  0.1516
  758SOL     OW 2272   0.977   2.743   0.910  0.1317 -0.0592 -0.2450
  758SOL    HW1 2273   0.928   2.667   0.960  0.2824 -1.2448  1.6340
  758SOL    HW2 2274   0.994   2.715   0.817  2.3415  1.7145 -1.0113
  759SOL     OW 2275   2.930   0.569   1.218 -0.1181 -0.1395  0.0951
  759SOL    HW1 2276   2.986   0.549   1.134 -0.0456  1.3539 -4.4816
  759SOL    HW2 2277   2.849   0.629   1.195 -2.7197  1.5209  0.8056
  760SOL     OW 2278   2.317   1.348   1.089  0.6366  0.1690 -0.2384
  760SOL    HW1 2279   2.330   1.277   1.166  3.3057 -2.2176  2.0028
  760SOL    HW2 2280   2.239   1.413   1.101 -1.0544 -0.2263 -0.6938
  761SOL     OW 2281   0.781   0.935   0.943  0.4177 -0.5847  0.0647
  761SOL    HW1 2282   0.709   0.908   0.873 -1.2693 -0.1649 -0.1270
  761SOL    HW2 2283   0.855   0.863   0.955  1.4462 -1.9430  3.4477
  762SOL     OW 2284   2.148   1.871   1.450 -0.1159 -0.2724 -0.0864
  762SOL    HW1 2285   2.167   1.862   1.350 -1.7589  0.2435  2.2897
  762SOL    HW2 2286   2.149   1.786   1.505 -1.1616  0.7442 -0.2679
  763SOL     OW 2287   1.428   1.722   2.025  0.2769 -0.0271  1.1790
  763SOL    HW1 2288   1.400   1.700   2.120 -0.1550 -3.2502 -1.7358
  763SOL    HW2 2289   1.371   1.791   1.978  2.4310  0.1126 -0.8002
  764SOL     OW 2290   0.080   2.013   2.366  0.2899 -0.7592  0.1708
  764SOL    HW1 2291   0.008   2.089   2.371 -1.4261 -0.2993 -1.5025
  764SOL    HW2 2292   0.172   2.048   2.396 -1.1544 -2.7258 -0.1583
  765SOL     OW 2293   0.869   2.663   1.312  0.2021 -0.0534  0.1431
  765SOL    HW1 2294   0.939   2.729   1.346 -1.6255 -0.8462 -0.3037
  765SOL    HW2 2295   0.834   2.609   1.389  0.8158  3.4410 -1.0555
  766SOL     OW 2296   0.832   2.380   2.660 -0.2258  0.2858 -0.3611
  766SOL    HW1 2297   0.786   2.288   2.657 -2.9198  0.8058  1.8510
  766SOL    HW2 2298   0.797   2.434   2.743  0.2415  1.9111  0.0697
  767SOL     OW 2299   1.588   0.942   2.645 -0.1977  0.3559 -0.4861
  767SOL    HW1 2300   1.500   0.907   2.676  2.9120 -2.2060 -1.1417
  767SOL    HW2 2301   1.585   0.939   2.544 -0.4062  0.4047  2.5520
  768SOL     OW 2302   1.389   2.528   3.013  0.0188  0.2719  0.1189
  768SOL    HW1 2303   1.488   2.533   3.012 -2.1400 -0.3111 -1.4057
  768SOL    HW2 2304   1.364   2.430   2.998  0.8913 -1.9637 -1.7337
  769SOL     OW 2305   0.110   2.734   1.357  0.0842  0.2401  0.1449
  769SOL    HW1 2306   0.155   2.768   1.269  1.9697  0.5394 -0.6794
  769SOL    HW2 2307   0.147   2.644   1.396  1.7594 -3.8267  1.2831
  770SOL     OW 2308   0.975   0.208   2.718 -0.3624 -0.2376  0.2816
  770SOL    HW1 2309   0.910   0.130   2.736  2.2632  2.4439  2.0477
  770SOL    HW2 2310   0.996   0.245   2.811  0.4096  0.4247  1.3138
  771SOL     OW 2311   0.689   3.080   2.499 -0.0481 -0.4314 -1.2536
  771SOL    HW1 2312   0.598   3.038   2.472  1.5136  2.3449  0.5181
  771SOL    HW2 2313   0.744   3.092   2.415  0.1012 -0.1045  2.3782
  772SOL     OW 2314   2.346   2.990   1.963 -0.7503  0.3019 -0.3121
  772SOL    HW1 2315   2.408   3.063   2.002 -0.3952  0.7462  0.6083
  772SOL    HW2 2316   2.390   2.936   1.889 -1.7660  1.2957  0.4442
  773SOL     OW 2317   0.799   2.307   1.847 -0.3833  0.3759 -0.5419
  773SOL    HW1 2318   0.864   2.388   1.854 -1.6210 -1.5529  0.1017
  773SOL    HW2 2319   0.744   2.298   1.930  1.2360  3.4480 -2.1333
  774SOL     OW 2320   1.193   0.395   2.087 -1.0930 -0.1743 -0.1044
  774SOL    HW1 2321   1.196   0.297   2.101 -1.2239  3.0499  0.0289
  774SOL    HW2 2322   1.255   0.421   2.008  1.7308  0.1077 -2.9668
  775SOL     OW 2323   2.271   2.926   3.007  0.0892 -0.0148 -0.0381
  775SOL    HW1 2324   2.177   2.917   3.044  0.2230 -2.6161 -2.0121
  775SOL    HW2 2325   2.273   2.978   2.919 -2.0513  1.9227  0.2228
  776SOL     OW 2326   1.855   0.555   2.221 -0.0366  0.2012 -0.2201
  776SOL    HW1 2327   1.936   0.577   2.274 -0.3917 -2.4550  1.8832
  776SOL    HW2 2328   1.828   0.457   2.244  2.5985 -1.0029 -0.7957
  777SOL     OW 2329   2.541   0.967   2.487 -0.0601 -0.2745  0.2053
  777SOL    HW1 2330   2.588   1.042   2.538 -1.2357 -0.1592 -0.4364
  777SOL    HW2 2331   2.464   1.005   2.434  2.5195 -1.9370 -3.5859
  778SOL     OW 2332   1.983   0.676   2.483 -0.2969 -0.1534  0.0705
  778SOL    HW1 2333   2.018   0.768   2.453 -0.7377  2.4429  1.4480
  778SOL    HW2 2334   2.043   0.643   2.557 -0.0797  1.6938 -0.1248
  779SOL     OW 2335   3.034   0.201   3.119  0.0352 -0.2348  0.6672
  779SOL    HW1 2336   3.002   0.249   0.067 -1.2822 -1.2331  2.5311
  779SOL    HW2 2337   3.105   0.138   0.007 -3.1409  1.9956 -0.5888
  780SOL     OW 2338   2.283   0.381   2.827 -0.6156 -0.4931 -0.3646
  780SOL    HW1 2339   2.370   0.349   2.780 -1.6830  0.2204 -1.1874
  780SOL    HW2 2340   2.247   0.461   2.784  0.2373  1.5226  0.6758
  781SOL     OW 2341   0.419   2.908   1.620 -0.1087  0.3164  0.8505
  781SOL    HW1 2342   0.382   2.944   1.531 -1.3946 -2.6988  0.2316
  781SOL    HW2 2343   0.495   2.846   1.603 -1.0656  2.4457  0.3583
  782SOL     OW 2344   1.638   2.328   0.435  0.0956 -0.2291 -0.4504
  782SOL    HW1 2345   1.621   2.228   0.456 -1.9161  0.2493  2.0191
  782SOL    HW2 2346   1.665   2.380   0.516  0.4495 -0.6834 -2.2206
  783SOL     OW 2347   0.645   1.544   1.723  0.0947 -0.0120  0.5833
  783SOL    HW1 2348   0.737   1.562   1.766 -0.8523  0.9342  2.6260
  783SOL    HW2 2349   0.608   1.447   1.735 -0.8426  0.7379  2.8158
  784SOL     OW 2350   1.608   0.906   2.088 -0.0749 -0.2883 -0.1880
  784SOL    HW1 2351   1.640   0.998   2.074 -1.9307 -4.2227 -1.4648
  784SOL    HW2 2352   1.655   0.835   2.033  0.0147 -1.5649  0.6877
  785SOL     OW 2353   2.730   0.233   1.068  0.3950 -0.3418 -0.1844
  785SOL    HW1 2354   2.768   0.305   1.127  1.7973  3.2238 -0.3477
  785SOL    HW2 2355   2.630   0.236   1.064  0.8787  0.7264 -2.2171
  786SOL     OW 2356   1.772   0.087   1.154 -0.0439 -0.0554  0.1733
  786SOL    HW1 2357   1.682   0.069   1.104 -2.3882  2.2915 -0.2108
  786SOL    HW2 2358   1.747   0.131   1.242 -3.8899 -0.2430 -1.0461
  787SOL     OW 2359   1.501   0.172   1.231  0.8089  0.0408  0.2916
  787SOL    HW1 2360   1.409   0.207   1.259  0.5069  0.4403 -1.2869
  787SOL    HW2 2361   1.491   0.124   1.139 -1.3711  0.4703 -0.5191
  788SOL     OW 2362   0.155   0.694   0.275  0.1689 -0.0367  0.2016
  788SOL    HW1 2363   0.079   0.679   0.206  1.4868  0.4454 -0.4295
  788SOL    HW2 2364   0.117   0.674   0.370  0.8462 -1.6616  4.1404
  789SOL     OW 2365   0.518   1.221   2.062 -0.1770 -0.6390  0.0219
  789SOL    HW1 2366   0.607   1.199   2.106 -3.2042  0.2914 -1.1750
  789SOL    HW2 2367   0.526   1.293   1.986  0.3395  1.6886  1.0339
  790SOL     OW 2368   0.367   0.515   2.641  0.6768  0.3046  0.3638
  790SOL    HW1 2369   0.464   0.557   2.648  1.8743  2.0532 -1.0746
  790SOL    HW2 2370   0.296   0.568   2.686  0.7510 -0.1906  0.5351
  791SOL     OW 2371   2.282   0.581   0.174 -0.1474 -0.4672  0.2233
  791SOL    HW1 2372   2.224   0.641   0.228  0.7432 -1.9774  0.3584
  791SOL    HW2 2373   2.270   0.483   0.200  0.4966 -2.0965  0.3971
  792SOL     OW 2374   1.066   0.189   1.371  0.0886 -0.1189 -0.5885
  792SOL    HW1 2375   0.973   0.231   1.364  0.8421  0.5035  1.0161
  792SOL    HW2 2376   1.094   0.177   1.465  0.2485 -0.4679 -1.3834
  793SOL     OW 2377   0.302   2.988   1.382 -0.2426 -0.2450 -0.4622
  793SOL    HW1 2378   0.288   2.912   1.315 -2.0854 -2.9471 -0.1064
  793SOL    HW2 2379   0.219   3.048   1.389  1.3859  1.1708  0.2070
  794SOL     OW 2380   0.226   0.489   2.359  0.6259 -0.6235  0.1341
  794SOL    HW1 2381   0.287   0.536   2.422 -0.6821 -1.2636 -0.8460
  794SOL    HW2 2382   0.283   0.414   2.317 -0.5616  2.1034 -0.5678
  795SOL     OW 2383   0.548   2.511   2.685 -0.4380  0.0565 -0.1864
  795SOL    HW1 2384   0.536   2.609   2.655 -1.2228  1.2115  0.2065
  795SOL    HW2 2385   0.625   2.499   2.754  0.5205  1.7391  0.1150
  796SOL     OW 2386   2.110   0.583   2.724  0.7350 -0.4402  0.1741
  796SOL    HW1 2387   2.056   0.655   2.772  0.6545  0.1767 -1.7214
  796SOL    HW2 2388   2.050   0.502   2.716  0.1126 -0.8295 -0.0865
  797SOL     OW 2389   2.843   2.313   2.900 -0.8424 -0.2058  0.0574
  797SOL    HW1 2390   2.884   2.352   2.982 -2.9804  0.4647  2.3805
  797SOL    HW2 2391   2.774   2.239   2.923 -0.6365  2.5691 -0.8332
  798SOL     OW 2392   0.229   0.575   1.781 -0.2095 -0.6189 -0.4352
  798SOL    HW1 2393   0.287   0.501   1.822 -0.1803  0.7190 -0.7239
  798SOL    HW2 2394   0.159   0.605   1.850 -2.0431  2.1646 -2.1342
  799SOL     OW 2395   0.779   0.298   1.733  0.0847  0.6605 -0.1948
  799SOL    HW1 2396   0.773   0.338   1.826 -0.8404  0.8831 -0.7084
  799SOL    HW2 2397   0.683   0.280   1.698 -3.0518  0.0233 -1.5660
  800SOL     OW 2398   0.029   2.589   0.341 -0.4236  0.2817  0.4907
  800SOL    HW1 2399   0.012   2.581   0.245  1.8880  0.8770  1.7665
  800SOL    HW2 2400   0.066   2.500   0.376  1.6494  0.6686 -0.8956
  801SOL     OW 2401   1.746   1.774   1.207 -0.1564 -0.0304  0.0045
  801SOL    HW1 2402   1.699   1.832   1.137  0.5005 -1.3998 -1.5824
  801SOL    HW2 2403   1.789   1.838   1.274  0.5595 -0.6245  0.5315
  802SOL     OW 2404   0.439   0.476   0.383 -0.5615  0.0667  0.3273
  802SOL    HW1 2405   0.389   0.527   0.453 -0.5185 -2.0558 -2.1201
  802SOL    HW2 2406   0.495   0.531   0.320 -1.3670  2.6073  2.0181
  803SOL     OW 2407   1.221   1.186   2.168  0.2301  0.1058 -0.0091
  803SOL    HW1 2408   1.270   1.152   2.247  1.7314  2.0689  0.2682
  803SOL    HW2 2409   1.155   1.262   2.196 -1.8425 -1.5371 -0.0209
  804SOL     OW 2410   1.955   2.062   0.945  0.4245  0.0908 -0.2558
  804SOL    HW1 2411   1.967   2.113   1.036  0.7836  3.8225  0.3318
  804SOL    HW2 2412   1.995   1.971   0.954 -2.9132  0.9349 -2.0806
  805SOL     OW 2413   0.381   1.957   2.714  0.1245 -0.2680  0.6252
  805SOL    HW1 2414   0.326   2.033   2.696 -0.5200 -2.1831 -0.5249
  805SOL    HW2 2415   0.412   1.931   2.619  1.8221 -0.6165  1.0157
  806SOL     OW 2416   0.761   2.523   0.340  0.1883  0.8741 -0.3248
  806SOL    HW1 2417   0.827   2.481   0.413  1.8946 -2.6397  1.9269
  806SOL    HW2 2418   0.800   2.510   0.241 -1.0489  1.3307 -0.5699
  807SOL     OW 2419   2.669   1.377   2.749  0.4432 -0.6208 -0.1918
  807SOL    HW1 2420   2.740   1.370   2.819 -0.2160 -0.3577  0.8277
  807SOL    HW2 2421   2.578   1.367   2.793 -2.3760 -0.6107 -2.5029
  808SOL     OW 2422   1.430   2.233   1.112 -0.3944 -0.0811 -0.1803
  808SOL    HW1 2423   1.453   2.136   1.124  1.1170  3.3944 -0.7149
  808SOL    HW2 2424   1.423   2.281   1.202  1.1473  0.5518 -1.3653
  809SOL     OW 2425   0.081   0.612   0.554  0.2763 -0.0608  0.0472
  809SOL    HW1 2426   0.179   0.634   0.577  0.5249  1.7166  0.8703
  809SOL    HW2 2427   0.049   0.524   0.597  0.0836 -0.7872  0.8804
  810SOL     OW 2428   1.438   1.502   0.017 -0.9471  0.2492 -0.1865
  810SOL    HW1 2429   1.405   1.566   3.084  0.4131 -1.8197  0.7212
  810SOL    HW2 2430   1.428   1.556   0.109  3.0194  1.3784 -0.6482
  811SOL     OW 2431   1.549   2.777   1.071  0.0804 -0.0571  0.4325
  811SOL    HW1 2432   1.634   2.836   1.083 -0.0301  3.6829  0.1123
  811SOL    HW2 2433   1.471   2.819   1.020 -1.2234 -1.1408 -0.3888
  812SOL     OW 2434   1.398   2.952   0.896  0.0149 -0.3432 -0.4498
  812SOL    HW1 2435   1.442   2.933   0.804 -0.0650 -0.4043  1.7045
  812SOL    HW2 2436   1.296   2.940   0.899 -0.6621  0.1934  0.3087
  813SOL     OW 2437   1.206   0.065   1.891  0.0195 -0.5630  0.1461
  813SOL    HW1 2438   1.141   0.139   1.895  4.9181 -1.7730 -0.8854
  813SOL    HW2 2439   1.298   0.086   1.843  1.2705 -1.0375 -0.2175
  814SOL     OW 2440   1.022   2.437   2.098  0.2193 -0.5134 -0.5283
  814SOL    HW1 2441   1.014   2.495   2.012 -0.0269  0.0930 -2.4531
  814SOL    HW2 2442   0.927   2.423   2.136 -5.1533 -0.1051 -0.0707
  815SOL     OW 2443   0.378   3.060   2.832 -0.1785 -0.1952 -0.2228
  815SOL    HW1 2444   0.439   2.981   2.824  1.9625 -0.8953  0.0924
  815SOL    HW2 2445   0.427   0.012   2.841  1.1765  0.7112 -0.7391
  816SOL     OW 2446   2.362   1.117   0.052  0.2917  0.1712  0.5225
  816SOL    HW1 2447   2.427   1.193   0.032  0.2680 -0.7084 -1.9305
  816SOL    HW2 2448   2.409   1.025   0.041  1.4938 -0.4805 -0.9782
  817SOL     OW 2449   2.788   2.362   2.501  0.4082  0.2039  0.2766
  817SOL    HW1 2450   2.707   2.399   2.543  3.0884  0.3014  0.1494
  817SOL    HW2 2451   2.858   2.430   2.475  1.7130 -1.3995 -0.3416
  818SOL     OW 2452   0.777   1.359   0.404  0.1047 -0.0190 -0.0618
  818SOL    HW1 2453   0.690   1.313   0.425  2.6947 -1.9443  1.2301
  818SOL    HW2 2454   0.845   1.288   0.383 -2.2171  0.4032 -0.6324
  819SOL     OW 2455   1.897   1.261   2.752 -0.3606 -0.0534  0.4821
  819SOL    HW1 2456   1.914   1.231   2.654 -0.0056  0.5274  1.1629
  819SOL    HW2 2457   1.836   1.204   2.803 -0.3425  0.2412 -2.5000
  820SOL     OW 2458   0.538   1.083   0.199  0.3219  0.0232  0.0527
  820SOL    HW1 2459   0.552   1.142   0.279 -0.7537 -0.2314 -0.4841
  820SOL    HW2 2460   0.449   1.030   0.214 -0.0190  0.4944  0.2254
  821SOL     OW 2461   0.467   2.953   0.975  0.0678  0.7328 -0.5362
  821SOL    HW1 2462   0.564   2.929   0.984  0.8069 -1.9603 -0.6404
  821SOL    HW2 2463   0.413   2.911   1.049  3.3374 -0.0581 -2.5424
  822SOL     OW 2464   2.197   2.305   2.933 -0.2344 -0.1164 -0.5699
  822SOL    HW1 2465   2.280   2.297   2.990  0.7351 -2.0941 -3.0358
  822SOL    HW2 2466   2.121   2.333   2.996 -0.4570  0.6348 -1.3215
  823SOL     OW 2467   1.115   0.505   2.537  0.3635  0.3068 -0.0537
  823SOL    HW1 2468   1.180   0.431   2.505  0.9439 -1.5759  2.6347
  823SOL    HW2 2469   1.126   0.514   2.634  0.5823 -0.0341 -2.1706
  824SOL     OW 2470   2.405   2.725   1.532  0.0595 -0.1020  0.2433
  824SOL    HW1 2471   2.441   2.764   1.616  1.7329 -0.7812 -0.3944
  824SOL    HW2 2472   2.431   2.784   1.454 -1.4578 -0.5113  3.0470
  825SOL     OW 2473   0.334   2.089   2.468  0.8593 -0.3913 -0.1507
  825SOL    HW1 2474   0.361   2.037   2.384 -2.6656 -1.2748  1.2843
  825SOL    HW2 2475   0.385   2.176   2.483 -0.5836 -1.7727 -1.0733
  826SOL     OW 2476   1.580   0.383   0.129 -0.6066 -0.2882 -0.3968
  826SOL    HW1 2477   1.641   0.446   0.187  0.0724  0.3485 -0.1062
  826SOL    HW2 2478   1.577   0.289   0.170 -0.2206 -0.7425 -1.2132
  827SOL     OW 2479   0.109   1.837   1.963  0.7490  0.1173 -0.6341
  827SOL    HW1 2480   0.073   1.769   1.895  0.7594 -3.4366  0.1796
  827SOL    HW2 2481   0.055   1.923   1.954 -0.4342 -0.2337 -3.8409
  828SOL     OW 2482   0.060   3.127   1.407  0.0734 -0.1632 -0.3391
  828SOL    HW1 2483   0.014   0.077   1.430  0.2592 -1.4668  0.9495
  828SOL    HW2 2484   3.137   3.047   1.441 -3.2017 -0.9297 -1.6023
  829SOL     OW 2485   1.006   1.796   2.522  0.0146 -0.1851 -0.5997
  829SOL    HW1 2486   1.094   1.825   2.554 -2.1613 -2.6039 -0.5103
  829SOL    HW2 2487   0.936   1.865   2.544  2.6555 -1.4427  0.0061
  830SOL     OW 2488   0.657   0.887   1.505 -0.6358  0.3337 -0.1198
  830SOL    HW1 2489   0.745   0.874   1.449  3.0891  0.1395 -3.0877
  830SOL    HW2 2490   0.636   0.806   1.564 -1.1503 -2.8958 -0.9437
  831SOL     OW 2491   2.784   1.726   0.048 -0.3104  0.4399 -0.0522
  831SOL    HW1 2492   2.824   1.633   0.065 -0.3660  0.3436 -0.4116
  831SOL    HW2 2493   2.777   1.775   0.136  0.1140 -0.9213 -0.7216
  832SOL     OW 2494   1.343   2.305   2.912  0.2069 -0.2310 -0.3691
  832SOL    HW1 2495   1.240   2.322   2.907 -0.1673 -0.6417 -2.6592
  832SOL    HW2 2496   1.367   2.230   2.842  2.1770 -1.1186 -1.1594
  833SOL     OW 2497   0.389   0.394   1.932 -0.2459 -0.0614 -0.2204
  833SOL    HW1 2498   0.473   0.422   1.884 -3.7976 -1.2782 -0.6412
  833SOL    HW2 2499   0.375   0.295   1.903 -0.4003  0.7600  0.1455
  834SOL     OW 2500   0.157   0.760   1.238 -0.2830  0.3147 -0.3277
  834SOL    HW1 2501   0.210   0.815   1.308  1.2193  0.3371 -2.0286
  834SOL    HW2 2502   0.129   0.825   1.170  1.2424  0.2368  1.0590
  835SOL     OW 2503   2.509   0.399   0.278  0.7882  0.1003  0.0215
  835SOL    HW1 2504   2.520   0.376   0.179  0.2835 -0.0436 -1.3204
  835SOL    HW2 2505   2.531   0.497   0.300  0.3075  1.8003 -0.7319
  836SOL     OW 2506   0.895   2.165   0.350 -0.3676  0.5539  0.1830
  836SOL    HW1 2507   0.939   2.207   0.266  2.6687  2.0630 -2.5389
  836SOL    HW2 2508   0.949   2.198   0.426  0.5349 -1.0700 -2.2440
  837SOL     OW 2509   1.726   1.838   0.428  0.2841  0.3379  0.1680
  837SOL    HW1 2510   1.727   1.832   0.328 -1.7895  0.5208  2.6059
  837SOL    HW2 2511   1.631   1.802   0.458  0.3155  0.8706 -0.4545
  838SOL     OW 2512   1.996   1.133   2.109 -0.3521  0.1621  0.0228
  838SOL    HW1 2513   2.097   1.132   2.102 -0.7289 -0.8772  1.7465
  838SOL    HW2 2514   1.952   1.110   2.021  1.1364 -1.3237  0.8185
  839SOL     OW 2515   1.196   1.311   2.697  0.4451 -0.2757  0.3268
  839SOL    HW1 2516   1.279   1.256   2.716  0.2487  0.8456 -0.7784
  839SOL    HW2 2517   1.220   1.407   2.676  0.9849  0.2300  0.1923
  840SOL     OW 2518   0.905   1.236   0.028 -0.1977 -0.3540 -0.2042
  840SOL    HW1 2519   0.888   1.169   0.106  1.2853 -0.1511  0.9715
  840SOL    HW2 2520   0.818   1.252   3.110 -0.6976  0.9654  1.2154
  841SOL     OW 2521   1.365   2.132   0.011 -0.0420 -0.0271  0.2309
  841SOL    HW1 2522   1.380   2.200   0.089  1.4865  0.1608  1.8732
  841SOL    HW2 2523   1.333   2.184   3.066 -0.9807 -1.4009 -0.5988
  842SOL     OW 2524   0.140   0.425   0.147 -0.4879 -0.6620  0.0858
  842SOL    HW1 2525   0.195   0.357   0.204 -1.8756  0.5236  0.2811
  842SOL    HW2 2526   0.193   0.511   0.136  0.3402 -2.2600  1.3047
  843SOL     OW 2527   0.492   0.566   0.804 -0.0000  0.4453  0.1366
  843SOL    HW1 2528   0.567   0.582   0.870 -0.6471  1.0760 -1.0686
  843SOL    HW2 2529   0.417   0.519   0.849  1.6898 -0.8956 -0.9506
  844SOL     OW 2530   2.289   2.533   2.535 -0.2607 -0.1350  0.0222
  844SOL    HW1 2531   2.242   2.541   2.445  0.6496 -2.3461 -0.9292
  844SOL    HW2 2532   2.268   2.614   2.598  1.6111 -0.7855  2.1153
  845SOL     OW 2533   0.014   2.512   1.859 -0.3862  0.1321 -0.3208
  845SOL    HW1 2534   0.027   2.599   1.912  0.7141  0.4029 -0.2547
  845SOL    HW2 2535   3.073   2.517   1.795  0.0670 -0.9926  1.3798
  846SOL     OW 2536   2.108   1.362   2.404  0.0751 -0.1515  0.0624
  846SOL    HW1 2537   2.075   1.453   2.440  0.3363  0.7546  0.5818
  846SOL    HW2 2538   2.051   1.281   2.433 -2.4460 -1.1699 -0.6373
  847SOL     OW 2539   2.752   0.401   2.110 -0.6665 -0.1539  0.4565
  847SOL    HW1 2540   2.772   0.477   2.046  0.2697 -0.4540  1.7271
  847SOL    HW2 2541   2.834   0.361   2.143 -1.4603 -1.2417 -0.4442
  848SOL     OW 2542   2.691   2.838   3.035  0.1359 -0.3210 -0.6623
  848SOL    HW1 2543   2.733   2.851   3.129 -0.6541  0.8726  0.9747
  848SOL    HW2 2544   2.621   2.761   3.037 -0.1340 -2.6841 -0.1626
  849SOL     OW 2545   0.324   2.782   0.792 -0.6995 -0.2202  0.0518
  849SOL    HW1 2546   0.368   2.852   0.848  0.1056 -1.8413  1.5635
  849SOL    HW2 2547   0.247   2.825   0.738  0.2096  0.2385  2.8218
  850SOL     OW 2548   0.881   2.441   0.118  0.0163 -0.1829 -0.2155
  850SOL    HW1 2549   0.928   2.499   0.053  0.1577  0.1348  1.4570
  850SOL    HW2 2550   0.929   2.359   0.151 -2.9321  0.0167 -0.7301
  851SOL     OW 2551   1.706   0.488   2.771 -0.2820 -0.0868 -0.0492
  851SOL    HW1 2552   1.704   0.587   2.753  1.6908 -0.1538 -1.2661
  851SOL    HW2 2553   1.791   0.447   2.726 -0.9709  1.4061 -0.2652
  852SOL     OW 2554   1.740   2.695   2.704 -0.0926  0.2761 -0.2889
  852SOL    HW1 2555   1.810   2.644   2.656 -0.9753  1.1347 -0.7598
  852SOL    HW2 2556   1.765   2.793   2.715  0.1686 -0.0779  0.7019
  853SOL     OW 2557   0.052   2.606   0.067 -0.2979  0.1156  0.0706
  853SOL    HW1 2558   0.136   2.592   0.008 -2.3022  0.1034 -1.1920
  853SOL    HW2 2559   3.106   2.616   0.012  3.1298 -0.3817  2.9957
  854SOL     OW 2560   1.454   0.692   2.417 -0.3571  0.7651 -0.2166
  854SOL    HW1 2561   1.386   0.724   2.347 -2.2389 -0.2770  0.3214
  854SOL    HW2 2562   1.544   0.731   2.389  1.2617 -1.2345  1.5432
  855SOL     OW 2563   0.380   2.762   0.319  0.1247  0.4982  0.1235
  855SOL    HW1 2564   0.421   2.667   0.319 -0.6568  0.4310  1.3206
  855SOL    HW2 2565   0.281   2.757   0.307  1.1522  2.2983 -0.4665
  856SOL     OW 2566   0.209   2.741   2.422  0.4154 -0.0462 -0.4459
  856SOL    HW1 2567   0.131   2.677   2.400 -2.5089 -0.8921  2.2682
  856SOL    HW2 2568   0.299   2.705   2.394 -1.5755  1.8891 -1.5154
  857SOL     OW 2569   1.413   0.088   1.712  0.0441  0.1084 -0.2753
  857SOL    HW1 2570   1.433   0.009   1.648 -1.3679 -4.0375 -1.4758
  857SOL    HW2 2571   1.496   0.144   1.735  1.7731  0.6658  0.8885
  858SOL     OW 2572   0.034   2.128   1.638  0.2993  0.1670 -0.0720
  858SOL    HW1 2573   0.051   2.221   1.600 -0.6978 -0.3186  1.4991
  858SOL    HW2 2574   0.097   2.061   1.595  0.0159  1.2880 -1.6285
  859SOL     OW 2575   2.188   2.292   2.064  0.0851 -0.5496  0.5038
  859SOL    HW1 2576   2.130   2.275   1.984  0.1651 -1.3476 -2.8486
  859SOL    HW2 2577   2.250   2.212   2.083 -0.7319  0.4758 -0.0704
  860SOL     OW 2578   1.419   0.278   0.635 -0.1873  0.6864  0.0854
  860SOL    HW1 2579   1.489   0.312   0.703  1.6834  0.9412  1.0027
  860SOL    HW2 2580   1.330   0.250   0.682 -2.8887  0.6383 -3.4500
  861SOL     OW 2581   2.745   0.662   0.883  0.3217  0.3498 -0.4135
  861SOL    HW1 2582   2.667   0.633   0.943 -1.7301 -0.6451 -1.3162
  861SOL    HW2 2583   2.807   0.728   0.926  0.9165 -4.0215 -1.3745
  862SOL     OW 2584   1.797   0.680   1.978  0.3134  0.1300 -0.0359
  862SOL    HW1 2585   1.830   0.645   2.067  0.1231  0.7971 -2.8307
  862SOL    HW2 2586   1.873   0.740   1.940  1.2354  4.6071  0.3260
  863SOL     OW 2587   0.756   0.529   0.911 -0.2783 -0.1348  0.3121
  863SOL    HW1 2588   0.823   0.607   0.905  2.7906  1.8943  0.6471
  863SOL    HW2 2589   0.774   0.459   0.989 -1.3012 -1.3250  0.9494
  864SOL     OW 2590   2.981   2.886   2.151  0.2385  0.0275  0.0285
  864SOL    HW1 2591   2.885   2.890   2.110  0.5369 -0.9003 -1.4238
  864SOL    HW2 2592   2.963   2.864   2.250  0.5673 -0.3437  2.2791
  865SOL     OW 2593   1.120   0.929   2.511 -0.1788 -0.5095 -0.0775
  865SOL    HW1 2594   1.081   0.868   2.444  0.6320  2.2493  0.1340
  865SOL    HW2 2595   1.098   0.891   2.604 -0.4038 -2.3776 -0.8453
  866SOL     OW 2596   2.997   2.967   0.355  0.6217  0.2819 -0.9063
  866SOL    HW1 2597   2.952   3.018   0.430 -1.5600  0.1200  0.4963
  866SOL    HW2 2598   3.098   2.954   0.372  1.8969 -3.4663 -0.7158
  867SOL     OW 2599   3.008   2.828   3.096 -0.3228  0.5074  0.2780
  867SOL    HW1 2600   2.928   2.845   0.016  0.9707 -2.1379 -2.3340
  867SOL    HW2 2601   3.029   2.907   3.037  1.8398  2.1229 -1.0584
  868SOL     OW 2602   1.622   1.176   0.066 -0.0886 -0.4905  0.1271
  868SOL    HW1 2603   1.657   1.267   0.035  2.2386  2.1753  1.4102
  868SOL    HW2 2604   1.528   1.177   0.031  2.4336  2.4668  0.2126
  869SOL     OW 2605   3.123   2.047   0.686  0.3089 -0.1608 -0.1246
  869SOL    HW1 2606   3.033   2.094   0.698 -1.0459  1.8270 -0.2078
  869SOL    HW2 2607   0.065   2.109   0.703 -2.1082 -0.5220 -0.3277
  870SOL     OW 2608   2.061   2.186   0.545  0.0514 -0.4607  0.1960
  870SOL    HW1 2609   2.110   2.099   0.532  1.4014 -1.5975  1.0160
  870SOL    HW2 2610   2.052   2.242   0.461 -1.6748  2.6276  0.8369
  871SOL     OW 2611   0.706   1.136   1.225  0.1946  0.0306  0.4769
  871SOL    HW1 2612   0.743   1.075   1.152 -1.6796 -0.7186 -1.4966
  871SOL    HW2 2613   0.774   1.165   1.293  0.8486  0.4933 -1.9867
  872SOL     OW 2614   1.271   1.922   1.917  0.3695  0.0781  0.0192
  872SOL    HW1 2615   1.182   1.965   1.894 -1.9440  1.5253 -0.0313
  872SOL    HW2 2616   1.345   1.988   1.905 -2.9504  1.3008  0.5282
  873SOL     OW 2617   0.650   2.264   2.080  0.1147  0.3244  0.2001
  873SOL    HW1 2618   0.669   2.242   2.179  2.3794  0.6140  1.8813
  873SOL    HW2 2619   0.577   2.334   2.069  0.2722 -1.8752  1.6537
  874SOL     OW 2620   0.779   3.083   1.139 -0.1703 -0.1560  0.0228
  874SOL    HW1 2621   0.767   3.051   1.235 -0.7265 -0.0407  0.7563
  874SOL    HW2 2622   0.713   0.018   1.110  0.3240  0.8449 -1.2952
  875SOL     OW 2623   2.837   0.342   1.335 -0.4599  0.1950 -0.2144
  875SOL    HW1 2624   2.873   0.432   1.297  2.4892 -0.2792 -0.4744
  875SOL    HW2 2625   2.913   0.283   1.371  0.5490 -1.6632 -0.7318
  876SOL     OW 2626   0.579   0.642   0.196 -0.6424 -0.6113 -0.0203
  876SOL    HW1 2627   0.616   0.709   0.260  1.6380  0.2641 -1.8088
  876SOL    HW2 2628   0.621   0.643   0.103 -0.2675  2.1852 -0.2674
  877SOL     OW 2629   0.490   0.387   1.427 -0.3256 -0.1300 -0.6465
  877SOL    HW1 2630   0.469   0.357   1.332  0.0394  0.1481  0.1560
  877SOL    HW2 2631   0.445   0.474   1.450 -0.3914 -1.8141 -0.7429
  878SOL     OW 2632   2.654   2.644   0.424  0.5552  0.5308 -0.1080
  878SOL    HW1 2633   2.598   2.704   0.480  1.3533  0.2404 -2.3840
  878SOL    HW2 2634   2.750   2.668   0.425 -4.0748 -1.2165 -3.2010
  879SOL     OW 2635   2.590   1.531   1.282  1.1307  0.1279  0.9095
  879SOL    HW1 2636   2.606   1.581   1.371  4.4351 -1.1604 -3.3143
  879SOL    HW2 2637   2.488   1.530   1.259 -3.5533 -1.0947 -0.9069
  880SOL     OW 2638   1.525   2.635   0.667 -0.3694  0.5791 -0.5369
  880SOL    HW1 2639   1.611   2.670   0.709  3.2417  1.9602  0.2498
  880SOL    HW2 2640   1.508   2.536   0.674 -2.8526  2.7689  0.5960
  881SOL     OW 2641   1.037   2.212   0.128 -0.0757  0.1273  0.5004
  881SOL    HW1 2642   1.106   2.273   0.080 -0.1358 -0.4795 -0.2194
  881SOL    HW2 2643   1.086   2.126   0.158  1.3869 -0.7321  0.4615
  882SOL     OW 2644   1.814   0.853   1.203  0.0242 -0.1450  0.1456
  882SOL    HW1 2645   1.861   0.765   1.208 -1.2680  1.1572  0.0239
  882SOL    HW2 2646   1.748   0.861   1.280  0.2361 -0.3164  0.2783
  883SOL     OW 2647   1.676   0.634   1.526 -0.3542  0.7592 -0.1351
  883SOL    HW1 2648   1.778   0.610   1.542  3.9869  2.0611  0.0775
  883SOL    HW2 2649   1.635   0.569   1.456 -0.4138 -2.7858 -1.5018
  884SOL     OW 2650   2.850   0.624   0.191  0.2805  0.6166 -0.2452
  884SOL    HW1 2651   2.748   0.638   0.199 -1.3234  0.0386 -3.2581
  884SOL    HW2 2652   2.904   0.704   0.225  1.0039  3.0116 -0.0413
  885SOL     OW 2653   1.318   1.667   2.991  0.3503 -0.0931  0.2614
  885SOL    HW1 2654   1.220   1.640   2.984 -0.1633  3.6316  1.8749
  885SOL    HW2 2655   1.338   1.734   2.919 -1.0109  0.1928 -4.2366
  886SOL     OW 2656   1.822   1.523   2.762  0.0356  0.1793 -0.2443
  886SOL    HW1 2657   1.852   1.576   2.841 -0.4455 -1.2901 -1.0064
  886SOL    HW2 2658   1.857   1.429   2.763 -2.6665  1.3260 -0.3671
  887SOL     OW 2659   1.703   0.179   1.397 -0.2750 -0.4577  0.4711
  887SOL    HW1 2660   1.614   0.178   1.346  1.6389  0.0901  1.1003
  887SOL    HW2 2661   1.694   0.210   1.493  1.6151 -1.2294  0.8589
  888SOL     OW 2662   2.505   0.586   1.981 -0.6313 -0.1126 -0.5168
  888SOL    HW1 2663   2.576   0.577   2.056  0.0806 -2.2284  0.7949
  888SOL    HW2 2664   2.536   0.641   1.902  0.9558  1.6752  2.1414
  889SOL     OW 2665   0.168   2.652   0.988  0.7201 -0.1975 -0.2026
  889SOL    HW1 2666   0.133   2.564   0.941 -1.5814  0.7624 -1.0990
  889SOL    HW2 2667   0.216   2.711   0.920  1.4360  0.1727 -0.3308
  890SOL     OW 2668   2.353   2.505   0.352  0.1541  0.4393 -0.8067
  890SOL    HW1 2669   2.389   2.538   0.265 -0.3354  2.0692  2.2548
  890SOL    HW2 2670   2.428   2.462   0.409  0.4034 -0.0208  0.9233
  891SOL     OW 2671   0.721   1.216   2.866  0.1555 -0.0221  0.0237
  891SOL    HW1 2672   0.814   1.252   2.844 -0.6657 -1.0936  0.8938
  891SOL    HW2 2673   0.699   1.150   2.796  0.4595  1.5272  0.8500
  892SOL     OW 2674   3.098   3.064   1.143 -0.0335  0.6558 -0.1104
  892SOL    HW1 2675   3.133   3.075   1.240 -0.5159  0.7370  3.9701
  892SOL    HW2 2676   3.000   3.096   1.136  1.8910  0.5142 -0.1550
  893SOL     OW 2677   1.291   0.312   1.322 -0.1266 -0.5149 -0.0225
  893SOL    HW1 2678   1.272   0.401   1.372  1.8344 -0.4276 -0.2813
  893SOL    HW2 2679   1.220   0.240   1.352 -0.9767 -2.2283  0.7447
  894SOL     OW 2680   2.332   0.612   0.851  0.0013 -0.0584 -0.6713
  894SOL    HW1 2681   2.286   0.652   0.933 -0.3368  4.2346  3.1068
  894SOL    HW2 2682   2.397   0.681   0.818 -2.9601 -1.7742 -2.0580
  895SOL     OW 2683   2.018   2.026   2.201  0.1727 -0.3415  0.2327
  895SOL    HW1 2684   2.042   2.103   2.260  1.1300 -0.1077 -1.1808
  895SOL    HW2 2685   2.088   1.953   2.214 -4.5139  4.3413  1.0352
  896SOL     OW 2686   1.541   0.253   1.985 -0.3612  0.0011 -0.6468
  896SOL    HW1 2687   1.500   0.346   1.965 -0.9648  0.3753  2.3922
  896SOL    HW2 2688   1.587   0.212   1.904 -0.4267 -1.5653  0.1155
  897SOL     OW 2689   0.638   1.693   1.989 -0.7607  0.2632 -0.3983
  897SOL    HW1 2690   0.680   1.639   2.067  0.7797 -0.9013  3.8000
  897SOL    HW2 2691   0.697   1.707   1.910 -1.3600  0.7218  2.0227
  898SOL     OW 2692   2.376   2.779   2.154  0.6553 -0.1942  0.3420
  898SOL    HW1 2693   2.319   2.861   2.145 -0.1434  0.8632  0.5014
  898SOL    HW2 2694   2.357   2.699   2.092 -1.7208 -0.7466  0.9441
  899SOL     OW 2695   1.094   0.981   1.207  0.0599  0.4248  0.2131
  899SOL    HW1 2696   1.095   1.078   1.191  1.0570 -2.3138  0.3648
  899SOL    HW2 2697   1.160   0.922   1.149  1.3586 -1.6707 -0.3531
  900SOL     OW 2698   1.732   2.322   2.908  0.0169  0.0794  0.2248
  900SOL    HW1 2699   1.685   2.241   2.949 -1.6312  0.1879  1.2386
  900SOL    HW2 2700   1.765   2.288   2.812  3.8866 -0.1763 -2.3247
  901SOL     OW 2701   0.684   2.164   2.649  0.3138 -0.0112 -0.0150
  901SOL    HW1 2702   0.609   2.169   2.715  0.4241  0.7469 -0.3610
  901SOL    HW2 2703   0.707   2.066   2.624 -2.5793  0.3847 -0.5886
  902SOL     OW 2704   2.386   1.672   0.221  0.2348  0.0317 -0.5860
  902SOL    HW1 2705   2.424   1.731   0.151  2.0870 -0.1566  0.5426
  902SOL    HW2 2706   2.456   1.630   0.278 -1.6913  0.7517 -0.7726
  903SOL     OW 2707   2.070   0.874   0.302 -0.3284  0.9079 -0.0970
  903SOL    HW1 2708   2.139   0.947   0.294 -0.9847 -0.6415 -2.4674
  903SOL    HW2 2709   2.010   0.861   0.215 -0.7518  0.0730 -0.0072
  904SOL     OW 2710   0.742   0.865   2.904 -0.3369 -0.1288 -0.1312
  904SOL    HW1 2711   0.833   0.824   2.926  0.9611  3.6061  1.3993
  904SOL    HW2 2712   0.698   0.903   2.989 -2.1573  2.7468  1.6057
  905SOL     OW 2713   2.438   0.415   1.144  0.6698  0.3248 -0.3783
  905SOL    HW1 2714   2.391   0.338   1.189  2.2886 -0.6557  2.0133
  905SOL    HW2 2715   2.407   0.505   1.183 -0.1718 -0.9456 -0.4465
  906SOL     OW 2716   2.843   2.190   1.111 -0.2293 -0.3573  0.0981
  906SOL    HW1 2717   2.763   2.149   1.064 -1.5783  1.5823 -2.5115
  906SOL    HW2 2718   2.876   2.277   1.064  0.1515  1.8368 -0.0713
  907SOL     OW 2719   1.310   0.662   0.646 -0.1188  0.2679  0.1375
  907SOL    HW1 2720   1.276   0.607   0.565 -0.7462 -0.5486  1.0814
  907SOL    HW2 2721   1.259   0.747   0.653  3.4962 -1.1656  0.0591
  908SOL     OW 2722   2.193   3.051   1.386  0.1839 -0.0353  0.2423
  908SOL    HW1 2723   2.161   3.117   1.316 -2.0953  1.1192  1.3492
  908SOL    HW2 2724   2.144   3.072   1.471 -0.0873  0.3314 -1.4482
  909SOL     OW 2725   2.547   0.901   1.533  0.2279 -0.4645  0.0473
  909SOL    HW1 2726   2.642   0.873   1.517 -0.9496  1.1110  0.8203
  909SOL    HW2 2727   2.537   1.000   1.524 -0.2340 -2.4174 -1.8385
  910SOL     OW 2728   1.554   2.732   2.349  0.2309 -0.2283 -0.8768
  910SOL    HW1 2729   1.479   2.673   2.317  1.7996 -2.3887  0.1650
  910SOL    HW2 2730   1.570   2.806   2.283 -0.4316 -2.4995  1.9818
  911SOL     OW 2731   2.085   0.384   2.067 -0.4255  0.0820 -0.7037
  911SOL    HW1 2732   2.004   0.368   2.003  0.2654 -3.2170  1.9463
  911SOL    HW2 2733   2.119   0.482   2.066  0.1887  1.0335  1.3302
  912SOL     OW 2734   2.483   1.672   1.533 -0.2965 -0.2315 -0.4956
  912SOL    HW1 2735   2.547   1.748   1.557  2.0375  1.1229  0.6891
  912SOL    HW2 2736   2.413   1.663   1.602  1.5829  0.0805 -1.3482
  913SOL     OW 2737   2.706   1.892   1.365 -0.0306 -0.6126  0.6316
  913SOL    HW1 2738   2.667   1.981   1.376  0.0905 -1.3335 -0.6009
  913SOL    HW2 2739   2.732   1.856   1.458  1.3888 -0.0454  1.3535
  914SOL     OW 2740   2.123   1.434   1.333 -0.0237  0.1610 -0.2967
  914SOL    HW1 2741   2.222   1.460   1.329 -1.0623  0.9646  0.9615
  914SOL    HW2 2742   2.081   1.485   1.412  0.9607 -0.1587 -0.7109
  915SOL     OW 2743   0.877   1.250   1.399 -0.4003 -0.1798 -0.0586
  915SOL    HW1 2744   0.846   1.238   1.496  0.4444  1.7831 -0.4871
  915SOL    HW2 2745   0.978   1.261   1.402  0.5304  1.9387 -1.2033
  916SOL     OW 2746   2.123   2.588   1.282  0.1601  0.1183 -0.4457
  916SOL    HW1 2747   2.200   2.531   1.321  1.5336 -0.0750 -0.2992
  916SOL    HW2 2748   2.142   2.690   1.282  1.5371  0.5057 -0.0853
  917SOL     OW 2749   2.502   2.121   0.160  0.0864 -0.1389 -0.2867
  917SOL    HW1 2750   2.489   2.039   0.098 -0.3077 -0.5716 -1.0779
  917SOL    HW2 2751   2.508   2.210   0.115 -1.0366  2.6610 -0.7769
  918SOL     OW 2752   1.982   2.582   2.614  0.6657 -0.4942  0.0857
  918SOL    HW1 2753   1.998   2.486   2.587  1.1369 -0.7895  1.2489
  918SOL    HW2 2754   2.056   2.609   2.675 -0.8313  0.0588 -1.2387
  919SOL     OW 2755   1.503   2.071   1.798  0.0202  0.6076  0.6991
  919SOL    HW1 2756   1.574   2.016   1.847 -0.1498  0.3937  0.3999
  919SOL    HW2 2757   1.534   2.101   1.707  0.3758  0.9731 -0.5824
  920SOL     OW 2758   2.883   0.190   2.716  0.1004  0.6055  0.3471
  920SOL    HW1 2759   2.981   0.209   2.703 -0.9564 -1.1569  1.4024
  920SOL    HW2 2760   2.829   0.275   2.691  2.4132 -4.1749  0.2696
  921SOL     OW 2761   2.647   0.242   2.314  0.0135  0.1649  0.7156
  921SOL    HW1 2762   2.710   0.163   2.330 -1.6419  3.3558  2.5098
  921SOL    HW2 2763   2.671   0.278   2.219  3.0434  1.2955 -1.2603
  922SOL     OW 2764   2.118   2.334   0.311  0.4609 -0.0981  0.0753
  922SOL    HW1 2765   2.190   2.401   0.324 -2.4897 -2.9938  0.2898
  922SOL    HW2 2766   2.149   2.243   0.270  1.4960 -0.5205  0.3943
  923SOL     OW 2767   0.442   2.101   0.381 -0.2457  0.1144 -0.5844
  923SOL    HW1 2768   0.520   2.104   0.315 -0.9504 -5.1287 -0.0910
  923SOL    HW2 2769   0.423   2.191   0.421  1.3474 -1.1331 -3.7723
  924SOL     OW 2770   0.803   0.279   0.103  0.2992  0.0403  0.1332
  924SOL    HW1 2771   0.777   0.201   0.166  0.6704 -1.5444  3.8495
  924SOL    HW2 2772   0.826   0.365   0.155 -1.2703  3.0259 -2.1660
  925SOL     OW 2773   2.230   0.958   0.803  0.2046 -0.2737  0.0441
  925SOL    HW1 2774   2.254   0.925   0.705  1.6982 -0.0855 -2.7389
  925SOL    HW2 2775   2.226   1.057   0.804 -0.7701 -1.6073  0.3857
  926SOL     OW 2776   2.926   0.837   1.004  0.7213  0.4471 -0.2853
  926SOL    HW1 2777   2.921   0.842   1.108 -2.4207 -2.7134 -0.9166
  926SOL    HW2 2778   2.997   0.770   0.976 -3.5950  3.2934  1.4199
  927SOL     OW 2779   3.088   1.173   3.003 -0.5584 -1.0252  0.4330
  927SOL    HW1 2780   0.007   1.091   2.972 -0.0477  1.3210 -0.6773
  927SOL    HW2 2781   3.128   1.262   2.966  0.7330  1.1027 -1.7442
  928SOL     OW 2782   3.097   0.407   2.401 -0.2175 -0.5458  0.5315
  928SOL    HW1 2783   0.057   0.430   2.372  0.2884 -1.1219 -1.2466
  928SOL    HW2 2784   3.090   0.364   2.495 -2.7571 -2.8171  0.1969
  929SOL     OW 2785   3.047   2.792   1.073  0.1157  0.5305 -0.5248
  929SOL    HW1 2786   3.057   2.891   1.089  0.4664 -3.4289  0.5619
  929SOL    HW2 2787   3.111   2.763   0.999 -1.9580  1.2458 -1.7118
  930SOL     OW 2788   2.031   1.599   1.526 -0.3706  0.0407 -0.2114
  930SOL    HW1 2789   2.022   1.647   1.616  2.4130 -1.0107  2.8549
  930SOL    HW2 2790   1.937   1.571   1.487 -2.0763 -1.3929 -0.1565
  931SOL     OW 2791   1.367   1.717   0.685 -0.3708  0.1662  0.2753
  931SOL    HW1 2792   1.438   1.707   0.756 -1.0369 -2.3817 -3.7394
  931SOL    HW2 2793   1.333   1.810   0.685  1.3126 -1.2011  0.4094
  932SOL     OW 2794   2.743   1.340   1.158  0.6490  0.1453  0.0303
  932SOL    HW1 2795   2.693   1.262   1.131  1.4042  2.1025  0.3924
  932SOL    HW2 2796   2.687   1.401   1.207  2.4703 -1.3652 -3.1594
  933SOL     OW 2797   2.329   1.602   1.287 -0.4014  0.3368 -0.1326
  933SOL    HW1 2798   2.289   1.684   1.243  0.6295 -0.8190  0.3789
  933SOL    HW2 2799   2.366   1.628   1.379  2.2022  0.7898  0.4922
  934SOL     OW 2800   1.718   2.742   1.498 -0.1029  0.0765 -0.2402
  934SOL    HW1 2801   1.783   2.758   1.576 -0.2485  1.2489  1.8883
  934SOL    HW2 2802   1.750   2.668   1.438  0.2927 -0.3468 -0.8886
  935SOL     OW 2803   0.315   1.593   0.730 -0.0740 -0.7096 -0.1029
  935SOL    HW1 2804   0.328   1.691   0.756  0.3830 -0.7822  2.2436
  935SOL    HW2 2805   0.401   1.544   0.756  2.1711  0.8216  0.6321
  936SOL     OW 2806   0.061   1.256   0.524  0.1453 -0.2611  0.2760
  936SOL    HW1 2807   3.136   1.178   0.538  1.6610 -0.0688 -0.5252
  936SOL    HW2 2808   0.052   1.321   0.602  0.1357 -0.7175  1.4295
  937SOL     OW 2809   1.708   2.586   0.949  0.2897 -0.2031  0.0965
  937SOL    HW1 2810   1.645   2.636   1.012 -0.8871 -0.9547  3.1469
  937SOL    HW2 2811   1.794   2.555   0.994  1.5984  0.8489 -1.0933
  938SOL     OW 2812   2.634   2.143   0.948 -0.0684  0.3147 -0.0531
  938SOL    HW1 2813   2.546   2.093   0.928  0.0766 -2.1855  1.6144
  938SOL    HW2 2814   2.624   2.240   0.975  1.7515 -2.3392  0.0069
  939SOL     OW 2815   0.677   2.082   0.176 -0.3970 -0.2951  0.2273
  939SOL    HW1 2816   0.758   2.116   0.231  2.4930  2.6480  0.0256
  939SOL    HW2 2817   0.688   1.986   0.157  0.7714 -0.3624 -0.0026
  940SOL     OW 2818   2.843   0.110   2.959  0.3722 -0.0490 -0.0869
  940SOL    HW1 2819   2.929   0.150   3.008  0.2906  1.2316  0.9389
  940SOL    HW2 2820   2.836   0.140   2.862 -0.3721  1.0743  0.7733
  941SOL     OW 2821   1.223   0.295   3.116  0.1500  0.0391  0.1657
  941SOL    HW1 2822   1.274   0.205   3.116  0.1049 -0.7192 -1.4085
  941SOL    HW2 2823   1.282   0.382   3.123  1.6345  3.2327 -1.1896
  942SOL     OW 2824   1.044   1.463   1.658  0.0033  0.0817 -0.0986
  942SOL    HW1 2825   0.953   1.415   1.664 -1.0495 -1.5006  0.8545
  942SOL    HW2 2826   1.033   1.558   1.619 -0.2164  2.3242  1.5312
  943SOL     OW 2827   1.836   1.215   1.362  0.2871  0.7459 -0.2146
  943SOL    HW1 2828   1.795   1.166   1.443  0.5330 -1.3579  0.2930
  943SOL    HW2 2829   1.933   1.187   1.342  3.6445  0.0438  0.2177
  944SOL     OW 2830   1.945   0.627   1.486 -0.3339  0.3698 -0.0969
  944SOL    HW1 2831   1.932   0.583   1.393 -2.9899 -2.0572  0.6476
  944SOL    HW2 2832   2.039   0.616   1.523 -1.7615 -0.2958  1.8721
  945SOL     OW 2833   3.061   0.103   0.739 -0.0890 -0.7680  0.5073
  945SOL    HW1 2834   3.008   0.172   0.795 -0.2258  3.6157  1.4817
  945SOL    HW2 2835   0.017   0.094   0.783  0.6262 -1.2485  1.2968
  946SOL     OW 2836   0.619   0.645   1.636  0.0282  0.4798 -0.1564
  946SOL    HW1 2837   0.620   0.628   1.737  1.0677  0.4094  1.3301
  946SOL    HW2 2838   0.523   0.646   1.600  0.5597 -0.4005  0.7102
  947SOL     OW 2839   0.510   2.883   0.575  0.4054  0.0950 -0.1476
  947SOL    HW1 2840   0.451   2.850   0.502 -2.0897 -1.0090  1.8008
  947SOL    HW2 2841   0.481   2.841   0.661  0.9513 -3.4678  0.4242
  948SOL     OW 2842   2.705   1.258   1.733 -0.2718  0.1255  0.1189
  948SOL    HW1 2843   2.678   1.355   1.740  0.5179 -1.3391  0.7039
  948SOL    HW2 2844   2.809   1.246   1.750  1.2174  3.1518  1.7758
  949SOL     OW 2845   0.650   1.020   2.691  1.1247  0.0040 -0.2976
  949SOL    HW1 2846   0.694   0.957   2.759  2.3015 -0.5469  0.0393
  949SOL    HW2 2847   0.697   0.995   2.600  1.7521 -0.5113 -3.0627
  950SOL     OW 2848   0.940   0.728   0.897  0.0234 -0.1823 -0.1128
  950SOL    HW1 2849   0.984   0.694   0.980  0.1962  0.4644  0.2489
  950SOL    HW2 2850   1.011   0.770   0.832  0.0715  2.7944 -1.2653
  951SOL     OW 2851   0.952   2.131   2.246  0.4120 -0.1664 -0.6700
  951SOL    HW1 2852   1.034   2.140   2.186 -1.2605  0.4696  1.3402
  951SOL    HW2 2853   0.948   2.196   2.325  0.5723 -1.3676 -2.7840
  952SOL     OW 2854   0.680   1.796   0.126 -0.4901 -0.2188 -0.2722
  952SOL    HW1 2855   0.693   1.705   0.168  0.7909  1.6543 -3.1678
  952SOL    HW2 2856   0.591   1.811   0.089  4.7263  0.4242  0.5166
  953SOL     OW 2857   2.053   2.893   2.270 -0.0824 -0.3261 -0.1549
  953SOL    HW1 2858   2.111   2.964   2.230 -2.1057 -1.9448 -1.0476
  953SOL    HW2 2859   2.000   2.840   2.196 -1.9750 -2.1922 -1.1956
  954SOL     OW 2860   1.603   1.291   0.720 -0.7302 -0.1633 -0.2972
  954SOL    HW1 2861   1.665   1.331   0.648  0.7812  0.4252  0.3334
  954SOL    HW2 2862   1.508   1.298   0.697  3.1766  0.9929 -1.7423
  955SOL     OW 2863   0.450   2.343   2.501  0.1409 -0.1578 -0.1144
  955SOL    HW1 2864   0.369   2.397   2.472 -2.3361 -1.5282  1.6162
  955SOL    HW2 2865   0.502   2.393   2.575 -1.6635 -0.7858  0.1569
  956SOL     OW 2866   1.970   0.302   1.384  0.3370  0.1610 -0.5569
  956SOL    HW1 2867   1.982   0.378   1.453  2.0392  2.8166  1.3069
  956SOL    HW2 2868   1.892   0.244   1.412 -3.4375 -3.3625  1.6031
  957SOL     OW 2869   1.865   1.944   2.742  0.8226  0.1621 -0.5458
  957SOL    HW1 2870   1.881   1.882   2.662  1.6312  2.2150  1.4743
  957SOL    HW2 2871   1.793   1.907   2.808 -2.4560 -0.7407 -0.2778
  958SOL     OW 2872   1.155   2.469   1.239 -0.5151  0.2532  0.7818
  958SOL    HW1 2873   1.110   2.388   1.190  1.3801 -0.9656 -0.5155
  958SOL    HW2 2874   1.164   2.550   1.176 -1.6502 -0.9461  2.2393
  959SOL     OW 2875   1.951   2.421   3.116 -0.2223 -0.1968  0.2947
  959SOL    HW1 2876   1.909   2.378   0.063  0.4404  1.2931 -0.1540
  959SOL    HW2 2877   1.899   2.389   3.035  2.7040 -0.3390  0.8035
  960SOL     OW 2878   0.037   0.279   2.694  0.3455 -0.0725  0.0822
  960SOL    HW1 2879   0.092   0.198   2.684 -0.1012  0.5869  1.0888
  960SOL    HW2 2880   0.091   0.348   2.747 -0.2095 -1.9665  0.8452
  961SOL     OW 2881   0.827   0.953   2.512  0.1527  0.4131  0.3213
  961SOL    HW1 2882   0.920   0.984   2.516 -3.6893 -0.9688  1.4446
  961SOL    HW2 2883   0.821   0.852   2.534  0.8850 -0.5196 -1.1315
  962SOL     OW 2884   1.132   1.132   3.040 -0.0734  0.0508 -0.0456
  962SOL    HW1 2885   1.227   1.172   3.041  0.9536 -0.1175  0.4914
  962SOL    HW2 2886   1.067   1.182   3.109 -2.8250  1.8480  1.9610
  963SOL     OW 2887   2.622   2.144   2.972  0.2551 -0.2164  0.9664
  963SOL    HW1 2888   2.687   2.066   2.973 -0.1922  0.7261 -1.0121
  963SOL    HW2 2889   2.556   2.133   2.893 -0.2997 -2.0016  2.2477
  964SOL     OW 2890   1.218   2.679   1.072  0.0268 -0.4964  0.2795
  964SOL    HW1 2891   1.245   2.636   0.982 -1.7200 -0.8107  1.1315
  964SOL    HW2 2892   1.122   2.719   1.047 -1.0941  2.9398 -2.5061
  965SOL     OW 2893   0.953   1.651   1.011  0.2421  0.0252  0.3496
  965SOL    HW1 2894   0.935   1.633   1.109  1.6458  0.1687  0.9640
  965SOL    HW2 2895   1.055   1.668   0.988  0.2654 -0.2358 -1.1159
  966SOL     OW 2896   3.107   1.643   3.004 -0.1075  0.4386  0.3091
  966SOL    HW1 2897   0.021   1.725   2.964  2.3390 -0.3643 -0.3246
  966SOL    HW2 2898   3.116   1.639   3.107  0.6922  3.0743  2.6007
  967SOL     OW 2899   1.895   0.247   1.884 -0.1459 -0.0959 -0.3149
  967SOL    HW1 2900   1.869   0.188   1.966  0.4784  1.0085  1.2637
  967SOL    HW2 2901   1.994   0.243   1.862  2.1121  3.6510  1.2787
  968SOL     OW 2902   1.639   0.848   0.742 -0.5118  0.3672  0.7434
  968SOL    HW1 2903   1.637   0.745   0.744  1.6675  0.7586 -0.1578
  968SOL    HW2 2904   1.657   0.885   0.835 -0.1949  0.5545 -0.9573
  969SOL     OW 2905   0.278   1.302   2.191  0.0465  0.3140  0.4860
  969SOL    HW1 2906   0.375   1.278   2.170  1.1173 -0.0551  0.9309
  969SOL    HW2 2907   0.222   1.332   2.110 -0.2015  1.3191  0.8822
  970SOL     OW 2908   2.360   1.619   0.936  0.3628 -0.1758 -0.2406
  970SOL    HW1 2909   2.352   1.561   1.018  0.9367 -0.5796 -0.9415
  970SOL    HW2 2910   2.337   1.570   0.851 -0.0481  0.4200  0.0267
  971SOL     OW 2911   0.548   0.053   1.311 -0.2312 -0.3789 -0.5996
  971SOL    HW1 2912   0.638   0.026   1.344 -1.2363 -1.1710  0.8805
  971SOL    HW2 2913   0.479   3.122   1.338  0.2132  1.1035  1.6196
  972SOL     OW 2914   0.567   0.668   2.729  0.2065  0.2626  0.1450
  972SOL    HW1 2915   0.565   0.749   2.794  0.5492  2.3087  2.9744
  972SOL    HW2 2916   0.652   0.671   2.676  0.6889 -0.8580  0.5971
  973SOL     OW 2917   0.119   0.991   1.058 -0.0481 -0.3048  0.1862
  973SOL    HW1 2918   0.067   1.049   1.121  1.7956 -2.7716 -1.6079
  973SOL    HW2 2919   0.151   1.045   0.976 -0.2702  1.1815 -1.8367
  974SOL     OW 2920   2.324   0.958   1.846 -0.5557  0.1275  0.3159
  974SOL    HW1 2921   2.280   0.984   1.762 -0.1723  0.3889  0.4232
  974SOL    HW2 2922   2.385   0.881   1.830  1.5017  2.9479  0.1242
  975SOL     OW 2923   2.332   3.055   0.201 -0.1326  0.1014  0.4949
  975SOL    HW1 2924   2.410   3.068   0.133  0.4722  0.8048  0.0671
  975SOL    HW2 2925   2.289   2.964   0.191 -1.5868  0.7550  1.5172
  976SOL     OW 2926   2.982   1.283   1.744  0.1176  0.3448 -0.0359
  976SOL    HW1 2927   2.999   1.350   1.671  0.2858 -0.2193  0.3425
  976SOL    HW2 2928   3.068   1.247   1.781 -1.8175 -0.0792 -1.8140
  977SOL     OW 2929   1.046   2.842   3.091 -0.4717 -0.0320  0.1383
  977SOL    HW1 2930   1.003   2.932   3.068 -1.7842  3.1189  0.8404
  977SOL    HW2 2931   0.988   2.799   0.022  2.1299  1.3653 -1.4006
  978SOL     OW 2932   0.348   1.664   0.253 -0.5025  0.5168 -0.9008
  978SOL    HW1 2933   0.335   1.574   0.206  0.6616  2.1237  0.3799
  978SOL    HW2 2934   0.415   1.648   0.326 -0.5692 -0.5563 -2.2427
  979SOL     OW 2935   1.441   1.798   1.364  0.3576  0.1660 -0.0709
  979SOL    HW1 2936   1.496   1.861   1.425  2.4816  0.6032  0.1196
  979SOL    HW2 2937   1.484   1.709   1.362 -0.7769  2.2043  0.9191
  980SOL     OW 2938   0.426   1.506   1.945 -0.1863 -0.2751 -0.2437
  980SOL    HW1 2939   0.509   1.559   1.975 -0.1999  2.3852  0.8486
  980SOL    HW2 2940   0.439   1.473   1.854  0.5038  0.8909  2.2550
  981SOL     OW 2941   3.124   1.658   0.146 -0.7097  0.0601  0.3950
  981SOL    HW1 2942   3.108   1.758   0.161 -1.5120  0.8983 -1.8568
  981SOL    HW2 2943   0.060   1.615   0.202 -0.1057 -1.3190  0.4538
  982SOL     OW 2944   2.560   2.504   2.596 -0.1397 -0.8359 -0.3816
  982SOL    HW1 2945   2.469   2.482   2.567  0.8229  1.0599  0.1257
  982SOL    HW2 2946   2.575   2.606   2.595  1.5951 -0.7819  2.5864
  983SOL     OW 2947   1.294   0.572   1.441 -0.0575 -0.5211 -0.0968
  983SOL    HW1 2948   1.373   0.620   1.409  1.4364 -1.4574  2.4347
  983SOL    HW2 2949   1.208   0.626   1.422  1.4358 -0.1677 -1.1013
  984SOL     OW 2950   1.159   0.101   2.552 -0.0064  0.2506 -0.2076
  984SOL    HW1 2951   1.251   0.136   2.578 -3.0630  0.8816  0.7580
  984SOL    HW2 2952   1.088   0.132   2.624 -0.1930 -2.5257  3.3137
  985SOL     OW 2953   1.627   2.480   1.614  0.7823 -0.5574  0.1647
  985SOL    HW1 2954   1.651   2.552   1.685  1.3030  3.1319  2.2941
  985SOL    HW2 2955   1.665   2.504   1.521  2.4090 -1.4931  0.9476
  986SOL     OW 2956   2.415   0.028   2.393  0.1240  0.4305 -0.1440
  986SOL    HW1 2957   2.431   0.126   2.420 -1.9783  0.1355  1.4795
  986SOL    HW2 2958   2.429   0.025   2.294 -1.7148  1.3336  0.1206
  987SOL     OW 2959   2.406   0.334   2.382 -0.0758  0.1237 -0.4778
  987SOL    HW1 2960   2.501   0.307   2.349  3.6882  0.5004  0.3267
  987SOL    HW2 2961   2.390   0.427   2.346  1.5904  1.5491 -1.8025
  988SOL     OW 2962   2.601   0.810   2.747 -0.2468  0.7359 -0.3145
  988SOL    HW1 2963   2.513   0.781   2.792 -1.2801 -0.3746 -1.6175
  988SOL    HW2 2964   2.582   0.856   2.659 -0.8137 -2.7996 -1.0957
  989SOL     OW 2965   2.365   2.100   2.093 -0.2409  0.7247  0.1551
  989SOL    HW1 2966   2.310   2.014   2.105 -0.6264 -2.4325  1.3174
  989SOL    HW2 2967   2.452   2.086   2.140 -1.4685  0.1298  0.1511
  990SOL     OW 2968   0.389   1.059   2.661 -0.0251 -0.4243 -0.2372
  990SOL    HW1 2969   0.368   1.160   2.652  0.3925  1.9774 -0.6115
  990SOL    HW2 2970   0.482   1.049   2.703 -0.6730 -0.0143 -0.4301
  991SOL     OW 2971   0.782   1.826   2.846 -0.0363 -0.4499  0.1363
  991SOL    HW1 2972   0.688   1.850   2.874  1.6576 -0.2511 -0.5991
  991SOL    HW2 2973   0.848   1.878   2.909 -0.4692  2.8302  0.7134
  992SOL     OW 2974   3.111   2.065   1.914 -0.5020  0.0482 -0.5949
  992SOL    HW1 2975   3.118   2.148   1.970  0.6273  2.0985  1.3592
  992SOL    HW2 2976   0.019   2.085   1.826 -0.8853  0.7447  1.9535
  993SOL     OW 2977   0.369   0.084   0.960  0.2398 -0.6520  0.1822
  993SOL    HW1 2978   0.409   3.129   0.969 -0.5934 -0.8184  2.5410
  993SOL    HW2 2979   0.379   0.122   0.866 -2.8333  0.3427 -0.0325
  994SOL     OW 2980   0.323   1.668   1.401 -0.0616 -0.3539 -0.3152
  994SOL    HW1 2981   0.404   1.686   1.460  0.1248 -0.1581  2.2047
  994SOL    HW2 2982   0.259   1.746   1.417  0.4696  0.8375  0.9272
  995SOL     OW 2983   2.211   1.611   2.689 -0.3356  0.0916  0.3394
  995SOL    HW1 2984   2.237   1.650   2.778  1.6988 -0.4158 -0.7364
  995SOL    HW2 2985   2.172   1.687   2.632 -1.5635  1.0843 -3.4130
  996SOL     OW 2986   2.165   1.346   2.753  0.2808 -1.0585  0.2991
  996SOL    HW1 2987   2.174   1.443   2.710  1.4485 -0.3441 -2.2528
  996SOL    HW2 2988   2.071   1.333   2.788  1.2148  1.8834  2.0134
  997SOL     OW 2989   1.884   0.878   1.658 -0.1371  0.6065  0.1755
  997SOL    HW1 2990   1.890   0.788   1.614 -0.1438 -2.2556  3.3736
  997SOL    HW2 2991   1.823   0.947   1.614 -1.2811 -1.2996  0.9240
  998SOL     OW 2992   2.280   2.120   1.198  0.3593 -0.1699 -0.6597
  998SOL    HW1 2993   2.341   2.087   1.124 -0.7782 -1.3153  0.2922
  998SOL    HW2 2994   2.333   2.147   1.286  1.6726 -0.8874  2.1918
  999SOL     OW 2995   2.331   2.271   0.629  0.0919 -0.1934 -0.4125
  999SOL    HW1 2996   2.239   2.281   0.582 -1.2051  0.5930 -0.3270
  999SOL    HW2 2997   2.327   2.238   0.728 -0.1888 -3.0157  2.3391
 1000SOL     OW 2998   1.050   2.938   2.530  0.2658  0.4526  0.4298
 1000SOL    HW1 2999   1.049   3.034   2.554 -0.3949  0.0691  0.8323
 1000SOL    HW2 3000   1.132   2.896   2.581  1.6543 -0.5144  0.3700
   3.13680   3.13680   3.13680
