1000 SPC/Fw water molecules t= 154.00000 step= 154000
 3000
    1SOL     OW    1   2.472   2.700   0.495  0.0499 -0.3281  0.1193
    1SOL    HW1    2   2.527   2.787   0.505 -0.0360  1.0629  0.4936
    1SOL    HW2    3   2.378   2.723   0.527 -1.3950 -2.3541  0.5719
    2SOL     OW    4   1.347   2.063   2.416  0.0784  0.1021 -0.1556
    2SOL    HW1    5   1.446   2.066   2.387  1.8492 -3.7089 -4.2697
    2SOL    HW2    6   1.333   1.985   2.479 -2.4779  0.2775 -2.8070
    3SOL     OW    7   1.778   2.521   2.057 -0.1850 -0.1201  0.1706
    3SOL    HW1    8   1.799   2.447   2.126  1.0253 -1.8400 -2.4248
    3SOL    HW2    9   1.837   2.508   1.975 -2.3180  1.3061  2.1935
    4SOL     OW   10   1.982   2.458   1.877  0.6332  0.1608  0.5648
    4SOL    HW1   11   2.024   2.364   1.895 -1.3130  0.8778 -2.1330
    4SOL    HW2   12   2.059   2.523   1.867  2.1512  0.3532  2.4518
    5SOL     OW   13   0.644   0.481   1.584  0.4567 -0.0832 -0.2130
    5SOL    HW1   14   0.603   0.458   1.492  0.3221  0.4069  0.4609
    5SOL    HW2   15   0.587   0.451   1.667 -0.5141 -0.4544  2.5259
    6SOL     OW   16   2.372   0.929   2.930  0.1891  0.3044 -0.5218
    6SOL    HW1   17   2.337   0.875   3.010  2.2535 -1.0159  0.9091
    6SOL    HW2   18   2.337   0.894   2.840 -0.6670 -1.9553 -0.2699
    7SOL     OW   19   0.648   0.566   1.133  0.0172  0.0628  0.2824
    7SOL    HW1   20   0.685   0.540   1.041 -1.3181  0.1582 -1.9115
    7SOL    HW2   21   0.560   0.613   1.125 -2.8902  1.1120 -0.1262
    8SOL     OW   22   1.280   2.456   1.397  0.7285 -0.1402 -0.3098
    8SOL    HW1   23   1.186   2.434   1.435 -1.4257 -1.0646  0.1464
    8SOL    HW2   24   1.344   2.382   1.428 -0.4776  1.6133 -0.7533
    9SOL     OW   25   0.710   0.912   0.093 -0.4879  1.3014  0.0946
    9SOL    HW1   26   0.636   0.859   0.045  0.3139 -1.0878 -1.1337
    9SOL    HW2   27   0.805   0.869   0.076  1.3882 -1.8851 -0.9996
   10SOL     OW   28   0.432   2.690   2.937 -0.7848  0.0104 -0.2953
   10SOL    HW1   29   0.398   2.595   2.956 -1.0491  0.1987 -2.4665
   10SOL    HW2   30   0.482   2.686   2.851 -2.8421 -0.4339  3.1862
   11SOL     OW   31   0.240   1.406   2.884  0.0218 -0.4307 -0.4552
   11SOL    HW1   32   0.172   1.476   2.866  0.5345  1.0188  0.5244
   11SOL    HW2   33   0.307   1.438   2.950 -0.1777 -0.3222 -2.8111
   12SOL     OW   34   0.746   3.054   1.278 -0.2995  0.2813  0.0457
   12SOL    HW1   35   0.700   3.040   1.188  0.9554  0.5320 -1.4209
   12SOL    HW2   36   0.837   3.096   1.274  0.0175  0.9108 -0.0032
   13SOL     OW   37   0.613   2.618   0.664 -0.5809 -0.1541 -0.2955
   13SOL    HW1   38   0.615   2.524   0.619  2.3768 -0.2930  1.0488
   13SOL    HW2   39   0.698   2.665   0.630  2.1200  0.0036 -2.0922
   14SOL     OW   40   1.323   1.915   0.882  0.1791 -0.0430 -0.2866
   14SOL    HW1   41   1.253   1.995   0.860  0.9090  1.1700 -1.9904
   14SOL    HW2   42   1.349   1.920   0.982 -3.8363 -0.4189  0.9112
   15SOL     OW   43   2.448   0.776   2.270  0.9211  0.3748  0.4646
   15SOL    HW1   44   2.404   0.816   2.355  3.0081  0.1087 -3.3366
   15SOL    HW2   45   2.495   0.857   2.230  0.2787 -1.3738 -2.6782
   16SOL     OW   46   1.374   2.965   3.037 -0.2287 -0.0350 -0.1301
   16SOL    HW1   47   1.468   2.945   2.997  1.3095 -3.6626 -2.8224
   16SOL    HW2   48   1.362   3.048   0.002  0.4287  0.5366 -0.6627
   17SOL     OW   49   0.846   2.452   1.847 -0.1806  0.2960  0.0395
   17SOL    HW1   50   0.747   2.477   1.835  0.0863  2.2275 -0.1543
   17SOL    HW2   51   0.893   2.541   1.834  2.0561  1.7573  2.0913
   18SOL     OW   52   1.267   0.772   0.096 -0.6327  0.0700 -0.1580
   18SOL    HW1   53   1.331   0.846   0.125 -0.6534 -0.5602  1.1006
   18SOL    HW2   54   1.267   0.761   3.090  1.8041 -3.0948 -0.3760
   19SOL     OW   55   2.300   2.010   2.736 -0.3045  0.6682  0.0360
   19SOL    HW1   56   2.279   2.080   2.810 -0.2666 -1.1802  1.4625
   19SOL    HW2   57   2.401   1.997   2.726  1.2321 -0.1940 -0.1153
   20SOL     OW   58   1.742   1.537   2.150  0.3356 -0.1783  0.1326
   20SOL    HW1   59   1.815   1.462   2.159  0.5364  0.3681  0.2850
   20SOL    HW2   60   1.693   1.557   2.238  0.0230  0.0290 -0.6497
   21SOL     OW   61   0.241   1.834   2.967  0.4542 -0.1675  0.0974
   21SOL    HW1   62   0.275   1.787   3.051 -0.5531 -2.8261  0.0304
   21SOL    HW2   63   0.304   1.811   2.890  0.0105 -0.6177  1.4084
   22SOL     OW   64   2.449   2.997   1.485  0.5616 -0.1422  0.0905
   22SOL    HW1   65   2.479   3.096   1.504 -0.0524 -0.6233 -3.5287
   22SOL    HW2   66   2.504   2.959   1.413  0.7479  1.6530  0.7914
   23SOL     OW   67   0.121   1.259   1.717  0.5865 -0.2355  0.1075
   23SOL    HW1   68   0.168   1.179   1.756 -0.8754  0.0804 -2.4456
   23SOL    HW2   69   0.186   1.337   1.709 -0.7229 -0.3353 -2.2694
   24SOL     OW   70   2.586   1.789   1.507 -0.0960 -0.2307  0.1133
   24SOL    HW1   71   2.583   1.691   1.468 -0.1270 -2.6633  2.4038
   24SOL    HW2   72   2.497   1.804   1.555 -0.2634 -1.6513 -2.2199
   25SOL     OW   73   2.037   2.862   2.682 -0.0260 -0.3817  0.0206
   25SOL    HW1   74   2.080   2.908   2.595 -0.2147  3.8349 -5.0203
   25SOL    HW2   75   1.981   2.777   2.658  0.9457  0.5016 -2.1158
   26SOL     OW   76   1.263   2.931   0.470 -0.0805  0.6826  0.3665
   26SOL    HW1   77   1.256   3.007   0.536 -0.6049 -2.2517 -0.9461
   26SOL    HW2   78   1.357   2.885   0.464  2.6150  2.0652  0.4874
   27SOL     OW   79   0.835   2.106   3.020  0.2489 -0.0577 -0.9602
   27SOL    HW1   80   0.818   2.113   0.026  3.0598 -1.7592  0.0386
   27SOL    HW2   81   0.743   2.122   2.972 -0.5642 -0.5918  0.8184
   28SOL     OW   82   2.951   1.643   1.203  0.3492 -0.9633 -0.2920
   28SOL    HW1   83   3.010   1.589   1.135  0.9908 -1.4015 -0.0703
   28SOL    HW2   84   2.916   1.731   1.167  1.0303 -2.6759  2.4410
   29SOL     OW   85   2.547   2.241   2.037  0.0877  0.3348 -0.6840
   29SOL    HW1   86   2.482   2.316   2.058 -0.8773  0.4854 -0.0001
   29SOL    HW2   87   2.640   2.275   2.005  3.5272  1.3994  0.1635
   30SOL     OW   88   1.041   2.697   1.120 -0.5458  0.3331  0.1906
   30SOL    HW1   89   1.076   2.789   1.146 -0.2322 -1.9506 -0.3872
   30SOL    HW2   90   0.988   2.709   1.040  0.6700 -2.0796  2.6201
   31SOL     OW   91   2.956   2.164   1.845 -0.1314  0.0455  0.1234
   31SOL    HW1   92   2.912   2.070   1.848 -0.1484  0.3516 -0.7341
   31SOL    HW2   93   3.035   2.167   1.909 -0.3860 -0.5623 -0.0288
   32SOL     OW   94   1.317   0.968   1.990  0.7263  0.4164  0.2421
   32SOL    HW1   95   1.335   1.021   1.908 -0.1350 -2.3331  2.8905
   32SOL    HW2   96   1.354   1.007   2.076 -3.7020 -0.4382 -0.0552
   33SOL     OW   97   0.651   3.090   2.563 -0.0634  0.4807 -0.1589
   33SOL    HW1   98   0.675   3.066   2.660  1.8887 -0.3633 -0.4485
   33SOL    HW2   99   0.546   0.001   2.560 -2.4078 -0.9801 -0.5900
   34SOL     OW  100   1.771   2.977   1.254 -0.4432 -0.2819 -0.5342
   34SOL    HW1  101   1.762   2.951   1.351 -2.5332 -0.3807 -1.8802
   34SOL    HW2  102   1.867   2.995   1.223  0.8930  1.9322 -1.3008
   35SOL     OW  103   1.919   0.585   1.231  0.2211  0.1533  0.6479
   35SOL    HW1  104   1.980   0.554   1.155  1.4896 -0.2511  0.5073
   35SOL    HW2  105   1.966   0.631   1.306 -0.9058 -2.9480  0.4406
   36SOL     OW  106   2.177   2.796   2.103  0.1636 -0.7764  0.1786
   36SOL    HW1  107   2.201   2.711   2.155 -0.2189 -3.6278  1.3386
   36SOL    HW2  108   2.255   2.863   2.113  3.2331 -0.4497  0.4347
   37SOL     OW  109   1.371   2.299   2.539 -0.0031  0.2468 -0.7003
   37SOL    HW1  110   1.339   2.303   2.637 -1.9989 -2.5396  0.3900
   37SOL    HW2  111   1.357   2.205   2.499  1.0944  0.7219  0.4849
   38SOL     OW  112   2.365   0.332   0.097 -0.2139  0.1612  0.2416
   38SOL    HW1  113   2.435   0.260   0.076  0.4133 -0.7765 -1.3372
   38SOL    HW2  114   2.382   0.422   0.048  1.3907  0.4317 -1.4182
   39SOL     OW  115   1.881   1.907   2.283  0.1442  0.1343  0.2390
   39SOL    HW1  116   1.789   1.905   2.334  0.5818  0.8948  3.7162
   39SOL    HW2  117   1.885   1.860   2.190  0.3161 -0.2034 -1.8628
   40SOL     OW  118   0.318   2.936   2.947  0.1681  0.4620  0.0123
   40SOL    HW1  119   0.242   2.963   2.883 -1.0725  0.8310  1.6737
   40SOL    HW2  120   0.346   2.838   2.952  0.7630  0.2746 -1.8552
   41SOL     OW  121   1.519   0.709   1.519  0.4477 -0.3007 -0.2255
   41SOL    HW1  122   1.447   0.651   1.471 -0.8497 -0.8108 -2.2206
   41SOL    HW2  123   1.538   0.661   1.607 -0.3196 -0.3458 -3.2783
   42SOL     OW  124   0.522   0.180   1.524  0.0119 -0.0616  0.5943
   42SOL    HW1  125   0.562   0.217   1.440  0.4115  1.6145  1.1204
   42SOL    HW2  126   0.592   0.177   1.602  1.5499 -2.9538  3.2499
   43SOL     OW  127   1.519   0.331   1.970  0.0158 -0.1842 -0.2176
   43SOL    HW1  128   1.525   0.332   2.072 -1.2374  1.2689  0.2057
   43SOL    HW2  129   1.593   0.389   1.931 -1.0372 -0.5539 -1.2247
   44SOL     OW  130   0.071   2.673   2.504 -0.0068  0.7380 -0.2469
   44SOL    HW1  131   0.132   2.742   2.545 -1.5665 -2.0196 -1.5704
   44SOL    HW2  132   3.074   2.712   2.484 -2.2662  3.1403  1.2937
   45SOL     OW  133   0.134   2.394   1.432 -0.1281  0.3846 -0.1188
   45SOL    HW1  134   0.056   2.431   1.481  1.5362 -1.3582 -0.4933
   45SOL    HW2  135   0.202   2.359   1.501 -0.3386  1.0218  0.9865
   46SOL     OW  136   2.102   2.185   2.239 -0.5680  0.3210  0.3775
   46SOL    HW1  137   2.112   2.211   2.139  1.7529 -0.7611  0.4531
   46SOL    HW2  138   2.027   2.118   2.257 -2.1899 -0.1327  0.8918
   47SOL     OW  139   1.828   1.972   1.573 -0.4665 -0.2026 -0.0936
   47SOL    HW1  140   1.792   1.961   1.667  1.4704 -0.9456  0.4676
   47SOL    HW2  141   1.762   1.932   1.514  1.0692 -3.8010 -0.7189
   48SOL     OW  142   0.232   1.750   0.290 -0.4241 -0.0426 -0.3073
   48SOL    HW1  143   0.244   1.761   0.390  0.8321  0.7849 -1.4073
   48SOL    HW2  144   0.146   1.800   0.261  1.2452 -0.0693  0.7128
   49SOL     OW  145   2.672   0.542   2.157  0.1657 -0.0136 -0.4828
   49SOL    HW1  146   2.592   0.474   2.159 -2.5630 -1.8031 -1.3707
   49SOL    HW2  147   2.667   0.596   2.072  0.3841 -0.4290  1.5079
   50SOL     OW  148   1.856   0.809   0.965  0.0935 -0.4560 -0.1150
   50SOL    HW1  149   1.841   0.795   0.866  0.7786 -0.6645 -0.0856
   50SOL    HW2  150   1.773   0.794   1.022  1.8219  0.5323  1.6775
   51SOL     OW  151   1.154   0.760   0.998  0.1006  0.2158  0.2969
   51SOL    HW1  152   1.075   0.826   0.995 -1.1175 -0.9674  0.7003
   51SOL    HW2  153   1.242   0.801   1.040  1.6144  2.2912 -1.6431
   52SOL     OW  154   1.358   1.282   3.035 -0.1510 -0.1241  0.1343
   52SOL    HW1  155   1.335   1.263   0.037  2.2014 -0.5006 -0.1123
   52SOL    HW2  156   1.280   1.264   2.973  0.2859  0.0946 -0.7298
   53SOL     OW  157   1.288   1.966   2.819  0.3256 -0.5351  0.1241
   53SOL    HW1  158   1.194   1.930   2.832  0.0357 -1.4976 -3.7288
   53SOL    HW2  159   1.282   2.069   2.825 -0.6696  0.1699 -0.3563
   54SOL     OW  160   1.841   0.530   1.553 -0.5038 -0.4314  0.8525
   54SOL    HW1  161   1.925   0.584   1.550  0.4111  1.2462 -1.2175
   54SOL    HW2  162   1.756   0.587   1.537 -1.3312  0.9482 -1.9268
   55SOL     OW  163   1.849   2.811   0.640 -0.4574  0.3446  0.1698
   55SOL    HW1  164   1.900   2.866   0.569  0.4437  0.6702 -1.7203
   55SOL    HW2  165   1.777   2.873   0.684 -1.6268  0.9484 -1.1454
   56SOL     OW  166   0.908   2.598   1.351  0.1967  0.1866 -0.2515
   56SOL    HW1  167   0.938   2.633   1.260  1.1740  0.2433 -4.1044
   56SOL    HW2  168   0.891   2.668   1.424  0.0260  0.2550 -0.0667
   57SOL     OW  169   1.812   0.956   0.357 -0.0980 -0.3410 -0.2572
   57SOL    HW1  170   1.831   1.007   0.274  0.6345 -0.9451  0.1799
   57SOL    HW2  171   1.736   0.888   0.344  2.8966 -0.8983  0.7753
   58SOL     OW  172   0.159   1.149   2.253  0.7246 -0.5547 -0.2619
   58SOL    HW1  173   0.123   1.078   2.316  2.1929  2.5188 -1.5125
   58SOL    HW2  174   0.089   1.161   2.177  1.5761  1.4474 -0.6942
   59SOL     OW  175   0.860   2.505   2.440 -0.1062  0.1652 -0.2320
   59SOL    HW1  176   0.901   2.597   2.427  0.8506 -1.8763 -2.4930
   59SOL    HW2  177   0.818   2.468   2.353 -1.1189  0.1508 -0.4581
   60SOL     OW  178   2.567   2.885   0.996  0.1664  0.1984 -0.2627
   60SOL    HW1  179   2.508   2.805   1.013 -0.1800  0.3511 -1.3814
   60SOL    HW2  180   2.544   2.928   0.909  0.5220 -1.4452 -1.5943
   61SOL     OW  181   1.139   2.075   0.514 -0.4963 -0.5156 -0.0529
   61SOL    HW1  182   1.087   1.991   0.543 -0.0865 -0.8794 -0.5192
   61SOL    HW2  183   1.242   2.056   0.527  2.5761  0.7142  1.4057
   62SOL     OW  184   2.279   2.596   2.927  0.3889 -0.9005 -0.1119
   62SOL    HW1  185   2.351   2.531   2.909 -0.7344  4.0000 -1.8201
   62SOL    HW2  186   2.308   2.664   2.996 -0.1981 -1.8360 -1.0716
   63SOL     OW  187   1.895   0.457   0.230  0.2887 -0.9433  0.1922
   63SOL    HW1  188   1.993   0.485   0.233 -0.3675 -2.6510  1.2451
   63SOL    HW2  189   1.872   0.399   0.310 -2.0585  0.3855  1.0111
   64SOL     OW  190   0.872   0.977   2.854 -0.0169 -0.3601  0.2567
   64SOL    HW1  191   0.840   1.006   2.762 -1.1290 -1.7049  1.9686
   64SOL    HW2  192   0.829   1.034   2.926  0.5459  0.6636  3.3192
   65SOL     OW  193   1.146   2.385   0.605  0.4848 -0.8676  0.4319
   65SOL    HW1  194   1.214   2.395   0.527  2.7176  2.3836  2.1264
   65SOL    HW2  195   1.159   2.291   0.643 -1.4596  3.1968 -0.3213
   66SOL     OW  196   0.605   1.208   1.917  0.3343  0.3645 -0.8324
   66SOL    HW1  197   0.626   1.256   2.003 -0.9112 -0.9351  0.4635
   66SOL    HW2  198   0.513   1.165   1.917 -1.0078 -1.1638  1.6949
   67SOL     OW  199   2.347   0.076   2.375  0.7640 -0.0342  0.1254
   67SOL    HW1  200   2.352   0.104   2.276 -1.1350 -1.7208 -0.9044
   67SOL    HW2  201   2.438   0.072   2.416  1.6374 -1.4825  1.0408
   68SOL     OW  202   0.952   0.911   1.412  0.4782 -0.3423  0.2435
   68SOL    HW1  203   0.905   0.892   1.501  1.4419  1.6787 -0.3534
   68SOL    HW2  204   0.910   0.872   1.329  1.0517  2.0732  0.5994
   69SOL     OW  205   1.503   2.802   0.458  0.8708  0.7325  0.6138
   69SOL    HW1  206   1.567   2.852   0.398  0.8597  0.7593  0.2271
   69SOL    HW2  207   1.556   2.738   0.520 -0.1095  0.9307 -0.8155
   70SOL     OW  208   2.945   1.035   2.308 -0.2658  0.1771 -0.5319
   70SOL    HW1  209   3.026   0.997   2.361  4.0587  1.2657  1.2371
   70SOL    HW2  210   2.861   0.973   2.317  0.5120 -4.4490 -0.3255
   71SOL     OW  211   2.958   1.524   3.019 -0.1604 -0.2544 -0.4710
   71SOL    HW1  212   2.887   1.461   2.975 -2.8003 -1.2061 -1.0658
   71SOL    HW2  213   3.015   1.569   2.948 -1.8011 -0.5537  1.6599
   72SOL     OW  214   0.011   1.944   0.238  0.0156  0.4132  0.0150
   72SOL    HW1  215   3.045   1.887   0.179  1.1230 -1.0384 -0.7263
   72SOL    HW2  216   3.079   1.946   0.339 -2.8771  0.6862  4.0136
   73SOL     OW  217   0.966   1.660   0.472 -0.1167 -0.4480 -0.2284
   73SOL    HW1  218   1.007   1.584   0.520  0.4121  4.7053  0.7487
   73SOL    HW2  219   0.988   1.654   0.371 -1.7489  0.6210  0.1307
   74SOL     OW  220   0.430   1.953   1.993  0.3464 -0.0775  0.2325
   74SOL    HW1  221   0.342   1.905   1.997 -0.5925 -1.9629 -0.9358
   74SOL    HW2  222   0.465   1.964   2.088  1.3183  0.3471  0.7130
   75SOL     OW  223   1.598   1.444   1.551  0.0048 -0.0003 -0.1698
   75SOL    HW1  224   1.635   1.356   1.581 -1.2269  1.5171 -2.0066
   75SOL    HW2  225   1.614   1.516   1.626 -0.2592  1.6931  0.8819
   76SOL     OW  226   2.198   2.619   1.297 -0.5866  0.5323 -0.6319
   76SOL    HW1  227   2.205   2.521   1.277  0.5979  1.8219 -0.1413
   76SOL    HW2  228   2.139   2.628   1.380  2.1394 -0.8512 -2.0199
   77SOL     OW  229   2.809   0.868   1.404 -0.2201  0.3371 -0.3350
   77SOL    HW1  230   2.856   0.790   1.448 -3.1088 -1.5446  1.9494
   77SOL    HW2  231   2.778   0.839   1.312  2.0411  1.4211  1.6325
   78SOL     OW  232   1.255   0.984   0.393  0.4263  0.2271 -0.0708
   78SOL    HW1  233   1.287   1.076   0.427 -1.2303  1.6227 -0.2674
   78SOL    HW2  234   1.314   0.914   0.433  0.7430 -0.0499 -1.4881
   79SOL     OW  235   2.594   1.304   1.572 -0.6544  0.0735 -0.4443
   79SOL    HW1  236   2.660   1.265   1.505  2.0185  1.9187 -0.8107
   79SOL    HW2  237   2.615   1.290   1.670 -1.3691  2.3259 -4.6891
   80SOL     OW  238   0.885   0.534   1.488 -0.2714  0.0007 -0.3820
   80SOL    HW1  239   0.792   0.544   1.527 -0.6043  1.5608  1.7430
   80SOL    HW2  240   0.908   0.435   1.464 -2.1217 -2.1738  0.5822
   81SOL     OW  241   1.048   3.007   0.766 -0.2975  0.4569 -0.7128
   81SOL    HW1  242   1.112   2.927   0.780  2.1718  0.7593  1.5408
   81SOL    HW2  243   1.092   3.093   0.727 -0.2343  1.3824  0.2809
   82SOL     OW  244   1.292   0.045   1.734  0.3758 -0.3332  0.0622
   82SOL    HW1  245   1.306   0.054   1.633  2.8559 -0.0599  1.7712
   82SOL    HW2  246   1.207   3.094   1.760  0.3794  1.0788 -2.0395
   83SOL     OW  247   1.109   2.090   0.834  0.1741 -0.3155  0.1587
   83SOL    HW1  248   1.133   2.166   0.903 -0.6662 -1.1547  1.4220
   83SOL    HW2  249   1.013   2.093   0.797 -1.0882 -0.9389  0.7831
   84SOL     OW  250   0.373   1.767   2.725  0.1461 -0.5743 -0.7785
   84SOL    HW1  251   0.320   1.690   2.679 -2.1203 -2.9154  0.5311
   84SOL    HW2  252   0.474   1.748   2.749  4.8777  1.5029  0.2884
   85SOL     OW  253   0.148   2.142   1.274  0.1701 -0.0104  0.0362
   85SOL    HW1  254   0.053   2.113   1.283 -0.6079 -0.8742  1.7853
   85SOL    HW2  255   0.156   2.240   1.298 -1.5559 -2.2230 -2.7721
   86SOL     OW  256   2.468   2.619   1.334  0.1722  0.1794 -0.4594
   86SOL    HW1  257   2.501   2.618   1.433  0.6097  0.7842 -0.4710
   86SOL    HW2  258   2.372   2.645   1.337  0.4860 -1.0535 -0.7530
   87SOL     OW  259   0.125   1.922   0.528 -0.1235  0.3538 -0.5537
   87SOL    HW1  260   0.169   1.835   0.571  1.3927 -1.8213  1.1572
   87SOL    HW2  261   0.187   2.000   0.539 -2.2736 -0.0040  3.5760
   88SOL     OW  262   0.773   1.206   1.556  0.2659  0.5649 -0.2899
   88SOL    HW1  263   0.671   1.217   1.559 -1.4076  0.7545  1.2530
   88SOL    HW2  264   0.813   1.202   1.464 -0.0741  0.0955  3.1880
   89SOL     OW  265   1.155   2.868   2.092 -0.0854 -0.0166  0.5522
   89SOL    HW1  266   1.117   2.950   2.044 -0.8645  1.0487 -1.8386
   89SOL    HW2  267   1.075   2.814   2.127  0.4489 -3.2648 -1.9894
   90SOL     OW  268   0.033   1.828   1.334 -0.4128 -0.0511  0.2703
   90SOL    HW1  269   0.088   1.830   1.418  0.3232 -0.7276 -1.5100
   90SOL    HW2  270   3.064   1.747   1.327 -1.4835 -1.8732  1.3008
   91SOL     OW  271   1.352   1.917   1.163  0.8052 -0.0422  0.1347
   91SOL    HW1  272   1.252   1.908   1.157  2.0617 -1.1703  0.3337
   91SOL    HW2  273   1.387   1.848   1.226 -1.6234  1.5434 -0.1910
   92SOL     OW  274   2.468   2.717   1.820  0.1140  0.3455 -0.5665
   92SOL    HW1  275   2.428   2.626   1.841 -0.8630  0.8691 -0.5853
   92SOL    HW2  276   2.486   2.721   1.718 -0.1898  1.6670 -0.6616
   93SOL     OW  277   2.881   1.468   2.558  0.5323  0.4488  0.0374
   93SOL    HW1  278   2.850   1.372   2.544  0.2014  0.5136 -0.1182
   93SOL    HW2  279   2.897   1.481   2.660 -1.1948 -0.7699  1.7636
   94SOL     OW  280   2.644   0.004   2.118 -0.1840  0.0299 -0.1988
   94SOL    HW1  281   2.666   0.096   2.158 -1.0826 -1.6588 -1.8745
   94SOL    HW2  282   2.706   3.077   2.039 -2.8192 -0.9922 -0.2742
   95SOL     OW  283   1.275   0.375   1.844 -0.5638 -0.0129 -0.6529
   95SOL    HW1  284   1.366   0.345   1.884  1.1871 -4.1420  1.9451
   95SOL    HW2  285   1.253   0.473   1.869  0.7579  2.6866 -0.4607
   96SOL     OW  286   2.817   0.469   1.752  0.2134 -0.1112  0.2776
   96SOL    HW1  287   2.741   0.449   1.682  0.0619 -0.2337 -0.0825
   96SOL    HW2  288   2.805   0.407   1.835 -3.0822 -0.7946  1.3621
   97SOL     OW  289   1.955   0.308   1.428 -0.3594  0.7582  0.2666
   97SOL    HW1  290   1.945   0.300   1.330 -0.4010 -1.6666  0.7450
   97SOL    HW2  291   1.893   0.378   1.463 -0.9512 -0.3831 -0.4207
   98SOL     OW  292   1.862   2.656   1.347 -0.5018  0.0714 -0.1883
   98SOL    HW1  293   1.811   2.733   1.388  5.1937  0.9854 -0.4524
   98SOL    HW2  294   1.937   2.628   1.414  0.3361 -0.8649  3.9641
   99SOL     OW  295   2.915   0.255   1.644  0.1294 -0.5281  0.4723
   99SOL    HW1  296   2.885   0.344   1.683  0.2914  2.4173 -1.8944
   99SOL    HW2  297   3.002   0.260   1.587  1.6573  0.3667  0.3783
  100SOL     OW  298   2.699   1.313   1.835 -0.2312  0.2136 -0.2225
  100SOL    HW1  299   2.657   1.374   1.905  1.2723 -3.0710  0.0043
  100SOL    HW2  300   2.798   1.299   1.845  1.8248 -0.1214 -1.1583
  101SOL     OW  301   1.457   0.674   0.789  0.3939  0.3460  0.7128
  101SOL    HW1  302   1.493   0.632   0.870 -1.0021  1.7869 -0.2192
  101SOL    HW2  303   1.431   0.769   0.810  1.5851 -0.9635 -2.9950
  102SOL     OW  304   0.512   0.874   1.313  0.5868  0.1913 -0.4209
  102SOL    HW1  305   0.454   0.954   1.335 -0.5741 -3.6692 -0.1850
  102SOL    HW2  306   0.554   0.829   1.395  1.3466 -2.0734 -1.8183
  103SOL     OW  307   2.370   0.815   0.091 -0.7074  0.3693 -0.2804
  103SOL    HW1  308   2.292   0.778   0.153 -2.4985 -2.4028  0.6545
  103SOL    HW2  309   2.405   0.903   0.128 -1.3591  1.1486  1.6638
  104SOL     OW  310   3.024   0.135   1.881  0.4105  0.6246 -0.1852
  104SOL    HW1  311   3.068   0.104   1.794 -0.1773  0.2985 -0.9586
  104SOL    HW2  312   2.931   0.176   1.858 -1.6355  2.0768  1.5633
  105SOL     OW  313   2.012   0.758   1.861 -0.3911  0.3666 -0.1836
  105SOL    HW1  314   1.921   0.788   1.829  2.8409  0.5761 -0.1654
  105SOL    HW2  315   2.087   0.784   1.794  1.0007 -0.4012 -0.6201
  106SOL     OW  316   1.717   3.016   0.998  0.1218  0.0576 -0.3057
  106SOL    HW1  317   1.730   3.009   1.097  3.4179 -1.0740  0.7853
  106SOL    HW2  318   1.661   2.938   0.964 -1.8840  0.4690  1.5534
  107SOL     OW  319   0.495   1.172   0.634 -0.7479  0.3407 -0.3685
  107SOL    HW1  320   0.487   1.090   0.573 -3.3064  1.9700  0.3359
  107SOL    HW2  321   0.428   1.159   0.718 -0.7085  0.4985  2.4126
  108SOL     OW  322   2.778   0.286   1.924  0.4870 -0.4001  0.1273
  108SOL    HW1  323   2.680   0.268   1.914  2.5793 -0.0934 -1.7881
  108SOL    HW2  324   2.808   0.277   2.022 -0.0166  0.2987 -2.5671
  109SOL     OW  325   2.342   0.739   0.729 -0.1404 -0.0115  0.2326
  109SOL    HW1  326   2.273   0.785   0.790  1.7680 -0.7994  0.0323
  109SOL    HW2  327   2.302   0.658   0.679 -1.6533 -1.0035 -3.4951
  110SOL     OW  328   0.244   2.435   2.728  0.4153 -0.0246 -0.3591
  110SOL    HW1  329   0.188   2.353   2.720  3.0152  2.7859  1.3179
  110SOL    HW2  330   0.275   2.467   2.638  0.7697 -1.0491  0.9747
  111SOL     OW  331   1.871   0.038   2.086 -0.4453 -0.5107 -0.1789
  111SOL    HW1  332   1.871   0.120   2.144  0.1230  0.2266 -0.6163
  111SOL    HW2  333   1.816   0.060   2.001 -0.5024 -1.9786  2.8843
  112SOL     OW  334   2.230   2.713   0.250  0.3635  0.3114  0.4052
  112SOL    HW1  335   2.165   2.661   0.188  0.6404  0.5838  0.3050
  112SOL    HW2  336   2.324   2.709   0.217  0.4146 -1.2809 -0.2888
  113SOL     OW  337   2.385   2.228   1.472 -0.0563  0.4693  0.0726
  113SOL    HW1  338   2.474   2.203   1.508 -2.9750  1.4357  2.2446
  113SOL    HW2  339   2.336   2.298   1.520  1.9862 -4.5227 -0.0545
  114SOL     OW  340   2.830   0.976   0.911  0.4142  0.0561 -0.5480
  114SOL    HW1  341   2.733   0.993   0.882  2.1229  1.2740 -0.5100
  114SOL    HW2  342   2.883   0.936   0.835 -2.0323 -1.2181 -0.9632
  115SOL     OW  343   2.975   1.710   0.113  0.1946  0.3352 -0.1838
  115SOL    HW1  344   2.966   1.677   0.209 -0.9096  0.7118 -0.2260
  115SOL    HW2  345   3.001   1.638   0.045  0.1589  3.8748  0.8734
  116SOL     OW  346   0.012   1.463   2.062  0.7009 -0.7709  0.3686
  116SOL    HW1  347   3.056   1.377   2.078 -2.0247  0.5374 -0.4787
  116SOL    HW2  348   0.117   1.447   2.066  1.7613 -1.3896 -1.9176
  117SOL     OW  349   2.448   2.991   0.740  0.1971  0.0505  0.4873
  117SOL    HW1  350   2.363   2.980   0.687 -0.8275 -3.1015 -2.0031
  117SOL    HW2  351   2.531   2.956   0.687  1.6408 -0.0479  1.4928
  118SOL     OW  352   0.313   2.283   1.608 -0.3011 -0.1186 -0.2813
  118SOL    HW1  353   0.291   2.269   1.703 -0.9988  2.0034 -1.5699
  118SOL    HW2  354   0.388   2.353   1.599  0.7244  2.6497  0.9549
  119SOL     OW  355   1.689   2.051   0.553  0.8170 -0.2713  0.1260
  119SOL    HW1  356   1.747   1.982   0.509 -1.7342  0.6601 -1.0538
  119SOL    HW2  357   1.730   2.077   0.641  1.0506  3.4012 -0.9019
  120SOL     OW  358   3.042   1.975   2.233  0.2121  0.0548  0.0686
  120SOL    HW1  359   0.021   1.912   2.255  1.4900 -0.1105  1.5076
  120SOL    HW2  360   2.958   1.920   2.218  2.9616  0.7488  0.6659
  121SOL     OW  361   2.612   1.931   1.275 -0.2039  0.4776 -0.5475
  121SOL    HW1  362   2.550   1.908   1.200  3.0540 -0.4353  2.1620
  121SOL    HW2  363   2.593   1.882   1.364 -1.2572  0.8564  3.6644
  122SOL     OW  364   2.133   1.312   2.334 -0.3478 -0.3670  0.1980
  122SOL    HW1  365   2.197   1.363   2.272 -0.3143 -2.8969 -0.6917
  122SOL    HW2  366   2.192   1.265   2.401 -0.5365  0.1332  0.9823
  123SOL     OW  367   3.066   2.854   0.835  0.0604  0.6641 -0.1471
  123SOL    HW1  368   3.006   2.804   0.903 -0.8111 -0.6160 -1.9853
  123SOL    HW2  369   0.059   2.811   0.819  2.1606  2.1266 -2.6772
  124SOL     OW  370   1.837   0.768   2.605 -0.0606  0.2607  0.5927
  124SOL    HW1  371   1.876   0.862   2.588  1.3892 -1.4842 -1.0162
  124SOL    HW2  372   1.737   0.770   2.618  3.2330  0.6367 -0.7790
  125SOL     OW  373   0.738   1.437   2.892  0.0868  0.3570 -0.5350
  125SOL    HW1  374   0.789   1.509   2.936 -1.1478 -2.6121  0.1116
  125SOL    HW2  375   0.679   1.387   2.959 -0.2049  1.2304 -0.5100
  126SOL     OW  376   2.756   1.858   0.018  0.2503  0.2297  0.2935
  126SOL    HW1  377   2.772   1.956   0.004  0.2164 -1.6773  2.3935
  126SOL    HW2  378   2.830   1.800   0.056 -4.8042  1.3650 -0.4858
  127SOL     OW  379   0.590   1.788   1.119  0.0419  0.3745  0.1872
  127SOL    HW1  380   0.518   1.853   1.154 -4.4922 -0.4818  0.5469
  127SOL    HW2  381   0.595   1.714   1.191  1.9897 -0.1494  0.5300
  128SOL     OW  382   0.947   0.747   0.090  0.1234  0.0119 -0.2131
  128SOL    HW1  383   0.956   0.692   0.006 -0.8783  1.6722  0.8319
  128SOL    HW2  384   1.035   0.800   0.092 -0.6769  2.0695 -3.0231
  129SOL     OW  385   2.338   1.414   0.995  0.0423 -0.3152  0.2983
  129SOL    HW1  386   2.278   1.455   0.922 -0.5188  0.6507 -1.2307
  129SOL    HW2  387   2.434   1.419   0.962  0.2628  0.2498 -2.5566
  130SOL     OW  388   2.110   1.734   0.919  0.1913  0.2322 -0.3840
  130SOL    HW1  389   2.091   1.648   0.869  0.1581  1.2495  1.2082
  130SOL    HW2  390   2.064   1.742   1.007  1.5864  3.0005  1.0412
  131SOL     OW  391   2.797   1.098   2.795  0.5414 -0.3095  0.7217
  131SOL    HW1  392   2.746   1.052   2.872  0.2073  0.1259 -1.8261
  131SOL    HW2  393   2.898   1.094   2.807  1.3583  0.2699 -0.5314
  132SOL     OW  394   2.298   1.829   1.923  0.1798 -0.2548  0.1009
  132SOL    HW1  395   2.315   1.929   1.914  1.0820 -0.1851  1.5650
  132SOL    HW2  396   2.371   1.766   1.896  1.0486 -1.8319 -2.9320
  133SOL     OW  397   3.047   0.945   0.118 -0.4339 -0.0935 -0.1140
  133SOL    HW1  398   3.049   0.898   0.212  1.1186 -2.1889 -0.9189
  133SOL    HW2  399   0.045   0.957   0.090  1.2431 -1.2496  0.3115
  134SOL     OW  400   0.231   1.040   0.067  0.3143  0.8253 -0.4414
  134SOL    HW1  401   0.317   1.031   0.010 -4.0099 -0.3486  0.3257
  134SOL    HW2  402   0.179   1.117   0.028 -0.5924 -3.0541 -0.2574
  135SOL     OW  403   2.135   1.647   0.525  0.4451  0.1225  0.0047
  135SOL    HW1  404   2.170   1.593   0.599  1.1122 -0.1845 -0.0404
  135SOL    HW2  405   2.201   1.725   0.510  0.5472 -2.0163 -1.6701
  136SOL     OW  406   2.013   1.414   1.394 -0.2685 -0.4257 -0.0983
  136SOL    HW1  407   1.995   1.316   1.412 -1.1370  1.6873 -0.8614
  136SOL    HW2  408   2.050   1.429   1.298 -0.9670 -0.0697  1.5653
  137SOL     OW  409   2.543   1.800   0.648  0.2665 -0.1095 -0.2112
  137SOL    HW1  410   2.616   1.868   0.623 -2.7109 -2.2292  0.3116
  137SOL    HW2  411   2.469   1.804   0.579 -1.6245 -1.4072 -0.8672
  138SOL     OW  412   1.138   0.293   1.154 -0.2082  0.4739 -0.2497
  138SOL    HW1  413   1.163   0.393   1.163  2.9064  3.1711 -2.4212
  138SOL    HW2  414   1.221   0.249   1.112 -0.5972  3.4921  2.0085
  139SOL     OW  415   2.222   0.126   0.211 -0.5875 -0.0759  0.3648
  139SOL    HW1  416   2.189   0.075   0.128 -1.3375 -0.0136 -3.8424
  139SOL    HW2  417   2.264   0.213   0.180  0.7649  0.5682 -0.7334
  140SOL     OW  418   1.530   2.074   2.921 -0.2807  0.0161 -0.2648
  140SOL    HW1  419   1.475   1.994   2.884 -2.1694 -0.8690 -0.9343
  140SOL    HW2  420   1.622   2.041   2.952 -3.6638  1.2229 -1.9116
  141SOL     OW  421   0.791   0.927   1.668 -0.2348 -0.3509 -0.1352
  141SOL    HW1  422   0.827   0.903   1.759  0.6415 -1.5647  3.2356
  141SOL    HW2  423   0.826   1.017   1.638 -1.3527 -4.3329  2.6972
  142SOL     OW  424   2.567   0.151   0.031  0.3351  0.2339  0.2795
  142SOL    HW1  425   2.646   0.119   0.085 -1.6615 -0.6032  2.2134
  142SOL    HW2  426   2.524   0.074   3.073 -0.6128  0.4292  0.6719
  143SOL     OW  427   0.636   2.386   2.899  0.4683 -0.1135 -0.4737
  143SOL    HW1  428   0.723   2.423   2.940  1.2090  1.7036  0.8088
  143SOL    HW2  429   0.628   2.425   2.803  2.7860 -3.1604  0.1480
  144SOL     OW  430   1.356   2.734   2.632 -0.0791  0.2034 -0.8532
  144SOL    HW1  431   1.355   2.658   2.700 -2.1067  4.2586  1.4654
  144SOL    HW2  432   1.322   2.817   2.677 -1.5942 -1.1761 -0.9111
  145SOL     OW  433   2.364   1.608   3.039 -0.3471  0.4848 -0.1610
  145SOL    HW1  434   2.402   1.694   3.003  1.6988  0.9853 -0.0240
  145SOL    HW2  435   2.264   1.617   3.044  2.6123  1.1737 -1.8436
  146SOL     OW  436   2.738   2.726   0.109 -0.0751 -0.0140  0.6941
  146SOL    HW1  437   2.800   2.805   0.113  0.9626 -2.3960  0.8670
  146SOL    HW2  438   2.794   2.641   0.096  0.9866 -0.3462 -1.4911
  147SOL     OW  439   2.640   2.394   1.213 -0.3590 -0.2482  0.0587
  147SOL    HW1  440   2.587   2.467   1.252  1.8325 -3.9869  1.4207
  147SOL    HW2  441   2.642   2.409   1.109 -0.2042 -0.3361 -1.1209
  148SOL     OW  442   1.737   0.189   0.133  0.1051 -0.3487 -0.2863
  148SOL    HW1  443   1.797   0.243   0.197  0.3564 -1.0642 -1.6738
  148SOL    HW2  444   1.691   0.234   0.053 -1.3309 -3.0815  2.8826
  149SOL     OW  445   1.100   1.473   2.686 -0.2532 -0.4111 -0.1425
  149SOL    HW1  446   1.072   1.377   2.678  0.6150  0.6841  0.7863
  149SOL    HW2  447   1.069   1.532   2.609  0.5765  0.5878 -1.5560
  150SOL     OW  448   0.652   2.413   0.498 -0.0947 -0.3901  0.1094
  150SOL    HW1  449   0.620   2.332   0.448 -1.3813 -2.1681 -0.3000
  150SOL    HW2  450   0.729   2.384   0.560 -1.3608  0.1021 -0.3588
  151SOL     OW  451   0.850   1.651   3.066  0.0267 -0.1375 -0.2525
  151SOL    HW1  452   0.940   1.665   3.024 -1.5003 -0.3437  1.7224
  151SOL    HW2  453   0.820   1.729   0.026 -1.3654 -0.2998  1.6824
  152SOL     OW  454   2.878   1.233   0.426 -0.2121 -0.2545 -0.5279
  152SOL    HW1  455   2.780   1.218   0.460 -0.0554  0.9810  1.1155
  152SOL    HW2  456   2.943   1.186   0.482 -1.4320 -1.1158 -0.2869
  153SOL     OW  457   2.488   2.627   0.215  0.2138 -0.2061 -0.3434
  153SOL    HW1  458   2.489   2.647   0.313 -1.2514  0.1506 -1.0757
  153SOL    HW2  459   2.577   2.649   0.178 -3.1795  0.3487  3.8501
  154SOL     OW  460   0.606   3.003   1.056  0.1140 -0.5595 -0.4785
  154SOL    HW1  461   0.523   3.032   1.112 -1.2590  0.3939 -1.4154
  154SOL    HW2  462   0.592   3.027   0.953 -1.8577 -3.5085 -0.2196
  155SOL     OW  463   0.486   2.026   1.222  0.4912  0.5104 -0.1957
  155SOL    HW1  464   0.425   2.064   1.150  1.8613 -0.7930  3.1259
  155SOL    HW2  465   0.438   2.021   1.313 -0.5171 -1.3181  1.8239
  156SOL     OW  466   2.589   2.201   2.974  0.4730  0.1963 -0.3002
  156SOL    HW1  467   2.593   2.173   2.874  2.7811 -0.7168 -1.7725
  156SOL    HW2  468   2.670   2.157   3.022  2.5245  1.2107 -0.1226
  157SOL     OW  469   1.023   2.137   1.261 -0.2253  0.0545  0.1766
  157SOL    HW1  470   0.944   2.192   1.289  0.2934 -1.8520 -2.7960
  157SOL    HW2  471   1.080   2.180   1.188  0.7970 -0.4601  0.0294
  158SOL     OW  472   1.568   0.596   2.979  0.0606 -0.0618 -0.2505
  158SOL    HW1  473   1.660   0.611   3.022  0.4332 -1.3603 -0.8786
  158SOL    HW2  474   1.499   0.650   3.024  1.0999 -0.9175 -0.3218
  159SOL     OW  475   1.148   0.447   2.580 -0.0071  0.5247  0.3001
  159SOL    HW1  476   1.096   0.363   2.601  0.7115 -2.2260 -0.0820
  159SOL    HW2  477   1.222   0.431   2.515  0.1088 -0.7766  3.3251
  160SOL     OW  478   1.274   1.682   0.490 -0.6361  0.4353 -0.1751
  160SOL    HW1  479   1.220   1.735   0.422  0.1179  0.6979 -1.3398
  160SOL    HW2  480   1.242   1.587   0.510  1.4004 -1.4868 -1.9625
  161SOL     OW  481   0.012   2.294   3.076  0.2508  0.4665  0.6914
  161SOL    HW1  482   0.070   2.378   3.063 -3.7657 -1.9348 -0.9854
  161SOL    HW2  483   0.025   2.250   0.072  1.0658 -0.3163  1.3809
  162SOL     OW  484   0.654   2.723   1.085 -0.6228  0.0071  0.1456
  162SOL    HW1  485   0.741   2.714   1.034 -0.7330  2.3040  0.0571
  162SOL    HW2  486   0.649   2.812   1.134 -0.5380  0.2959  2.4970
  163SOL     OW  487   2.642   1.023   3.032  0.0586 -0.0602 -0.3268
  163SOL    HW1  488   2.558   0.988   2.982 -1.9807  0.0011 -1.5644
  163SOL    HW2  489   2.702   0.948   3.066 -0.9082 -1.9498 -0.6972
  164SOL     OW  490   0.110   2.663   2.858 -0.5718 -0.2635  0.6295
  164SOL    HW1  491   0.177   2.595   2.828  0.0970 -3.0564  2.2587
  164SOL    HW2  492   0.062   2.626   2.939 -0.7422 -0.3849  0.3160
  165SOL     OW  493   2.259   0.295   1.273  0.2607  0.5062  0.2486
  165SOL    HW1  494   2.226   0.274   1.371 -0.4551  0.1137  1.7510
  165SOL    HW2  495   2.217   0.230   1.204 -1.6893 -0.9705  1.2942
  166SOL     OW  496   1.832   0.164   1.021 -0.6545 -0.1323 -0.2592
  166SOL    HW1  497   1.932   0.174   0.996 -1.9545  0.2710 -0.1822
  166SOL    HW2  498   1.817   0.062   1.025  1.3128 -2.3008  0.9572
  167SOL     OW  499   0.887   0.424   1.949 -0.1358 -0.1235 -0.0468
  167SOL    HW1  500   0.896   0.501   1.878 -1.9998 -0.8160 -0.8976
  167SOL    HW2  501   0.895   0.457   2.047  1.1140  0.8265  2.9008
  168SOL     OW  502   2.515   0.340   1.881  0.5236 -0.0768 -0.4207
  168SOL    HW1  503   2.460   0.266   1.924  0.1580 -2.7213 -1.6800
  168SOL    HW2  504   2.456   0.376   1.805  1.7929  0.5137  1.8944
  169SOL     OW  505   0.327   1.344   0.370 -0.1317 -0.0819  0.2150
  169SOL    HW1  506   0.274   1.404   0.304 -0.9515 -0.1308  1.9206
  169SOL    HW2  507   0.323   1.243   0.355 -2.7092 -0.1784 -2.5494
  170SOL     OW  508   0.184   0.982   1.841  0.8160 -0.1329  0.4291
  170SOL    HW1  509   0.248   0.921   1.795  0.2466 -0.9836  0.4152
  170SOL    HW2  510   0.091   0.958   1.806 -0.1685  0.1517 -0.3493
  171SOL     OW  511   1.296   2.085   1.842 -0.1882 -0.0301  0.0762
  171SOL    HW1  512   1.308   2.128   1.934  0.7223  1.3788  0.1708
  171SOL    HW2  513   1.195   2.084   1.818 -0.3347  0.5314 -0.2729
  172SOL     OW  514   0.503   2.458   1.547 -0.4287 -0.1986  0.1959
  172SOL    HW1  515   0.514   2.553   1.570  0.7323 -1.0197  0.3685
  172SOL    HW2  516   0.568   2.428   1.480 -2.0547  0.2528  3.2289
  173SOL     OW  517   1.224   2.796   0.759  0.6855 -0.3193  0.1932
  173SOL    HW1  518   1.266   2.811   0.670 -0.5334  1.0957  1.3340
  173SOL    HW2  519   1.229   2.697   0.780 -0.5285  0.1529 -0.7532
  174SOL     OW  520   0.938   2.786   0.157  0.0068 -0.3331 -0.2922
  174SOL    HW1  521   1.036   2.804   0.130 -2.0188  1.4933 -0.0607
  174SOL    HW2  522   0.914   2.772   0.258 -2.8215  4.1737  0.6999
  175SOL     OW  523   1.103   0.988   3.009  0.2170 -0.3383  0.1005
  175SOL    HW1  524   1.117   1.091   3.010 -0.6877 -0.2617 -3.6376
  175SOL    HW2  525   1.016   0.968   2.958 -2.4375  0.2432 -0.1474
  176SOL     OW  526   1.559   0.820   0.317 -0.4285  0.1672  0.1811
  176SOL    HW1  527   1.514   0.882   0.245 -2.3706 -1.1818 -4.2909
  176SOL    HW2  528   1.497   0.792   0.395 -1.3704 -1.6027 -0.2354
  177SOL     OW  529   1.262   1.275   0.733  0.4847  0.1266  0.5666
  177SOL    HW1  530   1.214   1.181   0.733 -2.2574 -2.5394 -0.5487
  177SOL    HW2  531   1.327   1.275   0.810 -0.0087 -1.0990 -3.2340
  178SOL     OW  532   2.586   1.579   2.541 -0.2061  0.0046  0.3774
  178SOL    HW1  533   2.685   1.569   2.538  0.5677  0.6850  0.7658
  178SOL    HW2  534   2.546   1.607   2.452  0.8479 -2.2947  1.3767
  179SOL     OW  535   0.635   2.777   0.011  0.0830 -0.4172 -0.0489
  179SOL    HW1  536   0.547   2.747   3.064  0.0024  0.0949 -2.3152
  179SOL    HW2  537   0.700   2.696   0.017  1.0211  0.4189  1.1570
  180SOL     OW  538   1.793   1.559   1.414  0.0690  0.5263  0.0083
  180SOL    HW1  539   1.878   1.495   1.405 -0.4898 -2.9160  1.5875
  180SOL    HW2  540   1.735   1.520   1.486  2.1579  0.9841  0.0672
  181SOL     OW  541   1.125   1.354   2.310  0.5120 -0.5512 -0.2809
  181SOL    HW1  542   1.072   1.273   2.276  0.1702 -1.8449 -1.1224
  181SOL    HW2  543   1.202   1.320   2.371  2.1501 -0.2743  1.1487
  182SOL     OW  544   2.846   0.831   2.808 -0.0315 -0.0334 -0.6608
  182SOL    HW1  545   2.853   0.926   2.778  0.4049 -2.4667 -0.9557
  182SOL    HW2  546   2.859   0.818   2.908  0.0406  0.1948 -0.9816
  183SOL     OW  547   1.539   0.207   2.413 -0.1550  0.7633  0.7094
  183SOL    HW1  548   1.567   0.225   2.511  2.9664  0.9198 -1.5744
  183SOL    HW2  549   1.590   0.129   2.374  1.6567  0.2567  1.8788
  184SOL     OW  550   0.234   0.453   1.407 -0.0148 -0.4014  0.2304
  184SOL    HW1  551   0.259   0.491   1.499  2.0311  1.1998  1.6766
  184SOL    HW2  552   0.193   0.529   1.351 -0.3787 -0.3689  0.5310
  185SOL     OW  553   2.581   1.385   0.854 -0.3931 -0.2354 -0.1364
  185SOL    HW1  554   2.624   1.466   0.804 -1.8772  1.5977 -0.3738
  185SOL    HW2  555   2.651   1.319   0.879 -0.3383  2.4913  1.3100
  186SOL     OW  556   0.112   2.198   2.658 -0.1272 -0.7767  0.2330
  186SOL    HW1  557   0.067   2.190   2.567  1.6319  1.3347  1.1594
  186SOL    HW2  558   0.050   2.171   2.734 -0.6713 -0.4819  4.1584
  187SOL     OW  559   2.547   1.866   2.921  0.1470  0.2589  0.0099
  187SOL    HW1  560   2.630   1.844   2.977  2.0678 -0.0962  1.2708
  187SOL    HW2  561   2.481   1.918   2.978  1.1409 -0.2944 -0.4803
  188SOL     OW  562   0.573   2.217   0.327 -0.5725  0.4845 -0.3727
  188SOL    HW1  563   0.589   2.150   0.404 -1.8113 -0.9215  1.7960
  188SOL    HW2  564   0.478   2.202   0.296 -1.6659 -0.9797 -1.4721
  189SOL     OW  565   2.421   1.069   0.249 -0.3200 -0.2554 -0.3832
  189SOL    HW1  566   2.450   1.006   0.325 -1.8446 -0.2911  2.9911
  189SOL    HW2  567   2.498   1.115   0.206 -3.2231  1.1609  0.1120
  190SOL     OW  568   0.927   1.642   2.084  0.4345  0.0035 -0.4108
  190SOL    HW1  569   0.988   1.725   2.090  0.6407  0.7282 -0.5188
  190SOL    HW2  570   0.920   1.619   1.985  1.5260 -0.5069 -2.9887
  191SOL     OW  571   2.670   0.473   1.519 -0.1731  0.1738 -0.7083
  191SOL    HW1  572   2.592   0.521   1.474 -1.6628  2.8913 -0.2934
  191SOL    HW2  573   2.661   0.374   1.506  0.1376  1.5029 -0.1136
  192SOL     OW  574   2.156   0.282   1.588  0.1845 -0.3577  0.2232
  192SOL    HW1  575   2.078   0.312   1.525  1.9545 -0.7139  0.7614
  192SOL    HW2  576   2.140   0.196   1.635  1.1524  3.6308  0.2218
  193SOL     OW  577   3.094   0.659   0.619 -0.4734  0.3012  0.3668
  193SOL    HW1  578   3.080   0.567   0.576  2.2534 -0.6371  0.7913
  193SOL    HW2  579   0.097   0.685   0.610 -1.2316 -2.2775  1.1616
  194SOL     OW  580   1.649   2.652   1.642 -0.0219 -0.0761  0.2160
  194SOL    HW1  581   1.706   2.581   1.598 -2.0824 -0.6981  0.2543
  194SOL    HW2  582   1.613   2.625   1.735  1.0473  1.5096  1.2301
  195SOL     OW  583   2.486   0.744   0.976 -0.1808 -0.7009  0.8953
  195SOL    HW1  584   2.452   0.733   0.879  0.7241 -2.0329  0.6885
  195SOL    HW2  585   2.504   0.843   1.000 -1.5682  1.1902  0.4508
  196SOL     OW  586   1.793   2.112   2.056  0.2523  0.6269  0.0604
  196SOL    HW1  587   1.780   2.026   2.114 -0.3145 -0.9643  2.2002
  196SOL    HW2  588   1.760   2.186   2.114 -0.4348  1.4302 -1.1466
  197SOL     OW  589   0.373   0.018   0.070 -0.6705 -0.3844 -0.0525
  197SOL    HW1  590   0.321   3.077   3.085 -1.3870 -2.5333 -0.4083
  197SOL    HW2  591   0.343   3.075   0.160  1.9549 -0.6207  0.5504
  198SOL     OW  592   0.945   1.302   0.899  1.0491  0.0443  0.2857
  198SOL    HW1  593   1.020   1.370   0.871  2.3984  0.6578  1.0895
  198SOL    HW2  594   0.855   1.314   0.851  0.2518  0.9519 -0.5466
  199SOL     OW  595   2.452   0.699   1.651 -0.0335  0.4307  0.2971
  199SOL    HW1  596   2.478   0.658   1.743  0.9109  3.1016  0.7778
  199SOL    HW2  597   2.512   0.784   1.633  2.3979  1.0521  0.1374
  200SOL     OW  598   2.511   2.652   2.278 -0.1247  0.3874  0.5005
  200SOL    HW1  599   2.527   2.752   2.299  0.5918  0.0304  0.3945
  200SOL    HW2  600   2.463   2.604   2.355  1.1207  1.9913 -0.4510
  201SOL     OW  601   2.726   0.082   1.304 -0.2994 -0.3447 -0.0561
  201SOL    HW1  602   2.699   0.004   1.369 -0.7652 -0.6849 -3.0333
  201SOL    HW2  603   2.747   0.049   1.210  3.5693 -0.3074 -1.0484
  202SOL     OW  604   1.873   0.269   0.446  0.0550 -0.2220 -0.0109
  202SOL    HW1  605   1.954   0.208   0.430 -0.5852 -3.2749  0.5116
  202SOL    HW2  606   1.823   0.239   0.527 -0.2393  0.0963  0.2409
  203SOL     OW  607   1.531   1.943   2.071  0.2300  0.1713  0.4851
  203SOL    HW1  608   1.435   1.912   2.078 -0.7763  0.6225  0.3657
  203SOL    HW2  609   1.547   2.015   2.139  0.7879 -1.5455  2.2686
  204SOL     OW  610   1.037   1.671   2.505  0.0897 -0.2356  0.4731
  204SOL    HW1  611   0.981   1.621   2.437 -1.5538 -0.4049 -0.9986
  204SOL    HW2  612   1.115   1.711   2.459 -3.8349 -1.0527 -0.6960
  205SOL     OW  613   0.884   1.800   1.512  0.6176 -0.4766  0.3616
  205SOL    HW1  614   0.908   1.740   1.428  0.6110 -1.7574 -2.3101
  205SOL    HW2  615   0.813   1.756   1.568 -0.6580  0.9537  0.1968
  206SOL     OW  616   2.870   0.539   3.042  0.2385 -0.1063 -0.1884
  206SOL    HW1  617   2.810   0.528   2.962  1.7438  1.8493 -4.0053
  206SOL    HW2  618   2.831   0.493   0.033 -0.0007 -1.0436  2.8143
  207SOL     OW  619   1.748   2.702   2.284 -0.1406  0.4527  0.6007
  207SOL    HW1  620   1.831   2.759   2.282  0.3683 -0.9399  0.1938
  207SOL    HW2  621   1.749   2.647   2.200 -0.0638 -0.0270 -2.0825
  208SOL     OW  622   0.687   2.406   1.377 -0.4322  0.2228 -0.7289
  208SOL    HW1  623   0.762   2.473   1.374 -0.1637 -1.1325  0.8610
  208SOL    HW2  624   0.637   2.402   1.288  0.5029 -1.6935 -1.2620
  209SOL     OW  625   1.432   1.120   2.217  0.3979  1.0008 -0.3379
  209SOL    HW1  626   1.442   1.191   2.148 -0.4865 -0.6794  0.6744
  209SOL    HW2  627   1.399   1.167   2.303 -1.9621 -0.3476  0.3816
  210SOL     OW  628   1.866   0.904   1.385  0.5288 -0.0272 -0.3749
  210SOL    HW1  629   1.927   0.924   1.304 -3.3666 -1.0394  1.2274
  210SOL    HW2  630   1.765   0.883   1.360 -1.9395 -0.6960  2.7489
  211SOL     OW  631   0.835   2.830   0.648  0.3009 -0.3692  0.0431
  211SOL    HW1  632   0.788   2.881   0.575 -0.4950 -0.5334 -2.1311
  211SOL    HW2  633   0.899   2.890   0.691 -4.1214  0.8070 -0.6960
  212SOL     OW  634   1.725   1.658   0.067  0.3884  0.1447  0.1656
  212SOL    HW1  635   1.738   1.752   0.098 -0.0245 -3.2792 -2.3891
  212SOL    HW2  636   1.798   1.589   0.089 -0.7493 -2.3268 -2.6565
  213SOL     OW  637   1.611   0.306   2.663  0.0105 -0.4061 -0.6335
  213SOL    HW1  638   1.551   0.384   2.688 -0.2237  0.7418 -3.4471
  213SOL    HW2  639   1.665   0.263   2.737  0.0430 -2.9404 -0.0392
  214SOL     OW  640   1.226   1.627   1.933 -0.2696 -0.4408 -0.2875
  214SOL    HW1  641   1.250   1.621   2.029  1.2796 -0.3084  0.0267
  214SOL    HW2  642   1.128   1.608   1.913 -0.8738 -0.5290 -2.5581
  215SOL     OW  643   0.844   1.841   0.190  0.1293 -0.6953  0.6253
  215SOL    HW1  644   0.844   1.946   0.181  3.2957  3.0072  2.4240
  215SOL    HW2  645   0.805   1.818   0.278  0.1539  0.3819 -1.1539
  216SOL     OW  646   0.272   2.817   2.304 -0.3924  0.2093 -0.2643
  216SOL    HW1  647   0.344   2.891   2.283  1.2234 -1.4507 -0.8206
  216SOL    HW2  648   0.276   2.802   2.408 -0.3283 -0.7512  1.1748
  217SOL     OW  649   2.341   1.069   0.964 -0.3697  0.3065 -0.4747
  217SOL    HW1  650   2.334   1.166   0.987  0.2735  0.5020  2.1340
  217SOL    HW2  651   2.248   1.027   0.948 -2.2917 -0.7412 -0.4782
  218SOL     OW  652   1.682   1.625   1.736 -0.3812 -0.1535  0.8268
  218SOL    HW1  653   1.630   1.640   1.824  2.1631 -1.1155  0.8292
  218SOL    HW2  654   1.774   1.589   1.749 -0.9146  1.9896  1.5228
  219SOL     OW  655   1.835   1.302   2.882 -0.3524  0.3529 -0.5239
  219SOL    HW1  656   1.871   1.353   2.803 -0.6549  0.4467  2.1189
  219SOL    HW2  657   1.740   1.324   2.896  1.6588 -2.2011  0.8950
  220SOL     OW  658   1.267   1.436   1.087  0.3256 -0.4217  0.3668
  220SOL    HW1  659   1.209   1.493   1.022 -2.0778  0.0686 -2.3349
  220SOL    HW2  660   1.344   1.398   1.032  1.1622  0.8057 -0.0036
  221SOL     OW  661   0.728   0.483   2.747 -0.5189  0.0499 -0.2838
  221SOL    HW1  662   0.783   0.569   2.756 -0.6369 -1.8591 -0.4641
  221SOL    HW2  663   0.682   0.473   2.836 -0.1937 -0.6586  0.3283
  222SOL     OW  664   1.124   1.425   0.561 -0.0362  0.0344  0.0440
  222SOL    HW1  665   1.178   1.398   0.638 -2.8585  0.6728 -0.2547
  222SOL    HW2  666   1.079   1.339   0.525 -0.3779  0.8741  0.3704
  223SOL     OW  667   0.970   2.916   2.841  0.6041 -0.9004  0.7034
  223SOL    HW1  668   1.071   2.907   2.831 -0.4697 -0.7274  2.6852
  223SOL    HW2  669   0.942   2.931   2.937  1.1826 -2.2231 -2.9809
  224SOL     OW  670   2.516   0.297   1.307  0.0457  0.5943 -0.5477
  224SOL    HW1  671   2.427   0.258   1.279  3.6788 -1.2482  0.6333
  224SOL    HW2  672   2.593   0.238   1.277  0.1035  0.6615 -0.3187
  225SOL     OW  673   0.648   0.328   1.319 -0.6635  0.4824  0.1272
  225SOL    HW1  674   0.644   0.403   1.253  1.4044 -0.7343  1.1502
  225SOL    HW2  675   0.736   0.281   1.325 -4.1549 -1.6244 -1.3874
  226SOL     OW  676   1.529   1.650   2.861 -0.3767  0.9284  0.2733
  226SOL    HW1  677   1.462   1.633   2.785  1.2494  0.7491  1.8099
  226SOL    HW2  678   1.483   1.679   2.944  1.1505 -0.0849  0.0548
  227SOL     OW  679   0.943   1.677   1.280  0.1292 -0.5402 -0.1806
  227SOL    HW1  680   0.876   1.621   1.236  0.5696  2.8830  2.6130
  227SOL    HW2  681   1.033   1.631   1.300 -0.0067  0.6472 -1.1254
  228SOL     OW  682   0.526   1.737   0.604  0.0083  0.3994 -0.0023
  228SOL    HW1  683   0.551   1.641   0.598 -0.7514  0.9383  2.8328
  228SOL    HW2  684   0.527   1.776   0.698  0.2683 -3.1764 -1.2525
  229SOL     OW  685   0.853   0.428   0.066 -0.0167 -0.2304  0.3115
  229SOL    HW1  686   0.928   0.472   0.017  0.8366  2.9323 -0.0897
  229SOL    HW2  687   0.845   0.476   0.154  1.6281  0.7001 -1.2377
  230SOL     OW  688   1.158   0.527   2.116  0.1182  0.5829 -0.0471
  230SOL    HW1  689   1.065   0.558   2.142 -3.1874 -3.1026 -3.6150
  230SOL    HW2  690   1.172   0.425   2.139 -1.2853 -0.3457  0.4007
  231SOL     OW  691   1.252   1.770   2.289  0.5958  0.0940  0.2708
  231SOL    HW1  692   1.295   1.839   2.350 -1.4062 -3.0619 -2.8037
  231SOL    HW2  693   1.168   1.810   2.247 -0.7168  0.0026  2.2600
  232SOL     OW  694   2.420   1.844   1.092 -0.0492 -0.5338  1.0759
  232SOL    HW1  695   2.424   1.778   1.008  0.4279 -2.4305 -3.6109
  232SOL    HW2  696   2.358   1.803   1.164  0.6508  0.9580  1.4588
  233SOL     OW  697   2.462   2.989   0.361  0.2285  0.2564 -0.3675
  233SOL    HW1  698   2.404   3.056   0.411 -1.2458  2.0528 -1.4893
  233SOL    HW2  699   2.425   2.974   0.266 -0.6256  0.1040  0.4654
  234SOL     OW  700   0.994   0.083   2.781  0.3235 -0.6303 -0.7201
  234SOL    HW1  701   1.002   3.077   2.776  1.1672 -1.7169 -1.6576
  234SOL    HW2  702   1.022   0.120   2.872 -2.0826  1.0982  0.4736
  235SOL     OW  703   2.541   0.314   2.738 -0.2186 -0.1723 -0.1422
  235SOL    HW1  704   2.437   0.298   2.745  0.8315  0.5794  1.5391
  235SOL    HW2  705   2.570   0.370   2.653  0.6450  1.8472 -3.3980
  236SOL     OW  706   2.188   2.535   2.233  0.3776  0.2561 -0.1464
  236SOL    HW1  707   2.248   2.520   2.316 -0.7125  0.6842  0.5598
  236SOL    HW2  708   2.090   2.520   2.264 -0.4273  0.1829  0.8738
  237SOL     OW  709   0.911   1.502   2.344 -0.7426 -0.7750 -0.1210
  237SOL    HW1  710   0.919   1.542   2.251 -0.5541  0.0165  3.1510
  237SOL    HW2  711   0.989   1.435   2.356  0.7257  0.0908  1.5550
  238SOL     OW  712   1.868   0.087   2.471 -0.3681 -0.4573 -0.3671
  238SOL    HW1  713   1.805   0.048   2.541 -1.6061 -0.1053 -0.5621
  238SOL    HW2  714   1.959   0.037   2.470  1.3012  0.3809  0.4038
  239SOL     OW  715   0.118   1.838   1.643 -0.7958 -0.0916  0.0949
  239SOL    HW1  716   0.213   1.804   1.649 -0.8149  0.0227  2.1394
  239SOL    HW2  717   0.061   1.771   1.691  2.0771  1.4863  0.9236
  240SOL     OW  718   2.898   2.496   0.806  0.1710  0.1495 -0.4032
  240SOL    HW1  719   2.956   2.413   0.803 -3.2361 -1.3265  1.6216
  240SOL    HW2  720   2.882   2.533   0.712 -1.4533  0.0826  1.5866
  241SOL     OW  721   2.137   1.472   0.808  0.2305 -0.6424  0.2535
  241SOL    HW1  722   2.203   1.414   0.744  1.4713 -0.8765 -2.5393
  241SOL    HW2  723   2.049   1.416   0.808 -1.0313  2.5822 -0.4498
  242SOL     OW  724   1.788   1.943   2.753 -0.3671  0.3016 -0.1447
  242SOL    HW1  725   1.885   1.930   2.727  2.8007  0.5027  0.3271
  242SOL    HW2  726   1.777   1.973   2.853 -0.6728  1.3749 -0.1726
  243SOL     OW  727   0.612   2.569   1.825  0.2354 -0.2638 -0.3261
  243SOL    HW1  728   0.631   2.624   1.912  3.0521  0.1255  2.8067
  243SOL    HW2  729   0.566   2.632   1.759  1.4952  0.6016 -0.0178
  244SOL     OW  730   2.244   0.041   2.829 -0.1629 -0.2357 -0.2953
  244SOL    HW1  731   2.257   0.143   2.813 -1.6337  0.7135  1.2475
  244SOL    HW2  732   2.192   3.095   2.755  1.9044  0.1510 -0.3874
  245SOL     OW  733   1.411   2.944   0.905 -0.3554  0.2375 -0.5150
  245SOL    HW1  734   1.390   2.983   0.999  0.0517  0.2230  0.7233
  245SOL    HW2  735   1.335   2.887   0.874 -0.7948  2.9844 -0.6152
  246SOL     OW  736   1.406   2.657   0.252 -0.0710  0.3665  0.2354
  246SOL    HW1  737   1.439   2.721   0.327  0.1626 -2.4330 -0.5423
  246SOL    HW2  738   1.477   2.641   0.182  0.1796 -0.7714 -2.6750
  247SOL     OW  739   0.873   0.540   2.224  0.5688  0.3058 -0.4248
  247SOL    HW1  740   0.771   0.569   2.223 -3.6464  0.8710 -0.9989
  247SOL    HW2  741   0.883   0.461   2.288  0.8013 -0.8273 -1.8361
  248SOL     OW  742   0.681   1.589   1.955  1.0775  0.1804 -0.2501
  248SOL    HW1  743   0.754   1.614   2.025  0.8525  1.8315  1.5832
  248SOL    HW2  744   0.725   1.540   1.875  0.9480 -1.7156 -3.4477
  249SOL     OW  745   2.349   0.451   0.474 -0.2182 -0.6721 -0.2350
  249SOL    HW1  746   2.362   0.350   0.492  1.6284  0.3618 -1.4092
  249SOL    HW2  747   2.263   0.496   0.505  3.4073  0.1621 -0.5852
  250SOL     OW  748   0.525   0.244   0.639 -0.2400  0.6596 -0.5024
  250SOL    HW1  749   0.435   0.208   0.614  1.8897 -0.9005 -2.3273
  250SOL    HW2  750   0.589   0.165   0.665 -0.8655  2.2593  0.2205
  251SOL     OW  751   1.788   0.186   2.832 -0.1104 -0.8800 -0.4051
  251SOL    HW1  752   1.853   0.254   2.867 -1.1055  0.6513 -0.0855
  251SOL    HW2  753   1.816   0.088   2.842 -1.9363  0.3473  1.0812
  252SOL     OW  754   1.559   1.681   2.018 -0.6455 -0.6424 -0.4517
  252SOL    HW1  755   1.619   1.613   2.066 -1.4504  1.2941  0.3435
  252SOL    HW2  756   1.566   1.777   2.057 -1.5568 -0.8574 -0.1831
  253SOL     OW  757   2.664   2.445   1.694 -0.2456 -0.3977  0.0229
  253SOL    HW1  758   2.686   2.399   1.783 -0.7557 -2.1020  1.7757
  253SOL    HW2  759   2.717   2.398   1.621 -1.5698 -0.2930  0.6309
  254SOL     OW  760   0.038   1.253   1.189  0.4467  1.1638 -0.1303
  254SOL    HW1  761   3.072   1.177   1.206  2.6355  1.7891 -0.6853
  254SOL    HW2  762   0.062   1.302   1.278  2.1538  1.4954 -2.5637
  255SOL     OW  763   0.850   0.690   1.242 -0.7954  0.5572 -0.6098
  255SOL    HW1  764   0.861   0.645   1.330  1.9220  2.2594  0.2202
  255SOL    HW2  765   0.792   0.640   1.179  1.1388  2.0865  3.7694
  256SOL     OW  766   2.077   2.633   1.525  0.0979  0.0992 -0.1260
  256SOL    HW1  767   2.109   2.713   1.582  0.9009 -0.6933 -1.1951
  256SOL    HW2  768   2.014   2.571   1.578 -0.1414  3.5260  1.8807
  257SOL     OW  769   0.578   2.645   2.712  0.0095 -0.3425 -0.6512
  257SOL    HW1  770   0.658   2.692   2.668 -3.5975  2.0064 -0.1303
  257SOL    HW2  771   0.581   2.546   2.683  1.9715 -0.1197 -0.8880
  258SOL     OW  772   0.801   2.559   0.057  0.2670 -0.0949 -0.2125
  258SOL    HW1  773   0.750   2.529   0.138 -0.0965 -1.5826  0.0855
  258SOL    HW2  774   0.860   2.640   0.076  1.5878 -1.1318  1.3165
  259SOL     OW  775   1.039   3.083   1.972 -0.1484 -0.1057 -0.1134
  259SOL    HW1  776   1.047   0.082   1.936  1.6535 -0.3708 -1.5762
  259SOL    HW2  777   0.966   3.037   1.917 -3.8094 -0.0254 -2.2536
  260SOL     OW  778   1.674   0.699   1.133 -0.4443  0.5999  0.7732
  260SOL    HW1  779   1.742   0.634   1.165 -1.7545  0.2178 -1.0223
  260SOL    HW2  780   1.647   0.768   1.200  2.5759 -0.3592  0.2892
  261SOL     OW  781   0.513   0.373   2.628 -0.5954 -0.0311  0.1282
  261SOL    HW1  782   0.480   0.311   2.698  1.3647  0.0750 -2.4641
  261SOL    HW2  783   0.600   0.418   2.657 -3.0089  1.9752  0.6058
  262SOL     OW  784   0.182   2.446   1.921  0.3241  0.1129  0.4482
  262SOL    HW1  785   0.108   2.472   1.989  2.3192  1.2850  0.6256
  262SOL    HW2  786   0.196   2.344   1.917 -0.8289  2.3778  2.1068
  263SOL     OW  787   2.866   1.604   2.137 -0.0630  0.4090  0.4469
  263SOL    HW1  788   2.866   1.706   2.159  0.8819  1.2297  0.3025
  263SOL    HW2  789   2.958   1.558   2.112  1.7130 -0.3436 -1.8687
  264SOL     OW  790   0.574   1.045   1.010 -0.0918 -0.2684 -0.0432
  264SOL    HW1  791   0.535   0.967   1.069  1.7620 -0.0262  1.2933
  264SOL    HW2  792   0.496   1.094   0.962  1.3748  1.8500 -2.0658
  265SOL     OW  793   0.987   2.471   0.897  0.5075 -0.0712  0.0588
  265SOL    HW1  794   0.954   2.440   0.986  3.5643  0.7008 -4.4489
  265SOL    HW2  795   1.086   2.496   0.903  0.7426  0.7625 -1.9643
  266SOL     OW  796   1.449   1.246   0.962 -0.0698 -0.0003 -0.0891
  266SOL    HW1  797   1.483   1.230   1.055 -3.8914  0.4962 -0.6732
  266SOL    HW2  798   1.529   1.258   0.895  0.1210 -1.4811 -2.0765
  267SOL     OW  799   2.595   1.229   0.097  0.1574 -0.3376 -0.2295
  267SOL    HW1  800   2.663   1.299   0.113 -2.1678 -1.3579  0.7207
  267SOL    HW2  801   2.619   1.165   0.018 -1.4782 -4.3301 -1.3180
  268SOL     OW  802   1.392   0.438   0.266 -0.1977  0.4991 -0.3150
  268SOL    HW1  803   1.488   0.471   0.262  0.2586 -0.7173 -2.3251
  268SOL    HW2  804   1.368   0.389   0.178 -0.8323  0.0027 -0.1728
  269SOL     OW  805   2.159   0.578   2.916 -0.8623  0.4298 -0.5072
  269SOL    HW1  806   2.236   0.545   2.981 -0.1702 -0.5247  3.6641
  269SOL    HW2  807   2.131   0.666   2.947  0.2475 -2.6764  0.8978
  270SOL     OW  808   0.288   0.789   0.009 -0.9339  0.1711  0.2720
  270SOL    HW1  809   0.266   0.883   0.045  1.9289 -0.4625 -0.7353
  270SOL    HW2  810   0.384   0.776   3.074  1.0305  0.3239  0.9421
  271SOL     OW  811   2.588   0.871   0.363  0.4010 -0.0989  0.0540
  271SOL    HW1  812   2.661   0.941   0.342  1.2786 -0.5138  0.6310
  271SOL    HW2  813   2.612   0.821   0.445  0.9403 -2.3349 -2.8829
  272SOL     OW  814   0.008   2.588   0.024  0.1805 -0.0158 -0.2576
  272SOL    HW1  815   3.003   2.568   0.023 -1.8051  1.7511 -0.2114
  272SOL    HW2  816   0.047   2.570   0.119 -2.9814  0.5186 -0.3543
  273SOL     OW  817   2.857   2.996   0.053 -0.6448 -0.1410 -0.2022
  273SOL    HW1  818   2.956   2.975   0.058  1.4620 -2.9192 -0.6040
  273SOL    HW2  819   2.837   3.077   0.112 -1.4955  1.2596 -0.0864
  274SOL     OW  820   0.556   2.485   1.149  0.3077 -0.8020 -0.8887
  274SOL    HW1  821   0.596   2.571   1.117 -1.6284  0.8118 -0.0266
  274SOL    HW2  822   0.538   2.419   1.072  2.6186  0.0955 -0.1305
  275SOL     OW  823   2.786   1.419   0.127  0.5736 -0.4334  0.1300
  275SOL    HW1  824   2.818   1.507   0.088 -0.2942 -1.8694  0.4861
  275SOL    HW2  825   2.862   1.352   0.117  1.4390  1.5338  0.8821
  276SOL     OW  826   2.955   1.203   1.808  0.3544  0.6159  0.6283
  276SOL    HW1  827   2.949   1.103   1.781 -1.2127 -1.6630 -1.9062
  276SOL    HW2  828   3.049   1.237   1.790 -1.1441 -3.5835 -1.5795
  277SOL     OW  829   2.107   0.150   1.048 -0.2534 -0.1780 -0.1654
  277SOL    HW1  830   2.162   0.084   0.994  0.8696 -0.3746  1.8982
  277SOL    HW2  831   2.102   0.236   0.992  0.9534  0.2439 -0.2787
  278SOL     OW  832   1.530   2.455   2.395 -0.6965 -0.4248 -0.2212
  278SOL    HW1  833   1.479   2.531   2.347 -0.8064  0.0073  1.0077
  278SOL    HW2  834   1.463   2.396   2.443 -1.2052  1.4335 -2.6815
  279SOL     OW  835   1.669   1.709   0.547 -0.7241 -0.1568 -0.6417
  279SOL    HW1  836   1.747   1.769   0.545 -1.9380 -1.5876 -0.4785
  279SOL    HW2  837   1.599   1.743   0.480  3.1679  0.1941 -1.1887
  280SOL     OW  838   0.270   1.352   1.149  0.2653 -0.3135 -0.5908
  280SOL    HW1  839   0.287   1.391   1.057  2.3221 -1.2866 -0.7781
  280SOL    HW2  840   0.183   1.303   1.152  1.7572  0.9162  1.0559
  281SOL     OW  841   0.063   0.960   2.444 -0.6623  0.5378  0.0481
  281SOL    HW1  842   0.045   0.865   2.426 -0.3210  0.2574  1.9515
  281SOL    HW2  843   0.122   0.965   2.527  2.7546 -0.1297  2.6269
  282SOL     OW  844   0.711   1.523   0.308  0.0649 -0.0727  0.1567
  282SOL    HW1  845   0.697   1.531   0.205 -0.6933  1.6135  0.1237
  282SOL    HW2  846   0.795   1.565   0.342 -2.4210 -0.1605 -3.0890
  283SOL     OW  847   2.135   2.288   0.147  0.1935  0.3860 -0.3699
  283SOL    HW1  848   2.087   2.379   0.174 -1.5062  1.8419  0.2693
  283SOL    HW2  849   2.230   2.303   0.134 -4.4129 -0.2468  1.3526
  284SOL     OW  850   1.169   0.261   0.437 -0.5579 -0.5753 -0.2544
  284SOL    HW1  851   1.164   0.234   0.339 -0.5856  0.4297  0.5810
  284SOL    HW2  852   1.081   0.309   0.456 -0.4804  1.3114 -0.7751
  285SOL     OW  853   2.296   1.172   2.879  0.2514 -0.2428  0.3043
  285SOL    HW1  854   2.339   1.076   2.890 -1.3630  0.5789 -0.5919
  285SOL    HW2  855   2.365   1.247   2.894  2.7557  2.4819  1.0387
  286SOL     OW  856   1.914   2.261   1.052  0.7257 -0.3913  0.0137
  286SOL    HW1  857   1.872   2.331   1.108  0.7627 -0.8225  0.0339
  286SOL    HW2  858   1.845   2.180   1.047 -3.9668 -1.9200  2.4282
  287SOL     OW  859   1.277   0.450   0.768 -0.0567  0.1791  0.7357
  287SOL    HW1  860   1.314   0.425   0.675  1.9133  0.2212 -1.0506
  287SOL    HW2  861   1.336   0.527   0.803  0.3201  1.1678  2.6342
  288SOL     OW  862   1.261   2.251   2.797  0.1396 -0.3952 -0.0678
  288SOL    HW1  863   1.161   2.269   2.777  1.7197 -2.1595 -1.1263
  288SOL    HW2  864   1.278   2.257   2.900  0.2251 -0.9638 -0.4492
  289SOL     OW  865   0.074   1.346   1.451 -0.1864 -0.3563  0.2212
  289SOL    HW1  866   0.146   1.420   1.464 -0.5436 -2.3245 -0.2187
  289SOL    HW2  867   0.044   1.302   1.539 -1.2956  0.5733 -0.2829
  290SOL     OW  868   1.507   2.180   0.847  0.0876 -0.2191  0.0756
  290SOL    HW1  869   1.462   2.154   0.936 -1.2701  0.8928  0.5942
  290SOL    HW2  870   1.608   2.184   0.857  1.6110  0.3788 -3.6811
  291SOL     OW  871   1.942   2.950   0.039 -0.0656  0.1750 -0.1853
  291SOL    HW1  872   1.847   2.945   0.069  0.4827 -1.8881 -0.2125
  291SOL    HW2  873   2.008   2.944   0.114  1.5016  0.6139 -0.4257
  292SOL     OW  874   0.717   0.161   1.704  0.4898 -0.4892 -0.1109
  292SOL    HW1  875   0.788   0.221   1.662 -1.1415 -1.1506  1.8691
  292SOL    HW2  876   0.698   0.192   1.798 -1.5172  2.6976 -1.7447
  293SOL     OW  877   2.371   2.314   1.001  0.0483  0.0494  0.2900
  293SOL    HW1  878   2.470   2.315   1.014  0.1703  3.1040 -0.7718
  293SOL    HW2  879   2.327   2.404   1.018 -0.1699 -1.0757 -1.2365
  294SOL     OW  880   0.649   0.812   2.253 -0.8100  0.2278 -0.4677
  294SOL    HW1  881   0.744   0.802   2.212  1.7945 -1.7026  0.0758
  294SOL    HW2  882   0.595   0.729   2.229 -1.8928  1.7055  1.7907
  295SOL     OW  883   1.621   1.508   1.203  0.7020 -0.2420  0.0289
  295SOL    HW1  884   1.681   1.519   1.286  1.1968  0.6586 -2.7028
  295SOL    HW2  885   1.667   1.555   1.119 -0.4515  1.8957 -1.9630
  296SOL     OW  886   2.596   1.778   0.263  0.0096 -0.0170 -0.3892
  296SOL    HW1  887   2.637   1.817   0.177 -1.1994 -1.2022 -1.6854
  296SOL    HW2  888   2.508   1.821   0.286  1.3249 -1.2242 -0.7469
  297SOL     OW  889   2.090   0.123   0.445 -0.0960  0.3319 -0.1933
  297SOL    HW1  890   2.155   0.132   0.363  0.4603 -1.7660 -1.6926
  297SOL    HW2  891   2.139   0.097   0.528 -0.9601  0.1821 -2.0394
  298SOL     OW  892   0.845   2.739   2.652  0.0923  0.2436 -0.4258
  298SOL    HW1  893   0.891   2.750   2.562  1.3415 -0.7878  1.4914
  298SOL    HW2  894   0.861   2.816   2.714  3.3847  1.2058 -3.3697
  299SOL     OW  895   1.087   2.132   2.102  0.1026 -0.0572 -0.2085
  299SOL    HW1  896   1.073   2.203   2.032  0.1952  2.4482  1.2445
  299SOL    HW2  897   1.107   2.174   2.192  0.3931  0.4186 -1.5273
  300SOL     OW  898   2.779   0.226   2.831  0.1239 -0.1309  0.6391
  300SOL    HW1  899   2.772   0.132   2.863  1.0332 -0.1037  0.6529
  300SOL    HW2  900   2.692   0.256   2.789 -1.3251  1.2867 -0.0326
  301SOL     OW  901   1.028   1.176   1.870  0.4451  0.4038 -0.1838
  301SOL    HW1  902   1.029   1.240   1.794 -0.1950  1.9986  1.9242
  301SOL    HW2  903   1.120   1.133   1.874 -1.0055  0.2813 -0.4490
  302SOL     OW  904   2.733   2.276   0.445 -0.2554  0.5957  0.8571
  302SOL    HW1  905   2.680   2.362   0.455  2.1503 -1.2520 -1.7512
  302SOL    HW2  906   2.688   2.202   0.494 -1.7842  3.1830  3.0273
  303SOL     OW  907   2.428   2.442   1.799  0.1639 -0.0543  0.3210
  303SOL    HW1  908   2.521   2.447   1.756 -2.5498  1.3103  1.4561
  303SOL    HW2  909   2.431   2.449   1.903 -0.4602 -2.0163  3.3493
  304SOL     OW  910   3.008   0.935   1.771 -0.2371 -0.0929 -0.3218
  304SOL    HW1  911   2.925   0.889   1.811 -4.4074 -0.7244  0.4714
  304SOL    HW2  912   3.035   0.893   1.684  0.6830  0.1739 -0.2146
  305SOL     OW  913   0.579   1.641   1.350 -0.2390 -0.7057  0.1794
  305SOL    HW1  914   0.590   1.657   1.453 -0.8196 -1.0819  3.1689
  305SOL    HW2  915   0.547   1.545   1.336 -0.6073 -3.4725  1.2286
  306SOL     OW  916   0.294   1.446   2.106  0.7646 -0.3576 -0.1812
  306SOL    HW1  917   0.356   1.379   2.077  0.8150  1.4663  1.0072
  306SOL    HW2  918   0.323   1.484   2.197  0.9336 -0.1579  0.3639
  307SOL     OW  919   0.896   0.610   1.764 -0.1495  0.3447  0.0702
  307SOL    HW1  920   0.830   0.582   1.692 -0.6771 -0.0413 -0.1889
  307SOL    HW2  921   0.987   0.644   1.723  1.7331  0.7387 -0.9721
  308SOL     OW  922   2.943   1.039   1.219  0.0027 -0.0308 -0.0943
  308SOL    HW1  923   2.914   0.980   1.297 -2.6230  2.3295 -1.2709
  308SOL    HW2  924   2.924   0.990   1.133  2.1916  3.0808 -1.3670
  309SOL     OW  925   2.669   1.235   1.168 -0.3797  0.3050 -0.4656
  309SOL    HW1  926   2.729   1.264   1.245  0.2635  1.9244 -0.3264
  309SOL    HW2  927   2.726   1.233   1.080 -1.6499  0.0501 -1.0508
  310SOL     OW  928   2.889   2.237   2.662 -0.4893 -0.1139 -0.0420
  310SOL    HW1  929   2.957   2.201   2.729 -1.3291  0.0772  0.6001
  310SOL    HW2  930   2.935   2.303   2.597  3.1417  3.0321  0.0754
  311SOL     OW  931   2.711   2.641   2.794  0.2056  0.7213  0.0194
  311SOL    HW1  932   2.798   2.699   2.796  0.7128 -1.4266 -0.5168
  311SOL    HW2  933   2.654   2.663   2.710 -0.7091 -0.3239 -1.4936
  312SOL     OW  934   2.162   1.862   0.170 -0.1008 -0.0171  0.3599
  312SOL    HW1  935   2.099   1.939   0.183 -1.8663  2.7530 -0.3823
  312SOL    HW2  936   2.118   1.783   0.115 -0.9220 -3.6869 -0.7911
  313SOL     OW  937   2.651   2.923   0.558 -0.7352 -0.4165 -0.1505
  313SOL    HW1  938   2.632   2.958   0.464 -0.4543  0.0904 -2.3354
  313SOL    HW2  939   2.743   2.881   0.568  1.1286 -0.3103 -0.5612
  314SOL     OW  940   1.637   1.187   0.101 -0.3187  0.0035 -0.3936
  314SOL    HW1  941   1.601   1.204   0.011 -3.9979 -1.8298  2.5432
  314SOL    HW2  942   1.617   1.265   0.164 -1.8452 -0.3386 -0.7484
  315SOL     OW  943   1.425   2.803   2.013  0.1817 -0.4306  0.4863
  315SOL    HW1  944   1.340   2.833   2.062 -2.1361  2.1517  2.8025
  315SOL    HW2  945   1.471   2.884   1.967  2.0932  0.0936 -2.7894
  316SOL     OW  946   2.836   0.809   3.068  0.3889 -0.0590  0.1765
  316SOL    HW1  947   2.896   0.846   0.044 -2.4097 -2.0408 -1.8038
  316SOL    HW2  948   2.845   0.705   3.057  1.1683  0.7289 -1.6740
  317SOL     OW  949   0.576   2.803   0.267 -0.3911 -0.3154  0.0848
  317SOL    HW1  950   0.489   2.856   0.273 -1.1529  3.3401 -0.3355
  317SOL    HW2  951   0.602   2.793   0.169  0.8205 -1.2701 -2.8690
  318SOL     OW  952   2.190   2.718   0.514  0.2076 -0.3922  0.1864
  318SOL    HW1  953   2.158   2.626   0.545  0.6271  3.7841 -0.2993
  318SOL    HW2  954   2.208   2.710   0.413 -0.3672 -0.4237  2.0370
  319SOL     OW  955   1.016   1.920   2.941  0.8031 -0.1599  0.3250
  319SOL    HW1  956   0.970   1.995   2.991  0.8756  1.0549  0.1589
  319SOL    HW2  957   0.946   1.880   2.877  0.0594 -1.3176 -1.7284
  320SOL     OW  958   0.297   2.185   1.954 -0.2223 -0.4457 -0.5200
  320SOL    HW1  959   0.363   2.107   1.957  0.3969 -3.9836  0.5931
  320SOL    HW2  960   0.205   2.164   1.988  1.2338  0.6446  1.6114
  321SOL     OW  961   1.277   3.014   2.372  0.4524  0.5693 -0.0601
  321SOL    HW1  962   1.283   2.911   2.376  1.3566  0.9224 -1.0731
  321SOL    HW2  963   1.333   3.049   2.294 -0.1090 -0.7552 -0.3040
  322SOL     OW  964   2.632   1.513   2.068 -0.2301 -0.5836 -0.2855
  322SOL    HW1  965   2.725   1.541   2.096 -1.0359 -0.5446 -0.7964
  322SOL    HW2  966   2.587   1.452   2.138 -0.5797 -1.9841  2.4812
  323SOL     OW  967   2.543   0.997   1.098  0.4010 -0.2048  0.8468
  323SOL    HW1  968   2.450   1.023   1.056 -2.3892 -0.2639  0.4092
  323SOL    HW2  969   2.589   1.080   1.138  2.1842  0.1316  0.8262
  324SOL     OW  970   2.757   0.229   2.202  0.3476 -0.5582  0.0209
  324SOL    HW1  971   2.809   0.244   2.293 -0.0015  0.8797  1.4930
  324SOL    HW2  972   2.670   0.280   2.203 -0.5778  0.2357 -1.8368
  325SOL     OW  973   1.054   0.696   2.584 -0.0303 -0.3863  0.4684
  325SOL    HW1  974   1.095   0.603   2.586  1.1398  0.7064 -0.6717
  325SOL    HW2  975   1.026   0.720   2.490 -0.2085 -1.0853  2.4077
  326SOL     OW  976   2.020   2.998   1.887  0.6422 -0.4045 -0.2951
  326SOL    HW1  977   1.956   3.044   1.950  2.2170 -0.3802 -1.4877
  326SOL    HW2  978   2.068   2.918   1.926  1.4275  2.1081 -0.7366
  327SOL     OW  979   2.169   0.498   0.231  0.0328  0.3583  0.3665
  327SOL    HW1  980   2.173   0.466   0.330  0.3114 -1.6676  1.2945
  327SOL    HW2  981   2.234   0.449   0.169 -0.7843 -3.3337  1.3199
  328SOL     OW  982   0.196   1.558   2.592 -0.6017  0.0804 -0.3382
  328SOL    HW1  983   0.234   1.468   2.556  2.9194 -3.1202 -1.9985
  328SOL    HW2  984   0.155   1.614   2.516  1.3237  0.3771  2.5339
  329SOL     OW  985   2.072   0.052   1.665  0.5270 -0.1726 -0.5453
  329SOL    HW1  986   2.054   3.093   1.748 -1.2273  0.9622  0.9045
  329SOL    HW2  987   2.105   3.094   1.584  0.8815 -0.1912  0.6386
  330SOL     OW  988   0.352   1.125   0.866 -0.2842 -0.2036 -0.1677
  330SOL    HW1  989   0.256   1.098   0.897  2.1238  2.0321 -1.5717
  330SOL    HW2  990   0.352   1.227   0.861  3.1467  0.5195  0.6182
  331SOL     OW  991   0.166   1.813   2.277  0.5377  0.6891 -0.1832
  331SOL    HW1  992   0.090   1.763   2.317  0.5561 -1.0981  0.6649
  331SOL    HW2  993   0.251   1.805   2.345  0.1926 -2.2257  1.4736
  332SOL     OW  994   0.012   2.941   1.479 -0.0679  0.1823  0.0781
  332SOL    HW1  995   0.075   2.876   1.524 -2.5728  1.0401  0.1737
  332SOL    HW2  996   3.047   2.888   1.429 -1.7797  3.0414 -0.7710
  333SOL     OW  997   2.209   0.152   0.742  0.0283 -0.6291 -0.0331
  333SOL    HW1  998   2.121   0.104   0.741 -0.0375  2.1129 -0.3757
  333SOL    HW2  999   2.204   0.231   0.805 -0.3108  1.2616  3.7993
  334SOL     OW 1000   0.479   2.165   0.714 -0.2737  0.1220 -0.4149
  334SOL    HW1 1001   0.552   2.126   0.659 -0.1961 -0.8513  0.5231
  334SOL    HW2 1002   0.391   2.161   0.662 -1.2021  0.6220 -0.9028
  335SOL     OW 1003   0.125   2.527   0.251  0.5549 -0.2827 -0.8026
  335SOL    HW1 1004   0.086   2.481   0.332 -0.2510 -3.5619  0.8560
  335SOL    HW2 1005   0.210   2.485   0.216  2.1679  1.8661 -4.0636
  336SOL     OW 1006   0.113   3.048   2.318  0.4169  0.7331 -0.0500
  336SOL    HW1 1007   0.035   3.060   2.257  1.8958 -0.9741 -0.2168
  336SOL    HW2 1008   0.182   2.977   2.283 -1.1751 -0.7643 -2.9626
  337SOL     OW 1009   2.456   2.360   2.654  0.5860 -0.0371  0.1408
  337SOL    HW1 1010   2.472   2.403   2.748 -0.7431  1.6349  1.5460
  337SOL    HW2 1011   2.487   2.262   2.649  0.1842 -0.1428 -2.0406
  338SOL     OW 1012   0.663   0.653   0.607  0.3793 -0.1309 -0.2037
  338SOL    HW1 1013   0.579   0.647   0.671 -4.2492 -1.7046  0.4289
  338SOL    HW2 1014   0.756   0.643   0.644 -1.4161 -0.7609 -0.7586
  339SOL     OW 1015   0.257   0.774   2.038  0.1076  0.3919  0.0215
  339SOL    HW1 1016   0.281   0.795   2.137 -0.6541  0.6251  2.8048
  339SOL    HW2 1017   0.260   0.857   1.983  0.9179 -1.6133  0.1739
  340SOL     OW 1018   1.703   2.938   0.275 -0.4182 -0.5890 -0.0573
  340SOL    HW1 1019   1.777   2.976   0.336  1.4029  4.5842  0.3948
  340SOL    HW2 1020   1.636   3.014   0.249 -1.7984  3.9150 -0.3846
  341SOL     OW 1021   2.021   0.934   1.159  0.2654 -0.0362 -0.3554
  341SOL    HW1 1022   1.964   0.904   1.081  2.5629  2.0995  0.1776
  341SOL    HW2 1023   2.124   0.909   1.153  0.7601  0.3978  0.7439
  342SOL     OW 1024   2.414   2.925   0.098  0.1281 -0.1486 -0.1602
  342SOL    HW1 1025   2.334   2.981   0.066 -0.1066 -0.2458 -0.5416
  342SOL    HW2 1026   2.460   2.870   0.029  2.1621  1.6463 -0.2926
  343SOL     OW 1027   1.506   2.192   1.732 -0.1659  0.0279  0.0916
  343SOL    HW1 1028   1.580   2.125   1.756  0.3704 -0.0035  0.6060
  343SOL    HW2 1029   1.418   2.149   1.755  3.9218 -1.7706 -1.0429
  344SOL     OW 1030   2.469   2.615   1.025  0.6933 -0.1843  0.6157
  344SOL    HW1 1031   2.389   2.609   0.957 -3.3060  0.5012  0.2582
  344SOL    HW2 1032   2.431   2.626   1.118 -2.1368 -0.2824  1.0984
  345SOL     OW 1033   2.830   2.102   0.016 -0.4041  0.1357 -0.0056
  345SOL    HW1 1034   2.889   2.136   3.031  2.0544  0.5988  0.5214
  345SOL    HW2 1035   2.854   2.163   0.088 -0.6932 -0.1617  0.3144
  346SOL     OW 1036   2.706   1.560   0.659 -0.4498  0.2172  0.1422
  346SOL    HW1 1037   2.707   1.547   0.557 -2.5059 -0.3840  1.1791
  346SOL    HW2 1038   2.649   1.640   0.686  0.8657 -0.0133  3.2352
  347SOL     OW 1039   1.690   2.008   1.825  0.3773  0.3778 -0.2479
  347SOL    HW1 1040   1.754   2.054   1.886  2.0334 -3.6515 -2.1018
  347SOL    HW2 1041   1.619   1.955   1.881 -0.6516 -1.1196  1.8215
  348SOL     OW 1042   0.629   1.682   2.771 -0.0382  0.0108 -0.1078
  348SOL    HW1 1043   0.714   1.739   2.754  0.4529  3.2471  0.0774
  348SOL    HW2 1044   0.658   1.590   2.796  0.2616  1.5035  0.2203
  349SOL     OW 1045   2.389   1.292   1.317  0.5051  0.1301 -0.2839
  349SOL    HW1 1046   2.349   1.385   1.299  1.3399  1.6169 -0.1973
  349SOL    HW2 1047   2.480   1.284   1.273 -1.2948  2.4688  0.3486
  350SOL     OW 1048   2.913   2.291   1.210 -0.8023 -0.2263  0.7893
  350SOL    HW1 1049   2.947   2.210   1.258 -0.3242 -0.1585 -0.9518
  350SOL    HW2 1050   2.811   2.301   1.200 -1.5048  0.6091 -0.7776
  351SOL     OW 1051   0.601   0.169   2.176  0.0781  0.7593  0.3286
  351SOL    HW1 1052   0.541   0.239   2.223 -0.0504  0.6182 -2.0741
  351SOL    HW2 1053   0.680   0.158   2.237 -1.2734  3.2742 -2.0741
  352SOL     OW 1054   0.756   1.651   0.919 -0.1553 -0.2381  0.3519
  352SOL    HW1 1055   0.698   1.667   1.003 -3.2656 -1.0737  1.1510
  352SOL    HW2 1056   0.705   1.583   0.858  0.7194 -3.2027  1.7493
  353SOL     OW 1057   1.322   1.528   2.249  0.0381  0.2191  0.5201
  353SOL    HW1 1058   1.302   1.623   2.267 -0.6395 -1.3057 -0.6133
  353SOL    HW2 1059   1.246   1.463   2.258  0.0586 -1.3772  0.7228
  354SOL     OW 1060   1.238   0.198   0.850 -0.4530  0.0898 -0.5791
  354SOL    HW1 1061   1.281   0.185   0.942 -2.1899 -1.2478  0.3058
  354SOL    HW2 1062   1.252   0.298   0.826 -0.2183  0.1851 -1.1007
  355SOL     OW 1063   2.615   1.159   0.508 -0.4257 -0.4144  0.3458
  355SOL    HW1 1064   2.572   1.241   0.460  0.8262 -0.8461 -4.5991
  355SOL    HW2 1065   2.548   1.096   0.550  0.1130  1.0417 -1.4164
  356SOL     OW 1066   2.310   1.723   2.198  0.8982 -0.4202 -0.1554
  356SOL    HW1 1067   2.261   1.789   2.258  0.1247  0.5761 -1.2989
  356SOL    HW2 1068   2.316   1.762   2.103 -0.3293 -1.2909  1.0163
  357SOL     OW 1069   0.578   2.739   1.620  0.5582 -0.2460 -0.1685
  357SOL    HW1 1070   0.535   2.813   1.566 -1.4833  1.2325 -1.1613
  357SOL    HW2 1071   0.679   2.727   1.603 -0.9771  0.8354  2.8131
  358SOL     OW 1072   2.334   0.581   1.265  0.1040  0.3949  0.0642
  358SOL    HW1 1073   2.415   0.608   1.320 -1.5151  1.0614 -0.8946
  358SOL    HW2 1074   2.304   0.484   1.281  1.1888  0.9871 -0.4304
  359SOL     OW 1075   2.307   2.770   2.691 -0.2315 -0.0541  0.2574
  359SOL    HW1 1076   2.213   2.811   2.675 -0.2525  2.1047 -1.3718
  359SOL    HW2 1077   2.309   2.711   2.774 -0.2088  0.3849 -2.2989
  360SOL     OW 1078   1.027   0.602   0.768 -0.1879  0.3831 -0.0521
  360SOL    HW1 1079   1.046   0.669   0.843  0.3243 -3.4587  1.7327
  360SOL    HW2 1080   1.104   0.534   0.785  1.2986  3.1991  0.4219
  361SOL     OW 1081   2.046   3.023   1.183 -0.3366  0.2206  0.1845
  361SOL    HW1 1082   2.107   2.946   1.151  0.5440  0.5666  0.0965
  361SOL    HW2 1083   2.073   0.012   1.137 -0.4966  1.6180 -0.3839
  362SOL     OW 1084   1.383   1.225   0.446 -0.3992 -0.5250 -0.0789
  362SOL    HW1 1085   1.464   1.268   0.398 -1.9410 -2.9483  1.0793
  362SOL    HW2 1086   1.358   1.265   0.536 -1.5073  0.2815  0.5722
  363SOL     OW 1087   2.062   1.572   2.390 -0.5444  0.2290 -0.0243
  363SOL    HW1 1088   2.117   1.542   2.471 -0.5985 -0.5485  1.5355
  363SOL    HW2 1089   2.060   1.500   2.325 -0.4356  2.7529  0.8424
  364SOL     OW 1090   0.294   0.221   1.254  0.0746 -0.1018  0.3189
  364SOL    HW1 1091   0.278   0.308   1.305 -0.2223 -3.1556 -0.7699
  364SOL    HW2 1092   0.215   0.152   1.268  1.3879  0.9578  1.5902
  365SOL     OW 1093   0.221   2.749   0.362  0.0696 -0.3973 -0.0386
  365SOL    HW1 1094   0.173   2.678   0.310  0.1844 -2.1477  2.5403
  365SOL    HW2 1095   0.287   2.707   0.434  0.4091  0.1000  2.7148
  366SOL     OW 1096   2.361   1.977   0.022 -0.0091 -0.0736 -0.0421
  366SOL    HW1 1097   2.296   1.933   0.088  0.7265  0.9211  0.9431
  366SOL    HW2 1098   2.319   2.051   3.063 -0.3604 -1.4830 -0.5996
  367SOL     OW 1099   2.501   2.448   2.909  0.0242  0.1815 -0.1647
  367SOL    HW1 1100   2.580   2.500   2.944 -1.0757 -1.3887 -0.4564
  367SOL    HW2 1101   2.514   2.346   2.931  2.0097 -0.5244  1.3098
  368SOL     OW 1102   0.334   1.657   0.935 -0.7599  0.0974  0.0374
  368SOL    HW1 1103   0.296   1.678   1.029 -1.4967 -0.7233 -0.1756
  368SOL    HW2 1104   0.393   1.734   0.910  0.7162 -0.4098 -0.0674
  369SOL     OW 1105   0.860   2.527   2.844 -0.8804  0.0521  0.0913
  369SOL    HW1 1106   0.844   2.585   2.762 -0.4123 -1.8137  1.0416
  369SOL    HW2 1107   0.901   2.585   2.921  0.7987  0.7545  3.9970
  370SOL     OW 1108   0.099   0.989   0.539  0.4258  0.0778  0.1064
  370SOL    HW1 1109   0.021   1.029   0.591  1.4334 -1.9120  0.4853
  370SOL    HW2 1110   0.168   0.955   0.605 -2.1149 -0.4066  3.8124
  371SOL     OW 1111   2.006   2.649   0.793  0.4374 -0.2528  0.5813
  371SOL    HW1 1112   1.936   2.700   0.740  0.1339  0.8750  0.9470
  371SOL    HW2 1113   1.985   2.550   0.808  2.6446  1.4388 -0.5530
  372SOL     OW 1114   0.181   0.993   2.679  0.4198 -0.2801  0.0291
  372SOL    HW1 1115   0.251   1.064   2.673  0.1832 -2.8604 -0.0668
  372SOL    HW2 1116   0.204   0.917   2.741 -1.0558 -0.5313 -1.8380
  373SOL     OW 1117   2.947   1.876   0.591 -0.2250  0.9479  0.1955
  373SOL    HW1 1118   2.907   1.882   0.684 -0.1091  2.7597 -0.2943
  373SOL    HW2 1119   3.043   1.903   0.596  0.3672  0.1122  0.3039
  374SOL     OW 1120   0.030   2.427   0.473  0.0325 -0.4600 -0.9285
  374SOL    HW1 1121   3.068   2.350   0.504  0.3438 -1.0061 -1.1139
  374SOL    HW2 1122   0.093   2.453   0.550  0.5797  0.2965 -0.9065
  375SOL     OW 1123   0.423   0.515   0.276 -0.0765  0.1358  0.4691
  375SOL    HW1 1124   0.500   0.577   0.285 -2.2619 -0.1186  1.5104
  375SOL    HW2 1125   0.438   0.439   0.344  0.1810 -3.6196  1.2969
  376SOL     OW 1126   0.540   2.243   2.188 -0.2791 -0.0842  0.2103
  376SOL    HW1 1127   0.555   2.244   2.085  0.4112 -1.5010  0.3461
  376SOL    HW2 1128   0.590   2.322   2.230  1.3440 -0.8744 -0.9557
  377SOL     OW 1129   1.819   2.421   2.767 -0.2017 -0.6019 -0.4318
  377SOL    HW1 1130   1.729   2.380   2.778 -0.3636 -1.5203 -1.3607
  377SOL    HW2 1131   1.886   2.352   2.742 -3.6967  1.3927 -2.8123
  378SOL     OW 1132   0.987   0.943   0.377 -0.1713  0.5709 -0.4119
  378SOL    HW1 1133   1.091   0.950   0.357  2.5156  0.4600 -0.6159
  378SOL    HW2 1134   0.972   0.851   0.427  2.7976 -3.9634  0.7175
  379SOL     OW 1135   0.743   1.810   0.457  0.4581 -0.0149  0.3354
  379SOL    HW1 1136   0.659   1.774   0.510 -1.1475  1.2969  1.1528
  379SOL    HW2 1137   0.824   1.761   0.483 -1.1838 -0.0060 -0.7955
  380SOL     OW 1138   0.333   2.057   1.446  0.7365  0.8230 -0.1868
  380SOL    HW1 1139   0.254   2.071   1.383 -0.1759 -0.8106 -0.1868
  380SOL    HW2 1140   0.343   2.140   1.504  1.1093 -0.1369  0.6495
  381SOL     OW 1141   0.488   1.256   1.658  0.2655  0.1499  0.1636
  381SOL    HW1 1142   0.536   1.236   1.747  1.3589 -0.5415  2.1340
  381SOL    HW2 1143   0.410   1.323   1.667 -2.3623 -0.4510  0.1076
  382SOL     OW 1144   2.281   2.126   0.468 -0.7366  0.1359 -0.2839
  382SOL    HW1 1145   2.336   2.140   0.556  1.9511  0.7391  3.6200
  382SOL    HW2 1146   2.334   2.133   0.380  1.4337  0.5042 -0.2302
  383SOL     OW 1147   2.800   1.879   2.130 -0.3437  0.0120  0.4310
  383SOL    HW1 1148   2.807   1.888   2.030  2.1286  1.3601 -0.8383
  383SOL    HW2 1149   2.734   1.954   2.170 -3.8462  1.3818 -0.6379
  384SOL     OW 1150   0.051   2.117   2.014  0.1879 -0.4235  0.2880
  384SOL    HW1 1151   3.095   2.099   2.100 -0.7320  0.3157 -1.8164
  384SOL    HW2 1152   0.088   2.029   1.974 -0.3437 -0.2094 -1.1058
  385SOL     OW 1153   2.921   2.061   0.843 -0.1366  0.3750  0.4106
  385SOL    HW1 1154   2.914   1.961   0.878  0.7277 -3.6232  1.4305
  385SOL    HW2 1155   2.829   2.098   0.836  1.3954  1.8237 -0.4077
  386SOL     OW 1156   1.840   0.783   0.697 -0.2052  0.4896 -0.1070
  386SOL    HW1 1157   1.778   0.866   0.695  2.7469 -1.7090 -0.0302
  386SOL    HW2 1158   1.798   0.697   0.680 -0.1064  3.0997 -1.0821
  387SOL     OW 1159   0.480   0.628   1.988  0.5687  0.3974  0.4264
  387SOL    HW1 1160   0.402   0.693   1.990 -0.6677  2.6750 -0.0009
  387SOL    HW2 1161   0.565   0.671   2.012 -0.8676 -3.4907 -1.0369
  388SOL     OW 1162   2.290   0.941   2.408 -0.2570 -0.1920  0.5323
  388SOL    HW1 1163   2.274   1.034   2.445 -1.7097  1.6053 -0.8550
  388SOL    HW2 1164   2.208   0.896   2.364 -1.3552 -0.7891  0.1730
  389SOL     OW 1165   1.999   1.213   1.954  0.3911 -0.0927  0.5524
  389SOL    HW1 1166   2.035   1.261   1.867  0.9906  1.5642  0.1935
  389SOL    HW2 1167   2.046   1.123   1.974  1.1655 -0.1937  1.8983
  390SOL     OW 1168   1.835   2.688   0.239  0.1389 -0.1790 -0.1448
  390SOL    HW1 1169   1.799   2.780   0.261  1.8462 -1.5195 -0.9939
  390SOL    HW2 1170   1.771   2.636   0.176 -1.0419  0.1666  0.6987
  391SOL     OW 1171   2.232   2.364   1.244 -0.1241  0.0283 -0.2395
  391SOL    HW1 1172   2.188   2.301   1.175  0.0864 -0.2137 -0.6493
  391SOL    HW2 1173   2.306   2.310   1.291  2.1061  0.7494  0.9660
  392SOL     OW 1174   3.059   2.533   1.245 -0.1130 -0.0526  0.0296
  392SOL    HW1 1175   2.995   2.451   1.235  1.3844 -0.0019  0.4171
  392SOL    HW2 1176   0.057   2.507   1.273  0.4918 -0.1271  0.8444
  393SOL     OW 1177   2.089   1.643   0.019 -0.3056  0.2225  0.0491
  393SOL    HW1 1178   2.038   1.566   0.056 -1.7618  2.2327 -0.1183
  393SOL    HW2 1179   2.058   1.670   3.018  0.4228 -2.0737 -1.6979
  394SOL     OW 1180   2.966   0.202   3.040  0.3865 -0.0832  0.6369
  394SOL    HW1 1181   2.975   0.292   3.091  0.3511  0.8246  1.8968
  394SOL    HW2 1182   2.908   0.198   2.957  1.3573  0.6794 -2.3249
  395SOL     OW 1183   1.045   1.077   1.028 -0.7505 -0.1755 -0.0319
  395SOL    HW1 1184   1.012   1.157   0.973 -1.0303 -3.8624  0.1404
  395SOL    HW2 1185   0.982   0.996   1.022 -0.3097  4.5188 -0.0721
  396SOL     OW 1186   1.226   0.448   2.838  0.1731 -0.0719  0.1829
  396SOL    HW1 1187   1.186   0.425   2.747  0.6284  1.2256  0.6833
  396SOL    HW2 1188   1.316   0.484   2.819 -2.0002 -0.6294 -0.9381
  397SOL     OW 1189   0.141   0.525   2.711 -0.1592 -0.0355 -0.2771
  397SOL    HW1 1190   0.054   0.579   2.707 -0.1750  2.9607  2.1365
  397SOL    HW2 1191   0.121   0.424   2.707  1.3911 -2.7517  0.0136
  398SOL     OW 1192   0.823   0.116   0.227  0.4237  0.0132 -0.1266
  398SOL    HW1 1193   0.841   0.208   0.264 -2.3931  0.0681 -1.5313
  398SOL    HW2 1194   0.748   0.111   0.156 -1.4385  0.0390  0.6983
  399SOL     OW 1195   2.433   2.982   1.751 -0.4673  0.0370 -0.0632
  399SOL    HW1 1196   2.481   2.908   1.797 -1.0039  0.8122 -0.7845
  399SOL    HW2 1197   2.443   2.967   1.651 -0.8259 -0.9308  0.2973
  400SOL     OW 1198   0.396   1.800   2.404  0.0751 -0.1565  0.4703
  400SOL    HW1 1199   0.418   1.823   2.500 -2.6699 -0.6770 -0.6397
  400SOL    HW2 1200   0.449   1.859   2.340  4.1392 -1.0553  0.4462
  401SOL     OW 1201   0.951   0.312   2.680 -0.2938  0.6578  0.1438
  401SOL    HW1 1202   0.974   0.218   2.710  0.3546 -0.0119 -1.4586
  401SOL    HW2 1203   0.871   0.354   2.731  1.6027 -1.3954  1.1409
  402SOL     OW 1204   3.073   2.095   1.605 -0.3412  0.2643 -0.2599
  402SOL    HW1 1205   0.026   2.007   1.610 -2.7116  2.1031 -0.1524
  402SOL    HW2 1206   3.041   2.126   1.695  0.6601 -1.4230 -1.4866
  403SOL     OW 1207   0.828   0.998   1.942 -0.4212 -0.0407 -0.2489
  403SOL    HW1 1208   0.912   1.054   1.931  0.7294 -0.6184 -1.3321
  403SOL    HW2 1209   0.748   1.056   1.967 -4.6002  1.7909  1.9542
  404SOL     OW 1210   3.044   2.551   1.568 -0.2654  0.3155  0.0036
  404SOL    HW1 1211   3.025   2.606   1.650  1.5708  0.6417 -2.0336
  404SOL    HW2 1212   2.961   2.501   1.540 -0.7954 -1.4945  0.6059
  405SOL     OW 1213   0.493   0.429   1.798  0.0432 -0.1910 -0.2968
  405SOL    HW1 1214   0.475   0.500   1.873 -1.4564  1.0728 -0.3019
  405SOL    HW2 1215   0.550   0.356   1.834  0.6308 -1.4505 -1.0685
  406SOL     OW 1216   1.984   2.240   3.033 -0.3592 -0.3077 -0.3372
  406SOL    HW1 1217   2.033   2.245   0.027 -0.0889  0.1286 -0.6411
  406SOL    HW2 1218   1.982   2.334   2.991  0.9588  1.6938  1.9099
  407SOL     OW 1219   1.726   0.946   1.867  0.3550 -0.0699  0.5910
  407SOL    HW1 1220   1.634   0.929   1.816 -1.3500 -2.2741 -0.9642
  407SOL    HW2 1221   1.732   1.039   1.904  1.6516 -2.7786 -0.1511
  408SOL     OW 1222   0.701   0.138   2.878  0.2402  0.1828  0.0015
  408SOL    HW1 1223   0.698   0.038   2.872  0.3356  1.2210 -0.1182
  408SOL    HW2 1224   0.765   0.186   2.818  0.7222 -1.6375 -1.4123
  409SOL     OW 1225   2.960   2.240   0.642  0.4788  0.6242  0.7510
  409SOL    HW1 1226   2.876   2.240   0.583 -0.1497  3.4375  2.5703
  409SOL    HW2 1227   2.956   2.168   0.710 -0.3687 -2.6924 -1.0447
  410SOL     OW 1228   2.678   1.568   0.384 -0.0097 -0.4161  0.0898
  410SOL    HW1 1229   2.633   1.650   0.346 -0.1138 -1.6215 -2.1744
  410SOL    HW2 1230   2.707   1.509   0.306  0.3217 -0.3278 -3.3893
  411SOL     OW 1231   3.052   0.570   0.873  0.6505 -0.1205  0.2583
  411SOL    HW1 1232   3.045   0.597   0.775  0.8207  1.0390  1.9913
  411SOL    HW2 1233   3.069   0.470   0.884  1.7515  3.3254 -0.5804
  412SOL     OW 1234   1.385   0.935   0.857 -0.0034  0.2156  0.6031
  412SOL    HW1 1235   1.316   0.982   0.801  2.4106 -1.3835 -1.2163
  412SOL    HW2 1236   1.359   0.949   0.952 -1.2327 -1.2160 -0.2151
  413SOL     OW 1237   0.939   0.272   0.958  0.1082  0.0654  0.0886
  413SOL    HW1 1238   0.899   0.185   0.992 -2.2417  0.6956 -0.2840
  413SOL    HW2 1239   1.010   0.297   1.028 -0.7078  0.1147 -1.8654
  414SOL     OW 1240   0.024   1.614   2.815  0.1466  0.0066 -0.6240
  414SOL    HW1 1241   0.058   1.602   2.719  1.9603 -2.6475 -1.3665
  414SOL    HW2 1242   0.023   1.710   2.849  0.6289  1.5053  2.3602
  415SOL     OW 1243   0.358   2.416   2.973  0.0077 -0.0522  0.2917
  415SOL    HW1 1244   0.458   2.384   2.973  0.1681  0.3177 -0.4776
  415SOL    HW2 1245   0.320   2.411   2.880 -1.2878  0.1388 -1.7257
  416SOL     OW 1246   1.369   0.763   0.543  0.3028 -0.3002  0.0485
  416SOL    HW1 1247   1.329   0.706   0.468 -1.1319  0.3529 -1.4220
  416SOL    HW2 1248   1.397   0.707   0.620 -2.4159  0.1909 -1.1873
  417SOL     OW 1249   0.269   1.079   0.349  0.1509  0.3706 -0.1419
  417SOL    HW1 1250   0.240   1.053   0.257  0.2958  0.4765  2.7568
  417SOL    HW2 1251   0.202   1.041   0.418  1.8685  0.6283  0.0472
  418SOL     OW 1252   2.545   1.233   2.211  1.1312  0.0546  0.0361
  418SOL    HW1 1253   2.442   1.229   2.212 -0.5795  0.3802 -1.2773
  418SOL    HW2 1254   2.584   1.279   2.291  1.0067 -0.7866 -0.4197
  419SOL     OW 1255   0.192   0.240   2.965 -0.2237  0.4066  0.0877
  419SOL    HW1 1256   0.177   0.330   3.016 -1.4885 -2.7920 -2.4810
  419SOL    HW2 1257   0.155   0.248   2.870 -1.0312  1.4338 -3.2966
  420SOL     OW 1258   0.616   1.425   0.803  0.6292 -0.1282  0.5751
  420SOL    HW1 1259   0.522   1.405   0.826  4.1473 -0.0824 -0.8150
  420SOL    HW2 1260   0.636   1.385   0.712  0.0395 -2.7519  0.5682
  421SOL     OW 1261   0.592   2.331   0.908 -0.2470  0.1638  0.2420
  421SOL    HW1 1262   0.671   2.374   0.869 -2.4970 -0.8687 -1.3303
  421SOL    HW2 1263   0.540   2.273   0.842  0.2097  0.0802  1.4124
  422SOL     OW 1264   3.093   0.786   1.558 -0.2012  0.0729  0.2784
  422SOL    HW1 1265   0.087   0.806   1.522 -0.7390 -1.2773  0.5870
  422SOL    HW2 1266   3.064   0.699   1.510 -0.4978 -2.3334 -3.2823
  423SOL     OW 1267   1.452   1.712   1.315  0.0163  0.8775 -0.2137
  423SOL    HW1 1268   1.463   1.732   1.410 -0.3883 -0.7077 -0.9785
  423SOL    HW2 1269   1.494   1.624   1.277  1.5723  2.2036  0.7645
  424SOL     OW 1270   1.892   1.042   0.129  0.0462 -0.0575  0.4827
  424SOL    HW1 1271   1.804   1.081   0.099 -1.7465 -1.8323  0.4857
  424SOL    HW2 1272   1.969   1.082   0.075  1.6674  2.2713 -2.9070
  425SOL     OW 1273   0.114   0.556   2.005  0.3965  0.3922  0.3476
  425SOL    HW1 1274   0.168   0.641   1.982 -1.2292  1.7689  0.9816
  425SOL    HW2 1275   0.058   0.525   1.925 -0.0512  2.9603 -0.8377
  426SOL     OW 1276   2.581   2.762   2.566 -0.1526  0.2196 -0.0815
  426SOL    HW1 1277   2.479   2.769   2.587  2.0883  3.0107  2.4401
  426SOL    HW2 1278   2.600   2.837   2.497  1.9272  0.1710 -1.6247
  427SOL     OW 1279   1.116   0.895   2.171  0.0900  0.2216  0.3661
  427SOL    HW1 1280   1.196   0.903   2.106 -0.7062  0.9735  0.8980
  427SOL    HW2 1281   1.085   0.990   2.182  0.4696  0.3469 -2.5261
  428SOL     OW 1282   2.124   0.961   2.031 -0.0327  0.7175  0.8535
  428SOL    HW1 1283   2.085   0.885   1.978  1.9790  1.0467  1.6981
  428SOL    HW2 1284   2.110   0.930   2.130  0.0588 -2.1005  2.1140
  429SOL     OW 1285   2.920   2.849   0.583 -0.3369  0.4544  0.3268
  429SOL    HW1 1286   2.980   2.850   0.662  1.0843 -0.3527 -1.2669
  429SOL    HW2 1287   2.964   2.908   0.513  1.7055  0.0239  2.4977
  430SOL     OW 1288   1.895   1.315   2.195 -0.4132 -0.2974  0.3476
  430SOL    HW1 1289   1.976   1.286   2.244 -3.0778  1.9681  0.7076
  430SOL    HW2 1290   1.922   1.301   2.099  0.3038  1.3963  2.3632
  431SOL     OW 1291   0.231   1.670   1.181  0.5700 -0.4452  0.7028
  431SOL    HW1 1292   0.260   1.601   1.252 -0.3134  0.1444  1.1635
  431SOL    HW2 1293   0.152   1.721   1.218  1.9719 -0.4881 -0.3138
  432SOL     OW 1294   1.637   3.070   2.304  0.0644  0.2640  0.0407
  432SOL    HW1 1295   1.625   3.032   2.392 -0.4434  2.5875 -0.9158
  432SOL    HW2 1296   1.717   3.039   2.251  0.2005 -0.3492 -0.4242
  433SOL     OW 1297   1.492   3.042   1.888  0.0186  0.4410 -0.1265
  433SOL    HW1 1298   1.423   3.082   1.821 -0.0883 -0.6504 -2.6825
  433SOL    HW2 1299   1.580   3.093   1.880 -0.0822  0.9639 -1.2712
  434SOL     OW 1300   0.393   2.578   2.114  0.9298  0.2193  0.0512
  434SOL    HW1 1301   0.340   2.554   2.198  0.4965  2.1559  1.1279
  434SOL    HW2 1302   0.340   2.545   2.030 -0.1468  2.2054  0.5081
  435SOL     OW 1303   0.315   2.200   0.252 -0.2333 -0.4176  0.6197
  435SOL    HW1 1304   0.341   2.291   0.211  1.5579 -0.0305 -0.7134
  435SOL    HW2 1305   0.322   2.130   0.177  1.1350  0.1706  2.3964
  436SOL     OW 1306   0.759   0.732   1.986 -0.5193 -0.1677 -0.0046
  436SOL    HW1 1307   0.825   0.690   1.920 -0.5346  0.5475 -0.7981
  436SOL    HW2 1308   0.765   0.835   1.986 -2.3064 -0.9813  0.8147
  437SOL     OW 1309   0.399   3.090   2.295  0.7214 -0.6556 -0.3244
  437SOL    HW1 1310   0.440   0.062   2.238 -2.2089 -1.3315  1.1879
  437SOL    HW2 1311   0.405   0.017   2.394  1.1971  2.4173  3.6089
  438SOL     OW 1312   0.679   1.650   1.634  0.0736 -0.4567 -0.1921
  438SOL    HW1 1313   0.630   1.705   1.701  0.7179  1.5616  1.1988
  438SOL    HW2 1314   0.696   1.553   1.665  3.3700  0.8063 -2.7298
  439SOL     OW 1315   2.058   0.829   2.984  0.4162  0.0145 -0.0363
  439SOL    HW1 1316   1.992   0.874   2.921  0.5206 -2.4364 -2.3236
  439SOL    HW2 1317   2.038   0.848   3.084  0.9010  0.1861  0.2269
  440SOL     OW 1318   0.712   0.300   0.437  0.0518  0.5587 -0.2411
  440SOL    HW1 1319   0.665   0.317   0.526  1.8898  1.3284  2.1504
  440SOL    HW2 1320   0.649   0.259   0.372  0.6940  0.8628  0.2727
  441SOL     OW 1321   1.033   2.367   1.512  0.0290  0.7403 -0.3386
  441SOL    HW1 1322   0.983   2.455   1.522  1.2293 -1.1839  2.6764
  441SOL    HW2 1323   0.968   2.292   1.547 -1.1613 -1.8814 -0.6440
  442SOL     OW 1324   3.072   1.418   0.420 -0.1688 -0.4261  0.1064
  442SOL    HW1 1325   3.007   1.343   0.402 -0.1204  0.2514  1.4946
  442SOL    HW2 1326   3.029   1.512   0.408  0.7904  0.2841  1.3138
  443SOL     OW 1327   2.630   1.904   2.516 -0.2957 -0.1656 -0.4302
  443SOL    HW1 1328   2.601   1.933   2.423 -1.7025 -0.3929  2.0724
  443SOL    HW2 1329   2.616   1.805   2.529 -2.4671  0.5057 -2.2972
  444SOL     OW 1330   1.437   0.987   0.136 -0.2355 -0.1528  0.4799
  444SOL    HW1 1331   1.517   1.043   0.118  0.4272 -2.2732  0.9445
  444SOL    HW2 1332   1.371   1.037   0.198  0.1323  0.8768  1.7605
  445SOL     OW 1333   2.715   2.753   1.949  0.4382  0.2380 -0.2225
  445SOL    HW1 1334   2.723   2.854   1.939 -1.8927 -0.2786 -0.5090
  445SOL    HW2 1335   2.616   2.724   1.937 -2.2394 -1.2193  0.7171
  446SOL     OW 1336   2.953   1.422   0.780  0.1240  0.3259 -0.1533
  446SOL    HW1 1337   2.976   1.383   0.690  1.0288 -0.0090  0.7044
  446SOL    HW2 1338   2.864   1.467   0.778 -1.3472 -1.4701 -1.2928
  447SOL     OW 1339   1.068   1.897   1.155 -0.2612  0.3017  0.2850
  447SOL    HW1 1340   1.018   1.812   1.187 -0.4040 -0.3503  1.9119
  447SOL    HW2 1341   1.046   1.983   1.211  2.0058 -0.9784  1.7679
  448SOL     OW 1342   1.509   1.783   1.565  0.4474  0.1189  0.2527
  448SOL    HW1 1343   1.595   1.746   1.607  0.6054 -0.7355 -1.5762
  448SOL    HW2 1344   1.434   1.797   1.632  0.6831  1.6104  3.1001
  449SOL     OW 1345   2.797   2.577   2.365 -0.1697 -0.2474  0.5609
  449SOL    HW1 1346   2.699   2.585   2.364  0.0689  0.5212 -1.5666
  449SOL    HW2 1347   2.834   2.501   2.422 -0.7033 -1.5189 -0.4736
  450SOL     OW 1348   3.076   1.697   1.824 -0.2584 -0.4397 -0.6653
  450SOL    HW1 1349   2.994   1.713   1.769  1.3061  0.6003  1.1051
  450SOL    HW2 1350   3.075   1.608   1.873 -0.5789  3.1353  0.5479
  451SOL     OW 1351   2.304   0.859   1.219  0.6921 -0.1770 -0.2763
  451SOL    HW1 1352   2.388   0.873   1.169  2.0655 -1.3841 -0.4339
  451SOL    HW2 1353   2.309   0.770   1.258  0.7550  0.9599 -2.2718
  452SOL     OW 1354   0.784   1.168   0.630  0.0109 -0.0582  0.2020
  452SOL    HW1 1355   0.681   1.176   0.637 -0.8746  0.5020 -2.7254
  452SOL    HW2 1356   0.816   1.074   0.645  0.4390 -1.0436  0.1364
  453SOL     OW 1357   1.408   2.042   0.584  0.1682 -0.4632  0.1768
  453SOL    HW1 1358   1.396   2.100   0.668  0.5158 -1.5885  0.2056
  453SOL    HW2 1359   1.503   2.026   0.555 -1.9468 -2.4324 -1.2468
  454SOL     OW 1360   0.409   1.766   0.084  0.3693 -0.1193  0.4084
  454SOL    HW1 1361   0.493   1.819   0.082 -2.3509 -3.6593  0.0804
  454SOL    HW2 1362   0.367   1.761   0.172 -1.5064 -1.6321 -1.8598
  455SOL     OW 1363   1.258   1.244   0.188 -0.0301 -0.0760  0.3294
  455SOL    HW1 1364   1.166   1.275   0.189  3.6046  1.3827 -0.5502
  455SOL    HW2 1365   1.294   1.241   0.283 -1.2038  1.0216 -1.3120
  456SOL     OW 1366   2.260   2.571   0.845  0.0563  0.2983 -0.2455
  456SOL    HW1 1367   2.281   2.513   0.766 -0.2203  1.2125  0.8074
  456SOL    HW2 1368   2.177   2.629   0.823  1.9398  0.1821  3.2011
  457SOL     OW 1369   1.613   2.910   2.933  0.2534 -0.2035  0.0632
  457SOL    HW1 1370   1.702   2.953   2.909 -1.1954  0.4153 -0.5803
  457SOL    HW2 1371   1.611   2.809   2.910  0.1817 -0.8783 -2.6714
  458SOL     OW 1372   2.398   1.028   0.601  0.0473 -0.0648 -0.1169
  458SOL    HW1 1373   2.372   0.931   0.585 -1.0063 -0.0875  0.4048
  458SOL    HW2 1374   2.318   1.092   0.593 -0.9360  0.8377 -1.2811
  459SOL     OW 1375   2.636   0.417   2.522 -0.0988 -0.2097  0.1240
  459SOL    HW1 1376   2.555   0.461   2.473 -1.7786 -0.4000 -1.4876
  459SOL    HW2 1377   2.719   0.441   2.469 -2.9627 -0.9786  1.2011
  460SOL     OW 1378   2.609   0.722   2.753 -1.0435 -0.4301 -0.0973
  460SOL    HW1 1379   2.704   0.759   2.735  0.5316 -0.6810  0.6756
  460SOL    HW2 1380   2.541   0.779   2.704 -0.4567  2.2543 -2.6023
  461SOL     OW 1381   3.042   2.294   0.971 -0.5409  0.0909 -0.0849
  461SOL    HW1 1382   2.977   2.285   1.045  0.6400  1.0189 -1.4356
  461SOL    HW2 1383   3.037   2.210   0.915 -1.4140 -0.0329 -0.1402
  462SOL     OW 1384   0.010   2.939   1.913  0.3216 -0.1032 -0.2081
  462SOL    HW1 1385   0.047   2.993   1.837 -0.9900 -0.9455  1.9805
  462SOL    HW2 1386   0.091   2.882   1.937 -1.1402  1.0989 -0.5757
  463SOL     OW 1387   2.139   1.839   2.402  0.4368 -0.3603 -0.2147
  463SOL    HW1 1388   2.135   1.746   2.447 -2.3083  1.2266  1.8077
  463SOL    HW2 1389   2.047   1.876   2.387  3.8136  1.1624 -1.9364
  464SOL     OW 1390   0.867   2.777   1.574  0.2759  0.1138  0.0176
  464SOL    HW1 1391   0.913   2.739   1.660 -1.2946 -0.6875  2.2360
  464SOL    HW2 1392   0.840   2.877   1.580  0.0907  2.1872  2.3813
  465SOL     OW 1393   0.745   3.031   1.563  0.2615  0.1210 -0.1509
  465SOL    HW1 1394   0.683   3.025   1.483  1.9600  1.5634  1.1922
  465SOL    HW2 1395   0.732   0.027   1.601 -3.5503 -3.0685  1.7782
  466SOL     OW 1396   1.585   2.616   1.896 -0.1925 -0.2954  0.0898
  466SOL    HW1 1397   1.654   2.578   1.962 -1.5180  0.6777  0.0444
  466SOL    HW2 1398   1.524   2.682   1.943  0.0209  0.3599  2.6902
  467SOL     OW 1399   0.694   1.964   1.404 -0.2522 -0.0031  0.0990
  467SOL    HW1 1400   0.745   1.884   1.432 -0.2917  2.8812 -0.5257
  467SOL    HW2 1401   0.617   1.942   1.339  0.4259 -3.5962  0.5987
  468SOL     OW 1402   2.545   1.688   2.304 -0.3407 -0.4528  0.3255
  468SOL    HW1 1403   2.453   1.695   2.260  3.4195 -1.5571 -0.0185
  468SOL    HW2 1404   2.619   1.723   2.246 -0.1942 -2.8477  1.0848
  469SOL     OW 1405   0.843   2.082   0.760  0.1496 -0.0247 -0.1711
  469SOL    HW1 1406   0.886   1.998   0.728 -0.3531  0.0564  2.6968
  469SOL    HW2 1407   0.802   2.060   0.850 -0.5461  1.5172 -1.1476
  470SOL     OW 1408   2.282   1.125   1.659 -0.0651  0.1216  0.3974
  470SOL    HW1 1409   2.216   1.198   1.677  0.7945  1.3652  0.6518
  470SOL    HW2 1410   2.300   1.108   1.556  0.5693 -1.8143 -0.9485
  471SOL     OW 1411   0.361   2.448   0.132 -0.2572  0.1769  0.4724
  471SOL    HW1 1412   0.444   2.493   0.169 -3.8750 -0.1794 -0.6858
  471SOL    HW2 1413   0.359   2.455   0.032 -0.8661 -0.2085 -3.1703
  472SOL     OW 1414   2.842   1.915   1.844 -0.0622  0.0510 -0.0253
  472SOL    HW1 1415   2.860   1.832   1.789  0.3923  0.3242 -1.2865
  472SOL    HW2 1416   2.749   1.948   1.818  0.9533  0.2411 -0.5516
  473SOL     OW 1417   1.087   0.048   0.221  0.4632  0.1873 -0.0199
  473SOL    HW1 1418   1.108   3.050   0.263  0.0177 -1.8790 -0.2098
  473SOL    HW2 1419   0.987   0.048   0.193 -0.7663  0.2681  1.2837
  474SOL     OW 1420   2.658   2.438   0.944 -0.0191  0.3727  0.1263
  474SOL    HW1 1421   2.598   2.514   0.966  1.0455  0.4779 -0.1214
  474SOL    HW2 1422   2.742   2.471   0.903  1.9111  1.8335  0.5528
  475SOL     OW 1423   2.219   2.835   1.668  0.0881  0.6780  0.3400
  475SOL    HW1 1424   2.181   2.902   1.602  0.6317  1.5936 -0.7008
  475SOL    HW2 1425   2.283   2.887   1.733  1.0195 -0.1820 -0.7062
  476SOL     OW 1426   0.891   0.918   0.653  0.1006  0.3748  0.3761
  476SOL    HW1 1427   0.939   0.835   0.607  1.5420 -1.3072 -0.3340
  476SOL    HW2 1428   0.825   0.891   0.721  4.2650 -0.9068 -5.0065
  477SOL     OW 1429   0.480   1.881   0.847 -0.2314  0.5923  0.4043
  477SOL    HW1 1430   0.559   1.872   0.906  0.0972 -1.7359 -0.2066
  477SOL    HW2 1431   0.478   1.979   0.817  0.0026  1.0844 -2.5188
  478SOL     OW 1432   3.097   2.538   2.104  0.0716  0.0331 -0.0154
  478SOL    HW1 1433   2.997   2.521   2.092  0.9262 -1.2492  1.3517
  478SOL    HW2 1434   0.028   2.640   2.088  1.4588  1.6195 -0.8295
  479SOL     OW 1435   0.274   0.530   1.669 -0.0467  0.6282 -0.6403
  479SOL    HW1 1436   0.187   0.502   1.719 -2.2211 -0.2350  2.3736
  479SOL    HW2 1437   0.352   0.493   1.716 -3.0663 -1.9068 -2.1076
  480SOL     OW 1438   2.859   2.495   0.059  0.4945 -0.0639  0.1560
  480SOL    HW1 1439   2.872   2.454   3.066  0.3136  2.5195  1.0208
  480SOL    HW2 1440   2.840   2.419   0.123 -0.0447  1.9214  2.3496
  481SOL     OW 1441   1.859   1.787   2.034  0.3770  0.2663  0.1417
  481SOL    HW1 1442   1.838   1.687   2.030 -3.1759  1.7519  1.2292
  481SOL    HW2 1443   1.918   1.808   1.957 -1.0385  1.1791  0.9069
  482SOL     OW 1444   1.743   2.331   0.066 -0.6124 -0.7459 -0.0935
  482SOL    HW1 1445   1.688   2.256   0.100  1.0763  0.8880 -0.6598
  482SOL    HW2 1446   1.829   2.302   0.017  2.7142  0.0108 -2.2161
  483SOL     OW 1447   0.520   1.994   2.244 -0.3064  0.8935  0.3601
  483SOL    HW1 1448   0.622   1.977   2.249 -0.9240  1.8636  0.9735
  483SOL    HW2 1449   0.510   2.096   2.247  1.7270  4.0890  1.6815
  484SOL     OW 1450   2.998   0.458   1.186 -0.0009  0.8907  0.5549
  484SOL    HW1 1451   3.093   0.451   1.149  1.0081 -1.2050 -0.1129
  484SOL    HW2 1452   2.940   0.519   1.129  1.7041 -1.4428  0.2455
  485SOL     OW 1453   2.088   1.066   0.819  0.1839 -0.6447 -0.3722
  485SOL    HW1 1454   2.125   1.133   0.748  0.1545  1.1706  0.9829
  485SOL    HW2 1455   1.996   1.094   0.837  1.8444  0.0066 -0.6531
  486SOL     OW 1456   1.643   0.375   2.222 -0.1860  0.0928  0.3228
  486SOL    HW1 1457   1.705   0.458   2.221 -0.1109  1.6436 -2.0221
  486SOL    HW2 1458   1.611   0.348   2.312  0.2068  1.2291 -0.9619
  487SOL     OW 1459   0.840   1.473   1.144  0.0427 -0.2570 -0.0856
  487SOL    HW1 1460   0.813   1.387   1.193  0.6250  2.0280  0.9878
  487SOL    HW2 1461   0.873   1.460   1.048  0.0213  0.5683  2.2939
  488SOL     OW 1462   2.457   1.391   2.893  0.7410 -0.1598  0.3188
  488SOL    HW1 1463   2.474   1.430   2.801  1.9461  2.1617  0.0955
  488SOL    HW2 1464   2.402   1.459   2.947 -0.3773  0.2398  1.1855
  489SOL     OW 1465   2.365   0.184   0.523 -0.2539  0.0623  0.3786
  489SOL    HW1 1466   2.467   0.169   0.508 -0.8549 -1.2320  2.0350
  489SOL    HW2 1467   2.327   0.146   0.607  2.2178 -0.4007 -1.1079
  490SOL     OW 1468   1.360   2.417   0.409 -0.1930 -0.1645  0.3259
  490SOL    HW1 1469   1.459   2.388   0.431  2.9948 -1.6073 -0.0614
  490SOL    HW2 1470   1.362   2.502   0.352  0.2256  3.0204 -2.0247
  491SOL     OW 1471   1.151   1.003   0.679  0.4075  0.4525 -0.4388
  491SOL    HW1 1472   1.057   0.974   0.702  0.2978  0.7675 -0.4847
  491SOL    HW2 1473   1.178   0.944   0.602 -3.3076 -0.0006  0.6760
  492SOL     OW 1474   1.616   0.335   3.028 -0.0681  0.4442 -0.1037
  492SOL    HW1 1475   1.677   0.284   2.962  4.2582  0.0439  0.9675
  492SOL    HW2 1476   1.626   0.432   3.015 -0.1343 -2.2206  0.0371
  493SOL     OW 1477   1.998   2.061   0.259 -0.6453  0.0879 -0.2547
  493SOL    HW1 1478   2.038   2.154   0.233 -2.5210  0.5910  1.9195
  493SOL    HW2 1479   2.019   2.037   0.355  1.6138 -2.1125  0.6078
  494SOL     OW 1480   0.709   0.948   0.349  0.9717 -0.3848 -0.2169
  494SOL    HW1 1481   0.809   0.960   0.363  1.4107 -1.8669 -1.6120
  494SOL    HW2 1482   0.691   0.944   0.245 -0.0269 -1.8044 -0.4368
  495SOL     OW 1483   2.959   2.652   1.023 -0.2147 -0.6535  0.0272
  495SOL    HW1 1484   2.984   2.599   1.107  3.5648  1.7303 -1.5766
  495SOL    HW2 1485   2.940   2.592   0.943  0.1388 -1.1692 -1.3199
  496SOL     OW 1486   2.487   0.171   1.556 -0.0926  0.5957  0.0405
  496SOL    HW1 1487   2.491   0.193   1.459  1.2183 -1.6836 -0.1378
  496SOL    HW2 1488   2.445   0.240   1.610 -0.3287 -1.8797  2.1357
  497SOL     OW 1489   1.982   1.390   2.653  0.1406  0.0026  0.2488
  497SOL    HW1 1490   2.055   1.457   2.674 -1.2191 -1.6542  0.1362
  497SOL    HW2 1491   1.961   1.383   2.554  0.9385  0.4944  0.3511
  498SOL     OW 1492   0.735   1.982   0.986  0.4936  0.1593 -0.8304
  498SOL    HW1 1493   0.735   2.063   1.050  0.8817  0.3810  1.8668
  498SOL    HW2 1494   0.695   1.897   1.032 -2.3543 -1.4600  1.0462
  499SOL     OW 1495   0.786   2.175   1.507 -0.0215 -0.0658 -0.4695
  499SOL    HW1 1496   0.756   2.089   1.463 -0.1539  2.0218  1.0116
  499SOL    HW2 1497   0.739   2.256   1.461  0.6960  1.3282  1.1263
  500SOL     OW 1498   0.804   2.116   0.182 -0.0427  0.0883 -0.1723
  500SOL    HW1 1499   0.714   2.156   0.211  0.0034  0.9967 -1.2009
  500SOL    HW2 1500   0.863   2.138   0.266  0.7030  0.9612 -2.2333
  501SOL     OW 1501   2.697   2.898   1.359  0.2865  0.4021  0.4740
  501SOL    HW1 1502   2.712   2.851   1.271 -1.2664  1.2778 -1.3019
  501SOL    HW2 1503   2.744   2.851   1.435  0.4662  1.2766  0.0680
  502SOL     OW 1504   0.331   0.784   1.696  0.6261  0.0456  0.8873
  502SOL    HW1 1505   0.294   0.692   1.683 -2.0486  2.9576  0.9138
  502SOL    HW2 1506   0.426   0.795   1.653  3.1750  0.4547  0.9078
  503SOL     OW 1507   2.177   0.822   1.662 -0.4126 -0.3180  0.3845
  503SOL    HW1 1508   2.258   0.764   1.670  1.5239  0.1795  1.0850
  503SOL    HW2 1509   2.204   0.910   1.618  0.0366  2.1790 -1.3504
  504SOL     OW 1510   1.253   0.655   1.878  0.6577  0.0631  0.1538
  504SOL    HW1 1511   1.228   0.621   1.972  1.8684  0.2798  0.7742
  504SOL    HW2 1512   1.264   0.754   1.879 -1.6865 -1.9926  0.0243
  505SOL     OW 1513   0.797   0.121   2.343 -0.5669 -0.0121  0.3192
  505SOL    HW1 1514   0.892   0.094   2.326  1.3531  2.6068  3.0991
  505SOL    HW2 1515   0.756   0.071   2.426 -0.3926  0.3536  0.0362
  506SOL     OW 1516   0.007   0.320   0.942 -0.0631  0.0757 -0.2204
  506SOL    HW1 1517   3.042   0.239   0.952  1.6442 -0.3370  1.4020
  506SOL    HW2 1518   0.100   0.313   0.988  2.5371  1.7780  0.6881
  507SOL     OW 1519   1.355   0.334   3.095 -0.3655  0.3965 -0.1915
  507SOL    HW1 1520   1.448   0.326   3.052  1.2429 -0.9875  2.3122
  507SOL    HW2 1521   1.286   0.387   3.041  0.8579 -0.6517  2.2014
  508SOL     OW 1522   1.950   0.337   2.608  0.2371 -0.4275  0.2075
  508SOL    HW1 1523   2.021   0.278   2.567 -0.1940  1.1211 -0.1245
  508SOL    HW2 1524   1.856   0.292   2.610 -1.5674  3.0152 -0.4307
  509SOL     OW 1525   0.706   1.307   2.162  0.3295 -0.4226 -0.3397
  509SOL    HW1 1526   0.678   1.402   2.188  2.3290 -0.8294 -2.2729
  509SOL    HW2 1527   0.704   1.243   2.242 -2.0644  2.2581 -0.2985
  510SOL     OW 1528   3.001   1.120   0.676  0.0124 -0.4713  0.2433
  510SOL    HW1 1529   3.053   1.123   0.761 -2.8596  1.1153  1.0188
  510SOL    HW2 1530   2.966   1.028   0.663  3.1425  1.0552  3.7963
  511SOL     OW 1531   2.045   1.986   0.814 -0.1770 -0.2104  0.0762
  511SOL    HW1 1532   2.118   2.046   0.849  0.5053  0.7275 -1.8593
  511SOL    HW2 1533   2.077   1.893   0.829 -0.5006  2.8806  0.9471
  512SOL     OW 1534   0.549   1.476   0.522  0.1779  0.3344  0.4808
  512SOL    HW1 1535   0.463   1.424   0.504 -3.8851 -0.9997  1.0366
  512SOL    HW2 1536   0.614   1.476   0.440  0.5590 -0.9174  1.8459
  513SOL     OW 1537   0.259   2.174   0.549  0.0190 -0.3121  0.4102
  513SOL    HW1 1538   0.299   2.188   0.455  0.0097 -0.6994 -5.0187
  513SOL    HW2 1539   0.202   2.251   0.582 -1.4426  0.7553 -4.3243
  514SOL     OW 1540   2.581   2.046   2.232 -0.2277 -0.4074  0.0522
  514SOL    HW1 1541   2.495   2.041   2.285 -0.7082  1.4135 -2.5914
  514SOL    HW2 1542   2.577   2.117   2.164  2.0157 -1.3505  2.6734
  515SOL     OW 1543   2.160   1.056   0.288 -0.4175 -0.3324  0.5242
  515SOL    HW1 1544   2.149   0.958   0.265 -1.2079  0.5277  1.8328
  515SOL    HW2 1545   2.261   1.073   0.279 -1.1106 -2.0601  0.2378
  516SOL     OW 1546   1.746   0.161   0.666  0.4270  0.7674 -0.3999
  516SOL    HW1 1547   1.707   0.195   0.756  3.0556  0.9250  2.0419
  516SOL    HW2 1548   1.665   0.114   0.620 -0.4555  1.6991  3.8103
  517SOL     OW 1549   1.386   1.973   0.181 -0.3056 -0.1350 -0.5557
  517SOL    HW1 1550   1.343   2.066   0.196 -1.4888  1.0550 -0.3978
  517SOL    HW2 1551   1.328   1.908   0.125 -0.5796  0.6288 -1.0577
  518SOL     OW 1552   1.123   0.707   1.629 -0.5588 -0.3262  0.3696
  518SOL    HW1 1553   1.188   0.694   1.702 -0.8034 -0.8207 -1.3420
  518SOL    HW2 1554   1.154   0.660   1.536  1.8384 -1.8430 -3.5689
  519SOL     OW 1555   0.058   1.223   3.058 -0.1974 -0.3602 -0.1583
  519SOL    HW1 1556   0.101   1.297   3.001  2.3531 -0.2811 -2.6517
  519SOL    HW2 1557   3.082   1.255   0.029 -1.3819  0.8903 -2.9481
  520SOL     OW 1558   2.156   2.240   1.723  0.4078  0.2020  0.0632
  520SOL    HW1 1559   2.071   2.210   1.673  0.3846 -1.2940  1.8965
  520SOL    HW2 1560   2.200   2.320   1.673 -0.4558 -1.9871 -2.3894
  521SOL     OW 1561   0.967   2.780   2.421  0.0366  0.6136 -0.2194
  521SOL    HW1 1562   0.913   2.831   2.350 -0.4883 -1.8065  0.6215
  521SOL    HW2 1563   1.068   2.776   2.408  0.2980 -0.3864  0.9664
  522SOL     OW 1564   1.892   0.265   2.261 -1.0053  0.9097 -0.6993
  522SOL    HW1 1565   1.899   0.196   2.341  2.2106 -2.2692 -0.5885
  522SOL    HW2 1566   1.793   0.284   2.248 -0.5116 -2.8526 -0.1141
  523SOL     OW 1567   1.778   2.035   1.151  0.4766  0.7453  0.0913
  523SOL    HW1 1568   1.727   2.109   1.199  0.1568 -1.2447 -0.5825
  523SOL    HW2 1569   1.769   1.943   1.199  0.9413 -1.8804  1.8063
  524SOL     OW 1570   1.290   2.247   0.200 -0.5078  0.2919  0.1523
  524SOL    HW1 1571   1.205   2.287   0.173  2.3327 -2.2682 -1.1868
  524SOL    HW2 1572   1.326   2.286   0.285 -2.0568  0.7330  1.7017
  525SOL     OW 1573   0.110   0.464   3.074 -0.1643  0.1331 -0.0980
  525SOL    HW1 1574   0.030   0.501   3.025  0.3883  1.4798 -1.1642
  525SOL    HW2 1575   0.138   0.526   0.051  1.2107 -0.0684  1.6997
  526SOL     OW 1576   1.022   2.775   0.426 -0.3092  0.8461  0.3363
  526SOL    HW1 1577   0.967   2.775   0.515 -0.8129 -0.8047 -1.1840
  526SOL    HW2 1578   1.105   2.840   0.430  1.5682  0.4520 -0.9916
  527SOL     OW 1579   2.963   1.680   0.392 -0.4410  0.3184 -0.0573
  527SOL    HW1 1580   2.985   1.736   0.477  2.3419  1.4333  4.1033
  527SOL    HW2 1581   2.874   1.638   0.406  1.8539  2.1006 -2.0225
  528SOL     OW 1582   3.054   0.696   2.417 -0.0539 -0.1150 -0.5166
  528SOL    HW1 1583   2.961   0.657   2.404 -0.4843 -0.3274 -1.2660
  528SOL    HW2 1584   0.032   0.632   2.396 -0.6194  1.3453 -0.0238
  529SOL     OW 1585   1.348   1.572   2.659  0.6427 -0.5222  0.2031
  529SOL    HW1 1586   1.407   1.500   2.625 -0.5138  0.5697 -0.3985
  529SOL    HW2 1587   1.253   1.540   2.660 -1.8224 -1.6748 -2.6441
  530SOL     OW 1588   1.653   1.085   2.494 -0.0537 -0.0629 -0.1955
  530SOL    HW1 1589   1.641   1.012   2.420 -2.4256 -2.8035  0.3215
  530SOL    HW2 1590   1.675   1.176   2.451 -2.6417 -2.4537 -1.8533
  531SOL     OW 1591   0.518   2.180   2.546  0.1296 -0.4405 -0.2923
  531SOL    HW1 1592   0.466   2.228   2.470  0.8819 -0.1398 -0.1453
  531SOL    HW2 1593   0.453   2.113   2.594  0.8554  0.2475 -0.8102
  532SOL     OW 1594   2.117   1.142   0.546 -0.3016  0.2556  0.2678
  532SOL    HW1 1595   2.142   1.107   0.454 -2.6556 -1.0973  3.0718
  532SOL    HW2 1596   2.017   1.161   0.559 -0.6823  1.3549 -0.4896
  533SOL     OW 1597   0.100   3.071   1.702 -0.0482 -0.0466 -0.2414
  533SOL    HW1 1598   0.200   3.065   1.687  1.7172 -2.1062 -0.6738
  533SOL    HW2 1599   0.054   3.043   1.610 -2.9242 -1.0657 -0.6449
  534SOL     OW 1600   0.636   0.092   0.059 -0.0846 -0.4636 -0.0446
  534SOL    HW1 1601   0.643   0.108   3.055  1.4089 -1.1983 -1.0217
  534SOL    HW2 1602   0.540   0.053   0.073 -2.1185 -1.3239 -0.4032
  535SOL     OW 1603   0.277   0.042   0.481 -0.4585  0.6212 -0.5803
  535SOL    HW1 1604   0.199   0.100   0.474  1.7170 -1.0909 -1.6565
  535SOL    HW2 1605   0.258   3.054   0.544  1.0172 -3.9201  1.5904
  536SOL     OW 1606   0.286   1.560   1.455  0.0764 -0.0299  0.3409
  536SOL    HW1 1607   0.335   1.647   1.461 -0.0549  0.5210  1.0956
  536SOL    HW2 1608   0.348   1.484   1.431  0.6933  0.5036 -0.0664
  537SOL     OW 1609   1.231   2.650   1.814 -0.2219  0.3265  0.1047
  537SOL    HW1 1610   1.279   2.698   1.894  0.9103  1.3637  2.1122
  537SOL    HW2 1611   1.271   2.554   1.802  1.2503 -0.9346 -1.5827
  538SOL     OW 1612   3.072   1.856   2.970 -0.1243  0.1938  0.4810
  538SOL    HW1 1613   3.039   1.796   3.043  1.7410 -0.7875  0.1681
  538SOL    HW2 1614   0.078   1.860   2.965  0.1883 -2.5873 -0.5223
  539SOL     OW 1615   2.788   1.212   2.522 -0.2985  0.0965  0.2791
  539SOL    HW1 1616   2.793   1.172   2.616  2.0002  0.6633 -0.6147
  539SOL    HW2 1617   2.814   1.149   2.444 -1.7779  2.6489 -0.1812
  540SOL     OW 1618   1.828   0.586   2.173 -0.0581 -0.2205  0.0697
  540SOL    HW1 1619   1.835   0.686   2.162 -0.5705 -1.2043 -1.4801
  540SOL    HW2 1620   1.842   0.566   2.277  1.7335 -1.1123 -0.0627
  541SOL     OW 1621   0.568   0.559   2.237  0.0600  0.1161 -0.0520
  541SOL    HW1 1622   0.545   0.493   2.311 -0.1722 -1.1088  2.2270
  541SOL    HW2 1623   0.507   0.542   2.158  0.2081 -2.0565 -0.6453
  542SOL     OW 1624   2.201   3.071   3.076  0.6286  0.2253  0.7824
  542SOL    HW1 1625   2.103   3.054   3.094  1.2612 -0.9581  0.2008
  542SOL    HW2 1626   2.223   0.014   2.984  0.8789  1.1163  0.9405
  543SOL     OW 1627   1.328   0.078   0.097 -0.4780 -0.6818  0.0987
  543SOL    HW1 1628   1.333   0.169   0.052  2.1762  0.3024 -3.3632
  543SOL    HW2 1629   1.246   0.070   0.153  1.0392 -0.2370 -1.3867
  544SOL     OW 1630   2.493   1.645   1.884 -0.1308 -0.0242 -0.3098
  544SOL    HW1 1631   2.545   1.591   1.957 -0.1672 -0.8526  0.3145
  544SOL    HW2 1632   2.465   1.587   1.806  1.4206 -0.6260 -3.5338
  545SOL     OW 1633   2.183   2.052   1.386 -0.3859 -0.6858 -0.4831
  545SOL    HW1 1634   2.160   2.091   1.296 -1.2793 -0.1697 -0.8936
  545SOL    HW2 1635   2.261   2.107   1.421 -0.9650  0.3669  1.4693
  546SOL     OW 1636   0.101   0.030   2.590  0.2498 -0.3303  0.1158
  546SOL    HW1 1637   0.087   0.008   2.491  0.4629 -3.1957  0.0855
  546SOL    HW2 1638   0.078   3.044   2.644  2.4265 -1.8307 -1.0566
  547SOL     OW 1639   1.657   0.967   0.705 -0.0518  0.4713  0.0609
  547SOL    HW1 1640   1.674   1.066   0.725 -1.6473  0.9651 -0.3769
  547SOL    HW2 1641   1.557   0.946   0.702 -0.5096  1.4179  1.7484
  548SOL     OW 1642   1.612   2.065   2.547  0.0320  0.2571 -0.0774
  548SOL    HW1 1643   1.589   2.158   2.587  0.4554 -0.1205  0.6033
  548SOL    HW2 1644   1.659   2.010   2.617 -0.5145 -1.1797 -0.0407
  549SOL     OW 1645   2.119   0.577   0.536  0.1797 -0.1445 -0.4026
  549SOL    HW1 1646   2.064   0.660   0.513 -1.5298 -0.1394 -0.5508
  549SOL    HW2 1647   2.076   0.524   0.613  0.0156 -1.7613  0.7510
  550SOL     OW 1648   2.713   1.968   0.507 -0.2014  0.1473  0.5167
  550SOL    HW1 1649   2.808   1.955   0.546  4.1679 -1.2490 -0.9425
  550SOL    HW2 1650   2.707   1.909   0.422 -0.0151  0.1439  0.3171
  551SOL     OW 1651   1.236   2.711   2.391  0.1255  0.3383  0.1711
  551SOL    HW1 1652   1.324   2.690   2.341 -0.9032  1.3670 -2.9079
  551SOL    HW2 1653   1.243   2.702   2.491  1.1783 -1.4667 -1.4928
  552SOL     OW 1654   2.822   2.388   2.885 -0.4628 -0.1837 -0.0382
  552SOL    HW1 1655   2.823   2.338   2.795  2.0138 -1.0137  1.2343
  552SOL    HW2 1656   2.802   2.490   2.873  0.4586  1.3047 -0.6293
  553SOL     OW 1657   0.025   0.069   0.717  0.3268  0.2329 -0.3855
  553SOL    HW1 1658   0.115   0.045   0.760  1.5938  0.0137  0.3161
  553SOL    HW2 1659   3.062   0.100   0.792  1.9027 -2.4089  0.9395
  554SOL     OW 1660   2.266   2.443   1.583  0.3065 -0.2683 -0.1150
  554SOL    HW1 1661   2.193   2.515   1.564 -1.0632  0.0287  2.3788
  554SOL    HW2 1662   2.326   2.458   1.661 -0.0778 -1.5670  2.3279
  555SOL     OW 1663   1.770   2.375   2.272  0.6873 -0.1979 -0.1581
  555SOL    HW1 1664   1.678   2.405   2.313 -1.2638  2.2902  0.5874
  555SOL    HW2 1665   1.846   2.413   2.332 -1.9987  0.0958  0.3674
  556SOL     OW 1666   1.197   1.574   1.321 -0.3585 -0.6326 -0.1942
  556SOL    HW1 1667   1.201   1.520   1.234 -0.9697  1.8936  1.5859
  556SOL    HW2 1668   1.279   1.637   1.324 -0.4903 -0.6184  0.1906
  557SOL     OW 1669   1.958   2.480   2.440 -0.2771  0.1014 -0.4408
  557SOL    HW1 1670   2.037   2.446   2.491 -1.4737  2.5772  0.1318
  557SOL    HW2 1671   1.913   2.554   2.491 -2.2661  1.0262 -0.8841
  558SOL     OW 1672   0.212   2.823   2.041  0.1957 -0.3527  0.3021
  558SOL    HW1 1673   0.282   2.860   1.978 -1.6589  0.4288  1.2409
  558SOL    HW2 1674   0.255   2.790   2.126  1.5217 -1.0336  0.2720
  559SOL     OW 1675   2.155   2.976   0.628  0.1621 -0.0251 -0.1903
  559SOL    HW1 1676   2.145   2.890   0.577  1.2131 -0.8916  1.5962
  559SOL    HW2 1677   2.075   3.018   0.672 -0.2642 -1.4210  1.0097
  560SOL     OW 1678   1.656   2.621   0.617  0.5005 -0.2962 -0.2558
  560SOL    HW1 1679   1.616   2.560   0.691 -0.2127  0.6599 -0.8935
  560SOL    HW2 1680   1.696   2.705   0.658 -2.0832  1.9293  1.1227
  561SOL     OW 1681   0.867   0.217   0.709 -0.5955  0.0290 -0.2576
  561SOL    HW1 1682   0.935   0.264   0.649 -0.6514  0.6426  3.2854
  561SOL    HW2 1683   0.896   0.231   0.808 -0.6647 -1.4643 -1.6478
  562SOL     OW 1684   0.526   0.814   2.498 -0.4348  0.0697  0.3124
  562SOL    HW1 1685   0.579   0.802   2.411 -0.4419  0.9494  4.2908
  562SOL    HW2 1686   0.472   0.729   2.517 -1.3656  2.4878 -0.5765
  563SOL     OW 1687   1.616   1.759   2.594 -0.4738 -0.2483  0.2018
  563SOL    HW1 1688   1.694   1.798   2.648  1.0479  1.3227  0.1677
  563SOL    HW2 1689   1.540   1.825   2.588 -1.6416  1.8359 -0.3517
  564SOL     OW 1690   2.746   0.786   1.165  0.6205 -0.2608 -0.1108
  564SOL    HW1 1691   2.683   0.855   1.120 -4.3134  1.4784 -0.3058
  564SOL    HW2 1692   2.784   0.726   1.091 -0.3775 -1.0491 -0.9311
  565SOL     OW 1693   1.020   0.566   2.985  0.6105  0.4964  0.3144
  565SOL    HW1 1694   1.105   0.534   2.936 -1.4909 -1.3553 -1.6431
  565SOL    HW2 1695   0.947   0.598   2.917 -0.8667 -2.1355  0.5865
  566SOL     OW 1696   2.266   0.322   2.760 -0.4014  0.6425 -0.0897
  566SOL    HW1 1697   2.246   0.305   2.665  0.4584  1.0464 -0.0833
  566SOL    HW2 1698   2.264   0.422   2.780  2.2893 -0.4723 -0.3059
  567SOL     OW 1699   2.000   1.447   0.420  0.1164  0.0936  0.6406
  567SOL    HW1 1700   2.038   1.535   0.452 -1.3003 -2.3955 -0.3183
  567SOL    HW2 1701   2.073   1.392   0.369  0.1034  1.1404  0.6137
  568SOL     OW 1702   1.791   1.670   2.902  0.3317 -0.2363 -0.0824
  568SOL    HW1 1703   1.700   1.683   2.858  0.9993  0.0803  0.3708
  568SOL    HW2 1704   1.774   1.654   3.001  0.3123 -1.8352 -2.3339
  569SOL     OW 1705   2.058   1.200   3.027 -0.3599 -0.2106  0.9172
  569SOL    HW1 1706   1.977   1.231   2.971  1.9890 -1.4299 -0.0382
  569SOL    HW2 1707   2.149   1.227   2.988 -1.1148 -2.2470  1.5760
  570SOL     OW 1708   0.539   2.295   1.872 -0.3359  0.1460 -0.0482
  570SOL    HW1 1709   0.554   2.392   1.849 -1.1522  0.9471 -1.9415
  570SOL    HW2 1710   0.438   2.264   1.867 -1.0307  0.6000  1.2011
  571SOL     OW 1711   0.320   1.141   2.027 -0.5230  0.1449 -0.4030
  571SOL    HW1 1712   0.256   1.079   1.982  0.8051 -0.7345  3.5393
  571SOL    HW2 1713   0.297   1.135   2.123  0.2648 -0.9826 -1.3017
  572SOL     OW 1714   1.013   1.869   0.627  0.0466 -0.2790 -0.1392
  572SOL    HW1 1715   1.015   1.834   0.721 -0.7677  1.5848 -0.5797
  572SOL    HW2 1716   1.002   1.785   0.567 -2.9325 -1.3088 -1.1365
  573SOL     OW 1717   1.788   1.943   0.169 -0.5256  0.4468 -0.3236
  573SOL    HW1 1718   1.716   2.007   0.200  0.0614 -0.0008  2.9078
  573SOL    HW2 1719   1.876   1.972   0.214 -2.4504 -0.7253  0.1800
  574SOL     OW 1720   0.901   3.083   1.006  0.0699 -0.5922 -0.0406
  574SOL    HW1 1721   0.821   3.028   0.981  0.6846  0.2509 -2.7053
  574SOL    HW2 1722   0.968   3.057   0.936 -4.3296 -0.1938  2.8764
  575SOL     OW 1723   0.353   1.107   1.391 -0.2228  0.0502  0.2028
  575SOL    HW1 1724   0.383   1.166   1.466 -1.9520  0.6929  1.1247
  575SOL    HW2 1725   0.272   1.142   1.337 -0.5565 -2.0790 -0.0067
  576SOL     OW 1726   2.565   0.053   1.084  0.0125  0.0093  0.1938
  576SOL    HW1 1727   2.483   0.080   1.033 -0.6189 -2.7183  0.7147
  576SOL    HW2 1728   2.573   3.050   1.065  2.0722 -0.8375 -1.1891
  577SOL     OW 1729   0.984   1.148   2.181  0.1315  0.0422  0.3987
  577SOL    HW1 1730   0.991   1.202   2.098  0.6623 -0.1570  2.1315
  577SOL    HW2 1731   0.888   1.133   2.209  3.4752 -0.4643  1.9935
  578SOL     OW 1732   1.942   1.019   2.514  0.2819  0.3460 -0.1103
  578SOL    HW1 1733   1.856   1.069   2.517  0.5623 -0.5280 -1.6013
  578SOL    HW2 1734   2.006   1.056   2.583 -0.1304  1.5703  0.9677
  579SOL     OW 1735   1.875   2.462   1.628  0.2188  0.1304  0.4999
  579SOL    HW1 1736   1.903   2.450   1.726  1.7093  0.7932 -0.4041
  579SOL    HW2 1737   1.891   2.378   1.576 -1.5437  2.4754  0.8823
  580SOL     OW 1738   1.619   1.569   2.388 -0.2212  0.1476 -0.4883
  580SOL    HW1 1739   1.648   1.630   2.469  0.1880  0.8648  1.0280
  580SOL    HW2 1740   1.532   1.598   2.350  1.6826 -3.0148  0.2886
  581SOL     OW 1741   1.321   1.217   2.455 -0.3239 -0.4466 -0.0832
  581SOL    HW1 1742   1.278   1.133   2.499  1.2255 -1.9036 -0.5324
  581SOL    HW2 1743   1.391   1.252   2.519  1.6565  0.6123 -1.8033
  582SOL     OW 1744   1.085   1.286   1.624  0.1287  0.3426  0.6826
  582SOL    HW1 1745   1.069   1.244   1.533  0.0493  0.2924  2.0747
  582SOL    HW2 1746   1.109   1.385   1.606 -1.0935 -0.1089 -0.5695
  583SOL     OW 1747   1.309   1.153   1.761  0.1368 -0.2430 -0.6340
  583SOL    HW1 1748   1.247   1.179   1.686 -1.2234 -1.3875  0.2940
  583SOL    HW2 1749   1.344   1.240   1.805  1.2122  0.5921  3.4637
  584SOL     OW 1750   2.128   2.958   0.251 -0.1776  0.0772  0.7963
  584SOL    HW1 1751   2.163   2.865   0.267  0.6416  0.0219 -0.4217
  584SOL    HW2 1752   2.198   3.029   0.275  0.2975  0.8749 -0.9257
  585SOL     OW 1753   1.888   3.028   2.864 -0.7807 -0.4568 -0.7345
  585SOL    HW1 1754   1.923   2.960   2.796  1.0924  0.7460 -0.6899
  585SOL    HW2 1755   1.928   3.017   2.956  1.5634  0.8773  1.2380
  586SOL     OW 1756   2.814   1.864   1.133  0.0662 -0.0399 -0.2207
  586SOL    HW1 1757   2.721   1.860   1.170  0.5373 -0.8471  0.8680
  586SOL    HW2 1758   2.871   1.928   1.191  0.6424 -2.0354 -0.8289
  587SOL     OW 1759   1.191   1.827   0.046 -0.1302 -0.0946  0.0514
  587SOL    HW1 1760   1.236   1.736   0.027  0.8571 -0.7974 -0.5156
  587SOL    HW2 1761   1.133   1.864   3.066  1.2119  2.0624  1.8947
  588SOL     OW 1762   0.259   0.370   1.013 -0.0683 -0.0161  0.0861
  588SOL    HW1 1763   0.337   0.399   0.952  2.5364 -0.3111  1.0436
  588SOL    HW2 1764   0.293   0.335   1.105  0.1474 -2.8980  1.4391
  589SOL     OW 1765   1.268   0.063   0.608 -0.0711  0.2563 -0.1511
  589SOL    HW1 1766   1.248   0.141   0.543  0.3943  3.0999  0.3696
  589SOL    HW2 1767   1.264   0.095   0.706 -0.7302  1.2327  1.7379
  590SOL     OW 1768   1.250   0.779   2.930 -0.5941 -0.3121 -0.4538
  590SOL    HW1 1769   1.187   0.711   2.896  1.6453  2.5629 -1.1052
  590SOL    HW2 1770   1.200   0.864   2.956  1.2253  1.0770 -2.6885
  591SOL     OW 1771   2.776   2.355   1.927 -0.1743  0.3341 -0.5515
  591SOL    HW1 1772   2.821   2.422   1.985 -1.3181 -1.1669  0.0613
  591SOL    HW2 1773   2.842   2.296   1.878  0.9706 -1.7653 -1.5494
  592SOL     OW 1774   2.383   1.445   1.689  0.1445 -0.5475 -0.3103
  592SOL    HW1 1775   2.321   1.503   1.630  0.0672 -0.1280  1.0100
  592SOL    HW2 1776   2.438   1.388   1.626 -1.5417 -2.8857 -2.6266
  593SOL     OW 1777   1.269   1.106   1.465  0.3164 -0.4461  0.0674
  593SOL    HW1 1778   1.249   1.005   1.470 -1.6537 -1.2117 -1.1944
  593SOL    HW2 1779   1.236   1.141   1.373 -0.8161  1.3934 -3.5229
  594SOL     OW 1780   2.531   1.301   2.514  0.3009 -0.0392  0.6557
  594SOL    HW1 1781   2.528   1.402   2.514 -1.5517 -2.1217  1.3244
  594SOL    HW2 1782   2.627   1.262   2.515 -0.4024  1.1439 -0.3873
  595SOL     OW 1783   0.005   0.140   0.454  0.0833 -0.2359 -0.6217
  595SOL    HW1 1784   3.082   0.118   0.552 -0.8371  2.7057 -2.3430
  595SOL    HW2 1785   3.049   0.223   0.422 -1.5871  1.6844 -0.7020
  596SOL     OW 1786   3.080   1.620   0.936  0.1100 -0.8502 -0.5590
  596SOL    HW1 1787   3.041   1.556   0.863  1.4816 -1.5685  3.2832
  596SOL    HW2 1788   0.081   1.620   0.941 -0.0627 -0.8671 -1.2146
  597SOL     OW 1789   1.332   1.685   0.747 -0.2767 -0.4340 -0.4312
  597SOL    HW1 1790   1.323   1.770   0.808  0.6005 -0.2853  2.3724
  597SOL    HW2 1791   1.311   1.707   0.649 -1.8651  2.5791 -0.9808
  598SOL     OW 1792   0.404   2.884   1.861 -0.0704 -0.7668  0.1004
  598SOL    HW1 1793   0.408   2.966   1.798  1.2822  1.0965  2.0987
  598SOL    HW2 1794   0.352   2.805   1.822 -1.0321  2.7301  1.3164
  599SOL     OW 1795   3.059   1.697   2.414 -0.1232  0.2248 -0.4982
  599SOL    HW1 1796   3.020   1.602   2.423  1.6165 -1.2203 -0.0689
  599SOL    HW2 1797   2.998   1.764   2.463  1.8329  0.3502  0.6455
  600SOL     OW 1798   0.559   0.742   3.020 -0.9940  0.1823  0.1624
  600SOL    HW1 1799   0.579   0.644   3.019 -1.9525  1.0866 -1.4256
  600SOL    HW2 1800   0.546   0.771   2.926  1.3095 -0.9527 -0.1063
  601SOL     OW 1801   0.689   0.850   0.842 -0.1673  0.0104 -0.1430
  601SOL    HW1 1802   0.619   0.793   0.796  0.8053  0.2931  0.8866
  601SOL    HW2 1803   0.654   0.923   0.905  1.9554  1.7522 -0.6563
  602SOL     OW 1804   1.019   2.511   0.403  0.4522 -0.6980 -0.2095
  602SOL    HW1 1805   1.005   2.611   0.419 -1.3374 -0.6079 -1.5216
  602SOL    HW2 1806   1.045   2.466   0.488  0.1813 -0.6134  1.0152
  603SOL     OW 1807   1.574   2.138   2.241 -0.8829 -0.0836  0.0908
  603SOL    HW1 1808   1.623   2.191   2.316  0.0618  0.8444  2.1184
  603SOL    HW2 1809   1.534   2.201   2.173  0.0246 -1.3945 -1.6406
  604SOL     OW 1810   0.438   0.191   2.824 -0.0847  0.0884  0.9251
  604SOL    HW1 1811   0.360   0.224   2.887 -0.2380  3.7568  0.2832
  604SOL    HW2 1812   0.529   0.183   2.866 -2.0095 -0.2056 -1.2980
  605SOL     OW 1813   2.608   0.924   1.611  0.3986 -0.3722  0.1852
  605SOL    HW1 1814   2.625   0.948   1.710  0.4644  1.4963  0.0834
  605SOL    HW2 1815   2.699   0.921   1.559 -3.2827  0.1103 -0.8380
  606SOL     OW 1816   0.859   1.799   2.671 -0.4131 -0.4983 -0.5102
  606SOL    HW1 1817   0.831   1.885   2.631  0.1814  0.4769  0.7450
  606SOL    HW2 1818   0.938   1.754   2.625  2.4702  0.1970 -0.6456
  607SOL     OW 1819   0.694   0.028   0.619 -0.4233  0.1772  0.4519
  607SOL    HW1 1820   0.698   3.084   0.522  0.0610 -2.2498 -1.7538
  607SOL    HW2 1821   0.767   0.092   0.635 -0.6376 -0.8473  0.7885
  608SOL     OW 1822   2.356   1.807   1.645 -0.2695 -0.3793  0.2463
  608SOL    HW1 1823   2.326   1.832   1.735  0.2967 -0.0540 -1.6719
  608SOL    HW2 1824   2.305   1.722   1.615 -2.2880 -0.7984 -2.8990
  609SOL     OW 1825   2.750   0.295   0.699  0.6567  0.0063 -0.2489
  609SOL    HW1 1826   2.741   0.273   0.802 -0.4561 -1.4765 -1.3916
  609SOL    HW2 1827   2.708   0.384   0.669 -0.7910  3.3926 -0.7985
  610SOL     OW 1828   0.295   2.481   1.214  0.1183 -0.1883 -0.2978
  610SOL    HW1 1829   0.273   2.439   1.307 -0.2571 -2.1637 -0.3836
  610SOL    HW2 1830   0.399   2.483   1.198 -1.2813  0.7391  1.8611
  611SOL     OW 1831   1.503   1.625   0.208  0.1982  0.3883 -0.0954
  611SOL    HW1 1832   1.587   1.638   0.151  1.1383 -0.1254  1.2585
  611SOL    HW2 1833   1.495   1.701   0.273  2.2084 -0.5058  2.0699
  612SOL     OW 1834   0.653   2.678   2.073  0.2599  0.3933  0.1169
  612SOL    HW1 1835   0.558   2.631   2.078  0.1913 -1.2508  1.1625
  612SOL    HW2 1836   0.640   2.779   2.094  0.7792 -0.4326 -0.8317
  613SOL     OW 1837   0.495   2.742   0.866  0.1114 -0.4043 -0.3414
  613SOL    HW1 1838   0.549   2.699   0.788  1.7906  0.9252  1.1576
  613SOL    HW2 1839   0.548   2.731   0.954  1.0097  0.7881 -0.6275
  614SOL     OW 1840   2.321   0.201   2.149  0.1058  0.0476  0.7292
  614SOL    HW1 1841   2.239   0.265   2.162 -0.3469  1.0509  1.6106
  614SOL    HW2 1842   2.310   0.143   2.066  0.8596  0.0109  2.0404
  615SOL     OW 1843   1.572   1.364   0.302  0.1359 -0.1759 -0.0197
  615SOL    HW1 1844   1.527   1.452   0.282  1.1071  0.8749  1.5512
  615SOL    HW2 1845   1.648   1.381   0.371  0.9033 -1.0394  1.1319
  616SOL     OW 1846   1.732   1.445   0.496  0.5847  0.1504 -0.7469
  616SOL    HW1 1847   1.717   1.544   0.517  0.0346  1.6523  0.3162
  616SOL    HW2 1848   1.832   1.439   0.470  1.6570  2.9489 -0.6618
  617SOL     OW 1849   1.194   1.001   2.600  0.0292 -0.0850 -0.1890
  617SOL    HW1 1850   1.156   0.906   2.592  0.0332  0.5776 -1.1460
  617SOL    HW2 1851   1.282   1.000   2.650 -2.2265  0.1206  0.0008
  618SOL     OW 1852   0.604   2.952   2.062  0.2196 -0.5674  0.0591
  618SOL    HW1 1853   0.546   2.946   1.980 -1.4787  0.5542 -1.8852
  618SOL    HW2 1854   0.569   3.024   2.128  0.7224  0.9710  1.9245
  619SOL     OW 1855   2.866   1.569   1.438 -0.7250 -0.2502 -0.0049
  619SOL    HW1 1856   2.913   1.587   1.349  1.2037  0.0976  0.1350
  619SOL    HW2 1857   2.765   1.562   1.430  0.8309  0.5197 -3.0456
  620SOL     OW 1858   2.594   0.521   2.910  0.3572  0.5503 -0.0651
  620SOL    HW1 1859   2.590   0.601   2.852 -0.0298 -1.8034  0.6337
  620SOL    HW2 1860   2.598   0.434   2.856  2.5487 -0.8115 -0.7032
  621SOL     OW 1861   2.345   2.017   2.367  0.9384 -0.1016  1.0727
  621SOL    HW1 1862   2.290   2.057   2.287 -0.3167 -0.6287 -2.4319
  621SOL    HW2 1863   2.272   1.957   2.405  1.4123  0.2160 -3.7696
  622SOL     OW 1864   0.985   0.747   2.337  0.2705 -0.2811  0.1594
  622SOL    HW1 1865   0.945   0.664   2.296  0.7489 -0.9169  0.1099
  622SOL    HW2 1866   1.031   0.798   2.267 -0.8000  0.8537 -0.0815
  623SOL     OW 1867   0.742   1.089   2.350  0.5103 -0.1075 -0.3346
  623SOL    HW1 1868   0.775   1.053   2.437 -1.2875  2.4788 -1.5494
  623SOL    HW2 1869   0.664   1.036   2.316  2.6102  2.1082  0.4781
  624SOL     OW 1870   2.780   0.580   0.401 -0.3030 -0.0082  0.0064
  624SOL    HW1 1871   2.701   0.577   0.332  0.3537 -0.9853 -0.2120
  624SOL    HW2 1872   2.838   0.651   0.365 -1.4632 -1.6106 -1.1220
  625SOL     OW 1873   0.675   2.202   1.134 -0.0513 -0.0595 -0.0340
  625SOL    HW1 1874   0.632   2.257   1.062 -1.4833  0.0418 -0.5340
  625SOL    HW2 1875   0.607   2.135   1.173 -5.6294 -3.2993  0.3408
  626SOL     OW 1876   2.085   0.643   2.666  0.0024  0.5597  0.1756
  626SOL    HW1 1877   2.105   0.615   2.762 -2.1678 -1.3610 -1.7112
  626SOL    HW2 1878   1.990   0.674   2.654  1.0777 -1.8837  1.3084
  627SOL     OW 1879   1.595   2.653   2.879 -0.1980 -0.4147 -0.4204
  627SOL    HW1 1880   1.503   2.613   2.900  0.1232  2.5852  0.9942
  627SOL    HW2 1881   1.614   2.655   2.777  0.6644 -0.9932  0.0171
  628SOL     OW 1882   2.576   2.944   2.342  0.1166 -0.6975  0.3457
  628SOL    HW1 1883   2.620   2.962   2.248 -1.1165  0.0112 -0.2197
  628SOL    HW2 1884   2.602   3.025   2.402  0.1546 -0.5495 -0.1609
  629SOL     OW 1885   1.045   0.038   2.263  0.0948  0.3989  0.4185
  629SOL    HW1 1886   1.054   0.007   2.163  1.6024 -1.5996 -1.3816
  629SOL    HW2 1887   1.123   0.008   2.322 -0.2498  0.2263  3.0897
  630SOL     OW 1888   0.859   0.375   2.410 -0.0284  0.1648  0.7935
  630SOL    HW1 1889   0.907   0.401   2.493  0.1953 -1.4764  0.1224
  630SOL    HW2 1890   0.845   0.276   2.389  1.5222 -0.7158 -0.5712
  631SOL     OW 1891   1.885   1.320   0.848 -0.6614 -0.1550  0.8506
  631SOL    HW1 1892   1.799   1.295   0.797  0.2911 -1.2376 -0.1128
  631SOL    HW2 1893   1.880   1.293   0.945  0.2515  0.6722  0.9336
  632SOL     OW 1894   2.374   0.421   1.677 -0.3712 -0.4162 -0.4033
  632SOL    HW1 1895   2.296   0.369   1.636 -2.6941  3.0800  1.4303
  632SOL    HW2 1896   2.396   0.515   1.630  1.5476  2.2578  0.3608
  633SOL     OW 1897   1.146   1.860   0.325 -0.1953 -0.2169  0.1301
  633SOL    HW1 1898   1.130   1.959   0.335  0.7866 -0.9379 -0.0966
  633SOL    HW2 1899   1.109   1.821   0.239  1.4059 -1.4912  0.5061
  634SOL     OW 1900   2.736   0.032   1.654 -0.4619  0.0388 -0.5116
  634SOL    HW1 1901   2.640   0.069   1.657 -0.9167 -0.5078  0.6466
  634SOL    HW2 1902   2.805   0.109   1.642  1.3600  0.5992 -0.3187
  635SOL     OW 1903   1.486   0.535   1.040 -0.2188 -0.0679  0.3617
  635SOL    HW1 1904   1.552   0.604   1.071  1.5616  0.9170 -1.9608
  635SOL    HW2 1905   1.517   0.438   1.065  1.2534 -1.6547  0.6235
  636SOL     OW 1906   0.797   1.143   3.048 -0.0242 -0.1751 -0.6833
  636SOL    HW1 1907   0.757   1.054   3.090 -3.3454 -0.0997  0.6604
  636SOL    HW2 1908   0.733   1.221   3.061 -0.9322  2.6363  1.2173
  637SOL     OW 1909   3.052   2.130   2.875 -0.2990  0.1890  0.0693
  637SOL    HW1 1910   3.072   2.033   2.892  0.8423  1.9561  0.0075
  637SOL    HW2 1911   3.074   2.199   2.948 -0.1736  2.2343  1.7922
  638SOL     OW 1912   1.587   2.285   2.734 -0.1161  0.1041 -0.6825
  638SOL    HW1 1913   1.502   2.297   2.682 -0.5008 -2.6333 -1.4165
  638SOL    HW2 1914   1.574   2.214   2.807 -2.7133  1.2277  2.1999
  639SOL     OW 1915   1.614   1.835   0.825  0.1692  0.0857  0.4431
  639SOL    HW1 1916   1.519   1.872   0.835 -2.1684  1.5668  4.5003
  639SOL    HW2 1917   1.637   1.811   0.729  1.9459  1.9851  0.1266
  640SOL     OW 1918   1.927   2.992   0.449  0.0325  0.0861  0.0048
  640SOL    HW1 1919   1.984   2.944   0.379  1.6117 -2.4679  2.0386
  640SOL    HW2 1920   1.971   3.075   0.482  0.1470 -0.0982 -0.9819
  641SOL     OW 1921   2.717   0.403   0.149 -0.3305 -0.3536  0.1542
  641SOL    HW1 1922   2.673   0.485   0.184 -1.2057  0.6705 -0.1911
  641SOL    HW2 1923   2.653   0.351   0.092 -0.3646  1.1043  0.4767
  642SOL     OW 1924   0.165   0.720   1.203  0.1833 -0.2292  0.2003
  642SOL    HW1 1925   0.103   0.761   1.137 -2.5271 -0.4655  0.7414
  642SOL    HW2 1926   0.196   0.788   1.273  0.1130 -1.0939  0.6286
  643SOL     OW 1927   0.420   1.541   2.338 -0.5354  0.4097  0.0083
  643SOL    HW1 1928   0.516   1.510   2.356 -1.6405  3.6344 -1.5109
  643SOL    HW2 1929   0.416   1.643   2.352  1.2318  1.4389  0.0800
  644SOL     OW 1930   2.077   2.477   0.524  0.6518 -0.1557 -0.3404
  644SOL    HW1 1931   1.990   2.473   0.471 -0.7217  4.0058 -1.6307
  644SOL    HW2 1932   2.065   2.456   0.623  3.1850 -0.4755  0.0373
  645SOL     OW 1933   2.123   2.128   1.138  0.0475 -0.2308 -0.3519
  645SOL    HW1 1934   2.134   2.028   1.124 -1.2722  0.6732 -2.1252
  645SOL    HW2 1935   2.029   2.157   1.102 -1.1453 -0.9180 -4.0564
  646SOL     OW 1936   0.944   2.249   2.804 -0.0031  0.0872  0.3783
  646SOL    HW1 1937   0.929   2.184   2.881  0.9187 -0.9720  1.3700
  646SOL    HW2 1938   0.915   2.342   2.829 -1.4463 -5.1134 -3.6805
  647SOL     OW 1939   0.975   2.693   1.826  0.6446 -0.3754  0.0876
  647SOL    HW1 1940   1.075   2.699   1.832  0.0581  0.6030  0.5980
  647SOL    HW2 1941   0.928   2.778   1.864 -0.8249 -0.7174  1.8231
  648SOL     OW 1942   1.496   0.372   1.290  0.3788  0.3315  0.3078
  648SOL    HW1 1943   1.486   0.337   1.384  1.7317 -0.1875 -2.2068
  648SOL    HW2 1944   1.595   0.384   1.272 -2.6945 -1.2256 -2.6181
  649SOL     OW 1945   1.611   2.130   0.176 -0.1633 -0.7862 -0.2854
  649SOL    HW1 1946   1.536   2.060   0.159 -1.3839  0.5859  1.4155
  649SOL    HW2 1947   1.604   2.166   0.274 -0.2453  2.4309  2.2313
  650SOL     OW 1948   2.165   1.612   1.584  0.6982 -0.7781  0.2756
  650SOL    HW1 1949   2.144   1.555   1.505  2.3473  0.5644  2.4197
  650SOL    HW2 1950   2.118   1.703   1.574 -2.7979  4.1965 -0.5147
  651SOL     OW 1951   1.645   2.585   0.077 -0.3146 -0.1922 -0.7223
  651SOL    HW1 1952   1.639   2.613   3.074  0.7410 -2.4479  2.8084
  651SOL    HW2 1953   1.683   2.491   0.083  1.4179 -1.2685 -0.3868
  652SOL     OW 1954   0.344   2.084   0.006 -0.7736  0.1302  0.1694
  652SOL    HW1 1955   0.295   2.000   3.073  0.0112  0.9521 -0.3135
  652SOL    HW2 1956   0.409   2.113   3.033  0.1745 -0.4287  2.6675
  653SOL     OW 1957   2.743   2.745   1.147 -0.2722  0.1467 -0.4890
  653SOL    HW1 1958   2.822   2.691   1.107  1.9424 -1.2498  1.3696
  653SOL    HW2 1959   2.678   2.789   1.080 -1.2451 -0.7259  2.1336
  654SOL     OW 1960   2.809   2.984   1.867  0.0422  0.3718 -0.7817
  654SOL    HW1 1961   2.909   2.975   1.889  0.3967  0.2827  2.5909
  654SOL    HW2 1962   2.794   3.032   1.777  1.4416  0.5265 -1.9137
  655SOL     OW 1963   2.883   1.813   0.886  0.0083  0.6608  0.6375
  655SOL    HW1 1964   2.949   1.738   0.896 -2.3376  2.1403 -3.5513
  655SOL    HW2 1965   2.848   1.832   0.980  1.2010 -0.4030  0.4959
  656SOL     OW 1966   2.905   3.069   2.370 -0.0151 -0.1974 -0.0152
  656SOL    HW1 1967   2.932   3.062   2.273  0.2430  1.5537  0.4686
  656SOL    HW2 1968   2.931   2.987   2.422 -0.9661 -1.2398 -0.1131
  657SOL     OW 1969   2.751   1.349   2.904  0.0700 -0.4230 -0.0167
  657SOL    HW1 1970   2.782   1.262   2.857 -1.6952 -1.6355 -3.0401
  657SOL    HW2 1971   2.648   1.342   2.907 -1.0618 -1.6880  1.0419
  658SOL     OW 1972   2.395   1.707   0.866  0.1665  0.3170 -0.6895
  658SOL    HW1 1973   2.295   1.707   0.874 -1.0610 -1.1184  0.2118
  658SOL    HW2 1974   2.441   1.753   0.786 -0.0945  0.2383 -2.3169
  659SOL     OW 1975   1.580   0.251   0.875 -0.3103  0.1538 -0.6763
  659SOL    HW1 1976   1.650   0.219   0.948  2.1286  0.2277  2.6139
  659SOL    HW2 1977   1.487   0.209   0.870 -0.2311 -2.2809  0.5308
  660SOL     OW 1978   1.569   1.379   2.854  0.2455 -0.1095 -0.1215
  660SOL    HW1 1979   1.488   1.342   2.905 -0.3272  0.8513  2.4130
  660SOL    HW2 1980   1.546   1.477   2.836 -0.0775 -2.1424  3.0312
  661SOL     OW 1981   0.301   2.140   1.059  0.4835 -0.3792  0.1448
  661SOL    HW1 1982   0.264   2.203   0.990  2.1826  2.8865 -0.8247
  661SOL    HW2 1983   0.230   2.117   1.131 -0.9409 -2.4156  1.3778
  662SOL     OW 1984   2.999   0.658   2.676  0.1383 -0.5833 -0.6069
  662SOL    HW1 1985   2.940   0.717   2.741 -0.4381  0.2399  1.7769
  662SOL    HW2 1986   3.016   0.697   2.585 -1.5716 -0.7738  1.0966
  663SOL     OW 1987   1.936   1.718   1.125  0.6303  0.3064 -0.4807
  663SOL    HW1 1988   1.893   1.666   1.048 -1.1647 -2.4325 -1.3304
  663SOL    HW2 1989   1.864   1.755   1.180  2.3861  1.2312 -0.8969
  664SOL     OW 1990   0.930   1.161   1.333 -0.1909  0.0461 -0.0164
  664SOL    HW1 1991   0.934   1.062   1.362  1.3722  0.0250  0.3928
  664SOL    HW2 1992   1.028   1.181   1.298  2.3536 -0.4586  2.7517
  665SOL     OW 1993   1.604   2.745   2.562 -0.2034 -0.3023 -0.1220
  665SOL    HW1 1994   1.506   2.758   2.574  0.7585  2.4305 -2.9895
  665SOL    HW2 1995   1.629   2.674   2.490  0.8996  1.6881 -2.7373
  666SOL     OW 1996   2.879   2.860   2.754 -0.2011  0.8748  0.1760
  666SOL    HW1 1997   2.976   2.890   2.742  2.4922 -0.1062  0.1318
  666SOL    HW2 1998   2.821   2.933   2.789  0.1880 -2.0965 -2.2975
  667SOL     OW 1999   2.329   1.344   1.931 -0.3303 -0.0948 -0.1021
  667SOL    HW1 2000   2.344   1.384   1.841 -0.4064 -0.7464  3.4393
  667SOL    HW2 2001   2.344   1.246   1.936  0.1700  1.8695 -1.5988
  668SOL     OW 2002   0.322   1.227   2.682 -0.7159  0.1962  0.4371
  668SOL    HW1 2003   0.316   1.303   2.746  1.8385  1.2247 -1.9788
  668SOL    HW2 2004   0.318   1.262   2.584  1.9570 -1.6959  3.0855
  669SOL     OW 2005   2.202   2.265   2.480  0.3443  0.2596  0.0510
  669SOL    HW1 2006   2.162   2.228   2.397  0.4760 -1.1404  2.4722
  669SOL    HW2 2007   2.293   2.225   2.498 -0.0083 -2.8290  0.6101
  670SOL     OW 2008   2.372   1.068   1.909  0.7068  0.0651 -0.0108
  670SOL    HW1 2009   2.319   1.020   1.979  2.9845  0.1254 -0.7189
  670SOL    HW2 2010   2.323   1.083   1.818 -3.4261  1.0601 -2.6087
  671SOL     OW 2011   2.382   1.383   0.107  0.0643 -0.6848 -0.5265
  671SOL    HW1 2012   2.436   1.298   0.091  1.0925  1.8697 -1.0320
  671SOL    HW2 2013   2.405   1.462   0.045  1.7622  2.6515  1.0976
  672SOL     OW 2014   2.580   0.973   2.155  0.0210  0.0087 -0.7095
  672SOL    HW1 2015   2.559   0.956   2.056  1.2367 -0.9770 -0.8412
  672SOL    HW2 2016   2.581   1.073   2.176  1.3670 -0.2031 -1.1732
  673SOL     OW 2017   2.783   0.799   1.892  0.3935 -0.1409 -0.5742
  673SOL    HW1 2018   2.714   0.872   1.923 -3.1462  1.3938  1.3795
  673SOL    HW2 2019   2.839   0.768   1.970 -0.6622  0.7460 -2.2322
  674SOL     OW 2020   2.064   1.868   1.538 -0.0007  0.3556 -0.4776
  674SOL    HW1 2021   1.966   1.905   1.552 -1.2443 -0.1248 -0.5360
  674SOL    HW2 2022   2.126   1.942   1.499 -0.5438  3.9390 -2.1795
  675SOL     OW 2023   0.456   0.704   0.827  0.1084 -0.2779  0.1431
  675SOL    HW1 2024   0.448   0.734   0.928 -0.9691  2.0033  2.5555
  675SOL    HW2 2025   0.466   0.607   0.835 -1.7667  0.8667  1.5425
  676SOL     OW 2026   1.597   1.247   1.186  0.2210 -0.0736 -0.4300
  676SOL    HW1 2027   1.596   1.352   1.189  0.9283  4.0786 -0.9966
  676SOL    HW2 2028   1.608   1.211   1.281  1.7182 -1.7145 -0.6883
  677SOL     OW 2029   2.308   1.438   2.191  0.5241  0.2323  0.0180
  677SOL    HW1 2030   2.341   1.431   2.094 -1.4499 -0.4163 -1.8016
  677SOL    HW2 2031   2.310   1.536   2.221  0.2900  1.6898  0.2539
  678SOL     OW 2032   0.190   1.435   0.585 -0.4658  0.5891  0.0748
  678SOL    HW1 2033   0.262   1.392   0.524  1.2316  0.9426  0.2668
  678SOL    HW2 2034   0.102   1.421   0.535 -1.2757  1.2947 -0.3956
  679SOL     OW 2035   2.601   2.490   0.572  0.4938 -0.0145  0.2377
  679SOL    HW1 2036   2.560   2.574   0.537  0.4629 -0.2074 -0.7346
  679SOL    HW2 2037   2.702   2.503   0.580 -0.2334  0.1637  0.7392
  680SOL     OW 2038   2.816   2.313   1.528 -0.8483  0.3124  0.5050
  680SOL    HW1 2039   2.755   2.252   1.474 -1.3258  0.1400  0.4885
  680SOL    HW2 2040   2.875   2.256   1.591 -1.5519 -0.4147  2.9627
  681SOL     OW 2041   0.486   1.392   1.319  0.1917  0.3135  0.4654
  681SOL    HW1 2042   0.574   1.350   1.299  1.6210  1.5524 -0.5560
  681SOL    HW2 2043   0.416   1.368   1.247 -0.5208 -0.1754  0.1432
  682SOL     OW 2044   1.511   2.482   0.828  0.7446 -0.5114 -0.1983
  682SOL    HW1 2045   1.514   2.486   0.931 -2.4930 -2.7386  2.3761
  682SOL    HW2 2046   1.486   2.394   0.792  2.4810 -0.5045  3.3208
  683SOL     OW 2047   2.382   1.363   0.650  0.3469 -0.2047  0.3055
  683SOL    HW1 2048   2.456   1.363   0.717 -2.0799 -2.9447 -1.7849
  683SOL    HW2 2049   2.421   1.368   0.553 -1.9975 -1.8037  0.6361
  684SOL     OW 2050   0.808   2.132   2.054  0.2673 -0.7903  0.0784
  684SOL    HW1 2051   0.910   2.117   2.063  0.7158  0.9026  2.4220
  684SOL    HW2 2052   0.768   2.115   1.960  1.1096  1.1644 -1.8702
  685SOL     OW 2053   1.935   1.435   0.067 -0.2363  0.3178  0.1138
  685SOL    HW1 2054   2.002   1.378   0.121  0.3214 -1.0421  2.1833
  685SOL    HW2 2055   1.889   1.375   3.096 -0.3779  0.0343  0.4432
  686SOL     OW 2056   0.177   0.322   0.695 -0.4577 -0.1191  0.1826
  686SOL    HW1 2057   0.176   0.339   0.796  0.4876  1.1042  0.6998
  686SOL    HW2 2058   0.146   0.228   0.678 -0.6570  0.7589  1.0965
  687SOL     OW 2059   1.349   2.523   2.913 -0.4140  0.2305  0.4345
  687SOL    HW1 2060   1.256   2.541   2.947 -0.2582  0.3806 -2.7430
  687SOL    HW2 2061   1.386   2.438   2.951 -0.1088  1.6508 -2.3780
  688SOL     OW 2062   2.031   1.811   1.803  0.5984 -0.2328 -0.4662
  688SOL    HW1 2063   2.120   1.825   1.845 -3.5138 -0.6013  0.0429
  688SOL    HW2 2064   2.039   1.826   1.702 -0.5622 -0.7502 -0.7146
  689SOL     OW 2065   2.369   0.665   2.037 -0.5940 -0.1302 -0.3054
  689SOL    HW1 2066   2.462   0.651   1.991  3.0289  0.5911 -3.0906
  689SOL    HW2 2067   2.373   0.682   2.134  1.5397  0.2201  2.3478
  690SOL     OW 2068   2.038   0.702   1.443 -0.2192 -0.5075  0.2498
  690SOL    HW1 2069   1.965   0.774   1.427 -0.7950 -0.1688  1.3531
  690SOL    HW2 2070   2.109   0.734   1.506 -0.8154  1.6455 -1.8230
  691SOL     OW 2071   1.087   1.993   1.504  0.1805  1.3962 -0.1109
  691SOL    HW1 2072   1.032   1.914   1.524  0.1876 -2.3975 -2.4632
  691SOL    HW2 2073   1.042   2.043   1.427  1.9860 -1.4369 -0.3850
  692SOL     OW 2074   1.677   0.093   1.493  1.0599  0.4516 -0.6537
  692SOL    HW1 2075   1.642   0.178   1.544 -0.8586 -0.6600  0.1731
  692SOL    HW2 2076   1.758   0.114   1.436 -1.4601 -0.3814  1.7776
  693SOL     OW 2077   0.576   1.114   2.702 -0.6690 -0.5700  0.0735
  693SOL    HW1 2078   0.571   1.016   2.730 -2.2864 -0.3444 -0.7462
  693SOL    HW2 2079   0.486   1.163   2.684  0.3897 -0.0499  1.5270
  694SOL     OW 2080   2.191   2.813   1.075  0.2149  0.1412  0.0523
  694SOL    HW1 2081   2.169   2.752   1.003 -1.2355  1.9188  0.6807
  694SOL    HW2 2082   2.178   2.755   1.155  0.4967  0.7604  0.9561
  695SOL     OW 2083   1.425   1.329   2.053 -0.2033 -0.5309 -0.0465
  695SOL    HW1 2084   1.402   1.359   1.961 -2.7063 -2.2157  0.1743
  695SOL    HW2 2085   1.407   1.406   2.117 -0.8665  1.8419  0.3414
  696SOL     OW 2086   1.754   0.346   1.188  0.2602  0.0362 -0.2433
  696SOL    HW1 2087   1.803   0.280   1.133  2.4960  0.5953 -0.9977
  696SOL    HW2 2088   1.804   0.435   1.205 -1.3602  3.0832  0.4047
  697SOL     OW 2089   1.374   0.203   1.088 -0.0844  0.1237 -0.2458
  697SOL    HW1 2090   1.353   0.106   1.121  3.5788 -0.2770  2.1076
  697SOL    HW2 2091   1.436   0.250   1.152 -1.1852  0.3890 -1.7604
  698SOL     OW 2092   1.697   1.209   1.937 -0.0507 -0.2812  0.0542
  698SOL    HW1 2093   1.797   1.210   1.952  0.5871  2.7858 -1.2376
  698SOL    HW2 2094   1.645   1.260   2.007 -1.0450  0.2903  0.2900
  699SOL     OW 2095   1.564   1.136   1.438 -0.1396 -0.0802 -0.2159
  699SOL    HW1 2096   1.464   1.134   1.450  0.3665  1.9329  2.3641
  699SOL    HW2 2097   1.603   1.168   1.526  1.7246  0.4008  1.9606
  700SOL     OW 2098   1.545   0.070   0.281 -0.2066 -0.1032 -0.0709
  700SOL    HW1 2099   1.618   0.129   0.241  3.2507  0.4998 -4.7351
  700SOL    HW2 2100   1.470   0.061   0.213 -3.2632  2.3250 -3.1527
  701SOL     OW 2101   0.374   3.082   1.651 -0.1632  0.4630 -0.2503
  701SOL    HW1 2102   0.425   0.070   1.625 -0.5305 -1.3891 -0.0687
  701SOL    HW2 2103   0.393   3.011   1.584  0.7325  1.0015  0.6814
  702SOL     OW 2104   1.207   2.798   0.092 -0.2310  0.3448 -0.8446
  702SOL    HW1 2105   1.265   2.728   0.147  1.0018  0.6527  2.5420
  702SOL    HW2 2106   1.270   2.872   0.055 -0.0979 -0.2780 -0.1077
  703SOL     OW 2107   2.514   0.336   2.225  0.4510  0.3076 -0.3589
  703SOL    HW1 2108   2.476   0.399   2.297 -0.6554  2.4521 -0.7057
  703SOL    HW2 2109   2.439   0.273   2.196  1.6408  0.6214 -0.2160
  704SOL     OW 2110   1.192   2.249   1.044 -0.2781  0.4001 -0.5523
  704SOL    HW1 2111   1.279   2.207   1.073  2.1097 -0.8353  0.6090
  704SOL    HW2 2112   1.195   2.354   1.044  0.4124 -1.2437 -1.1190
  705SOL     OW 2113   3.033   1.192   2.087 -0.2613 -0.1534 -0.4307
  705SOL    HW1 2114   2.986   1.128   2.151  1.3196 -0.1836  0.2118
  705SOL    HW2 2115   3.004   1.172   1.993  1.9788  0.2753  1.4605
  706SOL     OW 2116   1.548   0.039   0.534 -0.4698 -0.3691 -0.1744
  706SOL    HW1 2117   1.456   0.063   0.559  2.6160  0.0816 -2.4964
  706SOL    HW2 2118   1.561   0.052   0.434 -1.3320  0.2009  0.2677
  707SOL     OW 2119   1.117   2.243   2.341  0.3955 -0.0590  0.0902
  707SOL    HW1 2120   1.057   2.250   2.421  3.3992  0.2240 -1.3417
  707SOL    HW2 2121   1.199   2.190   2.364 -0.2598  1.5019 -2.7089
  708SOL     OW 2122   3.001   2.064   1.330  0.3469  0.0914  0.3346
  708SOL    HW1 2123   3.032   1.966   1.323  0.5123 -2.0119 -0.1245
  708SOL    HW2 2124   3.017   2.100   1.427  1.7879  1.7866  1.4931
  709SOL     OW 2125   1.731   0.501   1.911 -0.2499 -0.8445  0.1572
  709SOL    HW1 2126   1.802   0.434   1.882  0.3036 -1.7959  0.7758
  709SOL    HW2 2127   1.758   0.557   1.995 -1.0883  1.1461 -1.6822
  710SOL     OW 2128   2.976   0.213   1.307  0.1823 -0.0663  0.1215
  710SOL    HW1 2129   2.891   0.158   1.313  3.2308  1.9824 -0.3546
  710SOL    HW2 2130   2.951   0.304   1.262 -0.9482  0.2524 -0.8837
  711SOL     OW 2131   0.182   2.427   0.968 -0.4285  0.3839  0.0652
  711SOL    HW1 2132   0.236   2.430   1.052 -1.1853  0.3103 -1.9402
  711SOL    HW2 2133   0.088   2.397   0.992  0.8205  0.4500  2.8094
  712SOL     OW 2134   0.060   2.169   2.388 -0.1443 -0.3362  0.3468
  712SOL    HW1 2135   0.005   2.103   2.331 -1.7204  0.2032  1.8064
  712SOL    HW2 2136   0.159   2.181   2.367  1.0098 -2.3166  0.9079
  713SOL     OW 2137   1.628   0.542   0.250  0.0366  0.0375 -1.3569
  713SOL    HW1 2138   1.618   0.643   0.259  0.5521  1.5387  0.0181
  713SOL    HW2 2139   1.723   0.516   0.225  1.2988  2.8962 -2.2733
  714SOL     OW 2140   1.477   1.826   0.394 -0.1927 -0.1825  1.2848
  714SOL    HW1 2141   1.456   1.897   0.327  1.9119 -0.6359  0.0649
  714SOL    HW2 2142   1.388   1.790   0.432 -4.4266 -1.3322 -0.8560
  715SOL     OW 2143   2.669   0.106   0.511 -0.0782 -0.1810  0.0596
  715SOL    HW1 2144   2.706   0.181   0.572  0.7943  1.2000  4.2275
  715SOL    HW2 2145   2.669   0.016   0.561  1.2506 -2.0682 -1.2031
  716SOL     OW 2146   0.468   0.297   2.374  0.4409  0.7995  0.0781
  716SOL    HW1 2147   0.476   0.328   2.471 -2.3674 -1.8797 -0.2305
  716SOL    HW2 2148   0.382   0.256   2.359  0.6597 -0.9182  3.2023
  717SOL     OW 2149   0.071   0.266   2.720 -0.2028  0.0714  0.0483
  717SOL    HW1 2150   0.101   0.181   2.669 -0.4090 -1.6569  2.5490
  717SOL    HW2 2151   3.074   0.287   2.686 -2.2934 -1.4734 -2.0602
  718SOL     OW 2152   1.033   0.706   0.520 -0.3324  0.5971 -0.4849
  718SOL    HW1 2153   1.056   0.662   0.611  1.5603  3.1139  2.2609
  718SOL    HW2 2154   1.110   0.698   0.452 -0.7554 -1.0827 -0.3891
  719SOL     OW 2155   2.633   2.115   2.725 -0.3265  0.5206  0.3701
  719SOL    HW1 2156   2.619   2.032   2.663  0.2156  0.0202  0.1357
  719SOL    HW2 2157   2.726   2.153   2.700 -1.6764  2.6929  0.3774
  720SOL     OW 2158   1.346   0.909   1.140 -0.4585 -0.2728 -0.2366
  720SOL    HW1 2159   1.435   0.924   1.194  0.8521 -0.2154  1.1977
  720SOL    HW2 2160   1.267   0.939   1.198 -1.2568  1.3155  0.5338
  721SOL     OW 2161   2.924   0.860   0.666  0.8486  0.3710 -0.0526
  721SOL    HW1 2162   2.827   0.829   0.647  2.6654  0.6023  1.5663
  721SOL    HW2 2163   2.991   0.788   0.647 -0.5090  1.5002 -2.0095
  722SOL     OW 2164   1.327   1.844   2.563 -0.0892  0.2138 -0.4285
  722SOL    HW1 2165   1.321   1.897   2.652 -2.6700  0.4061 -1.5758
  722SOL    HW2 2166   1.320   1.745   2.580 -0.2566  2.0288  0.6043
  723SOL     OW 2167   0.604   0.699   0.349 -0.0349 -0.7685  0.2662
  723SOL    HW1 2168   0.623   0.676   0.445 -0.1506  3.5842 -2.8256
  723SOL    HW2 2169   0.630   0.794   0.329  0.3214 -1.5628  1.9813
  724SOL     OW 2170   1.023   2.069   1.771 -0.2338  0.7370  0.0711
  724SOL    HW1 2171   1.036   2.044   1.675  0.4433  0.8504  3.5795
  724SOL    HW2 2172   0.930   2.056   1.811  0.9270 -2.2372 -2.2571
  725SOL     OW 2173   0.246   0.856   1.458 -0.0466  0.2988  0.1787
  725SOL    HW1 2174   0.295   0.941   1.426  1.4956  0.2099 -0.0638
  725SOL    HW2 2175   0.276   0.833   1.555  1.4439  1.2697 -0.0241
  726SOL     OW 2176   1.685   0.497   0.726 -0.0949  0.4200  0.5391
  726SOL    HW1 2177   1.637   0.407   0.742 -2.0180  1.1648 -2.7030
  726SOL    HW2 2178   1.605   0.562   0.742  0.0402  0.2846 -0.1999
  727SOL     OW 2179   1.597   0.924   2.277 -0.1923  0.2507  0.7182
  727SOL    HW1 2180   1.540   1.003   2.242 -0.5554 -1.5281 -0.8849
  727SOL    HW2 2181   1.535   0.843   2.289 -0.6626 -0.8355  2.2900
  728SOL     OW 2182   1.757   2.480   1.175  0.3559 -0.3467  0.8260
  728SOL    HW1 2183   1.657   2.502   1.156 -0.2327  2.2323  2.4171
  728SOL    HW2 2184   1.803   2.554   1.230  0.9000  0.0632  0.3948
  729SOL     OW 2185   1.259   0.591   1.407  0.3224 -0.2654  0.2960
  729SOL    HW1 2186   1.258   0.580   1.303  0.1635  2.5072 -1.6382
  729SOL    HW2 2187   1.271   0.495   1.450  0.6525 -4.4265  2.0024
  730SOL     OW 2188   0.701   2.094   1.754 -0.0735 -0.3183 -0.1666
  730SOL    HW1 2189   0.634   2.165   1.786 -0.1424 -0.3919  1.0562
  730SOL    HW2 2190   0.742   2.121   1.664 -0.2104 -2.9444 -0.7937
  731SOL     OW 2191   0.471   0.217   0.343  0.0133 -0.4271  0.1881
  731SOL    HW1 2192   0.419   0.145   0.388 -0.9805  0.4266  0.6557
  731SOL    HW2 2193   0.490   0.187   0.248  0.6691  0.7572  0.6265
  732SOL     OW 2194   0.633   0.462   2.991 -0.2388 -0.2234  0.1127
  732SOL    HW1 2195   0.717   0.440   3.048  0.5636  0.4853  0.8024
  732SOL    HW2 2196   0.548   0.414   3.026 -0.4670 -1.1991  0.3475
  733SOL     OW 2197   1.349   2.001   1.478 -0.8094 -0.2369 -0.6179
  733SOL    HW1 2198   1.372   1.910   1.516 -1.0322 -1.8303  1.3668
  733SOL    HW2 2199   1.247   2.012   1.469 -1.4676  0.3007  1.5884
  734SOL     OW 2200   2.934   2.804   2.488 -0.3862  0.3006  0.0743
  734SOL    HW1 2201   2.875   2.739   2.435 -0.1484 -0.9823  0.8119
  734SOL    HW2 2202   2.895   2.823   2.582  1.1550 -1.2717  0.5988
  735SOL     OW 2203   0.878   2.717   0.905  0.1419  0.0207 -0.7486
  735SOL    HW1 2204   0.832   2.726   0.815  2.1671  0.2870 -2.0055
  735SOL    HW2 2205   0.913   2.619   0.908  1.1617 -0.0110 -0.8399
  736SOL     OW 2206   1.541   0.767   2.559 -0.4185  0.5963 -0.1465
  736SOL    HW1 2207   1.502   0.746   2.468 -1.0636 -2.2102  0.3993
  736SOL    HW2 2208   1.483   0.836   2.604 -0.1124  1.5659  1.6929
  737SOL     OW 2209   3.042   0.761   0.342 -1.0459 -0.3936 -0.0697
  737SOL    HW1 2210   0.015   0.708   0.289  2.1204  0.0443  1.6939
  737SOL    HW2 2211   3.067   0.745   0.442 -0.2268 -1.1251  2.5860
  738SOL     OW 2212   0.167   2.708   1.515 -0.0726  0.1998  0.4884
  738SOL    HW1 2213   0.099   2.633   1.536  0.5726  0.1673  0.4709
  738SOL    HW2 2214   0.203   2.698   1.419  1.2600 -1.7487 -1.3233
  739SOL     OW 2215   1.605   2.939   0.712 -0.0968 -0.1970 -0.1700
  739SOL    HW1 2216   1.532   2.948   0.781 -1.6089 -0.9675  0.2284
  739SOL    HW2 2217   1.595   3.002   0.633 -0.6721  3.3419 -0.5609
  740SOL     OW 2218   1.500   2.822   1.229  0.7423 -0.0849 -0.0103
  740SOL    HW1 2219   1.599   2.835   1.238  0.2948  1.3326  0.8585
  740SOL    HW2 2220   1.465   2.782   1.320 -1.0841 -1.3813 -0.1686
  741SOL     OW 2221   1.928   0.431   0.663  0.3590  0.1446  0.3704
  741SOL    HW1 2222   1.829   0.445   0.692 -2.6290 -0.8652  1.4625
  741SOL    HW2 2223   1.929   0.380   0.578  0.1120 -0.4194  2.1405
  742SOL     OW 2224   1.476   2.286   2.029  0.1011  0.3177  0.3086
  742SOL    HW1 2225   1.414   2.347   1.990  0.2722 -2.1837  3.2181
  742SOL    HW2 2226   1.537   2.253   1.959 -1.3048  0.1558  1.1156
  743SOL     OW 2227   2.128   0.374   2.191  0.1563  0.0249 -0.2033
  743SOL    HW1 2228   2.125   0.448   2.118 -1.0163  1.2972  0.1399
  743SOL    HW2 2229   2.036   0.331   2.206  0.2607 -3.5919 -0.2916
  744SOL     OW 2230   2.161   0.592   1.021  0.3020 -0.0371  0.2946
  744SOL    HW1 2231   2.175   0.677   0.967 -1.7724  0.6894  1.2173
  744SOL    HW2 2232   2.218   0.585   1.106 -0.7811  2.3760  0.2436
  745SOL     OW 2233   1.947   1.540   1.773 -0.6429  0.0491 -0.2047
  745SOL    HW1 2234   2.012   1.593   1.715 -0.2417 -1.9119  1.6479
  745SOL    HW2 2235   1.973   1.544   1.875 -2.3417 -0.6464  1.1221
  746SOL     OW 2236   0.984   1.785   0.875 -0.3854  0.0136 -0.1826
  746SOL    HW1 2237   0.900   1.735   0.896  1.8217 -1.9859  1.3344
  746SOL    HW2 2238   1.005   1.862   0.939  1.5567  0.9990 -0.3011
  747SOL     OW 2239   1.877   1.231   1.114 -0.0663 -0.0516 -0.3636
  747SOL    HW1 2240   1.782   1.194   1.118 -0.0843  2.9087 -0.9143
  747SOL    HW2 2241   1.948   1.174   1.161  2.0343  1.3660  0.6692
  748SOL     OW 2242   0.372   2.970   0.306 -0.1689  0.3095 -0.1698
  748SOL    HW1 2243   0.331   3.047   0.363  0.9783  0.0693  0.3625
  748SOL    HW2 2244   0.306   2.897   0.308  3.7933 -0.0584 -0.2094
  749SOL     OW 2245   0.168   0.227   2.307  0.2681 -0.8310  0.4563
  749SOL    HW1 2246   0.157   0.244   2.208  0.3960 -1.8930  1.3580
  749SOL    HW2 2247   0.144   0.132   2.335  0.9542 -1.5321  0.3543
  750SOL     OW 2248   1.766   2.875   1.506  0.0566  0.8730  0.6274
  750SOL    HW1 2249   1.751   2.964   1.552  1.8398  0.9461  0.6943
  750SOL    HW2 2250   1.711   2.806   1.555  0.1930  0.0770 -0.9118
  751SOL     OW 2251   2.898   0.349   0.476  0.1426 -0.4914  0.1193
  751SOL    HW1 2252   2.853   0.435   0.439 -1.4886  2.6084  0.6540
  751SOL    HW2 2253   2.865   0.320   0.567 -0.2547 -1.0808 -0.0134
  752SOL     OW 2254   0.185   2.943   1.063  0.2287  0.2573 -0.6155
  752SOL    HW1 2255   0.171   2.869   0.996 -1.2915 -0.6785  1.6540
  752SOL    HW2 2256   0.101   2.999   1.080  1.2287  1.8831 -2.0760
  753SOL     OW 2257   0.943   0.309   1.361  0.4257  0.2595  0.3994
  753SOL    HW1 2258   0.984   0.268   1.441 -0.6704  1.0440 -3.8824
  753SOL    HW2 2259   1.001   0.299   1.276 -1.6810  0.8491 -0.1065
  754SOL     OW 2260   0.930   2.714   2.149  0.6398  0.0787  0.1489
  754SOL    HW1 2261   0.988   2.641   2.188 -1.4481 -1.0385 -3.2163
  754SOL    HW2 2262   0.843   2.679   2.108  0.9174  0.1800  1.5977
  755SOL     OW 2263   2.471   1.370   0.391 -0.1633 -0.0375 -0.4539
  755SOL    HW1 2264   2.538   1.441   0.361  0.9568 -0.3908  3.2533
  755SOL    HW2 2265   2.407   1.350   0.315  2.4560 -2.7932  1.5520
  756SOL     OW 2266   2.044   1.980   2.725 -1.1987  0.0151  0.2393
  756SOL    HW1 2267   2.016   2.066   2.678  2.7191 -1.7876  2.3143
  756SOL    HW2 2268   2.146   1.970   2.730  1.3434 -0.2973 -0.0692
  757SOL     OW 2269   1.958   3.078   0.763 -0.1338 -0.6918 -0.6877
  757SOL    HW1 2270   1.927   3.014   0.838 -0.0453 -1.7174  1.9464
  757SOL    HW2 2271   1.876   0.043   0.747  0.1552 -0.4264  0.0727
  758SOL     OW 2272   1.236   2.529   0.820  0.3971 -0.4517  0.0155
  758SOL    HW1 2273   1.339   2.539   0.832 -0.2062 -1.4452 -1.2543
  758SOL    HW2 2274   1.206   2.482   0.738 -1.6312  0.7810  0.0340
  759SOL     OW 2275   2.569   0.467   1.047 -0.0719 -0.5393  0.1139
  759SOL    HW1 2276   2.512   0.547   1.016  2.2717  0.6663  0.3687
  759SOL    HW2 2277   2.557   0.453   1.148  0.2169  0.4538  1.0247
  760SOL     OW 2278   2.236   1.077   1.380 -0.1121 -0.2085 -0.1199
  760SOL    HW1 2279   2.270   1.003   1.318 -0.3130  0.8066  2.2344
  760SOL    HW2 2280   2.288   1.162   1.358  0.4489  1.4425 -0.7261
  761SOL     OW 2281   0.273   0.772   0.627  0.3886 -0.0630  0.3838
  761SOL    HW1 2282   0.343   0.797   0.559 -0.4155 -0.9093  1.8521
  761SOL    HW2 2283   0.325   0.740   0.706 -0.0291 -1.6802  2.3741
  762SOL     OW 2284   2.165   1.760   1.278  0.3648 -0.0674 -0.0615
  762SOL    HW1 2285   2.082   1.740   1.227  0.3401  0.1700 -0.7865
  762SOL    HW2 2286   2.140   1.813   1.365 -1.5843 -1.4491  5.1823
  763SOL     OW 2287   1.165   1.588   1.604  0.0236  0.3719 -0.1245
  763SOL    HW1 2288   1.175   1.575   1.502 -0.8304  1.1680 -0.8452
  763SOL    HW2 2289   1.218   1.665   1.645 -0.3175 -0.2299 -0.1676
  764SOL     OW 2290   0.153   1.852   1.998  0.3340  0.3423 -0.2263
  764SOL    HW1 2291   0.114   1.800   1.923 -0.3708 -0.8213 -1.0918
  764SOL    HW2 2292   0.161   1.797   2.085  2.0036  1.1174 -0.2060
  765SOL     OW 2293   1.646   2.260   1.277  0.2022  0.1407  0.3994
  765SOL    HW1 2294   1.603   2.273   1.368  0.4343  3.8117 -0.5695
  765SOL    HW2 2295   1.691   2.349   1.241  2.5790  0.6507 -1.4401
  766SOL     OW 2296   0.174   2.490   2.316 -0.1738 -0.0607  0.2854
  766SOL    HW1 2297   0.147   2.571   2.375 -0.5988  3.6429  0.8588
  766SOL    HW2 2298   0.115   2.485   2.233 -0.7470 -0.3507 -1.0186
  767SOL     OW 2299   1.394   0.735   2.339 -0.3719  0.8082 -0.2053
  767SOL    HW1 2300   1.376   0.633   2.338  0.6521 -0.5523 -0.6167
  767SOL    HW2 2301   1.308   0.788   2.328  1.3785 -0.1423 -0.8874
  768SOL     OW 2302   1.413   2.285   3.040 -0.8039  0.0140 -0.0828
  768SOL    HW1 2303   1.492   2.222   3.027  0.8376 -1.5435 -0.4773
  768SOL    HW2 2304   1.361   2.266   0.030 -2.1390  0.2333 -2.2005
  769SOL     OW 2305   0.258   2.751   1.266 -0.2898  0.4167 -0.1912
  769SOL    HW1 2306   0.258   2.828   1.201  0.6904  0.4501 -0.8931
  769SOL    HW2 2307   0.270   2.659   1.221  1.1787 -0.2774 -0.0583
  770SOL     OW 2308   1.485   0.541   2.716  0.1424  0.1742 -0.8854
  770SOL    HW1 2309   1.475   0.625   2.658  1.9725  1.7843 -1.4055
  770SOL    HW2 2310   1.522   0.568   2.800 -0.2445 -1.4218 -2.3964
  771SOL     OW 2311   0.372   0.012   2.602  0.2869  0.5201 -0.4606
  771SOL    HW1 2312   0.383   0.074   2.685  0.8098 -0.4670  0.0496
  771SOL    HW2 2313   0.275   0.009   2.577  0.4583 -0.5250  0.9514
  772SOL     OW 2314   2.322   0.083   1.896 -0.6914  0.4416  0.6016
  772SOL    HW1 2315   2.230   0.093   1.858  0.6486  1.2204 -2.0156
  772SOL    HW2 2316   2.360   0.001   1.844 -0.7362 -2.4201  1.6188
  773SOL     OW 2317   1.049   2.367   1.983 -0.3791 -0.2256 -0.7628
  773SOL    HW1 2318   1.068   2.446   2.044 -0.3389  0.8525 -1.9409
  773SOL    HW2 2319   0.969   2.383   1.925  0.9070  0.7606  2.0392
  774SOL     OW 2320   1.052   0.218   1.852  0.7735  0.5891 -0.0590
  774SOL    HW1 2321   1.143   0.259   1.861 -2.6726  2.0341 -1.7825
  774SOL    HW2 2322   0.988   0.287   1.887  1.9911  0.2283  3.1569
  775SOL     OW 2323   2.050   2.545   0.137 -0.7856 -0.6833  0.4119
  775SOL    HW1 2324   1.973   2.606   0.177 -2.0072  0.3692  2.1896
  775SOL    HW2 2325   2.041   2.534   0.032  0.8200 -1.2346 -3.9944
  776SOL     OW 2326   2.164   0.539   2.441 -0.1045  0.0852 -0.1519
  776SOL    HW1 2327   2.136   0.574   2.534  1.4219 -0.5385  1.5644
  776SOL    HW2 2328   2.081   0.516   2.389  0.9004 -1.1270  1.6587
  777SOL     OW 2329   2.287   1.186   2.520 -1.0628 -0.1392 -0.2475
  777SOL    HW1 2330   2.235   1.170   2.607  2.5429  3.7787 -0.7957
  777SOL    HW2 2331   2.380   1.230   2.541  3.2405  0.4480 -2.2365
  778SOL     OW 2332   2.037   0.895   2.289  0.0421 -0.1640 -0.1576
  778SOL    HW1 2333   1.952   0.878   2.229 -0.2471 -0.0555 -0.7565
  778SOL    HW2 2334   2.003   0.929   2.378  0.9718 -2.0376 -0.7969
  779SOL     OW 2335   0.060   0.004   2.991  0.4499  0.0549 -0.7174
  779SOL    HW1 2336   0.134   0.074   2.985 -0.7365 -5.6578  0.8883
  779SOL    HW2 2337   3.070   0.048   3.014  0.2566  1.6504  0.9954
  780SOL     OW 2338   2.386   0.569   3.066  0.5091  0.2373  0.5407
  780SOL    HW1 2339   2.466   0.558   3.003  0.5470  2.1600  0.9558
  780SOL    HW2 2340   2.386   0.655   0.018  1.8884 -1.4566  0.3573
  781SOL     OW 2341   0.438   2.893   1.453 -0.2364 -0.2159 -0.1169
  781SOL    HW1 2342   0.448   2.961   1.385 -0.3192 -0.5873  0.8412
  781SOL    HW2 2343   0.370   2.822   1.430  1.0289  0.0825  1.2927
  782SOL     OW 2344   1.806   2.498   0.416  0.4672  0.0312  0.2311
  782SOL    HW1 2345   1.738   2.519   0.490 -3.7168  0.4890 -2.2132
  782SOL    HW2 2346   1.852   2.578   0.381 -0.6139  0.4128  1.4014
  783SOL     OW 2347   0.767   1.386   1.762 -0.2651 -0.2797 -0.0965
  783SOL    HW1 2348   0.780   1.319   1.684  0.8329  0.4397 -0.0962
  783SOL    HW2 2349   0.725   1.330   1.837  0.2649  0.0176  1.3398
  784SOL     OW 2350   1.340   0.450   2.382 -0.3149  0.0664  0.4672
  784SOL    HW1 2351   1.438   0.432   2.402  3.0494  1.2323  1.0083
  784SOL    HW2 2352   1.315   0.404   2.293  1.0053  0.6025 -1.4449
  785SOL     OW 2353   2.706   0.246   0.964 -0.1805  0.5603  0.0054
  785SOL    HW1 2354   2.655   0.329   1.001 -1.1640  0.6769  0.9137
  785SOL    HW2 2355   2.661   0.166   1.007  1.6040  3.8829  0.4676
  786SOL     OW 2356   1.413   2.703   1.445  0.1436 -0.1996  0.3450
  786SOL    HW1 2357   1.469   2.689   1.532  1.3988 -0.0499  1.7883
  786SOL    HW2 2358   1.350   2.626   1.433  0.0763  1.9285  0.2837
  787SOL     OW 2359   1.395   0.034   1.484 -0.1261 -0.2388  0.2988
  787SOL    HW1 2360   1.394   0.023   1.382  1.1426 -1.9782 -0.1787
  787SOL    HW2 2361   1.490   0.038   1.513  0.1893 -2.9380 -1.5338
  788SOL     OW 2362   2.942   1.202   0.142 -0.1553 -0.5137 -0.5749
  788SOL    HW1 2363   2.987   1.114   0.120  1.8443  0.1510 -0.9917
  788SOL    HW2 2364   2.887   1.205   0.228 -2.6328 -0.0968  2.0627
  789SOL     OW 2365   0.582   1.862   1.769  0.3572 -0.4801 -0.0670
  789SOL    HW1 2366   0.640   1.941   1.734 -1.3891  0.3011 -0.9724
  789SOL    HW2 2367   0.557   1.878   1.869 -1.6891 -2.7656  0.6502
  790SOL     OW 2368   0.375   0.599   2.566 -0.1724 -0.4035  0.6332
  790SOL    HW1 2369   0.424   0.510   2.551  0.7173 -0.9264  1.1745
  790SOL    HW2 2370   0.277   0.589   2.601  1.3443 -0.1398  0.2665
  791SOL     OW 2371   2.107   0.811   0.859  0.2292  0.5573 -0.0092
  791SOL    HW1 2372   2.014   0.790   0.894 -1.4453  1.3313  0.0999
  791SOL    HW2 2373   2.109   0.911   0.836  0.3656 -0.7791  1.5897
  792SOL     OW 2374   1.155   2.761   1.564  0.0847  0.3620  0.2470
  792SOL    HW1 2375   1.170   2.724   1.663  2.7326 -2.8767 -0.1253
  792SOL    HW2 2376   1.238   2.741   1.503  4.4962 -0.9509 -2.2463
  793SOL     OW 2377   0.269   0.048   0.837 -0.0869  0.5208  0.1600
  793SOL    HW1 2378   0.262   0.083   0.935 -0.5166 -3.7616  2.1501
  793SOL    HW2 2379   0.360   0.004   0.827  0.8312  1.6472 -1.2008
  794SOL     OW 2380   0.311   0.806   2.305 -0.2724 -0.2462 -0.1502
  794SOL    HW1 2381   0.386   0.832   2.369  0.0449  0.8820 -2.5311
  794SOL    HW2 2382   0.260   0.722   2.339 -2.4747 -1.2942  3.1299
  795SOL     OW 2383   0.662   2.424   2.610  0.7987  0.0190  0.7055
  795SOL    HW1 2384   0.632   2.331   2.583  1.0283 -0.9783 -1.9338
  795SOL    HW2 2385   0.741   2.454   2.554 -1.5015 -0.9151  1.0214
  796SOL     OW 2386   2.182   0.272   2.504  0.0475  0.1485  0.2355
  796SOL    HW1 2387   2.176   0.363   2.456  0.2517  1.3084 -1.3276
  796SOL    HW2 2388   2.233   0.208   2.447 -0.4591  1.9981  1.0310
  797SOL     OW 2389   2.340   2.538   2.474 -0.1173  0.3341  0.2782
  797SOL    HW1 2390   2.375   2.465   2.538 -2.6217 -2.0771  0.9989
  797SOL    HW2 2391   2.310   2.618   2.527  0.5019 -0.1997  2.2194
  798SOL     OW 2392   0.086   0.289   2.065 -0.0983 -0.1460 -0.5438
  798SOL    HW1 2393   0.104   0.384   2.036  3.2046 -1.0591  0.1243
  798SOL    HW2 2394   0.051   0.230   1.994  5.4124  2.7154  0.2222
  799SOL     OW 2395   0.787   2.430   2.183  0.2316  0.0453  0.1699
  799SOL    HW1 2396   0.824   2.352   2.132 -1.6048 -3.2776  1.1216
  799SOL    HW2 2397   0.753   2.502   2.123 -0.1651  0.9873  0.9188
  800SOL     OW 2398   0.033   2.204   0.244 -0.3442  0.2567  0.4662
  800SOL    HW1 2399   0.017   2.103   0.244 -0.7092  0.3017 -0.2894
  800SOL    HW2 2400   0.132   2.219   0.236 -1.5726 -2.1955 -0.3472
  801SOL     OW 2401   1.689   1.626   0.982 -0.1094 -0.1088 -0.2034
  801SOL    HW1 2402   1.686   1.555   0.906  1.7116 -2.6965  1.0212
  801SOL    HW2 2403   1.648   1.714   0.950 -1.3905 -0.5334 -0.9892
  802SOL     OW 2404   0.059   0.441   0.475 -0.8718 -0.8544 -0.5050
  802SOL    HW1 2405   0.124   0.404   0.544 -0.6784  2.9008  0.9714
  802SOL    HW2 2406   3.068   0.390   0.475  0.1593 -0.9013  1.9362
  803SOL     OW 2407   1.373   1.433   1.806  0.0660 -0.0521  0.7058
  803SOL    HW1 2408   1.441   1.471   1.743  0.2550  2.0904  1.8490
  803SOL    HW2 2409   1.318   1.511   1.840  0.9647  1.2252  2.9192
  804SOL     OW 2410   1.773   2.067   0.824  0.4342  0.2473  0.4459
  804SOL    HW1 2411   1.865   2.031   0.853 -0.3922 -0.7229 -0.6773
  804SOL    HW2 2412   1.703   1.995   0.847  2.3843 -0.0391  1.3988
  805SOL     OW 2413   2.908   1.888   2.497 -0.2738  0.0906 -0.3929
  805SOL    HW1 2414   2.951   1.977   2.505 -4.1026  0.1120  3.2085
  805SOL    HW2 2415   2.805   1.887   2.491 -1.1006 -3.3787 -3.8277
  806SOL     OW 2416   0.590   2.539   0.281 -0.1699  0.1691  0.1881
  806SOL    HW1 2417   0.610   2.499   0.374  0.9937 -0.5778 -0.7117
  806SOL    HW2 2418   0.584   2.640   0.284 -1.3588  1.0298  1.4114
  807SOL     OW 2419   2.184   1.582   2.665  0.8688 -0.5064  0.4943
  807SOL    HW1 2420   2.277   1.620   2.676  2.6694  0.9508 -0.5709
  807SOL    HW2 2421   2.132   1.639   2.729 -0.8999 -2.2257 -0.2607
  808SOL     OW 2422   1.437   2.167   1.114  0.3255 -0.0131 -0.2087
  808SOL    HW1 2423   1.399   2.075   1.143 -1.3030  2.0613 -0.4759
  808SOL    HW2 2424   1.509   2.204   1.174 -1.9713  2.8550 -0.7486
  809SOL     OW 2425   0.139   0.584   0.238  0.0202 -0.1204 -0.2311
  809SOL    HW1 2426   0.113   0.510   0.310 -2.8301 -2.4719  1.3201
  809SOL    HW2 2427   0.241   0.585   0.229 -0.4402  0.4152 -2.1193
  810SOL     OW 2428   1.309   1.568   0.017 -0.2111 -0.2323  0.6257
  810SOL    HW1 2429   1.293   1.472   3.081  0.1903  1.2256  1.4573
  810SOL    HW2 2430   1.366   1.572   0.101  2.9325  2.0229  0.5042
  811SOL     OW 2431   1.974   2.372   0.786  0.1977  0.5519 -0.6018
  811SOL    HW1 2432   1.945   2.350   0.883 -0.3610  0.8386  0.3267
  811SOL    HW2 2433   1.971   2.288   0.731 -3.0322 -1.8657 -2.0648
  812SOL     OW 2434   1.367   3.030   1.184 -0.3485  0.1062 -0.0235
  812SOL    HW1 2435   1.443   2.964   1.205 -0.4976  0.3730  1.1984
  812SOL    HW2 2436   1.275   2.990   1.197  2.0264 -3.4039  0.0021
  813SOL     OW 2437   0.821   2.944   1.889  0.2685  0.2893  0.3395
  813SOL    HW1 2438   0.776   2.967   1.801 -0.2848  0.1180 -1.8082
  813SOL    HW2 2439   0.752   2.939   1.963  2.5718  1.8112  0.3218
  814SOL     OW 2440   1.117   2.531   2.228  0.2096 -0.3353  0.5324
  814SOL    HW1 2441   1.128   2.435   2.262  2.8936  0.2337  0.6177
  814SOL    HW2 2442   1.162   2.595   2.290 -0.0477 -0.2831 -3.4358
  815SOL     OW 2443   0.582   2.987   2.867 -1.0800  0.3860  0.5693
  815SOL    HW1 2444   0.640   2.903   2.880  0.1213 -1.6888 -0.4417
  815SOL    HW2 2445   0.492   2.972   2.906  1.4068 -0.4151  0.2395
  816SOL     OW 2446   2.162   0.764   0.250  0.0201  0.0607 -0.0572
  816SOL    HW1 2447   2.170   0.662   0.247  0.5916  0.9232 -0.9283
  816SOL    HW2 2448   2.088   0.786   0.316 -1.9622  2.0637  3.0246
  817SOL     OW 2449   2.824   2.565   2.094  0.7890  0.2171 -0.2362
  817SOL    HW1 2450   2.771   2.621   2.028 -0.5707 -1.1755  1.6386
  817SOL    HW2 2451   2.800   2.590   2.195 -0.6235  0.9005  1.9380
  818SOL     OW 2452   0.958   1.220   0.424 -0.3534 -0.0034  0.3563
  818SOL    HW1 2453   0.968   1.123   0.401  5.2594  1.8061  0.8979
  818SOL    HW2 2454   0.906   1.223   0.506  0.5413  2.1419 -1.9566
  819SOL     OW 2455   1.634   1.075   2.780 -0.1659  0.3041  0.3294
  819SOL    HW1 2456   1.629   1.058   2.682 -0.9277 -2.3673  4.0943
  819SOL    HW2 2457   1.703   1.144   2.805 -1.3789 -2.7382 -1.7839
  820SOL     OW 2458   0.586   1.307   3.088 -0.7826  0.7744 -0.1070
  820SOL    HW1 2459   0.514   1.381   3.079  1.4976  0.6213 -2.2086
  820SOL    HW2 2460   0.617   1.298   0.089 -0.2082  0.5776 -1.7164
  821SOL     OW 2461   0.536   3.046   0.807 -0.0810 -0.0726  0.6912
  821SOL    HW1 2462   0.604   3.065   0.733  0.3950  0.4921  0.3043
  821SOL    HW2 2463   0.503   2.952   0.801 -0.0889  1.5050  0.5805
  822SOL     OW 2464   2.575   2.812   3.004  0.1949  0.2530 -0.3514
  822SOL    HW1 2465   2.595   2.768   2.912  0.8916  0.2614 -1.0384
  822SOL    HW2 2466   2.636   2.770   3.074 -1.3466 -2.3381 -0.9805
  823SOL     OW 2467   1.359   0.013   2.592 -0.1325 -0.2201  0.3312
  823SOL    HW1 2468   1.387   0.112   2.581 -2.0153  0.2434 -0.7845
  823SOL    HW2 2469   1.323   3.073   2.506  2.4143  0.6100  2.7464
  824SOL     OW 2470   2.943   2.719   1.797 -0.0351  0.4214 -0.4744
  824SOL    HW1 2471   3.016   2.783   1.836  1.2329  2.9951  2.3297
  824SOL    HW2 2472   2.861   2.713   1.861 -2.6755  1.1597  4.5159
  825SOL     OW 2473   3.013   2.416   2.502  0.1703  0.4379  0.3119
  825SOL    HW1 2474   3.073   2.500   2.524 -1.9247  1.5446  0.7084
  825SOL    HW2 2475   3.067   2.349   2.449  0.9004  0.9625 -2.4606
  826SOL     OW 2476   1.817   0.586   3.073 -0.3238  0.2517 -0.0047
  826SOL    HW1 2477   1.852   0.549   0.064 -1.4566 -1.4490  0.2717
  826SOL    HW2 2478   1.871   0.545   2.996  0.1324 -0.8252 -0.1649
  827SOL     OW 2479   2.840   1.688   1.680 -0.0130 -0.7928  0.0532
  827SOL    HW1 2480   2.861   1.643   1.590 -0.1501 -0.2897 -0.9039
  827SOL    HW2 2481   2.746   1.717   1.678  0.7376  0.5362  1.0426
  828SOL     OW 2482   0.088   0.056   1.289  0.3387 -0.1874 -0.3724
  828SOL    HW1 2483   0.068   3.072   1.348  0.2719 -1.4813  0.4736
  828SOL    HW2 2484   0.007   0.124   1.290 -5.0870  2.3320 -0.5976
  829SOL     OW 2485   0.764   2.075   2.536 -0.0119  0.4391 -0.5401
  829SOL    HW1 2486   0.829   2.157   2.544  1.3751  1.2495 -0.5955
  829SOL    HW2 2487   0.672   2.109   2.555 -1.4550 -0.2052  2.3479
  830SOL     OW 2488   0.577   0.761   1.586  0.2877 -0.0518  0.3065
  830SOL    HW1 2489   0.656   0.828   1.606  0.1738  2.4479  0.6543
  830SOL    HW2 2490   0.598   0.659   1.588 -2.3937 -3.3329  1.3436
  831SOL     OW 2491   2.436   1.701   2.736 -0.3644 -0.2261 -0.0005
  831SOL    HW1 2492   2.497   1.656   2.665 -1.1843  1.5076  0.7671
  831SOL    HW2 2493   2.482   1.771   2.793 -0.7063  1.7516 -2.9362
  832SOL     OW 2494   2.012   2.505   2.951  0.4302  0.0845 -0.5136
  832SOL    HW1 2495   1.948   2.492   2.876  2.1410 -1.8741  1.0266
  832SOL    HW2 2496   2.099   2.549   2.920  1.6860 -0.2283  0.9654
  833SOL     OW 2497   0.670   0.263   1.947 -0.2422 -0.1149  0.5371
  833SOL    HW1 2498   0.654   0.204   2.033 -0.7480 -0.1206  5.0045
  833SOL    HW2 2499   0.750   0.329   1.960  2.1837  0.0902 -0.0152
  834SOL     OW 2500   0.043   0.288   1.506  0.1095 -0.1857  0.4187
  834SOL    HW1 2501   0.119   0.345   1.475 -1.0552 -2.9090  0.1584
  834SOL    HW2 2502   3.087   0.263   1.422  1.0134 -0.5718 -0.6910
  835SOL     OW 2503   2.615   0.519   0.597  0.3466  0.2708  0.1421
  835SOL    HW1 2504   2.529   0.486   0.554  0.3350 -0.1579  1.2759
  835SOL    HW2 2505   2.678   0.548   0.519  1.3986  0.1461 -1.1495
  836SOL     OW 2506   0.919   2.190   0.400 -0.1458 -0.2058  0.5011
  836SOL    HW1 2507   1.002   2.149   0.447 -0.2154 -1.9650  0.3595
  836SOL    HW2 2508   0.913   2.279   0.437 -1.1778 -1.9935 -2.2442
  837SOL     OW 2509   1.899   1.829   0.535  0.6513  0.1687  0.2593
  837SOL    HW1 2510   1.967   1.754   0.524 -1.4969  0.0016  0.8094
  837SOL    HW2 2511   1.945   1.919   0.556 -0.4414  1.4726 -0.8025
  838SOL     OW 2512   1.826   0.858   2.136 -0.0763  0.8819 -0.7516
  838SOL    HW1 2513   1.784   0.861   2.043  5.2759 -0.0455 -1.4084
  838SOL    HW2 2514   1.756   0.893   2.204 -0.4290 -0.5845 -1.7048
  839SOL     OW 2515   0.656   1.463   2.425 -0.2885 -0.2593  0.2141
  839SOL    HW1 2516   0.656   1.421   2.518  0.1232 -0.9501  1.2821
  839SOL    HW2 2517   0.751   1.485   2.389  0.2566  1.6927  1.6331
  840SOL     OW 2518   0.977   1.311   0.160  0.6948  0.9320 -0.4624
  840SOL    HW1 2519   0.973   1.302   0.263  0.7876  1.1681 -0.3036
  840SOL    HW2 2520   0.909   1.240   0.123 -1.7923  1.5574  0.9365
  841SOL     OW 2521   1.620   2.288   0.418 -0.4878 -0.1834  0.2866
  841SOL    HW1 2522   1.663   2.210   0.468  2.8919 -0.6598  2.3283
  841SOL    HW2 2523   1.690   2.363   0.410  2.6716  2.8778 -0.8084
  842SOL     OW 2524   0.422   0.378   0.029 -0.2984  0.4462 -0.3636
  842SOL    HW1 2525   0.327   0.350   0.032  1.1539  1.0198 -0.5336
  842SOL    HW2 2526   0.459   0.425   0.106  2.7731 -1.6039 -3.0527
  843SOL     OW 2527   0.502   0.445   0.825 -0.0476 -0.4167  0.5153
  843SOL    HW1 2528   0.586   0.414   0.870 -0.3854  0.4357 -0.6118
  843SOL    HW2 2529   0.484   0.393   0.742 -0.4811  1.4920 -0.1483
  844SOL     OW 2530   2.001   2.949   2.246  0.1095 -0.3340  0.0715
  844SOL    HW1 2531   2.064   2.886   2.193 -0.6090  0.5897 -0.0145
  844SOL    HW2 2532   1.952   3.013   2.185  0.6755 -0.0873  2.8457
  845SOL     OW 2533   0.265   2.667   1.761  0.6952  0.3194 -0.0324
  845SOL    HW1 2534   0.223   2.583   1.799 -1.8495 -1.2097  0.5619
  845SOL    HW2 2535   0.239   2.684   1.662 -1.3155 -0.2849 -3.0262
  846SOL     OW 2536   1.716   1.326   2.409 -0.8788 -0.6885 -0.3717
  846SOL    HW1 2537   1.687   1.427   2.415 -0.9131 -0.1954  0.4042
  846SOL    HW2 2538   1.782   1.316   2.332  2.0132 -1.4986  0.9324
  847SOL     OW 2539   0.194   0.511   2.282  0.3411  0.1272 -0.3331
  847SOL    HW1 2540   0.171   0.416   2.284  0.0127  0.7301  0.1991
  847SOL    HW2 2541   0.197   0.535   2.183  0.7061 -0.4578 -2.2914
  848SOL     OW 2542   2.503   3.063   2.931  0.5161  0.0057  0.0666
  848SOL    HW1 2543   2.533   2.974   2.976  1.8527  2.4112  0.8036
  848SOL    HW2 2544   2.412   3.060   2.882 -0.8806  0.8705  0.5615
  849SOL     OW 2545   0.343   2.663   0.588 -0.3592  0.2689 -0.0466
  849SOL    HW1 2546   0.440   2.653   0.612 -1.1410  0.1420 -0.8760
  849SOL    HW2 2547   0.291   2.735   0.640 -2.1979  0.3934  1.6319
  850SOL     OW 2548   0.846   2.346   0.686 -0.4496  0.8505  0.3745
  850SOL    HW1 2549   0.905   2.404   0.744 -0.2440  0.7950  2.0671
  850SOL    HW2 2550   0.866   2.247   0.701 -0.4431  0.8588 -0.9912
  851SOL     OW 2551   1.930   0.423   2.864 -0.4470  0.3366 -0.1973
  851SOL    HW1 2552   1.945   0.386   2.769  0.1805 -1.2693  0.0518
  851SOL    HW2 2553   2.015   0.449   2.906 -3.2899 -1.0002 -2.1638
  852SOL     OW 2554   1.619   3.030   2.583  0.0009 -0.0560 -0.2629
  852SOL    HW1 2555   1.638   2.933   2.608  1.6019  1.2031  1.8200
  852SOL    HW2 2556   1.533   3.057   2.630 -1.2192 -0.4400  1.6928
  853SOL     OW 2557   2.870   2.590   0.516  0.3575 -0.4285  0.2260
  853SOL    HW1 2558   2.953   2.548   0.488 -2.7069  2.2713 -2.6948
  853SOL    HW2 2559   2.882   2.693   0.525  2.3796 -0.5411 -2.3430
  854SOL     OW 2560   1.862   0.541   2.431 -0.0984 -0.4410 -0.3550
  854SOL    HW1 2561   1.906   0.478   2.498 -0.0231  1.8352  1.5970
  854SOL    HW2 2562   1.808   0.612   2.485 -0.7731  0.7397  0.9975
  855SOL     OW 2563   0.182   2.458   0.701 -0.5222 -0.3474 -0.4517
  855SOL    HW1 2564   0.208   2.430   0.797 -1.3157  0.6619 -1.0121
  855SOL    HW2 2565   0.256   2.507   0.653 -0.0734 -1.0351 -0.6045
  856SOL     OW 2566   0.340   2.803   2.609  0.2948  0.4216  0.6943
  856SOL    HW1 2567   0.403   2.738   2.653  0.2035  1.6695 -0.0002
  856SOL    HW2 2568   0.371   2.894   2.617 -0.2089 -0.2087 -0.2321
  857SOL     OW 2569   1.041   3.012   1.524 -0.3993  0.4873 -0.1592
  857SOL    HW1 2570   1.077   2.914   1.541 -0.6177  1.4257 -2.1983
  857SOL    HW2 2571   0.939   3.012   1.541 -1.0066 -0.1103  1.2559
  858SOL     OW 2572   2.634   2.014   1.713  0.0612 -0.2913  0.1421
  858SOL    HW1 2573   2.626   1.950   1.633 -3.0910 -0.4912  0.8933
  858SOL    HW2 2574   2.550   2.036   1.755  1.3227  0.5167  0.6176
  859SOL     OW 2575   2.053   2.208   1.972 -0.2580 -0.2021  0.0096
  859SOL    HW1 2576   1.954   2.183   1.975  0.9602 -0.7172 -0.1953
  859SOL    HW2 2577   2.096   2.173   1.884 -1.1007  0.2234 -2.8759
  860SOL     OW 2578   1.367   0.409   0.539  0.6406  0.1399  0.4552
  860SOL    HW1 2579   1.414   0.445   0.462 -0.4623 -1.2297 -0.2631
  860SOL    HW2 2580   1.285   0.366   0.501  3.9833  1.4872  0.7700
  861SOL     OW 2581   2.817   0.575   1.012 -0.1662 -0.1297 -0.5318
  861SOL    HW1 2582   2.879   0.568   0.930 -0.5808  0.0657 -2.7954
  861SOL    HW2 2583   2.731   0.518   1.001 -0.4258 -0.6781 -0.6449
  862SOL     OW 2584   1.225   0.235   2.209  0.8433 -0.0057 -0.0726
  862SOL    HW1 2585   1.301   0.170   2.200 -1.2067  2.2635  3.2530
  862SOL    HW2 2586   1.140   0.180   2.216  1.0101  1.2840 -0.1454
  863SOL     OW 2587   0.427   0.729   1.099  0.0604 -0.0977  0.4261
  863SOL    HW1 2588   0.332   0.711   1.119  2.6093  0.0873 -0.6646
  863SOL    HW2 2589   0.479   0.779   1.169  2.2879  2.0310  1.4373
  864SOL     OW 2590   3.010   3.066   2.123  0.1596  0.4828  0.0716
  864SOL    HW1 2591   3.046   2.995   2.060 -0.4799  0.7396  0.1407
  864SOL    HW2 2592   3.023   0.062   2.080  2.0623 -0.5988 -0.4340
  865SOL     OW 2593   0.731   1.320   2.653 -0.6287  0.2946  0.1204
  865SOL    HW1 2594   0.744   1.347   2.754 -0.5351 -0.1589 -0.2008
  865SOL    HW2 2595   0.667   1.239   2.651  2.2097 -1.1083  1.0223
  866SOL     OW 2596   0.050   2.862   0.122  0.2155  0.2296 -0.7290
  866SOL    HW1 2597   0.119   2.914   0.067  1.2511  1.1281 -1.3715
  866SOL    HW2 2598   0.034   2.767   0.084  0.6948  3.5149 -1.6253
  867SOL     OW 2599   0.056   2.924   2.786  0.4613  1.1332  0.1593
  867SOL    HW1 2600   0.087   2.828   2.802  0.5653 -0.6082 -0.7545
  867SOL    HW2 2601   0.059   2.982   2.867 -0.1343 -2.3043 -3.9036
  868SOL     OW 2602   1.412   0.920   2.751  0.1546  0.5863 -0.3572
  868SOL    HW1 2603   1.487   0.981   2.785  2.3938 -0.3712  0.6129
  868SOL    HW2 2604   1.372   0.867   2.827 -0.4482 -0.5570 -0.8295
  869SOL     OW 2605   0.268   1.701   0.572  0.1415 -0.1155  0.2140
  869SOL    HW1 2606   0.366   1.707   0.593 -1.0180 -1.5374  2.3873
  869SOL    HW2 2607   0.232   1.603   0.579 -0.2633 -0.5509 -2.6987
  870SOL     OW 2608   2.323   1.843   0.442  0.9090  0.0190 -0.6453
  870SOL    HW1 2609   2.312   1.938   0.474 -0.5224  1.9729 -0.5989
  870SOL    HW2 2610   2.298   1.824   0.344 -0.0980 -0.6661 -0.8873
  871SOL     OW 2611   0.676   1.223   1.218  0.0841  0.4661  0.4791
  871SOL    HW1 2612   0.637   1.187   1.126  1.2010  0.3622 -4.0055
  871SOL    HW2 2613   0.748   1.163   1.257  2.7981  1.3227  1.7746
  872SOL     OW 2614   1.302   1.811   1.741  0.8270 -0.9654 -0.5130
  872SOL    HW1 2615   1.298   1.915   1.754  1.3298  3.0326  1.9252
  872SOL    HW2 2616   1.295   1.760   1.830 -0.1653 -3.4800 -0.7624
  873SOL     OW 2617   0.772   1.960   2.271  0.5849  0.2649 -0.2547
  873SOL    HW1 2618   0.796   1.995   2.362  0.2948  0.7709  1.9145
  873SOL    HW2 2619   0.813   2.019   2.198 -0.6763  1.3659  0.6464
  874SOL     OW 2620   0.868   2.396   1.127 -0.4443 -0.1377 -0.2089
  874SOL    HW1 2621   0.807   2.322   1.151  0.9809  2.5573 -1.8822
  874SOL    HW2 2622   0.881   2.458   1.209 -0.7759  1.6894 -0.9339
  875SOL     OW 2623   2.954   0.097   0.935 -0.3215 -0.2197 -0.5858
  875SOL    HW1 2624   2.977   0.039   1.015  0.2974  1.2227 -2.0319
  875SOL    HW2 2625   2.863   0.146   0.946 -2.2826  0.1310  0.5229
  876SOL     OW 2626   0.853   0.594   0.288 -0.1726 -0.4456 -0.2167
  876SOL    HW1 2627   0.762   0.621   0.326 -0.3249  0.1194  0.8544
  876SOL    HW2 2628   0.886   0.669   0.224  1.9329 -0.6643  0.3664
  877SOL     OW 2629   2.937   0.553   1.435 -0.2951  0.3282 -0.2269
  877SOL    HW1 2630   2.975   0.512   1.347 -0.7645  0.4974  2.3811
  877SOL    HW2 2631   2.845   0.511   1.457 -0.6903 -0.9790  1.0680
  878SOL     OW 2632   2.430   2.185   0.683  0.7616 -0.0195 -0.0274
  878SOL    HW1 2633   2.431   2.286   0.677 -0.1556  1.4013 -0.9766
  878SOL    HW2 2634   2.366   2.155   0.755  1.2759 -0.8249  0.7448
  879SOL     OW 2635   2.569   1.549   1.421 -0.6968 -0.2030  0.2150
  879SOL    HW1 2636   2.502   1.563   1.347  1.0421  2.9477  2.2113
  879SOL    HW2 2637   2.564   1.455   1.454  1.2175 -0.1469  1.7144
  880SOL     OW 2638   1.489   2.587   1.086 -0.1229 -0.8779 -0.1323
  880SOL    HW1 2639   1.489   2.676   1.135  0.0488 -1.4064 -1.9329
  880SOL    HW2 2640   1.400   2.544   1.112 -2.0165 -0.9541  1.2963
  881SOL     OW 2641   1.046   2.398   0.148  0.0587 -0.4649  0.1740
  881SOL    HW1 2642   1.038   2.436   0.245 -1.9251 -3.2496  0.4699
  881SOL    HW2 2643   0.979   2.322   0.132 -1.7666 -2.5201  1.3760
  882SOL     OW 2644   1.584   0.885   1.317  0.1544  0.9932  0.1649
  882SOL    HW1 2645   1.594   0.978   1.355  0.7118 -0.6291 -0.3596
  882SOL    HW2 2646   1.539   0.829   1.389  3.4631  0.6864 -1.3851
  883SOL     OW 2647   1.397   0.039   2.156  0.2571 -0.1576  0.1522
  883SOL    HW1 2648   1.407   0.006   2.059 -0.9169  1.5721  1.0907
  883SOL    HW2 2649   1.488   0.053   2.197  2.6834 -2.2704 -2.1902
  884SOL     OW 2650   2.541   0.597   0.271  0.1548 -0.3413  0.6221
  884SOL    HW1 2651   2.458   0.549   0.296  1.1612 -2.0086  0.7397
  884SOL    HW2 2652   2.541   0.701   0.279 -1.1091  2.6935  2.7322
  885SOL     OW 2653   1.079   1.260   2.957  0.4435 -0.1714  0.6499
  885SOL    HW1 2654   1.047   1.235   2.863 -0.4530  0.2949 -0.7259
  885SOL    HW2 2655   1.016   1.329   3.004 -3.1487  0.7753  1.2672
  886SOL     OW 2656   1.495   1.345   2.591  0.5155 -0.3795  0.1216
  886SOL    HW1 2657   1.570   1.325   2.526 -0.8535  0.2636  1.8623
  886SOL    HW2 2658   1.528   1.340   2.685  1.0751  2.2148 -0.2282
  887SOL     OW 2659   1.258   0.350   1.575 -0.1894  0.2678 -0.3736
  887SOL    HW1 2660   1.183   0.287   1.548 -0.5197  1.4567  0.5414
  887SOL    HW2 2661   1.252   0.371   1.675 -3.0467  1.9992  1.0915
  888SOL     OW 2662   2.591   0.606   1.881  1.1788 -0.5483 -0.2013
  888SOL    HW1 2663   2.580   0.504   1.875  1.1812 -0.6086 -1.6160
  888SOL    HW2 2664   2.683   0.640   1.854  1.1433 -1.7571  2.1366
  889SOL     OW 2665   0.215   2.719   0.904  0.6111  0.2921  0.6458
  889SOL    HW1 2666   0.189   2.620   0.930 -0.9778  1.8907  0.2651
  889SOL    HW2 2667   0.319   2.725   0.885 -2.2972 -0.2214  1.2082
  890SOL     OW 2668   2.874   2.285   0.226 -0.1143  0.1201  0.2135
  890SOL    HW1 2669   2.811   2.292   0.308  3.7132  0.9253  1.4110
  890SOL    HW2 2670   2.964   2.258   0.264  0.0286 -0.9720  0.6999
  891SOL     OW 2671   1.088   1.638   2.929 -0.2338  0.1050 -0.2650
  891SOL    HW1 2672   1.076   1.585   2.845  2.0631  2.4195 -0.2992
  891SOL    HW2 2673   1.164   1.600   2.982  1.0190  1.1291  1.0338
  892SOL     OW 2674   2.982   2.981   1.094 -0.3483  0.0671  0.4180
  892SOL    HW1 2675   2.965   2.893   1.146  0.9365  1.0527 -2.0833
  892SOL    HW2 2676   2.989   2.968   0.990 -0.3902  0.8049 -2.3005
  893SOL     OW 2677   1.090   2.994   1.195 -0.2520 -0.3274  0.0062
  893SOL    HW1 2678   1.063   2.992   1.294  0.6259  0.7089  0.1875
  893SOL    HW2 2679   1.033   3.051   1.130 -2.0669 -3.5086  0.3168
  894SOL     OW 2680   2.651   0.799   0.630 -0.6646 -0.5575 -0.4440
  894SOL    HW1 2681   2.621   0.868   0.703 -3.0421  2.7810  2.0637
  894SOL    HW2 2682   2.609   0.705   0.650 -1.1417 -1.7968  1.8127
  895SOL     OW 2683   2.415   2.482   2.071 -0.1965 -0.3045 -0.1589
  895SOL    HW1 2684   2.320   2.465   2.108  1.0289 -1.2268  0.7864
  895SOL    HW2 2685   2.470   2.533   2.139 -2.6770  1.2480  1.2862
  896SOL     OW 2686   1.030   0.184   1.566 -0.2828 -0.0915  0.4303
  896SOL    HW1 2687   1.042   0.088   1.540 -0.5012  0.6417  0.3169
  896SOL    HW2 2688   1.039   0.195   1.667  0.8201 -0.1014 -1.8389
  897SOL     OW 2689   0.969   1.559   1.835 -0.4389  0.0915  0.3025
  897SOL    HW1 2690   0.897   1.490   1.814  0.3562  2.0513 -0.3451
  897SOL    HW2 2691   1.013   1.591   1.747 -1.6675  0.8555  2.3229
  898SOL     OW 2692   2.179   2.652   1.859 -0.5395 -0.0977 -0.0100
  898SOL    HW1 2693   2.188   2.709   1.778  0.8080 -4.1057 -2.6849
  898SOL    HW2 2694   2.188   2.708   1.947  0.5979 -1.1365  2.3989
  899SOL     OW 2695   0.896   0.855   1.032 -0.1211  0.0061  0.0634
  899SOL    HW1 2696   0.879   0.806   1.122 -0.3357 -1.5038  0.0304
  899SOL    HW2 2697   0.823   0.831   0.965 -2.6954 -1.1737  0.1473
  900SOL     OW 2698   1.994   2.250   2.643 -0.4741 -0.5025 -0.0222
  900SOL    HW1 2699   1.926   2.273   2.568 -2.6825  2.5803 -0.9829
  900SOL    HW2 2700   2.093   2.245   2.618  2.0929 -1.9223 -0.3164
  901SOL     OW 2701   0.948   2.274   2.548 -0.2339 -0.1182 -0.0360
  901SOL    HW1 2702   0.967   2.268   2.647 -0.4893 -2.4807  0.4306
  901SOL    HW2 2703   0.917   2.364   2.513 -0.5617 -1.1221  1.5388
  902SOL     OW 2704   2.138   1.319   0.223  0.0996  0.2630  0.0047
  902SOL    HW1 2705   2.211   1.342   0.159 -1.1860 -1.5442 -3.5548
  902SOL    HW2 2706   2.130   1.219   0.238  0.3210  1.0926 -1.1387
  903SOL     OW 2707   2.014   0.825   0.480 -0.5441 -0.2327  0.4223
  903SOL    HW1 2708   1.983   0.826   0.579 -1.8452  0.3930  0.3198
  903SOL    HW2 2709   1.960   0.889   0.420  1.2095 -1.8581 -1.4659
  904SOL     OW 2710   0.884   0.707   2.786  0.3606 -0.0679 -0.3848
  904SOL    HW1 2711   0.888   0.800   2.821  0.7121 -4.4447  0.7531
  904SOL    HW2 2712   0.930   0.696   2.693 -0.8442  0.2217 -1.8619
  905SOL     OW 2713   2.082   0.363   0.900 -0.4650 -0.5204  0.1780
  905SOL    HW1 2714   2.005   0.376   0.834  2.0064  0.6071  1.8840
  905SOL    HW2 2715   2.123   0.449   0.945  3.1544  0.7338  1.6918
  906SOL     OW 2716   2.576   2.666   1.581 -0.0673  0.1053 -0.8924
  906SOL    HW1 2717   2.603   2.588   1.643 -1.1946 -0.7123  2.1407
  906SOL    HW2 2718   2.647   2.741   1.584  0.6025 -0.1275 -1.0236
  907SOL     OW 2719   1.222   0.644   0.329 -0.0356  0.1623  0.1176
  907SOL    HW1 2720   1.238   0.691   0.239 -1.4841 -2.7518  0.5461
  907SOL    HW2 2721   1.247   0.545   0.322 -2.6987 -1.1899 -0.6010
  908SOL     OW 2722   2.157   3.034   1.439 -0.0860  0.0104  0.5858
  908SOL    HW1 2723   2.244   2.983   1.426 -2.0439 -0.9746 -0.6261
  908SOL    HW2 2724   2.117   3.041   1.345 -1.1423  0.6379 -1.6546
  909SOL     OW 2725   2.538   0.666   1.382 -0.4882  0.1860  0.7607
  909SOL    HW1 2726   2.594   0.695   1.299  2.9767 -0.5340  1.3152
  909SOL    HW2 2727   2.555   0.727   1.463 -2.5117  0.7788 -1.0705
  910SOL     OW 2728   1.470   2.688   2.271 -0.1328  0.0798  0.2662
  910SOL    HW1 2729   1.569   2.695   2.282 -0.5363 -1.5117  0.7157
  910SOL    HW2 2730   1.446   2.726   2.177  0.3740  3.0573 -3.0428
  911SOL     OW 2731   2.432   0.536   2.411  0.0613 -0.3608  0.2130
  911SOL    HW1 2732   2.463   0.622   2.367  1.1175 -1.0589 -0.5386
  911SOL    HW2 2733   2.332   0.544   2.416  1.8950  1.3061  0.6546
  912SOL     OW 2734   2.816   1.298   1.386  0.2703 -0.2659  0.3183
  912SOL    HW1 2735   2.844   1.390   1.419 -1.6166 -2.8513  0.6510
  912SOL    HW2 2736   2.888   1.227   1.391 -0.3201 -0.5820  0.3582
  913SOL     OW 2737   2.658   2.165   1.384 -0.2524  0.3064 -0.7428
  913SOL    HW1 2738   2.650   2.240   1.314 -3.4860 -1.3589 -0.4902
  913SOL    HW2 2739   2.640   2.072   1.348  2.6095  2.7840  0.2202
  914SOL     OW 2740   1.990   1.149   1.448 -0.5774 -0.1811  0.2515
  914SOL    HW1 2741   2.087   1.127   1.423  0.3688  3.2648  1.6258
  914SOL    HW2 2742   1.926   1.072   1.433 -0.6817  2.6023 -1.4342
  915SOL     OW 2743   1.219   0.846   1.396  0.0187  0.3222  0.2916
  915SOL    HW1 2744   1.246   0.750   1.388 -0.9557 -0.0373 -0.4939
  915SOL    HW2 2745   1.117   0.851   1.397 -1.0351  0.2123 -2.1306
  916SOL     OW 2746   2.789   2.846   1.597  0.7778  0.0728 -0.3387
  916SOL    HW1 2747   2.860   2.810   1.655 -0.7833  0.2903  0.0782
  916SOL    HW2 2748   2.781   2.951   1.606  0.5283  1.3097 -0.5191
  917SOL     OW 2749   2.456   2.085   0.270 -0.5126  0.0442 -0.1435
  917SOL    HW1 2750   2.425   2.071   0.174  0.4274 -1.7239  1.8463
  917SOL    HW2 2751   2.547   2.132   0.281  2.6816 -1.5169 -0.4588
  918SOL     OW 2752   1.847   2.652   2.638 -0.5541  0.0825 -0.1586
  918SOL    HW1 2753   1.760   2.702   2.614 -0.6877 -0.8186  1.9203
  918SOL    HW2 2754   1.828   2.570   2.696 -0.7096  0.4234 -0.5602
  919SOL     OW 2755   1.470   2.244   1.478  0.6555 -0.4201  0.1418
  919SOL    HW1 2756   1.502   2.248   1.572 -0.7696 -1.6459 -0.7458
  919SOL    HW2 2757   1.430   2.151   1.460 -2.1534  0.7773 -1.0549
  920SOL     OW 2758   2.862   0.247   2.452 -0.6620 -0.3433 -0.4354
  920SOL    HW1 2759   2.883   0.147   2.465  1.0449 -0.5115 -0.8527
  920SOL    HW2 2760   2.875   0.301   2.536 -1.8163  0.1686  0.2321
  921SOL     OW 2761   2.941   0.717   2.110 -0.0087  0.3781  0.2652
  921SOL    HW1 2762   3.031   0.675   2.113 -0.1205 -0.1050 -0.6344
  921SOL    HW2 2763   2.925   0.763   2.199  0.7841  3.0411 -0.6765
  922SOL     OW 2764   2.041   2.050   0.555 -0.2133  0.2231  0.4400
  922SOL    HW1 2765   2.128   2.093   0.513  1.1601 -1.1697 -1.2539
  922SOL    HW2 2766   2.046   2.019   0.650 -4.1021 -0.1471  0.2703
  923SOL     OW 2767   0.543   2.143   2.915 -0.1095 -0.0656  0.2901
  923SOL    HW1 2768   0.475   2.122   2.841  0.7692  2.5464 -0.2325
  923SOL    HW2 2769   0.590   2.223   2.887 -0.7686 -1.0851 -1.1556
  924SOL     OW 2770   0.948   0.415   0.502  0.4671 -0.2762  0.1486
  924SOL    HW1 2771   0.865   0.381   0.454  1.1086  1.2682 -1.1535
  924SOL    HW2 2772   0.961   0.513   0.483 -1.3139 -1.7373 -0.4327
  925SOL     OW 2773   2.543   0.996   0.812  0.3312 -0.0994 -0.0103
  925SOL    HW1 2774   2.475   1.016   0.882  2.5751 -0.4311 -0.4883
  925SOL    HW2 2775   2.510   1.035   0.725 -0.7072 -2.3946 -1.1707
  926SOL     OW 2776   0.105   1.072   0.931 -0.2108 -0.1104  0.2868
  926SOL    HW1 2777   0.085   1.132   1.009 -1.8530 -0.3439 -1.4770
  926SOL    HW2 2778   0.058   0.984   0.940  0.3548  0.5412  1.0673
  927SOL     OW 2779   3.066   1.097   2.814 -0.8802  0.3178  1.0933
  927SOL    HW1 2780   0.034   1.063   2.736  1.4576  1.8280 -1.3929
  927SOL    HW2 2781   0.017   1.109   2.903  1.8342  0.5450 -2.3036
  928SOL     OW 2782   2.838   0.508   2.361  0.0013 -0.0764  0.5394
  928SOL    HW1 2783   2.781   0.512   2.273 -0.0752  1.8709 -1.5727
  928SOL    HW2 2784   2.892   0.422   2.372 -1.7491 -0.2384 -1.1503
  929SOL     OW 2785   2.971   2.760   1.322  0.1381 -0.2245 -0.1256
  929SOL    HW1 2786   2.870   2.749   1.310 -4.4358  1.1422 -0.7510
  929SOL    HW2 2787   3.020   2.677   1.304  1.1085 -0.5587 -0.6630
  930SOL     OW 2788   2.076   1.309   1.694 -0.0723 -0.4124 -0.8482
  930SOL    HW1 2789   2.033   1.401   1.717 -0.4727  0.5826  1.1858
  930SOL    HW2 2790   2.038   1.262   1.612 -1.2757  0.3131 -3.6476
  931SOL     OW 2791   1.549   1.523   0.746 -0.6657 -0.0020  0.6685
  931SOL    HW1 2792   1.605   1.580   0.678  2.1849  1.6121 -0.5470
  931SOL    HW2 2793   1.458   1.567   0.758  1.4228 -1.3961 -1.7973
  932SOL     OW 2794   2.808   1.252   0.924 -0.6314 -0.0448  0.1588
  932SOL    HW1 2795   2.826   1.151   0.914  0.7164 -0.5129  1.8634
  932SOL    HW2 2796   2.889   1.300   0.886 -2.3419 -0.2623  0.1451
  933SOL     OW 2797   2.359   1.555   1.237  0.2387  0.2954  0.2120
  933SOL    HW1 2798   2.379   1.542   1.138 -0.7005 -2.6966  0.9135
  933SOL    HW2 2799   2.289   1.628   1.256 -1.0102  0.6618  3.2285
  934SOL     OW 2800   1.749   0.153   1.875  0.2409  0.2372  0.2957
  934SOL    HW1 2801   1.657   0.189   1.886 -2.3684  0.2397 -1.4057
  934SOL    HW2 2802   1.818   0.229   1.850 -1.7437  1.1455 -1.4493
  935SOL     OW 2803   0.324   1.402   0.843  0.2662  0.3913 -0.1761
  935SOL    HW1 2804   0.273   1.395   0.753 -0.7613 -0.9305 -2.3443
  935SOL    HW2 2805   0.328   1.500   0.868 -0.9724 -1.5875 -0.3085
  936SOL     OW 2806   0.477   0.913   0.497  0.1790  0.8579 -0.2732
  936SOL    HW1 2807   0.415   0.951   0.422 -1.2860 -0.5573  0.3023
  936SOL    HW2 2808   0.575   0.918   0.467  0.0387  3.1692  0.6070
  937SOL     OW 2809   2.307   3.074   0.972 -0.4995 -0.4714  0.1970
  937SOL    HW1 2810   2.307   2.984   1.020 -2.4850  0.4342 -2.0629
  937SOL    HW2 2811   2.358   3.069   0.884  1.1256  0.3255 -1.2145
  938SOL     OW 2812   2.675   2.171   0.856 -0.1967 -0.5590  0.4824
  938SOL    HW1 2813   2.598   2.155   0.792 -0.6679  2.1690 -0.8705
  938SOL    HW2 2814   2.670   2.262   0.895 -0.4444 -2.0155  0.3363
  939SOL     OW 2815   0.658   2.047   0.547 -0.0801 -0.0128 -0.7170
  939SOL    HW1 2816   0.682   1.964   0.497  0.8484 -0.6863 -0.1614
  939SOL    HW2 2817   0.743   2.073   0.600  3.1856  1.7979  0.9809
  940SOL     OW 2818   2.759   3.058   2.885  0.5768 -0.3645  0.4585
  940SOL    HW1 2819   2.801   3.044   2.979  3.5440  1.0538  2.1393
  940SOL    HW2 2820   2.655   3.074   2.886 -0.5430 -0.7552 -2.3666
  941SOL     OW 2821   1.003   0.190   3.063 -0.0341 -0.5466  0.5888
  941SOL    HW1 2822   1.053   0.138   0.039  0.5981 -1.3995  0.4863
  941SOL    HW2 2823   0.942   0.269   0.001  1.1925  2.2064 -1.7858
  942SOL     OW 2824   1.193   1.177   1.227 -0.1833 -0.0793 -0.0654
  942SOL    HW1 2825   1.223   1.273   1.209  0.8401 -2.2364  3.1914
  942SOL    HW2 2826   1.165   1.135   1.140 -2.2870  1.9264  1.1550
  943SOL     OW 2827   1.698   1.223   1.659  0.6959  0.1828  0.1246
  943SOL    HW1 2828   1.691   1.230   1.765  1.4699  3.2377  3.6383
  943SOL    HW2 2829   1.782   1.168   1.637  1.0249  0.1493 -0.7652
  944SOL     OW 2830   1.520   0.587   1.750 -0.3130  0.2553 -0.6918
  944SOL    HW1 2831   1.444   0.597   1.809  2.9053 -0.6792 -0.5929
  944SOL    HW2 2832   1.609   0.593   1.801  2.0503  1.9801  0.4728
  945SOL     OW 2833   3.035   2.983   0.381  0.2880  0.2801  0.3085
  945SOL    HW1 2834   3.060   3.085   0.391  1.1364  4.5107 -1.3531
  945SOL    HW2 2835   3.065   2.941   0.296  3.0773 -1.0280  2.4071
  946SOL     OW 2836   0.025   0.474   1.758 -0.3227 -0.0092 -0.2758
  946SOL    HW1 2837   0.018   0.390   1.705  0.0907  2.9761 -0.3446
  946SOL    HW2 2838   3.037   0.526   1.739 -0.2599 -0.9283  1.5710
  947SOL     OW 2839   0.719   3.002   0.398  0.3933 -0.0445 -0.3771
  947SOL    HW1 2840   0.676   2.923   0.346 -0.2793 -0.1136  1.7171
  947SOL    HW2 2841   0.776   3.058   0.343 -3.3152 -0.4097  1.0465
  948SOL     OW 2842   2.644   1.033   1.875 -0.2067  0.5542  0.6301
  948SOL    HW1 2843   2.546   1.053   1.895  1.7667  1.1476  0.6762
  948SOL    HW2 2844   2.688   1.125   1.879 -0.1525 -1.7465  1.8297
  949SOL     OW 2845   0.493   0.851   2.780 -0.7625  0.0497 -0.1312
  949SOL    HW1 2846   0.539   0.813   2.694  0.5760  0.5178 -0.0822
  949SOL    HW2 2847   0.403   0.803   2.785 -0.5072 -2.6437  1.7362
  950SOL     OW 2848   0.795   0.491   0.903  0.0489 -0.1675 -0.2261
  950SOL    HW1 2849   0.838   0.403   0.940 -0.4035 -1.6949 -1.2037
  950SOL    HW2 2850   0.850   0.530   0.825  0.5587  1.1197 -0.2227
  951SOL     OW 2851   1.042   1.860   2.174 -0.1561  0.5914  0.4235
  951SOL    HW1 2852   1.060   1.948   2.132  3.9316 -2.3727 -0.4488
  951SOL    HW2 2853   0.950   1.849   2.209  1.9740  0.7247  2.2942
  952SOL     OW 2854   1.000   1.595   0.196  0.1328 -0.3481 -0.3509
  952SOL    HW1 2855   0.992   1.497   0.194 -0.9261  1.1167 -1.9265
  952SOL    HW2 2856   0.958   1.644   0.117  2.6238  1.3785 -1.2471
  953SOL     OW 2857   2.115   3.020   2.490  0.0065  0.2105 -0.2705
  953SOL    HW1 2858   2.072   2.983   2.405  0.9013  0.5893 -0.4110
  953SOL    HW2 2859   2.190   3.084   2.468  0.4244 -1.4547 -0.4939
  954SOL     OW 2860   1.634   1.271   0.734 -0.5229 -0.2378  0.0152
  954SOL    HW1 2861   1.665   1.253   0.637  0.3409  0.6153  1.0918
  954SOL    HW2 2862   1.598   1.371   0.747  1.4986  5.7437  3.6356
  955SOL     OW 2863   0.328   2.278   2.355  0.5905 -0.0105  0.0036
  955SOL    HW1 2864   0.386   2.273   2.270  1.3589 -1.0028  1.5919
  955SOL    HW2 2865   0.272   2.364   2.348 -0.7868 -2.6770  2.2387
  956SOL     OW 2866   1.533   0.321   1.568 -0.4851 -0.1558  0.0163
  956SOL    HW1 2867   1.430   0.309   1.569 -2.3661  2.4889 -1.7082
  956SOL    HW2 2868   1.550   0.407   1.625  0.5943  0.6275  1.6131
  957SOL     OW 2869   1.782   2.021   2.999  0.1819  0.0111 -0.1092
  957SOL    HW1 2870   1.789   1.975   3.095 -0.2709 -4.5371  1.2171
  957SOL    HW2 2871   1.841   2.103   2.993  0.7580  0.7034 -0.2097
  958SOL     OW 2872   1.257   2.374   1.782  0.3914 -0.0589 -0.4449
  958SOL    HW1 2873   1.184   2.366   1.853 -3.8730 -0.7211 -2.2546
  958SOL    HW2 2874   1.256   2.299   1.709  1.5272  0.6402 -0.0972
  959SOL     OW 2875   2.238   2.174   2.926  0.1033 -0.3899  0.3905
  959SOL    HW1 2876   2.261   2.243   2.994  0.4663 -1.4070 -1.5035
  959SOL    HW2 2877   2.135   2.147   2.920 -0.2963  0.0332 -1.9709
  960SOL     OW 2878   2.915   0.393   2.673 -0.6893 -0.9947 -0.4748
  960SOL    HW1 2879   2.887   0.340   2.755 -1.5476  0.0848 -2.6117
  960SOL    HW2 2880   2.911   0.493   2.689  1.2658 -1.1871 -1.0281
  961SOL     OW 2881   0.798   0.930   2.588  0.4193  0.1217  0.0372
  961SOL    HW1 2882   0.701   0.914   2.566  0.7155 -0.2025  1.2911
  961SOL    HW2 2883   0.860   0.880   2.529 -2.2430  1.0449  1.5472
  962SOL     OW 2884   1.021   1.210   2.675 -0.1507  0.2649 -0.2514
  962SOL    HW1 2885   0.921   1.210   2.664 -1.9404 -1.4918 -0.8007
  962SOL    HW2 2886   1.070   1.124   2.642 -1.0695 -1.6537  0.7732
  963SOL     OW 2887   2.377   2.306   0.037  0.1075 -0.2046  0.1347
  963SOL    HW1 2888   2.473   2.287   0.010  1.1282  0.7239 -1.2213
  963SOL    HW2 2889   2.361   2.404   0.047  1.5120 -0.1936 -0.0586
  964SOL     OW 2890   1.241   2.513   1.126 -0.6553 -0.5125  0.0297
  964SOL    HW1 2891   1.241   2.477   1.220  0.3611  0.9418 -0.2689
  964SOL    HW2 2892   1.163   2.575   1.110 -1.4020 -0.1420  0.4161
  965SOL     OW 2893   1.130   1.541   0.869  0.1707  0.3688  0.0234
  965SOL    HW1 2894   1.216   1.574   0.831 -1.7838 -1.7262 -0.3141
  965SOL    HW2 2895   1.067   1.619   0.873  2.6220 -3.4392  0.9177
  966SOL     OW 2896   0.384   1.515   3.096  0.7452  0.5229 -0.1905
  966SOL    HW1 2897   0.408   1.609   0.021  3.0219 -1.5940 -0.0170
  966SOL    HW2 2898   0.316   1.472   0.064 -2.6831  0.1075 -0.9734
  967SOL     OW 2899   1.970   0.340   1.832 -0.0304 -0.0818 -0.3568
  967SOL    HW1 2900   2.040   0.395   1.881  0.4032 -2.0577 -0.5791
  967SOL    HW2 2901   2.015   0.295   1.749 -0.0376 -1.5941 -1.6342
  968SOL     OW 2902   1.858   1.180   0.555 -0.1306  0.3939  0.1856
  968SOL    HW1 2903   1.836   1.264   0.501 -1.4560 -1.3174 -0.9404
  968SOL    HW2 2904   1.838   1.099   0.499  1.1250  2.0853 -1.0006
  969SOL     OW 2905   0.255   1.345   2.428 -0.3398 -0.3775  0.1442
  969SOL    HW1 2906   0.200   1.278   2.372 -0.4245  0.2957  2.4166
  969SOL    HW2 2907   0.309   1.412   2.376 -0.5970 -2.2068  0.2240
  970SOL     OW 2908   2.093   1.414   1.147 -0.2303  0.0337 -0.1957
  970SOL    HW1 2909   2.021   1.349   1.122  3.6437  2.4897  1.1695
  970SOL    HW2 2910   2.182   1.405   1.101 -0.8944 -2.7153  1.0374
  971SOL     OW 2911   0.399   3.079   1.189 -0.1987  0.0292 -0.2928
  971SOL    HW1 2912   0.363   0.070   1.229 -0.4396  3.3944 -2.9944
  971SOL    HW2 2913   0.323   3.023   1.145  0.5187  1.0814 -1.0546
  972SOL     OW 2914   0.210   0.767   2.844  0.8676  0.1581  0.6024
  972SOL    HW1 2915   0.178   0.671   2.822 -1.2755 -1.6720 -2.7881
  972SOL    HW2 2916   0.234   0.768   2.941 -0.5466  0.7881 -2.6616
  973SOL     OW 2917   0.036   0.805   0.959 -0.6376 -0.5526  0.3604
  973SOL    HW1 2918   0.125   0.776   0.918 -0.0011  0.4840  2.3433
  973SOL    HW2 2919   3.062   0.737   0.931  0.8845 -0.6567 -1.8392
  974SOL     OW 2920   2.133   0.540   1.978  0.2677 -0.6972 -0.4428
  974SOL    HW1 2921   2.068   0.612   1.942 -0.9551  0.5111 -0.5683
  974SOL    HW2 2922   2.222   0.588   1.994  0.1453  1.3123  1.5596
  975SOL     OW 2923   2.775   0.110   0.220 -0.7525 -0.1109 -0.0082
  975SOL    HW1 2924   2.736   0.099   0.314 -1.4028 -1.3336 -0.2997
  975SOL    HW2 2925   2.810   0.206   0.196 -0.5640  2.2669 -1.7914
  976SOL     OW 2926   0.308   1.444   1.686  0.3549 -0.5083  0.6267
  976SOL    HW1 2927   0.305   1.509   1.605 -1.0596  2.1548  0.5939
  976SOL    HW2 2928   0.340   1.498   1.765  1.5044  3.2681  1.3602
  977SOL     OW 2929   1.106   2.578   3.036 -0.1401  0.4202 -0.4943
  977SOL    HW1 2930   1.143   2.666   3.069  0.5806  0.0200  0.5400
  977SOL    HW2 2931   1.097   2.511   0.010  2.3873 -0.3521 -2.6750
  978SOL     OW 2932   0.583   1.253   0.264  0.1407  0.5722  0.3425
  978SOL    HW1 2933   0.618   1.156   0.278  0.4866 -0.4724 -0.9457
  978SOL    HW2 2934   0.496   1.261   0.310  1.3898 -0.1316  0.1458
  979SOL     OW 2935   1.731   1.803   1.319 -0.5421 -0.3147 -0.1510
  979SOL    HW1 2936   1.629   1.807   1.333  0.3441  0.4964  2.1745
  979SOL    HW2 2937   1.763   1.719   1.365  2.9703  1.8313 -2.4646
  980SOL     OW 2938   0.402   1.603   1.893  0.2874 -0.1220  0.4202
  980SOL    HW1 2939   0.498   1.617   1.913 -0.1080 -0.9615 -0.0174
  980SOL    HW2 2940   0.357   1.568   1.975  2.3807  0.2086 -3.2566
  981SOL     OW 2941   0.143   1.489   0.186  0.1454  0.1174  0.4593
  981SOL    HW1 2942   0.143   1.592   0.190 -0.3376  2.4922 -1.5781
  981SOL    HW2 2943   0.080   1.453   0.265 -2.1308 -1.3251  3.2245
  982SOL     OW 2944   2.375   2.971   2.112 -0.3886  0.1702 -0.4556
  982SOL    HW1 2945   2.381   3.042   2.034  0.5586 -0.0953 -2.9221
  982SOL    HW2 2946   2.436   2.998   2.186  2.9021  0.9488 -1.9730
  983SOL     OW 2947   1.236   0.544   1.128 -0.5165  0.0144  0.3250
  983SOL    HW1 2948   1.332   0.551   1.102  0.5555  1.2118  0.3539
  983SOL    HW2 2949   1.179   0.603   1.067  0.0512 -1.3222 -0.0342
  984SOL     OW 2950   1.231   2.938   2.786 -0.1200 -0.0478 -0.5579
  984SOL    HW1 2951   1.272   2.969   2.877  0.9013  1.7922  1.6035
  984SOL    HW2 2952   1.268   3.006   2.718  0.5663 -0.1640  3.6114
  985SOL     OW 2953   1.958   2.239   1.499 -0.0164  0.2073 -0.7398
  985SOL    HW1 2954   1.884   2.170   1.491 -1.0718 -0.2479 -0.4139
  985SOL    HW2 2955   2.008   2.264   1.414 -0.9243 -0.9676 -0.4431
  986SOL     OW 2956   2.639   0.064   2.466  0.1547  0.4886  0.2473
  986SOL    HW1 2957   2.732   0.039   2.433  1.6007 -0.8127 -0.7946
  986SOL    HW2 2958   2.639   0.158   2.509 -1.0819 -1.8409 -0.7054
  987SOL     OW 2959   2.747   0.866   2.327 -0.2812  0.3685 -0.3477
  987SOL    HW1 2960   2.704   0.780   2.354 -1.4952 -0.1468  2.3053
  987SOL    HW2 2961   2.687   0.919   2.262  0.9830  0.7459  1.7908
  988SOL     OW 2962   2.313   0.820   2.672  0.4340  0.2115 -0.6357
  988SOL    HW1 2963   2.243   0.743   2.677 -1.9413 -1.5012  2.3937
  988SOL    HW2 2964   2.298   0.873   2.590 -2.5269  0.0375  1.4976
  989SOL     OW 2965   2.109   1.534   1.994 -0.4841  0.3197 -0.2615
  989SOL    HW1 2966   2.138   1.570   2.084 -0.4583 -1.0762  0.6940
  989SOL    HW2 2967   2.175   1.472   1.945 -1.5476 -2.0610 -0.2626
  990SOL     OW 2968   0.433   1.068   2.990  0.3649 -0.0450  0.1153
  990SOL    HW1 2969   0.490   1.152   3.013 -1.4897  2.1120 -0.0189
  990SOL    HW2 2970   0.473   1.018   2.912 -3.0265  2.6257  2.3124
  991SOL     OW 2971   0.342   2.062   2.731  0.2873 -0.1966  0.1087
  991SOL    HW1 2972   0.317   1.968   2.760 -1.8742  0.4707  3.3077
  991SOL    HW2 2973   0.252   2.106   2.704 -1.8519  0.3796  0.7775
  992SOL     OW 2974   2.358   2.084   1.890  0.3241 -0.5279  0.6342
  992SOL    HW1 2975   2.323   2.127   1.803  1.3287  0.3396 -4.0011
  992SOL    HW2 2976   2.411   2.151   1.944  1.0192  0.3728  0.8751
  993SOL     OW 2977   0.153   2.893   0.577 -0.0362 -0.3963 -0.1710
  993SOL    HW1 2978   0.071   2.947   0.554 -0.5203 -2.3771  3.3766
  993SOL    HW2 2979   0.185   2.846   0.492  1.5661 -0.7197 -0.8168
  994SOL     OW 2980   0.384   1.793   1.576  0.5880 -0.0419 -0.4773
  994SOL    HW1 2981   0.367   1.879   1.522 -0.2353 -0.2604  0.1890
  994SOL    HW2 2982   0.453   1.809   1.648  0.0846 -1.3760  2.3818
  995SOL     OW 2983   2.046   1.733   2.841 -0.1217 -0.1364  0.1107
  995SOL    HW1 2984   1.952   1.706   2.854  1.3590  0.1776 -1.0164
  995SOL    HW2 2985   2.056   1.832   2.812  1.9281  0.0326  0.5702
  996SOL     OW 2986   2.074   1.147   2.717 -0.2013  0.3057  0.0446
  996SOL    HW1 2987   2.144   1.144   2.795  1.1468 -1.4165 -4.7517
  996SOL    HW2 2988   2.026   1.241   2.712 -0.7606  2.5141 -1.8887
  997SOL     OW 2989   1.505   0.926   1.715 -0.8816  0.3774  0.0936
  997SOL    HW1 2990   1.424   0.982   1.700  2.3226 -0.2353 -1.3089
  997SOL    HW2 2991   1.508   0.868   1.633 -0.6942  1.9419  1.1328
  998SOL     OW 2992   2.286   2.075   0.900 -0.1174  0.1201  0.6117
  998SOL    HW1 2993   2.283   2.163   0.949 -0.3166  1.2288 -1.0747
  998SOL    HW2 2994   2.353   2.020   0.949 -1.6298 -4.0225 -0.1802
  999SOL     OW 2995   2.334   2.433   0.626  0.6039 -0.3782  0.7092
  999SOL    HW1 2996   2.275   2.444   0.540 -2.5762 -1.1274 -1.7727
  999SOL    HW2 2997   2.427   2.463   0.607 -0.3820 -0.7195 -0.9180
 1000SOL     OW 2998   0.867   2.995   3.086 -0.2205  0.0570 -0.4440
 1000SOL    HW1 2999   0.862   2.917   0.055  3.0534 -0.5371  1.8338
 1000SOL    HW2 3000   0.800   3.066   0.018 -2.2907 -1.1371  0.9850
   3.09662   3.09662   3.09662
