1000 SPC/Fw water molecules t=  52.00000 step= 52000
 3000
    1SOL     OW    1   2.106   2.786   0.674 -0.2642 -0.5530  0.3251
    1SOL    HW1    2   2.007   2.786   0.662 -0.3718 -1.7575 -0.0995
    1SOL    HW2    3   2.122   2.862   0.737 -2.7095 -0.3475 -1.2443
    2SOL     OW    4   1.201   0.921   2.473 -0.3876 -0.2197 -0.4567
    2SOL    HW1    5   1.237   0.985   2.403  0.5948 -1.4885  0.0626
    2SOL    HW2    6   1.202   0.953   2.570  0.5897  1.5771  1.4683
    3SOL     OW    7   0.945   2.797   2.595  0.4339  0.4993 -0.3779
    3SOL    HW1    8   1.041   2.821   2.611 -1.7077  0.1975 -2.6404
    3SOL    HW2    9   0.915   2.708   2.645  0.4401 -1.5511  1.7827
    4SOL     OW   10   1.330   1.438   2.881  0.5273 -0.3107  0.3415
    4SOL    HW1   11   1.387   1.360   2.901 -2.8323  1.6632  1.7471
    4SOL    HW2   12   1.382   1.522   2.866  0.8967  2.6053 -2.2212
    5SOL     OW   13   1.007   0.782   1.806  0.0822  0.0334 -0.4440
    5SOL    HW1   14   1.029   0.682   1.796 -1.2424  0.8553 -1.8420
    5SOL    HW2   15   0.971   0.804   1.898 -1.3402  3.1645  1.8709
    6SOL     OW   16   1.944   0.450   2.258 -0.0744  0.7898 -0.4630
    6SOL    HW1   17   1.994   0.450   2.167  0.5391 -1.0112 -0.8203
    6SOL    HW2   18   2.006   0.449   2.335  1.0717 -0.7657 -4.0911
    7SOL     OW   19   0.319   0.878   1.587  0.7079  0.3521 -0.4012
    7SOL    HW1   20   0.410   0.858   1.561 -1.5717  0.0472 -0.0701
    7SOL    HW2   21   0.304   0.841   1.681  0.2955 -0.4169  0.5490
    8SOL     OW   22   1.905   2.887   1.902  0.3584  0.0031 -0.1178
    8SOL    HW1   23   1.835   2.817   1.894  2.9995  0.4469  2.1395
    8SOL    HW2   24   1.869   2.982   1.888 -2.3916  2.0110  0.2953
    9SOL     OW   25   0.300   3.017   0.532  0.1235  0.1482 -0.0892
    9SOL    HW1   26   0.321   2.987   0.434 -0.8241 -1.7548  2.1369
    9SOL    HW2   27   0.211   2.987   0.565  2.4965 -1.3605  0.4517
   10SOL     OW   28   0.451   2.238   2.495  0.7146  0.0541  0.5862
   10SOL    HW1   29   0.386   2.227   2.574 -3.0216 -0.2601  1.2056
   10SOL    HW2   30   0.486   2.153   2.455 -3.1371  0.5344  1.6046
   11SOL     OW   31   0.894   1.622   3.037  0.5306  0.4156 -0.0963
   11SOL    HW1   32   0.814   1.598   0.028 -4.1897 -2.3071  2.5254
   11SOL    HW2   33   0.971   1.562   3.057 -1.5412 -0.1749 -0.2688
   12SOL     OW   34   2.512   2.433   1.374 -0.3103  0.2081  0.3298
   12SOL    HW1   35   2.454   2.355   1.347 -1.0647  2.2178 -2.1496
   12SOL    HW2   36   2.501   2.448   1.477 -0.0293 -4.3230  0.3897
   13SOL     OW   37   0.483   2.833   2.985  0.1353 -0.4903 -0.2581
   13SOL    HW1   38   0.522   2.928   2.979 -0.4993 -1.8773 -0.8978
   13SOL    HW2   39   0.495   2.793   0.007  0.1845 -1.2351  0.7313
   14SOL     OW   40   1.371   1.557   1.388 -0.3516  0.5412  0.0449
   14SOL    HW1   41   1.311   1.587   1.467 -1.0506 -1.0341 -0.3836
   14SOL    HW2   42   1.468   1.555   1.419 -1.2835  0.0670  0.8076
   15SOL     OW   43   0.435   1.646   2.381 -0.3964 -0.3797  0.6210
   15SOL    HW1   44   0.494   1.674   2.302 -0.5184  1.4857  0.9171
   15SOL    HW2   45   0.349   1.701   2.370  0.3569  0.8461  2.1443
   16SOL     OW   46   1.672   0.601   2.777  0.1881 -0.3714  0.1610
   16SOL    HW1   47   1.593   0.548   2.811 -0.0756  0.3889  0.3013
   16SOL    HW2   48   1.650   0.700   2.779 -0.6916 -0.6778  0.3474
   17SOL     OW   49   2.871   2.822   2.404 -0.0695 -0.2643 -0.1373
   17SOL    HW1   50   2.928   2.737   2.410  2.0563 -0.4529 -1.1574
   17SOL    HW2   51   2.881   2.851   2.310  0.9611 -1.7669  2.4305
   18SOL     OW   52   1.133   1.151   0.778 -0.0278  0.1991 -0.4646
   18SOL    HW1   53   1.205   1.223   0.778 -3.2502 -2.3979 -1.0726
   18SOL    HW2   54   1.041   1.193   0.789 -0.0510 -1.6636 -2.4232
   19SOL     OW   55   2.819   1.698   2.423 -0.1069  0.7264 -0.0279
   19SOL    HW1   56   2.807   1.643   2.510  1.1274 -1.4744  3.8704
   19SOL    HW2   57   2.868   1.785   2.438 -0.9232 -0.2597  0.9129
   20SOL     OW   58   2.314   2.291   2.415 -0.3204  0.1340  0.1556
   20SOL    HW1   59   2.290   2.331   2.326  0.3191 -2.1813  0.1866
   20SOL    HW2   60   2.233   2.298   2.483 -0.8773  2.7599  0.2419
   21SOL     OW   61   1.829   1.976   0.500 -0.0390  0.7540 -0.0367
   21SOL    HW1   62   1.762   2.045   0.540  1.0072 -0.3078  0.1640
   21SOL    HW2   63   1.873   1.923   0.576  0.0204  0.4616  2.7387
   22SOL     OW   64   2.332   2.030   1.125 -0.9732  0.2237  0.1524
   22SOL    HW1   65   2.420   1.987   1.098  2.2122 -1.5667 -4.9389
   22SOL    HW2   66   2.254   1.969   1.094  0.2205  0.5593 -2.9839
   23SOL     OW   67   3.057   1.218   1.368  0.0118 -0.3670 -0.3415
   23SOL    HW1   68   0.033   1.309   1.386  2.9089  1.1612  1.8223
   23SOL    HW2   69   2.968   1.217   1.420  0.8302  0.2085  0.6674
   24SOL     OW   70   2.296   1.087   2.110 -0.0408  0.3622 -0.1860
   24SOL    HW1   71   2.365   1.159   2.111 -0.8752  0.6185  0.0869
   24SOL    HW2   72   2.229   1.109   2.179  2.3622 -2.4583 -3.4510
   25SOL     OW   73   1.902   0.122   2.365 -0.3214  0.1365 -0.0797
   25SOL    HW1   74   1.815   0.068   2.366 -0.9379 -0.3226 -1.2321
   25SOL    HW2   75   1.964   0.095   2.287  2.3028  0.0823 -3.9094
   26SOL     OW   76   0.763   0.232   0.232 -0.2470 -0.4797 -0.0604
   26SOL    HW1   77   0.667   0.199   0.227 -0.7861  1.5177 -0.6800
   26SOL    HW2   78   0.770   0.304   0.161 -0.4398  0.3560  1.0795
   27SOL     OW   79   0.711   1.551   0.799 -0.0514  0.1675 -0.0355
   27SOL    HW1   80   0.690   1.537   0.699  1.3816  0.1125 -2.4854
   27SOL    HW2   81   0.628   1.573   0.852  0.4648  0.1498 -1.6714
   28SOL     OW   82   2.226   2.248   1.005 -0.7437 -0.2087  0.3174
   28SOL    HW1   83   2.284   2.177   1.056  2.0640  1.4517  1.4448
   28SOL    HW2   84   2.249   2.341   1.040 -0.6073 -1.2560  0.4937
   29SOL     OW   85   2.162   0.025   1.935 -0.0967 -0.2069  0.3335
   29SOL    HW1   86   2.090   0.034   1.863 -0.7613  0.9987 -2.8785
   29SOL    HW2   87   2.251   3.070   1.894 -1.7021  0.2718  0.9234
   30SOL     OW   88   0.405   2.957   1.337  0.1155 -0.4504 -0.6570
   30SOL    HW1   89   0.360   2.994   1.419 -1.5981  0.3168 -1.4749
   30SOL    HW2   90   0.344   2.895   1.288  5.4129 -1.9202 -1.1562
   31SOL     OW   91   2.965   1.895   2.188 -0.7590  0.1881  0.5729
   31SOL    HW1   92   3.044   1.876   2.126  0.4271 -2.0101  2.7034
   31SOL    HW2   93   2.874   1.864   2.158 -1.3513 -0.3390  0.5805
   32SOL     OW   94   1.460   2.069   2.248 -0.0736 -0.0577 -0.0666
   32SOL    HW1   95   1.518   2.138   2.202  0.0401  2.9214  3.5495
   32SOL    HW2   96   1.503   1.978   2.245  0.6209  0.6527  1.8125
   33SOL     OW   97   0.200   0.200   2.781  0.2774 -1.2139 -0.4112
   33SOL    HW1   98   0.287   0.198   2.727  0.3659 -2.1936 -1.2638
   33SOL    HW2   99   0.153   0.111   2.759 -2.2777 -1.7686 -2.2284
   34SOL     OW  100   2.596   3.060   0.385 -0.6448 -0.3945  0.0831
   34SOL    HW1  101   2.523   0.055   0.409  0.6537 -0.7646 -0.9952
   34SOL    HW2  102   2.686   0.024   0.416 -2.4041 -0.8135  1.7021
   35SOL     OW  103   2.849   0.233   1.572  0.1647  0.5642 -0.1767
   35SOL    HW1  104   2.791   0.289   1.630  1.3706 -2.8406  3.5231
   35SOL    HW2  105   2.939   0.277   1.543  0.6613 -0.7724 -0.6079
   36SOL     OW  106   2.539   2.998   2.387  0.0845  0.0808 -0.3753
   36SOL    HW1  107   2.558   2.926   2.458 -2.1206 -0.3681  0.5087
   36SOL    HW2  108   2.518   0.016   2.428  3.2947  1.0810 -1.4428
   37SOL     OW  109   1.498   2.865   0.009 -0.3427  0.1383  0.3700
   37SOL    HW1  110   1.474   2.960   0.034 -0.9199 -0.6294  1.5234
   37SOL    HW2  111   1.416   2.803   3.060  0.9431 -0.7124  0.2000
   38SOL     OW  112   0.057   0.773   0.045 -0.4823  0.2985  0.2326
   38SOL    HW1  113   0.029   0.679   0.013 -0.0947 -1.3823 -1.8800
   38SOL    HW2  114   0.118   0.820   3.042  0.8351  2.1028 -0.6518
   39SOL     OW  115   1.449   1.726   1.926 -0.0121  0.6276 -0.2819
   39SOL    HW1  116   1.487   1.811   1.890  2.2357 -3.3596 -0.0401
   39SOL    HW2  117   1.368   1.753   1.974  1.1527 -1.7407 -0.3279
   40SOL     OW  118   0.325   0.447   2.573 -0.0487 -0.1621  0.0193
   40SOL    HW1  119   0.418   0.489   2.555  4.9193 -2.6051 -2.5720
   40SOL    HW2  120   0.321   0.348   2.543 -0.1201 -1.5216  0.0785
   41SOL     OW  121   1.625   1.043   2.135  0.8108 -0.0770 -0.3354
   41SOL    HW1  122   1.618   0.942   2.120  0.5761  1.8520  1.7150
   41SOL    HW2  123   1.692   1.052   2.207  0.5371  0.2475  0.7953
   42SOL     OW  124   0.007   0.318   1.459  0.0481  0.2249 -0.3630
   42SOL    HW1  125   3.058   0.417   1.457  1.9624 -0.2266 -1.3235
   42SOL    HW2  126   0.104   0.304   1.483  2.4649 -0.9792 -3.2715
   43SOL     OW  127   1.394   1.273   1.721  0.4456  0.2493 -1.0243
   43SOL    HW1  128   1.495   1.274   1.720  1.3708 -0.5249 -0.3034
   43SOL    HW2  129   1.353   1.225   1.808 -0.3878  0.9667 -1.9373
   44SOL     OW  130   2.934   0.179   2.888 -0.1506 -0.2516 -0.0058
   44SOL    HW1  131   3.004   0.205   2.954  0.8038  1.2538 -2.2516
   44SOL    HW2  132   2.928   0.079   2.880  1.2403  1.5424  0.5230
   45SOL     OW  133   0.385   2.112   1.569  0.7317  0.3354 -0.1807
   45SOL    HW1  134   0.321   2.125   1.492 -2.0814 -1.7280 -1.3007
   45SOL    HW2  135   0.458   2.046   1.541  1.6697 -0.3368 -1.0602
   46SOL     OW  136   2.416   3.009   1.866 -0.1711 -0.5438  0.4731
   46SOL    HW1  137   2.497   3.047   1.911  0.9028 -2.8800  1.1071
   46SOL    HW2  138   2.438   2.980   1.770  1.5012  0.1524 -1.7864
   47SOL     OW  139   0.363   1.917   1.127 -0.0557 -0.4314 -0.2376
   47SOL    HW1  140   0.367   1.903   1.026 -1.5688  1.6871  1.0969
   47SOL    HW2  141   0.347   1.834   1.190  0.8926 -1.2370 -0.0567
   48SOL     OW  142   0.468   2.712   0.166 -0.4963 -0.3771  0.6507
   48SOL    HW1  143   0.511   2.698   0.257 -1.1005 -1.7477 -2.2706
   48SOL    HW2  144   0.426   2.622   0.132  1.8971 -0.9650 -2.3434
   49SOL     OW  145   2.961   1.645   1.928 -0.2783 -0.6263 -0.6226
   49SOL    HW1  146   3.027   1.663   2.006  1.9679 -0.9773  0.8943
   49SOL    HW2  147   2.904   1.559   1.957  1.5668 -1.0420 -1.2171
   50SOL     OW  148   1.523   0.118   0.776  0.8874 -0.2127  0.0182
   50SOL    HW1  149   1.587   0.149   0.701 -1.3535 -2.8337  3.8816
   50SOL    HW2  150   1.558   0.160   0.865  3.6973  0.8574  4.2338
   51SOL     OW  151   1.005   0.150   1.226  1.0107  0.0934  0.3435
   51SOL    HW1  152   0.915   0.142   1.271 -3.3674 -1.2058 -0.4954
   51SOL    HW2  153   1.008   0.248   1.185  1.4830  3.1121 -0.4870
   52SOL     OW  154   0.570   1.252   0.523 -0.1666  0.0873 -0.0146
   52SOL    HW1  155   0.513   1.216   0.445  1.1640  3.5524  0.5513
   52SOL    HW2  156   0.665   1.221   0.513  1.7366  1.9132  2.4886
   53SOL     OW  157   1.402   2.896   2.434  0.3584 -0.6482  0.4388
   53SOL    HW1  158   1.475   2.898   2.367 -1.0873  2.2329  2.6974
   53SOL    HW2  159   1.420   2.829   2.508 -0.3869 -2.1099  1.0735
   54SOL     OW  160   1.792   0.472   1.733  0.1936 -0.4144 -0.2597
   54SOL    HW1  161   1.834   0.532   1.666 -1.7399 -2.2572  2.3926
   54SOL    HW2  162   1.852   0.388   1.749  0.1747 -1.0800  0.3171
   55SOL     OW  163   2.892   2.521   0.590  0.6450 -0.2062  0.4258
   55SOL    HW1  164   2.942   2.590   0.645  2.3990 -0.3704 -0.4986
   55SOL    HW2  165   2.963   2.468   0.535  2.3958 -0.9368 -0.5350
   56SOL     OW  166   1.020   2.764   1.698 -0.0746  0.0114  0.2269
   56SOL    HW1  167   1.023   2.822   1.782  2.3093 -0.7147 -0.8573
   56SOL    HW2  168   0.933   2.713   1.698  0.8789  0.9140  0.6113
   57SOL     OW  169   1.799   0.714   2.357 -0.1363 -1.0395  0.2071
   57SOL    HW1  170   1.870   0.663   2.307  0.8070  0.8124  3.1506
   57SOL    HW2  171   1.728   0.753   2.291 -2.5740 -0.4940 -1.8488
   58SOL     OW  172   0.504   1.187   2.088  0.0791 -0.4806 -0.0960
   58SOL    HW1  173   0.459   1.166   2.000 -0.5808  1.2546  1.0654
   58SOL    HW2  174   0.439   1.252   2.138 -0.0816  0.3457  0.3510
   59SOL     OW  175   0.695   2.644   1.926  0.3938 -0.1536  0.2321
   59SOL    HW1  176   0.603   2.600   1.911 -1.4249 -2.5952 -0.9684
   59SOL    HW2  177   0.732   2.684   1.841  3.5575  0.1699  2.2934
   60SOL     OW  178   2.445   2.438   0.223 -0.3507 -0.2599 -0.5984
   60SOL    HW1  179   2.542   2.440   0.256 -1.8940 -0.5803 -0.1303
   60SOL    HW2  180   2.430   2.511   0.151 -1.2560  1.5080  0.1133
   61SOL     OW  181   1.184   2.536   0.742 -0.1543 -0.3385  0.1581
   61SOL    HW1  182   1.162   2.551   0.841  0.3396  0.3902  0.8448
   61SOL    HW2  183   1.237   2.617   0.706  0.1253  1.4144 -0.4410
   62SOL     OW  184   1.639   2.732   2.887 -0.3459  0.1748  0.5096
   62SOL    HW1  185   1.645   2.633   2.907 -3.5690  1.8762  0.1492
   62SOL    HW2  186   1.590   2.773   2.970 -0.5672  0.3120  1.5080
   63SOL     OW  187   2.299   0.598   2.951 -0.0454  0.4054  0.2531
   63SOL    HW1  188   2.260   0.688   2.984  1.5528  0.0892 -1.2503
   63SOL    HW2  189   2.392   0.579   2.986 -3.2760 -0.1877 -0.9929
   64SOL     OW  190   1.175   1.237   0.137  0.2901  0.2094  0.0587
   64SOL    HW1  191   1.109   1.220   0.215 -0.4100 -1.1354  0.7768
   64SOL    HW2  192   1.259   1.181   0.153 -2.7570 -0.4625 -3.0583
   65SOL     OW  193   0.642   2.891   1.471  0.0967  0.3812 -0.1716
   65SOL    HW1  194   0.733   2.907   1.431 -2.4631  1.9588 -0.4624
   65SOL    HW2  195   0.570   2.897   1.397  1.7228  0.6225 -2.4105
   66SOL     OW  196   0.904   1.213   1.326 -0.2897  0.2064  0.1732
   66SOL    HW1  197   0.808   1.177   1.340 -1.5468 -0.0428  1.9686
   66SOL    HW2  198   0.930   1.199   1.229  1.8744  0.0960  3.2314
   67SOL     OW  199   2.471   2.104   1.831 -0.1629 -0.0774  0.3653
   67SOL    HW1  200   2.532   2.182   1.863 -0.1272 -1.9326  1.4329
   67SOL    HW2  201   2.392   2.140   1.777 -1.8512 -1.8728 -0.2714
   68SOL     OW  202   0.985   1.203   2.076 -0.0574  0.2139 -0.1377
   68SOL    HW1  203   0.900   1.152   2.036 -1.2899 -0.0925 -0.7643
   68SOL    HW2  204   1.015   1.273   2.005 -1.1718 -0.0099 -1.0484
   69SOL     OW  205   2.678   2.691   0.083  0.6098 -0.0994  0.6558
   69SOL    HW1  206   2.653   2.732   0.175  1.7680  3.6104  0.8116
   69SOL    HW2  207   2.746   2.748   0.033 -1.9179 -0.7350  0.4415
   70SOL     OW  208   2.545   0.842   2.433  0.6550 -0.0781  0.0560
   70SOL    HW1  209   2.451   0.851   2.471 -2.3244  3.1595  2.4108
   70SOL    HW2  210   2.556   0.742   2.417 -1.2406  0.7104 -1.9842
   71SOL     OW  211   0.277   1.955   0.661 -0.8999  0.6269  0.2101
   71SOL    HW1  212   0.218   1.883   0.622  0.3230  0.1066  1.8862
   71SOL    HW2  213   0.232   2.044   0.655  1.3105  1.1284 -1.2252
   72SOL     OW  214   2.653   1.882   0.438 -0.1457 -0.1683  0.8630
   72SOL    HW1  215   2.578   1.946   0.418  0.2652 -1.8587 -0.7359
   72SOL    HW2  216   2.631   1.787   0.419  1.7280  0.3125  0.4192
   73SOL     OW  217   1.057   0.503   0.432 -0.1318 -0.8863 -0.0051
   73SOL    HW1  218   1.035   0.539   0.335 -1.8124  1.9470  0.3321
   73SOL    HW2  219   1.113   0.572   0.488 -0.3359  1.2733  2.8964
   74SOL     OW  220   2.592   2.332   2.019 -0.2907  0.0647 -0.2637
   74SOL    HW1  221   2.690   2.354   2.044  2.5129 -2.7929 -0.1580
   74SOL    HW2  222   2.539   2.416   2.003 -0.2685  0.3013  0.7533
   75SOL     OW  223   1.665   1.564   1.813 -0.3057  0.0098  0.0165
   75SOL    HW1  224   1.581   1.593   1.863 -0.8122 -0.1563 -1.0658
   75SOL    HW2  225   1.670   1.462   1.808 -4.2235  1.2620  1.0067
   76SOL     OW  226   1.128   1.822   1.059 -0.5399 -0.0435  0.3185
   76SOL    HW1  227   1.219   1.790   1.099 -0.7644  2.3660 -0.6837
   76SOL    HW2  228   1.051   1.762   1.091  1.8678 -0.2376 -2.3102
   77SOL     OW  229   2.754   1.437   1.958  0.4167  0.1426 -0.0507
   77SOL    HW1  230   2.708   1.485   2.042 -2.3583  1.7880  1.9061
   77SOL    HW2  231   2.789   1.351   1.992 -0.2360  0.0575  1.4655
   78SOL     OW  232   1.877   0.665   0.299 -0.2630 -0.3303  0.2086
   78SOL    HW1  233   1.892   0.564   0.310  0.7674  3.1466  1.9832
   78SOL    HW2  234   1.841   0.700   0.387  1.6915  1.5347 -3.9269
   79SOL     OW  235   1.603   1.280   2.015  0.0839 -0.0281  0.2306
   79SOL    HW1  236   1.690   1.331   2.039  0.2664 -0.6411 -1.2582
   79SOL    HW2  237   1.597   1.184   2.057 -3.0338 -1.9521  3.3825
   80SOL     OW  238   0.990   0.531   1.572 -0.1586 -0.3147  0.1420
   80SOL    HW1  239   1.036   0.464   1.520 -1.1702  0.3811 -0.2707
   80SOL    HW2  240   1.031   0.540   1.664 -0.2886 -1.3389 -0.2377
   81SOL     OW  241   0.854   2.467   0.775  0.1221  0.0012 -0.0672
   81SOL    HW1  242   0.893   2.556   0.753  0.4570 -0.5681  1.4613
   81SOL    HW2  243   0.927   2.395   0.784 -0.7076 -2.5592  0.6042
   82SOL     OW  244   1.298   0.316   1.813  0.8190  0.4557  0.2065
   82SOL    HW1  245   1.383   0.360   1.779 -0.5613 -0.3978 -0.7516
   82SOL    HW2  246   1.314   0.272   1.903  1.5964 -1.9423 -4.2087
   83SOL     OW  247   0.234   2.284   0.610 -0.0910  0.4491 -0.4060
   83SOL    HW1  248   0.315   2.344   0.616 -0.8659 -1.2147  0.3995
   83SOL    HW2  249   0.191   2.263   0.697  2.4746 -0.2487 -1.3131
   84SOL     OW  250   2.631   1.374   0.047  0.4032 -0.0659  0.4712
   84SOL    HW1  251   2.719   1.329   0.050  0.7681  1.6839 -1.4540
   84SOL    HW2  252   2.627   1.428   3.031 -5.3650  1.4513 -0.0921
   85SOL     OW  253   2.320   1.981   1.479 -0.0465 -0.3974  0.0723
   85SOL    HW1  254   2.343   2.061   1.421 -1.8184 -3.0273  0.7251
   85SOL    HW2  255   2.406   1.957   1.525 -0.1885  1.8225  0.7365
   86SOL     OW  256   1.542   2.560   1.120  0.4162  0.7057  0.1499
   86SOL    HW1  257   1.577   2.481   1.062 -1.8686  2.1411  1.6305
   86SOL    HW2  258   1.572   2.654   1.091  0.0746  1.1144 -0.1556
   87SOL     OW  259   2.496   1.631   0.450  0.0706  0.5276  0.6565
   87SOL    HW1  260   2.413   1.627   0.511  1.7286 -0.4156 -1.6394
   87SOL    HW2  261   2.468   1.604   0.360 -2.2047  0.0136  3.2393
   88SOL     OW  262   0.833   0.185   0.845  0.1150 -0.2784 -0.0785
   88SOL    HW1  263   0.916   0.134   0.819 -1.1115 -1.6548 -1.7248
   88SOL    HW2  264   0.841   0.288   0.830  1.7835  2.8061 -1.3626
   89SOL     OW  265   0.686   0.140   1.806 -0.3378 -0.4478 -0.2657
   89SOL    HW1  266   0.753   0.210   1.829 -0.4716 -1.6633 -1.0602
   89SOL    HW2  267   0.612   0.137   1.874 -1.6052 -0.2322  0.6532
   90SOL     OW  268   3.020   1.952   0.827  0.1165 -0.5603 -0.0537
   90SOL    HW1  269   2.942   1.977   0.768  0.6056 -1.0581 -0.4911
   90SOL    HW2  270   3.056   1.863   0.796 -0.3427  0.4916 -1.9050
   91SOL     OW  271   0.919   1.672   1.150  0.2123 -0.2139  0.1991
   91SOL    HW1  272   0.816   1.680   1.154  1.4988 -1.8016  2.7268
   91SOL    HW2  273   0.950   1.581   1.123 -2.7056  1.5309  2.8244
   92SOL     OW  274   2.443   2.906   1.549 -0.6015  0.1009 -0.4682
   92SOL    HW1  275   2.493   2.988   1.577  0.5705 -0.6125  2.2335
   92SOL    HW2  276   2.496   2.856   1.478  2.5491  0.2574 -1.8557
   93SOL     OW  277   0.348   1.038   2.712  0.2173  0.2883 -0.3251
   93SOL    HW1  278   0.437   1.063   2.754  1.4388  0.5730  0.7541
   93SOL    HW2  279   0.300   1.121   2.678 -0.9275 -1.1002  1.8045
   94SOL     OW  280   2.654   0.085   1.964 -0.1124 -0.6994 -0.4161
   94SOL    HW1  281   2.595   0.122   2.041 -2.3860  1.5935  2.2808
   94SOL    HW2  282   2.743   0.137   1.963  0.2539 -0.8371  2.7987
   95SOL     OW  283   1.628   0.732   2.121 -0.4434 -0.7557  0.6559
   95SOL    HW1  284   1.556   0.666   2.116  1.4912 -1.2544  1.5068
   95SOL    HW2  285   1.676   0.730   2.033 -3.0344  2.1223 -1.0266
   96SOL     OW  286   2.945   0.554   1.695 -0.5115 -0.6388 -0.6540
   96SOL    HW1  287   2.872   0.488   1.726  0.1284 -0.9056 -1.3547
   96SOL    HW2  288   2.921   0.654   1.693  2.5130 -1.3306 -3.0551
   97SOL     OW  289   1.998   2.757   1.467 -0.3028  1.0184  0.2649
   97SOL    HW1  290   2.066   2.812   1.523  2.1953 -2.2197  0.5488
   97SOL    HW2  291   2.036   2.731   1.372  0.7578  1.5383 -4.0391
   98SOL     OW  292   2.090   2.518   1.779  0.7705 -0.4889  0.9930
   98SOL    HW1  293   2.019   2.449   1.764  1.7740 -0.2680 -0.6646
   98SOL    HW2  294   2.069   2.577   1.858  0.6466 -4.1550 -1.1582
   99SOL     OW  295   2.774   0.540   1.194  0.1236  0.1111 -0.4241
   99SOL    HW1  296   2.785   0.444   1.234 -0.0093 -0.3538 -0.0201
   99SOL    HW2  297   2.866   0.583   1.172  1.2564  0.5766 -1.7785
  100SOL     OW  298   2.429   1.709   1.768 -0.5429  0.0076  0.7692
  100SOL    HW1  299   2.350   1.758   1.803  0.3731 -0.3222 -0.8008
  100SOL    HW2  300   2.499   1.779   1.725  2.2586  1.9456 -2.3916
  101SOL     OW  301   2.133   0.106   0.162  0.3612 -0.7638  0.1671
  101SOL    HW1  302   2.061   0.089   0.090 -0.7585 -0.7454  0.2840
  101SOL    HW2  303   2.201   0.181   0.131  0.6404  0.6523  0.6380
  102SOL     OW  304   0.628   0.460   1.175  0.3611  0.4826  1.0070
  102SOL    HW1  305   0.689   0.383   1.195 -1.8560  0.1636 -0.8958
  102SOL    HW2  306   0.535   0.422   1.169  3.1841  1.0782 -1.6591
  103SOL     OW  307   2.846   0.038   2.470 -0.2329  0.2648  0.5472
  103SOL    HW1  308   2.872   3.010   2.487  2.1040 -1.4190 -1.9559
  103SOL    HW2  309   2.864   0.053   2.371  3.8829  1.4491 -1.4847
  104SOL     OW  310   0.419   2.386   1.318  0.0397 -0.8293  0.0067
  104SOL    HW1  311   0.444   2.290   1.283 -0.4488  0.9219  0.5493
  104SOL    HW2  312   0.483   2.418   1.390  1.7976  2.1435  2.7337
  105SOL     OW  313   0.985   1.649   1.961  0.7234  0.0952  0.0309
  105SOL    HW1  314   1.024   1.557   1.962 -1.2227  1.1185  2.7968
  105SOL    HW2  315   0.954   1.672   1.866 -0.6056  1.2256 -0.5976
  106SOL     OW  316   1.879   0.547   0.707 -0.3414  0.3012  0.1667
  106SOL    HW1  317   1.940   0.629   0.711 -1.3446  0.7825  0.1947
  106SOL    HW2  318   1.784   0.579   0.682  0.6217  1.3467  1.6411
  107SOL     OW  319   0.701   1.023   1.252 -0.3226 -0.1742  0.5420
  107SOL    HW1  320   0.662   0.941   1.296 -2.0395 -1.5614  0.2725
  107SOL    HW2  321   0.768   0.997   1.181 -1.1768  0.2692 -0.4064
  108SOL     OW  322   3.026   0.696   2.117  0.1859 -0.1305 -0.1968
  108SOL    HW1  323   0.009   0.674   2.028  2.0996  0.4123 -2.0292
  108SOL    HW2  324   2.941   0.642   2.118  0.8592  1.0610 -0.2444
  109SOL     OW  325   1.862   2.823   2.811  0.0540 -0.0569 -0.2828
  109SOL    HW1  326   1.900   2.882   2.885  0.8392 -1.0088  3.3651
  109SOL    HW2  327   1.772   2.783   2.843 -0.1042 -1.8246  1.0380
  110SOL     OW  328   0.186   1.883   2.912 -0.1412  0.4260 -0.3538
  110SOL    HW1  329   0.108   1.892   2.976  1.6470 -2.6207 -0.0028
  110SOL    HW2  330   0.276   1.864   2.964 -0.2005  1.6877 -1.7514
  111SOL     OW  331   2.759   0.560   2.164 -0.3312  0.3201 -0.0743
  111SOL    HW1  332   2.700   0.564   2.243 -1.6490 -0.3450 -0.3688
  111SOL    HW2  333   2.758   0.466   2.130  0.1791  2.0274 -2.2132
  112SOL     OW  334   2.655   2.600   1.154 -0.0508 -0.1993 -0.2361
  112SOL    HW1  335   2.624   2.510   1.187 -1.7734  3.8190  1.0915
  112SOL    HW2  336   2.618   2.609   1.057 -1.1011 -0.7320 -3.0530
  113SOL     OW  337   2.152   2.074   1.944  0.3784 -0.2878  0.5734
  113SOL    HW1  338   2.070   2.074   1.887  0.3869  2.1936 -0.7543
  113SOL    HW2  339   2.181   2.171   1.961  0.8783  0.3230  1.9701
  114SOL     OW  340   0.143   0.326   0.164  0.2857  0.1655  0.3838
  114SOL    HW1  341   0.085   0.297   0.242  0.1736  0.4820  1.2709
  114SOL    HW2  342   0.223   0.379   0.197  1.1558 -0.4182  3.0595
  115SOL     OW  343   2.717   1.653   3.006  0.1293 -0.3134 -0.3880
  115SOL    HW1  344   2.817   1.644   3.028 -1.3810 -2.8368 -0.5799
  115SOL    HW2  345   2.707   1.700   2.914 -1.2790 -1.7826 -0.2619
  116SOL     OW  346   3.015   1.357   1.764  0.2637 -0.3178  0.2936
  116SOL    HW1  347   0.043   1.366   1.786 -1.2299 -0.0710 -1.1824
  116SOL    HW2  348   2.992   1.418   1.684  0.2828 -1.3401 -0.2754
  117SOL     OW  349   2.179   0.045   1.291  0.1591  0.6287  0.1393
  117SOL    HW1  350   2.087   0.055   1.246 -1.2714  0.7110 -3.9534
  117SOL    HW2  351   2.184   0.093   1.380 -0.6858  3.1595 -0.8006
  118SOL     OW  352   2.859   2.401   2.073  0.0062 -0.0474 -0.3328
  118SOL    HW1  353   2.924   2.445   2.010 -1.1538 -0.0882 -0.4662
  118SOL    HW2  354   2.902   2.314   2.107  1.6443 -0.9747 -1.3255
  119SOL     OW  355   0.613   1.681   1.151 -0.0485 -0.1103  0.0677
  119SOL    HW1  356   0.594   1.740   1.068  2.7708 -1.3623  2.5673
  119SOL    HW2  357   0.533   1.674   1.213  1.5056 -0.7049 -0.6187
  120SOL     OW  358   0.141   1.773   1.465  0.2469  0.6793  0.0391
  120SOL    HW1  359   0.107   1.749   1.557 -3.0810 -0.8156 -0.2307
  120SOL    HW2  360   0.079   1.835   1.419  2.4027 -0.8925 -1.0589
  121SOL     OW  361   1.798   1.274   0.871 -0.4102 -0.1025 -0.0326
  121SOL    HW1  362   1.848   1.250   0.958  1.9343 -0.8777  2.1923
  121SOL    HW2  363   1.752   1.195   0.837  2.1648  2.6547  1.1652
  122SOL     OW  364   1.870   2.231   2.477 -0.2741 -0.1299  0.1319
  122SOL    HW1  365   1.924   2.191   2.549 -2.7414 -2.9660 -0.1825
  122SOL    HW2  366   1.859   2.331   2.481 -0.3632 -0.7206  0.5481
  123SOL     OW  367   2.887   3.037   0.211 -0.1728  0.6109 -0.3597
  123SOL    HW1  368   2.988   3.034   0.200 -0.5309 -3.2082 -0.5118
  123SOL    HW2  369   2.867   3.017   0.313 -0.1395 -2.7136  3.9914
  124SOL     OW  370   0.888   1.299   0.503 -0.0751  0.1380  0.1643
  124SOL    HW1  371   0.875   1.275   0.600 -0.0045  0.3020 -2.0239
  124SOL    HW2  372   0.944   1.228   0.452  0.6405  0.7209 -1.7524
  125SOL     OW  373   0.346   1.360   2.223 -0.2141 -0.4923 -0.1389
  125SOL    HW1  374   0.408   1.436   2.205  2.8918  0.3896 -0.4554
  125SOL    HW2  375   0.252   1.390   2.258 -1.8411  2.7764  0.9653
  126SOL     OW  376   2.984   2.411   0.199  0.4723  0.2552  1.0843
  126SOL    HW1  377   3.008   2.358   0.281 -2.4059  1.3356  0.1896
  126SOL    HW2  378   2.969   2.506   0.227  2.6681 -0.7464 -1.5300
  127SOL     OW  379   2.884   1.888   0.312  0.0096 -0.4037  0.0102
  127SOL    HW1  380   2.887   1.934   0.220 -0.0495 -0.7941 -0.7422
  127SOL    HW2  381   2.796   1.904   0.366 -3.3497  2.2991  0.4521
  128SOL     OW  382   1.287   0.928   0.755  0.0101  0.2518 -1.0682
  128SOL    HW1  383   1.222   1.008   0.743 -0.1581 -1.3827  0.4145
  128SOL    HW2  384   1.331   0.930   0.847  1.6131  0.1777 -0.8989
  129SOL     OW  385   2.576   1.910   1.142 -0.2504  0.3479  0.0948
  129SOL    HW1  386   2.646   1.976   1.169  0.6982  0.1271 -0.2477
  129SOL    HW2  387   2.571   1.834   1.204  3.6056  0.9919 -1.7082
  130SOL     OW  388   2.268   0.992   0.852  0.3244 -0.6014  0.0826
  130SOL    HW1  389   2.344   0.989   0.915 -1.1483  1.5992 -1.0112
  130SOL    HW2  390   2.257   1.090   0.817  0.4632 -0.3544  0.3910
  131SOL     OW  391   2.865   1.170   2.581  0.3022 -0.0660 -0.2546
  131SOL    HW1  392   2.792   1.125   2.530 -1.0320  0.6401  2.0483
  131SOL    HW2  393   2.958   1.126   2.570  4.3204 -0.6302 -1.9599
  132SOL     OW  394   1.379   1.388   2.137  0.0843 -0.4814 -0.0597
  132SOL    HW1  395   1.306   1.317   2.157  0.7444  0.3194  0.2242
  132SOL    HW2  396   1.450   1.337   2.089 -2.2935  2.0473 -0.4499
  133SOL     OW  397   0.147   1.300   0.278  0.1397  0.1811  0.8508
  133SOL    HW1  398   0.149   1.399   0.250 -0.1505  1.1957 -1.6859
  133SOL    HW2  399   0.182   1.236   0.206  0.5355 -0.5415  0.2405
  134SOL     OW  400   2.730   1.024   0.251 -0.2182  0.5216 -0.6165
  134SOL    HW1  401   2.779   0.964   0.186 -0.2358 -2.6265  1.9605
  134SOL    HW2  402   2.644   1.053   0.218  3.5702  1.0034  1.5574
  135SOL     OW  403   1.488   0.782   0.136 -0.3464  0.0859 -0.2115
  135SOL    HW1  404   1.468   0.851   0.056 -0.3774  1.3300 -2.8566
  135SOL    HW2  405   1.432   0.802   0.218  0.6898 -0.4599 -1.2544
  136SOL     OW  406   1.925   1.668   1.778 -0.0448  0.1775  0.2000
  136SOL    HW1  407   1.828   1.641   1.790 -0.7461  0.0374 -0.0291
  136SOL    HW2  408   1.938   1.738   1.706 -1.7857  1.2354  0.9534
  137SOL     OW  409   2.331   2.469   0.657 -0.0857  0.6174  0.2586
  137SOL    HW1  410   2.415   2.427   0.614  1.7179 -1.4939  0.7681
  137SOL    HW2  411   2.245   2.454   0.601 -0.0321  0.5472 -2.8475
  138SOL     OW  412   2.420   0.353   1.308 -0.3791 -0.3371 -0.4547
  138SOL    HW1  413   2.422   0.261   1.266 -0.9850  0.9529 -0.8674
  138SOL    HW2  414   2.462   0.423   1.245 -0.9664  2.0898 -0.6423
  139SOL     OW  415   2.515   0.108   2.784 -0.7771 -0.2494  0.0243
  139SOL    HW1  416   2.556   0.189   2.834  0.7334  1.5916  0.4851
  139SOL    HW2  417   2.540   0.027   2.841  0.6897  1.2387  1.5277
  140SOL     OW  418   1.409   1.782   2.255  0.3510  0.1801 -0.4431
  140SOL    HW1  419   1.479   1.711   2.224 -2.0684 -1.9854 -0.9916
  140SOL    HW2  420   1.341   1.742   2.317 -2.0203 -1.7689 -1.6397
  141SOL     OW  421   0.992   0.815   2.345 -0.6549  0.0718 -0.0460
  141SOL    HW1  422   1.082   0.827   2.395 -1.2151  0.0113  1.6280
  141SOL    HW2  423   0.935   0.740   2.386 -1.4347 -3.9091 -0.0288
  142SOL     OW  424   2.458   2.613   2.734 -0.1290 -0.1033  0.2827
  142SOL    HW1  425   2.365   2.657   2.725 -0.5034  3.0303  0.9956
  142SOL    HW2  426   2.467   2.538   2.663 -1.5650 -2.2118 -2.0683
  143SOL     OW  427   1.166   1.962   0.380  0.1669 -0.1510  0.1427
  143SOL    HW1  428   1.222   2.024   0.322  1.5922  2.2460 -0.3703
  143SOL    HW2  429   1.102   2.012   0.445  0.7865 -0.8819  2.9825
  144SOL     OW  430   1.271   2.683   0.003  0.3147  0.1471 -0.4335
  144SOL    HW1  431   1.285   2.591   3.036 -1.0820  1.0570  0.3239
  144SOL    HW2  432   1.198   2.727   3.017  0.7085 -0.1278  0.9750
  145SOL     OW  433   1.405   2.332   2.434 -0.0785 -0.2425 -0.1855
  145SOL    HW1  434   1.330   2.288   2.386  1.7449  0.6041 -0.3833
  145SOL    HW2  435   1.470   2.263   2.476  0.3123 -0.9517 -0.0186
  146SOL     OW  436   2.246   2.927   2.890  0.6627 -0.5569  0.6996
  146SOL    HW1  437   2.322   2.973   2.841  1.6177 -0.1509 -0.2386
  146SOL    HW2  438   2.186   2.997   2.935  1.8054 -2.4268  0.4660
  147SOL     OW  439   2.807   1.052   1.001 -0.0799 -0.4456 -0.0998
  147SOL    HW1  440   2.722   1.112   0.997 -1.9732  0.2392  0.4337
  147SOL    HW2  441   2.881   1.111   1.038 -0.6096  0.9265 -2.6592
  148SOL     OW  442   2.049   2.764   0.146 -0.0364 -0.3470  0.1922
  148SOL    HW1  443   2.037   2.771   0.245 -1.3663  0.1558  0.1532
  148SOL    HW2  444   2.144   2.789   0.127 -0.1427 -0.5372  0.1466
  149SOL     OW  445   0.631   1.766   2.951 -0.6888  0.1104  0.4636
  149SOL    HW1  446   0.727   1.740   2.951  0.6717 -2.2140 -0.5005
  149SOL    HW2  447   0.606   1.807   2.869  0.5376 -3.7209  2.8158
  150SOL     OW  448   0.487   2.424   0.597 -0.5016  0.0266  0.4368
  150SOL    HW1  449   0.559   2.455   0.535 -3.2297 -1.6378 -0.4088
  150SOL    HW2  450   0.504   2.462   0.688  2.2815  0.6836  2.1838
  151SOL     OW  451   0.219   1.111   0.112 -0.3245  0.5387 -0.2575
  151SOL    HW1  452   0.258   1.035   0.169 -1.3717  0.7677  0.1374
  151SOL    HW2  453   0.216   1.071   0.016  2.0357  0.1989 -2.8632
  152SOL     OW  454   2.624   2.155   0.751  0.2637  0.4588  0.1604
  152SOL    HW1  455   2.687   2.209   0.808  0.3869 -3.4325 -0.0208
  152SOL    HW2  456   2.609   2.207   0.669  0.8898 -1.2288  3.9420
  153SOL     OW  457   1.674   2.400   0.953  0.0217  0.4549  0.0342
  153SOL    HW1  458   1.671   2.304   0.995  0.3631 -4.1476  0.2599
  153SOL    HW2  459   1.617   2.410   0.871 -2.0078  1.6248  1.9238
  154SOL     OW  460   0.702   2.881   1.081 -0.1490  0.0446  0.0080
  154SOL    HW1  461   0.677   2.980   1.055 -0.1502  4.2394 -0.8520
  154SOL    HW2  462   0.748   2.870   1.171 -4.4352 -0.5587  2.7323
  155SOL     OW  463   2.803   1.979   0.642  0.1842  0.2755  0.1353
  155SOL    HW1  464   2.725   2.034   0.679 -0.5313  1.4888 -1.1856
  155SOL    HW2  465   2.784   1.943   0.552  2.6010 -1.4541  2.0970
  156SOL     OW  466   2.486   2.296   2.871  0.5412  0.0941 -0.1020
  156SOL    HW1  467   2.549   2.357   2.929  0.9532  0.7520  0.2810
  156SOL    HW2  468   2.512   2.196   2.891 -0.4615  1.6927 -0.0787
  157SOL     OW  469   0.506   2.369   1.598  0.1694  0.2603 -0.0581
  157SOL    HW1  470   0.440   2.444   1.622 -0.4999 -0.1476  0.4311
  157SOL    HW2  471   0.451   2.283   1.605  1.2920  2.5823  1.7357
  158SOL     OW  472   1.408   0.545   0.827  0.0620 -0.5471  0.1378
  158SOL    HW1  473   1.372   0.472   0.882 -0.0735  0.0372  0.1498
  158SOL    HW2  474   1.484   0.593   0.877  1.6948 -0.2788  0.8616
  159SOL     OW  475   1.754   0.768   0.098  0.7791  0.2089  0.3792
  159SOL    HW1  476   1.814   0.723   0.164 -1.1780  0.8374 -0.6622
  159SOL    HW2  477   1.655   0.760   0.122 -0.1808  1.0938 -0.1476
  160SOL     OW  478   0.925   1.573   0.404  0.1975  0.2105 -0.2904
  160SOL    HW1  479   0.932   1.473   0.423  2.0905 -2.0716  0.1000
  160SOL    HW2  480   0.986   1.611   0.336 -0.3206 -0.9038 -0.4940
  161SOL     OW  481   2.782   2.439   2.541  0.4353 -0.4600 -0.4383
  161SOL    HW1  482   2.684   2.440   2.574 -0.8489 -0.1513  0.1513
  161SOL    HW2  483   2.823   2.350   2.567 -2.0547 -2.5657  1.3942
  162SOL     OW  484   0.187   2.139   1.383 -0.5314  0.4182  0.3478
  162SOL    HW1  485   0.115   2.178   1.433  2.6875 -2.4265 -1.5176
  162SOL    HW2  486   0.179   2.151   1.284  2.4928 -0.6287 -0.6672
  163SOL     OW  487   0.263   0.393   2.961  0.0243 -0.4502  0.3158
  163SOL    HW1  488   0.237   0.328   2.885 -1.3017 -0.4231 -0.3766
  163SOL    HW2  489   0.294   0.483   2.924 -0.7613 -1.5950  2.6894
  164SOL     OW  490   0.198   2.828   2.412 -0.4394 -0.0049  0.1920
  164SOL    HW1  491   0.294   2.855   2.431  1.7206  1.4001  0.3616
  164SOL    HW2  492   0.176   2.749   2.469  1.4317 -2.0143 -1.2252
  165SOL     OW  493   2.489   0.831   1.555 -0.1624 -0.0714  0.6048
  165SOL    HW1  494   2.517   0.778   1.471 -0.4594 -2.6948 -3.0098
  165SOL    HW2  495   2.570   0.848   1.620  0.5818 -1.7921 -0.5099
  166SOL     OW  496   1.965   1.973   1.327  0.1324  0.1425  0.1150
  166SOL    HW1  497   2.033   1.989   1.252  0.6680 -0.3324  0.3378
  166SOL    HW2  498   1.907   1.888   1.317  0.8878 -1.7435  2.4102
  167SOL     OW  499   0.760   0.654   2.191  0.3806  0.0816  0.0900
  167SOL    HW1  500   0.684   0.591   2.160  0.7675  1.2339  3.2391
  167SOL    HW2  501   0.739   0.696   2.279 -1.0375 -0.7701 -0.3278
  168SOL     OW  502   2.162   0.247   2.080 -0.2663  0.1487  0.0918
  168SOL    HW1  503   2.181   0.233   2.178  0.3020 -0.2874  2.7829
  168SOL    HW2  504   2.190   0.166   2.025 -0.5672  1.4705  2.2604
  169SOL     OW  505   0.374   0.893   0.227 -0.0875  0.0004 -0.3169
  169SOL    HW1  506   0.403   0.843   0.311  2.0212  2.0171  1.0888
  169SOL    HW2  507   0.434   0.866   0.150 -1.8268 -2.2768  2.4856
  170SOL     OW  508   0.832   1.503   1.557 -0.0672 -0.6617  0.4607
  170SOL    HW1  509   0.859   1.567   1.633 -1.0760  2.2016 -0.0919
  170SOL    HW2  510   0.916   1.480   1.504  2.2651 -0.1725 -1.1013
  171SOL     OW  511   1.077   2.343   1.720  0.7816  0.4501 -0.0562
  171SOL    HW1  512   0.993   2.320   1.667 -1.5224 -0.3181 -2.1075
  171SOL    HW2  513   1.161   2.344   1.661 -0.7955  1.0826  1.2301
  172SOL     OW  514   1.376   2.928   2.004 -0.0484 -0.8894  0.1848
  172SOL    HW1  515   1.446   2.929   2.076 -0.2562 -1.3089 -0.2669
  172SOL    HW2  516   1.284   2.927   2.040 -1.9364  0.4392 -0.2005
  173SOL     OW  517   1.418   2.326   0.801 -0.5110 -0.1025  0.3803
  173SOL    HW1  518   1.423   2.264   0.718 -0.1402 -1.4352 -2.4556
  173SOL    HW2  519   1.338   2.310   0.856  1.8398 -2.8642 -0.9242
  174SOL     OW  520   2.268   3.010   0.339  0.2549  0.2998  0.3616
  174SOL    HW1  521   2.322   0.000   0.400 -1.3605 -2.4268  1.2001
  174SOL    HW2  522   2.217   3.063   0.267 -0.2365 -0.4391 -0.6704
  175SOL     OW  523   1.197   1.441   0.706  0.0584  0.1629 -0.0411
  175SOL    HW1  524   1.221   1.482   0.617 -1.9714  0.2614 -0.8711
  175SOL    HW2  525   1.111   1.491   0.743 -3.0146  2.3222 -2.0116
  176SOL     OW  526   0.644   1.513   0.532  0.5519 -0.0015 -0.2110
  176SOL    HW1  527   0.727   1.519   0.474  1.3424 -0.2713  3.2294
  176SOL    HW2  528   0.610   1.418   0.531  0.0133  0.5469  2.2140
  177SOL     OW  529   1.262   1.161   1.047  0.4082  0.1932 -0.1935
  177SOL    HW1  530   1.318   1.227   0.993 -0.5584 -0.2684  1.6115
  177SOL    HW2  531   1.290   1.065   1.032 -1.0833  1.8314 -0.1204
  178SOL     OW  532   2.350   1.796   0.174 -0.3581 -0.0998 -0.1107
  178SOL    HW1  533   2.318   1.823   0.263  2.0200 -1.1423 -0.8312
  178SOL    HW2  534   2.365   1.697   0.175 -0.1529  1.1128 -2.1725
  179SOL     OW  535   1.040   2.758   2.936 -0.3295  0.1112  0.4558
  179SOL    HW1  536   1.023   2.691   2.859  1.4665  0.7959 -0.9413
  179SOL    HW2  537   1.064   2.847   2.894 -0.0101  2.4850  0.9756
  180SOL     OW  538   2.087   1.256   1.932  0.1356 -0.3029 -0.0607
  180SOL    HW1  539   2.181   1.222   1.953 -0.7729  0.2577 -1.1130
  180SOL    HW2  540   2.079   1.357   1.928 -0.1245  0.6756 -1.6195
  181SOL     OW  541   1.152   0.581   2.458 -0.5296 -0.0377 -0.0957
  181SOL    HW1  542   1.236   0.564   2.403 -0.6064 -1.6714 -0.6483
  181SOL    HW2  543   1.168   0.619   2.552 -0.2242 -0.5837 -0.6475
  182SOL     OW  544   2.965   1.279   2.329  0.0827  0.3220  0.1942
  182SOL    HW1  545   2.934   1.237   2.415  1.5565 -0.5578 -2.2213
  182SOL    HW2  546   3.001   1.207   2.262  2.7882 -3.0252 -2.1213
  183SOL     OW  547   1.349   0.527   2.297 -0.3265 -0.1884  0.1894
  183SOL    HW1  548   1.331   0.441   2.353 -2.0958 -0.6076 -1.6500
  183SOL    HW2  549   1.417   0.508   2.227 -0.4231 -0.3702  1.5009
  184SOL     OW  550   0.571   0.836   1.442  0.3689 -0.0333  0.1389
  184SOL    HW1  551   0.631   0.777   1.499 -1.1618 -0.1846  0.3650
  184SOL    HW2  552   0.551   0.798   1.348 -0.1918 -0.8209  0.2582
  185SOL     OW  553   2.235   1.624   0.554  0.2476  0.6948  0.2442
  185SOL    HW1  554   2.189   1.703   0.508 -2.1666 -2.7303 -1.8191
  185SOL    HW2  555   2.200   1.530   0.530  2.5247 -0.5699 -0.6049
  186SOL     OW  556   0.212   1.988   0.321 -0.0670  0.3920 -0.5216
  186SOL    HW1  557   0.265   2.077   0.319  0.2111 -2.2066 -0.6300
  186SOL    HW2  558   0.272   1.907   0.305  0.2862 -3.3065  0.0149
  187SOL     OW  559   2.069   2.346   0.042  0.3610 -1.0041  0.1108
  187SOL    HW1  560   2.007   2.425   0.069 -1.6950  0.7565 -2.1547
  187SOL    HW2  561   2.126   2.320   0.116  1.8951 -0.0801 -0.8985
  188SOL     OW  562   0.880   1.978   0.981 -0.6273 -0.4456 -0.6099
  188SOL    HW1  563   0.837   2.010   1.070 -3.1120  0.9243 -2.3050
  188SOL    HW2  564   0.957   1.915   0.996  0.5814  0.1644  2.3348
  189SOL     OW  565   2.213   1.504   2.562  0.0058 -0.5217 -0.2631
  189SOL    HW1  566   2.132   1.563   2.539  1.6818  0.6324  2.4639
  189SOL    HW2  567   2.293   1.567   2.573 -1.9151  1.2850  0.3045
  190SOL     OW  568   0.831   2.544   2.133  0.6213 -0.2582 -0.3490
  190SOL    HW1  569   0.783   2.601   2.060  1.4945  0.6921 -3.2513
  190SOL    HW2  570   0.773   2.537   2.214  0.8846  1.3858 -3.4618
  191SOL     OW  571   2.658   0.702   1.387  0.1131  0.6312 -0.7619
  191SOL    HW1  572   2.718   0.779   1.358  2.7260  0.1207  0.6895
  191SOL    HW2  573   2.677   0.622   1.330 -0.7065  1.6345 -1.5936
  192SOL     OW  574   2.523   0.491   1.537  0.2371  0.4531  0.3382
  192SOL    HW1  575   2.473   0.454   1.453 -1.5246 -1.6487 -1.0712
  192SOL    HW2  576   2.567   0.580   1.507  0.0550 -1.1250  0.3377
  193SOL     OW  577   0.428   0.261   0.449  0.1739 -0.1369 -0.1817
  193SOL    HW1  578   0.357   0.286   0.515 -2.3145 -0.1545  1.9920
  193SOL    HW2  579   0.517   0.261   0.497 -1.0353 -3.5115 -0.5225
  194SOL     OW  580   1.121   2.210   1.375  0.1993 -0.1286 -0.6916
  194SOL    HW1  581   1.165   2.140   1.317 -0.8573 -0.5393  2.9529
  194SOL    HW2  582   1.192   2.263   1.420  0.7786  0.0473 -2.6057
  195SOL     OW  583   2.363   1.048   0.402 -0.2561 -0.3466 -0.0140
  195SOL    HW1  584   2.422   0.968   0.437 -1.1131 -1.5947  0.4340
  195SOL    HW2  585   2.421   1.092   0.331 -1.2494  1.3366  1.8542
  196SOL     OW  586   0.719   2.316   1.443  0.1035 -0.0642  0.8025
  196SOL    HW1  587   0.716   2.344   1.346 -2.3205 -0.2907  3.9318
  196SOL    HW2  588   0.629   2.341   1.490 -1.5616  0.6067  2.2471
  197SOL     OW  589   0.427   0.776   2.395 -0.2137  0.6577  0.5364
  197SOL    HW1  590   0.370   0.763   2.482 -2.8942 -1.3129  2.3207
  197SOL    HW2  591   0.378   0.734   2.315 -1.1730  0.5918 -1.9096
  198SOL     OW  592   1.706   0.813   0.481 -0.1289  0.0914 -0.0753
  198SOL    HW1  593   1.612   0.811   0.522 -1.2888  4.0818  1.4318
  198SOL    HW2  594   1.730   0.909   0.459  1.0887 -1.2939  1.7956
  199SOL     OW  595   2.699   0.404   1.733 -0.2705  0.3899  0.4922
  199SOL    HW1  596   2.657   0.403   1.826 -0.2302  0.1202  0.0106
  199SOL    HW2  597   2.627   0.441   1.668 -1.7602 -2.1404 -4.1937
  200SOL     OW  598   2.133   0.160   2.953  0.3793 -0.2493  0.1111
  200SOL    HW1  599   2.186   0.164   2.867 -0.7463  1.8507  0.5103
  200SOL    HW2  600   2.097   0.257   2.968 -0.5606 -0.3735 -2.6584
  201SOL     OW  601   2.469   0.076   1.334 -1.2428  0.0108 -0.2167
  201SOL    HW1  602   2.502   0.090   1.431 -0.7868  0.8565  0.3682
  201SOL    HW2  603   2.370   0.054   1.325  0.5553  1.2442 -2.3435
  202SOL     OW  604   2.971   2.690   0.267  0.2125 -0.4212  0.1173
  202SOL    HW1  605   3.025   2.720   0.349  2.2805  0.0785  0.7083
  202SOL    HW2  606   2.883   2.741   0.270  0.8428 -0.2153  2.2570
  203SOL     OW  607   1.349   1.818   2.990 -0.4673  0.2795 -0.2356
  203SOL    HW1  608   1.344   1.794   0.018  1.0508 -0.4123 -0.3135
  203SOL    HW2  609   1.435   1.782   2.951 -0.8051 -1.7667  2.1214
  204SOL     OW  610   0.425   2.029   2.326 -0.1383  0.4670 -0.5154
  204SOL    HW1  611   0.501   1.969   2.291 -0.5124 -1.6794  0.3593
  204SOL    HW2  612   0.343   1.971   2.342 -0.3634  1.5831  1.6735
  205SOL     OW  613   1.108   0.753   1.031  0.0472  0.0157 -0.2152
  205SOL    HW1  614   1.061   0.709   1.110  0.1436  1.0190 -1.9171
  205SOL    HW2  615   1.211   0.747   1.049  0.1908 -1.2891  0.1978
  206SOL     OW  616   0.296   0.778   2.636  0.0688 -0.3428  0.4130
  206SOL    HW1  617   0.299   0.874   2.662 -2.3523 -0.9386  0.2534
  206SOL    HW2  618   0.197   0.744   2.623 -3.8596 -1.2570 -1.2223
  207SOL     OW  619   1.469   2.293   1.685  0.1504  0.0080 -0.0945
  207SOL    HW1  620   1.546   2.346   1.722 -2.0685 -0.7748 -2.4308
  207SOL    HW2  621   1.410   2.253   1.756 -1.6672  3.0143 -2.3982
  208SOL     OW  622   0.331   2.967   0.920  0.3292 -0.0539 -0.0493
  208SOL    HW1  623   0.362   2.891   0.859 -0.4236 -1.8658 -1.9084
  208SOL    HW2  624   0.322   3.050   0.862 -1.7653 -1.1915  0.1907
  209SOL     OW  625   1.646   1.027   0.773 -0.1647 -0.7917 -0.1648
  209SOL    HW1  626   1.668   0.946   0.831 -0.0281 -0.4346  0.2791
  209SOL    HW2  627   1.668   1.014   0.678  1.7512  1.1221 -0.6601
  210SOL     OW  628   2.480   0.549   0.812  0.4735  0.7336 -0.4463
  210SOL    HW1  629   2.386   0.533   0.785  1.1253 -2.7816 -1.2744
  210SOL    HW2  630   2.547   0.506   0.740  0.0555  0.0126 -0.2264
  211SOL     OW  631   1.260   0.155   0.254  0.5225  0.1088  0.2173
  211SOL    HW1  632   1.168   0.111   0.232 -0.4443 -0.7142 -0.0792
  211SOL    HW2  633   1.336   0.104   0.209  4.5020  0.6013 -0.8806
  212SOL     OW  634   1.652   2.139   0.620 -0.5705 -0.3229 -0.3948
  212SOL    HW1  635   1.718   2.218   0.634 -2.8252  2.9703 -1.1905
  212SOL    HW2  636   1.591   2.150   0.540  0.3111 -0.5698 -0.8766
  213SOL     OW  637   2.123   0.410   2.491 -0.5992  0.9682  0.1162
  213SOL    HW1  638   2.196   0.465   2.544  0.5757  2.7906 -0.2432
  213SOL    HW2  639   2.040   0.390   2.548 -0.2858  0.1712  1.3931
  214SOL     OW  640   1.215   1.758   2.067  0.0981 -0.0380  0.5571
  214SOL    HW1  641   1.261   1.742   2.159  1.4079 -0.7444  2.2259
  214SOL    HW2  642   1.127   1.710   2.073  0.0687  2.3029 -0.6655
  215SOL     OW  643   0.179   1.288   1.008 -0.6321 -0.2831  1.0342
  215SOL    HW1  644   0.094   1.234   1.022  0.5424 -2.2520 -0.3015
  215SOL    HW2  645   0.236   1.291   1.094  1.7054 -1.2972 -0.0575
  216SOL     OW  646   0.274   2.260   2.705 -0.7160  0.2831 -0.2404
  216SOL    HW1  647   0.204   2.319   2.674  3.5938 -2.6740 -0.0561
  216SOL    HW2  648   0.345   2.307   2.766  2.4739  0.9706  1.7768
  217SOL     OW  649   2.569   1.190   1.450  0.0643  0.5409  0.6506
  217SOL    HW1  650   2.503   1.129   1.402 -1.3525 -0.3068  0.9185
  217SOL    HW2  651   2.527   1.232   1.531  1.0557 -1.5640  1.8058
  218SOL     OW  652   0.614   2.387   1.892  0.1215  0.0851 -0.4937
  218SOL    HW1  653   0.624   2.427   1.799 -0.6948 -0.6836  1.1943
  218SOL    HW2  654   0.706   2.371   1.938  0.4045 -1.3611 -0.5335
  219SOL     OW  655   1.995   1.372   0.253 -0.3002 -0.3768 -0.1311
  219SOL    HW1  656   2.057   1.393   0.173  1.2756 -0.7273 -2.1156
  219SOL    HW2  657   2.045   1.387   0.340 -1.4864 -0.5424  2.1087
  220SOL     OW  658   2.297   0.800   0.674 -0.2282  0.2168  0.5777
  220SOL    HW1  659   2.303   0.874   0.741 -1.1353 -2.9489 -1.7265
  220SOL    HW2  660   2.198   0.786   0.657  1.0047  1.9379 -3.2579
  221SOL     OW  661   2.693   0.646   0.118 -0.2547  0.4530  0.0497
  221SOL    HW1  662   2.746   0.728   0.081  0.2761  2.6449  0.2193
  221SOL    HW2  663   2.769   0.574   0.144  2.4296 -1.7579  1.1517
  222SOL     OW  664   1.456   1.203   0.679  0.2630  0.0230 -0.1067
  222SOL    HW1  665   1.501   1.121   0.720  0.7433  0.4104 -1.2096
  222SOL    HW2  666   1.428   1.268   0.751  0.2986  0.8921 -1.1143
  223SOL     OW  667   0.814   0.115   2.857  0.1440 -0.5043 -0.3492
  223SOL    HW1  668   0.766   0.207   2.870 -0.5026  1.6583 -0.9486
  223SOL    HW2  669   0.843   0.111   2.758 -1.3364 -0.0984  0.7402
  224SOL     OW  670   1.187   3.035   1.294  0.5792  0.3571 -0.0612
  224SOL    HW1  671   1.137   0.048   1.271 -0.3142 -1.9258 -1.9123
  224SOL    HW2  672   1.170   3.012   1.389  1.6824 -0.5240 -1.4308
  225SOL     OW  673   0.205   2.388   1.786  0.0204 -0.7370  0.5117
  225SOL    HW1  674   0.145   2.309   1.787 -1.8443  1.9648 -1.0863
  225SOL    HW2  675   0.250   2.399   1.876 -2.6981 -1.0189 -1.7403
  226SOL     OW  676   1.342   1.251   0.436  0.2077 -0.5717 -0.1941
  226SOL    HW1  677   1.375   1.220   0.527 -1.1061  0.6413  2.8954
  226SOL    HW2  678   1.322   1.350   0.435  0.6202  1.0153 -1.9490
  227SOL     OW  679   0.427   1.308   0.737  0.2358  0.2516 -0.2368
  227SOL    HW1  680   0.464   1.287   0.644  1.3183 -2.3044 -0.9699
  227SOL    HW2  681   0.331   1.279   0.750 -0.6175  0.0538  3.2225
  228SOL     OW  682   0.008   1.671   0.821 -0.4739 -0.2090 -0.5293
  228SOL    HW1  683   2.982   1.641   0.811  2.3639  0.5878 -1.1303
  228SOL    HW2  684   0.042   1.703   0.732 -1.1162 -1.8955  0.4562
  229SOL     OW  685   2.656   0.303   2.877  0.3419 -0.3490  0.1196
  229SOL    HW1  686   2.616   0.370   2.944 -0.0568 -1.7731 -0.8962
  229SOL    HW2  687   2.748   0.271   2.917  1.4034  0.1812 -0.2873
  230SOL     OW  688   2.148   1.012   1.171  0.0599  0.2171 -0.5932
  230SOL    HW1  689   2.191   1.100   1.142 -0.1661  0.5584 -1.3509
  230SOL    HW2  690   2.151   1.006   1.274 -3.3674 -2.1175 -0.1461
  231SOL     OW  691   1.485   1.212   2.971  0.0921 -0.0278 -0.2552
  231SOL    HW1  692   1.529   1.182   2.886 -1.7496  0.6137  1.8755
  231SOL    HW2  693   1.548   1.231   3.049 -1.1702 -0.6910 -0.7803
  232SOL     OW  694   2.347   2.188   0.772 -0.2222  0.5306 -0.1234
  232SOL    HW1  695   2.451   2.188   0.780 -0.9790 -0.9312  0.9635
  232SOL    HW2  696   2.302   2.233   0.850 -0.0797 -0.0756  0.7045
  233SOL     OW  697   0.590   2.520   0.853  0.2030  0.8517 -0.5551
  233SOL    HW1  698   0.574   2.586   0.932  2.1560 -1.3789  0.0797
  233SOL    HW2  699   0.684   2.528   0.823 -3.6282 -1.1155  3.0631
  234SOL     OW  700   0.621   0.564   2.566  0.2761 -0.4455 -0.0306
  234SOL    HW1  701   0.660   0.655   2.533 -1.4380  0.6816  0.6029
  234SOL    HW2  702   0.597   0.570   2.666  1.1084 -2.3405  1.9790
  235SOL     OW  703   2.913   0.926   2.247  0.1658 -0.6465 -0.5389
  235SOL    HW1  704   2.938   0.842   2.197  0.0942  0.1850 -2.2814
  235SOL    HW2  705   2.960   1.007   2.210  0.2584  0.6083 -1.4165
  236SOL     OW  706   1.435   2.758   1.525  0.3636 -0.3759 -0.1720
  236SOL    HW1  707   1.389   2.756   1.432 -0.5238 -1.4255  1.0356
  236SOL    HW2  708   1.498   2.677   1.536 -1.6225  1.2019 -3.5208
  237SOL     OW  709   0.911   1.280   2.602 -0.7890  0.0964 -0.8568
  237SOL    HW1  710   0.898   1.365   2.550 -2.1063  0.9535 -1.3629
  237SOL    HW2  711   0.858   1.203   2.562  1.1068  0.0664 -2.4586
  238SOL     OW  712   1.022   0.366   2.411  0.4976  0.1903 -0.3488
  238SOL    HW1  713   1.061   0.460   2.416 -0.5219 -0.3010  1.1247
  238SOL    HW2  714   0.921   0.368   2.391  0.2302 -1.4868 -0.6707
  239SOL     OW  715   0.168   2.204   2.213  0.1500  0.4497 -0.2307
  239SOL    HW1  716   0.176   2.104   2.190 -3.5469  1.0281 -0.7837
  239SOL    HW2  717   0.259   2.252   2.210 -0.0106  1.0842  0.5672
  240SOL     OW  718   2.466   2.745   0.523  0.1200  0.0412  0.0962
  240SOL    HW1  719   2.401   2.682   0.487  3.6318  0.0921 -0.6259
  240SOL    HW2  720   2.425   2.821   0.581 -0.7268  1.1151  1.2945
  241SOL     OW  721   2.772   1.274   0.320  0.2766 -0.2661 -0.4557
  241SOL    HW1  722   2.698   1.301   0.384 -0.6252 -0.6359  3.3590
  241SOL    HW2  723   2.766   1.175   0.302 -0.0922  1.2436 -1.9641
  242SOL     OW  724   1.688   2.427   1.772  0.5398 -0.3806  0.0010
  242SOL    HW1  725   1.751   2.344   1.760  0.8298 -1.3860  1.0023
  242SOL    HW2  726   1.726   2.491   1.841 -0.4722 -0.2670  2.1005
  243SOL     OW  727   0.349   2.369   2.017 -0.2581 -0.5354  0.8076
  243SOL    HW1  728   0.434   2.332   1.977  0.0004 -2.3274 -0.0936
  243SOL    HW2  729   0.368   2.451   2.071  1.2886 -0.8603 -0.7734
  244SOL     OW  730   2.618   0.526   2.411 -0.5235 -0.5074 -0.0677
  244SOL    HW1  731   2.599   0.484   2.500 -0.6219  0.5505 -2.3115
  244SOL    HW2  732   2.536   0.526   2.351  0.7854  0.5241 -0.5692
  245SOL     OW  733   1.302   0.037   1.045  0.2846 -0.1759  0.1088
  245SOL    HW1  734   1.269   0.000   1.140 -3.0672  0.8648  2.0661
  245SOL    HW2  735   1.252   0.122   1.026  0.5460 -2.1399  0.4618
  246SOL     OW  736   1.684   2.807   0.200 -0.4784 -0.6658  0.1080
  246SOL    HW1  737   1.772   2.826   0.149  3.4255 -0.2376 -0.3138
  246SOL    HW2  738   1.608   2.797   0.132  3.5815 -0.4100  1.2596
  247SOL     OW  739   1.333   0.666   1.910  0.0494 -0.9835 -0.2192
  247SOL    HW1  740   1.387   0.586   1.938 -2.1948  2.5193  0.1178
  247SOL    HW2  741   1.286   0.705   1.996 -1.7148 -0.9461  0.3748
  248SOL     OW  742   0.003   2.211   1.753 -0.4486 -0.1735  0.3534
  248SOL    HW1  743   0.059   2.121   1.748  0.5042  0.2879 -0.9905
  248SOL    HW2  744   2.988   2.198   1.804 -0.2919  0.6644 -0.0523
  249SOL     OW  745   2.861   0.438   0.160 -0.1968  0.1295  0.0101
  249SOL    HW1  746   2.925   0.424   0.239  0.8990 -1.0021  0.6860
  249SOL    HW2  747   2.839   0.347   0.121  2.0805  0.9819 -0.7889
  250SOL     OW  748   2.573   0.141   2.530  0.3896 -0.5004  0.0596
  250SOL    HW1  749   2.672   0.117   2.515 -0.8987 -0.6459 -1.7167
  250SOL    HW2  750   2.541   0.119   2.621 -2.6093 -0.3787 -3.3721
  251SOL     OW  751   1.428   0.514   0.167 -0.3837  0.0364 -0.1216
  251SOL    HW1  752   1.435   0.478   0.261  1.7460 -0.9884 -1.4166
  251SOL    HW2  753   1.449   0.614   0.173 -2.0631  0.0443 -0.2878
  252SOL     OW  754   1.392   2.192   1.925  0.2909 -0.1197 -0.0218
  252SOL    HW1  755   1.296   2.171   1.957 -0.5444 -1.7906  0.3052
  252SOL    HW2  756   1.444   2.237   2.002  2.9307  0.9327 -3.1376
  253SOL     OW  757   2.267   2.491   1.095 -1.1439  0.0309  0.0881
  253SOL    HW1  758   2.237   2.529   1.003  0.1845 -0.2509 -0.2918
  253SOL    HW2  759   2.287   2.570   1.156  1.9164 -0.8206  0.8125
  254SOL     OW  760   2.358   1.254   0.573  0.1896 -0.3324 -0.2029
  254SOL    HW1  761   2.375   1.168   0.522  0.6682  1.4342  2.1995
  254SOL    HW2  762   2.326   1.248   0.671  0.3009  0.0563  0.5042
  255SOL     OW  763   0.875   2.901   1.330  0.1695  0.0750  0.3096
  255SOL    HW1  764   0.965   2.945   1.354  0.5240 -1.3810  2.0766
  255SOL    HW2  765   0.881   2.798   1.347 -1.1648  0.8065 -2.2323
  256SOL     OW  766   1.930   2.219   1.449  0.5543 -0.4234 -0.1204
  256SOL    HW1  767   1.948   2.137   1.397  1.3095  1.5711  1.4314
  256SOL    HW2  768   1.832   2.230   1.474  0.1035  0.7992 -1.6325
  257SOL     OW  769   0.653   2.556   2.352 -0.0307  0.1044 -0.1874
  257SOL    HW1  770   0.632   2.539   2.450  1.8492 -0.0753  0.2963
  257SOL    HW2  771   0.661   2.659   2.338  1.8915  1.5162 -1.2360
  258SOL     OW  772   0.938   2.745   0.678 -0.2239 -0.2910 -0.6805
  258SOL    HW1  773   1.016   2.794   0.725 -0.4226  2.7993  0.7871
  258SOL    HW2  774   0.848   2.776   0.710 -0.5815 -0.2876  1.2150
  259SOL     OW  775   1.452   0.438   2.812 -0.4507  0.0119  0.5927
  259SOL    HW1  776   1.456   0.345   2.851 -1.0773  1.6343  0.9910
  259SOL    HW2  777   1.400   0.502   2.870  1.1031  1.2642  0.5168
  260SOL     OW  778   2.678   0.811   1.113 -0.1061  0.1733 -0.0816
  260SOL    HW1  779   2.748   0.884   1.109 -0.1332  0.4182 -0.4728
  260SOL    HW2  780   2.710   0.735   1.174  0.1203 -1.0814  1.0474
  261SOL     OW  781   0.747   0.377   2.415  0.0190 -0.1750  0.1916
  261SOL    HW1  782   0.699   0.457   2.464 -0.0148  3.5163  1.9262
  261SOL    HW2  783   0.684   0.294   2.410 -2.2556 -0.8452 -0.0703
  262SOL     OW  784   0.882   2.347   1.962  0.5296 -0.4864  0.3614
  262SOL    HW1  785   0.870   2.425   2.025 -0.8162 -1.8596  0.4371
  262SOL    HW2  786   0.946   2.365   1.884 -2.5654  0.4499  1.0129
  263SOL     OW  787   0.552   2.127   3.059 -0.2637 -0.5034  0.6738
  263SOL    HW1  788   0.628   2.168   0.041 -0.7121  2.0691 -2.0429
  263SOL    HW2  789   0.523   2.036   0.020  2.2893  1.8784  2.1557
  264SOL     OW  790   1.027   1.449   1.037  0.4959  0.2310  0.1009
  264SOL    HW1  791   1.035   1.497   0.947  1.0552 -0.7073 -2.3135
  264SOL    HW2  792   1.111   1.444   1.096  1.3807 -0.9755  1.9650
  265SOL     OW  793   1.099   2.288   0.699  0.0718 -0.1644 -0.2993
  265SOL    HW1  794   1.175   2.230   0.671 -0.4922 -0.7503 -0.5623
  265SOL    HW2  795   1.138   2.382   0.715  0.2192  0.2536 -1.1389
  266SOL     OW  796   2.044   0.544   1.021 -0.2292 -0.2394 -0.2701
  266SOL    HW1  797   2.072   0.457   1.070 -1.3907 -0.5062  5.5525
  266SOL    HW2  798   2.095   0.628   1.050 -1.8956  0.2100 -1.8107
  267SOL     OW  799   3.003   1.364   2.785 -0.3877  0.2844 -0.9058
  267SOL    HW1  800   3.069   1.342   2.857  0.9615  3.9130  1.7252
  267SOL    HW2  801   2.954   1.281   2.747 -2.6022  0.7059 -3.9847
  268SOL     OW  802   1.466   0.058   0.095  0.4339 -0.1653 -0.3821
  268SOL    HW1  803   1.542   0.040   0.164  1.1288  0.2764  1.0503
  268SOL    HW2  804   1.472   0.156   0.065  0.2699 -0.0912 -1.4576
  269SOL     OW  805   2.982   0.780   2.521 -0.1221  0.1632 -0.0608
  269SOL    HW1  806   2.921   0.798   2.441 -0.5561 -0.0531  1.2278
  269SOL    HW2  807   3.041   0.699   2.510  1.0510 -1.3143  0.8704
  270SOL     OW  808   3.039   1.226   0.047 -0.4598  0.6296 -0.1923
  270SOL    HW1  809   3.010   1.302   0.110 -0.1014 -1.4386 -1.8167
  270SOL    HW2  810   0.023   1.156   0.098  0.7507 -1.0157  1.8526
  271SOL     OW  811   2.575   1.403   2.629 -0.2526  0.1200  0.5913
  271SOL    HW1  812   2.525   1.494   2.630  0.1246 -1.9436  0.7348
  271SOL    HW2  813   2.569   1.365   2.534 -2.0433 -0.4940 -2.8968
  272SOL     OW  814   2.476   2.587   2.041 -0.5069 -0.1206  0.0098
  272SOL    HW1  815   2.413   2.662   2.010  1.0173  3.2771 -2.8789
  272SOL    HW2  816   2.566   2.627   2.073  2.1685  3.2736 -0.1790
  273SOL     OW  817   0.379   2.471   0.097  0.0120 -0.4146 -0.1886
  273SOL    HW1  818   0.456   2.443   0.165  0.9261 -3.5458  1.9303
  273SOL    HW2  819   0.300   2.413   0.098 -1.0614  0.8670  1.8603
  274SOL     OW  820   0.969   2.231   0.938  0.1795  0.6040  0.3239
  274SOL    HW1  821   1.027   2.255   0.858 -0.7480 -1.3329  0.6281
  274SOL    HW2  822   0.947   2.133   0.936 -0.3974 -0.1955  0.3813
  275SOL     OW  823   2.187   1.531   0.083 -0.0361  0.5506  0.7089
  275SOL    HW1  824   2.110   1.597   0.064 -0.7205  1.3147  0.5441
  275SOL    HW2  825   2.244   1.519   0.001 -2.4925 -0.6678 -2.5426
  276SOL     OW  826   2.573   1.680   1.299 -0.2840 -0.2534 -0.5351
  276SOL    HW1  827   2.654   1.684   1.368  1.0250  0.3398  4.1535
  276SOL    HW2  828   2.588   1.593   1.247 -0.5041  0.7690 -0.0634
  277SOL     OW  829   2.404   2.937   0.710  0.5804 -0.3410  0.5597
  277SOL    HW1  830   2.307   2.948   0.727 -0.9563 -0.0851 -0.3965
  277SOL    HW2  831   2.450   2.904   0.796  1.8806 -0.4732 -0.5767
  278SOL     OW  832   1.588   0.332   2.413  0.1969  0.1076  0.3276
  278SOL    HW1  833   1.649   0.406   2.439 -1.9580 -1.2373 -1.2001
  278SOL    HW2  834   1.610   0.244   2.459  0.5179  0.6459 -0.4716
  279SOL     OW  835   1.321   2.610   1.319 -1.0702 -0.0675 -0.5941
  279SOL    HW1  836   1.392   2.581   1.250  0.6361  1.3574 -1.4019
  279SOL    HW2  837   1.249   2.657   1.269  2.0618 -0.5746  2.5205
  280SOL     OW  838   1.173   0.980   0.506 -0.1407 -0.3014  0.0657
  280SOL    HW1  839   1.154   0.942   0.602  0.5969 -2.1783  2.2787
  280SOL    HW2  840   1.223   1.067   0.521  0.2779  0.6303  0.0499
  281SOL     OW  841   2.337   1.581   2.922 -0.7576  0.8814 -0.1101
  281SOL    HW1  842   2.423   1.639   2.915  2.2039  2.2366 -1.6966
  281SOL    HW2  843   2.261   1.619   2.862  0.3029 -0.6708  0.0459
  282SOL     OW  844   2.796   1.181   3.001  0.2099  0.4789 -0.0148
  282SOL    HW1  845   2.785   1.089   2.957 -0.6341 -1.5407 -0.4653
  282SOL    HW2  846   2.894   1.205   3.010  0.4813  0.1909 -1.3455
  283SOL     OW  847   1.476   2.720   2.630 -0.3836 -0.3579 -0.2608
  283SOL    HW1  848   1.503   2.643   2.569  0.6583 -0.9854 -0.6357
  283SOL    HW2  849   1.539   2.730   2.708 -1.7979  0.6337 -1.4251
  284SOL     OW  850   0.652   0.362   2.859  0.1153  0.4801  0.1059
  284SOL    HW1  851   0.585   0.429   2.824  2.1297  0.0533 -0.0583
  284SOL    HW2  852   0.711   0.405   2.936 -0.3566 -2.6281 -0.0107
  285SOL     OW  853   1.930   1.938   2.418  0.3493 -0.0416 -0.0840
  285SOL    HW1  854   1.985   1.978   2.344 -0.0245 -1.6574  1.8053
  285SOL    HW2  855   1.892   2.007   2.484  1.5120  2.4308 -0.1466
  286SOL     OW  856   1.180   1.903   0.782 -0.1973 -0.1585 -0.0314
  286SOL    HW1  857   1.106   1.875   0.714 -0.1661  1.5704 -2.0092
  286SOL    HW2  858   1.162   1.881   0.877  1.4377  2.2093 -0.1092
  287SOL     OW  859   1.557   0.304   1.278 -0.3495 -0.2825 -0.2220
  287SOL    HW1  860   1.593   0.286   1.372 -1.3063  0.3954 -2.4103
  287SOL    HW2  861   1.624   0.362   1.223  0.1403  1.5413  2.6513
  288SOL     OW  862   0.612   2.835   2.298  0.1676 -0.0480  0.5671
  288SOL    HW1  863   0.709   2.815   2.289 -3.0994 -3.2846 -0.4862
  288SOL    HW2  864   0.588   2.880   2.210 -1.3143  0.6824 -2.1408
  289SOL     OW  865   0.167   1.245   0.743 -0.5344  0.6425 -0.1247
  289SOL    HW1  866   0.180   1.253   0.845  1.5422 -3.0971  0.3109
  289SOL    HW2  867   0.094   1.174   0.726 -0.7265 -2.9359  1.4807
  290SOL     OW  868   1.173   1.962   1.291 -0.1908 -0.1236 -0.0843
  290SOL    HW1  869   1.174   1.932   1.192 -0.9546 -0.8196  0.1262
  290SOL    HW2  870   1.097   1.919   1.350  1.5866  0.7380  0.7096
  291SOL     OW  871   1.847   2.800   0.621  0.6555  0.4080 -0.6479
  291SOL    HW1  872   1.776   2.852   0.675 -1.4119  1.2752  2.5499
  291SOL    HW2  873   1.804   2.711   0.591 -0.3547  0.6873  0.1534
  292SOL     OW  874   0.513   0.386   1.661  0.1735  0.4616  0.1427
  292SOL    HW1  875   0.444   0.357   1.594 -1.8789 -0.5468 -1.0933
  292SOL    HW2  876   0.494   0.343   1.753  0.7556  0.1280 -2.9166
  293SOL     OW  877   2.333   1.687   0.847  0.1105  0.1844 -0.5127
  293SOL    HW1  878   2.424   1.659   0.805  2.3972 -0.8955 -2.1869
  293SOL    HW2  879   2.257   1.661   0.782  1.1175 -0.2381  2.0015
  294SOL     OW  880   0.813   0.288   2.146 -0.0789 -0.1000  0.2205
  294SOL    HW1  881   0.802   0.343   2.235  2.8796  2.9137  2.3135
  294SOL    HW2  882   0.807   0.190   2.160 -0.7506  3.0857 -2.6133
  295SOL     OW  883   0.868   1.210   0.761 -0.1412 -0.0919 -0.6351
  295SOL    HW1  884   0.801   1.269   0.811  2.6236  1.7854  1.6493
  295SOL    HW2  885   0.857   1.112   0.788 -3.2004  2.4989  0.8489
  296SOL     OW  886   2.180   1.921   0.835 -0.6918  0.0368 -0.2232
  296SOL    HW1  887   2.273   1.873   0.851  0.8732 -1.1033 -1.4190
  296SOL    HW2  888   2.203   1.997   0.773 -0.0301  0.7217  0.5942
  297SOL     OW  889   1.826   0.183   2.810 -0.2105 -0.4903  0.3113
  297SOL    HW1  890   1.854   0.239   2.731 -0.5178 -0.6420 -0.7294
  297SOL    HW2  891   1.906   0.173   2.874 -1.7305  0.1525  0.0439
  298SOL     OW  892   1.207   0.102   2.584 -0.5385  0.4465 -0.2840
  298SOL    HW1  893   1.238   0.032   2.651 -0.3719 -2.9087  2.7037
  298SOL    HW2  894   1.236   0.199   2.593 -0.8934 -0.0475 -1.0389
  299SOL     OW  895   1.075   2.994   2.137  0.3871  0.0433 -0.5568
  299SOL    HW1  896   1.107   0.010   2.174 -1.8185 -1.5372 -0.6252
  299SOL    HW2  897   1.107   2.916   2.197 -0.5320 -1.2080 -0.0047
  300SOL     OW  898   2.581   0.070   1.608 -0.3400 -0.5009  0.1206
  300SOL    HW1  899   2.679   0.090   1.598  1.4827  0.0493  0.3114
  300SOL    HW2  900   2.541   0.149   1.653  2.3913 -2.3085 -2.0801
  301SOL     OW  901   2.391   0.273   1.697 -0.6712 -0.0036  0.1767
  301SOL    HW1  902   2.389   0.274   1.798 -0.0004 -1.9444 -3.4287
  301SOL    HW2  903   2.402   0.368   1.660  0.9066 -0.9285  1.0199
  302SOL     OW  904   0.863   2.720   0.074 -0.1555 -0.6277  0.0514
  302SOL    HW1  905   0.935   2.739   0.003  0.9395 -0.9698  0.3689
  302SOL    HW2  906   0.808   2.801   0.098 -0.2568  1.0315  1.5388
  303SOL     OW  907   1.668   1.939   1.456 -0.0958 -0.0637 -0.0543
  303SOL    HW1  908   1.570   1.935   1.431 -2.2821  0.9290  0.0929
  303SOL    HW2  909   1.718   1.880   1.393  0.7766 -1.9521 -0.6259
  304SOL     OW  910   0.667   0.579   0.944 -0.6128  0.3160  0.0171
  304SOL    HW1  911   0.653   0.530   1.029 -0.0517 -0.1631  0.1241
  304SOL    HW2  912   0.583   0.565   0.884  1.7866  1.4349 -3.0496
  305SOL     OW  913   1.052   0.686   0.772  0.1919  0.2264 -0.4366
  305SOL    HW1  914   1.079   0.736   0.857  0.0564  5.4716 -1.2110
  305SOL    HW2  915   1.131   0.650   0.722 -1.3765 -0.5575 -0.0319
  306SOL     OW  916   0.491   1.213   2.911  0.2677  0.0152 -0.1878
  306SOL    HW1  917   0.570   1.152   2.881  2.9340 -1.6137  2.0066
  306SOL    HW2  918   0.506   1.253   3.004  0.9104 -0.2030 -0.3204
  307SOL     OW  919   1.079   0.156   1.821 -0.2041  0.5135 -0.2052
  307SOL    HW1  920   1.157   0.217   1.796 -0.6395  1.2254 -0.8544
  307SOL    HW2  921   0.997   0.214   1.850  1.5005  3.0386  2.7479
  308SOL     OW  922   0.878   0.443   0.841  0.6244  0.6604  0.0174
  308SOL    HW1  923   0.792   0.500   0.862  0.6283  1.9787 -1.0755
  308SOL    HW2  924   0.940   0.494   0.786  1.0495 -1.0535  1.3817
  309SOL     OW  925   2.492   0.854   0.522  0.4488  0.6363 -0.3393
  309SOL    HW1  926   2.422   0.814   0.590  1.0173 -1.4629 -0.9273
  309SOL    HW2  927   2.577   0.883   0.568 -3.4665  1.5998 -0.4406
  310SOL     OW  928   1.098   1.413   3.037  0.6791 -0.1358 -0.6003
  310SOL    HW1  929   1.171   1.413   2.965 -1.6354 -0.4445  1.5046
  310SOL    HW2  930   1.132   1.361   0.046 -0.0698 -0.0787  0.5004
  311SOL     OW  931   1.946   2.533   2.172  0.5315 -0.3340 -0.1001
  311SOL    HW1  932   1.952   2.580   2.082 -3.5969 -0.5806 -1.7339
  311SOL    HW2  933   1.984   2.589   2.247 -0.6270  1.8715  0.0670
  312SOL     OW  934   2.208   2.469   2.900 -0.4817 -0.0323  0.1705
  312SOL    HW1  935   2.157   2.428   2.976  0.6776  2.7506 -1.6895
  312SOL    HW2  936   2.148   2.519   2.833  0.7416 -0.9538 -0.5092
  313SOL     OW  937   0.464   0.283   0.031  0.3295  0.5591 -0.2614
  313SOL    HW1  938   0.496   0.369   0.072 -1.1634  0.1930  1.8391
  313SOL    HW2  939   0.387   0.300   3.039  3.0775  1.1579  0.3769
  314SOL     OW  940   2.307   1.292   2.889  0.7998 -0.1678  0.7304
  314SOL    HW1  941   2.393   1.237   2.894 -1.9897 -2.8596 -0.4250
  314SOL    HW2  942   2.326   1.391   2.889  0.0511 -0.1747  0.0867
  315SOL     OW  943   1.718   0.346   2.159  0.1652  0.1276 -0.0747
  315SOL    HW1  944   1.641   0.326   2.229  0.3523 -1.7938  0.3947
  315SOL    HW2  945   1.802   0.388   2.202  2.8130 -0.9048 -1.8847
  316SOL     OW  946   0.003   1.032   0.696 -0.4167  0.2445 -0.3391
  316SOL    HW1  947   3.054   0.984   0.784 -3.3163 -1.8850  0.1275
  316SOL    HW2  948   2.983   1.047   0.649  0.4525  0.8117  3.7465
  317SOL     OW  949   0.749   2.943   0.199  0.5401 -0.1932 -0.0821
  317SOL    HW1  950   0.737   2.962   0.299 -2.0016  2.7049  1.9552
  317SOL    HW2  951   0.672   2.984   0.142 -1.6771  1.3276 -1.9471
  318SOL     OW  952   1.878   2.516   1.483  0.1864  0.5174  0.5026
  318SOL    HW1  953   1.927   2.598   1.517  2.3932  0.1575 -0.0227
  318SOL    HW2  954   1.888   2.495   1.383 -2.2371  0.4583  0.2737
  319SOL     OW  955   1.348   1.750   0.182 -0.1440  0.0388  0.2974
  319SOL    HW1  956   1.395   1.723   0.263  0.2246  0.4816 -0.8106
  319SOL    HW2  957   1.249   1.740   0.199  2.3837 -1.1488 -1.1311
  320SOL     OW  958   0.419   1.849   0.862 -0.1305 -0.2629 -0.0473
  320SOL    HW1  959   0.362   1.885   0.783 -0.2304  0.9438 -0.6930
  320SOL    HW2  960   0.429   1.748   0.852 -1.1929  0.6921 -1.7428
  321SOL     OW  961   2.063   2.693   1.976 -0.2055  0.2724  0.1517
  321SOL    HW1  962   2.162   2.720   1.961  1.4379  1.5675 -0.9513
  321SOL    HW2  963   2.005   2.777   1.981 -1.1670 -0.5116  2.6518
  322SOL     OW  964   2.087   2.027   2.213 -0.2512 -0.1556  0.1735
  322SOL    HW1  965   2.083   2.069   2.119  1.1360 -0.0726 -1.1146
  322SOL    HW2  966   2.166   1.964   2.213  0.8259 -1.2502  0.7239
  323SOL     OW  967   2.482   0.131   0.721  0.2193  0.8409  0.0478
  323SOL    HW1  968   2.463   0.033   0.690 -0.9181 -3.1583  0.1533
  323SOL    HW2  969   2.515   0.180   0.641  1.2388 -1.8553  2.0767
  324SOL     OW  970   2.706   2.450   2.285 -0.4974  0.1846  0.1975
  324SOL    HW1  971   2.767   2.400   2.219  1.5726  0.1540  1.8700
  324SOL    HW2  972   2.740   2.430   2.379 -1.9141 -1.2416 -1.3143
  325SOL     OW  973   1.177   0.636   2.764  0.0556  0.4081 -0.1769
  325SOL    HW1  974   1.247   0.649   2.841 -1.2158  1.0576  0.3262
  325SOL    HW2  975   1.124   0.544   2.766 -0.7524 -2.3860  0.4454
  326SOL     OW  976   2.541   2.354   1.063  0.0237 -0.0619  0.1214
  326SOL    HW1  977   2.452   2.360   1.112  0.3754  2.3400  0.8573
  326SOL    HW2  978   2.541   2.418   0.984 -1.6755 -0.1884 -0.2606
  327SOL     OW  979   2.540   2.948   0.134  0.1212 -0.2544  0.2919
  327SOL    HW1  980   2.561   2.985   0.229 -2.0639 -0.1271  0.4410
  327SOL    HW2  981   2.443   2.914   0.134  1.3085  2.2807  0.1700
  328SOL     OW  982   0.593   0.746   1.189  0.7241 -0.0493  0.3339
  328SOL    HW1  983   0.616   0.649   1.205  0.8431  2.1404  0.9291
  328SOL    HW2  984   0.648   0.787   1.114  0.0229 -0.0283 -0.6272
  329SOL     OW  985   1.907   0.392   1.378 -0.2559 -0.1831  0.1684
  329SOL    HW1  986   1.891   0.471   1.433 -0.1555 -0.8740  0.7537
  329SOL    HW2  987   2.005   0.367   1.370  1.5917  0.8049  0.2519
  330SOL     OW  988   0.659   0.346   0.570  0.1284 -0.6640  0.0078
  330SOL    HW1  989   0.682   0.447   0.549 -0.1252 -2.2476  0.8799
  330SOL    HW2  990   0.742   0.289   0.553 -2.2627 -0.4577 -1.4015
  331SOL     OW  991   0.797   1.985   1.758  0.3399 -0.5185 -0.4639
  331SOL    HW1  992   0.702   2.008   1.791 -0.8241 -0.0870  0.5857
  331SOL    HW2  993   0.831   2.047   1.681  1.5913 -0.7301  0.1138
  332SOL     OW  994   2.472   2.386   1.642  0.5825 -0.0758  0.6424
  332SOL    HW1  995   2.562   2.365   1.682 -1.4606  0.9028 -0.0323
  332SOL    HW2  996   2.409   2.312   1.624  0.0459 -0.5766  0.6285
  333SOL     OW  997   0.026   2.943   0.898 -0.1499 -0.1733  0.5695
  333SOL    HW1  998   0.094   3.009   0.935  1.4264  1.9504 -0.5458
  333SOL    HW2  999   3.006   2.950   0.945  0.7374 -1.7825 -1.3090
  334SOL     OW 1000   2.985   1.472   0.479  0.0014  0.1349  0.3957
  334SOL    HW1 1001   2.960   1.375   0.442  0.3280 -1.5130  0.3256
  334SOL    HW2 1002   2.971   1.469   0.579  1.8141 -0.3597 -1.6950
  335SOL     OW 1003   0.542   2.525   2.586  0.3952  0.0342 -0.6155
  335SOL    HW1 1004   0.528   2.613   2.639 -1.4791  1.2316 -2.8495
  335SOL    HW2 1005   0.476   2.452   2.595  1.0827 -0.5292  0.1020
  336SOL     OW 1006   2.940   2.844   2.047 -0.2185 -0.1433 -0.3061
  336SOL    HW1 1007   2.872   2.885   2.113  0.8224  0.5862 -0.1624
  336SOL    HW2 1008   3.036   2.856   2.088 -3.0944 -0.5857  1.0391
  337SOL     OW 1009   1.266   1.893   1.696  0.3063  0.3864 -0.1882
  337SOL    HW1 1010   1.181   1.927   1.744  3.2096  0.5431  1.1473
  337SOL    HW2 1011   1.351   1.928   1.740 -0.1789 -0.1787  2.0929
  338SOL     OW 1012   0.944   0.085   2.611 -0.4631  0.3196  0.2150
  338SOL    HW1 1013   0.892   0.074   2.522  0.5022  0.9897  0.3526
  338SOL    HW2 1014   1.041   0.099   2.595 -0.8721 -0.8505  3.5128
  339SOL     OW 1015   0.443   1.056   2.363  0.1891  0.4604  0.0912
  339SOL    HW1 1016   0.461   1.102   2.277  1.1858 -2.2477  1.4834
  339SOL    HW2 1017   0.440   0.952   2.348 -0.7904 -5.0636 -0.5199
  340SOL     OW 1018   2.095   0.310   1.129 -0.7594 -0.5451  0.5958
  340SOL    HW1 1019   2.198   0.303   1.127  3.7546  0.5387 -1.6632
  340SOL    HW2 1020   2.058   0.222   1.156  0.2583  1.2288 -5.0457
  341SOL     OW 1021   2.226   1.273   0.811  0.4601 -0.0347 -0.2440
  341SOL    HW1 1022   2.158   1.347   0.812  1.9963 -1.2509  0.5217
  341SOL    HW2 1023   2.260   1.253   0.906 -1.5692 -0.2745 -0.2066
  342SOL     OW 1024   2.013   2.599   2.769 -0.4396  0.2689  0.4517
  342SOL    HW1 1025   1.963   2.524   2.725  0.7147  1.1036  3.1414
  342SOL    HW2 1026   1.955   2.679   2.788  0.2724 -2.7241 -1.1650
  343SOL     OW 1027   0.090   2.483   1.395 -0.7309 -0.0338  0.1941
  343SOL    HW1 1028   0.049   2.391   1.413  1.3200 -1.2918 -1.0412
  343SOL    HW2 1029   0.192   2.487   1.421  2.6837  1.6720  0.3815
  344SOL     OW 1030   2.364   2.694   1.269 -0.4526  0.3700  0.8124
  344SOL    HW1 1031   2.440   2.760   1.285 -1.7433  1.1981  1.3275
  344SOL    HW2 1032   2.361   2.622   1.341 -1.7230 -0.8584  1.7037
  345SOL     OW 1033   2.436   2.184   0.134  0.1310 -0.1977 -0.1123
  345SOL    HW1 1034   2.502   2.162   0.060  0.9309  0.2039  0.1983
  345SOL    HW2 1035   2.444   2.283   0.158 -1.1802 -1.9545 -4.5887
  346SOL     OW 1036   1.667   2.212   1.505  0.6489  0.2197 -0.3185
  346SOL    HW1 1037   1.652   2.113   1.493  0.3794 -1.1440  0.1585
  346SOL    HW2 1038   1.585   2.253   1.545 -1.4981 -2.1720 -0.8961
  347SOL     OW 1039   1.021   1.760   1.409  0.1387 -0.1457 -0.6464
  347SOL    HW1 1040   1.082   1.703   1.468  1.7318  0.1627  1.6294
  347SOL    HW2 1041   0.983   1.709   1.332  0.7605 -2.7055  3.0790
  348SOL     OW 1042   0.196   2.001   2.057  0.0152  0.7578  0.0746
  348SOL    HW1 1043   0.161   1.996   1.961 -0.1047 -0.1927  2.3796
  348SOL    HW2 1044   0.293   2.026   2.053  2.1650 -0.7244 -2.8369
  349SOL     OW 1045   1.555   1.688   1.579 -0.0898  0.3501 -0.4557
  349SOL    HW1 1046   1.600   1.672   1.670  0.1922 -1.9038  2.4362
  349SOL    HW2 1047   1.591   1.771   1.534 -0.5343 -1.0039 -1.4995
  350SOL     OW 1048   2.044   2.298   0.473  0.3743  0.6384  0.2528
  350SOL    HW1 1049   1.964   2.289   0.404 -1.1187 -0.3830 -0.7891
  350SOL    HW2 1050   2.117   2.348   0.427 -0.0169 -0.8335 -0.5542
  351SOL     OW 1051   0.550   2.991   1.730 -0.1650 -0.2869  0.1478
  351SOL    HW1 1052   0.596   0.012   1.750 -0.6724  3.3683 -1.0613
  351SOL    HW2 1053   0.569   2.966   1.634 -1.9347 -1.3553  0.4273
  352SOL     OW 1054   0.837   0.923   0.783  0.1124 -0.2640  0.2992
  352SOL    HW1 1055   0.890   0.910   0.869 -2.4236 -3.0103  0.8010
  352SOL    HW2 1056   0.852   0.838   0.731  0.0016  0.1487  1.7068
  353SOL     OW 1057   1.248   1.931   2.499 -0.2342  0.4129  0.0367
  353SOL    HW1 1058   1.232   1.971   2.406  1.0079 -1.3676  0.7957
  353SOL    HW2 1059   1.156   1.922   2.540 -0.1029 -1.4077  1.9988
  354SOL     OW 1060   1.728   2.692   1.900  0.2749  0.4365  0.5316
  354SOL    HW1 1061   1.667   2.663   1.973  2.3442  0.0433 -2.7586
  354SOL    HW2 1062   1.667   2.714   1.820  2.5100 -0.5209 -1.1632
  355SOL     OW 1063   1.966   1.106   0.285 -0.2277  1.2833 -0.1083
  355SOL    HW1 1064   1.993   1.197   0.253 -0.7638 -2.5905  1.7896
  355SOL    HW2 1065   1.932   1.047   0.211  0.7963  0.5046 -1.6758
  356SOL     OW 1066   0.086   1.696   1.171  0.0059  0.5999 -0.3521
  356SOL    HW1 1067   0.119   1.639   1.091 -1.9893  1.1739  0.4032
  356SOL    HW2 1068   0.051   1.785   1.136  0.0638 -1.7504 -2.0684
  357SOL     OW 1069   0.254   2.778   1.116  0.4728 -0.3949 -0.4947
  357SOL    HW1 1070   0.161   2.752   1.155 -0.9670  2.2457 -0.3059
  357SOL    HW2 1071   0.243   2.849   1.041 -1.9777  2.7087 -2.0451
  358SOL     OW 1072   2.321   1.748   1.349 -0.0171  0.1040 -0.1120
  358SOL    HW1 1073   2.319   1.839   1.399  1.2301 -1.3914 -0.0452
  358SOL    HW2 1074   2.418   1.727   1.331 -4.7578  2.0498 -0.0222
  359SOL     OW 1075   2.119   0.057   2.538  0.1678 -0.3318  0.2710
  359SOL    HW1 1076   2.063   0.115   2.477 -0.2954 -1.1081  1.6225
  359SOL    HW2 1077   2.141   0.109   2.622 -2.5262 -1.2895 -0.1563
  360SOL     OW 1078   1.205   2.857   0.679  0.5281  0.3278  0.0327
  360SOL    HW1 1079   1.275   2.885   0.746  2.1544 -0.0597 -0.7180
  360SOL    HW2 1080   1.243   2.790   0.610  0.9882  0.3594  0.3244
  361SOL     OW 1081   2.029   0.200   0.418  0.6715 -0.5895 -0.4420
  361SOL    HW1 1082   2.063   0.170   0.327  1.5904  0.2931  0.8088
  361SOL    HW2 1083   2.103   0.240   0.471 -0.5041 -1.5014 -0.9942
  362SOL     OW 1084   1.404   0.949   1.011  0.3545 -0.0598 -0.2621
  362SOL    HW1 1085   1.397   0.856   1.057  1.0467 -0.3624  1.5190
  362SOL    HW2 1086   1.485   1.002   1.051  0.5761  1.3724 -1.9409
  363SOL     OW 1087   2.276   1.361   2.329 -0.3421 -0.8638 -0.3298
  363SOL    HW1 1088   2.239   1.422   2.408 -2.5334  1.2685  1.7007
  363SOL    HW2 1089   2.205   1.298   2.285 -0.6552  0.8288  2.0494
  364SOL     OW 1090   0.300   0.697   1.155 -0.0912 -0.1530 -0.1548
  364SOL    HW1 1091   0.403   0.690   1.148  0.0788 -1.5838 -1.0139
  364SOL    HW2 1092   0.270   0.785   1.190 -1.0084 -0.3336  1.8075
  365SOL     OW 1093   0.554   0.189   2.449  0.2064 -0.5017  1.1200
  365SOL    HW1 1094   0.516   0.176   2.545 -1.1052 -1.2519  3.9824
  365SOL    HW2 1095   0.630   0.121   2.439  1.5411 -0.2458 -0.6993
  366SOL     OW 1096   2.246   1.994   2.469  0.2415  0.1944 -0.1158
  366SOL    HW1 1097   2.166   2.009   2.413  1.1391 -0.8660 -0.8701
  366SOL    HW2 1098   2.332   2.028   2.422 -0.1107  1.5209 -0.9726
  367SOL     OW 1099   2.663   2.465   3.008  0.4039  0.0059 -0.1063
  367SOL    HW1 1100   2.668   2.550   3.062 -0.4325  1.0097 -1.2166
  367SOL    HW2 1101   2.737   2.452   2.940 -0.0194 -1.6013 -0.2398
  368SOL     OW 1102   2.604   1.231   1.048 -0.6920  0.1131 -0.5212
  368SOL    HW1 1103   2.637   1.268   1.140 -0.3291  1.6794  2.4915
  368SOL    HW2 1104   2.609   1.312   0.979 -1.9127  0.6739  0.0843
  369SOL     OW 1105   0.878   2.790   2.327 -0.1342 -0.1273 -0.1474
  369SOL    HW1 1106   0.950   2.724   2.296  0.5723 -0.2107 -2.4852
  369SOL    HW2 1107   0.907   2.808   2.423  4.0051 -0.3527  0.0638
  370SOL     OW 1108   2.765   0.268   0.470  0.5020  0.4311 -0.1824
  370SOL    HW1 1109   2.859   0.299   0.447 -1.2603 -1.4120 -1.8564
  370SOL    HW2 1110   2.697   0.283   0.399 -0.3012 -0.9125 -0.2767
  371SOL     OW 1111   1.445   2.137   1.151  0.2892 -0.0593  0.3455
  371SOL    HW1 1112   1.526   2.185   1.193  1.2975 -1.9192 -0.5585
  371SOL    HW2 1113   1.372   2.203   1.120  0.4129  0.3989 -2.3449
  372SOL     OW 1114   0.081   0.587   2.612  0.7156  0.1178  0.1620
  372SOL    HW1 1115   0.008   0.551   2.669 -0.4239 -1.4689 -3.1167
  372SOL    HW2 1116   0.155   0.519   2.598 -1.4130 -4.0839  1.4142
  373SOL     OW 1117   2.620   1.890   0.866 -0.0970 -0.6122  0.3761
  373SOL    HW1 1118   2.627   1.982   0.827 -2.8136  0.6996 -2.8040
  373SOL    HW2 1119   2.604   1.888   0.968 -1.3959  0.0178  1.4163
  374SOL     OW 1120   0.441   2.893   2.494  0.1807 -0.2389  0.6846
  374SOL    HW1 1121   0.459   2.832   2.574  0.3325 -1.7722  0.2406
  374SOL    HW2 1122   0.498   2.867   2.416  0.2064 -0.7724 -1.2545
  375SOL     OW 1123   0.503   0.161   2.737  0.1164 -0.0718 -0.8000
  375SOL    HW1 1124   0.507   0.072   2.784  0.5844  1.4679 -0.4107
  375SOL    HW2 1125   0.563   0.235   2.778  0.3758  0.7979  2.7026
  376SOL     OW 1126   2.828   2.143   1.871 -0.2505  0.2667 -0.3300
  376SOL    HW1 1127   2.829   2.043   1.855 -0.9650  3.3854 -0.4151
  376SOL    HW2 1128   2.859   2.161   1.967  1.8002 -1.7001  0.5366
  377SOL     OW 1129   1.786   2.350   2.771  0.5991 -0.0053 -0.2296
  377SOL    HW1 1130   1.763   2.391   2.681 -0.5693  1.2142  1.8694
  377SOL    HW2 1131   1.747   2.395   2.847  1.9469 -1.8034 -2.0893
  378SOL     OW 1132   0.041   0.424   2.298 -0.3533  0.0412 -0.0372
  378SOL    HW1 1133   0.102   0.343   2.322  0.6982  0.9120  0.8448
  378SOL    HW2 1134   3.023   0.418   2.348 -2.4843  0.4665  0.2704
  379SOL     OW 1135   0.527   0.737   0.635  0.1774 -0.2634  0.1371
  379SOL    HW1 1136   0.470   0.663   0.680 -2.4076 -1.2412  2.8148
  379SOL    HW2 1137   0.473   0.822   0.653 -0.4653  1.3073  1.1752
  380SOL     OW 1138   0.323   1.645   1.747  0.1050  0.2463 -0.1015
  380SOL    HW1 1139   0.404   1.687   1.702 -1.3801  0.0745 -0.5397
  380SOL    HW2 1140   0.331   1.661   1.849 -0.0060  0.3200  0.5622
  381SOL     OW 1141   0.736   1.094   1.999  0.0439  0.0259 -0.2822
  381SOL    HW1 1142   0.654   1.121   2.047  3.9891 -0.1477  1.1751
  381SOL    HW2 1143   0.731   1.116   1.899 -2.1096 -0.4395 -1.2818
  382SOL     OW 1144   2.456   2.081   0.388 -0.3944 -0.3386 -0.2195
  382SOL    HW1 1145   2.448   2.128   0.294  0.4554  0.3667 -2.2394
  382SOL    HW2 1146   2.367   2.085   0.436 -0.9172  1.7229  2.2428
  383SOL     OW 1147   0.413   1.847   0.016 -0.1521 -0.5938  0.7513
  383SOL    HW1 1148   0.420   1.826   0.118 -5.0573  1.1613 -0.1045
  383SOL    HW2 1149   0.490   1.814   3.030 -1.1650 -0.5371 -0.5295
  384SOL     OW 1150   0.817   2.100   2.871 -0.4066 -0.3664 -0.2077
  384SOL    HW1 1151   0.716   2.086   2.890 -1.7798  0.7123  1.1796
  384SOL    HW2 1152   0.846   2.193   2.898 -0.6947 -2.6573  2.5538
  385SOL     OW 1153   2.235   2.094   0.534 -0.0777 -0.4226 -0.2699
  385SOL    HW1 1154   2.295   2.119   0.618  2.0676 -2.6069  1.1995
  385SOL    HW2 1155   2.166   2.172   0.516  1.6076  2.9589  1.5762
  386SOL     OW 1156   2.264   0.800   1.681 -0.1328 -0.3521  0.3137
  386SOL    HW1 1157   2.334   0.821   1.609 -2.0376 -1.2424 -0.6605
  386SOL    HW2 1158   2.272   0.856   1.766 -0.2577  1.6526  1.7334
  387SOL     OW 1159   2.696   1.512   2.205  0.0894  0.5274 -0.1613
  387SOL    HW1 1160   2.661   1.433   2.263 -0.4648 -0.8326  3.0087
  387SOL    HW2 1161   2.771   1.554   2.260 -3.1724 -2.7727  0.7306
  388SOL     OW 1162   0.355   1.725   2.018  0.0237 -0.0682 -0.2223
  388SOL    HW1 1163   0.423   1.653   2.042  2.9312 -0.7588 -1.5971
  388SOL    HW2 1164   0.398   1.818   2.026  1.7439 -4.1609  0.3551
  389SOL     OW 1165   1.306   1.123   1.931  0.6064  0.2898 -0.5050
  389SOL    HW1 1166   1.255   1.081   1.849  0.7889 -1.7445 -1.5978
  389SOL    HW2 1167   1.323   1.056   2.008  1.1461  0.2578  1.0906
  390SOL     OW 1168   1.932   0.081   0.901 -0.1993 -0.4062 -0.4802
  390SOL    HW1 1169   1.910   0.142   0.980  2.3154  0.1629 -1.8267
  390SOL    HW2 1170   1.947   0.137   0.819  2.1896  0.7115  0.7123
  391SOL     OW 1171   1.884   1.531   1.261  0.4220  0.0942  0.0975
  391SOL    HW1 1172   1.872   1.459   1.186 -0.2045 -0.8926 -2.2860
  391SOL    HW2 1173   1.897   1.490   1.350 -2.9179  1.1530 -0.4202
  392SOL     OW 1174   2.683   2.781   0.376 -0.0209 -0.5674 -0.1192
  392SOL    HW1 1175   2.602   2.766   0.438 -1.0706  1.4862  2.3052
  392SOL    HW2 1176   2.696   2.881   0.373 -1.3710  1.4499 -1.0327
  393SOL     OW 1177   2.016   2.138   2.677 -0.7311 -0.2807  0.7217
  393SOL    HW1 1178   2.024   2.092   2.769  0.8442  1.6726  0.4624
  393SOL    HW2 1179   2.083   2.212   2.669  1.8184 -0.8202  0.5920
  394SOL     OW 1180   0.129   2.478   2.582  0.8790 -0.5595 -0.0869
  394SOL    HW1 1181   0.115   2.500   2.682 -0.2856 -1.3440  2.5113
  394SOL    HW2 1182   0.052   2.516   2.529  1.1597  1.8038  2.4927
  395SOL     OW 1183   0.359   0.103   0.751  0.2904 -0.1029 -0.4134
  395SOL    HW1 1184   0.311   0.062   0.672  3.1137  0.0393  4.1335
  395SOL    HW2 1185   0.307   0.174   0.800 -1.3056  0.6365 -0.4201
  396SOL     OW 1186   2.002   0.799   0.610 -0.0806  0.4775 -0.3266
  396SOL    HW1 1187   1.899   0.799   0.592 -2.2454 -0.2650  1.3937
  396SOL    HW2 1188   2.048   0.866   0.548 -0.0871 -0.9419  0.9124
  397SOL     OW 1189   0.533   0.520   2.095 -0.3533 -0.1573  0.3972
  397SOL    HW1 1190   0.544   0.522   1.992 -1.7016  0.0387  1.2615
  397SOL    HW2 1191   0.438   0.546   2.121  1.4650 -1.3081  1.0116
  398SOL     OW 1192   1.002   3.010   0.506  0.3396 -0.5927  0.3312
  398SOL    HW1 1193   0.992   0.043   0.503  0.2118 -0.3314  0.6906
  398SOL    HW2 1194   1.068   2.978   0.572 -3.3956 -0.4053 -3.5856
  399SOL     OW 1195   2.199   2.873   1.656  0.0313  0.0726 -0.1596
  399SOL    HW1 1196   2.177   2.797   1.721 -2.5868  1.2084  3.4124
  399SOL    HW2 1197   2.295   2.877   1.617  0.6997 -1.4652  1.5078
  400SOL     OW 1198   0.972   1.938   2.403 -0.2741  0.4094  0.1522
  400SOL    HW1 1199   0.997   2.013   2.343  1.1130  1.6640  2.1375
  400SOL    HW2 1200   0.944   1.967   2.494  1.4170  0.9345 -0.0199
  401SOL     OW 1201   0.715   1.093   2.487  0.4759 -0.4263  0.2335
  401SOL    HW1 1202   0.780   1.082   2.403  0.1641  0.5409 -0.1065
  401SOL    HW2 1203   0.619   1.096   2.456  0.1195 -0.1700 -0.1068
  402SOL     OW 1204   0.082   2.230   0.823 -0.2573 -0.3965 -0.5204
  402SOL    HW1 1205   0.016   2.309   0.842 -1.8810  1.2887  0.9970
  402SOL    HW2 1206   0.033   2.140   0.834  1.2539 -0.7680 -1.3156
  403SOL     OW 1207   3.066   1.135   2.128 -0.0984 -0.1929 -0.1530
  403SOL    HW1 1208   0.078   1.108   2.070 -0.7141 -1.8275 -2.2149
  403SOL    HW2 1209   2.989   1.148   2.064  0.8736  0.2039 -1.6348
  404SOL     OW 1210   3.006   2.595   2.422  0.6752  0.2535 -0.3555
  404SOL    HW1 1211   2.918   2.572   2.476 -4.4323  1.8804  3.1860
  404SOL    HW2 1212   3.025   2.526   2.348 -3.1794  1.1000 -2.4838
  405SOL     OW 1213   0.276   0.278   1.868 -0.1125 -0.4490  0.3233
  405SOL    HW1 1214   0.355   0.240   1.923  1.4163  2.1648  0.5086
  405SOL    HW2 1215   0.200   0.302   1.935  1.1113  3.8110  2.1322
  406SOL     OW 1216   1.548   1.459   2.504  0.1603 -0.0735  0.3875
  406SOL    HW1 1217   1.530   1.535   2.570 -1.0635 -0.2972 -0.0723
  406SOL    HW2 1218   1.556   1.492   2.408 -2.0626  0.1654 -1.5897
  407SOL     OW 1219   1.594   0.880   2.738 -0.1749 -0.0561 -0.3552
  407SOL    HW1 1220   1.631   0.978   2.732 -1.1955  1.5740 -4.0639
  407SOL    HW2 1221   1.542   0.854   2.652 -2.9057  0.2204  2.2020
  408SOL     OW 1222   0.742   0.016   2.446 -0.2213  0.5451  0.5278
  408SOL    HW1 1223   0.735   2.999   2.500  3.7029  1.4309 -0.5408
  408SOL    HW2 1224   0.770   3.066   2.347 -0.1912  1.2641 -2.0740
  409SOL     OW 1225   0.160   2.129   1.098 -0.0011 -0.1331 -0.4467
  409SOL    HW1 1226   0.133   2.162   1.002  0.8968  0.1586 -1.6584
  409SOL    HW2 1227   0.212   2.041   1.096 -1.5945  3.9680  2.4385
  410SOL     OW 1228   2.452   1.524   0.198 -0.3418  0.4755  0.1569
  410SOL    HW1 1229   2.365   1.467   0.185 -2.9101 -3.9219 -0.8456
  410SOL    HW2 1230   2.527   1.481   0.143  1.7490 -3.3972  2.8693
  411SOL     OW 1231   0.146   0.056   1.160  0.4240 -0.0985 -0.0479
  411SOL    HW1 1232   0.246   0.061   1.151 -0.9846 -1.7803  1.4665
  411SOL    HW2 1233   0.099   0.139   1.125 -0.0271 -0.0856  0.2976
  412SOL     OW 1234   1.929   0.627   1.551  0.0965  0.2175  0.1953
  412SOL    HW1 1235   2.010   0.630   1.489 -2.8190  0.1404  1.7405
  412SOL    HW2 1236   1.856   0.679   1.508 -1.6933 -1.7402  3.6103
  413SOL     OW 1237   0.864   0.332   1.888  0.3228  0.0262 -0.0125
  413SOL    HW1 1238   0.843   0.324   1.987 -0.1299 -2.2116  2.0184
  413SOL    HW2 1239   0.902   0.423   1.868  0.9117 -1.4370 -2.6530
  414SOL     OW 1240   2.802   1.541   2.662 -0.1302  1.0246 -0.1773
  414SOL    HW1 1241   2.870   1.463   2.693  0.1545 -0.1296  0.7650
  414SOL    HW2 1242   2.716   1.501   2.629  3.8152  2.6116 -0.3552
  415SOL     OW 1243   0.910   2.480   0.233 -0.2949 -0.4335 -0.1866
  415SOL    HW1 1244   1.003   2.466   0.266  0.6967  0.9602  0.8444
  415SOL    HW2 1245   0.894   2.559   0.171 -0.7871 -2.0454  0.7712
  416SOL     OW 1246   1.664   3.054   2.775 -0.4607 -0.0228  0.3109
  416SOL    HW1 1247   1.694   2.973   2.823  0.7423 -0.5138  2.6481
  416SOL    HW2 1248   1.719   0.071   2.786  3.0952 -1.5673  0.9667
  417SOL     OW 1249   0.230   0.398   0.591  0.7193  0.6139 -0.4621
  417SOL    HW1 1250   0.267   0.461   0.662 -2.2021 -1.4186 -0.9221
  417SOL    HW2 1251   0.176   0.317   0.629  0.0408 -0.9612 -0.0439
  418SOL     OW 1252   2.508   2.907   0.957  0.4479 -0.4343 -0.2487
  418SOL    HW1 1253   2.428   2.900   1.020 -0.6557  2.7417  0.6194
  418SOL    HW2 1254   2.591   2.957   0.991  2.3532  0.4180  1.6400
  419SOL     OW 1255   0.051   2.690   0.500 -0.3195  0.3011 -0.2056
  419SOL    HW1 1256   0.034   2.679   0.597  1.3258  0.2051 -3.5866
  419SOL    HW2 1257   0.151   2.667   0.476  1.3753 -1.2218 -0.3320
  420SOL     OW 1258   0.195   1.415   1.799  0.0225 -0.2425  0.2086
  420SOL    HW1 1259   0.254   1.484   1.751  0.5330  3.4783 -0.7038
  420SOL    HW2 1260   0.250   1.342   1.842  2.2372  1.8833 -0.5620
  421SOL     OW 1261   1.514   2.571   0.751  0.1989  0.2741 -0.1807
  421SOL    HW1 1262   1.522   2.622   0.842 -1.6952  1.2566  0.1318
  421SOL    HW2 1263   1.464   2.481   0.759 -1.6850 -1.9712 -0.7646
  422SOL     OW 1264   0.751   0.379   1.502  0.4152  0.1177  0.0513
  422SOL    HW1 1265   0.823   0.446   1.525 -2.5335  0.0692  0.4395
  422SOL    HW2 1266   0.676   0.376   1.569  3.1862  0.1609 -3.2929
  423SOL     OW 1267   1.060   1.349   1.865 -0.1783  0.4089  0.2856
  423SOL    HW1 1268   1.140   1.402   1.834  1.7617  1.3334 -2.4794
  423SOL    HW2 1269   1.025   1.294   1.782 -2.0352 -1.3393 -2.5574
  424SOL     OW 1270   1.964   1.929   0.253 -0.2877  0.3344 -0.0628
  424SOL    HW1 1271   1.924   1.949   0.347  0.0112  1.6313  2.6975
  424SOL    HW2 1272   2.015   2.010   0.226  1.0724 -3.1620 -0.7325
  425SOL     OW 1273   2.914   0.141   1.980  0.0582 -0.2516 -0.1060
  425SOL    HW1 1274   2.971   0.096   2.051  0.2932  0.6900  0.0753
  425SOL    HW2 1275   2.934   0.105   1.887  0.2419 -0.0181  1.3344
  426SOL     OW 1276   0.069   2.525   2.847 -0.5437 -0.7854 -0.3188
  426SOL    HW1 1277   0.117   2.619   2.834  0.5883  4.6184 -0.7248
  426SOL    HW2 1278   0.089   2.494   2.940 -2.2267 -0.9178  1.6183
  427SOL     OW 1279   1.206   0.385   0.110  0.6764  0.3089 -0.6690
  427SOL    HW1 1280   1.292   0.432   0.132 -2.4398  0.1091 -2.1823
  427SOL    HW2 1281   1.204   0.293   0.147 -1.0425  1.2364 -1.0530
  428SOL     OW 1282   2.832   0.819   1.621 -0.2355  0.0427 -0.0600
  428SOL    HW1 1283   2.767   0.852   1.691  0.2490 -2.7035 -0.0320
  428SOL    HW2 1284   2.815   0.857   1.526 -0.5745 -0.2538 -0.6726
  429SOL     OW 1285   1.988   2.887   1.132  0.0659 -0.4370  0.6867
  429SOL    HW1 1286   2.003   2.794   1.173  0.5770 -0.4075  0.5961
  429SOL    HW2 1287   1.987   2.892   1.032  0.9379 -2.5218  1.1613
  430SOL     OW 1288   1.218   1.584   2.364  0.1873 -0.2534 -0.0510
  430SOL    HW1 1289   1.227   1.566   2.465  0.0783  1.1917 -1.7135
  430SOL    HW2 1290   1.255   1.513   2.305  0.8127 -0.6483 -0.1673
  431SOL     OW 1291   2.918   1.568   1.288  0.3425  0.3468 -0.7645
  431SOL    HW1 1292   2.872   1.622   1.358  0.0740  2.1247 -0.3548
  431SOL    HW2 1293   3.002   1.619   1.258 -0.9249 -1.5225  0.7265
  432SOL     OW 1294   1.098   2.543   2.268 -0.1622  0.4692 -0.0108
  432SOL    HW1 1295   1.106   2.473   2.344 -1.3085  2.1382  2.7668
  432SOL    HW2 1296   1.010   2.522   2.217  0.5737 -1.7263  1.7817
  433SOL     OW 1297   1.902   0.198   2.024 -0.1264  0.1731  0.9306
  433SOL    HW1 1298   2.003   0.209   2.042 -1.4647 -2.5128 -2.4360
  433SOL    HW2 1299   1.840   0.263   2.079 -1.4135  1.0002  1.1419
  434SOL     OW 1300   0.424   2.578   2.174  0.2477  0.1999 -0.2855
  434SOL    HW1 1301   0.363   2.537   2.245 -0.0210 -1.0270 -0.7336
  434SOL    HW2 1302   0.519   2.584   2.207  0.3196 -2.0823  1.1892
  435SOL     OW 1303   0.086   2.999   0.164  0.0264  0.0995  0.3907
  435SOL    HW1 1304   0.098   3.062   0.082 -0.5008  0.8658  0.6644
  435SOL    HW2 1305   0.168   2.997   0.228  0.9302 -3.1536 -0.6921
  436SOL     OW 1306   0.845   0.819   2.012  0.3489  0.1279 -0.0544
  436SOL    HW1 1307   0.827   0.909   2.053 -2.4741  0.8260 -0.5470
  436SOL    HW2 1308   0.808   0.746   2.077  1.7859  0.0964  0.6341
  437SOL     OW 1309   0.714   2.366   2.722 -0.2041  0.2799 -0.0509
  437SOL    HW1 1310   0.673   2.437   2.651 -2.3406  5.1811  1.4422
  437SOL    HW2 1311   0.648   2.363   2.802  1.8906  0.4166  0.2842
  438SOL     OW 1312   1.000   1.172   1.055  0.8281  0.1125 -0.5750
  438SOL    HW1 1313   0.988   1.272   1.034  1.4423 -0.4012 -0.9041
  438SOL    HW2 1314   1.101   1.162   1.056  0.2411  1.1169 -0.2595
  439SOL     OW 1315   2.563   1.311   2.385 -0.1932 -0.2604 -0.2830
  439SOL    HW1 1316   2.606   1.217   2.385  1.4097 -0.8359  0.8452
  439SOL    HW2 1317   2.462   1.310   2.366 -0.4250 -1.3153  0.4495
  440SOL     OW 1318   3.068   0.486   3.056 -0.0807  0.0571  0.3230
  440SOL    HW1 1319   2.994   0.454   0.047  2.4851 -2.0777 -0.3434
  440SOL    HW2 1320   0.084   0.437   0.018 -2.8978 -1.3900  0.0803
  441SOL     OW 1321   0.821   1.918   1.453  0.4560 -0.0765 -0.5510
  441SOL    HW1 1322   0.853   2.016   1.460  1.6605  1.0717  2.4286
  441SOL    HW2 1323   0.899   1.854   1.426  1.8203 -3.0912 -0.3706
  442SOL     OW 1324   1.759   1.595   0.927  0.2404  0.1547 -0.3964
  442SOL    HW1 1325   1.765   1.503   0.890  1.0958  3.0874 -2.9111
  442SOL    HW2 1326   1.848   1.612   0.971 -0.1137 -0.2679  1.0308
  443SOL     OW 1327   2.534   1.883   2.567  0.4669  0.4410  0.3100
  443SOL    HW1 1328   2.577   1.926   2.487  3.5163 -1.0063 -2.8289
  443SOL    HW2 1329   2.460   1.944   2.604 -0.2044 -0.5288 -0.6216
  444SOL     OW 1330   1.924   1.609   2.774 -0.0936  0.1170 -0.8340
  444SOL    HW1 1331   1.850   1.663   2.818 -1.7502 -0.1245  0.1399
  444SOL    HW2 1332   2.011   1.659   2.772 -1.5852 -0.4817  0.2823
  445SOL     OW 1333   2.723   2.673   2.111 -0.0131 -0.6956 -0.6692
  445SOL    HW1 1334   2.739   2.620   2.198  0.7416 -1.0219  2.9175
  445SOL    HW2 1335   2.772   2.635   2.029  1.4925 -3.2257  2.1152
  446SOL     OW 1336   1.178   0.988   1.736 -0.6584 -0.1535 -0.3618
  446SOL    HW1 1337   1.226   0.963   1.651  0.2177 -4.5129  3.1760
  446SOL    HW2 1338   1.111   0.912   1.763 -2.9835  0.5231  0.9791
  447SOL     OW 1339   0.893   0.935   1.082 -0.4062  0.6067 -0.1189
  447SOL    HW1 1340   0.964   0.859   1.083  2.9501 -0.5084  1.9807
  447SOL    HW2 1341   0.935   1.028   1.063  0.3810  0.8096 -0.9499
  448SOL     OW 1342   1.221   1.275   2.517  0.7119 -0.8138  0.2999
  448SOL    HW1 1343   1.195   1.277   2.417 -0.5645 -0.4474 -0.9864
  448SOL    HW2 1344   1.197   1.370   2.556  0.1923  1.4795  0.6545
  449SOL     OW 1345   2.942   1.951   2.452 -0.2683 -0.0192  0.0512
  449SOL    HW1 1346   3.027   1.916   2.500  1.9317 -1.0253 -0.2444
  449SOL    HW2 1347   2.947   1.945   2.349  0.3876  2.9754 -0.6895
  450SOL     OW 1348   2.093   1.530   1.947  0.4649 -0.0992  0.3165
  450SOL    HW1 1349   2.085   1.586   2.033 -2.4420  0.9273  1.7416
  450SOL    HW2 1350   2.035   1.573   1.872 -2.0776  0.5142 -2.3550
  451SOL     OW 1351   2.706   1.370   1.269 -0.1254  0.3840  0.6745
  451SOL    HW1 1352   2.790   1.411   1.305 -0.4394 -1.3244 -0.3334
  451SOL    HW2 1353   2.648   1.317   1.336  0.2984 -2.4899 -0.5880
  452SOL     OW 1354   0.516   1.116   1.602 -0.0618  0.2564  0.1493
  452SOL    HW1 1355   0.488   1.037   1.539 -0.3420 -0.3606 -3.7438
  452SOL    HW2 1356   0.546   1.190   1.540  0.1921 -2.2153 -2.2867
  453SOL     OW 1357   0.391   0.967   0.607  0.0796  0.3495  0.2390
  453SOL    HW1 1358   0.317   1.028   0.565 -1.6565  1.8904  0.9980
  453SOL    HW2 1359   0.430   1.013   0.686  0.0657  0.7807  0.0707
  454SOL     OW 1360   0.709   1.606   0.158 -0.3402 -0.0415  0.3616
  454SOL    HW1 1361   0.730   1.703   0.190 -3.5449  0.0762  0.5044
  454SOL    HW2 1362   0.612   1.600   0.128 -0.4521 -1.7235  1.8187
  455SOL     OW 1363   1.858   0.770   1.186  0.4154  0.0566  0.1888
  455SOL    HW1 1364   1.794   0.771   1.261 -0.7356 -0.9396 -1.4944
  455SOL    HW2 1365   1.942   0.716   1.215  1.2300 -1.2074  0.7716
  456SOL     OW 1366   1.632   2.760   0.952  0.3193 -0.0749 -0.3513
  456SOL    HW1 1367   1.713   2.777   0.893  0.5634  0.8388 -1.3672
  456SOL    HW2 1368   1.654   2.774   1.053 -0.2263 -1.1058  0.2041
  457SOL     OW 1369   1.897   0.311   2.573  0.4154 -0.2951  0.3259
  457SOL    HW1 1370   1.839   0.390   2.554  0.7240  0.2017 -0.9212
  457SOL    HW2 1371   1.867   0.244   2.507 -0.9201  1.9072  0.6839
  458SOL     OW 1372   2.564   0.713   2.792 -0.2902 -0.1029 -0.2213
  458SOL    HW1 1373   2.488   0.749   2.738 -0.8755 -0.5498 -1.2845
  458SOL    HW2 1374   2.652   0.731   2.742  0.2681  1.6158 -0.9255
  459SOL     OW 1375   0.106   1.657   2.106  0.3070 -0.4992  0.7605
  459SOL    HW1 1376   0.195   1.698   2.078 -2.5143 -1.2909  1.0861
  459SOL    HW2 1377   0.107   1.577   2.168 -0.3068  1.7799 -1.1263
  460SOL     OW 1378   0.427   0.748   3.054  0.0981  0.0994  0.2811
  460SOL    HW1 1379   0.339   0.758   3.004  1.2481  4.4142  0.4823
  460SOL    HW2 1380   0.510   0.783   3.004  0.4832  1.0003 -3.5338
  461SOL     OW 1381   0.002   2.339   0.453 -0.3353 -0.3195 -0.1931
  461SOL    HW1 1382   3.054   2.238   0.463 -2.9385 -0.6854  1.3124
  461SOL    HW2 1383   0.095   2.351   0.493  0.4196 -1.3575 -1.4684
  462SOL     OW 1384   0.034   2.698   1.577  0.4101 -0.4348 -0.0239
  462SOL    HW1 1385   3.056   2.763   1.514  1.0546  2.5935 -0.3089
  462SOL    HW2 1386   0.043   2.610   1.530  0.1085  2.6905 -0.4516
  463SOL     OW 1387   1.798   1.966   1.712  0.0210  0.5078 -0.3335
  463SOL    HW1 1388   1.729   1.982   1.640 -2.1356  1.0471  1.5214
  463SOL    HW2 1389   1.892   1.966   1.668  0.7635  1.2658 -0.3735
  464SOL     OW 1390   3.054   2.684   0.766  0.3704  0.3739  0.1000
  464SOL    HW1 1391   3.032   2.784   0.784 -1.5547 -1.7794  1.3554
  464SOL    HW2 1392   0.065   2.652   0.807  1.8742  2.0201 -1.9756
  465SOL     OW 1393   0.245   0.212   1.584  0.1557  0.0766 -0.0982
  465SOL    HW1 1394   0.236   0.112   1.572  0.1450 -4.2354 -0.2719
  465SOL    HW2 1395   0.249   0.237   1.684 -0.6483 -3.8459  0.8898
  466SOL     OW 1396   1.088   2.323   2.420  0.3623 -0.0114  0.1187
  466SOL    HW1 1397   1.116   2.255   2.354  2.0392  1.9874  3.2117
  466SOL    HW2 1398   1.017   2.284   2.479 -0.9484  0.8314 -0.8386
  467SOL     OW 1399   2.896   1.477   1.024 -0.2464  0.1980 -0.1121
  467SOL    HW1 1400   2.898   1.488   1.125  0.8176  0.8735  1.1434
  467SOL    HW2 1401   2.843   1.549   0.976  0.7603  2.9854 -2.3020
  468SOL     OW 1402   2.320   1.995   2.740  0.7993  0.5340 -0.5662
  468SOL    HW1 1403   2.281   2.005   2.647  0.2222  2.5964  1.0445
  468SOL    HW2 1404   2.272   2.063   2.807  0.1429  1.3622  0.0186
  469SOL     OW 1405   1.324   2.134   0.608 -0.4149  0.0896  0.3091
  469SOL    HW1 1406   1.373   2.123   0.517  0.1480  0.3886  2.7523
  469SOL    HW2 1407   1.303   2.042   0.654 -0.5565  1.5158  4.6789
  470SOL     OW 1408   1.938   1.423   1.503  0.2465  0.1641  0.2318
  470SOL    HW1 1409   1.991   1.336   1.494  0.9434 -0.7428 -0.4292
  470SOL    HW2 1410   1.987   1.496   1.560  1.0024  2.7508  3.6643
  471SOL     OW 1411   0.562   2.380   0.281  0.2961  0.6928  0.4743
  471SOL    HW1 1412   0.623   2.341   0.207 -2.9280  0.3403 -3.6700
  471SOL    HW2 1413   0.617   2.406   0.359 -2.0841  1.2604 -0.6158
  472SOL     OW 1414   2.284   1.857   2.182  0.4987  0.0764  0.0206
  472SOL    HW1 1415   2.364   1.902   2.138  3.4523 -1.1447 -1.8266
  472SOL    HW2 1416   2.316   1.764   2.217  0.6676  0.6306  0.4245
  473SOL     OW 1417   1.243   2.305   1.021  0.0202  0.0484  0.0500
  473SOL    HW1 1418   1.149   2.269   1.044  0.0368  0.9420  2.6478
  473SOL    HW2 1419   1.242   2.408   1.023 -3.3309  1.2572  0.4570
  474SOL     OW 1420   2.811   0.267   1.291  0.0292  0.3317 -0.0360
  474SOL    HW1 1421   2.816   0.255   1.393  0.3015 -1.3961  3.8338
  474SOL    HW2 1422   2.773   0.186   1.250 -0.0397  4.1895  0.4854
  475SOL     OW 1423   2.319   2.808   2.002 -0.6430  0.1134 -0.0099
  475SOL    HW1 1424   2.335   2.809   2.101  1.5294 -0.2693 -0.5430
  475SOL    HW2 1425   2.347   2.892   1.961 -0.9200  0.1707  0.2955
  476SOL     OW 1426   0.472   0.492   0.757  0.0249 -0.0030 -0.3618
  476SOL    HW1 1427   0.522   0.438   0.683  3.5373 -2.6295 -2.7319
  476SOL    HW2 1428   0.390   0.449   0.798  2.2568  1.1483 -2.4441
  477SOL     OW 1429   0.639   2.044   0.857  0.2309  0.5665  0.0616
  477SOL    HW1 1430   0.727   2.007   0.901  3.1089 -0.2475  0.3787
  477SOL    HW2 1431   0.570   1.970   0.856 -1.6828 -0.5842 -0.9105
  478SOL     OW 1432   1.073   2.247   2.908 -0.6365  0.4389  0.4616
  478SOL    HW1 1433   1.095   2.147   2.903  0.8614  0.1766 -0.4074
  478SOL    HW2 1434   1.040   2.273   2.813  1.1049 -2.2841  0.0051
  479SOL     OW 1435   2.886   1.181   1.922 -0.1379  0.5402  0.8019
  479SOL    HW1 1436   2.871   1.092   1.871  2.5095 -0.9790 -0.4092
  479SOL    HW2 1437   2.884   1.266   1.866 -1.2490  2.0016 -0.0780
  480SOL     OW 1438   0.108   2.383   0.016  0.3115  0.2678 -0.3639
  480SOL    HW1 1439   0.038   2.386   0.089 -0.9679 -0.1460  1.6732
  480SOL    HW2 1440   0.069   2.328   3.008 -0.4687  0.3878  0.0891
  481SOL     OW 1441   1.601   2.936   2.164 -0.2197  0.6212  0.3435
  481SOL    HW1 1442   1.696   2.915   2.197  1.2168 -1.9964  3.4791
  481SOL    HW2 1443   1.590   3.033   2.135  0.5775  0.0026  1.9103
  482SOL     OW 1444   1.697   1.963   2.957  0.0180  0.2485 -0.0662
  482SOL    HW1 1445   1.780   2.018   2.975 -1.6851 -1.1976  1.5727
  482SOL    HW2 1446   1.634   2.014   2.891  0.0094  0.3670 -0.6125
  483SOL     OW 1447   0.919   2.562   2.771  0.3781 -0.0940 -0.2228
  483SOL    HW1 1448   1.001   2.500   2.784 -0.6760 -1.8843  0.3002
  483SOL    HW2 1449   0.837   2.503   2.774 -2.8885 -0.5917  1.0794
  484SOL     OW 1450   0.530   2.688   1.066 -0.0051 -0.3956 -0.6019
  484SOL    HW1 1451   0.428   2.712   1.088 -1.6881 -0.8010  0.0721
  484SOL    HW2 1452   0.591   2.769   1.074 -1.2192  0.4687  0.0739
  485SOL     OW 1453   2.220   0.460   0.830 -0.4308  0.1728  0.4685
  485SOL    HW1 1454   2.132   0.487   0.872  0.8554 -0.9691 -0.7803
  485SOL    HW2 1455   2.271   0.399   0.894 -1.3479  0.3983  0.6484
  486SOL     OW 1456   2.009   2.646   2.399  0.0996 -1.0930 -0.2695
  486SOL    HW1 1457   1.992   2.740   2.432 -1.0597 -0.7123 -0.1903
  486SOL    HW2 1458   2.104   2.624   2.432 -0.8839  1.9430  0.5491
  487SOL     OW 1459   0.980   1.594   0.794  0.2413  0.6369  0.4558
  487SOL    HW1 1460   0.879   1.571   0.789 -0.5102  3.2010  2.3361
  487SOL    HW2 1461   0.990   1.689   0.753 -0.6736 -2.8806 -0.7413
  488SOL     OW 1462   2.270   0.333   0.142 -0.3027  0.0536 -0.0384
  488SOL    HW1 1463   2.284   0.409   0.212  0.8235 -0.7596 -1.2926
  488SOL    HW2 1464   2.197   0.352   0.072  0.1444  1.3248 -0.8752
  489SOL     OW 1465   1.861   3.044   0.473 -0.0817 -0.2757 -0.0659
  489SOL    HW1 1466   1.887   2.949   0.493 -0.3802  1.6307  0.2655
  489SOL    HW2 1467   1.938   0.033   0.473 -0.4237  0.0480 -0.7226
  490SOL     OW 1468   1.451   0.145   2.860 -0.2377 -0.1217 -0.3962
  490SOL    HW1 1469   1.495   0.185   2.944 -0.6606 -0.0564 -0.7111
  490SOL    HW2 1470   1.515   0.086   2.810  0.8721 -0.1838 -1.1406
  491SOL     OW 1471   0.662   0.068   1.023 -0.1239  0.0611 -0.2413
  491SOL    HW1 1472   0.694   0.113   1.114  0.7807  3.5726  5.1672
  491SOL    HW2 1473   0.735   0.090   0.951  0.1300 -0.4276 -1.7945
  492SOL     OW 1474   1.685   3.068   0.270  0.0662  0.0622  0.0490
  492SOL    HW1 1475   1.734   3.068   0.363  1.4698 -2.3850 -1.0182
  492SOL    HW2 1476   1.665   2.969   0.243  0.0542 -1.5699  0.3160
  493SOL     OW 1477   1.408   2.182   2.932 -0.1517  0.1055 -0.1866
  493SOL    HW1 1478   1.316   2.140   2.944  1.9743 -1.3549  3.9492
  493SOL    HW2 1479   1.459   2.130   2.862  0.4148 -0.3503 -1.9910
  494SOL     OW 1480   0.468   1.077   1.081 -0.2989 -0.1396  0.0578
  494SOL    HW1 1481   0.547   1.068   1.152  3.4284 -0.7559  1.1689
  494SOL    HW2 1482   0.510   1.053   0.989  1.3004 -1.2171  1.4625
  495SOL     OW 1483   0.039   0.599   1.472 -0.1874 -0.0623  0.2398
  495SOL    HW1 1484   0.069   0.695   1.469 -2.2485 -1.3990 -0.9410
  495SOL    HW2 1485   3.042   0.587   1.544  1.3519 -0.1004  0.7901
  496SOL     OW 1486   2.257   2.425   2.191 -0.0216 -0.0233  0.0829
  496SOL    HW1 1487   2.337   2.482   2.146  3.0310  1.1939  0.2235
  496SOL    HW2 1488   2.166   2.468   2.190  0.6216 -0.9305  1.1902
  497SOL     OW 1489   1.598   1.159   2.734  0.1682  0.1171 -0.1342
  497SOL    HW1 1490   1.686   1.191   2.705 -2.1407  1.6742 -0.2284
  497SOL    HW2 1491   1.537   1.180   2.657 -2.5090  1.8881  0.8726
  498SOL     OW 1492   0.994   2.138   0.501 -0.3398  0.3758  0.3493
  498SOL    HW1 1493   1.010   2.212   0.565  0.8759 -1.3892  0.0586
  498SOL    HW2 1494   0.903   2.092   0.522  1.2813 -1.0075 -1.5173
  499SOL     OW 1495   0.193   1.544   0.956 -0.3404  0.0216  0.5916
  499SOL    HW1 1496   0.121   1.579   0.888 -1.2066  1.2541  0.9456
  499SOL    HW2 1497   0.181   1.447   0.976 -1.2452  1.4782  1.8620
  500SOL     OW 1498   1.364   2.698   0.549 -0.0109  0.1949  0.2615
  500SOL    HW1 1499   1.362   2.694   0.449 -0.1588 -1.9628  0.7895
  500SOL    HW2 1500   1.440   2.643   0.589  2.5461  0.5159  1.2342
  501SOL     OW 1501   1.919   2.533   0.953 -0.2217  0.6166 -0.1822
  501SOL    HW1 1502   1.988   2.476   0.906  0.6347 -0.2657  2.4335
  501SOL    HW2 1503   1.827   2.487   0.929  0.2334  1.1691  1.0333
  502SOL     OW 1504   0.189   0.475   1.236 -0.5452  0.0725 -0.1734
  502SOL    HW1 1505   0.128   0.501   1.316 -2.9491 -2.0072  1.7601
  502SOL    HW2 1506   0.236   0.556   1.202 -1.1218 -1.7501 -0.1725
  503SOL     OW 1507   2.014   0.019   1.652  0.0915 -0.5285 -0.1676
  503SOL    HW1 1508   1.948   3.061   1.578  0.2946 -0.0891 -0.9381
  503SOL    HW2 1509   2.074   3.012   1.677  0.1420  0.4510 -1.7808
  504SOL     OW 1510   2.128   0.584   1.752  0.2090 -0.5452  0.2194
  504SOL    HW1 1511   2.058   0.585   1.679 -1.0080  0.7970 -1.5485
  504SOL    HW2 1512   2.186   0.668   1.732  3.5404  4.7741 -0.9710
  505SOL     OW 1513   1.164   2.807   2.314 -0.1849 -0.1189 -0.2330
  505SOL    HW1 1514   1.167   2.711   2.287 -0.1218 -0.0304 -1.3696
  505SOL    HW2 1515   1.236   2.835   2.377 -3.0982 -1.7018 -0.2883
  506SOL     OW 1516   0.545   0.582   1.838 -0.3832  0.2523 -0.2523
  506SOL    HW1 1517   0.542   0.525   1.753  0.1437 -1.7776 -1.0123
  506SOL    HW2 1518   0.585   0.673   1.823  0.8526  1.5800  1.1217
  507SOL     OW 1519   1.519   0.309   3.069  0.6172 -0.1034 -0.1144
  507SOL    HW1 1520   1.478   0.380   0.053  0.1601  0.1006 -0.0980
  507SOL    HW2 1521   1.617   0.308   0.016 -0.5509 -0.6787  0.2169
  508SOL     OW 1522   2.048   0.509   2.017  0.1651 -0.2122 -0.0317
  508SOL    HW1 1523   2.075   0.534   1.923 -1.3271 -1.0967  1.7023
  508SOL    HW2 1524   2.095   0.423   2.043  0.7056 -0.9326  1.6207
  509SOL     OW 1525   0.847   1.574   2.532  0.9559  0.3513  0.2024
  509SOL    HW1 1526   0.750   1.590   2.562 -0.9610  1.2787  0.4759
  509SOL    HW2 1527   0.879   1.616   2.448 -2.3568 -0.1580  5.3563
  510SOL     OW 1528   2.854   0.639   0.717 -0.1765 -0.3311 -0.3085
  510SOL    HW1 1529   2.951   0.646   0.755  1.9674  0.4581 -0.4987
  510SOL    HW2 1530   2.788   0.698   0.769 -0.8689  2.8424  1.7088
  511SOL     OW 1531   1.616   1.439   1.478  0.0575 -0.2859 -0.5408
  511SOL    HW1 1532   1.628   1.524   1.530 -0.3848 -3.7371  0.0830
  511SOL    HW2 1533   1.707   1.397   1.459  1.0527 -2.2450 -1.2329
  512SOL     OW 1534   0.357   1.576   0.441 -0.1372 -0.2049  0.5688
  512SOL    HW1 1535   0.441   1.595   0.493 -1.7088  1.6723  1.3237
  512SOL    HW2 1536   0.281   1.537   0.499  0.4076  0.0293 -2.8381
  513SOL     OW 1537   0.504   2.154   1.207 -0.9078  0.1371  0.1886
  513SOL    HW1 1538   0.437   2.076   1.202  0.3468 -1.0822 -1.6689
  513SOL    HW2 1539   0.508   2.206   1.116  0.5914 -2.1203 -0.0030
  514SOL     OW 1540   0.360   2.209   0.366  0.1602  0.0229 -0.0304
  514SOL    HW1 1541   0.330   2.251   0.450 -0.8556 -0.8303 -0.0889
  514SOL    HW2 1542   0.428   2.271   0.325 -2.3018  0.7102  1.9165
  515SOL     OW 1543   2.906   2.813   3.062 -0.7009 -0.5080 -0.2382
  515SOL    HW1 1544   2.908   2.873   0.073  1.5387 -2.4221  0.2176
  515SOL    HW2 1545   3.002   2.770   3.053  1.1288  0.2156 -1.9770
  516SOL     OW 1546   1.936   0.085   1.193 -0.2286 -0.2840 -0.8078
  516SOL    HW1 1547   1.881   0.102   1.281 -0.3438  0.0046  2.7208
  516SOL    HW2 1548   1.916   3.060   1.169  2.4511 -0.1822  0.2117
  517SOL     OW 1549   1.640   1.349   0.555 -0.5070  0.5748  0.3253
  517SOL    HW1 1550   1.643   1.441   0.602  1.2311 -0.8845  2.8388
  517SOL    HW2 1551   1.569   1.291   0.597 -0.7422 -1.0084 -1.1416
  518SOL     OW 1552   1.210   0.322   0.965 -0.0675 -0.2999 -0.0187
  518SOL    HW1 1553   1.111   0.332   0.994 -2.1199 -1.6720 -1.1956
  518SOL    HW2 1554   1.211   0.305   0.861 -0.0471  1.5359 -2.4635
  519SOL     OW 1555   2.697   2.502   0.385  0.1121  0.4462  0.6039
  519SOL    HW1 1556   2.690   2.598   0.352  1.9953 -0.3955  0.4326
  519SOL    HW2 1557   2.769   2.495   0.456 -0.7204 -0.4153  2.0864
  520SOL     OW 1558   1.873   2.134   1.935 -0.5154 -0.7699 -0.5016
  520SOL    HW1 1559   1.866   2.189   2.018 -1.0976  1.0314 -4.0823
  520SOL    HW2 1560   1.850   2.040   1.955  4.6072  0.0285  1.0370
  521SOL     OW 1561   1.582   2.652   2.156  0.1851 -0.7226  0.3150
  521SOL    HW1 1562   1.484   2.632   2.129 -0.4663  2.3013 -2.8514
  521SOL    HW2 1563   1.593   2.751   2.151  0.1869 -2.7879 -1.0717
  522SOL     OW 1564   2.921   0.007   1.741 -0.2486 -0.1641  0.1159
  522SOL    HW1 1565   2.904   0.064   1.658  1.1943 -0.8521 -1.1493
  522SOL    HW2 1566   2.851   3.010   1.760  0.3133  2.4641 -1.7741
  523SOL     OW 1567   0.905   2.180   1.564  0.2399 -0.3350 -0.0035
  523SOL    HW1 1568   0.827   2.224   1.515 -0.0594 -0.1070  1.5875
  523SOL    HW2 1569   0.986   2.187   1.508 -1.3928  0.4004 -1.4447
  524SOL     OW 1570   2.174   2.088   0.130  0.1629 -0.2196 -0.5202
  524SOL    HW1 1571   2.180   2.020   0.054 -1.9300  1.0590  2.3915
  524SOL    HW2 1572   2.268   2.126   0.148  2.4053  1.6329 -0.1052
  525SOL     OW 1573   2.865   0.873   0.070 -0.2356  0.6868  0.3503
  525SOL    HW1 1574   2.963   0.852   0.057 -1.0169  0.5401  0.6153
  525SOL    HW2 1575   2.827   0.909   3.056  0.0923 -2.8851 -0.6126
  526SOL     OW 1576   0.701   3.005   0.480  0.2160 -0.2168 -0.1265
  526SOL    HW1 1577   0.793   2.969   0.497  0.6465 -0.8959 -0.8265
  526SOL    HW2 1578   0.670   3.059   0.563  0.3073  0.5771 -1.3900
  527SOL     OW 1579   2.581   1.370   0.506 -0.5518 -0.0324  0.0511
  527SOL    HW1 1580   2.497   1.331   0.544  1.6008  0.4019 -2.4087
  527SOL    HW2 1581   2.575   1.471   0.483  0.6891  0.8235 -1.6166
  528SOL     OW 1582   0.689   0.783   2.427  0.0379 -0.3260  0.2011
  528SOL    HW1 1583   0.719   0.877   2.446 -1.3071 -1.6908  0.4751
  528SOL    HW2 1584   0.589   0.780   2.408 -2.1565  0.1326 -1.6671
  529SOL     OW 1585   0.438   1.576   0.075 -0.0548  0.1514  0.4252
  529SOL    HW1 1586   0.357   1.563   0.137  2.1093 -1.4854  0.0869
  529SOL    HW2 1587   0.409   1.633   3.066 -0.2455  0.0428 -1.6705
  530SOL     OW 1588   1.300   0.955   2.172  0.0834 -0.1064  0.4292
  530SOL    HW1 1589   1.385   0.927   2.216 -4.7134 -1.3990 -0.4347
  530SOL    HW2 1590   1.241   0.871   2.156 -2.9577 -0.8165  1.1120
  531SOL     OW 1591   1.299   2.053   0.136 -0.1001  0.0249 -0.1963
  531SOL    HW1 1592   1.399   2.073   0.149  1.7608  1.9790 -1.2609
  531SOL    HW2 1593   1.278   1.950   0.117  0.4744  0.1622 -0.7014
  532SOL     OW 1594   2.152   1.020   2.517 -0.7806  0.2341  0.0611
  532SOL    HW1 1595   2.055   0.994   2.517  1.3268 -1.8427 -0.7784
  532SOL    HW2 1596   2.175   1.099   2.572 -1.9519 -0.3000 -0.4122
  533SOL     OW 1597   0.088   0.596   1.880 -0.3140 -0.1905 -0.0878
  533SOL    HW1 1598   0.109   0.510   1.928  0.0304  3.1454 -3.0276
  533SOL    HW2 1599   0.017   0.578   1.811 -1.2362 -1.1693  3.7598
  534SOL     OW 1600   1.862   0.099   0.104  0.2325  0.1214  0.1526
  534SOL    HW1 1601   1.842   0.198   0.088  1.1987 -3.4298  0.9846
  534SOL    HW2 1602   1.805   0.063   0.177  0.2051  1.0719  1.6485
  535SOL     OW 1603   0.571   0.026   2.973  0.2263  0.2159  0.2256
  535SOL    HW1 1604   0.661   0.045   2.926  0.5841 -0.3555 -0.4109
  535SOL    HW2 1605   0.539   0.100   3.037 -0.9712  0.4327  2.4011
  536SOL     OW 1606   0.564   1.897   1.530 -0.0521  0.5271 -0.1782
  536SOL    HW1 1607   0.523   1.803   1.521  0.2993 -1.0748 -0.7662
  536SOL    HW2 1608   0.662   1.894   1.505 -0.9382  0.9979  0.0899
  537SOL     OW 1609   2.813   2.611   1.823  0.5798  0.5817  0.4224
  537SOL    HW1 1610   2.896   2.592   1.767  0.0913  0.6767 -1.1886
  537SOL    HW2 1611   2.785   2.706   1.815  1.8468 -2.9558 -1.5643
  538SOL     OW 1612   3.057   2.070   0.429 -0.4109  0.5708  0.0207
  538SOL    HW1 1613   0.083   2.040   0.398 -0.4713 -0.7392 -1.2280
  538SOL    HW2 1614   2.995   1.994   0.406 -1.8562 -0.4839 -1.1051
  539SOL     OW 1615   2.353   0.869   2.617 -0.4735  0.2817  0.0237
  539SOL    HW1 1616   2.284   0.927   2.570  0.6880  2.5193  1.1646
  539SOL    HW2 1617   2.372   0.914   2.707 -1.4674  3.0548 -1.3226
  540SOL     OW 1618   1.932   0.925   2.975  0.2167 -0.4938  0.0329
  540SOL    HW1 1619   1.927   1.025   2.996  1.7234  0.9109 -0.0928
  540SOL    HW2 1620   1.866   0.869   3.024  1.0914  1.4919 -1.9265
  541SOL     OW 1621   0.992   0.540   2.117  0.0177  0.5771 -0.4814
  541SOL    HW1 1622   1.018   0.450   2.157  2.5907 -0.7509  5.2254
  541SOL    HW2 1623   0.918   0.590   2.173 -1.0565  2.1821  0.7360
  542SOL     OW 1624   1.592   2.272   2.106 -0.1638 -0.1703  0.1718
  542SOL    HW1 1625   1.567   2.370   2.127  2.1046  2.3510  0.5884
  542SOL    HW2 1626   1.693   2.272   2.136  2.2317  1.8409  2.4201
  543SOL     OW 1627   1.082   2.830   0.328  0.5965 -0.3986  0.2849
  543SOL    HW1 1628   1.062   2.897   0.400  0.9173  0.2625  1.0183
  543SOL    HW2 1629   0.996   2.814   0.275 -0.3889 -0.0363 -1.8086
  544SOL     OW 1630   2.728   1.821   2.094 -0.5003 -0.6534  0.0173
  544SOL    HW1 1631   2.720   1.747   2.163  3.5228  1.4148  2.1320
  544SOL    HW2 1632   2.644   1.878   2.086 -1.6955  1.3319  2.2109
  545SOL     OW 1633   1.386   1.931   1.456 -0.0823  0.0282  0.2644
  545SOL    HW1 1634   1.326   1.894   1.528 -1.2734 -0.1804 -1.0445
  545SOL    HW2 1635   1.325   1.954   1.379 -2.0460  0.3133 -2.3182
  546SOL     OW 1636   0.187   0.216   2.334 -1.1968 -0.5871  0.4514
  546SOL    HW1 1637   0.279   0.243   2.289  2.7055 -1.4533 -0.2301
  546SOL    HW2 1638   0.210   0.147   2.403 -0.0986  0.0200  0.4559
  547SOL     OW 1639   0.901   0.252   0.477 -0.2311 -0.2597 -0.4642
  547SOL    HW1 1640   0.841   0.246   0.391 -1.5937 -3.4666  0.5211
  547SOL    HW2 1641   0.975   0.320   0.457 -1.6959  2.0037 -0.5456
  548SOL     OW 1642   1.585   2.111   0.146 -0.2825 -0.1015  0.8631
  548SOL    HW1 1643   1.568   2.204   0.103 -1.0790  2.6190 -1.1438
  548SOL    HW2 1644   1.626   2.058   0.068  0.8245  3.1455  0.3328
  549SOL     OW 1645   2.122   0.950   0.440 -0.3750  0.3030 -0.2156
  549SOL    HW1 1646   2.050   1.005   0.394  0.6621 -0.0930 -0.9003
  549SOL    HW2 1647   2.215   0.993   0.424  0.1043  1.5371  1.1569
  550SOL     OW 1648   2.538   2.343   0.536 -0.4231 -0.7535 -0.0090
  550SOL    HW1 1649   2.517   2.250   0.504  2.1525  2.2982 -3.8909
  550SOL    HW2 1650   2.589   2.399   0.470  0.0178  1.4083  0.0118
  551SOL     OW 1651   1.147   0.384   1.392  0.0675  0.2811  0.2042
  551SOL    HW1 1652   1.216   0.380   1.318 -0.7131 -0.2474  0.5613
  551SOL    HW2 1653   1.129   0.294   1.440 -1.3354 -1.9511  2.6090
  552SOL     OW 1654   2.833   2.047   2.893 -0.0553 -0.3072  0.0582
  552SOL    HW1 1655   2.784   1.970   2.847 -4.4373 -2.3715 -2.6748
  552SOL    HW2 1656   2.809   2.046   2.992  1.2758 -0.5416 -1.6798
  553SOL     OW 1657   2.639   2.637   0.700  0.1539  0.7489 -0.0883
  553SOL    HW1 1658   2.558   2.664   0.642 -0.8852 -1.0883 -0.5460
  553SOL    HW2 1659   2.702   2.569   0.652  2.9727 -1.7512  3.1637
  554SOL     OW 1660   1.944   1.137   1.743  0.0578  0.3619  0.0557
  554SOL    HW1 1661   1.972   1.162   1.647 -2.6998 -0.2087  0.0117
  554SOL    HW2 1662   2.000   1.189   1.808  0.6006 -2.4385 -1.7433
  555SOL     OW 1663   1.109   2.175   1.991 -0.0862 -0.1173  0.0626
  555SOL    HW1 1664   1.035   2.240   1.983  0.1542  0.6784 -2.6541
  555SOL    HW2 1665   1.090   2.093   1.937 -1.2411  0.7762 -0.7213
  556SOL     OW 1666   1.279   1.515   1.789  0.2000 -0.5902 -0.9742
  556SOL    HW1 1667   1.317   1.570   1.862  0.7057  0.9952 -0.9370
  556SOL    HW2 1668   1.344   1.445   1.762  1.3476  4.2815  1.5595
  557SOL     OW 1669   1.500   3.040   1.627 -0.0657  0.4506 -0.1279
  557SOL    HW1 1670   1.426   3.045   1.698 -2.3857 -1.7281  1.9621
  557SOL    HW2 1671   1.479   2.964   1.560 -0.0606 -1.3897 -2.2406
  558SOL     OW 1672   0.666   2.922   2.018  0.1129 -0.0128 -0.0028
  558SOL    HW1 1673   0.601   2.962   1.952  1.0483  1.4711 -0.6443
  558SOL    HW2 1674   0.685   2.827   1.990 -0.9657  0.0726  1.0693
  559SOL     OW 1675   1.713   2.570   0.316 -0.0282  0.8204 -0.1435
  559SOL    HW1 1676   1.675   2.658   0.269  0.2046  0.3381 -1.2156
  559SOL    HW2 1677   1.691   2.560   0.415 -1.5360 -1.2532  0.7505
  560SOL     OW 1678   1.482   2.173   0.398 -0.2909 -0.3617  0.6330
  560SOL    HW1 1679   1.514   2.120   0.315  1.1730  1.7433  0.3202
  560SOL    HW2 1680   1.415   2.250   0.377 -2.1669 -2.2542  0.6778
  561SOL     OW 1681   1.549   0.370   0.476 -0.4598 -0.7352 -0.1732
  561SOL    HW1 1682   1.606   0.310   0.533 -0.5791  2.1802  1.1168
  561SOL    HW2 1683   1.451   0.349   0.479  0.3994 -0.2340 -1.4986
  562SOL     OW 1684   0.627   1.390   1.900  0.2409  0.1240  0.2888
  562SOL    HW1 1685   0.726   1.414   1.902  3.4370 -0.0822  0.9250
  562SOL    HW2 1686   0.613   1.318   1.832  1.4469  0.2933  0.4442
  563SOL     OW 1687   1.545   2.047   2.753 -0.2237 -0.2589 -0.1464
  563SOL    HW1 1688   1.517   1.965   2.703 -0.9477  2.8090  2.2589
  563SOL    HW2 1689   1.561   2.125   2.688  1.8471 -1.1052  2.5838
  564SOL     OW 1690   2.998   0.877   0.901 -0.6733  0.3161  0.4005
  564SOL    HW1 1691   2.916   0.929   0.939 -2.2034  1.7562 -1.8598
  564SOL    HW2 1692   3.015   0.792   0.951  1.7213 -0.6541  0.3349
  565SOL     OW 1693   0.558   1.312   0.083 -0.2955 -0.3283 -0.4955
  565SOL    HW1 1694   0.508   1.402   0.068  1.0477 -2.1701 -1.1379
  565SOL    HW2 1695   0.646   1.329   0.133  0.4375 -0.4513  1.4729
  566SOL     OW 1696   2.240   2.770   2.669  0.7814  0.0683  0.1544
  566SOL    HW1 1697   2.242   2.844   2.740 -0.2337 -2.7781  0.5222
  566SOL    HW2 1698   2.149   2.719   2.673 -0.9304 -1.0590 -1.8792
  567SOL     OW 1699   1.365   1.258   1.433  0.2387 -0.2936 -0.4325
  567SOL    HW1 1700   1.407   1.350   1.414 -0.8172 -0.4207 -0.6185
  567SOL    HW2 1701   1.352   1.240   1.534  0.0633 -1.2700 -1.2189
  568SOL     OW 1702   1.223   1.146   2.934  0.5725 -0.8205  0.8044
  568SOL    HW1 1703   1.162   1.178   3.013 -1.5630  0.7317  0.6655
  568SOL    HW2 1704   1.314   1.173   2.950 -1.2934 -2.1560 -1.5403
  569SOL     OW 1705   2.164   1.847   0.423  0.2409  0.1274 -0.2483
  569SOL    HW1 1706   2.092   1.876   0.357 -0.0564  0.8338 -0.2852
  569SOL    HW2 1707   2.206   1.925   0.474  0.8418  0.6556  1.2199
  570SOL     OW 1708   2.535   2.200   2.256 -0.1422  0.3471 -0.1756
  570SOL    HW1 1709   2.452   2.249   2.299 -0.4282  2.2892  2.2708
  570SOL    HW2 1710   2.577   2.260   2.188 -2.4818 -1.0447  0.0388
  571SOL     OW 1711   2.844   1.883   1.847 -0.2961 -0.2636 -0.6426
  571SOL    HW1 1712   2.913   1.808   1.858 -1.9033  0.1512 -3.3567
  571SOL    HW2 1713   2.788   1.877   1.927 -1.1903  1.5380  0.9941
  572SOL     OW 1714   1.555   2.393   0.164  0.8808  0.3633  0.6178
  572SOL    HW1 1715   1.467   2.377   0.212 -0.9988 -2.1307  0.4489
  572SOL    HW2 1716   1.601   2.467   0.212  0.1599 -1.0680  1.3630
  573SOL     OW 1717   1.444   1.824   0.727  0.0390  0.2023  0.4280
  573SOL    HW1 1718   1.523   1.884   0.755  1.7983 -0.0679  1.2013
  573SOL    HW2 1719   1.359   1.842   0.783 -3.7154 -1.6843 -0.7776
  574SOL     OW 1720   1.134   2.952   1.541  0.0490  0.3277  0.2958
  574SOL    HW1 1721   1.211   2.988   1.601  0.5168  1.9199  0.4252
  574SOL    HW2 1722   1.079   2.894   1.601  0.9473 -0.4178 -1.6716
  575SOL     OW 1723   0.996   0.898   1.360 -0.1670  0.6656 -0.2321
  575SOL    HW1 1724   0.945   0.960   1.307 -0.7460 -0.8976  1.3099
  575SOL    HW2 1725   0.938   0.854   1.429  2.4117  1.5226 -2.3322
  576SOL     OW 1726   2.652   0.066   1.135  0.4019 -0.1905  0.0490
  576SOL    HW1 1727   2.644   0.145   1.067  1.1506  3.2288 -2.9645
  576SOL    HW2 1728   2.589   0.069   1.215  1.1522 -3.0742  0.7237
  577SOL     OW 1729   1.727   0.524   2.538 -0.4438  0.2849  0.0982
  577SOL    HW1 1730   1.698   0.555   2.633 -0.7541  1.1031  3.0654
  577SOL    HW2 1731   1.748   0.608   2.483  1.1954  1.1196  0.0005
  578SOL     OW 1732   2.016   1.683   2.438  0.4686 -0.2670  0.1096
  578SOL    HW1 1733   1.944   1.615   2.460 -1.2539 -2.6423  1.6838
  578SOL    HW2 1734   1.995   1.777   2.470 -1.5590 -0.0806  0.1011
  579SOL     OW 1735   0.453   1.567   0.886  0.3846 -0.4879  0.1607
  579SOL    HW1 1736   0.357   1.566   0.920 -0.4965 -1.2411 -1.3071
  579SOL    HW2 1737   0.468   1.491   0.817  2.1608 -1.8404 -1.2199
  580SOL     OW 1738   1.283   2.426   2.956  0.1652  0.1190  0.1906
  580SOL    HW1 1739   1.372   2.379   2.965  0.1585  1.7371  0.1306
  580SOL    HW2 1740   1.204   2.362   2.951 -0.3860 -1.1881 -3.0558
  581SOL     OW 1741   1.206   0.700   2.157 -0.4661  0.4249 -0.2015
  581SOL    HW1 1742   1.271   0.646   2.218  0.7719 -0.4623 -0.3393
  581SOL    HW2 1743   1.113   0.657   2.147 -2.8992 -1.4866  0.9252
  582SOL     OW 1744   0.593   1.001   0.868 -0.4098 -0.3115  1.3238
  582SOL    HW1 1745   0.662   0.930   0.826  2.2926 -1.6316 -1.0557
  582SOL    HW2 1746   0.637   1.096   0.855  0.7848 -1.4269 -0.0642
  583SOL     OW 1747   0.753   1.683   2.122 -0.1762  0.1912  0.4792
  583SOL    HW1 1748   0.805   1.661   2.036 -0.2762  1.4415  0.7773
  583SOL    HW2 1749   0.814   1.660   2.202 -0.8701 -3.6437 -1.5972
  584SOL     OW 1750   2.177   2.772   0.406 -0.1231  0.1386 -0.1296
  584SOL    HW1 1751   2.133   2.764   0.501 -2.7878 -1.3177 -2.1884
  584SOL    HW2 1752   2.221   2.861   0.388 -1.7393  0.6993 -1.2300
  585SOL     OW 1753   1.894   0.585   3.002  0.0217  0.1987 -0.5161
  585SOL    HW1 1754   1.849   0.650   3.066  5.4971 -0.0829 -2.1449
  585SOL    HW2 1755   1.840   0.579   2.915  0.5192 -1.6273 -0.2169
  586SOL     OW 1756   0.109   1.758   0.600 -0.1779 -0.1255 -0.0402
  586SOL    HW1 1757   0.062   1.765   0.511 -0.1539  0.6854  1.3555
  586SOL    HW2 1758   0.157   1.670   0.607  0.1936  3.5056 -1.3158
  587SOL     OW 1759   1.659   1.948   0.815 -0.3135 -0.9714  0.1441
  587SOL    HW1 1760   1.643   2.036   0.765  0.9636 -1.2951 -0.5259
  587SOL    HW2 1761   1.756   1.925   0.801  3.0554 -1.7152  0.4314
  588SOL     OW 1762   0.292   0.352   0.892 -0.4806 -0.4563 -0.4651
  588SOL    HW1 1763   0.201   0.400   0.893  3.4643 -2.4885 -0.3074
  588SOL    HW2 1764   0.334   0.346   0.989  0.5194  2.7176  1.0587
  589SOL     OW 1765   0.968   0.385   1.093  0.4018  0.0188 -0.9035
  589SOL    HW1 1766   0.900   0.405   1.018  0.5233  1.1479 -3.9936
  589SOL    HW2 1767   1.003   0.472   1.134 -4.4895 -1.3165  1.4011
  590SOL     OW 1768   1.330   0.829   0.345  0.1544 -0.3503 -0.5990
  590SOL    HW1 1769   1.228   0.853   0.351 -0.8723 -3.4069  2.1037
  590SOL    HW2 1770   1.375   0.843   0.436  0.2211 -1.7911  2.0386
  591SOL     OW 1771   2.516   2.634   2.383  0.5758  1.1426  0.0008
  591SOL    HW1 1772   2.569   2.686   2.454  1.8878 -1.0843 -0.4419
  591SOL    HW2 1773   2.582   2.573   2.329 -0.1739 -0.1371 -0.0691
  592SOL     OW 1774   1.623   1.911   1.085  0.5311 -0.1781  0.3437
  592SOL    HW1 1775   1.675   1.910   0.998  0.6966  0.2931 -2.0901
  592SOL    HW2 1776   1.560   1.991   1.087 -0.4356 -2.3239 -2.4703
  593SOL     OW 1777   1.064   0.060   0.788  0.2010  0.3746  0.0031
  593SOL    HW1 1778   1.077   3.030   0.787 -1.0219 -1.2851  2.0189
  593SOL    HW2 1779   1.140   0.115   0.748  0.6041  1.3360 -1.2876
  594SOL     OW 1780   0.384   1.174   1.863  0.0216 -0.1004 -0.4920
  594SOL    HW1 1781   0.430   1.153   1.775 -1.0915  0.6269  3.1898
  594SOL    HW2 1782   0.315   1.106   1.881  0.7096  0.2324 -0.1096
  595SOL     OW 1783   0.245   2.633   0.833 -0.0556  0.7975 -0.5280
  595SOL    HW1 1784   0.270   2.602   0.926 -0.2405  0.3560 -1.2118
  595SOL    HW2 1785   0.326   2.686   0.798  0.8188  0.8447  2.7132
  596SOL     OW 1786   0.050   0.851   1.549  0.0785  0.5586 -0.0193
  596SOL    HW1 1787   0.148   0.849   1.560 -2.2948  1.6871 -1.7219
  596SOL    HW2 1788   0.016   0.942   1.582  1.9475 -0.7428 -0.0737
  597SOL     OW 1789   1.894   1.605   0.556  0.3317 -0.0233  0.0761
  597SOL    HW1 1790   1.919   1.584   0.459  0.4752  1.0188 -1.6159
  597SOL    HW2 1791   1.792   1.615   0.569 -1.9208 -0.5923  1.0218
  598SOL     OW 1792   0.300   2.741   2.009  0.1159 -0.0041 -0.8077
  598SOL    HW1 1793   0.339   2.729   1.917 -1.0850 -1.3764  3.6906
  598SOL    HW2 1794   0.351   2.684   2.071 -1.3350 -1.5254  1.1776
  599SOL     OW 1795   2.510   2.044   2.941  0.1553  0.0432 -0.2946
  599SOL    HW1 1796   2.453   2.010   2.863  1.3829 -0.4942  0.9831
  599SOL    HW2 1797   2.539   1.967   3.001 -0.1865  3.7600 -2.2174
  600SOL     OW 1798   0.727   0.947   0.184 -0.0373  0.1920  0.1304
  600SOL    HW1 1799   0.789   1.020   0.147  3.5709  1.5817 -1.6764
  600SOL    HW2 1800   0.712   0.965   0.285  0.2455  1.5357 -1.8485
  601SOL     OW 1801   1.014   1.124   0.340 -0.2808  0.1493  0.4505
  601SOL    HW1 1802   1.063   1.055   0.395 -3.2088  0.7843  0.3580
  601SOL    HW2 1803   0.951   1.068   0.278 -3.3399  2.2860 -0.8424
  602SOL     OW 1804   1.229   2.802   1.118  0.1816  0.5814  0.5700
  602SOL    HW1 1805   1.263   2.845   1.030 -2.9086 -1.4974 -2.0232
  602SOL    HW2 1806   1.210   2.870   1.188 -0.6679 -1.8925 -0.8082
  603SOL     OW 1807   0.826   0.002   2.181  0.7577  0.3883  0.1777
  603SOL    HW1 1808   0.763   3.019   2.121  0.0528 -1.8284 -0.1532
  603SOL    HW2 1809   0.918   3.026   2.190  1.8319  1.6467 -0.4099
  604SOL     OW 1810   0.039   0.085   2.160 -0.4732  0.4167  0.1804
  604SOL    HW1 1811   0.059   3.053   2.162 -0.4821 -0.5660 -1.4919
  604SOL    HW2 1812   0.083   0.126   2.244  3.7401 -3.2604  1.8631
  605SOL     OW 1813   2.789   2.318   1.436 -0.1152  0.4190  0.1679
  605SOL    HW1 1814   2.717   2.371   1.387  4.1198  0.1958 -0.8870
  605SOL    HW2 1815   2.774   2.331   1.538  0.0473 -1.0938 -1.8088
  606SOL     OW 1816   0.276   1.632   2.908  0.1360  0.5829 -0.6505
  606SOL    HW1 1817   0.212   1.575   2.962  0.2876 -0.1414 -2.1942
  606SOL    HW2 1818   0.229   1.715   2.870  0.6100 -0.9771 -1.0354
  607SOL     OW 1819   0.813   0.438   0.067 -0.2924 -0.4157 -0.3337
  607SOL    HW1 1820   0.797   0.539   0.078 -0.7297  0.7247  0.5069
  607SOL    HW2 1821   0.898   0.420   0.015  1.2181 -0.9843 -0.2997
  608SOL     OW 1822   1.890   1.296   2.381  0.2526 -0.0043  0.2480
  608SOL    HW1 1823   1.821   1.222   2.398  1.4868 -0.7539  0.2865
  608SOL    HW2 1824   1.874   1.378   2.441 -1.1268 -0.9208  1.0339
  609SOL     OW 1825   2.988   0.287   0.872  0.5575  0.1258 -0.3585
  609SOL    HW1 1826   3.030   0.299   0.963  0.1931  0.5351  2.3171
  609SOL    HW2 1827   2.888   0.249   0.877 -2.2066  1.5353 -1.5513
  610SOL     OW 1828   0.483   2.325   2.899  0.2578 -0.6754  0.0835
  610SOL    HW1 1829   0.520   2.246   2.950  0.6637 -0.8558 -0.5646
  610SOL    HW2 1830   0.441   2.388   2.965  0.4526  0.7007 -2.1805
  611SOL     OW 1831   1.759   1.071   0.475 -0.4614  0.2942 -0.3135
  611SOL    HW1 1832   1.830   1.098   0.410 -1.8958  1.8535 -1.1615
  611SOL    HW2 1833   1.723   1.162   0.496  2.5230 -0.7869 -2.3964
  612SOL     OW 1834   0.889   2.198   2.600 -0.1175  0.0750 -0.3077
  612SOL    HW1 1835   0.841   2.110   2.588  0.0445  0.1701  0.0582
  612SOL    HW2 1836   0.830   2.262   2.655  1.1390 -0.0434 -0.8864
  613SOL     OW 1837   1.170   1.984   2.892  0.1197 -0.2286  0.3170
  613SOL    HW1 1838   1.238   1.913   2.916 -0.0480  1.0157 -0.5952
  613SOL    HW2 1839   1.131   1.963   2.796  2.9929  2.0360 -0.5213
  614SOL     OW 1840   2.615   2.770   1.386 -0.5336  0.2481  0.3434
  614SOL    HW1 1841   2.716   2.787   1.401 -1.7595 -1.3602  1.8115
  614SOL    HW2 1842   2.607   2.691   1.322  0.9804  0.1595 -2.3210
  615SOL     OW 1843   2.139   1.213   0.029 -0.4862  0.1322 -0.4131
  615SOL    HW1 1844   2.040   1.183   0.010 -2.2486 -4.1003 -2.8046
  615SOL    HW2 1845   2.182   1.255   3.020  0.3816 -0.3989  1.5716
  616SOL     OW 1846   1.720   0.190   0.608 -0.0106  0.3289  0.3318
  616SOL    HW1 1847   1.758   0.099   0.576 -0.1697  1.7390 -1.5677
  616SOL    HW2 1848   1.795   0.240   0.649  0.2588  1.1070 -0.0786
  617SOL     OW 1849   0.882   1.149   0.084  0.0574  0.0548  0.1782
  617SOL    HW1 1850   0.892   1.181   3.057 -0.4721  1.5327  0.0998
  617SOL    HW2 1851   0.839   1.225   0.141 -0.9148 -1.7304  1.0411
  618SOL     OW 1852   0.666   0.831   1.802  0.2621  0.1231 -0.5925
  618SOL    HW1 1853   0.641   0.926   1.779  1.2504 -1.0526 -1.3785
  618SOL    HW2 1854   0.730   0.833   1.882  1.4723  0.0174 -2.7029
  619SOL     OW 1855   0.254   1.124   1.398 -0.1423  0.6651 -0.7350
  619SOL    HW1 1856   0.158   1.128   1.388  2.7063  0.9188  0.6355
  619SOL    HW2 1857   0.280   1.060   1.473 -2.8863 -0.2126 -0.0710
  620SOL     OW 1858   1.842   1.168   3.056  0.1934  0.6713  0.2067
  620SOL    HW1 1859   1.756   1.151   0.038 -0.7564  0.8178 -1.0932
  620SOL    HW2 1860   1.843   1.253   2.999  1.5035  0.4864 -0.2218
  621SOL     OW 1861   2.280   2.897   1.117 -0.1824 -0.4480  0.7599
  621SOL    HW1 1862   2.236   2.958   1.187 -0.0007  0.1829  0.0918
  621SOL    HW2 1863   2.328   2.826   1.168  1.9896  0.7032 -1.3115
  622SOL     OW 1864   1.450   0.759   2.501 -0.1812 -0.1152  0.0663
  622SOL    HW1 1865   1.354   0.791   2.488  0.9324  0.2213  0.2376
  622SOL    HW2 1866   1.473   0.681   2.440  1.6271 -2.0749 -2.9566
  623SOL     OW 1867   1.015   0.429   2.972  0.4368  0.1646 -0.1103
  623SOL    HW1 1868   1.018   0.356   2.898 -1.1729 -1.7208 -1.6538
  623SOL    HW2 1869   1.093   0.408   3.037  0.6258 -0.6214 -2.3582
  624SOL     OW 1870   1.836   0.392   0.375  0.9288 -0.1971  0.3757
  624SOL    HW1 1871   1.752   0.340   0.396 -1.1517 -1.2909  0.3566
  624SOL    HW2 1872   1.917   0.329   0.383 -2.6786 -0.4701  0.1928
  625SOL     OW 1873   0.649   1.286   0.916 -0.2964  0.1320 -0.2657
  625SOL    HW1 1874   0.657   1.387   0.896  2.0960  1.2119 -0.5235
  625SOL    HW2 1875   0.553   1.255   0.929 -0.5323  0.8253 -1.0127
  626SOL     OW 1876   1.400   1.072   0.242  0.5141 -0.3308 -0.2026
  626SOL    HW1 1877   1.377   1.145   0.314  0.2842 -0.9042  0.3139
  626SOL    HW2 1878   1.392   0.979   0.287 -0.1813  1.9650  0.1863
  627SOL     OW 1879   0.995   2.961   1.881  0.5168 -0.7683  0.6007
  627SOL    HW1 1880   1.014   2.956   1.980 -0.8901  1.2219  1.9855
  627SOL    HW2 1881   1.010   3.056   1.848  2.1275 -0.6302  1.2543
  628SOL     OW 1882   2.486   0.197   2.159  0.7016 -0.1777 -0.1538
  628SOL    HW1 1883   2.573   0.215   2.206  1.4566  0.1084 -1.7260
  628SOL    HW2 1884   2.402   0.187   2.214  0.6995 -1.3489 -1.7578
  629SOL     OW 1885   0.905   1.266   2.875 -0.4200  0.1582  0.1515
  629SOL    HW1 1886   0.959   1.328   2.939  0.4538 -0.2914  3.0905
  629SOL    HW2 1887   0.924   1.280   2.773  1.2802 -0.0070 -2.0258
  630SOL     OW 1888   1.159   0.156   2.276 -0.5332  0.1878 -0.0973
  630SOL    HW1 1889   1.102   0.227   2.321  0.1467  1.5164 -1.4259
  630SOL    HW2 1890   1.212   0.102   2.349  2.2309 -0.8932  3.8660
  631SOL     OW 1891   2.705   0.986   0.647 -0.2654  0.1054  0.1095
  631SOL    HW1 1892   2.730   0.925   0.725 -1.4331  1.1376  0.1614
  631SOL    HW2 1893   2.776   0.988   0.576 -0.2824 -0.3675  3.3627
  632SOL     OW 1894   2.413   1.034   1.313 -0.1237  0.1347 -0.3718
  632SOL    HW1 1895   2.412   0.958   1.384 -1.2817 -0.2618 -0.2720
  632SOL    HW2 1896   2.415   0.998   1.220  1.9507  2.4260 -2.1871
  633SOL     OW 1897   1.759   0.860   0.945 -0.2355  0.2013  0.1572
  633SOL    HW1 1898   1.848   0.905   0.925  0.8948  2.7875  0.5582
  633SOL    HW2 1899   1.773   0.818   1.038 -0.8752  1.2199  0.8692
  634SOL     OW 1900   1.729   2.993   0.777  0.5032 -0.0410  0.0517
  634SOL    HW1 1901   1.811   3.051   0.804  1.1182 -0.6191  2.7102
  634SOL    HW2 1902   1.640   3.040   0.784  1.5252  0.9079  0.2385
  635SOL     OW 1903   1.683   0.755   1.426 -0.0808 -0.1442 -0.2743
  635SOL    HW1 1904   1.590   0.715   1.409  1.1155  0.9036 -0.2206
  635SOL    HW2 1905   1.674   0.842   1.480  0.6894  3.7320 -1.2072
  636SOL     OW 1906   0.908   0.756   0.567 -0.2502  0.1765  0.1659
  636SOL    HW1 1907   0.887   0.684   0.498 -0.4207  0.9680  0.4993
  636SOL    HW2 1908   0.966   0.718   0.641 -1.0718  1.5166 -0.7336
  637SOL     OW 1909   1.842   2.290   0.282 -0.1158  0.2976  0.2322
  637SOL    HW1 1910   1.769   2.356   0.311  1.1199 -0.6287 -2.3213
  637SOL    HW2 1911   1.804   2.226   0.214 -2.6701 -3.0572 -2.2213
  638SOL     OW 1912   1.221   2.839   2.673 -0.2408 -0.0410 -0.1083
  638SOL    HW1 1913   1.237   2.910   2.747  0.6722  0.6267  0.4572
  638SOL    HW2 1914   1.308   2.793   2.632  5.3822  0.0715 -0.7119
  639SOL     OW 1915   0.742   2.039   1.233 -1.0417  0.0226 -0.0757
  639SOL    HW1 1916   0.658   2.073   1.196  4.0045 -0.9838  2.3887
  639SOL    HW2 1917   0.726   1.977   1.312 -0.3222 -1.0450 -0.9622
  640SOL     OW 1918   0.090   2.760   0.022 -0.5824  0.3114 -0.2981
  640SOL    HW1 1919   0.060   2.689   0.089  2.2114  1.2316 -1.4389
  640SOL    HW2 1920   0.089   2.851   0.069  2.0321  2.3042  1.1030
  641SOL     OW 1921   0.127   0.114   3.036 -0.1419 -0.5166  0.4077
  641SOL    HW1 1922   0.146   0.197   0.011  0.0793  0.4159 -1.5797
  641SOL    HW2 1923   0.188   0.112   2.950 -0.0564  2.3847 -0.5014
  642SOL     OW 1924   2.982   1.216   1.098  0.6872  0.1444  0.5157
  642SOL    HW1 1925   2.979   1.311   1.066  2.0612 -0.0123 -0.2608
  642SOL    HW2 1926   3.001   1.210   1.194 -1.4037 -0.8183 -3.8350
  643SOL     OW 1927   0.654   1.919   2.225 -0.1374 -0.3068 -0.3587
  643SOL    HW1 1928   0.698   1.832   2.199 -0.9190 -2.0755  0.4759
  643SOL    HW2 1929   0.717   1.998   2.201  1.6049  2.0257 -0.8440
  644SOL     OW 1930   1.730   2.537   0.593  0.2697  0.5246 -0.1686
  644SOL    HW1 1931   1.788   2.459   0.623 -0.4794  1.4691  0.5831
  644SOL    HW2 1932   1.646   2.543   0.651 -2.4034  0.7348 -2.7399
  645SOL     OW 1933   1.634   2.307   1.247 -0.2308 -0.4315 -0.0383
  645SOL    HW1 1934   1.656   2.302   1.347  0.3654 -0.3074 -1.1072
  645SOL    HW2 1935   1.611   2.400   1.223  0.2271 -3.4722 -1.9204
  646SOL     OW 1936   1.292   2.682   0.283  0.3238 -0.2272  0.1676
  646SOL    HW1 1937   1.289   2.690   0.180  0.5492  0.6499 -1.7255
  646SOL    HW2 1938   1.209   2.735   0.317 -1.9073 -0.5225 -1.1443
  647SOL     OW 1939   0.261   3.008   1.933  0.5787  0.1951  0.2742
  647SOL    HW1 1940   0.184   3.005   1.865 -1.7629  0.7906 -0.4221
  647SOL    HW2 1941   0.285   2.915   1.958 -1.2960  2.0205 -0.3610
  648SOL     OW 1942   2.205   0.765   1.075 -0.1115 -0.3273 -0.2165
  648SOL    HW1 1943   2.180   0.863   1.091 -1.0105  1.9980 -0.2423
  648SOL    HW2 1944   2.284   0.758   1.015 -0.7012 -0.5618 -0.5447
  649SOL     OW 1945   1.875   2.174   2.970  0.2200  0.4485 -0.3453
  649SOL    HW1 1946   1.936   2.234   3.027 -1.2743 -1.0062  0.0762
  649SOL    HW2 1947   1.848   2.217   2.890  2.8014 -1.1811  1.4240
  650SOL     OW 1948   2.761   1.653   1.505  0.2551  0.4320  0.5570
  650SOL    HW1 1949   2.803   1.745   1.518 -1.6136  1.2995  2.3557
  650SOL    HW2 1950   2.733   1.626   1.598  2.6234  0.4013 -3.1428
  651SOL     OW 1951   1.505   1.635   2.775 -0.3280 -0.2121  0.0907
  651SOL    HW1 1952   1.596   1.648   2.819 -3.3709 -2.0972  0.7146
  651SOL    HW2 1953   1.493   1.695   2.696 -3.0914  0.2007  2.3472
  652SOL     OW 1954   0.738   2.928   2.712  0.2978 -0.4439  0.5887
  652SOL    HW1 1955   0.805   2.870   2.663 -0.6070 -0.4641 -1.9743
  652SOL    HW2 1956   0.796   2.999   2.763  1.1044  0.5733 -0.9197
  653SOL     OW 1957   1.968   2.243   0.900 -0.0358  0.3327 -0.2616
  653SOL    HW1 1958   1.905   2.206   0.973 -1.0982 -1.0583 -0.0469
  653SOL    HW2 1959   2.064   2.236   0.932  0.0986 -2.1265 -2.3842
  654SOL     OW 1960   2.769   3.017   2.189  0.2306 -0.1520  0.3466
  654SOL    HW1 1961   2.704   3.008   2.266  1.1296 -1.0385 -1.1484
  654SOL    HW2 1962   2.733   3.063   2.110  0.7887 -0.7858  4.9440
  655SOL     OW 1963   2.774   2.096   1.159 -0.3165  0.7132 -0.2674
  655SOL    HW1 1964   2.776   2.138   1.065  0.0404  0.7746 -1.7238
  655SOL    HW2 1965   2.765   2.166   1.233 -0.8410 -1.1858 -0.2889
  656SOL     OW 1966   2.893   2.190   2.633 -0.2743 -0.5113  0.2430
  656SOL    HW1 1967   2.933   2.120   2.566  0.1793 -1.6121 -1.6984
  656SOL    HW2 1968   2.848   2.148   2.717 -1.6279 -0.9544  2.0601
  657SOL     OW 1969   2.905   0.963   0.481  0.2993 -0.1475  0.1193
  657SOL    HW1 1970   2.845   0.954   0.396 -0.1974  1.1618 -0.0469
  657SOL    HW2 1971   2.997   0.923   0.452  0.0862  0.9413 -1.9972
  658SOL     OW 1972   1.390   1.745   1.171 -0.3418  0.3242 -0.1028
  658SOL    HW1 1973   1.380   1.705   1.263  0.0148  2.0725  0.0757
  658SOL    HW2 1974   1.461   1.818   1.175 -1.7943 -0.3059 -0.4706
  659SOL     OW 1975   1.325   0.418   1.202 -0.2770 -0.1593  0.7435
  659SOL    HW1 1976   1.413   0.369   1.203  1.9510  0.8584 -0.9848
  659SOL    HW2 1977   1.284   0.405   1.111 -1.5866  1.9805  0.6200
  660SOL     OW 1978   1.988   1.441   0.751  0.1464 -0.4146 -0.3167
  660SOL    HW1 1979   1.932   1.366   0.787 -1.4643 -0.0452 -1.4998
  660SOL    HW2 1980   1.944   1.493   0.675 -0.2887  0.9906 -0.4402
  661SOL     OW 1981   0.211   1.554   0.219 -0.2160  0.1994 -0.6661
  661SOL    HW1 1982   0.129   1.617   0.234 -1.2013 -1.2049  0.8525
  661SOL    HW2 1983   0.276   1.563   0.302 -0.7486 -2.0651 -0.3496
  662SOL     OW 1984   2.656   0.919   1.792  0.2159  0.0250  0.8195
  662SOL    HW1 1985   2.663   0.844   1.853 -2.2151  1.0516 -0.9905
  662SOL    HW2 1986   2.583   0.984   1.828  0.8167  0.6409  2.4355
  663SOL     OW 1987   2.137   1.382   1.196 -0.4950 -0.5242  0.3549
  663SOL    HW1 1988   2.191   1.462   1.158  0.0319  1.5445  0.3757
  663SOL    HW2 1989   2.126   1.397   1.297  1.3971 -3.5258 -0.0437
  664SOL     OW 1990   0.414   0.076   1.166 -0.0612  0.2359  1.0618
  664SOL    HW1 1991   0.412   3.065   1.230  0.3573 -0.2112 -3.0063
  664SOL    HW2 1992   0.495   0.074   1.102 -0.0195  0.6694 -0.2582
  665SOL     OW 1993   1.256   3.020   2.915 -0.6113 -0.0802  0.1168
  665SOL    HW1 1994   1.322   0.033   2.905  2.0956  1.8779  0.5945
  665SOL    HW2 1995   1.163   3.050   2.949 -1.9057 -1.9436 -1.0244
  666SOL     OW 1996   0.434   0.273   2.218  0.2968  0.1355  0.2066
  666SOL    HW1 1997   0.493   0.349   2.183 -1.9377 -1.6784  0.0105
  666SOL    HW2 1998   0.465   0.242   2.310 -2.0588  0.0142 -0.9337
  667SOL     OW 1999   1.870   1.329   2.093 -0.5855  0.2954 -0.0987
  667SOL    HW1 2000   1.940   1.265   2.049 -0.0686 -3.6624  1.3764
  667SOL    HW2 2001   1.883   1.341   2.197 -0.0999  0.9163  1.9374
  668SOL     OW 2002   0.097   1.562   2.666  0.1391 -0.1229 -0.0540
  668SOL    HW1 2003   0.036   1.508   2.729  0.6688 -2.4070 -1.2303
  668SOL    HW2 2004   0.166   1.497   2.628  0.4309  0.8520 -2.4243
  669SOL     OW 2005   2.241   0.190   2.326 -0.1529 -0.1659 -0.4669
  669SOL    HW1 2006   2.227   0.115   2.392  0.3273 -2.0034  0.2623
  669SOL    HW2 2007   2.207   0.271   2.372  1.4721 -0.8516 -3.3553
  670SOL     OW 2008   2.707   1.056   2.380 -0.2541  0.2761 -0.2172
  670SOL    HW1 2009   2.785   1.025   2.326 -1.4604 -3.1207  0.1363
  670SOL    HW2 2010   2.649   0.975   2.386  1.4371 -0.0025  0.3513
  671SOL     OW 2011   2.581   1.869   0.078  0.1368 -0.1348  0.2574
  671SOL    HW1 2012   2.627   1.784   0.037 -0.7786  1.1854 -3.1328
  671SOL    HW2 2013   2.493   1.840   0.123 -1.7673 -0.6093 -1.7310
  672SOL     OW 2014   2.069   1.680   2.180 -0.1461 -0.1415  0.1450
  672SOL    HW1 2015   2.143   1.745   2.150  1.4570  0.0510  1.0406
  672SOL    HW2 2016   2.066   1.680   2.281  2.6079 -2.1577  1.1705
  673SOL     OW 2017   2.816   1.715   0.914  0.6552 -0.7784  0.2494
  673SOL    HW1 2018   2.749   1.782   0.880  1.1507  2.7786  0.2909
  673SOL    HW2 2019   2.891   1.768   0.967  2.8122 -1.5356  0.5739
  674SOL     OW 2020   1.046   1.941   1.853 -0.0332  0.2882 -0.7434
  674SOL    HW1 2021   1.064   1.851   1.904 -0.9553 -0.2801  1.5885
  674SOL    HW2 2022   0.955   1.943   1.807  0.2297 -1.8196 -0.3295
  675SOL     OW 2023   2.651   0.761   0.843 -0.4032 -0.4896  0.1028
  675SOL    HW1 2024   2.647   0.753   0.947 -1.6211  0.6314  1.0345
  675SOL    HW2 2025   2.579   0.701   0.805 -1.6558  0.9520  0.1473
  676SOL     OW 2026   2.948   1.401   0.747 -0.6956  0.3200 -0.4082
  676SOL    HW1 2027   2.865   1.345   0.735  0.2241  2.7597  0.6097
  676SOL    HW2 2028   2.962   1.422   0.846  0.5502 -1.7758  1.4133
  677SOL     OW 2029   1.579   1.548   2.255  0.3378 -0.6186  0.3546
  677SOL    HW1 2030   1.669   1.570   2.211  0.4063  1.4380  0.2678
  677SOL    HW2 2031   1.534   1.480   2.199  0.2043  1.8119  0.8994
  678SOL     OW 2032   2.603   1.437   0.873 -0.9949  0.3682  0.2522
  678SOL    HW1 2033   2.660   1.374   0.821 -2.2281 -0.9287  0.7927
  678SOL    HW2 2034   2.577   1.522   0.816 -2.0054  1.1093 -0.0733
  679SOL     OW 2035   0.514   2.275   0.964  0.1207 -0.3187  0.0328
  679SOL    HW1 2036   0.523   2.363   0.908 -0.6904  1.5267 -0.9672
  679SOL    HW2 2037   0.551   2.199   0.903 -0.1261 -1.7113 -2.2381
  680SOL     OW 2038   2.965   1.902   1.088  0.4035 -0.3380  0.0955
  680SOL    HW1 2039   2.985   1.919   0.987  2.8811 -0.9634  1.3476
  680SOL    HW2 2040   2.882   1.956   1.121 -0.3132 -2.5890 -1.9819
  681SOL     OW 2041   1.013   0.599   1.262  0.3202  0.0719  1.0607
  681SOL    HW1 2042   0.963   0.673   1.310  0.7508  1.9264  0.2254
  681SOL    HW2 2043   1.069   0.541   1.325 -0.6664  2.2882  0.0631
  682SOL     OW 2044   1.661   2.858   1.192 -0.5195  0.1579 -0.0570
  682SOL    HW1 2045   1.702   2.848   1.279  0.0612  0.1629 -4.4640
  682SOL    HW2 2046   1.613   2.951   1.191 -2.5086  1.0564 -2.7403
  683SOL     OW 2047   2.264   1.340   1.567  0.1882 -0.1933  0.3930
  683SOL    HW1 2048   2.248   1.440   1.577  0.1748  0.2399 -1.6588
  683SOL    HW2 2049   2.364   1.325   1.590  1.2001 -0.5617 -2.7651
  684SOL     OW 2050   0.060   1.704   1.702  0.2981  0.6435  0.1335
  684SOL    HW1 2051   3.058   1.655   1.753  1.0066  0.6543  0.8811
  684SOL    HW2 2052   0.155   1.664   1.729  1.2478  0.3774  2.0643
  685SOL     OW 2053   1.979   1.734   0.070 -0.4451 -0.1292  0.1126
  685SOL    HW1 2054   1.968   1.799   0.143  1.1389  0.3105 -1.7363
  685SOL    HW2 2055   1.899   1.672   0.058 -0.8960 -0.9482 -1.1553
  686SOL     OW 2056   2.661   0.259   0.909 -0.0624 -0.2192 -0.7690
  686SOL    HW1 2057   2.670   0.359   0.884  1.5944  1.3884  1.8132
  686SOL    HW2 2058   2.630   0.204   0.828 -0.2716 -0.7024  0.4384
  687SOL     OW 2059   1.565   0.080   2.525  0.1559  0.5599 -0.3261
  687SOL    HW1 2060   1.493   0.014   2.498  1.0906  0.1091 -0.2474
  687SOL    HW2 2061   1.606   0.055   2.615 -0.1645 -0.4189  0.8306
  688SOL     OW 2062   1.194   2.137   2.256  0.0371 -0.1742  0.2217
  688SOL    HW1 2063   1.289   2.096   2.253 -1.6880  0.1080  1.8504
  688SOL    HW2 2064   1.157   2.142   2.164  2.4853 -1.0876  0.9365
  689SOL     OW 2065   2.645   1.561   1.734  0.1942 -0.0464  0.5742
  689SOL    HW1 2066   2.555   1.610   1.748  0.6836  0.3974  0.7391
  689SOL    HW2 2067   2.683   1.538   1.825 -1.4632 -0.4057 -2.4700
  690SOL     OW 2068   1.776   1.784   1.278 -0.5523  0.0871  0.4437
  690SOL    HW1 2069   1.726   1.820   1.191  0.7174  4.3169 -1.3860
  690SOL    HW2 2070   1.798   1.681   1.276  2.2600  0.6251  0.4146
  691SOL     OW 2071   0.154   1.489   0.605 -0.5779  0.6676  0.1027
  691SOL    HW1 2072   0.080   1.474   0.535 -0.1040  0.2435 -4.0240
  691SOL    HW2 2073   0.158   1.419   0.678  1.0469  0.8688 -0.4613
  692SOL     OW 2074   2.356   2.841   2.274 -0.4610  0.1023 -0.2153
  692SOL    HW1 2075   2.390   2.918   2.330 -2.6035 -0.9852  0.6537
  692SOL    HW2 2076   2.390   2.753   2.307  0.7640  1.3250  0.5272
  693SOL     OW 2077   0.093   1.463   2.275 -0.3539  0.1776 -0.0463
  693SOL    HW1 2078   0.013   1.394   2.267 -0.9182 -1.7913 -1.7040
  693SOL    HW2 2079   0.093   1.504   2.370 -0.1956  1.0601  3.8921
  694SOL     OW 2080   2.207   0.188   1.546 -0.0460 -0.1448  0.1154
  694SOL    HW1 2081   2.145   0.125   1.598  0.5593  2.3434  1.9191
  694SOL    HW2 2082   2.294   0.212   1.598 -0.4828  0.9825  1.7553
  695SOL     OW 2083   1.013   0.837   2.815  0.5017  0.5139 -0.7780
  695SOL    HW1 2084   1.084   0.768   2.781 -0.6438 -2.8959 -2.1675
  695SOL    HW2 2085   1.005   0.912   2.747  1.1184 -1.2553  1.9107
  696SOL     OW 2086   1.701   0.010   1.813  0.2933 -0.3648  0.7059
  696SOL    HW1 2087   1.753   0.084   1.767  1.0120 -0.8688  1.8283
  696SOL    HW2 2088   1.644   3.026   1.753  0.9354  0.3404  2.8385
  697SOL     OW 2089   1.578   0.114   2.052 -0.1094 -0.3702 -1.0099
  697SOL    HW1 2090   1.635   0.199   2.074  0.3538  2.9359  1.6291
  697SOL    HW2 2091   1.617   0.068   1.972 -1.5709  1.7233 -0.6090
  698SOL     OW 2092   1.820   1.588   2.142 -0.1162 -0.1497 -0.4178
  698SOL    HW1 2093   1.920   1.614   2.155  2.6297 -0.7890 -1.7071
  698SOL    HW2 2094   1.813   1.495   2.116 -4.1172  3.5087  0.2161
  699SOL     OW 2095   2.127   0.749   0.248 -0.1660 -0.1824 -0.2829
  699SOL    HW1 2096   2.033   0.719   0.274  1.2895  0.0556 -0.5362
  699SOL    HW2 2097   2.155   0.826   0.305 -0.1874 -0.3475 -1.2211
  700SOL     OW 2098   1.281   0.302   0.465  0.0125 -0.0544 -0.2789
  700SOL    HW1 2099   1.209   0.372   0.452 -2.7877  0.1715 -0.3729
  700SOL    HW2 2100   1.282   0.241   0.386 -0.4730 -0.1402  3.7421
  701SOL     OW 2101   0.060   0.514   0.901  0.9336 -0.4188 -0.3426
  701SOL    HW1 2102   3.061   0.462   0.847  0.2782 -0.5146 -0.1486
  701SOL    HW2 2103   0.087   0.599   0.847 -0.3434 -1.4659  2.9206
  702SOL     OW 2104   1.819   0.030   1.438 -0.1744  0.0643  0.2387
  702SOL    HW1 2105   1.770   3.013   1.444 -0.0514  0.5701  0.3088
  702SOL    HW2 2106   1.755   0.105   1.471 -2.8352  2.6687  1.0784
  703SOL     OW 2107   2.808   0.938   1.378 -0.4267  0.3322  0.1202
  703SOL    HW1 2108   2.892   0.935   1.324 -1.5842  1.8738 -1.3881
  703SOL    HW2 2109   2.778   1.034   1.387 -0.7322 -1.1635 -0.4474
  704SOL     OW 2110   0.879   2.636   1.383  0.1763 -0.2195  0.4288
  704SOL    HW1 2111   0.960   2.581   1.357  0.0380  1.6249 -0.2172
  704SOL    HW2 2112   0.800   2.603   1.331  1.4766 -1.8057  0.5099
  705SOL     OW 2113   0.324   1.428   2.534  0.0470  0.3550  0.3572
  705SOL    HW1 2114   0.375   1.483   2.467 -0.4854 -0.9311  2.0190
  705SOL    HW2 2115   0.385   1.413   2.615  0.4030  1.1203  0.4160
  706SOL     OW 2116   2.784   0.208   0.092  0.5546  0.0749 -0.5025
  706SOL    HW1 2117   2.683   0.194   0.065  0.9008  1.6722  1.2753
  706SOL    HW2 2118   2.830   0.120   0.104  0.3421  0.1031 -1.4327
  707SOL     OW 2119   1.538   2.549   2.413 -0.2637 -0.4337 -0.0337
  707SOL    HW1 2120   1.557   2.580   2.313 -0.5170  1.1473 -1.1132
  707SOL    HW2 2121   1.499   2.458   2.421  2.0756 -0.8965 -2.7190
  708SOL     OW 2122   0.287   2.571   1.612 -0.1629 -0.6326 -1.1707
  708SOL    HW1 2123   0.255   2.523   1.697  0.4298 -2.0317 -0.7638
  708SOL    HW2 2124   0.230   2.652   1.591  0.9281  0.1127  1.2783
  709SOL     OW 2125   0.156   0.996   1.871  0.3674 -0.0994  0.0252
  709SOL    HW1 2126   0.086   1.008   1.799 -0.7071 -1.4789 -0.1732
  709SOL    HW2 2127   0.199   0.896   1.871  4.5465 -6.6841  0.0060
  710SOL     OW 2128   3.005   0.640   1.111  0.8927 -0.1690  0.0333
  710SOL    HW1 2129   3.064   0.585   1.049 -1.7918 -0.7182  1.7402
  710SOL    HW2 2130   3.058   0.711   1.162  1.0035 -1.4960 -0.4355
  711SOL     OW 2131   2.886   2.737   1.135  0.5619  0.2827 -0.2266
  711SOL    HW1 2132   2.957   2.674   1.106 -2.3093  3.6342  3.5123
  711SOL    HW2 2133   2.804   2.684   1.160 -1.2641 -1.6541  0.9957
  712SOL     OW 2134   0.273   0.039   2.530 -0.1478 -0.9231  0.0861
  712SOL    HW1 2135   0.200   3.053   2.572  3.0758  0.4450 -1.2166
  712SOL    HW2 2136   0.358   3.056   2.513 -1.6209  0.1095 -0.2694
  713SOL     OW 2137   2.403   0.184   0.436  0.3245 -0.1854  0.4427
  713SOL    HW1 2138   2.332   0.235   0.486  0.2612  0.8127 -1.9841
  713SOL    HW2 2139   2.454   0.244   0.368 -2.3370  2.6438  1.5327
  714SOL     OW 2140   1.734   1.604   0.131 -0.4172 -0.3300 -0.1286
  714SOL    HW1 2141   1.696   1.675   0.197  0.9705  3.3249  0.0980
  714SOL    HW2 2142   1.735   1.510   0.173 -0.9105 -0.4295 -1.0145
  715SOL     OW 2143   0.057   0.205   0.650  0.2290 -0.8487 -0.1022
  715SOL    HW1 2144   0.077   0.105   0.644 -1.7124  1.8998 -1.6288
  715SOL    HW2 2145   3.070   0.221   0.729 -2.5247  0.3240 -1.1935
  716SOL     OW 2146   1.071   0.509   1.851  0.1966  0.8024 -0.3837
  716SOL    HW1 2147   1.159   0.463   1.857  0.6365  1.2278  0.2605
  716SOL    HW2 2148   1.042   0.533   1.950 -0.0144  1.9574  1.4058
  717SOL     OW 2149   0.475   0.588   2.808  0.5796  0.6609 -0.4586
  717SOL    HW1 2150   0.410   0.623   2.740 -1.7188 -0.2494  1.1894
  717SOL    HW2 2151   0.495   0.660   2.875 -2.8573 -2.0228 -0.9985
  718SOL     OW 2152   1.044   0.642   0.175  0.4458  0.3544  0.5160
  718SOL    HW1 2153   1.064   0.723   0.122  0.4424 -1.7376  3.2989
  718SOL    HW2 2154   1.087   0.555   0.139 -0.9885 -1.1891  0.3098
  719SOL     OW 2155   2.531   2.382   2.620 -0.2347  0.1406  0.1162
  719SOL    HW1 2156   2.495   2.338   2.703 -2.4404 -0.5424  2.8986
  719SOL    HW2 2157   2.485   2.339   2.540  3.3404 -1.8767 -2.0802
  720SOL     OW 2158   1.438   0.587   1.378  0.0825  0.4621 -0.1659
  720SOL    HW1 2159   1.405   0.593   1.475  2.1292  0.5053 -1.4256
  720SOL    HW2 2160   1.396   0.514   1.319 -1.2882  2.8094 -2.3771
  721SOL     OW 2161   2.829   2.952   1.000 -0.4408  0.1177  0.4423
  721SOL    HW1 2162   2.774   3.013   1.057  2.5410  1.8223 -1.8679
  721SOL    HW2 2163   2.844   2.857   1.047  1.4726 -1.5683  2.0693
  722SOL     OW 2164   1.193   1.542   2.648  0.6359 -0.4493  0.1808
  722SOL    HW1 2165   1.103   1.592   2.662 -2.0930  0.5715  0.8406
  722SOL    HW2 2166   1.251   1.565   2.724 -1.0040 -0.4465  0.7694
  723SOL     OW 2167   2.387   0.253   0.945  0.2155  0.6987 -0.4764
  723SOL    HW1 2168   2.401   0.200   0.860  1.4439 -0.5717 -1.0551
  723SOL    HW2 2169   2.465   0.307   0.963 -2.5944 -1.7257 -0.8840
  724SOL     OW 2170   0.749   2.254   0.147  0.3182 -0.2736 -0.4951
  724SOL    HW1 2171   0.796   2.165   0.148 -0.2028  0.3770  1.8231
  724SOL    HW2 2172   0.816   2.329   0.166  0.8798  1.3513 -1.1664
  725SOL     OW 2173   0.246   0.965   1.189  0.3186  0.0053  0.0761
  725SOL    HW1 2174   0.252   1.038   1.260 -3.6780 -1.3421 -0.6263
  725SOL    HW2 2175   0.309   0.990   1.111  0.6019 -1.9073 -2.3678
  726SOL     OW 2176   2.529   0.624   0.372 -0.1820 -0.2198 -0.1363
  726SOL    HW1 2177   2.510   0.703   0.432 -0.8728  0.4438  0.9913
  726SOL    HW2 2178   2.594   0.651   0.301 -2.0949 -0.7846  3.0888
  727SOL     OW 2179   1.926   1.160   2.666  0.3208  0.1893  0.3056
  727SOL    HW1 2180   2.028   1.171   2.665  1.9556  0.5838 -0.5358
  727SOL    HW2 2181   1.888   1.080   2.612 -0.0821  0.7122  1.5491
  728SOL     OW 2182   1.728   2.837   1.470 -0.3012  0.9074  0.0159
  728SOL    HW1 2183   1.818   2.786   1.469  3.6994 -2.1724  0.4600
  728SOL    HW2 2184   1.661   2.792   1.532  0.3064 -0.4143 -2.7322
  729SOL     OW 2185   2.274   0.791   2.188 -0.3974  0.2874  0.4642
  729SOL    HW1 2186   2.301   0.884   2.170  1.7266 -0.8972  2.3069
  729SOL    HW2 2187   2.177   0.763   2.181 -3.3774  0.5788  1.1371
  730SOL     OW 2188   1.246   0.862   1.515  0.8431 -0.0526 -0.6308
  730SOL    HW1 2189   1.147   0.870   1.471 -2.5949  1.4385 -0.7415
  730SOL    HW2 2190   1.310   0.887   1.442 -1.2919  1.4469  1.1304
  731SOL     OW 2191   0.527   0.538   0.125  0.3249 -0.0749 -0.6132
  731SOL    HW1 2192   0.617   0.576   0.158 -1.2054  3.5981 -0.4962
  731SOL    HW2 2193   0.482   0.611   0.065  0.9989  1.1715 -1.0350
  732SOL     OW 2194   0.326   0.459   0.301  0.0447  0.4013 -0.6730
  732SOL    HW1 2195   0.393   0.495   0.233  0.8949 -0.2440  1.0783
  732SOL    HW2 2196   0.365   0.378   0.346  2.7508  0.7796 -2.6360
  733SOL     OW 2197   1.826   1.510   2.539 -0.2016 -1.0732  0.0762
  733SOL    HW1 2198   1.726   1.511   2.532  2.8745  0.9521  0.8801
  733SOL    HW2 2199   1.849   1.532   2.633 -0.9428 -1.0564 -0.2267
  734SOL     OW 2200   0.259   1.990   2.680 -0.0642 -0.2796  0.5462
  734SOL    HW1 2201   0.225   1.950   2.766  0.4394  2.0467  1.8826
  734SOL    HW2 2202   0.257   2.091   2.691  0.8647 -1.1297 -3.2947
  735SOL     OW 2203   1.785   0.430   1.109 -0.2676 -0.4621 -0.1598
  735SOL    HW1 2204   1.854   0.481   1.055 -1.3164 -4.2435  0.8647
  735SOL    HW2 2205   1.825   0.398   1.197 -0.1626  2.7352  0.6775
  736SOL     OW 2206   1.708   1.686   2.939 -0.4727  0.4295  0.4154
  736SOL    HW1 2207   1.719   1.643   3.029 -1.0792  2.0196 -1.8943
  736SOL    HW2 2208   1.715   1.788   2.956  0.9267 -0.9279 -1.5724
  737SOL     OW 2209   3.019   0.348   0.414 -0.4472  0.2480  0.2317
  737SOL    HW1 2210   3.059   0.440   0.421 -2.3319  1.3275 -0.0448
  737SOL    HW2 2211   0.000   0.290   0.482  0.9487  1.0496 -0.8506
  738SOL     OW 2212   0.547   2.140   1.786  0.2168  0.3798  0.6065
  738SOL    HW1 2213   0.566   2.234   1.820 -0.9832  1.0898 -3.1070
  738SOL    HW2 2214   0.497   2.138   1.698 -1.8273  1.5356  0.1837
  739SOL     OW 2215   1.322   2.607   2.098 -0.6544  0.2834  0.0521
  739SOL    HW1 2216   1.308   2.621   1.996 -1.0627 -0.1236  0.7063
  739SOL    HW2 2217   1.247   2.547   2.133 -1.3358 -0.2533 -2.0991
  740SOL     OW 2218   2.142   2.361   1.350  0.2860  0.5343 -0.2712
  740SOL    HW1 2219   2.057   2.316   1.389 -1.2680 -1.5789  0.0464
  740SOL    HW2 2220   2.176   2.431   1.421  1.7167 -0.7373  0.9788
  741SOL     OW 2221   2.281   0.533   0.327  0.0968 -0.1313 -0.5148
  741SOL    HW1 2222   2.379   0.555   0.333 -1.6151  0.2464  0.6761
  741SOL    HW2 2223   2.216   0.604   0.290 -2.5171  0.6948  0.6987
  742SOL     OW 2224   1.108   2.226   0.122  0.4941  0.1516 -0.4106
  742SOL    HW1 2225   1.180   2.156   0.113  2.3606  1.0444  0.6605
  742SOL    HW2 2226   1.069   2.251   0.032 -0.0165  1.5533 -0.0906
  743SOL     OW 2227   2.496   1.084   1.878  0.2183  0.2581 -0.0539
  743SOL    HW1 2228   2.531   1.158   1.942 -1.5027  1.7010  4.4295
  743SOL    HW2 2229   2.399   1.103   1.855 -4.0578 -0.6121 -1.7760
  744SOL     OW 2230   2.685   0.449   0.671 -0.1298  0.3045 -0.3782
  744SOL    HW1 2231   2.721   0.384   0.597 -1.2392 -0.5105  0.8701
  744SOL    HW2 2232   2.763   0.520   0.685  2.4223 -1.7709  0.7794
  745SOL     OW 2233   2.519   1.333   1.664  0.0453 -0.0206  0.2218
  745SOL    HW1 2234   2.533   1.286   1.754 -1.5601 -0.5869  2.7152
  745SOL    HW2 2235   2.570   1.421   1.669  0.4957  0.5660  0.2495
  746SOL     OW 2236   1.376   1.366   0.886 -0.3863  0.3275 -0.0684
  746SOL    HW1 2237   1.430   1.436   0.944  2.4145  1.1769 -0.4458
  746SOL    HW2 2238   1.309   1.416   0.831  2.5584  1.2553 -1.2426
  747SOL     OW 2239   1.206   1.656   1.574 -0.4157 -0.0739 -0.4833
  747SOL    HW1 2240   1.250   1.742   1.601  0.8400 -1.9171  1.4211
  747SOL    HW2 2241   1.213   1.589   1.650  0.6572  1.2009 -0.9128
  748SOL     OW 2242   0.233   2.781   2.855  0.2993  0.1914  0.2164
  748SOL    HW1 2243   0.330   2.811   2.863 -0.0894  0.2125 -1.1813
  748SOL    HW2 2244   0.191   2.760   2.945  1.3301 -0.0310  0.6631
  749SOL     OW 2245   0.229   1.174   2.481  0.0365  0.1877  0.3290
  749SOL    HW1 2246   0.312   1.133   2.440 -1.6253  3.6761  1.4676
  749SOL    HW2 2247   0.234   1.275   2.475 -0.5712  1.2207  0.8504
  750SOL     OW 2248   1.942   0.858   1.859 -0.0628 -0.4377  0.2432
  750SOL    HW1 2249   1.871   0.783   1.851 -3.4752 -3.2407  0.4820
  750SOL    HW2 2250   1.912   0.951   1.826 -1.6681  0.6490  0.3874
  751SOL     OW 2251   2.551   0.360   0.300 -0.2195  0.0965  0.0192
  751SOL    HW1 2252   2.563   0.361   0.197 -0.6043  1.3885 -1.9213
  751SOL    HW2 2253   2.554   0.450   0.343 -2.1399 -0.4264  0.8860
  752SOL     OW 2254   0.322   2.465   1.081 -0.2592  0.2348 -0.2853
  752SOL    HW1 2255   0.351   2.441   1.176 -1.8102  2.4431 -1.1527
  752SOL    HW2 2256   0.387   2.424   1.016  0.8486  0.4727  3.4907
  753SOL     OW 2257   0.795   2.316   1.131 -0.0082 -0.3323 -0.5211
  753SOL    HW1 2258   0.846   2.309   1.045 -2.5005 -0.7293  1.1430
  753SOL    HW2 2259   0.760   2.223   1.151  0.4606  0.6798  0.1885
  754SOL     OW 2260   0.076   2.936   1.737 -0.2889  0.3272  0.0980
  754SOL    HW1 2261   3.058   2.992   1.733 -1.5414  0.2854 -0.0774
  754SOL    HW2 2262   0.072   2.834   1.707  0.3383 -1.8237  0.0309
  755SOL     OW 2263   2.237   0.351   0.558  0.1610 -0.2743  0.4194
  755SOL    HW1 2264   2.238   0.420   0.481 -2.4360  0.7500 -1.7236
  755SOL    HW2 2265   2.261   0.397   0.650  2.2620  0.7240  0.9447
  756SOL     OW 2266   2.180   2.351   2.660  0.0596 -0.4097 -0.5083
  756SOL    HW1 2267   2.197   2.384   2.756  1.9024 -0.6796 -0.5917
  756SOL    HW2 2268   2.204   2.435   2.604  0.4815  0.1775  2.0660
  757SOL     OW 2269   1.976   0.299   0.720 -0.0043  0.3235 -0.0252
  757SOL    HW1 2270   2.076   0.307   0.706 -1.9235 -1.1345 -1.1641
  757SOL    HW2 2271   1.940   0.395   0.717  1.7917  0.2759 -5.4792
  758SOL     OW 2272   2.174   0.403   1.416 -0.3800  0.0023 -0.1851
  758SOL    HW1 2273   2.263   0.387   1.370  0.2132  0.5375  0.2248
  758SOL    HW2 2274   2.162   0.334   1.490  0.0423  0.4054  0.1878
  759SOL     OW 2275   2.513   0.512   1.105  0.5986 -0.2530  0.0975
  759SOL    HW1 2276   2.604   0.542   1.126 -0.7418 -0.1294  1.2637
  759SOL    HW2 2277   2.487   0.525   1.005  0.2769  0.4817 -0.8530
  760SOL     OW 2278   2.305   1.230   1.078 -0.1796 -0.5588  0.2178
  760SOL    HW1 2279   2.251   1.303   1.131 -1.2931 -0.5022  0.1241
  760SOL    HW2 2280   2.403   1.239   1.102  2.1143  2.6675 -0.3749
  761SOL     OW 2281   0.693   0.609   0.463 -0.3717  0.1446 -0.3762
  761SOL    HW1 2282   0.669   0.630   0.366 -0.3860  2.7464 -1.2555
  761SOL    HW2 2283   0.635   0.653   0.531  2.9457 -1.3952  0.1146
  762SOL     OW 2284   0.989   1.796   0.601 -0.0985  0.2891  0.8124
  762SOL    HW1 2285   0.966   1.726   0.530 -1.1880  0.3796  0.8336
  762SOL    HW2 2286   0.921   1.873   0.598  1.3402 -3.7886 -1.5378
  763SOL     OW 2287   1.420   0.998   1.361  0.5958  0.3587  0.0803
  763SOL    HW1 2288   1.495   0.992   1.295  0.8426  0.8080 -0.2082
  763SOL    HW2 2289   1.383   1.094   1.367  1.6578  0.3812  0.1878
  764SOL     OW 2290   0.530   1.893   2.705 -0.2973 -0.2587  0.3674
  764SOL    HW1 2291   0.553   1.802   2.670 -0.9749 -4.1620 -1.0635
  764SOL    HW2 2292   0.452   1.929   2.662  1.1143 -1.8140  0.5284
  765SOL     OW 2293   0.418   2.760   1.771 -0.0140  0.0516 -0.3927
  765SOL    HW1 2294   0.423   2.705   1.687 -0.3006 -1.7034  0.0430
  765SOL    HW2 2295   0.462   2.852   1.767 -2.4267 -1.7133  0.5877
  766SOL     OW 2296   2.498   1.979   2.069  0.3718 -0.5571 -0.4191
  766SOL    HW1 2297   2.520   2.053   2.137 -2.1578 -0.2003  0.1529
  766SOL    HW2 2298   2.458   2.022   1.988  2.9462  0.6733  1.5755
  767SOL     OW 2299   1.717   1.085   2.416 -0.1776  0.5356  0.1972
  767SOL    HW1 2300   1.765   1.015   2.474  3.5285 -0.0968  0.2534
  767SOL    HW2 2301   1.628   1.113   2.460 -0.0538  0.4372 -0.7350
  768SOL     OW 2302   1.680   1.837   0.332  0.1562  0.0209  0.0624
  768SOL    HW1 2303   1.722   1.896   0.404 -2.0312  1.0924  0.9346
  768SOL    HW2 2304   1.693   1.872   0.240 -0.4839 -0.8959  1.4570
  769SOL     OW 2305   0.333   1.375   1.258 -0.3182  0.2746 -0.1477
  769SOL    HW1 2306   0.334   1.286   1.307  0.2108  1.6814 -1.7324
  769SOL    HW2 2307   0.425   1.398   1.219  0.9719  4.2498  0.7408
  770SOL     OW 2308   1.414   0.894   2.936  0.3825  0.5382 -0.1786
  770SOL    HW1 2309   1.346   0.964   2.934 -1.7179 -3.1792 -2.0208
  770SOL    HW2 2310   1.479   0.903   2.861 -0.6414 -1.8476 -0.4255
  771SOL     OW 2311   0.101   2.886   2.181  0.2953 -0.0235 -0.5004
  771SOL    HW1 2312   0.144   2.882   2.273  0.5138  0.3143 -2.5206
  771SOL    HW2 2313   0.152   2.827   2.116 -0.8042 -0.1806 -1.1282
  772SOL     OW 2314   2.032   1.909   1.588 -0.0060  0.0221  0.2829
  772SOL    HW1 2315   2.129   1.905   1.613 -0.9005 -2.9902 -3.5343
  772SOL    HW2 2316   2.032   1.940   1.491  1.8333 -2.0255 -2.9643
  773SOL     OW 2317   0.589   1.615   1.614 -0.2949  0.2567  0.1176
  773SOL    HW1 2318   0.668   1.585   1.554  3.0053 -0.0822 -2.8713
  773SOL    HW2 2319   0.562   1.540   1.680 -1.9241  0.5304  2.1606
  774SOL     OW 2320   1.355   0.650   2.966 -0.1737  0.0367  0.2247
  774SOL    HW1 2321   1.386   0.747   2.975  1.7897 -0.1311 -3.0651
  774SOL    HW2 2322   1.350   0.614   3.057  2.2503  1.7202 -0.7946
  775SOL     OW 2323   1.941   2.945   3.034 -0.3646 -0.0348 -0.3077
  775SOL    HW1 2324   1.894   3.029   3.068 -1.5806  0.2045  1.6105
  775SOL    HW2 2325   1.995   2.896   0.039  2.7717 -2.7132  0.4454
  776SOL     OW 2326   0.313   0.755   1.822 -0.1768 -0.3302  0.0810
  776SOL    HW1 2327   0.238   0.685   1.833 -1.3164  0.4443 -1.8818
  776SOL    HW2 2328   0.392   0.699   1.832 -0.6256 -0.1660  0.7180
  777SOL     OW 2329   2.173   1.822   1.890  0.0829 -0.0814  0.5679
  777SOL    HW1 2330   2.082   1.794   1.860  2.3883 -3.5992 -1.6567
  777SOL    HW2 2331   2.172   1.918   1.922  0.1320 -1.2249  1.2125
  778SOL     OW 2332   1.993   0.753   2.124 -0.5662  0.6502  0.2483
  778SOL    HW1 2333   2.006   0.658   2.091  3.4976  1.2890  0.3331
  778SOL    HW2 2334   1.978   0.810   2.046 -0.5718 -1.5851  3.7833
  779SOL     OW 2335   2.508   1.153   0.184 -0.3004 -0.3376 -0.1039
  779SOL    HW1 2336   2.566   1.234   0.159  2.4867 -2.1515 -2.1517
  779SOL    HW2 2337   2.453   1.113   0.108  1.6207 -0.1462  1.0765
  780SOL     OW 2338   2.543   0.388   2.658  0.0906  0.3898  0.1769
  780SOL    HW1 2339   2.600   0.378   2.744  0.7947  0.8092  2.7433
  780SOL    HW2 2340   2.544   0.305   2.601 -0.0250 -0.1338  0.1834
  781SOL     OW 2341   0.168   1.991   1.752 -0.5077 -0.5559  0.4088
  781SOL    HW1 2342   0.261   2.000   1.716  0.5990 -0.0304 -0.0146
  781SOL    HW2 2343   0.135   1.896   1.737  1.2927  1.3106  2.2443
  782SOL     OW 2344   2.229   2.178   2.928 -0.1976 -0.2788  0.3064
  782SOL    HW1 2345   2.169   2.223   2.995  0.2846 -0.0537  0.3587
  782SOL    HW2 2346   2.319   2.221   2.918  1.0080  0.4962 -1.1459
  783SOL     OW 2347   0.617   1.306   1.437  0.1362  0.0004  0.3424
  783SOL    HW1 2348   0.691   1.360   1.476 -1.3524  2.6191 -1.8418
  783SOL    HW2 2349   0.601   1.330   1.339  0.4025  1.1176 -0.6469
  784SOL     OW 2350   1.958   0.762   2.733  0.0303 -0.4744 -0.1199
  784SOL    HW1 2351   1.988   0.667   2.755  2.4173 -0.9467  0.0024
  784SOL    HW2 2352   1.928   0.811   2.818 -0.2980  0.4213  0.8212
  785SOL     OW 2353   2.228   2.605   0.859  0.0844 -0.1438  0.2387
  785SOL    HW1 2354   2.278   2.541   0.798  1.8594  2.2999 -0.5045
  785SOL    HW2 2355   2.183   2.677   0.804  1.2246  1.6019 -3.0799
  786SOL     OW 2356   0.615   2.293   2.242 -0.2437 -0.1946  0.1138
  786SOL    HW1 2357   0.536   2.252   2.292 -2.7887 -1.9840  0.9912
  786SOL    HW2 2358   0.621   2.389   2.253  0.0537 -0.2219  1.2260
  787SOL     OW 2359   1.384   0.709   1.117  0.5147  0.4614 -0.2110
  787SOL    HW1 2360   1.391   0.670   1.208  1.7245 -0.7419  1.8164
  787SOL    HW2 2361   1.465   0.682   1.066 -0.1233 -0.8965  1.9720
  788SOL     OW 2362   0.084   0.581   0.414 -0.2189 -0.0218  0.2250
  788SOL    HW1 2363   0.174   0.531   0.415 -0.3155 -1.3361 -1.1724
  788SOL    HW2 2364   0.101   0.681   0.389  1.0629  0.3236  0.9836
  789SOL     OW 2365   3.037   1.969   1.362  0.4076 -0.0445 -0.1015
  789SOL    HW1 2366   3.014   1.957   1.259 -1.6686 -3.8909 -0.2855
  789SOL    HW2 2367   0.029   2.047   1.384  3.0918  0.0571 -1.2246
  790SOL     OW 2368   1.536   0.846   1.794 -0.3010  0.3677 -0.3266
  790SOL    HW1 2369   1.450   0.809   1.827  0.7298  2.7419 -1.2824
  790SOL    HW2 2370   1.539   0.947   1.793  0.5462  0.6568 -0.5941
  791SOL     OW 2371   1.614   0.585   0.657 -0.2760 -0.2360 -0.6816
  791SOL    HW1 2372   1.611   0.536   0.566  2.5660 -0.0761  2.6335
  791SOL    HW2 2373   1.553   0.542   0.728 -0.4844 -2.8140  2.1741
  792SOL     OW 2374   1.488   2.769   1.795  0.0146 -0.0659 -0.4777
  792SOL    HW1 2375   1.435   2.824   1.863 -2.6657  1.4374  0.4011
  792SOL    HW2 2376   1.441   2.752   1.707 -0.1963  0.5497 -0.5627
  793SOL     OW 2377   0.611   0.042   0.714 -0.0855 -0.2663 -0.2209
  793SOL    HW1 2378   0.669   0.117   0.749 -0.2748 -1.6472 -0.3634
  793SOL    HW2 2379   0.511   0.065   0.727 -0.7909 -1.0541 -1.2728
  794SOL     OW 2380   0.858   1.049   2.279  0.1026  0.3057 -0.2211
  794SOL    HW1 2381   0.901   0.961   2.308  1.7388  2.0483  0.2572
  794SOL    HW2 2382   0.896   1.084   2.192 -0.2353 -2.2515  1.6187
  795SOL     OW 2383   0.242   1.825   2.327 -0.2885 -0.4741  0.2064
  795SOL    HW1 2384   0.196   1.846   2.237 -3.5336 -0.5881 -2.0079
  795SOL    HW2 2385   0.167   1.823   2.406 -2.4940 -0.6464  1.8841
  796SOL     OW 2386   2.468   1.291   2.077  0.3850  0.1244 -0.1602
  796SOL    HW1 2387   2.519   1.324   2.157 -0.2365  2.2792 -1.0030
  796SOL    HW2 2388   2.433   1.374   2.033 -0.2267 -0.1321 -0.9573
  797SOL     OW 2389   2.862   2.509   2.813 -0.6055  0.2688 -0.4595
  797SOL    HW1 2390   2.961   2.521   2.838  1.0119  0.0277 -0.6628
  797SOL    HW2 2391   2.844   2.499   2.710  1.1981  3.5851 -2.5766
  798SOL     OW 2392   2.966   2.163   2.133 -0.0873  0.0433  0.2469
  798SOL    HW1 2393   3.060   2.196   2.156 -0.8574 -1.4109  0.0344
  798SOL    HW2 2394   2.965   2.063   2.146  1.7441  2.6093 -1.0033
  799SOL     OW 2395   3.058   2.231   2.905 -0.1281 -0.6346  0.2545
  799SOL    HW1 2396   2.964   2.189   2.909  0.8673  0.6457 -0.6725
  799SOL    HW2 2397   0.029   2.208   2.817 -1.6789  0.0852  0.5715
  800SOL     OW 2398   1.457   1.735   0.471 -0.1035  0.2445 -0.0799
  800SOL    HW1 2399   1.429   1.773   0.562 -2.9617  2.1468  1.9831
  800SOL    HW2 2400   1.546   1.763   0.430 -1.0040 -1.2883  1.9052
  801SOL     OW 2401   1.880   1.300   1.126 -0.0546  0.4455  0.3716
  801SOL    HW1 2402   1.972   1.340   1.128  0.0751 -2.4654  1.5116
  801SOL    HW2 2403   1.860   1.251   1.216  0.6197  0.2219  0.4767
  802SOL     OW 2404   2.946   1.435   0.170  0.6319 -0.2478 -0.2306
  802SOL    HW1 2405   2.917   1.528   0.148  0.5951 -0.9371 -1.0573
  802SOL    HW2 2406   2.879   1.396   0.236  0.6926 -0.2297 -0.5775
  803SOL     OW 2407   1.496   1.819   2.570  0.1816  0.3340  0.4192
  803SOL    HW1 2408   1.562   1.830   2.496 -0.8079  0.9754 -2.6302
  803SOL    HW2 2409   1.401   1.845   2.537 -2.6491  2.1915 -1.5197
  804SOL     OW 2410   1.721   1.375   0.265  0.1583 -0.5635  0.1119
  804SOL    HW1 2411   1.693   1.370   0.364 -2.6274  2.2899  0.0831
  804SOL    HW2 2412   1.823   1.378   0.254  1.2951  1.4838 -0.6721
  805SOL     OW 2413   2.452   1.636   2.510  0.0211  0.3767 -0.1312
  805SOL    HW1 2414   2.442   1.646   2.410 -0.7208 -1.7349 -1.2195
  805SOL    HW2 2415   2.490   1.724   2.543  2.3543 -2.0259 -0.5769
  806SOL     OW 2416   0.327   2.957   0.276  0.7341 -0.1375 -0.0448
  806SOL    HW1 2417   0.385   3.032   0.243 -3.5015 -1.4921  1.6056
  806SOL    HW2 2418   0.353   2.866   0.228 -2.9753 -1.2530 -0.7591
  807SOL     OW 2419   1.853   1.345   2.862  0.1979 -0.6604  0.4267
  807SOL    HW1 2420   1.887   1.442   2.844 -0.4869  1.2375 -1.6212
  807SOL    HW2 2421   1.858   1.282   2.781  0.8393  1.4781  0.4449
  808SOL     OW 2422   0.007   1.701   0.344  0.3766  0.2243 -0.1220
  808SOL    HW1 2423   3.035   1.611   0.375 -0.1315  1.4855 -2.0763
  808SOL    HW2 2424   3.003   1.769   0.325  1.7837  0.2015  0.7766
  809SOL     OW 2425   2.335   1.041   3.066  0.5061 -0.2496 -0.1479
  809SOL    HW1 2426   2.270   0.962   3.050 -0.5456 -1.2558  1.1611
  809SOL    HW2 2427   2.288   1.118   0.037  3.6339 -1.7456  0.1533
  810SOL     OW 2428   0.501   1.161   0.294 -0.1285 -0.0424  0.0531
  810SOL    HW1 2429   0.514   1.215   0.209  2.5711 -0.9948 -2.7031
  810SOL    HW2 2430   0.450   1.078   0.272 -1.3267  1.8882  0.4318
  811SOL     OW 2431   1.288   2.383   1.503  0.4030  0.5054 -0.0843
  811SOL    HW1 2432   1.318   2.472   1.470 -0.5766 -4.0013  0.0139
  811SOL    HW2 2433   1.356   2.344   1.569  2.1621 -3.2745 -0.0484
  812SOL     OW 2434   0.761   2.692   1.624 -0.2901 -0.0220  0.3031
  812SOL    HW1 2435   0.807   2.651   1.540 -0.0997  2.3643  0.7260
  812SOL    HW2 2436   0.715   2.777   1.598  0.8436 -1.9747  1.1522
  813SOL     OW 2437   1.337   0.247   2.082  0.5972 -0.0373 -0.1849
  813SOL    HW1 2438   1.397   0.168   2.066 -0.7294  1.3364  0.9192
  813SOL    HW2 2439   1.266   0.221   2.153 -0.0316 -1.7971 -0.4168
  814SOL     OW 2440   1.156   2.421   2.703  0.2207 -0.1959 -0.2678
  814SOL    HW1 2441   1.196   2.403   2.613 -0.7153 -0.4910 -0.9144
  814SOL    HW2 2442   1.234   2.418   2.773  2.3307  0.5971  0.6166
  815SOL     OW 2443   0.444   0.113   1.995 -0.5206 -0.3313 -0.0511
  815SOL    HW1 2444   0.431   0.153   2.089  0.1786  2.3121 -0.1845
  815SOL    HW2 2445   0.367   0.051   1.967  1.7074 -0.0196  0.8215
  816SOL     OW 2446   2.098   0.409   3.010 -0.2218 -0.1922 -0.6221
  816SOL    HW1 2447   2.182   0.464   2.984 -0.2065 -0.8896 -2.7219
  816SOL    HW2 2448   2.026   0.480   3.020  1.6567 -3.6123  1.1310
  817SOL     OW 2449   2.349   0.582   2.361 -0.0285  0.0724 -0.2016
  817SOL    HW1 2450   2.327   0.650   2.284  1.9299  0.0365 -2.4396
  817SOL    HW2 2451   2.265   0.552   2.412 -2.3402 -2.5772  1.2492
  818SOL     OW 2452   1.778   0.361   0.095  0.3917 -0.1436  0.2144
  818SOL    HW1 2453   1.775   0.393   0.189  0.2116  0.7137 -4.0676
  818SOL    HW2 2454   1.829   0.432   0.039  0.8314  1.5672 -1.8447
  819SOL     OW 2455   2.156   1.753   2.764 -0.2145  0.5117  0.1806
  819SOL    HW1 2456   2.195   1.812   2.686 -0.0773 -0.8419 -2.2417
  819SOL    HW2 2457   2.178   1.796   2.855 -3.1823 -1.3708  0.1359
  820SOL     OW 2458   0.070   1.913   0.096 -0.3398  0.0655  0.4569
  820SOL    HW1 2459   0.004   1.981   0.062 -2.0573 -1.8528 -1.0798
  820SOL    HW2 2460   0.127   1.947   0.176 -0.5502 -1.7276  1.5301
  821SOL     OW 2461   0.442   2.792   0.740  0.0116 -0.2562  0.4511
  821SOL    HW1 2462   0.541   2.827   0.742  1.2524  0.9651  0.7289
  821SOL    HW2 2463   0.401   2.841   0.656 -1.2249  0.2693 -2.2578
  822SOL     OW 2464   2.686   2.732   2.806  0.2929 -0.9369 -0.1956
  822SOL    HW1 2465   2.605   2.678   2.779  1.2373  1.9905  0.0875
  822SOL    HW2 2466   2.751   2.672   2.846 -2.0726 -1.3854  0.6168
  823SOL     OW 2467   1.358   0.356   2.572  0.4004  0.7065 -0.0984
  823SOL    HW1 2468   1.425   0.316   2.506  0.1728 -0.6118 -3.4917
  823SOL    HW2 2469   1.404   0.412   2.642  1.2385  1.0276 -1.1186
  824SOL     OW 2470   2.546   1.917   1.636 -0.6646  0.3555 -0.6661
  824SOL    HW1 2471   2.648   1.906   1.615 -1.3983 -1.2670 -0.2439
  824SOL    HW2 2472   2.538   1.985   1.715 -0.2150  3.5975 -0.8482
  825SOL     OW 2473   2.667   1.973   2.349 -0.5199 -0.3083 -0.5390
  825SOL    HW1 2474   2.770   1.980   2.372 -0.9141  2.3030 -1.5616
  825SOL    HW2 2475   2.633   2.053   2.296  1.2304 -3.9742  4.3729
  826SOL     OW 2476   2.400   1.613   2.227 -0.6657 -0.4244  0.4128
  826SOL    HW1 2477   2.487   1.585   2.182  0.8733  1.7221  2.1380
  826SOL    HW2 2478   2.344   1.527   2.228 -1.3804  2.8051  1.1828
  827SOL     OW 2479   2.371   2.199   1.333 -0.6794  0.0754 -0.1965
  827SOL    HW1 2480   2.300   2.271   1.328  0.0449 -3.9045 -0.9681
  827SOL    HW2 2481   2.356   2.127   1.264  0.0830  2.7373  2.9387
  828SOL     OW 2482   3.041   0.053   1.368  0.0488  0.2031  0.1087
  828SOL    HW1 2483   0.028   0.055   1.285 -2.2528 -0.4416  1.0523
  828SOL    HW2 2484   3.054   0.139   1.422  0.2723 -0.0078 -1.6968
  829SOL     OW 2485   1.602   2.157   2.504 -0.0740 -0.3772  0.0977
  829SOL    HW1 2486   1.576   2.100   2.425 -0.6838  1.9872  0.4418
  829SOL    HW2 2487   1.703   2.165   2.509 -1.3561 -0.7285 -1.5511
  830SOL     OW 2488   1.251   0.595   0.607  0.2184 -0.2227 -0.2873
  830SOL    HW1 2489   1.307   0.565   0.684 -1.3452 -2.0097 -0.1872
  830SOL    HW2 2490   1.294   0.670   0.554 -2.8966  1.4848  0.2298
  831SOL     OW 2491   2.574   1.244   2.854  0.2616 -0.6765 -0.0235
  831SOL    HW1 2492   2.663   1.237   2.904 -1.6794  1.4561  1.3882
  831SOL    HW2 2493   2.590   1.308   2.775  0.9461  0.4021 -0.5933
  832SOL     OW 2494   1.539   1.981   1.828 -0.2425  0.0008  0.1939
  832SOL    HW1 2495   1.508   2.073   1.862  0.8339  0.8822  0.0256
  832SOL    HW2 2496   1.637   1.975   1.803 -0.1235 -1.4999 -1.3232
  833SOL     OW 2497   0.060   0.354   2.014  0.5665  0.6690 -0.2914
  833SOL    HW1 2498   0.007   0.270   1.995  0.0455 -0.0668  1.9413
  833SOL    HW2 2499   0.051   0.373   2.115 -0.2638 -0.8429  1.5683
  834SOL     OW 2500   0.995   1.182   1.655  0.6922 -0.1598 -0.3021
  834SOL    HW1 2501   0.994   1.192   1.552 -0.3893 -0.6025 -0.9509
  834SOL    HW2 2502   1.067   1.117   1.691  1.8247  2.1335  0.7673
  835SOL     OW 2503   2.755   0.944   2.888  0.0131  0.4935  0.0884
  835SOL    HW1 2504   2.653   0.930   2.868 -1.4515  0.9701  1.2297
  835SOL    HW2 2505   2.804   0.870   2.830 -0.5045  0.9208  1.5807
  836SOL     OW 2506   1.247   1.555   0.452 -0.6655 -0.2542 -0.0374
  836SOL    HW1 2507   1.172   1.598   0.402  2.2838 -0.1822 -0.7899
  836SOL    HW2 2508   1.321   1.625   0.462  2.9020  0.6908 -1.8481
  837SOL     OW 2509   1.575   1.338   1.229  0.3251  0.2335  0.0760
  837SOL    HW1 2510   1.567   1.367   1.324 -1.3182 -1.4518 -0.1811
  837SOL    HW2 2511   1.571   1.418   1.169 -1.1763 -0.9327 -0.4356
  838SOL     OW 2512   0.951   1.679   2.308  0.1842 -0.0498 -0.2807
  838SOL    HW1 2513   1.041   1.636   2.320 -0.6589 -0.2642  0.4670
  838SOL    HW2 2514   0.958   1.774   2.340 -0.4879 -0.7271 -1.4921
  839SOL     OW 2515   0.699   2.015   2.531  0.1013  0.3902 -0.0349
  839SOL    HW1 2516   0.622   2.009   2.596  0.4043 -0.2514  1.1523
  839SOL    HW2 2517   0.675   1.982   2.436 -2.8394  0.1680 -0.9288
  840SOL     OW 2518   0.740   2.459   0.472  0.3587 -0.3379 -0.0104
  840SOL    HW1 2519   0.780   2.434   0.564 -0.2732  0.3775  2.3717
  840SOL    HW2 2520   0.816   2.475   0.406  0.2888 -0.8499 -1.4084
  841SOL     OW 2521   1.900   2.546   0.111 -0.4994 -0.4999  0.4408
  841SOL    HW1 2522   1.856   2.535   0.202  1.4227  0.8161 -2.4186
  841SOL    HW2 2523   1.960   2.627   0.116 -0.4538 -2.1082 -0.0331
  842SOL     OW 2524   0.624   0.827   2.918 -0.0292 -0.1800  0.0287
  842SOL    HW1 2525   0.648   0.916   2.871  0.2160 -1.7939 -0.5132
  842SOL    HW2 2526   0.706   0.767   2.935 -0.4467  0.9283  2.0535
  843SOL     OW 2527   1.258   0.232   0.715  0.1769  0.2831  0.4863
  843SOL    HW1 2528   1.349   0.185   0.735  1.7566 -0.3579  1.0072
  843SOL    HW2 2529   1.256   0.270   0.621 -1.3723  1.6160  2.2183
  844SOL     OW 2530   2.651   2.792   2.537  0.0446 -0.0204 -0.0048
  844SOL    HW1 2531   2.727   2.807   2.474 -0.4215  1.0834  1.3233
  844SOL    HW2 2532   2.675   2.771   2.634 -0.5339  1.9252  0.0636
  845SOL     OW 2533   2.776   2.262   0.935 -0.0930 -0.2402 -0.3299
  845SOL    HW1 2534   2.855   2.323   0.914  2.4038  3.0309 -3.2976
  845SOL    HW2 2535   2.698   2.313   0.978  4.8587 -0.1458  0.2789
  846SOL     OW 2536   0.060   1.821   2.566 -0.1565 -0.5502 -0.2574
  846SOL    HW1 2537   0.050   1.730   2.605  1.1138  1.1438  1.7520
  846SOL    HW2 2538   0.132   1.869   2.620 -1.8713  0.5718  0.5601
  847SOL     OW 2539   1.330   0.643   1.636 -0.0873 -0.3459 -0.3104
  847SOL    HW1 2540   1.306   0.736   1.599  0.6061  0.8638  2.9448
  847SOL    HW2 2541   1.316   0.644   1.735 -2.5647  0.2803 -1.7132
  848SOL     OW 2542   2.535   2.951   2.931 -0.3615 -0.0863  0.6327
  848SOL    HW1 2543   2.523   2.923   3.029 -0.0634 -0.7606 -1.8926
  848SOL    HW2 2544   2.567   2.881   2.871  0.4411  0.6977  2.0675
  849SOL     OW 2545   0.534   2.755   2.717  0.0775 -0.5644 -0.2464
  849SOL    HW1 2546   0.511   2.738   2.818 -0.2464  2.0151 -0.6356
  849SOL    HW2 2547   0.608   2.825   2.703  0.8171  1.2698  1.9191
  850SOL     OW 2548   1.155   2.564   1.029  0.0645 -0.1823 -0.2974
  850SOL    HW1 2549   1.101   2.524   1.105  5.9073  2.1951 -0.8523
  850SOL    HW2 2550   1.190   2.659   1.059 -4.5445 -0.3619 -0.1281
  851SOL     OW 2551   2.765   0.284   2.187 -0.0007 -0.2268 -0.4044
  851SOL    HW1 2552   2.816   0.327   2.266  2.6499  2.9962 -1.5992
  851SOL    HW2 2553   2.830   0.271   2.112  0.2817 -0.6709 -1.3701
  852SOL     OW 2554   2.117   1.161   2.293  0.4181  0.1235 -0.2839
  852SOL    HW1 2555   2.023   1.203   2.306  0.0030  1.6289 -0.6979
  852SOL    HW2 2556   2.145   1.103   2.374 -0.0515 -0.3685  0.2639
  853SOL     OW 2557   2.841   3.033   0.481 -0.5360  0.2751  0.1942
  853SOL    HW1 2558   2.855   0.060   0.500 -1.5120 -0.9621 -1.5244
  853SOL    HW2 2559   2.838   2.970   0.560 -1.6614 -2.8487 -0.2121
  854SOL     OW 2560   2.221   0.925   1.902  0.0178  0.4970 -0.4767
  854SOL    HW1 2561   2.247   0.992   1.973  0.5831  1.0068  3.2205
  854SOL    HW2 2562   2.122   0.925   1.892 -1.3993  1.4133  1.5604
  855SOL     OW 2563   1.305   2.361   0.329  0.3876 -0.2069  0.6930
  855SOL    HW1 2564   1.236   2.313   0.271  1.4563 -0.2746  0.7384
  855SOL    HW2 2565   1.295   2.463   0.328  1.1504 -0.3908  1.5572
  856SOL     OW 2566   2.898   0.246   2.647  0.2117 -0.0152  0.2271
  856SOL    HW1 2567   2.894   0.158   2.589 -0.0588 -4.0238  1.1631
  856SOL    HW2 2568   2.906   0.213   2.743  1.0943 -0.2283 -1.7669
  857SOL     OW 2569   1.263   3.026   1.782  0.1525  0.1159 -0.4659
  857SOL    HW1 2570   1.174   0.007   1.791  1.5134  1.7061 -2.1484
  857SOL    HW2 2571   1.303   3.006   1.871 -0.2886  0.6961 -3.3628
  858SOL     OW 2572   2.250   2.169   1.662 -0.0062 -0.7971  0.2888
  858SOL    HW1 2573   2.252   2.093   1.596 -1.8569 -1.0929 -0.8010
  858SOL    HW2 2574   2.159   2.206   1.670 -1.0263 -0.3351 -3.6267
  859SOL     OW 2575   1.034   2.442   1.239  0.0117  0.3924 -0.4599
  859SOL    HW1 2576   0.957   2.397   1.202 -0.9129  2.4265  1.5884
  859SOL    HW2 2577   1.090   2.376   1.295 -0.4429 -1.7426  5.3742
  860SOL     OW 2578   2.387   2.599   0.001 -0.4682 -1.4015  0.2821
  860SOL    HW1 2579   2.476   2.587   3.021 -1.0675 -0.2048 -0.2647
  860SOL    HW2 2580   2.308   2.560   3.018 -1.4330 -2.5143  0.1507
  861SOL     OW 2581   2.149   2.993   0.851  1.0295 -0.1363  0.4647
  861SOL    HW1 2582   2.105   0.016   0.870 -2.3883  3.7927 -1.4330
  861SOL    HW2 2583   2.168   2.948   0.940  0.7621  0.7600 -0.7542
  862SOL     OW 2584   1.819   2.932   2.295 -0.4354 -0.2536 -0.2432
  862SOL    HW1 2585   1.841   2.906   2.392  0.4509 -2.1229 -1.0639
  862SOL    HW2 2586   1.911   2.922   2.248 -3.2707  0.3928  2.4915
  863SOL     OW 2587   0.099   0.689   0.710  0.0534  0.0111  0.5241
  863SOL    HW1 2588   0.124   0.786   0.700 -0.3875  1.4868 -1.4988
  863SOL    HW2 2589   0.088   0.647   0.620  2.8223 -0.8848  1.7841
  864SOL     OW 2590   0.009   2.440   2.230  0.0866 -0.0275 -0.0448
  864SOL    HW1 2591   0.072   2.363   2.237 -1.2008 -0.7596  0.4904
  864SOL    HW2 2592   0.045   2.507   2.164 -0.8573  0.1842  1.1049
  865SOL     OW 2593   0.457   1.452   2.779 -0.9360  0.0140 -0.2376
  865SOL    HW1 2594   0.395   1.511   2.829  2.3280 -1.3648 -2.5122
  865SOL    HW2 2595   0.478   1.367   2.835  0.3317 -1.5362  1.2236
  866SOL     OW 2596   2.828   0.733   2.734 -0.4012 -0.3383  0.2413
  866SOL    HW1 2597   2.890   0.750   2.655 -0.0641  1.4065  0.3005
  866SOL    HW2 2598   2.851   0.642   2.771  0.5952 -0.9034  0.2826
  867SOL     OW 2599   0.114   2.996   2.732 -0.5605 -1.0578  0.0271
  867SOL    HW1 2600   0.166   2.923   2.784  1.8452 -1.4916  2.1082
  867SOL    HW2 2601   0.017   2.998   2.757  1.1198  1.6403 -4.0781
  868SOL     OW 2602   1.411   2.908   0.877  0.2033  0.0971 -0.7123
  868SOL    HW1 2603   1.392   2.999   0.920  0.7448  0.1193 -3.5030
  868SOL    HW2 2604   1.502   2.873   0.904 -0.0861 -0.9140  0.9223
  869SOL     OW 2605   1.520   1.555   1.036  0.0195 -0.0278  0.3794
  869SOL    HW1 2606   1.609   1.583   0.999 -1.4962  3.6937  2.5287
  869SOL    HW2 2607   1.465   1.634   1.061 -0.7996 -1.2055 -0.4731
  870SOL     OW 2608   2.092   1.890   1.080  0.3374  0.1767 -0.3963
  870SOL    HW1 2609   2.115   1.900   0.986  1.3488  0.4746  3.2651
  870SOL    HW2 2610   2.035   1.805   1.090 -1.1429  1.2947  2.8832
  871SOL     OW 2611   0.823   1.722   1.755 -0.0884 -0.0742  0.5205
  871SOL    HW1 2612   0.733   1.680   1.741 -1.5922 -0.9765 -0.7517
  871SOL    HW2 2613   0.813   1.824   1.736  1.9859  1.0610 -0.0447
  872SOL     OW 2614   1.047   1.451   1.382 -0.1071  0.3618  0.3083
  872SOL    HW1 2615   1.146   1.446   1.361  1.5725 -1.4661 -1.5531
  872SOL    HW2 2616   0.992   1.377   1.341 -0.7125 -1.2707  1.4263
  873SOL     OW 2617   1.130   1.072   2.690 -0.4126 -0.0411 -0.2771
  873SOL    HW1 2618   1.139   1.151   2.626  0.4732  2.2982  0.8849
  873SOL    HW2 2619   1.167   1.092   2.785  0.2924 -0.3880 -0.3750
  874SOL     OW 2620   0.129   1.499   1.437  0.2025 -0.2191  0.3805
  874SOL    HW1 2621   0.133   1.597   1.455 -0.2955 -0.4147  0.4593
  874SOL    HW2 2622   0.220   1.466   1.406 -0.2002  0.2089  1.5416
  875SOL     OW 2623   2.805   2.877   0.720 -0.5934  0.1246 -0.0627
  875SOL    HW1 2624   2.792   2.933   0.802  0.2416 -0.8909 -0.7690
  875SOL    HW2 2625   2.742   2.798   0.726  3.0512 -0.5907 -1.6412
  876SOL     OW 2626   0.837   0.648   2.918 -0.3882  0.2372 -0.1531
  876SOL    HW1 2627   0.886   0.558   2.931  2.0062  0.7037  1.4234
  876SOL    HW2 2628   0.910   0.719   2.891  1.0898  0.4485 -1.1842
  877SOL     OW 2629   0.021   0.307   1.126 -0.5948  0.0938 -0.2405
  877SOL    HW1 2630   3.038   0.290   1.212  0.0353  0.3522  1.4441
  877SOL    HW2 2631   0.102   0.365   1.143 -0.2691  1.1470  0.7834
  878SOL     OW 2632   1.675   2.477   3.002 -0.2586  0.2383  0.0835
  878SOL    HW1 2633   1.767   2.464   3.031  1.8994 -1.5410  1.6283
  878SOL    HW2 2634   1.609   2.440   0.001  0.0329  0.6595 -0.4879
  879SOL     OW 2635   2.276   1.593   1.569  0.4292  0.1540  0.6312
  879SOL    HW1 2636   2.321   1.637   1.647 -0.8370  1.9328  0.8161
  879SOL    HW2 2637   2.274   1.651   1.486  0.4689  0.0535  0.8123
  880SOL     OW 2638   0.812   0.745   1.547  0.0692  0.0603 -0.2922
  880SOL    HW1 2639   0.873   0.664   1.538  1.1466 -0.3148  1.2529
  880SOL    HW2 2640   0.804   0.780   1.642  0.1892  1.0368 -0.7576
  881SOL     OW 2641   0.985   1.862   0.024  0.1634  0.2041  0.3875
  881SOL    HW1 2642   0.933   1.782   3.055  1.1330  0.1306 -0.0713
  881SOL    HW2 2643   1.049   1.907   3.025  1.0246 -0.7117  0.3384
  882SOL     OW 2644   2.120   0.911   1.473  0.5982  0.5089 -0.1442
  882SOL    HW1 2645   2.128   0.898   1.574  2.1910  0.3311 -1.7232
  882SOL    HW2 2646   2.079   0.824   1.435 -2.7952  1.1906  1.6376
  883SOL     OW 2647   1.500   0.483   2.051 -0.5745 -0.6899 -0.3919
  883SOL    HW1 2648   1.593   0.455   2.083 -0.1196 -0.6493  2.0336
  883SOL    HW2 2649   1.441   0.402   2.036  0.9088 -0.3497  1.7603
  884SOL     OW 2650   2.504   0.149   0.060  0.2226  0.2718 -0.5549
  884SOL    HW1 2651   2.410   0.189   0.070 -3.9764 -0.1235  0.4388
  884SOL    HW2 2652   2.503   0.049   0.060  0.5064 -2.9151  0.7665
  885SOL     OW 2653   0.523   2.019   0.526 -0.4934  0.2890 -0.6594
  885SOL    HW1 2654   0.471   2.079   0.463  0.3272  0.7215 -1.7188
  885SOL    HW2 2655   0.462   1.988   0.601  2.5731  3.8285 -0.4254
  886SOL     OW 2656   1.619   1.160   0.136 -0.4391  0.7767  0.2700
  886SOL    HW1 2657   1.528   1.123   0.168 -1.5187 -0.1451 -1.1792
  886SOL    HW2 2658   1.643   1.245   0.188  0.8823  0.7594  3.0069
  887SOL     OW 2659   1.529   0.413   1.718 -0.1130  0.1377  0.6930
  887SOL    HW1 2660   1.630   0.432   1.707  0.2767  3.4322 -1.7661
  887SOL    HW2 2661   1.478   0.485   1.668  2.4732  1.5147 -0.5815
  888SOL     OW 2662   2.825   1.230   1.529  0.1067  0.4233  0.4043
  888SOL    HW1 2663   2.842   1.300   1.601 -0.7200  0.1645 -2.3880
  888SOL    HW2 2664   2.725   1.211   1.515 -0.4490  1.7160 -0.4561
  889SOL     OW 2665   0.066   2.548   1.133  0.2329 -0.3817  0.1305
  889SOL    HW1 2666   0.149   2.509   1.097 -1.8323 -0.5461 -0.5718
  889SOL    HW2 2667   0.059   2.523   1.233  2.2403  0.7805 -2.5374
  890SOL     OW 2668   0.310   2.427   2.367  0.3345  0.2371  0.1914
  890SOL    HW1 2669   0.363   2.342   2.381 -1.1178  3.6693 -3.2679
  890SOL    HW2 2670   0.243   2.441   2.441  2.2064  1.9583  0.2268
  891SOL     OW 2671   0.443   1.806   0.272 -0.3403  0.0713  0.2528
  891SOL    HW1 2672   0.542   1.827   0.292  2.3143  1.2336  3.6305
  891SOL    HW2 2673   0.412   1.733   0.336  0.5797  0.8712  0.3029
  892SOL     OW 2674   3.044   2.263   1.482 -0.3750 -0.0717 -0.0162
  892SOL    HW1 2675   3.046   2.256   1.585  3.2737 -1.0828 -2.6916
  892SOL    HW2 2676   2.947   2.265   1.444 -2.7840  0.7947 -2.3491
  893SOL     OW 2677   0.300   2.995   1.599  0.5244  0.2126  0.0539
  893SOL    HW1 2678   0.224   2.967   1.661  0.6982 -2.4075 -0.8832
  893SOL    HW2 2679   0.391   2.990   1.644 -1.1346  1.8301  1.1366
  894SOL     OW 2680   2.583   1.654   0.724  0.7123  0.3443  0.3411
  894SOL    HW1 2681   2.612   1.736   0.776  1.2647 -1.8280 -1.7340
  894SOL    HW2 2682   2.583   1.679   0.628  2.3158 -0.9589 -2.2349
  895SOL     OW 2683   2.248   2.526   1.571  0.3133  0.0095  0.3774
  895SOL    HW1 2684   2.178   2.536   1.648 -0.6201  0.6969 -2.4968
  895SOL    HW2 2685   2.344   2.519   1.598 -2.7152 -0.7704 -3.4786
  896SOL     OW 2686   0.741   0.211   1.304 -0.0691  0.4140  0.1790
  896SOL    HW1 2687   0.768   0.276   1.373 -2.3556 -2.9113  0.2269
  896SOL    HW2 2688   0.692   0.130   1.346 -1.2789 -0.3079  1.4819
  897SOL     OW 2689   0.603   1.397   1.177  0.1535 -0.2394 -0.4851
  897SOL    HW1 2690   0.626   1.333   1.100 -2.3218 -2.3395 -1.3907
  897SOL    HW2 2691   0.625   1.495   1.151  0.2215  3.7716 -2.2501
  898SOL     OW 2692   1.603   2.546   1.542 -0.1855  0.3287 -0.3648
  898SOL    HW1 2693   1.571   2.515   1.632 -0.7288 -0.0075 -0.5657
  898SOL    HW2 2694   1.699   2.520   1.525 -0.5766  1.1569  0.8708
  899SOL     OW 2695   1.094   0.370   2.706  0.1211  0.0903 -0.2400
  899SOL    HW1 2696   1.190   0.355   2.685 -0.9845  0.4444  0.8854
  899SOL    HW2 2697   1.033   0.321   2.642 -1.2039 -0.9980  4.3689
  900SOL     OW 2698   1.226   2.584   1.860 -0.1154 -1.0709  0.4400
  900SOL    HW1 2699   1.192   2.491   1.848  0.8214  0.1721 -2.0473
  900SOL    HW2 2700   1.192   2.650   1.789 -2.0902  0.5520 -1.0729
  901SOL     OW 2701   0.871   2.026   0.191 -0.0749 -0.3878 -0.0769
  901SOL    HW1 2702   0.947   2.078   0.237  0.1625  2.2492 -2.1631
  901SOL    HW2 2703   0.907   1.964   0.119  1.2308 -2.0665 -1.1521
  902SOL     OW 2704   1.619   1.095   1.094  0.0350 -0.0758  0.2379
  902SOL    HW1 2705   1.720   1.088   1.074 -0.3182 -1.7006  2.5387
  902SOL    HW2 2706   1.602   1.179   1.146  0.8403 -0.9452 -1.5436
  903SOL     OW 2707   2.475   0.979   2.846  0.2800  0.0442  0.4186
  903SOL    HW1 2708   2.499   1.073   2.817 -1.0881 -0.8702  3.4686
  903SOL    HW2 2709   2.428   0.983   2.937  1.3590  1.2736  0.5974
  904SOL     OW 2710   0.767   1.359   0.259  0.4504  0.0289  0.0195
  904SOL    HW1 2711   0.755   1.459   0.251  0.9762  1.7416 -0.4290
  904SOL    HW2 2712   0.813   1.338   0.345  1.1720  0.6255  0.2064
  905SOL     OW 2713   1.552   0.050   1.193  0.0633  0.5480 -0.1388
  905SOL    HW1 2714   1.543   0.134   1.249 -1.0377 -0.3442 -0.5344
  905SOL    HW2 2715   1.460   0.026   1.158 -1.0172  1.7887 -1.3590
  906SOL     OW 2716   2.515   2.592   0.928 -0.0388  0.3329  0.1964
  906SOL    HW1 2717   2.572   2.620   0.844 -1.5986  2.3501 -0.5253
  906SOL    HW2 2718   2.414   2.598   0.907  1.8526  0.5466  0.7461
  907SOL     OW 2719   1.460   0.832   0.598  0.0925  0.5536 -0.0367
  907SOL    HW1 2720   1.508   0.756   0.645 -0.5169  0.0460 -0.4935
  907SOL    HW2 2721   1.392   0.878   0.661  1.0457  0.7528  0.3757
  908SOL     OW 2722   1.627   0.231   0.982  0.3510  0.3679  0.6665
  908SOL    HW1 2723   1.705   0.294   0.998  0.7784  1.9059 -2.6333
  908SOL    HW2 2724   1.625   0.153   1.050 -0.4510 -0.2250  1.3234
  909SOL     OW 2725   2.102   0.670   1.329 -0.2953 -0.2606  0.3697
  909SOL    HW1 2726   2.156   0.724   1.262 -0.1055  1.0597  1.7511
  909SOL    HW2 2727   2.157   0.586   1.346  1.2550 -0.9570  0.8654
  910SOL     OW 2728   2.405   0.648   1.943  0.0496  0.1872 -0.0230
  910SOL    HW1 2729   2.347   0.677   1.862 -0.4841 -1.1200  1.0125
  910SOL    HW2 2730   2.373   0.691   2.027  0.2131  1.2477  0.3927
  911SOL     OW 2731   2.302   0.477   2.699 -0.1634  0.4789  0.4400
  911SOL    HW1 2732   2.406   0.465   2.683  3.1032 -1.1413  1.5615
  911SOL    HW2 2733   2.292   0.546   2.770 -0.4621  0.0486 -2.3781
  912SOL     OW 2734   0.747   1.165   1.750  0.0208  0.2857  0.6709
  912SOL    HW1 2735   0.842   1.169   1.719  1.2809  0.4263 -0.0042
  912SOL    HW2 2736   0.680   1.164   1.674  1.5633  0.2760 -1.2588
  913SOL     OW 2737   2.738   2.366   1.713 -0.0472 -0.0375  0.0792
  913SOL    HW1 2738   2.779   2.289   1.763  3.0561  2.1598 -0.3542
  913SOL    HW2 2739   2.763   2.454   1.759  0.8089 -1.2773 -0.1879
  914SOL     OW 2740   1.745   0.693   1.881 -0.0111  0.0156 -0.5848
  914SOL    HW1 2741   1.667   0.752   1.847 -0.1021  0.4693 -1.5141
  914SOL    HW2 2742   1.762   0.609   1.827 -0.7729 -2.1333 -0.3392
  915SOL     OW 2743   2.464   0.975   1.045  0.1522 -0.1622 -0.4747
  915SOL    HW1 2744   2.538   0.908   1.056 -0.1967 -0.9272  0.0552
  915SOL    HW2 2745   2.497   1.070   1.020  0.5753  1.5754  1.5428
  916SOL     OW 2746   1.812   2.156   1.119  0.3394 -0.5957  0.3885
  916SOL    HW1 2747   1.766   2.235   1.170 -2.2812  2.9416  0.6409
  916SOL    HW2 2748   1.811   2.071   1.177 -2.1565 -0.0693 -0.1505
  917SOL     OW 2749   1.856   2.287   2.176  0.3029  0.0031  0.3281
  917SOL    HW1 2750   1.858   2.244   2.267 -0.9341  1.0321 -2.3005
  917SOL    HW2 2751   1.905   2.378   2.163 -0.8761  0.7337 -2.2962
  918SOL     OW 2752   1.806   2.498   2.534  0.3542  0.0970 -0.3872
  918SOL    HW1 2753   1.714   2.525   2.507 -0.6547 -2.8859  0.8395
  918SOL    HW2 2754   1.874   2.546   2.479 -1.6540 -4.4476  2.6653
  919SOL     OW 2755   1.066   0.169   1.533  0.2070 -0.6877 -0.0249
  919SOL    HW1 2756   1.073   0.071   1.524  0.2876 -0.8542 -0.5958
  919SOL    HW2 2757   1.018   0.202   1.617 -0.8923  1.3902  2.2005
  920SOL     OW 2758   2.872   0.428   2.439 -0.3460  0.6418 -0.3771
  920SOL    HW1 2759   2.882   0.377   2.526  0.4186 -0.3368  3.4379
  920SOL    HW2 2760   2.789   0.483   2.446  0.4232 -1.9072 -1.3437
  921SOL     OW 2761   2.987   1.028   1.683 -0.6001  0.0992  0.3659
  921SOL    HW1 2762   2.941   1.118   1.658  0.1145  1.1901 -1.3338
  921SOL    HW2 2763   2.927   0.947   1.661 -1.1539  1.3559 -0.8723
  922SOL     OW 2764   2.230   2.490   0.394 -0.5422 -0.7629  0.0498
  922SOL    HW1 2765   2.203   2.591   0.398  1.8499  2.8327 -1.7458
  922SOL    HW2 2766   2.306   2.479   0.333 -2.1318  0.2388 -0.3371
  923SOL     OW 2767   0.790   1.998   0.612  0.2796 -0.3488  0.3855
  923SOL    HW1 2768   0.768   1.997   0.712 -1.4055  0.6387 -1.3586
  923SOL    HW2 2769   0.706   2.006   0.559  0.6183 -2.4746  1.0283
  924SOL     OW 2770   1.027   0.872   0.013 -0.0509 -0.2221  0.1065
  924SOL    HW1 2771   1.025   0.862   2.978  0.5467 -0.1391 -2.3904
  924SOL    HW2 2772   0.983   0.964   0.037 -1.8259  1.9578 -0.3465
  925SOL     OW 2773   2.744   1.254   0.710 -0.3455 -0.3957 -0.3191
  925SOL    HW1 2774   2.717   1.155   0.704  1.3596 -1.8854  2.0050
  925SOL    HW2 2775   2.691   1.308   0.643  0.6270 -0.9312 -0.0290
  926SOL     OW 2776   0.394   0.336   1.142  0.1550  0.2480  0.0240
  926SOL    HW1 2777   0.408   0.234   1.153  0.2071  3.3737 -0.9723
  926SOL    HW2 2778   0.330   0.383   1.205  2.4785 -0.9404 -0.3662
  927SOL     OW 2779   0.580   1.639   2.615  0.1088 -0.1758  0.6966
  927SOL    HW1 2780   0.540   1.581   2.688 -0.5171  0.8346  0.4745
  927SOL    HW2 2781   0.535   1.625   2.521 -0.6071 -1.5885 -4.8305
  928SOL     OW 2782   0.295   0.575   2.228  0.4481  0.6029  0.3638
  928SOL    HW1 2783   0.222   0.594   2.160 -4.8949  0.4013 -0.9874
  928SOL    HW2 2784   0.250   0.544   2.315 -1.5840 -1.4670  0.6527
  929SOL     OW 2785   2.953   2.860   1.401  0.2864 -0.0766 -0.2325
  929SOL    HW1 2786   2.915   2.804   1.318 -1.7864 -1.6659 -2.3166
  929SOL    HW2 2787   2.970   2.957   1.364 -0.6698 -2.1874  2.0632
  930SOL     OW 2788   1.888   0.232   1.760  0.0667  0.1417  0.0517
  930SOL    HW1 2789   1.949   0.165   1.707  1.8884  0.4010 -2.9915
  930SOL    HW2 2790   1.891   0.215   1.860  0.3749 -0.3755 -1.9266
  931SOL     OW 2791   2.174   0.816   3.047  0.3545  0.8406 -0.4145
  931SOL    HW1 2792   2.092   0.855   3.002 -0.9537 -1.4842  0.0391
  931SOL    HW2 2793   2.166   0.798   0.075  2.7731 -1.2484 -1.7692
  932SOL     OW 2794   2.140   1.392   0.500  0.6884 -0.3592  0.3662
  932SOL    HW1 2795   2.222   1.335   0.520 -0.9736  1.2520 -1.1232
  932SOL    HW2 2796   2.078   1.399   0.581  2.7656  1.0179  1.8055
  933SOL     OW 2797   2.030   1.588   0.973 -0.1319 -0.0832 -0.1270
  933SOL    HW1 2798   2.028   1.527   0.893 -1.5556  1.9254  0.5720
  933SOL    HW2 2799   2.112   1.574   1.032 -1.1454 -1.7054  2.0827
  934SOL     OW 2800   1.907   0.919   2.529  0.2263  0.0090 -0.3666
  934SOL    HW1 2801   1.947   0.862   2.604  0.9846 -0.5463 -0.4016
  934SOL    HW2 2802   1.872   0.855   2.465  1.6545  2.6984  0.1319
  935SOL     OW 2803   0.176   1.114   0.463  0.1380  0.5623  0.5982
  935SOL    HW1 2804   0.181   1.190   0.395  0.1805 -0.4292  1.7587
  935SOL    HW2 2805   0.096   1.123   0.530 -0.5660 -1.1461  3.4362
  936SOL     OW 2806   0.710   2.861   0.805  0.0186  0.2372 -0.2057
  936SOL    HW1 2807   0.721   2.846   0.909  0.0168 -2.5707  1.7016
  936SOL    HW2 2808   0.690   2.961   0.783 -0.7318  1.4210 -0.3717
  937SOL     OW 2809   2.768   2.865   1.833 -0.3818  0.1593  0.0457
  937SOL    HW1 2810   2.671   2.869   1.862  0.0218  1.7991  0.5455
  937SOL    HW2 2811   2.832   2.855   1.910 -1.8238 -0.5419 -2.2820
  938SOL     OW 2812   2.710   2.302   0.147  0.4591  0.0113 -0.6210
  938SOL    HW1 2813   2.682   2.364   0.072  0.3767 -2.3976  0.1118
  938SOL    HW2 2814   2.771   2.347   0.207 -0.6166  0.5411  1.0446
  939SOL     OW 2815   1.256   1.411   1.194  0.2613 -0.1230  0.5803
  939SOL    HW1 2816   1.305   1.326   1.173  1.4286 -1.1868  2.4828
  939SOL    HW2 2817   1.306   1.463   1.267 -0.2645  1.8787  0.1177
  940SOL     OW 2818   2.941   0.485   2.792 -0.0936 -0.3732 -0.2505
  940SOL    HW1 2819   2.924   0.390   2.765  1.5997 -1.8906  1.3821
  940SOL    HW2 2820   2.999   0.493   2.881 -0.0707 -3.0971  0.9910
  941SOL     OW 2821   2.259   0.194   2.724 -0.7906 -0.1717  0.0997
  941SOL    HW1 2822   2.353   0.158   2.743  0.2754 -0.1562  1.0780
  941SOL    HW2 2823   2.255   0.294   2.709 -0.3177 -1.0757  1.2321
  942SOL     OW 2824   1.607   0.628   0.975 -0.6215  0.6790 -0.1290
  942SOL    HW1 2825   1.670   0.560   1.016 -0.5964 -0.8168 -0.0731
  942SOL    HW2 2826   1.660   0.709   0.945  1.1344  1.8500  0.3511
  943SOL     OW 2827   1.199   1.187   2.239 -0.0995  0.6965 -0.0527
  943SOL    HW1 2828   1.248   1.107   2.203 -3.8602  0.7161 -0.4382
  943SOL    HW2 2829   1.112   1.196   2.193  0.8089 -1.1446  1.6247
  944SOL     OW 2830   2.055   1.170   1.506  0.1292 -0.5479  0.0986
  944SOL    HW1 2831   2.085   1.080   1.480 -0.7259  1.4075  1.5830
  944SOL    HW2 2832   2.139   1.225   1.517 -1.2101 -0.2826 -1.5923
  945SOL     OW 2833   2.928   2.987   2.844  0.3660 -0.4838 -0.1567
  945SOL    HW1 2834   2.857   2.973   2.775 -2.6993  0.1771  1.3386
  945SOL    HW2 2835   2.909   2.925   2.929 -1.6100 -0.9970  1.7839
  946SOL     OW 2836   2.964   1.484   1.555 -0.5113  0.2195  0.0127
  946SOL    HW1 2837   3.041   1.506   1.492  0.7094  0.4274 -1.7361
  946SOL    HW2 2838   2.880   1.537   1.531 -2.0059 -2.9189  0.2723
  947SOL     OW 2839   0.987   0.090   0.229  0.1203 -0.7157  0.5417
  947SOL    HW1 2840   0.951   3.069   0.257 -0.6706 -1.0102  0.6728
  947SOL    HW2 2841   0.917   0.158   0.227  0.9691 -0.7075  1.2061
  948SOL     OW 2842   2.264   1.598   1.118  0.1907 -0.0845  0.3918
  948SOL    HW1 2843   2.291   1.633   1.208 -0.2899 -0.3152  2.0647
  948SOL    HW2 2844   2.319   1.645   1.049 -0.5671 -0.1818  1.4011
  949SOL     OW 2845   0.182   0.974   2.947  0.8094  0.5486  0.1332
  949SOL    HW1 2846   0.089   1.000   2.913 -1.3255 -0.6892  0.4878
  949SOL    HW2 2847   0.253   0.994   2.877 -0.1669 -0.2503  1.9908
  950SOL     OW 2848   0.689   2.537   1.222 -0.2093 -0.3802 -0.5116
  950SOL    HW1 2849   0.603   2.572   1.180  1.1962  0.8989 -1.4464
  950SOL    HW2 2850   0.730   2.465   1.165 -1.9968  0.9164  2.7590
  951SOL     OW 2851   0.965   1.685   2.750  0.0583 -0.0231 -0.0041
  951SOL    HW1 2852   0.934   1.666   2.845  2.6000 -1.1681  2.9644
  951SOL    HW2 2853   0.921   1.625   2.681  4.3457 -0.3978  0.6297
  952SOL     OW 2854   0.738   0.964   0.468  0.2732  0.3533 -0.0829
  952SOL    HW1 2855   0.651   0.936   0.512  0.6321 -0.5965 -0.8005
  952SOL    HW2 2856   0.816   0.898   0.497  0.2519 -3.1766 -1.2881
  953SOL     OW 2857   2.268   2.564   2.504 -0.2168  0.4875  0.1207
  953SOL    HW1 2858   2.348   2.544   2.444 -1.0063  0.0417  1.5803
  953SOL    HW2 2859   2.284   2.646   2.567 -1.4101  0.0225  1.1452
  954SOL     OW 2860   2.004   1.003   0.920 -0.6126  0.4956 -0.2579
  954SOL    HW1 2861   2.058   1.002   1.010  0.4863 -0.7979  1.3153
  954SOL    HW2 2862   2.059   0.966   0.846 -0.2022 -0.4592 -0.7122
  955SOL     OW 2863   0.719   1.836   0.311  0.4776 -0.5757  0.1940
  955SOL    HW1 2864   0.777   1.915   0.275  0.2826  1.2953 -0.2632
  955SOL    HW2 2865   0.755   1.805   0.399 -0.2349  1.8584 -1.9163
  956SOL     OW 2866   2.490   0.371   1.937 -0.0958  0.3977 -0.2841
  956SOL    HW1 2867   2.448   0.468   1.944 -1.9966  3.2258 -0.5065
  956SOL    HW2 2868   2.469   0.310   2.019  1.1316 -0.2174  0.8697
  957SOL     OW 2869   2.000   2.235   1.708  0.0407  0.1783  0.2211
  957SOL    HW1 2870   1.956   2.235   1.612 -3.1340  0.1893 -2.3517
  957SOL    HW2 2871   1.946   2.178   1.776 -3.0928  0.1756  1.1056
  958SOL     OW 2872   1.640   1.021   1.527 -0.2602 -0.2546  0.3975
  958SOL    HW1 2873   1.545   1.019   1.499  2.3228 -1.1453  2.2287
  958SOL    HW2 2874   1.659   1.090   1.596  0.8908  1.7158 -0.1908
  959SOL     OW 2875   1.706   1.819   2.086  0.2210 -0.2485 -0.6709
  959SOL    HW1 2876   1.756   1.730   2.072 -0.0087  1.7096 -1.2007
  959SOL    HW2 2877   1.615   1.817   2.036  0.4153  1.1517 -1.1263
  960SOL     OW 2878   0.694   1.075   2.776  0.2983  0.6526  0.4699
  960SOL    HW1 2879   0.697   1.079   2.675 -0.4634 -0.7992 -0.4911
  960SOL    HW2 2880   0.776   1.123   2.817  0.0400 -0.6448 -2.4305
  961SOL     OW 2881   3.018   1.049   2.822 -0.2653  0.3124 -0.2050
  961SOL    HW1 2882   2.921   1.009   2.815 -3.2589 -0.4466 -0.6255
  961SOL    HW2 2883   3.061   1.046   2.728 -3.4505 -0.6057 -0.8223
  962SOL     OW 2884   0.979   1.935   2.693  0.2463 -0.0598 -0.0632
  962SOL    HW1 2885   0.956   1.836   2.703  1.2491  0.9070 -0.5708
  962SOL    HW2 2886   0.917   2.003   2.741  2.8011  0.4265 -0.8401
  963SOL     OW 2887   2.779   2.042   0.095  0.4411  0.5535 -0.7172
  963SOL    HW1 2888   2.707   1.975   0.109  2.3929 -0.4596 -0.8956
  963SOL    HW2 2889   2.741   2.138   0.106 -2.0908  3.0051  3.8759
  964SOL     OW 2890   0.812   2.131   2.127 -0.1138  0.0510 -0.5518
  964SOL    HW1 2891   0.748   2.198   2.173 -3.7109  2.4624 -0.2994
  964SOL    HW2 2892   0.849   2.164   2.040 -0.2852  0.8603 -1.0809
  965SOL     OW 2893   1.920   1.841   0.790 -0.0871  0.3842 -0.0953
  965SOL    HW1 2894   2.008   1.886   0.807 -1.4322  3.7442 -1.0365
  965SOL    HW2 2895   1.928   1.744   0.760  1.7492 -0.6960 -1.1973
  966SOL     OW 2896   2.999   1.678   0.013  0.5182  0.1811 -0.5682
  966SOL    HW1 2897   3.054   1.749   0.063  2.7265  2.2240  2.2678
  966SOL    HW2 2898   3.054   1.592   3.062  1.0178 -1.1573 -0.2885
  967SOL     OW 2899   2.100   2.986   2.217 -0.8317  0.4714  0.4635
  967SOL    HW1 2900   2.185   2.936   2.235 -0.1736  1.1856  1.0811
  967SOL    HW2 2901   2.096   3.029   2.124  1.7289  0.1401 -2.4741
  968SOL     OW 2902   0.758   0.692   0.200  0.2584 -0.1787 -0.1415
  968SOL    HW1 2903   0.737   0.787   0.176 -1.6325 -3.5940  2.0036
  968SOL    HW2 2904   0.859   0.680   0.216  0.3338  0.2147  2.0690
  969SOL     OW 2905   0.525   1.543   2.121  0.2984  0.5103  0.2352
  969SOL    HW1 2906   0.612   1.596   2.136 -0.6063  0.1432 -1.6589
  969SOL    HW2 2907   0.549   1.452   2.081 -3.1882 -0.5650 -1.1286
  970SOL     OW 2908   2.004   2.628   1.195 -0.7205  0.3374 -0.1500
  970SOL    HW1 2909   1.938   2.607   1.122  2.3318 -0.2388  1.7375
  970SOL    HW2 2910   2.081   2.563   1.186 -1.5342  0.5404 -0.1086
  971SOL     OW 2911   1.869   2.322   0.674 -0.2013 -0.3733  0.2847
  971SOL    HW1 2912   1.909   2.309   0.765 -0.8042 -0.4008 -0.5374
  971SOL    HW2 2913   1.945   2.318   0.603 -0.4626 -1.3343  2.9771
  972SOL     OW 2914   0.024   1.024   2.563  0.5313  0.1982  0.2304
  972SOL    HW1 2915   0.019   0.924   2.539 -0.6957  1.6546  1.0754
  972SOL    HW2 2916   0.097   1.074   2.512 -1.8264  1.8245  1.3941
  973SOL     OW 2917   0.518   0.083   0.194 -0.4977 -0.2926  0.6149
  973SOL    HW1 2918   0.494   0.109   0.289  0.5780 -0.8444 -0.8556
  973SOL    HW2 2919   0.474   0.148   0.122 -0.3484  1.6550 -1.2040
  974SOL     OW 2920   2.657   0.679   1.945  0.2040 -0.1628 -0.5418
  974SOL    HW1 2921   2.691   0.630   2.032 -2.8272  0.0390  0.3928
  974SOL    HW2 2922   2.559   0.662   1.935  2.1380 -0.0021  0.2609
  975SOL     OW 2923   0.051   2.997   0.643 -0.6007 -0.5952 -0.2714
  975SOL    HW1 2924   0.046   2.968   0.743  0.0996  1.3079 -0.2955
  975SOL    HW2 2925   3.066   2.935   0.588 -1.7628 -2.1652 -0.7275
  976SOL     OW 2926   0.361   1.693   1.286  0.2148  0.4971 -0.2864
  976SOL    HW1 2927   0.308   1.722   1.371  1.1044  0.7710  0.7744
  976SOL    HW2 2928   0.297   1.632   1.237 -1.0078 -0.2239 -0.0071
  977SOL     OW 2929   1.086   1.743   0.256  0.7256 -0.1893 -0.0450
  977SOL    HW1 2930   1.038   1.767   0.168  0.1235  1.1051 -0.8326
  977SOL    HW2 2931   1.104   1.824   0.309 -0.6826 -1.3963 -0.7684
  978SOL     OW 2932   0.089   0.870   0.393  0.1331 -0.4140 -0.1483
  978SOL    HW1 2933   0.125   0.843   0.300 -1.6636 -1.7029 -1.4299
  978SOL    HW2 2934   0.125   0.965   0.417  0.0449  0.7065 -1.3378
  979SOL     OW 2935   1.647   1.606   0.665 -0.0492  0.2763 -0.0100
  979SOL    HW1 2936   1.680   1.632   0.758  2.2551 -1.3571  2.4115
  979SOL    HW2 2937   1.549   1.635   0.663  0.5324 -2.0124  0.8506
  980SOL     OW 2938   0.462   1.968   2.001  0.5125  0.1799 -0.5346
  980SOL    HW1 2939   0.520   1.990   2.083  0.8016 -2.5421  0.3078
  980SOL    HW2 2940   0.486   2.024   1.923 -0.0574  4.3092  4.3548
  981SOL     OW 2941   2.193   1.255   2.647  0.2392  0.0134  0.0043
  981SOL    HW1 2942   2.225   1.248   2.747 -3.0368 -2.2947 -0.7162
  981SOL    HW2 2943   2.207   1.345   2.604 -1.5752 -4.3105  1.4969
  982SOL     OW 2944   0.028   2.605   2.024 -0.9724 -0.2003 -0.4131
  982SOL    HW1 2945   3.046   2.686   2.049  0.0741 -3.1676 -1.5915
  982SOL    HW2 2946   0.099   2.629   1.958 -1.5859  0.2738 -0.9171
  983SOL     OW 2947   1.627   0.202   1.535  0.2220  0.5116  0.2228
  983SOL    HW1 2948   1.595   0.279   1.595 -0.5969 -0.4856 -1.6141
  983SOL    HW2 2949   1.576   0.123   1.567 -2.0543 -0.1529 -1.4616
  984SOL     OW 2950   2.305   2.832   0.069 -0.0321 -0.8054 -0.1710
  984SOL    HW1 2951   2.342   2.735   0.063 -1.7156  1.7010  2.3966
  984SOL    HW2 2952   2.290   2.864   3.043  0.0259 -0.3969 -2.4505
  985SOL     OW 2953   1.678   1.224   1.763  0.1472  0.1086 -0.2522
  985SOL    HW1 2954   1.780   1.207   1.767  0.5443  2.1391  0.2757
  985SOL    HW2 2955   1.645   1.224   1.859  1.2479  0.2112 -2.2546
  986SOL     OW 2956   1.950   2.899   2.538 -0.0243 -0.6423  0.4887
  986SOL    HW1 2957   2.036   2.955   2.519 -0.1358 -1.4386  1.9741
  986SOL    HW2 2958   1.926   2.893   2.640  1.2672  1.0242  0.1913
  987SOL     OW 2959   2.701   1.770   2.762 -0.0763 -0.0267 -0.1238
  987SOL    HW1 2960   2.747   1.690   2.718 -0.2554  0.1079 -0.3836
  987SOL    HW2 2961   2.662   1.827   2.683  2.6162  2.9896 -0.1714
  988SOL     OW 2962   3.053   0.880   1.274  0.7775 -0.0046  0.2367
  988SOL    HW1 2963   3.060   0.855   1.372 -1.2132 -0.4103  0.0637
  988SOL    HW2 2964   0.065   0.922   1.232 -2.7635  2.5233 -1.8177
  989SOL     OW 2965   1.825   1.155   1.359 -0.0277  0.3432  0.0877
  989SOL    HW1 2966   1.913   1.138   1.411 -0.8370  0.6097  1.0761
  989SOL    HW2 2967   1.740   1.115   1.404 -1.5611 -0.7367  0.4783
  990SOL     OW 2968   2.558   0.529   3.010  0.4083 -0.7388  0.2716
  990SOL    HW1 2969   2.556   0.587   2.926  2.2542 -0.9280  0.6455
  990SOL    HW2 2970   2.610   0.575   0.018  0.9237  0.2288  1.2108
  991SOL     OW 2971   0.108   1.464   3.046 -0.1499  0.0533 -0.3979
  991SOL    HW1 2972   0.042   1.383   3.040  0.0328 -0.3805  1.9013
  991SOL    HW2 2973   0.142   1.468   0.072 -0.6703  2.0572  0.6114
  992SOL     OW 2974   2.392   1.515   1.958 -0.0086 -0.0946 -0.1056
  992SOL    HW1 2975   2.290   1.503   1.957 -2.3531 -0.9834 -2.1727
  992SOL    HW2 2976   2.416   1.598   1.903 -0.6340 -0.0997  1.3607
  993SOL     OW 2977   0.567   2.754   0.453 -0.4320 -0.4787 -0.1638
  993SOL    HW1 2978   0.637   2.683   0.471 -0.4080 -0.5611  1.9443
  993SOL    HW2 2979   0.611   2.846   0.474 -0.3175 -0.1057 -0.3723
  994SOL     OW 2980   2.843   1.884   1.573 -0.2015  0.0099 -0.0460
  994SOL    HW1 2981   2.849   1.876   1.676  0.1760 -0.3284 -1.5577
  994SOL    HW2 2982   2.909   1.952   1.532  2.9189  1.0889  0.3154
  995SOL     OW 2983   1.689   1.854   2.358  0.5563  0.6042  0.0686
  995SOL    HW1 2984   1.784   1.865   2.387 -1.1311  0.1648 -1.5181
  995SOL    HW2 2985   1.695   1.839   2.259 -0.8017 -1.1176  1.6744
  996SOL     OW 2986   2.203   1.851   3.031  0.6331  0.0022 -0.4838
  996SOL    HW1 2987   2.106   1.820   3.057  0.7119 -1.5211  1.4152
  996SOL    HW2 2988   2.274   1.808   0.022  1.6685 -0.4256  1.9971
  997SOL     OW 2989   1.474   1.200   2.502  1.1180  0.6385 -0.3147
  997SOL    HW1 2990   1.371   1.213   2.522 -2.0004 -1.2964  2.1469
  997SOL    HW2 2991   1.506   1.297   2.489 -0.3335 -1.7349 -0.5121
  998SOL     OW 2992   2.983   2.436   0.878 -0.2787 -0.3753  0.3561
  998SOL    HW1 2993   2.949   2.509   0.814 -1.5968  0.2714  0.3284
  998SOL    HW2 2994   3.046   2.475   0.943 -1.0324 -1.3465  0.7393
  999SOL     OW 2995   0.309   2.628   0.472 -0.4586  0.8785  0.3523
  999SOL    HW1 2996   0.330   2.543   0.520  0.1879  3.0986 -1.6393
  999SOL    HW2 2997   0.393   2.682   0.454  1.3367  2.5710 -0.9487
 1000SOL     OW 2998   1.029   0.075   3.006 -0.3324  0.0368 -0.1597
 1000SOL    HW1 2999   1.008   0.082   0.036  1.3916  0.9472 -4.2649
 1000SOL    HW2 3000   0.940   0.068   2.953 -0.6823  1.6367 -3.2340
   3.07011   3.07011   3.07011
