1000 SPC/Fw water molecules t=  32.00000 step= 32000
 3000
    1SOL     OW    1   1.932   2.729   0.435  0.3431 -0.2448 -0.2024
    1SOL    HW1    2   2.008   2.684   0.395  0.6850  2.2835 -0.3923
    1SOL    HW2    3   1.843   2.681   0.409 -2.9602 -1.3956 -1.9697
    2SOL     OW    4   1.053   0.617   1.921  0.2650 -0.0219 -0.0937
    2SOL    HW1    5   1.076   0.717   1.917  0.1488 -0.0819  0.4492
    2SOL    HW2    6   1.016   0.585   2.012 -1.9270 -1.4987 -0.5148
    3SOL     OW    7   0.963   3.020   2.748  0.3863  0.3437  0.2317
    3SOL    HW1    8   0.911   2.966   2.681  1.1020  1.1357  0.4121
    3SOL    HW2    9   0.893   3.079   2.801 -2.1988  0.8580  0.6243
    4SOL     OW   10   1.250   1.400   3.006  0.0926  0.1145  0.5730
    4SOL    HW1   11   1.254   1.380   2.905  1.1995 -2.9991 -0.2034
    4SOL    HW2   12   1.287   1.492   3.026 -0.8741  0.5851 -2.0828
    5SOL     OW   13   0.721   1.139   2.226 -0.8612 -0.2623  0.0872
    5SOL    HW1   14   0.764   1.069   2.169 -2.1892 -0.6204 -1.8203
    5SOL    HW2   15   0.748   1.136   2.323 -0.8594  1.9932 -1.1744
    6SOL     OW   16   1.964   0.838   2.497 -0.3344 -0.0104 -0.4928
    6SOL    HW1   17   1.973   0.778   2.581  2.3014 -2.5433  2.3609
    6SOL    HW2   18   2.058   0.879   2.475  3.2852 -0.4018  0.1571
    7SOL     OW   19   0.407   1.000   1.336  0.2259 -0.1103  1.2155
    7SOL    HW1   20   0.478   0.955   1.281  0.0442  0.7768  0.3440
    7SOL    HW2   21   0.365   1.069   1.271  1.7813 -0.6833  0.5802
    8SOL     OW   22   2.159   2.855   1.932  0.3947 -0.1049  0.3763
    8SOL    HW1   23   2.069   2.813   1.904 -2.4187  0.1658 -0.1087
    8SOL    HW2   24   2.163   2.948   1.890  0.7940  2.3686 -3.4336
    9SOL     OW   25   0.133   2.913   0.705  0.3309  0.1324  0.3959
    9SOL    HW1   26   0.049   2.971   0.695 -1.7332  0.9159  0.5908
    9SOL    HW2   27   0.153   2.872   0.617 -0.0510  2.2322  2.2761
   10SOL     OW   28   0.146   2.334   2.457 -0.5338  0.3939  0.2525
   10SOL    HW1   29   0.239   2.338   2.498  0.7218  1.1796 -0.0435
   10SOL    HW2   30   0.130   2.261   2.386 -1.6544  0.1122  0.6840
   11SOL     OW   31   0.840   1.671   2.981  0.0988  0.3839 -0.2131
   11SOL    HW1   32   0.828   1.600   3.050 -1.5864 -0.9044 -3.1283
   11SOL    HW2   33   0.936   1.692   2.984 -0.7973 -1.1470 -0.3193
   12SOL     OW   34   2.209   2.633   1.310 -0.0686  0.1758  0.1088
   12SOL    HW1   35   2.217   2.734   1.286 -1.0650  2.5778 -1.5635
   12SOL    HW2   36   2.214   2.578   1.221 -0.3354  0.0796 -0.5315
   13SOL     OW   37   0.382   2.961   2.982  0.3353 -0.7578 -0.2127
   13SOL    HW1   38   0.305   3.033   2.989 -1.3650 -0.5367  1.4182
   13SOL    HW2   39   0.467   3.007   2.944  1.5880 -0.0298 -1.6991
   14SOL     OW   40   1.417   1.249   1.547 -0.2901  0.2478  0.3993
   14SOL    HW1   41   1.432   1.245   1.649  1.3104 -0.0805  0.4727
   14SOL    HW2   42   1.426   1.345   1.520 -3.3654  3.2958  1.1409
   15SOL     OW   43   0.382   1.387   2.121 -0.6527  0.5152  0.3204
   15SOL    HW1   44   0.323   1.397   2.040  0.6238  1.8559  0.1218
   15SOL    HW2   45   0.350   1.311   2.180  0.6486  0.7473 -0.3242
   16SOL     OW   46   1.542   0.562   2.627  0.1046  0.2808 -0.3087
   16SOL    HW1   47   1.486   0.496   2.679  1.1126  3.3739  0.8793
   16SOL    HW2   48   1.484   0.636   2.594 -0.4992 -0.3704 -0.5109
   17SOL     OW   49   3.085   2.435   2.203  0.3153  0.3105  0.4972
   17SOL    HW1   50   0.015   2.428   2.306 -0.1928 -2.2731  0.0660
   17SOL    HW2   51   0.063   2.486   2.150 -1.6963 -0.3950  1.7687
   18SOL     OW   52   1.528   1.125   0.446  0.4535 -0.0531  0.0608
   18SOL    HW1   53   1.619   1.077   0.433 -0.7046 -0.1726  1.1469
   18SOL    HW2   54   1.483   1.100   0.534 -0.6192 -0.2367  0.7025
   19SOL     OW   55   0.178   1.387   1.935  0.0015 -0.1006  0.4395
   19SOL    HW1   56   0.121   1.311   1.899  1.3034 -1.5800 -0.5522
   19SOL    HW2   57   0.190   1.462   1.864 -1.3332  2.8005 -1.8529
   20SOL     OW   58   2.156   2.258   2.755 -0.0200  0.1699 -0.3376
   20SOL    HW1   59   2.203   2.336   2.793  2.2032  1.5027 -0.9312
   20SOL    HW2   60   2.225   2.190   2.723 -0.9187  1.3510 -0.4780
   21SOL     OW   61   1.834   1.982   0.833  0.2487 -0.4278  0.3092
   21SOL    HW1   62   1.891   2.057   0.799  0.5386  1.8512  1.8941
   21SOL    HW2   63   1.774   2.012   0.909 -2.0326  0.7556  1.5170
   22SOL     OW   64   2.337   2.039   1.254 -0.3009 -0.2525  0.4433
   22SOL    HW1   65   2.395   2.115   1.294  1.4903  1.4686  0.0877
   22SOL    HW2   66   2.239   2.063   1.268  3.1044  0.8414  2.0089
   23SOL     OW   67   0.052   1.263   1.231  0.2105 -0.2004 -0.4018
   23SOL    HW1   68   0.062   1.360   1.264  3.1719  0.5428  1.1248
   23SOL    HW2   69   3.044   1.231   1.221 -3.6625 -0.1370  1.0085
   24SOL     OW   70   1.595   1.224   1.973 -0.0545  0.1689 -0.6459
   24SOL    HW1   71   1.633   1.151   1.907  2.3086 -2.1609 -1.3329
   24SOL    HW2   72   1.644   1.312   1.949  1.6672  1.6200 -0.7296
   25SOL     OW   73   1.770   0.124   2.164 -0.5395  0.1553  0.5267
   25SOL    HW1   74   1.724   0.165   2.244 -2.3825  0.1259  2.7479
   25SOL    HW2   75   1.853   0.074   2.194 -2.5044  0.0988  0.0457
   26SOL     OW   76   0.852   0.138   0.727 -0.2042  0.9717 -0.1431
   26SOL    HW1   77   0.842   0.235   0.734 -3.2186 -2.4540 -1.3778
   26SOL    HW2   78   0.761   0.089   0.715  1.0690  0.2891  0.1213
   27SOL     OW   79   1.411   1.246   0.826 -0.2218  0.1615 -0.6560
   27SOL    HW1   80   1.375   1.329   0.775 -0.4794  1.0548 -0.3639
   27SOL    HW2   81   1.492   1.279   0.879  1.8534  1.3579  1.9997
   28SOL     OW   82   2.364   2.328   1.214 -0.0528 -0.2023  0.0694
   28SOL    HW1   83   2.323   2.367   1.304 -0.1290 -0.2504  2.3638
   28SOL    HW2   84   2.333   2.388   1.140 -1.1969  1.1147 -0.1704
   29SOL     OW   85   1.999   3.066   2.263  0.2251 -0.2377  0.6212
   29SOL    HW1   86   2.026   2.967   2.261 -3.1141  0.0849 -1.7592
   29SOL    HW2   87   1.989   0.005   2.359  1.9094 -1.3329 -0.4473
   30SOL     OW   88   0.062   0.003   1.907  0.3003 -0.1776  0.2516
   30SOL    HW1   89   3.058   0.027   1.923  1.9896  1.2168  0.8163
   30SOL    HW2   90   0.063   3.031   1.828 -1.4649 -0.8378  0.8302
   31SOL     OW   91   2.998   1.763   2.273 -0.0644 -0.0642 -0.3301
   31SOL    HW1   92   3.013   1.867   2.253 -1.0175  1.6272  0.7439
   31SOL    HW2   93   2.946   1.724   2.198 -1.5479  0.6610  0.5745
   32SOL     OW   94   1.398   2.453   2.244  0.0225  0.2291  0.3926
   32SOL    HW1   95   1.442   2.391   2.174 -0.6406  0.4636 -3.1724
   32SOL    HW2   96   1.467   2.527   2.262  0.7545 -1.0153 -0.1501
   33SOL     OW   97   0.205   0.106   2.951 -0.0069 -0.5063  0.3874
   33SOL    HW1   98   0.137   0.076   3.015  3.2802  0.2981 -1.3368
   33SOL    HW2   99   0.161   0.161   2.880  1.9115 -1.6475  0.2018
   34SOL     OW  100   2.592   0.105   0.300 -0.6788 -0.1801 -0.3723
   34SOL    HW1  101   2.595   0.117   0.403 -2.6656 -1.7339 -0.3782
   34SOL    HW2  102   2.669   0.157   0.268 -2.1727 -0.4742  0.9100
   35SOL     OW  103   2.870   2.644   1.733 -0.5228  0.0976 -0.4041
   35SOL    HW1  104   2.853   2.552   1.779  0.4344 -0.3805  1.2362
   35SOL    HW2  105   2.786   2.678   1.700  1.8275 -0.9821  1.7357
   36SOL     OW  106   2.421   2.977   2.244 -0.2384 -0.3824 -0.2353
   36SOL    HW1  107   2.378   2.986   2.337  2.2413  0.4936  0.7152
   36SOL    HW2  108   2.463   3.063   2.212 -0.5780 -0.9949 -1.4918
   37SOL     OW  109   1.539   0.056   3.055 -0.1507  0.1440 -0.1793
   37SOL    HW1  110   1.567   0.052   0.063  0.4638 -0.9039 -0.4848
   37SOL    HW2  111   1.485   3.062   3.034 -0.5591  1.0139 -2.8170
   38SOL     OW  112   0.354   0.419   0.107  0.0333  0.4148 -0.2610
   38SOL    HW1  113   0.425   0.487   0.139  1.2859  1.2363  0.3710
   38SOL    HW2  114   0.320   0.442   0.014 -0.5598 -0.7159  1.5648
   39SOL     OW  115   0.904   1.816   2.183 -0.0364 -0.2993 -0.2982
   39SOL    HW1  116   0.944   1.798   2.275 -1.5794  0.5722  0.6697
   39SOL    HW2  117   0.922   1.907   2.145 -1.5117 -0.7845  0.7837
   40SOL     OW  118   3.026   0.468   2.541 -0.0623 -0.2606  0.1745
   40SOL    HW1  119   3.012   0.548   2.477 -0.0522  1.3508 -0.5932
   40SOL    HW2  120   0.033   0.471   2.559  1.5804 -0.6414 -2.5323
   41SOL     OW  121   1.298   0.906   1.821  0.5764  0.0899 -0.1131
   41SOL    HW1  122   1.355   0.918   1.738  2.5996  0.2449  0.7384
   41SOL    HW2  123   1.348   0.849   1.888  1.2119  2.0853 -1.2779
   42SOL     OW  124   2.613   0.183   1.312  0.1841 -0.8227  0.1856
   42SOL    HW1  125   2.626   0.173   1.413  0.4625 -0.2540 -0.9711
   42SOL    HW2  126   2.580   0.276   1.288 -3.8619 -0.1410  0.6919
   43SOL     OW  127   1.535   0.924   1.625 -0.1350 -0.3702  0.1092
   43SOL    HW1  128   1.585   0.948   1.541  0.6941  1.3104 -1.0022
   43SOL    HW2  129   1.489   0.836   1.615 -3.6893  0.5672 -0.6614
   44SOL     OW  130   3.056   0.342   3.017 -0.1738  0.4188  0.7500
   44SOL    HW1  131   0.037   0.311   3.079 -1.3626 -1.6819  1.0053
   44SOL    HW2  132   2.971   0.293   3.041 -1.8910  2.6082 -0.7850
   45SOL     OW  133   0.333   1.812   1.652 -0.4041 -0.3274 -0.1752
   45SOL    HW1  134   0.412   1.775   1.706 -0.1014 -0.8718  1.3309
   45SOL    HW2  135   0.347   1.905   1.613  0.6167  1.1012  0.4873
   46SOL     OW  136   2.397   2.768   1.765 -0.0162  0.1450 -0.4786
   46SOL    HW1  137   2.348   2.801   1.849  2.1726 -2.1211 -3.4591
   46SOL    HW2  138   2.434   2.675   1.779 -0.1457  1.2618  1.4042
   47SOL     OW  139   0.355   1.895   1.257  0.2709  0.0531  0.1621
   47SOL    HW1  140   0.397   1.805   1.292  0.4267 -0.6818 -1.4255
   47SOL    HW2  141   0.249   1.889   1.255 -1.7430  1.5344  0.6533
   48SOL     OW  142   0.775   2.785   2.677  0.2046 -0.4456 -0.1708
   48SOL    HW1  143   0.827   2.703   2.645  0.0151  0.0400 -0.3951
   48SOL    HW2  144   0.786   2.801   2.779  0.5811  0.9256 -3.0538
   49SOL     OW  145   2.842   1.441   1.740 -0.2278 -0.8285 -0.4423
   49SOL    HW1  146   2.889   1.360   1.702  2.1405 -1.8727 -1.3681
   49SOL    HW2  147   2.809   1.502   1.667  0.2176  1.4959 -2.0745
   50SOL     OW  148   1.264   2.717   0.586  0.2057  0.5929  0.1813
   50SOL    HW1  149   1.304   2.632   0.632  1.7332 -1.2742  1.1735
   50SOL    HW2  150   1.168   2.742   0.614 -1.9887  1.5012 -1.3974
   51SOL     OW  151   1.003   0.169   0.944 -0.0003 -0.4801 -0.5733
   51SOL    HW1  152   0.924   0.158   0.879  0.7760 -1.2677  1.4584
   51SOL    HW2  153   1.090   0.177   0.895 -0.6605  1.4250 -2.1750
   52SOL     OW  154   0.639   1.363   0.252 -0.2024  0.1432  0.0445
   52SOL    HW1  155   0.659   1.273   0.297  0.8678  1.2602 -1.0162
   52SOL    HW2  156   0.595   1.429   0.317 -0.0898 -0.0365 -0.2439
   53SOL     OW  157   1.131   2.730   2.522 -0.6107 -0.1684  0.2784
   53SOL    HW1  158   1.172   2.809   2.579 -0.9706  1.1584  0.2838
   53SOL    HW2  159   1.198   2.705   2.451 -0.7664 -1.5243  1.4419
   54SOL     OW  160   1.925   0.271   1.733 -0.0793  0.0796 -0.3727
   54SOL    HW1  161   1.825   0.257   1.762 -2.5627 -0.2190  1.2295
   54SOL    HW2  162   1.978   0.305   1.810 -0.4794 -1.9561 -0.0900
   55SOL     OW  163   2.851   2.374   0.274  0.2559  0.7006 -0.0009
   55SOL    HW1  164   2.847   2.330   0.185  0.8598  1.0611  0.9709
   55SOL    HW2  165   2.870   2.475   0.264 -1.6604  0.5822 -1.9887
   56SOL     OW  166   0.958   2.943   1.643  0.0136 -0.0819  0.4411
   56SOL    HW1  167   0.903   2.916   1.559  1.3965 -1.0901 -1.7683
   56SOL    HW2  168   0.993   2.859   1.693  0.2413 -1.0786  3.5815
   57SOL     OW  169   1.770   1.042   2.532  0.3138 -0.0590  0.1357
   57SOL    HW1  170   1.833   0.959   2.532 -0.5303 -0.6420 -2.1266
   57SOL    HW2  171   1.717   1.048   2.439 -2.7279  1.1802 -2.2124
   58SOL     OW  172   2.965   0.872   1.964  0.5995  0.4448 -0.5535
   58SOL    HW1  173   2.927   0.778   1.990 -1.3798  0.7803  1.3428
   58SOL    HW2  174   3.065   0.874   1.986  0.8851 -0.9505  2.1499
   59SOL     OW  175   0.829   2.567   1.652 -0.4359 -0.0057  0.0545
   59SOL    HW1  176   0.730   2.556   1.639  2.1509  1.2285 -1.9360
   59SOL    HW2  177   0.870   2.517   1.577 -3.2479  1.7064  1.0254
   60SOL     OW  178   2.108   2.572   0.279  0.1435  0.3583  0.3896
   60SOL    HW1  179   2.157   2.487   0.288 -0.6668  2.6688  0.3237
   60SOL    HW2  180   2.053   2.580   0.191  1.7538  0.1156  0.7956
   61SOL     OW  181   1.641   2.453   0.574  0.5923 -0.1538 -0.3423
   61SOL    HW1  182   1.680   2.365   0.613 -2.1627 -1.3763  1.1346
   61SOL    HW2  183   1.554   2.489   0.621 -2.5460  0.0636  0.0998
   62SOL     OW  184   1.847   2.971   3.046  0.1459 -0.7933  0.3212
   62SOL    HW1  185   1.783   3.044   3.081 -0.4715  0.3304  0.3608
   62SOL    HW2  186   1.858   2.892   0.016 -0.6883  0.5293 -2.4948
   63SOL     OW  187   2.393   0.495   0.179 -0.2281  0.3666  0.4450
   63SOL    HW1  188   2.313   0.555   0.167 -1.5565 -0.1845 -0.3673
   63SOL    HW2  189   2.484   0.543   0.156  3.0246  1.5170  2.5426
   64SOL     OW  190   1.365   0.887   2.826  0.1695 -0.3533 -0.0566
   64SOL    HW1  191   1.312   0.801   2.851  0.0556  2.7491  3.4616
   64SOL    HW2  192   1.297   0.959   2.798  2.8891 -1.6385 -0.9106
   65SOL     OW  193   0.613   2.465   1.289  0.2288 -0.1844 -0.0684
   65SOL    HW1  194   0.590   2.407   1.211  0.0507  0.9431  1.3470
   65SOL    HW2  195   0.687   2.528   1.265 -0.3456 -0.0330 -0.0828
   66SOL     OW  196   1.103   1.413   1.421  0.1244 -0.2552  0.1999
   66SOL    HW1  197   1.087   1.339   1.491  1.2936 -1.0710 -0.0078
   66SOL    HW2  198   1.141   1.493   1.470 -1.2762 -3.9869 -1.4973
   67SOL     OW  199   2.355   1.958   2.026  0.0406  0.1306  0.2938
   67SOL    HW1  200   2.413   2.013   1.963  3.2328  0.7647  1.6622
   67SOL    HW2  201   2.289   1.901   1.975  1.1391 -0.6865  1.5132
   68SOL     OW  202   0.630   1.297   2.012  0.1983  0.2575  0.4062
   68SOL    HW1  203   0.544   1.337   2.041  1.3189 -0.5901 -0.4601
   68SOL    HW2  204   0.672   1.248   2.094 -0.7840 -0.2191  2.0755
   69SOL     OW  205   0.024   2.716   0.091  0.6041 -1.0548 -0.4348
   69SOL    HW1  206   0.114   2.727   0.131  0.5405  0.3830 -1.5532
   69SOL    HW2  207   3.064   2.799   0.117  0.1521  0.4220 -1.4421
   70SOL     OW  208   2.248   0.857   2.441 -0.5111 -0.3164 -0.0679
   70SOL    HW1  209   2.298   0.898   2.519  0.9662 -0.4340 -2.2525
   70SOL    HW2  210   2.306   0.878   2.357 -0.3354 -2.0864  0.5360
   71SOL     OW  211   0.562   2.005   0.839 -0.3439 -0.0199  0.2973
   71SOL    HW1  212   0.580   1.907   0.860  1.2805 -2.4626 -1.6723
   71SOL    HW2  213   0.489   2.037   0.907 -2.8458 -0.6555 -0.6340
   72SOL     OW  214   2.661   2.129   0.499  0.0495 -0.3397 -0.0540
   72SOL    HW1  215   2.640   2.211   0.440  0.5796  0.8686  0.4096
   72SOL    HW2  216   2.640   2.149   0.595  1.8533  1.2820 -0.2642
   73SOL     OW  217   1.154   0.548   0.854 -0.5537 -0.0536 -0.4565
   73SOL    HW1  218   1.138   0.587   0.761  1.6347  0.8214  0.5284
   73SOL    HW2  219   1.252   0.572   0.875  0.9520  1.5150  1.3238
   74SOL     OW  220   2.489   2.076   1.842  0.1050 -0.2769  1.0952
   74SOL    HW1  221   2.589   2.100   1.842  3.9297  0.5081 -0.6458
   74SOL    HW2  222   2.452   2.064   1.748 -0.6507 -0.8260  2.7940
   75SOL     OW  223   1.577   1.631   1.933  0.3419  0.1043  0.4681
   75SOL    HW1  224   1.495   1.593   1.978 -2.2060  0.4637 -1.6576
   75SOL    HW2  225   1.647   1.562   1.931 -1.2812 -1.1091 -0.6671
   76SOL     OW  226   1.255   1.818   1.081  0.1937  0.1710 -0.1408
   76SOL    HW1  227   1.333   1.875   1.120  0.5365  1.5005  1.6151
   76SOL    HW2  228   1.290   1.728   1.056 -2.2259  0.3731  2.5637
   77SOL     OW  229   2.770   1.218   1.890  0.0609 -0.1047  0.3370
   77SOL    HW1  230   2.792   1.230   1.986 -1.3751  2.9297  0.2853
   77SOL    HW2  231   2.747   1.309   1.847 -3.6119  2.9990 -2.2395
   78SOL     OW  232   1.640   0.767   0.329  0.2502 -0.1016  0.1006
   78SOL    HW1  233   1.614   0.707   0.254 -0.1350  0.6415  3.1873
   78SOL    HW2  234   1.692   0.713   0.397 -0.2840  1.4821 -2.2730
   79SOL     OW  235   1.226   1.338   2.149 -0.1026 -0.1030 -0.9468
   79SOL    HW1  236   1.296   1.264   2.156 -0.0329  0.3656 -0.2960
   79SOL    HW2  237   1.137   1.302   2.115  0.4573  1.4842 -1.2358
   80SOL     OW  238   0.951   0.320   1.559  0.7088  0.3225  0.5296
   80SOL    HW1  239   0.981   0.361   1.469  3.8511  2.7075 -1.5215
   80SOL    HW2  240   1.033   0.317   1.618 -1.9453  2.0122 -3.1351
   81SOL     OW  241   0.541   2.548   0.307 -0.5254  0.6380 -0.4591
   81SOL    HW1  242   0.510   2.562   0.215  0.5259  0.5635  1.3474
   81SOL    HW2  243   0.598   2.458   0.319  3.2603 -0.8336  0.5424
   82SOL     OW  244   1.145   0.257   1.713 -0.2795 -1.2526 -0.0095
   82SOL    HW1  245   1.165   0.164   1.675  2.4161  0.4574 -0.0740
   82SOL    HW2  246   1.134   0.247   1.819  0.3064 -1.4759 -0.7462
   83SOL     OW  247   0.583   2.316   1.065 -0.6169  0.1285  0.1198
   83SOL    HW1  248   0.595   2.374   0.984  1.6563 -3.8237  2.1698
   83SOL    HW2  249   0.535   2.229   1.039 -1.7605  0.3177 -0.2430
   84SOL     OW  250   2.868   1.666   0.515  0.0530 -0.9489 -0.2780
   84SOL    HW1  251   2.810   1.581   0.515  1.6622  1.9558 -0.2601
   84SOL    HW2  252   2.959   1.645   0.475  0.8211 -1.9591 -0.9373
   85SOL     OW  253   2.399   1.817   1.399 -0.3433 -0.0072  0.4874
   85SOL    HW1  254   2.379   1.909   1.361  0.8320  1.9169  1.1723
   85SOL    HW2  255   2.414   1.748   1.326 -1.4864  0.7042 -0.3315
   86SOL     OW  256   1.513   2.441   1.689 -0.1359 -0.3549 -0.5434
   86SOL    HW1  257   1.481   2.489   1.602 -2.1143  0.9769 -0.6787
   86SOL    HW2  258   1.440   2.383   1.725  0.8985  1.6503 -0.2394
   87SOL     OW  259   2.241   1.570   0.487 -0.5952 -0.1413 -0.4463
   87SOL    HW1  260   2.142   1.596   0.475  0.1866 -0.8101 -0.4917
   87SOL    HW2  261   2.295   1.586   0.401 -3.4521 -1.5343  0.5741
   88SOL     OW  262   0.514   0.002   0.883 -0.3881 -0.2112  0.3241
   88SOL    HW1  263   0.568   0.012   0.795  3.3510  0.8284  1.0951
   88SOL    HW2  264   0.550   0.071   0.953 -2.4593  1.9496  1.5639
   89SOL     OW  265   0.708   0.433   1.613  0.4170  0.2368  0.2910
   89SOL    HW1  266   0.730   0.525   1.572  1.7150  2.5885 -3.8696
   89SOL    HW2  267   0.783   0.368   1.594 -2.8892  1.2039 -1.2415
   90SOL     OW  268   0.055   1.871   0.575  0.4785  0.5405 -0.4966
   90SOL    HW1  269   0.147   1.906   0.576 -0.7086 -1.6487  0.0779
   90SOL    HW2  270   3.069   1.937   0.586 -1.2539  0.2671  1.6158
   91SOL     OW  271   1.025   1.674   0.765  0.0664  0.6250 -0.4613
   91SOL    HW1  272   1.002   1.688   0.863  0.1748  1.2473 -3.4773
   91SOL    HW2  273   1.113   1.713   0.732 -1.7979  1.0800 -2.5693
   92SOL     OW  274   2.361   3.031   1.616  0.4418  0.0156 -0.6249
   92SOL    HW1  275   2.451   3.043   1.661  1.4372  2.0261  0.7785
   92SOL    HW2  276   2.334   2.930   1.601 -1.7309 -3.2100  0.0089
   93SOL     OW  277   0.437   1.209   2.852  0.1323 -0.2544 -0.0804
   93SOL    HW1  278   0.497   1.275   2.897 -0.1483 -2.0877  1.9581
   93SOL    HW2  279   0.421   1.246   2.756  2.0802  2.3464 -2.8343
   94SOL     OW  280   2.572   3.091   1.785 -0.8259  0.1287  0.1169
   94SOL    HW1  281   2.504   0.069   1.817  0.5120 -2.6902 -1.6197
   94SOL    HW2  282   2.634   3.066   1.863  1.0288 -0.4434  3.7536
   95SOL     OW  283   1.907   0.714   1.711  0.4196 -0.3094  0.2663
   95SOL    HW1  284   1.874   0.793   1.658 -1.9091  0.8756 -1.3566
   95SOL    HW2  285   1.910   0.633   1.650 -0.1275 -2.8769 -0.3556
   96SOL     OW  286   2.705   0.308   2.004  0.1825  0.8506  0.7072
   96SOL    HW1  287   2.732   0.387   2.059 -0.3056 -0.8575 -0.7335
   96SOL    HW2  288   2.645   0.344   1.928  1.3432  0.1541  1.2925
   97SOL     OW  289   2.266   0.187   1.510  0.5439 -0.3760  0.2644
   97SOL    HW1  290   2.164   0.179   1.491 -2.1199 -3.7197 -0.6087
   97SOL    HW2  291   2.298   0.099   1.556  1.0865 -2.0499  2.0736
   98SOL     OW  292   2.204   2.414   1.743 -0.9640  0.3506  0.1317
   98SOL    HW1  293   2.192   2.344   1.816  1.2672 -0.3986 -1.7589
   98SOL    HW2  294   2.294   2.461   1.756  1.9041 -0.2598 -0.1289
   99SOL     OW  295   0.642   0.857   0.917 -0.4762 -0.0428 -0.4440
   99SOL    HW1  296   0.700   0.931   0.879  0.7122  2.6270  1.0517
   99SOL    HW2  297   0.551   0.893   0.936  2.2869  0.6920 -0.1068
  100SOL     OW  298   2.605   1.682   2.073  0.3472  0.4260  0.2734
  100SOL    HW1  299   2.572   1.753   2.132  2.2547 -2.0105 -1.5237
  100SOL    HW2  300   2.628   1.725   1.983 -0.1131  0.8128 -1.0907
  101SOL     OW  301   2.097   3.066   0.232  0.1361  0.2621 -0.0556
  101SOL    HW1  302   2.188   3.074   0.277 -1.0108  1.0710 -1.5451
  101SOL    HW2  303   2.107   3.065   0.130 -1.9488 -2.9536  1.5602
  102SOL     OW  304   0.134   2.856   1.101 -0.1229  0.0270  0.1201
  102SOL    HW1  305   0.053   2.919   1.085  0.0309 -1.5229 -2.0499
  102SOL    HW2  306   0.190   2.845   1.016  0.7724 -0.4730 -1.9841
  103SOL     OW  307   0.080   0.051   2.279  0.3436 -0.2126  0.5251
  103SOL    HW1  308   0.008   3.082   2.325 -2.9794 -0.4014 -0.3300
  103SOL    HW2  309   0.132   3.090   2.205  2.2359 -2.8375 -0.6756
  104SOL     OW  310   0.356   2.073   1.501 -0.3194  0.3222  0.4296
  104SOL    HW1  311   0.365   2.014   1.418  0.5847  1.2964 -1.0339
  104SOL    HW2  312   0.280   2.141   1.479 -1.3383 -0.1223 -0.7713
  105SOL     OW  313   0.566   1.845   2.172 -0.3609 -0.0800 -0.1748
  105SOL    HW1  314   0.646   1.888   2.224 -0.3669 -0.8834  0.1821
  105SOL    HW2  315   0.545   1.900   2.087  2.1550 -2.2188 -3.0214
  106SOL     OW  316   2.201   0.348   0.638  0.6920  0.0906  0.1237
  106SOL    HW1  317   2.138   0.274   0.678 -2.0154 -1.3007  3.8453
  106SOL    HW2  318   2.199   0.346   0.537 -0.0787  1.1334  1.8235
  107SOL     OW  319   0.413   1.366   1.323 -0.7931 -0.2613 -0.2020
  107SOL    HW1  320   0.362   1.345   1.241 -0.0221  0.1086  1.1427
  107SOL    HW2  321   0.506   1.321   1.330 -2.9921 -0.2157  1.5458
  108SOL     OW  322   2.845   1.035   2.483 -0.3203  0.2732  0.5914
  108SOL    HW1  323   2.880   1.129   2.473 -0.9370 -2.9937 -0.5583
  108SOL    HW2  324   2.875   0.984   2.400  2.1080  2.3654 -0.9784
  109SOL     OW  325   2.016   3.057   2.868 -0.0190  0.0485  0.4301
  109SOL    HW1  326   1.990   0.058   2.846  1.9206  1.8266 -0.5128
  109SOL    HW2  327   1.952   3.022   2.938  0.3679 -2.0005 -3.1527
  110SOL     OW  328   0.316   2.084   0.171  0.3740  0.0650 -0.5004
  110SOL    HW1  329   0.228   2.058   0.136  3.7593  0.1240  2.7379
  110SOL    HW2  330   0.394   2.025   0.137  0.6178 -0.1486  1.7286
  111SOL     OW  331   2.729   0.724   2.381  0.0631 -0.1218 -0.3600
  111SOL    HW1  332   2.720   0.634   2.339  0.3796  1.4303 -1.4297
  111SOL    HW2  333   2.666   0.725   2.459  1.4591 -1.2360  0.6187
  112SOL     OW  334   1.942   2.756   1.455 -0.2528  0.3732  0.3430
  112SOL    HW1  335   1.938   2.808   1.540  1.0889 -1.7590  0.3122
  112SOL    HW2  336   2.023   2.780   1.403  0.4436 -0.5904  0.0719
  113SOL     OW  337   2.048   2.158   2.473  0.5609  0.1332 -0.7655
  113SOL    HW1  338   2.109   2.132   2.399 -1.6595 -0.9928  1.1025
  113SOL    HW2  339   2.081   2.229   2.538  0.8773 -1.5327 -1.4688
  114SOL     OW  340   0.490   0.241   0.490  0.3679  0.2921 -0.5046
  114SOL    HW1  341   0.409   0.203   0.448  2.1123 -1.5654 -0.1340
  114SOL    HW2  342   0.579   0.209   0.442  1.2570 -0.6386  0.6295
  115SOL     OW  343   2.912   1.368   3.003 -1.0452  0.5762 -0.0874
  115SOL    HW1  344   3.005   1.403   3.016  0.3777  0.4118  1.9295
  115SOL    HW2  345   2.898   1.276   3.041  1.2773 -0.7382 -1.4387
  116SOL     OW  346   2.959   0.753   1.725  0.3498 -0.1749  0.1538
  116SOL    HW1  347   2.946   0.811   1.637 -0.6201  1.1090 -3.4191
  116SOL    HW2  348   2.986   0.804   1.809 -1.0403 -0.3515  0.7072
  117SOL     OW  349   2.324   0.346   1.291  0.8577  0.2251 -0.0421
  117SOL    HW1  350   2.412   0.390   1.305 -1.2275 -1.6381  2.5712
  117SOL    HW2  351   2.302   0.285   1.365 -0.9060  0.9057 -1.7697
  118SOL     OW  352   2.780   2.094   2.078 -0.0119 -0.5314  0.5459
  118SOL    HW1  353   2.774   2.188   2.047  1.8057 -1.1099  1.0231
  118SOL    HW2  354   2.792   2.033   1.993  2.3392  0.7437  0.5970
  119SOL     OW  355   0.660   1.833   1.176  0.5716 -0.0437  0.4087
  119SOL    HW1  356   0.672   1.931   1.190 -0.7292 -2.0804 -0.2000
  119SOL    HW2  357   0.700   1.778   1.250 -1.7435  0.2771  0.1567
  120SOL     OW  358   0.267   1.347   1.543 -0.5206 -0.0078  0.3148
  120SOL    HW1  359   0.302   1.351   1.447  1.4436  2.9501  0.0842
  120SOL    HW2  360   0.287   1.256   1.580 -2.4366  0.5614 -0.6604
  121SOL     OW  361   1.602   0.900   0.833  0.0138  0.2729 -0.6248
  121SOL    HW1  362   1.585   0.899   0.935 -2.5962 -1.4934 -2.0367
  121SOL    HW2  363   1.525   0.949   0.781  0.3855 -1.3031 -2.3706
  122SOL     OW  364   2.125   2.674   2.656  0.5215  0.1070  0.5709
  122SOL    HW1  365   2.035   2.626   2.658 -2.3195  0.1230  0.0905
  122SOL    HW2  366   2.185   2.635   2.581  1.6330 -1.6603 -0.3179
  123SOL     OW  367   2.955   2.940   0.452 -0.1492 -0.7212  0.1036
  123SOL    HW1  368   2.888   2.869   0.481  1.0427  1.1521  1.6080
  123SOL    HW2  369   2.946   3.022   0.510 -0.1732 -1.9821  3.6909
  124SOL     OW  370   1.524   1.359   0.300  0.1752 -0.4019  0.1825
  124SOL    HW1  371   1.480   1.328   0.213 -2.2096  0.7797  0.3001
  124SOL    HW2  372   1.535   1.277   0.363  1.2443 -0.1135 -0.2216
  125SOL     OW  373   0.106   0.814   2.261  0.2964 -0.1329 -0.3024
  125SOL    HW1  374   0.082   0.911   2.280  3.1909 -1.7301  2.3886
  125SOL    HW2  375   0.095   0.796   2.158  0.1388 -0.3755 -1.6915
  126SOL     OW  376   0.039   2.429   0.119 -0.1015 -0.1850  0.4764
  126SOL    HW1  377   0.077   2.456   0.212  2.1939 -0.6318  0.2880
  126SOL    HW2  378   3.079   2.506   0.089  1.1803  0.0943 -0.3989
  127SOL     OW  379   2.912   1.995   0.504  0.9003 -0.0784 -0.1300
  127SOL    HW1  380   2.827   2.056   0.493 -0.3164  0.4007  0.1991
  127SOL    HW2  381   2.895   1.905   0.460  0.4289 -1.5822 -0.1520
  128SOL     OW  382   1.289   0.837   0.961 -0.1524 -0.2485  0.4233
  128SOL    HW1  383   1.311   0.934   0.986  1.1506  0.5626  1.6616
  128SOL    HW2  384   1.233   0.839   0.879  0.1319  2.4290 -0.7762
  129SOL     OW  385   2.674   1.973   1.178  0.2790  0.1562  0.7772
  129SOL    HW1  386   2.585   1.960   1.129  0.1844 -0.5549 -3.4573
  129SOL    HW2  387   2.724   2.049   1.138  1.3566  1.3789  0.2378
  130SOL     OW  388   2.061   1.001   0.321 -0.1349  0.0307 -0.1223
  130SOL    HW1  389   2.088   1.023   0.227 -0.9095 -1.1157 -1.1583
  130SOL    HW2  390   2.038   1.086   0.368 -1.2931  2.5134  0.1476
  131SOL     OW  391   2.911   1.288   2.488  0.0403  0.1562 -0.5897
  131SOL    HW1  392   2.920   1.316   2.586  1.8917  3.7665  0.8988
  131SOL    HW2  393   2.928   1.367   2.426 -1.9961 -3.4258  2.3279
  132SOL     OW  394   1.006   1.299   1.987  0.0819  0.4952 -0.4802
  132SOL    HW1  395   0.913   1.303   2.035  1.5488 -0.9492  0.4741
  132SOL    HW2  396   1.012   1.372   1.921 -0.7788 -0.9715  0.2533
  133SOL     OW  397   0.308   1.293   0.376 -0.5060 -0.1035 -0.1994
  133SOL    HW1  398   0.249   1.325   0.303  0.4963  1.5416 -1.0548
  133SOL    HW2  399   0.386   1.353   0.389  0.2677 -0.5141  0.6276
  134SOL     OW  400   2.552   1.037   0.127  0.3140  0.3742 -0.1153
  134SOL    HW1  401   2.556   1.124   0.173 -1.1357 -3.9733 -1.6927
  134SOL    HW2  402   2.589   1.041   0.031  1.3397 -1.2471 -3.0492
  135SOL     OW  403   1.648   0.617   0.062  0.1186 -0.2210  0.1493
  135SOL    HW1  404   1.710   0.679   0.012  1.6151 -2.2720  2.5488
  135SOL    HW2  405   1.675   0.524   0.046 -2.0538  1.6492  0.1500
  136SOL     OW  406   1.878   1.622   1.657  0.3271 -0.4780 -0.5328
  136SOL    HW1  407   1.919   1.640   1.564 -0.1187 -3.0979 -2.3423
  136SOL    HW2  408   1.951   1.587   1.725  0.2793 -3.8837 -0.7562
  137SOL     OW  409   2.263   2.540   1.052 -0.2487  0.1792  0.1195
  137SOL    HW1  410   2.333   2.613   1.060 -0.6227  1.3291 -0.7787
  137SOL    HW2  411   2.229   2.538   0.955 -2.6161 -0.0680  0.6841
  138SOL     OW  412   2.247   0.616   1.573 -0.1378  0.3771  0.1352
  138SOL    HW1  413   2.262   0.692   1.641  1.2516 -0.6474  1.8630
  138SOL    HW2  414   2.209   0.653   1.487 -0.7951  1.8311  0.7716
  139SOL     OW  415   2.435   2.888   2.700  0.0016  0.4034  0.2480
  139SOL    HW1  416   2.336   2.892   2.710 -2.5907 -0.1432 -0.3376
  139SOL    HW2  417   2.483   2.934   2.776  1.6668  2.0800 -1.2665
  140SOL     OW  418   1.425   1.982   2.490  0.2893  0.2429  0.5282
  140SOL    HW1  419   1.515   1.993   2.441  0.2318  0.3083 -0.3172
  140SOL    HW2  420   1.388   1.886   2.480  2.9030  1.2336  1.2854
  141SOL     OW  421   0.906   0.945   2.410  0.5070  0.2779 -0.0844
  141SOL    HW1  422   0.855   1.022   2.453  3.5843 -2.8466 -0.4109
  141SOL    HW2  423   0.975   0.896   2.471  2.1571 -2.8140  1.2328
  142SOL     OW  424   2.629   2.567   2.150 -0.0870 -0.0483  0.1892
  142SOL    HW1  425   2.637   2.657   2.108  1.7205 -0.1595  1.8559
  142SOL    HW2  426   2.553   2.503   2.115  0.0939 -1.6426 -1.5880
  143SOL     OW  427   1.106   2.357   0.298 -0.1302  0.1563  0.1772
  143SOL    HW1  428   1.161   2.442   0.296 -2.0597  2.2744 -0.6491
  143SOL    HW2  429   1.074   2.342   0.393  0.1228 -1.1661 -0.6562
  144SOL     OW  430   0.878   2.547   0.629 -0.2065 -0.6154 -0.2175
  144SOL    HW1  431   0.915   2.642   0.605 -1.5747  1.7237  0.1966
  144SOL    HW2  432   0.786   2.537   0.585 -1.4315  0.6777  1.0148
  145SOL     OW  433   1.570   2.612   2.384 -0.4207 -0.7661  0.0445
  145SOL    HW1  434   1.626   2.553   2.442 -0.7446  1.6004  0.3563
  145SOL    HW2  435   1.577   2.702   2.428  0.6069  0.4116  0.2771
  146SOL     OW  436   2.206   3.045   3.067  0.2982  0.1323  0.2343
  146SOL    HW1  437   2.215   0.056   3.072 -1.1198 -1.2161  1.6010
  146SOL    HW2  438   2.146   3.023   2.983 -0.1056 -1.1749 -0.6334
  147SOL     OW  439   0.011   1.576   1.263  0.1914  0.1164 -0.3943
  147SOL    HW1  440   3.075   1.542   1.168 -2.0449 -3.0904 -1.8380
  147SOL    HW2  441   3.019   1.573   1.322  2.3778  1.3297  0.0368
  148SOL     OW  442   1.895   3.013   0.390 -0.0203  0.1572  0.0587
  148SOL    HW1  443   1.889   2.912   0.415  1.2030 -0.9038 -0.0259
  148SOL    HW2  444   1.964   3.030   0.322  0.0624 -0.0577  0.4574
  149SOL     OW  445   0.765   1.922   3.070  0.3204  0.1498  0.4041
  149SOL    HW1  446   0.789   1.824   3.057 -2.0384  0.5572  0.0283
  149SOL    HW2  447   0.780   1.971   2.985 -1.6364 -0.2827  0.7731
  150SOL     OW  448   0.464   2.697   1.061  0.5596  0.1146 -0.2574
  150SOL    HW1  449   0.416   2.677   1.150  3.6097  1.2980  2.5004
  150SOL    HW2  450   0.424   2.766   1.000 -1.1413  1.3860  0.5643
  151SOL     OW  451   0.332   0.991   2.959  0.0093 -0.0824 -0.2968
  151SOL    HW1  452   0.380   1.075   2.914  1.3681  2.6447  0.3018
  151SOL    HW2  453   0.234   1.007   2.958  0.5985  0.6801  0.2494
  152SOL     OW  454   3.062   1.940   0.971  0.3789 -0.1297  0.5343
  152SOL    HW1  455   2.979   1.994   0.939 -1.0956 -1.8589 -1.0452
  152SOL    HW2  456   3.079   1.856   0.914 -0.9527 -1.6911 -2.9729
  153SOL     OW  457   1.651   2.222   0.714  0.1107 -0.4338  0.1352
  153SOL    HW1  458   1.750   2.206   0.712 -1.9897 -0.4419  2.8511
  153SOL    HW2  459   1.609   2.171   0.791 -0.6345  1.5236 -1.3370
  154SOL     OW  460   0.780   2.837   1.456  0.2672  0.1293  0.5510
  154SOL    HW1  461   0.744   2.927   1.427  0.1530  0.2113 -0.3271
  154SOL    HW2  462   0.794   2.782   1.379 -1.8599  1.5848  2.3409
  155SOL     OW  463   2.846   2.100   0.835  0.6102 -0.1308 -0.0968
  155SOL    HW1  464   2.916   2.155   0.790 -1.5119 -3.2467 -0.5457
  155SOL    HW2  465   2.750   2.107   0.797 -1.8412 -0.9571 -2.0051
  156SOL     OW  466   2.519   2.006   0.123  0.2702  0.7390  0.1356
  156SOL    HW1  467   2.606   2.014   0.073 -2.4648  0.1985 -1.9469
  156SOL    HW2  468   2.535   1.965   0.216 -0.4398 -2.0972 -0.2580
  157SOL     OW  469   0.298   2.519   1.840 -0.2240  0.2548 -1.0054
  157SOL    HW1  470   0.230   2.453   1.798 -1.6656 -1.0027  0.3561
  157SOL    HW2  471   0.381   2.468   1.862  0.7828 -2.7102 -0.2366
  158SOL     OW  472   1.454   0.391   0.979 -0.0387  0.8366 -0.1207
  158SOL    HW1  473   1.485   0.296   0.998 -0.4008 -2.4408 -1.5479
  158SOL    HW2  474   1.504   0.455   1.039  0.6672  0.7801 -0.3955
  159SOL     OW  475   1.718   0.946   0.109 -0.9202 -0.3367  0.0390
  159SOL    HW1  476   1.687   0.873   0.176  0.1651 -1.4782 -0.1579
  159SOL    HW2  477   1.642   0.976   0.048 -2.9158 -1.2482 -1.7785
  160SOL     OW  478   1.272   1.878   0.429  0.2554  0.1986  0.1495
  160SOL    HW1  479   1.264   1.981   0.422 -2.4279  0.6681  3.4037
  160SOL    HW2  480   1.194   1.828   0.384  0.5289 -2.1181 -2.0487
  161SOL     OW  481   2.585   2.189   2.568  0.2813 -0.2837  0.4289
  161SOL    HW1  482   2.649   2.184   2.493 -2.2686  0.9350  2.7777
  161SOL    HW2  483   2.622   2.149   2.651  1.5757  0.9430 -1.7847
  162SOL     OW  484   0.158   2.283   1.433  0.5142  0.0599 -0.0630
  162SOL    HW1  485   0.080   2.256   1.373 -0.7213 -2.0532 -0.5680
  162SOL    HW2  486   0.201   2.373   1.407  0.3085  0.1733  0.7008
  163SOL     OW  487   0.179   0.478   2.668 -0.3635 -0.0620  0.3274
  163SOL    HW1  488   0.190   0.403   2.602 -0.7105 -1.0580  3.5083
  163SOL    HW2  489   0.208   0.567   2.625 -1.1171  0.6810  1.6580
  164SOL     OW  490   0.108   2.672   2.899  0.2216  0.6423  0.4283
  164SOL    HW1  491   0.172   2.745   2.891  0.5289  1.1542 -1.8861
  164SOL    HW2  492   0.075   2.667   2.993  0.3612  2.2703 -0.5027
  165SOL     OW  493   2.937   0.819   1.228  0.3253 -0.1151  0.4710
  165SOL    HW1  494   2.838   0.813   1.243  0.2731  2.5075 -1.5535
  165SOL    HW2  495   2.977   0.727   1.214 -1.3773  2.9193 -0.9969
  166SOL     OW  496   2.055   1.673   1.451  0.5882  0.1930 -0.3667
  166SOL    HW1  497   2.139   1.617   1.454 -2.4078  0.2831  2.6473
  166SOL    HW2  498   2.036   1.705   1.356 -1.0544  0.5554 -0.9189
  167SOL     OW  499   0.344   0.554   2.388 -0.0855 -0.3732  0.0697
  167SOL    HW1  500   0.329   0.562   2.290  0.6974 -1.6118  1.4861
  167SOL    HW2  501   0.316   0.644   2.431  0.0683  1.6838  3.1184
  168SOL     OW  502   2.147   0.200   2.187  0.6360  0.4106 -0.1835
  168SOL    HW1  503   2.093   0.116   2.208  2.2401  2.5315 -3.0206
  168SOL    HW2  504   2.247   0.185   2.175 -0.3196  0.0996 -0.8737
  169SOL     OW  505   0.593   1.005   0.033  0.0560  0.1808  0.1629
  169SOL    HW1  506   0.498   0.994   3.089 -0.8355 -1.5325 -0.8368
  169SOL    HW2  507   0.657   1.023   3.045 -1.1257  0.1478  1.8348
  170SOL     OW  508   0.726   1.352   1.608 -0.2191  0.4647 -0.7653
  170SOL    HW1  509   0.708   1.434   1.670  1.9305  2.6600  2.0278
  170SOL    HW2  510   0.791   1.282   1.655 -0.1371 -1.6776  0.7871
  171SOL     OW  511   1.135   2.696   1.389 -0.4190  0.6308 -0.1332
  171SOL    HW1  512   1.151   2.731   1.483 -0.2421 -0.3436 -0.3635
  171SOL    HW2  513   1.138   2.779   1.332  0.1350 -1.6819  1.6061
  172SOL     OW  514   1.148   2.960   1.924  0.4442  0.2203 -0.1052
  172SOL    HW1  515   1.052   2.928   1.955 -3.1741 -5.0317 -1.3651
  172SOL    HW2  516   1.156   3.064   1.927 -0.7210  1.3626 -0.2301
  173SOL     OW  517   1.155   2.440   0.904  0.0016  0.2183 -0.0639
  173SOL    HW1  518   1.064   2.471   0.874  0.9235  2.4596  0.4263
  173SOL    HW2  519   1.173   2.341   0.876  0.8470 -1.8252  0.5327
  174SOL     OW  520   2.194   3.037   0.590 -0.1874  0.1575  0.0648
  174SOL    HW1  521   2.107   0.000   0.597 -0.4807  2.2069  3.3411
  174SOL    HW2  522   2.242   3.054   0.499 -1.0946  0.5598 -2.4059
  175SOL     OW  523   1.416   1.024   0.667  0.3624  0.5059  0.1135
  175SOL    HW1  524   1.406   1.108   0.726  0.6371  2.9522  1.7871
  175SOL    HW2  525   1.325   1.015   0.623 -4.2932  0.5307 -3.0746
  176SOL     OW  526   0.858   1.568   0.451  0.0319 -0.2901 -0.3188
  176SOL    HW1  527   0.780   1.588   0.512  1.3763 -2.5724  1.1766
  176SOL    HW2  528   0.878   1.467   0.450 -0.8330 -0.6227  1.1619
  177SOL     OW  529   1.639   1.378   0.907 -0.1390  0.7976  0.2371
  177SOL    HW1  530   1.632   1.434   0.818  2.3465  1.2379 -3.1373
  177SOL    HW2  531   1.733   1.360   0.932 -1.3514 -0.7519 -2.0550
  178SOL     OW  532   2.208   1.669   0.121 -0.1377  0.4093 -0.1123
  178SOL    HW1  533   2.230   1.741   0.055 -0.0677  1.0948 -1.8445
  178SOL    HW2  534   2.284   1.642   0.187  1.3046 -0.9120 -1.4163
  179SOL     OW  535   1.387   2.921   3.040  0.2223 -0.0275 -0.1656
  179SOL    HW1  536   1.407   2.820   3.022 -3.9895 -3.2789 -0.8907
  179SOL    HW2  537   1.297   2.949   3.003 -0.0652 -0.8935  0.1151
  180SOL     OW  538   2.076   1.322   1.444  0.1980  0.2257  0.7111
  180SOL    HW1  539   2.043   1.352   1.535 -1.4731  0.7148  0.0820
  180SOL    HW2  540   2.161   1.369   1.419 -0.8840 -1.6494 -0.5610
  181SOL     OW  541   0.890   0.741   1.751  0.1838  0.0529 -0.2719
  181SOL    HW1  542   0.956   0.669   1.781  2.4428  1.1748 -0.9947
  181SOL    HW2  543   0.827   0.762   1.831 -1.7869 -0.3812  1.7854
  182SOL     OW  544   0.055   1.076   2.318 -0.2720 -0.1747  0.3637
  182SOL    HW1  545   3.050   1.051   2.321  0.2999  2.3844 -2.4351
  182SOL    HW2  546   0.084   1.106   2.223 -0.2841 -1.3967 -0.7288
  183SOL     OW  547   1.384   0.564   2.282  0.3789  0.1401 -0.2199
  183SOL    HW1  548   1.474   0.532   2.246  4.9737  1.0226 -0.5079
  183SOL    HW2  549   1.338   0.495   2.342  2.5186  0.2683  2.7678
  184SOL     OW  550   0.531   0.460   1.142  0.0413 -0.1106 -0.6922
  184SOL    HW1  551   0.605   0.499   1.202 -0.4057 -0.5569 -0.7531
  184SOL    HW2  552   0.451   0.430   1.200 -3.3396 -0.2120  0.5953
  185SOL     OW  553   2.337   1.561   0.751 -0.2140 -0.0100  0.1916
  185SOL    HW1  554   2.436   1.547   0.755 -2.1763 -0.6447 -0.8341
  185SOL    HW2  555   2.310   1.569   0.651  1.5977  0.0823 -0.3776
  186SOL     OW  556   0.407   2.221   0.384  0.3198  0.3112  0.1902
  186SOL    HW1  557   0.362   2.171   0.308 -0.1052  1.3696  0.0846
  186SOL    HW2  558   0.344   2.220   0.468 -0.4404 -0.6324  3.4488
  187SOL     OW  559   2.007   2.236   2.984 -0.3176  0.0946 -0.0150
  187SOL    HW1  560   2.036   2.137   3.004  0.7318 -2.2502  0.6881
  187SOL    HW2  561   2.031   2.253   2.888 -1.8584 -2.2817  4.1596
  188SOL     OW  562   1.436   2.141   1.609 -0.6257  0.0541 -0.1644
  188SOL    HW1  563   1.485   2.058   1.567 -0.8313 -0.0045  1.1879
  188SOL    HW2  564   1.360   2.179   1.549  1.0029  1.2264  0.0917
  189SOL     OW  565   2.255   1.410   2.638 -0.1517  0.2288  0.5131
  189SOL    HW1  566   2.188   1.369   2.704 -3.3228 -1.7379 -1.0555
  189SOL    HW2  567   2.222   1.498   2.602 -1.4210 -0.4601  1.7975
  190SOL     OW  568   0.823   2.512   2.122  0.6153  0.5830 -0.5338
  190SOL    HW1  569   0.916   2.549   2.103  0.5078 -1.0339  0.7293
  190SOL    HW2  570   0.747   2.576   2.155 -1.5062 -1.0058  0.0375
  191SOL     OW  571   2.634   1.085   1.136 -0.3199  0.1821  0.1598
  191SOL    HW1  572   2.616   1.024   1.214 -0.5953  0.6414 -1.5101
  191SOL    HW2  573   2.645   1.034   1.050 -0.0373 -0.7395 -0.9062
  192SOL     OW  574   2.545   0.728   1.520 -0.4774 -0.4354  0.0607
  192SOL    HW1  575   2.486   0.673   1.457 -0.1132 -0.5086  0.5750
  192SOL    HW2  576   2.610   0.672   1.578 -1.2897 -1.1327  2.3571
  193SOL     OW  577   0.896   0.350   0.072 -0.1835  0.0749  0.4483
  193SOL    HW1  578   0.902   0.250   0.095 -2.2531 -1.5618 -0.5490
  193SOL    HW2  579   0.860   0.347   3.068  0.5897 -0.3808  0.6317
  194SOL     OW  580   1.166   2.498   1.222  0.2818 -0.2534 -0.1866
  194SOL    HW1  581   1.131   2.583   1.265  0.1750 -2.1464 -0.7565
  194SOL    HW2  582   1.176   2.506   1.117 -1.1513  3.4118 -3.5270
  195SOL     OW  583   2.477   1.293   0.476  0.3189  0.2094  0.0421
  195SOL    HW1  584   2.513   1.254   0.560  1.5429 -0.0893 -2.3605
  195SOL    HW2  585   2.376   1.280   0.477 -0.3146 -0.7890 -1.0714
  196SOL     OW  586   0.589   2.228   1.566  0.5880  0.2905 -0.1788
  196SOL    HW1  587   0.501   2.183   1.538 -2.2915  1.4550 -2.2782
  196SOL    HW2  588   0.572   2.327   1.561  0.2380 -1.1595  0.5791
  197SOL     OW  589   2.897   0.629   2.080  0.0633  0.5059 -0.3596
  197SOL    HW1  590   2.982   0.572   2.080 -2.5193 -1.3223 -1.8491
  197SOL    HW2  591   2.832   0.588   2.147 -1.8252  3.0235  0.3959
  198SOL     OW  592   1.958   1.250   0.349  0.0788  0.4847 -0.3246
  198SOL    HW1  593   1.923   1.255   0.255  0.9407  1.4985 -0.8596
  198SOL    HW2  594   1.890   1.289   0.415  1.7594  0.1448 -1.5189
  199SOL     OW  595   2.395   0.396   1.634  0.2459  0.6533  0.0070
  199SOL    HW1  596   2.326   0.464   1.603  2.6144 -3.7030  0.3925
  199SOL    HW2  597   2.386   0.313   1.578  1.3399  2.5986 -0.5987
  200SOL     OW  598   2.223   0.221   3.082  0.5228  0.0513 -0.4546
  200SOL    HW1  599   2.321   0.213   0.020 -2.2094  0.9614  1.4832
  200SOL    HW2  600   2.225   0.271   2.993  0.1362 -0.8536  0.2892
  201SOL     OW  601   2.492   0.063   0.940 -0.3589  0.1079  0.2699
  201SOL    HW1  602   2.585   0.064   0.904 -0.8753  0.1382 -0.6274
  201SOL    HW2  603   2.458   0.160   0.951  0.8834  0.4923 -0.1579
  202SOL     OW  604   2.902   2.640   0.277 -0.7382  0.0914 -0.1721
  202SOL    HW1  605   2.989   2.671   0.241  0.8857  0.9374 -1.3288
  202SOL    HW2  606   2.874   2.687   0.366  0.4782  1.5210  1.5134
  203SOL     OW  607   1.525   1.786   0.446 -0.1493  0.2100 -0.5805
  203SOL    HW1  608   1.435   1.830   0.462 -0.0295 -1.2884 -2.8602
  203SOL    HW2  609   1.578   1.759   0.527 -1.3602  0.4461 -0.9220
  204SOL     OW  610   0.343   1.875   2.366  0.5354 -0.1436 -0.8339
  204SOL    HW1  611   0.433   1.860   2.316  1.0969  2.0912  0.9004
  204SOL    HW2  612   0.267   1.811   2.331 -1.9940 -0.3025 -1.1705
  205SOL     OW  613   0.852   0.412   0.761 -0.4016 -0.0877 -0.1328
  205SOL    HW1  614   0.847   0.505   0.799 -1.2317 -1.2439 -0.9880
  205SOL    HW2  615   0.924   0.417   0.690 -2.1831  0.3989 -0.4514
  206SOL     OW  616   0.278   0.520   2.954  0.2685 -0.1187 -0.2464
  206SOL    HW1  617   0.290   0.617   2.925  2.8347  2.0413  0.4315
  206SOL    HW2  618   0.224   0.464   2.887 -1.7726 -1.9771 -0.6559
  207SOL     OW  619   1.246   2.501   1.894  0.1392 -0.5677  0.0611
  207SOL    HW1  620   1.205   2.417   1.853  0.5954  1.6628 -1.5613
  207SOL    HW2  621   1.202   2.531   1.979  0.8798 -0.2306 -1.1726
  208SOL     OW  622   2.883   3.024   1.570  0.2709 -0.0395  0.1649
  208SOL    HW1  623   2.880   2.935   1.613 -1.6969  2.5208 -2.9736
  208SOL    HW2  624   2.798   3.035   1.516 -0.8310 -0.5905  0.9454
  209SOL     OW  625   1.814   0.984   0.710  0.1212  0.0624  0.3722
  209SOL    HW1  626   1.726   0.959   0.762 -1.6196 -1.1087 -0.1329
  209SOL    HW2  627   1.799   0.995   0.609  0.2706  0.1605  0.8281
  210SOL     OW  628   2.593   0.900   0.349  0.3250 -0.3647  0.7609
  210SOL    HW1  629   2.533   0.927   0.429 -0.8552 -1.8008  0.0669
  210SOL    HW2  630   2.567   0.952   0.263 -0.9620  3.1461 -0.2602
  211SOL     OW  631   1.241   3.088   0.142  0.1004  0.3207  1.3503
  211SOL    HW1  632   1.285   0.084   0.155  0.6587 -0.7216 -1.4505
  211SOL    HW2  633   1.287   3.029   0.068  1.1976  0.7661 -2.0947
  212SOL     OW  634   1.915   2.195   0.660 -0.6586 -0.0964 -0.0582
  212SOL    HW1  635   2.016   2.198   0.668  2.3768  1.5366  2.4287
  212SOL    HW2  636   1.885   2.202   0.560  0.5264 -1.0157 -0.5902
  213SOL     OW  637   2.446   0.253   0.094 -0.1112  0.1591  0.0632
  213SOL    HW1  638   2.498   0.205   0.163 -0.3452  0.1382 -0.4962
  213SOL    HW2  639   2.420   0.345   0.128 -0.5625 -0.9997 -0.1155
  214SOL     OW  640   0.933   2.073   2.078  0.2872  0.6795  0.2949
  214SOL    HW1  641   1.016   2.125   2.118 -0.1793  0.4235 -0.6443
  214SOL    HW2  642   0.847   2.119   2.111 -0.4264 -0.9410 -1.2707
  215SOL     OW  643   0.452   1.245   0.933  0.0523  0.4505 -1.1954
  215SOL    HW1  644   0.398   1.331   0.940 -2.6122 -2.5828  0.5508
  215SOL    HW2  645   0.548   1.266   0.910 -2.7310 -0.4751 -1.3430
  216SOL     OW  646   0.201   2.429   2.816 -0.0876  0.3886 -0.0492
  216SOL    HW1  647   0.275   2.453   2.748  0.5058 -0.1977 -0.5943
  216SOL    HW2  648   0.170   2.517   2.854  3.3358  1.2681  0.3748
  217SOL     OW  649   2.871   1.222   1.240  0.4504 -0.7437 -0.3486
  217SOL    HW1  650   2.815   1.266   1.165 -0.4121 -0.7850 -0.4357
  217SOL    HW2  651   2.829   1.131   1.256  0.2539  1.2913 -0.6275
  218SOL     OW  652   0.805   2.387   1.858 -0.1606 -0.9421  0.0552
  218SOL    HW1  653   0.799   2.435   1.768 -1.3851  0.5922 -0.8721
  218SOL    HW2  654   0.851   2.449   1.923  1.6772 -0.0702 -0.2895
  219SOL     OW  655   1.972   1.634   0.473 -0.3826 -0.4528  0.0198
  219SOL    HW1  656   2.006   1.706   0.409  1.9170  2.9562  4.5131
  219SOL    HW2  657   1.969   1.681   0.558 -0.5569 -1.2952 -1.5366
  220SOL     OW  658   2.035   0.733   0.360  0.0822 -0.5159 -0.2042
  220SOL    HW1  659   2.037   0.834   0.350  0.4013 -0.3619 -0.1969
  220SOL    HW2  660   1.962   0.709   0.422  0.9165  0.0005  1.7168
  221SOL     OW  661   2.904   0.820   0.033 -0.1891 -0.6191  0.1500
  221SOL    HW1  662   2.884   0.811   0.131 -0.5908  2.6701 -1.4703
  221SOL    HW2  663   2.991   0.768   0.016  1.0303 -3.1491  0.7755
  222SOL     OW  664   1.609   1.488   0.673 -0.8880 -0.0332  0.5557
  222SOL    HW1  665   1.511   1.470   0.674  2.7481 -0.9040  1.9045
  222SOL    HW2  666   1.632   1.587   0.683  1.2411 -1.0331 -0.5992
  223SOL     OW  667   1.160   0.112   2.775 -0.5372  0.0761 -0.0769
  223SOL    HW1  668   1.198   0.106   2.678 -0.5469  1.5993 -2.0792
  223SOL    HW2  669   1.074   0.058   2.785 -1.6536 -0.7011  2.8880
  224SOL     OW  670   0.871   2.839   1.194  0.0020  0.2645 -0.0465
  224SOL    HW1  671   0.812   2.899   1.135  0.4602  1.2598 -0.7593
  224SOL    HW2  672   0.953   2.888   1.230  0.3747  2.8331 -0.6217
  225SOL     OW  673   0.598   2.756   1.968  0.0472  0.0864  0.0604
  225SOL    HW1  674   0.556   2.674   2.008  0.4893  0.7728  0.2843
  225SOL    HW2  675   0.533   2.834   1.968  0.4009  1.1810  2.3355
  226SOL     OW  676   1.386   1.593   0.302 -0.3188  0.1724  0.9623
  226SOL    HW1  677   1.427   1.677   0.347 -0.7318 -0.9692 -3.7170
  226SOL    HW2  678   1.457   1.514   0.287 -0.2559 -0.6090 -1.5257
  227SOL     OW  679   0.483   1.737   0.996  0.5262  0.4290 -0.0548
  227SOL    HW1  680   0.548   1.773   1.072  1.1312  1.8206 -0.2305
  227SOL    HW2  681   0.535   1.673   0.939 -1.6073  2.4759  0.0767
  228SOL     OW  682   0.301   1.971   0.591  0.0636  0.0141  0.5872
  228SOL    HW1  683   0.378   1.954   0.528 -2.1425 -1.3892  0.7239
  228SOL    HW2  684   0.274   2.070   0.588 -0.3247  0.7772 -1.0124
  229SOL     OW  685   2.846   0.173   3.078  0.0230  0.3026 -0.0916
  229SOL    HW1  686   2.758   0.166   3.027 -1.5376 -2.0504 -0.5836
  229SOL    HW2  687   2.920   0.113   3.039  0.5813  0.3952  0.7615
  230SOL     OW  688   2.313   0.962   0.458  0.5362 -0.4503 -0.2484
  230SOL    HW1  689   2.224   0.958   0.407 -0.1522 -0.5938 -0.3913
  230SOL    HW2  690   2.300   1.007   0.550  0.6826 -1.1509  1.8726
  231SOL     OW  691   1.721   1.414   3.028 -0.3222 -0.1551  0.0988
  231SOL    HW1  692   1.742   1.442   0.031 -2.0302 -0.9610  0.8267
  231SOL    HW2  693   1.716   1.493   2.962  1.1176  1.0901 -0.1034
  232SOL     OW  694   2.428   1.886   1.052 -0.0006 -0.2791  0.1931
  232SOL    HW1  695   2.373   1.811   1.013  0.2849  2.5537  0.3678
  232SOL    HW2  696   2.385   1.923   1.137  0.3660 -1.9651 -1.7477
  233SOL     OW  697   0.373   2.750   1.479  0.3379 -0.1299 -0.6916
  233SOL    HW1  698   0.379   2.771   1.578  1.4580 -1.4005 -0.4297
  233SOL    HW2  699   0.333   2.823   1.427 -1.4714 -2.7498  0.9331
  234SOL     OW  700   0.759   0.139   2.481  0.3131 -0.2256  0.1358
  234SOL    HW1  701   0.854   0.107   2.452  0.8973 -0.5119  0.7448
  234SOL    HW2  702   0.708   0.061   2.523  1.4088  0.2825  2.1231
  235SOL     OW  703   2.910   0.976   2.209 -0.6803 -0.6135 -0.4133
  235SOL    HW1  704   2.879   1.074   2.193  0.2200  1.8544 -0.0033
  235SOL    HW2  705   2.912   0.923   2.122  0.0367  0.5690 -0.7388
  236SOL     OW  706   1.188   2.775   1.724  0.0849  0.2265  0.0153
  236SOL    HW1  707   1.178   2.857   1.783 -3.7199  0.3962 -0.6657
  236SOL    HW2  708   1.167   2.689   1.778  1.1232  0.0510 -0.5955
  237SOL     OW  709   0.463   1.332   2.607  0.4976  0.3562  0.8470
  237SOL    HW1  710   0.402   1.290   2.542  2.5378  5.2654  2.3587
  237SOL    HW2  711   0.543   1.379   2.560 -1.8296  2.4484  1.8410
  238SOL     OW  712   1.004   0.432   2.362  0.3056  0.3705  0.1163
  238SOL    HW1  713   1.010   0.517   2.305  2.3486  2.6156 -1.5946
  238SOL    HW2  714   0.934   0.436   2.439 -0.3734  2.0363  2.5183
  239SOL     OW  715   0.392   2.117   2.070 -0.3202 -0.0696  0.3529
  239SOL    HW1  716   0.448   2.042   2.034 -1.4492  2.1418 -0.0756
  239SOL    HW2  717   0.427   2.182   2.145  0.7773  0.5646  1.6824
  240SOL     OW  718   2.498   2.832   0.492  0.8428  0.3571 -0.1515
  240SOL    HW1  719   2.477   2.917   0.541  2.2963  0.8827 -0.6896
  240SOL    HW2  720   2.433   2.800   0.420  0.6037  0.5015  1.3513
  241SOL     OW  721   0.216   0.853   0.085 -0.0748 -0.4268 -0.6992
  241SOL    HW1  722   0.146   0.792   0.039 -0.6706 -0.4554  2.1596
  241SOL    HW2  723   0.250   0.931   0.023 -0.9858  0.3963 -3.2145
  242SOL     OW  724   1.755   2.526   1.805 -0.4938 -0.0761  0.6997
  242SOL    HW1  725   1.837   2.481   1.764 -0.6755  3.2119 -2.8644
  242SOL    HW2  726   1.671   2.495   1.755 -1.7737 -0.2915  0.0183
  243SOL     OW  727   0.529   2.401   1.955 -0.3348 -0.2209  0.6670
  243SOL    HW1  728   0.625   2.399   1.931 -2.2869 -1.3712  1.2485
  243SOL    HW2  729   0.490   2.311   1.974 -3.6130 -0.8385  0.1969
  244SOL     OW  730   2.313   0.595   2.396 -0.4406  0.4473 -0.3183
  244SOL    HW1  731   2.225   0.555   2.354 -0.9948 -0.3412  0.8339
  244SOL    HW2  732   2.297   0.693   2.423 -1.0577 -2.0996  0.7069
  245SOL     OW  733   1.534   2.759   1.191  0.3526  0.3035  0.2160
  245SOL    HW1  734   1.545   2.806   1.280 -0.6968 -0.7269 -1.4784
  245SOL    HW2  735   1.528   2.814   1.102  1.1498  1.6779 -1.4843
  246SOL     OW  736   1.439   2.905   0.510 -0.3057 -0.4919 -0.4465
  246SOL    HW1  737   1.485   2.865   0.427  0.2024  0.3648 -0.1924
  246SOL    HW2  738   1.379   2.835   0.552 -1.3755 -0.6977 -1.5985
  247SOL     OW  739   1.743   0.538   1.901  0.1938 -0.2559  0.2547
  247SOL    HW1  740   1.672   0.470   1.891  0.0677  3.3013  0.5591
  247SOL    HW2  741   1.772   0.569   1.811 -2.0001  0.6791  0.0404
  248SOL     OW  742   3.001   2.021   1.824 -0.0744 -0.4518 -0.2399
  248SOL    HW1  743   3.043   2.033   1.915 -1.2047  1.9074 -0.0008
  248SOL    HW2  744   3.063   1.957   1.766 -1.4368 -2.4776  0.4243
  249SOL     OW  745   3.019   0.144   0.350 -0.4762 -0.0820 -0.2079
  249SOL    HW1  746   2.962   0.130   0.432 -0.1529 -0.0947  3.6367
  249SOL    HW2  747   0.023   0.128   0.367 -1.3765 -1.5742 -1.7554
  250SOL     OW  748   2.550   0.062   2.566 -0.3302 -0.0095 -0.4446
  250SOL    HW1  749   2.566   3.062   2.523 -1.3437  2.0972 -0.3802
  250SOL    HW2  750   2.451   0.074   2.585  1.7274 -1.4114  2.6581
  251SOL     OW  751   1.351   0.652   0.113  0.0549  0.0826  0.2321
  251SOL    HW1  752   1.296   0.568   0.124 -0.3053 -0.6163 -1.3487
  251SOL    HW2  753   1.448   0.635   0.088  1.5753  0.5143 -3.0637
  252SOL     OW  754   1.086   2.603   2.087  0.6851 -0.5250  0.8489
  252SOL    HW1  755   1.119   2.623   2.179 -1.7039 -0.3916  0.5985
  252SOL    HW2  756   1.055   2.687   2.037  1.2203  1.8873 -0.7909
  253SOL     OW  757   2.467   2.769   1.044 -0.2145  0.2549 -0.1314
  253SOL    HW1  758   2.384   2.823   1.015 -0.7439 -0.8918 -3.3867
  253SOL    HW2  759   2.543   2.800   0.985  0.2356  0.9754  0.3412
  254SOL     OW  760   2.400   1.302   1.167  0.3496  0.1161  0.2571
  254SOL    HW1  761   2.329   1.247   1.114  1.6913 -1.0099  0.5128
  254SOL    HW2  762   2.444   1.237   1.233  4.2709  0.5610  1.2091
  255SOL     OW  763   0.833   2.577   1.181  0.3920 -0.4804 -0.1190
  255SOL    HW1  764   0.853   2.680   1.186 -0.4933  4.1382 -1.8580
  255SOL    HW2  765   0.856   2.535   1.090 -1.2178 -1.8764 -2.5017
  256SOL     OW  766   2.172   1.848   1.634  0.2179  0.5978  0.3464
  256SOL    HW1  767   2.159   1.795   1.545  1.8489 -0.0371  0.8488
  256SOL    HW2  768   2.218   1.791   1.702 -0.5760 -2.7865  1.7653
  257SOL     OW  769   0.397   2.336   2.574  0.1478  0.2750  0.7156
  257SOL    HW1  770   0.473   2.269   2.548  1.9548 -0.1171 -0.8734
  257SOL    HW2  771   0.428   2.425   2.614 -0.8757  1.2331 -2.3884
  258SOL     OW  772   0.769   2.750   0.852 -0.6617 -0.0983 -0.2547
  258SOL    HW1  773   0.859   2.795   0.828 -0.7110 -0.7411  0.6930
  258SOL    HW2  774   0.732   2.780   0.944  0.5137 -1.3338  1.5225
  259SOL     OW  775   1.334   0.371   2.699  0.1984  0.0021 -0.1505
  259SOL    HW1  776   1.412   0.314   2.737 -0.9455 -1.9993 -4.5816
  259SOL    HW2  777   1.260   0.384   2.768 -0.3687  0.1175 -0.4202
  260SOL     OW  778   0.157   0.890   1.085  0.6075  0.1947  0.2884
  260SOL    HW1  779   0.147   0.940   1.172  1.3821 -0.9878 -0.9494
  260SOL    HW2  780   0.244   0.913   1.033  1.1160  2.6470 -1.5907
  261SOL     OW  781   0.416   0.285   2.096 -0.5171 -0.0714  0.3441
  261SOL    HW1  782   0.437   0.362   2.030  0.2374  0.4618 -0.7368
  261SOL    HW2  783   0.498   0.257   2.147 -0.8448  0.8279 -0.1399
  262SOL     OW  784   0.925   2.712   1.885 -0.2469  0.4063  0.2014
  262SOL    HW1  785   0.909   2.658   1.798 -2.8315  2.4201 -3.1793
  262SOL    HW2  786   0.838   2.751   1.921 -1.0069 -1.8336 -1.4861
  263SOL     OW  787   0.785   2.348   2.983  0.2016 -0.5152 -0.5244
  263SOL    HW1  788   0.873   2.344   3.038 -4.3648 -0.3795  1.4950
  263SOL    HW2  789   0.709   2.319   3.048  0.0110 -0.6195 -0.3062
  264SOL     OW  790   1.410   1.598   0.926 -0.0005  0.0754  0.3121
  264SOL    HW1  791   1.447   1.533   0.997  0.7192 -0.9471  0.9419
  264SOL    HW2  792   1.338   1.548   0.874 -0.2298 -2.6281 -2.6678
  265SOL     OW  793   1.040   2.345   0.567  0.1526 -0.3530 -0.1028
  265SOL    HW1  794   1.088   2.292   0.643  0.2682 -0.1148 -1.5760
  265SOL    HW2  795   0.988   2.428   0.601 -2.9335 -0.5643 -0.1591
  266SOL     OW  796   2.691   0.970   0.897 -0.3361 -0.0953 -0.4768
  266SOL    HW1  797   2.635   0.885   0.897 -1.4594  1.0193  2.1064
  266SOL    HW2  798   2.701   1.010   0.806 -1.0321 -0.2958 -0.0595
  267SOL     OW  799   0.115   1.356   2.975  0.1580 -0.1729  0.3999
  267SOL    HW1  800   0.140   1.339   3.070  0.4479  1.0867 -3.7882
  267SOL    HW2  801   0.163   1.438   2.937 -0.4496  0.3004 -2.4271
  268SOL     OW  802   1.610   0.229   0.280  0.0248 -0.0085 -0.7396
  268SOL    HW1  803   1.627   0.132   0.252  0.0574  0.1045 -0.9372
  268SOL    HW2  804   1.612   0.234   0.380 -0.7342 -1.0783 -4.5693
  269SOL     OW  805   2.997   0.688   2.402 -0.3204  0.0127  0.1031
  269SOL    HW1  806   3.068   0.728   2.334 -0.4650  1.2834  0.3674
  269SOL    HW2  807   2.904   0.716   2.371 -1.8548  1.3843 -2.2795
  270SOL     OW  808   0.057   1.069   0.211  0.4149  0.0415  0.3871
  270SOL    HW1  809   0.039   1.052   0.312  0.0592  1.7000  1.6178
  270SOL    HW2  810   0.111   0.996   0.165 -0.1253 -0.3250  1.7102
  271SOL     OW  811   2.921   1.561   2.439 -0.4497 -0.6560  0.1281
  271SOL    HW1  812   2.897   1.599   2.531 -1.1065  0.9943 -1.2652
  271SOL    HW2  813   2.951   1.637   2.375  3.7603  1.2931 -0.8203
  272SOL     OW  814   2.488   2.477   1.822 -0.1405  0.0759 -0.2750
  272SOL    HW1  815   2.585   2.445   1.811  3.5899 -0.6289 -2.8273
  272SOL    HW2  816   2.447   2.453   1.911 -1.4166 -0.1372  1.1263
  273SOL     OW  817   0.117   2.450   0.386 -0.4194  0.4688 -0.3632
  273SOL    HW1  818   0.180   2.484   0.460  2.6286 -1.1170  0.0148
  273SOL    HW2  819   0.066   2.373   0.425 -1.6035  2.2279 -0.2152
  274SOL     OW  820   0.885   2.204   0.856 -0.6235  0.4818  1.1817
  274SOL    HW1  821   0.807   2.199   0.795 -2.7011 -2.3405 -0.3540
  274SOL    HW2  822   0.908   2.112   0.892  3.2602  0.5533  1.0468
  275SOL     OW  823   1.743   1.744   2.872 -0.0284 -0.4413 -0.1809
  275SOL    HW1  824   1.834   1.775   2.900 -0.5301 -1.9277  1.0480
  275SOL    HW2  825   1.710   1.809   2.798 -1.6518  3.0459 -0.1222
  276SOL     OW  826   2.448   1.343   1.814 -0.2281 -0.1654 -0.2261
  276SOL    HW1  827   2.408   1.253   1.789 -1.9792  0.8906  0.9351
  276SOL    HW2  828   2.513   1.337   1.893  0.3956 -2.1661 -1.8661
  277SOL     OW  829   2.379   0.324   1.016  0.1876 -0.5105  0.3976
  277SOL    HW1  830   2.377   0.419   0.983 -0.7994 -2.5514 -0.5051
  277SOL    HW2  831   2.354   0.327   1.114 -1.5013  1.5446  0.0752
  278SOL     OW  832   1.733   0.457   2.470 -0.4329 -0.4591  0.2313
  278SOL    HW1  833   1.658   0.494   2.529  0.9408 -2.8657 -0.2686
  278SOL    HW2  834   1.821   0.497   2.495 -0.4282  1.0037 -0.8059
  279SOL     OW  835   1.204   2.918   1.016 -0.6787  0.3788 -0.2613
  279SOL    HW1  836   1.229   2.820   0.986 -1.2022 -1.3576 -1.4036
  279SOL    HW2  837   1.148   2.913   1.104 -1.2901  2.2140 -0.1180
  280SOL     OW  838   1.286   1.191   0.342  0.0881  0.8363 -0.1604
  280SOL    HW1  839   1.372   1.146   0.380  0.5727 -1.7531 -2.1080
  280SOL    HW2  840   1.306   1.187   0.240  0.0775  0.4762 -1.0522
  281SOL     OW  841   2.413   1.586   0.276  0.4821 -0.4558  0.2465
  281SOL    HW1  842   2.501   1.638   0.289 -2.6846 -0.6337 -0.7780
  281SOL    HW2  843   2.422   1.495   0.236 -0.5643  1.6874 -0.8884
  282SOL     OW  844   2.540   1.292   0.218  0.4487  0.6375  0.0711
  282SOL    HW1  845   2.506   1.271   0.312 -0.3949 -2.8098  1.4927
  282SOL    HW2  846   2.637   1.322   0.225 -2.3727  1.0959  0.4726
  283SOL     OW  847   1.782   2.853   2.803  0.0326 -0.2013 -0.3027
  283SOL    HW1  848   1.839   2.896   2.731  0.4262  1.2474  0.0639
  283SOL    HW2  849   1.797   2.900   2.891  0.4066 -1.0400  1.3711
  284SOL     OW  850   0.826   0.082   2.920  0.4746 -0.6405 -0.6774
  284SOL    HW1  851   0.817   0.182   2.910 -1.1657  2.9614  2.1041
  284SOL    HW2  852   0.865   0.064   3.015 -2.0155  0.4866  0.2858
  285SOL     OW  853   1.987   1.874   2.799  0.4460 -0.2790  0.4777
  285SOL    HW1  854   2.091   1.874   2.790 -1.4548 -0.7988  1.7118
  285SOL    HW2  855   1.949   1.916   2.712 -1.3383 -2.5874  1.3882
  286SOL     OW  856   1.439   1.956   1.215  0.5198 -0.1136  0.0081
  286SOL    HW1  857   1.531   1.940   1.174  2.4507 -2.3688  1.4995
  286SOL    HW2  858   1.449   1.976   1.313 -0.6434  2.5828 -3.8172
  287SOL     OW  859   1.637   0.251   1.465  0.0466 -0.5073 -0.2880
  287SOL    HW1  860   1.675   0.162   1.496  2.0671  0.3205 -2.7460
  287SOL    HW2  861   1.538   0.247   1.443  0.2211  0.6310  0.1174
  288SOL     OW  862   0.570   2.663   2.259  0.0793 -0.5449 -0.0053
  288SOL    HW1  863   0.536   2.765   2.257 -1.3393  1.0725  0.1509
  288SOL    HW2  864   0.489   2.598   2.254 -3.3929  0.0323  1.7533
  289SOL     OW  865   0.344   1.552   0.655 -0.6889  0.1491  0.3378
  289SOL    HW1  866   0.252   1.522   0.626  0.2551 -0.6298  0.3712
  289SOL    HW2  867   0.338   1.640   0.707 -0.9787 -1.0670 -0.7613
  290SOL     OW  868   1.075   1.918   1.919  0.4357  0.3847 -0.4695
  290SOL    HW1  869   1.160   1.969   1.887 -1.6444  0.8705  0.1646
  290SOL    HW2  870   1.017   1.977   1.976  2.5600 -2.9163 -3.9471
  291SOL     OW  871   1.958   0.084   0.622 -0.3854 -0.3048 -0.5785
  291SOL    HW1  872   1.893   0.060   0.694  0.8988 -1.1429 -2.4005
  291SOL    HW2  873   1.928   0.044   0.533  2.2038  1.8699 -0.7559
  292SOL     OW  874   0.307   0.339   1.265 -0.0022 -0.1919 -0.6946
  292SOL    HW1  875   0.269   0.245   1.290 -0.0107 -0.2967 -1.3678
  292SOL    HW2  876   0.284   0.405   1.342  0.7672 -3.0620 -2.2430
  293SOL     OW  877   2.458   1.903   0.775 -0.5656 -0.4686  0.4474
  293SOL    HW1  878   2.546   1.854   0.766  3.0482 -0.3322  1.4684
  293SOL    HW2  879   2.435   1.912   0.878  0.1268  2.4130  2.6328
  294SOL     OW  880   0.126   0.273   2.094 -0.0185 -0.2489 -0.4346
  294SOL    HW1  881   0.098   0.207   2.171 -0.5969 -0.0386  1.6220
  294SOL    HW2  882   0.224   0.283   2.099 -0.4756 -0.9291  1.0309
  295SOL     OW  883   0.960   1.311   0.488 -0.2052  0.7320 -0.1946
  295SOL    HW1  884   1.060   1.343   0.483  1.5521  3.2452  1.0719
  295SOL    HW2  885   0.943   1.230   0.429  1.3143 -1.6625  2.0471
  296SOL     OW  886   2.032   1.806   1.212 -0.3862  0.2504 -0.5727
  296SOL    HW1  887   2.027   1.744   1.131 -0.8484 -0.3014  0.0127
  296SOL    HW2  888   2.033   1.904   1.183 -0.1182 -0.6713  0.8664
  297SOL     OW  889   1.757   0.583   2.791 -0.0509  0.1246  0.8085
  297SOL    HW1  890   1.736   0.648   2.866  1.3793 -0.3697 -0.5394
  297SOL    HW2  891   1.685   0.567   2.721  2.3919  1.0498  2.7198
  298SOL     OW  892   1.255   0.025   2.528 -0.3053  0.2092 -0.8032
  298SOL    HW1  893   1.242   3.026   2.575  0.5086 -1.1923 -2.0546
  298SOL    HW2  894   1.351   0.054   2.523  1.0122  1.8538  0.7449
  299SOL     OW  895   0.893   0.284   1.960  0.1800 -0.2238  0.2796
  299SOL    HW1  896   0.936   0.253   2.042  0.5782 -1.7070 -1.8566
  299SOL    HW2  897   0.892   0.200   1.897  1.2757  1.5332 -0.9148
  300SOL     OW  898   2.630   0.167   1.575 -0.6045 -0.0724 -0.3394
  300SOL    HW1  899   2.716   0.158   1.632  1.3187  0.2580  0.3101
  300SOL    HW2  900   2.565   0.092   1.605  0.9106 -0.3232  0.2996
  301SOL     OW  901   2.080   0.845   1.870 -0.0197 -1.1435  0.1136
  301SOL    HW1  902   2.161   0.878   1.818  1.2358 -1.1889  0.9976
  301SOL    HW2  903   2.000   0.809   1.818 -1.9624  0.1884  0.3765
  302SOL     OW  904   0.750   2.955   0.103 -0.1009  0.0754  0.1957
  302SOL    HW1  905   0.659   2.990   0.127  0.6078 -0.0738 -1.0421
  302SOL    HW2  906   0.779   2.879   0.165 -0.1476  0.9740  1.4210
  303SOL     OW  907   1.969   1.909   1.824 -0.3790 -0.0036 -0.2072
  303SOL    HW1  908   1.901   1.911   1.751  0.0740 -0.2481 -0.1082
  303SOL    HW2  909   2.064   1.897   1.791 -0.2601 -0.3147  0.6127
  304SOL     OW  910   0.246   0.161   0.831  0.2470 -0.2830  0.3134
  304SOL    HW1  911   0.310   0.094   0.872 -0.1043 -0.9034  2.9654
  304SOL    HW2  912   0.267   0.259   0.844  0.4774  0.0020 -1.2473
  305SOL     OW  913   0.948   0.902   0.523 -0.0863 -0.3699  0.0919
  305SOL    HW1  914   0.948   0.955   0.433  2.8135  2.1037 -2.4817
  305SOL    HW2  915   0.858   0.873   0.568 -2.7623 -1.2247  3.1127
  306SOL     OW  916   0.572   1.392   3.049 -0.1538 -0.4113  0.4817
  306SOL    HW1  917   0.570   1.372   0.058 -1.1059  0.5462 -1.1692
  306SOL    HW2  918   0.495   1.455   3.030 -1.2771 -1.1472 -2.8271
  307SOL     OW  919   0.732   0.497   1.895  0.2231 -0.2044 -0.1745
  307SOL    HW1  920   0.713   0.506   1.792  0.2451 -1.3150 -1.5727
  307SOL    HW2  921   0.798   0.419   1.905  0.1988  1.1947 -1.6052
  308SOL     OW  922   0.599   0.172   1.059  0.3521 -0.1441  0.3935
  308SOL    HW1  923   0.587   0.271   1.032 -0.3604  0.6575  0.9395
  308SOL    HW2  924   0.691   0.156   1.098 -0.4060  3.3218  1.5674
  309SOL     OW  925   2.205   1.290   0.454  0.5126 -0.2606 -0.1865
  309SOL    HW1  926   2.212   1.390   0.468  0.4265 -0.3692  1.1371
  309SOL    HW2  927   2.114   1.268   0.417  0.9435  0.3073  2.7358
  310SOL     OW  928   1.020   1.318   3.082  0.2545  0.0331  0.5803
  310SOL    HW1  929   1.115   1.347   3.069 -1.2990 -0.5413  0.3513
  310SOL    HW2  930   0.961   1.395   0.024  1.2319  0.4136 -1.1078
  311SOL     OW  931   1.949   2.493   2.085 -0.4021  0.0466 -0.1810
  311SOL    HW1  932   1.954   2.398   2.046 -0.6330  0.6591 -1.2513
  311SOL    HW2  933   1.859   2.530   2.107 -0.9773  0.0658 -1.1102
  312SOL     OW  934   2.402   2.883   0.092 -0.2818 -0.1729  0.4606
  312SOL    HW1  935   2.336   2.964   0.067 -0.8337  2.5397  1.7089
  312SOL    HW2  936   2.368   2.823   0.168  2.2637 -1.8344 -1.3011
  313SOL     OW  937   0.558   0.501   2.959  0.0100  0.1072 -0.5416
  313SOL    HW1  938   0.580   0.565   3.032 -1.2411  0.2842 -0.2769
  313SOL    HW2  939   0.457   0.490   2.951 -2.5512  0.6234  1.3667
  314SOL     OW  940   2.669   1.443   2.772  0.2967 -0.0568  0.1230
  314SOL    HW1  941   2.639   1.451   2.868 -1.6951  2.0326  2.7546
  314SOL    HW2  942   2.706   1.527   2.728 -0.2645 -0.6194  1.7461
  315SOL     OW  943   1.688   0.818   2.015 -0.7925  0.2399 -0.0702
  315SOL    HW1  944   1.703   0.727   1.974  0.1373  0.7044 -1.7319
  315SOL    HW2  945   1.754   0.826   2.098  1.8547  2.4023  1.2176
  316SOL     OW  946   3.060   1.025   0.502  0.6272  0.3974 -0.4836
  316SOL    HW1  947   2.978   0.967   0.526 -1.2101 -0.5086 -1.4494
  316SOL    HW2  948   0.050   0.982   0.547  1.3596  0.0460 -0.4076
  317SOL     OW  949   0.519   0.025   0.168  0.3297  0.2558  0.4130
  317SOL    HW1  950   0.518   0.085   0.084 -1.1356 -3.6883  0.6572
  317SOL    HW2  951   0.578   0.070   0.231 -0.9567 -0.2293 -2.7744
  318SOL     OW  952   1.783   2.584   1.039 -0.2940  0.1790  0.7486
  318SOL    HW1  953   1.791   2.581   1.141 -1.3992 -0.1608  1.8829
  318SOL    HW2  954   1.854   2.521   1.001  1.9189 -0.3854  1.3151
  319SOL     OW  955   1.222   1.418   0.456 -0.0504 -0.3790 -0.3891
  319SOL    HW1  956   1.250   1.328   0.401 -0.1307 -1.5117 -0.0667
  319SOL    HW2  957   1.264   1.505   0.413 -1.1765  0.7638  0.1719
  320SOL     OW  958   0.755   2.110   1.204 -0.2697 -0.5243 -0.1012
  320SOL    HW1  959   0.707   2.186   1.153 -3.8131  1.6309 -1.1229
  320SOL    HW2  960   0.807   2.150   1.281  2.0528 -0.4298 -0.3690
  321SOL     OW  961   2.405   2.419   2.089 -0.6965 -0.7370 -0.0210
  321SOL    HW1  962   2.374   2.328   2.115 -1.8977  1.0211  1.0385
  321SOL    HW2  963   2.325   2.483   2.099  1.3422 -0.0991 -0.0728
  322SOL     OW  964   2.353   2.278   2.427  0.5787  0.2596 -0.0744
  322SOL    HW1  965   2.427   2.234   2.483  0.1393 -1.2276 -0.0300
  322SOL    HW2  966   2.342   2.375   2.452  1.9217 -0.3845 -0.6712
  323SOL     OW  967   2.422   0.852   0.812  0.2750 -0.0533 -0.1791
  323SOL    HW1  968   2.380   0.941   0.780  3.6950 -0.4805  3.0416
  323SOL    HW2  969   2.500   0.820   0.755 -1.8429 -0.5291  4.4171
  324SOL     OW  970   2.289   2.186   2.169 -0.2072 -0.2504  0.1300
  324SOL    HW1  971   2.310   2.186   2.269 -0.5954 -0.7129 -2.3262
  324SOL    HW2  972   2.317   2.097   2.129  0.2030  1.7128 -0.3257
  325SOL     OW  973   1.263   0.382   2.448  0.6628  0.4568  0.4407
  325SOL    HW1  974   1.162   0.394   2.431 -1.0299  1.1377 -1.7867
  325SOL    HW2  975   1.287   0.370   2.545 -0.2778 -2.2799 -3.9659
  326SOL     OW  976   2.628   2.373   1.179 -0.4705  0.2128 -0.2851
  326SOL    HW1  977   2.633   2.470   1.200 -2.4398 -0.0867  1.3989
  326SOL    HW2  978   2.535   2.344   1.195  0.7737  3.5098 -0.6174
  327SOL     OW  979   2.691   2.948   0.194 -0.4265 -0.0231 -0.4766
  327SOL    HW1  980   2.604   2.901   0.195  0.6823  1.3708 -0.4083
  327SOL    HW2  981   2.681   3.047   0.215 -1.7956 -1.7164  1.0747
  328SOL     OW  982   0.731   0.737   0.546 -0.3445 -0.6668 -0.1923
  328SOL    HW1  983   0.781   0.708   0.633  0.2084  0.1393  0.3334
  328SOL    HW2  984   0.637   0.770   0.577 -1.2983 -1.9807  1.2386
  329SOL     OW  985   1.958   0.786   1.305 -0.1854 -0.1091 -0.1188
  329SOL    HW1  986   1.923   0.804   1.214 -0.0066 -1.2454  1.3015
  329SOL    HW2  987   2.040   0.723   1.295  0.7057  0.7003 -0.3740
  330SOL     OW  988   0.918   0.627   0.380 -0.6153  0.1834  0.4393
  330SOL    HW1  989   0.973   0.674   0.309  0.2090 -0.8263  1.1347
  330SOL    HW2  990   0.856   0.696   0.425  1.4015  0.4823  0.6971
  331SOL     OW  991   0.514   1.688   1.797  0.1318 -0.2012 -0.7111
  331SOL    HW1  992   0.514   1.633   1.882 -0.1619  0.8696 -1.3950
  331SOL    HW2  993   0.596   1.674   1.739 -1.6992  0.1144 -1.4678
  332SOL     OW  994   1.900   2.260   1.899  0.2723 -0.1771 -0.3274
  332SOL    HW1  995   1.993   2.222   1.863  0.3075 -3.7495 -0.4983
  332SOL    HW2  996   1.831   2.245   1.826 -1.7097  1.8961  1.6393
  333SOL     OW  997   3.011   3.018   1.059  1.2565 -0.3221  0.2940
  333SOL    HW1  998   2.956   3.089   1.099  0.5100 -3.5339 -2.0865
  333SOL    HW2  999   2.968   2.928   1.090  1.7109  3.3340 -2.3465
  334SOL     OW 1000   0.041   1.689   0.815  0.1227 -0.1743 -0.2675
  334SOL    HW1 1001   3.089   1.682   0.722  1.6607  1.8064 -1.1992
  334SOL    HW2 1002   0.141   1.720   0.810  1.6568  1.8727 -0.4456
  335SOL     OW 1003   0.498   2.566   2.719  0.3922 -0.3331  0.4275
  335SOL    HW1 1004   0.566   2.562   2.791  2.0205 -0.4331  0.7465
  335SOL    HW2 1005   0.431   2.641   2.740  1.2846 -1.6807 -2.2704
  336SOL     OW 1006   0.181   2.602   2.064 -0.1756  0.1778  0.1168
  336SOL    HW1 1007   0.213   2.578   1.970 -2.6382 -1.2645 -0.0627
  336SOL    HW2 1008   0.159   2.701   2.076  1.7825 -0.1514  0.6009
  337SOL     OW 1009   1.384   2.088   2.186  0.2812 -0.4248 -0.1799
  337SOL    HW1 1010   1.436   2.162   2.145 -1.8756 -2.9103  1.2689
  337SOL    HW2 1011   1.438   2.041   2.260  2.5188  1.6643  2.9427
  338SOL     OW 1012   1.001   0.015   2.410 -0.0318 -0.3036 -0.3419
  338SOL    HW1 1013   0.966   3.014   2.394 -0.2677  2.4030 -0.6346
  338SOL    HW2 1014   1.097   0.015   2.451  1.8374  0.2866  0.7167
  339SOL     OW 1015   0.251   0.780   2.499 -0.5695 -0.2108 -0.6706
  339SOL    HW1 1016   0.177   0.789   2.430  1.9543  1.5838 -1.6032
  339SOL    HW2 1017   0.258   0.855   2.569  1.2178  1.7385 -0.1453
  340SOL     OW 1018   2.186   0.639   1.294 -0.2922  0.4895  0.1737
  340SOL    HW1 1019   2.213   0.660   1.200 -0.8169  0.2987  3.0803
  340SOL    HW2 1020   2.185   0.539   1.305  0.3276 -0.3942  1.9314
  341SOL     OW 1021   1.987   1.268   1.185  0.7519  0.3762 -0.4615
  341SOL    HW1 1022   1.999   1.291   1.285  0.3027  1.2146  2.1077
  341SOL    HW2 1023   2.071   1.219   1.155 -2.2491 -0.6014 -1.7593
  342SOL     OW 1024   2.148   2.935   2.673 -0.3505 -0.6560 -0.0195
  342SOL    HW1 1025   2.087   2.971   2.746  1.1826  1.5265 -3.0550
  342SOL    HW2 1026   2.139   2.833   2.673  1.1573 -0.1596  1.5957
  343SOL     OW 1027   2.999   2.499   1.120  0.0776 -0.2885  0.3568
  343SOL    HW1 1028   0.009   2.490   1.122 -1.5161 -1.9401 -0.8392
  343SOL    HW2 1029   2.956   2.491   1.212  0.7921  0.0481  0.3619
  344SOL     OW 1030   2.239   2.922   0.961 -0.0048  0.3722  0.5647
  344SOL    HW1 1031   2.241   3.020   0.938  0.1055 -1.7966 -1.6585
  344SOL    HW2 1032   2.164   2.883   0.905 -0.8406  0.5616  0.3567
  345SOL     OW 1033   2.614   2.381   0.420  0.0174 -0.5132 -0.5238
  345SOL    HW1 1034   2.704   2.406   0.375 -1.1140  1.6181  0.2915
  345SOL    HW2 1035   2.569   2.451   0.482 -2.8350  1.1675  1.8577
  346SOL     OW 1036   1.576   2.120   1.854  0.0113  0.0273 -0.2679
  346SOL    HW1 1037   1.598   2.023   1.883  0.6271 -2.0409 -2.0141
  346SOL    HW2 1038   1.556   2.131   1.756 -0.7619  0.3620 -2.8180
  347SOL     OW 1039   1.295   2.058   1.867 -0.3157 -0.3099 -0.1753
  347SOL    HW1 1040   1.341   2.011   1.941  1.8172 -0.7918  0.8555
  347SOL    HW2 1041   1.367   2.098   1.804  1.3208 -0.4740  0.4591
  348SOL     OW 1042   0.750   1.674   1.673  0.3109  0.0942 -0.9015
  348SOL    HW1 1043   0.704   1.688   1.580 -0.3321  1.8855  2.1438
  348SOL    HW2 1044   0.803   1.761   1.690  0.2315  0.8692  1.0241
  349SOL     OW 1045   1.765   1.424   1.440  0.3750  0.3123 -0.1765
  349SOL    HW1 1046   1.813   1.464   1.519  3.0681 -3.2839  0.6912
  349SOL    HW2 1047   1.678   1.470   1.429  2.7253 -1.0191  1.6983
  350SOL     OW 1048   2.297   2.392   0.598 -0.1139  0.0579  0.4810
  350SOL    HW1 1049   2.379   2.455   0.617  0.0297  0.2370 -0.2951
  350SOL    HW2 1050   2.271   2.388   0.500  3.5247 -1.2504  1.8024
  351SOL     OW 1051   0.085   2.901   1.684 -0.4005  0.7370 -0.1024
  351SOL    HW1 1052   0.166   2.839   1.700 -0.7673 -1.8128 -0.0016
  351SOL    HW2 1053   0.063   2.901   1.585 -0.8940 -0.0562 -0.3537
  352SOL     OW 1054   0.570   1.177   0.603 -0.2275  0.5389 -0.2844
  352SOL    HW1 1055   0.644   1.121   0.643 -2.2174 -0.8242  0.3705
  352SOL    HW2 1056   0.490   1.115   0.586  0.7120 -2.4637  1.0304
  353SOL     OW 1057   1.130   1.786   2.667  0.3159  0.0718  0.1746
  353SOL    HW1 1058   1.134   1.876   2.719 -1.6166  1.6952 -0.0859
  353SOL    HW2 1059   1.058   1.726   2.706 -1.1457 -1.0774 -0.4477
  354SOL     OW 1060   1.845   2.763   1.887 -0.3749  0.3685  0.1628
  354SOL    HW1 1061   1.847   2.756   1.988 -0.3476 -0.9156 -0.6763
  354SOL    HW2 1062   1.801   2.685   1.846 -0.4743  2.2711 -0.3394
  355SOL     OW 1063   2.112   1.174   0.047  0.3365  0.0986  0.2220
  355SOL    HW1 1064   2.144   1.264   0.023 -1.2787 -0.1467  0.7058
  355SOL    HW2 1065   2.008   1.177   0.070 -1.6232  3.5517  0.9399
  356SOL     OW 1066   0.396   2.078   1.041 -0.1769  0.4633  0.0518
  356SOL    HW1 1067   0.302   2.120   1.044  0.3092 -0.8006 -0.9127
  356SOL    HW2 1068   0.401   2.000   1.109 -0.2406 -1.2472  1.7420
  357SOL     OW 1069   2.940   2.876   1.841  0.3442 -0.2168 -0.3229
  357SOL    HW1 1070   2.885   2.793   1.820  0.0809 -0.5786  1.4578
  357SOL    HW2 1071   3.020   2.878   1.783 -0.4232  0.4094 -0.6813
  358SOL     OW 1072   2.480   1.703   1.629 -0.1877 -0.5826 -0.0654
  358SOL    HW1 1073   2.434   1.733   1.543  0.6795 -0.8393 -2.4124
  358SOL    HW2 1074   2.556   1.637   1.612  1.5301  0.3457 -0.6544
  359SOL     OW 1075   2.032   2.791   2.357  0.1423 -0.1740 -0.0234
  359SOL    HW1 1076   1.992   2.699   2.380 -1.7213 -0.2678 -1.7029
  359SOL    HW2 1077   2.129   2.792   2.332 -0.2421  0.0780  0.9910
  360SOL     OW 1078   1.009   2.959   0.813 -0.0710  0.0535 -0.2555
  360SOL    HW1 1079   0.971   3.053   0.818  1.6514  0.5335  0.4520
  360SOL    HW2 1080   1.073   2.931   0.887  0.4557  2.9764 -0.3999
  361SOL     OW 1081   1.866   0.345   0.559  0.0929  0.5056  0.4643
  361SOL    HW1 1082   1.881   0.246   0.571 -0.9365 -0.6782  1.1740
  361SOL    HW2 1083   1.869   0.395   0.648 -0.8978 -0.7455 -0.3886
  362SOL     OW 1084   1.454   0.834   1.160  0.3624  0.1449  1.3887
  362SOL    HW1 1085   1.436   0.930   1.193 -2.1944  0.3051  1.8816
  362SOL    HW2 1086   1.378   0.812   1.090 -1.9985 -3.7226 -3.0159
  363SOL     OW 1087   1.897   1.585   2.117 -0.1950  0.0198 -0.1563
  363SOL    HW1 1088   1.833   1.538   2.177 -3.1532 -0.2486  2.1975
  363SOL    HW2 1089   1.992   1.550   2.127 -0.2945 -0.6498 -0.3929
  364SOL     OW 1090   0.574   0.808   1.198 -0.9313  0.4012 -0.5601
  364SOL    HW1 1091   0.604   0.797   1.098 -0.7108 -1.9801 -1.3308
  364SOL    HW2 1092   0.541   0.716   1.227  1.1945 -1.0571 -2.3120
  365SOL     OW 1093   0.418   0.296   2.424 -0.0511 -0.0688  0.4947
  365SOL    HW1 1094   0.393   0.394   2.398  2.4735  2.2913  2.3733
  365SOL    HW2 1095   0.496   0.263   2.369  0.4485  1.9928  2.5057
  366SOL     OW 1096   2.250   1.852   2.769  0.2497  0.1294 -0.5439
  366SOL    HW1 1097   2.317   1.780   2.766  2.4005  1.6026 -0.5525
  366SOL    HW2 1098   2.292   1.943   2.740  0.8338  2.2549 -1.2995
  367SOL     OW 1099   2.739   2.577   2.856 -0.5427 -0.0249 -0.3936
  367SOL    HW1 1100   2.729   2.609   2.955  0.5075 -0.8220  0.7213
  367SOL    HW2 1101   2.663   2.604   2.796  2.3454  0.6557 -0.4594
  368SOL     OW 1102   0.072   1.462   0.976  0.2511 -0.0734 -0.0376
  368SOL    HW1 1103   0.058   1.372   0.925 -0.9490 -3.0618 -1.7473
  368SOL    HW2 1104   0.037   1.539   0.925  0.1461 -3.5996 -0.2118
  369SOL     OW 1105   0.573   2.970   2.267  0.2361  0.1762 -0.2142
  369SOL    HW1 1106   0.582   2.998   2.366  0.6643 -1.1835 -1.2440
  369SOL    HW2 1107   0.655   2.997   2.215 -2.1328  0.5005 -2.4935
  370SOL     OW 1108   2.961   0.418   0.571  0.2727  0.1632  0.1396
  370SOL    HW1 1109   2.958   0.503   0.516 -1.1303  0.1801  0.4316
  370SOL    HW2 1110   2.866   0.408   0.612  1.7113  1.7740  3.4827
  371SOL     OW 1111   1.326   2.471   1.469 -0.4482 -0.3822 -0.2141
  371SOL    HW1 1112   1.284   2.519   1.388 -0.9846  1.9852  1.8074
  371SOL    HW2 1113   1.270   2.389   1.496 -0.7523 -0.0388  0.1615
  372SOL     OW 1114   2.707   0.233   2.411  0.3119  0.4911 -0.7176
  372SOL    HW1 1115   2.630   0.187   2.458 -0.2978 -0.1273 -1.0559
  372SOL    HW2 1116   2.788   0.230   2.473 -0.4933  0.0242 -0.5385
  373SOL     OW 1117   0.246   2.225   0.613  0.2237 -0.6931  0.1362
  373SOL    HW1 1118   0.287   2.311   0.643  2.9673 -2.0125 -1.5479
  373SOL    HW2 1119   0.151   2.217   0.647 -0.6998 -1.0289  0.2214
  374SOL     OW 1120   0.251   2.998   2.550  0.3436  0.4945  0.4472
  374SOL    HW1 1121   0.316   3.071   2.578 -1.7920  0.8709 -0.6441
  374SOL    HW2 1122   0.266   2.982   2.450 -0.5187  1.6150 -0.0696
  375SOL     OW 1123   0.431   0.075   2.639 -0.4370  0.4654  0.1765
  375SOL    HW1 1124   0.435   0.068   2.742  0.3578  1.1256  0.1241
  375SOL    HW2 1125   0.461   0.165   2.602  2.1738  3.2829 -0.3286
  376SOL     OW 1126   2.760   2.122   1.735  0.1489  0.5480  0.0764
  376SOL    HW1 1127   2.852   2.075   1.745  2.0402  1.5276 -2.4930
  376SOL    HW2 1128   2.751   2.158   1.644  1.0927 -1.9025  3.3291
  377SOL     OW 1129   1.239   2.902   2.680  0.2342  0.4789 -0.0660
  377SOL    HW1 1130   1.177   2.933   2.757 -2.5254 -2.1077  2.7574
  377SOL    HW2 1131   1.320   2.853   2.717 -1.1290  0.7226 -0.4635
  378SOL     OW 1132   2.919   0.207   2.578 -0.5807 -0.4364 -0.2006
  378SOL    HW1 1133   2.963   0.297   2.570  0.9856 -1.1812  1.4360
  378SOL    HW2 1134   2.983   0.136   2.612 -0.0456 -1.1609 -1.7566
  379SOL     OW 1135   0.653   1.096   0.283 -0.1538  0.4408 -0.3778
  379SOL    HW1 1136   0.619   1.067   0.191  2.8366 -3.2089  0.1941
  379SOL    HW2 1137   0.589   1.063   0.353  0.6742 -0.0976  3.4636
  380SOL     OW 1138   0.205   1.561   1.725 -0.3408  0.0355  0.2500
  380SOL    HW1 1139   0.251   1.650   1.719  0.2891  0.3184  1.2179
  380SOL    HW2 1140   0.226   1.505   1.646  1.6853  1.1686  1.1804
  381SOL     OW 1141   0.207   1.159   2.102  0.6133 -0.3883 -0.1224
  381SOL    HW1 1142   0.258   1.084   2.063 -1.8129  1.9743  0.4814
  381SOL    HW2 1143   0.180   1.232   2.034  2.9459  0.3222 -1.7484
  382SOL     OW 1144   2.253   1.947   0.400  0.1520  0.2669  0.0017
  382SOL    HW1 1145   2.356   1.949   0.392 -1.3358 -0.7092 -0.7540
  382SOL    HW2 1146   2.228   1.920   0.495 -1.0671 -0.1327 -0.9869
  383SOL     OW 1147   0.508   1.940   0.058 -0.1210  0.0627  0.4880
  383SOL    HW1 1148   0.498   1.844   0.089 -1.1592  0.6566 -0.4598
  383SOL    HW2 1149   0.592   1.949   3.090 -1.4479 -0.2813  2.1456
  384SOL     OW 1150   0.751   2.003   2.323  0.2943  0.0213 -0.6015
  384SOL    HW1 1151   0.825   1.947   2.374  2.1924  0.6447  2.0505
  384SOL    HW2 1152   0.791   2.094   2.294 -0.8266  1.9233  3.5685
  385SOL     OW 1153   2.198   1.934   0.667 -0.1166 -0.4310 -0.2838
  385SOL    HW1 1154   2.295   1.907   0.689 -1.6110 -0.9771 -0.1391
  385SOL    HW2 1155   2.188   2.033   0.693 -1.1493 -0.4155 -2.5401
  386SOL     OW 1156   2.258   1.012   1.281 -0.0359  0.0709  0.0216
  386SOL    HW1 1157   2.282   0.964   1.192  0.5090 -2.2085 -1.0058
  386SOL    HW2 1158   2.336   1.057   1.334  0.7604 -0.5685  2.8168
  387SOL     OW 1159   2.830   1.253   2.173 -0.2254  0.3092  0.3510
  387SOL    HW1 1160   2.749   1.300   2.207  0.5706 -1.6470  0.2831
  387SOL    HW2 1161   2.910   1.316   2.157 -0.8480  0.8328  1.0105
  388SOL     OW 1162   0.581   1.564   2.211  0.1047  0.1356  0.4151
  388SOL    HW1 1163   0.571   1.663   2.226  1.5522 -0.9606  2.8912
  388SOL    HW2 1164   0.502   1.518   2.166  0.7658 -1.3383 -0.1737
  389SOL     OW 1165   0.813   1.003   2.001  0.3208  0.0804 -0.1742
  389SOL    HW1 1166   0.756   0.917   1.974 -2.3790 -1.4827 -3.1072
  389SOL    HW2 1167   0.913   0.990   1.983  0.0261 -0.3039  0.6693
  390SOL     OW 1168   2.422   3.016   0.711  0.0491 -0.0405 -0.0142
  390SOL    HW1 1169   2.329   3.000   0.671  1.4506 -1.3313 -2.6536
  390SOL    HW2 1170   2.425   3.058   0.805  0.7431  1.6151  0.0227
  391SOL     OW 1171   1.658   1.765   1.094  0.1697 -0.3578 -0.0033
  391SOL    HW1 1172   1.730   1.693   1.102 -2.1257  0.2842 -0.1758
  391SOL    HW2 1173   1.617   1.753   1.007  2.1467 -1.8469  2.5366
  392SOL     OW 1174   2.730   2.675   0.060 -0.0465  0.0444  0.2000
  392SOL    HW1 1175   2.779   2.745   0.006  0.4382 -2.1974  0.5713
  392SOL    HW2 1176   2.761   2.679   0.158 -0.6033 -1.6395 -0.9920
  393SOL     OW 1177   1.758   2.369   2.951  0.6600  0.4293 -0.2883
  393SOL    HW1 1178   1.770   2.424   2.869 -3.5328  1.1395  0.2636
  393SOL    HW2 1179   1.842   2.320   2.976 -0.3617  3.2874  0.3449
  394SOL     OW 1180   3.047   2.554   2.506 -0.0445 -0.0112 -0.2300
  394SOL    HW1 1181   3.007   2.591   2.592  0.6739  0.7992 -1.6161
  394SOL    HW2 1182   0.033   2.489   2.523  0.5735 -2.4410 -1.9979
  395SOL     OW 1183   0.114   0.250   0.575  0.0855 -0.1817  0.1317
  395SOL    HW1 1184   0.029   0.302   0.575  0.6002 -1.9145  1.6761
  395SOL    HW2 1185   0.152   0.243   0.670  1.8769 -3.2204 -0.8241
  396SOL     OW 1186   1.825   0.621   0.510  0.6977 -0.3858 -0.1118
  396SOL    HW1 1187   1.794   0.647   0.605 -1.5225  1.4936 -0.9802
  396SOL    HW2 1188   1.875   0.530   0.505 -0.1155  1.7617  1.0664
  397SOL     OW 1189   0.328   0.584   2.108 -0.6633  0.5358  0.3727
  397SOL    HW1 1190   0.363   0.553   2.020 -0.4692 -2.6863 -0.9917
  397SOL    HW2 1191   0.227   0.589   2.105 -1.5416 -0.5537  0.0469
  398SOL     OW 1192   1.032   2.965   0.343 -0.3506 -0.1212 -0.1970
  398SOL    HW1 1193   1.107   2.996   0.289 -1.2722  1.1121  0.4009
  398SOL    HW2 1194   0.987   3.038   0.402  0.4399  0.3087 -0.0091
  399SOL     OW 1195   2.131   0.335   1.934 -0.5179  0.3363 -0.7685
  399SOL    HW1 1196   2.129   0.292   2.027  0.1893 -0.7600  2.3424
  399SOL    HW2 1197   2.155   0.432   1.937  0.4856  3.0795  0.9728
  400SOL     OW 1198   0.923   2.121   2.580  0.5049  0.5835  0.0201
  400SOL    HW1 1199   0.904   2.113   2.678 -0.7716 -0.4056 -2.4799
  400SOL    HW2 1200   0.903   2.213   2.543 -0.6583 -4.1360 -0.0157
  401SOL     OW 1201   0.558   0.958   2.656  0.9175  0.1039 -0.1464
  401SOL    HW1 1202   0.567   0.858   2.677  1.6439 -0.6418 -2.0980
  401SOL    HW2 1203   0.460   0.994   2.656  0.3269  1.1342 -2.8241
  402SOL     OW 1204   0.365   2.530   0.511 -0.0939  0.1761 -0.3420
  402SOL    HW1 1205   0.414   2.528   0.424 -1.8309 -0.0800  1.4895
  402SOL    HW2 1206   0.418   2.479   0.579 -1.3872  0.6588 -3.2165
  403SOL     OW 1207   0.084   1.153   1.847  0.1921  0.3783  0.0664
  403SOL    HW1 1208   0.178   1.134   1.808 -1.7246  0.1523  0.1137
  403SOL    HW2 1209   0.009   1.123   1.786  0.0113  0.0498 -0.1706
  404SOL     OW 1210   2.830   2.416   2.396 -0.0060 -0.1826  0.1278
  404SOL    HW1 1211   2.755   2.448   2.461 -5.4592  0.7060 -0.2771
  404SOL    HW2 1212   2.916   2.464   2.415 -4.8837 -1.4197  1.8820
  405SOL     OW 1213   0.084   0.354   1.758  0.1738  0.1978 -0.2469
  405SOL    HW1 1214   0.130   0.296   1.821 -0.2812  1.2116 -2.4778
  405SOL    HW2 1215   0.012   0.295   1.710 -0.2892 -2.0684 -0.2538
  406SOL     OW 1216   1.253   1.442   2.729 -0.0313 -0.1979 -0.1107
  406SOL    HW1 1217   1.335   1.505   2.738 -0.6772  0.1814 -0.7590
  406SOL    HW2 1218   1.229   1.447   2.631 -0.5453  0.0611 -2.1228
  407SOL     OW 1219   1.509   0.859   2.575 -0.0137  0.2406 -0.3095
  407SOL    HW1 1220   1.465   0.880   2.661  3.9830 -0.1542 -3.1822
  407SOL    HW2 1221   1.585   0.921   2.564 -2.7468 -3.4629 -1.9542
  408SOL     OW 1222   0.327   2.886   2.290  0.7954 -0.3106 -0.0323
  408SOL    HW1 1223   0.407   2.938   2.244  1.5663  2.7571 -1.2275
  408SOL    HW2 1224   0.242   2.897   2.231 -1.5208 -1.5021 -0.7618
  409SOL     OW 1225   0.126   2.163   1.059  0.2782  0.0460  0.0357
  409SOL    HW1 1226   0.097   2.100   0.982 -2.1447  1.2612  1.0206
  409SOL    HW2 1227   0.047   2.162   1.125  0.4757  1.7222 -0.1849
  410SOL     OW 1228   2.661   1.676   0.327  0.3044 -0.0099 -0.0386
  410SOL    HW1 1229   2.695   1.609   0.394  2.2061 -0.2213  0.0182
  410SOL    HW2 1230   2.737   1.699   0.264 -3.7527 -0.6914  2.9706
  411SOL     OW 1231   2.808   0.106   1.145 -0.3636  0.2076 -0.2206
  411SOL    HW1 1232   2.732   0.137   1.202  2.6454 -2.2280  0.4275
  411SOL    HW2 1233   2.791   0.124   1.048 -0.8410 -2.2893 -0.8110
  412SOL     OW 1234   1.992   0.501   1.567  0.3815  0.3343  0.3532
  412SOL    HW1 1235   1.958   0.413   1.600  1.3368  0.8970  0.6677
  412SOL    HW2 1236   2.086   0.514   1.601  1.5626  1.2116 -0.8870
  413SOL     OW 1237   0.463   0.474   1.897  0.6282  0.4149 -0.6595
  413SOL    HW1 1238   0.433   0.442   1.805 -0.2977 -1.0113  3.1572
  413SOL    HW2 1239   0.566   0.486   1.898  0.1325 -0.6843  0.0027
  414SOL     OW 1240   2.971   1.341   2.738 -0.2989 -0.0461  0.3232
  414SOL    HW1 1241   3.051   1.396   2.702  0.9982  0.8822  0.1753
  414SOL    HW2 1242   2.968   1.354   2.837 -0.0360  1.0207 -0.0539
  415SOL     OW 1243   0.811   2.814   2.944  0.4785 -0.0916  0.8454
  415SOL    HW1 1244   0.891   2.752   2.960 -1.4720 -0.6009 -3.4620
  415SOL    HW2 1245   0.790   2.874   3.027 -0.3199  3.6036  2.1864
  416SOL     OW 1246   1.440   0.166   2.357  0.0986  0.2158  0.1085
  416SOL    HW1 1247   1.418   0.082   2.310  3.0098 -3.7550  0.5354
  416SOL    HW2 1248   1.359   0.231   2.370 -2.4849  1.3253 -1.4589
  417SOL     OW 1249   0.296   0.618   0.682  0.4711 -0.1235 -0.1548
  417SOL    HW1 1250   0.368   0.550   0.670  0.1811  1.7674  1.6747
  417SOL    HW2 1251   0.220   0.578   0.732  1.7856  0.3633  1.0268
  418SOL     OW 1252   2.583   0.127   0.575  0.1518  0.6532 -0.2624
  418SOL    HW1 1253   2.532   0.052   0.624  0.0703 -2.2734  2.6072
  418SOL    HW2 1254   2.543   0.221   0.599  3.0205 -1.0692 -0.8253
  419SOL     OW 1255   0.242   2.772   0.514 -0.9938  0.3179  0.4782
  419SOL    HW1 1256   0.295   2.831   0.452  1.6572  0.1890  0.9577
  419SOL    HW2 1257   0.292   2.682   0.522 -0.3865  1.9527  1.3718
  420SOL     OW 1258   0.311   1.081   1.660  0.3742  0.5409  0.3827
  420SOL    HW1 1259   0.317   0.985   1.634 -0.8043  2.1090 -0.4145
  420SOL    HW2 1260   0.396   1.109   1.712 -0.6738 -1.4038  0.8642
  421SOL     OW 1261   1.971   2.358   0.938  0.5412  0.2776 -0.4609
  421SOL    HW1 1262   2.046   2.409   0.898  1.3469 -1.8903  2.5708
  421SOL    HW2 1263   1.916   2.313   0.865  1.1319  2.5124  1.6526
  422SOL     OW 1264   0.159   0.523   1.436  0.6258 -0.1983 -0.4034
  422SOL    HW1 1265   0.150   0.558   1.341  2.1863  0.2687  0.0156
  422SOL    HW2 1266   0.228   0.577   1.487  2.8284 -0.4344 -0.6656
  423SOL     OW 1267   0.934   1.523   1.820 -0.2385 -1.0957  0.0473
  423SOL    HW1 1268   0.871   1.547   1.746 -0.5132 -3.6556 -0.1694
  423SOL    HW2 1269   0.897   1.532   1.909  0.3319  0.6243 -2.6052
  424SOL     OW 1270   1.804   2.209   0.409  0.7459 -0.3211 -0.2955
  424SOL    HW1 1271   1.861   2.236   0.326 -2.0132  2.3258  0.9948
  424SOL    HW2 1272   1.729   2.151   0.388  1.3240  3.7993  0.3466
  425SOL     OW 1273   2.770   3.041   1.976  0.2491  0.6444 -0.3093
  425SOL    HW1 1274   2.826   0.021   2.021 -2.3734 -1.2062 -0.8855
  425SOL    HW2 1275   2.833   2.980   1.921 -0.5519 -3.1104 -1.0719
  426SOL     OW 1276   2.961   2.665   2.746  0.1167  0.0379 -0.9538
  426SOL    HW1 1277   3.040   2.674   2.809  1.4021 -1.3984  1.6939
  426SOL    HW2 1278   2.879   2.632   2.798  0.3844 -0.6929  0.0330
  427SOL     OW 1279   1.118   0.489   0.037  0.7122  0.0126  0.0404
  427SOL    HW1 1280   1.050   0.426   0.087 -2.1665 -0.6609 -1.9858
  427SOL    HW2 1281   1.137   0.448   3.035 -2.0721  0.3450  1.2705
  428SOL     OW 1282   2.858   0.540   1.242 -0.4772  0.4368  0.1880
  428SOL    HW1 1283   2.942   0.482   1.212  0.5898  0.2996  0.6208
  428SOL    HW2 1284   2.829   0.524   1.334  0.0934  1.2049 -0.6617
  429SOL     OW 1285   1.994   3.062   1.182  0.3272 -0.0988  0.3045
  429SOL    HW1 1286   1.926   3.009   1.126  0.2077 -1.1298 -0.1053
  429SOL    HW2 1287   2.049   2.999   1.238  1.0455 -0.8969  1.2718
  430SOL     OW 1288   0.901   1.385   2.545  0.1139 -0.0718  0.3819
  430SOL    HW1 1289   0.908   1.460   2.608 -0.2825 -1.5709 -3.0985
  430SOL    HW2 1290   0.822   1.396   2.479  0.4868 -2.0288 -1.2622
  431SOL     OW 1291   2.726   1.688   1.175  0.5323 -0.2292  0.5424
  431SOL    HW1 1292   2.636   1.638   1.175  1.7042  0.9161 -2.7973
  431SOL    HW2 1293   2.709   1.787   1.194 -3.0152  0.5617  0.4023
  432SOL     OW 1294   1.264   2.702   2.284  0.0815  0.4478  0.1951
  432SOL    HW1 1295   1.283   2.754   2.194 -0.0058  1.6407  0.9664
  432SOL    HW2 1296   1.305   2.611   2.280 -1.2134  1.4041  1.2577
  433SOL     OW 1297   1.611   0.448   2.160  0.0649  0.0526 -0.4653
  433SOL    HW1 1298   1.701   0.443   2.205  1.2600  0.1840  1.5405
  433SOL    HW2 1299   1.615   0.494   2.070  0.5088 -0.0286 -1.1848
  434SOL     OW 1300   0.508   2.298   2.253 -0.1756  0.4185  0.0572
  434SOL    HW1 1301   0.446   2.380   2.234 -2.7329  3.5071  2.0379
  434SOL    HW2 1302   0.495   2.259   2.346  1.2108  0.9971 -0.7480
  435SOL     OW 1303   0.250   0.114   0.401 -0.1270 -0.0091  0.0579
  435SOL    HW1 1304   0.234   0.020   0.436  0.5033 -1.9479  0.7829
  435SOL    HW2 1305   0.197   0.182   0.464 -2.6577 -0.8246  1.7459
  436SOL     OW 1306   0.490   0.802   2.165  0.4932 -0.1635  0.0787
  436SOL    HW1 1307   0.568   0.803   2.228 -1.9251  2.5543 -0.2616
  436SOL    HW2 1308   0.449   0.708   2.150  0.5869 -2.6282  1.0633
  437SOL     OW 1309   0.688   2.557   2.486  0.0877  0.1266  0.0343
  437SOL    HW1 1310   0.665   2.599   2.397  1.4758 -2.0215  0.6543
  437SOL    HW2 1311   0.621   2.586   2.561  0.8697  0.6390  2.9035
  438SOL     OW 1312   1.054   1.175   1.070 -0.7627  0.7603  0.2641
  438SOL    HW1 1313   1.141   1.222   1.091  1.5495 -1.0808 -0.2000
  438SOL    HW2 1314   1.056   1.149   0.965  0.3925 -0.3570 -1.9056
  439SOL     OW 1315   2.676   1.456   2.366 -0.4785 -0.2365  0.5009
  439SOL    HW1 1316   2.761   1.488   2.412 -0.0267 -0.0341 -1.5362
  439SOL    HW2 1317   2.608   1.423   2.433  3.5695 -3.6937 -1.1821
  440SOL     OW 1318   0.030   0.756   2.807 -0.1857 -0.3449  0.4837
  440SOL    HW1 1319   3.085   0.823   2.733 -0.5810  0.2851 -0.5200
  440SOL    HW2 1320   3.072   0.669   2.804  0.2749 -2.3520  1.3087
  441SOL     OW 1321   1.197   2.263   1.567  0.1166 -0.2150  0.5004
  441SOL    HW1 1322   1.163   2.172   1.533 -1.1357 -1.9606  0.8402
  441SOL    HW2 1323   1.155   2.282   1.658 -0.7243 -2.3033 -3.8395
  442SOL     OW 1324   1.921   1.392   0.932 -0.8621 -0.2664 -0.7969
  442SOL    HW1 1325   1.917   1.351   1.028 -1.4808  1.6064 -0.0477
  442SOL    HW2 1326   1.910   1.329   0.854  1.0024 -1.0900  1.5679
  443SOL     OW 1327   2.446   2.222   2.937 -0.1248 -0.1667 -0.3042
  443SOL    HW1 1328   2.429   2.224   3.037  0.9111 -1.0556 -0.9021
  443SOL    HW2 1329   2.428   2.307   2.894 -1.0117 -5.3198  2.3574
  444SOL     OW 1330   1.719   1.520   2.716  0.4341  0.2059  0.1961
  444SOL    HW1 1331   1.801   1.482   2.679 -0.5905  0.7771 -2.2408
  444SOL    HW2 1332   1.740   1.601   2.776 -2.7998  0.1477 -2.0745
  445SOL     OW 1333   0.059   2.200   2.060 -0.4884  0.0566 -0.8051
  445SOL    HW1 1334   0.050   2.235   1.967 -1.2177  0.5233 -0.6428
  445SOL    HW2 1335   0.022   2.263   2.129 -0.9339 -3.1167  2.7061
  446SOL     OW 1336   1.079   0.915   1.654  0.0359 -0.4223  0.0450
  446SOL    HW1 1337   1.156   0.924   1.722 -2.4077  0.0708  1.7587
  446SOL    HW2 1338   1.003   0.858   1.688 -1.2308 -2.8574  0.5318
  447SOL     OW 1339   1.069   1.118   0.795  0.2271  0.0625 -0.1017
  447SOL    HW1 1340   1.115   1.092   0.708 -1.2865  1.1307 -0.7678
  447SOL    HW2 1341   1.020   1.206   0.784  1.8847  0.8211 -2.8331
  448SOL     OW 1342   0.726   1.119   2.506 -0.1144  0.3267 -0.3569
  448SOL    HW1 1343   0.734   1.194   2.571  1.1231  1.0386  0.6174
  448SOL    HW2 1344   0.636   1.077   2.515  0.9297  2.1205 -0.8497
  449SOL     OW 1345   0.080   1.918   2.525  0.0741 -0.0980 -0.5564
  449SOL    HW1 1346   0.081   1.968   2.434  2.0894  3.0036 -2.1342
  449SOL    HW2 1347   0.110   1.818   2.512 -0.7247 -1.8089 -0.8000
  450SOL     OW 1348   2.190   1.550   2.053 -0.2682 -0.1380 -0.1865
  450SOL    HW1 1349   2.230   1.461   2.089 -0.8525 -0.7526  0.2902
  450SOL    HW2 1350   2.229   1.628   2.106  1.3748 -1.4821 -3.4027
  451SOL     OW 1351   2.698   1.583   1.523 -0.3470 -0.2216 -0.0845
  451SOL    HW1 1352   2.719   1.679   1.541 -1.8153 -1.6725  0.9864
  451SOL    HW2 1353   2.759   1.542   1.454  0.2930 -0.4157  0.4991
  452SOL     OW 1354   0.666   1.243   1.365  0.1298 -0.5729 -0.1144
  452SOL    HW1 1355   0.688   1.142   1.365  2.0035  1.2572 -0.7207
  452SOL    HW2 1356   0.670   1.284   1.460 -2.7569 -1.2328  0.7459
  453SOL     OW 1357   0.660   1.618   0.833  0.0367  0.0496  0.3420
  453SOL    HW1 1358   0.700   1.657   0.748 -1.5100 -0.3484  0.1190
  453SOL    HW2 1359   0.673   1.517   0.833  2.3596 -1.7504 -2.8467
  454SOL     OW 1360   1.084   1.716   0.351 -0.2935 -0.4650  0.4604
  454SOL    HW1 1361   1.141   1.653   0.297 -0.7981  1.5977 -3.6469
  454SOL    HW2 1362   1.004   1.664   0.391 -0.8853 -0.5864  2.0569
  455SOL     OW 1363   1.586   0.589   1.127 -0.6416 -0.4162  0.0585
  455SOL    HW1 1364   1.656   0.574   1.196  0.4569  0.0685 -0.3890
  455SOL    HW2 1365   1.543   0.681   1.138  0.6734  0.4583  1.4795
  456SOL     OW 1366   1.852   2.862   1.015  0.2170 -0.3499  0.6554
  456SOL    HW1 1367   1.812   2.770   1.017 -1.7416  0.4279 -0.6416
  456SOL    HW2 1368   1.906   2.880   0.934  0.8907  0.2602  0.2656
  457SOL     OW 1369   2.000   0.662   2.724  0.2063 -0.1009 -0.4735
  457SOL    HW1 1370   1.911   0.639   2.772 -2.5841  0.0517  2.3882
  457SOL    HW2 1371   2.020   0.580   2.663  0.7909  1.8543 -0.0614
  458SOL     OW 1372   2.550   0.700   2.608  0.3483  0.4874  0.2902
  458SOL    HW1 1373   2.528   0.790   2.649  0.1661 -2.0928 -1.4232
  458SOL    HW2 1374   2.560   0.625   2.675 -0.6661 -2.7775  0.4970
  459SOL     OW 1375   2.556   1.413   2.134 -0.2540  0.3944 -0.1847
  459SOL    HW1 1376   2.559   1.512   2.097  0.9994  1.4145 -2.1639
  459SOL    HW2 1377   2.594   1.410   2.230 -4.5459 -1.2657  1.7644
  460SOL     OW 1378   0.743   0.669   0.032  0.5010 -0.6546  0.0312
  460SOL    HW1 1379   0.759   0.764   3.090  0.3435 -1.2102  1.1875
  460SOL    HW2 1380   0.828   0.613   0.045 -1.6505  0.6406 -1.8928
  461SOL     OW 1381   0.295   2.334   0.041 -0.3981  0.1481  0.1917
  461SOL    HW1 1382   0.196   2.364   0.058 -0.4528 -0.1754  2.1160
  461SOL    HW2 1383   0.307   2.245   0.087  1.3118 -1.4694  3.0311
  462SOL     OW 1384   0.432   2.959   1.984 -0.4369 -0.3547 -0.0693
  462SOL    HW1 1385   0.384   3.035   1.937 -1.8818 -0.6713 -0.2168
  462SOL    HW2 1386   0.496   2.995   2.054 -0.1417 -0.8871 -0.7566
  463SOL     OW 1387   1.524   2.337   2.037 -0.0336 -0.4043 -0.6222
  463SOL    HW1 1388   1.542   2.267   1.962  1.0467  0.8725  0.4142
  463SOL    HW2 1389   1.552   2.428   2.004  1.3239 -1.8146 -1.5823
  464SOL     OW 1390   2.594   2.635   1.252  0.2941  0.5531  0.8512
  464SOL    HW1 1391   2.670   2.695   1.268 -0.0060 -2.1104 -2.7657
  464SOL    HW2 1392   2.533   2.677   1.181  0.4659  1.5466  0.6875
  465SOL     OW 1393   0.244   0.081   1.405 -0.0669  0.2810 -0.2611
  465SOL    HW1 1394   0.160   0.139   1.390  3.3663 -0.8823 -0.4656
  465SOL    HW2 1395   0.289   0.100   1.498  0.5885 -2.0603 -0.9356
  466SOL     OW 1396   1.173   2.401   2.388 -0.0297  0.2676 -1.0913
  466SOL    HW1 1397   1.264   2.409   2.337  1.1646  0.7839  2.0748
  466SOL    HW2 1398   1.189   2.326   2.461  0.3867  0.1099  1.7110
  467SOL     OW 1399   3.039   2.249   0.447  0.0537 -0.1262 -0.0238
  467SOL    HW1 1400   2.979   2.308   0.388  0.8424  1.5889  0.2675
  467SOL    HW2 1401   3.032   2.150   0.431 -0.2177  1.0728  0.8516
  468SOL     OW 1402   2.057   1.989   3.040  0.5591  0.0088  0.3373
  468SOL    HW1 1403   2.021   1.951   2.952 -0.3484  2.0246 -0.4218
  468SOL    HW2 1404   2.149   1.953   3.067 -2.6428  0.6389 -0.7632
  469SOL     OW 1405   1.218   2.220   0.750  0.0124 -0.2499  0.1719
  469SOL    HW1 1406   1.208   2.154   0.832 -0.8468  0.1734 -0.6156
  469SOL    HW2 1407   1.298   2.186   0.695  0.7153  0.4290 -1.6583
  470SOL     OW 1408   1.879   0.804   1.010  0.0299  0.5977 -0.3349
  470SOL    HW1 1409   1.847   0.885   1.056  1.1459  0.0993 -3.0879
  470SOL    HW2 1410   1.808   0.769   0.944 -2.6521  1.5549 -0.2966
  471SOL     OW 1411   0.586   2.244   0.040 -0.1852  0.2376 -0.6538
  471SOL    HW1 1412   0.520   2.292   0.099 -0.3672  1.6498 -0.9422
  471SOL    HW2 1413   0.551   2.154   0.007 -0.9957  2.0185 -0.4760
  472SOL     OW 1414   2.425   1.651   2.736  0.4651 -0.2002  0.1019
  472SOL    HW1 1415   2.478   1.725   2.701 -0.9627 -0.3351  1.8912
  472SOL    HW2 1416   2.412   1.583   2.664 -1.7466 -1.4746  2.8399
  473SOL     OW 1417   1.438   1.940   0.758 -0.4219 -0.6331 -0.2012
  473SOL    HW1 1418   1.420   2.002   0.678 -0.1828  0.1072  0.6215
  473SOL    HW2 1419   1.469   1.996   0.842  1.3694  1.5297  0.5913
  474SOL     OW 1420   2.802   0.127   0.881 -0.0874  0.4252 -0.1929
  474SOL    HW1 1421   2.894   0.089   0.853 -1.2526  0.4873 -0.2320
  474SOL    HW2 1422   2.786   0.217   0.830 -0.8867  1.8159  0.2648
  475SOL     OW 1423   2.250   2.783   1.545 -0.0061 -0.1861 -0.1238
  475SOL    HW1 1424   2.312   2.754   1.621 -3.5048 -0.5735 -0.5947
  475SOL    HW2 1425   2.247   2.716   1.473  1.3206  2.5482  1.5299
  476SOL     OW 1426   0.506   0.439   0.681 -0.0233 -0.5809 -0.1406
  476SOL    HW1 1427   0.516   0.361   0.613  0.5305 -1.1461  0.4354
  476SOL    HW2 1428   0.597   0.472   0.700 -0.5426 -0.0730  3.2735
  477SOL     OW 1429   1.165   2.235   1.201 -0.2855 -0.2644 -0.4146
  477SOL    HW1 1430   1.136   2.334   1.210  0.1208  1.7201  2.3138
  477SOL    HW2 1431   1.118   2.176   1.270  0.3995 -0.8747  2.3377
  478SOL     OW 1432   1.258   2.451   2.823  0.4016 -0.0045  0.8703
  478SOL    HW1 1433   1.159   2.470   2.797  0.7040  0.6937 -0.2093
  478SOL    HW2 1434   1.327   2.427   2.749  2.5311 -0.8395 -0.1461
  479SOL     OW 1435   2.710   0.960   1.915 -0.6123  0.0460  0.7783
  479SOL    HW1 1436   2.719   1.066   1.910  2.2920  3.2593 -2.1993
  479SOL    HW2 1437   2.805   0.921   1.909  2.5846 -1.2568  0.4837
  480SOL     OW 1438   2.885   2.356   2.903  0.1178  0.7498 -0.2677
  480SOL    HW1 1439   2.926   2.324   2.809  2.2241 -0.8253  1.9535
  480SOL    HW2 1440   2.821   2.431   2.894 -0.4212 -3.0741  1.0118
  481SOL     OW 1441   1.583   0.037   2.003 -0.3354 -0.1202  0.3476
  481SOL    HW1 1442   1.673   0.060   2.048  1.8824  0.8410  2.2742
  481SOL    HW2 1443   1.517   0.114   2.016  1.5054 -1.9567  2.1352
  482SOL     OW 1444   1.584   2.206   2.836 -0.0425  0.1447  0.3791
  482SOL    HW1 1445   1.650   2.267   2.882 -2.3837 -1.4063  1.6686
  482SOL    HW2 1446   1.619   2.115   2.809 -1.6157 -1.4016 -1.0213
  483SOL     OW 1447   1.015   2.545   2.706  0.5547  0.0592  0.1494
  483SOL    HW1 1448   0.967   2.482   2.644 -0.4758  1.5022 -2.8795
  483SOL    HW2 1449   1.058   2.620   2.649 -1.7321 -1.0837 -0.0826
  484SOL     OW 1450   3.047   2.779   1.430 -0.2298 -0.4921 -0.0977
  484SOL    HW1 1451   3.084   2.688   1.459 -1.3427 -0.2721  3.0538
  484SOL    HW2 1452   0.033   2.837   1.393 -2.0974 -0.4380 -2.7355
  485SOL     OW 1453   2.303   0.700   0.451 -0.3392 -0.2194 -0.0337
  485SOL    HW1 1454   2.233   0.677   0.383 -0.9432 -0.4054  0.7848
  485SOL    HW2 1455   2.317   0.802   0.445 -1.6259  0.2086 -0.3324
  486SOL     OW 1456   2.282   2.752   2.268  0.1876  0.6293  0.1725
  486SOL    HW1 1457   2.339   2.828   2.232 -0.9742 -1.3180 -0.9803
  486SOL    HW2 1458   2.263   2.683   2.195 -1.5106  1.0437 -1.5957
  487SOL     OW 1459   1.150   0.730   0.652 -0.5646  0.1205 -1.1356
  487SOL    HW1 1460   1.071   0.768   0.594 -1.9840  0.5808 -1.5029
  487SOL    HW2 1461   1.227   0.706   0.591 -0.5765 -1.8229 -0.2231
  488SOL     OW 1462   2.623   2.895   2.500  0.0512  0.1170 -0.2039
  488SOL    HW1 1463   2.618   2.842   2.416 -0.3001  4.2980  2.7928
  488SOL    HW2 1464   2.540   2.889   2.557  0.5793  0.2426 -1.9242
  489SOL     OW 1465   1.678   3.059   0.220 -0.5469  0.2954  0.8564
  489SOL    HW1 1466   1.623   2.978   0.246  0.8391  1.6677  0.0656
  489SOL    HW2 1467   1.767   3.067   0.272 -1.6764  1.1463 -3.4256
  490SOL     OW 1468   1.801   0.319   2.899 -0.0199  0.1580  0.1359
  490SOL    HW1 1469   1.808   0.309   3.005  0.4107  0.1517  1.6262
  490SOL    HW2 1470   1.797   0.419   2.875 -0.6295 -0.3999  0.6772
  491SOL     OW 1471   0.635   2.902   1.047 -0.4925  0.2824 -0.8423
  491SOL    HW1 1472   0.580   2.822   1.072 -0.5262  1.2174 -4.7993
  491SOL    HW2 1473   0.581   2.970   1.002  1.4067 -2.3701  1.3634
  492SOL     OW 1474   1.610   2.935   0.727 -0.4654  0.7334  0.2563
  492SOL    HW1 1475   1.697   2.877   0.714  2.0286  0.0406  1.1060
  492SOL    HW2 1476   1.548   2.934   0.648  0.0979  0.6219  0.7058
  493SOL     OW 1477   1.195   2.254   2.981  0.2288 -0.1430  1.0612
  493SOL    HW1 1478   1.271   2.191   2.997 -1.7039  0.1915 -0.6643
  493SOL    HW2 1479   1.219   2.315   2.901 -0.4785 -1.5694 -0.2197
  494SOL     OW 1480   0.789   1.060   0.835  0.2545 -0.6074  0.0395
  494SOL    HW1 1481   0.767   1.155   0.869 -0.2964 -2.2535 -1.6734
  494SOL    HW2 1482   0.887   1.046   0.809 -0.0535 -1.1495  2.4325
  495SOL     OW 1483   2.735   0.434   1.477 -0.5026  0.1078 -0.2635
  495SOL    HW1 1484   2.742   0.335   1.500 -1.6477 -0.6682  0.0013
  495SOL    HW2 1485   2.731   0.496   1.559 -1.8645 -2.0766 -1.2350
  496SOL     OW 1486   2.272   2.562   2.447  0.2077 -0.3405  0.2296
  496SOL    HW1 1487   2.288   2.639   2.384 -1.2588  1.9617 -2.6175
  496SOL    HW2 1488   2.187   2.517   2.413  3.8681 -0.5719 -0.9661
  497SOL     OW 1489   1.640   1.216   2.851 -0.3154 -0.1838  0.2290
  497SOL    HW1 1490   1.722   1.220   2.791 -2.5301 -0.4320 -0.6793
  497SOL    HW2 1491   1.649   1.289   2.920 -0.4465 -1.3475  0.8495
  498SOL     OW 1492   0.937   1.963   1.026 -0.2108 -0.1269 -0.3951
  498SOL    HW1 1493   1.031   2.000   1.028  2.7122  0.7294 -1.6488
  498SOL    HW2 1494   0.865   2.001   1.092 -4.1824  2.3846  1.0086
  499SOL     OW 1495   0.317   1.767   0.796 -0.3313 -0.1537  0.3792
  499SOL    HW1 1496   0.334   1.854   0.743 -1.8494  1.9875 -0.1000
  499SOL    HW2 1497   0.369   1.751   0.888  0.5387 -0.1909  3.2744
  500SOL     OW 1498   1.268   2.587   0.299 -0.1833  0.3032 -0.7552
  500SOL    HW1 1499   1.169   2.614   0.285  0.8244  1.5535  0.4558
  500SOL    HW2 1500   1.288   2.616   0.397 -1.8137  0.2606  4.2435
  501SOL     OW 1501   1.894   2.639   0.713  0.2979  0.4984  0.4523
  501SOL    HW1 1502   1.811   2.610   0.760  3.6142 -0.5191 -0.5579
  501SOL    HW2 1503   1.881   2.654   0.613 -1.6148 -0.5036 -1.5432
  502SOL     OW 1504   0.092   0.419   1.029 -0.3384 -0.0876  0.1582
  502SOL    HW1 1505   0.035   0.358   1.082 -1.0766  3.5063  0.3168
  502SOL    HW2 1506   0.175   0.373   0.990 -2.0940  1.4371 -2.1336
  503SOL     OW 1507   2.129   3.084   1.781 -0.3896  0.1357 -0.1664
  503SOL    HW1 1508   2.088   0.084   1.758 -0.9183  2.4860 -0.1875
  503SOL    HW2 1509   2.215   3.069   1.732 -1.5230 -0.2911  2.7234
  504SOL     OW 1510   1.934   1.058   1.951 -0.3235 -0.5200 -0.3402
  504SOL    HW1 1511   1.995   0.973   1.932 -0.9880  0.7771 -0.7694
  504SOL    HW2 1512   1.859   1.055   1.877 -2.0205  1.9114  1.8617
  505SOL     OW 1513   1.617   2.884   2.479  0.4669 -0.2881  0.2634
  505SOL    HW1 1514   1.708   2.917   2.511 -2.2137  1.1330 -0.2040
  505SOL    HW2 1515   1.577   2.949   2.411 -1.2920  0.4042  0.8341
  506SOL     OW 1516   0.333   0.664   1.617 -0.1833 -0.0123  0.6508
  506SOL    HW1 1517   0.258   0.672   1.686 -2.8999 -1.6875 -1.8340
  506SOL    HW2 1518   0.398   0.742   1.628  0.2759  2.2470 -0.0271
  507SOL     OW 1519   1.775   0.384   0.085 -0.1746  0.0229  0.2313
  507SOL    HW1 1520   1.706   0.329   0.131  0.0418  2.7182  0.1672
  507SOL    HW2 1521   1.869   0.364   0.119 -2.9440 -2.6855 -2.5602
  508SOL     OW 1522   2.116   0.597   1.992  0.2927  0.4004  0.0927
  508SOL    HW1 1523   2.034   0.597   2.057 -0.3748  2.2690 -0.4742
  508SOL    HW2 1524   2.115   0.688   1.949  0.0971 -4.1624  3.4031
  509SOL     OW 1525   0.699   1.714   2.550 -0.0824  0.1407 -0.0068
  509SOL    HW1 1526   0.604   1.752   2.576 -3.0188  1.0818 -1.7170
  509SOL    HW2 1527   0.757   1.782   2.502  0.0511  1.0550 -0.5372
  510SOL     OW 1528   2.914   0.815   0.644 -0.1883 -0.5634 -0.1353
  510SOL    HW1 1529   2.941   0.751   0.570  1.0150  2.2174 -2.0770
  510SOL    HW2 1530   2.950   0.793   0.737  1.0858 -1.4947  1.0930
  511SOL     OW 1531   1.803   1.501   1.169 -0.0941 -1.1331 -0.0147
  511SOL    HW1 1532   1.778   1.459   1.258  1.5217 -0.3919  2.8231
  511SOL    HW2 1533   1.898   1.484   1.144  2.0923  0.5811 -1.6540
  512SOL     OW 1534   0.515   1.946   0.426 -0.0647  0.1442  0.0818
  512SOL    HW1 1535   0.507   2.047   0.409 -1.5035 -1.4980  0.2205
  512SOL    HW2 1536   0.586   1.897   0.373  1.8755  1.6453  0.7515
  513SOL     OW 1537   0.591   2.517   0.893  0.1220 -0.0862  0.2876
  513SOL    HW1 1538   0.536   2.578   0.957 -1.1499 -0.0049 -0.1875
  513SOL    HW2 1539   0.693   2.530   0.897  0.0373  2.8200  0.4511
  514SOL     OW 1540   0.661   2.180   0.661 -0.3062 -0.1835 -0.3095
  514SOL    HW1 1541   0.619   2.100   0.706 -1.7588 -0.2659 -1.7338
  514SOL    HW2 1542   0.719   2.154   0.581 -1.8361 -1.0443 -0.5316
  515SOL     OW 1543   0.101   3.033   0.051 -0.4720 -0.1687  0.0584
  515SOL    HW1 1544   0.179   2.987   0.092 -0.8862  0.0072 -1.9948
  515SOL    HW2 1545   0.017   2.988   0.083  0.1476  0.1845 -1.1045
  516SOL     OW 1546   1.987   0.146   1.429  0.1011  0.1079 -0.1599
  516SOL    HW1 1547   1.941   0.232   1.397 -1.2924 -0.8343 -0.0222
  516SOL    HW2 1548   2.023   0.089   1.354 -0.7965 -0.6679  0.9417
  517SOL     OW 1549   1.662   1.752   0.710  0.0618  0.8331  0.8738
  517SOL    HW1 1550   1.621   1.835   0.746  3.7069 -1.8779 -0.6324
  517SOL    HW2 1551   1.759   1.761   0.733 -2.1291 -0.4675 -0.3606
  518SOL     OW 1552   1.477   2.980   0.943 -0.4404 -0.7240  0.0247
  518SOL    HW1 1553   1.380   2.988   0.932 -0.3325 -1.9166  0.0067
  518SOL    HW2 1554   1.517   2.965   0.852 -0.3050 -2.2693  0.7297
  519SOL     OW 1555   2.971   2.228   0.024 -0.3735  0.8932  0.5942
  519SOL    HW1 1556   3.034   2.290   0.068 -2.8320  0.3894 -2.0017
  519SOL    HW2 1557   2.943   2.267   3.027 -0.0655  0.6390  0.2582
  520SOL     OW 1558   1.802   2.287   2.417 -0.3862 -0.0807 -0.4693
  520SOL    HW1 1559   1.861   2.211   2.437 -0.2405  0.4466 -2.3775
  520SOL    HW2 1560   1.784   2.281   2.317  2.8120 -2.5036  2.0947
  521SOL     OW 1561   0.942   2.919   2.135  0.1538 -0.1030 -0.1319
  521SOL    HW1 1562   0.857   2.978   2.127 -1.2006 -0.0665 -1.7695
  521SOL    HW2 1563   0.955   2.884   2.228 -0.5234  0.2565 -3.6145
  522SOL     OW 1564   0.348   2.519   2.241  0.3031  0.1223  0.3160
  522SOL    HW1 1565   0.280   2.539   2.169  0.2438  0.4176  1.3542
  522SOL    HW2 1566   0.312   2.542   2.331  1.0300  0.9251  2.7030
  523SOL     OW 1567   1.062   2.250   1.813 -0.2977 -0.1292  0.0861
  523SOL    HW1 1568   0.961   2.240   1.821  2.1143 -0.2032 -0.8479
  523SOL    HW2 1569   1.113   2.216   1.895  2.3153  2.5514  1.0463
  524SOL     OW 1570   2.549   2.269   0.161  0.4493 -0.3992  0.2342
  524SOL    HW1 1571   2.520   2.170   0.154  0.4171 -3.3836  0.7976
  524SOL    HW2 1572   2.575   2.301   0.255  1.9322  2.7722  1.7200
  525SOL     OW 1573   2.780   0.691   2.912 -0.0140  0.1519  0.5727
  525SOL    HW1 1574   2.828   0.746   2.982 -0.4940 -2.2254 -0.8161
  525SOL    HW2 1575   2.849   0.633   2.865 -2.4603  0.7325  0.8937
  526SOL     OW 1576   0.333   2.887   0.909  0.0184  0.4768  0.1108
  526SOL    HW1 1577   0.251   2.894   0.847 -2.8447  0.9124  3.6015
  526SOL    HW2 1578   0.399   2.962   0.904  0.0191  0.5459 -0.1611
  527SOL     OW 1579   2.982   1.294   0.577 -0.5885 -0.1033 -1.1423
  527SOL    HW1 1580   3.003   1.196   0.559  0.1321  0.6981  0.8843
  527SOL    HW2 1581   2.883   1.309   0.553 -0.6946 -0.3511  0.9012
  528SOL     OW 1582   0.725   0.759   2.296  0.6805  0.4376  0.0282
  528SOL    HW1 1583   0.686   0.712   2.379 -1.2236  1.1216  0.5654
  528SOL    HW2 1584   0.805   0.820   2.321  1.4638  0.6783 -0.0906
  529SOL     OW 1585   0.832   1.496   0.122 -0.4356  0.0527  0.1025
  529SOL    HW1 1586   0.855   1.562   0.190  0.3263 -3.9376 -1.9759
  529SOL    HW2 1587   0.742   1.453   0.149  2.0904 -2.4861 -2.4700
  530SOL     OW 1588   1.078   0.876   1.971  0.6028 -0.8002 -0.4156
  530SOL    HW1 1589   1.162   0.900   1.913  0.4638 -0.2352 -0.9781
  530SOL    HW2 1590   1.092   0.900   2.069 -1.8107 -0.3194 -1.7644
  531SOL     OW 1591   1.015   2.375   0.039  0.3209  0.1572  0.1489
  531SOL    HW1 1592   1.087   2.323   3.075  1.6567 -2.2139  0.0788
  531SOL    HW2 1593   1.040   2.387   0.136  1.2210  0.3251 -1.9868
  532SOL     OW 1594   2.385   0.963   2.642  0.0730  0.3429 -0.4933
  532SOL    HW1 1595   2.446   1.030   2.602  0.9603 -0.0117 -0.5053
  532SOL    HW2 1596   2.362   0.983   2.741 -1.8659  2.1392  0.1191
  533SOL     OW 1597   2.932   0.192   1.931 -0.6156  0.4709  0.4655
  533SOL    HW1 1598   3.000   0.231   1.996  0.2301 -0.0888 -0.7364
  533SOL    HW2 1599   2.837   0.221   1.962 -0.1206 -1.1146 -1.5391
  534SOL     OW 1600   2.327   0.052   0.370  0.3796 -0.1797 -0.1521
  534SOL    HW1 1601   2.422   0.034   0.339 -0.7804 -1.0196 -2.1120
  534SOL    HW2 1602   2.299   0.151   0.354  1.1129  0.9487  1.2434
  535SOL     OW 1603   0.429   0.203   3.072  0.5140  0.1762  0.8383
  535SOL    HW1 1604   0.424   0.268   0.057  2.5752 -0.8796  3.0657
  535SOL    HW2 1605   0.339   0.171   3.043  1.2933  0.8488 -1.1312
  536SOL     OW 1606   0.853   1.896   1.750 -0.4476  0.0523  0.0011
  536SOL    HW1 1607   0.945   1.895   1.797  0.6559 -0.1011 -0.5172
  536SOL    HW2 1608   0.812   1.989   1.756 -1.9288  3.5503  1.3880
  537SOL     OW 1609   3.073   2.523   1.547  0.0200 -0.4427  0.3407
  537SOL    HW1 1610   2.994   2.560   1.606 -1.6216 -3.2159 -2.3265
  537SOL    HW2 1611   0.047   2.474   1.605 -0.9723  2.1858  1.3411
  538SOL     OW 1612   0.658   2.310   0.321  0.6774  0.1224  0.1469
  538SOL    HW1 1613   0.731   2.250   0.355  2.0321 -1.7849 -1.7418
  538SOL    HW2 1614   0.561   2.270   0.339 -0.8388 -2.7183 -0.6455
  539SOL     OW 1615   2.193   1.174   2.308  0.4044  0.0192 -0.6186
  539SOL    HW1 1616   2.198   1.199   2.408  0.9637 -0.6915  3.2167
  539SOL    HW2 1617   2.241   1.087   2.283 -4.1923 -3.1745  0.2080
  540SOL     OW 1618   1.866   0.809   3.005  0.2887  0.6001  0.0126
  540SOL    HW1 1619   1.955   0.844   2.970  0.2901  1.3723 -0.0442
  540SOL    HW2 1620   1.844   0.849   0.007  0.6201 -1.8395  1.9402
  541SOL     OW 1621   0.609   0.606   2.490  0.3201  0.2701 -0.3523
  541SOL    HW1 1622   0.507   0.611   2.473 -3.4750  0.9401  2.5164
  541SOL    HW2 1623   0.619   0.610   2.588  2.5944  0.7123 -0.3869
  542SOL     OW 1624   1.467   2.635   1.906  0.5278 -0.0911 -0.2966
  542SOL    HW1 1625   1.384   2.574   1.918 -3.0196 -1.0020  0.4280
  542SOL    HW2 1626   1.508   2.629   1.815 -1.1106 -2.7211  1.6938
  543SOL     OW 1627   0.740   2.754   0.287  1.2848 -0.3254  0.1222
  543SOL    HW1 1628   0.680   2.679   0.267  1.3235  2.9518 -1.9078
  543SOL    HW2 1629   0.717   2.788   0.380  3.5200 -0.2182 -2.1391
  544SOL     OW 1630   2.749   1.899   2.431  0.1719  0.3956  0.3935
  544SOL    HW1 1631   2.737   1.985   2.376 -0.0838 -0.7298  1.4329
  544SOL    HW2 1632   2.847   1.880   2.441 -3.0129  2.1421 -1.0962
  545SOL     OW 1633   1.314   1.518   1.967 -0.5766  0.2667  0.2451
  545SOL    HW1 1634   1.269   1.446   2.026  2.7212  0.8127 -0.0019
  545SOL    HW2 1635   1.250   1.574   1.916  3.2479 -2.8210  0.2782
  546SOL     OW 1636   0.149   0.269   2.446 -0.3877 -0.6825 -0.3423
  546SOL    HW1 1637   0.246   0.274   2.418  1.1545 -0.9402 -2.1266
  546SOL    HW2 1638   0.104   0.183   2.404 -2.0815  0.4785 -3.3833
  547SOL     OW 1639   1.276   0.211   0.858 -0.1298  0.5942  0.0624
  547SOL    HW1 1640   1.296   0.291   0.919  1.5486  0.3557  1.2919
  547SOL    HW2 1641   1.362   0.180   0.813 -0.0252  1.0404 -0.3416
  548SOL     OW 1642   1.402   2.078   3.006  0.6613 -0.1836 -0.0285
  548SOL    HW1 1643   1.413   2.129   0.001  1.2702  0.8293  0.6483
  548SOL    HW2 1644   1.468   2.118   2.935  0.4873 -0.4360  1.6239
  549SOL     OW 1645   2.276   0.956   0.082 -0.3160  0.0318 -0.3775
  549SOL    HW1 1646   2.230   1.044   0.073  2.4851 -1.9553  1.8925
  549SOL    HW2 1647   2.363   0.970   0.130  1.9242  0.8994 -0.6846
  550SOL     OW 1648   2.575   2.165   0.744 -0.1181 -0.0926 -0.0173
  550SOL    HW1 1649   2.549   2.230   0.816  3.1574  0.6495  0.8102
  550SOL    HW2 1650   2.515   2.082   0.747 -0.9030 -2.4396  1.1892
  551SOL     OW 1651   0.709   0.556   1.307  0.2422 -0.2950 -0.1834
  551SOL    HW1 1652   0.799   0.543   1.272 -2.4213  0.4951  1.8001
  551SOL    HW2 1653   0.711   0.616   1.389  3.1885  0.2828 -0.7037
  552SOL     OW 1654   3.011   1.654   2.803 -0.2273 -0.7726  0.5687
  552SOL    HW1 1655   3.064   1.596   2.733  0.4964 -1.5282 -1.0388
  552SOL    HW2 1656   3.078   1.708   2.862 -0.4847  1.7137  1.3557
  553SOL     OW 1657   2.515   2.577   0.603  0.1264  0.2778  0.1452
  553SOL    HW1 1658   2.601   2.587   0.659  2.1649  0.3262  0.5133
  553SOL    HW2 1659   2.492   2.671   0.569 -0.1790 -1.9456  0.1924
  554SOL     OW 1660   2.134   1.069   1.536  0.6225  0.0893 -1.2142
  554SOL    HW1 1661   2.158   1.051   1.439 -0.4751  0.5276  1.6578
  554SOL    HW2 1662   2.126   1.172   1.541 -0.3476  1.7049 -3.9240
  555SOL     OW 1663   1.146   2.213   2.155  0.6313 -0.0536 -0.4764
  555SOL    HW1 1664   1.235   2.164   2.158  0.2473 -0.8144  0.6076
  555SOL    HW2 1665   1.127   2.272   2.238 -0.7124  1.9221  1.3370
  556SOL     OW 1666   0.876   1.185   1.751  0.1211  0.1049 -0.0998
  556SOL    HW1 1667   0.974   1.177   1.715  0.8418 -0.3793 -0.8303
  556SOL    HW2 1668   0.876   1.193   1.854  0.7324 -2.8960 -1.1233
  557SOL     OW 1669   1.380   0.212   1.419  0.4754 -0.3385 -0.2373
  557SOL    HW1 1670   1.345   0.285   1.358 -2.0552  0.9182 -1.7386
  557SOL    HW2 1671   1.334   0.219   1.513  0.7242  0.6628 -0.2381
  558SOL     OW 1672   0.649   0.224   2.229 -0.1217  0.1697 -0.0136
  558SOL    HW1 1673   0.685   0.199   2.324  1.3796 -1.4601  0.7386
  558SOL    HW2 1674   0.727   0.260   2.178 -0.6134 -1.2938 -0.5316
  559SOL     OW 1675   1.555   2.829   0.282  0.1894  0.2143  0.6182
  559SOL    HW1 1676   1.501   2.784   0.205 -0.8370 -0.8128  0.2598
  559SOL    HW2 1677   1.615   2.755   0.327  0.5759 -1.4004  0.1759
  560SOL     OW 1678   1.520   2.195   0.170 -0.0704  0.2111 -0.3822
  560SOL    HW1 1679   1.571   2.111   0.197 -1.9729  3.6164 -1.5254
  560SOL    HW2 1680   1.577   2.273   0.147 -0.2959 -1.0720  1.4542
  561SOL     OW 1681   1.536   0.155   0.743 -0.3428 -0.4601  0.1273
  561SOL    HW1 1682   1.609   0.088   0.754 -1.2407  1.0106 -2.3499
  561SOL    HW2 1683   1.560   0.233   0.677  0.7435 -3.0461 -0.8887
  562SOL     OW 1684   0.373   0.956   1.954  0.0079 -0.2491  0.5476
  562SOL    HW1 1685   0.439   1.011   1.897 -1.2361  2.1253 -1.1777
  562SOL    HW2 1686   0.422   0.902   2.023 -0.2930 -3.0941 -1.4029
  563SOL     OW 1687   1.441   2.340   2.657  0.2930  0.0291  0.0702
  563SOL    HW1 1688   1.374   2.277   2.606  0.4542 -3.0233  0.8545
  563SOL    HW2 1689   1.482   2.288   2.735  0.1228  1.0410  1.8306
  564SOL     OW 1690   2.830   0.554   0.949 -0.1539 -0.0061 -0.0401
  564SOL    HW1 1691   2.837   0.534   1.050  0.2804  0.0710 -1.6180
  564SOL    HW2 1692   2.903   0.625   0.922  3.4409 -1.5577 -2.7704
  565SOL     OW 1693   1.037   1.044   0.078  0.2703 -1.0078  0.5015
  565SOL    HW1 1694   1.023   1.133   0.028  2.5061 -0.1375 -0.5391
  565SOL    HW2 1695   1.135   1.011   0.066  1.2643 -1.7309  2.0945
  566SOL     OW 1696   2.325   2.630   3.051 -0.2092 -0.0322 -0.3303
  566SOL    HW1 1697   2.390   2.568   0.012  2.4106 -1.5216 -1.0702
  566SOL    HW2 1698   2.344   2.728   3.055 -3.3725 -2.7738  1.0846
  567SOL     OW 1699   1.480   1.080   1.359 -0.3338 -0.2005  0.4339
  567SOL    HW1 1700   1.455   1.132   1.445  0.2154  1.3797  0.0382
  567SOL    HW2 1701   1.582   1.090   1.338  0.2287  1.1681 -0.9391
  568SOL     OW 1702   1.403   1.220   2.699  0.2898 -0.3191 -0.5807
  568SOL    HW1 1703   1.363   1.304   2.724 -2.0727 -1.0161 -0.0155
  568SOL    HW2 1704   1.496   1.213   2.747  2.7671  1.8884  1.1609
  569SOL     OW 1705   1.979   1.776   0.743  0.2391 -0.3271 -0.5394
  569SOL    HW1 1706   2.067   1.819   0.713 -1.7232 -0.5557 -1.7998
  569SOL    HW2 1707   1.916   1.849   0.788 -3.5183  1.9836 -1.3295
  570SOL     OW 1708   2.739   2.174   2.352  0.5124 -0.5302  0.4542
  570SOL    HW1 1709   2.741   2.156   2.250  0.2318 -1.4671  0.4865
  570SOL    HW2 1710   2.770   2.274   2.365 -1.3048 -0.4508  0.2647
  571SOL     OW 1711   2.688   1.783   1.806 -0.0870  0.0468  0.3143
  571SOL    HW1 1712   2.602   1.748   1.770  0.0803 -1.2237  0.1212
  571SOL    HW2 1713   2.733   1.849   1.741 -1.8465  0.6309  0.3177
  572SOL     OW 1714   1.468   2.631   0.120 -0.2285  0.0533  0.3789
  572SOL    HW1 1715   1.397   2.599   0.189 -1.3480  0.3683 -0.6505
  572SOL    HW2 1716   1.425   2.610   0.029  1.0215  0.5924  1.4852
  573SOL     OW 1717   1.760   1.920   1.280  0.2181  0.3964 -0.7735
  573SOL    HW1 1718   1.839   1.894   1.339 -0.9080  0.9416  1.6617
  573SOL    HW2 1719   1.738   1.851   1.210  0.8438  1.4256  1.5273
  574SOL     OW 1720   1.077   2.996   1.306  0.3968  0.3719 -0.4412
  574SOL    HW1 1721   1.021   3.068   1.348 -0.7646 -2.5649 -0.7631
  574SOL    HW2 1722   1.174   3.014   1.324 -3.1205  1.5144 -0.7714
  575SOL     OW 1723   0.808   0.669   0.815 -0.1590  0.2014 -0.1881
  575SOL    HW1 1724   0.884   0.669   0.882 -2.1356  1.8556  0.7362
  575SOL    HW2 1725   0.739   0.737   0.848 -2.8535  2.1396 -0.5014
  576SOL     OW 1726   2.563   0.477   1.265 -0.0407 -0.0765  0.2568
  576SOL    HW1 1727   2.570   0.552   1.200 -0.6789 -4.4611 -3.0809
  576SOL    HW2 1728   2.630   0.469   1.342 -2.3419 -2.0059  1.6653
  577SOL     OW 1729   2.335   0.437   2.634 -0.1450  0.6170 -0.2261
  577SOL    HW1 1730   2.403   0.454   2.709 -1.4505  0.8075 -0.1758
  577SOL    HW2 1731   2.357   0.482   2.540 -0.8071 -0.8153 -0.7647
  578SOL     OW 1732   1.892   1.847   2.082  0.5886  0.2326 -0.3733
  578SOL    HW1 1733   1.896   1.746   2.077  0.5233  2.9243 -1.2159
  578SOL    HW2 1734   1.945   1.891   2.008  1.5526 -0.9346  0.5370
  579SOL     OW 1735   0.944   1.592   1.277 -0.0026  0.0333 -0.4996
  579SOL    HW1 1736   0.949   1.591   1.174  1.0118 -1.4012  0.0335
  579SOL    HW2 1737   0.978   1.502   1.314  1.4612 -3.4996 -0.5569
  580SOL     OW 1738   1.389   2.652   2.940  0.3373 -0.3498  0.4972
  580SOL    HW1 1739   1.335   2.573   2.906  0.2790  1.2303 -0.2874
  580SOL    HW2 1740   1.436   2.692   2.864  1.1567 -1.4020 -0.4175
  581SOL     OW 1741   0.724   0.739   1.989 -0.6091 -0.1410  0.7217
  581SOL    HW1 1742   0.654   0.732   2.063 -0.5133  0.6820 -1.0401
  581SOL    HW2 1743   0.744   0.647   1.945 -0.8008 -0.4376  0.1009
  582SOL     OW 1744   0.485   0.808   0.645 -0.1976 -0.1123 -0.7720
  582SOL    HW1 1745   0.403   0.748   0.650 -0.5625 -0.3144 -0.0617
  582SOL    HW2 1746   0.506   0.853   0.736  0.9114 -1.2861  1.3519
  583SOL     OW 1747   0.828   1.577   2.072  0.1009 -0.2672  0.3848
  583SOL    HW1 1748   0.849   1.663   2.120 -1.1261 -1.7873  1.2611
  583SOL    HW2 1749   0.740   1.536   2.106 -1.7483  0.0396  2.9621
  584SOL     OW 1750   2.332   2.711   0.302  0.1047 -0.1629 -0.4303
  584SOL    HW1 1751   2.233   2.680   0.303 -3.2325 -0.2150  1.3486
  584SOL    HW2 1752   2.390   2.631   0.274 -1.4929  3.2726  2.3416
  585SOL     OW 1753   2.071   0.571   3.022  0.1704 -0.1760  0.4493
  585SOL    HW1 1754   2.036   0.641   2.956  0.7841 -1.6187 -1.0475
  585SOL    HW2 1755   2.109   0.618   0.008 -0.9702  0.7547  0.7270
  586SOL     OW 1756   0.491   1.687   0.158  0.0534  0.0283 -0.1231
  586SOL    HW1 1757   0.425   1.668   0.240 -0.5561 -0.6963 -0.0126
  586SOL    HW2 1758   0.588   1.706   0.193  2.2058  2.4044  0.0267
  587SOL     OW 1759   1.540   2.124   0.954  0.0678 -0.2646  0.0794
  587SOL    HW1 1760   1.634   2.140   0.986 -0.2626  0.5224 -0.0344
  587SOL    HW2 1761   1.475   2.151   1.025 -2.1930 -2.7147 -1.4822
  588SOL     OW 1762   0.364   0.381   0.934  0.4446 -0.7522 -0.3490
  588SOL    HW1 1763   0.423   0.417   1.010  0.9716  1.5212  2.1814
  588SOL    HW2 1764   0.415   0.380   0.840  2.7091  0.2138  0.8075
  589SOL     OW 1765   1.501   0.143   1.085  0.2541 -0.1718  0.5467
  589SOL    HW1 1766   1.479   0.056   1.040 -2.4762  1.6902  1.1450
  589SOL    HW2 1767   1.437   0.157   1.165 -0.5242  1.2990 -3.5774
  590SOL     OW 1768   1.342   0.750   0.388  0.2805 -1.3576 -0.3345
  590SOL    HW1 1769   1.437   0.771   0.357 -0.4110 -1.1395  1.3006
  590SOL    HW2 1770   1.274   0.776   0.317  1.2585 -0.8520  1.1014
  591SOL     OW 1771   2.183   2.209   1.909 -0.4049 -0.1513 -0.0731
  591SOL    HW1 1772   2.205   2.187   2.010  0.1979 -0.1405 -1.6923
  591SOL    HW2 1773   2.244   2.149   1.848  3.6730 -1.4025 -1.1014
  592SOL     OW 1774   1.571   1.948   1.472 -0.2726  0.4236 -0.4081
  592SOL    HW1 1775   1.592   1.870   1.534 -0.3241 -3.1848 -0.2384
  592SOL    HW2 1776   1.637   1.945   1.391  1.0730  0.4059 -4.1830
  593SOL     OW 1777   0.951   0.094   0.477  0.1189  0.1429  0.5430
  593SOL    HW1 1778   0.930   0.094   0.578 -2.6643  2.8590 -0.2691
  593SOL    HW2 1779   1.038   0.141   0.458  1.9133  1.3901  0.7091
  594SOL     OW 1780   0.143   0.789   1.981  0.5436  0.1717 -0.2649
  594SOL    HW1 1781   0.143   0.715   1.910 -0.0643 -0.6584 -1.2189
  594SOL    HW2 1782   0.219   0.852   1.972 -2.0245 -0.9190  2.7439
  595SOL     OW 1783   2.702   2.836   0.928 -0.6017  0.4049 -0.1621
  595SOL    HW1 1784   2.726   2.915   0.873 -4.6302 -0.4963  1.1778
  595SOL    HW2 1785   2.774   2.805   0.992  1.3524  1.9304 -0.7448
  596SOL     OW 1786   0.034   0.272   1.442 -0.0668 -0.5444 -0.0120
  596SOL    HW1 1787   0.079   0.367   1.461  0.3840  2.3796 -0.4639
  596SOL    HW2 1788   3.087   0.233   1.528  0.7708  0.4064 -0.1139
  597SOL     OW 1789   2.202   1.334   0.800 -0.5237 -0.4027  0.3958
  597SOL    HW1 1790   2.267   1.405   0.760  0.1303  0.0810 -1.1275
  597SOL    HW2 1791   2.108   1.371   0.790 -1.5474  1.8662 -1.6231
  598SOL     OW 1792   0.573   0.041   1.676 -0.0096 -0.2008 -0.4022
  598SOL    HW1 1793   0.567   3.031   1.694 -0.8238 -1.1870  2.2280
  598SOL    HW2 1794   0.475   0.078   1.663  1.9644  0.0261 -0.5265
  599SOL     OW 1795   2.797   1.623   3.023 -0.3540  0.0583 -0.0047
  599SOL    HW1 1796   2.817   1.524   3.009  0.8630  1.9981 -1.1438
  599SOL    HW2 1797   2.703   1.637   3.045  1.7042 -0.0274 -1.7413
  600SOL     OW 1798   0.916   0.882   2.998 -0.4970 -0.1903  0.1780
  600SOL    HW1 1799   0.844   0.941   2.951  0.4769  0.4439 -2.4545
  600SOL    HW2 1800   0.980   0.945   3.044 -2.3980 -1.5092  3.2744
  601SOL     OW 1801   1.187   1.064   2.751 -0.2718  0.0088  0.4790
  601SOL    HW1 1802   1.257   1.131   2.717 -0.9739 -1.2086 -0.5395
  601SOL    HW2 1803   1.097   1.119   2.753  0.3294 -1.8426 -2.2150
  602SOL     OW 1804   1.332   3.048   1.357  0.0856  0.4882  0.1239
  602SOL    HW1 1805   1.421   3.003   1.358 -2.1010  1.1499 -1.5929
  602SOL    HW2 1806   1.339   0.050   1.391 -0.0453 -1.2506  0.6530
  603SOL     OW 1807   0.908   2.860   2.396  0.4597 -0.3068 -0.4492
  603SOL    HW1 1808   0.822   2.852   2.449  2.0811 -1.1432  2.9498
  603SOL    HW2 1809   0.987   2.802   2.429 -0.2154 -1.0796 -0.8358
  604SOL     OW 1810   2.857   0.097   2.206 -0.5758 -0.2478 -0.1874
  604SOL    HW1 1811   2.784   0.145   2.257 -3.8840  0.5321  0.6268
  604SOL    HW2 1812   2.895   0.014   2.256  0.9266  0.0819 -0.9302
  605SOL     OW 1813   2.272   2.406   1.445  0.4562  0.2288  0.0127
  605SOL    HW1 1814   2.237   2.363   1.530  1.0758  1.0364 -1.4079
  605SOL    HW2 1815   2.215   2.486   1.421  1.5478  0.3440  0.7025
  606SOL     OW 1816   0.144   1.714   2.986  0.1269 -0.0677 -0.0459
  606SOL    HW1 1817   0.143   1.813   2.968 -1.5674 -1.8498 -0.0283
  606SOL    HW2 1818   0.105   1.701   3.079  1.3158 -0.9243 -0.7457
  607SOL     OW 1819   1.031   0.434   0.561 -0.2058  0.4429  0.5830
  607SOL    HW1 1820   1.104   0.374   0.520  0.3567 -0.5059  0.9521
  607SOL    HW2 1821   0.996   0.505   0.495  0.2215 -0.9418 -0.3051
  608SOL     OW 1822   1.600   1.394   2.472  0.3891  0.3894  0.3166
  608SOL    HW1 1823   1.551   1.304   2.458 -2.1741 -0.7349 -3.2184
  608SOL    HW2 1824   1.625   1.423   2.566 -1.9757  1.9231 -0.8419
  609SOL     OW 1825   2.757   0.359   0.753  0.1628 -0.4775 -0.8549
  609SOL    HW1 1826   2.782   0.441   0.809 -0.7194  0.4739  0.8603
  609SOL    HW2 1827   2.657   0.358   0.741  0.2525  1.4532 -0.0761
  610SOL     OW 1828   0.645   2.570   2.959 -0.4531  0.3548 -0.1775
  610SOL    HW1 1829   0.693   2.659   2.950 -1.9196  0.9628  0.0583
  610SOL    HW2 1830   0.703   2.486   2.965  0.9543 -1.5093 -2.0899
  611SOL     OW 1831   1.810   1.412   0.517 -0.3244  0.0592  0.5612
  611SOL    HW1 1832   1.867   1.493   0.484  2.5191  6.6903  0.2559
  611SOL    HW2 1833   1.734   1.443   0.575 -1.9122  1.2547 -0.9179
  612SOL     OW 1834   0.888   2.378   2.489  1.0796 -0.3980  0.0283
  612SOL    HW1 1835   0.966   2.417   2.442 -2.8786  0.9727 -0.5294
  612SOL    HW2 1836   0.805   2.442   2.482  1.2985 -2.5781 -2.6359
  613SOL     OW 1837   1.330   1.654   0.029  0.5903  0.3481 -0.2532
  613SOL    HW1 1838   1.343   1.625   0.130  1.5294 -0.4312  4.7977
  613SOL    HW2 1839   1.398   1.721   3.088 -1.0282  0.7253  1.8219
  614SOL     OW 1840   2.768   2.389   1.835 -0.0852 -0.0308  0.0306
  614SOL    HW1 1841   2.794   2.384   1.935  0.6280  1.2758 -0.1779
  614SOL    HW2 1842   2.756   2.301   1.793  1.2018  1.9630  0.0797
  615SOL     OW 1843   2.211   1.440   3.066 -0.1348 -0.5488  0.1869
  615SOL    HW1 1844   2.200   1.534   0.017 -1.2921  0.4096  0.9278
  615SOL    HW2 1845   2.310   1.422   3.053  0.7206  1.8189  1.8786
  616SOL     OW 1846   1.732   0.251   1.031  0.0064  0.5970  0.2620
  616SOL    HW1 1847   1.777   0.276   1.119  1.6357 -0.9324 -0.6666
  616SOL    HW2 1848   1.643   0.198   1.045  1.3263 -0.8865  0.7573
  617SOL     OW 1849   0.714   1.034   2.891  0.4894 -0.0147 -0.3833
  617SOL    HW1 1850   0.680   1.013   2.796 -1.0063 -0.3771  0.3091
  617SOL    HW2 1851   0.748   1.133   2.889  0.9029 -0.2465 -2.0186
  618SOL     OW 1852   0.498   0.868   1.566  0.0672  0.5359 -0.1361
  618SOL    HW1 1853   0.471   0.901   1.469 -1.3722 -1.8493 -1.5573
  618SOL    HW2 1854   0.565   0.929   1.610  0.6984 -1.3768  0.9720
  619SOL     OW 1855   3.000   0.877   1.491  0.4019 -0.1145 -0.4245
  619SOL    HW1 1856   0.002   0.905   1.473 -2.1431 -1.8514  2.1961
  619SOL    HW2 1857   2.964   0.829   1.410 -0.4607 -0.7774  1.9720
  620SOL     OW 1858   1.856   1.195   0.087 -0.1667  0.0422 -0.3266
  620SOL    HW1 1859   1.799   1.116   0.115  0.1279  1.0405 -0.2101
  620SOL    HW2 1860   1.824   1.241   3.091  1.1205  0.7779  0.3608
  621SOL     OW 1861   2.453   3.015   1.238 -0.1614  0.1665  0.0087
  621SOL    HW1 1862   2.518   2.983   1.165 -0.7084  0.9434 -0.5071
  621SOL    HW2 1863   2.478   0.019   1.264 -0.5171 -1.1596 -0.5555
  622SOL     OW 1864   1.412   0.749   2.013  0.4967 -0.3511 -0.0398
  622SOL    HW1 1865   1.511   0.763   2.031 -1.8526 -2.8420  0.3644
  622SOL    HW2 1866   1.369   0.708   2.097  0.6610 -1.2132  1.3632
  623SOL     OW 1867   0.920   0.483   2.751  0.4001  0.4626  0.7147
  623SOL    HW1 1868   0.891   0.476   2.655 -0.5001  1.3834  0.9320
  623SOL    HW2 1869   0.932   0.583   2.772 -2.8633 -1.2743 -0.6034
  624SOL     OW 1870   1.593   0.315   0.528  0.1562 -0.1297  0.3693
  624SOL    HW1 1871   1.532   0.386   0.486  0.9282 -2.1410  2.2044
  624SOL    HW2 1872   1.680   0.356   0.557 -3.8889  0.8550  0.1642
  625SOL     OW 1873   0.945   1.375   0.756  0.4519 -0.0025 -0.3076
  625SOL    HW1 1874   0.967   1.473   0.773  0.2565  1.9534 -0.7879
  625SOL    HW2 1875   0.944   1.352   0.656  2.3463 -1.0919 -1.9946
  626SOL     OW 1876   1.538   1.028   3.001  0.0921 -0.5585  0.5926
  626SOL    HW1 1877   1.494   0.953   2.953 -0.0855  3.4748 -0.2367
  626SOL    HW2 1878   1.584   1.092   2.934 -0.9978 -0.4754  0.2350
  627SOL     OW 1879   0.836   0.045   1.815 -0.2924  0.3184 -0.5358
  627SOL    HW1 1880   0.879   3.086   1.738  0.1184 -2.3407 -1.0376
  627SOL    HW2 1881   0.748   0.090   1.798  0.6241  1.1149  2.1001
  628SOL     OW 1882   2.469   0.432   2.247 -0.1832  0.2909  0.4921
  628SOL    HW1 1883   2.420   0.452   2.161 -0.8935 -1.4909 -1.7917
  628SOL    HW2 1884   2.422   0.472   2.326  1.5198  1.9014  0.4111
  629SOL     OW 1885   0.793   1.278   2.946 -0.1062  0.2843  0.5050
  629SOL    HW1 1886   0.873   1.281   3.003 -1.8675 -0.7860 -1.9144
  629SOL    HW2 1887   0.711   1.323   2.983 -0.8769  0.5470 -0.4773
  630SOL     OW 1888   1.004   0.215   2.201 -0.0385 -0.0823 -0.2644
  630SOL    HW1 1889   1.024   0.304   2.244  0.4058 -5.2162 -2.2547
  630SOL    HW2 1890   1.011   0.139   2.267 -0.7656  0.5976 -1.0047
  631SOL     OW 1891   2.536   1.317   0.936  0.3650 -0.0117  0.2457
  631SOL    HW1 1892   2.636   1.310   0.954 -0.4149  0.1171 -1.2718
  631SOL    HW2 1893   2.481   1.304   1.021 -3.0107 -3.0095  0.3971
  632SOL     OW 1894   2.596   1.514   0.768  0.4453 -0.0012  0.3054
  632SOL    HW1 1895   2.578   1.443   0.838 -0.6349  2.8884 -3.0757
  632SOL    HW2 1896   2.666   1.577   0.802 -1.8345 -1.3162 -0.7754
  633SOL     OW 1897   1.342   1.089   1.044 -0.4814 -0.3693 -0.0414
  633SOL    HW1 1898   1.352   1.146   0.958  0.2331 -2.8295 -1.2124
  633SOL    HW2 1899   1.323   1.151   1.122  4.2627 -2.5119 -2.0586
  634SOL     OW 1900   1.805   0.038   0.855 -0.0292 -0.5636  0.3536
  634SOL    HW1 1901   1.800   0.122   0.916 -1.2081 -0.6941  0.1213
  634SOL    HW2 1902   1.778   3.051   0.911 -2.1104  0.6589  1.4191
  635SOL     OW 1903   1.777   0.600   1.347 -0.4169  0.4420  0.2230
  635SOL    HW1 1904   1.846   0.677   1.343  2.9242 -0.1870  1.1884
  635SOL    HW2 1905   1.754   0.573   1.444 -0.9763 -0.2714 -0.6978
  636SOL     OW 1906   1.193   1.044   0.541 -0.4139  0.4224 -0.6956
  636SOL    HW1 1907   1.202   1.094   0.454 -2.0462 -1.6405  1.4301
  636SOL    HW2 1908   1.123   0.968   0.532  0.4318  0.8283  1.5996
  637SOL     OW 1909   1.718   2.498   0.096  0.1389  0.6896 -0.0903
  637SOL    HW1 1910   1.646   2.570   0.112  0.8619 -0.0165  2.1224
  637SOL    HW2 1911   1.707   2.456   3.090  1.2874 -1.5247 -2.3351
  638SOL     OW 1912   1.132   2.906   2.937  0.0973 -0.9275 -0.1236
  638SOL    HW1 1913   1.127   2.807   2.962 -0.0750 -2.7858 -0.4670
  638SOL    HW2 1914   1.041   2.942   2.913  2.9317 -3.9585  1.0063
  639SOL     OW 1915   1.067   2.065   1.419 -0.0821  0.1593  0.1878
  639SOL    HW1 1916   1.076   1.964   1.396 -0.1791  1.6600  1.6678
  639SOL    HW2 1917   0.969   2.081   1.436 -1.0547 -0.8356 -3.2707
  640SOL     OW 1918   0.359   2.917   0.305 -0.0929 -0.2513  0.4964
  640SOL    HW1 1919   0.333   2.856   0.225  0.1992  2.9158 -2.1116
  640SOL    HW2 1920   0.407   2.997   0.261 -0.9950  0.4283 -2.4889
  641SOL     OW 1921   0.140   0.260   0.103 -0.0907  0.4413  0.2040
  641SOL    HW1 1922   0.121   0.188   0.172  0.6509  1.1175 -2.3125
  641SOL    HW2 1923   0.234   0.302   0.118  0.5059 -0.1585  0.3750
  642SOL     OW 1924   0.339   1.473   1.051 -0.1424  0.1064 -0.0606
  642SOL    HW1 1925   0.394   1.558   1.067  1.8915  1.0262 -1.6257
  642SOL    HW2 1926   0.244   1.498   1.034 -0.0695 -2.4777  2.1446
  643SOL     OW 1927   0.938   1.884   2.464 -0.6959  0.0081  0.1067
  643SOL    HW1 1928   1.010   1.829   2.506 -0.3130 -0.5707 -2.6771
  643SOL    HW2 1929   0.926   1.983   2.501 -0.4265  4.0052  4.1283
  644SOL     OW 1930   1.708   2.603   0.359 -0.3709  0.3982  0.0521
  644SOL    HW1 1931   1.721   2.569   0.266  0.5458  0.7607  0.1863
  644SOL    HW2 1932   1.655   2.540   0.416  0.9235  0.8511  1.6027
  645SOL     OW 1933   1.853   2.228   1.613 -0.0253  0.1328  0.0433
  645SOL    HW1 1934   1.757   2.257   1.591 -0.8009  0.2553 -0.9550
  645SOL    HW2 1935   1.910   2.306   1.629  0.3794 -3.1986 -0.7675
  646SOL     OW 1936   1.013   2.681   0.276 -0.0653 -0.3720 -0.1836
  646SOL    HW1 1937   1.041   2.779   0.290  3.6645  3.6114  2.6905
  646SOL    HW2 1938   0.912   2.668   0.298 -0.3097 -0.0301 -1.0038
  647SOL     OW 1939   0.315   0.098   1.929 -0.2417 -0.4232  0.0835
  647SOL    HW1 1940   0.231   0.047   1.949  2.0991  1.1224 -1.7250
  647SOL    HW2 1941   0.340   0.164   1.999 -2.3084 -3.6259  0.8260
  648SOL     OW 1942   2.533   1.181   0.719  0.0543  0.2147  0.0765
  648SOL    HW1 1943   2.444   1.132   0.714 -2.1402 -0.7871 -1.5287
  648SOL    HW2 1944   2.532   1.238   0.808  0.2603 -2.0536 -1.5983
  649SOL     OW 1945   1.869   2.595   2.713  0.3917 -0.5542  0.5081
  649SOL    HW1 1946   1.815   2.537   2.649  1.1873 -0.1771 -1.7415
  649SOL    HW2 1947   1.813   2.672   2.748  0.7164 -0.3281 -0.9697
  650SOL     OW 1948   2.328   1.107   1.903 -0.5725  0.2678 -0.0628
  650SOL    HW1 1949   2.294   1.175   1.971 -1.1222 -2.4926  0.7072
  650SOL    HW2 1950   2.278   1.021   1.909  1.0877  0.4218 -0.7703
  651SOL     OW 1951   1.453   1.611   2.801 -0.0481 -0.5113  0.3182
  651SOL    HW1 1952   1.534   1.608   2.742  0.7521  0.5831 -1.5212
  651SOL    HW2 1953   1.462   1.692   2.865  3.7636 -0.0730 -0.1342
  652SOL     OW 1954   0.610   2.997   2.538 -0.5382 -0.0799 -0.5757
  652SOL    HW1 1955   0.621   2.899   2.563  0.3458 -1.1315 -0.3488
  652SOL    HW2 1956   0.542   3.041   2.599  0.3520  0.1960 -1.0240
  653SOL     OW 1957   2.263   2.157   0.999  0.2006 -0.2339  0.0321
  653SOL    HW1 1958   2.316   2.228   1.054 -2.7821 -0.0066  0.9322
  653SOL    HW2 1959   2.213   2.093   1.059  0.5964  0.7725  0.4254
  654SOL     OW 1960   2.606   2.838   2.111 -0.1910  0.2992  0.2843
  654SOL    HW1 1961   2.541   2.867   2.187  0.8455 -1.5939  3.0086
  654SOL    HW2 1962   2.645   2.922   2.070 -1.1378  2.9402 -0.1999
  655SOL     OW 1963   2.633   2.056   1.437 -0.1629  0.2013  0.0598
  655SOL    HW1 1964   2.638   2.007   1.349 -0.2889  0.9708  0.5540
  655SOL    HW2 1965   2.661   2.154   1.437 -1.7334  0.1965 -0.6451
  656SOL     OW 1966   2.930   1.882   2.967  0.4550  0.6302 -0.4351
  656SOL    HW1 1967   2.945   1.916   2.871 -1.7131 -1.6166 -2.0827
  656SOL    HW2 1968   2.886   1.786   2.971 -1.2633 -3.1147  0.8141
  657SOL     OW 1969   0.365   1.052   0.480 -0.0699 -0.1856  0.0586
  657SOL    HW1 1970   0.324   1.142   0.455  1.3716 -0.3856  0.2617
  657SOL    HW2 1971   0.362   0.986   0.398 -0.7418 -1.2975 -1.6815
  658SOL     OW 1972   1.470   1.528   1.482  0.1125 -0.0278 -0.2577
  658SOL    HW1 1973   1.515   1.599   1.540 -0.8499  0.3188  1.1071
  658SOL    HW2 1974   1.368   1.541   1.487  0.0959 -2.4714 -1.3018
  659SOL     OW 1975   0.863   0.186   1.177 -0.2666  0.6767 -0.1599
  659SOL    HW1 1976   0.913   0.160   1.091  0.7887  2.4929 -2.2356
  659SOL    HW2 1977   0.912   0.142   1.254 -0.3005  2.4186 -2.8666
  660SOL     OW 1978   2.197   1.162   1.045 -0.2363  0.3789 -0.0255
  660SOL    HW1 1979   2.174   1.182   0.947  1.3926  0.5252 -2.3908
  660SOL    HW2 1980   2.235   1.066   1.060  0.3386 -3.7416  0.2509
  661SOL     OW 1981   0.380   1.592   3.012  0.1689 -0.2016  0.3126
  661SOL    HW1 1982   0.424   1.633   0.008  1.5428 -0.9888  2.1135
  661SOL    HW2 1983   0.293   1.636   2.992  0.0125 -1.3324 -0.2914
  662SOL     OW 1984   2.592   0.768   2.119  0.4136  0.3094 -0.2515
  662SOL    HW1 1985   2.636   0.787   2.208 -1.5646 -0.6149  0.7120
  662SOL    HW2 1986   2.628   0.815   2.038 -0.9627 -2.5475 -0.4167
  663SOL     OW 1987   2.270   1.519   1.415  0.6146  0.7021 -0.2019
  663SOL    HW1 1988   2.279   1.550   1.321  0.0007  0.5089  1.1289
  663SOL    HW2 1989   2.358   1.479   1.449 -2.5478 -0.0487 -1.6849
  664SOL     OW 1990   0.494   0.048   1.264  0.0045  0.0910 -1.0422
  664SOL    HW1 1991   0.525   0.094   1.182  0.7891 -0.2131  0.7500
  664SOL    HW2 1992   0.414   0.087   1.302 -0.3067 -2.0270 -0.9778
  665SOL     OW 1993   1.555   0.228   2.841 -0.0160 -0.8088  0.0137
  665SOL    HW1 1994   1.653   0.270   2.845  1.4697  1.7692 -2.4272
  665SOL    HW2 1995   1.543   0.146   2.897  1.2889  3.5123 -1.2309
  666SOL     OW 1996   0.334   0.166   1.643  0.0463 -0.3504  0.8446
  666SOL    HW1 1997   0.370   0.259   1.621  1.1386  1.7939  0.9190
  666SOL    HW2 1998   0.333   0.159   1.747 -0.6588  0.3873  2.6226
  667SOL     OW 1999   1.756   1.422   1.882  0.1194 -0.0563  0.2288
  667SOL    HW1 2000   1.726   1.456   1.790 -0.7633 -0.2274 -0.4386
  667SOL    HW2 2001   1.842   1.468   1.920  3.1350  1.2484  2.2197
  668SOL     OW 2002   0.138   1.423   2.374  0.4189 -0.4008  0.4678
  668SOL    HW1 2003   0.178   1.330   2.386  0.0834 -1.8519 -1.9194
  668SOL    HW2 2004   0.082   1.425   2.287 -1.3924 -0.6464  1.1244
  669SOL     OW 2005   2.545   2.935   2.951  0.0601  0.2808 -0.9288
  669SOL    HW1 2006   2.577   3.033   2.957  0.8333  2.7213 -0.3810
  669SOL    HW2 2007   2.506   2.903   3.041 -1.4211 -0.3378  2.7333
  670SOL     OW 2008   2.549   1.081   2.445  0.0284 -0.1476  0.1475
  670SOL    HW1 2009   2.648   1.052   2.447  1.9984 -0.6297  0.6538
  670SOL    HW2 2010   2.546   1.175   2.482 -1.2355  0.8063  1.3955
  671SOL     OW 2011   2.550   1.924   0.372  0.0443 -0.1126  0.1971
  671SOL    HW1 2012   2.609   1.842   0.364  1.4063  3.8439 -0.0504
  671SOL    HW2 2013   2.597   1.993   0.432 -0.1594  1.1402  0.6229
  672SOL     OW 2014   1.383   1.123   2.135  0.0932  0.0603 -0.4231
  672SOL    HW1 2015   1.440   1.162   2.061 -1.0127 -2.4916  0.9243
  672SOL    HW2 2016   1.372   1.025   2.122  2.3553  0.6385  0.4895
  673SOL     OW 2017   3.041   1.939   1.436 -0.3584  0.5894 -0.1108
  673SOL    HW1 2018   0.007   1.901   1.359 -0.6009  0.2722  0.1062
  673SOL    HW2 2019   3.068   1.909   1.529  2.6052  0.5557  0.0992
  674SOL     OW 2020   1.143   1.680   1.814 -0.4198  0.5845  0.6469
  674SOL    HW1 2021   1.059   1.622   1.799  1.3881 -2.0375 -2.4198
  674SOL    HW2 2022   1.117   1.769   1.857  0.4511 -0.2704  0.5074
  675SOL     OW 2023   3.041   0.716   0.925  0.3567  1.1994 -0.0354
  675SOL    HW1 2024   3.076   0.792   0.985 -0.1638 -0.6306  0.2641
  675SOL    HW2 2025   0.002   0.631   0.932  0.5297 -3.6402  1.4631
  676SOL     OW 2026   0.009   1.225   0.843  0.7692  0.0625 -0.2209
  676SOL    HW1 2027   3.075   1.229   0.746  0.5018 -2.5047 -1.2316
  676SOL    HW2 2028   3.067   1.138   0.886 -0.3487 -0.7059  0.3247
  677SOL     OW 2029   1.764   1.807   2.346 -0.0894 -0.1000 -0.6781
  677SOL    HW1 2030   1.800   1.813   2.252  2.8823  0.3610 -0.3417
  677SOL    HW2 2031   1.702   1.729   2.358  0.4165  1.4632 -0.6827
  678SOL     OW 2032   2.822   1.616   0.924 -0.0434 -0.2943  0.3320
  678SOL    HW1 2033   2.845   1.696   0.865  1.0608 -0.2026  2.1762
  678SOL    HW2 2034   2.813   1.642   1.022 -0.4772 -0.0801 -0.6077
  679SOL     OW 2035   0.617   2.683   0.639  0.3689  0.0686 -0.0806
  679SOL    HW1 2036   0.542   2.625   0.678  0.7224 -0.3521  0.9815
  679SOL    HW2 2037   0.673   2.718   0.719 -1.6090 -1.1798  4.6589
  680SOL     OW 2038   0.090   1.834   1.237  0.0042 -0.1508  0.3456
  680SOL    HW1 2039   0.041   1.881   1.158 -2.4090 -0.9702 -1.9944
  680SOL    HW2 2040   0.071   1.733   1.237  0.2426  0.0490 -0.6998
  681SOL     OW 2041   0.930   0.434   1.092  0.1899 -0.5989  0.6818
  681SOL    HW1 2042   0.902   0.346   1.140 -0.9413 -1.2865  1.3753
  681SOL    HW2 2043   0.983   0.411   1.009 -0.7466  0.0880  1.1564
  682SOL     OW 2044   1.564   2.902   1.430 -0.4717  0.2056  0.3258
  682SOL    HW1 2045   1.560   2.831   1.509  0.5588 -3.8007  2.0652
  682SOL    HW2 2046   1.644   2.966   1.439  0.1885  2.0367  0.0902
  683SOL     OW 2047   2.480   1.376   1.517  0.0974  0.1377  0.1285
  683SOL    HW1 2048   2.451   1.372   1.617  1.2736  0.3427  0.7518
  683SOL    HW2 2049   2.554   1.436   1.501 -0.7106 -2.4937  4.5894
  684SOL     OW 2050   3.045   1.597   1.821 -0.3328 -0.4832  0.0701
  684SOL    HW1 2051   2.973   1.539   1.784 -0.5146  2.2684  0.1180
  684SOL    HW2 2052   0.036   1.571   1.769  1.9015 -0.6973 -0.0919
  685SOL     OW 2053   2.062   1.819   0.288  0.0901  0.2328  0.5455
  685SOL    HW1 2054   2.133   1.883   0.328  0.7869  0.7436 -0.2956
  685SOL    HW2 2055   2.100   1.780   0.203 -2.1351 -0.9523 -0.1062
  686SOL     OW 2056   0.151   0.628   1.195 -0.1644  0.2463  0.1890
  686SOL    HW1 2057   0.152   0.721   1.148 -1.3994  0.3451  0.0164
  686SOL    HW2 2058   0.157   0.555   1.122 -1.1261 -1.0284 -0.4489
  687SOL     OW 2059   1.947   0.117   2.500  0.4034  0.4592  0.4138
  687SOL    HW1 2060   1.962   0.158   2.596  2.1881  0.4317  2.9648
  687SOL    HW2 2061   1.854   0.130   2.458 -0.2062 -1.3171  0.0764
  688SOL     OW 2062   1.243   2.180   2.532  0.0735 -0.2672 -0.3889
  688SOL    HW1 2063   1.316   2.107   2.523  2.8556 -0.5548 -1.9468
  688SOL    HW2 2064   1.156   2.137   2.564 -2.3571  0.1227  0.9271
  689SOL     OW 2065   2.079   1.227   1.784 -0.0797 -0.0256 -0.1868
  689SOL    HW1 2066   2.171   1.191   1.800  1.5830  0.5038 -2.2578
  689SOL    HW2 2067   2.010   1.174   1.840 -1.8819 -2.8174 -0.0467
  690SOL     OW 2068   1.972   1.986   1.475  0.1984  0.8933  0.0881
  690SOL    HW1 2069   1.925   2.058   1.531 -2.9159  3.3694  0.1770
  690SOL    HW2 2070   2.060   1.953   1.522  1.6690  1.5547  2.1790
  691SOL     OW 2071   0.366   1.688   0.394 -0.3088  0.0671  0.4398
  691SOL    HW1 2072   0.428   1.763   0.405  1.4855 -1.5925 -1.5039
  691SOL    HW2 2073   0.345   1.644   0.483  2.0066 -2.7847  0.8575
  692SOL     OW 2074   2.878   2.894   2.614 -0.4929 -0.1306  0.2534
  692SOL    HW1 2075   2.779   2.908   2.593  0.0941 -1.3634  2.1033
  692SOL    HW2 2076   2.904   2.810   2.663  1.9034 -0.0229 -0.4494
  693SOL     OW 2077   3.073   1.442   2.146 -0.1925 -0.8201 -0.8022
  693SOL    HW1 2078   3.005   1.516   2.127  3.0628 -0.7464  0.9266
  693SOL    HW2 2079   0.028   1.425   2.057  1.8416  0.6422 -1.5214
  694SOL     OW 2080   2.395   0.186   1.861  0.0395 -0.0921  0.3445
  694SOL    HW1 2081   2.364   0.228   1.773  2.9864 -2.5579  2.5130
  694SOL    HW2 2082   2.357   0.231   1.948 -0.6975  1.2500  4.0915
  695SOL     OW 2083   0.973   0.643   2.187 -0.3781 -0.1497  0.2742
  695SOL    HW1 2084   0.870   0.653   2.208 -2.7005  1.7732  0.3912
  695SOL    HW2 2085   1.017   0.733   2.177 -0.9959 -0.3238 -1.7291
  696SOL     OW 2086   1.910   2.919   1.694  0.3066 -0.1385 -0.2504
  696SOL    HW1 2087   1.991   2.976   1.722 -0.3763 -3.9013  1.6177
  696SOL    HW2 2088   1.895   2.839   1.762  0.4232 -1.4508  1.2928
  697SOL     OW 2089   1.406   0.244   2.071  0.0007 -0.4379  0.1882
  697SOL    HW1 2090   1.467   0.263   2.148  0.0073 -2.2952  0.2885
  697SOL    HW2 2091   1.427   0.317   2.001  3.0721 -0.3303 -1.1088
  698SOL     OW 2092   2.117   1.666   2.531  0.2420  0.3453  0.1453
  698SOL    HW1 2093   2.154   1.698   2.619  1.1182  0.1513 -0.2831
  698SOL    HW2 2094   2.106   1.741   2.460 -0.5209  0.4163 -2.5087
  699SOL     OW 2095   2.202   0.699   0.141  0.7638  0.2899  0.0312
  699SOL    HW1 2096   2.150   0.698   0.226  3.7478  0.9785 -0.0684
  699SOL    HW2 2097   2.225   0.793   0.110 -0.2685 -1.9491  1.5754
  700SOL     OW 2098   1.324   0.052   0.552  0.1880 -0.2507 -0.1639
  700SOL    HW1 2099   1.373   0.072   0.635 -0.5960 -1.1646 -0.3079
  700SOL    HW2 2100   1.347   3.051   0.521  0.7957  3.3374 -1.1859
  701SOL     OW 2101   0.194   0.937   0.643  0.1194  0.7980  0.4032
  701SOL    HW1 2102   0.164   0.838   0.641 -3.0769 -1.9244 -0.8342
  701SOL    HW2 2103   0.275   0.963   0.590  2.9972 -2.4342  1.1073
  702SOL     OW 2104   1.640   0.160   1.746 -1.0380  0.0116  0.4490
  702SOL    HW1 2105   1.596   0.098   1.812  1.8752  1.4518  0.7753
  702SOL    HW2 2106   1.698   0.111   1.676 -0.4129  1.4676 -0.8233
  703SOL     OW 2107   2.970   1.016   0.970  0.4367 -0.0970 -0.2152
  703SOL    HW1 2108   2.874   0.994   0.930 -1.3187 -2.7969 -0.9733
  703SOL    HW2 2109   2.980   0.960   1.056 -0.1804 -1.8745  1.1259
  704SOL     OW 2110   0.936   2.466   1.403 -0.3854  0.1719 -0.1541
  704SOL    HW1 2111   1.035   2.483   1.400 -0.4016 -1.9211  0.9425
  704SOL    HW2 2112   0.893   2.494   1.316 -2.7630 -1.8532 -2.0969
  705SOL     OW 2113   0.366   1.577   2.729  0.0938  0.3889  0.2080
  705SOL    HW1 2114   0.406   1.492   2.689  1.3427  1.5680  2.0296
  705SOL    HW2 2115   0.376   1.578   2.829  0.7758 -0.9281  0.4278
  706SOL     OW 2116   2.971   2.936   0.177  0.0497  0.0725  0.6209
  706SOL    HW1 2117   2.873   2.927   0.157  3.8477 -0.8078 -2.7321
  706SOL    HW2 2118   2.985   2.943   0.278 -0.0250  0.3188  0.6110
  707SOL     OW 2119   1.468   2.999   2.258 -0.0984  0.1481 -0.2338
  707SOL    HW1 2120   1.528   3.034   2.179  0.4451 -0.9588 -1.1472
  707SOL    HW2 2121   1.396   2.941   2.219  0.3787  3.0008  2.8205
  708SOL     OW 2122   0.323   2.780   1.746  0.4978  0.2477 -0.2270
  708SOL    HW1 2123   0.409   2.824   1.764 -2.5473 -2.5950 -2.9059
  708SOL    HW2 2124   0.313   2.685   1.782 -2.1632 -1.1885  1.1796
  709SOL     OW 2125   2.726   0.588   1.683 -0.0692  0.3752 -0.0277
  709SOL    HW1 2126   2.800   0.639   1.732  0.7836  0.7172 -0.0330
  709SOL    HW2 2127   2.679   0.523   1.748  1.1096 -1.6961 -1.0346
  710SOL     OW 2128   0.353   0.953   0.888 -0.0051 -0.5058  0.3133
  710SOL    HW1 2129   0.387   1.052   0.892 -1.0480  1.0935 -0.5399
  710SOL    HW2 2130   0.303   0.935   0.800 -1.0241 -2.8435 -2.1194
  711SOL     OW 2131   2.622   2.984   1.440 -0.0440 -0.6167 -0.3910
  711SOL    HW1 2132   2.618   2.896   1.491 -0.4837  1.8219 -1.4866
  711SOL    HW2 2133   2.537   2.990   1.381  1.9268 -0.3150 -1.6208
  712SOL     OW 2134   0.273   2.671   2.454  0.0416 -0.3441 -0.0114
  712SOL    HW1 2135   0.319   2.752   2.411  0.6502 -3.1285 -0.6962
  712SOL    HW2 2136   0.203   2.692   2.525  0.3296  0.7768  1.9320
  713SOL     OW 2137   2.481   0.372   0.641 -0.2132  0.2818 -0.1262
  713SOL    HW1 2138   2.382   0.376   0.662  1.3996 -0.1441 -0.6652
  713SOL    HW2 2139   2.509   0.442   0.569 -1.4640 -0.3770 -1.2448
  714SOL     OW 2140   1.647   1.977   2.686  0.2501  0.1018 -0.4350
  714SOL    HW1 2141   1.567   1.964   2.630  1.9710 -0.0615  0.1796
  714SOL    HW2 2142   1.729   1.982   2.626 -2.4889 -0.2808 -0.3338
  715SOL     OW 2143   0.061   0.494   0.780 -0.0928 -0.2003 -0.0291
  715SOL    HW1 2144   0.062   0.452   0.874 -0.4444 -2.1781 -0.8539
  715SOL    HW2 2145   3.079   0.460   0.719  0.0210  3.7357 -0.2909
  716SOL     OW 2146   0.715   0.685   1.557  0.3171  0.2654  0.3438
  716SOL    HW1 2147   0.781   0.712   1.630 -0.3720  1.9841  4.5275
  716SOL    HW2 2148   0.630   0.741   1.566  1.0405  0.7773  1.4982
  717SOL     OW 2149   0.800   0.406   2.522 -0.0399  0.3163 -0.0143
  717SOL    HW1 2150   0.783   0.308   2.539 -1.6112  2.6685  0.2645
  717SOL    HW2 2151   0.718   0.460   2.494  0.6246  0.0309 -0.9881
  718SOL     OW 2152   1.219   0.284   0.430 -0.6684 -0.2706  0.6760
  718SOL    HW1 2153   1.279   0.274   0.350  0.3898 -0.7421  3.3656
  718SOL    HW2 2154   1.257   0.225   0.502  0.7438 -0.9037 -0.3362
  719SOL     OW 2155   3.074   2.280   2.710 -0.9089  0.0672  0.3139
  719SOL    HW1 2156   0.017   2.295   2.613  1.1353  2.4272 -1.0300
  719SOL    HW2 2157   0.056   2.315   2.777 -2.9839  0.7865  2.8183
  720SOL     OW 2158   1.035   0.468   1.352 -0.4842 -0.0505  0.1932
  720SOL    HW1 2159   1.022   0.568   1.371  1.3097 -2.4062 -2.2828
  720SOL    HW2 2160   1.120   0.457   1.292  0.6608 -3.1233  0.0807
  721SOL     OW 2161   2.904   2.771   1.097  0.0665  0.6408 -0.1936
  721SOL    HW1 2162   2.989   2.704   1.094  3.8707  0.6805 -0.9733
  721SOL    HW2 2163   2.860   2.777   1.190 -0.1079  0.4559  1.9633
  722SOL     OW 2164   0.954   1.194   2.731 -0.3268 -0.1695  0.4600
  722SOL    HW1 2165   0.922   1.245   2.813 -1.5828  0.6291  2.4783
  722SOL    HW2 2166   0.941   1.248   2.641  0.8187  0.4914 -1.9181
  723SOL     OW 2167   2.655   0.852   1.292  0.0694  0.1190 -0.4600
  723SOL    HW1 2168   2.624   0.793   1.215  0.8599 -1.1544 -1.3914
  723SOL    HW2 2169   2.639   0.821   1.388  0.6093  0.0327  1.5763
  724SOL     OW 2170   0.968   1.949   0.326  0.2315  0.1682  0.2849
  724SOL    HW1 2171   0.991   1.994   0.238  0.6294  0.3491  0.3903
  724SOL    HW2 2172   1.026   1.863   0.338 -2.2315 -1.2192  0.8889
  725SOL     OW 2173   0.124   0.998   1.357 -0.1665 -0.2769 -0.3652
  725SOL    HW1 2174   0.076   1.080   1.323  1.6263 -0.0993 -1.5337
  725SOL    HW2 2175   0.228   1.008   1.356  0.7655  2.3464 -0.9109
  726SOL     OW 2176   2.568   1.133   2.960 -0.0942  0.1587  0.3275
  726SOL    HW1 2177   2.633   1.120   2.885  0.9525  2.8469 -2.2440
  726SOL    HW2 2178   2.474   1.102   2.932  0.6978 -1.5935 -0.6123
  727SOL     OW 2179   1.871   1.214   2.689  0.2393 -0.0805  0.8129
  727SOL    HW1 2180   1.900   1.295   2.632 -0.6245 -0.7158  1.4951
  727SOL    HW2 2181   1.827   1.147   2.625 -0.8012  0.4309 -1.1676
  728SOL     OW 2182   1.527   2.506   1.288 -0.6195 -0.0369  0.3861
  728SOL    HW1 2183   1.517   2.600   1.253  3.0591  3.0202 -1.7343
  728SOL    HW2 2184   1.451   2.491   1.355  0.2390  3.7974 -3.6104
  729SOL     OW 2185   1.811   0.815   2.266  0.1670 -0.0362 -0.4157
  729SOL    HW1 2186   1.864   0.827   2.352 -0.7758  2.8704 -0.0154
  729SOL    HW2 2187   1.724   0.868   2.273 -0.4417  1.4628 -2.3706
  730SOL     OW 2188   0.976   0.687   1.033 -0.7809  0.2236  0.3007
  730SOL    HW1 2189   1.050   0.643   0.975 -0.4944  1.7822 -0.0787
  730SOL    HW2 2190   0.942   0.609   1.090 -0.4233 -1.4077 -1.2844
  731SOL     OW 2191   0.772   0.343   2.918  0.1181  0.1047 -0.0842
  731SOL    HW1 2192   0.823   0.389   2.843 -0.0678 -1.3553 -2.0352
  731SOL    HW2 2193   0.683   0.388   2.931  0.1003 -2.8395 -2.6005
  732SOL     OW 2194   0.527   0.622   0.188 -0.2251 -0.2886  0.1179
  732SOL    HW1 2195   0.559   0.575   0.272 -2.4385 -0.0398  1.2889
  732SOL    HW2 2196   0.603   0.647   0.124  0.1032  2.4958  1.9322
  733SOL     OW 2197   1.545   1.647   2.368 -0.1120  0.1610  0.0831
  733SOL    HW1 2198   1.458   1.681   2.413 -0.3064  1.2647  0.1584
  733SOL    HW2 2199   1.571   1.557   2.405 -0.0320 -1.3834  0.7241
  734SOL     OW 2200   0.335   2.173   2.869  0.3962  0.1860 -0.0849
  734SOL    HW1 2201   0.303   2.250   2.927 -0.5198 -2.4387 -1.6692
  734SOL    HW2 2202   0.353   2.208   2.776  1.8544  1.5492  0.6922
  735SOL     OW 2203   2.343   0.588   0.921  0.0817 -0.2374  0.0836
  735SOL    HW1 2204   2.345   0.637   0.834  0.0473  0.7696  0.2767
  735SOL    HW2 2205   2.249   0.597   0.962 -0.3305 -2.6600 -1.9960
  736SOL     OW 2206   1.937   1.441   2.545 -0.9189  0.7826  0.3579
  736SOL    HW1 2207   1.908   1.413   2.451  0.0281  2.5401  0.8319
  736SOL    HW2 2208   1.980   1.535   2.531  2.5467  1.3856  1.0113
  737SOL     OW 2209   3.010   0.655   0.453 -0.0542 -0.4432  0.1491
  737SOL    HW1 2210   2.964   0.689   0.369  1.0376  0.2570 -2.4034
  737SOL    HW2 2211   0.016   0.688   0.458  2.4372  0.9434 -0.6018
  738SOL     OW 2212   0.688   2.136   1.794 -0.0018  0.4813 -0.2130
  738SOL    HW1 2213   0.710   2.209   1.862 -1.5310  1.7258  0.0352
  738SOL    HW2 2214   0.645   2.182   1.711 -2.1422 -0.2091 -1.3550
  739SOL     OW 2215   1.355   2.836   2.040 -0.5070 -0.2012 -0.3491
  739SOL    HW1 2216   1.419   2.780   1.984 -3.2970 -0.9922  0.4871
  739SOL    HW2 2217   1.284   2.880   1.986  1.9130 -0.9217 -0.1592
  740SOL     OW 2218   1.822   2.562   1.300  0.1872  0.4371  0.6210
  740SOL    HW1 2219   1.721   2.558   1.307 -2.2353 -0.1060 -0.0512
  740SOL    HW2 2220   1.857   2.641   1.354 -1.1752  0.9331 -0.5964
  741SOL     OW 2221   2.218   0.301   0.366  0.0153  0.2518 -0.0043
  741SOL    HW1 2222   2.125   0.301   0.316 -1.9706  0.5229 -2.5923
  741SOL    HW2 2223   2.285   0.365   0.326 -2.0720  0.5208  1.3090
  742SOL     OW 2224   1.020   2.623   2.979 -0.1437 -0.3077 -0.0879
  742SOL    HW1 2225   1.006   2.569   2.894  0.3834 -0.2515 -3.3867
  742SOL    HW2 2226   1.050   2.563   3.058  0.1448  1.6342  1.2836
  743SOL     OW 2227   2.407   0.950   2.239  0.4689  0.5292 -0.2727
  743SOL    HW1 2228   2.472   1.020   2.264 -2.0787 -1.9087 -2.3496
  743SOL    HW2 2229   2.453   0.867   2.194  0.9225 -1.0203 -1.3745
  744SOL     OW 2230   2.626   0.776   0.660  0.1650 -0.0707 -0.0043
  744SOL    HW1 2231   2.612   0.694   0.600  0.8347 -1.2308 -0.4578
  744SOL    HW2 2232   2.722   0.808   0.653  0.3195  2.3328 -0.0078
  745SOL     OW 2233   2.472   1.114   1.434  0.1712 -0.3260  0.2791
  745SOL    HW1 2234   2.481   1.047   1.504  0.6009  1.2016 -1.5155
  745SOL    HW2 2235   2.463   1.210   1.471 -2.9664  0.0710 -1.0240
  746SOL     OW 2236   1.318   1.469   0.699 -0.3325  0.1083  0.0169
  746SOL    HW1 2237   1.293   1.568   0.701 -1.7861 -0.5688 -0.3407
  746SOL    HW2 2238   1.264   1.424   0.624 -0.6922  1.4632  1.7717
  747SOL     OW 2239   1.211   1.637   1.531 -0.4162 -0.6374 -0.9241
  747SOL    HW1 2240   1.217   1.672   1.629 -1.3872 -1.7076 -0.9255
  747SOL    HW2 2241   1.155   1.701   1.474  0.8633 -0.0414 -3.3475
  748SOL     OW 2242   0.305   2.772   0.080 -0.0631 -0.3526 -0.0341
  748SOL    HW1 2243   0.348   2.838   0.016  1.3694 -0.2683  1.2213
  748SOL    HW2 2244   0.337   2.677   0.057  0.5135  1.6469  0.3656
  749SOL     OW 2245   0.281   1.019   2.623 -0.3422  0.0442 -0.1448
  749SOL    HW1 2246   0.282   1.074   2.536  1.9878  1.4656  0.5682
  749SOL    HW2 2247   0.196   1.032   2.680  0.7998  0.6015  1.0160
  750SOL     OW 2248   1.677   1.028   1.832  0.2068  0.0386 -0.4352
  750SOL    HW1 2249   1.643   1.007   1.736  1.4438  0.6600 -2.3353
  750SOL    HW2 2250   1.652   0.954   1.899 -0.2522 -0.8082  0.5170
  751SOL     OW 2251   2.826   0.761   0.282  0.2609 -0.0988  0.1800
  751SOL    HW1 2252   2.785   0.676   0.244  1.3814  2.4653  1.5504
  751SOL    HW2 2253   2.746   0.802   0.335 -2.3732  1.8850  0.0587
  752SOL     OW 2254   2.792   2.811   1.329  0.4410  0.0091 -0.6016
  752SOL    HW1 2255   2.887   2.798   1.367 -0.6132 -0.3225  0.3183
  752SOL    HW2 2256   2.755   2.902   1.355 -0.0574 -0.4344 -2.7808
  753SOL     OW 2257   0.836   2.214   1.442  0.2330 -0.7533  0.0953
  753SOL    HW1 2258   0.872   2.311   1.420 -0.4468  0.6364 -2.8443
  753SOL    HW2 2259   0.750   2.210   1.498  1.4615 -0.5609  0.8959
  754SOL     OW 2260   0.110   2.892   2.104 -0.5090 -0.0330 -0.3877
  754SOL    HW1 2261   0.026   2.841   2.139 -0.6632  1.2982 -1.0177
  754SOL    HW2 2262   0.099   2.932   2.012 -0.3273  0.1909 -0.8154
  755SOL     OW 2263   2.568   0.586   0.460  0.6269 -0.0608 -0.4779
  755SOL    HW1 2264   2.615   0.577   0.373  0.3286 -0.2900  2.0512
  755SOL    HW2 2265   2.480   0.641   0.445 -2.4249  1.6214 -2.7759
  756SOL     OW 2266   2.391   2.472   2.824 -0.4932 -0.1718  0.5662
  756SOL    HW1 2267   2.447   2.541   2.772 -0.2357  1.2089 -1.3870
  756SOL    HW2 2268   2.342   2.518   2.901  1.5032  1.7776  2.7131
  757SOL     OW 2269   2.173   0.624   0.685  0.3551 -0.6761  0.0771
  757SOL    HW1 2270   2.244   0.632   0.614  0.8817  1.9519  1.9364
  757SOL    HW2 2271   2.173   0.532   0.725  2.4298  0.3464  1.0421
  758SOL     OW 2272   2.262   0.899   1.691  0.0066 -0.3187 -0.1063
  758SOL    HW1 2273   2.215   0.959   1.626 -2.1434  0.1270  0.5899
  758SOL    HW2 2274   2.361   0.905   1.688 -1.1941 -0.2131  0.8367
  759SOL     OW 2275   2.580   0.669   1.075  0.0551 -0.5356  0.3907
  759SOL    HW1 2276   2.658   0.637   1.015  2.6055 -1.5619 -1.9932
  759SOL    HW2 2277   2.494   0.671   1.021 -2.7275  0.1022 -1.9898
  760SOL     OW 2278   2.903   1.437   1.420  0.5015 -0.1654 -0.1945
  760SOL    HW1 2279   2.988   1.430   1.476 -0.0185 -0.4877  0.4448
  760SOL    HW2 2280   2.883   1.349   1.370 -0.0711  2.2965 -1.0880
  761SOL     OW 2281   1.070   0.742   0.191  0.4798  0.0371  0.7387
  761SOL    HW1 2282   1.053   0.816   0.125  1.7608  1.9215 -1.9881
  761SOL    HW2 2283   1.101   0.659   0.141  0.0180  1.5097  0.3089
  762SOL     OW 2284   0.891   1.696   1.000  0.2552 -0.2465  0.4848
  762SOL    HW1 2285   0.901   1.796   1.005  2.6540 -1.0375 -0.5998
  762SOL    HW2 2286   0.798   1.668   0.978  0.0837  0.2652  0.6334
  763SOL     OW 2287   1.031   0.748   1.383  0.1196  0.0568  0.4301
  763SOL    HW1 2288   1.032   0.789   1.475 -0.7722  1.5172  0.3272
  763SOL    HW2 2289   1.015   0.819   1.318 -2.4888 -1.2335  3.7016
  764SOL     OW 2290   0.559   2.002   2.813 -0.0130  0.0721  0.6680
  764SOL    HW1 2291   0.513   1.923   2.766  3.2984  0.9184  0.8563
  764SOL    HW2 2292   0.489   2.068   2.847  0.1475  0.1971  0.7238
  765SOL     OW 2293   0.594   2.858   1.695 -0.3174 -0.1089  0.0982
  765SOL    HW1 2294   0.646   2.817   1.775 -1.9872 -0.7821 -1.8552
  765SOL    HW2 2295   0.642   2.847   1.606 -3.8848  0.8011  1.5963
  766SOL     OW 2296   2.542   1.725   2.360 -0.5186  0.6948 -0.0168
  766SOL    HW1 2297   2.594   1.803   2.401 -0.8568 -1.8098 -2.0997
  766SOL    HW2 2298   2.604   1.646   2.344 -0.6539  0.4629  2.1076
  767SOL     OW 2299   1.440   1.171   2.428 -0.6531  0.5196  0.5091
  767SOL    HW1 2300   1.407   1.191   2.521  1.6823 -2.1145 -4.2069
  767SOL    HW2 2301   1.366   1.168   2.362  3.4795  0.2644 -0.4038
  768SOL     OW 2302   1.635   1.994   0.297 -0.4856 -0.0503 -0.7237
  768SOL    HW1 2303   1.603   1.908   0.354 -0.7630 -4.2622  1.7861
  768SOL    HW2 2304   1.726   1.981   0.253 -0.0428 -2.3760 -0.1121
  769SOL     OW 2305   0.731   1.344   0.905  0.5676  0.1535 -0.4902
  769SOL    HW1 2306   0.822   1.357   0.858  1.3358 -2.0654 -1.6484
  769SOL    HW2 2307   0.748   1.357   1.007 -1.6745 -0.1455  1.2376
  770SOL     OW 2308   1.330   0.803   2.392 -0.3366 -0.3471  0.3692
  770SOL    HW1 2309   1.419   0.823   2.442 -1.1050  1.8215  1.2226
  770SOL    HW2 2310   1.342   0.716   2.336  2.9856 -2.6089  3.2514
  771SOL     OW 2311   2.949   2.982   2.362 -0.2937 -0.0444  0.2865
  771SOL    HW1 2312   2.933   2.955   2.463 -0.1360 -2.1831  1.1485
  771SOL    HW2 2313   2.948   2.897   2.303  0.7524 -1.8327 -0.4071
  772SOL     OW 2314   2.101   1.829   2.311 -0.0352  0.5579 -0.2543
  772SOL    HW1 2315   2.032   1.865   2.249  0.7474 -0.1178 -2.1559
  772SOL    HW2 2316   2.182   1.785   2.266  0.4987  0.7152 -0.4838
  773SOL     OW 2317   0.414   1.649   1.396 -0.2379 -0.2731 -0.0440
  773SOL    HW1 2318   0.386   1.676   1.490  0.9164 -0.3725  1.9010
  773SOL    HW2 2319   0.387   1.554   1.385  0.7274  2.2141  2.6064
  774SOL     OW 2320   1.241   0.678   2.919  0.1441 -0.1187 -0.9008
  774SOL    HW1 2321   1.149   0.648   2.877 -1.4939  1.3727 -0.6404
  774SOL    HW2 2322   1.245   0.649   3.018  0.1125 -0.3683  2.4224
  775SOL     OW 2323   1.952   2.652   0.065 -0.0753 -0.1646 -0.0887
  775SOL    HW1 2324   1.863   2.607   0.053  3.9392  2.3033 -0.4343
  775SOL    HW2 2325   1.998   2.661   3.068  0.0600  0.1525 -3.0801
  776SOL     OW 2326   0.103   0.627   1.780 -0.2581  0.3959 -0.6270
  776SOL    HW1 2327   0.102   0.523   1.758 -1.4908 -0.9818 -0.7138
  776SOL    HW2 2328   0.018   0.670   1.741  2.5643  2.4546  0.9919
  777SOL     OW 2329   2.323   1.751   2.202  0.2047  0.2864  0.0567
  777SOL    HW1 2330   2.402   1.736   2.263 -2.2948 -0.7891 -2.9719
  777SOL    HW2 2331   2.346   1.819   2.131 -0.0288 -2.0040 -2.0629
  778SOL     OW 2332   1.676   1.049   2.285  0.2722  0.5729  0.2551
  778SOL    HW1 2333   1.591   1.094   2.251 -1.0751 -0.9688  1.0724
  778SOL    HW2 2334   1.758   1.072   2.232 -1.4395  2.5974  2.1381
  779SOL     OW 2335   2.937   1.089   0.032  0.3663 -0.4096  0.1371
  779SOL    HW1 2336   2.890   1.001   0.026  0.7967  3.7011  1.2252
  779SOL    HW2 2337   3.014   1.080   0.099  0.4347  1.7668  0.8380
  780SOL     OW 2338   2.256   0.231   2.475 -0.9548  0.2081  0.6558
  780SOL    HW1 2339   2.204   0.266   2.403 -1.3424  1.3146  3.2638
  780SOL    HW2 2340   2.291   0.304   2.532 -1.4215 -1.8098 -1.6547
  781SOL     OW 2341   0.039   1.837   1.675  0.4300  0.0106 -0.0329
  781SOL    HW1 2342   0.139   1.829   1.672  0.5917 -0.0309 -1.6820
  781SOL    HW2 2343   3.080   1.754   1.710  0.2151 -0.4190 -0.6812
  782SOL     OW 2344   2.686   2.085   2.797  0.0419  0.2988 -0.1611
  782SOL    HW1 2345   2.784   2.072   2.783 -1.4330  0.7670  1.2744
  782SOL    HW2 2346   2.663   2.133   2.881  1.5535 -0.1224 -1.9459
  783SOL     OW 2347   0.835   1.317   1.158 -0.1529  0.0241 -0.2675
  783SOL    HW1 2348   0.792   1.299   1.246 -0.1574  1.6597 -0.4398
  783SOL    HW2 2349   0.923   1.269   1.152 -0.3581 -1.3821 -2.3506
  784SOL     OW 2350   2.388   0.781   2.976  0.1153 -0.9811  0.1165
  784SOL    HW1 2351   2.459   0.829   2.916 -0.0785  1.2216  1.5837
  784SOL    HW2 2352   2.352   0.844   3.048 -2.8862 -1.1595  2.0205
  785SOL     OW 2353   2.144   2.505   0.797  0.3615 -0.3575  0.4291
  785SOL    HW1 2354   2.063   2.556   0.766  1.6684  1.2442  3.3922
  785SOL    HW2 2355   2.204   2.473   0.715  1.5928 -1.4816 -3.3001
  786SOL     OW 2356   0.562   2.139   2.484 -0.4867 -0.5129  0.4455
  786SOL    HW1 2357   0.638   2.113   2.423 -3.3206 -0.5460 -0.6543
  786SOL    HW2 2358   0.534   2.058   2.540 -3.8786  1.6811  0.5018
  787SOL     OW 2359   1.296   0.660   1.360  0.3426 -0.9174  0.0973
  787SOL    HW1 2360   1.196   0.680   1.373 -1.6921 -0.2317 -2.2862
  787SOL    HW2 2361   1.342   0.732   1.311  1.2730  0.2923  0.1677
  788SOL     OW 2362   0.381   0.853   0.291 -0.3436  0.2554  0.3492
  788SOL    HW1 2363   0.462   0.799   0.260 -0.4715  0.4024 -1.3388
  788SOL    HW2 2364   0.312   0.843   0.219  1.6460  1.3878  0.8549
  789SOL     OW 2365   3.014   2.159   1.280  0.2090  0.2841  0.1681
  789SOL    HW1 2366   3.007   2.074   1.334  0.5415  1.5609  1.2197
  789SOL    HW2 2367   2.941   2.156   1.210  1.6885  0.3637  2.4776
  790SOL     OW 2368   1.264   0.496   1.774 -0.0064  0.2003 -0.1856
  790SOL    HW1 2369   1.202   0.553   1.837 -0.9279 -0.2605  2.5716
  790SOL    HW2 2370   1.222   0.411   1.738  2.1774  1.8309  0.1773
  791SOL     OW 2371   1.373   0.500   0.483  0.2419  0.0668  0.0367
  791SOL    HW1 2372   1.363   0.586   0.429  0.1104  3.0904  0.4445
  791SOL    HW2 2373   1.294   0.441   0.452 -1.1314  1.7212  0.5836
  792SOL     OW 2374   1.505   2.752   1.649 -0.4542  0.8032 -0.2797
  792SOL    HW1 2375   1.403   2.732   1.662 -2.3102 -0.7679 -1.4124
  792SOL    HW2 2376   1.535   2.832   1.704 -2.2917  1.7506 -0.9914
  793SOL     OW 2377   0.625   0.020   0.644 -0.4761 -0.4085 -0.6047
  793SOL    HW1 2378   0.589   0.101   0.594 -1.4385 -0.5771 -0.5821
  793SOL    HW2 2379   0.617   3.033   0.582 -1.4221  0.8906 -0.4643
  794SOL     OW 2380   0.472   1.060   2.267  0.3439 -0.4322  0.3513
  794SOL    HW1 2381   0.557   1.103   2.239 -1.2959 -2.5009  0.3053
  794SOL    HW2 2382   0.477   0.963   2.243 -0.9862  4.9811 -0.0847
  795SOL     OW 2383   0.155   1.688   2.361 -0.1704  0.2785  0.3862
  795SOL    HW1 2384   0.062   1.714   2.329  0.2794  1.4766  1.5469
  795SOL    HW2 2385   0.158   1.587   2.376  0.2915  0.5296  0.5544
  796SOL     OW 2386   1.918   1.160   2.193  0.7682 -0.1282  0.6577
  796SOL    HW1 2387   1.928   1.136   2.091  0.3671  2.6365 -3.5849
  796SOL    HW2 2388   2.011   1.176   2.226 -0.2845  2.0916 -1.2442
  797SOL     OW 2389   3.085   3.081   2.652 -0.0462  0.4887  0.0024
  797SOL    HW1 2390   0.084   3.055   2.612  0.0895  0.8817  0.0920
  797SOL    HW2 2391   3.017   3.008   2.639  1.4793  2.3798 -1.5186
  798SOL     OW 2392   2.985   2.028   2.253 -0.0718  0.4878  0.1017
  798SOL    HW1 2393   2.895   2.066   2.214 -2.0108  0.9901 -0.2461
  798SOL    HW2 2394   3.065   2.078   2.212  0.4320  1.7855 -1.9445
  799SOL     OW 2395   0.064   2.006   0.063 -0.5231  0.0427 -0.0094
  799SOL    HW1 2396   0.007   2.080   0.090 -0.2599 -1.6409 -0.0490
  799SOL    HW2 2397   0.038   1.975   3.063 -0.1475 -0.4514  0.8477
  800SOL     OW 2398   1.277   1.748   0.672  0.4222 -0.3976  0.7108
  800SOL    HW1 2399   1.278   1.794   0.582 -0.8441 -0.7935  1.0435
  800SOL    HW2 2400   1.339   1.802   0.734  3.7564  1.9218  0.2285
  801SOL     OW 2401   2.091   0.893   0.666  0.2332 -0.2637 -0.0177
  801SOL    HW1 2402   1.995   0.914   0.694  1.4152 -2.8576 -0.0326
  801SOL    HW2 2403   2.110   0.795   0.669 -0.5053 -1.8971 -0.8664
  802SOL     OW 2404   2.818   1.279   0.200 -0.2086  0.2082 -0.0451
  802SOL    HW1 2405   2.887   1.354   0.212 -3.0600 -0.1836 -1.6727
  802SOL    HW2 2406   2.854   1.199   0.145  0.9586  0.9197  0.9588
  803SOL     OW 2407   1.501   1.808   2.995 -0.9651 -0.2461  0.6906
  803SOL    HW1 2408   1.604   1.801   2.970  2.2260 -0.4327 -1.8102
  803SOL    HW2 2409   1.472   1.902   3.010  1.7484 -2.2593 -3.0493
  804SOL     OW 2410   1.878   1.928   0.149 -0.1739  0.3350  0.2326
  804SOL    HW1 2411   1.931   1.874   0.216  2.1588 -1.8315 -0.6850
  804SOL    HW2 2412   1.939   1.947   0.071  1.2865 -0.5340 -0.6287
  805SOL     OW 2413   2.514   1.639   3.007  0.4614 -0.4120 -0.1563
  805SOL    HW1 2414   2.475   1.649   2.916  0.2379  2.0872  2.2823
  805SOL    HW2 2415   2.516   1.542   3.037  0.0514 -1.3410 -2.5717
  806SOL     OW 2416   0.703   0.169   0.347  0.0885 -0.0150 -0.5593
  806SOL    HW1 2417   0.721   0.262   0.313  3.6977 -1.0471 -2.3792
  806SOL    HW2 2418   0.790   0.121   0.357 -1.5095  0.3082 -1.1086
  807SOL     OW 2419   2.100   1.296   2.842  0.1828 -0.2279  0.2536
  807SOL    HW1 2420   2.105   1.372   2.912 -1.7351  0.0539  1.0910
  807SOL    HW2 2421   2.001   1.269   2.828 -2.7371 -0.1839  0.6313
  808SOL     OW 2422   0.026   1.634   0.423 -0.1825 -0.3001  0.1808
  808SOL    HW1 2423   0.080   1.564   0.469 -0.7115  2.2372  0.6635
  808SOL    HW2 2424   0.050   1.719   0.470 -0.7217  0.2016 -1.4460
  809SOL     OW 2425   2.595   0.862   2.826 -0.2521 -0.3124 -0.0599
  809SOL    HW1 2426   2.655   0.941   2.796  1.0034  1.4463  0.3832
  809SOL    HW2 2427   2.654   0.779   2.835  0.8723  3.2487 -2.5689
  810SOL     OW 2428   0.917   1.087   0.325 -0.5569 -0.5794  0.8207
  810SOL    HW1 2429   0.976   1.072   0.244  1.9171  1.7327 -1.1973
  810SOL    HW2 2430   0.818   1.074   0.295 -0.1063 -1.2193  1.3620
  811SOL     OW 2431   1.283   2.668   0.947  0.2007  0.3291  0.4667
  811SOL    HW1 2432   1.224   2.589   0.915 -1.9304  0.9002 -1.4835
  811SOL    HW2 2433   1.379   2.634   0.945 -0.5989  1.0636 -0.6226
  812SOL     OW 2434   0.570   2.507   1.542 -0.7643 -0.1535 -0.2548
  812SOL    HW1 2435   0.596   2.484   1.443 -1.2144  0.6853 -3.4457
  812SOL    HW2 2436   0.499   2.575   1.537  1.0826  0.2455 -0.8527
  813SOL     OW 2437   1.174   0.157   1.984 -0.0124  0.2036  0.3435
  813SOL    HW1 2438   1.258   0.192   2.025 -0.3340  1.1302  1.1876
  813SOL    HW2 2439   1.096   0.157   2.046  1.0275 -1.6254 -1.9296
  814SOL     OW 2440   1.529   2.797   2.721  0.1749  0.4301 -0.8306
  814SOL    HW1 2441   1.620   2.809   2.769  0.8646  1.8217  2.7236
  814SOL    HW2 2442   1.536   2.804   2.618  1.2741 -1.0617 -0.9171
  815SOL     OW 2443   0.440   0.425   1.627 -0.4635 -0.3104  0.0975
  815SOL    HW1 2444   0.393   0.516   1.608  1.0278  1.0980  2.2926
  815SOL    HW2 2445   0.543   0.425   1.618  2.3056  1.0428 -2.7697
  816SOL     OW 2446   2.178   0.375   2.856  0.1441  0.1238  0.5509
  816SOL    HW1 2447   2.223   0.405   2.765  0.9474  0.8437 -2.9794
  816SOL    HW2 2448   2.127   0.452   2.906 -1.9663  2.5218  1.0145
  817SOL     OW 2449   2.005   0.446   2.552  0.1621 -0.1464 -0.2803
  817SOL    HW1 2450   2.021   0.435   2.452  1.0069  1.7871 -0.9316
  817SOL    HW2 2451   2.021   0.361   2.602 -0.8934  2.6269  0.5979
  818SOL     OW 2452   2.048   0.381   0.140 -0.2331 -0.1174 -0.7435
  818SOL    HW1 2453   2.107   0.316   0.087 -0.1062 -0.8174  0.0025
  818SOL    HW2 2454   2.041   0.472   0.089 -1.0955  0.5841 -0.2932
  819SOL     OW 2455   2.311   1.879   3.075  0.0119 -0.2777  0.9900
  819SOL    HW1 2456   2.367   1.932   0.054  2.5010  0.0393 -0.9007
  819SOL    HW2 2457   2.377   1.829   3.009  1.0747 -1.9491  0.0676
  820SOL     OW 2458   0.047   1.762   0.155  0.1303 -0.4322 -0.1758
  820SOL    HW1 2459   0.087   1.740   0.251 -0.4385 -0.8267  0.9727
  820SOL    HW2 2460   0.056   1.865   0.138  2.8304  5.0832 -2.0381
  821SOL     OW 2461   0.187   2.423   1.101 -0.1573 -0.2396  0.1124
  821SOL    HW1 2462   0.170   2.324   1.078  0.4345  0.5484  0.8437
  821SOL    HW2 2463   0.232   2.444   1.190 -2.3331 -0.7137 -2.3159
  822SOL     OW 2464   2.541   2.632   2.683 -0.5130  0.0170 -0.7249
  822SOL    HW1 2465   2.492   2.722   2.707 -0.3625 -0.5506  1.8600
  822SOL    HW2 2466   2.551   2.616   2.584 -0.3328  3.0367  1.2235
  823SOL     OW 2467   1.700   0.193   2.401 -0.0796  0.5644 -1.1648
  823SOL    HW1 2468   1.604   0.162   2.400  0.5903 -1.7150 -0.1340
  823SOL    HW2 2469   1.710   0.288   2.440  1.9644 -2.6756 -1.5324
  824SOL     OW 2470   2.773   1.846   1.516 -0.3739 -0.0021  0.0912
  824SOL    HW1 2471   2.711   1.926   1.483  1.1370  0.1136  1.3926
  824SOL    HW2 2472   2.872   1.864   1.485 -0.7053  1.5741 -0.6019
  825SOL     OW 2473   2.597   1.854   2.658  0.6530 -0.0688  0.4567
  825SOL    HW1 2474   2.611   1.925   2.726  0.3325 -2.1780 -0.9632
  825SOL    HW2 2475   2.657   1.863   2.579  0.1102  0.5481  2.8705
  826SOL     OW 2476   2.297   1.315   2.104 -0.0941  0.0990  0.1581
  826SOL    HW1 2477   2.252   1.254   2.171 -1.5799 -2.9504 -1.1947
  826SOL    HW2 2478   2.391   1.350   2.134  1.3444 -1.9200 -0.6506
  827SOL     OW 2479   2.069   2.082   1.244  0.3404  0.4553 -0.3550
  827SOL    HW1 2480   2.027   2.169   1.225  1.9397 -1.0894 -0.6220
  827SOL    HW2 2481   2.024   2.039   1.325  0.1931 -2.3225  1.4554
  828SOL     OW 2482   2.651   2.747   1.626  0.0299  0.2007  0.3199
  828SOL    HW1 2483   2.602   2.677   1.574  2.1528 -0.4391  0.7308
  828SOL    HW2 2484   2.591   2.795   1.693 -0.3936  0.0396  1.9766
  829SOL     OW 2485   1.679   2.449   2.578 -0.0602 -0.0832  0.2117
  829SOL    HW1 2486   1.592   2.407   2.606 -0.6368 -1.5885 -2.5318
  829SOL    HW2 2487   1.734   2.375   2.531  2.0505  1.1043 -1.9799
  830SOL     OW 2488   1.501   0.529   0.738 -0.3655  0.0979  0.0620
  830SOL    HW1 2489   1.442   0.506   0.658 -2.3249  0.1103  1.4736
  830SOL    HW2 2490   1.497   0.461   0.815 -0.7430 -4.1324  2.7714
  831SOL     OW 2491   2.509   1.373   3.069 -0.1702 -0.3249  0.0956
  831SOL    HW1 2492   2.511   1.335   0.072  0.9112 -0.0014  0.7221
  831SOL    HW2 2493   2.549   1.308   2.998  0.3619 -3.0087  0.0096
  832SOL     OW 2494   1.652   1.876   1.942 -0.3477  0.4051 -0.1421
  832SOL    HW1 2495   1.616   1.781   1.930  3.7764  1.8277 -1.0847
  832SOL    HW2 2496   1.748   1.876   1.987  0.0500  0.3989  0.0465
  833SOL     OW 2497   2.969   2.744   2.210  0.4373  0.0056 -0.0106
  833SOL    HW1 2498   2.982   2.644   2.225 -0.9710 -0.0170  0.3576
  833SOL    HW2 2499   2.881   2.765   2.159  0.9586  0.9597 -1.5783
  834SOL     OW 2500   0.735   0.990   1.642  0.1753  0.2827  0.0571
  834SOL    HW1 2501   0.797   1.058   1.681 -0.8322 -1.6520  0.4218
  834SOL    HW2 2502   0.750   0.986   1.540  0.5199 -2.9070 -2.6677
  835SOL     OW 2503   3.040   0.887   2.590  0.2564  0.4685 -0.0047
  835SOL    HW1 2504   3.024   0.802   2.533 -0.4868 -0.3594 -3.3857
  835SOL    HW2 2505   2.980   0.957   2.563  5.9365 -1.8325 -0.0369
  836SOL     OW 2506   1.215   2.064   0.997 -0.1636 -0.2141  0.0744
  836SOL    HW1 2507   1.210   2.120   1.081  0.3630 -0.1154  0.1490
  836SOL    HW2 2508   1.243   1.971   1.019 -0.3618  1.6340  2.1128
  837SOL     OW 2509   1.824   1.008   1.153  0.0021 -0.0713 -0.2717
  837SOL    HW1 2510   1.894   1.076   1.116 -1.4758  2.8126 -2.2641
  837SOL    HW2 2511   1.773   1.051   1.227  0.7420  0.0665 -1.4277
  838SOL     OW 2512   1.303   1.687   2.499  0.0868  0.1976 -0.3082
  838SOL    HW1 2513   1.254   1.615   2.449  1.7832  1.3141 -0.9480
  838SOL    HW2 2514   1.250   1.731   2.573 -0.8474  1.8397 -2.2483
  839SOL     OW 2515   0.817   2.104   2.841 -0.0713  0.4123 -0.5357
  839SOL    HW1 2516   0.726   2.068   2.833  2.1213  0.1212 -2.6373
  839SOL    HW2 2517   0.811   2.196   2.882  0.0026 -1.2766 -0.3706
  840SOL     OW 2518   0.446   2.551   0.048  0.0141  0.1889  0.0303
  840SOL    HW1 2519   0.399   2.465   0.024 -0.8192  1.5642 -0.5424
  840SOL    HW2 2520   0.517   2.579   3.074 -1.1661 -1.5373 -0.2614
  841SOL     OW 2521   1.918   2.309   0.181 -0.2213 -0.8118 -0.1596
  841SOL    HW1 2522   1.978   2.277   0.106 -0.2252 -1.3370  1.3721
  841SOL    HW2 2523   1.837   2.355   0.144 -1.0160 -0.0912 -1.3059
  842SOL     OW 2524   0.990   0.724   2.783  0.0084 -0.0303 -0.9113
  842SOL    HW1 2525   0.965   0.784   2.868 -1.0443 -0.3501 -0.4210
  842SOL    HW2 2526   1.023   0.785   2.711 -0.4192  1.0270  0.5268
  843SOL     OW 2527   0.995   2.807   0.593  0.0344 -0.2348  0.0343
  843SOL    HW1 2528   1.012   2.863   0.506 -2.0708 -0.3694 -0.7230
  843SOL    HW2 2529   0.999   2.871   0.672  1.0217 -0.1184 -0.6984
  844SOL     OW 2530   2.279   3.050   2.472  0.3493  0.4049  0.0860
  844SOL    HW1 2531   2.264   0.058   2.458  0.5434  0.3413 -0.4132
  844SOL    HW2 2532   2.236   3.011   2.562  1.5325 -1.0709  2.2242
  845SOL     OW 2533   2.506   2.563   1.496 -0.0415  0.2138 -0.1235
  845SOL    HW1 2534   2.424   2.506   1.488  0.0891  2.0470  1.7675
  845SOL    HW2 2535   2.539   2.599   1.406 -1.2284  0.4734 -0.3776
  846SOL     OW 2536   2.999   2.009   2.731 -0.1852 -0.1746  0.0116
  846SOL    HW1 2537   3.016   2.110   2.736  0.0560  1.5980  1.3249
  846SOL    HW2 2538   3.056   1.961   2.658  0.8400  2.1011 -1.2291
  847SOL     OW 2539   1.419   0.674   1.613  0.0802  0.1173  0.1450
  847SOL    HW1 2540   1.385   0.662   1.515  0.5483 -1.9204 -1.3108
  847SOL    HW2 2541   1.367   0.612   1.674 -1.5074  0.3787 -1.4115
  848SOL     OW 2542   2.809   0.268   0.234 -0.1650 -0.1209 -0.2233
  848SOL    HW1 2543   2.832   0.246   0.139 -2.6232  1.4601  0.4052
  848SOL    HW2 2544   2.890   0.234   0.292  1.6754  0.8724 -1.2981
  849SOL     OW 2545   0.563   0.046   2.888  0.2484  0.2107  0.2086
  849SOL    HW1 2546   0.661   0.039   2.880 -1.3481  0.2432 -0.4603
  849SOL    HW2 2547   0.532   0.107   2.967  0.7146  1.7812  2.8415
  850SOL     OW 2548   0.882   2.467   0.904  0.5142 -0.0382 -0.0978
  850SOL    HW1 2549   0.886   2.364   0.895 -0.5321  0.5682  0.2233
  850SOL    HW2 2550   0.890   2.510   0.810  2.6779 -0.5270 -1.2199
  851SOL     OW 2551   2.502   0.151   2.180  0.1721 -0.1014  0.4706
  851SOL    HW1 2552   2.572   0.169   2.108  0.6427 -0.0896 -0.8118
  851SOL    HW2 2553   2.497   0.227   2.244 -0.2446 -0.6364  0.7143
  852SOL     OW 2554   1.813   1.392   2.320  0.5076 -0.3599 -0.2405
  852SOL    HW1 2555   1.722   1.389   2.368  2.3098  0.1578  1.5140
  852SOL    HW2 2556   1.831   1.302   2.273 -1.5642 -1.7236 -2.0488
  853SOL     OW 2557   2.760   2.626   0.753 -0.6725 -0.0814 -0.2721
  853SOL    HW1 2558   2.828   2.567   0.807  1.2502 -1.3857  0.9303
  853SOL    HW2 2559   2.731   2.701   0.820 -0.3189  0.8837  1.3956
  854SOL     OW 2560   2.292   0.877   1.053  0.2860 -0.0486 -0.4219
  854SOL    HW1 2561   2.344   0.858   0.967  1.1036 -2.2272 -0.6026
  854SOL    HW2 2562   2.224   0.805   1.069 -2.4074  3.1326  0.0232
  855SOL     OW 2563   1.413   2.158   0.575  0.1329  0.3150 -0.3116
  855SOL    HW1 2564   1.391   2.152   0.477  0.2603 -1.8572  1.9314
  855SOL    HW2 2565   1.495   2.218   0.583  3.1017  1.5016 -0.2347
  856SOL     OW 2566   2.958   0.511   2.809 -0.3162 -0.1251 -0.1723
  856SOL    HW1 2567   2.970   0.485   2.712 -1.1173 -1.1103  0.7976
  856SOL    HW2 2568   3.010   0.447   2.874 -1.4160 -2.1194  1.1552
  857SOL     OW 2569   1.624   2.961   1.803 -0.2000 -0.1571 -0.3253
  857SOL    HW1 2570   1.715   2.915   1.813 -0.9778 -1.0624  0.0069
  857SOL    HW2 2571   1.589   3.015   1.880  0.2595 -0.7020 -2.8149
  858SOL     OW 2572   2.419   2.046   1.587  0.2539 -0.0483 -0.0365
  858SOL    HW1 2573   2.501   2.044   1.531 -0.1819  0.6736 -0.0795
  858SOL    HW2 2574   2.357   1.970   1.576 -0.3014  2.7404  0.6354
  859SOL     OW 2575   1.410   2.306   1.114 -0.2246 -0.1272 -0.6808
  859SOL    HW1 2576   1.315   2.280   1.143 -0.3708  1.4563  1.9381
  859SOL    HW2 2577   1.451   2.379   1.171  1.7383  1.9077 -0.0216
  860SOL     OW 2578   2.522   2.559   0.164  0.3923  0.1411 -0.0655
  860SOL    HW1 2579   2.592   2.609   0.108 -1.2912 -0.0947  0.5476
  860SOL    HW2 2580   2.528   2.460   0.147 -0.3924 -0.2269 -1.5434
  861SOL     OW 2581   1.526   2.500   0.969 -0.1585  0.4883  0.3170
  861SOL    HW1 2582   1.498   2.406   1.000 -1.4880  0.5657 -2.1097
  861SOL    HW2 2583   1.612   2.536   1.018  0.6335 -2.9607  0.6088
  862SOL     OW 2584   1.890   2.943   2.541  0.3050  0.4156  0.0994
  862SOL    HW1 2585   1.963   2.886   2.497  0.4229  0.3358  0.6821
  862SOL    HW2 2586   1.911   3.044   2.537  0.8093 -0.7367  1.4718
  863SOL     OW 2587   0.173   0.720   0.459 -0.8064  0.0908 -0.0946
  863SOL    HW1 2588   0.204   0.698   0.551 -1.2528 -0.3093  1.1362
  863SOL    HW2 2589   0.256   0.738   0.402  3.0970  0.3888 -3.4535
  864SOL     OW 2590   2.846   2.385   2.097 -0.3011 -0.0016 -0.4958
  864SOL    HW1 2591   2.939   2.408   2.125 -0.6613 -2.1027 -1.5364
  864SOL    HW2 2592   2.778   2.433   2.155  0.5407  0.0341  0.4164
  865SOL     OW 2593   0.152   1.967   2.886 -0.1216 -0.9057 -0.0705
  865SOL    HW1 2594   0.087   1.976   2.806 -0.9432  0.7430  1.8228
  865SOL    HW2 2595   0.228   2.033   2.878 -0.4672 -0.8765 -2.6368
  866SOL     OW 2596   2.581   0.502   2.771  0.2787  0.1589 -0.0037
  866SOL    HW1 2597   2.626   0.413   2.753  0.0613  2.4235  1.7186
  866SOL    HW2 2598   2.606   0.549   2.856 -1.2344 -2.4027 -3.5270
  867SOL     OW 2599   0.346   2.782   2.766 -0.0443  0.4019  0.6114
  867SOL    HW1 2600   0.374   2.847   2.840 -0.7467  0.9864  0.1914
  867SOL    HW2 2601   0.306   2.833   2.686 -1.6109  1.7420 -0.2542
  868SOL     OW 2602   1.413   2.515   0.719 -0.2734  0.4093  0.3364
  868SOL    HW1 2603   1.481   2.534   0.798  1.5356 -0.3660  1.3295
  868SOL    HW2 2604   1.336   2.445   0.736 -0.9487 -0.5757  0.9965
  869SOL     OW 2605   1.506   1.439   1.132 -0.0749 -0.1241 -0.2075
  869SOL    HW1 2606   1.579   1.411   1.065  0.8360  3.4471 -2.1642
  869SOL    HW2 2607   1.545   1.437   1.229  2.9196 -3.0171  0.1719
  870SOL     OW 2608   1.766   2.123   1.074 -0.1647 -0.2700  0.0939
  870SOL    HW1 2609   1.805   2.205   1.114  0.5595 -2.0672  2.2684
  870SOL    HW2 2610   1.736   2.065   1.151 -0.1660 -1.7748 -3.0908
  871SOL     OW 2611   1.092   1.796   1.322 -0.2816 -0.0881 -0.4361
  871SOL    HW1 2612   1.022   1.725   1.313  2.7848  0.2195  0.8695
  871SOL    HW2 2613   1.153   1.804   1.237  1.4808 -0.5941 -1.2069
  872SOL     OW 2614   1.239   1.325   1.162  0.7550  0.3693 -0.2177
  872SOL    HW1 2615   1.173   1.356   1.234 -0.8141 -0.5583 -0.0877
  872SOL    HW2 2616   1.326   1.383   1.163  0.3827 -0.4859  2.3048
  873SOL     OW 2617   1.115   0.896   2.238  0.0425  0.3247 -0.5642
  873SOL    HW1 2618   1.038   0.928   2.302 -0.2302  1.6618  0.0368
  873SOL    HW2 2619   1.195   0.875   2.295  0.1192  2.5798 -1.1151
  874SOL     OW 2620   0.288   1.166   1.157 -0.5702 -0.4841 -0.4971
  874SOL    HW1 2621   0.195   1.210   1.167  1.4751  1.4983 -0.6401
  874SOL    HW2 2622   0.346   1.211   1.085  1.9839 -2.7519 -0.4115
  875SOL     OW 2623   2.760   2.763   0.513 -0.1594 -0.1786  0.2142
  875SOL    HW1 2624   2.747   2.699   0.590  0.7379 -0.9196 -0.1302
  875SOL    HW2 2625   2.676   2.815   0.486  2.4618 -1.9908 -4.9457
  876SOL     OW 2626   1.130   0.360   2.870  0.0310 -0.3700 -0.0322
  876SOL    HW1 2627   1.145   0.264   2.841  3.4298  0.4206 -0.1837
  876SOL    HW2 2628   1.047   0.403   2.831  1.4551 -1.3820 -0.6283
  877SOL     OW 2629   0.196   2.930   1.358  0.2679  0.6042 -0.0432
  877SOL    HW1 2630   0.232   3.022   1.378  1.5060 -2.8158  1.3863
  877SOL    HW2 2631   0.172   2.916   1.257 -2.0078 -1.2155 -1.4245
  878SOL     OW 2632   2.088   2.650   2.931 -0.1162  0.1071 -0.7975
  878SOL    HW1 2633   2.089   2.653   2.834  1.2551  2.0869  5.7353
  878SOL    HW2 2634   2.183   2.654   2.981  1.0740 -1.0123  2.6576
  879SOL     OW 2635   2.341   1.750   1.854  0.0716 -0.2738 -0.8722
  879SOL    HW1 2636   2.411   1.738   1.782  1.3628 -0.4428  1.6102
  879SOL    HW2 2637   2.329   1.656   1.898 -0.5981  0.5425  2.7848
  880SOL     OW 2638   0.749   0.980   1.365  0.3730  0.0186  0.1050
  880SOL    HW1 2639   0.837   0.982   1.315 -4.2419 -1.4398 -1.4483
  880SOL    HW2 2640   0.696   0.899   1.338  0.4212  0.4583 -0.2331
  881SOL     OW 2641   1.098   1.733   2.966 -0.1881  0.2822  0.5990
  881SOL    HW1 2642   1.122   1.813   2.914  1.1207 -0.8344  0.9550
  881SOL    HW2 2643   1.184   1.692   2.999 -3.3348  1.9823  1.1271
  882SOL     OW 2644   1.815   0.413   0.801 -0.1158 -0.4550  0.4180
  882SOL    HW1 2645   1.828   0.512   0.826 -1.2244  0.8888  0.3188
  882SOL    HW2 2646   1.760   0.365   0.877 -0.9875  1.0465 -0.4943
  883SOL     OW 2647   1.900   0.579   2.154 -0.7331  0.2909  0.0068
  883SOL    HW1 2648   1.869   0.666   2.194  1.0654 -1.4231 -2.3886
  883SOL    HW2 2649   1.854   0.575   2.062  1.3438  0.9936  1.3085
  884SOL     OW 2650   2.705   0.517   0.215  0.0166 -0.5184  0.5459
  884SOL    HW1 2651   2.740   0.421   0.220  1.2631  2.6274  0.0725
  884SOL    HW2 2652   2.655   0.525   0.131  0.5787 -2.5187  1.3718
  885SOL     OW 2653   0.787   1.791   0.598  0.5000  1.0963 -0.2822
  885SOL    HW1 2654   0.772   1.890   0.600  0.4307  2.2464 -1.4696
  885SOL    HW2 2655   0.871   1.766   0.642 -3.4878 -0.7192 -2.2879
  886SOL     OW 2656   1.780   1.479   0.207  0.4212 -0.4016  0.2027
  886SOL    HW1 2657   1.705   1.429   0.263 -1.4984 -1.0404 -0.3378
  886SOL    HW2 2658   1.804   1.565   0.254 -1.0484 -1.3724  0.4620
  887SOL     OW 2659   1.658   0.511   1.582  0.6093 -0.0563  0.3865
  887SOL    HW1 2660   1.648   0.413   1.557 -0.6746  0.6139  0.8129
  887SOL    HW2 2661   1.567   0.556   1.593  0.2466  0.6584  0.7877
  888SOL     OW 2662   2.759   1.195   1.571  0.0654 -0.8036 -0.2074
  888SOL    HW1 2663   2.698   1.188   1.494 -2.2030 -1.8142  1.7486
  888SOL    HW2 2664   2.707   1.210   1.660 -1.0053 -0.3601 -1.1456
  889SOL     OW 2665   2.962   2.488   0.858 -0.1204  0.6072  0.6178
  889SOL    HW1 2666   3.027   2.553   0.809  0.1243 -0.7074  0.0452
  889SOL    HW2 2667   2.990   2.485   0.955  1.2655  1.0259 -0.4231
  890SOL     OW 2668   0.160   2.105   2.295  0.5540  0.2071 -0.4449
  890SOL    HW1 2669   0.226   2.038   2.331 -1.4208 -0.6371  0.3795
  890SOL    HW2 2670   0.167   2.118   2.193  0.5148  1.8320 -1.9147
  891SOL     OW 2671   0.729   1.776   0.314 -0.2371 -0.2513  0.5377
  891SOL    HW1 2672   0.801   1.844   0.328  1.3518 -0.6614  0.5883
  891SOL    HW2 2673   0.748   1.697   0.373  0.6889 -0.2918  2.2803
  892SOL     OW 2674   2.901   2.400   1.356  0.1892  0.5290  0.4080
  892SOL    HW1 2675   2.963   2.446   1.422  0.5713 -0.0946  1.0389
  892SOL    HW2 2676   2.934   2.308   1.328 -0.8292  0.5632 -0.4868
  893SOL     OW 2677   2.979   0.164   1.659  0.2007  0.5353  0.0181
  893SOL    HW1 2678   2.956   0.167   1.756 -3.6756  0.3438 -3.6150
  893SOL    HW2 2679   2.962   0.074   1.607 -1.2590 -3.1627 -1.8686
  894SOL     OW 2680   2.736   1.817   0.718 -0.1286 -0.8302 -0.7543
  894SOL    HW1 2681   2.781   1.754   0.649 -1.3901  0.7648 -0.1622
  894SOL    HW2 2682   2.785   1.905   0.731 -2.0120  0.1896 -1.2006
  895SOL     OW 2683   1.957   2.473   1.638  0.0768  0.5270 -0.0532
  895SOL    HW1 2684   2.049   2.482   1.686  2.6191  0.7971  0.9305
  895SOL    HW2 2685   1.930   2.559   1.589 -0.2820 -2.6449  0.5357
  896SOL     OW 2686   0.683   0.003   1.437  0.0261  0.4475  0.0809
  896SOL    HW1 2687   0.624   0.031   1.358 -2.9506 -1.1559 -0.7327
  896SOL    HW2 2688   0.645   0.029   1.531 -3.4184 -1.8976  1.9817
  897SOL     OW 2689   1.136   1.196   1.584 -0.2487 -0.0976 -0.3550
  897SOL    HW1 2690   1.104   1.104   1.571 -0.0870  0.3287 -1.4881
  897SOL    HW2 2691   1.234   1.206   1.574 -3.2806  1.7914 -2.1793
  898SOL     OW 2692   1.170   0.031   1.601  0.0141  0.1734 -0.1495
  898SOL    HW1 2693   1.089   3.068   1.601  2.0238  4.1399  0.3855
  898SOL    HW2 2694   1.242   3.085   1.542 -0.9631  1.5881 -0.2029
  899SOL     OW 2695   1.361   0.298   3.026  0.2283 -0.3930  0.2807
  899SOL    HW1 2696   1.444   0.278   2.975 -1.9050 -1.9440  1.2216
  899SOL    HW2 2697   1.275   0.248   2.990 -2.3724 -3.0615 -2.3552
  900SOL     OW 2698   0.736   0.002   2.092 -0.5901 -0.5525 -0.4923
  900SOL    HW1 2699   0.779   0.014   2.002 -0.5870 -0.1715 -1.2200
  900SOL    HW2 2700   0.708   0.093   2.141 -1.3011  1.9170  2.1192
  901SOL     OW 2701   0.853   2.169   0.456  0.1914  0.0677  0.2890
  901SOL    HW1 2702   0.916   2.220   0.515  0.4438 -0.8764 -1.8910
  901SOL    HW2 2703   0.890   2.084   0.411 -1.9577 -1.1394 -0.4454
  902SOL     OW 2704   2.094   0.645   1.021 -0.0263 -0.0558 -0.8209
  902SOL    HW1 2705   2.019   0.708   1.009 -0.4294  0.0228  1.7532
  902SOL    HW2 2706   2.064   0.549   1.049  1.0417 -0.7541  2.2022
  903SOL     OW 2707   2.763   1.119   2.742 -0.1091  0.3372  0.3673
  903SOL    HW1 2708   2.815   1.201   2.767 -3.5897 -1.1070  0.5596
  903SOL    HW2 2709   2.781   1.088   2.645  2.9192 -0.0049 -0.3947
  904SOL     OW 2710   1.396   1.228   0.091 -1.3890 -0.3687 -0.5261
  904SOL    HW1 2711   1.422   1.143   0.047  1.2414  1.3125  3.1394
  904SOL    HW2 2712   1.338   1.285   0.028  1.8454 -1.4507  2.0167
  905SOL     OW 2713   1.775   0.028   1.563 -0.0401 -0.5015 -0.6345
  905SOL    HW1 2714   1.810   3.036   1.613  1.3742  1.5860 -0.7494
  905SOL    HW2 2715   1.852   0.080   1.520 -3.4026 -2.0070  1.7638
  906SOL     OW 2716   2.198   2.900   1.254  0.2203 -0.4453  0.3129
  906SOL    HW1 2717   2.268   2.953   1.307  1.0085 -0.3344  0.6230
  906SOL    HW2 2718   2.218   2.901   1.154 -2.1092 -0.6150 -2.6950
  907SOL     OW 2719   1.773   0.993   0.442 -0.2395  0.1774  0.7021
  907SOL    HW1 2720   1.722   0.906   0.429 -0.5411  1.3885  0.2179
  907SOL    HW2 2721   1.824   1.019   0.356 -0.9455  2.8586 -0.3393
  908SOL     OW 2722   1.812   0.338   1.287 -0.1202 -0.1844  0.0098
  908SOL    HW1 2723   1.731   0.306   1.341  0.0691 -1.5152 -0.5009
  908SOL    HW2 2724   1.821   0.436   1.319  0.5228 -0.2378  0.4127
  909SOL     OW 2725   2.204   0.106   0.944 -0.1503  0.2494 -0.0334
  909SOL    HW1 2726   2.143   0.095   1.025 -0.6414  0.1101  1.4729
  909SOL    HW2 2727   2.254   0.194   0.960 -0.3664  0.5676  1.9720
  910SOL     OW 2728   2.387   0.562   2.038 -0.1533  0.4231 -0.7040
  910SOL    HW1 2729   2.442   0.636   2.073 -2.5875 -0.1285 -1.1750
  910SOL    HW2 2730   2.287   0.586   2.033 -1.6676 -0.0441 -0.1469
  911SOL     OW 2731   2.609   0.128   2.954 -0.0753 -0.6812  0.3127
  911SOL    HW1 2732   2.546   0.162   3.025  1.9791  0.7303  0.2347
  911SOL    HW2 2733   2.617   0.190   2.873  0.3044 -1.2652 -2.6934
  912SOL     OW 2734   0.523   1.126   1.815 -0.8353  0.8900  0.5397
  912SOL    HW1 2735   0.596   1.089   1.753 -0.1077  0.3506  2.4279
  912SOL    HW2 2736   0.568   1.197   1.875 -2.3846 -1.2748 -3.2698
  913SOL     OW 2737   2.674   2.321   1.494  0.3954  0.4270 -0.0447
  913SOL    HW1 2738   2.761   2.346   1.450 -1.3590  0.2712  0.9450
  913SOL    HW2 2739   2.610   2.397   1.487  3.3073 -1.1194 -1.1110
  914SOL     OW 2740   1.903   0.929   1.517 -0.8069 -0.3026 -0.2906
  914SOL    HW1 2741   1.983   0.991   1.539  1.3992  2.1412  2.0077
  914SOL    HW2 2742   1.931   0.862   1.444 -0.7784  1.0706 -0.7943
  915SOL     OW 2743   2.815   1.332   0.983  0.3312  0.1649 -0.1288
  915SOL    HW1 2744   2.830   1.422   0.938  1.2658 -2.3216  1.2086
  915SOL    HW2 2745   2.877   1.265   0.946  0.3722 -1.7803  1.6501
  916SOL     OW 2746   1.942   2.310   1.196 -0.1128 -0.4808  0.7808
  916SOL    HW1 2747   1.929   2.389   1.254  0.8637 -1.5028  1.0747
  916SOL    HW2 2748   1.947   2.339   1.092 -3.6305  1.8796 -2.4870
  917SOL     OW 2749   1.676   2.634   2.104  0.0787  0.5163  0.3015
  917SOL    HW1 2750   1.639   2.642   2.196  0.4110  0.2753 -2.6317
  917SOL    HW2 2751   1.603   2.645   2.036  0.1373  0.4500 -1.8056
  918SOL     OW 2752   2.024   2.466   2.347  0.6366  0.5396 -0.2426
  918SOL    HW1 2753   2.004   2.465   2.246 -0.1226  1.5066 -4.3397
  918SOL    HW2 2754   1.954   2.417   2.398 -0.7831  0.6480  0.7916
  919SOL     OW 2755   0.943   0.098   1.423 -0.0565 -0.1944  0.5774
  919SOL    HW1 2756   0.840   0.074   1.428 -2.0332  0.9383 -1.4600
  919SOL    HW2 2757   0.956   0.193   1.466  0.5678  0.4613  0.8905
  920SOL     OW 2758   2.742   0.467   2.230  0.2139  0.1547 -0.5474
  920SOL    HW1 2759   2.644   0.461   2.244  1.5177  1.2211 -0.3551
  920SOL    HW2 2760   2.787   0.393   2.280 -3.5188  0.3907 -0.8304
  921SOL     OW 2761   3.000   1.107   1.642 -0.0991  0.6350 -0.2419
  921SOL    HW1 2762   2.996   1.012   1.610 -0.1687 -0.5076 -1.8649
  921SOL    HW2 2763   2.915   1.154   1.603  1.3135 -0.3386 -0.3639
  922SOL     OW 2764   2.513   2.349   0.933 -0.2544  0.4208 -0.0258
  922SOL    HW1 2765   2.448   2.419   0.912  0.4494  0.5364  0.9183
  922SOL    HW2 2766   2.586   2.365   1.003  0.2073  0.7636 -1.7868
  923SOL     OW 2767   0.493   2.387   0.689  0.2931  0.6098  0.3518
  923SOL    HW1 2768   0.521   2.293   0.668  0.0926  0.4261 -2.3770
  923SOL    HW2 2769   0.557   2.427   0.757  0.5515  1.9895 -0.0299
  924SOL     OW 2770   1.124   0.862   2.568 -0.1687  0.5766 -0.2745
  924SOL    HW1 2771   1.142   0.956   2.599 -0.0162  0.3770 -0.4996
  924SOL    HW2 2772   1.207   0.822   2.524 -1.0886  1.3667 -2.0300
  925SOL     OW 2773   2.709   1.449   0.521 -0.2341  0.0867 -0.6461
  925SOL    HW1 2774   2.658   1.479   0.603 -1.2488  1.6092 -0.5861
  925SOL    HW2 2775   2.645   1.381   0.472  1.7719  1.0994  1.3201
  926SOL     OW 2776   3.056   0.048   0.823 -0.0372 -0.2945  0.6340
  926SOL    HW1 2777   0.057   0.082   0.809  0.5276  1.6614 -1.0789
  926SOL    HW2 2778   3.049   0.007   0.912  0.8103  3.6499 -4.1122
  927SOL     OW 2779   0.440   1.817   2.617  0.2452 -0.1754  0.4441
  927SOL    HW1 2780   0.402   1.733   2.662 -1.7898 -0.7246 -0.9630
  927SOL    HW2 2781   0.387   1.849   2.538  0.2592 -0.2101  2.0143
  928SOL     OW 2782   0.053   0.509   2.030  0.2763  0.3539 -0.9024
  928SOL    HW1 2783   0.063   0.418   2.068 -5.0997  2.9391 -0.2100
  928SOL    HW2 2784   0.056   0.508   1.931  1.1512 -0.8243 -1.2513
  929SOL     OW 2785   2.820   2.183   1.120  1.0156 -0.4020  0.2044
  929SOL    HW1 2786   2.830   2.194   1.021  1.8133  0.5396  1.8159
  929SOL    HW2 2787   2.765   2.261   1.157 -3.5688  1.3870 -1.2679
  930SOL     OW 2788   2.099   0.442   2.281  0.0276 -0.1585 -0.1457
  930SOL    HW1 2789   2.021   0.489   2.231 -1.5000  0.0481  2.4105
  930SOL    HW2 2790   2.115   0.342   2.254  3.0976 -1.6811 -0.3824
  931SOL     OW 2791   2.284   1.086   2.879  0.0359  0.0880  0.5184
  931SOL    HW1 2792   2.235   1.168   2.866  0.8798 -3.6680  2.4371
  931SOL    HW2 2793   2.235   1.026   2.944  1.7368  1.4301  0.1677
  932SOL     OW 2794   1.911   1.232   0.723 -0.1462  0.4775  0.0876
  932SOL    HW1 2795   1.883   1.133   0.716  0.2551  0.2286 -0.3733
  932SOL    HW2 2796   1.885   1.283   0.639 -2.3288  0.3008  1.4826
  933SOL     OW 2797   2.306   1.660   0.989 -0.2866 -0.2662  0.3756
  933SOL    HW1 2798   2.207   1.649   1.004 -0.2233 -0.4109 -0.8205
  933SOL    HW2 2799   2.339   1.619   0.900 -0.2444  1.8472 -1.9759
  934SOL     OW 2800   2.130   0.837   2.905 -0.3947 -0.1185 -0.2822
  934SOL    HW1 2801   2.090   0.809   2.817 -0.0025  2.1654  2.5709
  934SOL    HW2 2802   2.225   0.805   2.907 -0.8933  1.9832 -2.2769
  935SOL     OW 2803   0.131   1.426   0.565  0.0330 -0.4159 -0.5955
  935SOL    HW1 2804   0.200   1.352   0.569 -0.7291  1.2215  2.4711
  935SOL    HW2 2805   0.036   1.391   0.546 -2.1300  1.1958 -1.3065
  936SOL     OW 2806   0.067   2.630   0.762 -0.1294 -0.2813  0.5929
  936SOL    HW1 2807   0.108   2.722   0.744  1.5710 -1.2360  0.2400
  936SOL    HW2 2808   0.139   2.564   0.794  0.1981  0.6237 -0.8383
  937SOL     OW 2809   0.160   2.315   1.712  0.4432  0.4905 -0.0168
  937SOL    HW1 2810   0.165   2.285   1.614  1.9747  0.4221  1.0611
  937SOL    HW2 2811   0.195   2.239   1.772 -1.1166 -3.3849  1.4405
  938SOL     OW 2812   2.772   2.030   0.037  0.1396  0.1997 -0.1592
  938SOL    HW1 2813   2.830   2.111   0.039 -0.7905  0.7518 -1.1410
  938SOL    HW2 2814   2.825   1.945   0.018 -1.7341 -1.0396  1.0672
  939SOL     OW 2815   0.983   0.925   1.204  0.4505  0.0192  0.0655
  939SOL    HW1 2816   1.028   0.999   1.154 -1.1013 -3.4124 -1.0759
  939SOL    HW2 2817   0.962   0.851   1.136 -0.6510  0.7957  1.5914
  940SOL     OW 2818   2.696   0.250   2.733 -0.3123  0.0044  0.1685
  940SOL    HW1 2819   2.648   0.168   2.700  2.3406  1.4940 -0.4747
  940SOL    HW2 2820   2.793   0.241   2.698  0.7402 -1.2761  1.7206
  941SOL     OW 2821   2.560   2.572   2.425 -0.3100 -0.1374  0.9192
  941SOL    HW1 2822   2.586   2.569   2.327 -0.3028 -0.6745 -0.6747
  941SOL    HW2 2823   2.458   2.561   2.435 -2.0657  1.7494  0.4324
  942SOL     OW 2824   1.298   0.389   1.254 -0.3750 -0.5501  0.0295
  942SOL    HW1 2825   1.313   0.399   1.150  0.9339 -0.9235 -2.1984
  942SOL    HW2 2826   1.320   0.480   1.295  0.3557 -2.2333  0.1141
  943SOL     OW 2827   0.652   1.454   2.449  0.0414 -0.1111 -0.3883
  943SOL    HW1 2828   0.615   1.457   2.355  0.6404  1.2629 -0.0513
  943SOL    HW2 2829   0.665   1.552   2.482 -1.2100 -0.1644 -2.2476
  944SOL     OW 2830   2.284   1.069   0.712 -0.1889 -0.1129  0.0741
  944SOL    HW1 2831   2.200   1.006   0.698 -2.2080 -0.7322 -0.1186
  944SOL    HW2 2832   2.254   1.165   0.723  2.7982 -0.1290 -0.8911
  945SOL     OW 2833   3.003   3.087   2.924  0.1723  0.4591 -0.5147
  945SOL    HW1 2834   3.004   0.007   2.824  0.5953 -1.9293  1.4080
  945SOL    HW2 2835   3.086   3.047   2.954  3.9273  2.0775  1.9378
  946SOL     OW 2836   3.091   1.360   1.579  0.1644 -0.1459 -0.0362
  946SOL    HW1 2837   0.101   1.370   1.571 -0.7479  0.5010 -1.3187
  946SOL    HW2 2838   3.062   1.265   1.593  0.3236 -2.0716 -0.3358
  947SOL     OW 2839   0.957   0.058   0.070 -0.1265 -0.0418  0.3228
  947SOL    HW1 2840   1.055   0.030   0.075 -0.0606 -1.6362 -0.2291
  947SOL    HW2 2841   0.897   3.077   0.115  0.3856 -0.1581  0.6507
  948SOL     OW 2842   2.472   1.587   1.200  0.1739 -0.3421  0.1971
  948SOL    HW1 2843   2.460   1.487   1.192 -1.5079  1.0902 -0.7405
  948SOL    HW2 2844   2.431   1.623   1.117 -0.3059 -1.0433  3.6978
  949SOL     OW 2845   0.312   0.760   2.837  0.7106 -0.1834  0.0656
  949SOL    HW1 2846   0.344   0.842   2.883  1.3121 -1.6365 -0.6954
  949SOL    HW2 2847   0.214   0.776   2.809  0.1822  1.8154  0.5165
  950SOL     OW 2848   0.342   2.528   1.321  0.3668 -0.0679 -0.4122
  950SOL    HW1 2849   0.342   2.604   1.388 -3.8347  0.2971 -0.4751
  950SOL    HW2 2850   0.439   2.497   1.288  3.2387 -0.5288 -3.1445
  951SOL     OW 2851   0.911   1.620   2.702  0.1186 -0.5372  0.2033
  951SOL    HW1 2852   0.875   1.629   2.796  3.8165  1.2417  0.9312
  951SOL    HW2 2853   0.848   1.656   2.631 -1.3904 -2.6997  1.6863
  952SOL     OW 2854   0.532   1.425   0.510 -0.4872 -0.2074  0.3104
  952SOL    HW1 2855   0.556   1.335   0.559  1.6448 -0.1087  0.4623
  952SOL    HW2 2856   0.468   1.482   0.567  2.5281  1.3332 -2.7965
  953SOL     OW 2857   2.380   2.103   2.712  0.2954 -0.0723  0.0642
  953SOL    HW1 2858   2.455   2.127   2.647  2.0769 -0.3984  0.4184
  953SOL    HW2 2859   2.404   2.141   2.805  0.5378  0.5960 -1.7375
  954SOL     OW 2860   1.727   0.666   0.764 -0.1528  0.1350  0.3956
  954SOL    HW1 2861   1.656   0.602   0.738 -1.6076  0.2440 -2.0024
  954SOL    HW2 2862   1.691   0.759   0.796  2.2221  4.6101 -2.4887
  955SOL     OW 2863   0.972   2.092   0.105  0.3769  0.3355 -0.1723
  955SOL    HW1 2864   0.944   2.187   0.111  1.7381 -1.0690  1.3841
  955SOL    HW2 2865   0.903   2.030   0.067  1.2454  1.3939  2.4219
  956SOL     OW 2866   2.560   0.457   1.835 -0.1823  0.3756 -0.2659
  956SOL    HW1 2867   2.501   0.431   1.753  0.8036 -0.9452  1.4896
  956SOL    HW2 2868   2.499   0.491   1.909 -0.3238 -0.7965  1.0884
  957SOL     OW 2869   1.765   2.248   2.147  0.3414  0.9001  0.2290
  957SOL    HW1 2870   1.678   2.284   2.121  1.0316 -2.5576  1.6711
  957SOL    HW2 2871   1.824   2.211   2.070  3.1357 -2.9258  0.9719
  958SOL     OW 2872   1.751   1.131   1.383  0.7226 -0.6784 -0.0574
  958SOL    HW1 2873   1.775   1.225   1.414 -1.6546 -1.2860 -2.6139
  958SOL    HW2 2874   1.798   1.055   1.425 -3.2079  1.0284 -1.0045
  959SOL     OW 2875   1.644   2.031   2.327  0.4202  0.8471  0.7988
  959SOL    HW1 2876   1.673   1.929   2.331 -0.5139 -1.9859  0.6300
  959SOL    HW2 2877   1.690   2.083   2.255 -1.6835 -0.7320  1.4519
  960SOL     OW 2878   0.553   0.674   2.747  0.7154 -0.0770  0.1441
  960SOL    HW1 2879   0.464   0.723   2.776 -0.6073  0.3534 -2.1393
  960SOL    HW2 2880   0.582   0.610   2.819 -4.8732  2.0343  0.5252
  961SOL     OW 2881   0.073   1.085   2.971 -0.7117 -0.6972 -0.6806
  961SOL    HW1 2882   3.077   1.081   3.020  1.9749  0.0059  1.0451
  961SOL    HW2 2883   0.103   1.183   2.947 -0.4186  2.6562  0.4426
  962SOL     OW 2884   1.095   2.008   2.862 -0.7012 -0.1574  0.3487
  962SOL    HW1 2885   0.990   2.016   2.853  0.3193 -1.3749 -0.3423
  962SOL    HW2 2886   1.132   2.095   2.895  1.1559 -0.6866 -0.1009
  963SOL     OW 2887   2.854   1.758   0.148 -0.0181 -0.1671  0.0417
  963SOL    HW1 2888   2.830   1.719   0.059 -1.2164  0.0965  2.2107
  963SOL    HW2 2889   2.956   1.776   0.160  1.7398 -1.7741  0.7112
  964SOL     OW 2890   0.761   2.245   2.190  0.4935  0.4164  0.1644
  964SOL    HW1 2891   0.658   2.239   2.190  0.6454 -0.4031 -3.0582
  964SOL    HW2 2892   0.798   2.341   2.198  1.4043  0.1329  1.0900
  965SOL     OW 2893   1.605   1.716   1.647  0.2141  0.4260  0.1434
  965SOL    HW1 2894   1.702   1.690   1.664  0.5047  1.1798  1.1207
  965SOL    HW2 2895   1.553   1.695   1.731 -1.7888 -1.0565 -1.7559
  966SOL     OW 2896   3.011   1.480   0.191 -0.5750 -0.3608 -0.5876
  966SOL    HW1 2897   3.045   1.519   0.282  1.9258  1.2687 -1.2910
  966SOL    HW2 2898   2.975   1.563   0.143  0.2737 -2.4736  1.6856
  967SOL     OW 2899   2.188   2.610   2.069 -0.2636  0.1460 -0.3549
  967SOL    HW1 2900   2.102   2.559   2.068  1.1372 -1.6375 -4.0370
  967SOL    HW2 2901   2.172   2.697   2.024  1.4707 -2.4702 -0.5919
  968SOL     OW 2902   1.279   0.939   0.013  0.1215 -0.3700 -0.3473
  968SOL    HW1 2903   1.308   0.942   3.004 -0.2846  0.4987 -0.5536
  968SOL    HW2 2904   1.306   0.848   0.052  1.7511 -2.2347 -0.5001
  969SOL     OW 2905   0.274   1.189   2.419 -0.1074  0.2975 -0.5400
  969SOL    HW1 2906   0.345   1.152   2.355  0.6786 -2.4172  2.0336
  969SOL    HW2 2907   0.183   1.152   2.392  2.2202  1.0447 -0.5511
  970SOL     OW 2908   2.008   2.862   0.804 -0.3250 -0.7182  0.5799
  970SOL    HW1 2909   2.078   2.894   0.738  2.1805 -0.9124  1.6364
  970SOL    HW2 2910   1.948   2.791   0.762  0.8412  1.1044 -0.7864
  971SOL     OW 2911   2.182   2.196   0.744 -0.6521  0.0487  0.4685
  971SOL    HW1 2912   2.221   2.178   0.836 -0.7287 -0.8205 -2.2595
  971SOL    HW2 2913   2.235   2.269   0.697  1.2218  0.4459 -2.8508
  972SOL     OW 2914   0.106   1.505   2.655 -0.4085  0.1217 -0.0827
  972SOL    HW1 2915   0.085   1.494   2.554  0.3613  1.0172 -1.7616
  972SOL    HW2 2916   0.197   1.554   2.664 -0.6978  1.8800 -1.1881
  973SOL     OW 2917   0.737   0.427   0.279  0.3873  0.4147 -0.1955
  973SOL    HW1 2918   0.791   0.400   0.195 -0.0812  0.7950 -1.0875
  973SOL    HW2 2919   0.795   0.498   0.326 -1.7960  1.0716  0.2038
  974SOL     OW 2920   2.521   0.952   1.667 -0.7260 -0.4646  0.7133
  974SOL    HW1 2921   2.529   0.875   1.604  0.2472  2.0127  1.0111
  974SOL    HW2 2922   2.579   0.943   1.751 -0.1905  1.8798 -1.0115
  975SOL     OW 2923   2.850   0.101   0.556  0.4059  0.1891  0.0883
  975SOL    HW1 2924   2.879   0.143   0.643  0.3655  0.4821  0.1972
  975SOL    HW2 2925   2.746   0.100   0.550 -1.3571 -0.7937 -3.5826
  976SOL     OW 2926   0.697   1.687   1.406 -0.0273  0.4619 -0.1862
  976SOL    HW1 2927   0.598   1.657   1.397 -2.8382 -1.2235  1.1927
  976SOL    HW2 2928   0.760   1.614   1.367 -0.3739 -3.0357 -2.1121
  977SOL     OW 2929   1.300   2.138   0.328  0.2075 -0.5990 -0.3710
  977SOL    HW1 2930   1.387   2.136   0.273  1.8455 -1.7139  0.1801
  977SOL    HW2 2931   1.222   2.187   0.285 -0.8866 -1.9971 -0.6665
  978SOL     OW 2932   0.039   0.668   3.071 -0.1001 -0.0885  0.3146
  978SOL    HW1 2933   0.044   0.692   2.970  0.5930 -0.2942 -0.6657
  978SOL    HW2 2934   0.092   0.584   0.002 -1.0178 -1.2953  1.2877
  979SOL     OW 2935   2.018   1.656   0.985 -0.0837  0.2027  0.2531
  979SOL    HW1 2936   1.976   1.563   0.967  0.5132 -1.3236 -1.6953
  979SOL    HW2 2937   2.015   1.710   0.899  1.8933 -0.6723  2.5030
  980SOL     OW 2938   0.539   1.936   1.918  0.5294 -0.2655 -0.0335
  980SOL    HW1 2939   0.529   1.848   1.869 -0.5620  0.6209  1.6816
  980SOL    HW2 2940   0.606   1.995   1.862  0.5026  2.0232  0.5346
  981SOL     OW 2941   2.509   1.368   2.571 -0.3455  0.0065 -0.2371
  981SOL    HW1 2942   2.581   1.385   2.645  0.2026 -1.3517  1.9591
  981SOL    HW2 2943   2.416   1.392   2.602  2.0582 -0.2128 -0.1428
  982SOL     OW 2944   0.232   2.072   1.836 -0.1743 -0.2929  0.2320
  982SOL    HW1 2945   0.266   1.982   1.808 -1.8900 -0.0024  1.8272
  982SOL    HW2 2946   0.292   2.103   1.915  3.3928  0.2505  1.4993
  983SOL     OW 2947   1.492   0.392   1.854  0.1427  0.3570  0.3350
  983SOL    HW1 2948   1.410   0.433   1.809 -4.8600 -0.9882  1.7001
  983SOL    HW2 2949   1.523   0.302   1.808 -0.6866 -4.7285 -2.8136
  984SOL     OW 2950   2.818   2.876   2.958  0.1501  0.6306 -0.1658
  984SOL    HW1 2951   2.880   2.957   2.953  2.6534  2.5296  0.8032
  984SOL    HW2 2952   2.723   2.902   2.936 -2.3805  0.2589  1.4768
  985SOL     OW 2953   1.353   1.271   1.802 -0.1603  0.2251  0.1702
  985SOL    HW1 2954   1.298   1.347   1.846 -0.2999  2.1743 -0.0872
  985SOL    HW2 2955   1.420   1.230   1.865  0.5597  1.4391  1.9435
  986SOL     OW 2956   1.993   0.212   2.760  0.4376  0.8456 -0.0785
  986SOL    HW1 2957   2.069   0.264   2.802  0.1964 -2.9804  1.7772
  986SOL    HW2 2958   1.902   0.246   2.791  2.5254  0.0129  1.4346
  987SOL     OW 2959   2.792   1.640   2.675  0.2903 -0.5205  0.0232
  987SOL    HW1 2960   2.877   1.638   2.736  0.5862  1.4910  0.6507
  987SOL    HW2 2961   2.735   1.725   2.691 -0.6505 -1.9754  1.5955
  988SOL     OW 2962   3.048   0.257   1.191  0.2895  0.4261 -0.0810
  988SOL    HW1 2963   2.972   0.186   1.175  1.5604 -0.1098 -0.2144
  988SOL    HW2 2964   3.064   0.260   1.295  0.6475 -1.7898  5.9151
  989SOL     OW 2965   2.011   0.396   1.044  0.4051 -0.1126 -0.2976
  989SOL    HW1 2966   1.964   0.351   0.968 -1.5310  0.1373  0.3002
  989SOL    HW2 2967   1.979   0.350   1.129  1.3877 -0.6991 -0.9005
  990SOL     OW 2968   2.562   0.605   3.071 -0.1273  0.1815  0.1737
  990SOL    HW1 2969   2.645   0.648   3.034 -1.5176  0.0832 -2.0219
  990SOL    HW2 2970   2.486   0.655   3.031  2.8683  0.5188 -0.0434
  991SOL     OW 2971   0.142   1.311   0.151 -0.0457  0.3771 -0.6792
  991SOL    HW1 2972   0.113   1.218   0.184 -0.6866 -0.8658 -0.8609
  991SOL    HW2 2973   0.061   1.374   0.157 -0.3469  0.0854  0.4757
  992SOL     OW 2974   2.043   1.502   1.840 -0.4893 -0.2951 -0.5228
  992SOL    HW1 2975   2.093   1.528   1.924 -0.7292 -2.0979 -0.3009
  992SOL    HW2 2976   2.070   1.409   1.809  1.6218  1.3949  1.3240
  993SOL     OW 2977   0.278   2.487   0.850 -0.1155 -0.3362  0.4631
  993SOL    HW1 2978   0.258   2.452   0.942 -1.8748  0.8938  1.1022
  993SOL    HW2 2979   0.374   2.472   0.826  0.1885 -1.2203 -0.0568
  994SOL     OW 2980   2.911   1.653   2.057  0.0857  0.2113  0.8995
  994SOL    HW1 2981   2.815   1.670   2.027  0.0633  1.0004  1.7135
  994SOL    HW2 2982   2.978   1.665   1.983 -1.3611  2.8706  0.1786
  995SOL     OW 2983   1.881   1.944   2.551 -0.1401 -0.0737 -0.0731
  995SOL    HW1 2984   1.947   2.011   2.510  0.3238  0.6317  1.0663
  995SOL    HW2 2985   1.851   1.872   2.486 -1.0322 -0.4193  0.3219
  996SOL     OW 2986   2.171   2.327   0.353  0.1897 -0.2958 -0.8197
  996SOL    HW1 2987   2.077   2.325   0.317  0.0974 -1.7693  2.1891
  996SOL    HW2 2988   2.220   2.236   0.356 -1.1014 -2.2647  0.1204
  997SOL     OW 2989   1.145   1.470   2.427  0.2452  0.2534 -0.1253
  997SOL    HW1 2990   1.075   1.423   2.484  2.3592  0.1864  0.9028
  997SOL    HW2 2991   1.161   1.415   2.340 -0.0630 -4.3309  1.3432
  998SOL     OW 2992   3.059   2.260   0.716  0.6930  0.2047  0.7861
  998SOL    HW1 2993   3.040   2.345   0.766 -1.0188 -0.6977  0.2981
  998SOL    HW2 2994   3.036   2.262   0.616  1.5571 -0.8738 -1.7504
  999SOL     OW 2995   0.608   2.906   0.497 -0.0360 -0.4302  0.3935
  999SOL    HW1 2996   0.546   2.901   0.417 -0.6913  0.5599  1.0807
  999SOL    HW2 2997   0.610   2.815   0.545  0.9545 -0.0678  0.5149
 1000SOL     OW 2998   1.349   0.266   0.201  0.3294 -0.1311 -0.0463
 1000SOL    HW1 2999   1.448   0.254   0.223 -0.8149 -1.5975  2.2569
 1000SOL    HW2 3000   1.329   0.293   0.100  1.4291 -2.9452 -2.0803
   3.09182   3.09182   3.09182
