1000 SPC/Fw water molecules t= 105.00000 step= 105000
 3000
    1SOL     OW    1   1.925   2.461   0.722 -0.8312 -1.0059 -0.5317
    1SOL    HW1    2   1.843   2.423   0.770  0.7273 -0.7188 -1.2299
    1SOL    HW2    3   1.994   2.501   0.789  1.1994 -1.6010  1.1445
    2SOL     OW    4   1.267   1.278   2.263  0.1659 -0.2324 -0.4237
    2SOL    HW1    5   1.178   1.273   2.302  2.8637 -1.3635 -2.5536
    2SOL    HW2    6   1.269   1.357   2.198  0.1504  0.8549  0.6501
    3SOL     OW    7   1.663   2.384   2.439 -0.2703 -0.5400  0.0271
    3SOL    HW1    8   1.734   2.385   2.363 -1.8485  0.9131 -2.2751
    3SOL    HW2    9   1.597   2.463   2.435  0.5093 -1.7362  0.0955
    4SOL     OW   10   1.293   2.201   2.113 -0.0460  0.0316  0.1799
    4SOL    HW1   11   1.391   2.185   2.120 -4.0571  1.2991 -1.3548
    4SOL    HW2   12   1.264   2.288   2.161 -0.1837  1.4232  0.1808
    5SOL     OW   13   0.517   0.851   1.579 -0.0716  0.2106 -0.1264
    5SOL    HW1   14   0.599   0.874   1.630 -2.3934  0.6568 -3.3799
    5SOL    HW2   15   0.477   0.767   1.622  1.2811  0.3764 -0.3001
    6SOL     OW   16   2.061   0.670   2.949 -0.5636  0.8131  0.5948
    6SOL    HW1   17   2.067   0.736   2.870  1.8334  1.6264  1.5081
    6SOL    HW2   18   2.047   0.576   2.918 -0.1350  4.4063  1.7890
    7SOL     OW   19   0.686   0.204   1.507 -0.0336 -0.2179 -0.2782
    7SOL    HW1   20   0.695   0.163   1.601  0.8375  1.1737  0.1875
    7SOL    HW2   21   0.689   0.307   1.509 -0.3184  0.3170 -0.2572
    8SOL     OW   22   1.754   0.100   1.874 -0.2640 -0.7201  0.3770
    8SOL    HW1   23   1.820   0.151   1.817 -1.4104  1.9080  0.7753
    8SOL    HW2   24   1.684   0.051   1.820  1.2311  0.5012  2.8674
    9SOL     OW   25   0.214   0.577   0.492  0.0621  0.2255  0.4136
    9SOL    HW1   26   0.206   0.495   0.555  0.1494  1.4446 -0.1734
    9SOL    HW2   27   0.269   0.649   0.534 -0.4902 -0.3527 -0.3676
   10SOL     OW   28   0.787   2.410   2.494  0.1564 -0.1206 -0.0062
   10SOL    HW1   29   0.828   2.351   2.566 -0.5747  1.7047 -1.0825
   10SOL    HW2   30   0.692   2.420   2.515  2.8443 -1.6856  0.4732
   11SOL     OW   31   0.764   1.689   0.000 -0.2168  0.1620  0.6059
   11SOL    HW1   32   0.671   1.646   0.016 -2.2716  0.7853 -0.8271
   11SOL    HW2   33   0.820   1.665   0.079 -0.6198  2.5831 -1.2551
   12SOL     OW   34   0.233   2.966   1.407 -0.2450  0.2611 -0.0955
   12SOL    HW1   35   0.176   3.047   1.398 -2.0268 -0.9556 -3.6825
   12SOL    HW2   36   0.190   2.880   1.372  1.9593  1.6952  0.4409
   13SOL     OW   37   0.862   3.009   0.270  0.0176 -0.1820 -0.4136
   13SOL    HW1   38   0.920   2.963   0.340  1.6521  0.6676  1.2791
   13SOL    HW2   39   0.882   0.001   0.251 -1.1959  1.6410 -2.7891
   14SOL     OW   40   1.601   1.743   0.759  0.3634  0.6606  0.1774
   14SOL    HW1   41   1.532   1.814   0.729 -1.5681  0.2548 -1.1417
   14SOL    HW2   42   1.694   1.767   0.724 -3.3683 -1.7771 -0.7477
   15SOL     OW   43   3.008   1.689   2.418  0.1450  0.1659 -0.8776
   15SOL    HW1   44   3.077   1.649   2.353  0.7182  0.4173 -0.2074
   15SOL    HW2   45   3.052   1.736   2.496  1.1894 -0.2044 -0.7032
   16SOL     OW   46   1.481   0.186   2.675  0.8882  0.0208 -0.3208
   16SOL    HW1   47   1.429   0.266   2.637 -1.8334  1.5586 -0.8879
   16SOL    HW2   48   1.455   0.094   2.635  2.0745 -2.3969 -1.6048
   17SOL     OW   49   0.500   2.300   2.092 -0.2255 -0.8248 -0.0582
   17SOL    HW1   50   0.599   2.321   2.095  0.4319 -0.0471 -0.6673
   17SOL    HW2   51   0.460   2.292   2.184  2.1740  1.3168 -0.7963
   18SOL     OW   52   1.383   1.270   0.594  0.0226  0.7126  0.2141
   18SOL    HW1   53   1.471   1.302   0.548 -0.2708  1.4951 -1.2954
   18SOL    HW2   54   1.367   1.172   0.563  0.1590 -2.4476  0.1002
   19SOL     OW   55   2.477   1.657   2.391  0.7644  0.2237 -0.0930
   19SOL    HW1   56   2.420   1.633   2.471 -0.4084  1.0095 -1.0741
   19SOL    HW2   57   2.572   1.689   2.421  4.0134  1.3028  2.5263
   20SOL     OW   58   2.668   2.285   2.323 -0.4156 -0.2262  0.6672
   20SOL    HW1   59   2.589   2.292   2.257 -0.3093  1.6785  2.4266
   20SOL    HW2   60   2.646   2.326   2.412  0.1430 -0.5868  1.0637
   21SOL     OW   61   0.997   2.253   0.191  0.6473  0.4687  0.1581
   21SOL    HW1   62   0.946   2.329   0.142 -2.1497 -1.3874  0.7466
   21SOL    HW2   63   1.024   2.175   0.127  0.2056 -2.5454  0.6113
   22SOL     OW   64   2.188   2.291   1.472 -0.0295  0.3761 -0.1713
   22SOL    HW1   65   2.222   2.338   1.388  1.5197  1.3683  1.0423
   22SOL    HW2   66   2.178   2.360   1.551 -0.6394 -1.3820  0.4609
   23SOL     OW   67   0.312   1.034   1.604  0.2815  0.3099  0.1894
   23SOL    HW1   68   0.356   1.121   1.637  1.0881 -1.3320  2.4237
   23SOL    HW2   69   0.387   0.965   1.588  0.8471 -0.3604 -0.1102
   24SOL     OW   70   2.222   1.834   1.993 -0.0044  0.4019  0.5278
   24SOL    HW1   71   2.144   1.782   2.038  0.5273 -1.3837 -1.6945
   24SOL    HW2   72   2.306   1.779   1.977 -0.7582 -2.9569  0.5245
   25SOL     OW   73   1.782   0.465   2.566  0.3224 -0.2529  0.0459
   25SOL    HW1   74   1.751   0.461   2.472 -2.2915  0.4352  2.3846
   25SOL    HW2   75   1.705   0.469   2.632 -1.1975 -0.0719 -1.9874
   26SOL     OW   76   1.418   0.112   0.676 -0.9157  0.1729 -0.0559
   26SOL    HW1   77   1.396   0.031   0.619 -0.2076 -1.0134 -0.7724
   26SOL    HW2   78   1.494   0.167   0.645 -0.9582 -1.7592 -0.5111
   27SOL     OW   79   0.910   1.628   0.232 -0.1839 -0.3088 -0.3596
   27SOL    HW1   80   0.943   1.662   0.322 -1.8445 -1.2767 -1.6108
   27SOL    HW2   81   0.870   1.534   0.233 -0.2328 -3.5375  4.1171
   28SOL     OW   82   2.526   1.749   1.168 -0.2937 -1.0689  0.4773
   28SOL    HW1   83   2.463   1.689   1.220  0.4486 -1.3774 -1.6906
   28SOL    HW2   84   2.479   1.808   1.104 -0.2724 -0.2494 -0.6337
   29SOL     OW   85   2.300   2.656   1.825 -0.2718  0.4432  0.0568
   29SOL    HW1   86   2.264   2.749   1.818  0.3006 -0.4412  1.9180
   29SOL    HW2   87   2.399   2.650   1.801  1.7916 -0.0371 -1.3679
   30SOL     OW   88   0.849   2.867   1.250  0.4348 -0.6993  0.3284
   30SOL    HW1   89   0.920   2.880   1.182 -2.2163  1.3446  0.3672
   30SOL    HW2   90   0.832   2.961   1.288 -0.8978  0.3750  1.1770
   31SOL     OW   91   2.892   2.268   1.839 -0.0235  0.6508  0.0893
   31SOL    HW1   92   2.984   2.303   1.824 -0.9875  1.1089  0.0705
   31SOL    HW2   93   2.852   2.287   1.930  0.1121  0.6115 -1.4646
   32SOL     OW   94   1.609   1.273   1.986 -0.2381  0.4350 -0.4637
   32SOL    HW1   95   1.580   1.312   1.900 -3.2314  0.0364  0.2182
   32SOL    HW2   96   1.571   1.181   2.006 -1.0678 -1.8024  0.6084
   33SOL     OW   97   0.190   0.071   2.788 -0.6530  0.1429 -0.6482
   33SOL    HW1   98   0.167   0.060   2.693  0.4883 -0.8269  4.3809
   33SOL    HW2   99   0.135   0.015   2.851 -1.0770  1.5710 -1.6685
   34SOL     OW  100   2.175   0.113   1.093 -0.1426  0.7729 -0.0281
   34SOL    HW1  101   2.254   0.166   1.052  3.2510 -0.9803  0.3977
   34SOL    HW2  102   2.202   0.077   1.181 -1.3597  2.4853 -0.8420
   35SOL     OW  103   2.271   0.049   1.354  0.0408 -0.2173 -0.1417
   35SOL    HW1  104   2.280   3.051   1.360 -2.2206  0.4836  1.7570
   35SOL    HW2  105   2.238   0.080   1.445  0.6066 -0.3004 -0.5298
   36SOL     OW  106   2.544   2.924   2.582  0.2698  0.4732 -0.1541
   36SOL    HW1  107   2.456   2.865   2.591 -1.9609 -0.6145 -1.3227
   36SOL    HW2  108   2.627   2.863   2.566  1.1488 -1.5762  2.2474
   37SOL     OW  109   1.043   2.683   0.152  0.2899 -0.2341  0.4821
   37SOL    HW1  110   1.105   2.734   0.089 -1.0705  2.1572 -2.2876
   37SOL    HW2  111   1.081   2.667   0.242 -3.0574  0.9025  0.0461
   38SOL     OW  112   2.813   0.960   2.874  0.5763 -0.0113 -0.2260
   38SOL    HW1  113   2.909   0.992   2.893  0.7059  0.1510  0.7358
   38SOL    HW2  114   2.748   0.975   2.955 -1.1821 -0.0441  2.9080
   39SOL     OW  115   2.266   2.107   1.992  0.2604 -0.1082 -0.2321
   39SOL    HW1  116   2.254   2.005   1.988 -1.2484 -3.5139 -1.1207
   39SOL    HW2  117   2.175   2.155   2.001 -1.5690  1.3143  0.0475
   40SOL     OW  118   0.707   0.189   2.940 -0.4725  0.8072  0.1872
   40SOL    HW1  119   0.735   0.113   3.000  0.2062 -1.3395 -0.2475
   40SOL    HW2  120   0.721   0.166   2.842  0.7597  1.0444  1.0373
   41SOL     OW  121   1.396   1.148   1.514 -0.4957  0.7641 -0.1141
   41SOL    HW1  122   1.435   1.215   1.580 -2.3097  2.7394 -1.3751
   41SOL    HW2  123   1.298   1.138   1.543  0.4290  1.8600  2.3215
   42SOL     OW  124   0.131   0.185   2.012 -0.5973 -0.5469  0.0404
   42SOL    HW1  125   0.080   0.194   1.928  0.3934 -0.4829 -0.2846
   42SOL    HW2  126   0.200   0.262   2.018 -0.7241  0.8082  0.9883
   43SOL     OW  127   1.756   1.308   2.213 -0.6545 -0.2970 -0.0991
   43SOL    HW1  128   1.717   1.344   2.299 -2.4115 -0.6603 -0.7407
   43SOL    HW2  129   1.688   1.303   2.137  0.5973 -2.2877  0.5420
   44SOL     OW  130   0.054   3.036   2.983 -0.4545 -0.5701  0.8952
   44SOL    HW1  131   0.006   3.091   3.053 -0.2220 -2.6124  0.6086
   44SOL    HW2  132   0.085   2.947   3.020  2.3359 -0.1139  1.0347
   45SOL     OW  133   0.715   1.999   1.135  0.2302  0.1253  0.1890
   45SOL    HW1  134   0.732   2.101   1.138 -0.9471 -3.1498  2.0602
   45SOL    HW2  135   0.629   1.973   1.188  0.9104  0.8976  0.3523
   46SOL     OW  136   2.594   2.641   1.828 -0.5901  0.7796 -0.4486
   46SOL    HW1  137   2.637   2.729   1.797  1.8502  0.8661  0.1977
   46SOL    HW2  138   2.634   2.559   1.793 -1.2159  1.5202  1.4952
   47SOL     OW  139   0.963   1.676   1.319  0.0446  0.2124  0.5780
   47SOL    HW1  140   0.971   1.777   1.303  0.3795 -1.0792  0.1244
   47SOL    HW2  141   0.863   1.650   1.319 -0.6930 -0.6679  1.4397
   48SOL     OW  142   0.140   2.664   0.204 -0.1086 -0.2051  0.5209
   48SOL    HW1  143   0.057   2.642   0.258  2.9455 -0.8399 -0.5333
   48SOL    HW2  144   0.195   2.744   0.247 -1.3109 -0.2132  1.0506
   49SOL     OW  145   3.020   1.470   1.854  0.4081  0.5480  0.3092
   49SOL    HW1  146   2.996   1.511   1.941  0.8909 -4.4192  0.0708
   49SOL    HW2  147   2.941   1.473   1.790 -0.5870  0.4601 -1.7430
   50SOL     OW  148   2.177   0.878   0.623 -0.4629  0.0818  0.2774
   50SOL    HW1  149   2.161   0.825   0.541 -1.0721  0.7809  1.3368
   50SOL    HW2  150   2.119   0.854   0.698  2.2177 -1.3179 -3.0237
   51SOL     OW  151   1.020   0.987   0.877 -0.4248  0.1779  0.3822
   51SOL    HW1  152   0.945   1.004   0.808 -0.0081  1.1975 -2.0110
   51SOL    HW2  153   0.972   0.978   0.968 -0.5065  1.1135  1.1925
   52SOL     OW  154   1.453   1.374   0.219 -0.3894  0.0497 -0.3809
   52SOL    HW1  155   1.519   1.367   0.297  0.6015 -0.2158 -0.0828
   52SOL    HW2  156   1.376   1.433   0.242  2.1331 -1.1708 -1.3654
   53SOL     OW  157   1.099   2.417   2.628  0.0591  0.3623 -0.5453
   53SOL    HW1  158   1.019   2.358   2.642 -0.1722  1.0787  0.5640
   53SOL    HW2  159   1.173   2.375   2.685  1.4348  0.2962  1.0544
   54SOL     OW  160   1.664   0.627   1.738  0.3141  0.0839 -0.1206
   54SOL    HW1  161   1.732   0.574   1.789 -1.1465  0.2067 -1.3668
   54SOL    HW2  162   1.658   0.594   1.639 -0.1060  0.2208 -1.7149
   55SOL     OW  163   2.567   2.749   0.395 -0.4135 -0.0692  0.0015
   55SOL    HW1  164   2.499   2.679   0.425  2.9121  2.3660  0.9767
   55SOL    HW2  165   2.544   2.841   0.431  0.6369  1.9283 -0.9846
   56SOL     OW  166   0.750   2.519   1.792 -0.0039  0.1093  0.1926
   56SOL    HW1  167   0.697   2.516   1.879 -2.8438  1.7105  1.7249
   56SOL    HW2  168   0.699   2.480   1.710 -1.9656  0.9674 -0.3459
   57SOL     OW  169   1.811   0.738   2.642  0.6148 -0.3357  0.1101
   57SOL    HW1  170   1.822   0.639   2.632 -1.6905  0.4146 -0.2679
   57SOL    HW2  171   1.718   0.757   2.677  0.0809  0.6676  0.3402
   58SOL     OW  172   2.965   1.265   1.523  0.4300 -0.0917  0.1018
   58SOL    HW1  173   3.054   1.305   1.548  1.4700  2.4823  0.6678
   58SOL    HW2  174   2.894   1.333   1.519  1.6410 -0.7606  1.1488
   59SOL     OW  175   0.590   2.946   2.307 -0.0352 -0.4098 -0.6228
   59SOL    HW1  176   0.676   2.891   2.304  1.1471  0.3685  1.5780
   59SOL    HW2  177   0.511   2.886   2.332 -0.9977 -0.3207  1.6788
   60SOL     OW  178   2.563   2.120   0.719 -0.5065  0.6098  0.0318
   60SOL    HW1  179   2.503   2.128   0.640  0.0932  2.0249  0.5579
   60SOL    HW2  180   2.601   2.027   0.738  1.8805  0.7647  1.6177
   61SOL     OW  181   0.759   2.249   0.420  0.2833  0.2312 -0.0913
   61SOL    HW1  182   0.785   2.285   0.327  0.4772 -0.1504 -1.5187
   61SOL    HW2  183   0.813   2.296   0.496  0.3065 -0.3848 -1.7509
   62SOL     OW  184   2.067   2.681   2.799 -0.0938  0.2963 -0.3174
   62SOL    HW1  185   2.145   2.624   2.761  0.5772  0.8856 -1.6322
   62SOL    HW2  186   2.071   2.778   2.766  1.5816 -2.2605 -1.0839
   63SOL     OW  187   2.009   0.392   0.017  0.2375 -0.0598  0.0440
   63SOL    HW1  188   1.949   0.408   3.042  1.0921 -3.5278 -2.2399
   63SOL    HW2  189   2.009   0.292   0.041  1.6116  0.7766 -2.2213
   64SOL     OW  190   0.665   0.899   2.675  0.2113  0.0259 -0.0909
   64SOL    HW1  191   0.763   0.918   2.652  1.4774  0.1759 -3.0116
   64SOL    HW2  192   0.655   0.811   2.716  0.3324  1.5543  0.4495
   65SOL     OW  193   1.367   3.002   0.513 -0.7703 -0.0694  0.6696
   65SOL    HW1  194   1.429   2.921   0.535  1.0454 -0.7708 -0.1814
   65SOL    HW2  195   1.284   2.981   0.457 -3.0721 -0.4141 -2.0408
   66SOL     OW  196   0.379   1.276   1.684  0.3954 -0.0247 -0.2631
   66SOL    HW1  197   0.409   1.310   1.777 -0.9968 -1.2593  0.3025
   66SOL    HW2  198   0.446   1.300   1.609  0.9943 -3.3218  0.0110
   67SOL     OW  199   2.227   2.964   2.256  0.5415  0.4268  0.4816
   67SOL    HW1  200   2.190   2.898   2.183  1.3671  2.3149 -1.6361
   67SOL    HW2  201   2.331   2.961   2.261  1.4479 -0.2189  1.3970
   68SOL     OW  202   0.872   0.698   1.604  0.7169  0.0234 -0.2283
   68SOL    HW1  203   0.939   0.689   1.526 -0.7977 -1.1798 -0.5101
   68SOL    HW2  204   0.850   0.796   1.631 -1.8540 -2.0831  0.1899
   69SOL     OW  205   2.166   2.774   0.417  0.5186  0.4289  0.2826
   69SOL    HW1  206   2.105   2.792   0.498  2.4277 -1.5842  0.1163
   69SOL    HW2  207   2.167   2.845   0.346  0.8409 -1.0847 -1.2155
   70SOL     OW  208   2.369   0.640   2.808  0.0868 -0.1649  0.6849
   70SOL    HW1  209   2.465   0.609   2.817 -1.6604 -0.2720 -2.6743
   70SOL    HW2  210   2.303   0.580   2.863 -3.6396  0.4903 -0.2180
   71SOL     OW  211   2.915   2.076   0.165  0.5595  0.4736 -0.2032
   71SOL    HW1  212   2.923   1.975   0.182 -1.8338  0.0278  2.7727
   71SOL    HW2  213   2.939   2.107   0.073 -0.3117  0.6406  4.5556
   72SOL     OW  214   3.017   1.740   0.478 -0.1902 -0.1853 -0.1779
   72SOL    HW1  215   2.940   1.804   0.492  0.4862 -0.1937  0.0126
   72SOL    HW2  216   3.075   1.737   0.563  0.6811  0.1358 -1.2615
   73SOL     OW  217   0.799   1.015   0.731  0.2199 -0.3885  0.1329
   73SOL    HW1  218   0.753   1.089   0.785 -1.6521 -0.3785 -1.4924
   73SOL    HW2  219   0.769   0.921   0.766  1.1946  0.0583  1.3175
   74SOL     OW  220   0.212   1.947   1.970  0.5803 -0.1183  0.0842
   74SOL    HW1  221   0.240   1.863   2.021 -1.4438 -1.1660  1.1482
   74SOL    HW2  222   0.286   1.977   1.907 -0.3974  0.5516 -0.2336
   75SOL     OW  223   1.788   1.471   1.271 -0.2432 -0.3769  0.4940
   75SOL    HW1  224   1.774   1.466   1.166 -0.8063 -0.4466 -1.5286
   75SOL    HW2  225   1.716   1.417   1.312  1.9628 -0.6999 -3.5456
   76SOL     OW  226   1.885   2.184   0.977  0.2201  0.2234 -0.1077
   76SOL    HW1  227   1.882   2.259   1.043 -0.3159  1.6858 -0.6544
   76SOL    HW2  228   1.896   2.091   1.019  0.1399 -0.8700 -0.7055
   77SOL     OW  229   2.402   1.656   1.715  0.1932 -0.4572  0.3483
   77SOL    HW1  230   2.450   1.667   1.802  0.4929  0.6383  1.6403
   77SOL    HW2  231   2.428   1.729   1.648 -2.8464  2.1135  1.3211
   78SOL     OW  232   1.360   1.007   0.495  0.0384 -0.4953  0.3622
   78SOL    HW1  233   1.259   0.988   0.490 -0.0447  0.9898 -0.0775
   78SOL    HW2  234   1.407   0.925   0.462 -0.4927  0.9769 -0.9538
   79SOL     OW  235   1.989   1.676   1.595  0.6255  0.1657 -0.6821
   79SOL    HW1  236   2.045   1.594   1.599 -2.7106  3.7318 -1.9142
   79SOL    HW2  237   2.024   1.744   1.665  0.2658 -0.0646 -0.0624
   80SOL     OW  238   1.040   0.483   1.404  0.3348 -0.3576 -0.2653
   80SOL    HW1  239   1.001   0.442   1.491  1.9591 -0.8906 -1.1218
   80SOL    HW2  240   1.045   0.405   1.337  1.2785 -4.5094 -2.0357
   81SOL     OW  241   0.523   2.243   0.564  0.2082 -0.1530  0.1584
   81SOL    HW1  242   0.541   2.168   0.627  0.5704  1.0920 -2.1510
   81SOL    HW2  243   0.595   2.244   0.495 -0.3640 -0.3186  0.1572
   82SOL     OW  244   1.140   0.168   1.688 -0.9053 -0.2289  0.2278
   82SOL    HW1  245   1.084   0.106   1.745  1.4623 -1.0875  0.6729
   82SOL    HW2  246   1.234   0.176   1.728 -0.2639  2.1020  0.3385
   83SOL     OW  247   0.760   1.709   0.673  0.3133 -0.5148  0.1905
   83SOL    HW1  248   0.802   1.783   0.735 -0.9230  1.1818  0.9186
   83SOL    HW2  249   0.683   1.743   0.622 -0.3437  0.1852 -0.3864
   84SOL     OW  250   2.772   1.308   0.140  0.1107  0.0014 -0.1435
   84SOL    HW1  251   2.679   1.266   0.127  1.1084 -1.2996 -0.4539
   84SOL    HW2  252   2.843   1.263   0.082  1.1288 -0.4736 -0.0590
   85SOL     OW  253   0.112   2.554   1.046 -0.1849 -0.0921 -0.0831
   85SOL    HW1  254   0.082   2.518   0.955  1.2878  1.8230 -0.3646
   85SOL    HW2  255   0.211   2.571   1.047  1.2666  1.1533 -3.3879
   86SOL     OW  256   2.031   2.777   1.074 -0.0643 -0.4863  0.0277
   86SOL    HW1  257   1.950   2.777   1.135  0.4648 -0.0499 -0.4104
   86SOL    HW2  258   2.048   2.686   1.025  1.0926  0.2477 -1.0050
   87SOL     OW  259   0.075   1.735   0.707 -0.1721  0.4794 -0.5023
   87SOL    HW1  260   0.017   1.761   0.790 -1.2877 -0.7393  0.0987
   87SOL    HW2  261   0.112   1.640   0.712  0.0162 -0.3666  1.7704
   88SOL     OW  262   0.665   0.492   1.504  0.6123 -0.3438 -0.2933
   88SOL    HW1  263   0.646   0.472   1.407  1.1018 -0.8933  1.1802
   88SOL    HW2  264   0.756   0.529   1.525 -1.9585  1.5198 -1.4201
   89SOL     OW  265   0.873   2.727   1.729  0.5011  0.6093 -0.6587
   89SOL    HW1  266   0.815   2.793   1.680  1.9446 -1.8929  3.8339
   89SOL    HW2  267   0.813   2.651   1.759  0.1324 -0.2690 -2.4484
   90SOL     OW  268   0.037   1.967   1.087 -0.0217  0.4323 -0.1829
   90SOL    HW1  269   0.044   1.907   1.171 -2.1719 -1.6605 -1.6517
   90SOL    HW2  270   0.005   2.056   1.111  0.8205 -2.0369 -0.8673
   91SOL     OW  271   1.090   2.147   1.179  0.5685  0.3532  0.4507
   91SOL    HW1  272   1.112   2.122   1.080 -0.1799 -1.8489  1.0399
   91SOL    HW2  273   1.103   2.245   1.201 -0.3843 -0.7956  1.0165
   92SOL     OW  274   2.835   2.930   1.482 -0.3300  0.5726 -0.1842
   92SOL    HW1  275   2.769   2.982   1.427 -2.8685  0.3090  2.6181
   92SOL    HW2  276   2.926   2.972   1.475  0.5277  0.8197 -0.0931
   93SOL     OW  277   3.105   1.524   2.938 -0.5445 -0.1851 -0.1049
   93SOL    HW1  278   0.056   1.449   2.899  0.7533 -1.6369 -1.5099
   93SOL    HW2  279   3.082   1.496   3.035  0.4469  0.1138  2.1384
   94SOL     OW  280   2.907   2.759   2.164 -0.1186  0.0440 -0.6158
   94SOL    HW1  281   2.969   2.815   2.105  2.4098  1.5868 -2.0827
   94SOL    HW2  282   2.914   2.790   2.260  0.2564 -1.3294  1.4475
   95SOL     OW  283   1.463   0.573   1.986  0.2171 -0.2317 -0.3566
   95SOL    HW1  284   1.395   0.650   1.972  2.0340  0.5167  0.7047
   95SOL    HW2  285   1.510   0.546   1.898  0.4509 -1.4798 -2.6378
   96SOL     OW  286   2.640   0.171   2.004 -0.1685  0.2464 -0.1873
   96SOL    HW1  287   2.629   0.250   1.940  2.2327 -0.9230  2.1738
   96SOL    HW2  288   2.634   0.200   2.102  0.7759  1.9454 -2.3237
   97SOL     OW  289   2.236   2.902   1.455  0.0168  0.1557 -0.3278
   97SOL    HW1  290   2.149   2.922   1.507 -3.0108 -0.5156  2.5170
   97SOL    HW2  291   2.317   2.900   1.521  0.5944  2.1944  0.2692
   98SOL     OW  292   2.269   2.782   1.204 -0.0441  0.0677  0.7421
   98SOL    HW1  293   2.235   2.823   1.291 -0.4781 -2.4243  0.2059
   98SOL    HW2  294   2.190   2.768   1.140  2.3190  1.8626  0.6449
   99SOL     OW  295   2.992   0.050   2.196  0.0548  0.2072 -0.4021
   99SOL    HW1  296   3.094   0.046   2.207  1.5814 -1.2191  0.8199
   99SOL    HW2  297   2.966   0.010   2.109  1.3900  2.0254  2.2905
  100SOL     OW  298   2.033   1.396   1.747  0.3268 -0.4586  0.2078
  100SOL    HW1  299   1.973   1.463   1.802 -0.2461  1.3365 -0.2435
  100SOL    HW2  300   2.090   1.344   1.815  0.6405 -1.6964  1.8593
  101SOL     OW  301   1.678   0.156   0.445 -0.2160 -0.7421  0.7243
  101SOL    HW1  302   1.764   0.214   0.449  1.6833  2.9299  2.3434
  101SOL    HW2  303   1.602   0.229   0.427 -1.0725  0.1608  0.0203
  102SOL     OW  304   0.558   0.789   1.307  0.1289 -0.7939 -0.4491
  102SOL    HW1  305   0.485   0.724   1.279  0.4468  1.4678  1.5041
  102SOL    HW2  306   0.561   0.808   1.408  1.7322 -0.9301  0.7001
  103SOL     OW  307   2.326   0.352   2.906  0.4109 -0.3871 -0.3557
  103SOL    HW1  308   2.423   0.325   2.880 -3.5453  1.1797 -0.2704
  103SOL    HW2  309   2.328   0.364   3.009  1.6998  1.4781  2.4308
  104SOL     OW  310   2.850   0.005   1.930 -0.4614 -0.0986 -0.2340
  104SOL    HW1  311   2.904   0.056   1.863  0.2158 -0.5003 -0.7176
  104SOL    HW2  312   2.770   0.060   1.955  0.2625 -1.4584  1.3247
  105SOL     OW  313   1.597   0.889   2.253 -0.3072  0.3294 -0.0788
  105SOL    HW1  314   1.588   0.786   2.258 -1.0139 -2.1917 -0.6050
  105SOL    HW2  315   1.679   0.921   2.306  0.3010  2.3888 -1.1023
  106SOL     OW  316   1.659   0.258   0.763  0.1952 -0.2252 -0.0437
  106SOL    HW1  317   1.760   0.243   0.762 -3.0245  0.5363  1.2445
  106SOL    HW2  318   1.630   0.249   0.859 -0.5791 -1.4416  0.9079
  107SOL     OW  319   0.690   1.227   0.862  0.1903  0.3463 -0.3881
  107SOL    HW1  320   0.624   1.237   0.943 -0.6791  1.6883  4.7465
  107SOL    HW2  321   0.718   1.319   0.828  0.4792  2.5021 -0.2348
  108SOL     OW  322   0.094   0.711   2.472  0.2083  0.1557  0.2023
  108SOL    HW1  323   0.073   0.628   2.411  1.3617  1.3354 -0.2181
  108SOL    HW2  324   0.023   0.781   2.467  0.2499 -0.3628  1.5524
  109SOL     OW  325   1.844   0.045   0.068 -0.9693 -0.6744  0.4485
  109SOL    HW1  326   1.853   3.068   0.017 -1.5708  0.5968  2.3417
  109SOL    HW2  327   1.938   0.078   0.099  0.6403 -2.8217  1.2679
  110SOL     OW  328   2.992   1.936   2.864  0.0962 -0.4527 -0.7908
  110SOL    HW1  329   3.048   1.968   2.944  0.1415 -1.1184  3.7637
  110SOL    HW2  330   2.948   1.845   2.881  2.4464 -2.1286  2.5856
  111SOL     OW  331   2.156   0.103   2.360  0.3133  0.3788 -0.2402
  111SOL    HW1  332   2.184   0.008   2.317  1.7388 -1.0862 -2.2899
  111SOL    HW2  333   2.235   0.138   2.413  1.6323 -1.9016 -2.0312
  112SOL     OW  334   2.471   2.928   1.118  0.1308 -0.2289 -0.1991
  112SOL    HW1  335   2.531   2.914   1.037  0.5549  1.5468  1.2876
  112SOL    HW2  336   2.392   2.861   1.121  1.3412 -3.8285 -1.0931
  113SOL     OW  337   2.478   2.516   2.039  0.1036 -0.1597 -0.4498
  113SOL    HW1  338   2.512   2.556   1.947  2.3882  0.7679  0.3642
  113SOL    HW2  339   2.376   2.503   2.043 -1.1520 -1.5060 -0.0449
  114SOL     OW  340   2.901   0.136   0.751  0.0865 -0.3284 -0.2896
  114SOL    HW1  341   2.891   0.193   0.669  1.4181 -1.0818  2.4080
  114SOL    HW2  342   2.886   0.039   0.728 -2.1202  1.9874  1.9903
  115SOL     OW  343   2.803   1.768   0.036  0.3931 -0.2673  0.2539
  115SOL    HW1  344   2.878   1.787   0.097 -3.7985  1.5437 -6.1759
  115SOL    HW2  345   2.743   1.692   0.063  1.7903  2.2369 -3.0433
  116SOL     OW  346   0.233   1.607   1.933 -0.3984  0.1223  0.0657
  116SOL    HW1  347   0.277   1.664   2.001  0.3554 -1.3606 -2.4316
  116SOL    HW2  348   0.170   1.658   1.878  0.0472  0.6207  0.0181
  117SOL     OW  349   2.616   2.918   0.887 -0.4359 -0.1899 -0.3629
  117SOL    HW1  350   2.709   2.914   0.928  1.5254 -1.2428 -0.7000
  117SOL    HW2  351   2.610   2.846   0.814  0.9011  0.2192 -3.0928
  118SOL     OW  352   0.373   2.340   1.680  0.1284  0.1013  0.0085
  118SOL    HW1  353   0.316   2.272   1.627 -0.7241  0.4464  2.1454
  118SOL    HW2  354   0.462   2.357   1.638 -2.1974 -1.2001  1.9302
  119SOL     OW  355   1.511   2.270   1.210 -0.3657 -0.2157 -0.1698
  119SOL    HW1  356   1.468   2.289   1.121  2.9036 -1.0185  0.5591
  119SOL    HW2  357   1.557   2.178   1.211 -2.6646 -1.6926 -1.1937
  120SOL     OW  358   0.613   1.944   1.823 -0.6615  0.1220  0.0768
  120SOL    HW1  359   0.572   1.854   1.843  1.5585 -0.2046 -0.2851
  120SOL    HW2  360   0.541   2.019   1.838  1.7738 -1.7905  0.7147
  121SOL     OW  361   2.467   1.406   0.948  0.0802  0.3989  0.1049
  121SOL    HW1  362   2.433   1.355   1.032 -0.8565 -2.2258 -0.7565
  121SOL    HW2  363   2.540   1.477   0.961 -3.8954  1.1400  0.1618
  122SOL     OW  364   2.096   1.846   2.446  0.1830  0.2494 -0.1023
  122SOL    HW1  365   2.066   1.749   2.438  0.7084 -0.7947  0.9316
  122SOL    HW2  366   2.018   1.909   2.420 -1.6959 -1.5053 -0.5290
  123SOL     OW  367   2.943   2.901   0.738  0.2312  0.2390 -0.3305
  123SOL    HW1  368   3.005   2.828   0.700 -0.0587 -0.2948 -1.1743
  123SOL    HW2  369   2.905   2.886   0.834 -2.2370 -0.1613  0.5156
  124SOL     OW  370   1.332   1.377   2.910  0.5257 -0.0927  0.6113
  124SOL    HW1  371   1.321   1.314   2.990 -0.4761 -0.9238  2.5931
  124SOL    HW2  372   1.431   1.374   2.886  0.4895 -1.5084 -0.7670
  125SOL     OW  373   0.303   1.475   2.688  0.1637 -0.3046  0.1909
  125SOL    HW1  374   0.265   1.569   2.680  2.2190  0.4520 -0.1722
  125SOL    HW2  375   0.225   1.410   2.687  0.4654 -2.3560 -1.9578
  126SOL     OW  376   2.985   2.157   0.414  0.3616  0.0326 -0.7339
  126SOL    HW1  377   2.971   2.243   0.459  0.0607 -1.2428  1.1164
  126SOL    HW2  378   2.949   2.149   0.318 -0.6356  1.0735 -2.0654
  127SOL     OW  379   0.291   1.703   0.954  0.4345 -0.3273  0.5607
  127SOL    HW1  380   0.223   1.638   0.919  1.6674 -0.9313 -1.7141
  127SOL    HW2  381   0.262   1.801   0.931 -0.6049 -2.0546 -0.3088
  128SOL     OW  382   1.485   0.986   0.082  0.2357  0.1239  0.1914
  128SOL    HW1  383   1.525   1.039   0.161  1.1229  2.2191 -0.0742
  128SOL    HW2  384   1.469   0.891   0.108  3.1269  1.3850 -0.4246
  129SOL     OW  385   2.195   1.708   1.142  0.1548  0.5017  0.1636
  129SOL    HW1  386   2.201   1.793   1.089  2.3945  1.3516 -1.2036
  129SOL    HW2  387   2.239   1.715   1.232 -0.8817  0.2260 -0.1089
  130SOL     OW  388   2.137   1.359   0.475  0.3107  0.2446  0.6483
  130SOL    HW1  389   2.117   1.322   0.378 -0.0679  0.8208 -2.0519
  130SOL    HW2  390   2.108   1.294   0.548 -1.4006 -0.8202 -0.5888
  131SOL     OW  391   2.871   1.283   2.649 -0.3924 -0.2420  0.0493
  131SOL    HW1  392   2.857   1.244   2.742  2.3298  1.9434 -1.4489
  131SOL    HW2  393   2.863   1.384   2.654  1.6758 -0.2148  2.6505
  132SOL     OW  394   1.847   1.647   1.820  0.1547 -0.1453 -0.0188
  132SOL    HW1  395   1.838   1.738   1.865  2.0772  0.2749  1.5579
  132SOL    HW2  396   1.888   1.650   1.728 -2.3810  0.2545  0.6279
  133SOL     OW  397   0.277   1.117   3.055 -0.7725  0.6294  0.4147
  133SOL    HW1  398   0.250   1.088   0.041  1.5220  0.9635 -1.1463
  133SOL    HW2  399   0.375   1.090   3.038 -0.7291 -2.8818  1.9274
  134SOL     OW  400   2.665   1.176   0.442 -0.0331  0.1343 -0.7635
  134SOL    HW1  401   2.565   1.190   0.458  0.6681  0.9544 -1.1562
  134SOL    HW2  402   2.709   1.261   0.429  1.8039 -2.9031  0.8971
  135SOL     OW  403   2.684   0.926   0.338  0.6386 -0.2404  0.1847
  135SOL    HW1  404   2.680   1.016   0.393 -0.0284  4.9633  3.0805
  135SOL    HW2  405   2.594   0.897   0.298  2.4986 -1.4484 -2.1620
  136SOL     OW  406   1.853   1.705   1.361 -0.1358 -0.1642  0.4616
  136SOL    HW1  407   1.907   1.707   1.450  1.2712 -1.2912  2.6497
  136SOL    HW2  408   1.829   1.606   1.331 -2.4050 -1.4526  1.5781
  137SOL     OW  409   2.434   2.165   0.940  0.0289 -0.4304 -0.4655
  137SOL    HW1  410   2.497   2.168   0.860 -0.0607  0.3181 -0.5792
  137SOL    HW2  411   2.471   2.224   1.019  0.9764  1.3658  2.9776
  138SOL     OW  412   2.049   0.022   1.824 -0.5353 -0.3667 -0.2699
  138SOL    HW1  413   1.956   0.036   1.859  2.0498  1.3956 -0.4440
  138SOL    HW2  414   2.108   0.102   1.838 -1.2329 -0.4731  0.0234
  139SOL     OW  415   2.645   0.344   0.080  0.7011  0.1252  0.5193
  139SOL    HW1  416   2.619   0.248   0.107  1.7485  0.4042  2.4984
  139SOL    HW2  417   2.646   0.361   3.088 -0.3401 -0.3095  0.2739
  140SOL     OW  418   1.184   1.821   2.410  0.0007  0.2692  0.6994
  140SOL    HW1  419   1.238   1.775   2.485 -0.3378 -0.0363 -2.3290
  140SOL    HW2  420   1.082   1.791   2.413 -2.7343 -3.4991  1.1039
  141SOL     OW  421   0.685   0.751   1.953 -0.2858 -0.2281  0.5914
  141SOL    HW1  422   0.662   0.723   2.051  0.8266  1.0072  2.2824
  141SOL    HW2  423   0.740   0.832   1.949 -1.6310 -2.7150 -0.1909
  142SOL     OW  424   2.062   2.701   0.002 -0.3107  0.7584  0.2678
  142SOL    HW1  425   2.061   2.701   3.009 -0.4457  1.9212  0.9965
  142SOL    HW2  426   2.122   2.629   0.045 -1.4825  2.6421  0.1770
  143SOL     OW  427   1.099   2.043   0.062 -0.8684  0.1441 -0.0479
  143SOL    HW1  428   1.123   2.065   3.071  2.0348  1.7228 -1.1224
  143SOL    HW2  429   1.002   2.011   0.073 -0.0307  2.3805 -0.1416
  144SOL     OW  430   1.145   2.632   0.401 -0.3269  0.2425 -0.0049
  144SOL    HW1  431   1.135   2.532   0.420 -0.9116  1.9621 -1.2074
  144SOL    HW2  432   1.240   2.660   0.382 -1.5513  0.6825  3.1664
  145SOL     OW  433   2.238   1.875   2.691  0.4705 -0.1201 -0.0380
  145SOL    HW1  434   2.164   1.887   2.628  1.1598  2.8193  1.8588
  145SOL    HW2  435   2.303   1.953   2.697  0.3474 -0.9417  1.0600
  146SOL     OW  436   2.476   2.596   2.960  0.0928 -0.1309 -0.0867
  146SOL    HW1  437   2.452   2.694   2.949  1.4933 -2.5478  1.0574
  146SOL    HW2  438   2.500   2.573   3.055  0.9643  0.9769  1.4943
  147SOL     OW  439   2.913   1.497   1.252 -0.3386  0.0066  0.1160
  147SOL    HW1  440   2.935   1.521   1.154  0.9495 -0.1008  0.1228
  147SOL    HW2  441   2.814   1.499   1.265  0.7240  1.5887 -0.7470
  148SOL     OW  442   1.875   2.901   3.043 -0.4761 -0.5974 -0.5698
  148SOL    HW1  443   1.949   2.838   3.079  0.7821 -3.3104  0.4256
  148SOL    HW2  444   1.805   2.850   2.995  1.9687  0.7676  2.3870
  149SOL     OW  445   0.513   1.659   2.849  0.3893  0.3909  0.0354
  149SOL    HW1  446   0.618   1.652   2.835  1.2762  0.8285 -0.0547
  149SOL    HW2  447   0.477   1.582   2.897 -1.1556  0.0354 -0.3612
  150SOL     OW  448   0.249   2.349   0.521  0.1787 -0.5389  0.7300
  150SOL    HW1  449   0.249   2.298   0.432  0.1032 -0.3556  1.8942
  150SOL    HW2  450   0.342   2.352   0.557 -1.3875  0.3920 -2.3607
  151SOL     OW  451   0.465   1.570   0.389 -0.3034 -0.4460  0.5790
  151SOL    HW1  452   0.403   1.490   0.398 -1.7196 -2.7180  2.6811
  151SOL    HW2  453   0.488   1.588   0.292  0.9930  0.0871 -0.5029
  152SOL     OW  454   2.791   1.674   0.719  0.2753 -0.1117 -0.5069
  152SOL    HW1  455   2.727   1.748   0.754 -0.5225 -0.5339  1.5537
  152SOL    HW2  456   2.878   1.678   0.774  0.0390 -0.3928  1.4345
  153SOL     OW  457   2.094   2.519   0.356  0.8053  0.1131  0.4494
  153SOL    HW1  458   2.138   2.603   0.385  0.5973 -1.5569 -0.0457
  153SOL    HW2  459   1.997   2.506   0.390 -1.9407  0.5939  0.3962
  154SOL     OW  460   0.912   2.786   0.900  0.2849  0.4451  0.3071
  154SOL    HW1  461   0.954   2.866   0.943  0.2884  0.1680 -1.5358
  154SOL    HW2  462   0.810   2.788   0.905 -2.1625  0.5150  2.1078
  155SOL     OW  463   0.246   1.974   0.917 -0.5879 -0.1101  0.4765
  155SOL    HW1  464   0.171   1.982   0.986  2.3359  0.4063  3.1566
  155SOL    HW2  465   0.234   2.041   0.840  0.1311  3.3782  3.6781
  156SOL     OW  466   2.455   2.376   0.059 -0.4779 -0.0549  0.2101
  156SOL    HW1  467   2.431   2.294   3.104  0.5768  2.1519 -0.6064
  156SOL    HW2  468   2.543   2.357   0.109  0.4242  1.2371  1.1578
  157SOL     OW  469   0.691   1.611   1.521 -0.0447 -0.1573  0.2592
  157SOL    HW1  470   0.714   1.708   1.540 -2.0227  0.9093 -1.3785
  157SOL    HW2  471   0.674   1.608   1.422 -1.2428 -2.7657  2.1656
  158SOL     OW  472   1.474   0.740   0.204  0.4220 -0.3279  0.3210
  158SOL    HW1  473   1.524   0.655   0.187  0.1896  1.8144  3.1338
  158SOL    HW2  474   1.474   0.769   0.302 -1.2582 -0.3072  0.9357
  159SOL     OW  475   1.185   0.965   2.866  0.0754 -0.0242  0.4371
  159SOL    HW1  476   1.197   0.988   2.767 -1.6292 -1.5477 -0.4257
  159SOL    HW2  477   1.242   1.025   2.922 -0.4825 -1.8988 -2.1832
  160SOL     OW  478   1.200   1.466   0.580 -0.0461  0.2369 -0.4587
  160SOL    HW1  479   1.244   1.563   0.593  2.8028  2.1138  0.3375
  160SOL    HW2  480   1.260   1.391   0.602  0.9418  2.6698  1.1439
  161SOL     OW  481   0.068   2.344   2.837  0.1629 -0.2706 -0.4869
  161SOL    HW1  482   0.024   2.311   2.753 -0.1228  0.3847  2.5462
  161SOL    HW2  483   0.128   2.273   2.872  2.4283  0.0983 -1.1907
  162SOL     OW  484   0.395   2.307   0.911  0.0586 -0.1019 -0.0671
  162SOL    HW1  485   0.327   2.276   0.842  1.3545  2.7356  1.0252
  162SOL    HW2  486   0.410   2.238   0.988 -0.2425 -1.2808  1.5127
  163SOL     OW  487   0.180   0.799   2.958 -0.2507  0.5279 -0.1997
  163SOL    HW1  488   0.119   0.723   2.934  0.5680 -0.8329  1.0331
  163SOL    HW2  489   0.223   0.783   3.053  0.1945  5.1244  0.3060
  164SOL     OW  490   0.474   2.940   2.720  0.2946  0.3889  0.2505
  164SOL    HW1  491   0.466   2.995   2.806  0.3546  2.9483  0.0132
  164SOL    HW2  492   0.565   2.959   2.675 -0.6335 -0.5341 -2.7659
  165SOL     OW  493   2.163   0.262   1.911 -0.3643  0.0492 -0.1479
  165SOL    HW1  494   2.143   0.253   2.010  2.6690 -0.5819  0.2369
  165SOL    HW2  495   2.161   0.359   1.882  2.0361 -1.3387  2.9780
  166SOL     OW  496   2.036   2.688   1.585 -0.7362  0.2235  0.3597
  166SOL    HW1  497   2.064   2.596   1.619 -1.1856  0.3169  1.6578
  166SOL    HW2  498   2.109   2.760   1.591  0.4897  1.3566  0.2859
  167SOL     OW  499   1.040   0.441   2.233 -0.1010  0.0014  0.3199
  167SOL    HW1  500   1.033   0.347   2.275  0.4625  1.2222 -0.5948
  167SOL    HW2  501   1.108   0.490   2.285  0.8994 -0.2889 -1.5291
  168SOL     OW  502   2.452   3.077   1.984 -0.6875 -0.4177 -0.2764
  168SOL    HW1  503   2.541   0.021   1.988  0.3518  2.3643  0.7095
  168SOL    HW2  504   2.442   3.034   2.076  2.3268  0.1051 -1.1500
  169SOL     OW  505   3.054   1.452   0.088  0.2165  0.3819 -0.2215
  169SOL    HW1  506   3.041   1.494   0.182 -0.6160  1.1851 -1.3478
  169SOL    HW2  507   3.025   1.354   0.097  2.6127 -2.7141 -0.8631
  170SOL     OW  508   0.070   1.651   1.691 -0.0102 -0.1382 -0.3453
  170SOL    HW1  509   0.067   1.617   1.598  0.2900 -0.3375  3.4553
  170SOL    HW2  510   0.018   1.593   1.753  1.9884  2.2071 -0.3969
  171SOL     OW  511   0.916   2.367   2.265 -0.3991  0.6304 -0.2734
  171SOL    HW1  512   0.869   2.407   2.343  4.1251 -5.5032 -2.8578
  171SOL    HW2  513   0.928   2.266   2.284 -1.5313 -2.8794  1.9067
  172SOL     OW  514   0.685   2.620   2.152 -0.7415 -0.2311 -0.5177
  172SOL    HW1  515   0.695   2.531   2.106 -1.6529 -1.9015 -0.2170
  172SOL    HW2  516   0.586   2.637   2.157 -0.0081  0.1223 -1.1165
  173SOL     OW  517   1.264   2.680   0.766 -0.1501  0.4276  0.4412
  173SOL    HW1  518   1.218   2.767   0.747 -0.0781  0.1823  3.6697
  173SOL    HW2  519   1.337   2.694   0.842  1.4499  1.3499  0.4942
  174SOL     OW  520   1.926   0.326   0.520  0.2482 -0.0330  0.4392
  174SOL    HW1  521   1.942   0.295   0.613  0.1678  2.8714 -2.1590
  174SOL    HW2  522   1.991   0.286   0.455 -2.1321 -2.8681  2.0613
  175SOL     OW  523   1.243   1.552   0.280  0.4357  0.0168  0.3194
  175SOL    HW1  524   1.254   1.653   0.273 -1.6005 -3.1268  0.8993
  175SOL    HW2  525   1.234   1.526   0.379  0.6276  0.4228  0.5461
  176SOL     OW  526   1.386   1.470   0.942 -1.2440  0.5297  0.4835
  176SOL    HW1  527   1.323   1.476   0.862 -0.1321 -1.2332 -1.3001
  176SOL    HW2  528   1.478   1.462   0.896  1.2872  0.2364  0.7086
  177SOL     OW  529   1.261   0.641   1.267  0.1114 -0.4817 -0.8824
  177SOL    HW1  530   1.200   0.610   1.344 -0.7832  0.1719  3.9828
  177SOL    HW2  531   1.255   0.737   1.242 -0.8152  0.1466 -3.6865
  178SOL     OW  532   2.666   1.564   0.133  0.1476  0.4931  0.2580
  178SOL    HW1  533   2.619   1.575   0.221 -0.7707 -1.4991 -0.8990
  178SOL    HW2  534   2.726   1.486   0.125  0.8103  2.3229 -0.4113
  179SOL     OW  535   0.484   2.321   0.075  0.1101 -0.4989 -0.4661
  179SOL    HW1  536   0.504   2.227   0.104 -0.8113  0.7373  0.0960
  179SOL    HW2  537   0.552   2.388   0.110  1.6669 -1.6347  0.1508
  180SOL     OW  538   1.563   1.329   1.670  0.2199 -0.1441 -0.0637
  180SOL    HW1  539   1.487   1.378   1.721 -3.0718  0.7432  0.3176
  180SOL    HW2  540   1.609   1.393   1.602  2.2097  1.3919 -3.1028
  181SOL     OW  541   0.892   0.991   2.242  0.4328 -0.1736  0.0211
  181SOL    HW1  542   0.867   0.988   2.143 -0.7542 -2.3548  2.6081
  181SOL    HW2  543   0.967   0.923   2.259 -1.5565  0.6277  2.0177
  182SOL     OW  544   2.942   1.135   2.239  0.6150 -0.4350  0.0119
  182SOL    HW1  545   2.872   1.191   2.289 -0.4744 -0.0896  0.2721
  182SOL    HW2  546   2.939   1.170   2.141  0.6158 -0.7611  0.5656
  183SOL     OW  547   1.595   0.624   2.221 -0.1243  0.4792  0.0572
  183SOL    HW1  548   1.689   0.617   2.186 -0.4405 -2.4895  1.1046
  183SOL    HW2  549   1.530   0.590   2.156  1.0955 -0.6751  0.6471
  184SOL     OW  550   0.170   0.630   1.640  0.0584  0.0612 -0.3806
  184SOL    HW1  551   0.270   0.630   1.655 -2.9108  0.0055 -0.9498
  184SOL    HW2  552   0.147   0.607   1.548 -0.1759  1.3185  0.5063
  185SOL     OW  553   2.308   1.805   0.650 -0.1061  0.4706  0.2940
  185SOL    HW1  554   2.242   1.879   0.623 -0.7743 -0.0143 -0.5047
  185SOL    HW2  555   2.286   1.718   0.595  0.1136 -0.0614  0.0855
  186SOL     OW  556   0.483   1.874   3.052 -0.4352 -0.0974  0.4669
  186SOL    HW1  557   0.415   1.864   2.971 -0.1438 -2.7859 -1.9894
  186SOL    HW2  558   0.570   1.910   3.012 -1.0769  0.7322 -1.5380
  187SOL     OW  559   2.426   1.772   3.023 -0.4808  0.4252 -0.5095
  187SOL    HW1  560   2.437   1.683   2.973 -1.0482 -3.0148 -0.9614
  187SOL    HW2  561   2.515   1.825   3.008 -0.1176  2.9334 -0.1132
  188SOL     OW  562   0.999   2.596   0.724 -0.2922 -0.7226  0.6606
  188SOL    HW1  563   1.102   2.611   0.724  0.0845  0.1889  0.3344
  188SOL    HW2  564   0.954   2.652   0.794  1.7638 -1.7788 -2.1848
  189SOL     OW  565   2.060   0.841   2.736  0.0011  0.2935  0.1508
  189SOL    HW1  566   1.972   0.802   2.709  1.9455 -0.7213  1.0167
  189SOL    HW2  567   2.051   0.939   2.759  0.0327 -1.9728 -3.6943
  190SOL     OW  568   0.943   2.105   2.351  0.0694  0.0032 -0.3467
  190SOL    HW1  569   0.913   2.024   2.411  1.3638 -1.9830  1.5529
  190SOL    HW2  570   1.038   2.126   2.372  2.6251 -1.4786  0.9279
  191SOL     OW  571   2.403   0.904   1.698  0.3516  0.1574 -0.3189
  191SOL    HW1  572   2.483   0.842   1.714 -0.0491 -3.3115  1.3305
  191SOL    HW2  573   2.429   0.979   1.633 -0.6852  1.4580 -3.0120
  192SOL     OW  574   2.129   0.332   2.190  0.7640 -0.2892  0.3401
  192SOL    HW1  575   2.224   0.359   2.209  0.8888 -0.2278  0.4053
  192SOL    HW2  576   2.105   0.245   2.233  1.3111 -0.2778  1.5387
  193SOL     OW  577   0.466   0.449   0.596 -0.2243 -0.8310  0.1831
  193SOL    HW1  578   0.419   0.368   0.563  0.8672  2.6882  2.5103
  193SOL    HW2  579   0.466   0.452   0.697 -0.1578 -2.4234 -0.0218
  194SOL     OW  580   1.159   2.441   1.460  0.2345  0.1494 -0.1083
  194SOL    HW1  581   1.160   2.523   1.519 -0.6876 -0.1214 -1.1187
  194SOL    HW2  582   1.225   2.372   1.497 -1.7627  0.0245  2.6309
  195SOL     OW  583   2.592   0.654   0.860  0.3905  0.2972  0.0184
  195SOL    HW1  584   2.554   0.565   0.840  2.6044 -0.2770 -0.2885
  195SOL    HW2  585   2.545   0.699   0.939 -0.4265  0.2937 -3.0215
  196SOL     OW  586   1.213   1.900   1.745 -0.0304  0.6513 -0.1585
  196SOL    HW1  587   1.153   1.937   1.671 -0.8752  0.5805  1.3316
  196SOL    HW2  588   1.185   1.953   1.830 -1.2312  0.1787  0.2509
  197SOL     OW  589   0.401   0.513   2.379  0.0587 -0.9989 -0.3571
  197SOL    HW1  590   0.407   0.599   2.435 -2.6361  0.8120 -0.2895
  197SOL    HW2  591   0.321   0.530   2.318 -1.6548 -0.5777 -1.0784
  198SOL     OW  592   1.568   1.163   0.880 -0.1839  0.4947 -0.4208
  198SOL    HW1  593   1.466   1.174   0.881 -2.0767  0.3921  0.7633
  198SOL    HW2  594   1.609   1.198   0.967  1.9477 -0.2559  1.3690
  199SOL     OW  595   2.387   0.406   2.276 -0.7350 -0.1717 -0.5980
  199SOL    HW1  596   2.394   0.433   2.375  2.3244  1.5045 -0.2141
  199SOL    HW2  597   2.451   0.328   2.255 -0.5519 -1.2638 -0.3773
  200SOL     OW  598   2.346   2.499   2.386 -0.1482 -0.1534  0.2886
  200SOL    HW1  599   2.433   2.547   2.402  1.2724 -0.5605 -0.9802
  200SOL    HW2  600   2.354   2.397   2.404  1.4139 -0.9593 -0.2814
  201SOL     OW  601   2.179   0.133   1.577  0.0250 -0.1167  0.0858
  201SOL    HW1  602   2.095   0.138   1.630  0.8192  1.6108 -0.4960
  201SOL    HW2  603   2.259   0.117   1.635 -0.7618 -2.0769  0.4808
  202SOL     OW  604   2.184   2.968   0.191 -0.0004  0.2971 -0.0045
  202SOL    HW1  605   2.255   3.038   0.215 -0.6401  0.1877  0.4316
  202SOL    HW2  606   2.152   2.989   0.097 -1.1940  1.3397  0.0792
  203SOL     OW  607   0.812   1.904   2.464  0.2847  0.5473  0.4927
  203SOL    HW1  608   0.729   1.885   2.413 -1.5234 -0.8737  1.2029
  203SOL    HW2  609   0.785   1.959   2.545  0.4258 -1.1620 -0.6497
  204SOL     OW  610   0.955   1.254   2.626 -0.3194 -0.1824 -0.1748
  204SOL    HW1  611   0.885   1.316   2.662  0.5586  0.5857 -1.2673
  204SOL    HW2  612   0.937   1.156   2.645  1.2599 -0.8795 -2.2833
  205SOL     OW  613   1.092   0.896   1.507  0.2146  0.0994 -0.6862
  205SOL    HW1  614   1.166   0.838   1.558 -0.4081 -1.4040  1.2654
  205SOL    HW2  615   1.098   0.888   1.404 -0.7951  0.0638  0.0466
  206SOL     OW  616   0.517   0.382   2.795  0.3608 -0.3372 -0.0877
  206SOL    HW1  617   0.538   0.375   2.698 -0.5092  0.2639  0.8018
  206SOL    HW2  618   0.554   0.304   2.844 -3.0884  0.1542 -0.4383
  207SOL     OW  619   1.794   2.540   1.878 -0.2192  0.3539 -0.7967
  207SOL    HW1  620   1.843   2.566   1.960  3.3566 -0.6801 -1.0580
  207SOL    HW2  621   1.785   2.613   1.807  0.9742  0.3874 -0.1071
  208SOL     OW  622   0.981   2.565   1.073 -0.3588  0.0752  0.2297
  208SOL    HW1  623   0.947   2.655   1.049 -1.8644 -0.7019  0.8177
  208SOL    HW2  624   0.919   2.494   1.030 -1.3510 -0.1725  0.1276
  209SOL     OW  625   1.258   1.619   2.830 -0.2025 -0.2019  0.3286
  209SOL    HW1  626   1.273   1.702   2.896  1.6864  2.7007  0.6911
  209SOL    HW2  627   1.274   1.530   2.870 -0.5608  1.9846  0.7383
  210SOL     OW  628   2.170   0.755   1.007  0.1512 -0.1609  0.3070
  210SOL    HW1  629   2.264   0.779   1.027 -0.1737 -2.4129 -1.9441
  210SOL    HW2  630   2.158   0.715   0.915  1.2503 -2.4940  2.1679
  211SOL     OW  631   0.883   2.725   0.476 -0.0380  0.1505 -0.1882
  211SOL    HW1  632   0.890   2.661   0.559  0.8880  0.3209 -1.5904
  211SOL    HW2  633   0.971   2.732   0.433 -2.3600 -1.1451 -0.5951
  212SOL     OW  634   2.214   2.014   0.155 -0.1597  0.1934 -0.2005
  212SOL    HW1  635   2.300   1.963   0.137 -0.2725 -1.5691 -0.5357
  212SOL    HW2  636   2.212   2.096   0.104  0.7333 -1.1888  1.3788
  213SOL     OW  637   1.773   0.635   3.081 -0.4270  0.8356 -0.2249
  213SOL    HW1  638   1.824   0.723   3.091 -1.2317 -2.1419  1.0808
  213SOL    HW2  639   1.820   0.570   3.013  2.8831  0.4278 -2.8452
  214SOL     OW  640   1.106   2.048   1.961 -0.3121 -0.2719  0.0861
  214SOL    HW1  641   1.014   2.090   1.948 -2.0113 -0.8103 -0.9063
  214SOL    HW2  642   1.175   2.114   1.995 -0.1777 -0.9302 -1.1470
  215SOL     OW  643   0.568   1.815   0.530 -0.5681  0.0906  0.0928
  215SOL    HW1  644   0.549   1.768   0.443 -1.5389 -1.4638 -0.6434
  215SOL    HW2  645   0.484   1.866   0.564  0.3941 -0.2250 -2.2525
  216SOL     OW  646   0.116   0.010   2.532  0.0128 -0.3277  0.3227
  216SOL    HW1  647   0.119   3.017   2.543 -1.8694  0.7888  2.8474
  216SOL    HW2  648   0.135   0.028   2.432 -0.3327  0.9100  0.3370
  217SOL     OW  649   2.398   0.660   1.311 -0.0045 -0.7076 -0.3527
  217SOL    HW1  650   2.319   0.597   1.321  0.5240 -0.9660 -1.2379
  217SOL    HW2  651   2.480   0.622   1.356  1.0476 -1.3891 -1.3508
  218SOL     OW  652   1.435   1.688   1.991  0.1003  0.4233  0.1881
  218SOL    HW1  653   1.491   1.766   1.956 -0.4514  0.9385  2.1502
  218SOL    HW2  654   1.351   1.723   2.036  2.0387  2.2884  0.8527
  219SOL     OW  655   2.103   1.580   0.089  0.2222  0.6623 -0.3972
  219SOL    HW1  656   2.138   1.504   0.036  1.6096  1.9823  1.6516
  219SOL    HW2  657   2.044   1.644   0.033  0.6331  2.0455 -1.1324
  220SOL     OW  658   2.087   0.734   0.383  0.2435 -0.1078 -0.3050
  220SOL    HW1  659   2.054   0.822   0.344 -0.0301 -2.7671 -0.1900
  220SOL    HW2  660   2.032   0.654   0.342 -0.7497 -2.4501 -0.7082
  221SOL     OW  661   0.086   0.535   2.953 -0.0185  0.0433 -0.8919
  221SOL    HW1  662   0.067   0.530   3.054 -1.1103 -1.1332  0.7270
  221SOL    HW2  663   0.064   0.445   2.904  0.3151 -3.9380 -0.3740
  222SOL     OW  664   1.512   1.775   0.436 -0.1562 -0.0926 -0.0494
  222SOL    HW1  665   1.580   1.699   0.451  2.3503 -2.9336 -1.2547
  222SOL    HW2  666   1.552   1.865   0.465  1.0219  0.3337  0.1154
  223SOL     OW  667   1.037   0.150   0.309  0.2900 -0.4808  0.1662
  223SOL    HW1  668   1.130   0.196   0.323  1.5196  1.3920  2.0315
  223SOL    HW2  669   0.961   0.221   0.315 -0.3415  0.6283 -0.2454
  224SOL     OW  670   1.707   0.102   1.317 -0.6312  0.2246 -0.0394
  224SOL    HW1  671   1.735   0.024   1.372  1.3490  0.5815  2.4474
  224SOL    HW2  672   1.790   0.155   1.284  1.0469  0.7413  1.3041
  225SOL     OW  673   0.725   2.257   1.176  0.0965 -0.0158 -0.0854
  225SOL    HW1  674   0.801   2.283   1.240  2.8781  0.4945  0.2411
  225SOL    HW2  675   0.744   2.294   1.082  0.9809 -0.1836  0.5634
  226SOL     OW  676   1.031   1.528   2.988  0.1716  0.1945 -0.3293
  226SOL    HW1  677   1.114   1.507   2.937  0.5698 -1.2152  2.0270
  226SOL    HW2  678   1.053   1.599   3.059 -0.2683  0.7848 -1.7236
  227SOL     OW  679   1.072   1.427   1.390 -0.3968  0.0255  0.1318
  227SOL    HW1  680   1.041   1.384   1.303  0.1386 -2.8857 -0.9638
  227SOL    HW2  681   1.073   1.531   1.382 -0.6491  2.1577  0.0952
  228SOL     OW  682   0.274   1.886   0.613  0.0836 -0.5050  0.0521
  228SOL    HW1  683   0.201   1.827   0.649  3.7720 -0.0340 -0.3334
  228SOL    HW2  684   0.222   1.946   0.549  0.1594  0.2836 -1.0675
  229SOL     OW  685   1.770   0.193   2.736 -0.1461 -0.0409  0.0828
  229SOL    HW1  686   1.817   0.204   2.647  0.3015  1.8360 -2.4128
  229SOL    HW2  687   1.676   0.231   2.722 -1.4085 -0.1339 -0.5727
  230SOL     OW  688   1.563   1.160   2.719  0.0314 -0.1554  0.5557
  230SOL    HW1  689   1.633   1.111   2.663  0.5819 -3.0215  0.6222
  230SOL    HW2  690   1.582   1.264   2.725  2.5547  3.3442 -0.6686
  231SOL     OW  691   0.958   1.689   2.465 -0.8772  0.0630  0.4047
  231SOL    HW1  692   0.946   1.608   2.403 -1.2432 -0.3408 -2.4428
  231SOL    HW2  693   0.877   1.749   2.468 -2.4320 -0.5476  0.5073
  232SOL     OW  694   2.336   2.393   0.405 -0.1332  0.1032  0.1824
  232SOL    HW1  695   2.239   2.390   0.379 -1.8542  1.4953  1.8075
  232SOL    HW2  696   2.370   2.305   0.449  0.1862 -1.3739  0.1447
  233SOL     OW  697   2.685   2.343   0.549 -0.0951 -0.0961 -0.4686
  233SOL    HW1  698   2.640   2.320   0.465 -1.2654  2.6640 -0.3338
  233SOL    HW2  699   2.673   2.267   0.618 -1.2386  0.4521  1.2090
  234SOL     OW  700   0.785   0.456   3.035 -0.4232  0.3825 -0.2350
  234SOL    HW1  701   0.757   0.360   3.008 -0.4663 -0.7740  1.2970
  234SOL    HW2  702   0.858   0.489   2.976 -1.6697  1.8586  0.6951
  235SOL     OW  703   2.577   0.288   2.839  0.0497  0.0038  0.4443
  235SOL    HW1  704   2.611   0.204   2.890  0.8562  1.1102 -1.4977
  235SOL    HW2  705   2.651   0.315   2.773  1.7646 -1.2634 -0.7758
  236SOL     OW  706   1.962   2.361   1.165  0.1628 -0.3428  0.0380
  236SOL    HW1  707   1.923   2.288   1.224 -1.9436  1.3424  1.0536
  236SOL    HW2  708   2.050   2.390   1.205 -0.4808 -3.0598  1.4242
  237SOL     OW  709   0.772   1.973   2.154 -0.5210 -0.4000 -0.0213
  237SOL    HW1  710   0.796   2.018   2.069 -0.4599  0.1293  2.1941
  237SOL    HW2  711   0.828   2.011   2.231  1.5856 -0.8235 -1.2638
  238SOL     OW  712   1.361   3.055   2.625  0.1867 -0.3325  0.5280
  238SOL    HW1  713   1.338   2.991   2.705  0.8483 -1.9594 -0.9254
  238SOL    HW2  714   1.279   3.080   2.571 -1.0621  0.1970  1.8738
  239SOL     OW  715   0.414   2.130   1.860 -0.0918  0.2142 -0.4235
  239SOL    HW1  716   0.442   2.161   1.956  0.9784  1.4110  2.0949
  239SOL    HW2  717   0.396   2.209   1.802  3.2332 -2.2854  1.3367
  240SOL     OW  718   2.377   2.629   0.536  0.5509 -0.1144 -0.0415
  240SOL    HW1  719   2.307   2.695   0.498  1.3600 -2.4803 -2.4475
  240SOL    HW2  720   2.354   2.538   0.500 -0.3539  0.7031 -1.9954
  241SOL     OW  721   2.437   0.790   1.059 -0.3858 -0.1958  0.1089
  241SOL    HW1  722   2.453   0.746   1.146 -0.3611  2.4762 -1.5175
  241SOL    HW2  723   2.492   0.877   1.050  2.0704  0.4367 -0.8788
  242SOL     OW  724   2.203   2.519   2.136  0.1876  0.4393  0.0441
  242SOL    HW1  725   2.106   2.515   2.152 -0.2754  0.8112 -2.7100
  242SOL    HW2  726   2.253   2.508   2.223 -0.1633  0.9757  0.3862
  243SOL     OW  727   0.909   2.386   1.368  0.0530 -0.5159 -0.1850
  243SOL    HW1  728   1.008   2.397   1.392 -1.2959  2.1481 -1.1429
  243SOL    HW2  729   0.863   2.479   1.372 -0.9355  2.5340 -1.0998
  244SOL     OW  730   1.854   0.447   2.890  0.1495  0.2654 -0.2187
  244SOL    HW1  731   1.777   0.407   2.838  0.8154 -1.9280  2.4152
  244SOL    HW2  732   1.941   0.436   2.842 -2.2141  2.1309  0.4451
  245SOL     OW  733   1.450   0.430   1.261  0.2250 -0.4793  0.5337
  245SOL    HW1  734   1.411   0.524   1.282 -0.1598  2.5545 -1.2524
  245SOL    HW2  735   1.392   0.385   1.193  0.3468  0.7246  1.3695
  246SOL     OW  736   1.790   2.579   0.050  0.2017  0.4004 -0.2376
  246SOL    HW1  737   1.884   2.619   0.067 -0.6312  0.1003  1.1305
  246SOL    HW2  738   1.763   2.578   3.059 -1.6628  0.0608 -0.4078
  247SOL     OW  739   1.194   0.639   2.411  0.2306 -0.0079 -1.0248
  247SOL    HW1  740   1.166   0.574   2.483  1.2830 -1.1367  0.9260
  247SOL    HW2  741   1.288   0.677   2.424 -0.9396 -0.4120  0.2243
  248SOL     OW  742   0.682   1.901   1.556  0.0319 -0.6439 -0.2536
  248SOL    HW1  743   0.742   1.948   1.491 -1.1486  0.1115  1.4256
  248SOL    HW2  744   0.704   1.928   1.651  1.3864 -1.0510 -0.6990
  249SOL     OW  745   2.259   0.187   0.509  0.1409  0.0724  0.0587
  249SOL    HW1  746   2.223   0.268   0.461  0.0914  0.3684  1.1564
  249SOL    HW2  747   2.185   0.118   0.512  1.3571  0.9473 -1.5633
  250SOL     OW  748   2.849   0.447   2.936 -0.4609  0.2416  0.4204
  250SOL    HW1  749   2.867   0.345   2.943 -1.2472 -0.2058 -1.1361
  250SOL    HW2  750   2.912   0.506   2.990 -0.0956  0.9979 -0.6265
  251SOL     OW  751   1.353   0.554   3.082  0.1927  0.3570 -0.3336
  251SOL    HW1  752   1.434   0.586   3.029  0.3631  1.3251 -0.1590
  251SOL    HW2  753   1.273   0.609   3.063  4.1344  1.2548 -1.3701
  252SOL     OW  754   1.805   1.960   1.911 -0.2006  0.5900  0.8744
  252SOL    HW1  755   1.704   1.955   1.904 -0.2490  2.6201  0.8369
  252SOL    HW2  756   1.828   1.944   2.005 -2.4674  0.7940 -6.1303
  253SOL     OW  757   2.545   2.314   1.136 -0.0891 -0.3130 -0.2514
  253SOL    HW1  758   2.643   2.295   1.108 -0.6949  1.8120  0.9023
  253SOL    HW2  759   2.530   2.412   1.159  1.6268 -2.3032 -0.0420
  254SOL     OW  760   2.783   1.215   1.015  0.3005 -0.0958  0.4612
  254SOL    HW1  761   2.833   1.208   1.102  0.6240 -0.7925 -1.2040
  254SOL    HW2  762   2.793   1.303   0.969  1.1032 -2.1875 -1.1386
  255SOL     OW  763   1.305   0.304   1.082 -0.1078  0.0666  0.2441
  255SOL    HW1  764   1.260   0.214   1.072  0.0762 -0.1266 -0.8843
  255SOL    HW2  765   1.234   0.378   1.084 -1.8138  0.0527 -1.4169
  256SOL     OW  766   1.562   2.464   1.374  0.0238  0.2135  0.2995
  256SOL    HW1  767   1.492   2.534   1.372  4.0223 -1.1136  0.8218
  256SOL    HW2  768   1.548   2.380   1.316 -0.3916 -0.9529 -0.1065
  257SOL     OW  769   0.708   3.014   2.556  0.0293  0.8325  0.0783
  257SOL    HW1  770   0.810   3.001   2.563  0.4574 -1.5914 -0.0213
  257SOL    HW2  771   0.679   2.972   2.466  1.0067  0.8150 -3.6083
  258SOL     OW  772   0.917   2.358   0.606 -0.7115  0.0803 -0.4549
  258SOL    HW1  773   0.928   2.450   0.639 -1.3501 -0.9826 -0.8403
  258SOL    HW2  774   0.906   2.290   0.683 -1.3498 -2.1571 -1.3149
  259SOL     OW  775   1.675   3.005   2.807 -0.6354  0.3791  0.0938
  259SOL    HW1  776   1.649   3.097   2.823  0.5892 -3.1372  1.8315
  259SOL    HW2  777   1.684   2.986   2.706 -3.6655 -0.2270  0.7851
  260SOL     OW  778   2.419   0.329   1.606 -0.0212  0.4533  0.2957
  260SOL    HW1  779   2.327   0.376   1.606  0.7752  0.0074 -2.5884
  260SOL    HW2  780   2.429   0.262   1.530 -1.1613 -1.1205 -1.1657
  261SOL     OW  781   0.625   0.367   2.521  0.0207 -0.0876 -0.3627
  261SOL    HW1  782   0.537   0.379   2.471 -1.0578  0.2904  0.2604
  261SOL    HW2  783   0.693   0.430   2.482  0.2654 -0.9916  0.4332
  262SOL     OW  784   0.400   2.255   2.366  0.0274 -0.2412 -0.3215
  262SOL    HW1  785   0.450   2.255   2.454  1.0862  0.1212  0.2534
  262SOL    HW2  786   0.328   2.325   2.354  2.3607  2.5527  0.2906
  263SOL     OW  787   0.194   1.704   2.612  0.2580 -0.2755  0.0991
  263SOL    HW1  788   0.107   1.758   2.628 -0.8812  2.8962 -0.0814
  263SOL    HW2  789   0.273   1.762   2.583  2.8221 -0.2347 -1.8594
  264SOL     OW  790   1.268   1.099   0.841 -0.1470 -0.2011 -0.1407
  264SOL    HW1  791   1.295   1.097   0.750  2.7762  1.4915  3.2613
  264SOL    HW2  792   1.186   1.043   0.857 -0.7709 -0.6971  2.4702
  265SOL     OW  793   1.541   2.772   0.617  0.4171  0.0941 -0.2472
  265SOL    HW1  794   1.537   2.671   0.613  2.0210  0.2149  0.8378
  265SOL    HW2  795   1.554   2.807   0.712  1.9672  1.8679  1.1977
  266SOL     OW  796   1.560   0.907   1.433 -0.4910  0.2907  0.0377
  266SOL    HW1  797   1.494   0.981   1.412  2.4395  0.8790  1.3776
  266SOL    HW2  798   1.601   0.928   1.525  1.6632 -0.2752  0.5774
  267SOL     OW  799   2.430   1.118   2.712 -0.3229  0.2601 -0.4600
  267SOL    HW1  800   2.489   1.103   2.629 -1.0982  0.3022 -0.7656
  267SOL    HW2  801   2.340   1.149   2.692  2.0676 -4.1564  2.1059
  268SOL     OW  802   1.282   0.269   0.283  0.1580  0.2343  0.2517
  268SOL    HW1  803   1.377   0.268   0.316 -0.8869  0.2589 -1.4526
  268SOL    HW2  804   1.273   0.289   0.183 -3.4006 -2.2519 -0.0613
  269SOL     OW  805   3.047   0.605   2.708 -0.3237 -0.7056  0.8696
  269SOL    HW1  806   0.011   0.610   2.635  1.6834 -4.3504 -2.4793
  269SOL    HW2  807   3.083   0.605   2.803  0.3797 -0.8315 -1.0858
  270SOL     OW  808   0.248   1.473   0.052  0.3118 -0.1808 -0.2111
  270SOL    HW1  809   0.152   1.444   0.036  1.6553  0.3407  0.5446
  270SOL    HW2  810   0.313   1.452   3.082  1.5065  1.3197  0.0389
  271SOL     OW  811   2.616   0.901   3.061  0.4411  0.2238 -0.1785
  271SOL    HW1  812   2.561   0.922   2.978 -0.2608 -1.5521 -2.1122
  271SOL    HW2  813   2.593   0.806   3.078  1.4233  1.5219  2.3965
  272SOL     OW  814   2.982   2.503   2.219 -0.1819  0.9629 -0.1440
  272SOL    HW1  815   2.969   2.595   2.178 -2.3644 -0.5076  0.1662
  272SOL    HW2  816   3.017   2.510   2.314 -0.8320  0.7806  2.5616
  273SOL     OW  817   3.075   0.096   0.086 -0.5982  0.4870 -0.1082
  273SOL    HW1  818   3.086   0.196   0.095 -0.4747 -2.0797  0.2626
  273SOL    HW2  819   0.026   0.056   0.160 -0.6376 -0.5127  2.8444
  274SOL     OW  820   0.919   2.162   0.819 -0.3082 -0.2214  0.7639
  274SOL    HW1  821   0.853   2.090   0.787 -1.2892 -0.9027 -0.1601
  274SOL    HW2  822   0.979   2.121   0.888 -0.8061  1.6670 -0.5784
  275SOL     OW  823   2.233   0.594   0.772 -0.1499  0.3741  0.1513
  275SOL    HW1  824   2.314   0.534   0.777  1.8076  2.9737 -1.0526
  275SOL    HW2  825   2.246   0.643   0.684 -0.6457 -0.9518  1.3284
  276SOL     OW  826   2.366   1.358   1.237 -1.0473 -0.0046  0.5054
  276SOL    HW1  827   2.329   1.268   1.200  0.6796 -2.3678  0.7863
  276SOL    HW2  828   2.300   1.396   1.302  2.6457 -1.0618 -0.2515
  277SOL     OW  829   2.557   0.080   0.831  0.0913 -0.6940  0.0765
  277SOL    HW1  830   2.600   3.097   0.848  0.6744 -0.6865  1.1407
  277SOL    HW2  831   2.570   0.141   0.914  1.0544 -0.9265  0.6386
  278SOL     OW  832   1.661   2.651   2.249 -0.1463  0.1229  0.0202
  278SOL    HW1  833   1.584   2.630   2.175 -1.0390  1.2916  2.5804
  278SOL    HW2  834   1.625   2.670   2.345  1.4968 -0.5706  1.7171
  279SOL     OW  835   1.359   2.364   1.000  0.0991  0.2878 -0.6785
  279SOL    HW1  836   1.298   2.393   1.071  0.7374 -0.0533 -5.4658
  279SOL    HW2  837   1.362   2.428   0.925  1.8491  1.2034  5.0051
  280SOL     OW  838   0.461   0.941   0.951  0.2094 -0.0148 -0.2315
  280SOL    HW1  839   0.421   1.022   0.908  0.6656 -0.6871 -2.1586
  280SOL    HW2  840   0.495   0.968   1.045  0.8040  2.2398 -1.3193
  281SOL     OW  841   2.473   1.308   2.942 -0.1951  0.2453 -0.2793
  281SOL    HW1  842   2.487   1.234   2.875 -2.4073  0.7895  3.5393
  281SOL    HW2  843   2.490   1.397   2.900  2.0070  0.1321 -0.6356
  282SOL     OW  844   0.336   1.301   0.261 -0.5147  0.6591  0.6094
  282SOL    HW1  845   0.353   1.350   0.172  0.6211  0.7944  0.9556
  282SOL    HW2  846   0.395   1.217   0.266 -1.2647 -1.7724 -2.3300
  283SOL     OW  847   1.828   2.561   2.852 -0.2499 -0.2324 -0.2739
  283SOL    HW1  848   1.914   2.608   2.820 -0.0376  2.0221  0.4754
  283SOL    HW2  849   1.796   2.488   2.790  2.6958 -0.0201  2.8066
  284SOL     OW  850   1.175   0.226   0.642 -0.3269 -0.0883  0.5016
  284SOL    HW1  851   1.144   0.154   0.580 -1.7252 -0.7597  1.9727
  284SOL    HW2  852   1.269   0.206   0.674  1.4875 -2.1048 -0.6851
  285SOL     OW  853   2.193   1.250   2.603  0.2983  0.1247 -0.3611
  285SOL    HW1  854   2.234   1.317   2.542 -1.5856  0.0536  2.2359
  285SOL    HW2  855   2.145   1.295   2.683 -0.4302  1.5167  1.5966
  286SOL     OW  856   1.702   2.621   0.927 -0.4082  0.4119  0.3086
  286SOL    HW1  857   1.730   2.590   1.021  0.9656  0.0519  2.7508
  286SOL    HW2  858   1.680   2.536   0.872 -2.0382 -1.4762  0.2810
  287SOL     OW  859   1.531   0.614   0.917  0.0000 -0.4441 -0.6187
  287SOL    HW1  860   1.453   0.568   0.961 -1.1116  1.7300 -4.0026
  287SOL    HW2  861   1.519   0.718   0.920  1.5070  1.1749 -1.5787
  288SOL     OW  862   0.725   2.678   2.697 -0.3552 -0.0307  0.6007
  288SOL    HW1  863   0.667   2.735   2.757 -0.5364  0.1047 -1.7289
  288SOL    HW2  864   0.675   2.636   2.621  1.9373  0.6516 -1.0357
  289SOL     OW  865   0.075   1.517   1.050  0.0005  0.0076  0.5081
  289SOL    HW1  866   0.097   1.429   1.085 -3.2778  6.6389 -1.7595
  289SOL    HW2  867   3.088   1.524   1.014 -2.9716  0.2146 -0.0263
  290SOL     OW  868   1.355   2.173   0.782 -0.2117 -0.0678 -0.4088
  290SOL    HW1  869   1.395   2.228   0.858 -1.7105 -1.9609 -0.1377
  290SOL    HW2  870   1.374   2.211   0.688  2.1663 -0.2563  0.8962
  291SOL     OW  871   1.639   3.079   0.241 -0.0192 -0.3543  0.0331
  291SOL    HW1  872   1.644   0.031   0.325 -0.5460  4.2905  2.6795
  291SOL    HW2  873   1.714   0.007   0.176  0.8814 -0.0979  1.6332
  292SOL     OW  874   0.367   0.363   2.080 -0.2655 -0.2947 -0.0767
  292SOL    HW1  875   0.426   0.356   2.164  0.2199 -0.2054  0.0820
  292SOL    HW2  876   0.303   0.444   2.084 -1.2829  2.1118  3.1195
  293SOL     OW  877   2.648   1.607   0.971  0.0624 -0.3361  0.1041
  293SOL    HW1  878   2.616   1.668   0.891  0.6234 -0.3820  0.1814
  293SOL    HW2  879   2.617   1.648   1.057 -1.2967 -4.3409  0.1247
  294SOL     OW  880   0.751   0.119   2.139 -0.4274  0.3171 -0.2156
  294SOL    HW1  881   0.656   0.103   2.173 -3.2092  1.1088  1.8279
  294SOL    HW2  882   0.799   0.032   2.127 -0.9249  0.5435 -1.8964
  295SOL     OW  883   1.235   1.783   0.999 -0.0156  0.1396 -0.3791
  295SOL    HW1  884   1.306   1.751   1.064 -3.2683 -1.7507 -2.0021
  295SOL    HW2  885   1.142   1.751   1.025 -2.9838  1.0361 -1.6322
  296SOL     OW  886   2.609   1.991   0.315  0.0615  0.0384 -0.1328
  296SOL    HW1  887   2.549   1.941   0.250 -0.0609 -0.4456 -1.3702
  296SOL    HW2  888   2.700   2.026   0.279 -1.1360  2.1944 -0.6608
  297SOL     OW  889   2.586   0.060   0.114  0.3894  0.4446 -0.0318
  297SOL    HW1  890   2.669   0.030   0.172  1.1414 -1.7926  1.0127
  297SOL    HW2  891   2.610   0.040   0.017 -1.9747 -0.9621 -1.1688
  298SOL     OW  892   1.077   0.295   2.902  0.1142 -0.1440 -0.0362
  298SOL    HW1  893   1.028   0.222   2.855  0.9460  0.0540  0.2368
  298SOL    HW2  894   1.032   0.385   2.883  0.4981  1.2526 -1.3040
  299SOL     OW  895   0.541   2.577   2.503  0.3186  0.2039  0.4998
  299SOL    HW1  896   0.511   2.624   2.420 -0.2095 -0.5566 -0.2366
  299SOL    HW2  897   0.465   2.585   2.572 -3.3198 -2.2345 -1.3483
  300SOL     OW  898   2.830   0.001   2.417  0.3063  0.0161 -0.5521
  300SOL    HW1  899   2.732   0.032   2.428 -1.4990  0.4468 -1.4087
  300SOL    HW2  900   2.854   0.007   2.318 -1.4913  1.7817 -1.1648
  301SOL     OW  901   1.421   0.266   1.683 -0.0630 -0.0170  0.5311
  301SOL    HW1  902   1.361   0.354   1.687 -1.9062  1.8123  2.0775
  301SOL    HW2  903   1.470   0.258   1.590 -0.5455 -3.3654 -0.2470
  302SOL     OW  904   3.105   2.360   0.004 -0.4741  0.2596 -0.3541
  302SOL    HW1  905   0.088   2.380   0.048  0.7628 -2.4092  1.5463
  302SOL    HW2  906   3.100   2.382   3.012  1.0888  0.7377 -2.3615
  303SOL     OW  907   2.052   2.088   1.621  0.0187 -0.3606 -0.1020
  303SOL    HW1  908   1.951   2.102   1.615 -0.5981 -1.2763  1.4774
  303SOL    HW2  909   2.089   2.161   1.570  0.4868 -4.6429  0.6499
  304SOL     OW  910   2.754   0.928   1.476  0.0109 -0.5461 -0.0794
  304SOL    HW1  911   2.772   0.849   1.413 -1.9665 -0.2694  1.9866
  304SOL    HW2  912   2.837   0.965   1.526  0.8742  0.5917  0.7083
  305SOL     OW  913   0.535   1.587   0.905 -0.1794 -0.1533 -0.3239
  305SOL    HW1  914   0.615   1.629   0.952 -0.5495  1.4665  2.0007
  305SOL    HW2  915   0.448   1.621   0.948  1.9356  0.9260 -0.2953
  306SOL     OW  916   0.541   1.477   2.476 -0.1231 -0.3706  0.0711
  306SOL    HW1  917   0.482   1.513   2.547  1.6135  1.0168 -3.5783
  306SOL    HW2  918   0.494   1.402   2.431  3.0465  0.4453 -0.3018
  307SOL     OW  919   1.069   0.109   1.419 -0.0397  0.2357  0.7245
  307SOL    HW1  920   1.084   0.132   1.516  0.6608 -1.9721 -2.8599
  307SOL    HW2  921   1.145   0.049   1.383  0.6771 -0.3225 -1.4833
  308SOL     OW  922   0.146   0.787   1.064  0.8359  0.1460 -0.0853
  308SOL    HW1  923   0.083   0.844   1.004 -0.1031  3.1310 -1.2869
  308SOL    HW2  924   0.223   0.747   1.001 -0.7812  1.6938 -0.5452
  309SOL     OW  925   2.525   1.049   1.016 -0.2948 -0.3598 -0.6100
  309SOL    HW1  926   2.499   1.024   0.921 -0.3217 -1.1611  0.9764
  309SOL    HW2  927   2.591   1.126   1.014  1.8142  0.8457  0.5982
  310SOL     OW  928   0.382   1.903   2.806  0.1230  0.5665  0.0621
  310SOL    HW1  929   0.423   1.812   2.799 -0.1147 -0.7216 -2.1259
  310SOL    HW2  930   0.378   1.944   2.713 -3.5738 -0.2756  0.0024
  311SOL     OW  931   2.595   2.617   2.416  0.3409  0.1898 -0.6612
  311SOL    HW1  932   2.613   2.658   2.324 -1.5002  0.7968  3.9487
  311SOL    HW2  933   2.646   2.665   2.488  1.0664 -3.2357 -0.0212
  312SOL     OW  934   2.142   1.827   2.966 -0.1842  0.9032  0.0557
  312SOL    HW1  935   2.145   1.886   2.884  1.5907 -0.5198  0.2625
  312SOL    HW2  936   2.226   1.775   2.972 -1.8696  0.4742 -0.9302
  313SOL     OW  937   0.440   3.034   0.603  0.0599  0.6260  0.3196
  313SOL    HW1  938   0.520   3.022   0.670  2.5484 -0.6144  3.4187
  313SOL    HW2  939   0.464   3.078   0.515  0.6166 -1.4173  0.2822
  314SOL     OW  940   1.956   1.124   2.779  0.0961  0.2597 -0.0097
  314SOL    HW1  941   1.928   1.089   2.868 -1.8183  2.0336  0.0958
  314SOL    HW2  942   1.991   1.212   2.800 -2.4199 -2.2697  0.3429
  315SOL     OW  943   1.603   2.972   2.525 -0.5180  0.3641  0.0519
  315SOL    HW1  944   1.510   2.965   2.562 -0.6008 -1.4676 -3.3495
  315SOL    HW2  945   1.596   3.017   2.434  0.0769  2.1638 -0.6144
  316SOL     OW  946   2.794   1.110   0.661  0.0849 -0.2931 -0.4701
  316SOL    HW1  947   2.759   1.017   0.689  0.2197 -2.7555  0.0926
  316SOL    HW2  948   2.757   1.147   0.571 -0.0828  0.5900  2.0645
  317SOL     OW  949   0.589   2.662   3.011 -0.2755 -0.0217 -0.7215
  317SOL    HW1  950   0.510   2.719   3.029 -1.0503  1.6148  0.6677
  317SOL    HW2  951   0.677   2.694   3.049  1.9228 -0.6268  0.5216
  318SOL     OW  952   2.625   2.588   0.956  0.5121  0.0557  0.1002
  318SOL    HW1  953   2.605   2.624   0.861  2.9830 -0.0054 -2.1046
  318SOL    HW2  954   2.542   2.586   1.016  0.3776  0.2390  1.9533
  319SOL     OW  955   1.075   2.031   2.701  0.2110  0.1106  0.1518
  319SOL    HW1  956   1.130   2.019   2.618 -3.4898 -1.1895  0.6499
  319SOL    HW2  957   1.026   1.944   2.721  2.4488  1.2167 -1.1449
  320SOL     OW  958   0.488   1.931   1.247  0.1207  0.3820 -0.0961
  320SOL    HW1  959   0.454   1.835   1.241 -0.4200 -0.6374  1.2916
  320SOL    HW2  960   0.469   1.967   1.346 -0.9648  2.7469  0.0102
  321SOL     OW  961   1.185   2.667   1.973 -0.0605 -0.2560  0.4461
  321SOL    HW1  962   1.121   2.737   1.940  1.4985 -1.2605  1.1904
  321SOL    HW2  963   1.279   2.697   1.954  0.6342 -0.3006  2.2673
  322SOL     OW  964   2.458   1.729   1.974 -0.5286  0.1617  0.4222
  322SOL    HW1  965   2.480   1.662   2.050 -0.9373 -0.6934 -0.6675
  322SOL    HW2  966   2.501   1.820   1.995 -0.9839  3.6963  1.6194
  323SOL     OW  967   2.924   0.442   0.942 -0.5153  0.3843  0.8774
  323SOL    HW1  968   2.898   0.457   0.845  0.2074  0.1325 -0.4228
  323SOL    HW2  969   3.019   0.480   0.952 -0.6011  1.0391 -0.5070
  324SOL     OW  970   2.752   2.755   2.576  0.5099 -0.3547  0.7043
  324SOL    HW1  971   2.777   2.717   2.670  0.0671 -0.8600 -4.0185
  324SOL    HW2  972   2.837   2.782   2.524  1.3217  2.2719  1.0905
  325SOL     OW  973   0.967   0.180   2.675 -0.2095  0.3256 -0.0112
  325SOL    HW1  974   1.017   0.095   2.710 -0.4046 -2.1166  1.1028
  325SOL    HW2  975   0.867   0.154   2.669 -1.6170 -0.8214  0.0958
  326SOL     OW  976   2.160   2.462   1.688 -0.0684 -0.0511 -0.1420
  326SOL    HW1  977   2.211   2.535   1.736 -1.3367  1.2610  1.0397
  326SOL    HW2  978   2.093   2.407   1.746 -2.4600 -1.3178 -3.4786
  327SOL     OW  979   2.068   0.157   0.144  0.0047 -0.4257 -0.3316
  327SOL    HW1  980   2.096   0.227   0.221  2.0913  3.9368  4.2120
  327SOL    HW2  981   2.148   0.112   0.091 -1.6865 -1.8270 -0.0378
  328SOL     OW  982   0.369   1.384   1.936 -0.2892  0.2415  0.1462
  328SOL    HW1  983   0.452   1.406   1.985 -0.7154 -3.9611  0.4479
  328SOL    HW2  984   0.320   1.466   1.900  1.8177 -0.8990  0.6315
  329SOL     OW  985   2.111   0.543   1.868  0.6560  0.3309  0.2336
  329SOL    HW1  986   2.017   0.519   1.897  2.9538  1.3702 -2.5613
  329SOL    HW2  987   2.134   0.637   1.900 -1.1116 -1.8783  1.0610
  330SOL     OW  988   0.044   1.121   0.845  0.0002  0.0781  0.6954
  330SOL    HW1  989   0.013   1.025   0.859 -0.4514  3.1369 -2.3676
  330SOL    HW2  990   0.053   1.164   0.937 -0.0754 -0.5065  1.6351
  331SOL     OW  991   0.616   1.464   2.033  0.0947  0.2885 -0.0371
  331SOL    HW1  992   0.704   1.434   1.995 -0.6482  1.5290 -0.1269
  331SOL    HW2  993   0.643   1.509   2.122  1.3054 -1.9540  1.4083
  332SOL     OW  994   0.163   2.549   1.628  0.1690  0.4932  0.0895
  332SOL    HW1  995   0.247   2.542   1.575 -1.0644 -0.3598 -1.0919
  332SOL    HW2  996   0.082   2.535   1.574  0.4580  2.8546  3.5821
  333SOL     OW  997   2.605   0.160   1.086 -0.8140 -0.6091 -0.0548
  333SOL    HW1  998   2.706   0.171   1.075  1.2268 -2.4085 -2.0910
  333SOL    HW2  999   2.587   0.106   1.168 -1.3015  1.7818  0.1862
  334SOL     OW 1000   0.204   1.503   0.710  0.1809  0.8159 -0.5510
  334SOL    HW1 1001   0.180   1.432   0.635 -3.4375 -0.3775  1.9483
  334SOL    HW2 1002   0.302   1.499   0.730 -1.5195  4.0331 -1.2060
  335SOL     OW 1003   0.190   2.600   2.860 -0.3431  0.0767 -0.7104
  335SOL    HW1 1004   0.137   2.517   2.843  1.5086  0.8822 -1.1189
  335SOL    HW2 1005   0.287   2.575   2.848 -3.7643 -3.7386 -0.0219
  336SOL     OW 1006   2.958   2.864   2.408 -0.0187 -0.0882 -0.5678
  336SOL    HW1 1007   3.062   2.866   2.410  0.1654  1.2277 -0.2092
  336SOL    HW2 1008   2.921   2.959   2.428 -1.5886 -0.6521  4.9132
  337SOL     OW 1009   1.923   2.328   1.787 -0.0801 -0.4779  0.0508
  337SOL    HW1 1010   1.882   2.264   1.727 -0.1018  2.3785  1.7772
  337SOL    HW2 1011   1.860   2.409   1.813 -0.8219 -1.0393 -0.5821
  338SOL     OW 1012   0.877   3.032   3.031 -0.6427 -0.0209  0.3486
  338SOL    HW1 1013   0.798   3.055   3.088  1.1632 -0.3285 -1.9680
  338SOL    HW2 1014   0.954   3.088   3.067 -0.1550  1.4857 -0.8381
  339SOL     OW 1015   0.532   1.097   2.087 -0.4338 -0.1964  0.1930
  339SOL    HW1 1016   0.529   1.029   2.168  0.8259 -2.3969 -0.4228
  339SOL    HW2 1017   0.498   1.186   2.110  0.2630 -1.9988  0.2300
  340SOL     OW 1018   1.837   3.094   0.865  0.4259 -0.2358 -1.0980
  340SOL    HW1 1019   1.929   3.065   0.904 -0.9717 -0.0558 -2.7170
  340SOL    HW2 1020   1.832   3.080   0.765  0.5328 -0.7155  0.2985
  341SOL     OW 1021   1.845   1.060   0.881  0.2352 -0.4117 -0.2502
  341SOL    HW1 1022   1.923   1.083   0.941  2.6485  0.4592 -1.5814
  341SOL    HW2 1023   1.759   1.063   0.932  1.3686 -1.4318 -1.7483
  342SOL     OW 1024   2.466   2.775   0.126  0.1847  0.1620 -0.1379
  342SOL    HW1 1025   2.370   2.788   0.157 -1.8294 -0.9184  1.0207
  342SOL    HW2 1026   2.528   2.748   0.201  1.7639 -1.2309 -0.5165
  343SOL     OW 1027   0.878   2.192   1.544  0.2926 -0.1756 -0.1673
  343SOL    HW1 1028   0.930   2.231   1.624 -1.2409 -3.1124  4.2096
  343SOL    HW2 1029   0.876   2.258   1.467 -0.4449  1.0257  0.5464
  344SOL     OW 1030   2.593   2.663   1.432  0.1670  0.0096 -0.1679
  344SOL    HW1 1031   2.576   2.758   1.475  1.4230  0.2874  2.2040
  344SOL    HW2 1032   2.557   2.591   1.495  2.4649  1.4419  1.0908
  345SOL     OW 1033   2.633   1.957   3.039 -0.6820  0.0371  0.3184
  345SOL    HW1 1034   2.675   1.985   2.950 -0.1983 -2.2193 -0.6686
  345SOL    HW2 1035   2.698   1.894   3.095  0.5299  1.7787  0.1998
  346SOL     OW 1036   2.159   2.032   0.587  0.2621  0.1304  0.5729
  346SOL    HW1 1037   2.133   2.103   0.650 -0.1021 -1.0214 -1.5772
  346SOL    HW2 1038   2.079   2.008   0.535  1.1695  0.2293  1.5945
  347SOL     OW 1039   1.653   1.794   1.011  0.2684 -0.0866  0.2156
  347SOL    HW1 1040   1.635   1.784   0.910  0.0125 -0.2361 -1.0735
  347SOL    HW2 1041   1.584   1.740   1.063  1.3136  1.2478 -0.3470
  348SOL     OW 1042   0.584   1.825   2.277 -0.6020  0.3029  0.3670
  348SOL    HW1 1043   0.636   1.733   2.259  2.1629 -1.8953 -0.5993
  348SOL    HW2 1044   0.625   1.895   2.215 -2.1393 -0.7952  0.1011
  349SOL     OW 1045   1.958   1.551   0.628 -0.1939 -0.2637 -0.7219
  349SOL    HW1 1046   1.934   1.481   0.703  1.3152 -2.1249  2.1432
  349SOL    HW2 1047   2.051   1.529   0.588  1.2081  2.7468 -1.2983
  350SOL     OW 1048   2.827   2.570   0.647  0.2401 -0.5468  0.0564
  350SOL    HW1 1049   2.819   2.533   0.744 -0.8484  1.8910  1.3923
  350SOL    HW2 1050   2.814   2.496   0.579  0.5136  0.1383  0.9130
  351SOL     OW 1051   0.437   2.995   1.584  0.2011  0.1428  0.0690
  351SOL    HW1 1052   0.517   2.931   1.574  0.1772 -0.7262  2.8918
  351SOL    HW2 1053   0.355   2.978   1.527 -1.5115  0.2170 -1.9668
  352SOL     OW 1054   0.411   1.419   1.258  0.3014  0.0607  0.2094
  352SOL    HW1 1055   0.321   1.407   1.307  2.0030 -1.2062  0.5737
  352SOL    HW2 1056   0.405   1.379   1.160 -0.6113 -1.5254  0.0241
  353SOL     OW 1057   1.217   1.322   2.669  0.5403  0.3834 -0.0539
  353SOL    HW1 1058   1.116   1.305   2.666 -0.8797 -1.1098 -0.3883
  353SOL    HW2 1059   1.248   1.374   2.752 -0.6976  0.4358 -0.7102
  354SOL     OW 1060   1.522   0.029   1.739  0.6703  0.1332 -0.2254
  354SOL    HW1 1061   1.461   0.113   1.731 -1.9776 -0.6701  0.6581
  354SOL    HW2 1062   1.482   3.073   1.812 -0.0382 -0.7058  0.0866
  355SOL     OW 1063   2.397   1.182   0.481  0.3754  0.4752  0.1050
  355SOL    HW1 1064   2.407   1.222   0.572 -0.2151 -0.6861 -2.2543
  355SOL    HW2 1065   2.382   1.253   0.405 -0.2910 -2.0077  0.1099
  356SOL     OW 1066   2.825   1.755   1.505  0.0001 -0.1228 -0.0015
  356SOL    HW1 1067   2.749   1.780   1.568 -2.7780 -1.0455  0.1085
  356SOL    HW2 1068   2.898   1.825   1.500  0.1675 -2.7072 -0.9601
  357SOL     OW 1069   0.539   2.646   1.361  0.7668 -0.1527 -0.6985
  357SOL    HW1 1070   0.439   2.615   1.356 -0.0667  1.8932  0.2187
  357SOL    HW2 1071   0.575   2.696   1.279 -1.2252 -1.7275  2.7956
  358SOL     OW 1072   2.734   1.369   1.794 -0.2134  0.2342 -0.0833
  358SOL    HW1 1073   2.758   1.416   1.706 -0.7196  0.4295 -0.2698
  358SOL    HW2 1074   2.638   1.340   1.789  1.1238 -1.2309  0.7868
  359SOL     OW 1075   2.301   2.804   2.627  0.2971 -0.1500  0.4598
  359SOL    HW1 1076   2.311   2.704   2.632  0.5609  2.7746 -2.5938
  359SOL    HW2 1077   2.206   2.834   2.602  1.3827  0.8473  1.5169
  360SOL     OW 1078   0.819   0.310   0.862 -0.0017 -0.3205 -0.2768
  360SOL    HW1 1079   0.798   0.407   0.861 -0.7478  1.4901 -1.5043
  360SOL    HW2 1080   0.852   0.285   0.770  0.3231  0.7526  2.7139
  361SOL     OW 1081   1.957   0.246   0.777  0.2344 -0.2782 -0.2363
  361SOL    HW1 1082   2.013   0.164   0.758 -0.8464  0.3285  0.9324
  361SOL    HW2 1083   2.007   0.311   0.838  0.9821 -0.0335  2.3262
  362SOL     OW 1084   1.798   1.134   1.280 -0.6054  0.3283  0.2069
  362SOL    HW1 1085   1.884   1.175   1.315 -1.8658  0.5889  0.9104
  362SOL    HW2 1086   1.815   1.030   1.261  1.7978 -1.4788 -0.0311
  363SOL     OW 1087   2.214   1.463   2.179  0.2974 -0.7816  0.0991
  363SOL    HW1 1088   2.309   1.500   2.162  1.3825 -0.8707 -0.6360
  363SOL    HW2 1089   2.197   1.407   2.099  0.0003  2.5857  0.2735
  364SOL     OW 1090   0.421   0.016   1.202  0.4924 -0.1900  0.5626
  364SOL    HW1 1091   0.351   3.077   1.255 -4.4941 -0.2184 -1.3288
  364SOL    HW2 1092   0.399   0.002   1.104  1.4315 -0.1818 -1.6109
  365SOL     OW 1093   0.429   0.037   2.946 -0.5629  0.4552  0.4213
  365SOL    HW1 1094   0.358   0.058   2.874  0.3956  0.8452  0.1090
  365SOL    HW2 1095   0.415   0.096   3.026 -0.0357  0.0527 -0.5725
  366SOL     OW 1096   2.147   2.308   3.012  0.5427 -0.2397 -0.2892
  366SOL    HW1 1097   2.212   2.234   3.027 -0.2978 -3.1475  1.5656
  366SOL    HW2 1098   2.162   2.387   3.073  0.6242 -0.7622 -0.3909
  367SOL     OW 1099   2.761   2.488   2.956 -0.3205 -0.0268  0.7764
  367SOL    HW1 1100   2.660   2.466   2.948 -1.4797  3.3523 -0.4112
  367SOL    HW2 1101   2.790   2.508   3.050 -0.7945  0.9938 -1.4977
  368SOL     OW 1102   0.055   1.236   1.105 -0.3414  0.4122  0.3001
  368SOL    HW1 1103   3.073   1.249   1.156 -0.5922 -0.4903  1.9108
  368SOL    HW2 1104   0.123   1.179   1.156 -0.2675 -1.5930 -0.5321
  369SOL     OW 1105   0.790   2.779   0.033  0.8730  0.4888  0.6300
  369SOL    HW1 1106   0.860   2.757   0.098 -3.0773 -0.6503 -0.0644
  369SOL    HW2 1107   0.830   2.845   3.077 -1.0170 -0.2884 -1.3875
  370SOL     OW 1108   2.797   0.658   0.469  0.4574  0.2402  0.3657
  370SOL    HW1 1109   2.890   0.670   0.438 -1.8955 -1.8523  1.6052
  370SOL    HW2 1110   2.751   0.747   0.448  1.0732  1.1447  1.4384
  371SOL     OW 1111   1.648   2.402   0.777  0.1788 -0.1429  0.1393
  371SOL    HW1 1112   1.655   2.302   0.765 -0.3095  1.1727 -0.5021
  371SOL    HW2 1113   1.576   2.449   0.725  2.5913  2.0869 -0.6223
  372SOL     OW 1114   3.080   1.024   2.888  0.1348  0.0896  0.3296
  372SOL    HW1 1115   0.055   0.970   2.921  3.4163  0.3116  1.5348
  372SOL    HW2 1116   3.092   1.069   2.796  0.2676 -0.6908 -1.5396
  373SOL     OW 1117   2.777   1.813   1.243  0.3031 -0.1751 -0.0775
  373SOL    HW1 1118   2.792   1.785   1.338  0.0691  0.9123 -2.2384
  373SOL    HW2 1119   2.688   1.785   1.210  1.1139  2.4402 -3.1318
  374SOL     OW 1120   0.562   2.895   0.178 -0.2990 -0.0358 -0.1705
  374SOL    HW1 1121   0.507   2.912   0.090 -3.0928  2.1834  1.4195
  374SOL    HW2 1122   0.662   2.910   0.161  1.2251 -0.3712  1.6907
  375SOL     OW 1123   0.424   0.207   0.042  0.7031  0.0969 -0.6502
  375SOL    HW1 1124   0.404   0.197   0.140 -0.6624  0.2973  0.8385
  375SOL    HW2 1125   0.397   0.292   3.102 -0.1961 -2.2681 -0.8187
  376SOL     OW 1126   0.207   2.195   1.515  0.7597 -0.1177  0.3720
  376SOL    HW1 1127   0.110   2.209   1.552 -0.6807  2.4410  2.7291
  376SOL    HW2 1128   0.204   2.227   1.414 -1.7277  0.4626  0.1043
  377SOL     OW 1129   1.719   2.330   2.697 -0.3769 -0.3315 -0.2170
  377SOL    HW1 1130   1.652   2.273   2.748  1.4535  1.6252 -0.4544
  377SOL    HW2 1131   1.694   2.312   2.596 -0.4873  1.4724 -1.8972
  378SOL     OW 1132   0.757   0.498   0.199  0.3164  0.1613  0.2718
  378SOL    HW1 1133   0.803   0.494   0.106  2.2056 -2.4851 -1.9671
  378SOL    HW2 1134   0.776   0.591   0.238  2.5632 -0.2717 -3.1959
  379SOL     OW 1135   0.462   1.200   0.581 -0.6723 -0.3260 -0.5059
  379SOL    HW1 1136   0.535   1.162   0.514  2.3427 -1.2134 -0.7296
  379SOL    HW2 1137   0.481   1.297   0.607 -0.2669  2.6109  2.5184
  380SOL     OW 1138   0.008   1.890   1.774 -0.7108  0.7060  0.2064
  380SOL    HW1 1139   0.023   1.797   1.728  0.6202 -3.4577 -1.6541
  380SOL    HW2 1140   0.060   1.906   1.863  2.5814  0.8122  0.7073
  381SOL     OW 1141   0.420   0.720   1.933  0.1483  0.0109 -0.2577
  381SOL    HW1 1142   0.438   0.621   1.910  1.1097 -0.2432 -1.7542
  381SOL    HW2 1143   0.507   0.772   1.928 -0.8217  1.0620  0.7756
  382SOL     OW 1144   2.410   2.137   0.480 -0.1129 -0.1359  0.0789
  382SOL    HW1 1145   2.321   2.092   0.503 -0.3925  0.9399 -2.0564
  382SOL    HW2 1146   2.466   2.085   0.413 -1.5863  1.5852  1.8822
  383SOL     OW 1147   2.759   2.060   2.821  0.9068 -0.0688  0.3564
  383SOL    HW1 1148   2.843   2.004   2.828  2.5126  0.7592  1.1843
  383SOL    HW2 1149   2.777   2.158   2.803  0.3194  0.0984  0.3198
  384SOL     OW 1150   0.520   2.203   2.631  0.1866 -0.5424 -0.4994
  384SOL    HW1 1151   0.515   2.252   2.718  2.1896  1.6876 -1.7928
  384SOL    HW2 1152   0.613   2.162   2.625 -0.5680  0.4574  1.0745
  385SOL     OW 1153   2.902   1.538   0.973  0.2423  0.1961 -0.5328
  385SOL    HW1 1154   2.804   1.572   0.972 -4.1415 -1.3679  1.4126
  385SOL    HW2 1155   2.915   1.476   0.891  0.9095 -0.8742 -0.0458
  386SOL     OW 1156   2.065   1.453   1.271 -0.2854  0.5201  0.0942
  386SOL    HW1 1157   1.964   1.454   1.252  0.3693  3.2966 -0.9428
  386SOL    HW2 1158   2.105   1.535   1.230  0.6253  0.6511  0.3280
  387SOL     OW 1159   2.851   1.249   2.004  0.7206 -0.2603 -0.2215
  387SOL    HW1 1160   2.858   1.155   1.963  0.9337 -0.0015 -1.2430
  387SOL    HW2 1161   2.824   1.318   1.930  0.7822  2.1267 -0.0543
  388SOL     OW 1162   2.632   1.318   2.152 -0.2052 -0.1875  0.7107
  388SOL    HW1 1163   2.660   1.335   2.249  0.3204 -0.3384  0.0306
  388SOL    HW2 1164   2.708   1.283   2.097 -2.7402  3.0324  1.1935
  389SOL     OW 1165   2.116   1.270   1.968  0.2715 -0.2762 -0.4704
  389SOL    HW1 1166   2.054   1.214   2.025  1.7651  0.7561  0.3065
  389SOL    HW2 1167   2.198   1.216   1.941  1.4883  0.7765  0.6738
  390SOL     OW 1168   2.027   2.789   0.641 -0.0830 -0.0417 -0.2926
  390SOL    HW1 1169   1.940   2.783   0.696 -1.0360  2.2493 -0.8289
  390SOL    HW2 1170   2.106   2.779   0.704  1.7656 -0.8085  0.8211
  391SOL     OW 1171   2.359   1.908   1.021  0.4103  0.4485  0.3647
  391SOL    HW1 1172   2.278   1.898   0.959  0.2877  0.5260 -1.9979
  391SOL    HW2 1173   2.390   2.005   1.024  1.7325 -1.8957 -0.1855
  392SOL     OW 1174   0.132   2.779   1.234  0.0269 -0.0649  0.4146
  392SOL    HW1 1175   0.109   2.708   1.167  0.7604  0.1603  1.3956
  392SOL    HW2 1176   0.129   2.871   1.188  1.7366  0.0359 -1.3738
  393SOL     OW 1177   1.887   2.056   2.642  0.3775 -0.1065 -0.2634
  393SOL    HW1 1178   1.965   2.101   2.690 -0.7199 -0.6738 -3.0546
  393SOL    HW2 1179   1.845   1.982   2.699  3.6542  1.2484  1.0597
  394SOL     OW 1180   0.067   0.341   2.518 -0.4990  0.2560 -0.2839
  394SOL    HW1 1181   0.035   0.248   2.488  1.3792 -0.1750  1.2396
  394SOL    HW2 1182   0.078   0.350   2.618  0.4212 -0.2074  0.8299
  395SOL     OW 1183   0.777   0.763   0.833 -0.3281  0.0192  0.0085
  395SOL    HW1 1184   0.840   0.686   0.801 -0.9002 -5.3689  0.3278
  395SOL    HW2 1185   0.761   0.774   0.931 -0.1646  0.1833 -3.2244
  396SOL     OW 1186   1.119   0.932   0.464  0.1495  0.3178  1.2381
  396SOL    HW1 1187   1.061   1.011   0.482 -0.5813  0.1345  2.1491
  396SOL    HW2 1188   1.111   0.900   0.369  1.0196  0.9590  0.0971
  397SOL     OW 1189   0.239   0.850   2.064 -0.1447  0.3382 -0.1747
  397SOL    HW1 1190   0.304   0.802   2.004 -2.8620  0.3884  0.4441
  397SOL    HW2 1191   0.174   0.909   2.012 -1.2416 -0.6975 -0.1834
  398SOL     OW 1192   0.894   0.241   0.618 -0.3591 -0.6078 -0.8319
  398SOL    HW1 1193   0.857   0.154   0.577  0.3728 -0.6187 -0.8478
  398SOL    HW2 1194   0.994   0.233   0.608 -3.3801  0.4940  1.1521
  399SOL     OW 1195   2.015   2.979   1.587 -0.3087  0.3516  0.3483
  399SOL    HW1 1196   2.032   3.045   1.664 -1.0962 -0.7535  1.2695
  399SOL    HW2 1197   1.922   2.993   1.551  2.2472 -1.1594  2.1680
  400SOL     OW 1198   0.960   1.782   2.018 -0.3116  0.6520 -0.0668
  400SOL    HW1 1199   0.890   1.812   2.084  0.6673 -1.0277 -0.3558
  400SOL    HW2 1200   1.051   1.812   2.052 -1.1396 -0.0398 -0.1882
  401SOL     OW 1201   0.641   0.668   2.834 -0.3193  0.0605  0.2295
  401SOL    HW1 1202   0.661   0.574   2.851  1.7727 -0.9291 -0.4571
  401SOL    HW2 1203   0.543   0.685   2.806  0.0208  0.3951  1.0922
  402SOL     OW 1204   2.810   2.086   1.216  0.2091  0.1491 -0.3295
  402SOL    HW1 1205   2.789   2.107   1.314 -1.9890 -0.0860  0.6399
  402SOL    HW2 1206   2.816   1.984   1.212  2.1389  0.8499  0.6496
  403SOL     OW 1207   3.096   0.895   1.957 -0.0356 -0.0573 -0.6921
  403SOL    HW1 1208   3.010   0.950   1.945 -1.3270 -0.5258  0.7757
  403SOL    HW2 1209   0.036   0.903   1.868 -0.1339  0.3417  2.4059
  404SOL     OW 1210   3.105   2.760   1.739  0.2505 -0.3903 -0.5076
  404SOL    HW1 1211   0.083   2.715   1.718 -3.2238  0.5499  0.6971
  404SOL    HW2 1212   3.022   2.718   1.697 -2.3653 -1.1813 -0.0762
  405SOL     OW 1213   0.514   0.465   1.856  0.6124  0.2192  0.1996
  405SOL    HW1 1214   0.598   0.443   1.806  0.7165 -0.7232 -0.3468
  405SOL    HW2 1215   0.492   0.383   1.913  1.5572 -0.4249 -1.5827
  406SOL     OW 1216   1.646   2.006   2.328  0.0926 -0.2856  0.0900
  406SOL    HW1 1217   1.749   2.010   2.338  3.2107  1.5944  0.9447
  406SOL    HW2 1218   1.614   1.912   2.342  2.4143 -2.0750 -1.4944
  407SOL     OW 1219   1.408   1.373   2.499  0.4083  0.5853  0.2265
  407SOL    HW1 1220   1.394   1.357   2.399  1.1825 -0.3189 -1.0635
  407SOL    HW2 1221   1.324   1.341   2.553 -0.7404 -1.1764 -0.6135
  408SOL     OW 1222   1.003   0.202   2.318  0.4965 -0.5080  0.1508
  408SOL    HW1 1223   0.911   0.162   2.305  2.9927 -2.0853 -0.7991
  408SOL    HW2 1224   1.046   0.170   2.404 -0.2311  0.7204 -1.0919
  409SOL     OW 1225   0.491   2.052   0.176 -0.2459  0.7152  0.1914
  409SOL    HW1 1226   0.480   1.984   0.104 -0.3746  0.6175  0.4958
  409SOL    HW2 1227   0.579   2.037   0.232  0.0595  0.4878  1.0801
  410SOL     OW 1228   2.805   1.419   0.392 -0.3809  0.0178 -0.0653
  410SOL    HW1 1229   2.901   1.455   0.392  1.7560 -0.5536  2.0062
  410SOL    HW2 1230   2.784   1.381   0.297  0.1750 -1.6557  0.6818
  411SOL     OW 1231   2.863   0.168   1.016 -0.3208 -0.1927  0.0891
  411SOL    HW1 1232   2.906   0.257   1.028 -0.2955 -1.6559 -0.0708
  411SOL    HW2 1233   2.889   0.132   0.924 -1.4051  1.5197 -0.2051
  412SOL     OW 1234   1.362   0.910   1.203 -0.6532 -0.3662  0.3356
  412SOL    HW1 1235   1.379   0.932   1.104  0.1037 -0.2813 -0.5245
  412SOL    HW2 1236   1.450   0.911   1.253 -0.0666  0.8312  1.8935
  413SOL     OW 1237   0.836   2.650   1.413 -0.3525  0.0573 -0.6215
  413SOL    HW1 1238   0.835   2.739   1.374  3.0249 -3.5969  1.0008
  413SOL    HW2 1239   0.802   2.652   1.504  1.4435 -2.6215  0.4474
  414SOL     OW 1240   2.745   1.597   2.697  0.4513  0.8380  0.1964
  414SOL    HW1 1241   2.753   1.657   2.612 -0.1212  0.2549 -0.2544
  414SOL    HW2 1242   2.802   1.630   2.778 -0.5991 -0.2954  2.3961
  415SOL     OW 1243   0.435   2.308   2.934 -0.0176  0.6659  0.1064
  415SOL    HW1 1244   0.344   2.257   2.929  1.2431  0.7019 -0.4028
  415SOL    HW2 1245   0.455   2.318   3.030  0.2782 -0.2164 -3.5395
  416SOL     OW 1246   2.047   0.010   0.417  0.4745 -0.5541 -0.1789
  416SOL    HW1 1247   1.961   3.064   0.402  1.5408 -1.6696  0.8068
  416SOL    HW2 1248   2.111   0.016   0.338  1.3268  0.8579  1.1132
  417SOL     OW 1249   0.348   0.685   0.941 -0.1379  0.7163 -0.3007
  417SOL    HW1 1250   0.404   0.770   0.939 -0.9676 -2.3021  2.3219
  417SOL    HW2 1251   0.401   0.605   0.898 -1.8647  2.4375 -0.8522
  418SOL     OW 1252   2.580   0.563   1.500  0.6344 -0.3240 -0.0337
  418SOL    HW1 1253   2.625   0.632   1.561 -1.7804  1.9316 -0.2728
  418SOL    HW2 1254   2.523   0.501   1.560  0.0373 -1.0497 -0.6574
  419SOL     OW 1255   3.100   0.285   0.405  0.5151  0.4661  0.0190
  419SOL    HW1 1256   3.088   0.284   0.308 -1.3089  2.3185  0.3830
  419SOL    HW2 1257   3.014   0.295   0.455  2.0217 -0.5309 -2.0950
  420SOL     OW 1258   0.179   1.358   1.378 -0.0297 -0.5961 -0.1877
  420SOL    HW1 1259   0.187   1.348   1.479  4.4711  0.2744  0.2970
  420SOL    HW2 1260   0.184   1.263   1.341  1.8284 -2.3964 -0.3623
  421SOL     OW 1261   1.108   2.895   0.723  0.2964  0.3942  0.1158
  421SOL    HW1 1262   1.025   2.852   0.760 -0.5746 -0.5391 -3.1298
  421SOL    HW2 1263   1.078   2.977   0.663  1.3653 -0.3104 -2.5452
  422SOL     OW 1264   0.131   0.576   1.381 -0.2053  0.0169 -0.2411
  422SOL    HW1 1265   0.059   0.583   1.306  1.1613 -0.1928 -0.2453
  422SOL    HW2 1266   0.213   0.596   1.327 -1.3477 -1.5769  1.3572
  423SOL     OW 1267   1.079   0.864   1.243 -0.2981  0.2179  0.2657
  423SOL    HW1 1268   1.165   0.915   1.215 -0.1285  1.4858 -0.9102
  423SOL    HW2 1269   0.999   0.900   1.189 -1.0758  4.3004 -1.9517
  424SOL     OW 1270   2.053   1.371   2.824  0.2969 -0.1248 -0.2875
  424SOL    HW1 1271   2.125   1.384   2.895  1.2501 -0.2417 -1.0566
  424SOL    HW2 1272   1.976   1.437   2.833  0.7484 -0.1399  1.2215
  425SOL     OW 1273   2.957   0.460   1.950  0.2850 -0.6043 -0.5246
  425SOL    HW1 1274   2.977   0.552   1.998  1.7082  1.1533  3.9508
  425SOL    HW2 1275   2.935   0.392   2.026 -0.5261 -0.7666  0.5180
  426SOL     OW 1276   0.135   2.775   3.054  0.2797 -0.0111 -0.1821
  426SOL    HW1 1277   0.153   2.716   2.974 -0.0831  2.4553 -1.1687
  426SOL    HW2 1278   0.116   2.722   0.034 -2.7862 -2.0219 -1.7962
  427SOL     OW 1279   0.952   0.893   2.591  0.3699 -0.2772 -0.1220
  427SOL    HW1 1280   1.042   0.932   2.568 -0.7546  0.0662 -0.5011
  427SOL    HW2 1281   0.939   0.902   2.688 -0.2550 -1.0929 -2.1633
  428SOL     OW 1282   2.459   1.302   1.679  0.0743  0.2572  0.3992
  428SOL    HW1 1283   2.484   1.230   1.607 -0.0235 -0.8000  0.5800
  428SOL    HW2 1284   2.411   1.383   1.640  1.5617  0.2816  3.3958
  429SOL     OW 1285   2.610   2.719   0.718 -0.1426 -0.0520  0.0684
  429SOL    HW1 1286   2.693   2.674   0.671  1.5028  0.8010  0.9188
  429SOL    HW2 1287   2.537   2.724   0.645 -0.7796 -1.7866 -1.7189
  430SOL     OW 1288   0.996   1.219   2.343  0.7244  0.1454  0.2011
  430SOL    HW1 1289   0.960   1.131   2.300  0.3678 -3.4429 -0.3224
  430SOL    HW2 1290   1.002   1.205   2.445  0.5996 -2.3549  1.6038
  431SOL     OW 1291   2.795   1.489   1.558 -0.0375 -0.0397  0.3003
  431SOL    HW1 1292   2.713   1.460   1.503 -0.3438  0.9666 -2.0125
  431SOL    HW2 1293   2.822   1.584   1.532 -0.5098  0.4136 -1.3999
  432SOL     OW 1294   1.325   2.747   2.253  0.9135 -0.3305  0.0876
  432SOL    HW1 1295   1.334   2.694   2.169  2.6333  0.6151  1.1346
  432SOL    HW2 1296   1.329   2.685   2.334  0.5506 -1.7432 -2.4125
  433SOL     OW 1297   1.905   0.178   2.501  0.1435  0.0313  0.4113
  433SOL    HW1 1298   1.998   0.159   2.458  2.1346 -1.1327  0.8599
  433SOL    HW2 1299   1.841   0.221   2.435 -0.3869  2.8356  0.2934
  434SOL     OW 1300   0.416   2.705   2.280  0.6517  0.4196 -0.0584
  434SOL    HW1 1301   0.357   2.624   2.303 -0.1452 -1.5055  0.9755
  434SOL    HW2 1302   0.383   2.739   2.188 -0.4423 -0.5436  1.3501
  435SOL     OW 1303   3.048   2.614   0.385  0.2145 -0.3298  0.4631
  435SOL    HW1 1304   3.085   2.663   0.464 -1.8686 -1.0431 -0.3497
  435SOL    HW2 1305   2.954   2.645   0.347 -0.1299 -0.1021  0.2441
  436SOL     OW 1306   0.877   0.559   1.848 -0.0095 -0.6763  0.0774
  436SOL    HW1 1307   0.818   0.615   1.909  0.4443 -2.2605  1.0049
  436SOL    HW2 1308   0.884   0.608   1.756  2.3051  2.9760 -1.9674
  437SOL     OW 1309   0.130   2.867   2.442 -0.2222 -0.4394 -0.6226
  437SOL    HW1 1310   0.208   2.815   2.490  1.7678  2.5261 -0.3566
  437SOL    HW2 1311   0.148   2.873   2.343 -0.2702  1.1604  1.1429
  438SOL     OW 1312   0.538   1.367   1.484 -0.5279  0.3103 -0.6455
  438SOL    HW1 1313   0.496   1.380   1.395  1.9917 -1.6853  2.7551
  438SOL    HW2 1314   0.589   1.451   1.508 -0.3974  0.1017  2.6743
  439SOL     OW 1315   2.143   1.142   2.296 -0.2128 -0.0592 -0.7867
  439SOL    HW1 1316   2.239   1.157   2.271  0.6702 -1.7426  0.7807
  439SOL    HW2 1317   2.122   1.186   2.386 -1.8923  0.9021  0.9460
  440SOL     OW 1318   0.185   0.970   0.186  0.4982 -0.4103  0.0129
  440SOL    HW1 1319   0.245   0.888   0.169 -1.2946 -0.8384  0.1354
  440SOL    HW2 1320   0.198   1.006   0.281  0.4502 -1.6624 -1.0504
  441SOL     OW 1321   1.164   2.413   1.195 -0.0706  0.2202 -0.0778
  441SOL    HW1 1322   1.177   2.440   1.290  1.1270 -0.1527 -0.2361
  441SOL    HW2 1323   1.104   2.480   1.142 -3.5545  1.3839 -3.3346
  442SOL     OW 1324   2.447   1.334   0.698  0.9584  0.0774  0.0876
  442SOL    HW1 1325   2.430   1.358   0.797 -0.5939 -1.9560  0.5410
  442SOL    HW2 1326   2.523   1.394   0.663  0.2911  0.4189  0.5378
  443SOL     OW 1327   2.762   2.037   2.345 -0.0561  0.0922  0.1839
  443SOL    HW1 1328   2.730   2.132   2.345 -0.9436 -3.1042  2.0523
  443SOL    HW2 1329   2.771   2.000   2.247 -1.1574 -0.3147  2.5713
  444SOL     OW 1330   1.638   1.374   0.003  0.1570  0.0028  0.7033
  444SOL    HW1 1331   1.724   1.327   0.023 -1.2581 -0.1182  0.5710
  444SOL    HW2 1332   1.578   1.376   0.085 -0.4904 -0.4707 -0.6289
  445SOL     OW 1333   2.645   2.723   2.165  0.4703 -0.5187 -0.4042
  445SOL    HW1 1334   2.590   2.671   2.098  0.9557  0.8431 -3.1742
  445SOL    HW2 1335   2.743   2.731   2.145 -2.0956 -1.8282  0.7554
  446SOL     OW 1336   0.173   1.089   1.336  0.1731 -0.0200 -0.0134
  446SOL    HW1 1337   0.228   1.045   1.411 -2.5358  0.4703  0.4691
  446SOL    HW2 1338   0.090   1.029   1.311 -1.3105  0.8578  0.0432
  447SOL     OW 1339   0.813   1.463   0.788 -0.2068  0.1909 -0.0451
  447SOL    HW1 1340   0.907   1.495   0.811 -0.0761  0.7046 -0.7380
  447SOL    HW2 1341   0.770   1.542   0.748  1.5693 -3.1448 -0.9537
  448SOL     OW 1342   1.149   1.103   1.654 -0.2946  0.0083  0.2721
  448SOL    HW1 1343   1.193   1.078   1.745 -2.4441 -0.0799 -1.2914
  448SOL    HW2 1344   1.120   1.020   1.607 -1.1088  1.5778  4.0719
  449SOL     OW 1345   0.092   2.078   2.196 -0.1975 -0.2076 -0.1548
  449SOL    HW1 1346   0.091   2.176   2.170  0.7395  0.2452  0.3984
  449SOL    HW2 1347   0.133   2.023   2.126 -1.2816 -0.8870  2.1820
  450SOL     OW 1348   2.874   1.992   1.847 -0.1588  0.3744 -0.4109
  450SOL    HW1 1349   2.874   2.088   1.824  1.2631 -0.7709  0.4536
  450SOL    HW2 1350   2.963   1.958   1.814 -0.2151  0.6120 -2.6925
  451SOL     OW 1351   2.325   0.918   1.377  0.0289 -0.5859 -0.5453
  451SOL    HW1 1352   2.260   0.914   1.456 -1.0342 -1.5581  1.1328
  451SOL    HW2 1353   2.345   0.821   1.343 -2.3079 -1.1967 -1.6065
  452SOL     OW 1354   0.431   1.323   1.016  0.4414  0.4758 -0.4058
  452SOL    HW1 1355   0.378   1.265   0.953  1.9417 -2.4941  2.3453
  452SOL    HW2 1356   0.476   1.405   0.968  2.3298  1.3633  0.6870
  453SOL     OW 1357   0.730   1.731   1.035 -0.1196 -0.7108 -0.3927
  453SOL    HW1 1358   0.744   1.825   1.073  0.0404 -0.8224 -1.8902
  453SOL    HW2 1359   0.813   1.684   1.011 -2.4936 -0.1726  0.5637
  454SOL     OW 1360   0.472   1.660   0.104 -0.1527 -0.3202 -0.4706
  454SOL    HW1 1361   0.486   1.741   0.043 -1.4188 -0.7723 -1.9982
  454SOL    HW2 1362   0.387   1.613   0.073 -1.3047 -0.0448  0.2583
  455SOL     OW 1363   1.959   0.807   0.804 -0.2445  0.4810  0.0019
  455SOL    HW1 1364   1.895   0.731   0.825  0.2504  0.5284  0.1288
  455SOL    HW2 1365   1.920   0.892   0.844  0.3021 -1.4106 -0.2695
  456SOL     OW 1366   2.111   2.573   0.891  0.3190 -1.0056  0.2260
  456SOL    HW1 1367   2.172   2.624   0.830 -0.4149 -0.4547  4.2425
  456SOL    HW2 1368   2.159   2.492   0.931  0.7144  3.3190 -2.3266
  457SOL     OW 1369   2.040   2.904   2.662 -0.7470  0.8479  0.2179
  457SOL    HW1 1370   2.024   2.992   2.715 -0.3290  1.7390 -2.2544
  457SOL    HW2 1371   1.998   2.915   2.568 -1.3990 -0.2051 -1.7705
  458SOL     OW 1372   2.143   0.351   0.326  0.2987  0.1815 -0.2268
  458SOL    HW1 1373   2.240   0.381   0.320  0.4153  1.0699  0.1836
  458SOL    HW2 1374   2.077   0.420   0.291 -0.4530  2.4345  0.7116
  459SOL     OW 1375   0.086   1.182   2.338 -0.5142 -0.8808  0.5354
  459SOL    HW1 1376   3.093   1.168   2.307 -0.4645  0.6978  0.6311
  459SOL    HW2 1377   0.134   1.243   2.272  0.1358  0.4065 -0.7674
  460SOL     OW 1378   0.367   0.785   0.107 -0.4686 -0.3634 -0.3766
  460SOL    HW1 1379   0.439   0.843   0.062  2.6095  1.8814  1.0884
  460SOL    HW2 1380   0.408   0.694   0.123  0.4635  0.2312 -2.1814
  461SOL     OW 1381   2.837   2.428   0.899 -0.5181  0.3754 -0.7321
  461SOL    HW1 1382   2.765   2.494   0.933  2.6210  1.0912 -1.3242
  461SOL    HW2 1383   2.816   2.331   0.927  0.0942 -2.7739  0.0422
  462SOL     OW 1384   0.238   0.198   1.706 -1.2581 -0.2780 -0.1082
  462SOL    HW1 1385   0.147   0.207   1.666 -1.5407  0.6306  0.5306
  462SOL    HW2 1386   0.309   0.178   1.638 -2.7694 -2.5597 -0.2364
  463SOL     OW 1387   1.992   2.202   2.018 -0.1353 -0.0955  0.1190
  463SOL    HW1 1388   1.947   2.115   2.013  3.8985  2.1889  2.4013
  463SOL    HW2 1389   1.975   2.265   1.938  0.5398 -1.3837  0.4741
  464SOL     OW 1390   0.420   0.148   1.515  0.0127  0.3796 -0.2614
  464SOL    HW1 1391   0.521   0.175   1.529  1.5333 -0.2164  0.1135
  464SOL    HW2 1392   0.414   0.047   1.534  0.2403 -1.1568 -0.2401
  465SOL     OW 1393   0.826   3.107   1.392 -0.1843 -0.4200 -0.1982
  465SOL    HW1 1394   0.926   0.026   1.387  0.6140 -3.7035  1.0933
  465SOL    HW2 1395   0.774   0.080   1.420 -0.0981  1.6782 -2.1932
  466SOL     OW 1396   1.447   2.021   1.648 -0.0073 -0.3935 -0.4942
  466SOL    HW1 1397   1.490   1.955   1.584 -0.8076 -1.2957  2.7223
  466SOL    HW2 1398   1.361   1.980   1.680  0.4291  0.6506  2.5605
  467SOL     OW 1399   0.111   1.801   1.314 -0.2104  0.6109 -0.3289
  467SOL    HW1 1400   0.066   1.733   1.376 -1.0807 -0.7222  2.0194
  467SOL    HW2 1401   0.197   1.763   1.285 -3.6047  0.6683  0.8289
  468SOL     OW 1402   2.587   2.015   2.622  0.3552  0.7674  0.2442
  468SOL    HW1 1403   2.654   2.058   2.684 -1.6027 -0.5812 -2.0165
  468SOL    HW2 1404   2.630   1.973   2.545 -3.9956  1.2801 -0.5594
  469SOL     OW 1405   1.369   2.291   0.517  0.5462  0.0783 -0.1915
  469SOL    HW1 1406   1.414   2.251   0.436  0.8445 -1.4592  0.6325
  469SOL    HW2 1407   1.279   2.323   0.485 -1.9030 -0.3173 -1.1043
  470SOL     OW 1408   2.196   1.560   0.913  0.1549  0.1880 -0.1647
  470SOL    HW1 1409   2.191   1.614   1.000 -1.1840  1.2656 -1.4054
  470SOL    HW2 1410   2.287   1.513   0.896  1.8005 -1.3975  1.1811
  471SOL     OW 1411   0.236   2.427   0.137  0.5596  0.4663  0.5025
  471SOL    HW1 1412   0.234   2.521   0.177  1.5474  0.0296  1.4908
  471SOL    HW2 1413   0.328   2.407   0.104 -0.0797  2.0576  0.5704
  472SOL     OW 1414   2.817   1.863   2.134  0.0447 -0.1505 -0.0744
  472SOL    HW1 1415   2.840   1.763   2.130 -0.5038  1.5130  1.9655
  472SOL    HW2 1416   2.869   1.914   2.064  0.1458 -0.4481 -2.4462
  473SOL     OW 1417   1.268   3.071   0.843 -0.6829  0.4279 -0.2833
  473SOL    HW1 1418   1.361   3.092   0.798  2.3830  0.5134 -1.2715
  473SOL    HW2 1419   1.212   3.007   0.784 -1.7188  0.7999 -4.1161
  474SOL     OW 1420   2.940   3.087   1.196  0.0350  0.1172 -0.8010
  474SOL    HW1 1421   2.948   0.062   1.137  1.1997  1.1799 -2.3637
  474SOL    HW2 1422   3.007   3.105   1.273  1.3983  2.2705  0.7342
  475SOL     OW 1423   1.776   2.729   1.685  0.1809  0.3899 -0.3119
  475SOL    HW1 1424   1.865   2.732   1.638  0.8756 -0.2164 -0.2024
  475SOL    HW2 1425   1.694   2.757   1.627  1.1167  0.6965 -0.2787
  476SOL     OW 1426   0.482   0.457   0.869 -0.4270  0.3501  0.3389
  476SOL    HW1 1427   0.576   0.448   0.913  2.9791  0.2212 -1.1486
  476SOL    HW2 1428   0.415   0.392   0.913  2.2347  2.2369 -0.8184
  477SOL     OW 1429   0.818   2.386   0.966 -0.5388 -0.3478 -0.0735
  477SOL    HW1 1430   0.734   2.430   0.924 -3.1532  1.8298 -0.8955
  477SOL    HW2 1431   0.864   2.318   0.906 -0.8472 -0.1704  1.1812
  478SOL     OW 1432   0.454   2.555   2.791 -0.4956 -0.4131  0.1719
  478SOL    HW1 1433   0.452   2.455   2.803 -0.0429  1.3697 -1.2121
  478SOL    HW2 1434   0.509   2.598   2.867 -1.7566 -1.6309  0.3441
  479SOL     OW 1435   0.218   0.601   2.167 -0.2491  0.2027  0.4024
  479SOL    HW1 1436   0.131   0.575   2.211  0.6115  0.8491 -1.1691
  479SOL    HW2 1437   0.215   0.694   2.134  1.0080 -0.9421  0.6316
  480SOL     OW 1438   3.092   2.104   3.054  0.2764 -0.1403  0.2465
  480SOL    HW1 1439   3.101   2.205   3.076  0.0730  0.4907 -0.6261
  480SOL    HW2 1440   0.039   2.052   0.018 -0.4661 -1.9503 -3.0448
  481SOL     OW 1441   1.563   2.176   2.120  0.1832  0.0562  0.1565
  481SOL    HW1 1442   1.582   2.113   2.197 -0.7046 -0.9098 -0.0285
  481SOL    HW2 1443   1.642   2.235   2.120 -1.8578 -3.6207 -0.5052
  482SOL     OW 1444   1.516   2.154   2.750  0.6564  0.1864 -0.3487
  482SOL    HW1 1445   1.513   2.067   2.803 -2.3169 -2.5722 -0.8164
  482SOL    HW2 1446   1.506   2.135   2.656 -0.0354  0.1755  3.8936
  483SOL     OW 1447   0.896   2.540   2.896  0.2088 -0.1198  0.0072
  483SOL    HW1 1448   0.825   2.589   2.841 -2.8513 -0.0007 -0.4569
  483SOL    HW2 1449   0.983   2.586   2.890  1.9189  0.0134  1.1365
  484SOL     OW 1450   0.098   0.208   0.787  0.6549  0.1534 -0.2513
  484SOL    HW1 1451   0.002   0.214   0.817  1.3833 -2.3786  1.7081
  484SOL    HW2 1452   0.116   0.113   0.743 -0.0863 -0.0715  1.8092
  485SOL     OW 1453   1.845   0.834   0.547  0.1574 -0.1349 -0.0204
  485SOL    HW1 1454   1.890   0.836   0.636  0.5801  2.4180 -0.6656
  485SOL    HW2 1455   1.799   0.744   0.533 -0.2343  0.9793  3.1025
  486SOL     OW 1456   1.900   2.600   2.128  0.6412  0.1486 -0.0352
  486SOL    HW1 1457   1.974   2.673   2.128 -1.2954 -2.6305 -0.8739
  486SOL    HW2 1458   1.816   2.624   2.182  4.5296 -1.2847  2.0697
  487SOL     OW 1459   1.653   2.110   0.750 -0.0654 -0.3104  0.6249
  487SOL    HW1 1460   1.562   2.080   0.782  0.3695 -0.7823 -0.4482
  487SOL    HW2 1461   1.734   2.073   0.806 -0.4592 -1.8442  0.0430
  488SOL     OW 1462   1.950   0.854   0.027  0.1335 -0.4085 -0.2440
  488SOL    HW1 1463   1.937   0.879   0.126  0.7222  0.5407 -1.4087
  488SOL    HW2 1464   2.036   0.807   0.006 -2.5140  0.5631  0.2825
  489SOL     OW 1465   2.495   0.248   0.637 -0.4142  0.2411 -0.1758
  489SOL    HW1 1466   2.535   0.191   0.713 -0.1988  1.3726  0.2834
  489SOL    HW2 1467   2.419   0.197   0.601  0.8923  0.2164  1.8426
  490SOL     OW 1468   1.672   2.771   2.926  0.0645  0.0095  0.1113
  490SOL    HW1 1469   1.649   2.845   2.859 -0.2336 -1.8221 -2.0130
  490SOL    HW2 1470   1.726   2.705   2.875 -1.3178 -0.2478 -0.9775
  491SOL     OW 1471   0.885   0.526   1.098 -0.2502  0.3471 -0.2357
  491SOL    HW1 1472   0.969   0.556   1.043  2.0186  0.6108 -1.5246
  491SOL    HW2 1473   0.912   0.463   1.174  0.1216  0.9579 -0.0143
  492SOL     OW 1474   1.664   0.471   0.184  0.0057 -0.2401 -0.1730
  492SOL    HW1 1475   1.655   0.383   0.132  2.5837 -0.8332  2.2136
  492SOL    HW2 1476   1.698   0.546   0.122 -0.0613  0.1480  1.2843
  493SOL     OW 1477   2.095   2.167   2.771 -0.1929 -0.3790 -0.1253
  493SOL    HW1 1478   2.096   2.229   2.850 -1.0666  0.7507 -2.2951
  493SOL    HW2 1479   2.192   2.156   2.736 -0.4918  0.3623 -3.4296
  494SOL     OW 1480   0.331   1.133   0.829 -0.5057 -0.3170  1.0109
  494SOL    HW1 1481   0.383   1.146   0.742  1.3097  2.2783 -2.3934
  494SOL    HW2 1482   0.227   1.119   0.827  1.1691  1.6664  1.1445
  495SOL     OW 1483   3.074   3.078   1.477 -0.1279 -0.5294  0.1671
  495SOL    HW1 1484   3.075   0.072   1.484 -0.6061 -1.1155  0.9865
  495SOL    HW2 1485   0.007   3.031   1.558 -0.0718  0.4101 -3.0644
  496SOL     OW 1486   2.716   2.887   1.727  0.9169  0.0428  0.3352
  496SOL    HW1 1487   2.776   2.893   1.639  1.4093  2.3036 -0.8358
  496SOL    HW2 1488   2.750   2.936   1.807  0.2725 -0.6250  0.0969
  497SOL     OW 1489   1.361   1.643   2.562 -0.6850 -0.0107 -0.1321
  497SOL    HW1 1490   1.318   1.643   2.649  0.8589  0.0572 -1.0945
  497SOL    HW2 1491   1.380   1.546   2.533 -0.9148  1.9299 -1.6890
  498SOL     OW 1492   0.469   2.026   0.740 -0.6077 -0.1250  0.6197
  498SOL    HW1 1493   0.411   1.966   0.684  2.2220  2.2405  0.7509
  498SOL    HW2 1494   0.435   2.033   0.837  0.3547 -2.1309 -2.7968
  499SOL     OW 1495   0.009   1.579   1.443 -0.1595 -0.0523  0.2652
  499SOL    HW1 1496   0.078   1.506   1.426  2.0607  2.5984 -1.0353
  499SOL    HW2 1497   3.031   1.565   1.390 -0.0008  0.7274  2.7552
  500SOL     OW 1498   1.374   2.602   0.250  0.2708 -0.0465 -0.0073
  500SOL    HW1 1499   1.435   2.519   0.259 -1.3909  0.9373 -0.1523
  500SOL    HW2 1500   1.421   2.691   0.269  0.0272  1.7809 -0.5426
  501SOL     OW 1501   2.237   2.418   1.222  0.0243 -0.1418 -0.5313
  501SOL    HW1 1502   2.318   2.479   1.222 -3.6049 -1.1871  0.2599
  501SOL    HW2 1503   2.232   2.372   1.133  2.1958  0.6102 -0.0153
  502SOL     OW 1504   0.105   0.877   1.700  0.2681  0.1880  0.1305
  502SOL    HW1 1505   0.192   0.922   1.672  2.1794  2.6873  1.2908
  502SOL    HW2 1506   0.115   0.774   1.701  0.2506 -0.5970  3.8220
  503SOL     OW 1507   2.387   0.080   1.733 -0.0527  0.1027  0.2315
  503SOL    HW1 1508   2.426   0.032   1.812  0.1582  1.1294  1.9038
  503SOL    HW2 1509   2.399   0.180   1.740 -1.4987  1.2080  0.2730
  504SOL     OW 1510   1.845   0.638   2.094  0.6040 -0.1568 -0.1665
  504SOL    HW1 1511   1.848   0.737   2.066  0.8131 -2.1348  0.5733
  504SOL    HW2 1512   1.899   0.624   2.183 -0.3629 -0.2011 -0.1510
  505SOL     OW 1513   1.142   3.098   2.462  0.5686  0.5686  0.2972
  505SOL    HW1 1514   1.069   3.036   2.503  2.1076  1.9803  1.2631
  505SOL    HW2 1515   1.184   3.052   2.383 -2.8417  0.1374  2.4161
  506SOL     OW 1516   0.454   0.588   1.626 -0.0345 -0.6887  0.6888
  506SOL    HW1 1517   0.538   0.547   1.587 -1.6922 -2.6232  1.4718
  506SOL    HW2 1518   0.446   0.547   1.717 -0.0329  0.1806 -2.5829
  507SOL     OW 1519   1.939   3.093   2.816 -0.2732 -0.0535 -0.1154
  507SOL    HW1 1520   1.886   0.059   2.773  1.9385 -2.5555 -0.8187
  507SOL    HW2 1521   1.886   3.054   2.894 -1.4760 -3.5338 -0.4835
  508SOL     OW 1522   2.332   0.442   2.545 -0.2762  0.4532 -0.2436
  508SOL    HW1 1523   2.355   0.485   2.632  0.4502  2.6517 -1.3581
  508SOL    HW2 1524   2.232   0.459   2.529  0.0755  0.0909 -1.2313
  509SOL     OW 1525   0.970   1.532   1.930 -0.2972 -0.3317 -0.7148
  509SOL    HW1 1526   0.953   1.632   1.965  0.4755  1.4800  0.1541
  509SOL    HW2 1527   0.909   1.516   1.850  0.9137  0.3865 -0.7411
  510SOL     OW 1528   3.068   0.872   0.906  0.2197  0.6244 -0.4311
  510SOL    HW1 1529   3.087   0.804   0.832  0.3434  1.6664  0.3666
  510SOL    HW2 1530   2.967   0.892   0.918 -1.1424 -0.1813 -0.8549
  511SOL     OW 1531   1.602   1.467   0.780 -0.5125  0.5397  0.9493
  511SOL    HW1 1532   1.625   1.427   0.691 -1.7862  0.1951  0.4528
  511SOL    HW2 1533   1.591   1.563   0.766  0.9903 -3.4877 -0.6226
  512SOL     OW 1534   0.750   1.430   0.359 -0.4235 -0.5618 -0.7962
  512SOL    HW1 1535   0.677   1.472   0.416 -1.0262  0.6224  0.4754
  512SOL    HW2 1536   0.836   1.415   0.416 -1.4530  0.2083  0.2808
  513SOL     OW 1537   0.230   2.567   0.683 -0.2690 -0.2387  0.5068
  513SOL    HW1 1538   0.302   2.632   0.656 -3.1969 -1.9069  1.1290
  513SOL    HW2 1539   0.231   2.486   0.620 -3.3715 -0.1270 -1.5035
  514SOL     OW 1540   0.200   1.990   0.071  0.0338  0.3268  0.1419
  514SOL    HW1 1541   0.229   2.047   0.149 -0.6222  0.4401  2.4074
  514SOL    HW2 1542   0.178   1.895   0.105  1.1383 -0.9525  0.7489
  515SOL     OW 1543   2.354   0.652   0.376 -0.2559 -0.6033 -0.2795
  515SOL    HW1 1544   2.258   0.678   0.379  3.4550  0.7343  1.3537
  515SOL    HW2 1545   2.405   0.738   0.363 -0.9713  0.6007  0.4543
  516SOL     OW 1546   2.466   2.592   1.202 -0.1880  0.0547 -0.0394
  516SOL    HW1 1547   2.546   2.613   1.268  4.1721 -3.8258 -1.1927
  516SOL    HW2 1548   2.397   2.668   1.200 -0.4072 -0.6289 -1.3388
  517SOL     OW 1549   1.347   1.812   3.002  0.0727  0.4138 -0.2278
  517SOL    HW1 1550   1.399   1.733   3.036  0.8463  3.6654 -2.5810
  517SOL    HW2 1551   1.261   1.821   3.061 -0.5690 -1.5612  1.4842
  518SOL     OW 1552   1.293   0.492   1.743  0.3951 -0.2009  0.1370
  518SOL    HW1 1553   1.224   0.482   1.819 -1.5910  1.1756 -3.2160
  518SOL    HW2 1554   1.285   0.578   1.694  0.3901 -1.2418 -0.9717
  519SOL     OW 1555   2.820   1.966   0.769  0.2718 -0.2848 -0.2037
  519SOL    HW1 1556   2.904   1.936   0.815 -2.3006 -0.1928 -0.0178
  519SOL    HW2 1557   2.832   1.949   0.671 -2.2585 -0.7984 -0.3477
  520SOL     OW 1558   2.320   2.110   1.724  0.0667  0.2291 -0.1661
  520SOL    HW1 1559   2.294   2.112   1.821 -0.1440  0.6056  1.9752
  520SOL    HW2 1560   2.241   2.114   1.663  1.9867  0.6660  1.5499
  521SOL     OW 1561   0.960   2.928   2.575  0.1233 -0.2067 -0.2018
  521SOL    HW1 1562   1.003   2.957   2.664 -4.1130  0.9751 -1.2872
  521SOL    HW2 1563   0.948   2.829   2.565 -0.8139  0.6032 -0.8592
  522SOL     OW 1564   2.597   0.241   2.253  0.3718  0.4130  0.1107
  522SOL    HW1 1565   2.641   0.317   2.307  0.2044 -1.6563 -0.2371
  522SOL    HW2 1566   2.576   0.164   2.321 -0.7009  0.9023  1.4691
  523SOL     OW 1567   1.666   2.308   1.560  0.5075  0.1360 -0.0379
  523SOL    HW1 1568   1.660   2.373   1.481 -0.7117 -0.4708  2.4521
  523SOL    HW2 1569   1.704   2.214   1.536 -0.1991 -0.4276  2.5331
  524SOL     OW 1570   1.743   2.031   3.028 -0.7255  0.0744 -0.4491
  524SOL    HW1 1571   1.699   2.036   0.011 -0.2047 -1.8608 -2.8616
  524SOL    HW2 1572   1.797   2.115   3.003  0.6575 -2.5057 -2.2212
  525SOL     OW 1573   3.067   0.689   0.430 -0.6338 -0.4303 -0.4687
  525SOL    HW1 1574   3.058   0.745   0.342 -3.2188  3.2418 -0.0695
  525SOL    HW2 1575   0.041   0.627   0.438  1.8641 -0.7391 -1.5404
  526SOL     OW 1576   1.042   2.967   1.088 -0.0958 -0.4248 -0.5901
  526SOL    HW1 1577   1.133   2.985   1.128 -2.9315 -1.2953 -0.0735
  526SOL    HW2 1578   1.021   3.048   1.024 -0.1823  2.5216 -2.0291
  527SOL     OW 1579   2.642   1.485   0.598  0.0514  0.0360  0.1034
  527SOL    HW1 1580   2.696   1.547   0.659 -0.0251 -1.3007  0.9793
  527SOL    HW2 1581   2.697   1.459   0.515  1.4408  0.4213 -2.3555
  528SOL     OW 1582   0.621   0.686   2.226  0.3003  0.9179  0.1307
  528SOL    HW1 1583   0.622   0.782   2.257  0.3773 -1.4343 -1.9233
  528SOL    HW2 1584   0.530   0.641   2.243 -1.9808 -2.0284 -0.6720
  529SOL     OW 1585   1.011   1.762   2.718 -0.1723 -0.0199  0.2667
  529SOL    HW1 1586   1.073   1.701   2.769 -1.8906 -1.3436 -5.0543
  529SOL    HW2 1587   1.002   1.719   2.630  0.7835 -0.1892  3.0053
  530SOL     OW 1588   1.686   1.368   2.461  0.1759  0.1667 -0.4684
  530SOL    HW1 1589   1.592   1.379   2.503 -2.9672 -0.7452 -0.2439
  530SOL    HW2 1590   1.725   1.276   2.492 -1.7646 -3.2325  1.2968
  531SOL     OW 1591   0.718   2.309   2.899  0.2608 -0.2617 -0.0542
  531SOL    HW1 1592   0.618   2.303   2.912 -0.2263 -0.2658  0.2726
  531SOL    HW2 1593   0.771   2.380   2.952  0.9949 -2.1643 -1.7858
  532SOL     OW 1594   2.405   0.942   0.245 -0.0443  0.3049  0.2756
  532SOL    HW1 1595   2.345   0.996   0.312 -0.7244 -1.5756  3.4976
  532SOL    HW2 1596   2.355   0.927   0.157 -1.7097  0.9737  0.3644
  533SOL     OW 1597   3.088   0.444   1.706  0.1856  0.0244  0.0502
  533SOL    HW1 1598   0.051   0.515   1.680 -0.1658  0.9278  0.0336
  533SOL    HW2 1599   3.048   0.455   1.797  0.3798 -0.5440 -2.4311
  534SOL     OW 1600   1.454   0.135   2.964 -0.2674 -0.1679  0.1545
  534SOL    HW1 1601   1.366   0.179   2.992 -0.2788  0.2305  0.4465
  534SOL    HW2 1602   1.473   0.166   2.869  0.9753 -0.1235 -2.1528
  535SOL     OW 1603   0.773   0.253   0.298 -0.3235  0.2477  0.3472
  535SOL    HW1 1604   0.689   0.246   0.350  1.9750 -0.1909 -0.6721
  535SOL    HW2 1605   0.780   0.340   0.260 -4.0987 -3.5128  0.8431
  536SOL     OW 1606   0.555   1.672   1.799  0.2022  0.2489  0.2817
  536SOL    HW1 1607   0.570   1.585   1.838  0.5891  3.7995  0.8123
  536SOL    HW2 1608   0.630   1.702   1.736 -0.3883  0.2024 -2.6682
  537SOL     OW 1609   0.380   2.481   1.922  0.0222  0.2424 -0.1286
  537SOL    HW1 1610   0.387   2.451   1.824 -0.1610  1.2915  0.0907
  537SOL    HW2 1611   0.412   2.409   1.986  0.1705  0.5357 -0.6854
  538SOL     OW 1612   2.997   1.815   0.211 -0.6231 -0.4410  0.6210
  538SOL    HW1 1613   3.076   1.767   0.176 -1.6368  2.9583 -1.9664
  538SOL    HW2 1614   3.000   1.804   0.310  0.6259  0.5117  0.2724
  539SOL     OW 1615   2.644   0.600   2.872 -0.3434 -0.3006 -0.1288
  539SOL    HW1 1616   2.728   0.543   2.888  0.1370  2.7809  2.2643
  539SOL    HW2 1617   2.661   0.656   2.786  0.6812 -0.3217  1.4731
  540SOL     OW 1618   1.561   0.858   2.648 -0.5757 -0.6183 -0.5025
  540SOL    HW1 1619   1.530   0.889   2.743 -0.2619 -0.9299  1.9973
  540SOL    HW2 1620   1.623   0.930   2.607  3.3481  1.3560 -1.6446
  541SOL     OW 1621   0.663   0.103   1.760 -0.5446 -0.4352  0.0089
  541SOL    HW1 1622   0.612   0.043   1.824 -0.0597  1.8760 -1.2876
  541SOL    HW2 1623   0.727   0.168   1.806 -0.6176 -0.8591 -1.7341
  542SOL     OW 1624   1.953   2.439   2.575 -0.3959 -0.2531 -0.6055
  542SOL    HW1 1625   1.867   2.394   2.594  1.7774  1.5179 -0.2908
  542SOL    HW2 1626   1.943   2.542   2.569 -3.0027 -0.4795  1.1346
  543SOL     OW 1627   0.609   3.024   0.811  0.1082  0.2369  0.5333
  543SOL    HW1 1628   0.614   2.932   0.854 -1.2719 -0.6992  2.0323
  543SOL    HW2 1629   0.653   3.092   0.872 -0.2998 -0.5533 -1.4323
  544SOL     OW 1630   2.899   1.557   2.119  0.3825  0.0183 -0.0893
  544SOL    HW1 1631   2.866   1.463   2.142 -0.9165 -0.6906 -1.9288
  544SOL    HW2 1632   2.902   1.610   2.206  0.1103 -0.3437  2.6113
  545SOL     OW 1633   1.981   1.931   1.293  0.0934  0.3986 -0.0807
  545SOL    HW1 1634   1.926   1.851   1.331  0.3581 -0.8731 -0.6962
  545SOL    HW2 1635   1.968   1.918   1.192  0.2602 -0.9019 -1.7753
  546SOL     OW 1636   0.343   0.228   2.384  0.3438  0.6923 -0.2161
  546SOL    HW1 1637   0.323   0.194   2.477  0.3420 -1.7965 -2.2814
  546SOL    HW2 1638   0.328   0.325   2.372 -0.6744  1.1332  0.6538
  547SOL     OW 1639   1.166   0.557   1.024 -0.0211  0.1526 -0.1382
  547SOL    HW1 1640   1.201   0.585   1.117  2.7097  0.7425  1.7726
  547SOL    HW2 1641   1.213   0.602   0.942  0.7393  1.5666  0.1591
  548SOL     OW 1642   1.188   2.607   2.939  0.2182  0.2925  0.7485
  548SOL    HW1 1643   1.274   2.615   2.996 -1.4620 -1.7550 -0.7488
  548SOL    HW2 1644   1.173   2.519   2.897  1.9273  3.6814 -1.4004
  549SOL     OW 1645   2.104   0.443   2.800 -0.2646 -0.3667  1.0165
  549SOL    HW1 1646   2.184   0.391   2.837  1.1217  0.2905 -1.5810
  549SOL    HW2 1647   2.109   0.439   2.700 -1.6045  1.2694  0.8701
  550SOL     OW 1648   2.834   1.938   0.504  0.5312  0.3007 -0.3268
  550SOL    HW1 1649   2.739   1.947   0.475 -0.8946 -1.4091  1.8540
  550SOL    HW2 1650   2.892   2.017   0.474  1.7100  2.6760  2.2431
  551SOL     OW 1651   1.004   2.875   1.913 -0.0071 -0.7690 -0.1377
  551SOL    HW1 1652   0.948   2.818   1.849 -0.2372 -1.3708  1.4307
  551SOL    HW2 1653   0.995   2.974   1.892 -0.1218 -0.7309  0.3814
  552SOL     OW 1654   3.052   2.277   2.576  0.4132  0.6763 -0.1055
  552SOL    HW1 1655   3.058   2.190   2.528 -1.4227  0.0320  1.6700
  552SOL    HW2 1656   2.960   2.275   2.624 -0.1976  2.9915 -1.7739
  553SOL     OW 1657   0.218   2.855   0.793 -0.1154  0.4217  0.1440
  553SOL    HW1 1658   0.285   2.799   0.744  0.1121  0.5248 -0.3347
  553SOL    HW2 1659   0.138   2.798   0.808 -0.6640  2.1168 -2.1913
  554SOL     OW 1660   2.081   1.860   1.771  0.0102  0.2112 -0.0950
  554SOL    HW1 1661   2.142   1.860   1.851  0.1981  1.7110 -1.0480
  554SOL    HW2 1662   2.069   1.951   1.724 -0.3863  1.3331 -2.2897
  555SOL     OW 1663   1.536   1.960   1.903  0.6811 -0.0426  0.5908
  555SOL    HW1 1664   1.491   1.976   1.816 -0.2033  0.3371  3.5588
  555SOL    HW2 1665   1.518   2.035   1.971  0.8569  0.6726 -1.7816
  556SOL     OW 1666   1.468   1.636   1.143 -0.4538 -0.3903  0.4477
  556SOL    HW1 1667   1.432   1.607   1.232 -0.7672 -0.2885  0.2658
  556SOL    HW2 1668   1.451   1.570   1.068  1.4410  2.5935  1.3472
  557SOL     OW 1669   1.498   3.022   1.491 -0.4151  0.2085  0.1500
  557SOL    HW1 1670   1.523   3.071   1.576 -2.6399 -0.0895 -0.1340
  557SOL    HW2 1671   1.412   3.056   1.447 -0.7132  1.8478 -3.7554
  558SOL     OW 1672   0.474   0.033   1.926  0.1144  0.3417  0.7857
  558SOL    HW1 1673   0.468   0.037   2.025  1.8710  0.4321 -3.5797
  558SOL    HW2 1674   0.429   0.113   1.883 -0.9524  0.9118  1.2430
  559SOL     OW 1675   2.351   3.031   0.747  0.1397  0.1135  0.4142
  559SOL    HW1 1676   2.427   3.080   0.789 -0.8214 -1.2413 -1.0685
  559SOL    HW2 1677   2.271   3.094   0.738  0.1628 -1.5105 -1.8332
  560SOL     OW 1678   1.452   2.524   0.629 -0.2041 -0.4010  0.3155
  560SOL    HW1 1679   1.418   2.447   0.574  2.7180  1.0103 -0.3080
  560SOL    HW2 1680   1.385   2.583   0.672  0.7063 -1.6637  0.8230
  561SOL     OW 1681   1.154   0.528   0.378  0.5393  0.5236  0.7433
  561SOL    HW1 1682   1.212   0.442   0.364 -0.0009  0.1063 -0.1971
  561SOL    HW2 1683   1.062   0.505   0.414 -1.2492  0.6372 -0.3758
  562SOL     OW 1684   0.408   1.224   2.427 -0.1709 -0.1497 -0.0421
  562SOL    HW1 1685   0.384   1.154   2.353 -0.0252 -0.3843 -0.4571
  562SOL    HW2 1686   0.418   1.169   2.514  1.4180  0.6084 -1.4313
  563SOL     OW 1687   1.499   2.181   2.472 -0.2225 -0.1415 -0.0415
  563SOL    HW1 1688   1.554   2.268   2.474 -0.0450  2.4666 -0.3605
  563SOL    HW2 1689   1.546   2.125   2.398  1.0798 -0.7162 -0.2513
  564SOL     OW 1690   2.810   0.929   0.974 -0.0258 -0.3241  0.1579
  564SOL    HW1 1691   2.813   1.034   0.974  2.9836 -0.7145  0.2453
  564SOL    HW2 1692   2.744   0.887   0.908 -1.5681 -0.5927 -2.3822
  565SOL     OW 1693   0.721   0.850   3.055  0.4419  0.0713  0.0571
  565SOL    HW1 1694   0.693   0.783   2.983 -1.6817 -0.3536  1.2242
  565SOL    HW2 1695   0.767   0.809   0.029 -2.3859  4.7410 -2.3409
  566SOL     OW 1696   2.484   3.075   2.803 -0.1048 -0.1360 -0.4923
  566SOL    HW1 1697   2.390   3.100   2.781 -0.1580  1.3495  0.7979
  566SOL    HW2 1698   2.524   3.005   2.744  0.7203  3.1307  2.0649
  567SOL     OW 1699   1.496   0.897   0.948 -0.2478 -0.4889 -0.3131
  567SOL    HW1 1700   1.401   0.906   0.915 -0.7888  1.1366 -0.6698
  567SOL    HW2 1701   1.555   0.977   0.928  2.3636 -1.5440 -1.1025
  568SOL     OW 1702   1.709   1.812   2.681 -1.3365 -0.7391 -0.1214
  568SOL    HW1 1703   1.678   1.812   2.582  0.8256 -1.0244 -1.1435
  568SOL    HW2 1704   1.646   1.860   2.750 -0.8882  3.5201 -0.5041
  569SOL     OW 1705   2.227   1.357   3.039  0.2679  0.4029 -0.0118
  569SOL    HW1 1706   2.204   1.270   3.081 -1.1066  0.7609  0.8843
  569SOL    HW2 1707   2.325   1.345   3.008 -0.0265 -0.2938  0.4513
  570SOL     OW 1708   0.101   2.359   1.801  0.1959  0.2135  0.1791
  570SOL    HW1 1709   0.168   2.296   1.762 -1.7859  1.7378  1.1300
  570SOL    HW2 1710   0.128   2.451   1.769  0.4103  0.7043 -4.0350
  571SOL     OW 1711   2.680   1.860   1.707  0.8951 -0.0575 -0.1974
  571SOL    HW1 1712   2.590   1.879   1.748 -0.0508  2.3062  1.7642
  571SOL    HW2 1713   2.756   1.890   1.766  0.1655 -1.1041 -2.5531
  572SOL     OW 1714   1.629   2.019   0.182 -0.2502 -0.1499  0.0057
  572SOL    HW1 1715   1.529   2.019   0.180 -1.4874  2.1056 -0.0622
  572SOL    HW2 1716   1.653   2.077   0.259 -1.7365 -2.2315  0.4659
  573SOL     OW 1717   1.851   2.217   0.311  0.2367  0.1690 -0.1666
  573SOL    HW1 1718   1.867   2.231   0.212  0.4038 -0.9550  0.5117
  573SOL    HW2 1719   1.847   2.300   0.364  1.5406 -2.0664 -1.8843
  574SOL     OW 1720   1.018   0.298   1.203 -0.2480 -0.3358  0.5697
  574SOL    HW1 1721   1.031   0.247   1.289  0.0354 -1.1907 -2.0446
  574SOL    HW2 1722   1.045   0.242   1.122  0.4513  1.4025 -1.7392
  575SOL     OW 1723   0.771   0.939   1.671 -0.1147 -0.1147  0.0135
  575SOL    HW1 1724   0.800   1.007   1.600  0.1011  2.1609 -3.6494
  575SOL    HW2 1725   0.768   0.984   1.761 -0.9436 -0.7393  1.1520
  576SOL     OW 1726   2.548   0.382   1.845 -0.4035 -0.3080  0.5741
  576SOL    HW1 1727   2.486   0.382   1.766  0.6412 -0.3117  0.3121
  576SOL    HW2 1728   2.645   0.395   1.810  1.0562 -0.3792 -2.9903
  577SOL     OW 1729   1.185   1.036   2.583 -0.2687 -0.1556  0.0024
  577SOL    HW1 1730   1.188   1.129   2.619  0.1046 -3.1915 -0.5308
  577SOL    HW2 1731   1.255   1.025   2.506  1.0067  1.0641  0.1809
  578SOL     OW 1732   2.144   1.515   2.440 -0.0158 -0.7012  0.2490
  578SOL    HW1 1733   2.045   1.521   2.455  1.8474 -2.2739  0.1912
  578SOL    HW2 1734   2.168   1.477   2.351  1.1095 -3.6500  1.3195
  579SOL     OW 1735   1.365   2.248   1.530  0.0385  0.2472  0.2279
  579SOL    HW1 1736   1.408   2.170   1.576  1.4128  1.1746  0.3511
  579SOL    HW2 1737   1.429   2.282   1.460  0.3653 -1.3850 -1.0411
  580SOL     OW 1738   1.491   2.284   0.264  0.2150 -0.5079  0.1049
  580SOL    HW1 1739   1.549   2.316   0.189 -0.9481 -1.1835  3.2168
  580SOL    HW2 1740   1.444   2.198   0.228 -0.7635 -2.5099  1.0231
  581SOL     OW 1741   1.257   0.765   2.027  0.1568  0.1648  0.9790
  581SOL    HW1 1742   1.205   0.680   2.005  1.6976 -1.6250 -1.6856
  581SOL    HW2 1743   1.225   0.792   2.117  0.8556  0.7289 -1.8285
  582SOL     OW 1744   0.904   1.117   1.466 -0.0223  0.3763 -0.2796
  582SOL    HW1 1745   0.890   1.185   1.540  1.1803 -1.1094  2.1908
  582SOL    HW2 1746   0.972   1.045   1.497 -0.9285 -0.3015  3.7482
  583SOL     OW 1747   0.961   1.174   1.891  0.7704 -0.0487 -0.0109
  583SOL    HW1 1748   1.041   1.125   1.859  0.0184  2.3028  1.1842
  583SOL    HW2 1749   0.970   1.275   1.869 -1.8821  0.4478  1.4771
  584SOL     OW 1750   2.217   2.318   0.965 -0.1905  0.4236 -0.0115
  584SOL    HW1 1751   2.301   2.270   0.937 -1.1352 -1.3131 -2.1075
  584SOL    HW2 1752   2.136   2.275   0.921  0.5337 -0.3243 -1.6946
  585SOL     OW 1753   2.227   0.135   2.772 -0.0285 -0.1763 -0.7320
  585SOL    HW1 1754   2.128   0.120   2.768 -0.1671 -1.4841 -0.0698
  585SOL    HW2 1755   2.252   0.208   2.834 -0.4842 -2.0222 -1.6688
  586SOL     OW 1756   3.086   2.413   0.804  0.3652 -0.4998 -0.1035
  586SOL    HW1 1757   3.083   2.384   0.709  1.1083  0.4148  3.2073
  586SOL    HW2 1758   2.988   2.416   0.841 -1.8749  1.1391 -0.2564
  587SOL     OW 1759   1.558   1.907   2.871 -0.2482  0.1795 -0.4573
  587SOL    HW1 1760   1.624   1.936   2.943  0.2044 -0.3749 -1.2169
  587SOL    HW2 1761   1.477   1.857   2.912  0.9100 -1.5730  0.0337
  588SOL     OW 1762   0.248   0.338   0.964 -0.0190  0.0292  0.5949
  588SOL    HW1 1763   0.225   0.293   1.047 -0.8205  1.9023 -1.2192
  588SOL    HW2 1764   0.200   0.296   0.880  0.3231 -1.1798  0.9366
  589SOL     OW 1765   1.239   0.789   0.857 -0.3407  0.3739 -0.2578
  589SOL    HW1 1766   1.178   0.865   0.862 -0.9989 -3.4988  0.1345
  589SOL    HW2 1767   1.240   0.756   0.759 -2.5867 -0.4220 -1.2297
  590SOL     OW 1768   1.359   1.207   0.015  0.1806  0.0948 -0.0165
  590SOL    HW1 1769   1.389   1.268   0.093  1.4033 -0.1580  1.7791
  590SOL    HW2 1770   1.395   1.113   0.034 -2.1341  0.3411  0.8989
  591SOL     OW 1771   2.630   2.389   2.564 -0.1610 -0.2527  0.1308
  591SOL    HW1 1772   2.561   2.411   2.635  0.4770 -0.7496  0.6788
  591SOL    HW2 1773   2.644   2.477   2.509  0.5270 -1.5740 -2.0463
  592SOL     OW 1774   1.825   2.152   1.288  0.8518 -0.4314 -0.2051
  592SOL    HW1 1775   1.737   2.116   1.257 -0.1879 -2.9709 -0.7320
  592SOL    HW2 1776   1.882   2.071   1.312 -2.0989 -0.7902 -1.4266
  593SOL     OW 1777   0.742   0.085   0.975  0.1171  0.7087 -0.1202
  593SOL    HW1 1778   0.723   0.105   1.076 -2.6872 -2.4792  0.3215
  593SOL    HW2 1779   0.767   0.172   0.928 -0.3054 -0.0497 -0.5448
  594SOL     OW 1780   2.709   0.708   2.440  0.6575 -0.0658  0.4911
  594SOL    HW1 1781   2.736   0.746   2.528  1.8571 -0.2035  1.0751
  594SOL    HW2 1782   2.615   0.733   2.415 -0.9242 -3.7590 -2.5241
  595SOL     OW 1783   0.625   2.778   0.919  0.4741 -0.8353  0.4009
  595SOL    HW1 1784   0.608   2.680   0.909 -0.9833  1.9849  0.1462
  595SOL    HW2 1785   0.577   2.818   0.996 -0.3110 -2.8971 -1.9881
  596SOL     OW 1786   3.076   0.922   1.228  0.1742  0.3730  0.5335
  596SOL    HW1 1787   2.986   0.878   1.233  4.5434 -1.2743 -1.0513
  596SOL    HW2 1788   0.032   0.868   1.170  2.7077 -0.3701 -0.6765
  597SOL     OW 1789   1.403   1.779   0.181 -0.4631  0.3078 -0.3116
  597SOL    HW1 1790   1.422   1.693   0.134 -2.2033  1.1213  1.4831
  597SOL    HW2 1791   1.431   1.769   0.276  0.6436  1.2935 -1.9359
  598SOL     OW 1792   0.303   2.943   1.840  0.0890 -0.5518  0.3203
  598SOL    HW1 1793   0.332   2.927   1.741 -1.1022 -2.8142 -2.2103
  598SOL    HW2 1794   0.361   3.019   1.885  0.2213  1.5093 -0.3406
  599SOL     OW 1795   2.500   1.576   2.826  0.6473 -0.0563 -0.3178
  599SOL    HW1 1796   2.426   1.586   2.755  1.4921  1.6209  1.6040
  599SOL    HW2 1797   2.590   1.563   2.777 -1.6713 -0.4058  2.0495
  600SOL     OW 1798   0.884   1.173   0.238 -0.2324 -0.0830  0.4012
  600SOL    HW1 1799   0.798   1.230   0.219  0.7902  0.7298  0.8298
  600SOL    HW2 1800   0.909   1.178   0.333 -0.5949 -2.2347 -3.1605
  601SOL     OW 1801   0.542   0.856   0.702  0.1631  0.4696 -0.1764
  601SOL    HW1 1802   0.514   0.933   0.763  0.1756 -1.5025 -2.3523
  601SOL    HW2 1803   0.603   0.791   0.749  0.6757  1.8526 -1.8474
  602SOL     OW 1804   1.792   3.007   0.618  0.5247 -0.1469 -0.2096
  602SOL    HW1 1805   1.782   3.050   0.526  0.1589 -1.2547  1.6829
  602SOL    HW2 1806   1.740   2.920   0.620 -1.7092  0.3779 -0.3156
  603SOL     OW 1807   0.788   2.773   2.341  0.2186  0.1333 -0.2929
  603SOL    HW1 1808   0.836   2.716   2.415  0.3368  0.2925 -0.3751
  603SOL    HW2 1809   0.754   2.705   2.270 -0.7307 -1.9336  1.1043
  604SOL     OW 1810   2.982   0.098   2.626  0.1290 -0.2362  0.1408
  604SOL    HW1 1811   3.077   0.075   2.602  1.1997  1.8387  1.8584
  604SOL    HW2 1812   2.920   0.065   2.552  1.5482 -1.7576 -1.3350
  605SOL     OW 1813   2.592   1.490   1.366 -0.1756 -0.0539 -0.0612
  605SOL    HW1 1814   2.568   1.429   1.289  1.5693 -0.3032  0.0704
  605SOL    HW2 1815   2.505   1.526   1.402  2.1348  0.4242  0.1895
  606SOL     OW 1816   0.705   1.418   2.691  0.0459 -0.5954 -0.1692
  606SOL    HW1 1817   0.731   1.507   2.742  0.5488  0.5751  0.6332
  606SOL    HW2 1818   0.656   1.441   2.607  3.6710 -0.7329  0.6454
  607SOL     OW 1819   0.552   0.015   0.363 -0.0360  0.1365  0.1234
  607SOL    HW1 1820   0.601   3.100   0.274  1.1836 -2.8295 -1.7588
  607SOL    HW2 1821   0.476   0.076   0.347 -0.4041  1.5341  0.0909
  608SOL     OW 1822   1.813   1.528   2.068 -0.0946  0.4697 -0.0537
  608SOL    HW1 1823   1.824   1.426   2.072  0.0860  0.0815  1.1935
  608SOL    HW2 1824   1.816   1.569   1.976 -3.2718  0.4236  3.2663
  609SOL     OW 1825   2.686   0.355   1.342 -0.4847  0.3095  0.6953
  609SOL    HW1 1826   2.618   0.278   1.325 -0.3091  1.5252 -1.7103
  609SOL    HW2 1827   2.651   0.423   1.408 -1.8117  0.6063  1.3920
  610SOL     OW 1828   0.410   2.758   0.597 -0.3879  0.6579 -0.7281
  610SOL    HW1 1829   0.498   2.712   0.585 -3.3708  0.0924 -1.6808
  610SOL    HW2 1830   0.420   2.859   0.586  0.7447 -1.1848  1.5819
  611SOL     OW 1831   1.508   0.938   2.909 -0.1959 -1.0033  0.3310
  611SOL    HW1 1832   1.532   1.029   2.864  1.1176 -1.3519  0.7669
  611SOL    HW2 1833   1.513   0.948   3.010  0.6973 -1.0986  1.8233
  612SOL     OW 1834   0.760   2.373   2.041  0.3690 -0.1471 -0.1403
  612SOL    HW1 1835   0.812   2.392   2.126 -2.0895 -1.3598 -0.3176
  612SOL    HW2 1836   0.829   2.330   1.982 -2.2714  1.5191  1.4116
  613SOL     OW 1837   0.600   2.529   0.559 -0.0688 -0.2757 -0.3958
  613SOL    HW1 1838   0.577   2.429   0.546 -1.6986  1.2340 -0.2786
  613SOL    HW2 1839   0.614   2.577   0.468 -1.5577  2.4426 -1.2877
  614SOL     OW 1840   2.472   2.955   1.619  0.0594 -0.0315 -0.0901
  614SOL    HW1 1841   2.551   2.961   1.680  1.6937  3.1986 -2.8411
  614SOL    HW2 1842   2.421   3.046   1.629 -0.5129  2.9103  1.6245
  615SOL     OW 1843   1.716   1.142   0.205 -0.5784  0.1828  0.5673
  615SOL    HW1 1844   1.626   1.182   0.223  0.6451 -0.5922 -2.3138
  615SOL    HW2 1845   1.787   1.215   0.194  1.0830  1.4926  0.2196
  616SOL     OW 1846   1.916   0.940   0.292 -0.6026  0.5479 -0.0406
  616SOL    HW1 1847   1.894   0.886   0.376  0.1781 -0.0804 -0.8821
  616SOL    HW2 1848   1.859   1.023   0.284  1.7206  0.1788 -2.0517
  617SOL     OW 1849   0.914   0.994   2.834  0.2058  0.2679  0.3442
  617SOL    HW1 1850   0.851   1.022   2.912  0.2786  0.7542  1.6432
  617SOL    HW2 1851   1.006   0.992   2.872 -2.9951 -2.9904  1.1501
  618SOL     OW 1852   0.657   2.904   1.901  0.0218  0.8741 -0.2046
  618SOL    HW1 1853   0.723   2.869   1.973 -0.5745 -0.5364  1.4807
  618SOL    HW2 1854   0.565   2.911   1.940  2.1716 -1.4795  1.2161
  619SOL     OW 1855   2.927   1.152   1.251  0.1660 -0.2708  0.5539
  619SOL    HW1 1856   2.985   1.070   1.233 -0.2262 -0.9364 -3.4533
  619SOL    HW2 1857   2.930   1.184   1.348 -0.8445 -0.1244  1.4202
  620SOL     OW 1858   2.392   0.915   2.894  0.0469 -0.7921  0.6035
  620SOL    HW1 1859   2.400   0.979   2.820 -0.0270 -1.5734  0.1669
  620SOL    HW2 1860   2.363   0.823   2.856 -1.0463 -0.2333 -1.8753
  621SOL     OW 1861   2.510   2.429   1.572  0.3324  0.2643  0.2595
  621SOL    HW1 1862   2.446   2.354   1.603  1.5563 -6.0165 -0.4086
  621SOL    HW2 1863   2.602   2.410   1.605  1.7138 -1.6836  0.7990
  622SOL     OW 1864   0.913   0.619   2.581  0.0157  0.4293  0.9591
  622SOL    HW1 1865   0.864   0.597   2.497 -2.0360  0.4209  0.5083
  622SOL    HW2 1866   0.945   0.715   2.583 -0.9124 -2.1644  0.1763
  623SOL     OW 1867   1.090   0.432   2.561  0.1562 -0.4908  0.6594
  623SOL    HW1 1868   1.058   0.335   2.578 -0.2844 -0.7639  0.7742
  623SOL    HW2 1869   1.014   0.500   2.579 -1.7255 -0.8490  2.5028
  624SOL     OW 1870   2.257   0.752   0.005  0.2353 -0.1720 -0.0687
  624SOL    HW1 1871   2.195   0.707   3.047  1.9576  1.4220  0.2183
  624SOL    HW2 1872   2.359   0.748   3.085  2.3859  1.8023 -1.2798
  625SOL     OW 1873   1.114   1.437   0.955  0.2751 -0.2483  0.0768
  625SOL    HW1 1874   1.210   1.431   0.973 -1.8630  0.2418  0.1019
  625SOL    HW2 1875   1.054   1.381   1.021  0.9030 -0.8631  1.5437
  626SOL     OW 1876   1.776   1.075   2.564 -0.3444 -0.4400  0.6736
  626SOL    HW1 1877   1.794   1.027   2.478 -1.4785  0.9383 -1.4675
  626SOL    HW2 1878   1.856   1.081   2.629 -2.5069 -0.5534 -1.0473
  627SOL     OW 1879   1.049   3.010   2.802  0.1711 -0.0015 -0.2886
  627SOL    HW1 1880   1.135   2.955   2.813  0.3264 -2.8911  0.7404
  627SOL    HW2 1881   0.992   3.000   2.887 -1.8899 -0.0413  1.8760
  628SOL     OW 1882   2.343   0.178   2.539  0.3054 -0.1685  0.2129
  628SOL    HW1 1883   2.307   0.140   2.627  1.5176  0.1889 -2.5662
  628SOL    HW2 1884   2.355   0.279   2.536 -0.4010  0.8625  0.1764
  629SOL     OW 1885   0.966   0.535   2.859 -0.2237  0.5130 -0.6586
  629SOL    HW1 1886   0.942   0.571   2.767  1.8119  0.0182 -1.2693
  629SOL    HW2 1887   1.022   0.606   2.907 -1.1964 -0.5514 -3.1926
  630SOL     OW 1888   1.183   0.110   2.098 -0.1330 -0.1502 -0.1697
  630SOL    HW1 1889   1.128   0.149   2.177  0.1600  0.3272  1.0879
  630SOL    HW2 1890   1.231   0.025   2.131 -1.4463  1.2274  4.5947
  631SOL     OW 1891   2.666   0.888   0.746  0.4472  0.3307 -0.0532
  631SOL    HW1 1892   2.576   0.932   0.723  2.9943 -0.0571 -1.5836
  631SOL    HW2 1893   2.652   0.790   0.770 -3.1471  0.1306 -0.1162
  632SOL     OW 1894   2.081   0.801   1.515 -0.1329 -0.4258  0.1761
  632SOL    HW1 1895   2.039   0.847   1.594  0.1673 -0.6333  1.2857
  632SOL    HW2 1896   2.097   0.704   1.533 -1.0566 -2.3934  0.9425
  633SOL     OW 1897   0.950   1.383   0.543  0.2213 -0.3270  0.1995
  633SOL    HW1 1898   0.925   1.373   0.643 -1.8351  0.0412  2.2369
  633SOL    HW2 1899   1.048   1.415   0.537  0.8059  3.2251 -1.7233
  634SOL     OW 1900   2.067   3.016   0.957  0.2556  0.6818  0.1388
  634SOL    HW1 1901   2.104   3.096   1.014  2.0558  0.1220  1.9641
  634SOL    HW2 1902   2.057   2.931   1.014 -0.2350 -1.2710 -0.8733
  635SOL     OW 1903   1.657   0.730   1.264 -0.5576  0.1313 -0.9074
  635SOL    HW1 1904   1.597   0.793   1.321  0.4814  1.4450 -1.0967
  635SOL    HW2 1905   1.750   0.774   1.258 -2.7613  0.5535  2.2177
  636SOL     OW 1906   0.921   1.113   0.508  0.0925  0.2640  0.0661
  636SOL    HW1 1907   0.918   1.214   0.521 -1.0464 -0.6719 -1.3568
  636SOL    HW2 1908   0.870   1.068   0.586  1.8898 -1.8659 -0.1542
  637SOL     OW 1909   2.424   2.149   3.006  0.0108 -0.0794  0.0610
  637SOL    HW1 1910   2.499   2.085   3.038  2.9450 -2.8741  0.9179
  637SOL    HW2 1911   2.381   2.130   2.915 -0.2516  0.7956  1.4826
  638SOL     OW 1912   1.349   2.621   2.639  0.4315 -0.0918 -0.1896
  638SOL    HW1 1913   1.284   2.595   2.570 -0.7821  0.6343 -2.7258
  638SOL    HW2 1914   1.347   2.552   2.713  0.8779 -1.0450 -0.0831
  639SOL     OW 1915   0.943   1.930   1.254  0.2631 -0.1928  0.3857
  639SOL    HW1 1916   0.849   1.954   1.220  0.2990 -2.5569  1.5930
  639SOL    HW2 1917   1.001   2.013   1.249 -0.3921  2.1748  1.1371
  640SOL     OW 1918   2.510   2.994   0.504  0.4872  0.2612 -0.2088
  640SOL    HW1 1919   2.474   3.032   0.420 -0.5560  3.0396 -1.0354
  640SOL    HW2 1920   2.441   3.023   0.576 -0.3022  0.6619  0.4949
  641SOL     OW 1921   0.309   0.156   0.319 -0.1334 -0.1141 -1.0136
  641SOL    HW1 1922   0.267   0.227   0.383 -1.6741  3.9826 -1.7733
  641SOL    HW2 1923   0.242   0.096   0.273  1.0250  0.0043 -1.9779
  642SOL     OW 1924   2.831   0.799   1.223  0.0102 -0.2270  0.8083
  642SOL    HW1 1925   2.787   0.712   1.226  0.9672  2.5619  0.1982
  642SOL    HW2 1926   2.817   0.845   1.130  0.8298 -1.6617 -1.5611
  643SOL     OW 1927   0.839   2.124   1.898 -0.2007 -0.0260  0.3293
  643SOL    HW1 1928   0.767   2.072   1.852 -1.2511 -0.1891 -0.7600
  643SOL    HW2 1929   0.873   2.189   1.836 -0.2506 -2.6448  0.1180
  644SOL     OW 1930   1.655   2.601   0.291  0.3969 -0.3261  0.6080
  644SOL    HW1 1931   1.690   2.587   0.199  0.5048 -0.9702 -2.0837
  644SOL    HW2 1932   1.609   2.689   0.302 -0.8690 -1.3725 -0.9726
  645SOL     OW 1933   2.045   2.200   0.741 -0.5079  0.0849  0.1456
  645SOL    HW1 1934   2.018   2.279   0.680  1.1143  0.5147 -0.8637
  645SOL    HW2 1935   1.992   2.193   0.826 -2.0241  2.8760  0.4810
  646SOL     OW 1936   1.120   2.922   0.335 -0.3152  0.1392  0.1170
  646SOL    HW1 1937   1.139   2.842   0.394  0.0166 -0.3197 -1.2488
  646SOL    HW2 1938   1.156   2.910   0.241  1.7471  2.3833 -0.1063
  647SOL     OW 1939   0.356   2.755   2.011 -0.0866 -0.0132  0.4180
  647SOL    HW1 1940   0.350   2.825   1.937  0.6396 -0.5561  0.9954
  647SOL    HW2 1941   0.353   2.661   1.971  1.1446  1.8298  1.5428
  648SOL     OW 1942   1.899   0.848   1.267  0.2397 -0.6604 -0.1081
  648SOL    HW1 1943   1.949   0.891   1.186  1.5061  1.6215  0.7823
  648SOL    HW2 1944   1.960   0.821   1.340 -2.4490  0.9487 -3.4985
  649SOL     OW 1945   1.321   2.376   2.790 -0.1119 -0.3134 -0.4505
  649SOL    HW1 1946   1.350   2.388   2.888 -2.1723 -1.7163  0.5929
  649SOL    HW2 1947   1.360   2.291   2.749  1.4094 -1.7690  1.0540
  650SOL     OW 1948   2.233   1.500   1.571 -0.5047 -0.1106  0.5684
  650SOL    HW1 1949   2.282   1.562   1.639  0.8155 -0.4615 -1.0318
  650SOL    HW2 1950   2.161   1.448   1.621 -0.1583 -0.3919  1.9086
  651SOL     OW 1951   1.367   2.320   3.083 -0.0890  0.7687 -0.3578
  651SOL    HW1 1952   1.319   2.385   0.038 -0.9768  1.9707  0.6532
  651SOL    HW2 1953   1.465   2.300   0.001  4.4797  3.1649  1.7339
  652SOL     OW 1954   0.902   2.460   0.068  0.2011 -0.1271 -0.2533
  652SOL    HW1 1955   0.944   2.545   0.101 -0.8000 -0.4849 -0.8329
  652SOL    HW2 1956   0.869   2.475   3.080 -2.1157 -1.1592 -0.1033
  653SOL     OW 1957   2.497   2.113   1.334 -0.2730 -0.2591  0.5489
  653SOL    HW1 1958   2.522   2.175   1.256  0.3102 -1.2560  1.4042
  653SOL    HW2 1959   2.396   2.101   1.336  0.4387  0.9534 -0.3497
  654SOL     OW 1960   2.902   2.677   1.580 -0.1360 -0.0328  0.6165
  654SOL    HW1 1961   2.863   2.746   1.518  1.3393 -3.4039  1.0291
  654SOL    HW2 1962   2.955   2.601   1.531 -0.7348 -1.5453 -0.9749
  655SOL     OW 1963   3.046   2.209   1.143  0.1412 -0.4958 -0.4953
  655SOL    HW1 1964   2.956   2.172   1.167  1.8816  3.2872 -2.5619
  655SOL    HW2 1965   3.038   2.309   1.142 -1.7795 -2.0513 -0.0617
  656SOL     OW 1966   3.072   2.704   2.640 -0.4784  0.0064  0.1807
  656SOL    HW1 1967   0.056   2.706   2.685 -2.1749  0.6626  0.2251
  656SOL    HW2 1968   3.032   2.797   2.652  2.1916 -1.5206 -0.8532
  657SOL     OW 1969   3.046   0.812   0.176  0.4946  0.1097 -0.1378
  657SOL    HW1 1970   2.964   0.848   0.124 -5.3052 -1.8964 -0.4243
  657SOL    HW2 1971   0.019   0.871   0.162 -3.9180  0.3228 -1.4514
  658SOL     OW 1972   2.117   1.844   0.886 -0.2063  0.4541  0.1289
  658SOL    HW1 1973   2.119   1.747   0.864 -2.0115  2.6687 -2.5057
  658SOL    HW2 1974   2.123   1.903   0.807 -0.6637  1.1906  1.0824
  659SOL     OW 1975   1.692   0.529   1.464 -0.4990  0.1345 -0.5606
  659SOL    HW1 1976   1.694   0.600   1.394 -0.7272 -0.3031  0.6888
  659SOL    HW2 1977   1.634   0.450   1.444  1.9919 -0.2155  1.8330
  660SOL     OW 1978   1.515   1.621   3.096  0.5103  0.5236 -0.5316
  660SOL    HW1 1979   1.584   1.687   0.027  1.3931 -2.4825 -1.1495
  660SOL    HW2 1980   1.555   1.525   3.100 -2.6492 -0.3086  0.7598
  661SOL     OW 1981   0.121   2.056   0.489  0.5853 -0.4873 -0.1098
  661SOL    HW1 1982   0.176   2.099   0.411  0.1834  1.5103 -3.3486
  661SOL    HW2 1983   0.021   2.074   0.474 -1.5764  0.8523  1.8067
  662SOL     OW 1984   3.003   0.677   2.092  0.0692  0.5365  0.6031
  662SOL    HW1 1985   3.046   0.679   2.183 -1.0679  2.0415 -2.1896
  662SOL    HW2 1986   3.024   0.768   2.046 -4.5982  0.0086 -1.1111
  663SOL     OW 1987   2.002   1.375   0.846  0.1452 -0.0981  0.1918
  663SOL    HW1 1988   2.026   1.294   0.786  0.2071 -0.8758 -2.1461
  663SOL    HW2 1989   2.079   1.441   0.864  1.4313  2.4017  2.0102
  664SOL     OW 1990   0.621   0.467   1.213  0.1735 -0.1938 -0.4123
  664SOL    HW1 1991   0.706   0.492   1.160  0.4687  1.1681 -0.6154
  664SOL    HW2 1992   0.605   0.365   1.210 -0.8511 -1.7663 -0.3840
  665SOL     OW 1993   1.192   2.904   0.054 -0.1498 -0.0136  0.3084
  665SOL    HW1 1994   1.291   2.921   0.035  3.1484  1.2133  0.2806
  665SOL    HW2 1995   1.151   2.998   0.067  0.4609  0.9309  0.1167
  666SOL     OW 1996   0.016   0.484   2.314 -0.1295  0.1141 -0.1462
  666SOL    HW1 1997   0.039   0.422   2.398 -1.7071  1.1230 -1.9495
  666SOL    HW2 1998   3.053   0.449   2.254  3.4380  1.5055  1.2814
  667SOL     OW 1999   2.049   1.685   2.125 -0.0993  1.0548  0.1269
  667SOL    HW1 2000   2.121   1.625   2.168  5.4399 -0.3214  1.9538
  667SOL    HW2 2001   1.970   1.619   2.104 -1.2141 -2.5580 -0.3758
  668SOL     OW 2002   0.170   1.733   2.976 -0.3659  0.0407  0.1954
  668SOL    HW1 2003   0.236   1.768   2.905 -0.0875  1.7158 -1.3996
  668SOL    HW2 2004   0.110   1.659   2.944  0.0666  1.9028  0.3915
  669SOL     OW 2005   2.207   2.505   2.631 -0.1898  0.3471  0.5911
  669SOL    HW1 2006   2.248   2.517   2.539  0.9155 -0.8024 -1.5168
  669SOL    HW2 2007   2.116   2.467   2.624  3.6880  0.8568  1.9430
  670SOL     OW 2008   2.543   1.077   2.425 -0.4069  0.1234 -0.0478
  670SOL    HW1 2009   2.492   1.116   2.352  0.0998 -0.8582 -1.1152
  670SOL    HW2 2010   2.533   0.979   2.427 -1.6390  1.1219  2.4699
  671SOL     OW 2011   2.406   1.351   0.277 -0.4032 -0.0358 -0.3893
  671SOL    HW1 2012   2.446   1.317   0.188 -0.6078  0.4346 -2.9223
  671SOL    HW2 2013   2.437   1.444   0.305 -0.1659 -1.0982 -1.9067
  672SOL     OW 2014   2.755   1.253   2.408 -0.1941  0.4914  0.1638
  672SOL    HW1 2015   2.794   1.288   2.496  0.6371  0.8287 -1.3978
  672SOL    HW2 2016   2.674   1.190   2.417  0.9783  3.7980  0.2882
  673SOL     OW 2017   2.503   1.097   1.497 -0.1994  0.1695  0.3123
  673SOL    HW1 2018   2.446   1.071   1.418  1.2736 -0.3782  1.4124
  673SOL    HW2 2019   2.601   1.063   1.482 -0.0568 -1.9672  0.6207
  674SOL     OW 2020   1.593   1.874   1.478  0.3566 -0.2010 -0.1273
  674SOL    HW1 2021   1.685   1.855   1.447 -2.7955  3.0395 -2.9968
  674SOL    HW2 2022   1.540   1.788   1.490  1.0544  0.3433  1.0540
  675SOL     OW 2023   0.051   0.547   0.928 -0.3550 -0.0982  0.0420
  675SOL    HW1 2024   0.075   0.608   0.849  0.7953 -1.5441 -0.3605
  675SOL    HW2 2025   0.129   0.486   0.943 -3.7674  0.0357  0.8659
  676SOL     OW 2026   2.034   0.991   1.094  0.4979 -0.2557  0.6643
  676SOL    HW1 2027   2.104   1.049   1.135 -2.6347 -0.6823 -2.2013
  676SOL    HW2 2028   2.074   0.911   1.043 -0.5533 -0.1725 -0.9185
  677SOL     OW 2029   1.597   1.628   2.207  0.0158 -0.4369  0.1542
  677SOL    HW1 2030   1.531   1.635   2.132  1.4168  0.9733 -0.8994
  677SOL    HW2 2031   1.679   1.576   2.171 -2.0062 -0.5174 -1.5543
  678SOL     OW 2032   2.984   1.827   0.915  0.3219 -0.6564 -0.0880
  678SOL    HW1 2033   3.052   1.895   0.951  1.1772  1.0405 -1.6613
  678SOL    HW2 2034   2.921   1.803   0.987 -1.0056 -0.1769 -0.0585
  679SOL     OW 2035   3.070   3.083   0.472  0.3097  0.4175  0.6649
  679SOL    HW1 2036   2.985   3.038   0.503  0.5656 -1.3992  0.4626
  679SOL    HW2 2037   0.026   3.103   0.552  0.7872  0.5505  2.5390
  680SOL     OW 2038   0.224   2.298   1.248 -0.2527 -0.5349 -0.5107
  680SOL    HW1 2039   0.306   2.267   1.200 -2.0967  0.3841  3.6838
  680SOL    HW2 2040   0.134   2.273   1.208  0.9638  2.3038  0.6444
  681SOL     OW 2041   0.736   0.737   1.106 -0.1446  0.1410 -0.1890
  681SOL    HW1 2042   0.677   0.737   1.187 -1.2820 -0.5481  3.0447
  681SOL    HW2 2043   0.800   0.657   1.107  2.8404 -1.0229  1.6839
  682SOL     OW 2044   1.669   2.887   0.851 -0.1132  0.1529  0.4352
  682SOL    HW1 2045   1.724   2.973   0.865  2.2819  1.9456  1.4208
  682SOL    HW2 2046   1.716   2.803   0.886 -1.8875 -0.6987 -0.1763
  683SOL     OW 2047   2.055   1.214   1.355 -0.3043  0.1684 -0.5808
  683SOL    HW1 2048   2.070   1.308   1.321 -0.7151 -2.8105  1.7385
  683SOL    HW2 2049   2.148   1.177   1.356 -1.0585  0.9535 -1.9627
  684SOL     OW 2050   0.351   1.799   1.667  0.1862  0.3224 -0.5565
  684SOL    HW1 2051   0.408   1.740   1.729  0.6115  1.6657  1.8096
  684SOL    HW2 2052   0.255   1.769   1.657  0.1831  2.0874 -1.0721
  685SOL     OW 2053   2.431   1.848   0.167 -0.2335  0.6439 -0.8523
  685SOL    HW1 2054   2.440   1.758   0.214  2.9926  1.3298 -0.6508
  685SOL    HW2 2055   2.424   1.835   0.066  0.9340  2.3860 -0.0319
  686SOL     OW 2056   2.868   0.297   0.555  0.1502  0.1188  0.3425
  686SOL    HW1 2057   2.792   0.304   0.492  2.5010 -0.1344  0.1801
  686SOL    HW2 2058   2.871   0.375   0.618 -0.8940  0.7088 -0.6484
  687SOL     OW 2059   1.446   3.017   0.009 -0.2959 -0.7528  0.0114
  687SOL    HW1 2060   1.489   3.063   0.091  3.6013  2.2784 -0.6803
  687SOL    HW2 2061   1.448   3.085   3.037  0.9513  2.9624 -0.3685
  688SOL     OW 2062   1.892   1.928   2.157  0.0309 -0.0510  0.3287
  688SOL    HW1 2063   1.948   1.846   2.167 -2.3694 -1.1409  0.8796
  688SOL    HW2 2064   1.910   1.991   2.237  1.9316  0.2698 -0.5587
  689SOL     OW 2065   2.860   1.018   1.890 -0.1614  0.3263  0.1096
  689SOL    HW1 2066   2.872   1.019   1.790  0.6697 -0.9698  1.4745
  689SOL    HW2 2067   2.817   0.936   1.928  1.5220  3.6788 -0.4502
  690SOL     OW 2068   2.049   1.188   0.664  0.3947 -0.3544 -0.4368
  690SOL    HW1 2069   2.084   1.097   0.682  0.9957 -1.4434 -2.3514
  690SOL    HW2 2070   1.951   1.197   0.646  0.7089  0.4716  0.5566
  691SOL     OW 2071   0.979   1.304   1.149  0.7102  0.1416 -0.3482
  691SOL    HW1 2072   1.016   1.215   1.112 -1.0539 -2.5008 -0.1232
  691SOL    HW2 2073   0.877   1.296   1.173  2.4798 -0.1829  0.5616
  692SOL     OW 2074   1.575   3.090   2.244 -0.9636  0.2788  0.1942
  692SOL    HW1 2075   1.630   3.020   2.188 -1.4788  1.3531 -0.2227
  692SOL    HW2 2076   1.586   0.075   2.205 -1.5639  0.2459  1.3501
  693SOL     OW 2077   0.146   1.300   2.886  0.0216 -0.2681 -0.0276
  693SOL    HW1 2078   0.207   1.254   2.958  1.9943 -1.5833 -0.4496
  693SOL    HW2 2079   0.102   1.235   2.826 -0.8295  3.9715 -0.6033
  694SOL     OW 2080   2.290   2.772   0.773  0.0890 -0.0361  0.1150
  694SOL    HW1 2081   2.363   2.742   0.713  0.0314 -1.6819  0.0175
  694SOL    HW2 2082   2.290   2.873   0.779  1.2821  0.0950 -0.9255
  695SOL     OW 2083   1.601   1.424   2.842  0.9265 -0.2198  0.1587
  695SOL    HW1 2084   1.607   1.424   2.944 -0.4694 -2.1326 -1.6729
  695SOL    HW2 2085   1.678   1.481   2.806  2.7838  1.5533  0.4735
  696SOL     OW 2086   1.922   0.283   1.695  0.2966  0.1958  0.4723
  696SOL    HW1 2087   1.895   0.352   1.763  0.1112  0.7107 -2.9536
  696SOL    HW2 2088   1.933   0.316   1.597 -0.4146  0.0077 -2.7510
  697SOL     OW 2089   1.631   0.212   2.093 -0.1572  0.6371  0.1651
  697SOL    HW1 2090   1.677   0.173   2.011  1.3639  1.1564  0.0433
  697SOL    HW2 2091   1.536   0.240   2.077 -2.3827  0.5245 -1.5538
  698SOL     OW 2092   1.880   1.552   2.478  0.3009  0.1162 -0.2034
  698SOL    HW1 2093   1.843   1.640   2.450 -0.1014 -0.7766 -0.6214
  698SOL    HW2 2094   1.803   1.481   2.472 -2.6503  0.6212 -2.9237
  699SOL     OW 2095   1.707   1.125   0.621  0.2679  0.5197  0.4937
  699SOL    HW1 2096   1.676   1.137   0.721  1.3716 -0.4202 -0.1198
  699SOL    HW2 2097   1.745   1.031   0.609 -2.3589 -2.5305 -0.0336
  700SOL     OW 2098   1.506   2.831   0.325 -1.2112 -0.4388  0.5147
  700SOL    HW1 2099   1.537   2.812   0.419 -1.2690 -1.3626 -1.9871
  700SOL    HW2 2100   1.536   2.926   0.295 -1.1499 -1.2843 -0.3013
  701SOL     OW 2101   0.259   0.302   1.350 -0.2389 -0.0201 -0.0470
  701SOL    HW1 2102   0.211   0.380   1.400 -1.1026 -2.1123 -0.0111
  701SOL    HW2 2103   0.330   0.252   1.401  0.1773 -1.1782 -1.8810
  702SOL     OW 2104   1.767   2.982   1.456 -0.1595  0.6239  0.0336
  702SOL    HW1 2105   1.798   2.898   1.408 -1.9147  1.0565  1.7774
  702SOL    HW2 2106   1.663   2.978   1.466 -0.0281 -2.3376 -0.9297
  703SOL     OW 2107   2.490   2.966   2.235 -0.0144  0.8140  0.4883
  703SOL    HW1 2108   2.537   3.002   2.314 -0.5443 -0.1298 -0.6513
  703SOL    HW2 2109   2.535   2.885   2.206  0.5119  3.5796 -1.0203
  704SOL     OW 2110   1.368   1.893   0.802 -0.0710 -0.6397 -0.5034
  704SOL    HW1 2111   1.306   1.858   0.877 -1.8183 -0.1361  0.7719
  704SOL    HW2 2112   1.355   1.989   0.783 -0.4811 -3.3151 -0.0208
  705SOL     OW 2113   0.307   1.753   2.149 -0.2406 -0.3215 -0.0143
  705SOL    HW1 2114   0.403   1.779   2.180  0.1242  1.1752  0.3813
  705SOL    HW2 2115   0.265   1.705   2.222  2.6558  1.3601 -1.6930
  706SOL     OW 2116   1.672   0.264   3.092  0.0800 -0.2620  0.3443
  706SOL    HW1 2117   1.608   0.223   3.025 -0.1335  2.7937 -0.5770
  706SOL    HW2 2118   1.727   0.189   0.027 -2.3324  2.7610 -2.4007
  707SOL     OW 2119   1.460   2.556   2.062  0.2922  0.1615  0.0988
  707SOL    HW1 2120   1.413   2.467   2.050  3.2190 -1.2068 -0.6096
  707SOL    HW2 2121   1.458   2.623   1.983 -0.9147  3.0910 -0.6651
  708SOL     OW 2122   0.612   2.204   1.531 -0.5931  0.3403  0.6493
  708SOL    HW1 2123   0.547   2.127   1.532 -1.1156  1.7002  0.4763
  708SOL    HW2 2124   0.713   2.185   1.532 -3.4415 -0.3945  0.3110
  709SOL     OW 2125   2.457   0.557   2.036 -0.1342 -0.3130 -0.2321
  709SOL    HW1 2126   2.444   0.521   2.127  1.9442 -2.1552  0.2640
  709SOL    HW2 2127   2.482   0.486   1.969  1.0362 -2.9650 -0.2492
  710SOL     OW 2128   3.067   0.248   1.504 -0.2131 -0.7475 -0.4228
  710SOL    HW1 2129   3.009   0.284   1.423  1.2610  0.5098 -0.7451
  710SOL    HW2 2130   3.088   0.326   1.569  0.8648  2.1363  1.0394
  711SOL     OW 2131   3.078   2.401   0.529 -0.0504  0.2869 -0.7398
  711SOL    HW1 2132   0.066   2.374   0.521 -2.3780 -1.8499  2.1601
  711SOL    HW2 2133   3.057   2.480   0.476 -2.5406 -0.3523  3.0441
  712SOL     OW 2134   0.323   2.753   2.602  0.5150  0.0327  0.9788
  712SOL    HW1 2135   0.370   2.842   2.618  3.4211  3.6680  0.7471
  712SOL    HW2 2136   0.340   2.687   2.681  1.2669 -0.9488 -0.9468
  713SOL     OW 2137   1.952   0.556   0.226  0.6317 -0.1931  0.0564
  713SOL    HW1 2138   1.959   0.509   0.136  0.8211  0.7206 -0.4808
  713SOL    HW2 2139   1.863   0.532   0.272  2.2041  0.5058  0.2398
  714SOL     OW 2140   1.678   1.991   0.507 -0.0119  0.1055  0.1198
  714SOL    HW1 2141   1.658   2.080   0.554  1.4158  2.1972  0.8305
  714SOL    HW2 2142   1.776   1.986   0.487 -2.7130  1.5969 -1.0636
  715SOL     OW 2143   3.100   0.357   0.138  0.0317 -0.0162  0.7232
  715SOL    HW1 2144   3.021   0.418   0.136 -2.1518  0.2806  0.5498
  715SOL    HW2 2145   0.077   0.406   0.170 -0.9464 -0.7382 -0.5882
  716SOL     OW 2146   0.878   2.930   2.134  0.3248 -0.1183  0.1155
  716SOL    HW1 2147   0.945   2.889   2.066 -1.0534 -0.4115  0.6238
  716SOL    HW2 2148   0.870   2.870   2.217 -0.0138  0.2216 -0.6609
  717SOL     OW 2149   0.350   0.437   2.986 -0.0170  0.3065 -0.0229
  717SOL    HW1 2150   0.414   0.416   2.910 -0.3335 -0.6249 -0.1503
  717SOL    HW2 2151   0.258   0.457   2.962  2.9054 -2.1401  0.9530
  718SOL     OW 2152   1.245   0.713   0.597  0.0879 -0.0991 -0.1162
  718SOL    HW1 2153   1.189   0.796   0.571 -3.1776  0.5305 -1.0537
  718SOL    HW2 2154   1.232   0.634   0.535  2.3742 -0.9774 -1.5294
  719SOL     OW 2155   2.364   2.147   2.722 -0.3763 -0.2926  0.5610
  719SOL    HW1 2156   2.442   2.098   2.682 -1.0812  0.7906 -0.1118
  719SOL    HW2 2157   2.388   2.250   2.741  1.9035  2.6736  1.2768
  720SOL     OW 2158   1.491   1.021   2.033  0.3591 -0.2344  0.4657
  720SOL    HW1 2159   1.484   0.973   1.945  0.3703  0.2119  2.3625
  720SOL    HW2 2160   1.496   0.958   2.110 -1.1082  0.7082 -2.5701
  721SOL     OW 2161   0.102   3.036   1.085  0.1334  0.7693  0.4628
  721SOL    HW1 2162   0.072   0.014   1.124  1.4924  0.3824  2.6916
  721SOL    HW2 2163   0.176   3.039   1.018  0.7858  0.7863  0.0497
  722SOL     OW 2164   1.218   2.112   2.417 -0.0242 -0.2054 -0.1910
  722SOL    HW1 2165   1.307   2.149   2.449 -1.1534 -0.8021 -0.8265
  722SOL    HW2 2166   1.228   2.013   2.405  0.6899  1.8884  3.0342
  723SOL     OW 2167   1.542   0.476   0.676  0.1625 -0.4835  0.0696
  723SOL    HW1 2168   1.532   0.522   0.766 -0.6017  0.3184  1.2406
  723SOL    HW2 2169   1.587   0.386   0.689  0.2412 -1.2277  0.7338
  724SOL     OW 2170   0.682   1.980   2.695  0.5879  0.0583  0.0024
  724SOL    HW1 2171   0.584   1.953   2.675 -0.3626  0.1835 -0.7562
  724SOL    HW2 2172   0.702   1.965   2.797  0.5498 -1.9024  0.6441
  725SOL     OW 2173   3.056   0.579   1.190 -0.1120  0.2808  0.1437
  725SOL    HW1 2174   2.992   0.655   1.198  0.3904  2.0948  0.4164
  725SOL    HW2 2175   0.005   0.594   1.105  2.6487 -1.2105 -1.6751
  726SOL     OW 2176   2.081   0.017   0.696 -0.0027  0.1953  0.1697
  726SOL    HW1 2177   2.034   0.001   0.609 -0.5095 -0.7446  0.5278
  726SOL    HW2 2178   2.079   3.049   0.757 -0.2686  4.0094 -0.5829
  727SOL     OW 2179   1.931   1.121   2.137 -0.3243  0.1243 -0.4481
  727SOL    HW1 2180   1.856   1.182   2.170 -0.5928  2.3296 -1.1038
  727SOL    HW2 2181   2.023   1.142   2.181  0.8663 -0.9767  0.1110
  728SOL     OW 2182   1.482   2.766   1.599  0.2309 -0.8072  0.3945
  728SOL    HW1 2183   1.484   2.857   1.556 -1.0602  1.6487 -0.2415
  728SOL    HW2 2184   1.435   2.703   1.539  0.9687  0.3260  1.3007
  729SOL     OW 2185   1.841   0.302   2.267  0.2633  0.0503 -0.3134
  729SOL    HW1 2186   1.930   0.295   2.221  0.9836 -2.0177 -0.7499
  729SOL    HW2 2187   1.766   0.273   2.203  0.1388 -1.5510  1.2606
  730SOL     OW 2188   0.495   1.031   1.206 -0.2994 -0.0930 -0.1670
  730SOL    HW1 2189   0.525   0.937   1.235  0.0868  2.6452 -2.2649
  730SOL    HW2 2190   0.411   1.062   1.254  1.6098  3.4465  1.8327
  731SOL     OW 2191   0.684   0.072   0.101  0.2832 -0.8910 -0.3070
  731SOL    HW1 2192   0.710   0.146   0.159 -3.5167 -0.0478  0.7123
  731SOL    HW2 2193   0.603   0.097   0.046  0.3610 -0.3961 -0.0524
  732SOL     OW 2194   0.587   0.877   0.429 -0.1473 -0.1549  0.2128
  732SOL    HW1 2195   0.585   0.864   0.526 -2.6117  1.7671 -0.0548
  732SOL    HW2 2196   0.501   0.852   0.383  0.3329 -1.0290  0.9009
  733SOL     OW 2197   1.389   1.480   1.808 -0.2237  0.2712 -0.4981
  733SOL    HW1 2198   1.420   1.543   1.878 -1.3081  0.5042  0.7989
  733SOL    HW2 2199   1.304   1.521   1.764  0.9746 -0.8039 -0.7655
  734SOL     OW 2200   0.114   2.398   2.073 -0.1533  0.7723 -0.1883
  734SOL    HW1 2201   0.110   2.388   1.971  0.0456 -0.1161 -0.2058
  734SOL    HW2 2202   0.028   2.440   2.112 -0.8356 -1.2152 -0.0004
  735SOL     OW 2203   1.571   0.255   1.034 -0.2680 -0.0322 -0.0463
  735SOL    HW1 2204   1.591   0.159   1.050  0.5192  0.2880  1.7347
  735SOL    HW2 2205   1.474   0.274   1.049  2.6094 -0.5460  0.0501
  736SOL     OW 2206   0.897   1.301   3.098  0.0983 -0.1488 -0.1369
  736SOL    HW1 2207   0.934   1.256   0.073 -0.4868  0.4531 -2.4970
  736SOL    HW2 2208   0.939   1.389   3.068  1.1901  0.9475 -0.5998
  737SOL     OW 2209   0.025   0.741   0.687 -0.5391  0.4843 -0.0443
  737SOL    HW1 2210   0.124   0.755   0.663  3.6090  0.2472  1.2099
  737SOL    HW2 2211   3.083   0.709   0.604 -1.3348 -0.8960  0.1920
  738SOL     OW 2212   0.613   2.469   1.561  0.3291  0.4377 -0.0006
  738SOL    HW1 2213   0.611   2.547   1.496 -0.5781  1.2046 -1.8872
  738SOL    HW2 2214   0.603   2.377   1.519 -1.1954  1.4541  1.6184
  739SOL     OW 2215   1.412   2.674   3.048 -0.2782 -0.0315 -0.8810
  739SOL    HW1 2216   1.422   2.680   0.042 -0.5790  1.5442 -0.4844
  739SOL    HW2 2217   1.494   2.709   3.000  0.1888  1.7639 -1.1998
  740SOL     OW 2218   1.868   2.770   1.341  0.2832 -0.1805  0.1519
  740SOL    HW1 2219   1.941   2.733   1.408  1.7715 -0.0446  3.0499
  740SOL    HW2 2220   1.815   2.691   1.307  3.1298  1.8517 -0.4660
  741SOL     OW 2221   2.109   0.405   0.933 -0.3309 -0.3562 -0.5283
  741SOL    HW1 2222   2.127   0.494   0.889 -1.1995 -1.4758  0.1184
  741SOL    HW2 2223   2.193   0.377   0.983  1.1239  1.9811 -0.5370
  742SOL     OW 2224   1.226   2.534   2.406  0.2383 -0.1906 -0.0547
  742SOL    HW1 2225   1.203   2.526   2.309 -1.0641 -0.0061  1.2823
  742SOL    HW2 2226   1.169   2.470   2.458  1.3270 -0.9388 -0.5650
  743SOL     OW 2227   2.309   0.776   2.086 -0.3109 -0.3363 -0.7173
  743SOL    HW1 2228   2.278   0.826   2.003  0.6639  3.4681 -1.9553
  743SOL    HW2 2229   2.371   0.701   2.052  0.9552 -2.3254  0.3244
  744SOL     OW 2230   2.035   0.577   1.182 -0.3053  0.0301  0.2908
  744SOL    HW1 2231   2.072   0.648   1.117  0.1321  1.2169  0.5609
  744SOL    HW2 2232   1.940   0.548   1.153 -3.0994  1.9162 -1.3183
  745SOL     OW 2233   2.358   1.133   1.878 -0.7721 -0.5056 -0.1989
  745SOL    HW1 2234   2.389   1.204   1.806  0.1735 -0.8392 -0.6055
  745SOL    HW2 2235   2.350   1.043   1.833  0.0189  0.9507  0.4611
  746SOL     OW 2236   1.308   1.704   0.613  0.2040 -0.8684  0.1851
  746SOL    HW1 2237   1.371   1.734   0.536  2.5148  1.1523 -1.5337
  746SOL    HW2 2238   1.319   1.774   0.687 -1.0281  0.1012 -1.6492
  747SOL     OW 2239   1.899   1.913   1.042  0.2122  0.6335 -0.6840
  747SOL    HW1 2240   1.821   1.850   1.034 -1.7651 -0.9306 -3.8187
  747SOL    HW2 2241   1.968   1.886   0.972  2.0131 -0.2459 -0.7567
  748SOL     OW 2242   0.307   2.845   0.327  0.3026 -0.2542  0.0093
  748SOL    HW1 2243   0.320   2.807   0.420  0.2267 -2.3661 -1.2427
  748SOL    HW2 2244   0.402   2.863   0.295  0.8726  0.8861 -2.0079
  749SOL     OW 2245   0.285   1.003   2.289  0.0044 -0.3830  0.0450
  749SOL    HW1 2246   0.285   0.964   2.192 -0.8161  1.3503 -1.7847
  749SOL    HW2 2247   0.196   1.054   2.307  1.6648 -0.0575  2.5676
  750SOL     OW 2248   1.451   2.995   1.962 -0.2842  0.0083 -0.2347
  750SOL    HW1 2249   1.409   3.027   2.049  1.0113 -5.2674 -2.2644
  750SOL    HW2 2250   1.548   2.962   1.989  3.2340 -1.6640 -0.5564
  751SOL     OW 2251   2.710   0.570   0.196  0.4022 -0.5310 -0.8424
  751SOL    HW1 2252   2.719   0.585   0.302 -0.4052  0.7255  0.1671
  751SOL    HW2 2253   2.699   0.473   0.166  0.5279  1.5901  0.5461
  752SOL     OW 2254   0.167   2.204   0.762  0.1109 -0.4831 -0.1673
  752SOL    HW1 2255   0.152   2.198   0.661 -0.3152  2.7215 -0.6839
  752SOL    HW2 2256   0.115   2.282   0.803  0.1085 -0.1349 -1.5546
  753SOL     OW 2257   1.049   0.165   0.970 -0.0276 -0.3768  0.1826
  753SOL    HW1 2258   1.112   0.148   0.892 -0.8131 -2.3023 -1.1454
  753SOL    HW2 2259   0.958   0.202   0.935  2.4041 -1.3929 -2.9708
  754SOL     OW 2260   0.470   0.062   2.197 -0.0375 -0.3583 -0.0637
  754SOL    HW1 2261   0.396   0.118   2.246  0.8928  0.9778  0.2437
  754SOL    HW2 2262   0.511   3.102   2.258 -1.9463 -1.6453 -1.1327
  755SOL     OW 2263   1.834   1.054   3.024 -0.5817 -0.3349  0.6678
  755SOL    HW1 2264   1.752   1.098   3.061 -0.5512 -2.8656 -1.2437
  755SOL    HW2 2265   1.856   0.961   3.069  0.1296  1.3838  0.5275
  756SOL     OW 2266   2.301   2.227   2.417  0.2428 -0.1536 -0.8760
  756SOL    HW1 2267   2.358   2.174   2.486  2.8703  0.7241  0.9176
  756SOL    HW2 2268   2.270   2.152   2.350 -1.2515 -0.8979 -0.3012
  757SOL     OW 2269   1.752   0.578   0.531 -0.6567  0.3865  0.9379
  757SOL    HW1 2270   1.676   0.538   0.588 -0.0906 -0.3095  0.0410
  757SOL    HW2 2271   1.821   0.506   0.516 -0.8460 -0.6017  0.9621
  758SOL     OW 2272   1.755   0.478   1.151 -0.0773 -0.0060 -0.3594
  758SOL    HW1 2273   1.702   0.394   1.117 -0.0530  0.3059 -0.7675
  758SOL    HW2 2274   1.705   0.565   1.143  2.9455 -2.0323 -0.4592
  759SOL     OW 2275   2.763   0.545   1.158  0.1634 -0.4080  0.0029
  759SOL    HW1 2276   2.718   0.465   1.205 -0.8253 -0.7919  1.4813
  759SOL    HW2 2277   2.809   0.512   1.074 -0.0938 -2.8778 -1.5253
  760SOL     OW 2278   2.271   1.103   1.177 -0.3331 -0.4770  0.4495
  760SOL    HW1 2279   2.331   1.071   1.102 -0.8145  2.6769  2.5087
  760SOL    HW2 2280   2.285   1.044   1.258  1.3166 -0.0110 -2.1361
  761SOL     OW 2281   0.238   0.461   0.247  0.1870  0.5783 -0.0875
  761SOL    HW1 2282   0.327   0.495   0.217 -2.8002  1.6666 -0.9906
  761SOL    HW2 2283   0.221   0.491   0.343 -1.4643  1.1601  0.5338
  762SOL     OW 2284   1.619   1.977   1.228 -0.1085 -0.0668  0.8397
  762SOL    HW1 2285   1.582   1.928   1.312 -1.2940  1.5181  1.9754
  762SOL    HW2 2286   1.659   1.915   1.158 -2.3324 -0.7447  2.5567
  763SOL     OW 2287   1.173   1.453   2.072 -0.3241  0.3636 -0.3083
  763SOL    HW1 2288   1.260   1.459   2.022 -0.7839  0.4055 -0.4160
  763SOL    HW2 2289   1.097   1.497   2.017 -2.3756  0.2029  0.5072
  764SOL     OW 2290   3.071   1.868   2.614 -0.4556 -0.0583 -0.3475
  764SOL    HW1 2291   3.042   1.941   2.551  0.1291 -1.3007  0.0400
  764SOL    HW2 2292   3.060   1.893   2.713 -0.5722 -1.4252 -3.2355
  765SOL     OW 2293   1.431   2.748   1.004  0.4176 -0.1706 -0.7927
  765SOL    HW1 2294   1.528   2.735   0.972  1.0105 -1.9616 -2.7077
  765SOL    HW2 2295   1.421   2.836   1.055  2.1559 -0.7365 -0.7997
  766SOL     OW 2296   3.098   2.510   2.456 -0.2680  0.4717 -0.0038
  766SOL    HW1 2297   3.093   2.571   2.538  0.7772  0.7125  2.0261
  766SOL    HW2 2298   3.061   2.418   2.479  1.7640  1.3908  0.7953
  767SOL     OW 2299   1.130   0.852   2.259  0.5288  0.2257 -0.0639
  767SOL    HW1 2300   1.183   0.932   2.282  0.6492 -1.7334 -1.7977
  767SOL    HW2 2301   1.143   0.771   2.314 -0.9716  2.2097 -2.0520
  768SOL     OW 2302   1.166   2.114   2.936 -0.2665 -0.2696  0.0070
  768SOL    HW1 2303   1.231   2.190   2.923 -0.2764 -1.0709 -0.3334
  768SOL    HW2 2304   1.149   2.064   2.846  3.2843  0.7569  0.2619
  769SOL     OW 2305   0.430   2.162   1.139 -0.9985 -0.2418  0.5043
  769SOL    HW1 2306   0.433   2.061   1.165 -0.4371  0.7009 -0.8826
  769SOL    HW2 2307   0.525   2.198   1.157 -0.7828  0.2222  0.1135
  770SOL     OW 2308   1.558   0.677   2.920 -0.0936  0.1919  0.3849
  770SOL    HW1 2309   1.648   0.664   2.964 -0.5646  0.8130  0.8618
  770SOL    HW2 2310   1.533   0.776   2.908  2.8575 -1.1991 -0.1528
  771SOL     OW 2311   0.155   0.011   2.251  0.2272 -0.1973  0.6127
  771SOL    HW1 2312   0.162   3.026   2.207  1.8417  0.6087  3.7838
  771SOL    HW2 2313   0.177   0.083   2.177  3.0549  0.5737  0.1983
  772SOL     OW 2314   2.132   2.788   2.093  0.6577  0.3098 -0.1234
  772SOL    HW1 2315   2.164   2.692   2.089  0.1831  0.2068 -2.9460
  772SOL    HW2 2316   2.144   2.830   1.997  0.4910  2.1108 -1.3972
  773SOL     OW 2317   1.079   1.997   1.544  0.3569 -0.3864  0.7567
  773SOL    HW1 2318   1.148   2.019   1.469 -1.6082 -0.1354 -0.5015
  773SOL    HW2 2319   0.996   2.057   1.535  2.5529  1.0323 -0.8477
  774SOL     OW 2320   1.020   0.058   1.884 -0.6277  0.0868  0.4136
  774SOL    HW1 2321   1.082   0.070   1.963  1.5362  0.7114  0.1157
  774SOL    HW2 2322   0.940   0.123   1.892 -0.3983  0.0226  1.9631
  775SOL     OW 2323   2.177   3.037   3.039  0.7465  0.2553  0.2536
  775SOL    HW1 2324   2.112   3.051   2.960 -3.6648  0.4581 -2.3287
  775SOL    HW2 2325   2.233   2.949   3.024  0.2694 -1.1137 -2.4794
  776SOL     OW 2326   2.986   0.868   2.380 -0.4009 -0.3356 -0.2427
  776SOL    HW1 2327   2.892   0.833   2.389  0.6749  0.9572  0.1537
  776SOL    HW2 2328   2.982   0.961   2.337  0.1770  0.2996  0.7296
  777SOL     OW 2329   2.480   2.219   2.117  0.1160  0.0953 -0.4431
  777SOL    HW1 2330   2.401   2.167   2.071  1.5796 -0.1658  3.0338
  777SOL    HW2 2331   2.497   2.305   2.059  1.2886 -1.4426 -2.0992
  778SOL     OW 2332   1.845   0.882   2.399  0.1745 -0.0206  0.1799
  778SOL    HW1 2333   1.844   0.819   2.480 -0.5226 -2.5871 -0.1279
  778SOL    HW2 2334   1.929   0.865   2.348  1.8613  1.4889 -1.4695
  779SOL     OW 2335   2.631   0.274   0.403 -0.5579  0.2456 -0.0968
  779SOL    HW1 2336   2.594   0.263   0.500 -1.5755 -1.1704  0.1970
  779SOL    HW2 2337   2.562   0.322   0.348 -0.3462  0.5551 -4.0108
  780SOL     OW 2338   2.409   0.376   0.287 -0.1952 -0.2597  0.2517
  780SOL    HW1 2339   2.389   0.381   0.184  2.1517 -1.8818 -1.0281
  780SOL    HW2 2340   2.416   0.466   0.334  1.5559  0.6938 -1.6570
  781SOL     OW 2341   0.280   2.562   1.342  0.7890 -0.6357 -0.7365
  781SOL    HW1 2342   0.269   2.474   1.284 -0.5368  0.4357 -1.0644
  781SOL    HW2 2343   0.209   2.630   1.321 -1.7063  1.7643  0.0323
  782SOL     OW 2344   2.199   2.484   0.110  0.0808 -0.6438 -0.2126
  782SOL    HW1 2345   2.164   2.490   0.208 -0.5287  1.7362  1.4726
  782SOL    HW2 2346   2.299   2.455   0.103 -1.0836 -2.8611 -0.2306
  783SOL     OW 2347   0.736   1.220   1.244  0.2593 -0.5648 -0.2035
  783SOL    HW1 2348   0.642   1.183   1.244 -0.1455  1.4751 -3.5399
  783SOL    HW2 2349   0.786   1.200   1.329  0.3667  3.2208 -0.5409
  784SOL     OW 2350   1.387   0.410   2.572 -0.4530  0.1539 -0.4264
  784SOL    HW1 2351   1.289   0.401   2.554  0.0226  1.1803 -0.6155
  784SOL    HW2 2352   1.427   0.486   2.515 -1.4382 -2.4380 -0.1985
  785SOL     OW 2353   2.365   0.324   1.078  0.6670  0.0490 -0.2546
  785SOL    HW1 2354   2.457   0.289   1.107 -1.9083 -0.4260 -0.1151
  785SOL    HW2 2355   2.327   0.391   1.141 -0.0953 -0.7445 -1.2929
  786SOL     OW 2356   1.267   2.382   1.743 -0.4429  0.8813 -0.0230
  786SOL    HW1 2357   1.353   2.412   1.790  0.4016 -1.2804 -0.7339
  786SOL    HW2 2358   1.290   2.323   1.661 -3.2369  1.2035  1.4603
  787SOL     OW 2359   1.930   0.428   1.468  0.4476 -0.8413  0.2052
  787SOL    HW1 2360   1.844   0.478   1.480  0.4666  0.8906  0.7405
  787SOL    HW2 2361   1.949   0.402   1.373 -0.1215  2.5354  1.7729
  788SOL     OW 2362   0.282   0.811   0.633 -0.6092  0.0772 -0.0050
  788SOL    HW1 2363   0.378   0.826   0.656  1.5004 -0.7176  0.6164
  788SOL    HW2 2364   0.257   0.889   0.569  0.0660 -0.4407 -0.4036
  789SOL     OW 2365   0.407   2.002   1.512 -0.2558 -0.3876 -0.1543
  789SOL    HW1 2366   0.322   2.052   1.532 -2.6453  2.0753  0.1284
  789SOL    HW2 2367   0.408   1.914   1.558 -0.3361  0.4443 -2.5706
  790SOL     OW 2368   0.799   0.514   2.352 -0.2462 -0.5737  0.2738
  790SOL    HW1 2369   0.729   0.570   2.303 -0.2605  1.1375 -0.5379
  790SOL    HW2 2370   0.864   0.470   2.287 -0.2575  1.9821  0.8397
  791SOL     OW 2371   1.800   0.633   0.895  0.0696 -1.2313  0.2107
  791SOL    HW1 2372   1.702   0.606   0.883 -2.0571 -1.3497 -2.4710
  791SOL    HW2 2373   1.852   0.576   0.959 -2.9192  0.6412  0.6465
  792SOL     OW 2374   1.137   2.477   2.164  0.2198 -0.6331  0.1970
  792SOL    HW1 2375   1.131   2.539   2.079 -0.9824  0.5770 -2.2056
  792SOL    HW2 2376   1.050   2.433   2.188 -2.1433 -0.9392  0.0987
  793SOL     OW 2377   0.918   0.475   0.478 -0.4472  0.0078  0.1236
  793SOL    HW1 2378   0.825   0.517   0.474 -1.1448 -1.8273  0.9380
  793SOL    HW2 2379   0.899   0.377   0.512 -1.2917  0.0939  2.2062
  794SOL     OW 2380   0.776   1.007   1.984 -0.0610  0.0266 -0.3787
  794SOL    HW1 2381   0.690   1.044   2.023  0.8973 -0.5435  2.1201
  794SOL    HW2 2382   0.838   1.082   1.958  0.0746  0.1129  1.6356
  795SOL     OW 2383   0.232   2.040   2.451 -0.2362  0.1620  0.4427
  795SOL    HW1 2384   0.150   2.049   2.395  0.7982 -1.9000 -0.6742
  795SOL    HW2 2385   0.310   2.091   2.409 -1.2709 -0.1913 -0.3857
  796SOL     OW 2386   2.449   0.819   2.344 -0.2032  0.2756  0.6385
  796SOL    HW1 2387   2.397   0.799   2.431  0.6592  0.5013  2.6133
  796SOL    HW2 2388   2.414   0.776   2.260 -2.1348 -0.8705  1.0304
  797SOL     OW 2389   2.833   2.327   2.713  0.3329  0.2699 -0.0779
  797SOL    HW1 2390   2.756   2.333   2.644 -0.8226 -0.3563  0.6075
  797SOL    HW2 2391   2.810   2.382   2.795 -0.6449 -0.3139 -1.5269
  798SOL     OW 2392   0.154   2.881   2.140 -0.4809  0.4260  0.1554
  798SOL    HW1 2393   0.089   2.890   2.061  0.6090  0.6208 -2.2106
  798SOL    HW2 2394   0.233   2.828   2.114 -1.6852  1.2122 -2.3228
  799SOL     OW 2395   0.237   2.483   2.295 -0.0337 -0.2975  0.2495
  799SOL    HW1 2396   0.148   2.503   2.340  0.1168  0.1786 -0.9628
  799SOL    HW2 2397   0.218   2.454   2.198  0.5377  1.0479  0.6653
  800SOL     OW 2398   0.247   2.188   0.293  0.0206 -0.4492  0.1113
  800SOL    HW1 2399   0.232   2.264   0.223  1.0750 -3.3980  2.5105
  800SOL    HW2 2400   0.333   2.140   0.278  0.0147  2.9821  0.3290
  801SOL     OW 2401   1.787   1.423   0.996  0.9237 -0.3203  0.1040
  801SOL    HW1 2402   1.715   1.456   0.931 -0.5511  1.1213 -2.0686
  801SOL    HW2 2403   1.871   1.393   0.939  2.4614  0.6234 -0.3115
  802SOL     OW 2404   3.099   1.157   0.573  0.0084 -0.4511  0.2087
  802SOL    HW1 2405   2.999   1.169   0.563 -1.6649 -1.0452  0.5552
  802SOL    HW2 2406   0.021   1.149   0.675 -1.1730 -0.0555 -0.8573
  803SOL     OW 2407   1.249   1.832   2.130 -0.1648  0.0206 -0.0345
  803SOL    HW1 2408   1.230   1.925   2.082 -2.1984  3.4966  0.9077
  803SOL    HW2 2409   1.234   1.834   2.231  0.4677 -0.3578 -0.3676
  804SOL     OW 2410   1.741   1.572   0.385 -0.5086  0.1077  0.2422
  804SOL    HW1 2411   1.753   1.621   0.296  1.4764  0.2773 -2.0641
  804SOL    HW2 2412   1.821   1.584   0.446 -2.8992  0.8162 -2.1125
  805SOL     OW 2413   2.555   1.200   0.071 -0.1315  0.6744 -0.4702
  805SOL    HW1 2414   2.513   1.216   3.088  1.3140  0.3601  0.4829
  805SOL    HW2 2415   2.585   1.100   0.081 -1.2882 -2.3961  2.9983
  806SOL     OW 2416   0.646   2.697   0.339  0.2463 -0.1370 -0.0780
  806SOL    HW1 2417   0.740   2.719   0.382  1.3536  1.0265 -2.3646
  806SOL    HW2 2418   0.610   2.772   0.283  2.4643 -3.8126 -1.2656
  807SOL     OW 2419   2.316   1.614   2.648  1.0239 -0.0865 -0.2193
  807SOL    HW1 2420   2.292   1.707   2.679  2.1769 -2.9158  0.5586
  807SOL    HW2 2421   2.247   1.568   2.581 -1.5340 -1.3846 -2.2521
  808SOL     OW 2422   0.988   1.651   1.038  0.0256 -0.4115 -0.5336
  808SOL    HW1 2423   1.041   1.573   0.993  0.7402  0.0100 -0.8781
  808SOL    HW2 2424   0.995   1.655   1.140 -0.4792 -3.4834  1.9844
  809SOL     OW 2425   2.792   0.538   0.710  0.1354  0.6755  0.0020
  809SOL    HW1 2426   2.740   0.577   0.784 -0.4917 -2.7418  0.3884
  809SOL    HW2 2427   2.781   0.583   0.620 -0.0620 -1.2418  0.8974
  810SOL     OW 2428   0.497   1.484   0.653 -0.0915  0.2703  0.0366
  810SOL    HW1 2429   0.522   1.531   0.742 -0.0645 -0.6056 -2.0731
  810SOL    HW2 2430   0.480   1.556   0.585  1.7988 -0.0270  1.2074
  811SOL     OW 2431   1.755   2.535   1.179 -0.8387  0.6184 -0.3635
  811SOL    HW1 2432   1.831   2.465   1.199 -0.7970 -0.5710 -1.2146
  811SOL    HW2 2433   1.679   2.525   1.249 -0.1523 -0.7166 -0.5358
  812SOL     OW 2434   1.142   2.661   1.649  0.4918 -0.2491  0.2743
  812SOL    HW1 2435   1.197   2.615   1.723 -0.2158 -0.8616 -1.5315
  812SOL    HW2 2436   1.045   2.672   1.679 -1.4319 -0.7315 -0.1329
  813SOL     OW 2437   0.705   2.941   1.601  0.0952  0.2553  0.1981
  813SOL    HW1 2438   0.700   3.008   1.672 -0.9297 -3.3954 -3.7358
  813SOL    HW2 2439   0.745   2.982   1.523  2.1996 -2.6250  1.2147
  814SOL     OW 2440   0.954   2.663   2.563 -0.6569  0.6071 -0.3729
  814SOL    HW1 2441   1.001   2.574   2.583  1.1105 -1.6444 -2.4043
  814SOL    HW2 2442   0.876   2.659   2.624  0.1858 -2.4602  0.0360
  815SOL     OW 2443   0.713   0.141   2.652  0.1069  0.3642 -0.0486
  815SOL    HW1 2444   0.686   0.054   2.611 -0.5995  2.5475 -1.4270
  815SOL    HW2 2445   0.692   0.229   2.601  0.2813 -1.2039  0.4608
  816SOL     OW 2446   2.285   0.450   0.042  0.3507  0.2778  0.2945
  816SOL    HW1 2447   2.182   0.443   0.053 -2.0037  1.1549 -1.3774
  816SOL    HW2 2448   2.318   0.544   0.043  3.0947 -0.8737  2.1893
  817SOL     OW 2449   2.214   2.935   1.897  0.2110  0.0838 -0.0026
  817SOL    HW1 2450   2.287   2.975   1.953 -0.9156  0.0229  1.0418
  817SOL    HW2 2451   2.151   3.012   1.871  1.8122 -1.3544 -0.8878
  818SOL     OW 2452   1.184   0.761   0.252  0.3771 -0.8149 -0.4113
  818SOL    HW1 2453   1.269   0.739   0.205 -2.4881  1.4814  0.4371
  818SOL    HW2 2454   1.137   0.676   0.286 -1.3142  0.7605  0.7653
  819SOL     OW 2455   1.601   1.760   2.443 -0.2484  0.5405 -0.5714
  819SOL    HW1 2456   1.525   1.723   2.499 -0.7918  0.8295 -1.5931
  819SOL    HW2 2457   1.589   1.718   2.347  0.0458 -1.1057 -1.0651
  820SOL     OW 2458   0.133   1.717   0.133 -0.4838 -0.2997  0.0783
  820SOL    HW1 2459   0.140   1.722   0.030  2.5481 -0.2169  0.0616
  820SOL    HW2 2460   0.165   1.627   0.167  1.4461  0.9746 -0.5369
  821SOL     OW 2461   0.165   3.086   0.661 -0.4936 -0.1088  0.3352
  821SOL    HW1 2462   0.262   3.102   0.631  0.6143 -1.0126  2.3339
  821SOL    HW2 2463   0.157   3.000   0.715 -1.3999  0.1917 -0.4598
  822SOL     OW 2464   2.409   2.421   2.770  0.7050  0.1815 -0.3486
  822SOL    HW1 2465   2.331   2.456   2.716 -0.0949  2.4528 -1.9361
  822SOL    HW2 2466   2.426   2.489   2.846  0.8375  0.6154  0.9156
  823SOL     OW 2467   1.288   3.017   2.246 -0.2851 -0.0151 -0.2231
  823SOL    HW1 2468   1.366   3.060   2.287 -2.7934 -1.5115 -3.1552
  823SOL    HW2 2469   1.306   2.917   2.238  1.5278  1.0591  1.4195
  824SOL     OW 2470   2.822   2.327   2.088 -0.0980  0.0252  0.3932
  824SOL    HW1 2471   2.886   2.396   2.129 -0.6492  0.7078  2.0597
  824SOL    HW2 2472   2.760   2.293   2.163  0.2280 -0.7744  0.7628
  825SOL     OW 2473   3.037   2.055   2.409 -0.2803 -0.2758  0.2670
  825SOL    HW1 2474   2.940   2.055   2.380  0.1791 -0.8042  2.7268
  825SOL    HW2 2475   3.097   2.036   2.328  0.7657 -0.7240 -0.0714
  826SOL     OW 2476   2.283   0.766   2.559 -0.9130 -0.3985  0.1377
  826SOL    HW1 2477   2.313   0.696   2.625  2.7329 -3.0572 -0.3189
  826SOL    HW2 2478   2.183   0.799   2.568 -5.3970  1.1131 -0.6011
  827SOL     OW 2479   2.733   2.155   1.495 -0.2647  0.0701 -0.2371
  827SOL    HW1 2480   2.691   2.130   1.584 -1.8506  0.7233 -1.3589
  827SOL    HW2 2481   2.658   2.181   1.430 -0.3935 -1.5722 -0.9590
  828SOL     OW 2482   3.026   0.140   1.764  0.0427  0.5112  0.1804
  828SOL    HW1 2483   3.062   0.049   1.738 -1.3258  1.6027  1.2983
  828SOL    HW2 2484   3.051   0.216   1.700  2.0483  0.8942 -0.0365
  829SOL     OW 2485   0.894   2.231   2.688 -0.0471 -0.0256  0.3842
  829SOL    HW1 2486   0.948   2.142   2.704  0.2394 -2.2909 -0.5360
  829SOL    HW2 2487   0.846   2.265   2.769 -1.3607  0.8647 -0.8241
  830SOL     OW 2488   0.867   0.970   1.086 -0.1036 -0.2873  0.2374
  830SOL    HW1 2489   0.824   0.878   1.100  0.9052  2.5333  0.1146
  830SOL    HW2 2490   0.799   1.045   1.097 -0.6479 -0.6071 -1.7383
  831SOL     OW 2491   2.891   1.687   2.905 -0.2453  0.4092  0.1292
  831SOL    HW1 2492   2.843   1.694   2.998  0.2714 -0.4774  3.0926
  831SOL    HW2 2493   2.979   1.635   2.918  1.8272  0.4099  1.2724
  832SOL     OW 2494   1.802   2.360   2.189 -0.0134  0.3866  0.6474
  832SOL    HW1 2495   1.876   2.296   2.158 -0.3842 -4.4606 -0.7174
  832SOL    HW2 2496   1.835   2.456   2.178  0.5628  1.2759 -2.7746
  833SOL     OW 2497   0.803   0.270   1.911  0.6266 -0.2454 -0.3288
  833SOL    HW1 2498   0.832   0.371   1.907  1.8170 -0.3843 -1.0153
  833SOL    HW2 2499   0.783   0.231   2.002  0.4054  2.6916  3.0213
  834SOL     OW 2500   0.054   0.164   1.220 -0.1180 -0.1933 -0.2584
  834SOL    HW1 2501   3.083   0.231   1.234 -1.7530  2.1070 -3.6378
  834SOL    HW2 2502   0.141   0.195   1.265 -2.1449 -0.0452 -1.0784
  835SOL     OW 2503   2.531   0.647   3.094 -0.2836  0.9771  0.2253
  835SOL    HW1 2504   2.570   0.605   0.068  1.2833 -0.1703 -2.2024
  835SOL    HW2 2505   2.584   0.616   3.011 -0.4296 -0.2311 -0.5994
  836SOL     OW 2506   1.339   2.044   0.182  0.3930  0.1728  0.3236
  836SOL    HW1 2507   1.361   1.945   0.168  1.9479 -3.2803 -0.9137
  836SOL    HW2 2508   1.240   2.064   0.151 -2.6329  0.9132 -2.2745
  837SOL     OW 2509   1.858   1.804   0.683  0.0590 -0.1072 -1.0340
  837SOL    HW1 2510   1.902   1.712   0.674 -1.6289 -0.7237 -0.8938
  837SOL    HW2 2511   1.871   1.865   0.607 -1.1873 -1.4728  1.9651
  838SOL     OW 2512   1.351   1.021   2.355 -0.0168  0.4310 -0.1312
  838SOL    HW1 2513   1.441   0.981   2.341 -1.7497  0.6321  1.1008
  838SOL    HW2 2514   1.344   1.117   2.323  0.9404 -0.3783  1.7996
  839SOL     OW 2515   0.958   1.473   2.269 -0.2169 -0.6100  0.1430
  839SOL    HW1 2516   0.964   1.374   2.290  1.6747  1.7919 -0.8235
  839SOL    HW2 2517   1.033   1.501   2.206 -0.9688  1.2984 -0.7087
  840SOL     OW 2518   0.965   1.699   0.483 -0.4787 -0.1170  0.3177
  840SOL    HW1 2519   0.884   1.688   0.545 -2.0078 -0.2313  1.4026
  840SOL    HW2 2520   1.054   1.685   0.536  1.7374  1.2960 -0.3274
  841SOL     OW 2521   1.837   2.474   0.446  0.5052 -0.3803 -0.2936
  841SOL    HW1 2522   1.843   2.485   0.545  1.2635  0.1738  2.2052
  841SOL    HW2 2523   1.764   2.536   0.408  1.7875 -2.7981 -1.1414
  842SOL     OW 2524   0.478   0.543   0.138  0.1059 -0.2169  0.1352
  842SOL    HW1 2525   0.569   0.509   0.171  1.6158  1.3068  2.3615
  842SOL    HW2 2526   0.461   0.509   0.044 -0.2447 -0.7349  3.2424
  843SOL     OW 2527   0.940   0.566   0.722  0.8811  0.1766 -0.2594
  843SOL    HW1 2528   0.929   0.528   0.631 -0.6868  0.1343  0.8311
  843SOL    HW2 2529   1.033   0.596   0.743 -0.4842 -1.6483  0.5205
  844SOL     OW 2530   2.708   0.028   2.948 -0.4986 -0.4802 -0.2258
  844SOL    HW1 2531   2.628   0.003   2.892 -0.4707  0.1604  0.5105
  844SOL    HW2 2532   2.767   3.058   2.970 -1.0441  4.7506  1.6682
  845SOL     OW 2533   3.016   2.209   1.516  0.0651  0.1282  0.0816
  845SOL    HW1 2534   2.916   2.210   1.511  2.6128  0.6220 -1.7265
  845SOL    HW2 2535   3.038   2.109   1.515 -0.1461 -0.0057  2.8490
  846SOL     OW 2536   2.473   1.533   2.149 -0.3767 -0.3054 -0.1534
  846SOL    HW1 2537   2.489   1.569   2.245  0.3245 -3.0562 -0.0242
  846SOL    HW2 2538   2.537   1.449   2.136  1.2331  0.1503  1.6340
  847SOL     OW 2539   1.109   0.533   1.988 -0.0774 -0.1493  0.6374
  847SOL    HW1 2540   1.082   0.504   2.083 -0.5374  2.3230 -2.0092
  847SOL    HW2 2541   1.026   0.536   1.933 -1.8225  1.6148 -0.3214
  848SOL     OW 2542   2.403   2.875   2.993  0.4370  0.2319  0.0058
  848SOL    HW1 2543   2.431   2.851   3.086  0.9168 -1.2476  2.4372
  848SOL    HW2 2544   2.467   2.943   2.954  0.7393  0.8380 -0.1054
  849SOL     OW 2545   0.394   2.894   3.064  0.0187 -0.0410  0.5025
  849SOL    HW1 2546   0.390   2.982   3.013 -2.1539  0.4422 -0.3607
  849SOL    HW2 2547   0.296   2.854   3.063 -0.7702  1.1076  0.3851
  850SOL     OW 2548   1.395   2.997   1.096  0.3936  0.2466  0.1306
  850SOL    HW1 2549   1.488   3.041   1.092  1.9223 -0.7974 -1.1166
  850SOL    HW2 2550   1.347   3.000   1.003 -2.9261  1.3203  0.4479
  851SOL     OW 2551   2.716   0.428   2.409  0.4023 -0.2523 -0.5566
  851SOL    HW1 2552   2.757   0.519   2.402  0.1098 -0.1019 -1.1715
  851SOL    HW2 2553   2.733   0.399   2.504 -0.9657 -1.8440 -0.5976
  852SOL     OW 2554   1.465   0.680   2.465  0.0666 -0.5357 -0.1851
  852SOL    HW1 2555   1.504   0.742   2.535 -0.0988  2.0590  0.1762
  852SOL    HW2 2556   1.532   0.668   2.394 -2.1603  0.4104  3.7825
  853SOL     OW 2557   0.108   3.048   0.266  0.5671  0.1844 -0.5332
  853SOL    HW1 2558   0.045   3.058   0.347  2.2256 -0.2707 -2.2321
  853SOL    HW2 2559   0.172   2.970   0.279  2.0957  1.8162 -0.2321
  854SOL     OW 2560   2.424   1.157   2.205 -0.4038  0.5093  0.1871
  854SOL    HW1 2561   2.504   1.211   2.174 -1.1268 -0.0229  1.6114
  854SOL    HW2 2562   2.405   1.089   2.131 -0.0629 -2.0195 -2.6568
  855SOL     OW 2563   0.672   2.464   0.204 -0.1011  0.2696 -0.2485
  855SOL    HW1 2564   0.666   2.553   0.249  1.4734 -3.1614 -2.3772
  855SOL    HW2 2565   0.765   2.460   0.160  0.5531 -0.8416  0.4934
  856SOL     OW 2566   3.015   2.956   2.739 -0.1596 -0.2593 -0.3395
  856SOL    HW1 2567   2.968   3.038   2.706  1.2523 -0.8988  0.1559
  856SOL    HW2 2568   3.049   2.979   2.835  0.5927  1.5087 -0.6945
  857SOL     OW 2569   1.132   2.775   1.400 -0.1029  0.3125 -0.5900
  857SOL    HW1 2570   1.039   2.749   1.369 -1.2855 -1.3723 -0.6928
  857SOL    HW2 2571   1.138   2.756   1.499 -0.8620 -0.1157 -0.0004
  858SOL     OW 2572   2.600   2.151   1.745 -0.3778 -0.1021  0.5035
  858SOL    HW1 2573   2.621   2.095   1.826 -0.2255  1.2368  0.6091
  858SOL    HW2 2574   2.496   2.146   1.731 -2.9801 -0.6948  2.2065
  859SOL     OW 2575   1.796   2.071   1.658 -0.5149  0.0734 -0.1786
  859SOL    HW1 2576   1.734   1.999   1.617  1.0575 -1.9767 -0.9043
  859SOL    HW2 2577   1.793   2.062   1.759  1.8207  2.5344  1.8323
  860SOL     OW 2578   2.363   0.055   0.266 -0.2918  0.3041 -0.1458
  860SOL    HW1 2579   2.440   0.051   0.201 -1.3564 -0.7664  0.0732
  860SOL    HW2 2580   2.363   0.138   0.323 -2.1555 -3.4957 -4.0560
  861SOL     OW 2581   2.792   2.990   0.522  0.3832  0.5020  0.1074
  861SOL    HW1 2582   2.845   2.921   0.579 -1.4342  0.9568  2.3045
  861SOL    HW2 2583   2.695   2.976   0.546  0.9825  1.3707  0.1362
  862SOL     OW 2584   1.603   2.693   2.517 -0.1680 -0.6728  0.2532
  862SOL    HW1 2585   1.519   2.664   2.566  0.9407  0.1221  0.9703
  862SOL    HW2 2586   1.614   2.794   2.525  1.9146  0.9442  1.7240
  863SOL     OW 2587   0.367   0.600   1.208 -0.2715 -0.2213  0.2251
  863SOL    HW1 2588   0.344   0.606   1.108  0.8659  1.4567  1.1858
  863SOL    HW2 2589   0.442   0.537   1.231  0.0906 -0.4209 -1.6593
  864SOL     OW 2590   0.067   3.007   1.737  0.5204 -0.0087 -0.2018
  864SOL    HW1 2591   0.158   3.001   1.777  1.7718 -1.1490  0.4485
  864SOL    HW2 2592   0.026   2.914   1.729 -1.5062 -1.0089  0.8703
  865SOL     OW 2593   0.537   1.058   3.062  0.4449  0.2165 -0.2961
  865SOL    HW1 2594   0.576   1.148   3.038  0.2958 -3.0966  0.2338
  865SOL    HW2 2595   0.601   0.985   3.030 -2.2780  0.3450  0.9233
  866SOL     OW 2596   2.933   0.619   0.030  0.1123  0.1464  0.2033
  866SOL    HW1 2597   2.982   0.687   0.089 -1.8754 -2.9496  0.2740
  866SOL    HW2 2598   2.842   0.604   0.069  2.1468 -2.4890 -1.6771
  867SOL     OW 2599   2.858   2.923   2.995  0.8713 -0.3464 -0.0820
  867SOL    HW1 2600   2.861   2.908   3.093  0.3152 -1.4486 -2.0668
  867SOL    HW2 2601   2.870   2.839   2.932  1.1245 -1.6176 -2.6259
  868SOL     OW 2602   1.519   0.382   0.417  0.2183  0.1574  0.1801
  868SOL    HW1 2603   1.509   0.441   0.502 -0.0177  0.1315  1.7441
  868SOL    HW2 2604   1.567   0.421   0.342 -2.9972  1.5817  2.2357
  869SOL     OW 2605   2.464   1.610   0.377 -0.3706  0.0738 -0.4307
  869SOL    HW1 2606   2.368   1.621   0.403  1.5894 -1.7777 -2.2035
  869SOL    HW2 2607   2.518   1.622   0.464  1.9240  1.0588  2.2221
  870SOL     OW 2608   2.214   1.623   0.468 -0.4051  0.4630 -0.0514
  870SOL    HW1 2609   2.205   1.520   0.459 -1.7845 -0.7200 -2.5768
  870SOL    HW2 2610   2.167   1.669   0.394  3.8411 -2.7468 -2.5734
  871SOL     OW 2611   1.362   1.468   1.352 -0.0229  0.9953  0.1793
  871SOL    HW1 2612   1.268   1.433   1.346  2.0035  1.4687 -3.1683
  871SOL    HW2 2613   1.440   1.407   1.326  1.6280  0.4035 -2.1485
  872SOL     OW 2614   1.209   1.628   1.665  0.0806 -0.1209  0.8107
  872SOL    HW1 2615   1.121   1.590   1.636 -0.9596 -0.7496  2.3456
  872SOL    HW2 2616   1.191   1.707   1.725 -1.0082  0.5825 -1.8112
  873SOL     OW 2617   0.694   1.549   2.269  0.2587 -0.0544  0.4625
  873SOL    HW1 2618   0.639   1.500   2.344 -1.0975 -0.0114  0.4414
  873SOL    HW2 2619   0.795   1.528   2.280  1.4229  1.1734  0.0187
  874SOL     OW 2620   0.698   1.564   1.252  0.1507 -0.6050  0.1719
  874SOL    HW1 2621   0.707   1.632   1.177  1.6780 -0.1475  0.3294
  874SOL    HW2 2622   0.654   1.480   1.213 -0.3166 -1.5827 -2.8540
  875SOL     OW 2623   2.238   0.440   1.287 -0.0960  0.0192  0.0700
  875SOL    HW1 2624   2.162   0.496   1.238 -0.9781 -0.9652 -1.6654
  875SOL    HW2 2625   2.209   0.351   1.312 -0.3488  1.8445 -1.7375
  876SOL     OW 2626   1.086   0.753   3.009  0.0401 -0.2365 -0.1245
  876SOL    HW1 2627   1.032   0.803   3.081 -0.5048  1.7921  0.2117
  876SOL    HW2 2628   1.123   0.820   2.939 -0.5602 -0.0723  2.2542
  877SOL     OW 2629   2.948   0.333   1.281  0.3668 -0.1938  0.2523
  877SOL    HW1 2630   2.846   0.335   1.295  0.1085 -0.8487  0.0627
  877SOL    HW2 2631   2.980   0.425   1.253 -2.5955 -0.3416  0.3849
  878SOL     OW 2632   1.661   2.347   0.044 -0.1630 -0.0896 -0.1028
  878SOL    HW1 2633   1.714   2.426   0.079  5.0525 -0.0152  0.6488
  878SOL    HW2 2634   1.707   2.315   3.065  0.7338  0.6313 -1.0391
  879SOL     OW 2635   2.422   1.912   1.547  0.0264 -0.0545 -0.0120
  879SOL    HW1 2636   2.486   1.951   1.477 -0.0630 -2.6227 -0.7928
  879SOL    HW2 2637   2.390   1.978   1.611  1.8058  1.1139 -0.4449
  880SOL     OW 2638   1.251   3.026   1.345  0.7575 -0.0530 -0.3243
  880SOL    HW1 2639   1.187   2.956   1.380  1.3628  0.9478 -1.4017
  880SOL    HW2 2640   1.307   2.995   1.262  2.8368 -1.4263 -1.4737
  881SOL     OW 2641   1.107   1.737   0.033 -0.8593 -0.2980  0.0455
  881SOL    HW1 2642   1.079   1.679   0.111  0.6371  1.3675 -1.8112
  881SOL    HW2 2643   1.090   1.835   0.056  0.7775  1.6202  2.0360
  882SOL     OW 2644   2.114   0.883   2.263  0.1974  0.1802 -0.3845
  882SOL    HW1 2645   2.103   0.981   2.264  0.3641 -0.2948  3.6400
  882SOL    HW2 2646   2.199   0.853   2.212 -1.1921  1.1108 -0.0570
  883SOL     OW 2647   1.385   0.292   2.067 -0.5684  0.4095 -0.1726
  883SOL    HW1 2648   1.366   0.384   2.022  0.7275  1.4242  1.2587
  883SOL    HW2 2649   1.298   0.241   2.082  0.0352  0.0421  1.4384
  884SOL     OW 2650   2.942   0.187   2.960  0.5837 -0.6582 -0.1280
  884SOL    HW1 2651   3.006   0.139   3.025  0.7055  1.1388 -0.3431
  884SOL    HW2 2652   2.861   0.130   2.938 -1.7029 -1.4924 -1.8108
  885SOL     OW 2653   0.721   1.995   0.328 -0.0761 -0.0498  0.3808
  885SOL    HW1 2654   0.716   1.938   0.414  1.2532 -0.9659  0.4739
  885SOL    HW2 2655   0.730   2.091   0.353  1.0572  0.9282 -0.2766
  886SOL     OW 2656   1.811   1.584   2.764 -0.3585 -0.3318  0.4286
  886SOL    HW1 2657   1.855   1.561   2.675 -1.8284  0.2804 -0.9409
  886SOL    HW2 2658   1.793   1.686   2.761 -0.2187  0.8168  0.2817
  887SOL     OW 2659   1.839   0.447   1.895  0.2353 -0.1103 -0.0367
  887SOL    HW1 2660   1.842   0.524   1.965 -0.6567  1.5412 -1.6632
  887SOL    HW2 2661   1.776   0.375   1.925  2.1598 -0.8162  0.4464
  888SOL     OW 2662   2.650   0.774   1.683  0.4880  0.1722  0.5887
  888SOL    HW1 2663   2.725   0.772   1.746 -0.3998  0.0400 -1.2447
  888SOL    HW2 2664   2.668   0.844   1.612 -2.9677 -0.0530 -0.8951
  889SOL     OW 2665   3.096   2.674   0.702 -0.2804  0.7692  0.1790
  889SOL    HW1 2666   3.019   2.609   0.681 -2.7700  0.4501  0.2452
  889SOL    HW2 2667   0.068   2.604   0.716 -0.3018 -1.3982 -0.4784
  890SOL     OW 2668   2.857   2.695   2.831  0.5009  0.1456  0.1373
  890SOL    HW1 2669   2.829   2.612   2.882  0.1564 -0.8081 -1.0453
  890SOL    HW2 2670   2.938   2.669   2.770 -0.7025  0.8194 -1.1080
  891SOL     OW 2671   0.769   1.656   2.835 -0.2279  0.3790 -0.4753
  891SOL    HW1 2672   0.773   1.659   2.937  0.8645  0.6028 -0.0281
  891SOL    HW2 2673   0.849   1.707   2.800  2.4254  1.1269  0.7118
  892SOL     OW 2674   0.358   3.034   0.939  0.0823 -0.2895 -0.1101
  892SOL    HW1 2675   0.455   3.051   0.901  1.0995 -2.0733 -1.3693
  892SOL    HW2 2676   0.307   2.974   0.873  1.8639 -0.5007  0.9712
  893SOL     OW 2677   0.592   2.858   1.175  0.2315  0.0383 -0.2846
  893SOL    HW1 2678   0.551   2.940   1.208  1.1669 -1.4208  0.4310
  893SOL    HW2 2679   0.689   2.848   1.200  0.5978 -1.3554  0.0647
  894SOL     OW 2680   2.913   1.334   0.792 -0.5899 -0.7155  0.1701
  894SOL    HW1 2681   2.853   1.263   0.750  0.5425 -1.2160  0.8269
  894SOL    HW2 2682   3.007   1.333   0.766 -1.0167  0.8948 -0.6837
  895SOL     OW 2683   2.750   2.456   1.704 -0.3803  0.2275  0.1102
  895SOL    HW1 2684   2.804   2.377   1.746 -1.3349 -0.4921 -0.0043
  895SOL    HW2 2685   2.809   2.530   1.672 -0.3675 -0.5263  2.9925
  896SOL     OW 2686   0.959   0.391   1.648 -0.1163 -0.3769  0.5820
  896SOL    HW1 2687   0.929   0.409   1.742  0.1864 -0.9148  2.0441
  896SOL    HW2 2688   1.038   0.331   1.641  0.5939  1.9089 -3.9543
  897SOL     OW 2689   0.814   1.474   1.731  0.3354  0.4958  0.2779
  897SOL    HW1 2690   0.874   1.401   1.683 -0.8544  0.2630 -1.3664
  897SOL    HW2 2691   0.764   1.524   1.658  0.0650  1.1469 -1.5113
  898SOL     OW 2692   1.424   2.749   1.884 -0.0216 -0.1616  0.0224
  898SOL    HW1 2693   1.451   2.749   1.787  0.9542  0.8009 -0.2222
  898SOL    HW2 2694   1.428   2.843   1.922  0.0836  1.5345  2.0252
  899SOL     OW 2695   0.777   0.778   0.238 -0.5679 -0.4363  0.4268
  899SOL    HW1 2696   0.727   0.829   0.311 -3.3876 -0.1116 -0.4937
  899SOL    HW2 2697   0.852   0.827   0.192 -1.7714  0.3786 -1.5662
  900SOL     OW 2698   1.532   2.458   1.770  0.0625  0.0511  0.0064
  900SOL    HW1 2699   1.552   2.386   1.705 -3.4042  1.7255  1.2079
  900SOL    HW2 2700   1.624   2.499   1.807  1.6263  0.2909 -0.5503
  901SOL     OW 2701   1.121   2.372   0.442  0.0860  0.2499 -0.0928
  901SOL    HW1 2702   1.039   2.365   0.507 -1.0101 -0.2537  2.0277
  901SOL    HW2 2703   1.100   2.318   0.356  2.0001 -0.7405 -1.7954
  902SOL     OW 2704   1.892   1.360   0.152  0.4531  0.0407  0.3465
  902SOL    HW1 2705   1.901   1.457   0.167 -1.5917  1.3151  2.7513
  902SOL    HW2 2706   1.988   1.319   0.149  0.2204  0.5423 -1.2625
  903SOL     OW 2707   2.140   1.260   0.214  0.1760 -0.3393  0.5963
  903SOL    HW1 2708   2.236   1.292   0.218 -0.6713 -2.4297 -1.0428
  903SOL    HW2 2709   2.134   1.176   0.157 -0.4070  2.9642  0.5964
  904SOL     OW 2710   0.668   1.295   2.960 -0.3581  0.5128 -0.0707
  904SOL    HW1 2711   0.690   1.334   2.872 -1.0654 -1.1839  0.0249
  904SOL    HW2 2712   0.757   1.297   3.020  0.8326  0.2398  2.7287
  905SOL     OW 2713   1.976   0.252   1.240 -0.0874 -0.5654 -0.5217
  905SOL    HW1 2714   2.059   0.216   1.195 -1.8122 -1.5870 -0.7534
  905SOL    HW2 2715   1.925   0.311   1.177  2.8384  2.3266 -3.2480
  906SOL     OW 2716   2.984   2.492   1.167  0.2109  0.3954 -0.0443
  906SOL    HW1 2717   3.067   2.534   1.136 -2.4892 -1.8141  1.2317
  906SOL    HW2 2718   2.905   2.556   1.153 -0.4115  0.3222 -0.3721
  907SOL     OW 2719   0.987   0.920   0.120 -0.3918  0.1202  0.3457
  907SOL    HW1 2720   0.966   1.008   0.161 -1.0831 -0.6971  2.1589
  907SOL    HW2 2721   1.060   0.864   0.167 -0.0092 -2.5439 -1.0204
  908SOL     OW 2722   1.635   0.008   1.064 -0.1072 -0.3968 -0.2464
  908SOL    HW1 2723   1.704   0.002   0.990  0.3359  0.8836  0.6060
  908SOL    HW2 2724   1.674   0.024   1.156 -0.9547 -1.2303 -0.3598
  909SOL     OW 2725   1.933   1.183   1.594  0.1605  0.0809  0.0754
  909SOL    HW1 2726   1.939   1.275   1.635  0.2534 -0.2430  0.8545
  909SOL    HW2 2727   1.989   1.183   1.507 -0.4283 -1.8475 -0.3511
  910SOL     OW 2728   1.681   2.892   2.077 -0.1236  0.0420 -0.4862
  910SOL    HW1 2729   1.680   2.806   2.132  0.2860 -0.4022  1.3036
  910SOL    HW2 2730   1.752   2.883   2.003  0.3436 -0.2574 -1.2013
  911SOL     OW 2731   2.804   0.764   2.699  0.0285  0.5323 -0.6665
  911SOL    HW1 2732   2.804   0.839   2.768 -0.8275 -0.8017  1.8615
  911SOL    HW2 2733   2.895   0.716   2.703  0.6802  0.8215  0.3645
  912SOL     OW 2734   0.104   1.360   1.674 -0.4100 -0.2010 -0.3636
  912SOL    HW1 2735   0.060   1.406   1.754 -0.1317 -2.1157  1.9565
  912SOL    HW2 2736   0.196   1.323   1.699 -1.0589  2.9034  0.6548
  913SOL     OW 2737   3.048   2.468   1.456 -0.0057 -0.3818  0.0321
  913SOL    HW1 2738   3.017   2.384   1.505 -0.9400 -0.5179  0.7064
  913SOL    HW2 2739   3.025   2.464   1.359 -0.3509  0.6564  1.8043
  914SOL     OW 2740   1.529   0.872   1.798  0.3271 -0.1347 -0.1380
  914SOL    HW1 2741   1.591   0.787   1.785  2.3424 -2.7630  2.5192
  914SOL    HW2 2742   1.578   0.959   1.776  2.4782  2.1890  0.7053
  915SOL     OW 2743   2.181   0.473   1.624  0.4709 -0.5974  0.0139
  915SOL    HW1 2744   2.142   0.494   1.719 -0.5308 -0.7608  0.0688
  915SOL    HW2 2745   2.114   0.429   1.566  0.7928 -0.1809  2.9581
  916SOL     OW 2746   2.767   2.664   1.172  0.7536  0.4114  0.0257
  916SOL    HW1 2747   2.725   2.658   1.267 -0.6141  2.2136  0.4530
  916SOL    HW2 2748   2.702   2.648   1.093 -2.6540 -1.7387 -1.7366
  917SOL     OW 2749   1.844   2.258   2.961  0.1256 -0.2042 -0.3427
  917SOL    HW1 2750   1.937   2.288   2.981  0.1290 -0.9859 -0.6670
  917SOL    HW2 2751   1.827   2.266   2.861  1.0807  0.2434  0.0513
  918SOL     OW 2752   1.913   2.691   2.477 -0.3525  0.0293 -0.5812
  918SOL    HW1 2753   1.946   2.779   2.443 -0.2146 -1.8869  1.3034
  918SOL    HW2 2754   1.812   2.691   2.475 -2.1741 -1.0961  2.9553
  919SOL     OW 2755   1.365   2.660   1.314 -0.3043  0.4325 -0.4036
  919SOL    HW1 2756   1.399   2.683   1.220 -2.0830 -0.4390 -1.7438
  919SOL    HW2 2757   1.277   2.708   1.335  2.6238 -0.6686 -1.2982
  920SOL     OW 2758   2.909   0.306   2.196 -0.0379 -0.0292 -0.1214
  920SOL    HW1 2759   2.938   0.208   2.213  0.6963 -0.8173 -0.5548
  920SOL    HW2 2760   2.848   0.336   2.268 -0.0889 -2.5298  3.0492
  921SOL     OW 2761   2.959   1.024   1.629 -0.5837  0.3937 -0.2519
  921SOL    HW1 2762   2.968   1.115   1.579 -0.9198 -1.1254 -2.5547
  921SOL    HW2 2763   3.056   0.988   1.638 -1.7568  1.1854  2.9641
  922SOL     OW 2764   1.934   1.954   0.428 -0.8466 -0.7364 -0.0439
  922SOL    HW1 2765   1.994   1.880   0.380  0.0284  1.2763 -0.7791
  922SOL    HW2 2766   1.907   2.026   0.362 -4.0329  0.8130  0.3012
  923SOL     OW 2767   0.833   1.945   0.085 -0.2495  0.0180 -0.2088
  923SOL    HW1 2768   0.824   1.856   0.042  1.5638  3.3622 -0.7180
  923SOL    HW2 2769   0.829   1.942   0.184  0.7536 -2.8075  0.2353
  924SOL     OW 2770   1.244   0.301   0.004 -0.3868  0.0571  0.1251
  924SOL    HW1 2771   1.176   0.315   3.036  2.3455 -0.1438 -0.4139
  924SOL    HW2 2772   1.311   0.376   0.002  1.0092 -1.2402 -1.7449
  925SOL     OW 2773   2.423   0.428   0.836  0.1847  0.2122  0.7592
  925SOL    HW1 2774   2.447   0.367   0.755  0.2020  1.1257  0.8264
  925SOL    HW2 2775   2.406   0.378   0.918  0.6258  1.5426 -0.9353
  926SOL     OW 2776   0.611   0.208   1.243 -0.3806  0.1900  0.0920
  926SOL    HW1 2777   0.541   0.131   1.231 -2.2219 -0.5085  1.9088
  926SOL    HW2 2778   0.646   0.206   1.339  1.2881 -0.4557  0.7519
  927SOL     OW 2779   0.160   1.592   2.349 -0.5479 -0.7029 -0.1376
  927SOL    HW1 2780   0.173   1.593   2.447  2.4903 -0.3260 -1.5827
  927SOL    HW2 2781   0.177   1.503   2.308 -0.2083  4.4155  3.3750
  928SOL     OW 2782   2.827   0.326   2.665 -0.5144  0.2869  0.0529
  928SOL    HW1 2783   2.869   0.384   2.735 -0.4958  0.8623 -0.7695
  928SOL    HW2 2784   2.883   0.242   2.646  0.1370  1.0315 -1.0264
  929SOL     OW 2785   2.501   0.166   1.385 -0.2721 -0.0853  0.0550
  929SOL    HW1 2786   2.573   0.091   1.359  0.4649 -1.9530 -1.0881
  929SOL    HW2 2787   2.408   0.129   1.368 -1.0809  1.1565  0.1059
  930SOL     OW 2788   1.819   0.902   1.996  0.2917 -0.5343 -1.0220
  930SOL    HW1 2789   1.726   0.901   2.041 -1.7801 -3.3304  0.3407
  930SOL    HW2 2790   1.878   0.978   2.034  3.9388  2.5155  2.4210
  931SOL     OW 2791   2.135   1.073   0.005  0.2458  0.1570 -0.2875
  931SOL    HW1 2792   2.197   1.026   3.055 -2.4863  2.3793 -0.1155
  931SOL    HW2 2793   2.046   1.029   3.102  5.1590 -1.7869  1.5596
  932SOL     OW 2794   2.422   1.015   0.739  0.0124  0.3858 -0.1590
  932SOL    HW1 2795   2.424   1.116   0.731 -2.5160 -3.1820 -0.2742
  932SOL    HW2 2796   2.338   0.973   0.689 -2.1776 -1.5988 -0.3099
  933SOL     OW 2797   2.523   1.823   0.803 -0.3513  0.4240 -0.5400
  933SOL    HW1 2798   2.449   1.807   0.735  1.4857 -0.1739 -0.0816
  933SOL    HW2 2799   2.487   1.887   0.878 -1.1607  1.2197  1.2334
  934SOL     OW 2800   2.063   0.455   2.541  0.2805 -0.3001 -0.2132
  934SOL    HW1 2801   2.041   0.526   2.468 -2.3873  0.9208  0.8532
  934SOL    HW2 2802   1.978   0.417   2.571  1.5521  2.1899  1.3410
  935SOL     OW 2803   0.178   1.350   0.478 -0.1091  0.3265  0.1381
  935SOL    HW1 2804   0.108   1.274   0.483 -0.4702 -1.7456 -1.3764
  935SOL    HW2 2805   0.229   1.347   0.392  2.3327 -0.8734  1.1869
  936SOL     OW 2806   0.205   0.319   0.568 -0.1376  0.2203 -0.2189
  936SOL    HW1 2807   0.128   0.316   0.498 -1.9453 -1.6897 -0.7911
  936SOL    HW2 2808   0.173   0.281   0.655  1.0890  1.9294 -0.5580
  937SOL     OW 2809   2.658   3.073   1.278 -0.0456 -0.1032 -0.0317
  937SOL    HW1 2810   2.594   3.006   1.229  1.1740 -0.0778  1.7756
  937SOL    HW2 2811   2.753   3.069   1.248 -2.5192  2.2854 -0.5378
  938SOL     OW 2812   2.879   2.526   0.102  0.3107  0.3774  0.5031
  938SOL    HW1 2813   2.862   2.593   0.175  0.3674  1.5743  0.4015
  938SOL    HW2 2814   2.977   2.507   0.089  1.0847  0.4520 -1.2734
  939SOL     OW 2815   0.763   1.954   0.811 -0.1878  0.2086  0.5120
  939SOL    HW1 2816   0.779   1.930   0.905 -0.0182  1.5788  1.1957
  939SOL    HW2 2817   0.663   1.961   0.789  0.1961  0.3233  0.9722
  940SOL     OW 2818   0.061   0.306   2.813 -0.5210 -0.1056 -0.0432
  940SOL    HW1 2819   3.075   0.273   2.828  0.3344 -0.5361  0.8138
  940SOL    HW2 2820   0.119   0.224   2.801 -0.1787 -2.3750  2.1835
  941SOL     OW 2821   1.596   0.462   2.771 -0.0742  0.5388  0.2129
  941SOL    HW1 2822   1.571   0.539   2.831  3.1250 -1.7646 -1.2378
  941SOL    HW2 2823   1.523   0.434   2.702 -0.9589 -0.1366  0.1625
  942SOL     OW 2824   1.320   0.766   1.574 -0.1937 -0.0883  0.2210
  942SOL    HW1 2825   1.366   0.813   1.653  0.0179 -0.0279  1.0368
  942SOL    HW2 2826   1.387   0.746   1.501 -0.9161  2.3620 -2.0605
  943SOL     OW 2827   1.215   1.018   1.900  0.1179  0.2634 -0.0133
  943SOL    HW1 2828   1.274   1.060   1.973  1.3315 -1.1425 -0.9597
  943SOL    HW2 2829   1.223   0.920   1.924  0.9803 -0.3917  1.6463
  944SOL     OW 2830   1.950   0.936   1.716  0.3151 -0.2809 -0.6305
  944SOL    HW1 2831   1.879   0.948   1.792  2.0210  1.6283  1.5272
  944SOL    HW2 2832   1.953   1.024   1.661  3.6266  1.4342 -1.8238
  945SOL     OW 2833   2.780   0.040   0.305  0.2366  0.0821  0.2824
  945SOL    HW1 2834   2.797   3.088   0.388  1.5350 -1.4237 -2.4904
  945SOL    HW2 2835   2.733   0.127   0.341 -1.9325  2.4669 -0.5630
  946SOL     OW 2836   2.783   0.760   1.960  0.1918 -0.2686  0.0436
  946SOL    HW1 2837   2.868   0.728   2.003 -0.9940 -1.2151 -1.6844
  946SOL    HW2 2838   2.709   0.689   1.971  1.2995  2.7073  1.8735
  947SOL     OW 2839   1.027   3.092   0.545 -0.2864 -0.7254 -0.6010
  947SOL    HW1 2840   1.066   3.064   0.456  0.4882 -2.5596 -0.3609
  947SOL    HW2 2841   0.925   3.090   0.543 -3.4120 -0.8467 -2.8066
  948SOL     OW 2842   2.313   1.687   1.384  0.1860 -0.0067 -0.3266
  948SOL    HW1 2843   2.316   1.784   1.413 -0.5867 -2.4711 -0.1452
  948SOL    HW2 2844   2.273   1.623   1.456  1.4498 -1.9056 -2.3670
  949SOL     OW 2845   0.422   1.424   2.962 -0.0360  0.5211  0.4934
  949SOL    HW1 2846   0.375   1.404   2.870 -3.2368 -2.3103 -0.0287
  949SOL    HW2 2847   0.512   1.376   2.962  1.9521  0.8501  1.0827
  950SOL     OW 2848   0.569   2.511   0.859  0.5651 -0.3523 -0.2334
  950SOL    HW1 2849   0.568   2.529   0.753 -2.6668 -2.1210  0.6664
  950SOL    HW2 2850   0.498   2.451   0.881 -0.3921  2.8994  0.1592
  951SOL     OW 2851   0.634   0.929   2.354 -0.0346 -0.3129 -0.1331
  951SOL    HW1 2852   0.715   0.983   2.326  1.3533 -1.3648  0.1294
  951SOL    HW2 2853   0.624   0.922   2.457 -0.1563 -0.2041  1.9086
  952SOL     OW 2854   0.212   1.045   0.478 -0.7636 -0.0143 -0.9706
  952SOL    HW1 2855   0.283   1.115   0.495  0.1267 -2.5512  1.2622
  952SOL    HW2 2856   0.123   1.086   0.501  0.0357 -0.3227  0.8752
  953SOL     OW 2857   2.562   0.044   2.452  0.1345 -1.0125 -0.0335
  953SOL    HW1 2858   2.489   0.106   2.491 -0.5327 -0.2574 -1.3757
  953SOL    HW2 2859   2.555   3.058   2.494  0.0241 -1.1948 -1.0298
  954SOL     OW 2860   1.622   1.323   0.441  0.0768  0.0791 -0.3455
  954SOL    HW1 2861   1.675   1.408   0.427 -0.2529  1.7297 -0.8600
  954SOL    HW2 2862   1.665   1.250   0.495 -1.2308  1.3968  0.2548
  955SOL     OW 2863   0.681   2.037   2.977 -0.2568  0.0472 -0.0586
  955SOL    HW1 2864   0.725   2.037   3.070  0.7847  0.2946 -2.1660
  955SOL    HW2 2865   0.692   2.132   2.942 -0.4898  3.2649  0.9710
  956SOL     OW 2866   2.046   0.597   2.302  0.1271 -0.1203  0.0355
  956SOL    HW1 2867   2.092   0.516   2.255  4.3895  3.0589 -1.4634
  956SOL    HW2 2868   2.082   0.689   2.273  0.1308  1.3237 -2.6396
  957SOL     OW 2869   2.041   2.291   2.362  0.4044  0.1611 -0.9309
  957SOL    HW1 2870   2.020   2.339   2.447  1.4436 -1.3750 -2.2944
  957SOL    HW2 2871   2.143   2.285   2.357  2.2589 -0.3214 -0.9870
  958SOL     OW 2872   1.554   1.274   1.322 -0.0982  0.4134  0.4686
  958SOL    HW1 2873   1.636   1.214   1.301  0.8157 -1.7766  0.9185
  958SOL    HW2 2874   1.494   1.232   1.391  2.5554  4.8238 -1.6534
  959SOL     OW 2875   1.922   2.050   2.386  0.4419  0.7583 -0.3898
  959SOL    HW1 2876   1.982   2.126   2.354  2.2615  0.2500  1.4827
  959SOL    HW2 2877   1.901   2.059   2.485  1.5890  1.4937 -1.1999
  960SOL     OW 2878   0.383   0.765   2.480 -0.2447  0.3632 -0.0069
  960SOL    HW1 2879   0.402   0.851   2.431 -0.2045  0.7120 -0.8403
  960SOL    HW2 2880   0.285   0.747   2.478  0.5516  1.8272 -0.9033
  961SOL     OW 2881   0.386   0.761   2.783  0.4903  0.1218 -0.3702
  961SOL    HW1 2882   0.363   0.799   2.689 -0.3182  1.6542 -0.6935
  961SOL    HW2 2883   0.315   0.776   2.853 -0.4035 -0.2318  0.6000
  962SOL     OW 2884   0.433   1.054   2.619  0.3119  0.9089 -0.3141
  962SOL    HW1 2885   0.356   1.029   2.679  3.5707  1.0359 -0.5969
  962SOL    HW2 2886   0.515   0.995   2.638  0.5317  0.4647 -2.7469
  963SOL     OW 2887   2.731   2.305   0.130  0.3870  0.1098  0.4965
  963SOL    HW1 2888   2.791   2.389   0.128 -0.8107  2.0641  0.3615
  963SOL    HW2 2889   2.776   2.216   0.127 -0.1410  1.3113 -0.3686
  964SOL     OW 2890   0.992   2.327   1.745  0.0312 -0.3797 -0.4796
  964SOL    HW1 2891   1.092   2.352   1.754  0.3162 -0.8582  0.4829
  964SOL    HW2 2892   0.939   2.412   1.728 -0.9142 -0.7671  1.5026
  965SOL     OW 2893   1.714   1.730   0.150  0.1801  0.0819 -0.3142
  965SOL    HW1 2894   1.775   1.749   0.068 -0.0084 -0.0771 -0.4270
  965SOL    HW2 2895   1.666   1.814   0.184 -0.2580 -2.6189  0.0062
  966SOL     OW 2896   3.070   1.503   0.368 -0.3427 -0.2467  0.3694
  966SOL    HW1 2897   0.037   1.467   0.423 -1.3539  0.2119 -0.5810
  966SOL    HW2 2898   3.045   1.595   0.404 -0.5216 -0.7429 -1.9254
  967SOL     OW 2899   1.869   2.877   1.893 -0.0658 -0.0592  0.8704
  967SOL    HW1 2900   1.823   2.804   1.835  1.0104  0.3201  1.2397
  967SOL    HW2 2901   1.967   2.900   1.868  2.7284 -1.4478 -1.0649
  968SOL     OW 2902   1.514   0.772   0.479  0.3605  0.1963 -0.5565
  968SOL    HW1 2903   1.440   0.753   0.548 -1.0870  1.5837  0.9670
  968SOL    HW2 2904   1.597   0.726   0.508 -1.1993  0.4470 -2.4451
  969SOL     OW 2905   0.253   1.355   2.199  0.2489  0.2649  0.5713
  969SOL    HW1 2906   0.323   1.321   2.264 -1.0067 -2.2864  1.2089
  969SOL    HW2 2907   0.290   1.374   2.104 -0.4866 -0.6000 -4.1801
  970SOL     OW 2908   2.221   2.080   1.324 -0.1099 -0.4197 -0.0212
  970SOL    HW1 2909   2.139   2.022   1.311  1.6584  0.1871  1.4958
  970SOL    HW2 2910   2.207   2.139   1.406 -0.5607 -1.1506  1.2858
  971SOL     OW 2911   2.869   2.886   1.012  0.2448  0.3329  0.0195
  971SOL    HW1 2912   2.844   2.806   1.076  0.5743 -0.4026 -0.8486
  971SOL    HW2 2913   2.903   2.962   1.067 -0.7099 -1.4092 -2.0053
  972SOL     OW 2914   0.042   1.180   2.661  0.3920  0.2510  0.0665
  972SOL    HW1 2915   0.096   1.147   2.583 -2.3185 -0.0843  0.4070
  972SOL    HW2 2916   3.066   1.229   2.626  1.0186 -1.4148  1.3321
  973SOL     OW 2917   0.670   0.560   0.476  0.1393 -0.6807  0.8542
  973SOL    HW1 2918   0.590   0.517   0.524  2.0011  2.1560 -4.8473
  973SOL    HW2 2919   0.637   0.646   0.434  1.3871  3.2045  1.1080
  974SOL     OW 2920   2.190   0.834   1.846  0.3768  0.0912  0.0189
  974SOL    HW1 2921   2.115   0.880   1.801  0.7012 -2.6549  0.4739
  974SOL    HW2 2922   2.277   0.848   1.791 -0.5316 -0.0708  0.5310
  975SOL     OW 2923   2.902   2.945   0.161 -0.0499 -0.4769  0.1224
  975SOL    HW1 2924   2.881   3.039   0.200  2.2061 -0.5264 -1.6423
  975SOL    HW2 2925   3.002   2.935   0.142  1.2052 -4.5914 -1.6717
  976SOL     OW 2926   0.372   1.686   1.226 -0.7989 -0.3426 -0.1404
  976SOL    HW1 2927   0.409   1.596   1.237 -2.6290  2.1461 -1.4423
  976SOL    HW2 2928   0.340   1.700   1.129  0.5695 -0.3866 -0.9994
  977SOL     OW 2929   1.161   2.077   0.932  0.3470  0.3734  0.0606
  977SOL    HW1 2930   1.189   1.981   0.964 -1.0018 -2.3406  0.1792
  977SOL    HW2 2931   1.226   2.117   0.863  0.8433  0.7350  1.4562
  978SOL     OW 2932   0.539   1.103   0.233 -0.6523  0.1785  0.4195
  978SOL    HW1 2933   0.562   1.036   0.303  2.9630  0.4334 -3.1324
  978SOL    HW2 2934   0.566   1.073   0.139  0.0314 -2.3011  1.3924
  979SOL     OW 2935   2.090   1.770   0.274 -0.2975 -0.1692 -0.2074
  979SOL    HW1 2936   2.149   1.849   0.241 -1.0352  0.2206  0.2745
  979SOL    HW2 2937   2.093   1.694   0.203 -0.1333 -1.7091 -0.4422
  980SOL     OW 2938   0.412   1.872   2.537  0.2187  0.7189 -0.0702
  980SOL    HW1 2939   0.465   1.853   2.452 -3.2604  2.8055  2.2378
  980SOL    HW2 2940   0.335   1.933   2.508  0.5442 -1.0855 -0.3568
  981SOL     OW 2941   2.825   0.933   0.099 -0.1599  0.3206 -0.3660
  981SOL    HW1 2942   2.794   0.943   0.195  0.9099  1.4029 -0.0968
  981SOL    HW2 2943   2.748   0.889   0.046 -1.2493 -0.2780  0.1113
  982SOL     OW 2944   3.029   2.907   1.978  0.4069 -0.4642 -0.1505
  982SOL    HW1 2945   2.961   2.988   1.972  2.5835 -0.7145 -1.1932
  982SOL    HW2 2946   3.032   2.859   1.890  0.5185 -2.3768 -1.0358
  983SOL     OW 2947   1.525   0.257   1.438  0.0757 -0.4003 -0.0782
  983SOL    HW1 2948   1.484   0.316   1.363  1.1403 -1.8581  3.1590
  983SOL    HW2 2949   1.604   0.198   1.408  1.0791  1.0333  0.7978
  984SOL     OW 2950   1.302   2.862   2.808  0.1906  0.2693 -0.0333
  984SOL    HW1 2951   1.322   2.846   2.906  1.9355 -0.3445 -3.1105
  984SOL    HW2 2952   1.318   2.774   2.764 -2.9023  1.8769 -2.5488
  985SOL     OW 2953   1.443   1.664   1.522 -0.0460  0.3137  0.3181
  985SOL    HW1 2954   1.415   1.580   1.468  3.3561 -2.5757 -0.5623
  985SOL    HW2 2955   1.358   1.688   1.582 -0.7633 -0.6801  0.9996
  986SOL     OW 2956   1.991   2.956   2.397 -0.0845 -0.2515 -0.2309
  986SOL    HW1 2957   2.080   2.966   2.343  3.5082 -3.0222  2.3574
  986SOL    HW2 2958   1.950   3.049   2.410 -1.5363  3.3792  0.0431
  987SOL     OW 2959   2.731   1.751   2.440  0.2921  0.0942 -0.2652
  987SOL    HW1 2960   2.830   1.737   2.446 -0.1932 -0.1605  1.7364
  987SOL    HW2 2961   2.714   1.841   2.397 -0.4424  0.3621 -0.5558
  988SOL     OW 2962   2.787   0.386   1.730  0.3193 -0.3468  0.3597
  988SOL    HW1 2963   2.821   0.462   1.787 -2.7207  1.1360 -0.1813
  988SOL    HW2 2964   2.856   0.340   1.667  0.0266  3.6038 -1.2824
  989SOL     OW 2965   1.686   1.095   1.671  0.3069 -0.2310  0.0054
  989SOL    HW1 2966   1.632   1.180   1.662  3.2152  0.1773 -1.1181
  989SOL    HW2 2967   1.783   1.101   1.647 -1.4542  0.0229  1.7913
  990SOL     OW 2968   3.002   1.151   0.060  0.1659  0.5388  0.3636
  990SOL    HW1 2969   2.953   1.069   0.097 -0.1502  0.1572  1.1492
  990SOL    HW2 2970   3.067   1.121   3.094  0.8619  1.7021  1.5336
  991SOL     OW 2971   0.234   2.126   2.915 -0.3635  0.3719  0.1782
  991SOL    HW1 2972   0.176   2.081   2.985 -2.0694  2.7494 -0.2241
  991SOL    HW2 2973   0.301   2.063   2.863  1.8603 -2.4692 -3.1539
  992SOL     OW 2974   2.582   2.003   2.011 -0.1895 -0.2929  0.3490
  992SOL    HW1 2975   2.530   2.085   2.053 -0.8040  0.5263  1.8606
  992SOL    HW2 2976   2.669   1.993   2.056 -4.3355 -0.5322 -2.1835
  993SOL     OW 2977   0.742   0.007   0.571  0.2503  0.7776  0.0550
  993SOL    HW1 2978   0.680   3.102   0.489 -0.6724  1.7051  0.3252
  993SOL    HW2 2979   0.708   3.070   0.654 -1.0558 -0.6983  2.4217
  994SOL     OW 2980   3.059   1.946   1.502  0.7190 -0.3827 -0.0771
  994SOL    HW1 2981   3.107   1.953   1.592  1.3714 -0.8757  2.3880
  994SOL    HW2 2982   0.010   1.924   1.422 -0.7518  0.3934 -0.1418
  995SOL     OW 2983   2.231   2.014   2.276 -0.1672 -0.3018 -0.0545
  995SOL    HW1 2984   2.241   1.982   2.181  1.3375  1.7256 -2.4132
  995SOL    HW2 2985   2.172   1.949   2.326 -1.4017  0.9878 -0.1957
  996SOL     OW 2986   1.897   1.797   3.067  0.1473 -0.4664  0.0589
  996SOL    HW1 2987   1.831   1.867   3.030 -0.1890 -1.1092 -1.1051
  996SOL    HW2 2988   1.994   1.815   3.034 -1.6373  1.8320 -0.9607
  997SOL     OW 2989   1.000   1.323   1.631  0.1721 -0.1242 -0.2696
  997SOL    HW1 2990   1.050   1.234   1.635 -0.1890 -0.4647  3.5306
  997SOL    HW2 2991   1.034   1.373   1.553 -1.9521 -0.3359  2.3015
  998SOL     OW 2992   2.743   2.195   0.978 -0.2522  0.2151  0.3790
  998SOL    HW1 2993   2.757   2.134   0.900  1.3866 -1.3637  1.1782
  998SOL    HW2 2994   2.743   2.146   1.068 -0.7712  0.0092  2.5316
  999SOL     OW 2995   2.814   2.721   0.283  0.1926  0.1970  0.3069
  999SOL    HW1 2996   2.720   2.728   0.332 -3.9333 -0.9148 -1.1955
  999SOL    HW2 2997   2.851   2.812   0.257 -0.7547  1.0276 -0.6256
 1000SOL     OW 2998   1.071   0.061   0.047 -0.3147 -0.1244  0.1220
 1000SOL    HW1 2999   1.052   0.096   0.144 -2.3040 -0.3870  5.4865
 1000SOL    HW2 3000   1.121   0.128   3.095  0.3470  0.0733 -3.0742
   3.10745   3.10745   3.10745
