1000 SPC/Fw water molecules t= 156.00000 step= 156000
 3000
    1SOL     OW    1   2.450   2.733   0.656  0.0601  0.0304 -0.3743
    1SOL    HW1    2   2.510   2.818   0.645  2.3649  1.9227  0.8724
    1SOL    HW2    3   2.352   2.760   0.665  1.5030  0.0094  0.1775
    2SOL     OW    4   1.383   2.095   2.488 -0.2020 -0.0249  0.1862
    2SOL    HW1    5   1.454   2.095   2.415 -0.0233 -0.8358 -0.4092
    2SOL    HW2    6   1.404   2.025   2.556 -1.8094  0.6173 -2.6120
    3SOL     OW    7   1.699   2.411   1.925  0.3444 -0.0898  0.0040
    3SOL    HW1    8   1.677   2.311   1.933 -1.8035 -0.6371  0.8951
    3SOL    HW2    9   1.800   2.422   1.921 -0.3607 -0.5852 -1.7488
    4SOL     OW   10   2.006   2.404   1.993  0.1257 -0.2654 -0.2543
    4SOL    HW1   11   2.054   2.313   1.995  0.2925  2.0830  0.2740
    4SOL    HW2   12   2.062   2.478   2.036 -0.4531 -1.8347 -1.6368
    5SOL     OW   13   0.626   0.555   1.655 -0.3136  0.0865 -0.1696
    5SOL    HW1   14   0.724   0.568   1.641 -1.3448  0.5162  0.9214
    5SOL    HW2   15   0.588   0.463   1.672 -1.2158  0.4483  1.4940
    6SOL     OW   16   2.424   0.849   2.929 -0.1857  0.2246 -0.0691
    6SOL    HW1   17   2.419   0.789   3.012  3.4724  1.5359 -2.6497
    6SOL    HW2   18   2.398   0.799   2.843 -1.9826  0.1775 -2.8274
    7SOL     OW   19   0.718   0.561   1.222  0.5418 -0.1596 -0.1587
    7SOL    HW1   20   0.750   0.517   1.134  0.1435 -2.5680  1.2151
    7SOL    HW2   21   0.622   0.592   1.204 -0.0167 -1.1539 -0.9897
    8SOL     OW   22   1.281   2.344   1.305  0.4487 -0.1481 -0.3618
    8SOL    HW1   23   1.193   2.372   1.355 -0.3357 -1.1284 -0.9839
    8SOL    HW2   24   1.333   2.283   1.362 -1.7918  2.9631 -0.0748
    9SOL     OW   25   0.747   0.932   0.068 -0.5919  0.2264  0.8909
    9SOL    HW1   26   0.671   0.932   0.000  0.0633 -0.6374 -2.3410
    9SOL    HW2   27   0.834   0.875   0.049  1.7920  0.0125  0.6968
   10SOL     OW   28   0.442   2.692   3.082  0.1755  0.3415  0.2897
   10SOL    HW1   29   0.421   2.598   0.024 -0.5167 -5.1090  5.1029
   10SOL    HW2   30   0.489   2.664   2.997 -0.0228  2.8006  2.0124
   11SOL     OW   31   0.009   1.383   2.785  0.1284 -0.6845 -0.9792
   11SOL    HW1   32   3.087   1.448   2.708 -2.3343  0.9896 -0.8189
   11SOL    HW2   33   0.071   1.419   2.858  4.1634  3.5992  0.7535
   12SOL     OW   34   0.798   0.095   1.321 -0.4142 -0.2783 -0.2109
   12SOL    HW1   35   0.733   0.057   1.251 -2.0559  0.4465  0.0037
   12SOL    HW2   36   0.774   0.186   1.352 -1.0355 -1.6598 -0.9382
   13SOL     OW   37   0.614   2.679   0.615 -0.4581  0.4537  0.7353
   13SOL    HW1   38   0.659   2.581   0.620  0.6196 -2.5503  0.9092
   13SOL    HW2   39   0.683   2.755   0.610  2.7899  0.5374  0.9203
   14SOL     OW   40   1.291   1.846   0.814 -0.0036 -0.6350  0.3906
   14SOL    HW1   41   1.273   1.948   0.814  0.1411  3.4743 -0.2143
   14SOL    HW2   42   1.207   1.797   0.845 -1.6197  1.1376  4.2405
   15SOL     OW   43   2.511   0.847   2.315  0.2827  0.5765 -0.1803
   15SOL    HW1   44   2.440   0.840   2.387 -0.2692  0.4520  2.8010
   15SOL    HW2   45   2.508   0.937   2.264  0.1750 -1.4093  1.4622
   16SOL     OW   46   1.315   0.063   2.927 -0.6328  0.0464 -0.3177
   16SOL    HW1   47   1.378   0.001   2.976 -0.9098 -1.1753 -0.5131
   16SOL    HW2   48   1.370   0.145   2.902 -1.1979  0.2302 -1.6361
   17SOL     OW   49   0.877   2.529   1.897 -0.2703 -0.2764  0.3025
   17SOL    HW1   50   0.795   2.492   1.851  2.1071 -0.3916  0.0984
   17SOL    HW2   51   0.891   2.628   1.884  0.0168 -2.5970  2.0019
   18SOL     OW   52   1.203   0.803   0.184 -0.6469  0.2398  0.3971
   18SOL    HW1   53   1.265   0.885   0.195  4.1985  2.3193  0.2469
   18SOL    HW2   54   1.256   0.730   0.137 -1.6920 -0.5924  1.9952
   19SOL     OW   55   2.203   1.955   2.783 -0.2690 -0.1615 -0.2423
   19SOL    HW1   56   2.224   2.031   2.845  0.2055  0.0863  0.9420
   19SOL    HW2   57   2.259   1.941   2.698  1.5153 -1.9282  0.2901
   20SOL     OW   58   2.108   1.704   2.094  0.4049  0.2972 -0.1581
   20SOL    HW1   59   2.164   1.646   2.033 -1.8521 -0.5128 -0.9805
   20SOL    HW2   60   2.071   1.643   2.169 -2.2517  3.6130  2.6811
   21SOL     OW   61   0.291   1.760   2.928  0.5469 -0.0618 -0.4641
   21SOL    HW1   62   0.347   1.768   3.012 -0.6646  2.6407  1.2647
   21SOL    HW2   63   0.351   1.746   2.848 -1.0699  1.1822  0.8378
   22SOL     OW   64   2.463   0.070   1.488  0.0904  0.3455 -0.2424
   22SOL    HW1   65   2.520   3.090   1.462  1.1327  0.4488  2.3539
   22SOL    HW2   66   2.413   0.109   1.412 -0.3160  0.8524  1.2928
   23SOL     OW   67   0.063   1.159   1.588  0.1795  0.6580  0.0532
   23SOL    HW1   68   0.083   1.060   1.571 -0.0626 -0.0804 -1.2676
   23SOL    HW2   69   0.131   1.199   1.648  0.5386 -3.0299  0.9859
   24SOL     OW   70   2.611   1.844   1.362 -0.3722  0.1260 -0.1851
   24SOL    HW1   71   2.676   1.772   1.323  2.1632 -2.7942  0.1901
   24SOL    HW2   72   2.545   1.801   1.426  0.9603  0.1867 -2.7278
   25SOL     OW   73   1.991   2.957   2.642 -0.1192 -0.2826  0.2936
   25SOL    HW1   74   2.036   2.930   2.552  1.5434 -0.4776 -0.8912
   25SOL    HW2   75   1.897   2.931   2.647  2.2451  0.2502 -2.8109
   26SOL     OW   76   1.427   2.892   0.455 -0.6116  0.1174 -0.4324
   26SOL    HW1   77   1.375   2.971   0.492  2.6620  0.1975  0.9298
   26SOL    HW2   78   1.524   2.921   0.456 -0.2118 -0.6552  0.3190
   27SOL     OW   79   0.891   2.089   3.039  0.4216  0.5580  0.5263
   27SOL    HW1   80   0.885   2.121   0.034 -1.7650 -1.8821  0.5295
   27SOL    HW2   81   0.826   2.008   3.022 -2.1733 -3.9588 -1.1701
   28SOL     OW   82   2.776   1.650   1.197  0.2202  0.7873 -0.4384
   28SOL    HW1   83   2.853   1.633   1.132 -1.9692  1.0052  1.1934
   28SOL    HW2   84   2.692   1.626   1.140  0.1354  0.1402 -0.1431
   29SOL     OW   85   2.640   2.255   2.170  0.2404  0.1595 -0.0207
   29SOL    HW1   86   2.557   2.316   2.185 -1.4436  2.4935  1.3262
   29SOL    HW2   87   2.715   2.317   2.151 -3.8061 -1.6042 -1.8984
   30SOL     OW   88   1.143   2.709   1.133 -0.5349  0.1013 -0.3320
   30SOL    HW1   89   1.168   2.803   1.153 -2.2841 -0.6668 -0.3938
   30SOL    HW2   90   1.059   2.703   1.078  0.1791  1.1207  2.0097
   31SOL     OW   91   0.045   2.287   1.688 -0.2096  0.6061  0.1395
   31SOL    HW1   92   3.076   2.349   1.660  4.3340 -0.7089  1.5983
   31SOL    HW2   93   0.086   2.322   1.775  0.5008  0.6012  2.1125
   32SOL     OW   94   1.186   1.024   1.939  0.2237  0.0751  0.0278
   32SOL    HW1   95   1.229   1.037   1.847  0.8272 -1.3826  0.3418
   32SOL    HW2   96   1.235   1.077   2.016 -1.2856 -1.8993  2.1333
   33SOL     OW   97   0.656   2.981   2.531  0.3309  0.4527 -0.2123
   33SOL    HW1   98   0.669   2.924   2.616  0.1914 -0.2927 -1.4423
   33SOL    HW2   99   0.579   3.044   2.534  2.0489 -0.0311 -0.0090
   34SOL     OW  100   1.878   3.010   1.250  0.1084 -0.1587  0.1312
   34SOL    HW1  101   1.871   3.040   1.348 -1.0129 -1.0953  0.3362
   34SOL    HW2  102   1.942   2.929   1.242  0.7142  0.5870  0.7351
   35SOL     OW  103   2.015   0.501   1.331 -0.3799  0.2808 -0.1770
   35SOL    HW1  104   2.053   0.530   1.242 -0.5522 -1.2091  0.1927
   35SOL    HW2  105   2.037   0.574   1.398 -0.3279  0.8750 -3.0474
   36SOL     OW  106   2.115   2.649   2.072  0.0856  0.0263  0.3871
   36SOL    HW1  107   2.155   2.610   2.160  0.5821 -0.6678  0.6274
   36SOL    HW2  108   2.156   2.741   2.052 -0.2219 -1.2215 -0.8502
   37SOL     OW  109   1.419   2.344   2.609 -0.0777 -0.2412 -0.0187
   37SOL    HW1  110   1.357   2.375   2.682  2.0883 -2.2392  0.4096
   37SOL    HW2  111   1.386   2.259   2.567  2.3061 -0.3518 -1.2352
   38SOL     OW  112   2.338   0.144   0.109  0.3389 -0.1747  0.3290
   38SOL    HW1  113   2.436   0.130   0.127 -1.8816  1.2797  0.4552
   38SOL    HW2  114   2.315   0.235   0.063 -1.3549  0.0899 -1.1018
   39SOL     OW  115   2.174   1.868   2.313 -0.0226 -0.3791 -0.1526
   39SOL    HW1  116   2.087   1.859   2.371 -1.8630 -4.4691  1.2767
   39SOL    HW2  117   2.171   1.804   2.233 -0.8364  0.5986  2.2409
   40SOL     OW  118   0.362   2.939   2.969  0.0589 -0.0688  0.1889
   40SOL    HW1  119   0.261   2.962   2.978 -2.0605  0.2029  0.4285
   40SOL    HW2  120   0.388   2.848   3.005 -0.9577  0.9756 -0.3018
   41SOL     OW  121   1.527   0.725   1.539 -0.1944 -0.0706 -0.1331
   41SOL    HW1  122   1.447   0.665   1.508 -0.5473  1.7577  1.2077
   41SOL    HW2  123   1.603   0.668   1.575  0.4679 -2.3973 -2.9900
   42SOL     OW  124   0.494   0.091   1.610 -0.8452 -0.0415  0.1248
   42SOL    HW1  125   0.507   0.191   1.586  2.4947 -4.1733 -0.1816
   42SOL    HW2  126   0.585   0.048   1.632 -0.6964 -0.8315 -0.1731
   43SOL     OW  127   1.563   0.173   1.953  0.0943  0.2437  0.1285
   43SOL    HW1  128   1.613   0.188   2.039 -1.9671 -0.7321 -0.0853
   43SOL    HW2  129   1.622   0.203   1.873  0.7832  1.0910 -0.2893
   44SOL     OW  130   0.263   2.546   2.657  0.5937  0.0628  0.5627
   44SOL    HW1  131   0.318   2.483   2.716 -0.4250  0.2791  0.4179
   44SOL    HW2  132   0.270   2.642   2.696 -0.3459  2.6145 -3.0033
   45SOL     OW  133   0.248   2.457   1.447 -0.1511  0.4262 -0.1638
   45SOL    HW1  134   0.176   2.506   1.504 -1.6463  0.9572  1.6150
   45SOL    HW2  135   0.330   2.437   1.504  0.9049  0.7265  2.0255
   46SOL     OW  136   2.269   2.129   2.304  0.3168 -0.2523  0.1276
   46SOL    HW1  137   2.242   2.140   2.206  3.1896  2.5793  0.4669
   46SOL    HW2  138   2.245   2.031   2.336  0.9278 -1.7436  1.9606
   47SOL     OW  139   1.616   1.965   1.766 -0.0954 -0.1599 -0.4988
   47SOL    HW1  140   1.673   1.980   1.850  0.0363  2.1040  2.1789
   47SOL    HW2  141   1.637   1.884   1.710  0.7097  0.5121  2.5038
   48SOL     OW  142   0.232   1.825   0.240 -0.2657  0.2183 -0.0670
   48SOL    HW1  143   0.246   1.833   0.344 -0.6344  0.8966  4.2598
   48SOL    HW2  144   0.174   1.898   0.204 -1.1794  2.3316 -0.4636
   49SOL     OW  145   2.687   0.530   2.317  0.3789  0.4463 -0.2713
   49SOL    HW1  146   2.669   0.567   2.411  1.0511 -1.6039  1.1237
   49SOL    HW2  147   2.598   0.513   2.272 -1.9792  0.0809  0.4497
   50SOL     OW  148   1.884   0.722   0.981  0.3773 -0.8346  0.1404
   50SOL    HW1  149   1.826   0.695   0.902  0.0935 -2.1793 -1.4208
   50SOL    HW2  150   1.831   0.705   1.065  0.8408 -0.6812 -0.8018
   51SOL     OW  151   1.122   0.754   1.025 -0.3170 -0.2572 -0.5237
   51SOL    HW1  152   1.058   0.821   1.053  3.3037 -4.9327  0.3467
   51SOL    HW2  153   1.204   0.800   0.991 -0.8403 -0.1218  1.6866
   52SOL     OW  154   1.346   1.184   2.973  0.0744  0.1017 -0.0605
   52SOL    HW1  155   1.277   1.110   2.987  1.1533  0.8503 -0.7547
   52SOL    HW2  156   1.317   1.273   2.995  0.7826 -1.5086  1.1642
   53SOL     OW  157   1.262   2.029   2.764 -0.0124 -0.0723 -0.0713
   53SOL    HW1  158   1.197   1.980   2.703 -0.5427 -1.5889  0.8169
   53SOL    HW2  159   1.227   2.121   2.794  0.6500  2.6022  0.5649
   54SOL     OW  160   1.785   0.630   1.588 -0.6262  0.5964  0.2741
   54SOL    HW1  161   1.879   0.653   1.551 -2.8599 -1.4175  0.4684
   54SOL    HW2  162   1.796   0.573   1.673 -0.3543 -1.1981  0.1579
   55SOL     OW  163   1.877   2.827   0.734  0.4617 -1.0224  0.1033
   55SOL    HW1  164   1.970   2.867   0.750 -0.8315 -1.1775  0.0357
   55SOL    HW2  165   1.796   2.888   0.752 -3.2164  1.0713 -3.1517
   56SOL     OW  166   0.771   2.633   1.302  0.6979  0.1383 -0.1087
   56SOL    HW1  167   0.865   2.598   1.327 -0.7607  1.0879  1.4447
   56SOL    HW2  168   0.760   2.736   1.306 -1.9619  2.6281 -0.7509
   57SOL     OW  169   1.774   0.939   0.355  0.3587  0.2713  0.3902
   57SOL    HW1  170   1.818   0.958   0.263 -1.7888  0.0649 -2.1990
   57SOL    HW2  171   1.703   0.871   0.346  3.7138 -1.5296  2.1046
   58SOL     OW  172   0.169   1.137   2.206  0.1362 -0.1202 -0.0998
   58SOL    HW1  173   0.154   1.046   2.252  0.5472 -2.4146  2.0919
   58SOL    HW2  174   0.093   1.159   2.138  1.2866  0.4310  1.3917
   59SOL     OW  175   0.827   2.432   2.377  0.6725  0.1114  0.0224
   59SOL    HW1  176   0.863   2.525   2.384  0.1132 -0.2761  1.1822
   59SOL    HW2  177   0.802   2.408   2.279  0.6291 -3.2906  0.5735
   60SOL     OW  178   2.624   2.869   0.954 -0.2252 -0.3010  0.2245
   60SOL    HW1  179   2.568   2.838   1.032  2.8046 -0.9169  0.6896
   60SOL    HW2  180   2.567   2.889   0.877 -0.4347  0.2888  1.6500
   61SOL     OW  181   1.220   2.063   0.561  0.4139  0.4523  0.3506
   61SOL    HW1  182   1.202   2.078   0.663 -0.6993  0.3882 -2.2161
   61SOL    HW2  183   1.310   2.103   0.541 -1.6581 -0.5466  0.3785
   62SOL     OW  184   2.168   2.673   2.883 -0.5022  0.0749 -0.5597
   62SOL    HW1  185   2.246   2.611   2.911  1.6187  3.1989  0.7361
   62SOL    HW2  186   2.132   2.718   2.968  1.2813  0.5428 -2.8302
   63SOL     OW  187   1.927   0.482   0.061  0.1575 -0.4082  0.1419
   63SOL    HW1  188   2.002   0.455   0.124 -2.3804 -1.0295 -1.9741
   63SOL    HW2  189   1.874   0.554   0.102  0.9671 -0.1496 -2.8615
   64SOL     OW  190   0.966   1.183   3.001 -0.0089 -0.0495  0.4907
   64SOL    HW1  191   0.951   1.176   2.899  0.0059  1.4158  2.0412
   64SOL    HW2  192   0.876   1.182   3.049 -1.4691  1.2556  2.3960
   65SOL     OW  193   1.356   2.361   0.543 -0.0600 -0.5364  0.1151
   65SOL    HW1  194   1.387   2.394   0.449  1.7173 -0.8842 -0.8653
   65SOL    HW2  195   1.418   2.289   0.577 -0.2629 -0.5803  0.4282
   66SOL     OW  196   0.524   1.080   1.955  0.1175  0.0232 -0.1266
   66SOL    HW1  197   0.550   1.088   2.059  1.4972 -1.4606  0.2002
   66SOL    HW2  198   0.424   1.080   1.942  2.7179 -0.3432 -0.0755
   67SOL     OW  199   2.221   0.051   2.338 -0.0958  0.0422  0.7576
   67SOL    HW1  200   2.221   0.068   2.237  1.0751 -1.5823  0.5821
   67SOL    HW2  201   2.306   0.086   2.382  0.3540  0.1823 -0.5124
   68SOL     OW  202   0.897   1.019   1.385 -0.9563 -0.1628  0.0756
   68SOL    HW1  203   0.875   1.084   1.463  1.7961  0.1897  1.3536
   68SOL    HW2  204   0.847   0.930   1.393 -1.6617  1.7535 -2.7464
   69SOL     OW  205   1.747   2.758   0.404  0.4127 -1.1269 -0.5743
   69SOL    HW1  206   1.685   2.831   0.437  1.2529 -1.4465 -2.7877
   69SOL    HW2  207   1.770   2.692   0.480  0.0242 -0.4469  0.1273
   70SOL     OW  208   2.938   0.997   2.233  0.0578 -0.6038  0.1829
   70SOL    HW1  209   3.020   0.938   2.259  1.9362 -0.2974  0.9792
   70SOL    HW2  210   2.856   0.941   2.207 -0.7306  0.9306  0.1571
   71SOL     OW  211   2.999   1.533   3.059 -0.4185  0.1172  0.1990
   71SOL    HW1  212   2.931   1.471   3.008 -1.1155 -0.0966 -2.1976
   71SOL    HW2  213   3.049   1.594   2.992  0.3985 -2.6137 -1.4687
   72SOL     OW  214   2.987   1.974   0.306  0.3528 -0.0778 -0.5335
   72SOL    HW1  215   2.946   1.889   0.345  0.4626  0.7045  1.7462
   72SOL    HW2  216   3.074   1.998   0.349 -0.4606  2.2709  0.3806
   73SOL     OW  217   0.941   1.677   0.425 -0.2849  0.0903  0.4090
   73SOL    HW1  218   0.933   1.593   0.484  3.8001  1.0877 -2.1212
   73SOL    HW2  219   1.005   1.660   0.344  1.2406  2.4004 -0.4242
   74SOL     OW  220   0.447   1.936   1.980  0.1463  0.5639  0.1327
   74SOL    HW1  221   0.351   1.929   2.011  2.4056  0.0047  1.0595
   74SOL    HW2  222   0.514   1.921   2.056 -0.8504  0.4510  0.1869
   75SOL     OW  223   1.665   1.300   1.651 -0.1315 -0.2234 -0.4419
   75SOL    HW1  224   1.735   1.227   1.682 -1.5025 -0.7948  1.4535
   75SOL    HW2  225   1.707   1.396   1.657 -0.9160 -0.4505 -0.6350
   76SOL     OW  226   2.155   2.651   1.396 -0.1723 -0.6438  0.1410
   76SOL    HW1  227   2.240   2.594   1.415  0.3230 -1.9648 -0.9103
   76SOL    HW2  228   2.125   2.723   1.459 -0.6917 -0.6173 -0.0501
   77SOL     OW  229   2.779   1.005   1.367 -0.0593  0.3817  0.3881
   77SOL    HW1  230   2.865   0.967   1.409 -0.0233 -0.3573  0.9156
   77SOL    HW2  231   2.724   0.927   1.331 -1.2374  0.0634 -2.2014
   78SOL     OW  232   1.236   1.012   0.515  0.2563 -0.1318 -0.0344
   78SOL    HW1  233   1.285   1.089   0.464  0.7413  2.2846 -3.7306
   78SOL    HW2  234   1.302   0.932   0.522  2.7490 -0.9834  0.8550
   79SOL     OW  235   2.670   1.476   1.621 -0.1540 -0.0036  0.3616
   79SOL    HW1  236   2.725   1.421   1.687 -1.8688 -0.8190 -2.9312
   79SOL    HW2  237   2.707   1.460   1.526 -1.3291  0.8489 -2.2226
   80SOL     OW  238   0.908   0.590   1.591  0.3178 -0.6243 -0.4275
   80SOL    HW1  239   0.988   0.653   1.580  0.1974  1.5407 -0.1630
   80SOL    HW2  240   0.935   0.490   1.583 -0.7258  0.8218  1.9688
   81SOL     OW  241   1.032   2.886   0.751 -0.1091 -0.6154 -0.1235
   81SOL    HW1  242   1.122   2.863   0.711  1.4904  1.3494 -1.5527
   81SOL    HW2  243   1.017   2.982   0.789  0.4333 -0.9599  3.5302
   82SOL     OW  244   1.300   0.023   1.624 -0.3156  0.2695  0.7321
   82SOL    HW1  245   1.353   0.033   1.536  1.9963  1.2924  0.4290
   82SOL    HW2  246   1.208   3.082   1.598 -2.9261 -3.9652 -0.9766
   83SOL     OW  247   1.203   2.102   0.821 -0.4982  0.6078  0.0490
   83SOL    HW1  248   1.252   2.149   0.897  1.5815  0.2170  1.8779
   83SOL    HW2  249   1.106   2.095   0.840 -0.6454 -0.8572 -1.0125
   84SOL     OW  250   0.393   1.661   2.703 -0.4155  1.0000  0.0755
   84SOL    HW1  251   0.318   1.634   2.634 -4.2187 -1.7450 -0.1756
   84SOL    HW2  252   0.470   1.599   2.695 -0.4646  0.7071 -4.7973
   85SOL     OW  253   0.138   2.355   1.217 -0.1130  0.5363  0.5869
   85SOL    HW1  254   0.046   2.324   1.256  0.2719 -1.1878 -1.4217
   85SOL    HW2  255   0.194   2.380   1.301 -0.2401 -1.0850  3.4950
   86SOL     OW  256   2.450   2.753   1.416 -0.4072 -0.2409 -0.0321
   86SOL    HW1  257   2.522   2.681   1.425  0.9123  1.8270 -0.1930
   86SOL    HW2  258   2.394   2.760   1.505  0.7487  2.3092  0.3631
   87SOL     OW  259   0.086   1.984   0.472  0.0017 -0.4511 -0.0446
   87SOL    HW1  260   0.129   1.894   0.499  1.7121 -0.8809 -0.4166
   87SOL    HW2  261   0.152   2.060   0.465 -0.4616 -1.9116  1.0696
   88SOL     OW  262   0.713   1.347   1.499 -0.1476 -0.2191  0.2853
   88SOL    HW1  263   0.737   1.267   1.557  0.4999 -0.1517 -0.8622
   88SOL    HW2  264   0.743   1.340   1.399 -0.6280 -2.9110 -1.5705
   89SOL     OW  265   1.101   2.823   2.041 -0.4950  0.2078 -0.5580
   89SOL    HW1  266   1.077   2.921   2.067  1.1805  1.3751  1.6022
   89SOL    HW2  267   1.053   2.754   2.099  1.5498 -0.3004 -0.1067
   90SOL     OW  268   2.989   1.790   1.329  0.1150 -0.7773  0.1367
   90SOL    HW1  269   3.010   1.761   1.424 -0.1641 -0.2045 -2.2059
   90SOL    HW2  270   2.913   1.741   1.286  0.4149  1.6789  0.9678
   91SOL     OW  271   1.361   1.872   1.199  0.2698 -0.2083  0.2221
   91SOL    HW1  272   1.271   1.829   1.165 -3.5723 -0.5147  2.3281
   91SOL    HW2  273   1.357   1.864   1.295  0.4552  0.0573 -2.8010
   92SOL     OW  274   2.383   2.616   1.777  0.5787  0.1846  0.4336
   92SOL    HW1  275   2.309   2.558   1.737 -0.2566  0.0008 -1.4355
   92SOL    HW2  276   2.469   2.562   1.791  2.7395  2.9751 -2.2719
   93SOL     OW  277   2.797   1.422   2.682 -0.7666 -0.1705 -0.2509
   93SOL    HW1  278   2.779   1.343   2.621  1.7114  0.3848 -1.4494
   93SOL    HW2  279   2.806   1.397   2.786  0.6547 -0.3095  2.2488
   94SOL     OW  280   2.631   3.049   2.203  0.2614  0.5081 -0.0167
   94SOL    HW1  281   2.680   0.022   2.251  0.2458  2.9468  0.1815
   94SOL    HW2  282   2.664   3.039   2.106  0.2796 -1.1316 -1.3999
   95SOL     OW  283   1.315   0.333   1.913  0.2669  0.4839  0.3923
   95SOL    HW1  284   1.406   0.288   1.941  3.3058 -0.0779 -3.0734
   95SOL    HW2  285   1.322   0.433   1.933  1.7113  2.6990  0.1844
   96SOL     OW  286   3.003   0.341   1.700 -0.1956  0.2697 -0.0928
   96SOL    HW1  287   2.917   0.379   1.654  0.7666  0.3116 -1.0575
   96SOL    HW2  288   2.996   0.363   1.799  0.1448 -0.8014  0.7539
   97SOL     OW  289   1.912   0.319   1.489 -0.1531  0.3408 -0.3930
   97SOL    HW1  290   1.948   0.386   1.425  1.8874  0.1096  0.8688
   97SOL    HW2  291   1.977   0.313   1.568  1.2894  0.7846 -0.2638
   98SOL     OW  292   1.957   2.455   1.407  0.5080 -0.6538 -0.5064
   98SOL    HW1  293   2.048   2.502   1.401 -2.6617  0.5347  0.3568
   98SOL    HW2  294   1.919   2.467   1.502 -0.9543 -1.9807 -0.6956
   99SOL     OW  295   2.955   0.055   1.583 -0.1974 -0.2138  0.2555
   99SOL    HW1  296   2.955   0.142   1.531 -0.8999  0.4522 -0.0808
   99SOL    HW2  297   2.975   3.079   1.524  1.1914  1.2249  2.5617
  100SOL     OW  298   2.799   1.348   1.808 -0.3768 -0.1687 -0.3453
  100SOL    HW1  299   2.813   1.394   1.896  3.4909  1.2472 -0.9620
  100SOL    HW2  300   2.878   1.288   1.794 -1.2514 -0.4996 -0.9999
  101SOL     OW  301   1.381   0.592   0.851  0.1636  0.0098 -0.3974
  101SOL    HW1  302   1.452   0.545   0.908 -0.2972  2.9578 -0.4422
  101SOL    HW2  303   1.393   0.693   0.863  2.2297 -0.3319  0.7953
  102SOL     OW  304   0.577   0.905   1.291 -0.1511 -0.3785 -0.3812
  102SOL    HW1  305   0.518   0.973   1.339 -0.0191 -0.0910 -1.5372
  102SOL    HW2  306   0.648   0.865   1.357  1.7330  1.3005  0.4446
  103SOL     OW  307   2.265   0.660   0.031 -0.4593  0.3735 -0.7591
  103SOL    HW1  308   2.180   0.704   0.062  1.1718 -0.9783  0.5792
  103SOL    HW2  309   2.323   0.657   0.113  2.3298 -0.2437 -0.8019
  104SOL     OW  310   0.062   0.150   1.973  0.0192  0.0803  0.1724
  104SOL    HW1  311   0.059   0.072   1.911 -2.4771  1.5127  0.8464
  104SOL    HW2  312   3.077   0.180   2.010  0.6671 -2.5946  1.2778
  105SOL     OW  313   2.002   0.838   1.843 -0.0745 -0.4839 -0.1044
  105SOL    HW1  314   1.904   0.824   1.822 -1.8032 -1.7743 -0.3874
  105SOL    HW2  315   2.044   0.891   1.768  0.4541  3.0196 -0.6214
  106SOL     OW  316   1.810   0.017   0.997  0.1915 -0.1963  0.1820
  106SOL    HW1  317   1.837   3.078   1.083 -1.4386 -0.1799  0.0021
  106SOL    HW2  318   1.768   3.054   0.930  1.2779 -0.6211 -0.8044
  107SOL     OW  319   0.394   1.156   0.733  0.1916 -0.1217 -0.8117
  107SOL    HW1  320   0.397   1.118   0.640 -0.6027  0.5544  0.5765
  107SOL    HW2  321   0.332   1.239   0.730  0.7333  0.3936  0.3526
  108SOL     OW  322   2.920   0.200   2.069 -0.0685 -0.4964 -0.0246
  108SOL    HW1  323   2.863   0.252   2.000 -2.2728 -0.3463 -0.9316
  108SOL    HW2  324   2.856   0.178   2.144  2.4583  0.6752  1.0767
  109SOL     OW  325   2.294   0.577   0.737  0.3204 -0.1824 -0.5096
  109SOL    HW1  326   2.227   0.647   0.770  2.9687 -1.5105 -0.5271
  109SOL    HW2  327   2.254   0.485   0.761  2.9427  0.4101 -0.5729
  110SOL     OW  328   0.461   2.367   2.754 -0.0277 -0.1330 -0.0447
  110SOL    HW1  329   0.400   2.281   2.763  0.5598 -1.6416  0.9706
  110SOL    HW2  330   0.523   2.362   2.676  0.7255 -0.1594 -1.8501
  111SOL     OW  331   1.892   2.987   2.112  0.5435  0.2459  0.3153
  111SOL    HW1  332   1.921   3.081   2.078  0.6371  0.4740  0.4119
  111SOL    HW2  333   1.876   2.923   2.031 -1.4644  0.5070  0.2388
  112SOL     OW  334   2.142   2.686   0.296  0.3116  0.2422  0.0671
  112SOL    HW1  335   2.120   2.713   0.204  1.1994 -2.7792  4.9776
  112SOL    HW2  336   2.239   2.656   0.300 -1.2836 -1.3959 -1.2741
  113SOL     OW  337   2.335   2.447   1.457  0.1578  0.0487 -0.5240
  113SOL    HW1  338   2.417   2.398   1.420  2.7763  2.3985  1.1059
  113SOL    HW2  339   2.301   2.401   1.543 -1.1242  1.6110 -0.2830
  114SOL     OW  340   2.823   1.025   0.893 -0.1244 -0.2331 -0.0956
  114SOL    HW1  341   2.747   1.012   0.830  2.2738  2.5396 -0.6985
  114SOL    HW2  342   2.860   0.931   0.909  1.1901 -0.2414  0.4721
  115SOL     OW  343   2.938   1.707   0.146 -0.3163 -0.5959 -0.2300
  115SOL    HW1  344   2.951   1.642   0.224  1.6287 -0.8547  1.2668
  115SOL    HW2  345   2.940   1.653   0.061 -2.5169  2.8519  1.4592
  116SOL     OW  346   0.022   1.441   2.109 -0.4010 -0.7259  0.4778
  116SOL    HW1  347   0.005   1.344   2.078  0.8245 -0.5017 -1.2207
  116SOL    HW2  348   0.116   1.468   2.087 -0.2092  2.0961 -0.7439
  117SOL     OW  349   2.455   3.064   0.803  0.2525 -0.0011 -0.0005
  117SOL    HW1  350   2.355   3.044   0.805  0.3505  3.0724  1.5358
  117SOL    HW2  351   2.496   3.038   0.713 -1.4083 -3.2003 -0.7059
  118SOL     OW  352   0.402   2.178   1.556  0.0915 -0.3158  0.0357
  118SOL    HW1  353   0.432   2.129   1.639 -2.2891 -1.8330 -0.7331
  118SOL    HW2  354   0.444   2.271   1.535  2.4911  1.9282 -1.0396
  119SOL     OW  355   1.752   2.054   0.507 -0.3230  0.3875  0.3534
  119SOL    HW1  356   1.729   1.964   0.465 -0.4324 -3.1996 -1.0432
  119SOL    HW2  357   1.817   2.044   0.578 -0.0428  1.8759 -2.4228
  120SOL     OW  358   3.083   1.935   2.438 -0.5848  0.1022 -0.1261
  120SOL    HW1  359   0.034   1.882   2.375 -0.0186  0.8513  2.1193
  120SOL    HW2  360   3.001   1.979   2.394 -0.1418 -2.1839  0.0890
  121SOL     OW  361   2.460   2.054   1.289 -0.0953 -0.1091 -0.0163
  121SOL    HW1  362   2.409   2.032   1.203 -3.3083 -2.3035  0.1802
  121SOL    HW2  363   2.511   1.973   1.318 -2.6257  3.5559 -1.6964
  122SOL     OW  364   2.276   1.363   2.260 -0.1973  0.0467 -0.3272
  122SOL    HW1  365   2.360   1.368   2.200  2.8101 -0.4510 -0.7084
  122SOL    HW2  366   2.278   1.284   2.326  1.0041 -2.1585 -0.2099
  123SOL     OW  367   0.175   2.810   0.691 -0.3147 -0.1663 -0.5205
  123SOL    HW1  368   0.115   2.837   0.617 -0.4447 -1.5087  0.6923
  123SOL    HW2  369   0.116   2.768   0.764 -2.6116 -0.1454  0.1209
  124SOL     OW  370   1.834   0.692   2.532  0.3352  0.3386  0.2051
  124SOL    HW1  371   1.858   0.789   2.529 -1.0541  1.1706  0.7610
  124SOL    HW2  372   1.733   0.677   2.511 -1.7444 -1.9708 -0.7712
  125SOL     OW  373   0.566   1.409   2.830 -0.2636 -0.8682  0.2343
  125SOL    HW1  374   0.600   1.492   2.782 -1.0087 -0.7797 -2.2809
  125SOL    HW2  375   0.557   1.429   2.930 -1.7991 -0.7786 -3.7741
  126SOL     OW  376   2.716   1.841   0.088  0.0733  0.4653  0.0360
  126SOL    HW1  377   2.696   1.931   0.132 -2.3585  0.0977  0.4680
  126SOL    HW2  378   2.810   1.809   0.102  0.8865 -2.3867 -0.4140
  127SOL     OW  379   0.475   1.764   1.256  0.2434  0.2154 -0.6338
  127SOL    HW1  380   0.448   1.856   1.227 -0.5303 -0.4527  0.8873
  127SOL    HW2  381   0.491   1.754   1.358 -2.1629  1.6755  3.6466
  128SOL     OW  382   0.952   0.756   0.061 -0.3338  0.2078 -0.4959
  128SOL    HW1  383   0.991   0.709   3.087 -0.1755  1.4069 -1.3644
  128SOL    HW2  384   1.025   0.784   0.125  2.0981 -0.1632 -1.2867
  129SOL     OW  385   2.203   1.393   0.856  0.2819  0.4224  0.4040
  129SOL    HW1  386   2.166   1.443   0.776  2.3672 -1.7405  2.0082
  129SOL    HW2  387   2.300   1.415   0.858  0.1720 -1.1652  1.1657
  130SOL     OW  388   2.217   1.683   0.746 -0.3991 -0.3543  0.3085
  130SOL    HW1  389   2.129   1.630   0.741  1.2195  1.0043  1.2168
  130SOL    HW2  390   2.235   1.702   0.848  0.6936 -0.9862  2.9220
  131SOL     OW  391   2.793   1.045   2.684  0.1950  0.2420 -0.3559
  131SOL    HW1  392   2.727   1.024   2.761 -1.1357 -1.2295  1.1111
  131SOL    HW2  393   2.880   1.087   2.714 -0.3189  1.8971 -0.2624
  132SOL     OW  394   2.504   1.803   1.946  0.0595  0.2895 -0.0752
  132SOL    HW1  395   2.519   1.900   1.957  1.2531 -0.1005  0.4683
  132SOL    HW2  396   2.592   1.764   1.912 -0.7211  0.2537 -1.0170
  133SOL     OW  397   2.997   0.877   0.060  0.3328  0.1874 -0.1857
  133SOL    HW1  398   2.978   0.813   0.137  0.3282 -1.5552  0.0353
  133SOL    HW2  399   3.075   0.936   0.089 -2.3170  0.5845 -1.6558
  134SOL     OW  400   0.153   1.156   3.026  0.3477  0.4601  0.5078
  134SOL    HW1  401   0.213   1.227   2.987  0.0342 -2.4099  0.1643
  134SOL    HW2  402   0.084   1.122   2.960 -0.7870  0.5866  2.7456
  135SOL     OW  403   2.405   1.658   0.569 -0.2502  0.2674  0.0502
  135SOL    HW1  404   2.329   1.667   0.639 -0.4829  1.9166 -0.8726
  135SOL    HW2  405   2.374   1.694   0.476 -1.1268  0.1280  0.2255
  136SOL     OW  406   1.989   1.502   1.352 -0.2873  0.3803 -0.1513
  136SOL    HW1  407   1.979   1.410   1.395 -0.3883  1.8724 -2.6716
  136SOL    HW2  408   2.047   1.483   1.264  0.0919  0.8328 -4.3975
  137SOL     OW  409   2.661   1.710   0.718  0.5666  0.1746 -0.3278
  137SOL    HW1  410   2.688   1.808   0.700 -0.6338  4.3141  0.5993
  137SOL    HW2  411   2.583   1.693   0.652  2.5454 -0.2421  0.9010
  138SOL     OW  412   1.187   0.330   1.292  0.2516  0.0370  0.4145
  138SOL    HW1  413   1.168   0.422   1.255  1.4346 -1.6710  0.3026
  138SOL    HW2  414   1.280   0.295   1.271  1.2794 -1.6037  0.4360
  139SOL     OW  415   2.228   0.054   0.348 -0.1572  0.2965 -0.2199
  139SOL    HW1  416   2.235   0.080   0.254  1.3039 -1.0478  3.7888
  139SOL    HW2  417   2.271   0.127   0.404  0.2593  1.1740  2.3508
  140SOL     OW  418   1.528   1.987   2.797  0.0664  0.1268  0.3518
  140SOL    HW1  419   1.425   1.996   2.792  1.4082 -0.1075  0.5142
  140SOL    HW2  420   1.573   2.078   2.801 -0.9112  1.5998  0.0442
  141SOL     OW  421   0.855   1.151   1.628 -0.4857 -0.1637  0.5958
  141SOL    HW1  422   0.815   1.092   1.709 -2.1695  0.1450  4.0174
  141SOL    HW2  423   0.920   1.221   1.667  0.4701 -1.4501  1.5999
  142SOL     OW  424   2.611   0.152   0.122 -0.1822  0.0577  0.0417
  142SOL    HW1  425   2.675   0.153   0.203  0.0271 -1.0089  1.2941
  142SOL    HW2  426   2.657   0.109   0.044 -0.1098  1.7796  0.9515
  143SOL     OW  427   0.777   2.452   3.081  1.0068  0.3655 -0.1787
  143SOL    HW1  428   0.758   2.433   0.074 -0.8632  1.2678 -1.7861
  143SOL    HW2  429   0.804   2.550   3.068 -1.5079 -0.1148 -0.8928
  144SOL     OW  430   1.190   2.715   2.662 -0.2066 -0.5452 -0.0442
  144SOL    HW1  431   1.212   2.642   2.728 -0.2918 -0.2832 -0.0134
  144SOL    HW2  432   1.174   2.799   2.716 -0.3894  0.2294 -2.6942
  145SOL     OW  433   2.386   1.523   3.044  0.1649  0.0594  0.2880
  145SOL    HW1  434   2.441   1.607   3.039 -1.1682 -0.0395 -0.5479
  145SOL    HW2  435   2.284   1.547   3.052 -1.9944 -1.5020 -0.8475
  146SOL     OW  436   2.658   2.744   0.076  0.2468 -0.1558  0.1247
  146SOL    HW1  437   2.725   2.811   0.116 -0.8444  0.7507  0.3451
  146SOL    HW2  438   2.702   2.674   0.022  0.3397  2.5466  0.3010
  147SOL     OW  439   2.592   2.482   1.089  0.6212 -0.1122 -0.0065
  147SOL    HW1  440   2.514   2.532   1.133 -0.0346  1.3522  0.5837
  147SOL    HW2  441   2.631   2.530   1.010  0.3255  1.1369  0.3402
  148SOL     OW  442   1.689   0.367   0.143 -0.0809  0.1375 -0.2521
  148SOL    HW1  443   1.778   0.397   0.103 -0.8275 -1.4842  2.5412
  148SOL    HW2  444   1.611   0.358   0.078 -2.4604  0.5397 -0.2999
  149SOL     OW  445   1.072   1.562   2.690 -0.0499 -0.1337  0.2648
  149SOL    HW1  446   1.121   1.484   2.740  1.1024  1.8045 -0.2538
  149SOL    HW2  447   1.006   1.519   2.626  0.8346 -1.9115  3.3246
  150SOL     OW  448   0.727   2.439   0.559 -0.0772  0.9873 -0.2604
  150SOL    HW1  449   0.802   2.506   0.545 -1.6199  2.1117 -1.3184
  150SOL    HW2  450   0.746   2.372   0.631 -0.4539  5.0088 -4.1860
  151SOL     OW  451   0.722   1.883   2.995 -0.0006  0.2390 -0.6982
  151SOL    HW1  452   0.761   1.798   2.952 -1.3003  0.4729 -1.7702
  151SOL    HW2  453   0.719   1.873   3.095 -1.6274  2.8177 -1.1528
  152SOL     OW  454   2.849   1.035   0.438  0.1166  0.4466 -0.2036
  152SOL    HW1  455   2.752   1.037   0.470  0.9352 -1.7166 -1.5370
  152SOL    HW2  456   2.910   0.964   0.479 -0.5927 -0.3764  0.4271
  153SOL     OW  457   2.406   2.580   0.244  0.2084  0.3336  0.0643
  153SOL    HW1  458   2.478   2.553   0.309  1.5034  0.6783  0.5247
  153SOL    HW2  459   2.432   2.663   0.205 -0.4951 -3.9964  1.3523
  154SOL     OW  460   0.609   3.055   1.161 -0.1738  0.0307  0.6302
  154SOL    HW1  461   0.514   3.042   1.202 -0.4491 -2.1582 -0.2811
  154SOL    HW2  462   0.607   3.057   1.054  1.7924  3.1737 -1.7918
  155SOL     OW  463   0.414   2.017   1.225 -0.1268 -0.5238 -0.1839
  155SOL    HW1  464   0.379   2.084   1.152 -1.4480  1.6317 -0.6047
  155SOL    HW2  465   0.342   1.989   1.289  1.3696 -2.0608 -0.2908
  156SOL     OW  466   2.514   2.298   3.058  0.0852  0.0817 -0.1237
  156SOL    HW1  467   2.508   2.232   2.983  2.4411  1.4390 -0.1618
  156SOL    HW2  468   2.608   2.314   3.092 -0.9585 -0.3487  1.3150
  157SOL     OW  469   1.052   2.090   1.139 -0.4009 -0.2669 -0.4553
  157SOL    HW1  470   0.979   2.161   1.152 -1.1198  0.1852  2.3121
  157SOL    HW2  471   1.137   2.132   1.106  1.9737 -1.5555 -1.1984
  158SOL     OW  472   1.617   0.670   3.003  0.5451  0.2667 -0.1759
  158SOL    HW1  473   1.687   0.598   2.990  1.1404 -2.6811  1.0514
  158SOL    HW2  474   1.581   0.702   2.917 -0.1634 -0.9518  1.7192
  159SOL     OW  475   1.154   0.548   2.561  0.1010  0.1079 -0.0952
  159SOL    HW1  476   1.065   0.521   2.603  0.9323  3.0931 -0.6221
  159SOL    HW2  477   1.161   0.509   2.464  0.3070  0.4254  0.2632
  160SOL     OW  478   1.208   1.805   0.373  0.2848 -0.3030  0.0367
  160SOL    HW1  479   1.168   1.884   0.419 -0.5625 -3.4331  0.3019
  160SOL    HW2  480   1.162   1.778   0.288  1.0044  0.8545 -1.9735
  161SOL     OW  481   3.067   2.220   3.003 -0.1547  0.0228  0.3070
  161SOL    HW1  482   0.054   2.191   2.974  0.6014  1.3659  0.6916
  161SOL    HW2  483   3.058   2.211   0.003  0.6489  0.0198  0.3170
  162SOL     OW  484   0.736   2.589   1.029 -0.4121  0.1111 -0.1818
  162SOL    HW1  485   0.826   2.616   0.986  0.3632  0.3104 -0.6744
  162SOL    HW2  486   0.745   2.585   1.130 -0.4238 -1.0540  0.1456
  163SOL     OW  487   2.652   0.981   2.909 -0.3364  0.2228  0.1594
  163SOL    HW1  488   2.562   0.937   2.916 -0.0777  1.2591 -0.7527
  163SOL    HW2  489   2.733   0.915   2.922  3.8571 -0.8236 -0.0362
  164SOL     OW  490   0.097   2.715   2.922 -0.0119 -0.0649  0.0050
  164SOL    HW1  491   0.167   2.699   2.996 -2.5098 -0.2003 -2.1551
  164SOL    HW2  492   0.027   2.638   2.914 -2.8614  0.1712 -0.1043
  165SOL     OW  493   2.260   0.396   1.457 -0.7297  0.3929 -0.0674
  165SOL    HW1  494   2.223   0.375   1.550  0.4048 -0.8441 -0.6869
  165SOL    HW2  495   2.214   0.338   1.390 -1.2359 -3.0978 -0.0741
  166SOL     OW  496   1.916   0.243   1.144  0.3739 -0.5939  0.0143
  166SOL    HW1  497   1.969   0.300   1.075  0.4557 -0.6143 -0.8817
  166SOL    HW2  498   1.858   0.178   1.089 -2.1603  2.3279  0.6151
  167SOL     OW  499   0.892   0.348   1.944  0.1965  0.3342  0.3339
  167SOL    HW1  500   0.878   0.418   1.877 -1.1275  0.6618 -0.8973
  167SOL    HW2  501   0.918   0.381   2.038 -1.9820  1.9929 -0.4694
  168SOL     OW  502   2.727   0.328   1.943 -0.4686 -0.6058 -0.3591
  168SOL    HW1  503   2.646   0.304   2.003 -4.4317 -2.7621 -1.4164
  168SOL    HW2  504   2.726   0.275   1.858  1.4841  1.2025  1.1351
  169SOL     OW  505   0.320   1.396   0.273 -0.2713  0.3154  0.5338
  169SOL    HW1  506   0.257   1.429   0.201  3.2594 -1.1505  3.7827
  169SOL    HW2  507   0.287   1.314   0.325  3.4895  1.8678  0.1964
  170SOL     OW  508   0.114   0.863   1.848 -0.1230 -0.3079  0.3805
  170SOL    HW1  509   0.175   0.807   1.788  0.5423  4.5091  0.3419
  170SOL    HW2  510   0.017   0.850   1.815  0.3874 -1.7195  0.2369
  171SOL     OW  511   1.134   1.970   1.785  0.4216 -0.1715 -0.4079
  171SOL    HW1  512   1.129   1.951   1.884 -0.3005 -1.6197 -0.7145
  171SOL    HW2  513   1.041   1.963   1.745 -0.0882 -1.1757 -1.0159
  172SOL     OW  514   0.504   2.437   1.549  0.0157  0.7354  0.1848
  172SOL    HW1  515   0.527   2.527   1.597 -2.4384  1.1368  1.9476
  172SOL    HW2  516   0.568   2.432   1.472  1.4813  1.2622  0.5380
  173SOL     OW  517   1.272   2.801   0.669  0.0006  0.1002 -0.0991
  173SOL    HW1  518   1.309   2.814   0.573  2.0700  1.3362 -2.3080
  173SOL    HW2  519   1.278   2.703   0.699  2.1556 -1.3391 -0.2449
  174SOL     OW  520   0.713   2.693   0.251  0.7563  0.3422  0.0636
  174SOL    HW1  521   0.653   2.774   0.281  0.1538  0.1787  0.1959
  174SOL    HW2  522   0.777   2.716   0.178 -1.5128  0.0878  1.6457
  175SOL     OW  523   1.156   1.003   3.061  1.0314  0.0157  0.6135
  175SOL    HW1  524   1.211   0.991   0.040 -1.2449 -1.0720  1.9647
  175SOL    HW2  525   1.081   1.073   3.076 -2.2280  1.0597 -4.0468
  176SOL     OW  526   1.541   0.756   0.323 -0.1459  0.2277  0.4166
  176SOL    HW1  527   1.495   0.765   0.236  0.3800  0.4593  2.3935
  176SOL    HW2  528   1.483   0.764   0.405 -1.1471  0.3428  0.7314
  177SOL     OW  529   1.313   1.328   0.682 -0.3743  0.2311  0.6764
  177SOL    HW1  530   1.286   1.411   0.730  1.3552 -2.0682 -2.5863
  177SOL    HW2  531   1.353   1.270   0.749 -3.6531  0.5197 -2.3637
  178SOL     OW  532   2.728   1.674   2.611 -0.0819  0.1276 -0.4831
  178SOL    HW1  533   2.751   1.571   2.621  0.3723  0.6469 -5.4030
  178SOL    HW2  534   2.767   1.702   2.521  1.4021 -0.6370  0.1021
  179SOL     OW  535   0.601   2.926   0.057  0.5448  0.1416  0.7249
  179SOL    HW1  536   0.540   2.848   0.021 -2.4463 -0.1129 -0.3984
  179SOL    HW2  537   0.662   2.951   3.085  1.3864 -0.2482 -1.0647
  180SOL     OW  538   1.752   1.630   1.261 -0.2849 -0.0231  0.1001
  180SOL    HW1  539   1.832   1.580   1.304  2.6654 -1.7032  2.4339
  180SOL    HW2  540   1.728   1.581   1.172 -1.3656 -1.7032 -3.8303
  181SOL     OW  541   1.047   1.343   2.322  0.1322  0.3870 -0.6029
  181SOL    HW1  542   1.007   1.254   2.291 -3.3601 -1.8452  2.4917
  181SOL    HW2  543   1.141   1.332   2.366  1.0094 -0.4461  2.8450
  182SOL     OW  544   2.833   0.772   2.655  0.2090 -0.0912 -0.1818
  182SOL    HW1  545   2.838   0.876   2.650  3.8110  1.4881 -2.1938
  182SOL    HW2  546   2.882   0.740   2.739 -1.5568  0.8268 -0.2597
  183SOL     OW  547   1.694   0.089   2.396  0.7331  0.4893  0.2305
  183SOL    HW1  548   1.625   0.109   2.470 -2.4144  0.0292 -1.2523
  183SOL    HW2  549   1.703   3.093   2.369 -0.0921  1.8902  2.9997
  184SOL     OW  550   0.521   0.340   1.476  0.5549 -0.2326  0.0842
  184SOL    HW1  551   0.485   0.435   1.486  0.4411 -0.6913 -0.2027
  184SOL    HW2  552   0.616   0.330   1.442  0.9183 -0.2964  0.0415
  185SOL     OW  553   2.470   1.359   0.840  0.2315 -0.4524 -0.5191
  185SOL    HW1  554   2.555   1.387   0.790  1.7409 -1.9567  1.1098
  185SOL    HW2  555   2.493   1.355   0.940 -3.9214  1.7283 -2.0032
  186SOL     OW  556   0.262   2.165   2.761 -0.1015 -0.1322 -0.1145
  186SOL    HW1  557   0.190   2.145   2.688 -2.0704 -0.6536 -1.4145
  186SOL    HW2  558   0.240   2.125   2.851  2.6858 -1.1849  0.8933
  187SOL     OW  559   2.500   1.768   3.030  0.2097 -0.6762 -0.0567
  187SOL    HW1  560   2.582   1.769   3.089 -2.4889 -1.7417 -1.4380
  187SOL    HW2  561   2.438   1.852   3.033 -2.8136 -0.6431  2.1264
  188SOL     OW  562   0.593   2.204   0.314 -0.2639  0.1633 -0.1544
  188SOL    HW1  563   0.609   2.134   0.389 -0.4313 -2.1553 -1.7015
  188SOL    HW2  564   0.508   2.173   0.270  0.6063 -2.2612 -1.2075
  189SOL     OW  565   2.392   1.009   0.166  0.4325  0.2531 -0.1118
  189SOL    HW1  566   2.473   0.943   0.166  3.0259 -2.4166  0.4372
  189SOL    HW2  567   2.408   1.096   0.117  1.5357 -0.2050  1.3064
  190SOL     OW  568   1.081   1.674   2.013  0.2682  0.4755 -0.1319
  190SOL    HW1  569   1.096   1.767   2.037 -0.5920 -3.0849 -1.1622
  190SOL    HW2  570   1.000   1.668   1.950  1.0243  2.8549 -0.8580
  191SOL     OW  571   2.787   0.423   1.561 -0.3954  0.1853  0.0341
  191SOL    HW1  572   2.778   0.521   1.541  1.6353 -2.0006  0.7437
  191SOL    HW2  573   2.729   0.368   1.499 -0.2383 -0.4091 -0.4701
  192SOL     OW  574   2.144   0.319   1.683  0.4826 -0.0957 -0.0750
  192SOL    HW1  575   2.141   0.218   1.668 -3.1279  0.0376 -0.4613
  192SOL    HW2  576   2.128   0.333   1.783 -1.7757 -1.5638 -0.9146
  193SOL     OW  577   0.172   0.782   0.581  0.2271 -0.0906 -0.3056
  193SOL    HW1  578   0.173   0.680   0.567  0.6937 -1.8222  3.5370
  193SOL    HW2  579   0.268   0.811   0.604  1.9893  1.4538  0.1468
  194SOL     OW  580   1.618   2.534   1.514 -0.4579  0.0346 -0.2504
  194SOL    HW1  581   1.698   2.475   1.528 -2.3462 -0.9430 -0.4103
  194SOL    HW2  582   1.564   2.541   1.602  0.5562  0.9846  2.5226
  195SOL     OW  583   2.518   0.686   0.837 -0.2365  0.0855 -0.3345
  195SOL    HW1  584   2.442   0.633   0.799  1.4247  2.0773 -0.8501
  195SOL    HW2  585   2.510   0.784   0.809 -0.5950  1.4935  0.1601
  196SOL     OW  586   1.868   2.105   2.190 -0.5074  0.3220  0.0275
  196SOL    HW1  587   1.883   2.056   2.282 -1.3146  0.7405  0.2479
  196SOL    HW2  588   1.805   2.185   2.211 -1.6791 -1.3917 -0.2060
  197SOL     OW  589   0.429   0.061   0.044 -0.2446 -0.1556  0.1536
  197SOL    HW1  590   0.449   3.091   3.078  3.4413 -0.5060 -1.6144
  197SOL    HW2  591   0.386   0.020   0.125 -2.0500 -2.3562 -2.9714
  198SOL     OW  592   0.976   1.314   0.810 -0.3383  0.2613  0.0194
  198SOL    HW1  593   1.069   1.263   0.805  1.4075  0.4120 -0.7413
  198SOL    HW2  594   0.910   1.256   0.766  0.8100  2.9777  2.3497
  199SOL     OW  595   2.450   0.758   1.673  0.5990  0.0498 -0.7509
  199SOL    HW1  596   2.449   0.739   1.773 -1.9957  1.1064  0.8296
  199SOL    HW2  597   2.536   0.810   1.645  2.0930  0.8553 -1.9876
  200SOL     OW  598   2.498   2.679   2.331  0.5203  0.1682 -0.4537
  200SOL    HW1  599   2.461   2.775   2.316  0.7686  1.8540  2.1274
  200SOL    HW2  600   2.431   2.634   2.399  0.7593 -0.0536  3.4674
  201SOL     OW  601   2.748   0.034   1.233  0.3758 -0.1523  0.3505
  201SOL    HW1  602   2.701   3.092   1.314 -1.5186  0.4882  4.5784
  201SOL    HW2  603   2.675   0.056   1.162  1.7015  2.8049 -2.4192
  202SOL     OW  604   1.993   0.475   0.732  0.0255 -0.1330 -0.1915
  202SOL    HW1  605   1.939   0.557   0.712  1.2378  0.5688  0.4570
  202SOL    HW2  606   1.947   0.390   0.710  0.5575 -0.8836 -0.3405
  203SOL     OW  607   1.632   1.724   2.099  0.4357  0.9690  0.6360
  203SOL    HW1  608   1.693   1.794   2.052 -0.2055 -0.1761  0.3819
  203SOL    HW2  609   1.626   1.743   2.199 -1.1624  2.0493 -2.0310
  204SOL     OW  610   0.913   1.715   2.395 -0.3974 -0.3268  0.2328
  204SOL    HW1  611   0.912   1.645   2.464 -0.0128  1.6140 -0.6003
  204SOL    HW2  612   1.001   1.769   2.398 -0.8150  2.4479  1.6204
  205SOL     OW  613   0.774   1.778   1.397  0.4681  0.1474 -0.2873
  205SOL    HW1  614   0.824   1.702   1.349  0.6875 -2.1128  3.1339
  205SOL    HW2  615   0.694   1.732   1.439  1.4969  0.0083  0.8881
  206SOL     OW  616   2.812   0.547   2.957  0.0247  0.0332 -0.0697
  206SOL    HW1  617   2.851   0.477   2.893  0.5333 -0.5726 -0.1288
  206SOL    HW2  618   2.747   0.500   3.017 -0.0252  1.0471 -1.1949
  207SOL     OW  619   1.636   2.538   2.150 -0.0736  0.0351  0.3792
  207SOL    HW1  620   1.704   2.614   2.157 -0.9352 -0.6021  0.5292
  207SOL    HW2  621   1.664   2.478   2.067  4.2643 -2.4372 -1.8666
  208SOL     OW  622   0.658   2.392   1.338  0.4824 -0.0260  0.0155
  208SOL    HW1  623   0.693   2.484   1.340 -0.4130  2.1314 -0.1766
  208SOL    HW2  624   0.594   2.379   1.264  1.5254  2.6306  1.5823
  209SOL     OW  625   1.304   1.176   2.125  0.1237  0.0346  0.3888
  209SOL    HW1  626   1.371   1.241   2.079 -1.7059 -1.9054 -1.7596
  209SOL    HW2  627   1.297   1.204   2.224  0.3872 -0.7273  0.1441
  210SOL     OW  628   1.881   0.939   1.356  0.0021  0.4654  0.6698
  210SOL    HW1  629   1.940   0.959   1.278  0.3701 -2.1512 -1.3045
  210SOL    HW2  630   1.785   0.928   1.324  0.2654  0.5640 -2.3774
  211SOL     OW  631   0.824   2.855   0.584  0.5398 -0.3311 -0.2150
  211SOL    HW1  632   0.796   2.947   0.550  0.4278  1.4917 -2.0077
  211SOL    HW2  633   0.895   2.860   0.653 -0.1761 -1.7034 -2.7382
  212SOL     OW  634   1.760   1.659   0.093  0.4158 -0.1793  0.3139
  212SOL    HW1  635   1.767   1.755   0.070  0.3724  1.9855  0.0008
  212SOL    HW2  636   1.838   1.598   0.067 -1.9884 -0.1129  0.2196
  213SOL     OW  637   1.451   0.114   2.572 -0.2679 -0.5754 -0.1638
  213SOL    HW1  638   1.453   0.214   2.558 -0.9300 -0.8854 -0.6772
  213SOL    HW2  639   1.516   0.092   2.647 -0.6816 -1.5286  0.0437
  214SOL     OW  640   1.397   1.746   1.986  0.8516  0.2989  0.3473
  214SOL    HW1  641   1.481   1.736   2.044 -1.7717  1.3179 -0.1071
  214SOL    HW2  642   1.316   1.706   2.036 -2.4027 -1.3745  0.0721
  215SOL     OW  643   0.686   1.853   0.181 -0.4193  0.2843 -0.3970
  215SOL    HW1  644   0.747   1.934   0.186 -1.5302 -2.3822  0.0673
  215SOL    HW2  645   0.687   1.807   0.273  0.2185 -0.8925  3.3236
  216SOL     OW  646   0.244   2.927   2.371 -0.3349 -0.2438  0.0211
  216SOL    HW1  647   0.336   2.965   2.348  1.8211  1.2678 -0.4664
  216SOL    HW2  648   0.246   2.889   2.463  2.9898  2.3589 -1.2907
  217SOL     OW  649   2.335   1.125   0.833 -0.3816  0.4840 -0.2770
  217SOL    HW1  650   2.379   1.214   0.830 -2.3549 -2.2564  0.2176
  217SOL    HW2  651   2.234   1.132   0.857 -1.2256 -0.0209 -0.7303
  218SOL     OW  652   1.801   1.551   1.798 -0.2512 -0.0588  0.3344
  218SOL    HW1  653   1.807   1.538   1.903  0.4542 -2.0353  3.5178
  218SOL    HW2  654   1.889   1.587   1.755 -0.4236  1.3732  0.0878
  219SOL     OW  655   1.835   1.242   2.866 -1.0909  0.0836  0.0942
  219SOL    HW1  656   1.866   1.318   2.802  1.6471 -0.9742  1.4984
  219SOL    HW2  657   1.732   1.241   2.877 -0.2005  0.1937 -0.4644
  220SOL     OW  658   1.381   1.578   1.013  0.1287 -0.0977 -0.4692
  220SOL    HW1  659   1.383   1.669   1.057 -1.6252  0.9416  1.0057
  220SOL    HW2  660   1.329   1.585   0.926  0.9426  0.2924  2.4364
  221SOL     OW  661   0.896   0.586   2.911 -0.4300  0.3689  0.6612
  221SOL    HW1  662   0.862   0.672   2.872  1.5570  0.4825  1.3108
  221SOL    HW2  663   0.819   0.540   2.958 -0.2874 -0.7931 -3.3179
  222SOL     OW  664   0.904   1.481   0.594 -0.0255  0.1728  0.1104
  222SOL    HW1  665   0.885   1.495   0.691  0.8028 -0.4670 -2.1063
  222SOL    HW2  666   0.841   1.412   0.551 -3.1068  0.0140 -1.6505
  223SOL     OW  667   0.920   2.908   2.913 -0.4692  0.3059  0.2388
  223SOL    HW1  668   0.999   2.940   2.854  1.0291  0.8365 -0.5683
  223SOL    HW2  669   0.897   2.984   2.979  0.4363  1.1298  0.2910
  224SOL     OW  670   2.565   0.345   1.436 -0.5326  0.2390  0.3607
  224SOL    HW1  671   2.482   0.389   1.476  2.4994  0.3053 -0.3641
  224SOL    HW2  672   2.553   0.243   1.440 -1.3519 -0.5433 -0.1979
  225SOL     OW  673   0.762   0.364   1.391  0.9781  0.5658 -0.4358
  225SOL    HW1  674   0.750   0.445   1.326  0.2148  0.5156 -3.4593
  225SOL    HW2  675   0.848   0.365   1.440 -0.7014 -1.5755 -0.6098
  226SOL     OW  676   1.477   1.483   2.805  0.3261  0.3395  0.6797
  226SOL    HW1  677   1.439   1.525   2.718  1.4006 -0.9796 -2.4155
  226SOL    HW2  678   1.428   1.523   2.888 -0.9809 -0.8401  0.0029
  227SOL     OW  679   0.957   1.605   1.252  0.2443 -0.3172  0.1158
  227SOL    HW1  680   0.937   1.536   1.184  0.7289  2.9532  2.2216
  227SOL    HW2  681   1.042   1.586   1.304 -0.0379  1.6425  0.3437
  228SOL     OW  682   0.562   1.701   0.664 -0.1569 -0.4911 -0.2700
  228SOL    HW1  683   0.507   1.617   0.673  0.3722  1.8403 -0.0822
  228SOL    HW2  684   0.561   1.766   0.741  2.7658 -0.8211 -3.4723
  229SOL     OW  685   1.147   0.388   0.120  0.2093 -0.1881 -0.4615
  229SOL    HW1  686   1.134   0.472   0.060  1.3089 -0.1611 -0.8605
  229SOL    HW2  687   1.106   0.410   0.210  1.2437  2.5228  0.1212
  230SOL     OW  688   1.047   0.654   2.183  0.6535 -0.1127  0.3374
  230SOL    HW1  689   0.977   0.578   2.186 -0.6388  1.4127 -0.0937
  230SOL    HW2  690   1.137   0.619   2.208 -0.6085  0.6406  0.0439
  231SOL     OW  691   1.141   1.875   2.401  0.5465 -0.1265 -0.3364
  231SOL    HW1  692   1.094   1.925   2.476 -1.5696  1.2733  2.7288
  231SOL    HW2  693   1.209   1.937   2.361  0.7770 -0.4750  2.3029
  232SOL     OW  694   2.289   1.887   1.040  0.4199  0.5024 -0.1919
  232SOL    HW1  695   2.366   1.825   1.012 -0.0318 -0.2442 -0.3050
  232SOL    HW2  696   2.233   1.834   1.101 -0.0838  0.7835  1.6160
  233SOL     OW  697   2.474   3.008   0.334 -0.5723 -0.2889 -0.1082
  233SOL    HW1  698   2.384   3.052   0.324 -0.0599 -2.9929 -1.3946
  233SOL    HW2  699   2.498   2.941   0.262  3.5216  1.6187 -1.0323
  234SOL     OW  700   0.999   0.200   2.759 -0.5409  0.0234  0.3318
  234SOL    HW1  701   1.076   0.152   2.710 -0.5501  0.0447  2.4183
  234SOL    HW2  702   1.002   0.199   2.862  0.2874  0.5397  2.3568
  235SOL     OW  703   2.450   0.003   2.820 -0.1287  0.0673 -0.5236
  235SOL    HW1  704   2.490   3.054   2.901  2.9957 -2.3994 -0.8194
  235SOL    HW2  705   2.478   3.048   2.743 -1.3934 -1.6717 -1.0322
  236SOL     OW  706   2.182   2.541   2.298  0.4521 -0.3692  0.1464
  236SOL    HW1  707   2.231   2.595   2.374  0.9991  2.3915  3.4378
  236SOL    HW2  708   2.106   2.483   2.335  1.3684 -1.7547  0.7062
  237SOL     OW  709   0.936   1.453   2.065 -0.2094 -0.0008  0.0606
  237SOL    HW1  710   0.991   1.536   2.043  0.1541 -2.8365  2.1035
  237SOL    HW2  711   0.968   1.413   2.154  1.1404 -0.3984  3.0265
  238SOL     OW  712   1.986   0.157   2.411 -0.3117  0.1218 -0.2864
  238SOL    HW1  713   1.910   0.101   2.449  0.5367 -1.7721  2.3651
  238SOL    HW2  714   2.073   0.110   2.389  0.4346 -0.2416  0.8392
  239SOL     OW  715   3.046   1.908   1.626  0.1384  0.3216 -0.3300
  239SOL    HW1  716   0.032   1.855   1.631 -0.8873 -1.7483 -1.2444
  239SOL    HW2  717   3.003   1.895   1.716  0.6798 -0.0158  1.0119
  240SOL     OW  718   2.862   2.581   0.681 -0.0251  0.0431  0.5877
  240SOL    HW1  719   2.872   2.479   0.662  1.0572  0.1725 -1.5421
  240SOL    HW2  720   2.848   2.631   0.595 -2.6596  0.1079 -1.3701
  241SOL     OW  721   2.012   1.491   0.665  0.0996 -0.8039  0.0253
  241SOL    HW1  722   1.990   1.488   0.565 -0.0694 -1.6354 -1.6294
  241SOL    HW2  723   1.974   1.408   0.711 -0.7759 -1.1363  1.5884
  242SOL     OW  724   1.509   1.798   2.598 -0.2564  0.3119 -0.0102
  242SOL    HW1  725   1.436   1.732   2.617  1.0349 -2.4134  1.2710
  242SOL    HW2  726   1.529   1.858   2.680  0.9610 -0.9383  0.0772
  243SOL     OW  727   0.554   2.533   1.900  0.2445  0.2561 -0.2000
  243SOL    HW1  728   0.591   2.599   1.971  0.6057 -0.0305  0.9598
  243SOL    HW2  729   0.522   2.591   1.820 -1.3524 -0.8760 -0.6088
  244SOL     OW  730   2.048   0.033   2.850 -0.1545 -0.1816 -0.1717
  244SOL    HW1  731   2.088   0.115   2.821 -0.8904 -2.4965 -1.3142
  244SOL    HW2  732   2.032   3.070   2.773  3.8095 -1.5013 -1.0834
  245SOL     OW  733   1.452   2.922   0.867  0.1799  0.0003 -0.1266
  245SOL    HW1  734   1.416   2.970   0.952 -2.6687  1.3684 -2.1446
  245SOL    HW2  735   1.378   2.899   0.798 -0.2612  0.2004 -1.9630
  246SOL     OW  736   1.602   2.652   0.186  0.4755  0.0932 -0.2573
  246SOL    HW1  737   1.665   2.684   0.259  1.7425  1.0588 -0.7851
  246SOL    HW2  738   1.648   2.624   0.099 -1.1977  1.6685  2.1669
  247SOL     OW  739   0.885   0.428   2.196 -0.1372 -0.8315 -0.0564
  247SOL    HW1  740   0.790   0.414   2.162  1.5155 -0.9288  0.9531
  247SOL    HW2  741   0.892   0.397   2.292 -1.3890  0.0951 -0.0567
  248SOL     OW  742   0.710   1.640   2.065  0.0896 -0.2159 -0.0285
  248SOL    HW1  743   0.760   1.555   2.089 -0.8727  0.2412  0.6398
  248SOL    HW2  744   0.767   1.687   1.992  1.3784  0.9304  0.2048
  249SOL     OW  745   2.387   0.475   0.422 -0.3907 -0.6896  0.8257
  249SOL    HW1  746   2.380   0.381   0.459  0.6293 -1.6365  0.0473
  249SOL    HW2  747   2.304   0.531   0.442 -0.7338  1.0192  1.3516
  250SOL     OW  748   0.527   0.233   0.824 -0.0875 -0.4863  0.2780
  250SOL    HW1  749   0.445   0.193   0.864  0.5020  0.2865 -2.6915
  250SOL    HW2  750   0.594   0.166   0.786  2.2346  2.5279  0.8426
  251SOL     OW  751   1.662   0.121   2.767  0.2151  0.4309 -0.4238
  251SOL    HW1  752   1.732   0.187   2.737 -2.3716  0.6761  2.6328
  251SOL    HW2  753   1.698   0.040   2.818 -0.3302  1.7043  2.4201
  252SOL     OW  754   1.728   1.484   2.059  0.3964  0.2744  0.1603
  252SOL    HW1  755   1.814   1.478   2.109 -0.1818  0.9083 -0.5594
  252SOL    HW2  756   1.683   1.574   2.073 -1.2426 -2.0533  0.9317
  253SOL     OW  757   2.630   2.443   1.805 -0.1236  0.3845 -0.3446
  253SOL    HW1  758   2.691   2.521   1.824 -2.6544 -2.4162 -0.3291
  253SOL    HW2  759   2.685   2.357   1.803  1.5796  0.2763  2.3523
  254SOL     OW  760   3.079   1.340   1.165 -0.7726 -0.7789 -0.3620
  254SOL    HW1  761   3.018   1.262   1.159  2.5363  1.5963  1.5548
  254SOL    HW2  762   3.098   1.359   1.261  1.3216  0.5864 -2.8146
  255SOL     OW  763   0.799   0.752   1.412  0.3689 -0.3644  0.3346
  255SOL    HW1  764   0.832   0.696   1.488  2.0281 -1.9466 -1.1776
  255SOL    HW2  765   0.772   0.689   1.336 -0.2410 -0.5872  3.9032
  256SOL     OW  766   1.858   2.439   1.645 -0.2130 -0.5167 -0.5584
  256SOL    HW1  767   1.904   2.511   1.697  0.4913  0.7489 -0.3022
  256SOL    HW2  768   1.871   2.347   1.684 -3.6441  0.5053 -0.5449
  257SOL     OW  769   0.549   2.614   2.853 -0.0947  0.2321  0.2497
  257SOL    HW1  770   0.624   2.652   2.800  0.0664 -1.5473  0.1236
  257SOL    HW2  771   0.534   2.519   2.826 -0.3594  1.5038  0.0467
  258SOL     OW  772   0.766   2.399   0.236 -0.5302  0.0710  0.0750
  258SOL    HW1  773   0.698   2.336   0.269  1.8106  2.4484  0.0065
  258SOL    HW2  774   0.756   2.485   0.285  0.2612 -1.7490 -1.3188
  259SOL     OW  775   1.027   3.066   2.098  0.0715  0.2329  0.0991
  259SOL    HW1  776   1.055   0.048   2.054 -2.5745  0.3732  2.2206
  259SOL    HW2  777   0.924   3.057   2.095 -0.5817  0.1058  0.4312
  260SOL     OW  778   1.720   0.643   1.192 -0.7816 -0.2233  0.2423
  260SOL    HW1  779   1.728   0.562   1.256 -1.0083 -0.2999 -1.9983
  260SOL    HW2  780   1.691   0.722   1.252  1.5194 -2.9214  0.5740
  261SOL     OW  781   0.681   0.532   2.585  0.1941  0.8011  0.2961
  261SOL    HW1  782   0.640   0.528   2.683 -1.9886 -0.2778  2.9377
  261SOL    HW2  783   0.780   0.509   2.594 -0.4453  0.2158  1.2806
  262SOL     OW  784   0.131   2.368   1.975  0.4142  0.4282  0.1851
  262SOL    HW1  785   0.114   2.443   2.037  2.6510  1.0208  0.2487
  262SOL    HW2  786   0.121   2.283   2.028  0.5049  0.9202  0.4123
  263SOL     OW  787   2.982   1.551   2.309  0.6544 -0.2478  0.3093
  263SOL    HW1  788   3.050   1.499   2.252 -1.2237 -0.3945  1.8001
  263SOL    HW2  789   3.012   1.567   2.408  1.1180 -0.4552  2.8719
  264SOL     OW  790   0.442   1.012   0.955  0.0310  0.4980 -0.1552
  264SOL    HW1  791   0.418   1.063   0.869  0.8023 -1.1272  1.3049
  264SOL    HW2  792   0.363   0.966   0.999 -1.8765  1.2763  1.7729
  265SOL     OW  793   1.087   2.405   0.867  0.0714 -0.1601  0.0530
  265SOL    HW1  794   1.091   2.395   0.969 -0.4633  2.3431 -2.4427
  265SOL    HW2  795   1.179   2.427   0.837  0.9810 -1.0270  1.7355
  266SOL     OW  796   1.545   1.087   0.935  0.0116 -0.1280 -0.1820
  266SOL    HW1  797   1.565   1.137   1.022 -0.7616  0.0405 -3.6346
  266SOL    HW2  798   1.565   1.147   0.856  1.2320 -2.2339  1.2302
  267SOL     OW  799   2.706   1.181   3.085  0.6552  0.3457  0.5755
  267SOL    HW1  800   2.740   1.138   0.067 -2.5512 -0.2070 -1.5376
  267SOL    HW2  801   2.669   1.110   3.020 -0.0711 -1.8047 -0.6982
  268SOL     OW  802   1.565   0.477   0.354  0.6203  0.1954 -0.1732
  268SOL    HW1  803   1.601   0.432   0.270  3.0539  0.0137  1.2125
  268SOL    HW2  804   1.544   0.573   0.340  1.1326  0.8597  3.5802
  269SOL     OW  805   2.122   0.632   2.887 -0.4130  0.3525 -0.4526
  269SOL    HW1  806   2.185   0.637   2.967  4.9342  1.9785  3.5856
  269SOL    HW2  807   2.032   0.673   2.913  2.4287  1.2839 -1.3855
  270SOL     OW  808   0.130   0.991   0.135  0.4735  0.2339  0.3162
  270SOL    HW1  809   0.159   1.064   0.068  0.0434  3.6137  1.7048
  270SOL    HW2  810   0.165   0.899   0.107 -1.9327 -2.7486 -0.9447
  271SOL     OW  811   2.630   0.830   0.271 -0.4618  0.2448 -0.1177
  271SOL    HW1  812   2.636   0.861   0.369  2.5762 -0.7365  0.7145
  271SOL    HW2  813   2.694   0.894   0.225 -1.8847 -2.3028 -1.1382
  272SOL     OW  814   3.012   2.684   0.183  0.1203  0.0065 -0.6955
  272SOL    HW1  815   2.951   2.637   0.115 -1.4011 -1.0814  1.6872
  272SOL    HW2  816   3.095   2.628   0.195 -0.3099 -0.9284 -0.5000
  273SOL     OW  817   2.777   3.006   0.157  0.7536  0.2370  0.2576
  273SOL    HW1  818   2.870   2.973   0.173 -0.5557 -0.8921 -0.5452
  273SOL    HW2  819   2.746   3.068   0.232  1.8844  0.8456  2.5873
  274SOL     OW  820   0.532   2.424   1.031  0.2988  0.0423  0.1854
  274SOL    HW1  821   0.589   2.499   1.046 -1.5575 -2.1366 -1.3612
  274SOL    HW2  822   0.589   2.343   1.004  1.1221  2.5025 -1.0770
  275SOL     OW  823   2.892   1.300   0.327  0.4190 -0.2152 -0.2759
  275SOL    HW1  824   2.949   1.307   0.244 -0.9826 -2.6411  0.0608
  275SOL    HW2  825   2.900   1.206   0.364 -0.1458 -2.9154 -0.3963
  276SOL     OW  826   2.957   1.122   1.790  0.3249 -0.2363 -0.1315
  276SOL    HW1  827   2.922   1.031   1.760  1.8611  0.9276  0.1720
  276SOL    HW2  828   3.040   1.151   1.733 -2.3989  3.1667 -0.7541
  277SOL     OW  829   2.335   0.124   1.181 -0.2497 -0.2837  0.2548
  277SOL    HW1  830   2.280   0.049   1.134  1.7110 -0.4515 -1.1659
  277SOL    HW2  831   2.320   0.210   1.138 -1.3450  0.6433  1.7910
  278SOL     OW  832   1.526   2.568   2.518  0.2166  0.1328 -0.0557
  278SOL    HW1  833   1.448   2.623   2.498  1.5406 -2.4149 -1.0968
  278SOL    HW2  834   1.490   2.476   2.553 -1.6286 -0.9381  1.0177
  279SOL     OW  835   1.625   1.798   0.485  0.3871 -0.3957  0.1536
  279SOL    HW1  836   1.720   1.777   0.445 -1.1793  0.1684  0.8638
  279SOL    HW2  837   1.553   1.811   0.412 -1.9531  2.0438 -0.4965
  280SOL     OW  838   0.203   1.488   1.096  0.1175  0.3679  0.0128
  280SOL    HW1  839   0.230   1.584   1.104 -1.5910  1.1414 -2.0576
  280SOL    HW2  840   0.106   1.472   1.135 -1.7308 -0.0688  1.3773
  281SOL     OW  841   0.097   0.881   2.332  0.0155  0.4530  0.1221
  281SOL    HW1  842   0.084   0.780   2.313  0.3704 -0.9692 -2.9269
  281SOL    HW2  843   0.115   0.895   2.431 -1.2346 -1.5090 -2.6137
  282SOL     OW  844   0.647   1.375   0.542  0.7889 -1.4528  0.2014
  282SOL    HW1  845   0.572   1.443   0.549 -1.5473  0.7567  1.7008
  282SOL    HW2  846   0.647   1.313   0.620  1.1145 -0.0528 -2.7630
  283SOL     OW  847   2.010   2.334   0.209  0.3254 -0.2171  0.1432
  283SOL    HW1  848   1.986   2.368   0.300  2.2136 -0.2266  0.4570
  283SOL    HW2  849   2.093   2.381   0.175  0.9857  1.0805 -0.3296
  284SOL     OW  850   1.098   0.233   0.425  0.4269 -0.3623  0.0803
  284SOL    HW1  851   1.085   0.146   0.368 -0.0524 -1.1418 -2.3755
  284SOL    HW2  852   1.016   0.293   0.418  0.6588  1.3387  0.8755
  285SOL     OW  853   2.275   1.077   2.894  0.4458 -0.1347 -0.4033
  285SOL    HW1  854   2.320   0.987   2.912 -3.1343 -3.6123  0.0772
  285SOL    HW2  855   2.338   1.154   2.903  0.3300  0.4067  0.7031
  286SOL     OW  856   1.894   2.167   1.097 -0.3951 -0.6939 -0.0237
  286SOL    HW1  857   1.828   2.241   1.130  1.4342  0.5307 -1.0522
  286SOL    HW2  858   1.853   2.076   1.110 -0.2390 -0.1557  2.5706
  287SOL     OW  859   1.246   0.442   0.675  0.1096 -0.0251  0.5951
  287SOL    HW1  860   1.264   0.450   0.578  0.8668  0.2270  1.5560
  287SOL    HW2  861   1.310   0.488   0.738 -0.6994  1.6265  0.6896
  288SOL     OW  862   1.199   2.325   2.789  0.2087 -0.4997  0.5672
  288SOL    HW1  863   1.099   2.334   2.798  1.9209 -1.5513 -0.1127
  288SOL    HW2  864   1.256   2.353   2.870 -1.2784 -1.2935  0.3143
  289SOL     OW  865   3.049   1.365   1.436 -0.5062 -0.0333 -0.3078
  289SOL    HW1  866   3.098   1.447   1.469  0.2993 -1.1099 -2.8336
  289SOL    HW2  867   3.074   1.286   1.494 -0.1786 -1.9971  2.5585
  290SOL     OW  868   1.626   2.143   0.850  0.3937  0.3520 -0.5398
  290SOL    HW1  869   1.607   2.089   0.931  1.0020 -0.5234 -0.6761
  290SOL    HW2  870   1.717   2.113   0.816 -2.1371  0.0773  1.1891
  291SOL     OW  871   1.759   3.037   0.105  0.2697  0.3768  0.6368
  291SOL    HW1  872   1.725   3.083   0.188  0.3912  1.9993 -0.7161
  291SOL    HW2  873   1.819   2.957   0.130  0.5714  0.0452  1.7605
  292SOL     OW  874   0.746   0.192   1.738 -0.4459  0.4020 -0.5039
  292SOL    HW1  875   0.807   0.211   1.816 -2.4303 -1.2883 -4.2843
  292SOL    HW2  876   0.656   0.238   1.742  1.3468 -0.6913  1.1499
  293SOL     OW  877   2.473   2.290   0.944  0.2206 -0.1178  0.5088
  293SOL    HW1  878   2.445   2.359   0.872 -3.1297  2.7883 -2.2641
  293SOL    HW2  879   2.513   2.338   1.024 -2.1266  0.6966  0.8642
  294SOL     OW  880   0.625   0.807   2.198  0.6972 -0.5484 -0.4765
  294SOL    HW1  881   0.554   0.749   2.244  0.0515 -1.1966  2.3070
  294SOL    HW2  882   0.614   0.805   2.096 -0.5484  1.8150  1.8466
  295SOL     OW  883   1.662   1.503   1.029  0.0527  0.0410  0.2688
  295SOL    HW1  884   1.569   1.535   1.012 -0.9721 -2.0204 -0.4411
  295SOL    HW2  885   1.719   1.539   0.949  1.1338 -1.3047 -1.6025
  296SOL     OW  886   2.599   1.676   0.286  0.2313 -0.1553 -0.1103
  296SOL    HW1  887   2.653   1.703   0.201  0.5261  0.4852 -2.2288
  296SOL    HW2  888   2.513   1.730   0.300 -0.6847  1.0806  2.2506
  297SOL     OW  889   1.868   0.236   0.308  0.3458  0.0758 -0.2433
  297SOL    HW1  890   1.961   0.274   0.291  0.1870 -0.1237  1.4898
  297SOL    HW2  891   1.795   0.273   0.245 -1.2011 -0.6559 -1.0662
  298SOL     OW  892   0.762   2.744   2.733 -0.7854 -0.0983  0.3724
  298SOL    HW1  893   0.823   2.728   2.650  2.2897  1.4281 -0.0338
  298SOL    HW2  894   0.816   2.786   2.808  3.0811 -0.3076 -1.2078
  299SOL     OW  895   1.234   2.198   2.095  0.0045  0.1332 -0.1595
  299SOL    HW1  896   1.175   2.265   2.047  1.6015 -0.7198  1.5579
  299SOL    HW2  897   1.216   2.203   2.197 -0.1216  0.2664 -0.7104
  300SOL     OW  898   2.716   0.086   2.789  0.0150 -0.0713 -0.2141
  300SOL    HW1  899   2.773   0.075   2.879 -1.0222  2.7773  0.3305
  300SOL    HW2  900   2.621   0.084   2.820 -3.0584 -0.4348 -1.0563
  301SOL     OW  901   0.934   1.178   1.917 -0.2939 -0.3977  0.2939
  301SOL    HW1  902   0.972   1.258   1.869  1.6917  0.0621  2.5941
  301SOL    HW2  903   1.007   1.106   1.933 -0.2017  1.6244 -2.9279
  302SOL     OW  904   2.639   2.323   0.533  0.2536 -0.3650  0.0721
  302SOL    HW1  905   2.631   2.414   0.496  1.3559 -0.4530  2.7836
  302SOL    HW2  906   2.551   2.277   0.532 -0.3213 -1.4776  0.0211
  303SOL     OW  907   2.430   2.292   1.910  0.0447  0.2055  0.2309
  303SOL    HW1  908   2.506   2.354   1.876  0.1032  0.9407  1.9508
  303SOL    HW2  909   2.404   2.313   2.004  0.7209 -0.2895 -3.0675
  304SOL     OW  910   2.978   0.841   1.718 -0.2505 -0.4509  0.1511
  304SOL    HW1  911   2.916   0.797   1.785  0.8596  1.1232 -1.8009
  304SOL    HW2  912   2.970   0.811   1.619 -0.6678  1.7898 -0.3655
  305SOL     OW  913   0.457   1.431   1.462 -0.3657 -0.2704  0.3704
  305SOL    HW1  914   0.547   1.408   1.502  1.9910  4.1262 -0.6555
  305SOL    HW2  915   0.429   1.370   1.389  0.7948  1.0911  0.5277
  306SOL     OW  916   0.253   1.372   1.943 -0.3638  0.2544  0.1598
  306SOL    HW1  917   0.275   1.273   1.928  0.7754 -0.0158 -0.3678
  306SOL    HW2  918   0.308   1.399   2.027  1.2516 -0.7783 -0.2110
  307SOL     OW  919   0.886   0.618   1.866 -0.2877  0.1216  0.0965
  307SOL    HW1  920   0.897   0.625   1.763  0.4902  1.8023 -1.7983
  307SOL    HW2  921   0.973   0.643   1.907 -2.3303 -1.3399 -2.8855
  308SOL     OW  922   2.909   1.124   1.141 -0.1707  0.3640 -0.2432
  308SOL    HW1  923   2.871   1.094   1.234  1.6125 -0.1793  0.6588
  308SOL    HW2  924   2.859   1.077   1.062 -1.0487  0.1246  2.7787
  309SOL     OW  925   2.581   1.301   1.092 -0.0653 -0.0152 -0.1124
  309SOL    HW1  926   2.595   1.276   1.193 -1.1753 -0.9508  3.9811
  309SOL    HW2  927   2.671   1.315   1.037  5.0718  2.1870  0.0361
  310SOL     OW  928   2.768   2.320   2.676 -0.1097  0.1240  0.2482
  310SOL    HW1  929   2.790   2.268   2.763  2.2581 -3.5161  0.3838
  310SOL    HW2  930   2.732   2.259   2.602 -2.3636 -2.1986 -1.9857
  311SOL     OW  931   2.657   2.785   2.813 -0.3702  0.3820 -0.2001
  311SOL    HW1  932   2.751   2.821   2.829  0.8832  1.6209  1.5340
  311SOL    HW2  933   2.593   2.834   2.746 -0.5334 -0.1448 -0.6321
  312SOL     OW  934   2.104   1.764   0.197 -0.2659  0.7657  0.2787
  312SOL    HW1  935   2.083   1.849   0.144 -0.3252 -0.0514  0.9204
  312SOL    HW2  936   2.132   1.690   0.134  0.4457  0.8703  1.9875
  313SOL     OW  937   2.578   2.972   0.586 -0.0046  0.2887 -0.1183
  313SOL    HW1  938   2.530   2.968   0.498  2.2342 -1.0818  1.6558
  313SOL    HW2  939   2.674   2.949   0.568 -1.7143 -1.2109  0.8356
  314SOL     OW  940   1.617   1.183   0.093  0.3779 -0.5294 -0.8127
  314SOL    HW1  941   1.573   1.202   3.102  1.0077  0.5449  0.3145
  314SOL    HW2  942   1.610   1.268   0.150 -1.9152 -1.3643  0.5930
  315SOL     OW  943   1.359   2.783   1.955 -0.7610  0.5784  0.0703
  315SOL    HW1  944   1.272   2.766   1.997  0.5094  0.0953  1.1728
  315SOL    HW2  945   1.367   2.878   1.923 -1.0059  1.7164  1.3036
  316SOL     OW  946   2.876   0.802   2.921 -0.3057 -0.1508  0.1551
  316SOL    HW1  947   2.903   0.838   3.016 -3.0043  0.3238  1.7916
  316SOL    HW2  948   2.820   0.716   2.931 -0.0133 -2.2941 -0.1759
  317SOL     OW  949   0.560   2.917   0.311  0.0185  0.3899 -0.0988
  317SOL    HW1  950   0.476   2.871   0.336  1.1222  1.1794 -0.9250
  317SOL    HW2  951   0.561   2.942   0.208 -0.7822 -0.4804  0.9457
  318SOL     OW  952   2.170   2.764   0.652 -0.4831  0.8015 -0.4946
  318SOL    HW1  953   2.143   2.669   0.675 -0.7702 -1.3689  0.7179
  318SOL    HW2  954   2.140   2.793   0.559 -1.5874  1.2977  0.5095
  319SOL     OW  955   0.989   1.950   2.821 -0.4426 -1.1227 -0.0902
  319SOL    HW1  956   0.970   2.010   2.905 -1.3750 -0.0254  4.0916
  319SOL    HW2  957   0.932   1.866   2.829  1.9223 -0.3279  2.4538
  320SOL     OW  958   0.537   2.128   1.814 -0.2963  0.3491 -0.1282
  320SOL    HW1  959   0.489   2.188   1.883 -1.3987  0.6027  4.5123
  320SOL    HW2  960   0.526   2.031   1.851  0.3543 -1.4629  2.7115
  321SOL     OW  961   1.410   3.045   2.362 -0.7649  0.1979  0.7193
  321SOL    HW1  962   1.414   3.101   2.445 -0.0210  1.6005 -2.3508
  321SOL    HW2  963   1.505   3.017   2.342 -1.5700  1.6742  0.8429
  322SOL     OW  964   2.810   1.488   2.052 -0.0358  0.0315 -0.3065
  322SOL    HW1  965   2.891   1.496   2.110 -2.8503 -2.7999 -2.8547
  322SOL    HW2  966   2.721   1.473   2.096 -1.4398  1.2314 -0.5483
  323SOL     OW  967   2.399   1.076   1.124  0.0590 -0.1471  0.1071
  323SOL    HW1  968   2.377   1.050   1.024 -0.4713 -1.5395 -1.2078
  323SOL    HW2  969   2.469   1.144   1.131 -2.9210  0.1172 -0.3269
  324SOL     OW  970   2.731   0.194   2.260 -0.6112  0.0061  0.1112
  324SOL    HW1  971   2.742   0.214   2.359 -0.0996  0.0176 -0.4331
  324SOL    HW2  972   2.633   0.213   2.232 -0.7133  1.3024 -1.0191
  325SOL     OW  973   1.168   0.795   2.681  0.1522  0.1482  0.0108
  325SOL    HW1  974   1.185   0.697   2.667  0.9451  0.5590 -1.8224
  325SOL    HW2  975   1.075   0.822   2.652  1.7356  1.2252 -1.0716
  326SOL     OW  976   1.841   2.815   1.909  0.1211 -0.0136 -0.5454
  326SOL    HW1  977   1.759   2.819   1.848 -0.3512  1.1184 -0.0858
  326SOL    HW2  978   1.913   2.748   1.876  2.5258  0.8993  0.1131
  327SOL     OW  979   2.101   0.359   0.258  0.2888  0.7593 -0.3017
  327SOL    HW1  980   2.099   0.412   0.346  0.1465 -3.2469 -0.0992
  327SOL    HW2  981   2.197   0.328   0.234  1.7747 -0.1946  0.0301
  328SOL     OW  982   0.206   1.557   2.549 -0.4618  0.0010  0.0767
  328SOL    HW1  983   0.226   1.471   2.497 -0.9117 -0.4266 -0.0498
  328SOL    HW2  984   0.111   1.553   2.581 -0.1012 -1.1438  2.9346
  329SOL     OW  985   1.916   0.001   1.789  0.2984 -0.1356 -0.4075
  329SOL    HW1  986   1.903   3.006   1.784  1.7936  1.3802  0.6433
  329SOL    HW2  987   2.011   0.022   1.760 -0.8212 -0.0605  0.2879
  330SOL     OW  988   0.222   1.412   0.781 -0.3853 -0.0927  0.1372
  330SOL    HW1  989   0.230   1.406   0.886  1.2996  1.5942  2.9438
  330SOL    HW2  990   0.120   1.427   0.756 -0.4512 -2.8394 -2.9177
  331SOL     OW  991   0.255   1.718   2.337  0.2261 -0.1136  0.6618
  331SOL    HW1  992   0.230   1.676   2.428 -0.2433 -0.7825 -0.4414
  331SOL    HW2  993   0.356   1.708   2.323 -0.2843 -0.3044 -1.2133
  332SOL     OW  994   0.103   2.974   1.447  0.1303  0.9777  0.1084
  332SOL    HW1  995   0.105   2.891   1.396 -0.4534  2.4323  1.5279
  332SOL    HW2  996   0.193   2.986   1.500 -0.7653  2.0652  1.4431
  333SOL     OW  997   2.260   0.266   0.789  0.3994 -0.0634 -0.1889
  333SOL    HW1  998   2.169   0.222   0.773  2.2196  1.0169  2.2667
  333SOL    HW2  999   2.272   0.294   0.887 -0.9196  3.4230  2.1986
  334SOL     OW 1000   0.432   2.001   0.605 -0.3778 -0.2440 -0.1778
  334SOL    HW1 1001   0.528   2.011   0.577  0.9980  2.3831  1.1419
  334SOL    HW2 1002   0.377   2.059   0.547  3.0402  0.2802  0.2609
  335SOL     OW 1003   0.156   2.561   0.187  0.2772 -0.1570 -0.1571
  335SOL    HW1 1004   0.108   2.497   0.253 -1.8277 -2.9999  0.3221
  335SOL    HW2 1005   0.235   2.513   0.141 -0.3303 -1.2746 -0.1127
  336SOL     OW 1006   0.079   0.036   2.435 -0.1394 -0.2326  0.0216
  336SOL    HW1 1007   3.083   0.033   2.399 -1.1544  2.0589 -2.1046
  336SOL    HW2 1008   0.125   3.046   2.411  1.3423 -1.3132  1.3999
  337SOL     OW 1009   2.449   2.302   2.698  0.3691  0.0385 -0.6789
  337SOL    HW1 1010   2.470   2.400   2.715 -0.2209  2.1123 -1.1893
  337SOL    HW2 1011   2.471   2.256   2.788 -0.2669 -2.8084 -1.0388
  338SOL     OW 1012   0.868   0.535   0.668  0.2696 -0.0392  0.7214
  338SOL    HW1 1013   0.878   0.461   0.600  0.3730 -0.0635  0.1825
  338SOL    HW2 1014   0.936   0.529   0.744  0.3092  0.7168  1.6316
  339SOL     OW 1015   0.244   0.740   2.058 -0.8804 -0.1991 -0.4916
  339SOL    HW1 1016   0.222   0.813   2.125 -0.5006 -2.1887 -0.9109
  339SOL    HW2 1017   0.185   0.750   1.975  1.9489  1.4346 -0.6892
  340SOL     OW 1018   1.658   3.039   0.491 -0.0772  0.2134  0.1078
  340SOL    HW1 1019   1.757   3.036   0.455  1.2797  0.2978  1.3065
  340SOL    HW2 1020   1.607   0.015   0.455 -1.5959 -1.0925 -2.9667
  341SOL     OW 1021   2.007   0.957   1.093  0.1318  0.1714  0.0146
  341SOL    HW1 1022   1.947   0.897   1.035 -2.6501  1.0832  2.4585
  341SOL    HW2 1023   2.101   0.915   1.107 -1.2714 -0.6774  1.7888
  342SOL     OW 1024   2.424   2.834   0.119  0.4662  0.2660 -0.6518
  342SOL    HW1 1025   2.365   2.872   0.053  2.7568  1.6936 -0.7010
  342SOL    HW2 1026   2.502   2.785   0.078 -0.8885  2.7106  1.4112
  343SOL     OW 1027   1.388   2.123   1.722 -0.0909 -0.6204 -0.5248
  343SOL    HW1 1028   1.472   2.066   1.743  1.0683  0.2094  1.0644
  343SOL    HW2 1029   1.299   2.077   1.726 -1.9480  1.1620 -3.0540
  344SOL     OW 1030   2.478   2.757   1.145  0.5098 -0.3478 -0.7544
  344SOL    HW1 1031   2.402   2.700   1.100 -1.3331  0.5162 -2.1179
  344SOL    HW2 1032   2.460   2.762   1.245  2.4063 -0.8174  0.1587
  345SOL     OW 1033   2.804   2.315   0.023  0.0489  0.0106 -0.0587
  345SOL    HW1 1034   2.804   2.268   3.028  0.0438 -0.7902 -3.1569
  345SOL    HW2 1035   2.872   2.269   0.083  0.7529 -2.5107  2.4325
  346SOL     OW 1036   2.777   1.469   0.706 -0.0613  0.0391 -0.6379
  346SOL    HW1 1037   2.745   1.457   0.607 -0.4229 -2.1316 -1.5843
  346SOL    HW2 1038   2.753   1.562   0.742  0.9319  2.1436  1.3959
  347SOL     OW 1039   1.789   1.955   1.986 -0.8244  0.3348 -0.3078
  347SOL    HW1 1040   1.806   2.018   2.064 -1.1510 -0.0968 -0.3833
  347SOL    HW2 1041   1.882   1.926   1.956  3.7470 -2.6757 -0.2598
  348SOL     OW 1042   0.653   1.613   2.667 -0.2292  0.3556 -0.2685
  348SOL    HW1 1043   0.635   1.683   2.593  1.4436  1.5955 -2.6491
  348SOL    HW2 1044   0.741   1.639   2.717  0.5669 -2.1289  1.2955
  349SOL     OW 1045   2.434   1.252   1.513  0.3294  0.4494  0.1031
  349SOL    HW1 1046   2.363   1.325   1.488 -1.2542 -0.7779  0.6181
  349SOL    HW2 1047   2.503   1.240   1.439  0.5355  1.7122  0.4815
  350SOL     OW 1048   2.867   2.503   1.213 -0.6829 -0.1043 -0.9343
  350SOL    HW1 1049   2.895   2.409   1.238  0.0504  3.5793 -0.9600
  350SOL    HW2 1050   2.786   2.497   1.154  3.1540 -1.3268  1.0926
  351SOL     OW 1051   0.602   0.100   2.303 -0.3312 -0.0929  0.0006
  351SOL    HW1 1052   0.601   0.187   2.357  1.1363  0.1717  0.9322
  351SOL    HW2 1053   0.694   0.051   2.302  3.7023 -1.9176 -1.8563
  352SOL     OW 1054   0.642   1.672   1.039 -0.7893  0.4154 -0.1926
  352SOL    HW1 1055   0.583   1.690   1.122 -0.1314  0.2962 -1.5716
  352SOL    HW2 1056   0.608   1.611   0.970 -0.7778 -1.0018  1.5922
  353SOL     OW 1057   1.207   1.597   2.316 -0.0638  0.5224  0.0646
  353SOL    HW1 1058   1.192   1.689   2.371  2.7009  0.0618 -0.0098
  353SOL    HW2 1059   1.143   1.584   2.241 -1.4911  1.4515  0.8236
  354SOL     OW 1060   1.220   0.162   0.738 -0.1434 -0.0520  0.2245
  354SOL    HW1 1061   1.266   0.166   0.832  1.4545 -1.0891  1.2140
  354SOL    HW2 1062   1.203   0.256   0.695 -1.4374 -0.8383  0.5568
  355SOL     OW 1063   2.582   1.008   0.485 -0.3989  0.6503  0.0552
  355SOL    HW1 1064   2.529   1.092   0.449 -1.5501  0.5924 -1.2474
  355SOL    HW2 1065   2.515   0.932   0.507 -1.0546 -0.5056  1.0431
  356SOL     OW 1066   2.497   1.751   2.259 -0.1047 -0.0278  0.1608
  356SOL    HW1 1067   2.425   1.718   2.322 -1.9557 -0.9070  0.5185
  356SOL    HW2 1068   2.532   1.844   2.288  0.9516 -0.2928  0.9412
  357SOL     OW 1069   0.559   2.681   1.647  0.4609  0.0829 -0.4795
  357SOL    HW1 1070   0.519   2.748   1.579 -0.8728  2.9211 -0.4400
  357SOL    HW2 1071   0.642   2.730   1.679  0.7371  0.5360  1.1453
  358SOL     OW 1072   2.365   0.664   1.434 -0.0670  0.3239 -0.0258
  358SOL    HW1 1073   2.401   0.693   1.526  1.8404 -0.6912  2.1477
  358SOL    HW2 1074   2.315   0.575   1.440  2.4839 -0.2765 -1.0379
  359SOL     OW 1075   2.261   2.821   2.690 -0.3775  0.1103 -0.2557
  359SOL    HW1 1076   2.197   2.899   2.693  2.3601  1.1860 -0.2612
  359SOL    HW2 1077   2.245   2.764   2.772  0.1146  2.6671 -1.8130
  360SOL     OW 1078   1.074   0.542   0.861  0.1283 -0.1998  0.0016
  360SOL    HW1 1079   1.117   0.597   0.932  1.1303 -2.5995 -2.4105
  360SOL    HW2 1080   1.149   0.503   0.799  1.5090  2.7748 -3.0794
  361SOL     OW 1081   2.132   0.180   1.334  0.5239 -0.2296 -0.3486
  361SOL    HW1 1082   2.186   0.141   1.257 -0.1670 -0.8274  1.3173
  361SOL    HW2 1083   2.047   0.208   1.292  2.5816 -0.5993 -2.8494
  362SOL     OW 1084   1.366   1.251   0.415  0.2424 -0.1932  0.0801
  362SOL    HW1 1085   1.409   1.314   0.346 -0.0836 -0.5986 -0.8124
  362SOL    HW2 1086   1.340   1.290   0.505 -3.2905  1.2005  3.1153
  363SOL     OW 1087   2.299   1.594   2.403  0.0638  0.4474  0.4646
  363SOL    HW1 1088   2.215   1.566   2.449  0.4233  0.0374 -1.7046
  363SOL    HW2 1089   2.325   1.527   2.332  0.5404 -0.0975  0.6526
  364SOL     OW 1090   0.309   0.217   1.308  0.6960 -0.1806 -0.1547
  364SOL    HW1 1091   0.396   0.241   1.367  3.0447  1.2489 -0.0417
  364SOL    HW2 1092   0.225   0.191   1.360 -0.3310 -1.1828 -0.1676
  365SOL     OW 1093   0.289   2.779   0.282 -0.1192  0.0741  0.2662
  365SOL    HW1 1094   0.227   2.715   0.237  0.6770  0.5038  0.9440
  365SOL    HW2 1095   0.325   2.738   0.367 -0.4852  1.1211  1.6809
  366SOL     OW 1096   2.335   1.989   3.073 -0.1751 -0.1280 -0.2223
  366SOL    HW1 1097   2.382   2.002   0.059  0.4029  1.7126 -0.8036
  366SOL    HW2 1098   2.267   2.066   3.063 -0.2129 -0.8211  0.0227
  367SOL     OW 1099   2.601   2.520   2.786 -0.6080  0.2767 -0.3853
  367SOL    HW1 1100   2.631   2.616   2.789 -1.4248 -1.4707 -1.5740
  367SOL    HW2 1101   2.674   2.457   2.750 -1.4519 -1.8368  0.4846
  368SOL     OW 1102   0.232   1.800   0.981  0.1744 -0.5546  0.0516
  368SOL    HW1 1103   0.189   1.840   1.066 -2.6165 -0.0091  3.1409
  368SOL    HW2 1104   0.308   1.851   0.935  1.7614  0.9591 -0.9773
  369SOL     OW 1105   0.887   2.693   3.094 -0.0991  0.1094  0.4668
  369SOL    HW1 1106   0.896   2.774   3.033  2.2292 -0.0736  2.4930
  369SOL    HW2 1107   0.974   2.683   0.045  0.4350 -0.3225 -0.5180
  370SOL     OW 1108   0.133   1.079   0.575 -0.0856  0.3298  0.3263
  370SOL    HW1 1109   0.065   1.109   0.649  1.0298  1.6458  4.1226
  370SOL    HW2 1110   0.143   0.976   0.577  0.4823 -2.0969 -1.2365
  371SOL     OW 1111   2.039   2.620   0.949  0.1696 -0.1598 -0.1552
  371SOL    HW1 1112   1.992   2.644   0.862  0.7920  1.3000 -3.1043
  371SOL    HW2 1113   2.041   2.521   0.960 -0.7634  0.5116  0.5411
  372SOL     OW 1114   0.146   0.910   2.595 -0.3342 -0.0644  0.3661
  372SOL    HW1 1115   0.238   0.958   2.600  0.3663 -0.7062  1.6414
  372SOL    HW2 1116   0.115   0.866   2.681 -0.8273  2.9840 -1.7949
  373SOL     OW 1117   2.998   1.962   0.694 -0.0290 -0.7288  0.0063
  373SOL    HW1 1118   3.036   1.883   0.745 -0.3999 -0.0365  0.9884
  373SOL    HW2 1119   3.056   1.989   0.614  1.5309  1.5453 -2.3831
  374SOL     OW 1120   0.017   2.411   0.393  0.4369  0.0320 -0.1774
  374SOL    HW1 1121   3.035   2.391   0.447 -1.0858  0.4536 -1.3414
  374SOL    HW2 1122   0.094   2.429   0.459  1.9625  2.1087  1.1944
  375SOL     OW 1123   0.415   0.581   0.200 -0.4883  0.4196  0.4773
  375SOL    HW1 1124   0.484   0.634   0.254  2.6892 -2.6099 -1.4386
  375SOL    HW2 1125   0.423   0.485   0.234 -0.8239 -1.0281  2.4475
  376SOL     OW 1126   0.512   2.210   2.201 -1.0613 -0.1389 -0.1090
  376SOL    HW1 1127   0.469   2.249   2.117 -1.2708  0.8365 -1.1910
  376SOL    HW2 1128   0.603   2.261   2.216  0.3013 -0.3699  4.0089
  377SOL     OW 1129   1.678   2.554   2.744  0.2915 -1.4774  0.5241
  377SOL    HW1 1130   1.610   2.548   2.666 -2.1678 -1.1869 -2.9885
  377SOL    HW2 1131   1.775   2.533   2.721  0.8400  1.8470 -2.2837
  378SOL     OW 1132   0.979   1.023   0.452 -0.4251  0.0726 -0.4563
  378SOL    HW1 1133   1.080   1.033   0.466  1.1966 -3.9739  0.2853
  378SOL    HW2 1134   0.947   0.940   0.504  2.4980 -1.2120  1.8080
  379SOL     OW 1135   0.680   1.734   0.424  0.0478  0.1806  0.6509
  379SOL    HW1 1136   0.647   1.712   0.516  0.8547 -1.2420 -0.1860
  379SOL    HW2 1137   0.781   1.706   0.408  3.9603 -1.2077 -0.8412
  380SOL     OW 1138   0.221   2.041   1.418 -0.1721  0.5765 -0.0678
  380SOL    HW1 1139   0.135   2.094   1.440  0.3261 -1.7159 -0.2771
  380SOL    HW2 1140   0.297   2.081   1.469 -1.7670 -1.7744  0.7893
  381SOL     OW 1141   0.479   1.145   1.660  0.3388  0.6858  0.1639
  381SOL    HW1 1142   0.496   1.106   1.754 -0.1022 -0.4450  1.0297
  381SOL    HW2 1143   0.410   1.218   1.671  0.5638  1.1075  2.6626
  382SOL     OW 1144   2.280   2.103   0.369 -0.4696 -0.1019  0.1568
  382SOL    HW1 1145   2.318   2.149   0.450 -0.2233 -1.3081  2.1331
  382SOL    HW2 1146   2.351   2.116   0.294  1.6411  1.2241 -1.9489
  383SOL     OW 1147   2.857   2.031   2.294 -0.1629 -0.2143 -0.1024
  383SOL    HW1 1148   2.888   2.129   2.266 -0.6881 -1.3384 -0.5141
  383SOL    HW2 1149   2.755   2.037   2.311 -0.0789 -1.1947 -0.7246
  384SOL     OW 1150   0.105   2.146   2.140 -0.3670  0.0622  0.2264
  384SOL    HW1 1151   0.165   2.186   2.210 -1.1069 -0.6655  0.6867
  384SOL    HW2 1152   0.125   2.047   2.118  1.3884  0.6886 -1.9338
  385SOL     OW 1153   2.911   2.203   0.796  0.1979 -0.3729 -0.0883
  385SOL    HW1 1154   2.959   2.119   0.837  3.1372 -3.1970  2.5757
  385SOL    HW2 1155   2.813   2.201   0.825  3.2131 -2.6777  2.3963
  386SOL     OW 1156   1.770   0.687   0.732  0.0548  0.0633 -0.4794
  386SOL    HW1 1157   1.723   0.774   0.711  2.0252  1.1838  1.9994
  386SOL    HW2 1158   1.739   0.609   0.674  0.7471  0.7949  0.0663
  387SOL     OW 1159   0.446   0.568   1.959  0.6065 -0.0323  0.3954
  387SOL    HW1 1160   0.376   0.632   2.002  1.2282  1.0100 -1.5586
  387SOL    HW2 1161   0.525   0.624   1.933  1.1674 -2.6112 -0.9984
  388SOL     OW 1162   2.275   0.892   2.488  0.0449  0.3528 -0.0920
  388SOL    HW1 1163   2.178   0.913   2.470  1.7824 -2.9801 -1.4583
  388SOL    HW2 1164   2.337   0.976   2.471  1.1827  1.9954  1.3284
  389SOL     OW 1165   1.955   1.245   1.988 -0.8352 -0.2322 -0.0820
  389SOL    HW1 1166   1.990   1.294   1.907  0.2937  2.0437 -0.5629
  389SOL    HW2 1167   2.024   1.175   2.016  1.2264 -0.4330  0.0268
  390SOL     OW 1168   1.876   2.807   0.155 -0.0818 -0.0992 -0.3017
  390SOL    HW1 1169   1.822   2.784   0.240 -1.8735  0.0411  2.2756
  390SOL    HW2 1170   1.839   2.755   0.076 -2.5449 -4.3964  1.7503
  391SOL     OW 1171   2.310   2.386   1.189  0.1566  0.2533 -0.2542
  391SOL    HW1 1172   2.257   2.298   1.194 -2.5766 -1.2109 -2.7184
  391SOL    HW2 1173   2.325   2.423   1.284  1.1611  2.3845  1.1546
  392SOL     OW 1174   3.045   2.616   1.063  0.0585  0.2016  0.0184
  392SOL    HW1 1175   2.975   2.588   1.133  1.1523  1.1861 -2.7031
  392SOL    HW2 1176   3.078   2.536   1.012 -2.1590  2.4837 -1.6361
  393SOL     OW 1177   2.124   1.582   3.080 -1.0787  0.2034 -0.2232
  393SOL    HW1 1178   2.054   1.507   3.098  1.2921 -1.4903  1.4638
  393SOL    HW2 1179   2.084   1.648   3.012 -0.5820  0.0035  0.7598
  394SOL     OW 1180   3.055   0.223   3.030 -0.7670 -0.0932 -0.2601
  394SOL    HW1 1181   3.055   0.308   3.090  0.0997  0.7950  2.4062
  394SOL    HW2 1182   3.037   0.264   2.942 -1.3618  1.1194  4.0591
  395SOL     OW 1183   1.172   1.125   1.053 -0.0695  0.7144  0.5037
  395SOL    HW1 1184   1.181   1.113   0.951  1.8320  1.9361 -1.1227
  395SOL    HW2 1185   1.099   1.062   1.089 -2.7726 -0.2652 -0.8240
  396SOL     OW 1186   1.434   0.644   0.080 -0.1233  0.2305 -0.3113
  396SOL    HW1 1187   1.390   0.551   0.067 -3.1651 -0.6055  2.0280
  396SOL    HW2 1188   1.509   0.650   0.010 -0.3459 -0.6550  0.0346
  397SOL     OW 1189   0.124   0.512   2.614  0.0047 -1.0523 -0.7403
  397SOL    HW1 1190   0.027   0.535   2.633 -0.5028 -0.2163 -0.3408
  397SOL    HW2 1191   0.144   0.433   2.670 -2.6639  1.4063  0.5005
  398SOL     OW 1192   0.792   0.161   0.256  0.2282 -0.2565 -0.3294
  398SOL    HW1 1193   0.833   0.242   0.299 -0.1008  0.2927  0.6970
  398SOL    HW2 1194   0.728   0.194   0.179 -1.6225  0.8563 -0.1735
  399SOL     OW 1195   2.350   2.888   1.699 -0.0838 -0.0647  0.2701
  399SOL    HW1 1196   2.348   2.797   1.742  1.6685  1.5345  0.9719
  399SOL    HW2 1197   2.431   2.897   1.644 -2.9374  0.7713 -1.8262
  400SOL     OW 1198   0.516   1.668   2.261 -0.5198 -0.1825 -0.2246
  400SOL    HW1 1199   0.569   1.692   2.350 -0.5914  1.9459  0.7862
  400SOL    HW2 1200   0.582   1.665   2.183  0.6994  2.4210 -0.9432
  401SOL     OW 1201   0.936   0.447   2.681  0.2364 -0.3771  0.4030
  401SOL    HW1 1202   0.972   0.355   2.714  0.5022 -1.3409 -0.6935
  401SOL    HW2 1203   0.914   0.506   2.757 -0.8518 -2.0816 -0.2661
  402SOL     OW 1204   3.079   2.144   1.472  0.0286 -0.3001  0.1096
  402SOL    HW1 1205   3.045   2.056   1.514 -1.6931  0.9755  1.3436
  402SOL    HW2 1206   0.006   2.206   1.551 -0.7678 -0.6205 -0.4044
  403SOL     OW 1207   0.757   1.013   1.838  0.3607 -0.1326 -0.3366
  403SOL    HW1 1208   0.821   1.080   1.873 -1.5556 -1.5118 -2.3444
  403SOL    HW2 1209   0.664   1.031   1.880  1.0506  1.0272 -2.2278
  404SOL     OW 1210   2.937   2.495   1.643  0.3001 -0.7482 -0.4848
  404SOL    HW1 1211   2.865   2.548   1.697 -1.1424 -0.4292  0.0702
  404SOL    HW2 1212   2.888   2.412   1.599 -0.6611 -2.7184 -1.8638
  405SOL     OW 1213   0.489   0.359   1.801  0.1241  0.0110 -0.2227
  405SOL    HW1 1214   0.473   0.436   1.866 -2.8348  2.3769  3.0873
  405SOL    HW2 1215   0.488   0.272   1.854 -0.7020  2.1578  0.0019
  406SOL     OW 1216   1.827   2.387   0.025 -0.6012  0.0719  0.0840
  406SOL    HW1 1217   1.879   2.394   0.114  0.3850 -1.0156  0.3303
  406SOL    HW2 1218   1.892   2.399   3.049  0.0233  1.3432 -2.0455
  407SOL     OW 1219   1.726   0.894   1.843 -0.3586 -0.1306 -0.0820
  407SOL    HW1 1220   1.632   0.863   1.824  1.5823 -0.9618 -0.0384
  407SOL    HW2 1221   1.725   0.993   1.856 -0.9575 -1.5112  0.8765
  408SOL     OW 1222   0.728   0.244   2.827 -0.1549 -0.2976 -0.0887
  408SOL    HW1 1223   0.663   0.167   2.825  0.1432  2.0303 -1.8861
  408SOL    HW2 1224   0.813   0.230   2.768  1.2691  0.8410 -1.7242
  409SOL     OW 1225   2.914   2.311   0.559 -0.7604  0.0437 -0.0835
  409SOL    HW1 1226   2.815   2.306   0.531  0.9009  1.8689 -0.2572
  409SOL    HW2 1227   2.932   2.269   0.654 -0.1787 -0.7879 -0.5563
  410SOL     OW 1228   2.580   1.467   0.483 -0.1940  0.5433 -0.0210
  410SOL    HW1 1229   2.516   1.521   0.540  2.6952  2.1285  2.0529
  410SOL    HW2 1230   2.606   1.520   0.398  0.4095  0.3817 -1.2870
  411SOL     OW 1231   0.101   0.716   0.850 -0.1940  0.8432  0.0422
  411SOL    HW1 1232   0.132   0.721   0.752  1.2039  0.8111 -0.9340
  411SOL    HW2 1233   0.127   0.625   0.890  1.5704 -1.4975  0.6111
  412SOL     OW 1234   1.352   0.865   0.883  0.1980 -0.2251 -0.3356
  412SOL    HW1 1235   1.291   0.904   0.815 -0.1234 -0.9710  1.0174
  412SOL    HW2 1236   1.406   0.939   0.924  0.6200 -0.4059 -3.5904
  413SOL     OW 1237   1.000   0.173   1.157  0.0772 -0.5267 -0.2388
  413SOL    HW1 1238   0.924   0.155   1.224 -3.4921 -2.4018  0.7974
  413SOL    HW2 1239   1.079   0.207   1.210 -0.8258  0.6950  0.2056
  414SOL     OW 1240   0.031   1.735   2.917 -0.3275  1.0089 -0.1392
  414SOL    HW1 1241   3.091   1.778   2.841 -0.1360 -0.9681  3.7898
  414SOL    HW2 1242   0.127   1.761   2.933  0.1446 -1.0563 -1.1496
  415SOL     OW 1243   0.556   2.303   3.006 -0.0763  0.4637 -0.4822
  415SOL    HW1 1244   0.647   2.335   3.029 -2.1747 -0.1122 -1.8620
  415SOL    HW2 1245   0.537   2.321   2.907  1.1723  1.9213 -1.6748
  416SOL     OW 1246   1.410   0.791   0.593 -0.0677 -0.2082 -0.2470
  416SOL    HW1 1247   1.358   0.737   0.660  0.6944  0.0533  2.6170
  416SOL    HW2 1248   1.480   0.850   0.635 -0.0173 -0.1750  1.1514
  417SOL     OW 1249   0.250   1.144   0.339 -0.2244 -0.0685  0.2469
  417SOL    HW1 1250   0.224   1.092   0.258 -0.2556 -4.2330 -0.5619
  417SOL    HW2 1251   0.189   1.114   0.415  0.1105  0.2851  1.1132
  418SOL     OW 1252   2.577   1.352   2.371 -0.4448  0.1903  0.1334
  418SOL    HW1 1253   2.596   1.428   2.304 -1.1022 -0.8116 -1.4333
  418SOL    HW2 1254   2.662   1.299   2.393 -1.2355 -0.9869  0.3035
  419SOL     OW 1255   0.156   0.544   2.974 -0.5753  0.1197  0.4614
  419SOL    HW1 1256   0.079   0.519   3.033 -2.9185 -0.0878  0.7737
  419SOL    HW2 1257   0.175   0.470   2.906 -3.0730  1.2665  1.3317
  420SOL     OW 1258   0.516   1.428   0.905 -0.6543 -0.1741 -0.6750
  420SOL    HW1 1259   0.525   1.351   0.973  0.1642 -1.6958  1.9724
  420SOL    HW2 1260   0.424   1.447   0.874  0.3961  1.8215  1.0414
  421SOL     OW 1261   0.725   2.221   1.001  1.0247 -0.0417  0.7637
  421SOL    HW1 1262   0.760   2.265   0.915 -2.9627  0.2804 -1.3211
  421SOL    HW2 1263   0.745   2.123   0.999 -0.2158  1.4822  0.2268
  422SOL     OW 1264   2.999   0.852   1.426  0.0225 -0.1759 -0.4339
  422SOL    HW1 1265   3.100   0.832   1.446  2.5886 -1.3460 -0.2540
  422SOL    HW2 1266   2.973   0.808   1.339  1.4816  0.0500 -0.3625
  423SOL     OW 1267   1.494   1.597   1.365 -0.6796 -0.0578  0.2597
  423SOL    HW1 1268   1.575   1.647   1.327  0.5072  2.5458 -1.1983
  423SOL    HW2 1269   1.530   1.506   1.391 -0.7836  4.4773  0.0931
  424SOL     OW 1270   1.826   0.991   0.096 -0.2755 -0.8735 -0.2398
  424SOL    HW1 1271   1.763   1.069   0.108 -0.6523 -2.2302  1.7923
  424SOL    HW2 1272   1.904   1.017   0.035 -1.0662  1.2110 -0.5646
  425SOL     OW 1273   0.088   0.425   1.913  0.6299 -0.3267  0.2237
  425SOL    HW1 1274   0.087   0.321   1.912  2.0502 -1.7141  0.9025
  425SOL    HW2 1275   0.135   0.471   1.836 -2.7445  0.9457  0.7897
  426SOL     OW 1276   2.504   2.923   2.631  0.0856  0.2823 -0.6704
  426SOL    HW1 1277   2.415   2.873   2.640  1.3775 -1.8905 -0.7624
  426SOL    HW2 1278   2.528   2.941   2.536  1.0194  1.7834  1.7290
  427SOL     OW 1279   1.044   0.895   2.294  0.5166 -0.1451  0.1424
  427SOL    HW1 1280   1.029   0.808   2.246  1.2113  0.7566  0.6822
  427SOL    HW2 1281   1.053   0.976   2.235 -1.0742 -0.0400  0.9787
  428SOL     OW 1282   2.106   1.012   2.041 -0.1229 -0.5110 -0.1558
  428SOL    HW1 1283   2.061   0.942   1.982  1.2995 -0.7539 -1.5763
  428SOL    HW2 1284   2.083   0.989   2.137 -0.8616  1.4970 -0.9415
  429SOL     OW 1285   2.853   2.924   0.630 -0.4227  0.2493 -0.2416
  429SOL    HW1 1286   2.843   2.959   0.723 -2.7444 -1.5919 -1.7263
  429SOL    HW2 1287   2.942   2.943   0.586 -0.8467 -2.9979 -1.2132
  430SOL     OW 1288   2.023   1.424   2.175 -0.1664 -0.1650  0.3347
  430SOL    HW1 1289   2.093   1.394   2.235 -3.7181 -0.4373  0.0408
  430SOL    HW2 1290   2.024   1.361   2.094 -3.0684 -2.0819 -0.7441
  431SOL     OW 1291   0.110   1.904   1.193 -0.1585 -0.1518 -0.3889
  431SOL    HW1 1292   0.162   1.964   1.256  3.6385 -1.0251 -1.1444
  431SOL    HW2 1293   0.041   1.859   1.247  1.1363  1.1427 -0.8135
  432SOL     OW 1294   1.652   2.926   2.319 -0.4137  0.0068 -0.2356
  432SOL    HW1 1295   1.585   2.878   2.265 -0.7422  3.4190  0.2181
  432SOL    HW2 1296   1.746   2.886   2.302  1.2756 -2.2768 -2.1186
  433SOL     OW 1297   1.475   3.035   1.832 -0.3776 -0.0656 -0.0355
  433SOL    HW1 1298   1.433   3.076   1.753  1.4417 -1.4357  2.6771
  433SOL    HW2 1299   1.527   0.004   1.883 -0.8200  0.5982  1.8367
  434SOL     OW 1300   0.542   2.559   2.341  0.0772  0.2780  0.0360
  434SOL    HW1 1301   0.439   2.573   2.332  0.8067 -1.0375 -1.5646
  434SOL    HW2 1302   0.568   2.500   2.421  0.0132  2.4503 -1.7414
  435SOL     OW 1303   0.351   2.173   0.184  0.6211  0.5728 -0.0341
  435SOL    HW1 1304   0.373   2.268   0.159 -2.4063  0.3545 -1.0571
  435SOL    HW2 1305   0.318   2.124   0.099  2.3104 -0.8267  0.6570
  436SOL     OW 1306   0.637   0.770   1.904  0.2968  0.4123  0.3896
  436SOL    HW1 1307   0.715   0.699   1.887  0.8997  1.1766  0.3087
  436SOL    HW2 1308   0.678   0.862   1.884  0.3614  1.7365  0.0829
  437SOL     OW 1309   0.492   2.951   2.279 -0.3572 -0.0043  0.2957
  437SOL    HW1 1310   0.504   3.045   2.308 -1.0929 -0.3493  0.9053
  437SOL    HW2 1311   0.558   2.884   2.328  0.7459 -0.9367  0.5041
  438SOL     OW 1312   0.540   1.684   1.524 -0.2716 -0.3763 -0.2045
  438SOL    HW1 1313   0.495   1.718   1.609 -0.9822 -0.5025  0.1615
  438SOL    HW2 1314   0.506   1.591   1.503  1.5721  1.2459  0.5449
  439SOL     OW 1315   1.907   0.803   2.961  0.2457  0.5562 -0.6811
  439SOL    HW1 1316   1.937   0.898   2.956 -0.8343 -1.6232 -0.1870
  439SOL    HW2 1317   1.810   0.790   2.978  1.7162  0.7343 -1.0553
  440SOL     OW 1318   0.620   0.340   0.488  0.2222 -0.0134 -0.2183
  440SOL    HW1 1319   0.559   0.397   0.545 -0.7826  0.9047  0.1740
  440SOL    HW2 1320   0.572   0.306   0.402 -0.1775  1.6905 -0.9624
  441SOL     OW 1321   1.057   2.343   1.473 -0.2501 -0.4998 -0.0893
  441SOL    HW1 1322   1.091   2.323   1.565  1.6922  1.1394  1.7448
  441SOL    HW2 1323   0.973   2.287   1.464 -0.7815 -0.3666 -1.0550
  442SOL     OW 1324   2.955   1.564   0.361  0.1587 -0.2989 -0.0086
  442SOL    HW1 1325   2.924   1.465   0.356 -1.1706  2.8573  0.3060
  442SOL    HW2 1326   2.880   1.627   0.398  0.6887  1.0855 -1.0693
  443SOL     OW 1327   2.749   1.924   2.687 -0.2375  0.2992  0.7335
  443SOL    HW1 1328   2.667   1.977   2.661  0.1363  0.2862  0.8120
  443SOL    HW2 1329   2.735   1.822   2.676 -0.6724 -2.6642  1.3046
  444SOL     OW 1330   1.396   1.023   0.185 -0.3884 -0.2133  0.3421
  444SOL    HW1 1331   1.480   1.042   0.131 -1.9943  1.0799  0.4640
  444SOL    HW2 1332   1.357   1.102   0.229  2.2977 -1.5953 -0.9479
  445SOL     OW 1333   2.737   2.722   2.161 -0.1144 -0.7855  0.3251
  445SOL    HW1 1334   2.737   2.814   2.112  1.0585  1.1105 -0.9275
  445SOL    HW2 1335   2.665   2.720   2.226  0.2723 -0.3951  0.7529
  446SOL     OW 1336   3.053   1.391   0.705 -0.1010 -0.5477 -0.8513
  446SOL    HW1 1337   3.061   1.289   0.718 -2.0223  0.4613  0.8499
  446SOL    HW2 1338   2.954   1.420   0.712  0.9626 -1.0403 -0.0974
  447SOL     OW 1339   1.120   1.818   1.074  0.7527 -0.2061 -0.2928
  447SOL    HW1 1340   1.048   1.761   1.120 -0.2292  0.4501  1.1362
  447SOL    HW2 1341   1.104   1.915   1.088 -0.9815 -1.0622  1.5560
  448SOL     OW 1342   1.645   1.715   1.650 -0.1709  0.4324 -0.1541
  448SOL    HW1 1343   1.691   1.653   1.719 -2.1540 -0.1859 -0.6519
  448SOL    HW2 1344   1.549   1.686   1.638  1.9933 -0.6476  2.0536
  449SOL     OW 1345   2.902   2.541   2.523  0.3909  0.3425 -0.0312
  449SOL    HW1 1346   2.821   2.489   2.559 -0.9415  1.7387  1.4445
  449SOL    HW2 1347   2.987   2.494   2.555 -0.5048 -0.7902 -0.3121
  450SOL     OW 1348   3.103   1.717   2.021  0.4775  0.2555 -0.2144
  450SOL    HW1 1349   3.024   1.752   1.965 -4.8266 -0.3932  0.7721
  450SOL    HW2 1350   3.102   1.614   2.018 -0.4712 -0.4263 -0.8612
  451SOL     OW 1351   2.289   0.833   1.225  0.0297 -0.0930  0.3593
  451SOL    HW1 1352   2.349   0.917   1.208  0.4333  1.2921  0.2156
  451SOL    HW2 1353   2.312   0.783   1.311 -3.2619 -0.4353 -0.5533
  452SOL     OW 1354   0.768   1.145   0.724 -0.2210  0.5047 -0.4505
  452SOL    HW1 1355   0.734   1.085   0.649  0.0318 -2.5565 -1.9101
  452SOL    HW2 1356   0.717   1.115   0.808  0.1525  0.6432  0.4213
  453SOL     OW 1357   1.498   2.146   0.606  0.2736  0.1109 -0.3212
  453SOL    HW1 1358   1.510   2.147   0.708  1.7974  0.3707 -2.2162
  453SOL    HW2 1359   1.576   2.102   0.562 -1.7326 -0.9810  1.1287
  454SOL     OW 1360   0.435   1.759   0.069  0.2412  0.3905 -0.0759
  454SOL    HW1 1361   0.525   1.803   0.099  0.6730  0.9649 -2.8786
  454SOL    HW2 1362   0.362   1.761   0.137  2.3267 -0.8983 -1.3114
  455SOL     OW 1363   1.143   1.163   0.195 -0.1750 -0.1963 -0.1404
  455SOL    HW1 1364   1.079   1.109   0.255 -2.5045 -0.2449  1.3678
  455SOL    HW2 1365   1.099   1.251   0.174  2.8117 -2.6679  0.5987
  456SOL     OW 1366   2.311   2.593   1.018 -0.0539 -0.5491 -0.0937
  456SOL    HW1 1367   2.315   2.499   1.069  0.0209 -1.4429  0.7482
  456SOL    HW2 1368   2.216   2.617   0.996  0.5267 -1.2032 -0.3245
  457SOL     OW 1369   1.525   2.989   3.051  0.2232 -0.7198  0.2464
  457SOL    HW1 1370   1.599   3.002   0.017  1.7269 -1.7008  0.1583
  457SOL    HW2 1371   1.553   2.921   2.982 -0.7273  1.0193  1.7840
  458SOL     OW 1372   2.384   0.839   0.545 -0.1925  0.1159 -0.0363
  458SOL    HW1 1373   2.379   0.741   0.576 -0.5852  1.6380  2.4813
  458SOL    HW2 1374   2.290   0.879   0.553 -2.1146 -0.4995 -3.0971
  459SOL     OW 1375   2.428   0.399   2.571  0.3959  0.2156 -0.2640
  459SOL    HW1 1376   2.357   0.441   2.507 -0.2408 -1.9404  0.1111
  459SOL    HW2 1377   2.499   0.463   2.600 -2.6333  1.2210 -1.7946
  460SOL     OW 1378   2.578   0.646   2.605 -0.0638 -0.4666 -0.1742
  460SOL    HW1 1379   2.649   0.714   2.615  0.0424  0.4348  0.7185
  460SOL    HW2 1380   2.491   0.682   2.645 -0.1247  0.5778  1.1859
  461SOL     OW 1381   0.013   2.380   0.906 -0.6528  0.3362  0.2581
  461SOL    HW1 1382   0.025   2.348   1.002  0.0839  0.5517 -0.6332
  461SOL    HW2 1383   3.044   2.329   0.858  1.9539 -2.9787 -0.7719
  462SOL     OW 1384   3.029   2.820   1.821  0.2579 -0.1568 -0.2854
  462SOL    HW1 1385   3.074   2.914   1.812 -1.6910  1.0700  2.6409
  462SOL    HW2 1386   3.094   2.746   1.841  1.5741 -1.5907 -2.6030
  463SOL     OW 1387   2.322   1.868   2.535  0.1391 -0.0842 -0.1283
  463SOL    HW1 1388   2.370   1.783   2.566  0.6399 -0.2893  1.3942
  463SOL    HW2 1389   2.268   1.855   2.452  0.4848 -1.8039  0.9757
  464SOL     OW 1390   0.777   2.836   1.735  0.2833 -0.1502 -0.3625
  464SOL    HW1 1391   0.873   2.804   1.765  0.9284  0.7454  0.8970
  464SOL    HW2 1392   0.786   2.927   1.686  1.2949  0.2991 -0.5904
  465SOL     OW 1393   0.829   3.063   1.555  0.1248 -0.4729  0.0866
  465SOL    HW1 1394   0.790   3.090   1.462  0.5611  0.0067  1.2257
  465SOL    HW2 1395   0.863   0.040   1.608 -3.1671 -1.7456  2.2042
  466SOL     OW 1396   1.527   2.592   1.798 -0.1047 -0.0870  0.4349
  466SOL    HW1 1397   1.603   2.536   1.835 -1.2838  1.9696  2.2995
  466SOL    HW2 1398   1.492   2.646   1.877 -3.2978 -0.1728 -0.0106
  467SOL     OW 1399   0.700   2.001   1.269  0.3522  0.2022  0.2057
  467SOL    HW1 1400   0.712   1.909   1.308 -3.7317 -0.9537 -0.7399
  467SOL    HW2 1401   0.602   2.025   1.254  0.2390  0.3231 -0.0792
  468SOL     OW 1402   2.805   1.725   2.368  0.4083  0.0996 -0.7371
  468SOL    HW1 1403   2.803   1.821   2.330  0.9943  2.1774 -0.4296
  468SOL    HW2 1404   2.875   1.664   2.325  2.1125  1.0368 -0.2838
  469SOL     OW 1405   0.907   2.033   0.805  0.3539  0.3228  0.5854
  469SOL    HW1 1406   0.943   1.974   0.729  3.1780 -1.3045  1.5948
  469SOL    HW2 1407   0.846   1.982   0.875 -0.8288 -0.8450  3.9142
  470SOL     OW 1408   2.261   1.159   1.696 -0.6566 -0.1420 -0.1305
  470SOL    HW1 1409   2.195   1.231   1.709  3.5359 -2.6726  1.3429
  470SOL    HW2 1410   2.334   1.187   1.622  1.5620 -0.2120 -3.6141
  471SOL     OW 1411   0.401   2.444   0.091 -0.0484  0.3436  0.3858
  471SOL    HW1 1412   0.443   2.455   0.181  0.3327 -1.6598 -0.2951
  471SOL    HW2 1413   0.467   2.403   0.022  2.1299 -0.5524 -0.6475
  472SOL     OW 1414   2.899   2.080   2.020  0.0461  0.0261 -0.0802
  472SOL    HW1 1415   2.876   2.044   2.115 -2.0127 -0.5343  2.3728
  472SOL    HW2 1416   2.987   2.132   2.025  2.4864  1.7231 -0.0059
  473SOL     OW 1417   1.060   0.013   0.266 -0.0021  0.8002  0.1200
  473SOL    HW1 1418   1.098   3.030   0.223  1.4862  2.2298  3.4233
  473SOL    HW2 1419   0.957   0.018   0.269  1.0218  1.7924  3.1210
  474SOL     OW 1420   2.671   2.621   0.853 -0.0494 -0.0483  0.8305
  474SOL    HW1 1421   2.651   2.707   0.905 -0.6142 -1.1226 -1.4410
  474SOL    HW2 1422   2.749   2.623   0.790  0.2156  1.0410 -3.2521
  475SOL     OW 1423   2.049   2.838   1.604 -0.5906 -0.1469 -0.4084
  475SOL    HW1 1424   2.123   2.905   1.616 -3.5815 -0.7030  1.8907
  475SOL    HW2 1425   1.965   2.890   1.576 -0.1569 -0.4474 -2.3628
  476SOL     OW 1426   0.958   0.865   0.792  0.0104  0.0844 -0.0201
  476SOL    HW1 1427   0.947   0.824   0.697 -1.8187 -4.2347 -0.4654
  476SOL    HW2 1428   0.989   0.793   0.860 -0.3254 -2.7453 -1.3752
  477SOL     OW 1429   0.473   1.901   0.866 -0.1253  0.8433 -0.0481
  477SOL    HW1 1430   0.531   1.959   0.925 -2.2050 -2.4793  1.2790
  477SOL    HW2 1431   0.449   1.943   0.776  1.9054 -0.2866  0.4201
  478SOL     OW 1432   0.060   2.622   2.115  0.4931 -0.6260  0.3264
  478SOL    HW1 1433   3.084   2.616   2.180 -2.5568  0.9223  1.2343
  478SOL    HW2 1434   0.064   2.717   2.074 -2.5126  2.5529 -1.0654
  479SOL     OW 1435   0.258   0.463   1.685 -0.4114 -0.1071 -0.1456
  479SOL    HW1 1436   0.209   0.409   1.619  2.0675  1.9089  1.4583
  479SOL    HW2 1437   0.341   0.419   1.722 -4.1207  1.2253  1.1960
  480SOL     OW 1438   2.853   2.582   3.035  0.2287 -0.0342 -0.4147
  480SOL    HW1 1439   2.924   2.546   2.967 -0.3583 -2.5784  0.7019
  480SOL    HW2 1440   2.807   2.502   3.074  0.8034  1.5999 -0.0959
  481SOL     OW 1441   2.092   1.917   1.915  0.4487 -0.0150 -0.0222
  481SOL    HW1 1442   2.092   1.839   1.984  0.5808  3.0736 -0.5487
  481SOL    HW2 1443   2.160   1.899   1.842  1.4797 -0.6373 -0.5693
  482SOL     OW 1444   1.590   2.291   3.079  0.3695  0.3489  0.1765
  482SOL    HW1 1445   1.571   2.211   0.032  1.2744  4.2075 -1.0762
  482SOL    HW2 1446   1.690   2.326   3.097  1.2979  3.8407  2.6351
  483SOL     OW 1447   0.608   1.966   2.193 -0.3650  0.0094 -0.2035
  483SOL    HW1 1448   0.708   1.973   2.176  2.8593 -3.0633  2.0177
  483SOL    HW2 1449   0.559   2.056   2.192 -0.8966 -0.2001  1.2249
  484SOL     OW 1450   2.893   0.440   1.203 -0.1568 -0.0800  0.4031
  484SOL    HW1 1451   2.906   0.395   1.112 -1.0540 -0.1561  0.9056
  484SOL    HW2 1452   2.794   0.463   1.214 -2.7219  1.9085  0.0304
  485SOL     OW 1453   2.058   1.052   0.787  0.1886  0.0034  0.7526
  485SOL    HW1 1454   2.058   1.004   0.692 -0.4579 -1.4193 -0.8289
  485SOL    HW2 1455   1.983   1.121   0.796 -0.0733 -0.4084 -0.1561
  486SOL     OW 1456   1.660   0.259   2.192  0.2280  0.3467 -0.0405
  486SOL    HW1 1457   1.684   0.354   2.213 -0.0814 -4.4745 -2.9040
  486SOL    HW2 1458   1.670   0.199   2.274  0.6464 -0.5277 -0.0727
  487SOL     OW 1459   0.893   1.439   1.015  0.2370  0.0425  0.6221
  487SOL    HW1 1460   0.795   1.458   0.995  1.5721  0.0064 -0.7329
  487SOL    HW2 1461   0.931   1.390   0.939 -1.1619 -0.9714  1.8865
  488SOL     OW 1462   2.457   1.279   2.878 -0.0970  0.3180 -0.0942
  488SOL    HW1 1463   2.497   1.285   2.783  1.2130  0.9773 -0.9016
  488SOL    HW2 1464   2.431   1.374   2.908  0.5244  0.5822 -1.7791
  489SOL     OW 1465   2.377   0.207   0.530  0.0048  0.2948 -0.2550
  489SOL    HW1 1466   2.469   0.166   0.535  0.5090  1.0780 -0.4492
  489SOL    HW2 1467   2.347   0.227   0.629 -0.4402 -1.6709  1.7067
  490SOL     OW 1468   1.487   2.422   0.323  0.3720 -0.8369  0.2382
  490SOL    HW1 1469   1.562   2.361   0.311 -4.8398  1.7192 -2.6492
  490SOL    HW2 1470   1.512   2.518   0.293  0.8499 -1.6587  0.8985
  491SOL     OW 1471   1.158   1.060   0.798  0.1370 -0.0523 -0.3000
  491SOL    HW1 1472   1.091   0.980   0.808  3.2990 -1.2867  0.5026
  491SOL    HW2 1473   1.165   1.077   0.700 -0.9076  1.7360  2.7154
  492SOL     OW 1474   1.466   0.268   2.861 -0.2407  0.4680 -0.4242
  492SOL    HW1 1475   1.554   0.219   2.839 -2.3953  1.1287  1.9656
  492SOL    HW2 1476   1.458   0.343   2.793 -2.9753 -2.1181  1.0442
  493SOL     OW 1477   1.975   2.055   0.208 -0.5713  0.2847  0.0598
  493SOL    HW1 1478   2.016   2.149   0.204  2.8079 -1.1233  0.3354
  493SOL    HW2 1479   1.999   2.014   0.298 -0.0391 -0.9904 -1.1323
  494SOL     OW 1480   0.715   0.959   0.339 -0.5074  0.6927 -0.8295
  494SOL    HW1 1481   0.808   0.970   0.387  0.3142  1.4318  0.8821
  494SOL    HW2 1482   0.727   0.947   0.241  1.1566 -1.9007  2.1895
  495SOL     OW 1483   3.044   2.744   0.817 -0.0090 -0.8847  0.1425
  495SOL    HW1 1484   3.050   2.684   0.903 -1.0806  2.4591  0.1239
  495SOL    HW2 1485   2.986   2.692   0.752 -0.0199  0.5097 -2.8145
  496SOL     OW 1486   2.523   0.176   1.733  0.1918  0.4750 -0.1014
  496SOL    HW1 1487   2.497   0.147   1.640 -2.3352  3.4103 -2.2056
  496SOL    HW2 1488   2.488   0.274   1.751 -0.5046  0.6681  1.0462
  497SOL     OW 1489   1.960   1.436   2.691 -0.3269  0.3276  0.2355
  497SOL    HW1 1490   2.058   1.457   2.665 -2.6562  0.3411  0.7909
  497SOL    HW2 1491   1.907   1.515   2.734 -0.1054  0.0461  0.7298
  498SOL     OW 1492   0.755   1.943   1.025  1.1197  0.1210  0.6246
  498SOL    HW1 1493   0.750   1.986   1.120 -1.7518 -0.0861 -2.1352
  498SOL    HW2 1494   0.722   1.847   1.027 -1.3727  1.1392 -0.2921
  499SOL     OW 1495   0.826   2.215   1.440  0.0827 -0.2454  0.4145
  499SOL    HW1 1496   0.808   2.125   1.390  1.5850 -1.1951 -1.7701
  499SOL    HW2 1497   0.761   2.285   1.405  0.4673 -2.0964  0.5071
  500SOL     OW 1498   0.843   2.126   0.202  0.3503  0.0555  0.3109
  500SOL    HW1 1499   0.758   2.158   0.246  0.6942  2.8316 -3.1441
  500SOL    HW2 1500   0.927   2.123   0.260 -0.6745 -2.0299  0.3633
  501SOL     OW 1501   2.647   2.974   1.431 -0.7565 -0.0378  0.3863
  501SOL    HW1 1502   2.607   2.899   1.377  0.9354 -0.5520  0.4335
  501SOL    HW2 1503   2.653   2.947   1.529 -0.3172  2.1388 -1.0921
  502SOL     OW 1504   0.274   0.742   1.685  0.3430  0.6167 -0.1588
  502SOL    HW1 1505   0.262   0.639   1.686 -1.0236 -0.9539  2.3697
  502SOL    HW2 1506   0.367   0.759   1.644 -0.1217 -0.3641 -1.5607
  503SOL     OW 1507   2.202   0.901   1.637  0.4630 -0.0876 -0.1132
  503SOL    HW1 1508   2.284   0.845   1.663  1.2312  1.4532  0.0048
  503SOL    HW2 1509   2.215   0.999   1.665 -2.1218  1.5664  0.2789
  504SOL     OW 1510   1.142   0.755   1.936  0.1299  0.3392 -0.5829
  504SOL    HW1 1511   1.108   0.698   2.016  1.3202 -1.4431 -0.5513
  504SOL    HW2 1512   1.153   0.855   1.956 -0.1493 -1.2874 -0.3413
  505SOL     OW 1513   0.876   0.022   2.414  0.6672 -0.0445  0.0740
  505SOL    HW1 1514   0.960   3.074   2.395 -0.9372  1.9493 -0.7763
  505SOL    HW2 1515   0.809   3.064   2.461 -1.8846  0.5060  2.0539
  506SOL     OW 1516   0.186   0.462   0.889  0.1834  0.0811  0.4134
  506SOL    HW1 1517   0.153   0.382   0.832 -0.6192  1.6153 -0.2939
  506SOL    HW2 1518   0.249   0.429   0.957 -1.3611 -1.8244 -0.6067
  507SOL     OW 1519   1.428   0.342   0.032 -0.0034 -0.3984  0.2000
  507SOL    HW1 1520   1.456   0.310   3.039 -0.0289 -1.2415  0.0832
  507SOL    HW2 1521   1.325   0.329   0.041 -3.5704  0.4279 -2.1585
  508SOL     OW 1522   1.877   0.414   2.404 -0.6242 -0.1843 -0.0365
  508SOL    HW1 1523   1.918   0.478   2.337 -0.9138 -0.9215 -1.2392
  508SOL    HW2 1524   1.944   0.343   2.430  1.1829  0.5744 -0.5856
  509SOL     OW 1525   0.630   1.335   2.089 -0.3934 -0.2142  0.1078
  509SOL    HW1 1526   0.728   1.333   2.063 -1.4549 -2.0591 -2.4188
  509SOL    HW2 1527   0.607   1.251   2.135 -2.8049 -0.6991 -1.4541
  510SOL     OW 1528   3.068   1.135   0.786  0.0906 -0.4760 -0.3221
  510SOL    HW1 1529   0.029   1.152   0.861 -2.6568 -0.5924 -1.7260
  510SOL    HW2 1530   2.985   1.080   0.803 -1.6355  3.3952 -2.2111
  511SOL     OW 1531   2.117   1.941   0.728  0.4328  0.4191  1.0524
  511SOL    HW1 1532   2.178   2.023   0.746  0.0432  0.0796 -0.3301
  511SOL    HW2 1533   2.163   1.856   0.745 -1.4599 -1.9145  0.8668
  512SOL     OW 1534   0.384   1.465   0.563  0.3144  0.4531  0.3816
  512SOL    HW1 1535   0.313   1.452   0.637 -2.0031 -3.2466  0.4362
  512SOL    HW2 1536   0.335   1.470   0.475  0.8341 -1.4370 -2.0756
  513SOL     OW 1537   0.292   2.165   0.444  0.2787  0.2677 -0.1492
  513SOL    HW1 1538   0.301   2.177   0.342 -1.1671 -2.1364 -0.1131
  513SOL    HW2 1539   0.284   2.254   0.495  4.0204  1.6801  1.7905
  514SOL     OW 1540   2.592   1.998   2.338 -0.2328  0.3591  0.4477
  514SOL    HW1 1541   2.586   2.000   2.442 -0.9618 -0.0634  2.7739
  514SOL    HW2 1542   2.553   2.085   2.295 -1.0735  2.3644 -1.6916
  515SOL     OW 1543   2.142   0.988   0.249  0.1546  0.2838  0.1423
  515SOL    HW1 1544   2.105   0.922   0.179 -1.2702 -0.0532 -0.0997
  515SOL    HW2 1545   2.239   1.009   0.232  0.2994 -1.2338 -0.4872
  516SOL     OW 1546   1.861   0.253   0.611 -0.0117 -0.3093  0.4994
  516SOL    HW1 1547   1.765   0.273   0.635 -0.2877  2.6776 -2.1597
  516SOL    HW2 1548   1.859   0.245   0.509  1.5231 -0.1725 -1.4799
  517SOL     OW 1549   1.240   2.082   0.179 -0.1334 -0.2648 -0.6364
  517SOL    HW1 1550   1.167   2.115   0.238  1.6343 -1.0731 -0.5890
  517SOL    HW2 1551   1.200   2.037   0.094 -0.8627 -0.0798  1.3573
  518SOL     OW 1552   1.131   0.735   1.610 -0.3170  0.1856  0.4472
  518SOL    HW1 1553   1.153   0.732   1.710 -1.1443  0.5739  0.0531
  518SOL    HW2 1554   1.195   0.679   1.548  0.0850 -1.1304 -1.8719
  519SOL     OW 1555   3.067   1.322   0.123 -0.5146 -0.5708  0.7601
  519SOL    HW1 1556   3.039   1.381   0.044  0.3719 -0.3189 -0.8966
  519SOL    HW2 1557   0.017   1.246   0.085  0.2011  0.7737  2.1668
  520SOL     OW 1558   2.346   2.085   1.564 -0.6996 -0.0925  0.1136
  520SOL    HW1 1559   2.396   2.086   1.474  0.7301 -1.0719  2.5978
  520SOL    HW2 1560   2.254   2.129   1.558  0.4270 -1.2829  0.2497
  521SOL     OW 1561   0.957   2.705   2.509  0.5366  0.0321 -0.0142
  521SOL    HW1 1562   0.962   2.732   2.413 -1.8186 -0.8131  0.7828
  521SOL    HW2 1563   1.045   2.722   2.554 -1.8556  2.3349  1.7282
  522SOL     OW 1564   1.933   0.227   2.143 -0.3539 -0.4214 -0.2443
  522SOL    HW1 1565   1.978   0.211   2.234  0.1318  0.4442 -2.7930
  522SOL    HW2 1566   1.836   0.260   2.155 -2.8290 -1.0409 -0.4709
  523SOL     OW 1567   1.777   1.942   1.146  0.8464  0.2993 -0.0432
  523SOL    HW1 1568   1.684   1.944   1.106 -0.6748  1.1180 -1.3557
  523SOL    HW2 1569   1.776   1.966   1.247 -1.3650  0.9456  0.7269
  524SOL     OW 1570   1.256   2.466   0.161  0.2007  0.2079  0.1426
  524SOL    HW1 1571   1.188   2.406   0.203  1.3048  0.3911  0.2821
  524SOL    HW2 1572   1.341   2.466   0.216  4.1111 -1.1650 -2.5487
  525SOL     OW 1573   3.076   0.470   0.050 -0.3990 -0.2533 -0.5918
  525SOL    HW1 1574   2.976   0.478   0.059  0.4167 -0.0156  1.1045
  525SOL    HW2 1575   0.020   0.495   0.140  3.6876  0.0441  2.6537
  526SOL     OW 1576   0.918   2.621   0.486  0.2203  0.1051 -0.0556
  526SOL    HW1 1577   0.897   2.712   0.524  1.3166 -1.0668 -2.6821
  526SOL    HW2 1578   0.958   2.632   0.394  0.8654 -2.1391  0.8201
  527SOL     OW 1579   2.812   1.788   0.428 -0.2873  0.0024 -0.1994
  527SOL    HW1 1580   2.794   1.847   0.510 -0.7649  1.6410  3.0385
  527SOL    HW2 1581   2.726   1.750   0.386 -0.7880  0.4450  1.4083
  528SOL     OW 1582   0.115   0.619   2.358 -0.0908  0.3258  0.2070
  528SOL    HW1 1583   0.118   0.607   2.460  0.3452  0.6246  2.4134
  528SOL    HW2 1584   0.171   0.547   2.306  2.5063 -2.6304  0.2992
  529SOL     OW 1585   1.323   1.598   2.600  0.0497  0.4779  0.2619
  529SOL    HW1 1586   1.333   1.514   2.543 -0.1085  0.3652 -1.1300
  529SOL    HW2 1587   1.226   1.600   2.630 -1.4523  1.3406 -1.6001
  530SOL     OW 1588   1.687   1.111   2.429  0.1536 -0.0176 -0.4886
  530SOL    HW1 1589   1.647   1.069   2.344 -1.1505 -0.1386  0.1387
  530SOL    HW2 1590   1.734   1.197   2.402  2.4888 -1.0985 -1.6150
  531SOL     OW 1591   0.475   2.088   2.481  0.1037 -0.5452 -0.0281
  531SOL    HW1 1592   0.421   2.055   2.402 -1.4791 -0.3083  1.2120
  531SOL    HW2 1593   0.446   2.044   2.566  0.3397 -4.3902 -0.1762
  532SOL     OW 1594   2.124   0.978   0.527 -0.4796  0.2146  0.2456
  532SOL    HW1 1595   2.112   0.957   0.424  0.4096  0.0113 -2.2371
  532SOL    HW2 1596   2.159   1.073   0.538 -2.1118  2.1691 -0.5548
  533SOL     OW 1597   0.086   3.027   1.765 -0.0016  0.2896  0.2853
  533SOL    HW1 1598   0.175   3.005   1.715 -0.2420  1.2338  0.8756
  533SOL    HW2 1599   0.019   3.067   1.701 -0.4452 -1.0933 -2.1991
  534SOL     OW 1600   0.662   0.207   0.033  0.2161  0.0114 -0.7202
  534SOL    HW1 1601   0.697   0.206   3.040 -0.8674  0.3710 -0.4632
  534SOL    HW2 1602   0.569   0.160   0.041 -1.1868 -0.8307  0.6431
  535SOL     OW 1603   0.255   0.111   0.417  0.0927  0.0698  0.0795
  535SOL    HW1 1604   0.181   0.176   0.434 -0.2516 -0.9022  0.3893
  535SOL    HW2 1605   0.291   0.066   0.504  2.7981  0.2356  4.1945
  536SOL     OW 1606   0.137   1.582   1.466  0.1060 -0.1425  0.3160
  536SOL    HW1 1607   0.144   1.665   1.529 -0.6975  3.5415  1.7376
  536SOL    HW2 1608   0.201   1.593   1.392 -1.1445  1.3179  0.9676
  537SOL     OW 1609   1.247   2.621   1.669  0.6748 -0.1196 -0.2031
  537SOL    HW1 1610   1.332   2.615   1.722  1.6367 -0.0823 -0.7976
  537SOL    HW2 1611   1.205   2.527   1.662 -0.8953  1.5550 -1.4428
  538SOL     OW 1612   0.058   1.923   0.040  0.1330  0.0504  0.6234
  538SOL    HW1 1613   3.079   1.956   0.082 -0.6841 -0.3575 -2.2455
  538SOL    HW2 1614   0.051   1.822   0.034  1.3505  1.1996 -1.4151
  539SOL     OW 1615   2.781   1.175   2.451  0.5436 -0.3477 -0.2644
  539SOL    HW1 1616   2.783   1.126   2.543 -0.6014 -1.4341  0.5820
  539SOL    HW2 1617   2.831   1.129   2.376 -0.1034 -0.8594 -2.1366
  540SOL     OW 1618   1.676   0.566   2.093 -0.1372  0.0135  0.2745
  540SOL    HW1 1619   1.728   0.655   2.080  1.4248  2.5222 -0.6379
  540SOL    HW2 1620   1.657   0.553   2.194  1.4443  0.7799  2.3483
  541SOL     OW 1621   0.629   0.424   2.167  0.0486  0.0790  0.2414
  541SOL    HW1 1622   0.591   0.387   2.255 -1.7026 -0.0114  0.1683
  541SOL    HW2 1623   0.568   0.505   2.140 -0.7322 -0.3579  0.0674
  542SOL     OW 1624   2.222   3.056   3.067 -0.2165 -0.3181 -0.1650
  542SOL    HW1 1625   2.269   0.030   0.009  1.7060  0.0456 -1.0733
  542SOL    HW2 1626   2.160   3.097   2.991 -2.3241  2.1473 -1.8299
  543SOL     OW 1627   1.324   0.151   0.220 -0.4039 -0.1727  0.9644
  543SOL    HW1 1628   1.358   0.190   0.132 -0.8546 -0.7202 -1.6760
  543SOL    HW2 1629   1.234   0.114   0.206  2.2021  1.4204 -2.1664
  544SOL     OW 1630   2.728   1.680   1.815 -0.0800  0.3348  0.9347
  544SOL    HW1 1631   2.764   1.609   1.875  0.7295  0.8608  0.1499
  544SOL    HW2 1632   2.670   1.644   1.736 -0.7225 -0.3889  0.9065
  545SOL     OW 1633   2.081   2.154   1.450  0.7182  0.0433  0.3736
  545SOL    HW1 1634   2.116   2.154   1.358 -1.5652  1.8508  0.9867
  545SOL    HW2 1635   2.028   2.236   1.464 -1.2710  0.3229 -0.4356
  546SOL     OW 1636   0.164   0.090   2.724  0.6339 -0.1084 -0.0487
  546SOL    HW1 1637   0.104   0.088   2.642 -1.5444  3.1480  0.1534
  546SOL    HW2 1638   0.135   0.012   2.784  1.6983 -1.1201 -1.0500
  547SOL     OW 1639   1.606   0.926   0.704 -0.2498  0.5365 -0.2311
  547SOL    HW1 1640   1.634   1.005   0.644 -1.0782 -0.0912 -1.9027
  547SOL    HW2 1641   1.600   0.959   0.798 -1.1040  0.3363 -0.4908
  548SOL     OW 1642   1.945   1.887   2.450  0.1754 -0.0027  0.4071
  548SOL    HW1 1643   1.937   1.933   2.541  1.1895  2.4176 -0.2488
  548SOL    HW2 1644   1.853   1.856   2.414 -2.2970 -1.7006  0.3006
  549SOL     OW 1645   2.117   0.546   0.481 -0.0811 -0.1257 -0.1026
  549SOL    HW1 1646   2.050   0.621   0.459  0.2853  1.9356 -0.4726
  549SOL    HW2 1647   2.106   0.515   0.578 -0.7757  0.7136 -1.1473
  550SOL     OW 1648   2.742   1.966   0.639  0.0331 -0.2536 -0.4570
  550SOL    HW1 1649   2.840   1.967   0.675 -0.5472 -0.9195 -1.1954
  550SOL    HW2 1650   2.677   2.033   0.686 -4.1449  1.3070  0.0934
  551SOL     OW 1651   1.298   2.649   2.408 -0.1463 -0.0279  0.1726
  551SOL    HW1 1652   1.325   2.705   2.324  0.3781  2.0445 -0.8330
  551SOL    HW2 1653   1.223   2.694   2.465 -0.0041 -1.5158  0.4374
  552SOL     OW 1654   3.050   2.471   2.908  0.3057  0.4843  0.1468
  552SOL    HW1 1655   3.048   2.383   2.961 -2.1226  1.0121 -0.2413
  552SOL    HW2 1656   3.081   2.455   2.811  1.9790 -1.6200 -0.9556
  553SOL     OW 1657   0.136   0.217   0.777  0.1862  0.0185 -0.3160
  553SOL    HW1 1658   0.210   0.147   0.783 -3.0290 -4.1606  1.5353
  553SOL    HW2 1659   0.077   0.194   0.859  1.6580  1.1735  0.5478
  554SOL     OW 1660   2.224   2.346   1.699 -0.3014  0.2603 -0.2554
  554SOL    HW1 1661   2.159   2.270   1.697  0.8343  1.1191  0.0575
  554SOL    HW2 1662   2.304   2.314   1.758  1.6595 -0.8171  2.7038
  555SOL     OW 1663   1.723   2.316   2.303 -0.6187  0.1268 -0.0758
  555SOL    HW1 1664   1.678   2.408   2.288  0.0875 -0.8753  1.2529
  555SOL    HW2 1665   1.788   2.322   2.386 -1.2788  1.3834  1.4545
  556SOL     OW 1666   1.226   1.549   1.319  0.0320  0.5783 -0.3812
  556SOL    HW1 1667   1.238   1.472   1.258 -1.4512 -0.8475  0.3677
  556SOL    HW2 1668   1.314   1.598   1.332 -0.7681  2.1836  0.8990
  557SOL     OW 1669   1.988   2.404   2.475 -0.0451  1.2151  0.6509
  557SOL    HW1 1670   2.074   2.356   2.497  2.1958 -0.4703  0.1837
  557SOL    HW2 1671   1.957   2.468   2.548 -0.2443 -1.0474  2.2041
  558SOL     OW 1672   0.107   2.921   2.121  0.4584  0.0020  0.2577
  558SOL    HW1 1673   0.168   2.927   2.038  0.6312  0.7953  0.5928
  558SOL    HW2 1674   0.161   2.907   2.209  2.4574  2.0695 -0.6730
  559SOL     OW 1675   2.199   2.977   0.812 -0.4828  0.1638  0.0303
  559SOL    HW1 1676   2.188   2.905   0.743 -1.4303  0.5560  1.2899
  559SOL    HW2 1677   2.128   3.054   0.795 -1.6720  0.8266 -1.1634
  560SOL     OW 1678   1.807   2.586   0.613  0.1384  0.0950  0.0712
  560SOL    HW1 1679   1.757   2.520   0.677 -0.9960  0.4732  0.7833
  560SOL    HW2 1680   1.839   2.674   0.663 -1.6470 -1.0323 -1.9328
  561SOL     OW 1681   0.987   0.056   0.812 -0.7919 -0.3757 -0.2739
  561SOL    HW1 1682   1.071   0.101   0.777 -0.3004 -0.7376 -0.0754
  561SOL    HW2 1683   0.988   0.066   0.916 -0.1509  0.3979 -1.8748
  562SOL     OW 1684   0.708   0.783   2.469 -0.5259  0.3818 -0.3731
  562SOL    HW1 1685   0.691   0.690   2.512  1.0076 -0.4803  0.0220
  562SOL    HW2 1686   0.673   0.784   2.372 -2.8404 -0.5519 -1.1811
  563SOL     OW 1687   1.645   1.827   2.371  0.2335  0.3224 -0.0494
  563SOL    HW1 1688   1.598   1.807   2.461  0.5534 -2.4749  0.0558
  563SOL    HW2 1689   1.621   1.923   2.347  2.3532 -3.3056 -0.2590
  564SOL     OW 1690   2.652   0.777   1.283 -0.2082  0.3262  0.0789
  564SOL    HW1 1691   2.572   0.731   1.245  1.3838  0.6333 -2.5404
  564SOL    HW2 1692   2.738   0.731   1.256 -1.3608  1.0263  0.6310
  565SOL     OW 1693   1.163   0.588   3.040 -0.6429 -0.3320  0.5353
  565SOL    HW1 1694   1.229   0.657   2.997 -0.5518  1.7724  0.7628
  565SOL    HW2 1695   1.080   0.590   2.977 -1.3760  0.6823 -0.8119
  566SOL     OW 1696   2.102   0.272   2.743 -0.5520 -0.2326  1.1372
  566SOL    HW1 1697   2.088   0.371   2.733 -0.0517  0.6822 -0.5794
  566SOL    HW2 1698   2.202   0.256   2.761  0.7406  4.1296 -0.7321
  567SOL     OW 1699   2.016   1.349   0.398 -0.1475  0.1129  0.3878
  567SOL    HW1 1700   2.083   1.336   0.472  1.1991  2.9975  1.4376
  567SOL    HW2 1701   2.049   1.328   0.304  3.8604  2.9178 -1.3192
  568SOL     OW 1702   1.759   1.574   2.807 -0.6051  0.0211 -0.3826
  568SOL    HW1 1703   1.671   1.528   2.818  0.8822  1.2826  2.3793
  568SOL    HW2 1704   1.750   1.672   2.784  3.4041  1.3043 -0.2156
  569SOL     OW 1705   2.009   1.056   2.985 -0.1622  0.7221  0.5789
  569SOL    HW1 1706   1.949   1.125   2.942  1.4003  0.0412  0.7399
  569SOL    HW2 1707   2.105   1.073   2.965  0.4708 -0.4397  0.4623
  570SOL     OW 1708   0.400   2.301   1.973  0.4818 -0.1610 -0.4121
  570SOL    HW1 1709   0.454   2.384   1.960 -0.8059  0.7262 -0.6987
  570SOL    HW2 1710   0.301   2.323   1.978  1.6680 -3.3199  1.5514
  571SOL     OW 1711   0.262   1.086   1.947 -0.2205 -0.1933  0.1232
  571SOL    HW1 1712   0.197   1.026   1.905  2.0063  1.3596 -0.4522
  571SOL    HW2 1713   0.250   1.105   2.049  2.2012  1.0663  2.1884
  572SOL     OW 1714   0.950   1.861   0.618  0.5922 -0.1736 -0.2540
  572SOL    HW1 1715   0.927   1.800   0.704  0.5596 -2.3613  2.9796
  572SOL    HW2 1716   0.945   1.807   0.533  1.4800  0.4945  1.9212
  573SOL     OW 1717   1.760   1.956   0.069  0.3323 -0.3314  0.1966
  573SOL    HW1 1718   1.672   2.006   0.083  1.3138 -0.5279 -0.7037
  573SOL    HW2 1719   1.845   1.997   0.110  1.6129 -2.5453 -1.3174
  574SOL     OW 1720   0.907   2.978   1.072 -0.2558 -0.0633 -0.3040
  574SOL    HW1 1721   0.898   3.075   1.081  0.2791 -2.3136  0.9483
  574SOL    HW2 1722   0.819   2.933   1.054  0.3946  3.2803  1.0171
  575SOL     OW 1723   0.382   1.061   1.405 -0.0487 -0.1477 -0.3542
  575SOL    HW1 1724   0.424   1.096   1.491 -0.9541 -2.5664 -0.2239
  575SOL    HW2 1725   0.354   1.143   1.350 -1.3602  2.0251 -1.4582
  576SOL     OW 1726   2.554   0.076   1.058  0.4081  0.0514  0.1279
  576SOL    HW1 1727   2.472   0.079   1.121 -2.6843  2.5317  0.3964
  576SOL    HW2 1728   2.525   0.024   0.975  0.8777 -0.6691  1.6280
  577SOL     OW 1729   0.888   1.156   2.184  0.1314  0.0843  0.1820
  577SOL    HW1 1730   0.909   1.163   2.084 -0.4584 -1.1472  3.9342
  577SOL    HW2 1731   0.795   1.118   2.205 -1.1640  2.6874  0.2631
  578SOL     OW 1732   1.911   0.968   2.533  0.6210  0.3552 -0.5878
  578SOL    HW1 1733   1.828   1.025   2.512 -0.5600 -1.0240 -2.8137
  578SOL    HW2 1734   1.973   1.015   2.600  0.2513  1.8026 -0.7411
  579SOL     OW 1735   2.020   2.164   1.776 -0.1044 -0.0983 -0.0302
  579SOL    HW1 1736   2.022   2.106   1.860  1.1200 -1.3210  0.2071
  579SOL    HW2 1737   1.935   2.143   1.729  0.5252  1.7153  2.5451
  580SOL     OW 1738   1.505   1.571   2.336  0.1747  0.3785  0.3065
  580SOL    HW1 1739   1.562   1.649   2.373  0.2743  1.0114  0.7974
  580SOL    HW2 1740   1.402   1.591   2.315 -2.9893  0.4802 -3.3512
  581SOL     OW 1741   1.287   1.221   2.386  0.1338 -1.0204 -0.6382
  581SOL    HW1 1742   1.292   1.133   2.432  1.2537 -0.5451  1.6913
  581SOL    HW2 1743   1.367   1.279   2.409 -0.0160  1.3768 -1.3776
  582SOL     OW 1744   1.009   1.349   1.700  0.1775 -0.2616 -0.1478
  582SOL    HW1 1745   0.933   1.419   1.703 -1.8689  0.8524 -2.1566
  582SOL    HW2 1746   1.093   1.386   1.652  1.1101 -0.7182  2.1595
  583SOL     OW 1747   1.314   1.081   1.704 -0.2411 -0.3555  0.2950
  583SOL    HW1 1748   1.319   1.115   1.610  0.0141  1.6744 -0.5868
  583SOL    HW2 1749   1.324   1.164   1.762 -0.2722 -0.3207 -1.1516
  584SOL     OW 1750   2.115   2.901   0.434 -0.4280  0.3330  0.8364
  584SOL    HW1 1751   2.103   2.814   0.376 -1.3571 -1.1015  0.1499
  584SOL    HW2 1752   2.178   2.974   0.395 -0.6031 -2.3510  0.1702
  585SOL     OW 1753   1.800   3.074   2.941 -0.4812  0.2301 -0.0302
  585SOL    HW1 1754   1.895   3.077   2.909  2.7404 -2.4982 -1.8861
  585SOL    HW2 1755   1.788   3.040   3.040 -0.3918 -1.8924  1.8834
  586SOL     OW 1756   2.739   1.961   1.105 -0.1296 -0.4685 -0.0261
  586SOL    HW1 1757   2.728   1.864   1.078  0.0661 -0.4102  1.7421
  586SOL    HW2 1758   2.705   1.977   1.200  1.5121 -3.0162  0.5419
  587SOL     OW 1759   1.189   1.844   3.011  0.0405 -0.2159 -0.0017
  587SOL    HW1 1760   1.226   1.746   3.002 -1.2088 -2.8761 -0.6899
  587SOL    HW2 1761   1.187   1.886   2.916 -1.4824  1.6530 -0.0443
  588SOL     OW 1762   0.359   0.395   1.091 -0.3246  0.4317  0.6944
  588SOL    HW1 1763   0.449   0.435   1.100 -0.4661  0.1891 -2.1461
  588SOL    HW2 1764   0.342   0.323   1.167 -0.9911  0.4048 -0.6385
  589SOL     OW 1765   1.286   0.012   0.522 -0.6481 -0.0392  0.0804
  589SOL    HW1 1766   1.228   0.059   0.456  1.2319 -3.1373 -1.7815
  589SOL    HW2 1767   1.267   0.043   0.615  1.6980 -1.4464  0.4060
  590SOL     OW 1768   1.268   0.818   2.915  0.1834  0.4669 -0.6848
  590SOL    HW1 1769   1.214   0.812   2.826 -2.4737  1.3936 -0.1854
  590SOL    HW2 1770   1.223   0.892   2.970 -1.6222 -0.9788 -0.6204
  591SOL     OW 1771   2.949   2.282   2.226 -0.3598  0.3143 -0.0590
  591SOL    HW1 1772   2.938   2.385   2.231 -0.7462  1.7422  0.1428
  591SOL    HW2 1773   3.049   2.251   2.225  3.0915 -0.8637 -0.8637
  592SOL     OW 1774   2.426   1.525   1.719 -0.2688  0.4993  0.1894
  592SOL    HW1 1775   2.345   1.495   1.665 -1.4973  3.1906 -0.3364
  592SOL    HW2 1776   2.508   1.517   1.660  1.8634  0.8220 -0.1999
  593SOL     OW 1777   1.307   1.207   1.426 -0.5890  0.2529 -0.5494
  593SOL    HW1 1778   1.248   1.123   1.421  2.9295 -2.4003 -0.5342
  593SOL    HW2 1779   1.293   1.257   1.338  1.0624  0.6263 -1.2864
  594SOL     OW 1780   2.420   1.340   2.585  0.0933  0.0727  0.2413
  594SOL    HW1 1781   2.409   1.437   2.612 -0.0057 -0.4875 -0.7075
  594SOL    HW2 1782   2.482   1.336   2.506 -1.7277  1.0034  1.5662
  595SOL     OW 1783   0.062   0.263   0.529  0.2664 -0.1008 -0.1597
  595SOL    HW1 1784   0.094   0.252   0.627 -0.9621  0.2032  0.0589
  595SOL    HW2 1785   3.069   0.291   0.527  0.5990 -1.4132 -1.0038
  596SOL     OW 1786   2.962   1.600   1.027 -0.0455 -0.1180  0.1390
  596SOL    HW1 1787   2.981   1.498   1.026  1.5325 -0.7737  0.4325
  596SOL    HW2 1788   2.995   1.642   0.941 -1.7222  0.8506  2.0399
  597SOL     OW 1789   1.326   1.691   0.579  0.0568  0.0390 -0.1553
  597SOL    HW1 1790   1.382   1.760   0.627  0.8150 -0.9819 -0.2396
  597SOL    HW2 1791   1.292   1.720   0.488  3.6721 -2.9075  1.6456
  598SOL     OW 1792   0.306   2.877   1.917  0.1170 -0.3960  0.2953
  598SOL    HW1 1793   0.326   2.945   1.842  1.4092  0.4847  0.1574
  598SOL    HW2 1794   0.280   2.781   1.887  0.5887 -0.6901 -0.6645
  599SOL     OW 1795   3.010   1.578   2.608  0.1563 -0.0662  0.0604
  599SOL    HW1 1796   2.925   1.528   2.635 -1.5699  0.1779  0.1337
  599SOL    HW2 1797   3.006   1.677   2.624  0.7478 -1.4812 -1.0465
  600SOL     OW 1798   0.572   0.906   2.950  0.3269 -0.1848 -0.4305
  600SOL    HW1 1799   0.507   0.835   2.915 -2.6642  1.3777 -0.1126
  600SOL    HW2 1800   0.535   0.993   2.931  2.4851 -1.1598  2.8772
  601SOL     OW 1801   0.702   0.979   1.048  0.2228  0.0723  0.4528
  601SOL    HW1 1802   0.628   0.972   0.976 -0.3997  0.0443  0.2536
  601SOL    HW2 1803   0.660   0.949   1.134  2.5276 -1.8812 -3.7479
  602SOL     OW 1804   1.084   2.395   0.500  0.2078 -0.3297 -0.1490
  602SOL    HW1 1805   1.037   2.486   0.520 -2.3242  1.9053  1.1323
  602SOL    HW2 1806   1.179   2.393   0.531  0.3289  1.3497 -1.6048
  603SOL     OW 1807   1.577   2.091   2.298 -0.3219 -0.5448 -0.3217
  603SOL    HW1 1808   1.626   2.184   2.320  0.2130  1.0451  2.4521
  603SOL    HW2 1809   1.537   2.100   2.204  0.6105  1.6357 -1.6316
  604SOL     OW 1810   0.553   0.459   2.830  0.1357  0.3706  0.0250
  604SOL    HW1 1811   0.562   0.494   2.924 -0.9426 -0.8579 -1.3136
  604SOL    HW2 1812   0.615   0.381   2.817 -1.8532 -0.7602  0.0162
  605SOL     OW 1813   2.671   0.962   1.668 -0.4090 -0.6282 -0.0047
  605SOL    HW1 1814   2.639   1.009   1.755 -2.7732 -0.9356 -0.7247
  605SOL    HW2 1815   2.689   1.033   1.596 -2.0091 -0.2971 -0.5305
  606SOL     OW 1816   0.655   1.786   2.452 -0.8445 -0.1748 -0.5605
  606SOL    HW1 1817   0.629   1.874   2.411 -1.3385  2.1756  1.8829
  606SOL    HW2 1818   0.748   1.757   2.427 -0.3690 -0.5427 -0.9187
  607SOL     OW 1819   0.727   0.094   0.718  0.1277 -0.0196 -0.1693
  607SOL    HW1 1820   0.708   0.054   0.625  2.5071  3.0512  0.6533
  607SOL    HW2 1821   0.829   0.104   0.739 -1.1619  1.2984  0.2922
  608SOL     OW 1822   2.376   1.760   1.481  0.0644  0.2911 -0.3852
  608SOL    HW1 1823   2.299   1.806   1.440  2.8281 -0.3567 -1.0563
  608SOL    HW2 1824   2.347   1.717   1.571 -2.5157 -1.5228  0.6906
  609SOL     OW 1825   2.738   0.375   0.723 -0.0507  0.1192  0.2524
  609SOL    HW1 1826   2.683   0.355   0.803  0.0068 -0.0519 -1.5228
  609SOL    HW2 1827   2.689   0.448   0.668 -1.7298  0.3432  0.4148
  610SOL     OW 1828   0.368   2.676   1.215  0.3195  0.3013 -0.5964
  610SOL    HW1 1829   0.330   2.586   1.243 -1.7505  3.2157 -2.1056
  610SOL    HW2 1830   0.349   2.698   1.117 -1.2916  0.5724 -0.8681
  611SOL     OW 1831   1.487   1.633   0.076  0.3438  0.2628  0.1710
  611SOL    HW1 1832   1.587   1.643   0.068 -2.6327 -0.9489 -0.7191
  611SOL    HW2 1833   1.458   1.701   0.148 -0.0529  1.7108  1.2346
  612SOL     OW 1834   0.683   2.640   2.129  0.1630  0.6783  0.4601
  612SOL    HW1 1835   0.635   2.609   2.211  3.4657 -1.4386 -0.6568
  612SOL    HW2 1836   0.642   2.721   2.090 -0.7633 -3.6486 -0.6370
  613SOL     OW 1837   0.562   2.769   0.877  0.0519 -0.0576 -0.0497
  613SOL    HW1 1838   0.537   2.740   0.782 -0.7816 -1.2200 -2.3125
  613SOL    HW2 1839   0.613   2.700   0.929 -0.9601  4.5002  0.5360
  614SOL     OW 1840   2.261   0.159   2.096 -0.2590  0.1204 -0.1287
  614SOL    HW1 1841   2.234   0.249   2.064  0.1087  0.1934 -1.2516
  614SOL    HW2 1842   2.303   0.110   2.017  1.3687  2.3983 -0.6370
  615SOL     OW 1843   1.557   1.416   0.250  0.7162 -0.3309 -0.0211
  615SOL    HW1 1844   1.502   1.469   0.185 -1.2954  0.8092  1.9529
  615SOL    HW2 1845   1.649   1.451   0.281  1.8379 -0.0480 -1.0154
  616SOL     OW 1846   1.799   1.505   0.393 -0.4666  0.0285 -0.2957
  616SOL    HW1 1847   1.831   1.595   0.363  1.5866 -1.5060  1.3531
  616SOL    HW2 1848   1.876   1.439   0.393  1.0594  1.6513  0.6292
  617SOL     OW 1849   1.327   1.002   2.544  0.5471  0.4293 -0.1913
  617SOL    HW1 1850   1.266   0.928   2.583 -1.4135  0.9743  0.3119
  617SOL    HW2 1851   1.419   0.997   2.587 -1.3275 -0.6596  1.9784
  618SOL     OW 1852   0.570   2.857   2.039  0.4252 -0.2598  0.1555
  618SOL    HW1 1853   0.503   2.865   1.960 -1.3360  0.6651 -1.7704
  618SOL    HW2 1854   0.534   2.894   2.127  0.7959 -1.0735  1.0079
  619SOL     OW 1855   2.801   1.461   1.382 -0.0485  0.1671  0.3649
  619SOL    HW1 1856   2.882   1.402   1.391 -4.7605 -2.6560  0.6845
  619SOL    HW2 1857   2.814   1.529   1.307 -0.0131 -2.1525  0.3891
  620SOL     OW 1858   2.372   0.254   2.835 -0.6041 -0.1861 -0.4654
  620SOL    HW1 1859   2.397   0.295   2.742  1.7189 -0.3939 -0.7427
  620SOL    HW2 1860   2.386   0.151   2.827  1.1072 -1.5406  1.5180
  621SOL     OW 1861   2.540   2.042   2.594 -0.8035 -0.4248 -0.3573
  621SOL    HW1 1862   2.502   2.130   2.633 -3.3242  2.0270  0.1223
  621SOL    HW2 1863   2.467   1.977   2.566 -1.2174  0.6253  1.5953
  622SOL     OW 1864   0.944   0.908   2.561  0.0890  0.2885  0.1742
  622SOL    HW1 1865   0.863   0.846   2.553  0.5797  2.8077 -0.2292
  622SOL    HW2 1866   0.985   0.919   2.466 -1.2794  1.9499 -1.7177
  623SOL     OW 1867   0.629   1.083   2.231  0.2982 -0.0374  0.5033
  623SOL    HW1 1868   0.568   1.117   2.302 -0.2917 -2.9252 -2.9095
  623SOL    HW2 1869   0.650   0.985   2.244 -1.1265  3.0642 -2.3428
  624SOL     OW 1870   2.808   0.490   0.286 -0.0759 -0.1610  0.6102
  624SOL    HW1 1871   2.755   0.464   0.201  0.5036 -0.3903 -1.7547
  624SOL    HW2 1872   2.872   0.569   0.267  3.3909  0.7655  0.1029
  625SOL     OW 1873   0.959   2.354   1.155 -0.1672 -0.6023 -0.2822
  625SOL    HW1 1874   0.866   2.315   1.148 -0.2180  1.1093  0.0558
  625SOL    HW2 1875   0.976   2.425   1.225  1.3590 -0.7043 -1.4787
  626SOL     OW 1876   2.030   0.536   2.634 -0.2796 -0.5411 -0.2969
  626SOL    HW1 1877   2.073   0.576   2.717  1.2380 -2.2995  1.8955
  626SOL    HW2 1878   1.964   0.597   2.594  1.4236 -1.4374  1.4587
  627SOL     OW 1879   1.582   2.773   2.870  0.1166  0.6252  0.0024
  627SOL    HW1 1880   1.479   2.775   2.860  1.0569  0.3827  0.6749
  627SOL    HW2 1881   1.623   2.682   2.843  1.1463  3.2191 -0.9585
  628SOL     OW 1882   2.423   2.935   2.294 -0.2366 -0.2032  0.4507
  628SOL    HW1 1883   2.503   2.986   2.248  1.5814  0.1598 -0.1137
  628SOL    HW2 1884   2.364   2.986   2.353  0.8458 -1.8929 -0.4744
  629SOL     OW 1885   1.145   3.034   2.335  0.3929  0.4161  0.2841
  629SOL    HW1 1886   1.249   3.045   2.344  1.5899  1.3148  0.3396
  629SOL    HW2 1887   1.117   3.052   2.240  3.2843 -1.1137 -1.8412
  630SOL     OW 1888   0.938   0.300   2.432  0.1274  0.9102  0.5714
  630SOL    HW1 1889   0.940   0.332   2.529 -1.4301  0.5753 -0.5147
  630SOL    HW2 1890   0.903   0.206   2.424 -0.4908 -1.3069 -1.3341
  631SOL     OW 1891   1.893   1.280   0.811 -0.7896 -0.0998  0.2836
  631SOL    HW1 1892   1.793   1.288   0.779 -1.4738  2.1366 -1.7186
  631SOL    HW2 1893   1.891   1.268   0.912  1.2840  3.2740 -0.9109
  632SOL     OW 1894   2.459   0.437   1.750 -0.2922 -0.1051 -0.0006
  632SOL    HW1 1895   2.421   0.516   1.695  1.5332 -0.0936 -0.2272
  632SOL    HW2 1896   2.513   0.466   1.832  1.4576  1.8926  0.5822
  633SOL     OW 1897   1.049   1.711   0.157 -0.0152  0.1012 -0.3720
  633SOL    HW1 1898   1.085   1.753   0.076 -0.7558  0.4846  0.5585
  633SOL    HW2 1899   0.972   1.652   0.125  0.0135  0.3342  0.6769
  634SOL     OW 1900   2.764   0.005   1.769 -0.0719 -0.2234 -0.2720
  634SOL    HW1 1901   2.681   0.066   1.767 -0.5533  2.0468  2.3853
  634SOL    HW2 1902   2.832   0.032   1.692  1.9181  2.6421 -1.1028
  635SOL     OW 1903   1.582   0.486   0.993  0.6944  0.1869 -1.0012
  635SOL    HW1 1904   1.637   0.549   1.057  1.2085  1.4286  1.4199
  635SOL    HW2 1905   1.634   0.400   0.973  1.1501 -0.2889  0.0268
  636SOL     OW 1906   0.739   1.197   0.057 -0.1597  0.1531  0.2592
  636SOL    HW1 1907   0.746   1.090   0.062 -0.4954 -0.1932 -0.0371
  636SOL    HW2 1908   0.669   1.227   0.122 -0.5497 -0.9889 -0.4392
  637SOL     OW 1909   2.838   2.146   2.892  0.4603 -0.6807 -0.6047
  637SOL    HW1 1910   2.813   2.058   2.849 -0.0062  0.3451 -0.9185
  637SOL    HW2 1911   2.933   2.138   2.923 -1.1618 -1.0882 -0.2259
  638SOL     OW 1912   1.644   2.234   2.808 -0.1075  0.2176 -0.2782
  638SOL    HW1 1913   1.697   2.300   2.755  0.8119 -0.5477 -3.1909
  638SOL    HW2 1914   1.608   2.277   2.894 -0.7068 -1.3987  1.2729
  639SOL     OW 1915   1.615   1.787   0.755  0.5261 -0.2452 -0.2476
  639SOL    HW1 1916   1.530   1.816   0.805 -0.1325 -1.2821 -0.6535
  639SOL    HW2 1917   1.608   1.793   0.657  0.2221  0.0804  3.2658
  640SOL     OW 1918   1.883   3.080   0.380  0.1128  0.7854  0.0513
  640SOL    HW1 1919   1.965   3.021   0.399 -2.1644 -1.5392  1.2327
  640SOL    HW2 1920   1.905   0.068   0.339 -0.2511  1.7770  0.0524
  641SOL     OW 1921   2.653   0.449   0.063 -0.4012  0.5842 -0.0311
  641SOL    HW1 1922   2.571   0.509   0.079  0.8141 -1.3785  0.5182
  641SOL    HW2 1923   2.630   0.351   0.084 -0.0699  1.3237 -1.0258
  642SOL     OW 1924   0.208   0.666   1.269  0.3269 -0.1823 -0.0901
  642SOL    HW1 1925   0.158   0.582   1.247  0.9800  1.0246  1.8681
  642SOL    HW2 1926   0.152   0.733   1.323  0.7820  3.2660  1.2478
  643SOL     OW 1927   0.403   1.458   2.154  0.0848 -0.0543  0.8075
  643SOL    HW1 1928   0.498   1.421   2.130  1.9891 -0.6046 -2.3177
  643SOL    HW2 1929   0.414   1.547   2.196  1.4558  0.7558  2.1536
  644SOL     OW 1930   2.122   2.506   0.697  0.5141  0.1382  0.2308
  644SOL    HW1 1931   2.077   2.508   0.607 -0.8275 -0.3645 -2.7613
  644SOL    HW2 1932   2.101   2.420   0.746  0.9513 -1.4194  0.0837
  645SOL     OW 1933   2.186   2.133   1.160 -0.4773  0.0130  0.2007
  645SOL    HW1 1934   2.216   2.050   1.109  1.6335 -3.0268 -1.0708
  645SOL    HW2 1935   2.093   2.167   1.134  0.3667  0.8047  0.5010
  646SOL     OW 1936   0.925   2.310   2.872  0.3687  0.3977  0.2207
  646SOL    HW1 1937   0.931   2.216   2.909 -0.1808  1.7411 -1.4002
  646SOL    HW2 1938   0.878   2.367   2.937 -1.0477 -2.7501  0.1308
  647SOL     OW 1939   1.038   2.807   1.792  0.1833 -0.0732  0.0540
  647SOL    HW1 1940   1.121   2.775   1.740  2.4220 -1.1675  4.0487
  647SOL    HW2 1941   1.066   2.829   1.890 -3.9806  1.1961  1.5637
  648SOL     OW 1942   1.444   0.266   1.248 -0.3254 -0.0338 -0.1268
  648SOL    HW1 1943   1.441   0.185   1.310  1.2707 -0.5073 -0.2806
  648SOL    HW2 1944   1.536   0.297   1.244 -1.6407  2.0308 -0.7655
  649SOL     OW 1945   1.536   2.101   0.166 -0.3752  0.3304 -0.3190
  649SOL    HW1 1946   1.437   2.124   0.156  0.7264  0.9328  0.5040
  649SOL    HW2 1947   1.590   2.149   0.243  2.8450  1.8751  0.2524
  650SOL     OW 1948   2.247   1.478   1.523  0.3464 -0.0961  0.7350
  650SOL    HW1 1949   2.146   1.496   1.526 -0.8321 -1.0180 -0.8244
  650SOL    HW2 1950   2.286   1.512   1.435 -0.5672 -1.7220  0.9721
  651SOL     OW 1951   1.759   2.679   3.054  0.5985  0.1011  0.2750
  651SOL    HW1 1952   1.675   2.721   3.016  0.6961  0.2355 -1.2406
  651SOL    HW2 1953   1.773   2.587   3.015  0.7039  0.1137 -1.3738
  652SOL     OW 1954   0.222   2.093   3.007  0.0987 -0.0307  0.6674
  652SOL    HW1 1955   0.161   2.022   3.051  0.9713 -1.1437  0.1986
  652SOL    HW2 1956   0.321   2.065   2.995 -0.0027  1.2912 -0.6603
  653SOL     OW 1957   2.876   2.958   0.902 -0.2113  0.6615 -0.0638
  653SOL    HW1 1958   2.938   2.877   0.881 -1.4535  0.8115  0.5757
  653SOL    HW2 1959   2.780   2.934   0.921  2.3400 -0.1199  1.2086
  654SOL     OW 1960   2.778   2.955   1.989  0.0403 -0.0464  0.0909
  654SOL    HW1 1961   2.865   2.974   2.041 -0.4080 -0.3035 -2.0855
  654SOL    HW2 1962   2.781   3.006   1.898 -1.9938 -1.9156 -1.0041
  655SOL     OW 1963   3.000   2.071   1.072  0.2671  0.2345 -0.8818
  655SOL    HW1 1964   3.079   2.009   1.089  1.7317  2.1628 -0.1973
  655SOL    HW2 1965   2.913   2.019   1.081  1.5857  1.6500 -1.8935
  656SOL     OW 1966   2.915   3.024   2.421 -0.2633 -0.3737  0.0581
  656SOL    HW1 1967   2.910   3.015   2.318 -0.5538  0.1835 -0.8721
  656SOL    HW2 1968   2.926   2.936   2.468  1.0011 -0.8714  0.7217
  657SOL     OW 1969   2.855   1.328   2.932 -0.8458  0.0857 -0.2655
  657SOL    HW1 1970   2.933   1.271   2.906 -0.2762 -0.2654 -3.4379
  657SOL    HW2 1971   2.799   1.284   2.999  2.5414 -1.8322 -0.7920
  658SOL     OW 1972   2.455   1.734   0.928 -0.5090 -0.5094 -0.2834
  658SOL    HW1 1973   2.482   1.680   1.010  1.2909 -1.0688  1.4262
  658SOL    HW2 1974   2.516   1.720   0.852 -2.0756  2.7789  1.7626
  659SOL     OW 1975   1.682   0.257   0.903 -0.2708 -0.0738 -0.2362
  659SOL    HW1 1976   1.699   0.175   0.964 -1.3204 -1.7441  0.8863
  659SOL    HW2 1977   1.605   0.236   0.836  0.6771 -0.7213  0.1602
  660SOL     OW 1978   1.573   1.238   2.851  0.1567 -0.4136  0.5130
  660SOL    HW1 1979   1.485   1.211   2.895  1.8868  1.1020 -0.5604
  660SOL    HW2 1980   1.568   1.335   2.823  0.2554 -0.1266 -2.0694
  661SOL     OW 1981   0.330   2.258   1.070  0.2762  0.4309 -0.3200
  661SOL    HW1 1982   0.403   2.328   1.081  1.0950  2.4358 -2.0100
  661SOL    HW2 1983   0.245   2.292   1.120 -0.9478 -0.1376 -1.0922
  662SOL     OW 1984   2.951   0.509   2.631 -0.0341  0.3544  0.3849
  662SOL    HW1 1985   2.885   0.584   2.636  0.7328 -1.4811 -1.9122
  662SOL    HW2 1986   2.945   0.481   2.532 -0.2309 -2.2350 -2.7093
  663SOL     OW 1987   1.948   1.762   1.050  0.0690  0.1553 -0.0002
  663SOL    HW1 1988   1.892   1.714   0.978 -2.4678  1.3396  2.1761
  663SOL    HW2 1989   1.885   1.834   1.092 -1.3427  1.3868  1.2892
  664SOL     OW 1990   0.816   1.298   1.260  0.1937 -0.4674 -1.1562
  664SOL    HW1 1991   0.848   1.203   1.262  0.5102 -0.8799 -0.6157
  664SOL    HW2 1992   0.851   1.345   1.180  2.6944 -0.5838 -0.1644
  665SOL     OW 1993   1.784   2.639   2.466 -0.1285 -0.2535 -0.2430
  665SOL    HW1 1994   1.695   2.597   2.474  3.2690 -1.0395  1.4410
  665SOL    HW2 1995   1.806   2.658   2.369 -1.5258 -0.7567 -0.5069
  666SOL     OW 1996   2.900   2.907   2.803 -0.4157 -0.2957 -0.3292
  666SOL    HW1 1997   2.992   2.943   2.833  0.7141 -1.7421 -0.3241
  666SOL    HW2 1998   2.838   2.985   2.789  2.7151 -0.6588 -0.1851
  667SOL     OW 1999   2.397   1.332   1.910  0.0624  0.3586  0.1578
  667SOL    HW1 2000   2.401   1.404   1.838  1.4323 -0.4037 -2.1082
  667SOL    HW2 2001   2.328   1.262   1.886 -1.1582  0.8373  0.9343
  668SOL     OW 2002   0.324   1.131   2.553  0.3175 -0.1334 -0.2546
  668SOL    HW1 2003   0.319   1.156   2.648  0.9003 -0.4769 -4.0940
  668SOL    HW2 2004   0.317   1.206   2.486 -1.0659 -1.9154  0.2161
  669SOL     OW 2005   2.233   2.264   2.524  0.1630  0.0631  0.2578
  669SOL    HW1 2006   2.256   2.218   2.434 -0.7273 -3.8279  0.4219
  669SOL    HW2 2007   2.313   2.258   2.586 -1.7967  0.1166  0.8744
  670SOL     OW 2008   2.365   1.022   1.974 -0.0088 -0.3141  0.1961
  670SOL    HW1 2009   2.271   1.034   2.010  0.7969 -2.9411  0.0036
  670SOL    HW2 2010   2.370   1.057   1.878 -0.8653  0.9532 -3.1802
  671SOL     OW 2011   2.434   1.260   0.065  0.4151  0.2320  0.0281
  671SOL    HW1 2012   2.497   1.228   3.098 -1.4908 -1.6572  0.6916
  671SOL    HW2 2013   2.425   1.361   0.057 -0.1084  0.0173 -1.9416
  672SOL     OW 2014   2.500   1.090   2.212  0.1332  0.2057 -0.1590
  672SOL    HW1 2015   2.451   1.080   2.122 -0.4508 -1.0157  0.9630
  672SOL    HW2 2016   2.522   1.187   2.233 -2.6393  1.1634  0.7645
  673SOL     OW 2017   2.860   0.730   1.933 -0.3382 -0.0507  0.2686
  673SOL    HW1 2018   2.814   0.753   2.019  1.3353 -3.5618 -1.5019
  673SOL    HW2 2019   2.938   0.673   1.958 -0.4024 -2.4732 -1.4609
  674SOL     OW 2020   2.056   1.876   1.496 -0.3629 -0.3888  0.2296
  674SOL    HW1 2021   1.960   1.911   1.484  0.8874  1.9351  0.8802
  674SOL    HW2 2022   2.123   1.947   1.526  2.2927  0.3034 -1.5696
  675SOL     OW 2023   0.541   0.692   0.848  0.4228 -0.1583  1.0591
  675SOL    HW1 2024   0.479   0.715   0.924  0.0037 -1.4590 -0.7082
  675SOL    HW2 2025   0.623   0.643   0.882  0.8446 -0.2389 -1.8172
  676SOL     OW 2026   1.641   1.255   1.123 -0.6701  0.7262 -0.2594
  676SOL    HW1 2027   1.624   1.347   1.077 -1.6691  0.4053 -0.8661
  676SOL    HW2 2028   1.593   1.250   1.212 -0.7574 -0.3055 -0.4327
  677SOL     OW 2029   2.540   1.498   2.135  0.0240 -0.0199  0.3313
  677SOL    HW1 2030   2.526   1.461   2.041  0.9091 -0.4876 -1.5462
  677SOL    HW2 2031   2.509   1.591   2.156  2.2320 -3.0738 -2.8362
  678SOL     OW 2032   0.073   1.558   0.523 -0.6232 -0.2866 -0.3297
  678SOL    HW1 2033   0.028   1.492   0.591 -0.0633 -3.0871  1.0859
  678SOL    HW2 2034   0.004   1.578   0.448  0.2804  0.9624 -0.6296
  679SOL     OW 2035   2.592   2.605   0.451 -0.6715  0.6439 -0.0177
  679SOL    HW1 2036   2.536   2.650   0.521  1.1933 -1.3032 -2.4600
  679SOL    HW2 2037   2.682   2.653   0.430  0.4284  0.7646 -0.5079
  680SOL     OW 2038   2.806   2.304   1.521 -0.4969 -0.1085 -0.1796
  680SOL    HW1 2039   2.838   2.270   1.432  0.4482  1.7811  1.2768
  680SOL    HW2 2040   2.778   2.227   1.581  0.0457 -1.7255  0.1449
  681SOL     OW 2041   0.343   1.284   1.255  0.2772 -0.1365 -0.2193
  681SOL    HW1 2042   0.411   1.255   1.182 -0.5218 -1.2553 -3.4769
  681SOL    HW2 2043   0.271   1.339   1.208 -1.6532  0.8789 -0.7171
  682SOL     OW 2044   1.689   2.420   0.882  0.1371  0.1017  0.2216
  682SOL    HW1 2045   1.604   2.482   0.891 -3.7859 -0.6988  1.2706
  682SOL    HW2 2046   1.659   2.320   0.880 -0.6783  0.5713 -2.4328
  683SOL     OW 2047   2.249   1.238   0.572 -0.0180 -0.0630  0.3758
  683SOL    HW1 2048   2.307   1.236   0.657  0.7224 -1.5071  2.4516
  683SOL    HW2 2049   2.306   1.243   0.487 -1.6173  0.0759 -0.2060
  684SOL     OW 2050   0.894   2.218   1.939  0.5258  0.4759 -0.2095
  684SOL    HW1 2051   0.981   2.265   1.942 -0.2463 -0.5783 -2.0335
  684SOL    HW2 2052   0.855   2.206   1.846  0.1966  3.8969  0.7691
  685SOL     OW 2053   1.923   1.411   0.023 -0.3151 -0.0497  0.4210
  685SOL    HW1 2054   1.991   1.340   0.059  2.5494  0.2632  2.0185
  685SOL    HW2 2055   1.871   1.378   3.046  0.5436  2.0548 -1.6140
  686SOL     OW 2056   0.441   0.463   0.673 -0.3742 -0.3711  0.2555
  686SOL    HW1 2057   0.445   0.376   0.728 -1.7537 -3.2828  0.3757
  686SOL    HW2 2058   0.484   0.532   0.730  0.7389 -1.1163  0.4212
  687SOL     OW 2059   1.296   2.677   2.950 -0.2805  0.0214 -0.2025
  687SOL    HW1 2060   1.236   2.712   3.019  2.0337  1.0157  0.8659
  687SOL    HW2 2061   1.325   2.579   2.976  0.1039 -1.0401  1.0694
  688SOL     OW 2062   2.294   1.862   1.747  0.4019 -0.6677  0.4095
  688SOL    HW1 2063   2.372   1.818   1.801 -2.2998 -0.3391  1.5055
  688SOL    HW2 2064   2.331   1.913   1.663  2.0768 -0.5673 -3.2229
  689SOL     OW 2065   2.409   0.705   1.999  0.0284 -0.7366 -0.0133
  689SOL    HW1 2066   2.495   0.659   1.963  0.6050 -1.7977 -1.3461
  689SOL    HW2 2067   2.429   0.801   2.017 -0.6645 -1.1092  0.2975
  690SOL     OW 2068   2.012   0.755   1.488  0.1391 -0.1530  0.4204
  690SOL    HW1 2069   1.963   0.823   1.428  2.9855 -0.1147  2.1962
  690SOL    HW2 2070   2.087   0.806   1.529 -0.6639  0.5276 -0.7052
  691SOL     OW 2071   1.025   1.939   1.363  0.3435  0.1226  0.1058
  691SOL    HW1 2072   0.966   1.862   1.328  1.3791  3.5309 -1.2372
  691SOL    HW2 2073   1.030   2.011   1.296  0.9859 -1.3015 -1.5252
  692SOL     OW 2074   1.745   0.149   1.587  0.1944 -0.0287 -0.1313
  692SOL    HW1 2075   1.678   0.208   1.636 -1.0778  0.1726 -2.0801
  692SOL    HW2 2076   1.821   0.205   1.540 -2.1670  0.9732  0.3074
  693SOL     OW 2077   0.586   1.051   2.525  0.1365  0.3005 -0.0367
  693SOL    HW1 2078   0.617   0.957   2.503 -0.4220  0.2563 -0.3614
  693SOL    HW2 2079   0.484   1.053   2.547 -0.4485 -0.2557  0.8343
  694SOL     OW 2080   2.053   2.801   1.152  0.0119 -0.0714 -0.1284
  694SOL    HW1 2081   2.038   2.733   1.076 -0.0998 -2.7423  3.0771
  694SOL    HW2 2082   2.067   2.747   1.238  1.0719 -0.5077  1.0798
  695SOL     OW 2083   1.497   1.327   2.026  0.3170  0.0879 -0.1475
  695SOL    HW1 2084   1.479   1.357   1.932  0.9593  0.5466  0.0807
  695SOL    HW2 2085   1.560   1.392   2.067 -0.5239 -1.1059 -0.0595
  696SOL     OW 2086   1.707   0.351   1.295  0.0598 -0.0193 -0.6938
  696SOL    HW1 2087   1.782   0.323   1.234 -1.1505  2.0769  1.4926
  696SOL    HW2 2088   1.743   0.335   1.388 -0.5748  1.0227  0.4046
  697SOL     OW 2089   1.339   0.184   0.982  0.4024  0.0698  1.1241
  697SOL    HW1 2090   1.370   0.089   1.005  2.4763  1.2650 -0.2856
  697SOL    HW2 2091   1.365   0.246   1.056  1.9788 -1.2195 -0.4657
  698SOL     OW 2092   1.712   1.153   1.929 -0.3216  0.1520 -0.5101
  698SOL    HW1 2093   1.800   1.193   1.954 -1.4873 -3.2612 -0.4556
  698SOL    HW2 2094   1.632   1.207   1.966  0.8726 -0.3065 -0.6044
  699SOL     OW 2095   1.562   1.325   1.408  0.2879 -0.4433  0.2608
  699SOL    HW1 2096   1.482   1.266   1.421  0.7979 -0.1401  0.1967
  699SOL    HW2 2097   1.618   1.343   1.494  2.7877  0.9522 -1.9665
  700SOL     OW 2098   1.548   0.159   0.391  0.3577  0.4729 -0.2383
  700SOL    HW1 2099   1.601   0.211   0.332 -1.9892 -2.5936  0.6215
  700SOL    HW2 2100   1.452   0.156   0.362 -0.2934  1.4960  2.3846
  701SOL     OW 2101   0.317   2.987   1.641 -0.0122  0.5294  0.2501
  701SOL    HW1 2102   0.362   3.077   1.624 -0.6454  1.0225  1.0615
  701SOL    HW2 2103   0.349   2.908   1.578  1.2912 -2.7830 -4.1530
  702SOL     OW 2104   1.262   2.912   0.194  0.3028  0.1452  0.2252
  702SOL    HW1 2105   1.293   2.876   0.285  2.5623  0.9190  3.6552
  702SOL    HW2 2106   1.342   2.913   0.134  0.0249  0.8132  1.3350
  703SOL     OW 2107   2.511   0.284   2.131  0.2711 -0.3169 -0.2964
  703SOL    HW1 2108   2.484   0.380   2.150  0.5432 -1.4576 -2.9450
  703SOL    HW2 2109   2.433   0.224   2.117  0.6173 -1.7513 -3.7276
  704SOL     OW 2110   1.317   2.211   1.058 -0.3275  0.0018  0.2891
  704SOL    HW1 2111   1.402   2.154   1.058 -0.8604 -1.9959 -0.0779
  704SOL    HW2 2112   1.305   2.266   1.141  1.3907  1.2119 -0.9134
  705SOL     OW 2113   3.060   1.180   2.043 -1.0032 -0.1244  0.0538
  705SOL    HW1 2114   3.023   1.116   2.113  1.0324 -1.9260 -0.1564
  705SOL    HW2 2115   3.027   1.153   1.953 -1.1067  0.2879 -1.4634
  706SOL     OW 2116   1.537   0.217   0.679 -0.5246  0.6446  0.2608
  706SOL    HW1 2117   1.440   0.231   0.700  3.3251 -0.6283  2.0577
  706SOL    HW2 2118   1.553   0.179   0.588  1.3341  1.0295  1.8657
  707SOL     OW 2119   1.170   2.226   2.350  0.3551 -0.7277  0.8322
  707SOL    HW1 2120   1.082   2.193   2.376  0.3845  0.0691  0.7489
  707SOL    HW2 2121   1.239   2.182   2.407 -0.7337  0.5993  0.2434
  708SOL     OW 2122   2.971   2.258   1.258 -0.2398  0.0920 -0.2997
  708SOL    HW1 2123   2.973   2.190   1.183  0.6664  0.2999  3.2403
  708SOL    HW2 2124   3.015   2.215   1.340  1.8852  1.1472  1.7014
  709SOL     OW 2125   1.738   0.489   1.813  0.1122  0.1834  0.3472
  709SOL    HW1 2126   1.795   0.402   1.810  1.5618  0.5775 -0.3284
  709SOL    HW2 2127   1.712   0.509   1.909  0.6012  0.2679  0.7380
  710SOL     OW 2128   2.916   0.205   1.356  0.4101  0.0423  0.8783
  710SOL    HW1 2129   2.866   0.126   1.314 -0.0585 -2.1602 -0.1480
  710SOL    HW2 2130   2.887   0.295   1.319  0.6563  2.6666  0.5003
  711SOL     OW 2131   0.278   2.451   0.847  0.0294 -0.2586  0.5076
  711SOL    HW1 2132   0.344   2.383   0.884 -0.6946  1.6812 -0.5878
  711SOL    HW2 2133   0.181   2.413   0.858 -0.3222 -1.8283  2.1193
  712SOL     OW 2134   0.121   2.158   2.538  0.2938 -0.4024  0.2253
  712SOL    HW1 2135   0.068   2.079   2.497 -2.8655 -3.3678  0.6355
  712SOL    HW2 2136   0.181   2.194   2.469  2.3468 -0.7982 -1.1585
  713SOL     OW 2137   1.749   0.698   0.147  0.4190  0.2995  0.1212
  713SOL    HW1 2138   1.672   0.692   0.217  2.4739 -0.7269  0.3698
  713SOL    HW2 2139   1.714   0.737   0.065  0.3187 -1.4364  2.4280
  714SOL     OW 2140   1.462   1.832   0.261  0.3712 -0.0036 -0.8206
  714SOL    HW1 2141   1.493   1.913   0.207  1.3098  1.9592  2.4676
  714SOL    HW2 2142   1.363   1.837   0.286  0.0847  1.1108  0.7063
  715SOL     OW 2143   2.635   0.145   0.571  0.6097 -0.1551  0.4873
  715SOL    HW1 2144   2.690   0.212   0.619 -1.7961 -0.2932  0.8831
  715SOL    HW2 2145   2.668   0.052   0.598  0.7007 -1.0007 -0.0176
  716SOL     OW 2146   0.544   0.336   2.419  0.5644  0.2485 -0.2362
  716SOL    HW1 2147   0.582   0.405   2.479 -0.2450  0.2993  0.0162
  716SOL    HW2 2148   0.466   0.291   2.462  2.3901  0.7831  0.8177
  717SOL     OW 2149   0.248   0.332   2.795 -0.3803  0.0982 -0.5540
  717SOL    HW1 2150   0.348   0.357   2.802  2.7075  0.3654  3.4406
  717SOL    HW2 2151   0.225   0.229   2.793  0.6944 -1.5368 -2.7848
  718SOL     OW 2152   0.898   0.778   0.539  0.6043  0.0375 -0.3117
  718SOL    HW1 2153   0.861   0.709   0.604 -0.9989  3.8666  0.4545
  718SOL    HW2 2154   0.964   0.743   0.467 -1.8358  1.5260  0.1461
  719SOL     OW 2155   2.483   2.102   2.893 -0.1014  0.2110  0.4489
  719SOL    HW1 2156   2.421   2.044   2.949  1.0376  2.3297 -0.9100
  719SOL    HW2 2157   2.549   2.053   2.833  1.0278 -1.9508  1.3856
  720SOL     OW 2158   1.349   0.931   1.226  0.2355  0.2351 -0.6573
  720SOL    HW1 2159   1.352   1.011   1.164  0.2013  1.9929  2.0484
  720SOL    HW2 2160   1.278   0.945   1.293  0.9519 -0.6720  0.0832
  721SOL     OW 2161   2.982   0.799   0.530  0.4040  0.1488 -0.1172
  721SOL    HW1 2162   2.921   0.750   0.598 -1.0368 -1.7624 -3.7245
  721SOL    HW2 2163   3.083   0.786   0.554  1.2299 -1.5663 -0.3432
  722SOL     OW 2164   1.029   2.037   2.583 -0.0575  0.0425  0.1083
  722SOL    HW1 2165   0.998   2.005   2.675 -0.6042 -0.4511 -2.6458
  722SOL    HW2 2166   1.007   2.138   2.587 -1.9040 -0.2760  1.2962
  723SOL     OW 2167   0.582   0.724   0.373 -0.3782 -0.3949  0.3070
  723SOL    HW1 2168   0.577   0.708   0.474 -0.0159  3.4884  1.5685
  723SOL    HW2 2169   0.642   0.807   0.359  0.9471  2.7678 -1.0705
  724SOL     OW 2170   0.852   1.904   1.668 -0.6039 -0.5012  0.0561
  724SOL    HW1 2171   0.832   1.853   1.583 -3.4615 -0.7219  0.1995
  724SOL    HW2 2172   0.806   1.999   1.670 -1.6418  2.6826  1.6750
  725SOL     OW 2173   0.167   0.869   1.460  0.0035 -0.0591 -0.4332
  725SOL    HW1 2174   0.220   0.949   1.423  0.7276  1.1132 -2.0662
  725SOL    HW2 2175   0.222   0.820   1.532 -2.6667 -1.3692  0.6752
  726SOL     OW 2176   1.638   0.493   0.607  0.0464 -0.8039 -0.0602
  726SOL    HW1 2177   1.618   0.414   0.665  1.4692 -0.4651  0.6423
  726SOL    HW2 2178   1.600   0.493   0.512 -0.9854  1.9860 -2.3737
  727SOL     OW 2179   1.539   0.989   2.225 -0.7331 -0.4884 -0.4938
  727SOL    HW1 2180   1.463   1.055   2.204  0.2316  0.8651  0.4681
  727SOL    HW2 2181   1.499   0.907   2.269 -0.3824  0.3636 -1.9400
  728SOL     OW 2182   1.771   2.398   1.216  0.2343 -0.1262  0.0616
  728SOL    HW1 2183   1.761   2.480   1.154  0.1481  1.2222  1.7303
  728SOL    HW2 2184   1.832   2.422   1.290 -0.0463  0.1456 -3.6045
  729SOL     OW 2185   1.312   0.582   1.469 -0.8489  0.0647 -0.0055
  729SOL    HW1 2186   1.306   0.572   1.368 -1.8866 -0.4335 -0.5136
  729SOL    HW2 2187   1.303   0.497   1.521 -1.9869  1.0701 -2.4936
  730SOL     OW 2188   0.777   2.163   1.693  0.2436 -0.2750  0.5101
  730SOL    HW1 2189   0.679   2.158   1.722  1.3572  2.5663 -0.3617
  730SOL    HW2 2190   0.798   2.179   1.591  3.4122 -0.1806 -2.6678
  731SOL     OW 2191   0.421   0.278   0.282  0.1505  0.3368  0.0148
  731SOL    HW1 2192   0.355   0.249   0.355 -1.8517  0.4228 -1.3301
  731SOL    HW2 2193   0.405   0.229   0.192  0.1378  2.1150 -0.1408
  732SOL     OW 2194   0.605   0.489   3.092  0.4145 -0.2693 -0.0835
  732SOL    HW1 2195   0.620   0.397   0.020  0.4924  4.1904 -3.2776
  732SOL    HW2 2196   0.548   0.532   0.058  1.9910 -1.0011 -0.2181
  733SOL     OW 2197   1.285   1.905   1.456  0.3539 -0.1326  0.0626
  733SOL    HW1 2198   1.295   1.842   1.532 -2.4792 -0.8180  3.1473
  733SOL    HW2 2199   1.188   1.918   1.435  0.6153 -1.3450 -2.8545
  734SOL     OW 2200   2.897   2.806   2.545  0.1283 -0.4642  0.3475
  734SOL    HW1 2201   2.908   2.704   2.544  1.1067 -1.0457  1.9903
  734SOL    HW2 2202   2.899   2.842   2.640  0.9440  1.9011  0.1684
  735SOL     OW 2203   0.968   2.653   0.898  0.1144  0.2537 -0.5116
  735SOL    HW1 2204   0.975   2.738   0.837  1.6393  1.0299 -0.5759
  735SOL    HW2 2205   1.021   2.575   0.863 -0.3373  0.8757 -0.3880
  736SOL     OW 2206   1.554   0.669   2.533 -0.2710  0.2627 -0.2541
  736SOL    HW1 2207   1.500   0.713   2.458 -0.3681  0.5254  0.4615
  736SOL    HW2 2208   1.534   0.706   2.630 -1.1632  0.3703  0.0560
  737SOL     OW 2209   2.984   0.718   0.274  0.0874 -0.0932  0.3368
  737SOL    HW1 2210   3.077   0.679   0.253 -1.6070  1.9043  3.0164
  737SOL    HW2 2211   2.985   0.761   0.364  0.9067 -0.5039 -0.6376
  738SOL     OW 2212   0.076   2.625   1.588  0.0087  0.2671  0.0970
  738SOL    HW1 2213   3.085   2.601   1.608  2.5134  1.3676  0.6378
  738SOL    HW2 2214   0.084   2.674   1.498 -0.0341 -2.8182 -0.1758
  739SOL     OW 2215   1.693   3.015   0.765 -0.0135 -0.2575  0.1573
  739SOL    HW1 2216   1.597   3.012   0.801 -1.1871 -1.4361 -0.9076
  739SOL    HW2 2217   1.684   3.039   0.665  1.0600 -1.4506 -4.8213
  740SOL     OW 2218   1.590   2.948   1.252  0.2304  0.3830  0.3146
  740SOL    HW1 2219   1.692   2.961   1.239  0.9684  0.5935  0.5138
  740SOL    HW2 2220   1.574   2.848   1.264  0.7555 -0.2994 -1.2244
  741SOL     OW 2221   2.040   0.455   1.009 -0.2792  0.8996  0.4017
  741SOL    HW1 2222   1.994   0.543   1.029  0.9749  0.7423 -0.3796
  741SOL    HW2 2223   2.042   0.443   0.909 -0.7169  0.0858  3.0521
  742SOL     OW 2224   1.483   2.117   2.045 -0.2284 -0.1745 -0.2425
  742SOL    HW1 2225   1.449   2.043   1.977 -2.3025 -1.6001 -0.3304
  742SOL    HW2 2226   1.396   2.160   2.076  0.2189  2.4719 -2.1250
  743SOL     OW 2227   2.140   0.366   1.959 -0.1748 -0.1787  0.0358
  743SOL    HW1 2228   2.154   0.459   1.986  1.4218 -2.4477  0.2437
  743SOL    HW2 2229   2.061   0.321   2.007  1.8403 -1.7157 -1.1895
  744SOL     OW 2230   2.409   0.609   1.072 -0.0013  0.1329 -1.2073
  744SOL    HW1 2231   2.445   0.642   0.980  1.2732  1.2444  2.2009
  744SOL    HW2 2232   2.351   0.683   1.111  0.4305 -2.1660 -0.2569
  745SOL     OW 2233   2.064   1.632   1.703  0.0289 -0.3119  0.2318
  745SOL    HW1 2234   2.052   1.680   1.610 -0.3497  0.3957 -1.5036
  745SOL    HW2 2235   2.124   1.692   1.764  2.8187  2.4754 -1.5092
  746SOL     OW 2236   0.936   1.676   0.821 -0.2443 -0.7570  0.1818
  746SOL    HW1 2237   0.845   1.700   0.864 -2.3635 -0.0108  2.6159
  746SOL    HW2 2238   1.011   1.645   0.882  0.9424  1.1508  1.7100
  747SOL     OW 2239   1.913   1.203   1.102 -0.6096 -0.4916 -0.6352
  747SOL    HW1 2240   1.813   1.220   1.110  1.1167  1.8829  0.5253
  747SOL    HW2 2241   1.939   1.103   1.106 -0.0293 -1.3618  1.4190
  748SOL     OW 2242   0.256   3.038   0.210 -1.0556  0.3222  0.3686
  748SOL    HW1 2243   0.255   3.094   0.295 -0.5313  0.1478  2.3619
  748SOL    HW2 2244   0.283   2.942   0.235 -0.9024 -3.0570 -1.5088
  749SOL     OW 2245   0.322   0.182   2.411  0.3724  0.4570  0.0203
  749SOL    HW1 2246   0.318   0.193   2.309 -0.7101 -0.6067  1.0303
  749SOL    HW2 2247   0.225   0.155   2.440 -3.0294  1.8234 -0.1493
  750SOL     OW 2248   1.816   2.960   1.532 -0.0844 -0.3413  0.1342
  750SOL    HW1 2249   1.794   3.053   1.570  1.0899  1.0058  2.0642
  750SOL    HW2 2250   1.742   2.890   1.547 -1.8134  0.4024  0.2793
  751SOL     OW 2251   2.917   0.364   0.499 -0.6916  0.3310 -0.3404
  751SOL    HW1 2252   2.876   0.403   0.416  0.4827 -1.9642  1.0980
  751SOL    HW2 2253   2.858   0.378   0.582  1.5527 -1.5392 -1.9732
  752SOL     OW 2254   0.190   2.927   1.066 -0.1463 -0.0311  0.5336
  752SOL    HW1 2255   0.226   2.841   1.022  0.2844  0.0745  2.7724
  752SOL    HW2 2256   0.091   2.909   1.099 -2.2555  0.1208  0.8998
  753SOL     OW 2257   0.997   0.324   1.514 -0.2332  0.5009  0.2423
  753SOL    HW1 2258   1.007   0.244   1.574  1.0086  0.7237  1.3461
  753SOL    HW2 2259   1.073   0.320   1.450 -4.2299  0.1570  2.0778
  754SOL     OW 2260   0.948   2.674   2.193 -0.2768  0.2584  0.1411
  754SOL    HW1 2261   1.001   2.587   2.204 -1.7084 -1.4813 -2.5206
  754SOL    HW2 2262   0.852   2.659   2.156  1.5763  1.4096  0.4963
  755SOL     OW 2263   2.474   1.242   0.394  0.1625 -0.1964  0.4777
  755SOL    HW1 2264   2.519   1.316   0.455  0.0162  0.5683  3.3787
  755SOL    HW2 2265   2.481   1.256   0.295  0.1858 -5.5687  1.2584
  756SOL     OW 2266   1.939   1.983   2.698 -0.7415  0.0044 -0.4540
  756SOL    HW1 2267   1.884   1.979   2.783 -0.0973  0.2307  0.1919
  756SOL    HW2 2268   2.040   1.969   2.719  0.9491 -0.6861 -0.3388
  757SOL     OW 2269   2.027   0.102   0.791  0.5521  0.1693  0.1368
  757SOL    HW1 2270   1.961   0.073   0.868 -3.5781 -0.5871  0.8343
  757SOL    HW2 2271   1.977   0.157   0.721 -1.6053 -0.9469  0.1582
  758SOL     OW 2272   1.301   2.526   0.741  0.0084 -0.3637 -0.4958
  758SOL    HW1 2273   1.379   2.561   0.798 -0.2381  0.0728  1.6037
  758SOL    HW2 2274   1.329   2.474   0.657  0.4869 -1.2280 -2.2143
  759SOL     OW 2275   2.612   0.497   1.203  0.2927 -0.9024  0.4457
  759SOL    HW1 2276   2.530   0.546   1.171 -0.3356  0.2599 -0.3404
  759SOL    HW2 2277   2.589   0.444   1.289  0.1820  0.9768  3.1622
  760SOL     OW 2278   2.179   1.181   1.333  0.3145 -0.0421 -0.0099
  760SOL    HW1 2279   2.215   1.181   1.238  1.4686  4.0433  0.1571
  760SOL    HW2 2280   2.232   1.130   1.396 -2.3842  1.7627  0.2305
  761SOL     OW 2281   0.453   0.814   0.621 -0.0979  0.2332  0.5028
  761SOL    HW1 2282   0.504   0.898   0.587  0.5124 -1.8190 -0.2053
  761SOL    HW2 2283   0.496   0.769   0.704  1.2058 -0.5072 -0.1108
  762SOL     OW 2284   2.130   1.774   1.248  0.3461  0.4722 -0.2397
  762SOL    HW1 2285   2.044   1.750   1.193 -1.1694  0.0683 -0.3309
  762SOL    HW2 2286   2.106   1.817   1.335  0.8517 -1.0861 -0.9365
  763SOL     OW 2287   1.203   1.504   1.614  0.4431 -0.0528  0.1846
  763SOL    HW1 2288   1.198   1.524   1.518  1.3118  2.4836  2.8729
  763SOL    HW2 2289   1.228   1.587   1.665  1.4954 -0.8158 -1.0597
  764SOL     OW 2290   0.207   1.891   2.126  0.0291  0.1210  0.0042
  764SOL    HW1 2291   0.148   1.816   2.090  1.1755 -2.9320  1.7807
  764SOL    HW2 2292   0.241   1.864   2.215 -0.0593 -0.8421  2.0961
  765SOL     OW 2293   1.622   2.188   1.279  0.1020  0.0689  0.3144
  765SOL    HW1 2294   1.549   2.191   1.347  1.0506 -1.9236  0.4436
  765SOL    HW2 2295   1.676   2.280   1.271  1.4775 -0.1454 -1.2780
  766SOL     OW 2296   0.286   2.552   2.356 -0.2267  0.0588  0.6661
  766SOL    HW1 2297   0.272   2.568   2.457 -0.2249 -1.6046  0.7747
  766SOL    HW2 2298   0.207   2.557   2.292 -0.9518 -3.3283 -1.7552
  767SOL     OW 2299   1.375   0.803   2.325  0.0642  0.0292 -0.5206
  767SOL    HW1 2300   1.333   0.719   2.290 -0.2252  0.8824  0.2473
  767SOL    HW2 2301   1.302   0.868   2.358 -0.7965  1.0444 -0.0975
  768SOL     OW 2302   1.335   2.411   3.000  0.2872 -0.2286 -0.3135
  768SOL    HW1 2303   1.431   2.384   3.027 -0.8366 -0.3672  0.5118
  768SOL    HW2 2304   1.280   2.412   3.084  0.4723  3.5027  2.2684
  769SOL     OW 2305   0.098   2.739   1.317 -0.1766 -0.4215  0.2932
  769SOL    HW1 2306   0.021   2.772   1.260  0.2902 -1.1310 -0.6207
  769SOL    HW2 2307   0.173   2.728   1.249 -0.3215  0.4182 -0.5500
  770SOL     OW 2308   1.541   0.391   2.632 -0.7738  0.3001 -0.3874
  770SOL    HW1 2309   1.638   0.368   2.651  0.1735  1.1480  1.8482
  770SOL    HW2 2310   1.537   0.481   2.591 -1.0670 -1.4919  0.2319
  771SOL     OW 2311   0.427   0.040   2.602 -0.6931  0.1069  0.5554
  771SOL    HW1 2312   0.353   0.060   2.670  3.6535  0.9296 -2.9744
  771SOL    HW2 2313   0.399   0.083   2.516  1.0083 -2.9370  0.1216
  772SOL     OW 2314   2.349   0.005   1.873  0.5359  0.1800 -0.9160
  772SOL    HW1 2315   2.419   0.067   1.834  0.7540  0.8039 -0.4651
  772SOL    HW2 2316   2.330   3.029   1.803  0.6511 -1.1302 -2.1659
  773SOL     OW 2317   1.092   2.407   1.976 -0.6378 -0.3353  0.5754
  773SOL    HW1 2318   1.122   2.441   2.067 -0.0586 -1.3773 -0.1755
  773SOL    HW2 2319   1.001   2.445   1.946  0.5027 -1.3030  1.1588
  774SOL     OW 2320   1.105   0.170   1.937  0.2991 -0.0081  0.1471
  774SOL    HW1 2321   1.186   0.235   1.935  0.7489  0.3045  0.2435
  774SOL    HW2 2322   1.014   0.222   1.933 -1.2383 -1.1143 -0.2888
  775SOL     OW 2323   2.127   2.810   0.008 -0.0654 -0.1485  0.3815
  775SOL    HW1 2324   2.032   2.820   0.041 -1.6299  0.0213  3.9283
  775SOL    HW2 2325   2.178   2.899   3.097 -0.2556  1.0915 -0.5701
  776SOL     OW 2326   2.004   0.588   2.257 -0.0308  0.2445 -0.0063
  776SOL    HW1 2327   1.973   0.672   2.305  0.6593 -2.8276  1.1559
  776SOL    HW2 2328   2.036   0.603   2.161  0.8271 -2.5139  0.6827
  777SOL     OW 2329   2.244   1.182   2.463  0.2999 -0.2522 -0.4241
  777SOL    HW1 2330   2.180   1.138   2.529  2.4927 -0.5906  0.2276
  777SOL    HW2 2331   2.311   1.245   2.512 -0.0941 -2.4088  1.0848
  778SOL     OW 2332   1.969   0.876   2.279  0.0082 -0.3022 -0.6736
  778SOL    HW1 2333   1.881   0.880   2.226  2.8099 -0.5014 -0.0577
  778SOL    HW2 2334   1.955   0.919   2.370 -2.2115  0.2665  2.8060
  779SOL     OW 2335   0.060   3.071   0.026  0.1361 -0.1305  0.0969
  779SOL    HW1 2336   0.136   3.078   0.096  0.0878  0.4131  0.0381
  779SOL    HW2 2337   0.028   0.061   0.003 -1.5811  1.3998  1.8971
  780SOL     OW 2338   2.299   0.383   3.062 -0.1068  0.0008  0.0790
  780SOL    HW1 2339   2.331   0.338   2.981 -2.0679  1.7137 -1.6338
  780SOL    HW2 2340   2.300   0.483   3.052  1.8415 -1.6482  1.8943
  781SOL     OW 2341   0.419   2.834   1.425  0.4612  0.6191  0.3717
  781SOL    HW1 2342   0.402   2.921   1.374  2.9613 -2.2509  0.5997
  781SOL    HW2 2343   0.412   2.759   1.357 -2.5142 -1.8677 -0.2051
  782SOL     OW 2344   1.999   2.490   0.430 -0.3737 -0.1583  0.2477
  782SOL    HW1 2345   1.916   2.526   0.482  0.1707  1.0173  1.8881
  782SOL    HW2 2346   2.035   2.562   0.368 -0.0876 -1.6722 -2.7290
  783SOL     OW 2347   0.774   1.533   1.679  0.2434  1.0121 -0.5864
  783SOL    HW1 2348   0.747   1.477   1.599 -1.1122 -0.1699 -0.2835
  783SOL    HW2 2349   0.698   1.531   1.752 -0.2443 -1.1334  2.3630
  784SOL     OW 2350   1.303   0.577   2.221 -0.0626 -0.2991 -0.0357
  784SOL    HW1 2351   1.363   0.553   2.140  3.8162  0.3402 -0.6816
  784SOL    HW2 2352   1.270   0.494   2.269  3.3620  2.0291 -0.8809
  785SOL     OW 2353   2.586   0.341   0.927 -0.5249 -0.2990 -0.2269
  785SOL    HW1 2354   2.601   0.397   1.007 -1.3997 -0.8233 -1.1571
  785SOL    HW2 2355   2.539   0.254   0.949 -0.0719 -1.0080 -0.9001
  786SOL     OW 2356   1.498   2.683   1.290 -0.1996 -0.1813 -0.0678
  786SOL    HW1 2357   1.575   2.656   1.352  1.0839  0.9315 -0.0850
  786SOL    HW2 2358   1.450   2.606   1.243 -1.1955  0.7899 -0.1488
  787SOL     OW 2359   1.499   0.045   1.424  0.5237  0.2278  0.3445
  787SOL    HW1 2360   1.529   3.061   1.378  2.7501  2.1989  0.9831
  787SOL    HW2 2361   1.569   0.089   1.482 -2.3322 -2.1618  0.5248
  788SOL     OW 2362   2.797   1.004   0.167 -0.2267  0.2942 -0.0762
  788SOL    HW1 2363   2.868   0.954   0.107  1.0721  1.8205  0.6031
  788SOL    HW2 2364   2.829   1.013   0.262  0.3222  0.3146  2.1090
  789SOL     OW 2365   0.442   1.754   1.769 -0.0206 -0.8201 -0.1316
  789SOL    HW1 2366   0.446   1.827   1.844  2.2615  0.7878 -3.0129
  789SOL    HW2 2367   0.476   1.662   1.800  0.8268 -0.2517 -1.2697
  790SOL     OW 2368   0.386   0.599   2.653  0.2398 -0.6031  0.2216
  790SOL    HW1 2369   0.443   0.537   2.707 -1.1901 -0.5479 -2.1048
  790SOL    HW2 2370   0.293   0.564   2.654  1.3835 -1.9327 -1.7467
  791SOL     OW 2371   2.137   0.786   0.880  0.6280 -0.6751 -0.3617
  791SOL    HW1 2372   2.038   0.783   0.907  0.6475  1.4947 -0.5529
  791SOL    HW2 2373   2.160   0.870   0.835  0.4559  0.4858 -2.4479
  792SOL     OW 2374   1.279   2.798   1.469  0.2137 -0.2255 -0.1109
  792SOL    HW1 2375   1.255   2.726   1.535 -1.5118 -0.4816  1.1445
  792SOL    HW2 2376   1.363   2.783   1.418 -0.5967  1.3676  1.3108
  793SOL     OW 2377   0.317   0.046   0.905 -0.0379  0.6386  0.2041
  793SOL    HW1 2378   0.242   3.101   0.958 -0.9153 -2.4030 -1.0239
  793SOL    HW2 2379   0.405   3.095   0.913  2.7356 -1.7325  1.3798
  794SOL     OW 2380   0.481   0.639   2.341  0.1237  0.4715  0.1889
  794SOL    HW1 2381   0.513   0.611   2.432 -1.3727  2.5737  2.8000
  794SOL    HW2 2382   0.384   0.612   2.322  1.1450 -1.1579 -0.7608
  795SOL     OW 2383   0.581   2.352   2.518  0.8300  0.3259 -0.8242
  795SOL    HW1 2384   0.540   2.258   2.496 -0.3344 -0.7435  0.0691
  795SOL    HW2 2385   0.680   2.353   2.499 -0.8940  0.8659 -1.5022
  796SOL     OW 2386   2.232   0.515   2.424  0.5164 -0.5567 -0.3699
  796SOL    HW1 2387   2.159   0.510   2.499  0.5516  1.3296 -1.3226
  796SOL    HW2 2388   2.186   0.551   2.342 -0.6928  0.5248  1.6211
  797SOL     OW 2389   2.311   2.581   2.528 -0.4304  0.1190 -0.0299
  797SOL    HW1 2390   2.258   2.501   2.558 -1.0676  1.2202 -0.2937
  797SOL    HW2 2391   2.300   2.657   2.593 -0.0286 -0.6660 -0.3776
  798SOL     OW 2392   0.271   0.194   2.143 -0.0990 -0.1915 -0.9778
  798SOL    HW1 2393   0.349   0.149   2.100  0.5395  2.4235 -0.2082
  798SOL    HW2 2394   0.186   0.194   2.094  5.9278 -0.4420  2.2252
  799SOL     OW 2395   0.747   2.367   2.118  0.5589 -0.3490 -0.7846
  799SOL    HW1 2396   0.800   2.315   2.050 -1.6054  2.1112  0.9456
  799SOL    HW2 2397   0.722   2.460   2.084  0.4884  0.7295  0.7759
  800SOL     OW 2398   3.030   2.215   0.172  0.4316  0.4344 -0.4031
  800SOL    HW1 2399   2.976   2.138   0.210 -0.4671  3.4858 -0.7512
  800SOL    HW2 2400   3.053   2.280   0.247 -2.0280 -2.3249  2.0817
  801SOL     OW 2401   1.816   1.618   0.833 -0.5258  0.2839 -0.4486
  801SOL    HW1 2402   1.846   1.559   0.760 -2.6762  1.8502  0.9772
  801SOL    HW2 2403   1.744   1.680   0.796  1.0688  0.6146 -0.7460
  802SOL     OW 2404   0.163   0.518   0.535  0.2071 -0.0318  0.1590
  802SOL    HW1 2405   0.261   0.497   0.556 -1.0069  1.6447 -1.3486
  802SOL    HW2 2406   0.096   0.442   0.549  1.2004  3.3027  1.4829
  803SOL     OW 2407   1.421   1.364   1.764  0.2558 -0.2221 -0.0538
  803SOL    HW1 2408   1.509   1.350   1.716  1.4882  0.0391  1.3641
  803SOL    HW2 2409   1.354   1.405   1.703  0.5114  0.4992  0.7031
  804SOL     OW 2410   1.835   1.980   0.746  0.5564 -0.1675 -0.7784
  804SOL    HW1 2411   1.923   1.959   0.778 -2.2942  0.9124 -0.5685
  804SOL    HW2 2412   1.778   1.897   0.750 -0.2731 -1.3532 -0.5196
  805SOL     OW 2413   3.015   1.866   2.687 -0.8027  0.2618  0.1770
  805SOL    HW1 2414   3.061   1.894   2.599 -2.6306 -1.2652  0.1155
  805SOL    HW2 2415   2.919   1.900   2.695 -1.9670 -1.0701  0.2755
  806SOL     OW 2416   0.529   2.493   0.337 -0.0646 -0.1716  0.3717
  806SOL    HW1 2417   0.564   2.424   0.405  1.7761 -0.3230  0.6427
  806SOL    HW2 2418   0.574   2.587   0.336  0.7016  1.5670 -3.4370
  807SOL     OW 2419   2.190   1.607   2.709  0.2850 -0.5279 -0.2047
  807SOL    HW1 2420   2.284   1.642   2.716 -0.2553 -2.5465  1.6069
  807SOL    HW2 2421   2.131   1.623   2.792 -0.9677 -2.0153  2.0067
  808SOL     OW 2422   1.531   2.036   1.079  0.4419 -0.0600  0.3146
  808SOL    HW1 2423   1.461   1.973   1.112  1.1233  1.6749 -0.0908
  808SOL    HW2 2424   1.581   2.090   1.156 -0.0115  2.9429 -0.1782
  809SOL     OW 2425   0.121   0.587   0.263 -0.3706 -0.2194 -0.3694
  809SOL    HW1 2426   0.127   0.548   0.355 -0.9400  0.7990  0.5802
  809SOL    HW2 2427   0.211   0.605   0.227  1.8466 -1.7129 -0.7174
  810SOL     OW 2428   1.304   1.582   2.993  0.4617 -0.4447 -0.1689
  810SOL    HW1 2429   1.220   1.538   3.032  1.0145  1.1031  0.3058
  810SOL    HW2 2430   1.363   1.607   3.073  1.4571  1.5351  0.5279
  811SOL     OW 2431   1.962   2.346   0.889  0.2009  0.1320 -0.0419
  811SOL    HW1 2432   1.986   2.271   0.951  0.5744  0.8425 -0.2828
  811SOL    HW2 2433   1.864   2.355   0.879  2.3996  1.2401  1.3235
  812SOL     OW 2434   1.389   3.046   1.086 -0.0557  0.2264 -0.0552
  812SOL    HW1 2435   1.467   3.001   1.129 -0.0013 -0.2373 -2.0245
  812SOL    HW2 2436   1.308   3.036   1.149 -1.0158  2.2740 -0.7277
  813SOL     OW 2437   0.759   3.038   2.054 -0.2414 -0.3367  0.1564
  813SOL    HW1 2438   0.732   0.022   2.006  0.0671  1.4202  1.0754
  813SOL    HW2 2439   0.694   2.964   2.044  1.4678  1.2858 -0.4342
  814SOL     OW 2440   1.155   2.486   2.247  0.2011 -0.0767 -0.4088
  814SOL    HW1 2441   1.162   2.386   2.255 -0.4144  1.6367 -0.8481
  814SOL    HW2 2442   1.226   2.532   2.309  0.9052  3.5083  2.3423
  815SOL     OW 2443   0.537   0.022   2.842  0.1881 -0.3431  0.2219
  815SOL    HW1 2444   0.471   3.062   2.888  0.7147  1.8088 -1.4486
  815SOL    HW2 2445   0.502   0.042   2.749 -2.3187  0.5638 -0.5652
  816SOL     OW 2446   2.035   0.775   0.121 -0.0505 -0.5195 -0.4265
  816SOL    HW1 2447   1.958   0.791   0.186  0.2574 -0.9399  1.6223
  816SOL    HW2 2448   1.986   0.751   0.034 -2.0749  1.5258  1.1852
  817SOL     OW 2449   2.935   2.564   2.245 -0.2623 -0.5993 -0.4418
  817SOL    HW1 2450   2.862   2.629   2.203 -0.7376 -0.4360  0.3835
  817SOL    HW2 2451   2.924   2.566   2.345  1.7444 -0.9028  0.8252
  818SOL     OW 2452   0.855   1.240   0.412  0.0564  0.1247  0.7988
  818SOL    HW1 2453   0.901   1.155   0.439 -1.4050 -0.6075 -1.1346
  818SOL    HW2 2454   0.782   1.259   0.477  2.0143 -2.1867  1.7433
  819SOL     OW 2455   1.562   1.029   2.680 -0.1143 -0.1362  0.1244
  819SOL    HW1 2456   1.624   1.045   2.597  0.5210  0.9416  0.6434
  819SOL    HW2 2457   1.566   1.107   2.742  2.8312 -2.1388 -2.3740
  820SOL     OW 2458   0.529   1.497   3.100 -0.1558  0.0252 -0.0069
  820SOL    HW1 2459   0.488   1.588   0.023 -0.2268  1.2308 -3.5187
  820SOL    HW2 2460   0.531   1.426   0.068  0.4962  0.1036 -0.8184
  821SOL     OW 2461   0.553   3.043   0.887  0.2912  0.0340 -0.6499
  821SOL    HW1 2462   0.635   3.087   0.846 -0.1142  1.6167 -0.0794
  821SOL    HW2 2463   0.564   2.938   0.892  0.4697 -4.0489 -0.5580
  822SOL     OW 2464   2.402   2.540   2.970 -0.2625 -0.4175  0.7220
  822SOL    HW1 2465   2.430   2.465   3.025 -1.6030  3.8427 -1.2718
  822SOL    HW2 2466   2.475   2.557   2.906 -0.4498  0.0598  2.6635
  823SOL     OW 2467   1.179   0.050   2.582 -0.6551  0.2638  0.4750
  823SOL    HW1 2468   1.274   0.083   2.593  1.9388 -1.2137  0.8348
  823SOL    HW2 2469   1.173   3.088   2.496  2.9103 -1.6397 -2.9433
  824SOL     OW 2470   2.776   2.705   1.823  0.0837  0.0656 -0.0075
  824SOL    HW1 2471   2.859   2.766   1.806 -3.2681  0.7921  4.0966
  824SOL    HW2 2472   2.749   2.719   1.919 -3.2024 -2.0040  2.2677
  825SOL     OW 2473   0.025   2.415   2.646 -0.4567 -0.4698  0.4088
  825SOL    HW1 2474   0.110   2.468   2.631  1.7722  1.3020  0.9640
  825SOL    HW2 2475   0.037   2.321   2.607  0.8254  1.0895  0.4821
  826SOL     OW 2476   1.781   0.470   2.934 -0.6033  0.2200  0.3418
  826SOL    HW1 2477   1.854   0.463   3.007 -1.0935 -0.6871 -0.6048
  826SOL    HW2 2478   1.819   0.425   2.844  2.0756 -0.2083 -0.8073
  827SOL     OW 2479   2.941   1.873   1.869  0.4558  0.1362  0.3213
  827SOL    HW1 2480   2.902   1.957   1.922 -2.6533  0.2921 -1.1799
  827SOL    HW2 2481   2.875   1.793   1.860 -0.0482 -0.0883  0.5309
  828SOL     OW 2482   0.015   0.070   1.242  0.0472 -0.5421 -0.1626
  828SOL    HW1 2483   0.050   3.096   1.304  1.7278 -0.5729 -0.3003
  828SOL    HW2 2484   3.077   0.140   1.300  0.0249  0.1281 -0.1938
  829SOL     OW 2485   0.758   2.090   2.395 -0.3160  0.0362  0.2501
  829SOL    HW1 2486   0.825   2.104   2.469 -0.6973  0.9950  0.3035
  829SOL    HW2 2487   0.663   2.104   2.426 -2.0152 -0.8085  2.1956
  830SOL     OW 2488   0.521   0.815   1.605 -0.6725  0.3327 -0.1864
  830SOL    HW1 2489   0.570   0.881   1.663  1.1728 -0.3642 -0.2189
  830SOL    HW2 2490   0.568   0.720   1.601  2.9803 -2.3104 -0.9556
  831SOL     OW 2491   2.476   1.690   2.738  0.6527 -0.0578 -0.3485
  831SOL    HW1 2492   2.560   1.650   2.704 -2.0753  0.5129  0.3096
  831SOL    HW2 2493   2.479   1.709   2.838  2.5429  0.5789  3.3126
  832SOL     OW 2494   1.979   2.451   2.913 -0.0540 -0.0300  0.5375
  832SOL    HW1 2495   1.972   2.377   2.838 -1.2139 -3.1642 -1.0767
  832SOL    HW2 2496   2.013   2.537   2.871 -0.3370  1.1426 -0.7537
  833SOL     OW 2497   0.566   0.164   2.048 -0.2550  0.6686  0.0888
  833SOL    HW1 2498   0.579   0.124   2.138  0.3387  0.4662  0.3238
  833SOL    HW2 2499   0.603   0.259   2.046 -3.1461 -0.7289  2.3047
  834SOL     OW 2500   0.062   0.436   1.282 -0.0032 -0.6953 -0.2282
  834SOL    HW1 2501   0.109   0.389   1.208  0.7974 -2.2291  2.9181
  834SOL    HW2 2502   3.065   0.428   1.272 -0.0621  2.9335 -1.0347
  835SOL     OW 2503   2.647   0.555   0.512  0.4632  0.4799 -0.1128
  835SOL    HW1 2504   2.549   0.560   0.487  1.4904  3.9461 -1.3980
  835SOL    HW2 2505   2.692   0.524   0.424  1.7320 -5.1455 -2.3370
  836SOL     OW 2506   0.966   2.126   0.489 -0.3917  0.3432  0.1867
  836SOL    HW1 2507   1.033   2.060   0.528  4.0653 -1.0479  1.7292
  836SOL    HW2 2508   0.987   2.221   0.514 -0.3850 -0.0582 -0.6816
  837SOL     OW 2509   1.882   1.789   0.381 -0.3180  0.3339  0.0902
  837SOL    HW1 2510   1.933   1.746   0.303 -0.7192  1.8229 -1.8413
  837SOL    HW2 2511   1.937   1.865   0.428  2.4410  2.5444  1.2104
  838SOL     OW 2512   1.748   0.864   2.125 -0.2321 -0.4381  0.5022
  838SOL    HW1 2513   1.764   0.891   2.027  0.7934  1.7711  3.5146
  838SOL    HW2 2514   1.680   0.919   2.173 -0.1099 -2.2984 -0.0715
  839SOL     OW 2515   0.892   1.462   2.530 -0.2472 -0.3664 -0.2144
  839SOL    HW1 2516   0.813   1.406   2.574  1.3313  1.1890  0.3343
  839SOL    HW2 2517   0.936   1.421   2.444 -0.0410 -1.5899 -1.2674
  840SOL     OW 2518   0.923   1.352   0.183  0.5742  0.6933 -0.0500
  840SOL    HW1 2519   0.920   1.321   0.281  1.3685  1.1904 -4.4406
  840SOL    HW2 2520   0.861   1.291   0.127  1.1190 -3.5753  0.7124
  841SOL     OW 2521   1.702   2.251   0.337 -0.1210  0.5045  0.1720
  841SOL    HW1 2522   1.747   2.180   0.398  0.8647  0.2649 -2.4511
  841SOL    HW2 2523   1.769   2.298   0.276 -1.0493 -0.5579 -0.0429
  842SOL     OW 2524   0.269   0.763   0.042 -0.5155  0.3434  0.5506
  842SOL    HW1 2525   0.233   0.677   3.097  0.1774 -2.5863  0.1294
  842SOL    HW2 2526   0.348   0.734   0.102 -0.7992 -1.3585 -0.1208
  843SOL     OW 2527   0.666   0.429   0.971  0.1514  0.1272  0.0895
  843SOL    HW1 2528   0.766   0.407   0.961 -0.1077 -1.3571  1.9660
  843SOL    HW2 2529   0.614   0.356   0.922  2.6582  1.0968 -0.9476
  844SOL     OW 2530   1.865   2.708   2.200  0.1036 -0.2844  0.0276
  844SOL    HW1 2531   1.931   2.633   2.174 -0.1588 -1.7299 -1.1157
  844SOL    HW2 2532   1.865   2.791   2.142 -1.3328 -0.9422  2.4320
  845SOL     OW 2533   0.201   2.649   1.815  0.0822 -0.3612  0.8228
  845SOL    HW1 2534   0.227   2.556   1.848 -1.3794  1.9367  0.0259
  845SOL    HW2 2535   0.188   2.648   1.712 -1.3426 -3.7407 -2.5902
  846SOL     OW 2536   1.784   1.353   2.324  0.2383 -0.0707 -0.6124
  846SOL    HW1 2537   1.710   1.412   2.283  0.0514 -0.6072  1.6122
  846SOL    HW2 2538   1.876   1.372   2.282  1.0154 -0.0694  0.1675
  847SOL     OW 2539   0.271   0.472   2.200 -0.1642 -0.2589  0.1468
  847SOL    HW1 2540   0.269   0.373   2.195  1.9959  1.0553  0.7138
  847SOL    HW2 2541   0.281   0.516   2.107  0.3467  0.4965 -2.1157
  848SOL     OW 2542   2.566   2.968   3.016 -0.7352  0.4314  0.4906
  848SOL    HW1 2543   2.581   2.947   0.014  0.7757 -1.6975  2.9050
  848SOL    HW2 2544   2.612   2.893   2.965 -0.0227  1.8474  0.5351
  849SOL     OW 2545   0.367   2.670   0.524 -0.0455 -0.3746  0.5303
  849SOL    HW1 2546   0.464   2.663   0.552  0.7690 -2.1615  0.2328
  849SOL    HW2 2547   0.317   2.730   0.588  0.7529  0.5805 -2.0613
  850SOL     OW 2548   0.852   2.289   0.756  0.3894 -0.4003 -0.4128
  850SOL    HW1 2549   0.933   2.338   0.794  1.4264 -0.3326 -1.4529
  850SOL    HW2 2550   0.877   2.189   0.773  0.3754 -0.7636  3.2202
  851SOL     OW 2551   1.844   0.297   2.683  0.0677  0.5685 -0.6556
  851SOL    HW1 2552   1.866   0.363   2.608  2.5404 -0.3889 -1.3740
  851SOL    HW2 2553   1.929   0.270   2.729 -1.3288 -0.7964  1.9778
  852SOL     OW 2554   1.742   2.878   2.674 -0.2649 -0.4373 -0.6611
  852SOL    HW1 2555   1.722   2.808   2.604  0.3339  1.6160 -0.0631
  852SOL    HW2 2556   1.705   2.861   2.765  0.6882  0.4937  1.4806
  853SOL     OW 2557   2.850   2.712   0.436  0.4427 -0.0371 -0.7493
  853SOL    HW1 2558   2.904   2.684   0.358 -0.2754  1.4942  1.9595
  853SOL    HW2 2559   2.889   2.801   0.477  0.1578  3.4175  4.9586
  854SOL     OW 2560   1.630   0.504   2.336 -0.8013 -0.0230 -0.5492
  854SOL    HW1 2561   1.724   0.478   2.373  2.9827  3.3271 -0.2134
  854SOL    HW2 2562   1.575   0.547   2.413 -1.1447 -0.9969 -0.0580
  855SOL     OW 2563   0.255   2.416   0.548  0.5279 -0.8417  0.3944
  855SOL    HW1 2564   0.227   2.434   0.644  0.0412  1.5455 -0.1274
  855SOL    HW2 2565   0.318   2.491   0.516  1.7138  0.9872  1.9452
  856SOL     OW 2566   0.327   2.800   2.674 -0.2076  0.1850  0.1481
  856SOL    HW1 2567   0.427   2.799   2.701  3.5342  0.0877  1.6655
  856SOL    HW2 2568   0.274   2.881   2.708  1.1216 -0.6253 -0.4859
  857SOL     OW 2569   1.089   2.987   1.522 -0.1454 -0.3175  0.1758
  857SOL    HW1 2570   1.161   2.914   1.513 -0.2882 -0.9530  1.2015
  857SOL    HW2 2571   0.999   2.941   1.536  0.8394  2.2205  0.3303
  858SOL     OW 2572   2.757   2.208   1.773  0.0937 -0.0415 -0.1331
  858SOL    HW1 2573   2.698   2.133   1.818 -0.7690 -0.6898  1.2472
  858SOL    HW2 2574   2.852   2.196   1.799 -0.4931  0.6168  0.3900
  859SOL     OW 2575   2.137   2.134   2.078 -0.3137  0.1334 -0.3051
  859SOL    HW1 2576   2.040   2.128   2.109 -3.0977 -0.0640 -0.3955
  859SOL    HW2 2577   2.162   2.054   2.022  3.9570  0.4831 -0.4734
  860SOL     OW 2578   1.271   0.445   0.413  0.4096 -0.0623  0.0162
  860SOL    HW1 2579   1.375   0.431   0.407  0.6910  1.3593  1.3333
  860SOL    HW2 2580   1.224   0.358   0.408  0.9254  0.5385  2.5492
  861SOL     OW 2581   2.932   0.766   0.921  0.3698  0.0741 -0.5895
  861SOL    HW1 2582   2.886   0.720   0.842  0.1084 -1.4056 -2.5575
  861SOL    HW2 2583   3.031   0.743   0.917 -0.6761  1.1623  0.2435
  862SOL     OW 2584   1.159   0.377   2.325 -0.4202  0.6067 -0.3232
  862SOL    HW1 2585   1.224   0.296   2.312  2.4781 -0.8971  2.5561
  862SOL    HW2 2586   1.070   0.336   2.348  2.8179 -1.4140  1.5014
  863SOL     OW 2587   0.464   0.681   1.190 -0.6537  0.4108  0.5036
  863SOL    HW1 2588   0.369   0.686   1.221  0.6450  0.3615 -1.1865
  863SOL    HW2 2589   0.503   0.773   1.218 -1.6961  0.1837  0.4257
  864SOL     OW 2590   2.987   3.041   2.132  0.6789  0.5225  0.3238
  864SOL    HW1 2591   3.081   3.000   2.133 -1.9954  2.0709  0.4978
  864SOL    HW2 2592   2.992   0.036   2.113 -1.0969 -0.5185  1.3536
  865SOL     OW 2593   0.704   1.274   2.640  0.5120  0.4731 -0.0867
  865SOL    HW1 2594   0.645   1.306   2.717 -0.5564 -0.8685  1.1360
  865SOL    HW2 2595   0.660   1.196   2.585  0.5841 -0.6182 -2.1442
  866SOL     OW 2596   3.026   2.953   0.249  0.2727  0.7437 -0.6108
  866SOL    HW1 2597   3.058   2.991   0.159 -1.5621 -0.5086 -0.9403
  866SOL    HW2 2598   3.047   2.853   0.240  0.1637 -1.4307 -0.4142
  867SOL     OW 2599   0.059   2.974   2.879 -0.5811 -0.6368 -0.4429
  867SOL    HW1 2600   0.073   2.875   2.856 -0.6131 -0.8996 -1.2433
  867SOL    HW2 2601   0.074   2.989   2.980  0.5235 -0.6466 -0.9102
  868SOL     OW 2602   1.514   0.790   2.776  0.0548 -0.3478 -0.2542
  868SOL    HW1 2603   1.536   0.885   2.741 -0.0798  0.3638  1.8605
  868SOL    HW2 2604   1.429   0.799   2.829  0.1993 -1.2590 -2.8381
  869SOL     OW 2605   0.241   1.782   0.526 -0.8331  0.3888 -0.0921
  869SOL    HW1 2606   0.337   1.803   0.567  3.0436  1.5731  2.8788
  869SOL    HW2 2607   0.210   1.687   0.551  2.0994  2.0278  1.2328
  870SOL     OW 2608   2.336   1.818   0.350 -0.0984 -0.2978  0.2972
  870SOL    HW1 2609   2.329   1.918   0.357  2.5482 -0.9343 -1.6958
  870SOL    HW2 2610   2.258   1.780   0.296 -0.0280  0.8970 -0.8722
  871SOL     OW 2611   0.541   1.230   1.089 -0.2359  1.0996  0.1125
  871SOL    HW1 2612   0.510   1.146   1.037 -0.2568 -1.1521 -0.5438
  871SOL    HW2 2613   0.638   1.225   1.128  4.3605  1.6565 -0.6152
  872SOL     OW 2614   1.281   1.763   1.726  0.0921  0.4998  0.0037
  872SOL    HW1 2615   1.229   1.845   1.751  0.2717 -3.7207 -0.2230
  872SOL    HW2 2616   1.335   1.735   1.807  1.5219  0.8515  0.4712
  873SOL     OW 2617   0.886   2.010   2.130  0.0231  0.0285  0.1169
  873SOL    HW1 2618   0.846   2.034   2.220  1.0410  2.6443  1.8148
  873SOL    HW2 2619   0.892   2.087   2.065 -0.2979 -1.0317 -2.9960
  874SOL     OW 2620   1.022   2.578   1.348 -0.1634  0.1305  0.0098
  874SOL    HW1 2621   1.032   2.506   1.422 -2.1081  0.8311 -1.0594
  874SOL    HW2 2622   1.114   2.621   1.323  1.3358 -1.6796  0.5769
  875SOL     OW 2623   2.925   0.349   0.930  0.1977  0.1367  0.1066
  875SOL    HW1 2624   2.966   0.255   0.932  1.7433 -2.3826 -3.0794
  875SOL    HW2 2625   2.882   0.366   0.838  1.0957 -1.2807  2.1082
  876SOL     OW 2626   0.823   0.620   0.249 -0.1037 -0.5123 -0.9056
  876SOL    HW1 2627   0.735   0.638   0.299 -1.8320  0.4450 -0.5700
  876SOL    HW2 2628   0.842   0.682   0.165 -0.4588 -0.4955 -2.4446
  877SOL     OW 2629   2.910   0.712   1.189 -0.1743  0.0767  0.3964
  877SOL    HW1 2630   2.903   0.750   1.094  0.4168 -0.1493 -0.0165
  877SOL    HW2 2631   2.929   0.610   1.180  1.9282  0.0720 -1.3802
  878SOL     OW 2632   2.378   2.214   0.572 -0.1630  0.1120 -0.4854
  878SOL    HW1 2633   2.377   2.305   0.617 -2.0939  1.6528  0.8642
  878SOL    HW2 2634   2.372   2.139   0.643 -2.5018 -0.7425 -1.2888
  879SOL     OW 2635   2.517   1.554   1.122 -0.4229 -0.3263  0.1534
  879SOL    HW1 2636   2.443   1.565   1.190  0.3828 -2.4658  1.5377
  879SOL    HW2 2637   2.533   1.452   1.117  1.1847  0.0666  0.6254
  880SOL     OW 2638   1.491   2.616   0.893 -0.5278 -0.3354 -0.1364
  880SOL    HW1 2639   1.501   2.715   0.893  0.3555 -0.8323  1.1313
  880SOL    HW2 2640   1.450   2.580   0.979  0.4069 -0.1831  0.5853
  881SOL     OW 2641   1.042   2.328   0.251 -0.5850 -0.0680  0.2294
  881SOL    HW1 2642   1.050   2.348   0.351 -2.9310  1.2206  0.3862
  881SOL    HW2 2643   0.943   2.339   0.227 -1.4928 -2.0849 -0.3075
  882SOL     OW 2644   1.616   0.843   1.313 -0.2434 -0.3766  0.7296
  882SOL    HW1 2645   1.538   0.880   1.262  1.4541 -1.8156 -2.1794
  882SOL    HW2 2646   1.578   0.799   1.397  1.0016  0.2279 -0.3016
  883SOL     OW 2647   1.378   0.201   2.246 -0.3835 -0.3792  0.4035
  883SOL    HW1 2648   1.465   0.241   2.219 -0.1626 -1.7837  1.5414
  883SOL    HW2 2649   1.364   0.118   2.195  0.0694  4.5436  0.7125
  884SOL     OW 2650   2.463   0.613   0.207 -0.1885 -0.0945  0.2120
  884SOL    HW1 2651   2.447   0.559   0.291 -0.2956 -1.4241  1.6115
  884SOL    HW2 2652   2.518   0.696   0.231  0.4626  1.1746 -0.9824
  885SOL     OW 2653   1.119   1.431   3.079 -0.2164 -0.5650 -0.6106
  885SOL    HW1 2654   1.079   1.360   3.019 -0.7598 -0.0116 -0.6501
  885SOL    HW2 2655   1.086   1.411   0.070  2.2695 -1.8056  1.9818
  886SOL     OW 2656   1.515   1.345   2.473 -0.5199 -0.3555  0.7229
  886SOL    HW1 2657   1.528   1.433   2.422 -1.4153 -1.4383  1.4370
  886SOL    HW2 2658   1.603   1.293   2.480 -3.7889 -3.2384  0.2573
  887SOL     OW 2659   1.284   0.325   1.627  0.3289  0.0320  0.3558
  887SOL    HW1 2660   1.251   0.229   1.618  0.6532  0.4008 -0.7705
  887SOL    HW2 2661   1.284   0.353   1.726 -0.6427  0.3713  1.0887
  888SOL     OW 2662   2.640   0.570   1.915  0.1640  0.0307  0.0071
  888SOL    HW1 2663   2.677   0.478   1.933 -0.3110  0.1299 -1.4438
  888SOL    HW2 2664   2.712   0.640   1.914 -1.6826 -0.0684  0.6725
  889SOL     OW 2665   0.298   2.718   0.946 -0.3902 -0.2972 -0.2098
  889SOL    HW1 2666   0.263   2.637   0.896 -0.7472  0.0819 -1.1369
  889SOL    HW2 2667   0.383   2.747   0.904 -1.3551 -1.4335 -1.9695
  890SOL     OW 2668   2.740   2.060   0.272  0.6825 -0.2076 -0.1067
  890SOL    HW1 2669   2.696   2.094   0.359 -1.9011  2.8770  1.1005
  890SOL    HW2 2670   2.833   2.025   0.300  0.0666  1.7927  1.2702
  891SOL     OW 2671   0.882   1.688   2.850  0.1828 -0.1142 -0.2328
  891SOL    HW1 2672   0.961   1.659   2.794 -0.0728 -0.4748 -2.2102
  891SOL    HW2 2673   0.863   1.624   2.927 -1.3796  1.1900 -1.2261
  892SOL     OW 2674   3.009   0.101   0.969  0.3395  0.0917 -0.8496
  892SOL    HW1 2675   3.038   0.089   1.067 -0.7274  1.7135  1.1289
  892SOL    HW2 2676   2.975   0.009   0.934 -1.0344 -0.9755 -1.6295
  893SOL     OW 2677   1.151   2.991   1.218  0.0780 -0.4510  0.1558
  893SOL    HW1 2678   1.146   2.992   1.319  1.9097 -0.3781 -0.6023
  893SOL    HW2 2679   1.056   2.974   1.176 -0.1071 -4.0466 -0.9255
  894SOL     OW 2680   2.780   0.691   0.700  0.5610 -0.1940 -0.0445
  894SOL    HW1 2681   2.710   0.682   0.774  1.1491  0.4898  3.3098
  894SOL    HW2 2682   2.738   0.651   0.616 -1.4850  3.4323 -2.9809
  895SOL     OW 2683   2.421   2.430   2.171 -0.1846 -0.6120 -0.6360
  895SOL    HW1 2684   2.340   2.427   2.227  1.6927  0.7117 -0.8178
  895SOL    HW2 2685   2.438   2.525   2.143  0.3512 -2.1977  1.1109
  896SOL     OW 2686   1.033   0.106   1.679 -0.3065  0.2757  0.2380
  896SOL    HW1 2687   1.046   0.020   1.626 -0.0573 -1.0387 -2.6137
  896SOL    HW2 2688   1.080   0.104   1.770  0.1217 -1.7369  0.0854
  897SOL     OW 2689   0.860   1.716   1.847  0.8126  0.5693 -0.0584
  897SOL    HW1 2690   0.818   1.655   1.776  0.5216  1.1347  1.3641
  897SOL    HW2 2691   0.859   1.812   1.808  1.7207 -1.8640  2.9979
  898SOL     OW 2692   1.981   2.628   1.774  0.1085  0.0831  0.0291
  898SOL    HW1 2693   2.039   2.684   1.710  0.0419  0.1866 -1.8646
  898SOL    HW2 2694   2.040   2.596   1.857  1.6466 -0.1479  1.9081
  899SOL     OW 2695   0.960   0.977   1.110 -0.1667  0.3546 -0.5750
  899SOL    HW1 2696   0.951   0.966   1.210  1.6646  0.1956 -0.3525
  899SOL    HW2 2697   0.860   0.976   1.078  0.5805  1.2988  0.6605
  900SOL     OW 2698   2.049   2.223   2.746 -0.4281 -0.4220  0.3673
  900SOL    HW1 2699   1.990   2.140   2.722 -0.4199 -1.8259  0.2524
  900SOL    HW2 2700   2.110   2.242   2.670  0.9112 -1.8871  0.5876
  901SOL     OW 2701   0.926   2.274   2.615  0.5277  0.2644  0.1648
  901SOL    HW1 2702   0.914   2.307   2.713 -1.8279 -0.5324  1.0031
  901SOL    HW2 2703   0.903   2.345   2.546  0.2783  1.1977  2.5555
  902SOL     OW 2704   2.139   1.258   0.157  0.0637 -0.0452 -0.1978
  902SOL    HW1 2705   2.239   1.256   0.129  0.1783 -1.3994  1.6600
  902SOL    HW2 2706   2.103   1.168   0.189 -0.9944  0.2670 -1.1942
  903SOL     OW 2707   1.905   0.709   0.471  0.0576 -0.1940  0.8033
  903SOL    HW1 2708   1.819   0.671   0.516 -1.5066 -0.3195  0.4322
  903SOL    HW2 2709   1.886   0.803   0.439  0.9478 -2.2239 -1.5083
  904SOL     OW 2710   0.791   0.825   2.793 -0.0417  0.2086  0.0747
  904SOL    HW1 2711   0.710   0.874   2.831 -1.6772  2.5408 -1.2000
  904SOL    HW2 2712   0.850   0.877   2.728  0.8590  0.3750 -0.2001
  905SOL     OW 2713   2.276   0.366   1.064  0.1392 -0.0771  0.0649
  905SOL    HW1 2714   2.180   0.398   1.054 -0.4950  0.3986  0.5856
  905SOL    HW2 2715   2.339   0.442   1.094 -1.3466  0.2978 -1.8859
  906SOL     OW 2716   2.643   2.571   1.468  0.0551  0.2925 -0.2265
  906SOL    HW1 2717   2.603   2.504   1.531 -1.7106 -0.0102  1.5372
  906SOL    HW2 2718   2.727   2.533   1.423  0.3051  0.5984 -0.1869
  907SOL     OW 2719   1.100   0.672   0.393 -0.7270  0.3043 -0.4489
  907SOL    HW1 2720   1.133   0.718   0.312  2.0749 -0.5095  1.2617
  907SOL    HW2 2721   1.170   0.606   0.422  1.6456  0.2818 -1.7049
  908SOL     OW 2722   2.151   0.066   1.581 -0.1785  0.1909  0.1332
  908SOL    HW1 2723   2.232   0.007   1.595  0.1463 -1.7338 -2.0001
  908SOL    HW2 2724   2.147   0.104   1.487  0.1538 -2.1471 -0.9739
  909SOL     OW 2725   2.720   0.715   1.541 -0.0754  0.1633  0.2569
  909SOL    HW1 2726   2.665   0.720   1.454  1.1290 -1.4094 -1.2388
  909SOL    HW2 2727   2.722   0.806   1.583 -0.0503  0.4097 -1.3975
  910SOL     OW 2728   1.485   2.755   2.194 -0.3188 -0.7184 -0.1181
  910SOL    HW1 2729   1.534   2.663   2.190 -0.3473 -0.1898 -0.2683
  910SOL    HW2 2730   1.454   2.776   2.102  1.0250 -1.9263  2.3709
  911SOL     OW 2731   2.431   0.526   2.240  0.1094 -0.6686 -0.2482
  911SOL    HW1 2732   2.410   0.619   2.207  1.7185 -3.6176  1.5312
  911SOL    HW2 2733   2.387   0.503   2.329  0.9047  0.4561  1.0221
  912SOL     OW 2734   2.645   1.236   1.339  0.1969 -0.5334 -0.3171
  912SOL    HW1 2735   2.696   1.317   1.369 -0.1459 -0.4772 -1.1201
  912SOL    HW2 2736   2.684   1.148   1.371  0.0513  0.3443  2.2712
  913SOL     OW 2737   2.539   2.313   1.327 -0.0607  0.0808  0.3574
  913SOL    HW1 2738   2.535   2.360   1.235 -2.4547  1.4869 -1.6237
  913SOL    HW2 2739   2.506   2.222   1.317  1.6251  2.6057 -0.0679
  914SOL     OW 2740   1.971   1.270   1.484  0.3518 -0.0786 -0.7528
  914SOL    HW1 2741   2.049   1.234   1.423  1.1486  1.1305  0.4598
  914SOL    HW2 2742   1.933   1.186   1.526  3.8071 -0.6136 -1.0026
  915SOL     OW 2743   1.161   0.970   1.410  0.2554 -0.0487  0.0535
  915SOL    HW1 2744   1.170   0.892   1.475 -0.0365  1.4686 -0.1346
  915SOL    HW2 2745   1.060   0.983   1.391  0.3312 -3.1729 -0.8226
  916SOL     OW 2746   2.642   2.885   1.669  0.3125 -0.4695  0.1954
  916SOL    HW1 2747   2.661   2.799   1.715 -0.0582  0.7840 -0.0004
  916SOL    HW2 2748   2.679   2.965   1.725 -0.2953 -0.6693  1.9287
  917SOL     OW 2749   2.491   2.102   0.165  0.0274 -0.1487 -0.0539
  917SOL    HW1 2750   2.509   2.188   0.114  1.0201  1.0075  2.8500
  917SOL    HW2 2751   2.579   2.064   0.194 -2.3343 -2.3107 -0.4516
  918SOL     OW 2752   1.957   2.610   2.658  0.2527  0.6703 -0.0170
  918SOL    HW1 2753   1.909   2.650   2.574 -0.3857 -0.5223  0.3321
  918SOL    HW2 2754   2.002   2.682   2.714  0.3432  0.5977  2.0154
  919SOL     OW 2755   1.422   2.148   1.448 -0.3109 -0.0578 -0.1390
  919SOL    HW1 2756   1.431   2.161   1.550 -2.7492  0.4877 -0.4377
  919SOL    HW2 2757   1.374   2.057   1.433 -0.8201 -0.2987  2.3458
  920SOL     OW 2758   2.716   0.092   2.516 -0.1942  0.2240  0.3826
  920SOL    HW1 2759   2.786   0.027   2.481  0.7514 -0.3337  0.0143
  920SOL    HW2 2760   2.741   0.114   2.610 -1.1174 -1.2465 -1.5552
  921SOL     OW 2761   3.091   0.595   2.113  0.2411 -0.2990  0.0330
  921SOL    HW1 2762   0.023   0.517   2.054  2.8908 -4.5099 -2.3865
  921SOL    HW2 2763   0.060   0.622   2.178  1.9105 -1.1846 -1.9746
  922SOL     OW 2764   2.054   1.981   0.461  0.1813 -0.1386  0.8051
  922SOL    HW1 2765   2.129   2.038   0.418  1.4339 -4.3360  1.8305
  922SOL    HW2 2766   2.072   1.981   0.561 -0.3573  2.1598 -2.0563
  923SOL     OW 2767   0.483   2.035   2.977 -0.4698 -0.1650  0.3495
  923SOL    HW1 2768   0.573   1.979   2.977  4.6255  1.8425  2.5718
  923SOL    HW2 2769   0.501   2.135   2.978  1.8917  2.0992  2.0334
  924SOL     OW 2770   0.870   0.374   0.400  0.0229 -0.5859 -0.3969
  924SOL    HW1 2771   0.780   0.348   0.442  0.3189 -0.7184 -1.6909
  924SOL    HW2 2772   0.858   0.469   0.355  0.6098  1.9205 -1.1944
  925SOL     OW 2773   2.576   0.976   0.762  0.3183  0.3898 -0.4909
  925SOL    HW1 2774   2.492   1.032   0.786 -0.0676 -0.2387  1.2891
  925SOL    HW2 2775   2.597   0.985   0.664 -1.5574  0.8347  1.4223
  926SOL     OW 2776   0.141   1.180   1.000  0.3022 -0.5136  0.4909
  926SOL    HW1 2777   0.108   1.255   1.066 -2.6608 -0.5988 -0.0709
  926SOL    HW2 2778   0.148   1.091   1.050 -0.4699 -0.9310  2.3638
  927SOL     OW 2779   3.045   1.129   2.761 -0.1750 -0.3851  0.0217
  927SOL    HW1 2780   0.018   1.082   2.710  1.3038  0.0280 -2.5476
  927SOL    HW2 2781   3.064   1.227   2.769  0.7205  2.9170  2.9767
  928SOL     OW 2782   2.942   0.484   2.357  0.1620 -0.1205  0.1924
  928SOL    HW1 2783   2.841   0.488   2.339  3.4913 -0.8512  0.3910
  928SOL    HW2 2784   2.988   0.505   2.274 -1.0793  1.3230  0.9320
  929SOL     OW 2785   3.039   2.869   1.115 -0.2623  0.0601 -0.2776
  929SOL    HW1 2786   2.971   2.921   1.059 -1.2997 -0.9715  0.1181
  929SOL    HW2 2787   3.032   2.773   1.083 -1.7204  0.8462 -1.8138
  930SOL     OW 2788   2.055   1.353   1.721 -0.4077 -0.9393 -0.1515
  930SOL    HW1 2789   2.049   1.455   1.723 -2.3474 -0.9232 -0.6048
  930SOL    HW2 2790   2.016   1.318   1.635  2.2483  0.7556  1.8862
  931SOL     OW 2791   1.584   1.496   0.575 -0.0342  0.6779 -0.3201
  931SOL    HW1 2792   1.665   1.518   0.516  3.0940  1.7764 -3.0403
  931SOL    HW2 2793   1.505   1.557   0.556  0.1888 -0.4455  0.8934
  932SOL     OW 2794   2.786   1.325   0.945 -0.0800 -0.3401  0.1066
  932SOL    HW1 2795   2.864   1.261   0.947 -1.4793  0.9472 -1.1330
  932SOL    HW2 2796   2.789   1.381   0.859  1.4994  2.7762  1.9496
  933SOL     OW 2797   2.304   1.571   1.285 -0.0854  0.0469  0.2664
  933SOL    HW1 2798   2.251   1.500   1.235  2.2815 -2.1832 -0.3697
  933SOL    HW2 2799   2.257   1.661   1.268 -0.4878 -0.7149 -1.8592
  934SOL     OW 2800   1.635   2.857   1.746 -0.1551 -0.3265 -0.6848
  934SOL    HW1 2801   1.569   2.932   1.777 -1.2599 -0.0288  0.3751
  934SOL    HW2 2802   1.583   2.779   1.712  2.1059  1.8337 -0.6051
  935SOL     OW 2803   0.038   1.676   0.830 -0.3071 -0.5974  0.4595
  935SOL    HW1 2804   0.078   1.642   0.743  0.7623  1.6586  0.7088
  935SOL    HW2 2805   0.113   1.715   0.891  2.2992  3.4699  1.2614
  936SOL     OW 2806   0.509   1.088   0.483  0.0040 -0.8335  0.4901
  936SOL    HW1 2807   0.431   1.128   0.428 -0.4565  1.0167  0.3212
  936SOL    HW2 2808   0.588   1.060   0.422 -1.7738 -1.5805 -1.5674
  937SOL     OW 2809   2.194   3.016   1.081  0.1548  0.3846  0.3167
  937SOL    HW1 2810   2.152   2.935   1.133 -2.5729  0.4932  0.1261
  937SOL    HW2 2811   2.207   2.983   0.986 -1.9642 -1.0515 -0.3473
  938SOL     OW 2812   2.661   2.121   0.873  0.4889  0.1785  0.1537
  938SOL    HW1 2813   2.686   2.083   0.963  0.7006  2.2239 -3.1587
  938SOL    HW2 2814   2.591   2.194   0.883  0.3573 -0.6093  1.8609
  939SOL     OW 2815   0.684   2.017   0.466  0.1299 -0.6153 -0.0634
  939SOL    HW1 2816   0.685   1.919   0.452  0.5624  1.7611 -0.4151
  939SOL    HW2 2817   0.769   2.053   0.496 -2.7055 -2.4020 -0.2783
  940SOL     OW 2818   2.801   0.077   3.045  0.0493  0.0392 -0.0509
  940SOL    HW1 2819   2.883   0.137   3.050  0.7661 -2.7613  2.4715
  940SOL    HW2 2820   2.801   3.095   3.101  0.2579 -1.2069  0.3971
  941SOL     OW 2821   1.078   0.190   3.029 -0.3781 -0.0279 -0.0168
  941SOL    HW1 2822   1.163   0.147   2.983  4.8831  0.1138 -3.4509
  941SOL    HW2 2823   1.106   0.258   3.097 -0.2358 -0.5971 -1.5642
  942SOL     OW 2824   1.292   1.327   1.186 -0.1982  0.5229  0.0423
  942SOL    HW1 2825   1.325   1.399   1.124  2.5285  1.2898  2.7694
  942SOL    HW2 2826   1.249   1.250   1.133 -1.6403 -2.0102  0.2524
  943SOL     OW 2827   1.859   1.052   1.599 -0.2440  0.0042 -0.3551
  943SOL    HW1 2828   1.802   0.982   1.648 -2.0095 -0.1250 -2.0525
  943SOL    HW2 2829   1.875   1.014   1.506  1.6832 -0.3959  0.8422
  944SOL     OW 2830   1.433   0.607   1.970  0.0853  0.2975  0.3778
  944SOL    HW1 2831   1.419   0.695   1.925 -1.6127  0.3008 -1.7283
  944SOL    HW2 2832   1.514   0.603   2.029 -0.0633  0.5398  0.2320
  945SOL     OW 2833   0.015   2.956   0.505 -0.2586  0.0410  0.4660
  945SOL    HW1 2834   0.084   3.026   0.536 -0.8691  0.2163  0.8680
  945SOL    HW2 2835   3.098   2.963   0.409  1.2443 -0.7107  3.2324
  946SOL     OW 2836   0.088   0.330   1.525 -0.0452  0.3506  0.2931
  946SOL    HW1 2837   0.047   0.371   1.440  2.6058 -0.3902  0.0843
  946SOL    HW2 2838   0.022   0.331   1.601 -1.2508 -2.1619 -2.0792
  947SOL     OW 2839   0.720   3.094   0.458 -0.0356 -0.2866 -0.0869
  947SOL    HW1 2840   0.669   3.018   0.413 -1.3429  1.7962 -1.1032
  947SOL    HW2 2841   0.746   0.067   0.389 -0.0242  0.5610 -0.5273
  948SOL     OW 2842   2.611   1.167   1.834  0.0053 -0.4439 -0.0239
  948SOL    HW1 2843   2.536   1.230   1.853 -1.6011  0.3071  1.0162
  948SOL    HW2 2844   2.699   1.220   1.831 -2.2824  1.9097  1.7095
  949SOL     OW 2845   0.344   0.828   2.805  0.3821 -0.1540  0.5541
  949SOL    HW1 2846   0.361   0.747   2.747  0.6285 -0.3188 -0.8794
  949SOL    HW2 2847   0.248   0.844   2.830  1.2278  1.0293  1.7943
  950SOL     OW 2848   0.911   0.393   1.003 -0.0520 -0.0064  0.3765
  950SOL    HW1 2849   0.962   0.329   1.063  0.7280 -2.6630 -0.8540
  950SOL    HW2 2850   0.981   0.444   0.953  2.0639  2.1673 -2.0303
  951SOL     OW 2851   1.128   1.929   2.049  0.6010 -0.3808 -0.2879
  951SOL    HW1 2852   1.197   1.997   2.083  2.6612 -0.9295  3.5647
  951SOL    HW2 2853   1.035   1.957   2.092 -2.3839 -0.8715  2.3991
  952SOL     OW 2854   0.806   1.549   3.071  0.1813 -0.4203  0.7469
  952SOL    HW1 2855   0.844   1.480   0.027  2.2730 -0.6281 -2.2755
  952SOL    HW2 2856   0.706   1.537   3.058 -0.8070  0.2834  1.5295
  953SOL     OW 2857   2.119   2.912   2.390 -0.4025  0.4925 -0.4502
  953SOL    HW1 2858   2.079   2.876   2.302 -0.8938 -0.5750  0.2055
  953SOL    HW2 2859   2.144   3.006   2.379  1.4804  0.3116  0.2162
  954SOL     OW 2860   1.607   1.270   0.730  0.8883  0.3910  0.5507
  954SOL    HW1 2861   1.618   1.225   0.634  1.4699 -1.1796 -1.3499
  954SOL    HW2 2862   1.593   1.372   0.716  0.3762  0.9501 -1.4245
  955SOL     OW 2863   0.277   2.270   2.352  0.1033  0.4547  0.2256
  955SOL    HW1 2864   0.365   2.241   2.312 -1.6719  0.5427  1.1732
  955SOL    HW2 2865   0.279   2.370   2.357 -0.5761  0.2179 -1.3476
  956SOL     OW 2866   1.556   0.329   1.661 -0.2765  0.0632 -0.2633
  956SOL    HW1 2867   1.474   0.333   1.598 -1.2686  0.8244  0.8649
  956SOL    HW2 2868   1.573   0.416   1.710 -0.8787 -2.1515 -0.3850
  957SOL     OW 2869   1.787   1.898   2.906 -0.1463 -0.2228 -0.0185
  957SOL    HW1 2870   1.694   1.936   2.887  0.2926  0.5907 -1.6503
  957SOL    HW2 2871   1.793   1.904   3.009 -1.0909 -0.7543  0.1493
  958SOL     OW 2872   1.197   2.345   1.711  0.4065  0.0106  0.3650
  958SOL    HW1 2873   1.199   2.363   1.811 -0.4019 -0.0412 -0.3524
  958SOL    HW2 2874   1.265   2.276   1.684  1.3184 -2.0132  1.8735
  959SOL     OW 2875   2.183   2.203   3.032 -0.0023  0.7004  0.5951
  959SOL    HW1 2876   2.190   2.284   3.094  2.2715 -1.0917 -2.2639
  959SOL    HW2 2877   2.162   2.226   2.930  2.5724  2.7062 -3.5548
  960SOL     OW 2878   2.929   0.337   2.833 -0.2495 -0.1365 -0.1783
  960SOL    HW1 2879   2.847   0.278   2.816 -0.3542 -0.8664 -2.0886
  960SOL    HW2 2880   2.940   0.390   2.749 -1.2581  1.4493  1.1976
  961SOL     OW 2881   0.932   1.139   2.736  0.1956  0.1849 -0.4819
  961SOL    HW1 2882   0.844   1.184   2.711  1.7506  0.4207 -1.5262
  961SOL    HW2 2883   0.947   1.059   2.670 -0.0709  0.6543 -0.3263
  962SOL     OW 2884   1.164   1.283   2.797  0.3163  0.0725 -0.2136
  962SOL    HW1 2885   1.082   1.227   2.763 -0.5234 -1.2319 -0.7505
  962SOL    HW2 2886   1.249   1.227   2.800 -1.2675 -2.5846 -0.4084
  963SOL     OW 2887   2.238   2.448   0.076  0.2519 -0.1694 -0.2154
  963SOL    HW1 2888   2.276   2.489   3.096 -1.5058 -1.9608 -1.2709
  963SOL    HW2 2889   2.308   2.461   0.152  1.4043 -0.1284 -0.9493
  964SOL     OW 2890   1.338   2.540   1.122  0.3317  0.0611 -0.0742
  964SOL    HW1 2891   1.329   2.457   1.181 -0.2832 -1.4812  0.5567
  964SOL    HW2 2892   1.249   2.594   1.114 -3.4545  0.7133  0.4575
  965SOL     OW 2893   1.209   1.561   0.791  0.1620  0.7045 -0.4598
  965SOL    HW1 2894   1.246   1.608   0.711  1.4254 -0.9461  2.7598
  965SOL    HW2 2895   1.115   1.525   0.776 -1.3787 -0.1765 -0.4692
  966SOL     OW 2896   0.206   1.475   2.963 -0.4077  0.0526 -0.5367
  966SOL    HW1 2897   0.234   1.571   2.934 -2.3920 -0.0927  1.1432
  966SOL    HW2 2898   0.173   1.484   3.060 -0.8560  0.6192  0.9605
  967SOL     OW 2899   1.843   0.231   1.876  0.0738 -0.0835 -0.2333
  967SOL    HW1 2900   1.855   0.201   1.974 -0.3056 -4.0969  1.9978
  967SOL    HW2 2901   1.868   0.154   1.815  3.1532  1.2899  1.6956
  968SOL     OW 2902   1.625   1.116   0.506 -0.4122  0.3159 -0.6490
  968SOL    HW1 2903   1.556   1.154   0.441 -0.0103 -0.1910 -1.4666
  968SOL    HW2 2904   1.707   1.072   0.457 -0.5868 -0.8921  1.4031
  969SOL     OW 2905   0.261   1.337   2.360 -0.1293  0.5959 -0.4640
  969SOL    HW1 2906   0.215   1.254   2.316 -0.7127  0.5943  3.5245
  969SOL    HW2 2907   0.315   1.393   2.293  1.4877 -2.4245 -3.1739
  970SOL     OW 2908   2.103   1.403   1.119  0.0381 -0.3437 -0.6096
  970SOL    HW1 2909   2.033   1.328   1.129  1.0045 -0.7329  1.4153
  970SOL    HW2 2910   2.144   1.400   1.023  1.1128 -0.2511 -0.0985
  971SOL     OW 2911   0.340   3.043   1.267  0.4233  0.5927 -0.2397
  971SOL    HW1 2912   0.334   0.043   1.269 -1.3792 -1.8977  0.5241
  971SOL    HW2 2913   0.263   3.002   1.209 -1.3194  1.3813 -3.3340
  972SOL     OW 2914   0.063   0.790   2.841 -0.7464  0.6797  0.4489
  972SOL    HW1 2915   0.103   0.714   2.887  1.0354  1.5963  1.5470
  972SOL    HW2 2916   3.089   0.825   2.889  2.8875 -0.6023 -1.6144
  973SOL     OW 2917   0.177   0.871   1.070  0.3005 -0.5733 -0.2782
  973SOL    HW1 2918   0.178   0.818   1.156 -1.2913  3.1376 -1.0450
  973SOL    HW2 2919   0.158   0.812   0.989  0.1308  0.5813 -0.5652
  974SOL     OW 2920   2.125   0.653   2.007  0.0572 -0.0965  0.5618
  974SOL    HW1 2921   2.079   0.731   1.964  0.3930  0.2439  1.1671
  974SOL    HW2 2922   2.225   0.677   2.006  2.1229 -0.1712  1.1712
  975SOL     OW 2923   2.785   0.126   0.312  0.1893  0.5380 -0.2981
  975SOL    HW1 2924   2.712   0.104   0.382 -0.8035  0.6407  0.7087
  975SOL    HW2 2925   2.855   0.190   0.348  0.6861 -3.3746  2.1785
  976SOL     OW 2926   0.268   1.322   1.654  0.4082  0.5362 -0.5722
  976SOL    HW1 2927   0.313   1.388   1.591  1.7694  1.3409 -1.5899
  976SOL    HW2 2928   0.230   1.361   1.740  1.7964 -0.3466 -1.3135
  977SOL     OW 2929   1.138   2.697   0.072  0.1197  0.4141 -0.0306
  977SOL    HW1 2930   1.158   2.761   0.149 -0.6138  0.0927 -2.2849
  977SOL    HW2 2931   1.185   2.607   0.086  1.6094  3.0367  0.9292
  978SOL     OW 2932   0.579   1.317   0.256 -0.0688  0.1388 -0.5581
  978SOL    HW1 2933   0.616   1.312   0.352 -1.8739 -1.0584  0.9250
  978SOL    HW2 2934   0.477   1.334   0.262 -1.3225 -0.5364 -1.6327
  979SOL     OW 2935   1.770   1.841   1.422  0.1349 -0.3914  0.0828
  979SOL    HW1 2936   1.737   1.813   1.512 -2.1351 -1.2752  0.1637
  979SOL    HW2 2937   1.770   1.772   1.348  1.0654 -1.1215 -1.0974
  980SOL     OW 2938   0.578   1.523   1.863 -0.3474  0.2246  0.2943
  980SOL    HW1 2939   0.618   1.554   1.949 -1.6008 -2.3407 -1.3157
  980SOL    HW2 2940   0.525   1.437   1.888  0.4650 -0.3648 -0.4737
  981SOL     OW 2941   0.162   1.536   0.119  0.0474 -0.4387 -0.1328
  981SOL    HW1 2942   0.164   1.609   0.187  0.5821  1.1472  0.6704
  981SOL    HW2 2943   0.075   1.479   0.136  0.7391  0.5582  0.1950
  982SOL     OW 2944   2.238   2.905   2.070 -0.3800  0.0070 -0.3835
  982SOL    HW1 2945   2.266   2.980   2.000  0.9611  1.4899  0.6217
  982SOL    HW2 2946   2.303   2.912   2.148 -0.2945 -2.0519  3.1138
  983SOL     OW 2947   1.286   0.579   1.186 -0.3506 -0.3807  0.1129
  983SOL    HW1 2948   1.382   0.557   1.152  1.1648 -4.3135 -0.9185
  983SOL    HW2 2949   1.237   0.651   1.137 -1.6889  0.0952  0.9856
  984SOL     OW 2950   1.132   2.996   2.792 -0.2967 -0.2202  0.7040
  984SOL    HW1 2951   1.199   3.019   2.868 -0.3632 -1.0998  0.6795
  984SOL    HW2 2952   1.132   3.059   2.716  1.2012 -0.1847 -0.1190
  985SOL     OW 2953   1.815   2.107   1.622 -0.2298 -0.2932 -0.2123
  985SOL    HW1 2954   1.727   2.061   1.654 -2.3214 -2.0754  0.9228
  985SOL    HW2 2955   1.809   2.139   1.529  0.3304  0.6279  1.8393
  986SOL     OW 2956   2.448   0.146   2.457 -0.0975 -0.2829  0.4960
  986SOL    HW1 2957   2.545   0.119   2.463 -0.0074  2.3281 -0.2737
  986SOL    HW2 2958   2.423   0.235   2.504 -1.6371  3.7981 -0.5666
  987SOL     OW 2959   2.760   0.770   2.186  0.0614 -0.0256  0.5970
  987SOL    HW1 2960   2.809   0.678   2.199  1.2840 -2.4023 -0.8740
  987SOL    HW2 2961   2.672   0.776   2.237 -0.9185  3.0205 -2.2028
  988SOL     OW 2962   2.348   0.715   2.709  0.1090  0.3197  0.0756
  988SOL    HW1 2963   2.259   0.673   2.748 -1.3585  0.5438  0.6149
  988SOL    HW2 2964   2.322   0.769   2.628 -0.3376 -0.6392  1.9562
  989SOL     OW 2965   2.297   1.632   1.931 -0.0770  0.0766  0.5559
  989SOL    HW1 2966   2.364   1.689   1.989  2.5553  2.0993  0.7925
  989SOL    HW2 2967   2.336   1.596   1.843 -1.1196  0.1735 -1.9549
  990SOL     OW 2968   0.324   1.283   2.794 -0.0513  0.0903 -0.4689
  990SOL    HW1 2969   0.259   1.344   2.841 -2.2273 -0.8405  0.7496
  990SOL    HW2 2970   0.414   1.322   2.787 -2.5018 -1.7591 -3.0379
  991SOL     OW 2971   0.444   1.922   2.707 -0.4027 -0.2052  0.3983
  991SOL    HW1 2972   0.415   1.825   2.697  1.5960 -0.0658  0.1176
  991SOL    HW2 2973   0.419   1.957   2.800  1.3211  0.3006 -1.6912
  992SOL     OW 2974   2.572   2.077   1.974  0.3323  0.3496  0.1646
  992SOL    HW1 2975   2.496   2.132   1.929  0.5817 -0.1471 -0.5009
  992SOL    HW2 2976   2.600   2.122   2.059  0.9398 -1.3171  1.1434
  993SOL     OW 2977   0.294   3.042   0.634  0.3654 -0.1193  0.2726
  993SOL    HW1 2978   0.327   3.089   0.721  1.9688  0.3767  0.5801
  993SOL    HW2 2979   0.271   2.942   0.654  0.0463 -1.2154 -1.3734
  994SOL     OW 2980   0.210   1.805   1.591  0.2836  0.0659 -0.2102
  994SOL    HW1 2981   0.193   1.870   1.516  0.6581  0.5488 -0.9922
  994SOL    HW2 2982   0.299   1.813   1.644 -0.4980  0.7817 -2.6150
  995SOL     OW 2983   2.044   1.766   2.918 -0.2719 -0.4131 -0.6814
  995SOL    HW1 2984   1.944   1.786   2.912  1.1924 -0.6022 -0.8636
  995SOL    HW2 2985   2.107   1.834   2.868  0.7286 -1.1017  0.1549
  996SOL     OW 2986   2.079   1.128   2.704 -0.0658 -0.1659  0.1143
  996SOL    HW1 2987   2.161   1.090   2.744  2.6910 -0.9267 -3.4288
  996SOL    HW2 2988   2.019   1.178   2.775 -0.0390  0.0207  0.8813
  997SOL     OW 2989   1.435   0.829   1.777  0.3862  0.0296 -0.1746
  997SOL    HW1 2990   1.381   0.914   1.761 -2.6056  2.7103  0.7191
  997SOL    HW2 2991   1.461   0.780   1.691 -0.5016 -0.4112 -3.5793
  998SOL     OW 2992   2.330   2.081   0.823 -0.4539 -0.4357  0.4093
  998SOL    HW1 2993   2.383   2.165   0.847  0.6408 -1.9659  2.2691
  998SOL    HW2 2994   2.321   2.017   0.899 -2.1741  1.2345 -3.1955
  999SOL     OW 2995   2.408   2.441   0.732  0.2988  0.1131 -0.3145
  999SOL    HW1 2996   2.316   2.483   0.721  0.7904  1.0216  0.0584
  999SOL    HW2 2997   2.488   2.502   0.747 -0.2222 -1.2809 -1.2832
 1000SOL     OW 2998   0.899   0.008   0.004 -0.4481  0.4231  0.0392
 1000SOL    HW1 2999   0.848   0.060   0.076 -0.8370 -0.0020 -0.7711
 1000SOL    HW2 3000   0.969   0.071   3.063  0.9776  0.6250  1.9123
   3.10299   3.10299   3.10299
