1000 SPC/Fw water molecules t=  82.00000 step= 82000
 3000
    1SOL     OW    1   1.982   2.802   0.775  0.0872  0.2731 -0.1600
    1SOL    HW1    2   1.932   2.713   0.763 -4.2361  0.5299  3.7539
    1SOL    HW2    3   1.981   2.859   0.692  0.3227 -1.9727  0.6734
    2SOL     OW    4   0.691   1.186   2.163 -0.1295 -0.0049  0.2989
    2SOL    HW1    5   0.697   1.162   2.266  2.7023 -0.8858  1.4342
    2SOL    HW2    6   0.657   1.281   2.151 -1.3345 -0.8921  0.1629
    3SOL     OW    7   1.448   2.797   2.566 -0.3168  0.2921  0.2163
    3SOL    HW1    8   1.349   2.821   2.585 -4.1800  0.2750 -0.8257
    3SOL    HW2    9   1.447   2.695   2.559 -0.1902  0.2606  0.6283
    4SOL     OW   10   1.170   1.805   2.695  0.1622  0.2417  0.2099
    4SOL    HW1   11   1.242   1.826   2.624  2.1909 -0.7119 -1.0049
    4SOL    HW2   12   1.218   1.772   2.781  1.6329  0.2841  0.7532
    5SOL     OW   13   0.491   0.904   1.862  0.0196 -0.6770  0.3121
    5SOL    HW1   14   0.471   0.940   1.765 -0.8238  0.9440  1.3024
    5SOL    HW2   15   0.580   0.940   1.890 -2.0983  1.3574  2.7552
    6SOL     OW   16   1.847   0.501   2.591 -0.2371  0.1840 -0.5744
    6SOL    HW1   17   1.845   0.531   2.496 -2.6093 -1.1485  3.0285
    6SOL    HW2   18   1.786   0.557   2.648 -0.7505 -1.6244 -2.6372
    7SOL     OW   19   0.390   0.288   1.643 -0.3241  0.3434  0.1796
    7SOL    HW1   20   0.400   0.385   1.656 -1.2684 -2.5380  0.4802
    7SOL    HW2   21   0.313   0.250   1.704  1.1868  0.1614  2.4041
    8SOL     OW   22   1.785   0.249   1.754 -0.9352 -0.5473  0.5244
    8SOL    HW1   23   1.748   0.344   1.761  1.3955  0.6518 -2.2028
    8SOL    HW2   24   1.842   0.227   1.834 -1.1791  1.6063 -2.1204
    9SOL     OW   25   0.405   0.026   0.621  0.4442  0.2342  0.1770
    9SOL    HW1   26   0.422   0.028   0.718  0.7713 -0.9030  0.5693
    9SOL    HW2   27   0.323   3.074   0.605  1.7593 -1.2972  2.6619
   10SOL     OW   28   0.568   2.254   2.367  0.1604  0.9450  0.2054
   10SOL    HW1   29   0.644   2.200   2.402 -1.4107  1.2861 -2.1771
   10SOL    HW2   30   0.581   2.267   2.271  1.7379 -1.2224  0.7201
   11SOL     OW   31   0.506   1.410   0.160 -0.4318  0.4414  0.0596
   11SOL    HW1   32   0.521   1.379   0.063  0.3509 -2.9817  1.0849
   11SOL    HW2   33   0.568   1.358   0.218 -0.5285  3.2726 -2.1688
   12SOL     OW   34   3.013   2.907   1.337 -0.0781  0.0382 -0.0668
   12SOL    HW1   35   2.984   2.954   1.251  2.3255 -0.7760 -1.8421
   12SOL    HW2   36   3.072   2.828   1.312  1.7239  0.7029 -1.1496
   13SOL     OW   37   0.844   2.747   0.485 -0.1808 -0.3497 -0.1292
   13SOL    HW1   38   0.810   2.738   0.389 -1.3210 -1.8954  1.1040
   13SOL    HW2   39   0.882   2.840   0.495 -0.7046  1.0998  1.6917
   14SOL     OW   40   1.702   1.611   1.353  0.4206 -0.6118  0.0390
   14SOL    HW1   41   1.608   1.647   1.351  0.2098  0.7213 -0.0287
   14SOL    HW2   42   1.707   1.506   1.346  0.1930 -3.1174 -0.5069
   15SOL     OW   43   0.081   1.716   2.392  0.2340  0.1187 -0.2738
   15SOL    HW1   44   3.097   1.714   2.340 -2.5649 -1.1253 -0.0078
   15SOL    HW2   45   0.083   1.795   2.457  1.0975  1.3901  1.7174
   16SOL     OW   46   1.513   0.607   2.532  0.5036  0.0641 -0.0738
   16SOL    HW1   47   1.583   0.649   2.597 -0.3975 -0.9021  0.6372
   16SOL    HW2   48   1.430   0.661   2.537  2.7826 -0.3436 -0.3189
   17SOL     OW   49   0.165   2.385   2.411 -0.1314 -0.1017 -0.0088
   17SOL    HW1   50   0.243   2.381   2.478 -0.6541  2.0240  0.7539
   17SOL    HW2   51   0.142   2.288   2.381  1.0320 -2.4745 -1.5999
   18SOL     OW   52   1.012   1.303   0.668  0.5189  0.2227  0.6899
   18SOL    HW1   53   1.032   1.401   0.689  1.6241 -0.9343  1.2242
   18SOL    HW2   54   1.059   1.246   0.735 -0.3117  0.4152 -1.0236
   19SOL     OW   55   2.795   1.732   2.362  0.5401 -0.7254  0.3698
   19SOL    HW1   56   2.817   1.710   2.460  2.3148 -1.1473 -0.2377
   19SOL    HW2   57   2.745   1.821   2.354 -0.7023  1.0518 -0.9303
   20SOL     OW   58   2.496   2.458   2.370  0.5488  0.0016 -0.1723
   20SOL    HW1   59   2.564   2.520   2.413  0.1317  1.0723  1.4911
   20SOL    HW2   60   2.401   2.481   2.413 -1.6010 -0.7783 -0.0505
   21SOL     OW   61   1.434   1.822   0.181  0.2065 -0.7989  0.3684
   21SOL    HW1   62   1.404   1.730   0.147  3.1040  2.7581  1.7937
   21SOL    HW2   63   1.415   1.826   0.280 -0.8400 -2.9005 -1.3890
   22SOL     OW   64   2.261   2.430   1.466  0.0748  0.1650  0.2526
   22SOL    HW1   65   2.260   2.518   1.515 -1.7963 -0.9193 -0.9726
   22SOL    HW2   66   2.181   2.367   1.491 -3.3802 -1.5694  0.2815
   23SOL     OW   67   0.156   1.210   1.298 -0.6136  0.6492 -0.3152
   23SOL    HW1   68   0.146   1.121   1.250  0.7505 -0.2300  0.0388
   23SOL    HW2   69   0.206   1.195   1.387 -1.9436 -2.1307  0.3244
   24SOL     OW   70   2.485   1.775   2.454  0.1644  0.4344 -0.3952
   24SOL    HW1   71   2.402   1.779   2.510  0.1642  2.5016  2.1073
   24SOL    HW2   72   2.542   1.862   2.442  2.3145  2.4882 -0.6461
   25SOL     OW   73   1.901   0.334   2.175 -0.0239  0.1748 -0.6154
   25SOL    HW1   74   1.995   0.309   2.205  0.4120  2.4312 -3.0200
   25SOL    HW2   75   1.902   0.386   2.090  2.6317  0.7101  2.4785
   26SOL     OW   76   1.296   0.030   0.381 -0.2045  0.6739 -0.2587
   26SOL    HW1   77   1.330   0.053   0.289 -3.7657  2.2974 -1.8352
   26SOL    HW2   78   1.332   0.091   0.449 -6.1049 -3.2440 -1.1380
   27SOL     OW   79   0.702   1.606   0.403 -0.7238  0.1679  1.2690
   27SOL    HW1   80   0.648   1.691   0.395 -1.5755  0.6352  0.9917
   27SOL    HW2   81   0.659   1.534   0.464  2.7197  2.7147 -1.9625
   28SOL     OW   82   2.477   1.998   0.903  0.2007  0.2632 -0.0034
   28SOL    HW1   83   2.567   2.019   0.951 -1.0451  0.6685  0.3155
   28SOL    HW2   84   2.398   2.005   0.969 -1.5591 -0.2960 -0.0788
   29SOL     OW   85   2.345   3.039   1.641  0.0306  0.0230 -0.3502
   29SOL    HW1   86   2.284   2.962   1.673 -3.3042 -3.1148  0.9404
   29SOL    HW2   87   2.407   3.070   1.717 -1.2151 -1.8692  0.8427
   30SOL     OW   88   1.052   3.073   1.291 -0.2714 -0.0029  0.2040
   30SOL    HW1   89   1.145   3.096   1.249  3.8768  2.1609  0.0688
   30SOL    HW2   90   1.004   2.996   1.244 -0.6179 -0.5082  2.0514
   31SOL     OW   91   3.069   2.134   1.712  0.7015  0.4396 -0.2884
   31SOL    HW1   92   3.077   2.030   1.694 -2.8179 -0.9722 -0.7509
   31SOL    HW2   93   3.102   2.165   1.802  2.4846  0.4041  1.5414
   32SOL     OW   94   1.495   1.524   1.802 -0.3310  0.1110 -0.0188
   32SOL    HW1   95   1.414   1.560   1.753 -1.7324  0.1244 -0.7070
   32SOL    HW2   96   1.550   1.606   1.845 -0.3674 -2.4192 -1.3339
   33SOL     OW   97   0.345   0.201   3.073 -0.5129 -0.1117 -0.0882
   33SOL    HW1   98   0.407   0.280   3.046  2.0900 -1.2487 -1.4863
   33SOL    HW2   99   0.305   0.155   2.995  1.6641  1.3329  2.1881
   34SOL     OW  100   2.328   3.087   0.573 -0.6079  0.0914  0.0809
   34SOL    HW1  101   2.283   0.017   0.655 -2.4328 -1.6336  1.6624
   34SOL    HW2  102   2.297   2.997   0.537 -0.8574  2.1370 -0.2713
   35SOL     OW  103   2.678   0.057   1.434 -0.3824  0.5223 -0.0355
   35SOL    HW1  104   2.701   0.137   1.486 -0.4238 -2.3562 -1.6962
   35SOL    HW2  105   2.579   0.029   1.442  0.1227 -0.7739  1.4878
   36SOL     OW  106   2.781   2.715   2.822 -0.1932 -0.1191  0.2865
   36SOL    HW1  107   2.780   2.812   2.858 -0.6803 -0.7501 -1.3641
   36SOL    HW2  108   2.821   2.717   2.724 -1.8731 -0.2566 -0.4285
   37SOL     OW  109   1.577   2.562   2.829 -0.0713  0.2637  0.4117
   37SOL    HW1  110   1.595   2.658   2.864  0.3546  1.0751  1.1296
   37SOL    HW2  111   1.480   2.540   2.839  0.8769  1.2388 -1.5428
   38SOL     OW  112   2.984   1.000   2.885  0.0746  0.6054 -0.1552
   38SOL    HW1  113   2.912   1.017   2.957 -2.7687 -0.1897 -0.5256
   38SOL    HW2  114   3.023   1.087   2.858 -0.6815  1.8440  3.3524
   39SOL     OW  115   1.830   1.901   2.008 -0.5418 -0.4384 -0.6257
   39SOL    HW1  116   1.797   1.960   2.080  2.6331 -1.0390 -1.0392
   39SOL    HW2  117   1.883   1.824   2.057 -0.1231 -1.8959  0.7334
   40SOL     OW  118   0.359   0.217   2.722  0.0265 -0.1913  0.3163
   40SOL    HW1  119   0.304   0.155   2.785 -0.9338  0.0114  0.7878
   40SOL    HW2  120   0.447   0.238   2.775 -0.5048 -1.2582  2.8370
   41SOL     OW  121   1.870   1.476   1.674  0.5242  0.5920  0.5467
   41SOL    HW1  122   1.934   1.404   1.633  3.5396 -0.1669 -1.2787
   41SOL    HW2  123   1.772   1.443   1.653  1.9329 -1.0723  0.0159
   42SOL     OW  124   0.215   0.119   1.811  0.2926 -0.1569  0.6796
   42SOL    HW1  125   0.187   0.081   1.903  2.2877 -0.5277 -0.1099
   42SOL    HW2  126   0.218   0.039   1.746 -0.6065  1.8402  0.0089
   43SOL     OW  127   1.464   1.381   2.031  0.1086  0.2555  0.2689
   43SOL    HW1  128   1.489   1.284   2.008 -1.0533 -1.0715  0.4265
   43SOL    HW2  129   1.516   1.444   1.970 -2.8197  0.4238  0.0344
   44SOL     OW  130   3.020   0.180   3.091 -0.0941 -0.5267 -0.0184
   44SOL    HW1  131   3.000   0.116   3.013  1.7498 -1.7328  0.6803
   44SOL    HW2  132   2.947   0.243   3.100  1.2044 -1.4315  0.8652
   45SOL     OW  133   0.307   2.122   1.113 -0.6799 -0.4167 -0.0094
   45SOL    HW1  134   0.392   2.086   1.160  2.6004  0.5855 -1.3485
   45SOL    HW2  135   0.264   2.050   1.057  2.0985  2.1405  1.8442
   46SOL     OW  136   2.490   2.658   1.839  0.4747 -0.0236 -0.4642
   46SOL    HW1  137   2.544   2.647   1.926 -2.4080 -0.1393  0.5605
   46SOL    HW2  138   2.554   2.675   1.763  3.4641  0.0944  1.7720
   47SOL     OW  139   0.678   1.789   1.152  0.2766 -0.6084 -0.0691
   47SOL    HW1  140   0.692   1.698   1.106  1.1629  0.3108  3.5414
   47SOL    HW2  141   0.623   1.850   1.096  1.7180  0.5366  1.2347
   48SOL     OW  142   0.528   2.683   0.313 -0.5207 -0.1256  0.6848
   48SOL    HW1  143   0.481   2.652   0.399 -0.0357 -0.0049 -1.1330
   48SOL    HW2  144   0.493   2.773   0.280  1.7577 -1.8103  3.0104
   49SOL     OW  145   2.922   1.680   1.868  0.2890 -0.0254 -0.1056
   49SOL    HW1  146   2.918   1.663   1.971  1.8084  1.7008  0.9432
   49SOL    HW2  147   2.838   1.716   1.833  2.6943  0.8197  0.9829
   50SOL     OW  148   1.556   0.922   0.662 -0.1223  0.2260 -0.2378
   50SOL    HW1  149   1.580   0.824   0.671 -0.5845 -0.2792  0.8907
   50SOL    HW2  150   1.591   0.965   0.749  0.4669 -0.4927 -0.2726
   51SOL     OW  151   1.123   0.681   1.093  0.1421  0.1251 -0.2537
   51SOL    HW1  152   1.151   0.775   1.118  1.4056 -0.0909  0.3308
   51SOL    HW2  153   1.048   0.653   1.154 -0.1714 -0.0158 -0.5747
   52SOL     OW  154   0.893   1.432   0.225 -0.0281  0.4928  0.2450
   52SOL    HW1  155   0.952   1.359   0.269 -3.3799 -0.4554  1.6821
   52SOL    HW2  156   0.800   1.440   0.263 -0.2399 -0.6971 -0.6069
   53SOL     OW  157   1.200   3.101   2.516 -0.3968 -0.5445 -0.4905
   53SOL    HW1  158   1.273   0.028   2.581  0.7306 -0.7969 -2.1101
   53SOL    HW2  159   1.159   0.071   2.468  1.5883  0.3819  0.9301
   54SOL     OW  160   1.754   0.972   1.622 -0.1300  0.3365  0.3877
   54SOL    HW1  161   1.686   0.898   1.608  1.1180  0.0676 -1.1895
   54SOL    HW2  162   1.837   0.947   1.570 -1.7438 -0.0147 -3.6400
   55SOL     OW  163   2.671   2.610   0.390 -0.4039  1.0954 -0.6514
   55SOL    HW1  164   2.718   2.629   0.477  1.5507  1.3949 -2.8718
   55SOL    HW2  165   2.612   2.688   0.369 -1.3691  1.4237  1.8325
   56SOL     OW  166   0.839   2.470   1.940 -0.1329  0.8834  0.0855
   56SOL    HW1  167   0.746   2.508   1.965 -0.5919 -0.0356  0.8508
   56SOL    HW2  168   0.866   2.514   1.852 -0.7382 -0.5399  2.0995
   57SOL     OW  169   1.872   0.942   2.577 -0.3022  0.1134 -0.5382
   57SOL    HW1  170   1.857   0.947   2.679 -0.5011 -1.3626  0.9704
   57SOL    HW2  171   1.778   0.928   2.539 -0.6046 -3.3870  1.0902
   58SOL     OW  172   0.355   1.330   1.971 -0.3313 -0.7172 -0.4848
   58SOL    HW1  173   0.277   1.290   1.919  0.7753  0.2446 -1.0677
   58SOL    HW2  174   0.443   1.342   1.914  5.3730  1.1129 -3.7163
   59SOL     OW  175   0.600   2.656   2.317  0.1802  0.1253  0.0415
   59SOL    HW1  176   0.654   2.721   2.258 -1.5132  1.7970  0.1173
   59SOL    HW2  177   0.638   2.561   2.305  0.5298 -0.3125  0.8685
   60SOL     OW  178   2.609   2.417   0.213  0.1448  0.7095 -0.1717
   60SOL    HW1  179   2.633   2.483   0.287  0.9432  0.3779  0.9362
   60SOL    HW2  180   2.517   2.438   0.174 -2.9809  2.4724 -0.1987
   61SOL     OW  181   0.809   2.467   0.605 -0.3342 -0.0570  0.1154
   61SOL    HW1  182   0.886   2.431   0.543 -0.3643 -1.1794  0.7875
   61SOL    HW2  183   0.811   2.570   0.598 -1.6042  0.9688 -2.0337
   62SOL     OW  184   1.732   2.381   2.666  0.0749  0.0533  0.0475
   62SOL    HW1  185   1.705   2.313   2.600  0.7902 -0.3982  1.0765
   62SOL    HW2  186   1.664   2.455   2.681  0.9255  2.7282 -1.1540
   63SOL     OW  187   2.000   0.571   0.025  0.4061 -0.5548 -0.0208
   63SOL    HW1  188   2.031   0.552   3.034  3.1756  0.0916 -1.9115
   63SOL    HW2  189   2.078   0.603   0.084 -0.0274 -0.9386  2.4740
   64SOL     OW  190   0.841   1.473   2.652 -0.4568 -0.2323  0.4882
   64SOL    HW1  191   0.749   1.434   2.649 -0.4146 -1.6399 -0.6093
   64SOL    HW2  192   0.833   1.570   2.675  1.8829 -0.2818  1.1901
   65SOL     OW  193   1.278   3.064   1.147  0.1222 -0.0684  0.7312
   65SOL    HW1  194   1.379   3.079   1.131  3.5489 -0.2879  1.2436
   65SOL    HW2  195   1.232   3.028   1.064 -1.9165 -4.2317 -2.3539
   66SOL     OW  196   0.660   1.666   1.642  0.1456  0.2497 -0.0090
   66SOL    HW1  197   0.711   1.653   1.556 -0.4964 -0.8660 -0.4747
   66SOL    HW2  198   0.637   1.765   1.667 -0.3639  1.0431  2.1795
   67SOL     OW  199   2.287   2.918   2.151 -0.7682  0.2438  0.2525
   67SOL    HW1  200   2.361   2.867   2.204 -0.8602  0.3647  0.0028
   67SOL    HW2  201   2.309   3.019   2.166  1.3544  0.6855  1.6107
   68SOL     OW  202   0.888   1.029   1.697 -0.1312 -0.4600 -0.5268
   68SOL    HW1  203   0.816   1.042   1.771  0.3926 -2.4656  0.2450
   68SOL    HW2  204   0.840   0.999   1.614  2.0379 -2.6910 -1.7197
   69SOL     OW  205   2.339   2.458   0.122 -0.5853 -0.2727 -0.0546
   69SOL    HW1  206   2.285   2.514   0.187 -1.5162  1.4231  2.1878
   69SOL    HW2  207   2.311   2.360   0.116 -0.5573 -0.9062  1.6899
   70SOL     OW  208   2.169   0.749   2.776 -0.2675 -0.4781  0.1260
   70SOL    HW1  209   2.236   0.743   2.701 -0.2808 -0.0219 -1.6738
   70SOL    HW2  210   2.157   0.847   2.796  2.2656  0.1953  0.4221
   71SOL     OW  211   0.007   2.254   0.356 -0.4097  0.0350 -0.3220
   71SOL    HW1  212   3.023   2.211   0.368  0.4008  0.0463 -0.4218
   71SOL    HW2  213   0.077   2.199   0.308  0.3093  1.9499 -0.2190
   72SOL     OW  214   2.860   1.760   0.470  0.2983  1.0775  0.6457
   72SOL    HW1  215   2.887   1.840   0.522  0.2181 -4.6226 -1.2689
   72SOL    HW2  216   2.898   1.679   0.508 -3.0324  2.5652 -1.3875
   73SOL     OW  217   1.097   0.562   0.676  0.0423  0.4134 -0.0603
   73SOL    HW1  218   1.192   0.571   0.641 -2.4398  3.7188  2.0779
   73SOL    HW2  219   1.075   0.639   0.747 -0.9086  1.2349  0.0114
   74SOL     OW  220   0.093   2.159   1.953  0.2057 -0.3936 -0.1735
   74SOL    HW1  221   0.107   2.083   2.023 -1.3567 -2.5174  2.2643
   74SOL    HW2  222   0.170   2.227   1.942  1.7623 -0.8918 -1.2246
   75SOL     OW  223   1.900   1.762   1.668  0.1599 -0.2514 -0.5802
   75SOL    HW1  224   1.893   1.661   1.674 -0.1857  0.8309 -0.6739
   75SOL    HW2  225   1.808   1.794   1.633 -0.6110 -2.6682 -2.4962
   76SOL     OW  226   1.431   2.027   1.244  0.3712  0.3576  0.0251
   76SOL    HW1  227   1.463   2.047   1.152 -0.6071  0.7370  2.3326
   76SOL    HW2  228   1.340   2.065   1.262 -0.1088 -0.8934  1.8139
   77SOL     OW  229   2.602   1.464   2.234  0.2674  0.2418 -0.6170
   77SOL    HW1  230   2.693   1.415   2.240  0.0360 -1.4654 -0.1188
   77SOL    HW2  231   2.597   1.536   2.308 -0.2218  2.0581  0.0137
   78SOL     OW  232   1.493   0.565   0.814  0.1860  0.3353 -0.6707
   78SOL    HW1  233   1.447   0.587   0.900  1.9567  0.4739 -3.8611
   78SOL    HW2  234   1.578   0.513   0.837 -0.2250  1.6690 -0.6858
   79SOL     OW  235   1.989   1.515   1.905 -0.2296 -0.3428  0.2025
   79SOL    HW1  236   2.087   1.479   1.899  3.1928 -0.3645  2.4019
   79SOL    HW2  237   1.944   1.515   1.811 -0.0344  0.7505 -2.0727
   80SOL     OW  238   1.275   0.363   1.335  0.0017  0.4494 -0.3184
   80SOL    HW1  239   1.342   0.285   1.327  0.4876 -2.8603 -1.8603
   80SOL    HW2  240   1.210   0.343   1.409  0.1832 -1.7135 -2.4453
   81SOL     OW  241   0.602   2.301   0.573 -0.5277  0.0304  0.0681
   81SOL    HW1  242   0.679   2.361   0.598 -1.1619 -2.1542 -1.9741
   81SOL    HW2  243   0.617   2.214   0.611  0.5604  2.0746  1.6312
   82SOL     OW  244   1.530   0.474   1.558  0.3566 -0.5955  0.3342
   82SOL    HW1  245   1.462   0.517   1.494  2.1574 -0.0852 -1.6718
   82SOL    HW2  246   1.519   0.372   1.559 -0.1419 -3.5927 -1.0531
   83SOL     OW  247   0.499   1.938   0.609 -0.3704 -0.3126 -0.8247
   83SOL    HW1  248   0.556   2.004   0.662  0.6565  0.9627 -3.2037
   83SOL    HW2  249   0.537   1.916   0.517 -3.1284 -1.3903 -0.9228
   84SOL     OW  250   2.615   1.331   3.071  0.5948  0.3055  0.0667
   84SOL    HW1  251   2.702   1.314   3.023 -1.0215 -1.4459  1.3648
   84SOL    HW2  252   2.550   1.388   3.015 -2.0423 -2.0242 -0.6887
   85SOL     OW  253   0.099   2.680   1.533 -0.6042  0.6698 -0.1152
   85SOL    HW1  254   0.083   2.758   1.591  0.2157 -2.7442 -1.8776
   85SOL    HW2  255   0.084   2.702   1.435  0.4332 -1.7202  1.1743
   86SOL     OW  256   1.798   2.897   1.020  0.4791  0.6658 -0.0950
   86SOL    HW1  257   1.776   2.839   1.107  0.1124 -1.2925  3.5702
   86SOL    HW2  258   1.901   2.903   1.018  1.6449 -1.0954  0.2702
   87SOL     OW  259   2.793   1.399   0.668  0.1316  0.5328 -0.0738
   87SOL    HW1  260   2.689   1.405   0.659  0.3938 -2.2436  0.4556
   87SOL    HW2  261   2.813   1.372   0.762 -2.3239  1.4604 -3.3170
   88SOL     OW  262   0.912   0.592   1.247  0.2066  1.1372 -0.1855
   88SOL    HW1  263   0.913   0.580   1.345 -0.6480 -0.4366 -3.3907
   88SOL    HW2  264   0.876   0.503   1.204 -0.1555 -3.1281 -2.9629
   89SOL     OW  265   0.927   2.872   1.969 -0.2957  0.2936 -0.2570
   89SOL    HW1  266   0.922   2.933   1.885 -1.3344  2.1593  1.1909
   89SOL    HW2  267   1.002   2.803   1.972 -0.0225 -1.5464  1.9649
   90SOL     OW  268   2.879   1.829   1.207 -0.3203 -0.1743  0.1164
   90SOL    HW1  269   2.837   1.742   1.174 -0.6379 -0.5700 -1.6204
   90SOL    HW2  270   2.847   1.857   1.300  0.9286 -0.5752  0.8669
   91SOL     OW  271   1.057   1.693   1.253  0.1887 -0.1151 -0.1366
   91SOL    HW1  272   1.128   1.658   1.316 -0.8523  4.4508 -0.3153
   91SOL    HW2  273   1.083   1.674   1.157  0.4305 -0.0231 -2.4478
   92SOL     OW  274   2.875   2.787   1.793  0.4232  0.2297 -0.2945
   92SOL    HW1  275   2.815   2.744   1.725 -0.3105  1.1620 -2.6318
   92SOL    HW2  276   2.827   2.862   1.836  1.8567 -3.8431 -2.9161
   93SOL     OW  277   2.829   1.321   2.906 -0.2096  0.0103 -0.2632
   93SOL    HW1  278   2.760   1.342   2.840  1.9348 -0.4268  2.1280
   93SOL    HW2  279   2.907   1.272   2.862 -2.1148  2.1949  1.0043
   94SOL     OW  280   2.514   0.009   1.836  0.1700  0.2802 -0.1012
   94SOL    HW1  281   2.478   0.060   1.916 -1.5068  1.2041  0.2593
   94SOL    HW2  282   2.599   3.064   1.864  3.4604 -2.4629 -0.7324
   95SOL     OW  283   1.612   0.774   1.901  0.1609 -0.0083  0.1025
   95SOL    HW1  284   1.614   0.875   1.920 -0.5234  3.9059 -1.7477
   95SOL    HW2  285   1.522   0.728   1.911 -3.3154 -0.5446  1.3080
   96SOL     OW  286   2.609   0.728   1.674  0.4057 -0.4457 -0.1109
   96SOL    HW1  287   2.688   0.763   1.731 -0.8386  1.7534 -1.7749
   96SOL    HW2  288   2.643   0.721   1.575  0.5417 -3.0773 -1.5238
   97SOL     OW  289   2.442   3.046   1.381 -0.2036  0.2007 -0.3834
   97SOL    HW1  290   2.481   2.956   1.345  1.8816 -1.1249 -0.3812
   97SOL    HW2  291   2.393   3.022   1.467  0.9304  0.0195 -1.0582
   98SOL     OW  292   2.032   2.657   1.307  0.2745 -0.0922 -0.0520
   98SOL    HW1  293   2.135   2.669   1.296  1.4750  1.0076 -0.8403
   98SOL    HW2  294   2.001   2.665   1.406  0.0159 -1.9222  1.4042
   99SOL     OW  295   2.758   0.290   1.599 -0.6521  0.3244 -0.1339
   99SOL    HW1  296   2.723   0.335   1.687  0.2517 -0.1039  3.4324
   99SOL    HW2  297   2.858   0.258   1.611  0.8460 -1.2840 -0.1646
  100SOL     OW  298   2.225   1.664   2.218  0.0915  0.0785  0.2916
  100SOL    HW1  299   2.311   1.699   2.256 -1.9380 -1.1864  2.5834
  100SOL    HW2  300   2.190   1.589   2.279 -0.6532 -0.8146  0.8053
  101SOL     OW  301   2.076   0.059   0.167  0.6847 -0.0972  0.4559
  101SOL    HW1  302   2.153   0.075   0.233 -0.4756 -0.1351 -1.2617
  101SOL    HW2  303   2.018   0.144   0.151 -2.2174  2.2206 -0.7281
  102SOL     OW  304   0.610   0.614   1.524 -0.0195 -0.0810 -0.3556
  102SOL    HW1  305   0.520   0.619   1.564 -1.7530  0.8504 -2.8152
  102SOL    HW2  306   0.601   0.574   1.432  0.6915  0.5748  2.4707
  103SOL     OW  307   2.487   0.109   2.680  0.1713  0.0713  0.2710
  103SOL    HW1  308   2.570   0.123   2.740  4.7827 -0.3831  0.4139
  103SOL    HW2  309   2.405   0.147   2.723 -2.6372  0.6040 -0.1114
  104SOL     OW  310   0.049   2.805   1.809  0.6679 -0.4523  0.2816
  104SOL    HW1  311   0.094   2.716   1.825 -3.0395 -1.0101  0.2987
  104SOL    HW2  312   3.055   2.792   1.813 -1.2335 -0.0461 -0.2622
  105SOL     OW  313   1.396   1.008   2.091  0.6267  0.2053  0.0234
  105SOL    HW1  314   1.312   1.026   2.137 -0.9924  0.1107  2.7116
  105SOL    HW2  315   1.378   0.952   2.006 -0.7104  2.5230 -2.2295
  106SOL     OW  316   1.765   0.505   0.845 -0.4979  0.2790 -0.0582
  106SOL    HW1  317   1.847   0.449   0.872  0.6741 -0.6167 -1.9151
  106SOL    HW2  318   1.787   0.596   0.815 -0.5291 -1.1629 -0.2370
  107SOL     OW  319   0.603   1.136   1.314 -0.1834 -0.6465 -0.5312
  107SOL    HW1  320   0.545   1.059   1.282 -2.1051  0.6418  2.1937
  107SOL    HW2  321   0.702   1.120   1.300  2.7394 -0.2350  0.1547
  108SOL     OW  322   2.937   0.369   2.396 -0.2841  0.2412 -0.3696
  108SOL    HW1  323   2.969   0.325   2.310  0.8245  2.3391 -0.3062
  108SOL    HW2  324   2.990   0.335   2.478 -0.4174 -0.3656  1.1193
  109SOL     OW  325   2.144   3.103   3.020  0.0039  0.3118 -0.2942
  109SOL    HW1  326   2.144   0.011   0.014 -0.6734 -1.9535 -0.6394
  109SOL    HW2  327   2.052   3.100   2.973  0.8389  0.2899 -1.1002
  110SOL     OW  328   3.047   1.836   2.793 -0.0013  0.0824 -0.1575
  110SOL    HW1  329   3.063   1.775   2.873  0.9603  1.5962 -1.6223
  110SOL    HW2  330   2.998   1.923   2.827  3.1408 -0.0245  3.0388
  111SOL     OW  331   2.494   0.284   2.474  0.0397 -0.7817 -0.0606
  111SOL    HW1  332   2.401   0.327   2.479  1.1110 -0.8208  1.3924
  111SOL    HW2  333   2.494   0.225   2.555  0.2315  2.3879 -0.2147
  112SOL     OW  334   2.632   2.761   0.973 -0.2254  0.0311 -0.4189
  112SOL    HW1  335   2.727   2.731   0.970 -0.4515 -0.6394 -1.0931
  112SOL    HW2  336   2.619   2.866   0.965 -1.9432 -0.0599 -0.1865
  113SOL     OW  337   2.360   2.145   2.076  0.6392  0.2392  0.1180
  113SOL    HW1  338   2.439   2.106   2.028  0.5852  1.4824  1.0643
  113SOL    HW2  339   2.268   2.113   2.042  0.6926 -2.0505  2.5485
  114SOL     OW  340   2.598   0.019   0.511 -0.1285 -0.2240  0.0798
  114SOL    HW1  341   2.503   3.101   0.532  3.1207 -0.9946  1.5451
  114SOL    HW2  342   2.659   0.003   0.592  0.4646  1.3681 -1.3232
  115SOL     OW  343   2.772   1.787   0.221 -0.4614  0.2817 -0.5919
  115SOL    HW1  344   2.813   1.787   0.317  0.7713  0.9209 -0.2181
  115SOL    HW2  345   2.741   1.695   0.195  0.3554  1.2035  3.1068
  116SOL     OW  346   3.106   1.330   2.038 -0.2922  0.2297  0.3060
  116SOL    HW1  347   3.099   1.392   1.958 -2.2264  0.2935  2.1925
  116SOL    HW2  348   0.086   1.274   2.045 -0.6823 -0.4506  1.2284
  117SOL     OW  349   2.134   0.073   0.886  0.1166 -0.3369  0.0299
  117SOL    HW1  350   2.086   3.099   0.931  1.7445 -1.9425  0.1731
  117SOL    HW2  351   2.213   0.109   0.940  2.3321  0.8129  0.1897
  118SOL     OW  352   0.252   2.144   1.656 -0.2835 -0.0600 -0.4387
  118SOL    HW1  353   0.156   2.124   1.637  2.0906  1.6039 -1.2426
  118SOL    HW2  354   0.321   2.084   1.608  1.0606 -0.6146  0.5253
  119SOL     OW  355   1.127   2.104   1.541 -0.2577 -0.1218 -0.1656
  119SOL    HW1  356   1.157   2.122   1.444 -1.6016 -0.1462  2.2514
  119SOL    HW2  357   1.042   2.049   1.539 -0.8793  2.3568  1.3300
  120SOL     OW  358   0.156   1.855   1.313  0.1831 -0.0629 -0.7677
  120SOL    HW1  359   0.092   1.823   1.383  0.1171  1.0310  1.5602
  120SOL    HW2  360   0.254   1.841   1.338 -0.7999 -0.2250  1.0770
  121SOL     OW  361   2.203   1.221   0.961 -0.0127  0.4307 -0.1255
  121SOL    HW1  362   2.157   1.149   1.011  0.2317 -0.4354 -3.0107
  121SOL    HW2  363   2.228   1.300   1.019 -1.3774 -0.1648 -0.8426
  122SOL     OW  364   2.258   2.004   2.877 -0.3256  0.4478 -0.2687
  122SOL    HW1  365   2.176   1.950   2.851 -1.6072 -2.0762 -0.3980
  122SOL    HW2  366   2.279   2.078   2.812  1.3550 -0.0445  0.5426
  123SOL     OW  367   2.959   2.911   0.616 -0.0456 -0.2246  0.3388
  123SOL    HW1  368   3.011   2.916   0.709  2.2328 -0.5905  3.9661
  123SOL    HW2  369   2.937   2.816   0.590  0.9452  1.2730  0.1736
  124SOL     OW  370   1.106   1.045   0.096  0.1926  0.2014 -0.4340
  124SOL    HW1  371   1.008   1.067   0.121  3.6172 -1.5079  0.4709
  124SOL    HW2  372   1.113   0.982   0.015  0.0399 -0.4651 -1.9236
  125SOL     OW  373   0.169   1.525   2.559 -0.2237  0.3331  0.1157
  125SOL    HW1  374   0.169   1.599   2.489 -2.4316 -0.4019 -0.8530
  125SOL    HW2  375   0.156   1.427   2.522  1.0710 -0.0587  0.2961
  126SOL     OW  376   0.008   2.514   0.381 -0.1714 -0.1604  0.2954
  126SOL    HW1  377   0.010   2.563   0.289 -1.0445 -0.1338 -2.3740
  126SOL    HW2  378   0.017   2.415   0.365 -1.0886  1.6721 -0.2640
  127SOL     OW  379   2.982   1.571   0.612  0.2596  0.4458 -0.7934
  127SOL    HW1  380   2.903   1.505   0.625 -1.9337  0.3948  4.6059
  127SOL    HW2  381   3.068   1.535   0.647 -0.2012 -0.9422 -3.1931
  128SOL     OW  382   1.032   1.248   0.385 -0.2406 -0.2432 -0.1583
  128SOL    HW1  383   1.009   1.246   0.486  0.5108 -1.6885 -2.5931
  128SOL    HW2  384   1.065   1.161   0.361 -2.5847  1.0795  0.0339
  129SOL     OW  385   2.091   2.227   1.475 -0.1871 -0.0108 -0.1249
  129SOL    HW1  386   2.083   2.203   1.376 -1.4879 -1.7931  1.2088
  129SOL    HW2  387   1.995   2.241   1.514 -2.0424 -0.9865 -0.4249
  130SOL     OW  388   1.906   0.972   0.696  0.0990 -0.6155 -0.4101
  130SOL    HW1  389   1.828   0.929   0.744  1.1777  3.3942 -0.7044
  130SOL    HW2  390   1.940   1.061   0.729 -1.8668 -0.7880  1.3029
  131SOL     OW  391   2.896   0.943   2.632 -0.3887  0.0467  0.0610
  131SOL    HW1  392   2.922   0.957   2.730 -0.4261  0.4191 -1.5015
  131SOL    HW2  393   2.794   0.923   2.627 -0.5964 -0.4165  0.7684
  132SOL     OW  394   1.840   1.339   2.026 -0.2256  0.6473 -0.2238
  132SOL    HW1  395   1.828   1.257   1.964 -1.6188 -2.4680 -0.7246
  132SOL    HW2  396   1.903   1.411   1.989  1.6702 -0.6419 -2.6240
  133SOL     OW  397   3.103   1.114   0.061  0.1000 -0.2869 -0.2886
  133SOL    HW1  398   2.999   1.103   0.056 -1.9599  2.8838 -1.3125
  133SOL    HW2  399   0.006   1.172   0.144  0.1256  0.9369 -2.3930
  134SOL     OW  400   2.751   0.789   0.744  0.2037 -0.4311 -0.3230
  134SOL    HW1  401   2.707   0.832   0.662 -1.8163  0.1513 -1.8654
  134SOL    HW2  402   2.814   0.714   0.712 -1.9982 -0.8122  2.5430
  135SOL     OW  403   2.008   1.021   3.008  0.2704 -0.0839 -0.3618
  135SOL    HW1  404   2.093   1.060   2.969 -2.6539  1.5459  0.5749
  135SOL    HW2  405   2.013   1.035   0.005 -0.2683 -0.9134  2.0391
  136SOL     OW  406   1.921   2.011   1.774  0.3795 -0.2103 -0.0659
  136SOL    HW1  407   1.921   1.930   1.714  2.3024  0.8536  0.3362
  136SOL    HW2  408   1.889   1.981   1.861 -0.5117  3.5581 -3.5263
  137SOL     OW  409   2.224   2.616   0.629 -1.3310  0.4142 -0.0358
  137SOL    HW1  410   2.266   2.543   0.569  1.4782  0.1651 -3.0480
  137SOL    HW2  411   2.152   2.582   0.691  0.4529  1.9257 -3.4638
  138SOL     OW  412   2.310   0.384   1.553 -0.3493 -0.6659 -0.2182
  138SOL    HW1  413   2.212   0.380   1.577 -0.2163  2.3326 -0.9096
  138SOL    HW2  414   2.367   0.434   1.621  0.8415  1.0683  0.5197
  139SOL     OW  415   2.662   0.068   2.930  0.2133 -0.0238  0.1089
  139SOL    HW1  416   2.566   0.060   2.970 -1.5448 -0.6241  2.2732
  139SOL    HW2  417   2.694   0.166   2.917  0.4197  2.4082 -1.1995
  140SOL     OW  418   1.147   1.313   2.367  0.0450  0.0819  0.2936
  140SOL    HW1  419   1.060   1.306   2.418  0.6918  0.8182  1.6809
  140SOL    HW2  420   1.222   1.338   2.431 -1.2889 -1.6818 -1.1473
  141SOL     OW  421   0.753   0.469   2.327 -0.1967  0.2523 -0.1722
  141SOL    HW1  422   0.671   0.512   2.292  0.4747  0.6682  0.9660
  141SOL    HW2  423   0.809   0.430   2.253 -2.7001 -0.2643  1.1710
  142SOL     OW  424   2.687   2.458   2.844  0.1573  0.3914 -0.4464
  142SOL    HW1  425   2.751   2.404   2.904  0.2363  2.8616  1.5582
  142SOL    HW2  426   2.712   2.556   2.833 -2.6750  0.4649 -0.7934
  143SOL     OW  427   0.822   2.007   0.287  0.1350 -0.0418  0.6117
  143SOL    HW1  428   0.775   2.097   0.305  0.6352  1.2972 -0.9520
  143SOL    HW2  429   0.922   2.026   0.290 -1.6082  0.7007  0.0845
  144SOL     OW  430   1.315   2.532   2.943  0.0987  0.3542  0.2145
  144SOL    HW1  431   1.223   2.504   2.906 -0.7982 -1.1402 -1.0777
  144SOL    HW2  432   1.333   2.490   3.036  1.8301 -0.6980 -4.3982
  145SOL     OW  433   1.669   1.806   2.601  0.7016 -0.9197 -0.0975
  145SOL    HW1  434   1.678   1.890   2.660  2.7272  2.3565  0.1815
  145SOL    HW2  435   1.720   1.827   2.515 -2.2857 -1.3847 -0.5086
  146SOL     OW  436   2.766   2.922   3.001  0.5493  0.2019 -0.2610
  146SOL    HW1  437   2.804   2.916   3.092 -0.8838 -1.8130 -0.6701
  146SOL    HW2  438   2.741   3.019   2.988 -0.0807 -1.4018  3.1038
  147SOL     OW  439   2.952   1.483   1.065  0.2255 -0.1647 -0.7128
  147SOL    HW1  440   3.020   1.539   1.014  1.3593 -0.3610  3.5566
  147SOL    HW2  441   2.865   1.529   1.090 -0.2720 -0.7026 -0.6652
  148SOL     OW  442   1.833   2.759   0.100 -0.3077  0.0009 -0.1881
  148SOL    HW1  443   1.735   2.770   0.118 -4.5014  1.1202 -1.9855
  148SOL    HW2  444   1.856   2.755   0.001  0.5662  0.4904 -3.0405
  149SOL     OW  445   0.501   1.938   2.685  0.1658  0.0234  0.3442
  149SOL    HW1  446   0.591   1.914   2.724 -2.0285 -0.9054 -1.0446
  149SOL    HW2  447   0.464   2.014   2.741 -2.1876  1.5882  1.5687
  150SOL     OW  448   0.347   2.303   0.267 -0.1461 -0.8641 -0.7198
  150SOL    HW1  449   0.271   2.336   0.207 -0.4433 -2.8425 -1.5694
  150SOL    HW2  450   0.435   2.357   0.261  0.6794  2.2479  2.4681
  151SOL     OW  451   0.526   0.993   0.297 -0.0229  0.1611 -0.0860
  151SOL    HW1  452   0.526   0.903   0.256 -1.2868  1.4844  0.5938
  151SOL    HW2  453   0.447   1.020   0.352  2.1744  0.9299  0.2944
  152SOL     OW  454   2.608   1.790   0.587 -0.2180 -0.0854  0.1302
  152SOL    HW1  455   2.698   1.770   0.539  1.2993 -0.6113 -1.8622
  152SOL    HW2  456   2.569   1.886   0.570  0.0288  3.2963 -0.6171
  153SOL     OW  457   1.694   2.111   0.613  0.5327  0.1373  0.4924
  153SOL    HW1  458   1.755   2.125   0.693 -0.6490 -2.5847  0.2336
  153SOL    HW2  459   1.714   2.186   0.542  2.0174  0.7909  2.3422
  154SOL     OW  460   0.871   2.501   0.892 -0.1260 -0.1188  0.5991
  154SOL    HW1  461   0.875   2.478   0.791 -0.4639 -0.2709 -0.4538
  154SOL    HW2  462   0.774   2.523   0.917 -2.7333  2.2198 -3.1924
  155SOL     OW  463   2.728   1.790   0.887  0.5292 -0.2542 -0.2942
  155SOL    HW1  464   2.666   1.752   0.814 -0.3019 -2.1416 -4.2259
  155SOL    HW2  465   2.829   1.781   0.868 -1.0315 -2.2855  0.5523
  156SOL     OW  466   2.578   2.158   0.264  0.1751 -0.5955 -0.3509
  156SOL    HW1  467   2.548   2.101   0.184 -0.8257 -1.2513  0.1711
  156SOL    HW2  468   2.554   2.254   0.242  0.5138 -0.5098 -4.6278
  157SOL     OW  469   0.502   2.035   1.319 -0.5227 -0.0620 -0.7113
  157SOL    HW1  470   0.602   2.059   1.348  1.5685 -0.8769 -0.6352
  157SOL    HW2  471   0.479   1.935   1.341 -0.4431 -0.2342  2.0679
  158SOL     OW  472   1.537   0.745   0.350 -0.0608 -0.2382  0.1888
  158SOL    HW1  473   1.571   0.712   0.444  1.6205  1.3981  4.1414
  158SOL    HW2  474   1.588   0.700   0.279 -0.1358  1.3216  1.1078
  159SOL     OW  475   1.154   0.703   0.364 -0.2829  0.4417 -0.0002
  159SOL    HW1  476   1.219   0.678   0.437 -2.5292  1.7976 -0.5947
  159SOL    HW2  477   1.160   0.648   0.277 -0.5538  0.5855 -2.0449
  160SOL     OW  478   0.738   1.218   0.564 -0.0864  0.0761  0.0151
  160SOL    HW1  479   0.636   1.229   0.587 -0.0432  2.2406 -3.1949
  160SOL    HW2  480   0.800   1.279   0.618 -1.4034 -0.4808  0.6062
  161SOL     OW  481   0.203   2.540   2.695  0.3533 -0.1964 -0.1521
  161SOL    HW1  482   0.145   2.466   2.735 -0.5206  1.4784 -1.6710
  161SOL    HW2  483   0.281   2.495   2.648 -1.3267 -1.5809 -0.2002
  162SOL     OW  484   0.248   2.553   0.979  0.0790 -0.1120 -0.2142
  162SOL    HW1  485   0.236   2.494   1.064 -2.6789  1.1240 -0.6784
  162SOL    HW2  486   0.229   2.489   0.904  1.2424  1.6741  1.8469
  163SOL     OW  487   2.972   0.467   2.787 -0.3636  0.4476  0.2857
  163SOL    HW1  488   2.981   0.542   2.715 -0.8293 -0.2894  1.8045
  163SOL    HW2  489   3.022   0.491   2.875 -0.3784 -1.3426  0.6268
  164SOL     OW  490   0.548   3.049   2.869 -0.2804  0.2946  0.5531
  164SOL    HW1  491   0.502   2.965   2.904 -0.5480  1.3914 -0.7045
  164SOL    HW2  492   0.610   3.027   2.787  1.3248  1.0925 -2.0846
  165SOL     OW  493   2.449   0.524   1.739 -0.5167 -0.1156  0.5097
  165SOL    HW1  494   2.420   0.571   1.824 -0.5922 -1.1555  1.6160
  165SOL    HW2  495   2.519   0.582   1.688  0.2127  1.0566 -2.0332
  166SOL     OW  496   1.879   2.367   1.656 -0.3238  0.1753  0.0305
  166SOL    HW1  497   1.811   2.310   1.701  2.8113  2.3643 -2.6084
  166SOL    HW2  498   1.950   2.389   1.727  0.0312  0.2024  3.8908
  167SOL     OW  499   0.699   1.100   2.432  0.0662 -0.3778  0.0519
  167SOL    HW1  500   0.642   1.087   2.517 -1.3207 -0.1558  0.2780
  167SOL    HW2  501   0.686   1.036   2.356  0.1660  0.1159 -1.8650
  168SOL     OW  502   2.342   0.091   2.154  0.1728  0.1769 -0.0623
  168SOL    HW1  503   2.277   0.167   2.181 -3.7206  0.6237  0.4805
  168SOL    HW2  504   2.416   0.083   2.221 -1.2058  0.9573  0.1610
  169SOL     OW  505   0.237   0.861   0.234  0.1918 -0.2364  0.3912
  169SOL    HW1  506   0.306   0.785   0.229 -0.0590 -1.1936  0.0585
  169SOL    HW2  507   0.191   0.863   0.145 -0.8592 -1.2797  0.1218
  170SOL     OW  508   3.095   1.491   1.819 -0.6099 -0.2436 -0.1336
  170SOL    HW1  509   0.038   1.519   1.738  1.8616 -2.9521 -2.2958
  170SOL    HW2  510   3.033   1.567   1.844 -1.3989  1.4196 -2.0269
  171SOL     OW  511   1.127   2.249   2.269 -0.6153 -0.3062 -0.5123
  171SOL    HW1  512   1.078   2.332   2.309 -3.8298  0.1819  1.1287
  171SOL    HW2  513   1.215   2.277   2.234 -0.8111 -2.6573  1.5253
  172SOL     OW  514   0.955   2.598   2.188  0.1995 -0.3535  0.5114
  172SOL    HW1  515   0.905   2.587   2.098 -1.4666  0.5359 -1.3868
  172SOL    HW2  516   1.048   2.626   2.164 -0.8586  0.0753 -1.2813
  173SOL     OW  517   1.372   2.351   0.795 -0.4828 -0.5065 -0.2707
  173SOL    HW1  518   1.331   2.282   0.857  0.4443  2.8401 -0.0084
  173SOL    HW2  519   1.333   2.445   0.813 -0.5607  0.3861 -0.9393
  174SOL     OW  520   2.298   0.101   0.337  0.0538 -0.2012  0.1923
  174SOL    HW1  521   2.338   0.056   0.419  0.8615  1.0536  2.8329
  174SOL    HW2  522   2.347   0.187   0.310  2.3784 -0.2678 -0.5566
  175SOL     OW  523   0.948   1.716   0.466  0.2519 -0.7304  0.2444
  175SOL    HW1  524   1.022   1.711   0.395  0.8064  2.0893 -1.5627
  175SOL    HW2  525   0.862   1.673   0.431  0.3938 -1.7832  2.5834
  176SOL     OW  526   0.499   1.495   0.646 -0.1609 -0.3403 -0.3275
  176SOL    HW1  527   0.545   1.575   0.692  0.0218  0.2849 -1.4801
  176SOL    HW2  528   0.421   1.539   0.594  0.9014 -0.4552  0.0855
  177SOL     OW  529   1.272   1.178   1.521 -0.5417 -0.3377  0.3108
  177SOL    HW1  530   1.205   1.214   1.593 -0.9493 -0.6728 -0.3270
  177SOL    HW2  531   1.370   1.179   1.551  0.1408 -1.9650  1.5870
  178SOL     OW  532   2.544   1.544   0.495 -0.2428 -0.1419 -0.1230
  178SOL    HW1  533   2.576   1.640   0.515  4.3496  2.5558 -1.7036
  178SOL    HW2  534   2.503   1.547   0.400 -0.3838  1.1114 -0.5354
  179SOL     OW  535   1.050   2.459   2.822  0.1905  0.5853 -0.3309
  179SOL    HW1  536   1.098   2.435   2.738  0.1441  1.6728  2.1725
  179SOL    HW2  537   1.030   2.558   2.822  0.7105 -1.9733 -1.6177
  180SOL     OW  538   1.962   1.705   2.150 -0.5774 -0.7466  0.1399
  180SOL    HW1  539   2.062   1.711   2.179  1.3108 -0.7354  1.1614
  180SOL    HW2  540   1.951   1.619   2.099 -0.8049  0.7011  0.0942
  181SOL     OW  541   0.698   0.916   2.241 -0.0542 -0.4845 -0.2333
  181SOL    HW1  542   0.611   0.913   2.185 -2.7884 -0.3513 -2.4695
  181SOL    HW2  543   0.775   0.881   2.183  0.3640  1.4690 -1.4116
  182SOL     OW  544   2.905   0.933   2.328  0.4787  0.1702 -0.0116
  182SOL    HW1  545   2.842   0.986   2.399  0.6114 -2.7562 -1.9497
  182SOL    HW2  546   2.949   0.856   2.379  0.1363  1.0907  1.3721
  183SOL     OW  547   1.589   0.861   2.187 -0.1995 -0.4475  0.1127
  183SOL    HW1  548   1.566   0.760   2.181  0.8384 -1.4562 -0.7905
  183SOL    HW2  549   1.508   0.919   2.157  0.0582  0.2708  1.5526
  184SOL     OW  550   0.304   0.708   1.820 -0.3372 -0.4324  0.7019
  184SOL    HW1  551   0.272   0.640   1.888 -0.7551 -0.0066  0.0959
  184SOL    HW2  552   0.368   0.777   1.863  1.2305 -0.5914 -0.3215
  185SOL     OW  553   1.959   1.903   0.832  0.0477 -0.8417 -0.4142
  185SOL    HW1  554   2.012   1.893   0.743 -1.3221 -1.6418 -2.8379
  185SOL    HW2  555   2.011   1.865   0.914  2.2021 -0.5633  1.2374
  186SOL     OW  556   0.430   1.867   0.175 -0.5753  0.5037 -0.4673
  186SOL    HW1  557   0.482   1.800   0.119 -0.7375 -0.6774  0.5723
  186SOL    HW2  558   0.333   1.851   0.161  3.5074 -0.7606  0.4445
  187SOL     OW  559   1.925   1.983   0.300  0.0665  0.5949 -0.4224
  187SOL    HW1  560   1.993   2.049   0.337 -0.0214 -0.0541 -1.4378
  187SOL    HW2  561   1.959   1.930   0.222 -1.1549  0.8370 -1.5765
  188SOL     OW  562   0.928   2.309   1.070  0.0386  0.4361  0.8468
  188SOL    HW1  563   0.993   2.243   1.027  2.3656 -1.3232  0.9119
  188SOL    HW2  564   0.920   2.394   1.016  2.4630  2.4496  2.1423
  189SOL     OW  565   1.975   1.320   2.721  0.2910  0.9291 -0.0655
  189SOL    HW1  566   1.954   1.220   2.728 -0.2423  1.7149 -2.3146
  189SOL    HW2  567   1.893   1.368   2.684 -3.4843  0.0758  3.4602
  190SOL     OW  568   0.995   1.984   2.358  0.2575 -0.1667  0.1304
  190SOL    HW1  569   0.979   1.940   2.450 -1.0169  1.8179 -1.0925
  190SOL    HW2  570   1.071   2.048   2.358 -1.1705  0.4445  1.2610
  191SOL     OW  571   2.262   0.606   1.250  0.0405 -0.1036  0.2484
  191SOL    HW1  572   2.223   0.625   1.340  2.7308  1.0157 -5.4685
  191SOL    HW2  573   2.352   0.550   1.269  0.1950  1.7486 -0.9469
  192SOL     OW  574   2.686   0.423   1.832 -0.3307 -0.0456 -0.4124
  192SOL    HW1  575   2.606   0.475   1.802  2.0078 -4.1258 -0.4206
  192SOL    HW2  576   2.721   0.465   1.918 -1.0131  0.3340  1.3653
  193SOL     OW  577   0.919   0.157   0.687  0.0995  0.0108 -0.0312
  193SOL    HW1  578   0.903   0.059   0.662  1.2925  0.9991  0.3687
  193SOL    HW2  579   0.943   0.157   0.786 -1.8036 -0.2394  3.0084
  194SOL     OW  580   1.277   2.299   1.656  0.0341 -0.1353 -0.3886
  194SOL    HW1  581   1.209   2.227   1.627  3.5264 -1.0725 -0.8373
  194SOL    HW2  582   1.239   2.380   1.693  2.3914 -3.0426 -1.7809
  195SOL     OW  583   2.825   0.935   0.962  0.3298  0.5283  0.1025
  195SOL    HW1  584   2.738   0.990   0.969  0.0300 -0.5484 -1.1135
  195SOL    HW2  585   2.808   0.864   0.884 -2.1678 -3.7975 -2.2471
  196SOL     OW  586   0.927   1.784   1.770  0.6569  0.4824  0.3931
  196SOL    HW1  587   0.913   1.812   1.673  0.2606 -1.2675 -1.6213
  196SOL    HW2  588   0.837   1.797   1.820  1.6959  1.0693 -0.6598
  197SOL     OW  589   0.195   0.806   2.402 -0.0584  0.1197  0.3829
  197SOL    HW1  590   0.228   0.864   2.326  0.6066  0.7430  2.1699
  197SOL    HW2  591   0.187   0.706   2.380  0.0952  0.3904  0.1571
  198SOL     OW  592   1.426   0.884   0.147  0.1832 -0.2753  0.2787
  198SOL    HW1  593   1.450   0.840   0.235  1.0207  0.6583 -0.2819
  198SOL    HW2  594   1.332   0.920   0.155 -3.5265  0.6412  1.0011
  199SOL     OW  595   2.673   0.554   2.090  0.6767  0.1611  0.4677
  199SOL    HW1  596   2.685   0.520   2.184  0.7235 -0.2264 -1.1743
  199SOL    HW2  597   2.608   0.631   2.081  2.5175 -0.9429  1.4838
  200SOL     OW  598   2.275   2.522   2.482  0.1444  0.3821 -0.3106
  200SOL    HW1  599   2.300   2.623   2.468 -2.2635  1.8377  0.8446
  200SOL    HW2  600   2.263   2.501   2.584 -3.0309  0.9738  1.0032
  201SOL     OW  601   2.262   0.127   1.375 -0.0917 -0.7622 -0.2681
  201SOL    HW1  602   2.260   0.214   1.432 -1.3177 -2.4091 -0.7196
  201SOL    HW2  603   2.339   0.061   1.392 -1.6532  1.8723  0.4702
  202SOL     OW  604   2.880   2.689   0.211  0.5316  0.3959 -0.3633
  202SOL    HW1  605   2.851   2.786   0.199  1.6009 -1.8000 -0.2441
  202SOL    HW2  606   2.849   2.652   0.303 -1.8075  0.5224 -0.0591
  203SOL     OW  607   1.055   2.067   2.800  0.2976 -0.3113  0.1949
  203SOL    HW1  608   0.969   2.120   2.785 -0.0490  0.2722  1.7790
  203SOL    HW2  609   1.059   1.976   2.748  1.3996 -0.4037  0.8795
  204SOL     OW  610   0.671   1.715   2.522  0.0289  0.2228 -0.2921
  204SOL    HW1  611   0.685   1.810   2.488 -1.7870  1.8110 -0.3801
  204SOL    HW2  612   0.609   1.717   2.602 -0.2774  1.1626 -0.9134
  205SOL     OW  613   0.871   1.034   1.314  0.4321 -0.2642 -0.1555
  205SOL    HW1  614   0.839   0.957   1.251 -1.6081 -1.7672 -2.1690
  205SOL    HW2  615   0.966   1.017   1.341 -2.2521 -2.6100  0.2163
  206SOL     OW  616   0.143   0.518   2.604  0.0069 -0.2926  0.0461
  206SOL    HW1  617   0.074   0.594   2.623 -2.4534  2.6202  1.0770
  206SOL    HW2  618   0.175   0.520   2.505  0.6975  0.6145 -0.8594
  207SOL     OW  619   1.858   2.349   2.006  0.1914  0.2128  0.4966
  207SOL    HW1  620   1.952   2.378   1.980  0.4108  0.2203 -0.1729
  207SOL    HW2  621   1.816   2.290   1.927  0.3123 -0.9036 -0.8903
  208SOL     OW  622   1.045   2.639   1.553  0.0761  0.0953 -0.9005
  208SOL    HW1  623   0.973   2.647   1.476  0.3987 -3.8356 -1.1009
  208SOL    HW2  624   1.118   2.703   1.539 -0.4510 -2.0992 -0.3631
  209SOL     OW  625   1.257   1.475   2.980 -0.4151 -0.1645 -0.5270
  209SOL    HW1  626   1.270   1.396   3.043 -0.9920 -0.2696  0.4992
  209SOL    HW2  627   1.220   1.452   2.891  1.0416  2.3104  1.6272
  210SOL     OW  628   2.234   0.628   0.836 -0.2576  0.0284 -0.0156
  210SOL    HW1  629   2.327   0.649   0.823 -3.7362 -2.5054  0.8784
  210SOL    HW2  630   2.178   0.672   0.760 -0.5153  2.3943 -2.0632
  211SOL     OW  631   1.376   2.516   0.356 -0.1453  0.5616 -0.7554
  211SOL    HW1  632   1.342   2.467   0.441  2.1835  0.2543  0.9779
  211SOL    HW2  633   1.348   2.618   0.355 -1.9934  5.7106 -1.3733
  212SOL     OW  634   1.863   2.170   0.806  0.6899  0.5362 -0.2941
  212SOL    HW1  635   1.947   2.229   0.801  2.1757 -2.0397 -0.1097
  212SOL    HW2  636   1.884   2.072   0.829  0.2616 -0.9552  1.7889
  213SOL     OW  637   1.653   0.674   2.761  0.1004  0.1696  0.2587
  213SOL    HW1  638   1.576   0.646   2.827 -2.9452  0.4337 -2.8299
  213SOL    HW2  639   1.716   0.741   2.801  0.0047 -0.3405  1.9568
  214SOL     OW  640   0.692   1.806   1.908 -0.4046 -0.8783  0.5616
  214SOL    HW1  641   0.636   1.754   1.975  1.5871 -0.0051  1.4575
  214SOL    HW2  642   0.714   1.896   1.945  0.8428 -1.6625 -1.0186
  215SOL     OW  643   0.226   1.384   0.358  0.5058 -0.1370  0.1286
  215SOL    HW1  644   0.230   1.438   0.270 -0.3372 -2.7407 -1.4111
  215SOL    HW2  645   0.232   1.444   0.439  0.5323  0.8131  0.2286
  216SOL     OW  646   0.173   2.916   2.495 -0.0517 -0.3086 -0.1404
  216SOL    HW1  647   0.266   2.881   2.492 -1.8388  1.6609  0.6266
  216SOL    HW2  648   0.126   2.889   2.578  0.1530  2.2461 -2.2312
  217SOL     OW  649   2.592   0.998   1.292 -0.1522  0.1069 -0.1353
  217SOL    HW1  650   2.590   0.894   1.301 -0.2684  0.6335 -1.1716
  217SOL    HW2  651   2.656   1.038   1.360  0.7406 -1.8548  1.5175
  218SOL     OW  652   1.435   1.635   2.189  0.1144  0.7202  0.5766
  218SOL    HW1  653   1.468   1.624   2.096  1.0029  1.7425  1.8224
  218SOL    HW2  654   1.355   1.575   2.217 -0.7701 -0.9443  0.6021
  219SOL     OW  655   2.229   1.474   0.290  0.6808 -0.3030  0.0566
  219SOL    HW1  656   2.314   1.468   0.236 -0.9088  1.0364 -2.7295
  219SOL    HW2  657   2.183   1.384   0.295 -1.1648  1.4775  0.6123
  220SOL     OW  658   2.148   0.976   0.276 -0.2963 -0.2785  0.1016
  220SOL    HW1  659   2.207   0.981   0.193 -0.9864  0.7961 -0.2291
  220SOL    HW2  660   2.046   0.980   0.258  1.3728  1.1247  1.2990
  221SOL     OW  661   0.125   0.283   0.120 -0.2010 -0.0409 -0.6656
  221SOL    HW1  662   0.200   0.272   0.054 -1.1106 -1.0115  0.8114
  221SOL    HW2  663   0.040   0.276   0.064  1.8660  1.0386 -0.9879
  222SOL     OW  664   1.260   1.580   0.561  0.0656 -0.0387 -0.2603
  222SOL    HW1  665   1.332   1.539   0.617  0.6882  0.7495 -1.3198
  222SOL    HW2  666   1.166   1.590   0.610 -1.4039  0.4066  2.3922
  223SOL     OW  667   0.774   0.227   0.076  0.5839  0.0585  0.2209
  223SOL    HW1  668   0.834   0.151   0.114 -0.7757 -1.8313 -0.6546
  223SOL    HW2  669   0.758   0.225   3.079 -3.6620  0.5546 -3.7410
  224SOL     OW  670   1.834   0.295   1.280  0.6186  0.6216  0.2652
  224SOL    HW1  671   1.824   0.263   1.375  1.5177  0.1430 -2.9941
  224SOL    HW2  672   1.813   0.213   1.222 -2.0294 -2.3481 -1.3323
  225SOL     OW  673   0.578   2.579   1.313  0.3849 -0.0405  0.4888
  225SOL    HW1  674   0.593   2.546   1.219 -0.4577  1.0354  1.3106
  225SOL    HW2  675   0.482   2.571   1.343 -0.0064  0.9788  1.4582
  226SOL     OW  676   0.973   1.527   3.091  0.1690  0.1061  0.2247
  226SOL    HW1  677   0.948   1.494   0.078  0.1797  0.2626  0.1123
  226SOL    HW2  678   1.070   1.507   3.071  0.0531  3.1155 -0.8839
  227SOL     OW  679   0.826   1.594   0.850  0.3137  0.6071 -0.2210
  227SOL    HW1  680   0.741   1.622   0.808  1.3760  3.0453  0.5276
  227SOL    HW2  681   0.805   1.544   0.934 -2.8592 -2.8541 -1.2911
  228SOL     OW  682   0.265   1.575   0.538 -0.1310  0.0834  0.6366
  228SOL    HW1  683   0.221   1.659   0.503  0.6439  2.0857  1.9874
  228SOL    HW2  684   0.207   1.537   0.611 -0.5801  0.1622 -2.0565
  229SOL     OW  685   2.271   0.394   2.598  0.1179  0.9434  0.0756
  229SOL    HW1  686   2.179   0.353   2.582  1.5880 -1.8011  0.6945
  229SOL    HW2  687   2.288   0.382   2.696 -0.2392 -2.3905  0.6467
  230SOL     OW  688   1.877   1.306   0.386 -0.8334 -0.5174 -0.0602
  230SOL    HW1  689   1.846   1.363   0.467  1.3029 -1.5805 -0.8084
  230SOL    HW2  690   1.809   1.240   0.352  2.2861  2.3520  2.2014
  231SOL     OW  691   1.269   1.543   2.532 -0.2388  0.3898  0.5029
  231SOL    HW1  692   1.234   1.635   2.510 -0.2388 -2.2577  0.3892
  231SOL    HW2  693   1.355   1.536   2.474  2.0798 -0.0756 -2.5453
  232SOL     OW  694   2.375   2.137   0.673  0.4945 -0.0997 -0.6589
  232SOL    HW1  695   2.402   2.084   0.757 -1.2821  0.5042 -1.1373
  232SOL    HW2  696   2.410   2.089   0.595  3.0833  2.8839  1.8033
  233SOL     OW  697   0.366   2.399   0.539  0.2636 -0.0616 -0.5184
  233SOL    HW1  698   0.459   2.355   0.551 -1.5175 -1.9902  0.8515
  233SOL    HW2  699   0.314   2.349   0.468  1.5923 -0.0133 -1.7297
  234SOL     OW  700   0.590   0.635   2.701  0.3644 -0.0688 -0.5805
  234SOL    HW1  701   0.533   0.686   2.635 -1.6332  0.0086 -2.9482
  234SOL    HW2  702   0.628   0.697   2.772 -0.5724 -0.3909 -1.1190
  235SOL     OW  703   2.684   0.405   2.338  0.2903  0.4099  0.3282
  235SOL    HW1  704   2.606   0.359   2.387  0.6604  1.7320 -1.6499
  235SOL    HW2  705   2.775   0.358   2.349 -2.6166  2.7352 -1.6937
  236SOL     OW  706   1.777   2.736   1.228 -0.4659 -0.2394 -0.6380
  236SOL    HW1  707   1.878   2.726   1.251 -1.1771  2.5444 -0.4342
  236SOL    HW2  708   1.738   2.647   1.206  1.0641  3.3394 -3.2708
  237SOL     OW  709   0.851   1.811   2.189 -0.2660 -0.1568  0.6353
  237SOL    HW1  710   0.894   1.886   2.247 -0.8253 -0.6502  0.4087
  237SOL    HW2  711   0.851   1.725   2.242 -2.5106 -0.2591 -0.2756
  238SOL     OW  712   1.135   0.475   2.007 -0.6671  0.0035  0.0691
  238SOL    HW1  713   1.087   0.544   2.062  1.5058  2.1042  0.0738
  238SOL    HW2  714   1.187   0.416   2.072 -0.3358  0.1039 -1.2535
  239SOL     OW  715   0.314   2.297   1.919  0.1721 -0.2619 -0.4571
  239SOL    HW1  716   0.396   2.311   1.976 -3.2672  1.5365  1.2773
  239SOL    HW2  717   0.325   2.331   1.823  0.8163  1.3491 -0.4951
  240SOL     OW  718   2.478   2.796   0.345 -0.0709  0.1888  0.2815
  240SOL    HW1  719   2.386   2.795   0.386  1.9426  1.8829 -0.9647
  240SOL    HW2  720   2.477   2.855   0.264  0.1957  2.0015  1.0593
  241SOL     OW  721   2.648   1.131   1.047  0.6451  0.4385  0.1598
  241SOL    HW1  722   2.631   1.090   1.136 -0.0960  0.8307  1.6539
  241SOL    HW2  723   2.570   1.115   0.980 -1.2861  0.4189 -3.5116
  242SOL     OW  724   2.098   2.494   2.085  0.4879  0.2383 -0.1075
  242SOL    HW1  725   2.126   2.457   2.178  2.0560  0.6148  0.9624
  242SOL    HW2  726   2.140   2.584   2.068 -1.7985  0.2196 -0.8735
  243SOL     OW  727   0.835   2.693   1.720  0.6425  0.4387  0.6505
  243SOL    HW1  728   0.900   2.676   1.646 -0.7211  0.8153  2.2982
  243SOL    HW2  729   0.847   2.785   1.757 -1.0189 -1.6822  0.5648
  244SOL     OW  730   2.016   0.538   2.849 -0.0852 -0.0645 -0.1009
  244SOL    HW1  731   1.968   0.518   2.766 -0.5009  4.2410  2.9354
  244SOL    HW2  732   2.066   0.617   2.828 -0.1490 -3.0776  0.4467
  245SOL     OW  733   1.549   0.401   1.121  0.4033 -0.2904  0.4035
  245SOL    HW1  734   1.471   0.466   1.113  1.4665 -0.2352 -1.0096
  245SOL    HW2  735   1.522   0.326   1.184 -3.2437  1.9034  0.9282
  246SOL     OW  736   1.773   2.473   2.994 -0.8886 -0.3733  0.1662
  246SOL    HW1  737   1.876   2.494   2.978  0.1038  0.3722 -1.2398
  246SOL    HW2  738   1.714   2.491   2.914 -1.5322 -0.6515 -0.5158
  247SOL     OW  739   0.957   0.758   2.488  0.4619 -0.1770  0.0824
  247SOL    HW1  740   0.896   0.682   2.519 -1.1650 -0.5245 -0.8319
  247SOL    HW2  741   0.953   0.831   2.560 -2.5014 -3.1291 -1.2488
  248SOL     OW  742   0.343   1.964   1.874 -0.6956 -0.1106 -0.0816
  248SOL    HW1  743   0.376   1.967   1.971 -0.3503  0.0699  0.2034
  248SOL    HW2  744   0.314   2.052   1.831 -1.3600 -1.5633 -0.2596
  249SOL     OW  745   2.563   0.388   0.432 -0.1128 -0.2338 -0.1869
  249SOL    HW1  746   2.493   0.373   0.359 -1.7001 -1.6460  1.7425
  249SOL    HW2  747   2.544   0.320   0.509  2.2298 -1.3087  1.8405
  250SOL     OW  748   2.719   0.318   2.861 -0.2448 -0.3942 -0.1633
  250SOL    HW1  749   2.716   0.370   2.947  0.2250 -2.1614  0.9933
  250SOL    HW2  750   2.804   0.346   2.809  0.2901 -2.3901 -0.4061
  251SOL     OW  751   1.370   0.833   2.960  0.0773 -0.0659  0.1456
  251SOL    HW1  752   1.391   0.746   2.915 -1.7969  0.2515  1.3770
  251SOL    HW2  753   1.410   0.839   3.053  2.5971 -0.9356  0.6055
  252SOL     OW  754   1.395   1.945   1.945 -0.4876 -0.8640  0.0556
  252SOL    HW1  755   1.325   1.933   1.874  0.1368 -1.5105 -1.8411
  252SOL    HW2  756   1.437   2.038   1.934  0.6875  0.3663 -1.1368
  253SOL     OW  757   2.256   2.478   0.980  0.3205  0.1468 -0.4955
  253SOL    HW1  758   2.329   2.513   0.921 -0.7382  1.7926  2.1699
  253SOL    HW2  759   2.301   2.442   1.069 -1.1824 -1.5489  3.0332
  254SOL     OW  760   2.344   1.148   0.591  0.1266 -0.7714 -0.0498
  254SOL    HW1  761   2.278   1.157   0.514  1.7541  0.0099  1.0850
  254SOL    HW2  762   2.324   1.066   0.647  1.0635 -0.7589 -0.3660
  255SOL     OW  763   1.485   0.201   1.292 -0.1562  0.0723  0.7569
  255SOL    HW1  764   1.469   0.143   1.212  0.4234 -2.5234  0.0679
  255SOL    HW2  765   1.523   0.148   1.369  3.1702  0.7187 -1.8406
  256SOL     OW  766   1.483   2.404   1.495  0.0114  0.6905 -0.0445
  256SOL    HW1  767   1.548   2.342   1.443 -1.8490  1.2794 -0.9050
  256SOL    HW2  768   1.408   2.345   1.538 -1.1135  0.6587  1.2257
  257SOL     OW  769   0.655   2.951   2.633  0.1753  0.2656 -0.3451
  257SOL    HW1  770   0.726   3.006   2.587  0.4153  0.1755  0.3449
  257SOL    HW2  771   0.706   2.877   2.684  0.3300 -0.5401  0.5805
  258SOL     OW  772   1.028   2.400   0.441  0.0147 -0.3563 -0.1957
  258SOL    HW1  773   1.028   2.385   0.341  0.6344 -0.6533 -0.3529
  258SOL    HW2  774   1.121   2.373   0.478  1.3349 -1.4071  0.9326
  259SOL     OW  775   1.481   0.291   2.832 -0.6839  0.3566 -0.7338
  259SOL    HW1  776   1.560   0.237   2.867 -0.1028  1.3666 -0.4604
  259SOL    HW2  777   1.489   0.299   2.731 -0.0620 -1.4746  2.9156
  260SOL     OW  778   2.445   0.424   1.322 -0.6269  0.9900 -0.2218
  260SOL    HW1  779   2.545   0.401   1.326  2.6302  0.1673 -0.5620
  260SOL    HW2  780   2.398   0.415   1.409  2.8616  0.2975 -0.3798
  261SOL     OW  781   0.808   0.536   2.590 -0.4129 -0.6391  0.1251
  261SOL    HW1  782   0.719   0.568   2.634  1.7524  0.9052  1.6749
  261SOL    HW2  783   0.792   0.499   2.499 -1.6006 -1.9316  0.9851
  262SOL     OW  784   0.938   2.420   2.402  0.7862  0.2376 -0.0735
  262SOL    HW1  785   0.875   2.437   2.479  0.0030 -1.4878  2.8213
  262SOL    HW2  786   0.945   2.508   2.347  0.4684  0.0647 -0.9590
  263SOL     OW  787   0.270   1.837   2.899  0.3442  0.0737 -0.6901
  263SOL    HW1  788   0.194   1.776   2.870 -2.4100 -0.6520 -1.4333
  263SOL    HW2  789   0.239   1.933   2.921 -1.4982 -1.3019  1.4991
  264SOL     OW  790   1.034   1.612   0.701 -0.1718 -0.0663 -0.0235
  264SOL    HW1  791   0.954   1.606   0.768 -2.5481  0.9970  3.1704
  264SOL    HW2  792   1.004   1.657   0.613 -0.6202 -2.0822  1.1221
  265SOL     OW  793   1.270   2.343   0.556  0.0759 -0.3885  0.2321
  265SOL    HW1  794   1.317   2.267   0.512 -0.9463  2.1708  0.6292
  265SOL    HW2  795   1.316   2.358   0.641  2.1422 -0.2043 -1.0590
  266SOL     OW  796   1.843   0.789   1.030  0.2347  0.0205  0.1199
  266SOL    HW1  797   1.829   0.697   1.074  2.3408  0.3011  0.0731
  266SOL    HW2  798   1.941   0.822   1.021  0.4082 -0.6409 -1.4341
  267SOL     OW  799   2.621   1.336   2.692  0.0641  0.2016 -0.4326
  267SOL    HW1  800   2.675   1.337   2.605 -0.6990  0.3815 -1.9115
  267SOL    HW2  801   2.562   1.254   2.704  2.6149 -0.3655  1.5410
  268SOL     OW  802   1.458   3.029   0.006  0.0073  0.0466 -0.1035
  268SOL    HW1  803   1.463   2.956   0.077 -1.4309  0.9713  2.1387
  268SOL    HW2  804   1.444   0.011   0.055  3.6499 -0.1821  2.7969
  269SOL     OW  805   2.608   0.637   2.523 -0.2718 -0.3694  0.5238
  269SOL    HW1  806   2.680   0.644   2.593 -0.9805 -0.4752  0.3940
  269SOL    HW2  807   2.630   0.569   2.451  1.5136 -1.2324 -0.9237
  270SOL     OW  808   3.006   1.469   0.142 -0.4812  0.3100  0.5699
  270SOL    HW1  809   3.036   1.381   0.189  1.8471 -1.5596 -0.7274
  270SOL    HW2  810   3.046   1.556   0.180  1.1862 -0.0718  0.2949
  271SOL     OW  811   2.485   1.115   2.765  0.0712 -0.7443 -0.3632
  271SOL    HW1  812   2.393   1.109   2.802  1.7099  0.9736  0.2624
  271SOL    HW2  813   2.547   1.070   2.831 -2.8046  0.0894  1.4005
  272SOL     OW  814   3.003   2.459   2.446 -0.7976 -0.2057 -0.4428
  272SOL    HW1  815   3.099   2.419   2.440  1.0605 -0.6735 -2.4148
  272SOL    HW2  816   2.938   2.389   2.483  1.0996 -1.6946  2.5955
  273SOL     OW  817   0.409   2.671   0.559  0.2427  0.4188  0.3757
  273SOL    HW1  818   0.477   2.698   0.631 -0.0289  3.8084 -0.4612
  273SOL    HW2  819   0.394   2.569   0.561 -1.5271  0.7139 -0.1265
  274SOL     OW  820   0.691   2.080   0.717  0.3962 -0.1723  1.1554
  274SOL    HW1  821   0.777   2.034   0.682 -1.6967  0.2017  0.8995
  274SOL    HW2  822   0.701   2.113   0.815  1.4843 -1.5468  0.8226
  275SOL     OW  823   2.552   1.121   0.418 -0.7410 -0.2225 -0.0667
  275SOL    HW1  824   2.469   1.134   0.475  0.2779  0.7579 -4.7986
  275SOL    HW2  825   2.525   1.145   0.322  0.7342 -1.6937  0.0790
  276SOL     OW  826   2.548   1.648   1.385  0.0540 -0.7380 -0.5082
  276SOL    HW1  827   2.583   1.586   1.457  0.2426 -1.8949 -0.7550
  276SOL    HW2  828   2.509   1.606   1.300 -1.3547  0.8100  0.5271
  277SOL     OW  829   2.745   3.073   0.736 -0.2318 -0.2791 -0.1346
  277SOL    HW1  830   2.715   3.037   0.828 -0.6078 -2.9721  1.5472
  277SOL    HW2  831   2.790   3.001   0.680 -0.8935  0.9114  0.2250
  278SOL     OW  832   1.513   0.330   2.161 -0.5390 -0.2477  0.4188
  278SOL    HW1  833   1.413   0.335   2.180  0.8168 -3.2968 -0.9612
  278SOL    HW2  834   1.559   0.274   2.231  0.9343  0.2680  1.7853
  279SOL     OW  835   1.602   2.726   0.877 -0.0575 -0.0339  0.2912
  279SOL    HW1  836   1.683   2.777   0.911 -0.4280 -1.3255  0.2815
  279SOL    HW2  837   1.549   2.796   0.826 -0.1021  1.3357  1.7835
  280SOL     OW  838   0.805   0.912   0.773  0.0113 -0.1787 -0.0091
  280SOL    HW1  839   0.801   0.998   0.820  2.5023 -0.1259  0.5151
  280SOL    HW2  840   0.820   0.925   0.672 -0.2586  0.4684 -0.1274
  281SOL     OW  841   2.459   1.452   2.875  0.3817  0.0522 -0.5974
  281SOL    HW1  842   2.539   1.427   2.821  1.6436  0.6108  5.5014
  281SOL    HW2  843   2.393   1.500   2.814  1.0476 -1.1075  3.0393
  282SOL     OW  844   0.010   1.248   0.287  0.0713 -0.5321  0.1508
  282SOL    HW1  845   0.011   1.157   0.335  3.1193  3.0280  1.0301
  282SOL    HW2  846   0.095   1.294   0.322  0.8117  1.6087  1.4512
  283SOL     OW  847   1.928   2.735   2.695 -0.5590 -0.2830  0.2565
  283SOL    HW1  848   2.012   2.765   2.645 -3.5408 -1.6957  0.9814
  283SOL    HW2  849   1.852   2.720   2.632  1.8237 -0.8681 -0.6320
  284SOL     OW  850   0.970   0.046   0.104 -0.2731  0.6918 -0.5427
  284SOL    HW1  851   0.958   3.050   0.117  0.6967  1.3725  2.5510
  284SOL    HW2  852   1.022   0.081   0.190  0.0874 -0.0507  3.6768
  285SOL     OW  853   2.270   1.574   2.734  0.1725 -0.0403 -0.2301
  285SOL    HW1  854   2.248   1.517   2.656  0.0834 -1.6410  0.1823
  285SOL    HW2  855   2.275   1.670   2.706 -0.9081 -1.5486  0.1626
  286SOL     OW  856   1.264   2.084   0.878 -0.2832  0.0203 -0.3119
  286SOL    HW1  857   1.228   2.068   0.782  0.6010 -0.8834 -3.2622
  286SOL    HW2  858   1.360   2.065   0.890  2.5045  1.1150  1.4788
  287SOL     OW  859   1.670   0.210   0.975  0.1383  0.1593  0.5403
  287SOL    HW1  860   1.639   0.296   1.019  0.1696 -3.1494  0.0351
  287SOL    HW2  861   1.748   0.176   1.024 -1.7243  1.6491  0.8955
  288SOL     OW  862   0.949   2.907   2.319  0.1583 -0.3476 -0.1472
  288SOL    HW1  863   1.016   2.830   2.334 -0.3832 -3.5671 -0.3222
  288SOL    HW2  864   0.866   2.874   2.274 -1.8101  1.9162  1.2987
  289SOL     OW  865   0.093   1.448   0.713  0.1544  0.1224  0.1235
  289SOL    HW1  866   0.092   1.473   0.809 -2.6928 -1.3535 -1.6599
  289SOL    HW2  867   0.082   1.348   0.694 -0.5881 -2.7977 -2.1150
  290SOL     OW  868   1.049   2.054   1.027  0.0464  0.3679  0.8360
  290SOL    HW1  869   1.132   2.057   0.965 -0.0985  1.5005 -0.7587
  290SOL    HW2  870   0.983   1.976   0.997 -0.1090  0.0657  1.1958
  291SOL     OW  871   1.689   2.606   0.446 -0.6158  0.7386  0.0421
  291SOL    HW1  872   1.710   2.561   0.532  0.7088 -0.0154 -1.9803
  291SOL    HW2  873   1.603   2.562   0.402 -1.1889 -0.6000 -1.2462
  292SOL     OW  874   0.606   0.222   2.333 -0.2771  0.5158  0.7803
  292SOL    HW1  875   0.659   0.306   2.336  0.7270 -1.0203 -0.3698
  292SOL    HW2  876   0.516   0.236   2.377  1.0268 -0.9670  0.8273
  293SOL     OW  877   2.406   1.787   0.762  0.7535  0.0207  0.1551
  293SOL    HW1  878   2.470   1.761   0.687 -0.6995 -0.1474 -2.9829
  293SOL    HW2  879   2.447   1.867   0.809  0.8517 -1.2391 -0.6381
  294SOL     OW  880   0.851   0.071   2.158 -0.1707 -0.3112  0.2100
  294SOL    HW1  881   0.924   0.015   2.200 -2.3185 -0.0064 -0.1241
  294SOL    HW2  882   0.763   0.038   2.181  3.5644  2.7715  1.6575
  295SOL     OW  883   1.115   1.592   1.006 -0.1368 -0.5241  0.4752
  295SOL    HW1  884   1.101   1.495   1.008  0.4216 -0.7392 -1.4571
  295SOL    HW2  885   1.154   1.621   0.920  1.1014 -1.8469  0.9347
  296SOL     OW  886   2.155   1.850   0.638  0.0389 -0.1446  0.0124
  296SOL    HW1  887   2.153   1.779   0.565  0.9725 -0.6069  2.2011
  296SOL    HW2  888   2.238   1.840   0.694  2.2822 -0.1506 -0.8747
  297SOL     OW  889   2.429   0.014   3.037  0.5097 -0.5414  0.4660
  297SOL    HW1  890   2.361   3.052   2.995 -0.4485 -4.3481  0.5152
  297SOL    HW2  891   2.441   0.001   0.029  0.5006  2.8283 -2.8421
  298SOL     OW  892   1.216   0.408   2.458  0.2075 -0.2983  0.0019
  298SOL    HW1  893   1.213   0.495   2.508  1.5218  0.3518  2.7997
  298SOL    HW2  894   1.302   0.359   2.479 -0.7856 -1.6077  2.1072
  299SOL     OW  895   1.147   2.733   1.938 -0.5157  0.1660  0.4373
  299SOL    HW1  896   1.196   2.817   1.896  0.7922  1.9920 -2.0806
  299SOL    HW2  897   1.200   2.707   2.022 -1.0463 -1.9567 -0.2814
  300SOL     OW  898   2.744   3.010   1.928 -0.2371  0.0488 -0.1141
  300SOL    HW1  899   2.738   2.982   2.025  2.7088  1.1827  3.5494
  300SOL    HW2  900   2.820   3.080   1.921  1.6254  1.3223 -2.6953
  301SOL     OW  901   2.125   0.439   1.844 -0.3237  0.4720 -0.4155
  301SOL    HW1  902   2.203   0.392   1.883 -0.0613  1.4748  1.2127
  301SOL    HW2  903   2.100   0.395   1.755 -2.8005 -0.4967  1.3345
  302SOL     OW  904   0.154   2.359   0.099  0.5050 -0.5191 -0.5544
  302SOL    HW1  905   0.121   2.268   0.060 -0.2476 -2.0597 -0.6773
  302SOL    HW2  906   0.090   2.440   0.086 -2.0943 -1.8566  0.1303
  303SOL     OW  907   1.741   2.288   1.435  0.1195  0.3952 -0.1779
  303SOL    HW1  908   1.733   2.191   1.459  0.1858  0.1353 -1.0458
  303SOL    HW2  909   1.811   2.337   1.493  2.4128  1.5337 -0.0414
  304SOL     OW  910   2.951   0.870   1.428 -0.1742  0.0760  0.0389
  304SOL    HW1  911   2.922   0.817   1.343  0.6612 -0.3401 -0.3028
  304SOL    HW2  912   2.906   0.962   1.433  0.5334 -0.8401  1.1213
  305SOL     OW  913   0.461   0.979   0.847  0.0006 -0.5308 -0.4894
  305SOL    HW1  914   0.479   0.901   0.907 -3.1247  0.9642 -1.0251
  305SOL    HW2  915   0.532   1.001   0.782 -6.6277 -0.7714  2.0837
  306SOL     OW  916   0.232   1.209   2.749  0.0313 -0.7834 -0.0974
  306SOL    HW1  917   0.277   1.119   2.761 -3.1548 -1.7162  2.3726
  306SOL    HW2  918   0.267   1.249   2.662  2.3293 -1.6301  2.2241
  307SOL     OW  919   1.111   0.340   1.595  0.1030 -0.2964  0.7121
  307SOL    HW1  920   1.194   0.356   1.649  0.4022  0.6888 -1.4699
  307SOL    HW2  921   1.096   0.240   1.582  0.2165 -1.6681 -2.3120
  308SOL     OW  922   0.359   0.969   1.224  0.2854  0.0836  0.0854
  308SOL    HW1  923   0.265   0.950   1.187 -2.4585 -2.2048 -0.9047
  308SOL    HW2  924   0.380   0.905   1.302  0.5440 -1.2083 -1.2560
  309SOL     OW  925   2.410   1.020   0.931 -0.0300 -0.4945  0.3864
  309SOL    HW1  926   2.387   0.966   0.845  4.2874 -0.8922  2.2716
  309SOL    HW2  927   2.351   1.099   0.938  0.8931 -1.6861 -1.5817
  310SOL     OW  928   0.801   1.652   2.909 -0.0513 -0.4117 -0.3763
  310SOL    HW1  929   0.855   1.608   2.983  2.1769  0.5549  1.2278
  310SOL    HW2  930   0.698   1.652   2.926  0.9072 -1.0117 -3.4564
  311SOL     OW  931   2.353   2.779   2.438  0.1194  0.1800 -0.5130
  311SOL    HW1  932   2.420   2.773   2.362 -3.5760 -0.9109 -1.7991
  311SOL    HW2  933   2.383   2.850   2.507 -0.2387  1.5795 -0.0079
  312SOL     OW  934   1.984   2.117   3.040  0.2912  0.0973 -0.4362
  312SOL    HW1  935   2.010   2.027   3.082  1.4490 -1.7047 -1.0815
  312SOL    HW2  936   2.050   2.187   3.067  4.2223  1.3566  0.3451
  313SOL     OW  937   0.684   3.051   0.179 -0.3701  0.0373  0.1907
  313SOL    HW1  938   0.651   0.039   0.152  0.5742  2.7077  2.2030
  313SOL    HW2  939   0.676   3.048   0.278  2.4044  2.7982 -1.0200
  314SOL     OW  940   2.213   1.373   2.928  0.0291 -0.4791  0.6105
  314SOL    HW1  941   2.171   1.411   2.844  1.1428  0.4472  1.0171
  314SOL    HW2  942   2.311   1.401   2.933 -1.5954 -0.4174  1.4774
  315SOL     OW  943   1.480   0.339   2.549  0.3468  0.0919 -0.3441
  315SOL    HW1  944   1.557   0.286   2.507 -1.9119 -0.3503  0.9129
  315SOL    HW2  945   1.490   0.440   2.551 -0.7421 -2.7602  0.9495
  316SOL     OW  946   0.045   1.141   0.749 -0.1244 -0.1429  0.6019
  316SOL    HW1  947   0.001   1.133   0.836  1.0527 -2.2301 -0.6341
  316SOL    HW2  948   3.086   1.173   0.679  1.5292  0.6355  0.2029
  317SOL     OW  949   0.644   2.660   2.913  0.2295 -0.0845  0.1558
  317SOL    HW1  950   0.568   2.684   2.853  0.1500 -0.3198  1.3648
  317SOL    HW2  951   0.679   2.733   2.973  1.1869  0.0882 -0.8591
  318SOL     OW  952   2.463   2.603   0.810  0.2044 -0.0067  0.4492
  318SOL    HW1  953   2.382   2.632   0.754  1.7057 -0.3250  0.2135
  318SOL    HW2  954   2.514   2.686   0.823 -3.2256 -3.1417 -1.5138
  319SOL     OW  955   1.110   1.444   2.748 -0.0211  0.4095 -0.0869
  319SOL    HW1  956   1.012   1.449   2.728 -0.6536  1.4968 -0.0780
  319SOL    HW2  957   1.159   1.484   2.671 -0.0294  1.3912  1.7310
  320SOL     OW  958   0.534   1.931   0.959 -0.0981  0.0474 -0.1203
  320SOL    HW1  959   0.436   1.921   0.991 -1.7644  0.2727 -1.0549
  320SOL    HW2  960   0.574   2.025   0.959  1.0239  1.9394 -3.6804
  321SOL     OW  961   1.521   2.872   1.922 -0.1508  0.3480 -0.2430
  321SOL    HW1  962   1.432   2.904   1.893  1.9969 -1.7303  2.1674
  321SOL    HW2  963   1.549   2.909   2.012  0.1035 -0.4965  0.6452
  322SOL     OW  964   2.421   2.116   2.366  0.4204  0.1485  0.0241
  322SOL    HW1  965   2.332   2.128   2.416 -1.0014  0.2414  0.4258
  322SOL    HW2  966   2.403   2.122   2.265  0.2134  1.9359 -2.6915
  323SOL     OW  967   2.817   0.235   0.775  1.0652 -0.5030  0.0749
  323SOL    HW1  968   2.798   0.138   0.756  0.8706  1.3773 -1.5460
  323SOL    HW2  969   2.734   0.294   0.768 -1.2666 -0.3863  0.9822
  324SOL     OW  970   2.955   2.746   2.599  0.0501 -0.6994 -0.1048
  324SOL    HW1  971   3.033   2.779   2.648 -0.1437  1.5204 -0.3069
  324SOL    HW2  972   2.973   2.657   2.558 -2.2071 -0.9704  2.0545
  325SOL     OW  973   1.227   0.673   2.499 -0.0962  0.3670 -0.0756
  325SOL    HW1  974   1.266   0.699   2.412  0.0993  2.6379  1.9766
  325SOL    HW2  975   1.129   0.702   2.513 -3.4230  2.0585 -0.7050
  326SOL     OW  976   2.292   2.650   1.623  0.0296  0.3796  0.2383
  326SOL    HW1  977   2.368   2.632   1.688 -2.0210  1.2610  1.4198
  326SOL    HW2  978   2.234   2.729   1.655 -1.9782 -2.4028 -0.6217
  327SOL     OW  979   2.426   3.018   0.174  0.3563  0.1864 -0.1881
  327SOL    HW1  980   2.376   3.065   0.250 -2.5979  1.8029  1.1607
  327SOL    HW2  981   2.353   2.956   0.135  0.9189  0.2426  1.7373
  328SOL     OW  982   0.288   1.221   1.550  0.1254  0.4914  0.1283
  328SOL    HW1  983   0.358   1.153   1.574 -2.7850 -1.1141 -2.6894
  328SOL    HW2  984   0.325   1.312   1.551 -3.6578  0.0658  1.9369
  329SOL     OW  985   2.150   0.665   1.490  0.3917 -0.3872  0.2617
  329SOL    HW1  986   2.198   0.676   1.578 -2.5052 -1.2268 -3.4975
  329SOL    HW2  987   2.062   0.619   1.508 -1.9561 -2.4224 -0.4821
  330SOL     OW  988   0.106   0.982   1.143 -0.4519  0.0097 -0.1368
  330SOL    HW1  989   0.042   1.049   1.100 -0.8891 -1.1597  4.5675
  330SOL    HW2  990   0.081   0.883   1.121  0.8158  0.5038 -2.5589
  331SOL     OW  991   0.591   1.339   1.827  0.7360  0.7597 -0.1349
  331SOL    HW1  992   0.673   1.389   1.852 -5.5573 -1.6128 -0.9979
  331SOL    HW2  993   0.595   1.299   1.734  0.9145 -0.3711 -0.4554
  332SOL     OW  994   0.318   2.537   1.437 -0.5122  0.4535  0.4359
  332SOL    HW1  995   0.237   2.593   1.462  2.9149  0.7950 -2.3201
  332SOL    HW2  996   0.300   2.437   1.432 -1.4487  0.4677 -1.5747
  333SOL     OW  997   3.082   2.967   0.860 -0.6293  0.6005 -0.5356
  333SOL    HW1  998   0.049   3.038   0.864  2.3568 -0.3823  1.6505
  333SOL    HW2  999   0.005   2.869   0.883 -0.2754 -2.7937  2.3661
  334SOL     OW 1000   0.322   1.127   0.428  0.1202 -0.0584  0.4184
  334SOL    HW1 1001   0.299   1.212   0.373 -0.0328  0.7306 -1.3535
  334SOL    HW2 1002   0.352   1.159   0.518 -0.0556  0.9074 -2.6003
  335SOL     OW 1003   0.440   2.466   3.063  0.7264 -0.9022  0.3715
  335SOL    HW1 1004   0.385   2.446   2.977 -0.6057 -1.0559 -1.6155
  335SOL    HW2 1005   0.508   2.542   3.042 -0.8325  0.9243  1.0012
  336SOL     OW 1006   3.051   2.639   2.204 -0.1939 -0.5304  0.5104
  336SOL    HW1 1007   3.028   2.600   2.298  0.6151 -0.3539 -2.3035
  336SOL    HW2 1008   2.983   2.618   2.130 -2.9134  0.7216 -1.9493
  337SOL     OW 1009   1.733   2.195   1.796  0.1765 -0.1629  0.2060
  337SOL    HW1 1010   1.638   2.163   1.815 -1.2831 -1.4350 -0.2575
  337SOL    HW2 1011   1.804   2.121   1.784 -0.6427  0.9990 -0.5620
  338SOL     OW 1012   0.944   0.431   2.807 -0.4215 -0.0860 -0.2575
  338SOL    HW1 1013   0.884   0.472   2.735  1.2753 -2.3950  1.2435
  338SOL    HW2 1014   0.926   0.331   2.812 -1.2522  3.3444 -0.5249
  339SOL     OW 1015   0.349   1.220   2.233 -0.2063  0.6503  0.2830
  339SOL    HW1 1016   0.361   1.236   2.137 -0.9930  1.0125  1.3489
  339SOL    HW2 1017   0.387   1.298   2.287 -1.2171 -1.7727  0.1441
  340SOL     OW 1018   2.029   0.274   0.706  0.2411  0.4674 -0.1731
  340SOL    HW1 1019   2.083   0.189   0.722  1.9020 -0.2547  0.6485
  340SOL    HW2 1020   2.007   0.320   0.796  2.1447  2.6900  0.7754
  341SOL     OW 1021   1.995   1.208   0.766  0.2028  0.0357 -0.0406
  341SOL    HW1 1022   2.071   1.241   0.821  0.2685 -0.6982 -0.2446
  341SOL    HW2 1023   1.965   1.272   0.689  2.9852  2.2666 -0.7427
  342SOL     OW 1024   2.227   2.685   2.989 -0.0298  0.3468  0.1609
  342SOL    HW1 1025   2.276   2.601   3.004 -1.2876  1.8981 -0.7916
  342SOL    HW2 1026   2.134   2.653   2.960 -1.0219  0.1794  0.6516
  343SOL     OW 1027   0.728   2.154   1.593  0.2039  0.4022  0.5785
  343SOL    HW1 1028   0.752   2.181   1.689  1.9942 -3.4013 -1.0569
  343SOL    HW2 1029   0.715   2.237   1.537  0.4781  0.0550  0.1399
  344SOL     OW 1030   2.272   2.743   1.313 -0.4857  0.0450  0.3137
  344SOL    HW1 1031   2.303   2.687   1.391  0.7397 -0.4640  2.4851
  344SOL    HW2 1032   2.358   2.773   1.260  3.4925 -0.9015  1.3368
  345SOL     OW 1033   2.566   1.962   0.095  0.4502  0.3110  0.3028
  345SOL    HW1 1034   2.560   1.935   3.105 -2.1254 -0.2917  0.0805
  345SOL    HW2 1035   2.598   1.884   0.149 -0.9975  2.4128  1.4343
  346SOL     OW 1036   1.703   2.479   1.170 -0.2728  0.7478 -0.2792
  346SOL    HW1 1037   1.696   2.436   1.079 -1.0713  0.6081  2.6760
  346SOL    HW2 1038   1.739   2.426   1.249  0.5859 -1.2151  0.1990
  347SOL     OW 1039   1.287   1.648   1.691  0.2946 -0.5923  0.3753
  347SOL    HW1 1040   1.283   1.751   1.682  1.0688  3.7359  1.1911
  347SOL    HW2 1041   1.194   1.613   1.712  1.2292 -0.8707  1.5153
  348SOL     OW 1042   0.422   1.989   2.148 -0.8927 -0.0270  0.0173
  348SOL    HW1 1043   0.410   2.019   2.246 -0.6901  0.2022 -0.3076
  348SOL    HW2 1044   0.520   1.995   2.125 -1.2979 -0.8223  0.0631
  349SOL     OW 1045   1.972   1.730   1.313  0.8274  0.0702 -0.0924
  349SOL    HW1 1046   1.871   1.700   1.314 -2.6956 -0.6511 -1.3589
  349SOL    HW2 1047   1.999   1.733   1.411 -1.1822  0.1855 -0.0254
  350SOL     OW 1048   2.397   2.395   0.530  0.1013 -0.1779  0.0888
  350SOL    HW1 1049   2.488   2.435   0.524 -0.5745 -2.0235  0.7297
  350SOL    HW2 1050   2.396   2.321   0.599 -0.7923 -1.5255  0.1132
  351SOL     OW 1051   1.016   0.082   1.522 -0.2286 -0.2447 -0.0899
  351SOL    HW1 1052   0.922   0.124   1.537 -1.6525  2.5732 -3.2676
  351SOL    HW2 1053   1.029   0.046   1.427 -0.6435  1.7343  0.3349
  352SOL     OW 1054   0.102   1.567   0.965  0.1690  0.6561  0.5743
  352SOL    HW1 1055   0.159   1.498   1.013  1.5585  0.5134 -1.0813
  352SOL    HW2 1056   0.085   1.649   1.025  0.6580  0.3781  0.2506
  353SOL     OW 1057   1.211   1.465   2.162 -0.2061  0.5980 -0.0269
  353SOL    HW1 1058   1.292   1.420   2.119 -0.8953 -1.0429 -1.7608
  353SOL    HW2 1059   1.171   1.403   2.233 -1.7115 -0.8041  2.9563
  354SOL     OW 1060   1.779   2.928   1.829  0.3955 -1.1017 -0.2276
  354SOL    HW1 1061   1.773   3.021   1.786  1.0661  0.1445  0.0265
  354SOL    HW2 1062   1.691   2.890   1.866 -3.8743 -0.9337  2.4670
  355SOL     OW 1063   2.465   1.200   0.171  0.8788 -0.6720  0.2742
  355SOL    HW1 1064   2.362   1.207   0.155 -3.7325 -0.6364 -1.4024
  355SOL    HW2 1065   2.510   1.249   0.091  0.0175  0.2913 -0.6466
  356SOL     OW 1066   2.785   1.837   1.484 -0.5229  0.8869  0.0220
  356SOL    HW1 1067   2.779   1.880   1.578  0.2356 -0.7841  0.9886
  356SOL    HW2 1068   2.693   1.813   1.456  1.4104 -0.5641  0.6486
  357SOL     OW 1069   0.485   2.857   1.276  0.0974 -0.4760  0.4026
  357SOL    HW1 1070   0.547   2.776   1.259 -0.0739 -2.9932 -1.8329
  357SOL    HW2 1071   0.398   2.849   1.224  1.8828 -0.5248  0.8247
  358SOL     OW 1072   2.677   1.681   1.764 -0.9087  0.0565 -0.5481
  358SOL    HW1 1073   2.650   1.626   1.847 -0.8379  0.0916 -0.2685
  358SOL    HW2 1074   2.673   1.623   1.684 -1.0564  1.1815  0.4166
  359SOL     OW 1075   2.271   2.921   2.860  0.2573 -0.0755  0.4882
  359SOL    HW1 1076   2.292   2.836   2.912  0.8470  0.8827 -0.7108
  359SOL    HW2 1077   2.221   2.994   2.918 -1.0626  3.0430  1.8268
  360SOL     OW 1078   1.048   0.129   0.922  0.4716  0.4612  0.5539
  360SOL    HW1 1079   1.113   0.205   0.908  1.2693 -2.8258  0.3352
  360SOL    HW2 1080   1.097   0.037   0.925  1.3783 -0.8497  0.6208
  361SOL     OW 1081   2.144   0.462   0.340  0.0113  0.5600  0.7197
  361SOL    HW1 1082   2.052   0.443   0.379 -1.9208  0.8368  1.5912
  361SOL    HW2 1083   2.169   0.559   0.366  0.9614  1.8486 -1.2568
  362SOL     OW 1084   1.851   1.175   0.994 -0.1288 -0.3021  0.1840
  362SOL    HW1 1085   1.925   1.197   0.928 -1.9193 -1.4952  1.6224
  362SOL    HW2 1086   1.788   1.253   1.009 -2.0541  0.1432  1.8815
  363SOL     OW 1087   2.304   1.024   2.203  0.7097 -0.1930  0.0312
  363SOL    HW1 1088   2.219   1.076   2.225 -2.2343  2.5259  0.6547
  363SOL    HW2 1089   2.326   1.026   2.101 -2.1350  1.1992 -2.2495
  364SOL     OW 1090   0.344   0.384   1.195 -0.3389  0.1080 -0.3822
  364SOL    HW1 1091   0.278   0.433   1.252 -0.1734 -2.7905 -0.2022
  364SOL    HW2 1092   0.316   0.286   1.192  1.6535 -0.2170  0.2369
  365SOL     OW 1093   0.634   0.188   2.922  0.0605 -0.1491 -0.4566
  365SOL    HW1 1094   0.587   0.095   2.920 -1.0428 -0.0646 -2.0574
  365SOL    HW2 1095   0.719   0.186   2.871 -1.7510 -0.1846  4.3349
  366SOL     OW 1096   2.019   2.516   2.858  0.1316 -0.0015 -0.0717
  366SOL    HW1 1097   1.968   2.570   2.788  2.0929 -2.6577 -1.4627
  366SOL    HW2 1098   2.104   2.488   2.813 -1.3616 -1.1962  2.5517
  367SOL     OW 1099   2.868   2.324   0.115  0.2699 -0.3027 -0.3791
  367SOL    HW1 1100   2.771   2.351   0.136 -3.2116  3.0605  1.0948
  367SOL    HW2 1101   2.916   2.310   0.205  1.8061  0.7924 -1.4378
  368SOL     OW 1102   2.985   1.325   1.321  0.4424 -0.1425 -0.7257
  368SOL    HW1 1103   2.975   1.404   1.255 -0.3759  0.0258  1.1207
  368SOL    HW2 1104   3.078   1.282   1.307  3.9024 -0.0621  1.3661
  369SOL     OW 1105   0.867   0.175   2.805  0.2101  0.1825  0.0625
  369SOL    HW1 1106   0.891   0.161   2.709 -1.0993  1.3215  0.9579
  369SOL    HW2 1107   0.934   0.136   2.874  2.3576 -0.5751 -3.2671
  370SOL     OW 1108   2.801   0.472   0.454  0.4881  0.3734 -0.1355
  370SOL    HW1 1109   2.721   0.411   0.462 -0.3648 -2.2665  1.8717
  370SOL    HW2 1110   2.889   0.424   0.443  1.1218 -0.4834  1.3071
  371SOL     OW 1111   1.526   2.084   0.986 -0.4468 -0.7971  0.4776
  371SOL    HW1 1112   1.593   2.019   0.944 -0.4857  0.9994 -0.3236
  371SOL    HW2 1113   1.571   2.178   0.983  2.1626  0.7028  0.6863
  372SOL     OW 1114   3.041   0.687   2.627 -0.3995 -0.1112  0.6722
  372SOL    HW1 1115   3.047   0.677   2.522 -3.0358 -2.1639 -1.9350
  372SOL    HW2 1116   2.982   0.763   2.656  2.5443 -0.6082  0.7640
  373SOL     OW 1117   2.716   1.615   1.110  0.4402  0.0171  0.5285
  373SOL    HW1 1118   2.714   1.700   1.059 -0.6392  0.1614  2.9022
  373SOL    HW2 1119   2.628   1.573   1.129  1.9673  0.9870 -1.8514
  374SOL     OW 1120   0.931   2.768   2.937 -0.0069  0.0291 -0.0695
  374SOL    HW1 1121   0.853   2.813   2.983  1.6181 -1.7840 -4.2312
  374SOL    HW2 1122   1.021   2.797   2.975  2.8273 -0.2439 -2.4787
  375SOL     OW 1123   0.007   3.005   0.067  0.4365  0.6465 -0.0585
  375SOL    HW1 1124   0.077   3.009   0.141  0.0760  1.8639  1.0117
  375SOL    HW2 1125   3.091   3.101   0.041 -0.2877 -1.4990  2.0649
  376SOL     OW 1126   2.985   2.221   1.474  0.2554 -0.0682  0.5803
  376SOL    HW1 1127   3.019   2.199   1.574  0.0825  0.3659  1.9909
  376SOL    HW2 1128   3.039   2.167   1.399  1.7747 -4.5870 -4.1308
  377SOL     OW 1129   1.609   2.158   2.482 -0.6162  0.0994 -0.2715
  377SOL    HW1 1130   1.618   2.101   2.564  0.1936  1.8842  0.0660
  377SOL    HW2 1131   1.555   2.112   2.407 -1.3213  0.0696 -0.0703
  378SOL     OW 1132   0.482   0.400   2.983  0.8843 -0.3732  0.3420
  378SOL    HW1 1133   0.507   0.497   3.004  0.2198  1.5279  0.9486
  378SOL    HW2 1134   0.562   0.345   2.948  0.0291 -1.9253  0.6102
  379SOL     OW 1135   0.646   0.731   0.424  0.4990 -0.3171  0.1087
  379SOL    HW1 1136   0.664   0.801   0.353  1.0185 -0.3552  0.5753
  379SOL    HW2 1137   0.714   0.726   0.504 -0.0383  0.8154  1.3714
  380SOL     OW 1138   0.023   1.853   1.745  0.3887  0.1804  0.0414
  380SOL    HW1 1139   3.040   1.821   1.789  0.4747 -0.3173 -1.6092
  380SOL    HW2 1140   0.098   1.834   1.812 -1.0826  0.0646 -0.1512
  381SOL     OW 1141   0.170   1.155   1.873  0.0580 -0.3679  0.3812
  381SOL    HW1 1142   0.190   1.067   1.827 -0.3536 -0.7173  0.1488
  381SOL    HW2 1143   0.097   1.206   1.819  0.2530 -0.1675  4.1324
  382SOL     OW 1144   2.277   1.769   0.305  0.1119  0.0875 -0.4358
  382SOL    HW1 1145   2.346   1.700   0.277 -0.2103 -2.1255 -2.6708
  382SOL    HW2 1146   2.212   1.732   0.377 -0.5383 -2.6768 -0.2874
  383SOL     OW 1147   2.878   2.043   2.905  0.1668  0.4261 -0.0324
  383SOL    HW1 1148   2.867   2.013   3.004  0.2522 -2.0153  0.6259
  383SOL    HW2 1149   2.886   2.140   2.898 -1.2510  2.1822 -0.5273
  384SOL     OW 1150   0.812   2.224   2.692 -0.1058  0.4060  0.3044
  384SOL    HW1 1151   0.754   2.184   2.763 -1.0933  0.3815 -0.3354
  384SOL    HW2 1152   0.791   2.323   2.679  0.7007 -0.0279 -4.3440
  385SOL     OW 1153   2.828   1.313   0.907  0.1940  0.2749  0.1765
  385SOL    HW1 1154   2.884   1.375   0.965  0.3800  0.5448  2.8074
  385SOL    HW2 1155   2.758   1.258   0.955 -0.8027  3.6803 -0.6346
  386SOL     OW 1156   2.271   1.488   1.504 -0.0002  0.1292 -0.2159
  386SOL    HW1 1157   2.280   1.494   1.403  1.2716  1.2519 -1.6604
  386SOL    HW2 1158   2.257   1.581   1.539  1.4803 -1.6746 -0.6810
  387SOL     OW 1159   2.689   1.202   2.071 -0.1106  0.3116  0.1842
  387SOL    HW1 1160   2.613   1.212   2.008  3.9897 -1.9871  2.4978
  387SOL    HW2 1161   2.656   1.181   2.166  1.0375  0.1423 -0.0564
  388SOL     OW 1162   2.875   1.373   2.140  0.2953 -0.2555 -0.0954
  388SOL    HW1 1163   2.813   1.294   2.120  1.5343  1.8772  0.0845
  388SOL    HW2 1164   2.970   1.355   2.107 -1.1503 -0.5629  0.5652
  389SOL     OW 1165   2.098   1.141   2.007 -0.2667 -0.1375  0.0570
  389SOL    HW1 1166   2.061   1.153   2.100  1.2676 -2.5926 -0.4708
  389SOL    HW2 1167   2.134   1.229   1.975  3.5290 -2.7494 -0.7324
  390SOL     OW 1168   1.821   0.048   0.662 -0.1191 -0.2324 -0.4416
  390SOL    HW1 1169   1.891   0.111   0.693 -0.4393 -1.6268  2.3656
  390SOL    HW2 1170   1.775   0.087   0.584  1.6487  0.9107  0.2478
  391SOL     OW 1171   2.131   1.817   1.087 -0.2172 -0.2130 -0.3605
  391SOL    HW1 1172   2.195   1.890   1.114 -1.7981 -2.6336 -2.4035
  391SOL    HW2 1173   2.091   1.778   1.170  0.2045  0.5760  0.2721
  392SOL     OW 1174   2.654   2.396   0.689 -0.0450  0.5319  0.0342
  392SOL    HW1 1175   2.743   2.425   0.713  0.0119  2.2706  0.1972
  392SOL    HW2 1176   2.590   2.453   0.736 -1.0263  0.9736  2.5331
  393SOL     OW 1177   1.556   1.715   2.838  0.2728 -0.8711 -0.3671
  393SOL    HW1 1178   1.573   1.621   2.863 -0.6987  2.1423 -1.7284
  393SOL    HW2 1179   1.583   1.731   2.740  0.5047  2.7432 -0.5009
  394SOL     OW 1180   0.204   0.022   2.899 -0.3514 -0.2566 -0.0071
  394SOL    HW1 1181   0.106   0.037   2.925  1.8206 -0.0465  0.0210
  394SOL    HW2 1182   0.236   3.038   2.923 -0.1055  2.9524 -0.1570
  395SOL     OW 1183   0.647   0.799   0.935  0.3931  0.2698 -0.4096
  395SOL    HW1 1184   0.647   0.696   0.931 -0.3839 -0.1585 -0.5022
  395SOL    HW2 1185   0.701   0.841   0.866 -1.7176  1.3901  2.4576
  396SOL     OW 1186   1.197   1.063   0.803  0.8906  0.8734 -0.1070
  396SOL    HW1 1187   1.150   0.986   0.857 -0.8924 -0.2535 -0.4074
  396SOL    HW2 1188   1.224   1.028   0.712  1.2014 -0.2206  0.9069
  397SOL     OW 1189   0.523   0.575   2.158 -0.0409 -0.0833  0.0020
  397SOL    HW1 1190   0.439   0.559   2.110  2.1263  0.4594  1.9398
  397SOL    HW2 1191   0.536   0.676   2.175  0.3891  2.8544  2.2368
  398SOL     OW 1192   1.033   0.149   0.356  0.1078 -0.0723 -0.7034
  398SOL    HW1 1193   1.041   0.237   0.405  1.5194 -2.1203 -2.2679
  398SOL    HW2 1194   1.123   0.108   0.364  0.7232 -1.2366 -1.6664
  399SOL     OW 1195   2.106   2.848   1.663  0.1101 -0.3433  0.4831
  399SOL    HW1 1196   2.072   2.892   1.752  0.7120  3.9817  1.9581
  399SOL    HW2 1197   2.031   2.795   1.619 -1.3704 -3.6460 -2.7283
  400SOL     OW 1198   1.117   1.853   2.044 -0.2045 -0.0754  0.2175
  400SOL    HW1 1199   1.025   1.815   2.080 -1.9222  0.8539  3.9551
  400SOL    HW2 1200   1.138   1.849   1.943 -0.5332 -0.4679  0.6974
  401SOL     OW 1201   0.596   1.101   2.711 -0.4058 -0.2847  0.4886
  401SOL    HW1 1202   0.655   1.100   2.795  0.4786  2.2517  0.4232
  401SOL    HW2 1203   0.508   1.066   2.728  5.2411  0.3756 -1.9102
  402SOL     OW 1204   2.797   2.067   0.948 -0.5531  0.4100 -0.1709
  402SOL    HW1 1205   2.781   1.968   0.931  3.5925 -0.6021 -0.5775
  402SOL    HW2 1206   2.836   2.081   1.040 -1.3212  1.7354 -1.1248
  403SOL     OW 1207   0.254   0.982   2.207  0.1326  0.0295  0.1816
  403SOL    HW1 1208   0.154   0.981   2.189 -0.4827  0.3380  0.3346
  403SOL    HW2 1209   0.282   1.080   2.208 -0.4662 -3.4257  3.3306
  404SOL     OW 1210   0.389   2.459   1.712  0.1984  0.5021 -0.6417
  404SOL    HW1 1211   0.340   2.496   1.632 -2.0725  0.8950  0.6504
  404SOL    HW2 1212   0.492   2.472   1.709  1.4870  1.0383  1.1112
  405SOL     OW 1213   0.404   0.291   2.112  0.1794  0.5660 -0.1280
  405SOL    HW1 1214   0.458   0.295   2.200  0.1820 -0.2965  0.5415
  405SOL    HW2 1215   0.318   0.232   2.121  1.5953 -1.8703  1.1193
  406SOL     OW 1216   1.637   1.635   2.365  0.5751  0.2342  0.0129
  406SOL    HW1 1217   1.705   1.705   2.338  1.4386 -0.2959 -0.0806
  406SOL    HW2 1218   1.569   1.616   2.293  0.6785  0.4172  0.5633
  407SOL     OW 1219   1.155   1.002   2.551  0.5840  0.3629 -0.0440
  407SOL    HW1 1220   1.141   0.984   2.453  1.0243 -0.6493  2.9948
  407SOL    HW2 1221   1.075   0.979   2.615 -0.1568 -1.0540  0.5735
  408SOL     OW 1222   0.865   3.084   2.532  0.4586 -0.4942  0.3338
  408SOL    HW1 1223   0.913   0.064   2.502  0.8360  0.3191  1.1954
  408SOL    HW2 1224   0.878   3.010   2.459 -1.4966  0.1965 -0.5147
  409SOL     OW 1225   0.245   1.892   0.724 -0.0420  0.0850  0.1002
  409SOL    HW1 1226   0.335   1.924   0.682  1.2306  1.6950 -0.2674
  409SOL    HW2 1227   0.186   1.863   0.644 -0.5558 -0.8534  1.3649
  410SOL     OW 1228   2.813   1.134   0.252  0.1578 -0.1450  0.3201
  410SOL    HW1 1229   2.849   1.065   0.318  1.1612  1.3941 -0.3237
  410SOL    HW2 1230   2.755   1.198   0.304 -2.3441  2.1716  2.3860
  411SOL     OW 1231   0.217   0.121   1.219  0.2817 -0.2187 -0.1224
  411SOL    HW1 1232   0.188   0.130   1.316 -0.2500 -1.1872 -0.3704
  411SOL    HW2 1233   0.278   0.044   1.208  0.3121  1.6589  0.2097
  412SOL     OW 1234   1.563   0.797   1.452  0.2656  0.2408 -0.5386
  412SOL    HW1 1235   1.632   0.774   1.385 -1.9432  0.6914  2.3968
  412SOL    HW2 1236   1.469   0.769   1.428  3.1990  0.0755 -2.2920
  413SOL     OW 1237   0.941   3.006   1.739 -0.0942 -0.3313 -0.3455
  413SOL    HW1 1238   0.888   3.078   1.791 -0.8302  0.1525  1.9046
  413SOL    HW2 1239   0.970   3.036   1.646 -1.2094  0.8712 -1.3367
  414SOL     OW 1240   3.016   1.465   2.634  0.1664 -0.6294  0.8659
  414SOL    HW1 1241   2.944   1.539   2.629 -3.4920 -1.1824  3.1267
  414SOL    HW2 1242   0.001   1.489   2.588  1.1438  0.0433 -0.4588
  415SOL     OW 1243   0.803   2.434   2.974  0.4095  0.5464  0.0473
  415SOL    HW1 1244   0.897   2.420   2.939 -1.4318  1.1567  2.7832
  415SOL    HW2 1245   0.758   2.525   2.950 -1.5228  3.3417 -1.2310
  416SOL     OW 1246   1.930   2.973   0.275 -1.1132  0.7272 -0.1605
  416SOL    HW1 1247   1.921   2.885   0.222  2.3554 -0.5380 -0.7892
  416SOL    HW2 1248   1.998   3.030   0.228  0.1019  0.2262  0.7758
  417SOL     OW 1249   0.231   0.597   0.783 -0.1250  0.4406 -0.3290
  417SOL    HW1 1250   0.229   0.699   0.764 -0.3423  1.0557  0.9456
  417SOL    HW2 1251   0.248   0.548   0.693 -2.6363  1.8658  1.8664
  418SOL     OW 1252   2.573   0.205   1.033 -0.6180  0.0606 -0.1758
  418SOL    HW1 1253   2.478   0.191   1.073 -1.1220  2.0636  3.4520
  418SOL    HW2 1254   2.575   0.259   0.948  2.1349  2.3455 -0.8815
  419SOL     OW 1255   0.192   2.943   0.609  0.5075 -0.5797  0.7562
  419SOL    HW1 1256   0.127   3.003   0.548 -2.6219 -0.1281 -3.2071
  419SOL    HW2 1257   0.173   2.845   0.592 -0.1420 -3.9393  1.2474
  420SOL     OW 1258   0.091   1.530   1.563 -0.1604  0.2686  0.4115
  420SOL    HW1 1259   0.179   1.495   1.531  0.4906  0.4888  3.4286
  420SOL    HW2 1260   0.062   1.619   1.522 -0.3991 -0.6004 -1.2510
  421SOL     OW 1261   1.345   2.898   0.487 -0.8644  0.0580  0.0838
  421SOL    HW1 1262   1.323   2.987   0.438 -0.9211  0.4464  0.7930
  421SOL    HW2 1263   1.277   2.830   0.453 -0.0984 -1.2356 -1.6129
  422SOL     OW 1264   0.356   0.555   1.617 -0.2570  0.1579  0.2291
  422SOL    HW1 1265   0.329   0.627   1.690 -1.5584  1.9499  1.3182
  422SOL    HW2 1266   0.274   0.531   1.558 -0.5528 -0.5415 -4.6574
  423SOL     OW 1267   1.075   1.226   1.709  0.1910 -0.5956  0.0178
  423SOL    HW1 1268   1.079   1.279   1.796 -0.0838 -0.6796  0.7362
  423SOL    HW2 1269   0.994   1.167   1.703  0.7549  2.6060  0.7568
  424SOL     OW 1270   2.065   1.622   0.051  0.0966  0.0023  0.3370
  424SOL    HW1 1271   2.091   1.574   0.134 -2.4238 -0.8102 -0.5246
  424SOL    HW2 1272   2.042   1.555   3.082 -0.4169  0.2766 -0.9165
  425SOL     OW 1273   0.168   0.188   2.153  0.4718 -0.1866  0.5361
  425SOL    HW1 1274   0.075   0.224   2.132 -1.3193  0.9299  0.6194
  425SOL    HW2 1275   0.171   0.125   2.236 -0.4195  2.1309 -2.8737
  426SOL     OW 1276   0.346   2.860   2.968  0.2439  0.1396 -0.0645
  426SOL    HW1 1277   0.283   2.811   3.031 -1.1021  0.6059  1.7374
  426SOL    HW2 1278   0.359   2.798   2.889  0.1264  0.2938  0.3217
  427SOL     OW 1279   0.970   0.901   2.728  0.1012 -0.5133 -0.8332
  427SOL    HW1 1280   0.931   0.986   2.772  1.0448 -2.5745 -1.7252
  427SOL    HW2 1281   1.026   0.848   2.794  0.6288 -1.9939 -0.2243
  428SOL     OW 1282   2.579   1.200   1.616  0.0653  0.0822 -0.1034
  428SOL    HW1 1283   2.511   1.120   1.608 -4.6962 -1.6128  0.5141
  428SOL    HW2 1284   2.633   1.202   1.699  1.0006 -0.4887 -1.3892
  429SOL     OW 1285   2.338   2.952   0.863  0.2945 -0.0432  0.7023
  429SOL    HW1 1286   2.247   2.998   0.852 -0.1547 -1.5543 -1.8727
  429SOL    HW2 1287   2.319   2.861   0.895  1.3463  4.7661 -3.2677
  430SOL     OW 1288   0.627   1.447   2.169 -0.4169  0.1278 -0.3658
  430SOL    HW1 1289   0.546   1.441   2.233 -2.2439 -0.9390 -0.3165
  430SOL    HW2 1290   0.702   1.488   2.226 -3.4518 -0.5920  2.6024
  431SOL     OW 1291   2.650   1.477   1.570 -0.1975 -0.0811  0.4652
  431SOL    HW1 1292   2.751   1.467   1.552 -0.9558 -3.4554 -0.7374
  431SOL    HW2 1293   2.610   1.384   1.584 -0.5852 -1.1516  1.6060
  432SOL     OW 1294   1.223   2.654   2.183  0.3987  0.3338  0.3313
  432SOL    HW1 1295   1.243   2.743   2.225 -4.2542  0.7423  0.4750
  432SOL    HW2 1296   1.270   2.581   2.228  2.1396  2.6636 -0.8570
  433SOL     OW 1297   1.704   0.080   2.037  0.1694 -0.0589  0.3818
  433SOL    HW1 1298   1.802   0.094   2.016  0.4795  1.9263  1.0359
  433SOL    HW2 1299   1.650   0.167   2.038  0.5283 -0.3108 -2.2913
  434SOL     OW 1300   0.724   2.490   2.606 -0.0658  0.0243  0.0773
  434SOL    HW1 1301   0.661   2.524   2.538  2.0800  0.1042  0.7039
  434SOL    HW2 1302   0.742   2.565   2.673 -0.6819 -0.0765  2.5405
  435SOL     OW 1303   0.435   2.907   0.209  0.4469 -0.0708 -0.6545
  435SOL    HW1 1304   0.342   2.951   0.205 -0.1033  0.0688  1.7614
  435SOL    HW2 1305   0.505   2.964   0.164  0.7616  0.1144 -0.0426
  436SOL     OW 1306   0.722   0.492   2.000 -0.2872  0.0845  0.1590
  436SOL    HW1 1307   0.630   0.506   2.043 -1.3330  0.5544 -1.2498
  436SOL    HW2 1308   0.786   0.426   2.049 -0.1654 -0.9152 -0.0362
  437SOL     OW 1309   0.392   2.374   2.572  0.1107  0.2000  0.4500
  437SOL    HW1 1310   0.437   2.332   2.492 -0.3064 -0.8582  0.7876
  437SOL    HW2 1311   0.406   2.320   2.660 -1.8670 -2.2589 -1.2787
  438SOL     OW 1312   0.874   1.409   1.514  0.0492  0.4052 -0.0823
  438SOL    HW1 1313   0.852   1.496   1.469  1.8747 -0.6958 -2.0456
  438SOL    HW2 1314   0.950   1.434   1.582  0.2262 -0.2048  1.2013
  439SOL     OW 1315   2.289   0.751   2.313 -0.5207  0.9470  0.1366
  439SOL    HW1 1316   2.274   0.734   2.410  1.6752  0.9668 -3.9184
  439SOL    HW2 1317   2.285   0.849   2.291  0.5097 -0.5403  0.0301
  440SOL     OW 1318   0.467   0.696   0.224  0.0633 -0.1501  0.2652
  440SOL    HW1 1319   0.422   0.600   0.221 -0.9615 -0.8322 -1.1116
  440SOL    HW2 1320   0.537   0.692   0.298 -1.0428 -0.2582  3.2228
  441SOL     OW 1321   1.028   2.391   1.361 -0.0790 -0.5515 -0.6640
  441SOL    HW1 1322   0.990   2.455   1.435 -0.7006 -0.5870  2.1203
  441SOL    HW2 1323   0.958   2.321   1.333  0.0643 -2.8095 -0.9377
  442SOL     OW 1324   2.119   1.489   0.706  0.6666 -0.6891  0.2166
  442SOL    HW1 1325   2.117   1.528   0.798  0.7121 -0.3051 -0.3681
  442SOL    HW2 1326   2.204   1.438   0.697 -2.7828  2.1478  1.2964
  443SOL     OW 1327   2.567   2.137   2.591  0.1457  0.1180 -0.0026
  443SOL    HW1 1328   2.636   2.211   2.590  2.0528  2.5355  0.7081
  443SOL    HW2 1329   2.507   2.143   2.508 -0.7619  0.9787 -1.0439
  444SOL     OW 1330   1.614   1.459   2.889 -0.2373 -0.0524  0.2108
  444SOL    HW1 1331   1.625   1.428   2.987  1.3982  1.2855 -1.6085
  444SOL    HW2 1332   1.556   1.394   2.840  1.5919  0.2872  0.3431
  445SOL     OW 1333   2.542   2.787   2.250 -0.1923  0.1106  0.8567
  445SOL    HW1 1334   2.571   2.725   2.173 -1.3668 -1.9127  1.1708
  445SOL    HW2 1335   2.601   2.866   2.241 -1.3373  1.6591 -0.0772
  446SOL     OW 1336   0.450   1.015   1.602 -0.1170  0.3390 -0.5848
  446SOL    HW1 1337   0.414   0.925   1.570 -0.1558 -1.0097 -0.9544
  446SOL    HW2 1338   0.539   1.029   1.546  4.5565  2.9203 -2.6536
  447SOL     OW 1339   0.820   1.142   0.911  0.1636  0.6401 -0.3211
  447SOL    HW1 1340   0.906   1.185   0.946 -0.0822  2.9275  0.0764
  447SOL    HW2 1341   0.748   1.181   0.970 -1.8850  2.8351 -0.1566
  448SOL     OW 1342   0.939   1.025   2.104 -0.0118  0.4444  0.0678
  448SOL    HW1 1343   0.933   1.006   2.003 -1.4236  0.0297 -2.8157
  448SOL    HW2 1344   0.875   1.102   2.124 -0.3031  5.7031 -1.7532
  449SOL     OW 1345   0.099   2.114   2.360 -0.0919 -0.4266 -0.2159
  449SOL    HW1 1346   0.096   2.074   2.266 -0.4399  1.5982  1.2689
  449SOL    HW2 1347   0.141   2.042   2.420  2.4227 -2.6254 -0.4658
  450SOL     OW 1348   2.576   2.059   1.932 -0.2522 -0.0529  0.0297
  450SOL    HW1 1349   2.640   2.139   1.925  2.7543 -0.8902 -0.1018
  450SOL    HW2 1350   2.623   1.986   1.982 -0.4207  3.5606 -0.9650
  451SOL     OW 1351   2.365   1.147   1.284 -0.1020 -0.1936 -0.1807
  451SOL    HW1 1352   2.289   1.096   1.239  1.0257 -0.7408  0.6264
  451SOL    HW2 1353   2.444   1.085   1.297 -1.9958 -1.6711  1.4612
  452SOL     OW 1354   0.387   1.514   1.546 -1.0300  0.6264  0.3018
  452SOL    HW1 1355   0.385   1.533   1.648 -1.8364 -1.7492 -2.4289
  452SOL    HW2 1356   0.479   1.475   1.515  1.7074 -0.4810 -1.4220
  453SOL     OW 1357   0.237   1.380   1.083  0.2135  0.1409  0.2871
  453SOL    HW1 1358   0.251   1.319   1.004  0.6230  3.7937 -0.8241
  453SOL    HW2 1359   0.241   1.325   1.174  0.1911 -2.2550  2.0408
  454SOL     OW 1360   0.257   1.473   0.110  0.4285 -0.4421 -0.0031
  454SOL    HW1 1361   0.355   1.448   0.130  1.5448 -0.9539 -2.1493
  454SOL    HW2 1362   0.223   1.414   0.037 -0.1618  0.9426  0.4271
  455SOL     OW 1363   1.702   0.974   0.899  0.3253  0.0114 -0.3212
  455SOL    HW1 1364   1.755   1.051   0.936 -2.3668 -2.9358 -0.7387
  455SOL    HW2 1365   1.743   0.885   0.933 -0.7399  0.4636  0.9427
  456SOL     OW 1366   1.636   2.492   0.704  0.3918  0.4908 -0.4056
  456SOL    HW1 1367   1.629   2.588   0.742 -0.9378 -1.1262 -0.5790
  456SOL    HW2 1368   1.547   2.444   0.720  1.7663  1.2221  0.7239
  457SOL     OW 1369   1.981   0.033   2.627 -0.5088 -0.5418 -0.1261
  457SOL    HW1 1370   2.034   3.054   2.619 -2.5977  1.3154  1.5172
  457SOL    HW2 1371   1.896   0.023   2.580  1.1206 -0.4367 -0.9554
  458SOL     OW 1372   2.398   0.460   3.081 -0.2161 -0.1881 -0.1907
  458SOL    HW1 1373   2.351   0.408   3.009  1.0489  1.4644 -0.7417
  458SOL    HW2 1374   2.500   0.440   3.081  2.1313 -2.4642  0.8393
  459SOL     OW 1375   3.088   0.964   2.126 -0.4100 -0.0949  0.2121
  459SOL    HW1 1376   3.026   0.965   2.212 -2.6711 -1.7217  0.0978
  459SOL    HW2 1377   3.081   1.054   2.077 -1.6889  0.3533 -0.0172
  460SOL     OW 1378   0.270   0.761   2.907  0.1140  0.0363 -0.1157
  460SOL    HW1 1379   0.239   0.672   2.870 -1.6528 -1.2496  1.7556
  460SOL    HW2 1380   0.356   0.756   2.960  2.0809  0.5123 -0.1747
  461SOL     OW 1381   3.073   2.334   0.637  0.1371 -0.2543  0.1500
  461SOL    HW1 1382   3.089   2.239   0.658 -1.0571  3.5953 -1.4033
  461SOL    HW2 1383   3.074   2.361   0.538 -0.2610 -0.6997 -0.0628
  462SOL     OW 1384   0.055   2.988   1.624 -0.5055 -0.6777  0.1724
  462SOL    HW1 1385   0.058   2.909   1.692  0.1822 -0.0537 -0.1789
  462SOL    HW2 1386   3.067   2.983   1.578 -2.1224 -2.7474 -1.1230
  463SOL     OW 1387   2.141   2.103   1.910  0.1145 -0.0914  0.1056
  463SOL    HW1 1388   2.059   2.067   1.860 -0.1942  2.5452  0.7339
  463SOL    HW2 1389   2.227   2.113   1.853 -0.6467  1.2001 -0.5740
  464SOL     OW 1390   0.212   2.912   1.116 -0.2399 -0.2347 -0.7688
  464SOL    HW1 1391   0.152   2.985   1.138  1.2237 -0.4238  2.8203
  464SOL    HW2 1392   0.243   2.928   1.025 -1.9340 -0.8865  1.7611
  465SOL     OW 1393   0.569   0.190   1.470  0.3904  0.3665  0.2648
  465SOL    HW1 1394   0.656   0.174   1.517  1.9027  3.4526 -1.2856
  465SOL    HW2 1395   0.504   0.214   1.542  0.9952 -3.6221 -0.0303
  466SOL     OW 1396   1.336   1.881   2.221  0.1823 -0.7630  0.1513
  466SOL    HW1 1397   1.383   1.792   2.206 -0.7514  0.9691  1.8107
  466SOL    HW2 1398   1.264   1.897   2.146 -1.5113 -0.3770 -1.1027
  467SOL     OW 1399   2.982   1.726   0.828 -0.4640  0.2438  0.0681
  467SOL    HW1 1400   3.065   1.698   0.879  0.8815 -2.9178  0.6421
  467SOL    HW2 1401   2.980   1.683   0.735 -0.3492 -1.6375 -1.7858
  468SOL     OW 1402   2.300   2.176   2.658  0.1618  0.0356 -0.3472
  468SOL    HW1 1403   2.396   2.154   2.643 -1.3393  2.1850 -0.4938
  468SOL    HW2 1404   2.241   2.144   2.581 -1.9776 -0.4861  1.5126
  469SOL     OW 1405   1.103   1.995   0.283 -0.2419 -0.2859  0.1558
  469SOL    HW1 1406   1.114   2.078   0.229  2.4882 -3.0750 -0.1444
  469SOL    HW2 1407   1.156   2.005   0.365 -1.6567 -2.1715 -3.0486
  470SOL     OW 1408   2.148   1.745   1.576  0.1776 -0.3489 -0.1312
  470SOL    HW1 1409   2.172   1.840   1.553 -1.3481 -1.0400 -1.2782
  470SOL    HW2 1410   2.055   1.742   1.619 -1.1277 -0.1165  0.7825
  471SOL     OW 1411   0.577   2.458   0.181  0.4007 -0.2355 -0.0572
  471SOL    HW1 1412   0.550   2.543   0.230  1.1683 -0.0861  0.4715
  471SOL    HW2 1413   0.514   2.444   0.099 -2.6835  0.7413 -0.9456
  472SOL     OW 1414   2.673   1.977   2.315  0.6826 -0.5509  0.6397
  472SOL    HW1 1415   2.599   2.048   2.304 -6.7067  4.1055  1.6189
  472SOL    HW2 1416   2.706   1.940   2.232  0.5806 -1.4613  2.5088
  473SOL     OW 1417   1.286   2.610   0.828  0.0828  0.4088  0.3156
  473SOL    HW1 1418   1.220   2.652   0.891  3.7371 -3.2255 -4.2595
  473SOL    HW2 1419   1.343   2.687   0.793  1.3444  2.5753  1.7117
  474SOL     OW 1420   2.892   3.040   1.525  0.3649 -0.1415  0.0295
  474SOL    HW1 1421   2.940   3.002   1.445 -0.7517  0.7479  1.4052
  474SOL    HW2 1422   2.790   3.064   1.503 -3.1837  1.4989 -0.7196
  475SOL     OW 1423   1.667   2.728   1.612  0.0618  0.2473  0.9105
  475SOL    HW1 1424   1.596   2.666   1.644 -0.7854  1.3139  2.2504
  475SOL    HW2 1425   1.696   2.795   1.684 -0.2223  0.0769  0.4131
  476SOL     OW 1426   0.383   0.425   0.912 -0.0666  0.1941 -0.2629
  476SOL    HW1 1427   0.367   0.405   1.012  1.6476  1.1006  2.0061
  476SOL    HW2 1428   0.320   0.494   0.872  0.4513  3.4831 -1.3155
  477SOL     OW 1429   0.700   2.181   0.964  0.1719 -1.0545 -0.7855
  477SOL    HW1 1430   0.608   2.223   0.987 -0.8206 -0.1246 -1.4055
  477SOL    HW2 1431   0.776   2.239   0.999 -0.2037 -1.3305 -1.3761
  478SOL     OW 1432   0.825   2.738   2.706 -0.1740 -0.1383  0.4703
  478SOL    HW1 1433   0.905   2.727   2.642 -1.3523 -1.7954 -0.1720
  478SOL    HW2 1434   0.850   2.720   2.803  0.0333  1.0018 -1.3565
  479SOL     OW 1435   0.272   0.506   2.018  0.8692 -0.1577  0.0303
  479SOL    HW1 1436   0.181   0.484   1.978  0.1288 -1.5204 -2.9710
  479SOL    HW2 1437   0.311   0.415   2.053  2.5697  1.2643 -0.7794
  480SOL     OW 1438   0.151   2.083   2.893  0.4336  0.1256 -0.5545
  480SOL    HW1 1439   0.119   2.087   2.989 -0.0586 -1.5113 -1.3257
  480SOL    HW2 1440   0.105   2.154   2.829  0.0356  0.5185 -1.9288
  481SOL     OW 1441   1.517   3.012   2.168 -0.6180  0.1668 -0.1655
  481SOL    HW1 1442   1.565   2.960   2.243 -0.7157  4.0869  0.7753
  481SOL    HW2 1443   1.588   3.071   2.123  2.5673 -2.6378 -0.3791
  482SOL     OW 1444   1.735   1.795   3.037 -0.2456  0.0217  0.0205
  482SOL    HW1 1445   1.731   1.730   0.013  0.9076  0.7970  2.6874
  482SOL    HW2 1446   1.668   1.775   2.966 -1.8177 -0.6548 -2.3729
  483SOL     OW 1447   1.057   2.650   2.549  0.1552  0.0366  0.4725
  483SOL    HW1 1448   1.107   2.564   2.545 -1.4999  1.5224 -1.1332
  483SOL    HW2 1449   1.122   2.727   2.569 -3.2964 -1.0369 -2.1686
  484SOL     OW 1450   0.689   2.871   0.944 -0.0744 -0.6210 -0.2990
  484SOL    HW1 1451   0.681   2.971   0.973  2.0994  1.2616 -1.0213
  484SOL    HW2 1452   0.597   2.822   0.948 -1.7819  0.0572  3.0414
  485SOL     OW 1453   2.137   0.757   0.602 -0.1789 -0.3443  0.3424
  485SOL    HW1 1454   2.071   0.827   0.605  1.0377 -1.4975 -0.0928
  485SOL    HW2 1455   2.160   0.730   0.510 -0.2786 -1.0517  0.0489
  486SOL     OW 1456   2.033   2.927   1.919 -0.0394  0.0645  0.1843
  486SOL    HW1 1457   2.084   2.843   1.937  1.9744  2.9766  0.9937
  486SOL    HW2 1458   1.933   2.920   1.912  3.1085  0.6781 -3.0258
  487SOL     OW 1459   1.118   2.134   0.666  0.8159  0.5996 -0.5559
  487SOL    HW1 1460   1.145   2.219   0.613  0.5247  0.2015 -0.7029
  487SOL    HW2 1461   1.033   2.092   0.627 -1.4734 -0.2391 -2.1148
  488SOL     OW 1462   1.949   0.296   0.159 -0.0454 -0.1427  0.8398
  488SOL    HW1 1463   1.955   0.295   0.262  0.2898 -3.3450  1.3337
  488SOL    HW2 1464   1.996   0.379   0.117  1.8642  0.4033 -0.6715
  489SOL     OW 1465   2.006   2.965   0.563  0.2442 -0.0133  0.7374
  489SOL    HW1 1466   1.953   3.031   0.616  0.0752  2.3868 -1.3619
  489SOL    HW2 1467   1.983   2.970   0.463 -0.8307 -2.8490 -1.8777
  490SOL     OW 1468   1.621   2.818   2.928  0.0824 -0.5733  0.4962
  490SOL    HW1 1469   1.714   2.852   2.950 -1.9139 -0.0534 -0.2617
  490SOL    HW2 1470   1.568   2.817   3.017 -1.6803 -1.9420  1.5814
  491SOL     OW 1471   0.759   0.378   1.121  0.2306  0.0911  0.1917
  491SOL    HW1 1472   0.812   0.293   1.136 -0.4670 -1.3779  1.3462
  491SOL    HW2 1473   0.692   0.394   1.197 -0.3084 -0.5816  1.2438
  492SOL     OW 1474   1.701   3.086   0.257  0.0163 -0.2201  0.1811
  492SOL    HW1 1475   1.635   3.028   0.310  1.9309 -2.1168 -1.2423
  492SOL    HW2 1476   1.795   3.046   0.253  1.2308 -0.9940 -1.7173
  493SOL     OW 1477   1.893   2.196   2.788  0.2173  0.2731 -0.2106
  493SOL    HW1 1478   1.839   2.280   2.766 -2.2962  2.5716 -0.4140
  493SOL    HW2 1479   1.911   2.185   2.888 -0.0549  1.0218  1.4167
  494SOL     OW 1480   0.287   1.199   0.859 -0.0740 -0.2150 -0.1076
  494SOL    HW1 1481   0.321   1.109   0.893  0.2350 -2.0488 -1.9470
  494SOL    HW2 1482   0.210   1.182   0.796 -1.0979  0.2724  1.0989
  495SOL     OW 1483   2.997   0.157   1.675  0.5837 -0.5409  0.2914
  495SOL    HW1 1484   3.093   0.186   1.660 -0.6216 -0.6853  1.9037
  495SOL    HW2 1485   2.964   0.069   1.629 -1.8340 -1.8076 -1.4616
  496SOL     OW 1486   2.627   2.602   2.048 -0.1928  0.6500 -0.4651
  496SOL    HW1 1487   2.726   2.601   2.022  0.2289 -2.1875  1.3773
  496SOL    HW2 1488   2.598   2.506   2.076  1.4355  0.6857  4.9537
  497SOL     OW 1489   1.617   1.181   2.527  0.5750  0.7666 -0.0528
  497SOL    HW1 1490   1.571   1.238   2.460 -1.7599  1.0542 -0.8290
  497SOL    HW2 1491   1.590   1.083   2.517 -0.4390 -0.1415  0.1822
  498SOL     OW 1492   0.572   1.744   0.789 -0.7046 -0.3780 -0.0441
  498SOL    HW1 1493   0.558   1.783   0.880  1.3801 -3.2084 -1.3856
  498SOL    HW2 1494   0.547   1.812   0.715  0.7263  0.3127 -4.1201
  499SOL     OW 1495   0.028   1.772   1.097  0.0170 -0.1727  0.1238
  499SOL    HW1 1496   3.044   1.802   1.131  2.9284  1.4128  1.1262
  499SOL    HW2 1497   0.096   1.802   1.164  2.0274  0.8007  1.6003
  500SOL     OW 1498   1.353   2.428   0.088  0.0990  0.6524  0.1884
  500SOL    HW1 1499   1.448   2.404   0.069 -3.9631  1.1089  1.9388
  500SOL    HW2 1500   1.342   2.460   0.182  0.2835 -0.6546 -1.7523
  501SOL     OW 1501   2.190   2.737   0.940 -0.0933 -0.6693  0.1214
  501SOL    HW1 1502   2.178   2.645   0.984  2.2742 -3.0324  4.1168
  501SOL    HW2 1503   2.115   2.746   0.869  0.7318 -0.0837 -1.2312
  502SOL     OW 1504   0.121   0.906   1.733 -0.6645  0.8015  0.3884
  502SOL    HW1 1505   0.123   0.894   1.630  0.1522  1.3153 -0.6547
  502SOL    HW2 1506   0.191   0.848   1.777  1.7531  0.5904  0.3713
  503SOL     OW 1507   2.079   0.064   1.676  0.3833  0.0529  0.0537
  503SOL    HW1 1508   2.027   0.002   1.609  2.9359 -0.0677  0.7694
  503SOL    HW2 1509   2.181   0.053   1.665  1.8190  1.8640 -0.4847
  504SOL     OW 1510   2.079   0.895   1.938 -0.0417  0.2696  0.2267
  504SOL    HW1 1511   2.005   0.836   1.977 -3.5221  0.8901  0.1779
  504SOL    HW2 1512   2.072   0.989   1.972  3.2942 -4.2150 -2.6467
  505SOL     OW 1513   1.137   0.053   2.185 -0.2463 -0.2549  0.0075
  505SOL    HW1 1514   1.154   0.049   2.085 -1.3070 -1.7558  0.3292
  505SOL    HW2 1515   1.168   3.069   2.228 -1.9124  0.7537  0.6299
  506SOL     OW 1516   0.537   0.147   1.918  0.0693 -0.1908 -0.0736
  506SOL    HW1 1517   0.513   0.210   1.991 -0.0868 -1.4553 -2.0381
  506SOL    HW2 1518   0.462   0.127   1.853 -0.9081  0.3421 -1.3834
  507SOL     OW 1519   1.654   0.120   2.965 -0.5140 -0.0132  0.1355
  507SOL    HW1 1520   1.648   0.186   3.047 -0.6541 -0.8073  1.1005
  507SOL    HW2 1521   1.597   0.043   2.983  2.6041  2.0758  0.8789
  508SOL     OW 1522   2.327   0.669   2.571  0.9412 -0.7675  0.1832
  508SOL    HW1 1523   2.303   0.571   2.565  3.4338  1.4212 -0.8814
  508SOL    HW2 1524   2.431   0.680   2.576  3.8244  0.9490  1.6908
  509SOL     OW 1525   0.785   1.500   1.927 -0.2716  0.3559  0.3974
  509SOL    HW1 1526   0.743   1.511   2.023 -2.0017  1.1248  1.8094
  509SOL    HW2 1527   0.781   1.579   1.869  2.8535 -1.9808  2.7930
  510SOL     OW 1528   3.019   0.306   0.940  0.2768 -0.7692 -0.3765
  510SOL    HW1 1529   3.046   0.400   0.928 -1.0473 -3.0526  1.1546
  510SOL    HW2 1530   2.951   0.282   0.870 -1.6186 -0.1487  0.3037
  511SOL     OW 1531   1.704   1.422   1.084 -0.2381 -0.7228 -0.0622
  511SOL    HW1 1532   1.638   1.498   1.074  1.3347  1.4648 -2.5432
  511SOL    HW2 1533   1.801   1.449   1.090 -1.2844 -2.1651 -1.7684
  512SOL     OW 1534   0.648   1.248   0.312  0.1912  0.1581 -0.2519
  512SOL    HW1 1535   0.617   1.151   0.300  1.3630 -0.9212  1.8304
  512SOL    HW2 1536   0.704   1.249   0.397 -1.9424 -0.0091  0.1586
  513SOL     OW 1537   0.240   2.380   0.766  0.1574 -0.4598  0.0505
  513SOL    HW1 1538   0.137   2.395   0.739 -2.3547 -1.9769 -0.9215
  513SOL    HW2 1539   0.300   2.381   0.683  0.3360  1.7366  0.9214
  514SOL     OW 1540   0.049   2.111   0.039  0.2727  0.1140 -0.2683
  514SOL    HW1 1541   3.060   2.071   0.053 -1.3972 -0.7475 -1.5470
  514SOL    HW2 1542   0.117   2.090   0.109 -2.0451 -1.2848 -0.5421
  515SOL     OW 1543   2.794   0.263   0.150  0.0536  0.2958  0.8905
  515SOL    HW1 1544   2.762   0.167   0.168 -0.6201 -2.0842  2.1742
  515SOL    HW2 1545   2.869   0.275   0.218  1.7618  0.2185  0.9732
  516SOL     OW 1546   2.065   2.964   1.039  0.3078 -0.1982  0.0774
  516SOL    HW1 1547   2.094   2.988   1.136  1.7650 -2.2655  1.6391
  516SOL    HW2 1548   2.120   2.888   1.000  2.0456 -0.3528 -1.4449
  517SOL     OW 1549   1.330   1.598   0.110  0.2715 -0.1640 -0.1257
  517SOL    HW1 1550   1.330   1.532   0.187  1.4292  0.5152  0.7876
  517SOL    HW2 1551   1.300   1.560   0.022  1.3866  0.0849 -0.2759
  518SOL     OW 1552   1.305   0.662   1.418 -0.1422  0.5149  0.1643
  518SOL    HW1 1553   1.295   0.585   1.355  2.5707  0.3748  0.5117
  518SOL    HW2 1554   1.218   0.682   1.471  0.5933  1.6523 -1.4381
  519SOL     OW 1555   2.825   2.191   0.361 -0.7442 -0.1567 -0.6549
  519SOL    HW1 1556   2.733   2.193   0.315  1.3279  2.4436  1.6388
  519SOL    HW2 1557   2.811   2.207   0.463 -1.5066  0.4883  4.1621
  520SOL     OW 1558   2.088   2.433   1.816  0.3450  0.6851  0.1357
  520SOL    HW1 1559   2.159   2.421   1.746  0.4556  0.2462  0.2792
  520SOL    HW2 1560   2.121   2.460   1.909 -0.2444  0.7604  0.7054
  521SOL     OW 1561   1.265   2.903   2.271  0.3384  0.0549  0.4847
  521SOL    HW1 1562   1.296   2.926   2.364 -0.2551  0.7407  0.9548
  521SOL    HW2 1563   1.333   2.941   2.203  0.6363 -1.8405  0.8681
  522SOL     OW 1564   2.988   0.063   1.945 -0.0544 -0.2898 -0.0252
  522SOL    HW1 1565   3.066   0.001   1.960 -1.1128  1.7100 -1.9147
  522SOL    HW2 1566   2.998   0.109   1.856  0.2615 -2.3444 -1.3884
  523SOL     OW 1567   1.182   1.897   1.738 -0.7198 -0.1640 -0.1957
  523SOL    HW1 1568   1.094   1.850   1.737  0.7942 -0.0095  3.4055
  523SOL    HW2 1569   1.183   1.969   1.670  1.4322 -2.6663  1.3162
  524SOL     OW 1570   2.007   2.299   0.264  0.3662  0.2154  0.2310
  524SOL    HW1 1571   2.100   2.292   0.228 -0.1810 -2.2985  0.4080
  524SOL    HW2 1572   1.968   2.394   0.253 -0.3356  2.4463 -0.9110
  525SOL     OW 1573   2.925   0.958   0.438 -0.1490  0.2097 -0.5042
  525SOL    HW1 1574   3.023   0.983   0.427 -0.1906  1.3711 -1.3969
  525SOL    HW2 1575   2.921   0.858   0.467 -1.7429  3.7428 -1.9101
  526SOL     OW 1576   1.146   2.980   0.919  0.3836 -0.2750 -0.3636
  526SOL    HW1 1577   1.220   2.954   0.853 -1.0392  0.2675 -0.2694
  526SOL    HW2 1578   1.077   2.900   0.924 -1.7822 -2.3208 -2.1458
  527SOL     OW 1579   2.382   1.394   0.674  0.0077 -0.3233  0.2260
  527SOL    HW1 1580   2.389   1.299   0.633  2.7931  0.6057 -1.9305
  527SOL    HW2 1581   2.438   1.458   0.616  1.6407 -0.4057  1.7084
  528SOL     OW 1582   0.448   0.822   2.527 -0.0763 -0.2721  0.1469
  528SOL    HW1 1583   0.523   0.870   2.475  0.7068 -0.7448  3.2282
  528SOL    HW2 1584   0.358   0.803   2.479  0.2776  0.0554 -0.6283
  529SOL     OW 1585   0.518   1.329   3.004  0.2373 -0.0208  0.5943
  529SOL    HW1 1586   0.461   1.376   2.932  1.0509  0.7338 -0.2533
  529SOL    HW2 1587   0.480   1.237   3.028 -1.9646 -1.2977  2.2008
  530SOL     OW 1588   1.559   1.155   1.933 -0.1593  0.7812  0.0913
  530SOL    HW1 1589   1.655   1.151   1.911 -3.8981 -1.7695  3.7268
  530SOL    HW2 1590   1.535   1.081   2.000 -0.1875  1.2028 -0.9834
  531SOL     OW 1591   1.301   2.161   2.685  0.1575  0.2572  0.3877
  531SOL    HW1 1592   1.208   2.117   2.714 -0.3344 -0.1787  1.3774
  531SOL    HW2 1593   1.380   2.114   2.735 -0.0266  0.1471 -0.0202
  532SOL     OW 1594   2.252   0.666   0.064  0.0762 -0.5180  0.1851
  532SOL    HW1 1595   2.292   0.762   0.054 -0.7891  1.5383 -1.6965
  532SOL    HW2 1596   2.309   0.591   0.025 -1.7590  2.3867 -0.6916
  533SOL     OW 1597   3.073   0.419   1.931 -0.2034  0.1481 -0.5362
  533SOL    HW1 1598   3.106   0.415   1.835 -2.0870  1.9202  2.3433
  533SOL    HW2 1599   3.008   0.500   1.944 -0.8776  0.6034  3.3679
  534SOL     OW 1600   1.686   0.240   0.107 -0.0734  0.3627  0.3255
  534SOL    HW1 1601   1.640   0.153   0.133  1.7075  1.3912 -0.0437
  534SOL    HW2 1602   1.787   0.234   0.127  3.3645 -1.5564  1.4516
  535SOL     OW 1603   0.577   0.333   0.230 -0.0866  0.2350  0.4877
  535SOL    HW1 1604   0.635   0.313   0.149  0.6185 -0.3840  0.6162
  535SOL    HW2 1605   0.635   0.364   0.305  0.6322 -1.7631 -0.3632
  536SOL     OW 1606   0.454   1.605   1.785  0.0363  0.8446 -0.0929
  536SOL    HW1 1607   0.462   1.653   1.873  0.4600 -0.3644  0.3683
  536SOL    HW2 1608   0.537   1.603   1.730 -2.0987  2.2631  0.8013
  537SOL     OW 1609   0.605   2.600   1.990 -0.3833  0.0409  0.3961
  537SOL    HW1 1610   0.604   2.603   1.886  0.0591  1.5776 -1.3862
  537SOL    HW2 1611   0.534   2.659   2.032 -0.5329  0.2864  0.7873
  538SOL     OW 1612   3.073   1.743   0.212 -0.4067  0.2446 -0.1562
  538SOL    HW1 1613   0.057   1.761   0.165  0.4353 -0.0416 -1.0404
  538SOL    HW2 1614   2.988   1.766   0.162  0.4290 -1.1210  2.0820
  539SOL     OW 1615   2.716   0.738   2.812  0.3935 -0.1729 -0.1445
  539SOL    HW1 1616   2.660   0.653   2.810 -0.8039  0.4831 -0.2586
  539SOL    HW2 1617   2.810   0.734   2.856 -0.5480 -0.8253 -0.3613
  540SOL     OW 1618   1.662   1.003   0.060  0.0069 -0.0417  0.3026
  540SOL    HW1 1619   1.629   1.027   3.075 -1.6250  0.6368 -0.5329
  540SOL    HW2 1620   1.579   0.974   0.112  0.0478 -2.5068 -0.9798
  541SOL     OW 1621   0.732   0.448   1.711 -0.4189  0.0599  0.0806
  541SOL    HW1 1622   0.753   0.477   1.806  0.5422  0.1577  1.2553
  541SOL    HW2 1623   0.670   0.512   1.657  1.1067  0.9448  2.5497
  542SOL     OW 1624   1.850   2.480   2.256  0.4121 -0.2421 -0.4076
  542SOL    HW1 1625   1.852   2.462   2.155 -2.1268  2.4409  2.8892
  542SOL    HW2 1626   1.921   2.430   2.311  0.4935  0.2452  0.2273
  543SOL     OW 1627   0.875   2.821   1.163 -0.2920  0.3360 -0.0838
  543SOL    HW1 1628   0.805   2.845   1.093  2.2844  0.4675  2.5305
  543SOL    HW2 1629   0.954   2.756   1.129  2.8986 -1.4550  0.7484
  544SOL     OW 1630   2.865   1.642   2.124 -0.4884  0.4370  0.1486
  544SOL    HW1 1631   2.859   1.543   2.110 -2.6757  2.1510 -0.6209
  544SOL    HW2 1632   2.829   1.660   2.218  0.7911 -0.0169 -0.4645
  545SOL     OW 1633   1.665   2.008   1.435 -0.0015 -0.3205 -0.4749
  545SOL    HW1 1634   1.599   2.009   1.353 -3.0902  0.7437 -2.7657
  545SOL    HW2 1635   1.644   1.931   1.499  1.1327 -0.4608  1.4250
  546SOL     OW 1636   0.363   0.283   2.442 -1.0214 -0.2315 -0.1423
  546SOL    HW1 1637   0.289   0.219   2.406 -0.8610  1.6122 -1.4426
  546SOL    HW2 1638   0.353   0.290   2.541 -0.4229 -1.5168 -2.4608
  547SOL     OW 1639   1.327   0.244   0.543 -0.1956 -0.0865  0.2802
  547SOL    HW1 1640   1.234   0.283   0.554  1.2763 -0.1229 -1.8806
  547SOL    HW2 1641   1.377   0.244   0.634 -3.8360 -0.6458  2.1845
  548SOL     OW 1642   1.505   2.077   2.926 -0.1255 -0.5537  0.8066
  548SOL    HW1 1643   1.445   2.035   2.994  3.4403  0.1626 -0.8881
  548SOL    HW2 1644   1.584   2.125   2.974  2.7062 -1.5159 -1.9802
  549SOL     OW 1645   1.891   0.990   0.189  0.3227 -0.4797 -0.5125
  549SOL    HW1 1646   1.803   1.002   0.133 -1.6603 -1.0956 -0.5170
  549SOL    HW2 1647   1.860   0.965   0.287 -4.1179 -1.6312  4.0302
  550SOL     OW 1648   2.475   1.979   0.435  0.5018 -0.3561 -0.5050
  550SOL    HW1 1649   2.417   1.920   0.378  1.5332 -1.7811 -2.3243
  550SOL    HW2 1650   2.535   2.038   0.376 -0.8199 -0.6631 -1.1467
  551SOL     OW 1651   1.496   0.199   1.630  0.0419  0.2526 -0.0815
  551SOL    HW1 1652   1.590   0.189   1.663 -1.3472  0.1905  0.4093
  551SOL    HW2 1653   1.470   0.119   1.573 -0.6190  2.4651  1.1402
  552SOL     OW 1654   0.029   2.305   2.784 -0.5547  0.1191 -0.0397
  552SOL    HW1 1655   3.091   2.272   2.703  0.7373  1.9015  1.2082
  552SOL    HW2 1656   3.059   2.336   2.849 -1.6148 -0.7812  2.0452
  553SOL     OW 1657   2.902   2.465   0.800  0.3161 -0.1408 -0.1132
  553SOL    HW1 1658   2.977   2.410   0.758 -1.9426  0.1550  0.0455
  553SOL    HW2 1659   2.862   2.422   0.882  2.6493  0.9853  0.1298
  554SOL     OW 1660   2.322   1.731   1.943  0.2389  0.0903  0.3028
  554SOL    HW1 1661   2.276   1.721   2.032  0.7033  0.4723  0.1048
  554SOL    HW2 1662   2.270   1.676   1.876  2.1119  0.6391 -0.8535
  555SOL     OW 1663   1.489   2.102   2.237  0.4138  0.5004  0.1974
  555SOL    HW1 1664   1.431   2.020   2.214  2.4094  0.6310  0.5542
  555SOL    HW2 1665   1.426   2.184   2.225 -0.0820 -0.9635  0.1368
  556SOL     OW 1666   1.259   1.604   1.414 -0.4798  0.0163 -0.3222
  556SOL    HW1 1667   1.281   1.607   1.515 -1.4389  1.8990  1.8729
  556SOL    HW2 1668   1.290   1.513   1.375 -0.6459 -0.8516 -1.0846
  557SOL     OW 1669   1.475   3.084   1.472 -0.1672 -0.0275 -0.5846
  557SOL    HW1 1670   1.561   3.038   1.439 -0.2468 -1.4895 -0.8226
  557SOL    HW2 1671   1.399   3.018   1.483  1.5529  0.4573  0.2948
  558SOL     OW 1672   0.599   3.075   2.174  0.1995  0.1027 -0.0923
  558SOL    HW1 1673   0.514   3.064   2.120  2.6595  3.5471  0.6441
  558SOL    HW2 1674   0.587   0.044   2.240  1.8600 -0.6669  1.7557
  559SOL     OW 1675   1.890   2.544   0.252  0.5265 -0.2022  0.2784
  559SOL    HW1 1676   1.869   2.621   0.192 -1.7296 -2.3436  2.0747
  559SOL    HW2 1677   1.836   2.552   0.339 -1.0590  0.3073  3.0461
  560SOL     OW 1678   1.413   2.128   0.454  0.1220 -0.4312 -0.7466
  560SOL    HW1 1679   1.486   2.082   0.509  3.2087 -0.6660  1.0203
  560SOL    HW2 1680   1.450   2.161   0.366 -0.9112  1.3367  0.0444
  561SOL     OW 1681   1.295   0.236   3.020  0.2312  0.0668  0.1236
  561SOL    HW1 1682   1.226   0.315   3.030 -0.4084  0.1162  0.3856
  561SOL    HW2 1683   1.368   0.261   2.954  0.7561  0.7821 -2.0078
  562SOL     OW 1684   0.495   1.687   2.064  0.0628 -0.3452  0.5914
  562SOL    HW1 1685   0.519   1.591   2.082 -1.0106 -0.0745 -0.9849
  562SOL    HW2 1686   0.439   1.724   2.142  1.7264  0.6796 -0.0388
  563SOL     OW 1687   1.367   1.829   2.491  0.1579 -0.0446 -0.0977
  563SOL    HW1 1688   1.457   1.801   2.517 -4.3384  3.3411  2.0814
  563SOL    HW2 1689   1.371   1.863   2.394 -1.3608 -1.0258 -0.7410
  564SOL     OW 1690   3.004   1.121   0.984 -0.0262 -0.6552  0.7853
  564SOL    HW1 1691   2.948   1.035   0.986  2.7982 -1.4133 -0.8833
  564SOL    HW2 1692   2.946   1.203   0.968  1.1504 -0.7617 -0.4044
  565SOL     OW 1693   0.427   1.117   0.045  0.3184  0.2763 -0.1394
  565SOL    HW1 1694   0.331   1.158   0.036 -1.6013  0.8154 -0.8984
  565SOL    HW2 1695   0.433   1.059   0.132 -0.0128 -2.6278  0.2366
  566SOL     OW 1696   2.380   2.966   2.624  0.0847  0.1565  0.4007
  566SOL    HW1 1697   2.416   3.060   2.624 -0.1883 -2.8391 -0.0627
  566SOL    HW2 1698   2.351   2.946   2.720 -1.4182 -2.6030  1.0607
  567SOL     OW 1699   1.525   1.222   1.126 -0.4065  0.3435 -0.5704
  567SOL    HW1 1700   1.590   1.299   1.106 -2.8996 -1.6725  0.3771
  567SOL    HW2 1701   1.561   1.155   1.194  0.1239 -0.0060 -1.1199
  568SOL     OW 1702   1.522   1.249   2.780  0.2360 -0.7044 -0.0862
  568SOL    HW1 1703   1.435   1.211   2.754  0.3482  0.5722  1.8509
  568SOL    HW2 1704   1.584   1.241   2.697  4.0076  0.9487 -3.0733
  569SOL     OW 1705   2.376   1.689   3.085  0.1861 -0.2470  0.3009
  569SOL    HW1 1706   2.432   1.751   3.031 -2.2980 -1.2001  1.0007
  569SOL    HW2 1707   2.277   1.690   3.062  1.0187  0.7593 -2.4887
  570SOL     OW 1708   3.067   2.498   1.671 -0.0546  0.4994 -0.1983
  570SOL    HW1 1709   0.004   2.572   1.617  0.0726  1.5388  0.5784
  570SOL    HW2 1710   0.013   2.475   1.754 -2.3836 -1.2699 -0.8459
  571SOL     OW 1711   2.761   1.939   1.739  0.2285 -0.5592 -0.1103
  571SOL    HW1 1712   2.786   1.993   1.819  0.3486  0.8571  0.0762
  571SOL    HW2 1713   2.707   1.850   1.758 -1.2459  0.1135 -1.2512
  572SOL     OW 1714   1.767   2.237   0.355 -0.4193 -0.3423 -0.1007
  572SOL    HW1 1715   1.713   2.160   0.325  0.1981 -0.2938  2.7761
  572SOL    HW2 1716   1.862   2.224   0.322  0.6835 -1.3695  1.7885
  573SOL     OW 1717   1.387   1.818   0.463 -0.1210  0.0844 -0.2531
  573SOL    HW1 1718   1.460   1.831   0.532 -1.3361 -0.2147  1.2982
  573SOL    HW2 1719   1.317   1.751   0.500 -3.4214  0.5916  4.0580
  574SOL     OW 1720   1.820   0.163   1.513  0.6362  0.4506 -0.6059
  574SOL    HW1 1721   1.890   0.088   1.501 -1.4437  0.3664 -1.2593
  574SOL    HW2 1722   1.807   0.184   1.615  1.9535  3.1020  0.5073
  575SOL     OW 1723   0.592   1.346   1.503 -0.1521 -0.3192 -0.2003
  575SOL    HW1 1724   0.688   1.381   1.508  1.5072  0.4319 -0.2804
  575SOL    HW2 1725   0.581   1.283   1.426 -2.1883  0.9223  0.1128
  576SOL     OW 1726   2.640   0.684   1.396 -0.0470  0.0246 -0.6337
  576SOL    HW1 1727   2.697   0.598   1.379  0.6683 -1.8006  0.2300
  576SOL    HW2 1728   2.609   0.716   1.308  0.1985  0.1190  0.9488
  577SOL     OW 1729   1.631   0.907   2.462  0.5720 -0.4125 -0.4910
  577SOL    HW1 1730   1.554   0.861   2.509 -0.7202  0.1389  2.0580
  577SOL    HW2 1731   1.629   0.887   2.360 -0.1990  0.8677 -2.8346
  578SOL     OW 1732   2.216   1.357   2.551  0.5371 -0.8263 -0.2163
  578SOL    HW1 1733   2.149   1.351   2.624 -1.3400 -1.3476 -0.1765
  578SOL    HW2 1734   2.176   1.398   2.469 -1.6110 -0.3362  1.2180
  579SOL     OW 1735   0.902   1.928   1.539  0.5568  0.5514 -0.4665
  579SOL    HW1 1736   0.861   2.021   1.558 -1.4243 -0.3713 -1.5054
  579SOL    HW2 1737   0.894   1.915   1.437 -0.0642 -0.4572 -1.0327
  580SOL     OW 1738   1.583   2.054   0.215  0.4125  0.4565  0.0007
  580SOL    HW1 1739   1.595   2.099   0.127 -1.2658 -2.4717  1.9345
  580SOL    HW2 1740   1.535   1.964   0.204  0.2705 -1.8724  0.9465
  581SOL     OW 1741   0.899   0.724   1.982 -0.3737  0.0459  0.1218
  581SOL    HW1 1742   0.834   0.646   1.968 -0.5385 -0.6933 -1.0864
  581SOL    HW2 1743   0.948   0.721   2.073 -0.4512 -0.9007  2.4084
  582SOL     OW 1744   0.918   1.304   1.251  0.1155 -0.6036 -0.2706
  582SOL    HW1 1745   0.906   1.204   1.263 -1.4644  0.9997  1.8578
  582SOL    HW2 1746   0.907   1.344   1.344 -3.8353 -0.9978  0.9310
  583SOL     OW 1747   0.679   1.097   1.907  0.0288 -0.0653  0.0955
  583SOL    HW1 1748   0.626   1.174   1.872  2.6339  0.8846 -0.3677
  583SOL    HW2 1749   0.695   1.105   2.006  0.8206 -0.5878 -1.5978
  584SOL     OW 1750   2.043   2.385   0.555  0.0257 -0.0240  0.0513
  584SOL    HW1 1751   2.080   2.337   0.639  2.5650 -0.7101 -1.7095
  584SOL    HW2 1752   2.071   2.346   0.471  2.7688 -0.1081  2.1091
  585SOL     OW 1753   1.907   0.041   2.897 -0.2006 -0.7304  0.3953
  585SOL    HW1 1754   1.814   0.082   2.917 -1.5388 -1.3599  1.6094
  585SOL    HW2 1755   1.932   0.046   2.795  0.3900  2.0262 -1.7006
  586SOL     OW 1756   2.953   1.981   0.617 -0.2792 -0.2445 -0.0211
  586SOL    HW1 1757   3.037   2.035   0.650 -1.2094  0.6142  2.4714
  586SOL    HW2 1758   2.869   2.034   0.618  1.2663  1.3653  0.2851
  587SOL     OW 1759   1.828   1.759   0.420 -0.2268 -0.2467  0.0306
  587SOL    HW1 1760   1.911   1.711   0.457  0.4938  0.9585  1.5471
  587SOL    HW2 1761   1.853   1.849   0.376 -0.8771 -0.5033 -1.9132
  588SOL     OW 1762   0.183   0.224   0.692 -0.2769  0.4232 -0.5365
  588SOL    HW1 1763   0.165   0.180   0.783 -2.3870  1.0416  1.0636
  588SOL    HW2 1764   0.279   0.215   0.658 -2.0769 -1.3225  1.1587
  589SOL     OW 1765   1.334   1.259   0.926  0.1451  0.2909  0.2886
  589SOL    HW1 1766   1.295   1.178   0.878 -0.9938 -0.6745 -2.4435
  589SOL    HW2 1767   1.407   1.236   0.991 -1.5857  0.2729 -0.6723
  590SOL     OW 1768   1.269   1.272   0.049  0.0131  0.3182 -0.1066
  590SOL    HW1 1769   1.357   1.258   0.099  0.7601  2.1797 -0.0145
  590SOL    HW2 1770   1.200   1.204   0.079  2.7589  2.2311  0.4819
  591SOL     OW 1771   2.706   2.601   2.464 -0.2646 -0.0717 -0.2288
  591SOL    HW1 1772   2.783   2.662   2.481  0.6131 -1.2386  0.1140
  591SOL    HW2 1773   2.638   2.645   2.402  1.4329  1.8216  1.0067
  592SOL     OW 1774   1.903   1.976   1.252  0.4291  0.5711 -0.2471
  592SOL    HW1 1775   1.939   1.881   1.261  1.4770 -1.1975 -0.1840
  592SOL    HW2 1776   1.818   1.985   1.307 -1.6336  0.7629 -1.5114
  593SOL     OW 1777   0.894   0.135   1.132 -0.6525  0.0785 -0.0889
  593SOL    HW1 1778   0.946   0.093   1.212 -0.7842 -1.4452  2.1896
  593SOL    HW2 1779   0.956   0.137   1.050 -0.6865 -0.3820 -1.0405
  594SOL     OW 1780   2.979   0.659   2.375  0.6025 -0.3044 -0.0115
  594SOL    HW1 1781   3.047   0.655   2.303 -0.1008  0.0652  1.0123
  594SOL    HW2 1782   2.924   0.572   2.378 -0.4707 -2.7963  2.5639
  595SOL     OW 1783   0.842   2.675   1.385 -0.2147  0.0031  0.2779
  595SOL    HW1 1784   0.864   2.758   1.323  3.3494  1.9329 -0.1051
  595SOL    HW2 1785   0.755   2.636   1.361  4.0167  0.4185 -0.2628
  596SOL     OW 1786   0.095   0.836   1.477  0.2401  0.0256  0.3131
  596SOL    HW1 1787   0.088   0.739   1.449 -1.1326  1.3156  0.1758
  596SOL    HW2 1788   3.104   0.876   1.471 -0.4680 -0.3809  2.6839
  597SOL     OW 1789   1.670   1.668   0.201 -0.8011 -0.3315  0.4098
  597SOL    HW1 1790   1.592   1.730   0.207  2.9917  0.5256 -1.2501
  597SOL    HW2 1791   1.749   1.699   0.251 -1.7220  0.1174 -0.9930
  598SOL     OW 1792   0.493   2.815   1.554  0.0418 -0.0666 -0.0569
  598SOL    HW1 1793   0.513   2.861   1.465 -0.0917  0.6237 -1.2689
  598SOL    HW2 1794   0.532   2.718   1.553  2.3227 -3.8010 -1.0239
  599SOL     OW 1795   2.498   1.886   2.922  1.1538  0.3943 -0.9864
  599SOL    HW1 1796   2.405   1.918   2.890 -1.0311  0.8344 -1.5710
  599SOL    HW2 1797   2.569   1.893   2.854 -0.8835  0.4010  2.1461
  600SOL     OW 1798   0.769   0.867   0.204  0.0115 -0.5797  0.6616
  600SOL    HW1 1799   0.849   0.861   0.262 -2.0222  0.4183  0.0343
  600SOL    HW2 1800   0.777   0.956   0.148  0.2261  3.0822 -1.3488
  601SOL     OW 1801   0.828   0.673   0.612 -0.3453 -0.2462  0.2692
  601SOL    HW1 1802   0.846   0.765   0.654 -1.2665  0.4027  3.3310
  601SOL    HW2 1803   0.911   0.609   0.606 -3.2225  0.7710 -1.9819
  602SOL     OW 1804   1.345   2.900   0.748  0.2023  0.3083  0.2528
  602SOL    HW1 1805   1.410   2.978   0.762 -0.2686  1.3515  0.7154
  602SOL    HW2 1806   1.339   2.880   0.649 -0.9169  1.0240 -0.7393
  603SOL     OW 1807   0.724   2.837   2.169 -0.4781 -0.0191 -0.1776
  603SOL    HW1 1808   0.663   2.917   2.163  1.9656  2.8366 -1.3077
  603SOL    HW2 1809   0.785   2.837   2.089 -2.6515 -1.2863 -0.1983
  604SOL     OW 1810   2.934   2.975   2.429  0.2070 -0.3470  0.4261
  604SOL    HW1 1811   3.009   2.957   2.359  0.0395  0.7645 -1.9222
  604SOL    HW2 1812   2.929   2.915   2.508  0.6641 -1.8442 -1.4887
  605SOL     OW 1813   2.631   2.099   1.329 -0.2116 -0.1826  0.0040
  605SOL    HW1 1814   2.656   2.124   1.425  1.6789  2.0173  0.0602
  605SOL    HW2 1815   2.565   2.020   1.331  1.3332 -2.2393 -0.9592
  606SOL     OW 1816   0.395   1.484   2.807  0.3018  0.0390  0.9554
  606SOL    HW1 1817   0.441   1.571   2.831  0.8193  2.2710  0.3187
  606SOL    HW2 1818   0.295   1.502   2.798 -0.0527  3.0920  0.1713
  607SOL     OW 1819   0.875   3.046   0.486  0.3830 -0.5619  0.5386
  607SOL    HW1 1820   0.777   3.038   0.460  1.7887  0.2959  1.9770
  607SOL    HW2 1821   0.922   0.013   0.426  1.4111 -0.4717  1.4382
  608SOL     OW 1822   1.844   1.347   2.323  0.1286 -0.4963  0.0485
  608SOL    HW1 1823   1.757   1.314   2.360  1.4322  2.3608 -0.6785
  608SOL    HW2 1824   1.836   1.349   2.218  1.4202  0.5866 -2.3778
  609SOL     OW 1825   0.115   0.121   0.953 -0.4534  0.5219 -0.0298
  609SOL    HW1 1826   0.155   0.131   1.046 -0.3892 -2.4500 -1.3859
  609SOL    HW2 1827   0.035   0.174   0.941  5.2569 -1.6552  2.5925
  610SOL     OW 1828   0.652   2.747   0.698 -0.3221  0.1075  0.2265
  610SOL    HW1 1829   0.713   2.756   0.617  0.3791  0.6904  0.5033
  610SOL    HW2 1830   0.678   2.798   0.780 -0.1481 -1.2081  1.8989
  611SOL     OW 1831   1.816   0.886   2.892  0.5023 -0.2114 -0.4237
  611SOL    HW1 1832   1.901   0.920   2.940  2.0146  1.8291  0.7551
  611SOL    HW2 1833   1.731   0.929   2.925  0.1434  0.7540  1.6864
  612SOL     OW 1834   0.793   2.301   2.191 -0.4386  0.9132  0.2100
  612SOL    HW1 1835   0.852   2.267   2.112  1.8095 -0.7461 -2.8063
  612SOL    HW2 1836   0.843   2.339   2.271  0.0736  1.6379 -0.0268
  613SOL     OW 1837   0.895   2.466   0.125 -0.5418  0.2536 -0.3788
  613SOL    HW1 1838   0.904   2.375   0.163  3.0571  1.7466 -1.6423
  613SOL    HW2 1839   0.854   2.462   0.035  1.5557 -0.3704  1.3121
  614SOL     OW 1840   2.773   2.755   1.380 -0.0462  0.0161  0.5043
  614SOL    HW1 1841   2.847   2.827   1.374 -0.4241  1.2299  1.1630
  614SOL    HW2 1842   2.803   2.675   1.331 -1.3905  1.6986  1.6073
  615SOL     OW 1843   2.200   1.253   0.079 -0.1188 -0.0330 -0.2865
  615SOL    HW1 1844   2.099   1.252   0.093  0.5737  2.3866  0.9708
  615SOL    HW2 1845   2.211   1.291   3.095 -2.7975 -1.6271  0.0634
  616SOL     OW 1846   1.703   0.159   0.436  0.2935  0.1317 -0.0030
  616SOL    HW1 1847   1.701   0.089   0.362  1.0485 -0.7753  1.2707
  616SOL    HW2 1848   1.620   0.217   0.425 -0.5181  0.9968  1.5377
  617SOL     OW 1849   1.084   0.837   3.011 -0.0015 -0.1224  0.1753
  617SOL    HW1 1850   1.175   0.852   2.968 -2.4198  1.4280 -1.1501
  617SOL    HW2 1851   1.078   0.751   3.068  0.8458 -2.0478 -1.0886
  618SOL     OW 1852   0.800   0.093   1.888  0.0136 -0.3173 -0.4724
  618SOL    HW1 1853   0.838   0.100   1.983  2.0610 -0.1390 -1.6958
  618SOL    HW2 1854   0.696   0.116   1.892 -0.9206 -1.7241  0.9176
  619SOL     OW 1855   2.850   1.136   1.446  0.2342 -0.4627  0.1059
  619SOL    HW1 1856   2.917   1.189   1.392  0.4288  0.5363 -5.0238
  619SOL    HW2 1857   2.801   1.195   1.512 -1.0347  0.7239  0.7777
  620SOL     OW 1858   2.148   1.023   2.649  0.4759 -0.6507  0.0616
  620SOL    HW1 1859   2.233   1.033   2.598  3.2993 -1.9128  0.6404
  620SOL    HW2 1860   2.078   0.977   2.597  0.9890 -0.6212  2.4090
  621SOL     OW 1861   2.540   2.828   1.250  0.2051  0.1916  0.4664
  621SOL    HW1 1862   2.547   2.818   1.150  0.8525 -0.8373 -0.1385
  621SOL    HW2 1863   2.627   2.794   1.294  4.2798 -0.5119  2.2096
  622SOL     OW 1864   1.407   0.852   2.612  0.1852 -0.3098 -0.5736
  622SOL    HW1 1865   1.315   0.834   2.575  0.4865  1.7705  0.7625
  622SOL    HW2 1866   1.407   0.940   2.665 -1.5222  0.0364  1.0924
  623SOL     OW 1867   1.160   0.474   2.962 -0.1682 -0.4737  0.2971
  623SOL    HW1 1868   1.084   0.468   2.894  2.6695  1.1165 -1.5285
  623SOL    HW2 1869   1.243   0.518   2.918  3.7223 -1.2588 -0.1360
  624SOL     OW 1870   1.781   0.697   0.102  0.2257 -0.1140  0.1836
  624SOL    HW1 1871   1.760   0.786   0.064  1.5257 -2.6885  1.0713
  624SOL    HW2 1872   1.868   0.662   0.066  2.0850 -1.6976  0.8853
  625SOL     OW 1873   1.061   1.285   1.010  0.5445  0.0562  0.1802
  625SOL    HW1 1874   1.157   1.257   0.995  0.9948 -0.8222  1.9425
  625SOL    HW2 1875   1.045   1.303   1.108 -0.0913 -0.0097 -2.5854
  626SOL     OW 1876   1.552   1.012   2.920  0.4442 -0.1509 -0.8251
  626SOL    HW1 1877   1.468   0.954   2.915  0.3005 -1.5041 -0.2197
  626SOL    HW2 1878   1.549   1.104   2.876  0.3858  0.0154  0.5220
  627SOL     OW 1879   1.245   0.317   2.199 -0.0719 -0.6862 -0.1250
  627SOL    HW1 1880   1.208   0.218   2.206 -2.0744  2.4891 -2.4546
  627SOL    HW2 1881   1.211   0.374   2.273 -0.6612 -0.2406  0.6746
  628SOL     OW 1882   2.568   0.089   2.315 -0.1486 -0.6752 -0.0089
  628SOL    HW1 1883   2.620   0.122   2.232  0.0788 -1.7376  1.6373
  628SOL    HW2 1884   2.537   0.163   2.373  0.1256  0.6706 -0.5727
  629SOL     OW 1885   0.744   0.784   2.866  0.3654  0.4875 -0.0192
  629SOL    HW1 1886   0.829   0.812   2.821 -0.6273  0.8290 -0.8912
  629SOL    HW2 1887   0.758   0.732   2.951 -0.1010  1.0655  0.0560
  630SOL     OW 1888   1.262   0.295   1.810 -0.0906  0.0779  0.3411
  630SOL    HW1 1889   1.263   0.366   1.877  0.0209  0.3324 -0.2275
  630SOL    HW2 1890   1.353   0.289   1.761  1.6968  1.8024  0.1514
  631SOL     OW 1891   2.971   0.618   0.642  0.6134 -0.1206  0.1607
  631SOL    HW1 1892   2.892   0.572   0.596  0.4025  2.7285  1.6500
  631SOL    HW2 1893   3.044   0.638   0.570  3.1457  0.6024 -3.6598
  632SOL     OW 1894   2.173   1.013   1.164 -0.1789 -0.4689 -0.1049
  632SOL    HW1 1895   2.083   1.048   1.199 -2.1074  1.5075 -2.7169
  632SOL    HW2 1896   2.180   0.913   1.151  3.6205 -0.5328 -0.6112
  633SOL     OW 1897   1.394   0.654   1.040 -0.9732 -0.3946 -0.3421
  633SOL    HW1 1898   1.297   0.658   1.072 -0.3084  0.0540  3.7298
  633SOL    HW2 1899   1.430   0.741   1.078 -0.9421 -3.1937  2.5068
  634SOL     OW 1900   1.883   0.108   1.092  0.0617  0.1829  0.3346
  634SOL    HW1 1901   1.945   0.142   1.017 -1.7193 -0.9741  0.3810
  634SOL    HW2 1902   1.893   0.006   1.089  3.2787 -1.3303  2.7185
  635SOL     OW 1903   1.497   0.873   1.144  0.2652 -0.7575 -0.4909
  635SOL    HW1 1904   1.559   0.923   1.084 -0.0255  0.4005 -0.6304
  635SOL    HW2 1905   1.502   0.921   1.232  0.2236  0.5139 -3.0229
  636SOL     OW 1906   1.047   0.785   0.842 -0.0053  0.1659  0.2225
  636SOL    HW1 1907   1.077   0.759   0.936 -0.6586  1.3082 -1.3417
  636SOL    HW2 1908   0.959   0.840   0.841 -1.9063  2.9234  1.5289
  637SOL     OW 1909   2.214   2.039   0.273  0.1541 -0.1030 -0.6296
  637SOL    HW1 1910   2.259   2.077   0.354  1.2228  1.6005  1.0150
  637SOL    HW2 1911   2.227   1.933   0.268  2.5785 -0.8159  1.5690
  638SOL     OW 1912   1.568   2.981   2.716  0.2773  0.0195 -0.2117
  638SOL    HW1 1913   1.513   2.909   2.667 -1.9328 -1.2444 -0.4933
  638SOL    HW2 1914   1.598   2.937   2.802  0.2508 -1.7837 -1.8511
  639SOL     OW 1915   0.847   2.178   1.294 -0.0703  0.2542  0.9507
  639SOL    HW1 1916   0.881   2.209   1.205  1.2923 -0.4731 -0.9548
  639SOL    HW2 1917   0.846   2.077   1.285 -0.9159  0.7111 -0.6145
  640SOL     OW 1918   2.921   2.650   0.574  0.1133 -0.5285 -0.1741
  640SOL    HW1 1919   2.971   2.615   0.658  4.2265 -0.8418  2.4707
  640SOL    HW2 1920   2.978   2.622   0.496 -1.4148 -0.2735 -0.9443
  641SOL     OW 1921   0.324   0.470   0.239 -0.1583  0.6046  0.4791
  641SOL    HW1 1922   0.411   0.414   0.238 -3.4061  1.4695 -2.0866
  641SOL    HW2 1923   0.241   0.412   0.214  0.1837 -0.7104 -1.0042
  642SOL     OW 1924   2.882   0.762   1.171 -0.1443  0.2489 -0.4221
  642SOL    HW1 1925   2.851   0.674   1.140 -0.5781  2.1992 -2.8708
  642SOL    HW2 1926   2.877   0.832   1.098  1.3573 -2.4100  1.4603
  643SOL     OW 1927   0.680   2.006   2.109  0.1681  0.2542 -0.1241
  643SOL    HW1 1928   0.737   2.094   2.109  2.1784  2.0657  0.7241
  643SOL    HW2 1929   0.736   1.925   2.138  3.6752 -1.1763 -0.7822
  644SOL     OW 1930   1.901   2.559   0.680  0.2358  0.5399 -0.2295
  644SOL    HW1 1931   1.808   2.518   0.679  1.4772 -0.9044  0.3280
  644SOL    HW2 1932   1.957   2.498   0.619  1.0827  2.6506  1.5140
  645SOL     OW 1933   1.675   2.326   0.947 -0.1836 -0.5437 -0.7651
  645SOL    HW1 1934   1.762   2.274   0.939 -1.4934  3.6265 -0.7365
  645SOL    HW2 1935   1.652   2.374   0.860 -0.0857 -0.2558 -1.3041
  646SOL     OW 1936   1.167   2.709   0.385 -0.3557 -0.2153 -0.3873
  646SOL    HW1 1937   1.093   2.658   0.433 -0.8119  0.3036 -2.9447
  646SOL    HW2 1938   1.135   2.735   0.293 -0.1034  1.9389  2.5770
  647SOL     OW 1939   0.382   3.020   1.710 -0.5077 -0.0848 -0.1508
  647SOL    HW1 1940   0.417   3.039   1.807 -0.2946  0.5358  1.8843
  647SOL    HW2 1941   0.429   2.938   1.673  0.9304  0.5334 -0.2116
  648SOL     OW 1942   1.800   0.857   1.302 -0.1838  0.5508 -0.2608
  648SOL    HW1 1943   1.896   0.864   1.333 -0.5625 -0.4517 -0.0743
  648SOL    HW2 1944   1.794   0.839   1.200  3.5995 -1.4385 -1.9087
  649SOL     OW 1945   1.664   2.035   2.717  0.1915  0.5443  0.4013
  649SOL    HW1 1946   1.747   2.089   2.734 -3.3454 -3.0094 -0.5269
  649SOL    HW2 1947   1.600   2.057   2.792  2.3198 -0.0852 -1.6481
  650SOL     OW 1948   2.548   1.562   1.982 -0.2913  0.2419  0.5087
  650SOL    HW1 1949   2.568   1.510   2.068  2.0985 -1.6137 -1.2035
  650SOL    HW2 1950   2.463   1.615   1.986  1.6297  1.2624  0.9496
  651SOL     OW 1951   1.299   1.742   2.926 -0.3853  0.5124  0.6594
  651SOL    HW1 1952   1.261   1.652   2.953 -1.1466  1.4705  0.3367
  651SOL    HW2 1953   1.399   1.738   2.910  0.4993 -0.0175 -0.6463
  652SOL     OW 1954   1.195   2.758   3.040 -0.4604 -0.0844  0.2276
  652SOL    HW1 1955   1.235   2.680   2.991 -2.0051  1.3572  0.2056
  652SOL    HW2 1956   1.221   2.847   2.993 -0.8568 -0.6116  1.7580
  653SOL     OW 1957   2.304   2.053   1.144  0.7282  0.1523  0.4365
  653SOL    HW1 1958   2.214   2.101   1.156 -1.5084 -3.8013 -1.0991
  653SOL    HW2 1959   2.362   2.033   1.226  0.5937 -1.4276 -1.2014
  654SOL     OW 1960   2.889   2.570   1.990  0.3042  0.3842  0.4448
  654SOL    HW1 1961   2.887   2.654   1.925 -2.3914 -0.1317 -0.4491
  654SOL    HW2 1962   2.911   2.487   1.933  0.9443 -2.5205 -2.0546
  655SOL     OW 1963   2.742   2.335   0.984 -0.1078 -0.9963  0.0768
  655SOL    HW1 1964   2.734   2.237   0.951 -0.0834 -0.8469  0.4525
  655SOL    HW2 1965   2.694   2.351   1.074  1.3450 -2.0949 -1.5765
  656SOL     OW 1966   0.427   2.703   2.739 -0.5757  0.2511 -0.0316
  656SOL    HW1 1967   0.421   2.761   2.655  1.2509  4.0772  1.6766
  656SOL    HW2 1968   0.364   2.625   2.732  0.1823  2.2049  0.7070
  657SOL     OW 1969   3.082   0.650   0.166 -0.5998 -0.1885 -0.2260
  657SOL    HW1 1970   0.002   0.654   0.265  1.3816 -1.1498  0.4257
  657SOL    HW2 1971   3.106   0.740   0.120 -0.7591  0.1234 -0.9321
  658SOL     OW 1972   1.452   1.760   1.291 -0.3665  0.7851  0.1225
  658SOL    HW1 1973   1.372   1.706   1.330 -1.8866 -0.0515 -2.3216
  658SOL    HW2 1974   1.432   1.862   1.300 -0.1325  0.6750 -1.0720
  659SOL     OW 1975   1.800   0.532   1.164 -0.5137  0.1376  0.4457
  659SOL    HW1 1976   1.849   0.452   1.210 -0.5754 -1.1911  0.9909
  659SOL    HW2 1977   1.707   0.507   1.149  0.7556  3.5587  1.9379
  660SOL     OW 1978   1.287   1.420   0.328  0.0896 -0.1670  0.6117
  660SOL    HW1 1979   1.197   1.377   0.347  0.5020 -2.2961  1.7798
  660SOL    HW2 1980   1.301   1.485   0.403  4.3814 -1.7916 -1.3725
  661SOL     OW 1981   0.083   1.803   0.500 -0.0058 -0.2210  0.2510
  661SOL    HW1 1982   0.057   1.810   0.403 -1.5108  0.7965  0.6582
  661SOL    HW2 1983   0.002   1.836   0.550 -0.2607 -0.5562 -2.2176
  662SOL     OW 1984   0.049   0.674   2.144  0.0053 -0.3429 -0.2134
  662SOL    HW1 1985   3.075   0.635   2.090 -0.8483  0.5575  0.4812
  662SOL    HW2 1986   0.053   0.774   2.133  1.3209  0.0037 -0.3148
  663SOL     OW 1987   1.987   1.207   1.221 -0.0951 -0.1613 -0.3237
  663SOL    HW1 1988   1.931   1.200   1.140  2.7285 -0.4172  1.5299
  663SOL    HW2 1989   1.933   1.221   1.304 -0.7941  0.0829  0.4984
  664SOL     OW 1990   0.648   0.519   0.906 -0.7395  0.3285  0.5461
  664SOL    HW1 1991   0.560   0.466   0.893 -1.7913  0.4526  0.3807
  664SOL    HW2 1992   0.710   0.477   0.975 -2.3084 -0.3311 -1.2780
  665SOL     OW 1993   1.226   2.984   2.881  0.3848  0.0534  0.0769
  665SOL    HW1 1994   1.298   3.031   2.821  0.1785  2.5974 -1.1497
  665SOL    HW2 1995   1.147   3.051   2.890 -1.7238  3.1305 -0.9474
  666SOL     OW 1996   0.229   0.544   2.354 -0.9895  0.1655  0.2436
  666SOL    HW1 1997   0.298   0.474   2.378 -3.1933  1.1644  1.0880
  666SOL    HW2 1998   0.191   0.539   2.260 -1.7909  0.2642  1.4388
  667SOL     OW 1999   2.075   1.487   2.353  0.2916  0.2862  0.2900
  667SOL    HW1 2000   2.048   1.555   2.423  1.4436  0.0816  1.3232
  667SOL    HW2 2001   1.994   1.430   2.323 -2.0370  0.2716 -1.1844
  668SOL     OW 2002   0.146   1.611   2.807  1.0118  0.5127  0.1882
  668SOL    HW1 2003   0.156   1.580   2.708  1.3618 -0.8439 -1.3004
  668SOL    HW2 2004   0.057   1.582   2.849  1.1278  1.6939 -0.4972
  669SOL     OW 2005   2.120   2.881   2.566 -0.2141 -0.4407 -0.5094
  669SOL    HW1 2006   2.101   2.868   2.466  0.9853 -1.7608  0.3865
  669SOL    HW2 2007   2.219   2.896   2.587 -1.9686  0.7131  0.9894
  670SOL     OW 2008   2.611   0.923   2.557 -0.5092 -0.3074  0.0456
  670SOL    HW1 2009   2.600   0.823   2.533  0.0095  0.2573 -1.1215
  670SOL    HW2 2010   2.527   0.976   2.576 -0.1023  1.8722 -0.5904
  671SOL     OW 2011   2.469   1.593   0.207 -0.1829 -0.3526 -0.2860
  671SOL    HW1 2012   2.570   1.570   0.194  1.8014 -0.7731 -3.4301
  671SOL    HW2 2013   2.430   1.635   0.123 -0.2643 -1.0016 -1.7927
  672SOL     OW 2014   2.644   1.158   2.344  0.2772  0.1827  0.3195
  672SOL    HW1 2015   2.590   1.078   2.381 -1.3538  2.6709 -2.4967
  672SOL    HW2 2016   2.715   1.204   2.400  0.6154  1.8739 -3.9028
  673SOL     OW 2017   2.903   1.471   1.537  0.1498 -0.1446 -0.4813
  673SOL    HW1 2018   2.967   1.526   1.592 -0.3405 -0.6330  1.1073
  673SOL    HW2 2019   2.943   1.428   1.452  2.6853 -0.0292 -2.0733
  674SOL     OW 2020   1.590   1.746   1.931  0.2809 -0.5252  0.0448
  674SOL    HW1 2021   1.509   1.808   1.937 -2.5564  0.8204 -1.1898
  674SOL    HW2 2022   1.675   1.793   1.963 -0.1717  0.0276  0.3318
  675SOL     OW 2023   2.969   0.284   1.212 -0.6504  0.7427 -0.1903
  675SOL    HW1 2024   3.035   0.286   1.129 -0.2339  0.8906 -0.5490
  675SOL    HW2 2025   2.901   0.209   1.191 -0.1703  0.7721 -4.0921
  676SOL     OW 2026   2.328   0.911   0.703  0.7142  0.0869 -0.0097
  676SOL    HW1 2027   2.410   0.882   0.651 -0.6083  1.2448  3.0182
  676SOL    HW2 2028   2.253   0.847   0.678 -0.3693  3.2904  0.6003
  677SOL     OW 2029   1.548   1.365   2.328 -0.1430  0.4112 -0.4730
  677SOL    HW1 2030   1.599   1.454   2.334 -1.3129 -0.6819  1.3283
  677SOL    HW2 2031   1.517   1.355   2.234  1.7369  2.8626  0.9490
  678SOL     OW 2032   2.460   1.516   1.170 -0.4772 -0.1158  0.3176
  678SOL    HW1 2033   2.473   1.521   1.072 -0.4128  0.8409  5.9757
  678SOL    HW2 2034   2.394   1.446   1.200 -0.6723 -1.6867 -0.6176
  679SOL     OW 2035   0.440   2.753   0.952 -0.4417 -0.0218 -0.1447
  679SOL    HW1 2036   0.372   2.683   0.952  3.1609  1.0668  0.1116
  679SOL    HW2 2037   0.391   2.839   0.924 -1.3954  4.3073 -1.6524
  680SOL     OW 2038   3.069   2.172   1.022 -0.2866 -0.5880 -0.4762
  680SOL    HW1 2039   0.014   2.128   1.099  1.4895  0.5714  0.1821
  680SOL    HW2 2040   2.995   2.239   1.046  0.4376 -1.2612 -1.1810
  681SOL     OW 2041   0.744   0.820   1.205  0.0327 -0.5017 -0.0553
  681SOL    HW1 2042   0.804   0.742   1.200 -1.0576  1.8143  0.3579
  681SOL    HW2 2043   0.693   0.822   1.118  0.8891  1.1270  0.9657
  682SOL     OW 2044   1.577   3.054   0.809  0.3151  0.0312 -0.0835
  682SOL    HW1 2045   1.546   0.046   0.797  0.2640 -0.7968  1.9307
  682SOL    HW2 2046   1.679   3.054   0.804  0.1329  1.3559  2.1190
  683SOL     OW 2047   2.370   1.424   1.760  0.0744 -0.4263 -0.4479
  683SOL    HW1 2048   2.465   1.463   1.769  2.9509 -0.6862  0.2850
  683SOL    HW2 2049   2.350   1.438   1.659  0.9501 -1.0834 -5.0414
  684SOL     OW 2050   3.059   1.800   1.495 -0.5851  0.1475 -0.0932
  684SOL    HW1 2051   2.959   1.806   1.486 -1.7465  2.7667 -0.8777
  684SOL    HW2 2052   3.094   1.837   1.589  2.3451 -0.7892 -0.4276
  685SOL     OW 2053   2.123   1.620   0.477  0.0336 -0.1699 -0.8709
  685SOL    HW1 2054   2.112   1.565   0.562 -1.1582  1.3409  1.3889
  685SOL    HW2 2055   2.144   1.555   0.403  0.4400  0.4578  0.5904
  686SOL     OW 2056   3.006   0.243   0.586 -0.1793 -0.3189  0.3738
  686SOL    HW1 2057   3.090   0.266   0.635  0.5719 -1.2586 -1.7614
  686SOL    HW2 2058   2.920   0.258   0.639 -0.0019 -0.0656 -0.5159
  687SOL     OW 2059   1.371   0.062   2.694  0.0320 -0.3521 -0.1472
  687SOL    HW1 2060   1.378   0.149   2.747  0.7958 -1.7144 -0.5159
  687SOL    HW2 2061   1.455   0.010   2.718  3.9193  0.1404  0.0369
  688SOL     OW 2062   1.815   1.836   2.337  0.4534 -0.3471  0.0743
  688SOL    HW1 2063   1.905   1.812   2.301  3.4804 -1.2870  1.7985
  688SOL    HW2 2064   1.783   1.930   2.306  0.7073  1.5246  0.5380
  689SOL     OW 2065   2.754   0.942   2.104 -0.0205 -0.7990  0.7187
  689SOL    HW1 2066   2.727   1.032   2.070 -0.6493 -1.9732 -0.7932
  689SOL    HW2 2067   2.787   0.948   2.196 -0.9425  1.6330 -2.3090
  690SOL     OW 2068   1.955   1.504   1.129  0.0678 -0.6445 -0.6939
  690SOL    HW1 2069   2.023   1.523   1.049  0.3546 -0.8578  0.6881
  690SOL    HW2 2070   1.988   1.556   1.207 -0.1175 -0.4362 -0.0963
  691SOL     OW 2071   0.751   1.485   1.100 -0.3918 -0.1941 -0.2656
  691SOL    HW1 2072   0.836   1.458   1.153  2.4714 -0.7571 -0.5554
  691SOL    HW2 2073   0.668   1.429   1.127 -2.6447  1.9093 -0.3730
  692SOL     OW 2074   1.880   3.056   2.256  0.5346 -0.5383 -0.0540
  692SOL    HW1 2075   1.943   0.032   2.248 -0.3173  0.1955  2.3636
  692SOL    HW2 2076   1.855   3.022   2.164  2.1712  0.3614  1.9352
  693SOL     OW 2077   2.858   1.302   2.478 -0.5433 -0.5777 -0.5094
  693SOL    HW1 2078   2.913   1.354   2.551  2.4908 -1.0760 -0.5345
  693SOL    HW2 2079   2.905   1.300   2.389 -0.1307 -1.1933  2.2549
  694SOL     OW 2080   2.299   0.159   1.100 -0.0198  0.2223 -0.0897
  694SOL    HW1 2081   2.294   0.142   1.205  1.0144 -1.0618 -0.9191
  694SOL    HW2 2082   2.265   0.251   1.081  2.9284 -2.0998 -0.5447
  695SOL     OW 2083   0.893   1.161   2.793  0.2659 -0.0909  0.5131
  695SOL    HW1 2084   0.855   1.197   2.878  2.1659 -0.2273  0.4837
  695SOL    HW2 2085   0.928   1.240   2.738  2.7543  1.0514 -0.5680
  696SOL     OW 2086   2.054   0.358   1.609 -1.0302  0.1612  0.0671
  696SOL    HW1 2087   2.001   0.422   1.555 -0.3883 -0.0648  3.0417
  696SOL    HW2 2088   2.010   0.269   1.608  1.8104  0.6915 -1.6408
  697SOL     OW 2089   1.522   0.575   2.253  0.1207 -0.5915  0.1963
  697SOL    HW1 2090   1.541   0.575   2.351  2.2401  1.1747  0.6260
  697SOL    HW2 2091   1.531   0.482   2.209 -2.4688 -2.0127  1.9621
  698SOL     OW 2092   1.998   1.671   2.539 -0.6002 -0.1187 -0.0382
  698SOL    HW1 2093   1.975   1.771   2.545  0.1228 -0.6829 -1.9888
  698SOL    HW2 2094   1.911   1.620   2.551 -0.7020  0.1438 -4.0320
  699SOL     OW 2095   1.629   1.123   0.421  0.0134  0.7889 -0.1678
  699SOL    HW1 2096   1.587   1.172   0.499 -1.2716  2.8226 -0.9289
  699SOL    HW2 2097   1.640   1.023   0.446 -1.5079 -1.1017  0.4795
  700SOL     OW 2098   1.548   2.733   0.108  0.1032 -0.1491  0.4120
  700SOL    HW1 2099   1.532   2.788   0.191  0.5369 -0.9371 -1.1545
  700SOL    HW2 2100   1.541   2.629   0.117 -1.8484 -1.3107  0.0304
  701SOL     OW 2101   0.182   0.552   1.337  0.5770  0.6188 -0.0660
  701SOL    HW1 2102   0.159   0.614   1.263 -2.1390  0.5992  4.2430
  701SOL    HW2 2103   0.102   0.490   1.365 -1.5304 -0.7120  2.9654
  702SOL     OW 2104   1.934   3.038   1.486 -0.2421  0.6461  0.4076
  702SOL    HW1 2105   2.017   3.029   1.432  0.6295  1.9531  0.7383
  702SOL    HW2 2106   1.862   2.976   1.451 -1.3913 -0.0671 -0.3300
  703SOL     OW 2107   2.751   0.434   1.349  0.3716 -0.1269  0.3620
  703SOL    HW1 2108   2.738   0.400   1.440  0.4388  2.9627 -4.0054
  703SOL    HW2 2109   2.815   0.377   1.292 -3.1959  1.1457  0.6012
  704SOL     OW 2110   1.152   2.152   1.269  0.3526  0.4802 -0.4026
  704SOL    HW1 2111   1.120   2.245   1.287 -0.3034 -0.7990  0.0509
  704SOL    HW2 2112   1.104   2.110   1.192  1.6442 -0.3586  3.3849
  705SOL     OW 2113   0.154   1.941   2.121 -0.1414 -0.7863 -0.2001
  705SOL    HW1 2114   0.253   1.968   2.124 -0.3990  0.4080 -1.3711
  705SOL    HW2 2115   0.148   1.850   2.077 -1.3904  0.6913 -0.3945
  706SOL     OW 2116   2.532   0.530   2.824  0.3651 -0.5444 -0.1105
  706SOL    HW1 2117   2.471   0.527   2.902  0.3995 -0.6280 -3.2210
  706SOL    HW2 2118   2.599   0.449   2.824 -1.2498  0.9372 -1.3568
  707SOL     OW 2119   1.641   2.847   2.354  0.0394 -0.7213 -0.1564
  707SOL    HW1 2120   1.721   2.788   2.361  0.8347  1.4101  1.2598
  707SOL    HW2 2121   1.576   2.832   2.431  0.0099  1.6752  0.7653
  708SOL     OW 2122   0.706   2.366   1.446 -0.1039  0.1284  0.1918
  708SOL    HW1 2123   0.696   2.451   1.394  2.1616  0.8952 -2.2903
  708SOL    HW2 2124   0.760   2.302   1.391  0.2006  4.5695  1.0632
  709SOL     OW 2125   2.813   0.859   1.849  0.2822  0.0494 -0.0441
  709SOL    HW1 2126   2.796   0.884   1.943 -0.5081  1.0031 -3.0580
  709SOL    HW2 2127   2.865   0.929   1.801 -0.5510 -0.7169  2.5340
  710SOL     OW 2128   0.015   0.450   1.672  0.0497 -0.2060  0.1432
  710SOL    HW1 2129   0.009   0.411   1.577  1.1660 -1.5133 -0.4379
  710SOL    HW2 2130   3.086   0.543   1.675  0.5901 -2.4579 -1.8467
  711SOL     OW 2131   0.053   2.706   0.889 -0.3402  0.8509 -0.3490
  711SOL    HW1 2132   0.126   2.665   0.953  0.1408  0.3182  1.4885
  711SOL    HW2 2133   0.067   2.671   0.794 -2.0381  1.5101 -1.0036
  712SOL     OW 2134   0.450   2.822   2.494  0.3055  0.2361  0.4503
  712SOL    HW1 2135   0.508   2.895   2.532  1.5436 -2.7269  0.0156
  712SOL    HW2 2136   0.508   2.767   2.429  1.2320 -1.5653 -0.2407
  713SOL     OW 2137   2.381   0.395   0.247 -0.1197 -0.5448 -0.3459
  713SOL    HW1 2138   2.288   0.417   0.286 -0.6538  0.4438  1.3615
  713SOL    HW2 2139   2.384   0.406   0.145 -1.0540 -0.0891  0.6956
  714SOL     OW 2140   1.686   1.425   0.059  0.3582 -0.1679  0.4870
  714SOL    HW1 2141   1.688   1.512   0.109 -2.4563 -1.7599 -3.4469
  714SOL    HW2 2142   1.625   1.356   0.104 -0.7094 -1.9644  0.5771
  715SOL     OW 2143   0.302   0.537   0.516  0.6373  0.0440 -0.5410
  715SOL    HW1 2144   0.323   0.544   0.418  0.1683 -0.3402  0.5581
  715SOL    HW2 2145   0.343   0.452   0.551 -0.4106  2.3876  3.2573
  716SOL     OW 2146   1.149   0.073   1.912  0.0277  0.7699 -0.2380
  716SOL    HW1 2147   1.190   0.162   1.883  0.8193 -0.9254  0.6296
  716SOL    HW2 2148   1.067   0.053   1.856  2.4481 -0.2963 -2.0616
  717SOL     OW 2149   0.220   0.503   2.873 -0.4780  0.0588  0.0656
  717SOL    HW1 2150   0.316   0.480   2.894 -1.8179  2.1774 -1.4304
  717SOL    HW2 2151   0.195   0.482   2.779 -2.8731  0.9648  0.6577
  718SOL     OW 2152   1.504   0.326   0.357  0.1097 -0.2371 -0.0831
  718SOL    HW1 2153   1.507   0.427   0.342  1.7839  2.5484  0.9449
  718SOL    HW2 2154   1.424   0.299   0.417 -0.6769 -0.7757 -3.9299
  719SOL     OW 2155   2.253   2.195   0.065 -0.3925 -0.2491  0.1617
  719SOL    HW1 2156   2.285   2.131   3.096  0.7754 -0.5597  1.3784
  719SOL    HW2 2157   2.244   2.139   0.153  1.2195 -0.9177  1.9925
  720SOL     OW 2158   1.102   0.965   1.409  0.1307  0.1531  0.4385
  720SOL    HW1 2159   1.133   1.045   1.463 -0.0060 -1.8560  0.5077
  720SOL    HW2 2160   1.093   0.881   1.473  3.4071 -1.2622  2.3709
  721SOL     OW 2161   0.057   2.692   1.249  0.4681 -0.1777 -0.6356
  721SOL    HW1 2162   0.064   2.590   1.267 -2.8739 -2.8098 -0.1617
  721SOL    HW2 2163   0.112   2.725   1.170  0.2256 -1.0912  2.8348
  722SOL     OW 2164   0.793   1.876   2.783  0.3729 -0.4554 -0.1473
  722SOL    HW1 2165   0.792   1.942   2.859 -1.2271 -0.1883  0.3917
  722SOL    HW2 2166   0.797   1.781   2.823  0.7872 -0.0160  1.3070
  723SOL     OW 2167   1.918   0.338   0.457  0.4234  0.7609  0.0783
  723SOL    HW1 2168   1.824   0.296   0.469 -1.5479  0.5615  2.7374
  723SOL    HW2 2169   1.966   0.342   0.549 -2.2235 -3.0355 -1.9544
  724SOL     OW 2170   0.663   2.193   2.920 -0.5294 -0.0308  0.2833
  724SOL    HW1 2171   0.699   2.110   2.968  0.7313  1.4991  0.2585
  724SOL    HW2 2172   0.715   2.284   2.938 -1.8711  1.2687  0.6576
  725SOL     OW 2173   0.066   0.695   1.133 -0.0112  0.9991 -0.5296
  725SOL    HW1 2174   3.077   0.719   1.151  0.8221  0.8523  0.5134
  725SOL    HW2 2175   0.077   0.635   1.050  0.6238  1.8650  1.5967
  726SOL     OW 2176   2.432   0.637   0.504  0.0371 -0.5914  0.0614
  726SOL    HW1 2177   2.493   0.569   0.461  2.6698 -1.0602 -1.3781
  726SOL    HW2 2178   2.372   0.688   0.444  0.2754 -1.3107  1.9551
  727SOL     OW 2179   2.046   1.112   2.298  0.3293  0.5926 -0.0757
  727SOL    HW1 2180   1.991   1.176   2.352 -0.5954 -1.3838  0.2326
  727SOL    HW2 2181   2.004   1.015   2.300  1.3570 -2.0242 -1.0571
  728SOL     OW 2182   1.692   2.907   1.419  0.1188 -0.5510  0.1528
  728SOL    HW1 2183   1.674   2.838   1.492 -1.9226 -0.3968  0.9907
  728SOL    HW2 2184   1.720   2.866   1.330 -2.0510 -1.5568 -2.6810
  729SOL     OW 2185   2.296   0.510   2.188  0.3319 -0.3139  0.2634
  729SOL    HW1 2186   2.334   0.533   2.095  0.8453 -1.1734 -3.0933
  729SOL    HW2 2187   2.286   0.590   2.249 -0.2754  0.1868 -0.1305
  730SOL     OW 2188   0.700   0.910   1.499  0.3867  0.0113 -0.3220
  730SOL    HW1 2189   0.693   0.814   1.513  0.5762  2.0428 -1.3566
  730SOL    HW2 2190   0.757   0.935   1.420  2.1259 -0.7037  1.8514
  731SOL     OW 2191   0.421   0.103   0.199  0.5150  0.2010 -0.5642
  731SOL    HW1 2192   0.485   0.183   0.217 -1.7911 -0.5184 -1.4687
  731SOL    HW2 2193   0.364   0.134   0.121 -1.2970  2.5648 -1.8104
  732SOL     OW 2194   0.702   0.464   0.427  0.3354 -0.3415 -0.5710
  732SOL    HW1 2195   0.698   0.442   0.527 -0.9344  2.1348  0.5936
  732SOL    HW2 2196   0.698   0.563   0.415 -0.1126 -3.2708  2.3983
  733SOL     OW 2197   1.762   1.497   2.645 -0.2699 -0.1427 -0.3957
  733SOL    HW1 2198   1.703   1.570   2.598 -3.2716 -0.4529 -3.6535
  733SOL    HW2 2199   1.717   1.481   2.734  1.8234  0.0756 -2.3793
  734SOL     OW 2200   2.928   2.084   1.979 -0.3145 -0.0038  0.2549
  734SOL    HW1 2201   3.025   2.103   1.970 -0.4536 -0.9521 -1.4610
  734SOL    HW2 2202   2.874   2.168   1.979  0.4897 -0.3341  0.0948
  735SOL     OW 2203   1.963   0.371   0.963  0.0783 -0.6581 -0.1837
  735SOL    HW1 2204   2.054   0.369   1.016  0.3989 -2.2397  1.6255
  735SOL    HW2 2205   1.900   0.419   1.029 -0.7720 -0.4146  4.0903
  736SOL     OW 2206   0.785   1.333   2.993 -0.7666 -0.2671  0.5523
  736SOL    HW1 2207   0.684   1.354   2.988 -0.9803  2.2900  0.1950
  736SOL    HW2 2208   0.839   1.408   3.037 -1.2406 -1.1667  1.5517
  737SOL     OW 2209   3.029   0.301   0.326  0.3617  0.6807 -0.5274
  737SOL    HW1 2210   0.003   0.295   0.267 -0.9032 -0.5201  2.8724
  737SOL    HW2 2211   3.053   0.268   0.422  1.5139  0.0772 -0.6029
  738SOL     OW 2212   0.645   2.510   1.678  0.4050 -0.1512 -0.2430
  738SOL    HW1 2213   0.724   2.576   1.682  0.7428  1.3582  1.6638
  738SOL    HW2 2214   0.641   2.453   1.592  0.8677 -0.6182 -1.2235
  739SOL     OW 2215   1.173   2.866   2.629  0.3731 -0.0818  0.1976
  739SOL    HW1 2216   1.185   2.875   2.730 -0.7407 -0.9713  0.9249
  739SOL    HW2 2217   1.168   2.960   2.591 -0.0110 -2.4645  2.1733
  740SOL     OW 2218   1.914   2.630   1.559  0.1971  0.5158  0.4649
  740SOL    HW1 2219   1.821   2.666   1.568  2.0877 -0.8784 -0.8176
  740SOL    HW2 2220   1.918   2.531   1.581  1.8228  1.8238 -1.9586
  741SOL     OW 2221   2.227   0.722   0.330  0.1785  0.7356  0.3507
  741SOL    HW1 2222   2.251   0.677   0.242  1.0570  0.6184  0.8701
  741SOL    HW2 2223   2.211   0.818   0.315  1.1034 -1.2983 -0.7046
  742SOL     OW 2224   1.375   2.532   2.495  0.1465  0.1857  0.1937
  742SOL    HW1 2225   1.454   2.482   2.459  0.8265  0.3416 -0.9404
  742SOL    HW2 2226   1.306   2.465   2.529  1.0875 -2.1709  0.5690
  743SOL     OW 2227   2.407   0.931   1.652  0.3559  0.1779 -0.2770
  743SOL    HW1 2228   2.379   0.943   1.752 -0.2612  1.3366  2.2145
  743SOL    HW2 2229   2.463   0.846   1.637 -0.0977  2.8265  0.8665
  744SOL     OW 2230   2.600   0.404   0.851  0.2386  0.3271  0.4573
  744SOL    HW1 2231   2.542   0.477   0.807  2.0545  0.3192  1.6278
  744SOL    HW2 2232   2.646   0.457   0.927 -0.5477  0.9836  2.8233
  745SOL     OW 2233   2.482   1.189   1.899  0.6909  0.1164  0.4520
  745SOL    HW1 2234   2.471   1.250   1.817  1.5598  0.4974 -0.0417
  745SOL    HW2 2235   2.422   1.107   1.895  1.2636  0.3220 -1.5692
  746SOL     OW 2236   1.376   1.518   0.834 -0.0229 -0.1992 -0.9103
  746SOL    HW1 2237   1.433   1.557   0.911 -0.3413  3.9494  1.4495
  746SOL    HW2 2238   1.327   1.433   0.857 -2.8239 -0.2187 -1.0725
  747SOL     OW 2239   1.637   1.773   1.597  0.2020 -0.0443 -0.5983
  747SOL    HW1 2240   1.583   1.778   1.684  0.7495  0.2361  2.4098
  747SOL    HW2 2241   1.627   1.679   1.564  0.6318  1.3741  2.5469
  748SOL     OW 2242   0.263   2.701   0.087 -0.4252 -0.0996  0.1814
  748SOL    HW1 2243   0.342   2.750   0.132 -0.0897 -0.9660  0.6856
  748SOL    HW2 2244   0.253   2.600   0.097 -1.6186 -1.2960  0.3739
  749SOL     OW 2245   0.172   1.279   2.457 -0.5065  0.1148  0.4122
  749SOL    HW1 2246   0.220   1.254   2.372  1.5000 -1.0380 -1.2047
  749SOL    HW2 2247   0.099   1.204   2.477 -1.6081 -1.1850  2.1133
  750SOL     OW 2248   1.601   0.428   1.926 -0.1758  0.6522  0.2488
  750SOL    HW1 2249   1.558   0.387   2.009 -0.8570  0.4127  0.6526
  750SOL    HW2 2250   1.692   0.465   1.946  1.1739  0.6495 -0.9721
  751SOL     OW 2251   2.694   0.701   0.352  0.2773 -0.9507  0.4771
  751SOL    HW1 2252   2.670   0.698   0.251 -0.9138 -1.1717  0.4532
  751SOL    HW2 2253   2.745   0.620   0.384  0.1161  1.1660 -1.4055
  752SOL     OW 2254   0.062   2.104   0.765  0.8596  0.1022  0.2857
  752SOL    HW1 2255   0.164   2.082   0.769  1.9167 -2.0250  1.9030
  752SOL    HW2 2256   0.022   2.122   0.860  2.4473  0.5185  2.6933
  753SOL     OW 2257   1.079   2.665   0.994  0.1700 -0.3964 -0.1959
  753SOL    HW1 2258   1.104   2.620   1.077 -0.7874 -0.9989  1.1216
  753SOL    HW2 2259   1.009   2.604   0.943 -1.6707 -2.2802 -0.6325
  754SOL     OW 2260   0.350   2.988   2.072  0.0384 -0.2263 -0.0536
  754SOL    HW1 2261   0.371   2.890   2.071 -0.0511 -0.6526  0.3729
  754SOL    HW2 2262   0.250   3.005   2.063  3.3527 -1.0697  2.7262
  755SOL     OW 2263   1.888   0.850   0.438 -0.3284 -0.8760  0.3115
  755SOL    HW1 2264   1.834   0.778   0.479  0.8607  3.1031  1.4579
  755SOL    HW2 2265   1.901   0.922   0.508  3.8225  0.6223  0.3924
  756SOL     OW 2266   2.267   2.443   2.754 -0.2581 -0.0430  0.2223
  756SOL    HW1 2267   2.271   2.345   2.722 -1.3982  0.2044  0.2275
  756SOL    HW2 2268   2.333   2.471   2.827 -1.6011 -2.1130  0.8723
  757SOL     OW 2269   1.802   0.574   0.378 -0.2650 -0.2568 -0.4918
  757SOL    HW1 2270   1.856   0.627   0.307  1.9760  1.0175  0.9744
  757SOL    HW2 2271   1.847   0.485   0.391 -0.9329  1.7384 -2.7220
  758SOL     OW 2272   2.223   0.411   1.038  0.1117  0.1308  0.3059
  758SOL    HW1 2273   2.249   0.466   1.120 -1.8449 -0.6657 -1.6705
  758SOL    HW2 2274   2.214   0.471   0.954 -0.8358  1.4028 -1.3612
  759SOL     OW 2275   2.689   0.532   1.088 -0.1800  0.0905  0.6743
  759SOL    HW1 2276   2.672   0.491   1.180  1.2135 -4.8290  1.2739
  759SOL    HW2 2277   2.645   0.622   1.088  1.5810  0.5351  3.0229
  760SOL     OW 2278   2.220   1.359   1.244 -0.2318  0.4419 -0.4233
  760SOL    HW1 2279   2.120   1.330   1.239 -3.0200 -1.5154  0.6468
  760SOL    HW2 2280   2.275   1.284   1.290  0.1526 -1.4808  0.9309
  761SOL     OW 2281   0.411   0.275   0.520 -0.0055 -0.4731 -0.0686
  761SOL    HW1 2282   0.505   0.319   0.540  0.2221  3.1436 -1.5093
  761SOL    HW2 2283   0.405   0.177   0.543  0.4990 -0.7873 -0.7953
  762SOL     OW 2284   0.898   1.914   1.268 -0.5383 -0.4190 -0.0190
  762SOL    HW1 2285   0.978   1.849   1.261 -0.2607 -3.1058  1.3195
  762SOL    HW2 2286   0.815   1.874   1.230  4.0412 -0.4850 -0.7085
  763SOL     OW 2287   1.536   1.160   1.644  0.7519  0.0457  0.5379
  763SOL    HW1 2288   1.531   1.179   1.744 -0.5327 -0.7998 -0.1038
  763SOL    HW2 2289   1.592   1.079   1.624 -0.5377 -0.2994 -2.6712
  764SOL     OW 2290   0.112   1.911   2.602 -0.3788 -0.4341 -0.3836
  764SOL    HW1 2291   0.031   1.916   2.659  0.4176  0.8069  0.2228
  764SOL    HW2 2292   0.201   1.906   2.656 -0.7200  1.6418 -0.6080
  765SOL     OW 2293   1.190   2.534   1.201  0.5124  0.9059  0.2101
  765SOL    HW1 2294   1.129   2.488   1.267  3.5183  2.7426 -1.4694
  765SOL    HW2 2295   1.291   2.529   1.214  0.7593  1.7003  0.8779
  766SOL     OW 2296   2.742   2.356   2.610  0.5321  0.2881  0.2621
  766SOL    HW1 2297   2.727   2.392   2.704 -0.4406  0.4801 -1.9723
  766SOL    HW2 2298   2.736   2.428   2.540 -2.9157 -2.9769  0.6275
  767SOL     OW 2299   0.907   1.294   2.485 -0.8560  0.0303 -0.1633
  767SOL    HW1 2300   0.872   1.362   2.548 -0.2399  2.5005 -3.4333
  767SOL    HW2 2301   0.858   1.202   2.488  1.6929 -1.3726 -0.0113
  768SOL     OW 2302   1.289   1.941   3.079  0.2219  0.1052 -0.2855
  768SOL    HW1 2303   1.280   1.877   2.997  1.4812  0.8326 -2.4971
  768SOL    HW2 2304   1.333   1.894   0.054  0.2965 -3.0152  2.3284
  769SOL     OW 2305   0.446   2.291   0.959 -0.4835  0.2340  0.0855
  769SOL    HW1 2306   0.385   2.242   1.025 -1.7414 -0.3601  2.7441
  769SOL    HW2 2307   0.392   2.338   0.897  2.4733 -1.7595 -0.7593
  770SOL     OW 2308   1.277   1.223   2.648 -0.1756 -0.0525 -0.1958
  770SOL    HW1 2309   1.219   1.298   2.689  2.6414  3.2057  1.0427
  770SOL    HW2 2310   1.225   1.145   2.606 -2.8768  1.9612 -1.3429
  771SOL     OW 2311   0.031   2.888   2.250 -0.1703 -0.0492  0.2440
  771SOL    HW1 2312   0.091   2.889   2.330 -3.4363 -1.9844 -2.2570
  771SOL    HW2 2313   0.003   2.791   2.240  2.8623  0.4316  1.3960
  772SOL     OW 2314   2.226   2.715   1.970 -0.0348 -0.0015  0.1733
  772SOL    HW1 2315   2.250   2.786   2.037  0.0373 -0.6371 -1.8234
  772SOL    HW2 2316   2.296   2.710   1.896 -0.0449 -1.0218 -1.7589
  773SOL     OW 2317   0.503   1.981   1.630 -0.0093  0.2461  0.0055
  773SOL    HW1 2318   0.590   2.030   1.634  2.7825  1.3480  1.0410
  773SOL    HW2 2319   0.460   1.969   1.719  3.5151 -0.5899  1.1682
  774SOL     OW 2320   1.394   0.546   1.809 -0.5288  0.0061 -0.6394
  774SOL    HW1 2321   1.415   0.550   1.709 -2.6619 -0.4125  2.5666
  774SOL    HW2 2322   1.470   0.505   1.860 -1.4666  1.3267 -0.8685
  775SOL     OW 2323   1.886   2.882   2.932  0.1448 -0.3974 -0.4983
  775SOL    HW1 2324   1.914   2.977   2.923 -0.4872 -0.0980 -1.8001
  775SOL    HW2 2325   1.919   2.823   2.854 -1.2331 -2.8296 -1.4250
  776SOL     OW 2326   3.006   0.253   2.144 -0.3925  0.0201 -0.2225
  776SOL    HW1 2327   3.023   0.330   2.078 -0.1929 -2.7910 -0.3344
  776SOL    HW2 2328   2.974   0.171   2.092 -1.0693  0.2101  0.1504
  777SOL     OW 2329   2.531   2.367   2.134  0.0337 -0.0435 -0.6534
  777SOL    HW1 2330   2.512   2.404   2.227  0.9278  0.6309 -0.1197
  777SOL    HW2 2331   2.458   2.305   2.112 -2.2230  0.9907 -1.0409
  778SOL     OW 2332   1.857   0.771   2.046 -0.7728 -0.5015  0.4412
  778SOL    HW1 2333   1.846   0.823   2.135 -0.5632  3.5284  2.4129
  778SOL    HW2 2334   1.769   0.745   2.001  1.6561  0.1810  1.0346
  779SOL     OW 2335   2.505   0.640   0.761 -0.0111 -0.4481  0.3425
  779SOL    HW1 2336   2.457   0.639   0.670 -0.5882  1.0406  0.1929
  779SOL    HW2 2337   2.582   0.706   0.760  0.3837  0.9271  0.5061
  780SOL     OW 2338   2.321   0.245   2.916 -0.2101 -0.4326  0.6009
  780SOL    HW1 2339   2.222   0.243   2.918  0.3357 -0.1578  1.0666
  780SOL    HW2 2340   2.360   0.156   2.958 -3.3070 -1.4325 -1.6516
  781SOL     OW 2341   0.325   2.247   1.416 -0.0914 -0.0801 -0.4113
  781SOL    HW1 2342   0.412   2.196   1.393  1.8128  1.2715 -0.2301
  781SOL    HW2 2343   0.287   2.223   1.508 -2.7960  1.5585 -0.0866
  782SOL     OW 2344   2.430   2.452   2.957 -0.1698 -0.2133  0.4062
  782SOL    HW1 2345   2.528   2.455   2.929 -1.5707 -0.4222 -0.2396
  782SOL    HW2 2346   2.430   2.466   3.061  1.2740 -0.2828  1.0108
  783SOL     OW 2347   0.426   1.805   1.423 -0.2268  0.4399  0.2346
  783SOL    HW1 2348   0.451   1.864   1.503 -0.2464  2.3840 -4.0328
  783SOL    HW2 2349   0.444   1.708   1.455  0.2756 -0.6724 -2.1318
  784SOL     OW 2350   1.445   0.552   2.930 -0.0626  0.8983 -0.0108
  784SOL    HW1 2351   1.468   0.463   2.885  1.2893 -0.2922  0.8754
  784SOL    HW2 2352   1.486   0.550   3.026 -0.0833 -1.6370  2.3580
  785SOL     OW 2353   2.570   3.035   0.966 -0.3025 -0.4851  0.4741
  785SOL    HW1 2354   2.484   3.005   0.917 -0.3284  1.1527 -0.2743
  785SOL    HW2 2355   2.562   0.027   0.999 -0.7783  0.8600  1.9198
  786SOL     OW 2356   0.972   2.107   2.072 -0.2855  0.2712 -0.9254
  786SOL    HW1 2357   1.020   2.020   2.059  0.5410  1.6301 -2.8308
  786SOL    HW2 2358   1.021   2.173   2.132  0.6411 -0.6795 -1.2430
  787SOL     OW 2359   1.182   0.925   1.161 -0.1808 -0.2628 -0.2663
  787SOL    HW1 2360   1.149   0.941   1.257  0.3369 -0.1149 -0.9913
  787SOL    HW2 2361   1.279   0.960   1.147 -0.6843  2.1043 -0.6090
  788SOL     OW 2362   0.049   0.692   0.460 -0.0608 -0.3347 -0.3795
  788SOL    HW1 2363   0.078   0.788   0.483 -2.5970 -1.1454  4.2953
  788SOL    HW2 2364   0.126   0.628   0.492 -1.1964  0.1206 -0.2116
  789SOL     OW 2365   0.048   2.111   1.284  0.1019  0.2237 -0.2129
  789SOL    HW1 2366   0.132   2.169   1.279 -3.3051 -0.2658 -1.2302
  789SOL    HW2 2367   0.079   2.015   1.284 -0.8394  0.3203 -1.2386
  790SOL     OW 2368   1.035   0.663   2.222  0.8958  0.2198 -0.0650
  790SOL    HW1 2369   1.131   0.665   2.245 -3.1085 -1.1217  2.1126
  790SOL    HW2 2370   0.982   0.709   2.298  0.8381  2.7063  0.9779
  791SOL     OW 2371   1.681   0.678   0.594  0.0755 -0.8701  0.7354
  791SOL    HW1 2372   1.712   0.624   0.517  0.3765  1.5975 -0.2856
  791SOL    HW2 2373   1.629   0.619   0.664 -0.6180 -0.8881  0.3352
  792SOL     OW 2374   1.534   2.444   1.988 -0.0400  0.4154 -0.3142
  792SOL    HW1 2375   1.624   2.447   2.026 -2.5629  0.4900 -2.3888
  792SOL    HW2 2376   1.528   2.503   1.908  0.4991 -2.2665  1.0504
  793SOL     OW 2377   1.325   0.667   0.609 -0.8256  0.0306 -0.1927
  793SOL    HW1 2378   1.320   0.769   0.606  1.2659 -0.5061  1.6089
  793SOL    HW2 2379   1.386   0.636   0.687  0.3389 -1.3379  1.7726
  794SOL     OW 2380   0.474   0.849   2.127  0.3028  0.3113  0.0655
  794SOL    HW1 2381   0.394   0.892   2.175  0.1324  2.1377 -0.6159
  794SOL    HW2 2382   0.465   0.868   2.028  1.5236  0.6507 -2.1609
  795SOL     OW 2383   0.389   2.014   2.422 -0.2509  0.1464  0.5082
  795SOL    HW1 2384   0.432   2.105   2.404  0.8848  0.5354  1.4878
  795SOL    HW2 2385   0.418   1.977   2.509 -0.1852 -0.3960 -1.9891
  796SOL     OW 2386   2.498   0.764   2.124  0.0961 -0.1086  0.2068
  796SOL    HW1 2387   2.433   0.755   2.204  2.9455 -0.2957 -1.6079
  796SOL    HW2 2388   2.581   0.820   2.141  0.2588  1.4118 -1.9616
  797SOL     OW 2389   2.917   2.356   2.951  0.4891 -0.5231 -0.0573
  797SOL    HW1 2390   2.940   2.457   2.947 -0.1415  2.5741  0.1970
  797SOL    HW2 2391   2.911   2.331   3.049 -1.4894  0.0243 -2.3218
  798SOL     OW 2392   0.256   2.501   2.136 -0.2034  0.3460 -0.4318
  798SOL    HW1 2393   0.299   2.413   2.106  1.3618 -2.6371 -0.4960
  798SOL    HW2 2394   0.220   2.502   2.230 -1.4946 -2.2464 -1.5711
  799SOL     OW 2395   0.401   2.204   2.801 -0.1159 -0.5371 -0.3436
  799SOL    HW1 2396   0.479   2.210   2.865  0.2639 -0.3536  0.1103
  799SOL    HW2 2397   0.319   2.156   2.841  0.6128  3.6546 -1.1911
  800SOL     OW 2398   0.806   1.999   3.030  0.2827 -0.0041  0.0332
  800SOL    HW1 2399   0.793   1.926   3.099 -1.0415 -0.7199 -0.9862
  800SOL    HW2 2400   0.904   2.034   3.043  1.5213 -3.0322 -1.4574
  801SOL     OW 2401   1.839   1.272   1.443 -0.5866  0.5030 -0.2885
  801SOL    HW1 2402   1.923   1.263   1.496  1.5065 -3.3663  1.3479
  801SOL    HW2 2403   1.764   1.321   1.494  0.9012  1.1604 -1.2306
  802SOL     OW 2404   2.978   1.230   0.563 -0.1220 -0.1184 -0.3191
  802SOL    HW1 2405   2.898   1.292   0.567 -1.1290 -0.0880  2.2921
  802SOL    HW2 2406   2.946   1.138   0.538 -0.8637 -0.6725  0.3828
  803SOL     OW 2407   0.944   1.881   2.578 -0.3302 -0.0922  0.6126
  803SOL    HW1 2408   0.879   1.901   2.656  0.3787  1.2766  2.8534
  803SOL    HW2 2409   1.030   1.842   2.619 -1.3249  0.4499 -2.6809
  804SOL     OW 2410   1.521   1.280   0.216  0.3551  0.3342 -0.1128
  804SOL    HW1 2411   1.441   1.334   0.247  1.7297  2.0786  0.0919
  804SOL    HW2 2412   1.549   1.213   0.288  0.3300  1.6725 -2.7581
  805SOL     OW 2413   2.841   1.712   2.650 -0.4718 -0.7624 -0.0412
  805SOL    HW1 2414   2.772   1.786   2.672  0.6424  1.0928 -1.6671
  805SOL    HW2 2415   2.931   1.741   2.688 -2.6059  0.0979  1.5503
  806SOL     OW 2416   0.596   3.036   0.436 -0.0663  0.2955  0.0265
  806SOL    HW1 2417   0.544   3.062   0.524 -2.0685  0.2273  2.6535
  806SOL    HW2 2418   0.525   2.989   0.375 -2.5389 -1.4367 -2.1488
  807SOL     OW 2419   1.896   1.796   2.835  0.6498  0.6930  0.7790
  807SOL    HW1 2420   1.832   1.810   2.913 -1.5687 -1.4281  0.0633
  807SOL    HW2 2421   1.944   1.710   2.850  0.3418 -0.5334  1.2688
  808SOL     OW 2422   0.474   1.241   0.656  0.0522 -0.2528 -0.4535
  808SOL    HW1 2423   0.497   1.345   0.658  1.2072  0.9169 -1.9574
  808SOL    HW2 2424   0.420   1.219   0.739  0.9319  1.5271  0.0459
  809SOL     OW 2425   2.567   0.891   0.548 -0.9387  0.1901 -0.6798
  809SOL    HW1 2426   2.576   0.987   0.508 -0.6235  0.0474  0.8909
  809SOL    HW2 2427   2.602   0.818   0.485  1.7606  2.9771  2.2595
  810SOL     OW 2428   0.855   0.973   0.525  0.3761 -0.0356  0.4916
  810SOL    HW1 2429   0.814   1.067   0.529 -0.4928 -1.9177  0.5105
  810SOL    HW2 2430   0.949   0.983   0.500 -2.0693  1.4695  1.2581
  811SOL     OW 2431   1.447   2.562   1.278 -0.5980 -0.1292  0.2582
  811SOL    HW1 2432   1.515   2.541   1.202 -0.1039 -0.8327  0.9024
  811SOL    HW2 2433   1.463   2.502   1.365  1.2598 -1.7173  4.1216
  812SOL     OW 2434   1.172   2.538   1.759  0.0764  0.4083  0.0414
  812SOL    HW1 2435   1.158   2.599   1.840  2.5171  0.6923  0.8783
  812SOL    HW2 2436   1.129   2.575   1.673 -1.5326  0.9764 -1.1107
  813SOL     OW 2437   1.249   2.940   1.832 -0.2503  0.0792 -0.3262
  813SOL    HW1 2438   1.226   3.034   1.872  0.0081 -1.0924  1.3780
  813SOL    HW2 2439   1.241   2.926   1.732 -0.9328 -0.9766 -1.5601
  814SOL     OW 2440   1.162   2.362   2.574 -0.0194 -0.0162 -0.8475
  814SOL    HW1 2441   1.092   2.319   2.518  2.0735 -1.1338 -0.1304
  814SOL    HW2 2442   1.222   2.295   2.632  0.6253 -0.7378  2.4073
  815SOL     OW 2443   0.959   0.213   2.442 -0.2244  0.2062  0.1472
  815SOL    HW1 2444   0.888   0.206   2.364 -2.1404 -0.4398 -3.6270
  815SOL    HW2 2445   1.026   0.284   2.420 -0.7720  0.7615 -1.4764
  816SOL     OW 2446   2.044   0.282   2.978 -0.1646  0.0933 -0.2015
  816SOL    HW1 2447   1.990   0.364   2.956  0.6268  0.6273  1.3129
  816SOL    HW2 2448   2.004   0.194   2.944 -1.8433  2.7930  1.5884
  817SOL     OW 2449   2.167   0.282   2.274  0.1822 -0.4156  0.0321
  817SOL    HW1 2450   2.137   0.279   2.369 -0.7957  0.2969  3.8456
  817SOL    HW2 2451   2.197   0.374   2.242  0.9476 -1.8000  0.6225
  818SOL     OW 2452   1.584   0.503   0.054 -0.0430 -0.3882 -0.2875
  818SOL    HW1 2453   1.655   0.571   0.078  0.0999 -1.0067  0.5743
  818SOL    HW2 2454   1.629   0.410   0.061 -1.1218 -0.1159  0.5842
  819SOL     OW 2455   2.238   1.795   2.547 -0.3176  0.8237 -0.0584
  819SOL    HW1 2456   2.149   1.744   2.539 -0.6542  1.1377 -1.2516
  819SOL    HW2 2457   2.231   1.892   2.510  2.0118  3.4052  0.8093
  820SOL     OW 2458   0.203   1.759   0.064  0.2402  0.1237 -0.2673
  820SOL    HW1 2459   0.216   1.799   3.079  2.9769  0.7252  1.4988
  820SOL    HW2 2460   0.221   1.662   0.064 -0.9801  1.6758  0.3619
  821SOL     OW 2461   0.299   2.988   0.879 -0.4119  0.3521 -0.0474
  821SOL    HW1 2462   0.318   3.089   0.886 -0.4783  0.1128 -0.3277
  821SOL    HW2 2463   0.250   2.971   0.792  1.8991 -0.8786  0.8803
  822SOL     OW 2464   2.921   2.644   3.019 -0.6841 -0.0352 -0.0899
  822SOL    HW1 2465   2.887   2.641   0.009  1.9308  0.4250 -0.8237
  822SOL    HW2 2466   2.855   2.671   2.945  0.1160 -2.0503  0.2665
  823SOL     OW 2467   1.307   0.718   2.226  0.0428  0.3887 -0.1966
  823SOL    HW1 2468   1.312   0.748   2.131  0.2691 -0.0159  2.3339
  823SOL    HW2 2469   1.394   0.669   2.245 -0.5174  2.1198 -0.4893
  824SOL     OW 2470   2.739   2.283   1.964  0.3883  0.3406 -0.4673
  824SOL    HW1 2471   2.689   2.325   2.040  0.6756  0.1436 -1.1377
  824SOL    HW2 2472   2.747   2.341   1.884 -1.3044 -0.8865  1.0748
  825SOL     OW 2473   3.002   2.198   2.573 -0.6483  0.0114 -0.3417
  825SOL    HW1 2474   2.905   2.193   2.559  4.1786  0.2809 -1.1522
  825SOL    HW2 2475   3.056   2.155   2.501 -0.5902  0.0864  0.9642
  826SOL     OW 2476   2.394   1.107   2.470 -0.1542  0.1461  0.4267
  826SOL    HW1 2477   2.370   1.118   2.373  0.0959 -1.7555  0.9585
  826SOL    HW2 2478   2.391   1.193   2.523  2.8362  0.7353 -0.5914
  827SOL     OW 2479   2.345   2.356   1.222 -0.3477  0.0611  0.2617
  827SOL    HW1 2480   2.309   2.259   1.220 -0.5261  0.3786  3.9533
  827SOL    HW2 2481   2.309   2.396   1.312 -3.4807  0.4616  1.4548
  828SOL     OW 2482   0.166   0.113   1.510 -0.2497  0.2790 -0.3419
  828SOL    HW1 2483   0.132   0.030   1.557 -0.0712 -0.4910  2.0760
  828SOL    HW2 2484   0.254   0.143   1.552  1.4028 -0.8105 -2.9702
  829SOL     OW 2485   1.578   2.393   2.377 -0.2923 -0.2910  0.5923
  829SOL    HW1 2486   1.612   2.304   2.418  2.3726  2.8505  1.2208
  829SOL    HW2 2487   1.653   2.431   2.320 -0.9715  0.7664 -0.8425
  830SOL     OW 2488   1.074   0.324   0.568 -0.5190 -0.4353  0.5324
  830SOL    HW1 2489   1.008   0.257   0.609  1.4866  0.9344  1.7136
  830SOL    HW2 2490   1.062   0.419   0.595 -0.3881  1.9790 -0.0121
  831SOL     OW 2491   3.013   1.616   2.949  0.2656 -0.4554  0.0633
  831SOL    HW1 2492   3.009   1.606   3.054  1.4187 -0.2696 -0.1522
  831SOL    HW2 2493   2.957   1.544   2.905  1.4250  2.9055  1.4265
  832SOL     OW 2494   1.781   2.146   2.182  0.4536 -0.0933 -0.1657
  832SOL    HW1 2495   1.685   2.152   2.218  0.8496  1.0191 -1.0224
  832SOL    HW2 2496   1.796   2.224   2.116 -0.6925 -0.2130 -0.3967
  833SOL     OW 2497   0.894   0.341   2.133 -0.5434 -0.5633  0.0813
  833SOL    HW1 2498   0.976   0.368   2.079  2.5633 -0.5517 -0.9853
  833SOL    HW2 2499   0.892   0.238   2.138  0.7218 -1.6641 -1.2813
  834SOL     OW 2500   0.363   0.810   1.434 -0.1781  0.6891  0.2252
  834SOL    HW1 2501   0.363   0.706   1.448 -2.0921  0.3673  0.8184
  834SOL    HW2 2502   0.271   0.840   1.452  3.9566 -1.9372  0.2984
  835SOL     OW 2503   2.798   0.977   0.032 -0.2922 -0.3161 -0.1842
  835SOL    HW1 2504   2.776   0.879   0.062  0.3498  1.7510 -1.0673
  835SOL    HW2 2505   2.778   1.035   0.112 -2.6343 -0.3565 -1.4039
  836SOL     OW 2506   1.117   1.726   0.252  0.5023  0.2510  0.7545
  836SOL    HW1 2507   1.101   1.829   0.254 -2.7905  1.9114 -1.0645
  836SOL    HW2 2508   1.212   1.699   0.227  2.4403 -2.9624 -0.5581
  837SOL     OW 2509   1.530   1.649   1.053 -0.2659 -0.8455 -0.7454
  837SOL    HW1 2510   1.575   1.723   1.007 -1.4765 -0.6043  1.7797
  837SOL    HW2 2511   1.498   1.682   1.144 -0.4543  0.6333 -2.2295
  838SOL     OW 2512   1.167   1.033   2.255  0.1971  0.0788  0.1338
  838SOL    HW1 2513   1.086   1.021   2.196  1.4360  0.7274  1.5076
  838SOL    HW2 2514   1.166   1.134   2.295 -0.6023  2.6513  2.2103
  839SOL     OW 2515   0.750   2.069   2.497  0.4551  0.0764  0.2561
  839SOL    HW1 2516   0.832   2.022   2.457  1.6889 -1.1296  1.5659
  839SOL    HW2 2517   0.781   2.115   2.583  2.4939 -1.4653 -1.3235
  840SOL     OW 2518   0.737   2.266   0.340  0.3054 -0.3368  1.3807
  840SOL    HW1 2519   0.705   2.317   0.258 -3.3440  1.1073  0.8995
  840SOL    HW2 2520   0.678   2.288   0.418  3.1165 -2.1065 -2.8593
  841SOL     OW 2521   1.653   2.428   0.149 -0.5093  0.5241  0.1004
  841SOL    HW1 2522   1.708   2.393   0.226  0.5447 -0.2004 -0.4666
  841SOL    HW2 2523   1.714   2.438   0.067  2.0891 -3.4135 -1.2296
  842SOL     OW 2524   0.530   0.633   3.069  0.3196 -0.6402  0.2750
  842SOL    HW1 2525   0.492   0.645   0.057 -1.0299  2.5070  0.1926
  842SOL    HW2 2526   0.632   0.643   3.072  0.8835 -0.4428  1.0723
  843SOL     OW 2527   1.210   0.327   0.853 -0.3672  0.0552 -0.0815
  843SOL    HW1 2528   1.137   0.381   0.807 -1.2620 -1.0398  0.3562
  843SOL    HW2 2529   1.216   0.349   0.952  2.3781 -0.6591 -1.3797
  844SOL     OW 2530   2.830   0.015   2.661 -0.7231 -0.0318  0.2810
  844SOL    HW1 2531   2.736   0.005   2.686  2.3374  1.1265 -1.2692
  844SOL    HW2 2532   2.855   0.002   2.566 -1.3625  1.0906  0.5563
  845SOL     OW 2533   2.627   2.355   1.211 -0.2994  0.5116  0.1067
  845SOL    HW1 2534   2.537   2.394   1.191  4.0348 -1.1022 -1.3882
  845SOL    HW2 2535   2.620   2.266   1.260  2.7250 -1.1049  0.0228
  846SOL     OW 2536   2.742   1.883   2.070  1.0010  0.3650 -0.8880
  846SOL    HW1 2537   2.813   1.950   2.046 -2.3472 -0.2693  3.2524
  846SOL    HW2 2538   2.775   1.788   2.057 -1.2814  0.7324 -0.7418
  847SOL     OW 2539   1.082   0.760   1.562  0.1975  0.4028 -0.0535
  847SOL    HW1 2540   1.100   0.794   1.656  1.3434 -0.3848  0.5238
  847SOL    HW2 2541   1.010   0.691   1.570 -0.2878  2.2767  2.5306
  848SOL     OW 2542   2.860   2.944   0.181 -0.0479  0.0462 -0.0217
  848SOL    HW1 2543   2.807   3.015   0.234 -0.1423  0.3164 -0.9929
  848SOL    HW2 2544   2.946   2.981   0.140 -0.2152  0.7783 -0.4587
  849SOL     OW 2545   0.719   2.900   3.040 -0.0548  0.5018  0.3304
  849SOL    HW1 2546   0.674   2.977   2.990 -1.2601 -1.7638  1.4320
  849SOL    HW2 2547   0.743   2.929   0.028 -1.5115 -1.2926 -1.1441
  850SOL     OW 2548   1.557   3.100   1.101  0.0647 -0.4599 -0.1053
  850SOL    HW1 2549   1.581   0.078   1.042  0.0593  1.1695 -3.0301
  850SOL    HW2 2550   1.620   3.028   1.070  0.8721 -0.3402 -0.8908
  851SOL     OW 2551   2.662   0.199   2.084  0.4458  0.1793 -0.1888
  851SOL    HW1 2552   2.691   0.288   2.132  0.7277  2.5174  0.4950
  851SOL    HW2 2553   2.694   0.202   1.989 -1.1740  0.4746 -0.9938
  852SOL     OW 2554   1.817   0.618   2.300  0.5212 -0.2683  0.3690
  852SOL    HW1 2555   1.729   0.647   2.267 -0.0773  2.5218  1.8858
  852SOL    HW2 2556   1.835   0.522   2.273  0.8961 -1.7590  1.2318
  853SOL     OW 2557   0.002   3.095   0.472  0.4466 -0.0776  0.0960
  853SOL    HW1 2558   3.085   0.082   0.510 -0.7426  1.2660  2.5130
  853SOL    HW2 2559   3.045   3.022   0.509  0.0399 -0.5517  1.1776
  854SOL     OW 2560   2.356   1.333   2.227  0.0040  0.2492  0.4779
  854SOL    HW1 2561   2.456   1.353   2.212  0.0134  1.0375  1.5156
  854SOL    HW2 2562   2.333   1.347   2.322 -0.3238  0.9367  0.4639
  855SOL     OW 2563   0.845   2.717   0.196 -0.6875  0.1210 -0.0259
  855SOL    HW1 2564   0.746   2.699   0.163 -0.4414  2.8993 -1.5480
  855SOL    HW2 2565   0.900   2.626   0.192  2.3773 -1.5179 -0.1723
  856SOL     OW 2566   3.019   3.098   2.887  0.2453  0.0447 -0.5552
  856SOL    HW1 2567   2.946   3.101   2.816  2.3674 -0.4475  0.5021
  856SOL    HW2 2568   3.047   3.000   2.904  1.0603 -0.8321 -0.3043
  857SOL     OW 2569   1.230   2.903   1.552 -0.4271 -0.4403 -0.0378
  857SOL    HW1 2570   1.273   2.871   1.461  1.1760  0.3606 -0.8305
  857SOL    HW2 2571   1.173   2.988   1.549  0.6894  4.4354  0.8764
  858SOL     OW 2572   2.813   2.395   1.732 -0.1523  0.2611 -0.0282
  858SOL    HW1 2573   2.778   2.309   1.682  1.4292 -0.4594  1.6789
  858SOL    HW2 2574   2.896   2.440   1.687  0.8463  0.1341 -0.3225
  859SOL     OW 2575   1.449   2.204   1.878  0.0337  0.1722 -0.1420
  859SOL    HW1 2576   1.371   2.234   1.818 -0.7399  0.3155 -0.0667
  859SOL    HW2 2577   1.483   2.278   1.947 -4.8507 -0.3918  1.5890
  860SOL     OW 2578   2.238   2.863   0.085  0.2759 -0.0441 -0.0803
  860SOL    HW1 2579   2.258   2.807   0.000  1.1342 -2.8150  2.6881
  860SOL    HW2 2580   2.166   2.829   0.145 -0.8997  1.3809 -1.2472
  861SOL     OW 2581   2.227   2.829   0.489 -0.5095  0.2696  0.0790
  861SOL    HW1 2582   2.136   2.879   0.505 -2.6192  6.1974 -1.7831
  861SOL    HW2 2583   2.236   2.748   0.553  1.1095 -0.0969  0.0968
  862SOL     OW 2584   1.684   0.226   2.384  0.3648 -0.1444  0.0391
  862SOL    HW1 2585   1.694   0.136   2.434  2.5834 -4.1963 -0.7068
  862SOL    HW2 2586   1.776   0.249   2.345 -1.7032  1.1260 -1.1114
  863SOL     OW 2587   0.005   0.558   0.889 -0.3886 -0.2009 -0.2224
  863SOL    HW1 2588   0.104   0.573   0.862 -1.0253  0.9270 -0.8191
  863SOL    HW2 2589   3.047   0.581   0.812  1.6989  0.9272  0.0633
  864SOL     OW 2590   0.414   2.725   2.119  0.8434 -0.0452 -0.2218
  864SOL    HW1 2591   0.474   2.730   2.203  1.5770  2.7660  1.0957
  864SOL    HW2 2592   0.323   2.672   2.135 -2.6854 -1.5673  0.5226
  865SOL     OW 2593   0.672   1.032   3.006 -0.1076  0.1823 -0.5144
  865SOL    HW1 2594   0.673   0.949   2.950 -1.3569  1.7484 -0.0058
  865SOL    HW2 2595   0.584   1.041   3.057 -0.1144 -0.1938 -1.6865
  866SOL     OW 2596   2.803   0.698   0.092 -0.2266 -0.2730  0.2797
  866SOL    HW1 2597   2.880   0.671   0.151  1.1981  0.1337 -1.2573
  866SOL    HW2 2598   2.831   0.698   3.100 -0.8088 -0.0522  2.4682
  867SOL     OW 2599   3.087   2.840   2.969  0.2184 -0.4419  0.3558
  867SOL    HW1 2600   3.099   2.900   3.050 -0.3775  0.5195 -0.6661
  867SOL    HW2 2601   3.031   2.760   2.992  1.2146  1.1778  0.4169
  868SOL     OW 2602   1.564   2.844   0.354 -0.0196  0.3056  0.0472
  868SOL    HW1 2603   1.475   2.868   0.403  1.3534 -1.9871  0.7925
  868SOL    HW2 2604   1.623   2.780   0.410 -1.5322 -2.7272  1.9097
  869SOL     OW 2605   1.597   1.553   0.678  0.0497 -0.0682 -0.0043
  869SOL    HW1 2606   1.522   1.551   0.745  0.6243  1.8241  1.4179
  869SOL    HW2 2607   1.613   1.646   0.635  0.6613  1.3272 -0.0457
  870SOL     OW 2608   1.683   1.882   0.875 -0.1315 -0.1850  0.6440
  870SOL    HW1 2609   1.780   1.863   0.895  0.4322  2.0039 -1.0348
  870SOL    HW2 2610   1.665   1.903   0.777  0.7612  1.0150  2.5123
  871SOL     OW 2611   1.333   1.357   1.335 -0.0743 -0.3638 -0.7120
  871SOL    HW1 2612   1.315   1.282   1.404 -2.3295 -1.6512  2.3581
  871SOL    HW2 2613   1.387   1.332   1.258 -0.8147  0.8470  0.4811
  872SOL     OW 2614   1.016   1.536   1.720  0.0111  0.2311 -0.0262
  872SOL    HW1 2615   1.015   1.466   1.797 -0.8763 -0.3685 -0.0055
  872SOL    HW2 2616   0.977   1.626   1.752 -0.3368  0.8068  1.1931
  873SOL     OW 2617   0.837   1.590   2.326  0.2185  0.3972 -0.9141
  873SOL    HW1 2618   0.913   1.530   2.356  1.3650 -0.7250  3.3547
  873SOL    HW2 2619   0.786   1.617   2.413  1.4905  1.5224 -0.8738
  874SOL     OW 2620   0.549   1.329   1.140 -0.0748  0.0168 -0.5803
  874SOL    HW1 2621   0.454   1.349   1.103 -1.6491 -1.3048 -1.7860
  874SOL    HW2 2622   0.550   1.253   1.210 -1.3742  0.1282  0.3311
  875SOL     OW 2623   2.780   0.116   1.182 -0.1920  0.6297 -0.0730
  875SOL    HW1 2624   2.712   0.147   1.115  1.2114  3.0145 -0.2755
  875SOL    HW2 2625   2.735   0.098   1.277 -0.4909 -0.2971  1.4522
  876SOL     OW 2626   0.797   0.652   0.035  0.1820  0.4943 -0.1716
  876SOL    HW1 2627   0.825   0.578   0.094 -0.2499  2.3015 -1.6496
  876SOL    HW2 2628   0.776   0.732   0.092  0.7452 -2.9283 -0.9315
  877SOL     OW 2629   0.010   0.346   1.423  0.3924 -0.1539 -0.5007
  877SOL    HW1 2630   3.053   0.325   1.345  0.7082 -0.4333 -0.2095
  877SOL    HW2 2631   0.059   0.259   1.446 -2.1479  0.8588  0.0886
  878SOL     OW 2632   1.706   2.185   3.066  0.6477  0.4772 -0.0764
  878SOL    HW1 2633   1.725   2.280   3.046 -3.0984  1.6006  1.2256
  878SOL    HW2 2634   1.792   2.136   3.084 -0.8205 -2.5376  1.4372
  879SOL     OW 2635   2.259   2.013   1.552 -0.3361 -0.4779 -0.6481
  879SOL    HW1 2636   2.183   2.075   1.528  1.2520  0.0276  0.0014
  879SOL    HW2 2637   2.293   2.027   1.647 -0.9430  0.7058  1.3219
  880SOL     OW 2638   0.798   0.208   1.627 -0.2899  0.0624 -0.1568
  880SOL    HW1 2639   0.791   0.163   1.716 -2.8716 -0.6642  0.7322
  880SOL    HW2 2640   0.769   0.306   1.639 -0.2172  1.4964  1.3263
  881SOL     OW 2641   1.056   2.072   3.062 -0.0970  0.1090 -0.6058
  881SOL    HW1 2642   1.047   2.094   2.965  0.1057 -1.3363  1.5880
  881SOL    HW2 2643   1.141   2.022   3.089 -1.0882  0.2365  1.8050
  882SOL     OW 2644   2.225   1.395   1.972  0.0653  0.5925  0.1615
  882SOL    HW1 2645   2.273   1.377   2.062 -1.9266 -0.9100 -1.1926
  882SOL    HW2 2646   2.290   1.407   1.893  1.3165 -0.3141 -2.2219
  883SOL     OW 2647   1.316   0.769   1.947 -0.0826 -0.1257  0.3649
  883SOL    HW1 2648   1.223   0.804   1.937  0.3915  0.5727  1.8807
  883SOL    HW2 2649   1.340   0.680   1.905  0.0119 -2.1956 -2.4517
  884SOL     OW 2650   2.667   0.475   0.012  0.3172  0.6678  0.1228
  884SOL    HW1 2651   2.706   0.403   0.077  0.2818  0.5517 -0.8557
  884SOL    HW2 2652   2.716   0.565   0.016 -0.6005 -2.5349 -2.6767
  885SOL     OW 2653   0.206   2.075   0.295  0.5240  0.0114 -0.2016
  885SOL    HW1 2654   0.249   1.994   0.343  1.6831 -0.6112  2.4131
  885SOL    HW2 2655   0.270   2.155   0.298 -2.3438  1.8996 -0.0648
  886SOL     OW 2656   1.920   1.506   2.963  0.4101 -0.6589 -0.1783
  886SOL    HW1 2657   1.952   1.431   2.909 -2.0429  2.1748  1.7219
  886SOL    HW2 2658   1.830   1.474   3.001 -0.4907 -1.7938 -1.4970
  887SOL     OW 2659   1.725   0.582   1.715  0.0914  0.0830 -0.1551
  887SOL    HW1 2660   1.645   0.539   1.664 -0.2389  1.1073  0.8513
  887SOL    HW2 2661   1.688   0.653   1.774  0.6954 -1.6342 -3.6240
  888SOL     OW 2662   2.816   1.241   1.752 -0.7111 -0.5447 -0.6322
  888SOL    HW1 2663   2.861   1.319   1.800 -1.7709  0.7876 -0.2858
  888SOL    HW2 2664   2.887   1.165   1.733  2.1325 -0.5490 -1.4400
  889SOL     OW 2665   2.892   2.670   0.986  0.0687 -0.5857  0.2399
  889SOL    HW1 2666   2.982   2.700   1.027  3.1150 -1.1545  0.2116
  889SOL    HW2 2667   2.911   2.605   0.911  1.1537  2.9755 -0.5026
  890SOL     OW 2668   0.077   2.776   2.721  0.1403  0.0020 -0.4427
  890SOL    HW1 2669   0.129   2.684   2.712 -0.7947 -1.8059  0.0531
  890SOL    HW2 2670   0.047   2.798   2.818 -1.3759  1.3706  2.1520
  891SOL     OW 2671   0.597   1.669   0.052 -0.1612 -0.1959 -0.7188
  891SOL    HW1 2672   0.697   1.696   0.070  2.0771 -0.0540 -1.5955
  891SOL    HW2 2673   0.581   1.584   0.106 -1.4256  0.5166  2.7399
  892SOL     OW 2674   0.207   2.400   1.196 -0.3940  0.4195 -0.1641
  892SOL    HW1 2675   0.271   2.336   1.240  0.5610  0.6656 -0.1529
  892SOL    HW2 2676   0.113   2.364   1.205 -1.2056  0.2725 -0.7054
  893SOL     OW 2677   0.487   0.024   1.263 -0.1285  0.4785 -0.0011
  893SOL    HW1 2678   0.512   0.081   1.340  2.5827 -1.6658  1.8564
  893SOL    HW2 2679   0.495   3.029   1.284 -0.5263 -0.5813  0.2304
  894SOL     OW 2680   2.436   1.556   0.908 -0.4360 -0.8316 -0.5237
  894SOL    HW1 2681   2.414   1.658   0.881 -1.6309  2.3341 -1.0431
  894SOL    HW2 2682   2.398   1.498   0.832  0.3970  0.0578 -0.2632
  895SOL     OW 2683   2.667   2.655   1.639 -0.0728 -0.2955  0.4309
  895SOL    HW1 2684   2.713   2.567   1.653 -0.9892  0.0541  1.8392
  895SOL    HW2 2685   2.682   2.693   1.549  0.2566 -0.7148 -0.3598
  896SOL     OW 2686   0.918   0.510   1.527  0.5743  0.2557  0.0224
  896SOL    HW1 2687   0.991   0.441   1.537 -2.6018  1.3225 -1.9568
  896SOL    HW2 2688   0.844   0.498   1.595  1.4743  2.7097 -0.8245
  897SOL     OW 2689   0.793   1.650   1.400  0.0545  0.1091  0.4438
  897SOL    HW1 2690   0.886   1.669   1.364 -0.2037 -1.3256 -0.1602
  897SOL    HW2 2691   0.720   1.669   1.327  1.1262 -0.4131 -1.2221
  898SOL     OW 2692   1.497   2.549   1.716  0.0021  0.0451  0.0226
  898SOL    HW1 2693   1.494   2.479   1.643 -2.7997 -0.2346  1.0715
  898SOL    HW2 2694   1.402   2.576   1.737  0.8974  0.6913 -0.3130
  899SOL     OW 2695   0.887   0.449   0.185 -0.1362 -0.0246 -0.7712
  899SOL    HW1 2696   0.842   0.439   0.278  2.0946  2.1047 -1.1969
  899SOL    HW2 2697   0.861   0.381   0.120 -2.1147  1.6551  1.9123
  900SOL     OW 2698   1.376   2.349   2.194  0.6285  0.0334 -0.2495
  900SOL    HW1 2699   1.427   2.386   2.273 -0.5808 -0.5969  0.6129
  900SOL    HW2 2700   1.399   2.392   2.106 -0.4055 -1.0782  0.8475
  901SOL     OW 2701   1.094   2.251   0.173  0.2514 -0.2664 -0.8037
  901SOL    HW1 2702   1.056   2.193   0.096  4.5541 -0.3350 -2.4820
  901SOL    HW2 2703   1.152   2.323   0.133  0.8847  0.1624 -0.5501
  902SOL     OW 2704   1.447   1.293   0.614  0.0162  0.2666  0.9837
  902SOL    HW1 2705   1.373   1.249   0.673 -1.6262  0.1437  1.8017
  902SOL    HW2 2706   1.510   1.345   0.666 -2.1145 -4.7858 -2.0613
  903SOL     OW 2707   2.357   0.917   0.007  0.5512 -0.0438 -0.4030
  903SOL    HW1 2708   2.305   0.957   3.037  1.1768 -0.2049 -1.7912
  903SOL    HW2 2709   2.454   0.938   3.105 -0.0211 -1.3797  1.7653
  904SOL     OW 2710   0.852   1.134   0.097 -0.0478  0.0414  0.0137
  904SOL    HW1 2711   0.809   1.109   0.008  3.5535 -1.0400  1.3000
  904SOL    HW2 2712   0.795   1.205   0.146  2.1139  4.3129  4.0441
  905SOL     OW 2713   2.127   3.010   1.313  0.2905  0.1118  0.6649
  905SOL    HW1 2714   2.171   3.104   1.332 -4.1467  1.6067 -2.3289
  905SOL    HW2 2715   2.193   2.938   1.310 -0.3209  1.3290 -2.5291
  906SOL     OW 2716   2.813   2.542   1.227 -0.0529  0.0918 -0.1567
  906SOL    HW1 2717   2.840   2.558   1.129 -2.1238 -0.6902 -2.3491
  906SOL    HW2 2718   2.734   2.479   1.233 -3.0059 -3.3431 -0.2146
  907SOL     OW 2719   1.132   0.989   0.362  0.6091  0.0154 -0.8507
  907SOL    HW1 2720   1.132   0.886   0.374  0.7080  0.6485  0.2272
  907SOL    HW2 2721   1.134   1.012   0.265 -2.0776 -1.9852  3.4824
  908SOL     OW 2722   1.490   0.214   0.761  0.3642 -0.3540 -0.2163
  908SOL    HW1 2723   1.416   0.281   0.787  0.2376 -1.7406  2.1965
  908SOL    HW2 2724   1.577   0.245   0.799 -0.9727  2.9871 -0.6655
  909SOL     OW 2725   2.222   1.078   1.512 -0.1471 -0.5205  0.0122
  909SOL    HW1 2726   2.276   1.011   1.570  0.8042 -3.2407 -1.8202
  909SOL    HW2 2727   2.276   1.099   1.427 -0.7152  1.3049 -1.5263
  910SOL     OW 2728   1.897   0.513   1.986 -0.1419  0.1152 -0.1757
  910SOL    HW1 2729   1.902   0.601   2.030 -2.4135 -3.3500  1.4788
  910SOL    HW2 2730   1.980   0.490   1.936  0.2692 -0.6617  2.0046
  911SOL     OW 2731   2.610   0.964   2.954  0.2397 -0.4216  0.3843
  911SOL    HW1 2732   2.637   0.886   2.896 -0.1293  0.8711  2.6194
  911SOL    HW2 2733   2.675   0.980   3.029 -0.6808  1.5646 -1.0962
  912SOL     OW 2734   3.104   1.245   1.608 -0.7295  0.2099  0.2833
  912SOL    HW1 2735   0.097   1.223   1.598  2.2658  1.6996  1.1881
  912SOL    HW2 2736   3.074   1.328   1.560 -1.0548  0.8320 -2.0635
  913SOL     OW 2737   3.035   2.401   1.258 -0.0569 -0.2671 -0.2327
  913SOL    HW1 2738   3.004   2.346   1.338 -0.4957  1.1188  0.4131
  913SOL    HW2 2739   2.966   2.477   1.252 -1.0286  4.9559  1.9177
  914SOL     OW 2740   1.840   1.113   1.850 -0.4248  0.2610  0.2420
  914SOL    HW1 2741   1.940   1.122   1.875 -0.1377  1.7413 -1.1118
  914SOL    HW2 2742   1.822   1.065   1.761 -1.4412 -3.0944  2.2428
  915SOL     OW 2743   2.136   0.761   1.077 -0.0715 -0.5215 -0.0709
  915SOL    HW1 2744   2.183   0.703   1.143  0.8907  2.4731 -0.1573
  915SOL    HW2 2745   2.146   0.729   0.977  0.7312  0.4889  1.9618
  916SOL     OW 2746   2.069   2.178   1.207  0.2939 -0.3191  0.7923
  916SOL    HW1 2747   2.046   2.272   1.170 -2.3887  1.9877 -1.6509
  916SOL    HW2 2748   1.995   2.107   1.199 -2.2247  0.2379  1.8007
  917SOL     OW 2749   1.962   1.968   2.654  0.0032  0.5101  0.5509
  917SOL    HW1 2750   1.963   2.070   2.679 -0.3620  3.5317  1.3166
  917SOL    HW2 2751   1.926   1.906   2.725  1.2904  0.1177  0.9845
  918SOL     OW 2752   1.849   2.686   2.424  0.1704  0.1555  0.1017
  918SOL    HW1 2753   1.935   2.738   2.403 -0.0962 -1.4441 -0.3371
  918SOL    HW2 2754   1.838   2.607   2.356 -2.1555 -2.0833  0.8513
  919SOL     OW 2755   1.312   2.789   1.312 -0.6940  0.2703  0.2294
  919SOL    HW1 2756   1.278   2.834   1.229  0.0582 -1.4862 -1.5899
  919SOL    HW2 2757   1.362   2.704   1.291  0.6238  0.0896  1.5665
  920SOL     OW 2758   0.150   0.078   2.433 -0.1299  0.0908 -0.0284
  920SOL    HW1 2759   0.185   3.092   2.442 -0.1610  0.3647 -0.7553
  920SOL    HW2 2760   0.070   0.096   2.500 -3.0528  1.6654  1.0947
  921SOL     OW 2761   2.988   1.039   1.732 -0.1467 -0.0488 -0.9492
  921SOL    HW1 2762   3.003   1.104   1.655 -0.1007 -0.5192 -0.1866
  921SOL    HW2 2763   3.078   1.001   1.771 -0.2938 -0.3058 -1.4762
  922SOL     OW 2764   2.193   2.590   0.299 -0.5325  0.4853 -0.4185
  922SOL    HW1 2765   2.107   2.541   0.283  0.6099 -0.4731  0.1255
  922SOL    HW2 2766   2.200   2.639   0.391  0.4843 -2.0875  0.8397
  923SOL     OW 2767   0.599   1.861   0.370  0.1955  0.4191 -0.4902
  923SOL    HW1 2768   0.532   1.872   0.292  1.5335  1.2310 -1.6122
  923SOL    HW2 2769   0.684   1.907   0.337  1.7588 -2.4826 -2.1566
  924SOL     OW 2770   1.117   0.618   0.101  0.1699  0.5719 -0.3231
  924SOL    HW1 2771   1.024   0.586   0.127  2.2241 -2.7715 -1.7379
  924SOL    HW2 2772   1.161   0.555   0.033 -1.3240 -2.2411 -1.1301
  925SOL     OW 2773   2.491   0.757   1.156  0.5576 -0.0739 -0.3987
  925SOL    HW1 2774   2.476   0.815   1.074 -1.9306  2.8235  0.8345
  925SOL    HW2 2775   2.400   0.722   1.192  0.4950 -0.9988  1.9037
  926SOL     OW 2776   0.591   0.436   1.320 -0.2275 -0.0477 -0.0615
  926SOL    HW1 2777   0.502   0.439   1.266 -0.2761 -0.6573  2.4881
  926SOL    HW2 2778   0.583   0.363   1.392  3.7367  1.6266  1.3176
  927SOL     OW 2779   0.359   1.731   2.326 -0.1405 -0.0506  0.3262
  927SOL    HW1 2780   0.258   1.718   2.325  0.4044  0.3892 -1.9461
  927SOL    HW2 2781   0.396   1.826   2.341  0.5970 -3.5732  0.8981
  928SOL     OW 2782   0.002   0.284   2.634 -0.3821  0.1654 -0.2145
  928SOL    HW1 2783   3.034   0.279   2.705 -0.5621 -0.8065  1.5805
  928SOL    HW2 2784   0.059   0.367   2.651 -1.7461  0.4805  0.6991
  929SOL     OW 2785   2.956   3.011   1.108 -0.3228  0.4483 -0.1532
  929SOL    HW1 2786   2.999   3.012   1.015 -1.6462 -0.4557  0.2102
  929SOL    HW2 2787   2.879   3.081   1.114 -0.8640  0.1920 -0.8537
  930SOL     OW 2788   2.192   0.700   1.774 -0.1522 -0.5984  0.8117
  930SOL    HW1 2789   2.169   0.613   1.815  0.1675  0.9997 -0.3445
  930SOL    HW2 2790   2.147   0.773   1.833 -0.9043  1.8496  3.8877
  931SOL     OW 2791   1.923   1.254   0.080  0.1059 -0.0131 -0.4639
  931SOL    HW1 2792   1.850   1.328   0.074  1.5207 -0.2064 -1.0341
  931SOL    HW2 2793   1.914   1.185   0.152  2.6350  1.0254 -0.4535
  932SOL     OW 2794   2.129   1.219   0.394  0.6861 -0.4747 -0.4113
  932SOL    HW1 2795   2.133   1.136   0.341  1.4642  1.1216  1.1836
  932SOL    HW2 2796   2.032   1.251   0.400 -1.2397  0.2358 -0.5254
  933SOL     OW 2797   2.163   1.568   0.944  0.1816  0.2849 -0.1494
  933SOL    HW1 2798   2.262   1.558   0.967 -1.7414 -0.9490  2.1243
  933SOL    HW2 2799   2.120   1.656   0.967 -3.0807  1.0910  0.0987
  934SOL     OW 2800   1.953   0.852   2.333 -0.1448  0.4591 -0.1913
  934SOL    HW1 2801   1.916   0.757   2.326  0.9332  2.1713  2.2629
  934SOL    HW2 2802   1.942   0.883   2.428  1.0558 -0.5860 -0.4935
  935SOL     OW 2803   0.090   0.988   0.413  0.3131  0.0195  0.3688
  935SOL    HW1 2804   0.147   0.944   0.338  1.7384 -0.4231 -1.9291
  935SOL    HW2 2805   0.149   1.058   0.459  0.4154 -0.6487 -0.6418
  936SOL     OW 2806   0.432   0.110   0.882  0.1610 -0.3697  0.1985
  936SOL    HW1 2807   0.499   0.074   0.952  0.5066 -0.0593  0.2707
  936SOL    HW2 2808   0.465   0.197   0.836  1.7810 -1.1357 -1.1035
  937SOL     OW 2809   0.091   3.012   2.003 -0.1725  0.0933  0.1438
  937SOL    HW1 2810   0.070   2.989   2.098 -0.8302  2.1557  0.5480
  937SOL    HW2 2811   0.074   2.941   1.931 -0.3751 -1.5164 -1.0681
  938SOL     OW 2812   0.016   2.602   0.123 -0.5566  0.3221 -0.1655
  938SOL    HW1 2813   3.029   2.639   0.146 -1.2168  1.1907  0.3170
  938SOL    HW2 2814   0.082   2.671   0.090  0.9851  0.5647 -1.0547
  939SOL     OW 2815   0.852   1.883   0.901 -0.7827  0.8309 -0.0669
  939SOL    HW1 2816   0.754   1.894   0.926 -1.0836  1.4456 -0.3796
  939SOL    HW2 2817   0.870   1.783   0.873 -0.6161  0.8051 -2.7216
  940SOL     OW 2818   0.009   0.546   3.023 -0.0178  0.6873 -0.1320
  940SOL    HW1 2819   0.033   0.572   0.012 -2.2458 -1.3945  0.5900
  940SOL    HW2 2820   0.091   0.518   2.967  0.7542 -0.6433 -2.1507
  941SOL     OW 2821   2.005   0.268   2.521  0.0864 -0.1658 -0.2039
  941SOL    HW1 2822   1.935   0.327   2.565 -0.9810 -0.2611  3.1838
  941SOL    HW2 2823   2.003   0.173   2.564 -2.8943 -2.1082  1.5946
  942SOL     OW 2824   1.194   0.410   1.101  0.0794  0.0152  0.0654
  942SOL    HW1 2825   1.219   0.383   1.196  1.9943  0.1084 -2.5384
  942SOL    HW2 2826   1.176   0.508   1.099  1.1439  3.7185 -0.0741
  943SOL     OW 2827   1.089   0.841   1.827 -0.9187  0.1089 -0.4782
  943SOL    HW1 2828   1.028   0.779   1.878 -1.7488  0.8120 -0.1762
  943SOL    HW2 2829   1.034   0.918   1.798  1.7992  0.2754  2.4631
  944SOL     OW 2830   2.032   0.894   1.421 -0.1225 -0.1013  0.6337
  944SOL    HW1 2831   2.082   0.807   1.439  0.8344  1.7635 -0.9770
  944SOL    HW2 2832   2.090   0.970   1.450  1.0045 -1.2121 -0.9801
  945SOL     OW 2833   2.663   0.017   0.259 -0.1277 -0.8188 -0.1201
  945SOL    HW1 2834   2.645   0.035   0.359 -0.2545 -0.9670 -3.2351
  945SOL    HW2 2835   2.592   3.062   0.215  1.2614  1.2206  2.1119
  946SOL     OW 2836   2.932   0.628   2.002  0.0196  0.0365 -0.2341
  946SOL    HW1 2837   2.857   0.588   2.060 -0.9116 -1.6699  2.6166
  946SOL    HW2 2838   2.906   0.722   1.963 -0.5135  1.1261  0.4436
  947SOL     OW 2839   1.052   2.886   0.152  0.3184  0.1950 -0.1724
  947SOL    HW1 2840   1.111   2.843   0.080 -2.4100  0.2812 -1.1918
  947SOL    HW2 2841   0.966   2.832   0.165 -0.7066 -0.5005  0.2927
  948SOL     OW 2842   2.450   1.910   1.371  0.2026  0.0581  0.0829
  948SOL    HW1 2843   2.375   1.947   1.428  1.9400 -2.0359 -1.3003
  948SOL    HW2 2844   2.467   1.813   1.404 -1.1691 -0.5847  3.0539
  949SOL     OW 2845   0.218   1.247   3.053  0.3415  0.0035  0.0398
  949SOL    HW1 2846   0.129   1.221   3.089  0.2856 -1.0161  0.3749
  949SOL    HW2 2847   0.216   1.259   2.955 -2.5193  3.2091  0.1967
  950SOL     OW 2848   0.594   2.537   1.034 -0.4683  0.1258 -0.0756
  950SOL    HW1 2849   0.546   2.619   0.999 -0.3903 -1.1858  1.5997
  950SOL    HW2 2850   0.540   2.454   1.028  0.1648 -2.5762 -0.6812
  951SOL     OW 2851   0.577   1.346   2.618  0.3613  0.2018 -0.3676
  951SOL    HW1 2852   0.521   1.387   2.691  1.0859  0.0192 -2.3916
  951SOL    HW2 2853   0.593   1.242   2.628  1.5093 -2.0254  1.3242
  952SOL     OW 2854   0.213   0.871   0.748 -0.3633 -0.4886  0.4419
  952SOL    HW1 2855   0.287   0.908   0.807  0.2117 -0.2056 -1.4398
  952SOL    HW2 2856   0.160   0.951   0.718  2.9229 -0.6107 -1.1045
  953SOL     OW 2857   2.736   2.986   2.217 -0.2168 -0.5928  0.8989
  953SOL    HW1 2858   2.692   3.065   2.259  0.1089 -3.8775  1.2856
  953SOL    HW2 2859   2.814   2.963   2.274  0.5622  2.4044 -1.3249
  954SOL     OW 2860   1.301   0.959   0.567  0.0313  0.3296 -0.0061
  954SOL    HW1 2861   1.261   0.982   0.477  1.1519  0.9065  1.1786
  954SOL    HW2 2862   1.402   0.960   0.576  2.1793  0.9041  0.6946
  955SOL     OW 2863   0.851   1.784   0.101 -0.1768  0.3196 -0.1120
  955SOL    HW1 2864   0.926   1.719   0.095 -2.0303  0.8305 -1.4827
  955SOL    HW2 2865   0.851   1.827   0.192 -1.8489 -1.3021 -2.0200
  956SOL     OW 2866   2.369   0.302   1.929 -0.1732 -0.2250  0.6994
  956SOL    HW1 2867   2.420   0.257   2.005  3.8974  0.1230  0.3704
  956SOL    HW2 2868   2.439   0.329   1.857  2.2337  0.9395 -0.2518
  957SOL     OW 2869   2.095   2.360   2.384  0.3051 -0.0062  0.4890
  957SOL    HW1 2870   2.110   2.265   2.371  0.9371  2.4619 -0.2771
  957SOL    HW2 2871   2.182   2.409   2.417  1.1171  2.1503  1.5312
  958SOL     OW 2872   1.644   1.116   1.345 -0.4246  0.5189 -0.5032
  958SOL    HW1 2873   1.701   1.183   1.394 -2.5924 -1.8841 -2.7464
  958SOL    HW2 2874   1.678   1.021   1.367  0.7347 -1.0228 -1.0086
  959SOL     OW 2875   2.052   2.050   2.207 -0.2717 -0.3655  0.4782
  959SOL    HW1 2876   2.074   2.057   2.106  3.0183 -0.4384 -1.1347
  959SOL    HW2 2877   1.962   2.092   2.227 -0.9721  2.1565  0.4605
  960SOL     OW 2878   0.363   0.979   2.756  0.6332  1.0855  0.3163
  960SOL    HW1 2879   0.388   0.961   2.657  0.7521  0.1296 -1.3228
  960SOL    HW2 2880   0.319   0.895   2.806 -2.4091 -0.4617  3.2279
  961SOL     OW 2881   3.073   1.252   2.786 -0.2321 -0.2243 -0.1509
  961SOL    HW1 2882   0.056   1.218   2.751  0.4592 -0.4803 -1.3648
  961SOL    HW2 2883   3.042   1.337   2.733 -2.1158  1.8894 -0.8296
  962SOL     OW 2884   0.453   1.427   2.384  0.3286 -0.0927 -0.0074
  962SOL    HW1 2885   0.404   1.515   2.398 -1.9060 -1.2221  1.7359
  962SOL    HW2 2886   0.518   1.421   2.466  3.7643  1.7651 -0.1825
  963SOL     OW 2887   2.900   2.016   0.077  0.5673 -0.9175 -0.0160
  963SOL    HW1 2888   2.871   2.108   0.115 -2.4938  2.3954  3.4155
  963SOL    HW2 2889   2.857   1.941   0.134  1.9941 -1.7527  0.1606
  964SOL     OW 2890   0.808   2.209   1.845  0.0594  0.0466 -0.1763
  964SOL    HW1 2891   0.855   2.137   1.903  1.6920  0.5047  3.5493
  964SOL    HW2 2892   0.834   2.306   1.873 -0.8510  0.6420 -0.3248
  965SOL     OW 2893   1.635   1.853   0.607 -0.1741  0.6067  0.6683
  965SOL    HW1 2894   1.641   1.957   0.589  2.2136  2.1919  2.6407
  965SOL    HW2 2895   1.701   1.810   0.543 -1.9777  0.2106 -2.1896
  966SOL     OW 2896   2.732   1.513   0.137 -0.5630 -0.0760 -0.4074
  966SOL    HW1 2897   2.693   1.431   0.082 -1.7542 -3.8172 -2.8234
  966SOL    HW2 2898   2.831   1.505   0.148  0.0582 -0.0469 -0.1204
  967SOL     OW 2899   2.002   0.089   1.995  0.4986 -0.3316 -0.3256
  967SOL    HW1 2900   2.046   0.156   1.936 -0.0668 -3.5609  1.7073
  967SOL    HW2 2901   2.036   3.098   1.969 -1.6777 -0.3994 -0.7313
  968SOL     OW 2902   1.426   0.147   0.160 -0.2685  0.3692  0.3553
  968SOL    HW1 2903   1.365   0.186   0.089 -1.9962  2.3376 -2.9468
  968SOL    HW2 2904   1.473   0.218   0.214  1.3866  0.2096 -1.9287
  969SOL     OW 2905   0.192   1.718   1.948 -0.1605  0.2699 -0.2039
  969SOL    HW1 2906   0.265   1.774   1.903 -0.2760  2.2274  1.6705
  969SOL    HW2 2907   0.182   1.630   1.895  0.8051 -0.2811  1.2015
  970SOL     OW 2908   2.034   2.434   1.142  0.4512 -0.1289 -0.0205
  970SOL    HW1 2909   2.085   2.453   1.054  3.0203 -0.6483 -0.7990
  970SOL    HW2 2910   1.999   2.521   1.197 -1.2795  2.7112  2.5064
  971SOL     OW 2911   2.148   2.279   0.765 -0.2253 -0.0226  0.0663
  971SOL    HW1 2912   2.180   2.336   0.842  1.3137  2.0852 -0.4841
  971SOL    HW2 2913   2.225   2.223   0.727 -0.4597 -0.3034 -0.3016
  972SOL     OW 2914   0.027   1.036   2.499 -0.3349 -0.1460 -0.5355
  972SOL    HW1 2915   0.071   0.946   2.471 -2.0935 -0.6157 -0.4867
  972SOL    HW2 2916   3.045   1.013   2.546 -1.1425 -1.9912  3.5258
  973SOL     OW 2917   0.695   0.316   0.690 -0.3894  0.1142 -0.0249
  973SOL    HW1 2918   0.698   0.398   0.747  1.9584  0.0491 -1.7307
  973SOL    HW2 2919   0.789   0.275   0.678  0.0549  1.3436  2.1409
  974SOL     OW 2920   2.340   0.949   1.906 -0.6075  0.1062 -0.1075
  974SOL    HW1 2921   2.375   0.867   1.956 -0.9414 -0.3602 -0.4370
  974SOL    HW2 2922   2.237   0.945   1.907  0.0136 -1.6818 -0.5337
  975SOL     OW 2923   0.200   3.050   0.269 -0.0456 -0.0665  0.3666
  975SOL    HW1 2924   0.129   3.062   0.336 -0.0523 -1.5083 -1.8918
  975SOL    HW2 2925   0.276   0.009   0.276 -1.8242  0.0268 -0.1697
  976SOL     OW 2926   0.250   1.877   0.993 -0.1229  0.6451 -0.0524
  976SOL    HW1 2927   0.183   1.806   1.025 -3.2870 -0.4241  1.2625
  976SOL    HW2 2928   0.251   1.886   0.891  1.3252  1.2849 -0.3627
  977SOL     OW 2929   0.905   1.948   0.638  0.0970  0.9566 -0.4825
  977SOL    HW1 2930   0.895   1.873   0.571  0.8049 -2.0509  1.4179
  977SOL    HW2 2931   0.907   1.911   0.733 -0.1666 -0.5831 -0.1153
  978SOL     OW 2932   0.089   0.859   0.006  0.1107 -0.0837 -0.4776
  978SOL    HW1 2933   0.161   0.855   3.037  2.9430 -1.1735  0.5264
  978SOL    HW2 2934   0.048   0.955   0.014  1.1398  0.7490  2.0652
  979SOL     OW 2935   1.851   1.433   0.615 -0.4212 -0.4678  0.4829
  979SOL    HW1 2936   1.939   1.485   0.631  1.9536  1.2711 -0.6145
  979SOL    HW2 2937   1.765   1.484   0.639 -2.9839 -0.9494 -0.0464
  980SOL     OW 2938   0.546   2.367   2.099 -0.1070 -0.1229  0.1056
  980SOL    HW1 2939   0.538   2.463   2.059 -1.7680  0.5854 -0.2153
  980SOL    HW2 2940   0.641   2.347   2.127  4.3623 -0.6181 -0.3300
  981SOL     OW 2941   2.232   1.107   2.887 -0.6022 -0.3342 -0.2429
  981SOL    HW1 2942   2.206   1.204   2.911  0.1106  0.6210  0.1784
  981SOL    HW2 2943   2.191   1.077   2.799 -0.9664  0.2815  0.2922
  982SOL     OW 2944   0.144   2.554   1.886  0.7379 -0.1701  0.2550
  982SOL    HW1 2945   0.154   2.530   1.988 -0.8515 -1.3381  2.1469
  982SOL    HW2 2946   0.217   2.524   1.829  1.4015 -0.4010 -0.3463
  983SOL     OW 2947   1.884   0.548   1.513 -0.2154  0.2217 -0.0003
  983SOL    HW1 2948   1.831   0.535   1.430  0.2604  0.6026  3.6417
  983SOL    HW2 2949   1.832   0.564   1.598 -0.5291 -1.3964 -1.8587
  984SOL     OW 2950   1.729   0.003   2.524  0.5116  0.1296  0.0324
  984SOL    HW1 2951   1.733   3.038   2.446 -0.9557 -2.8857 -2.8461
  984SOL    HW2 2952   1.679   3.074   2.605 -1.7340 -0.4502  1.6918
  985SOL     OW 2953   1.619   1.413   1.592 -0.0643  0.6056  0.1122
  985SOL    HW1 2954   1.574   1.321   1.588 -2.7188 -0.9898 -1.4368
  985SOL    HW2 2955   1.562   1.474   1.654 -0.5230  1.0149 -0.3000
  986SOL     OW 2956   2.039   2.855   2.303 -0.1117  0.0728 -0.3311
  986SOL    HW1 2957   2.125   2.855   2.247 -0.7784  1.5703 -0.9183
  986SOL    HW2 2958   1.980   2.931   2.281 -1.0989  2.4065  1.2357
  987SOL     OW 2959   2.671   1.931   2.718 -0.5149  0.1200 -0.2319
  987SOL    HW1 2960   2.748   1.966   2.770  0.6237 -2.8563 -0.8217
  987SOL    HW2 2961   2.624   2.005   2.672  0.4673  1.3251 -1.1073
  988SOL     OW 2962   2.991   0.696   1.665 -0.1076  0.0733 -0.6096
  988SOL    HW1 2963   3.007   0.753   1.585 -1.6742 -3.3623  0.2287
  988SOL    HW2 2964   2.953   0.748   1.742  1.2533 -1.0696  1.3695
  989SOL     OW 2965   2.079   1.299   1.560 -0.0422 -0.1124  0.1246
  989SOL    HW1 2966   2.129   1.208   1.553  3.1066  3.1051 -1.6708
  989SOL    HW2 2967   2.137   1.373   1.527 -3.0524 -0.4151  0.2337
  990SOL     OW 2968   2.930   0.740   2.953  0.4928  0.3572  0.4182
  990SOL    HW1 2969   3.007   0.680   2.975  0.2956 -1.9052 -0.5434
  990SOL    HW2 2970   2.962   0.834   2.936 -0.6278  1.4529  0.4657
  991SOL     OW 2971   0.519   1.697   2.909  0.0811  0.0008 -0.3524
  991SOL    HW1 2972   0.446   1.765   2.905  1.2085 -0.8837  1.0370
  991SOL    HW2 2973   0.543   1.685   3.009  2.4760 -1.2337 -0.6551
  992SOL     OW 2974   2.366   1.975   1.806  0.1416  0.1884  0.2473
  992SOL    HW1 2975   2.351   1.888   1.850 -2.8612  2.1185  1.8214
  992SOL    HW2 2976   2.458   2.014   1.835  1.7938 -3.8012 -2.0427
  993SOL     OW 2977   0.622   0.013   1.046 -0.4702 -0.2135 -0.7079
  993SOL    HW1 2978   0.558   0.002   1.124  1.4277 -0.5862 -1.4553
  993SOL    HW2 2979   0.710   0.059   1.072  0.9550  1.8649 -1.2336
  994SOL     OW 2980   2.727   2.179   1.570 -0.4280  0.3564 -0.1686
  994SOL    HW1 2981   2.825   2.189   1.547  0.0836 -2.8427  0.0917
  994SOL    HW2 2982   2.711   2.091   1.623 -0.5346 -0.3131 -2.7788
  995SOL     OW 2983   2.157   2.050   2.463 -0.1719 -0.2475 -0.1973
  995SOL    HW1 2984   2.078   2.023   2.523  1.4102  2.6922 -0.4222
  995SOL    HW2 2985   2.121   2.041   2.366  0.3353  1.1979 -1.2720
  996SOL     OW 2986   1.972   1.872   0.052  0.1376  0.2320 -0.2381
  996SOL    HW1 2987   1.890   1.888   3.094 -0.7492  2.6910 -0.2086
  996SOL    HW2 2988   1.999   1.771   0.058 -0.2637  0.2034  1.8220
  997SOL     OW 2989   1.058   1.408   1.948  0.6433 -0.0347  0.1225
  997SOL    HW1 2990   0.957   1.412   1.971 -0.6234 -0.1104  0.2189
  997SOL    HW2 2991   1.105   1.446   2.028  0.9400 -0.6778 -0.0870
  998SOL     OW 2992   2.723   2.126   0.669 -0.5459  0.4461  0.3768
  998SOL    HW1 2993   2.689   2.224   0.679 -2.6846  3.3834  1.7806
  998SOL    HW2 2994   2.765   2.090   0.755 -0.9703 -2.6809  0.4835
  999SOL     OW 2995   0.120   2.675   0.602 -0.0383 -0.3460 -0.8706
  999SOL    HW1 2996   0.076   2.666   0.507 -1.9697  2.8073 -2.7838
  999SOL    HW2 2997   0.223   2.685   0.592  0.9379  0.4238  2.0300
 1000SOL     OW 2998   1.069   0.088   2.959 -0.0420 -0.6244  0.0977
 1000SOL    HW1 2999   1.031   0.045   3.041 -0.7629  1.2810 -0.2100
 1000SOL    HW2 3000   1.155   0.136   2.976 -1.7039 -0.8185  0.2324
   3.10622   3.10622   3.10622
