1000 SPC/Fw water molecules t= 155.00000 step= 155000
 3000
    1SOL     OW    1   2.418   2.658   0.574  0.2889  0.2616  0.3126
    1SOL    HW1    2   2.486   2.725   0.533  3.2492  0.2199 -1.1841
    1SOL    HW2    3   2.319   2.695   0.571 -1.2884  0.2929 -1.1110
    2SOL     OW    4   1.280   2.040   2.379 -0.6710 -0.5465 -0.4980
    2SOL    HW1    5   1.353   2.057   2.308  1.9783 -0.2310 -1.0229
    2SOL    HW2    6   1.298   1.958   2.431  2.1796  0.2043  1.4167
    3SOL     OW    7   1.796   2.584   2.011 -0.0876 -0.6507 -0.0610
    3SOL    HW1    8   1.783   2.527   2.097  0.3297 -1.5662 -0.1303
    3SOL    HW2    9   1.875   2.545   1.956  1.8155  4.7960  1.7264
    4SOL     OW   10   2.036   2.458   1.889 -0.0569 -0.4034 -0.0315
    4SOL    HW1   11   2.083   2.375   1.930  0.5925 -0.9501  1.8595
    4SOL    HW2   12   2.108   2.522   1.859 -0.2247  4.4033 -0.1514
    5SOL     OW   13   0.732   0.401   1.673  0.2109 -0.3943  0.2689
    5SOL    HW1   14   0.709   0.408   1.574 -0.0667  0.7090  0.9210
    5SOL    HW2   15   0.664   0.453   1.729 -2.7366 -0.3954 -0.2414
    6SOL     OW   16   2.352   0.839   2.952 -0.0992 -0.0459  0.0530
    6SOL    HW1   17   2.313   0.778   3.021  2.1250  0.7715  0.1518
    6SOL    HW2   18   2.341   0.800   2.856  1.5045 -1.6140  0.0184
    7SOL     OW   19   0.606   0.539   1.170 -0.2625  0.3273  0.1488
    7SOL    HW1   20   0.651   0.510   1.085 -2.8003  0.3873 -3.7282
    7SOL    HW2   21   0.533   0.602   1.145  1.6233 -2.2891 -2.3745
    8SOL     OW   22   1.252   2.334   1.312  0.6199  0.3825  0.0937
    8SOL    HW1   23   1.177   2.340   1.384 -1.0138 -2.1219  1.8786
    8SOL    HW2   24   1.326   2.270   1.338  0.8411  0.6028 -2.9173
    9SOL     OW   25   0.749   0.822   0.106 -0.3058  0.6614 -0.0717
    9SOL    HW1   26   0.695   0.788   0.026 -1.7467  1.7750  1.6012
    9SOL    HW2   27   0.838   0.775   0.119  0.1024  1.7818  1.1615
   10SOL     OW   28   0.420   2.706   2.889  0.5980  0.6271 -0.1743
   10SOL    HW1   29   0.441   2.608   2.922  1.0362 -2.7888  1.3151
   10SOL    HW2   30   0.423   2.714   2.793  1.5750 -1.7297  5.1041
   11SOL     OW   31   0.167   1.426   2.799 -0.2476 -0.4574 -0.0624
   11SOL    HW1   32   0.142   1.498   2.731  1.2727  2.4401 -0.4485
   11SOL    HW2   33   0.204   1.461   2.885 -3.2751  0.2139  1.3321
   12SOL     OW   34   0.679   0.083   1.301  0.6061  0.3601 -0.0450
   12SOL    HW1   35   0.670   0.021   1.224 -2.0639  1.7958  2.7074
   12SOL    HW2   36   0.595   0.125   1.326  1.5138 -1.6421 -1.3028
   13SOL     OW   37   0.590   2.664   0.581  0.1199  0.1773 -0.2718
   13SOL    HW1   38   0.630   2.577   0.540  2.1759  0.8219  1.2612
   13SOL    HW2   39   0.663   2.724   0.616  0.2009 -1.0929  1.2955
   14SOL     OW   40   1.303   1.881   0.833  0.1267 -0.2878 -0.0544
   14SOL    HW1   41   1.254   1.975   0.827  0.2529  4.1652 -0.0520
   14SOL    HW2   42   1.276   1.828   0.917  0.4673 -1.3455 -4.2525
   15SOL     OW   43   2.478   0.816   2.294  1.0197 -0.9430  0.7223
   15SOL    HW1   44   2.405   0.854   2.352  0.5198 -2.1078 -1.2044
   15SOL    HW2   45   2.542   0.886   2.256 -1.0913  1.8231  0.2218
   16SOL     OW   46   1.358   2.992   2.992  0.1256  1.0526 -0.2031
   16SOL    HW1   47   1.447   2.950   3.017  0.8963 -1.4172  0.5779
   16SOL    HW2   48   1.356   3.083   3.030  2.1784 -1.6296 -1.2294
   17SOL     OW   49   0.867   2.533   1.759 -0.9177  0.2649  0.0875
   17SOL    HW1   50   0.770   2.524   1.781  0.1901  1.7974 -1.3405
   17SOL    HW2   51   0.887   2.632   1.779  0.0109  1.4750  1.4954
   18SOL     OW   52   1.339   0.793   0.164  0.1262 -1.0441  0.4926
   18SOL    HW1   53   1.354   0.894   0.160  1.3231  1.3169  3.2154
   18SOL    HW2   54   1.364   0.747   0.077  0.5333  0.4144  3.1519
   19SOL     OW   55   2.151   1.914   2.759 -0.3881  0.8650 -0.1057
   19SOL    HW1   56   2.184   1.951   2.843 -1.0345 -2.6722 -1.7970
   19SOL    HW2   57   2.218   1.848   2.717 -1.7780  1.6158 -2.8493
   20SOL     OW   58   2.081   1.595   2.055  0.3691  0.5971 -0.5009
   20SOL    HW1   59   2.173   1.605   2.005 -0.2675  1.4837  0.4667
   20SOL    HW2   60   2.090   1.524   2.131 -2.2832 -0.8614  2.4891
   21SOL     OW   61   0.214   1.802   2.939  0.5207 -0.5398  0.1123
   21SOL    HW1   62   0.290   1.818   3.009  1.1785 -2.1240  0.5384
   21SOL    HW2   63   0.252   1.796   2.844  1.8667  0.6158  2.1599
   22SOL     OW   64   2.505   3.054   1.513  0.3400  0.2213  0.5567
   22SOL    HW1   65   2.551   0.030   1.571 -0.6862  0.0824  0.4121
   22SOL    HW2   66   2.580   2.992   1.480  2.1409 -0.7220  1.8382
   23SOL     OW   67   0.092   1.354   1.760 -0.5741 -0.5109 -0.5870
   23SOL    HW1   68   0.153   1.276   1.773 -1.5121 -0.3790 -1.2187
   23SOL    HW2   69   0.138   1.434   1.800 -1.0336  0.8308  1.3208
   24SOL     OW   70   2.657   1.769   1.436 -0.3245 -0.3540 -0.1312
   24SOL    HW1   71   2.636   1.687   1.380 -0.9319  0.1938 -0.3504
   24SOL    HW2   72   2.582   1.786   1.502  1.5230 -0.7829 -0.7633
   25SOL     OW   73   2.048   2.956   2.587 -0.3152  0.4989 -0.1602
   25SOL    HW1   74   2.056   2.978   2.488  1.7332 -1.8156  1.6101
   25SOL    HW2   75   1.959   2.990   2.621 -0.1456  1.5984 -0.1470
   26SOL     OW   76   1.320   2.848   0.513 -0.7298  0.1589 -0.3471
   26SOL    HW1   77   1.333   2.914   0.593 -1.8626  0.7608  3.2426
   26SOL    HW2   78   1.406   2.809   0.478 -3.7973 -0.3646 -0.3070
   27SOL     OW   79   0.794   2.030   2.896  0.1710  0.6877  0.0606
   27SOL    HW1   80   0.772   2.064   2.993 -0.8503 -0.6769 -0.6602
   27SOL    HW2   81   0.771   1.935   2.873 -2.1146 -1.6111 -0.2069
   28SOL     OW   82   2.878   1.654   1.175  0.1451  0.0549 -0.5289
   28SOL    HW1   83   2.910   1.621   1.082 -1.1426 -2.8855 -1.3291
   28SOL    HW2   84   2.780   1.633   1.193  0.8454 -0.7913  0.7113
   29SOL     OW   85   2.651   2.295   2.179  0.1078  0.0021 -0.0569
   29SOL    HW1   86   2.563   2.340   2.157  0.1255 -1.9427  3.3836
   29SOL    HW2   87   2.734   2.354   2.158 -1.1008  0.2537  1.6117
   30SOL     OW   88   1.035   2.687   1.091  0.1404 -0.2673 -0.2914
   30SOL    HW1   89   1.067   2.780   1.112 -0.0144  2.1433 -1.1033
   30SOL    HW2   90   0.998   2.681   0.996 -0.9185  0.9721 -2.5090
   31SOL     OW   91   0.077   2.236   1.698  0.4428  0.1066  0.2924
   31SOL    HW1   92   0.027   2.197   1.778 -1.5313 -1.5911 -0.5367
   31SOL    HW2   93   0.170   2.250   1.722 -1.4582 -0.6860  1.4948
   32SOL     OW   94   1.290   1.044   1.970  0.1826  0.0176 -0.1756
   32SOL    HW1   95   1.306   1.107   1.890  1.0952  1.5378  0.2917
   32SOL    HW2   96   1.296   1.101   2.054 -2.3391  0.3257 -0.0479
   33SOL     OW   97   0.691   3.054   2.483 -0.2474 -0.1042 -0.1362
   33SOL    HW1   98   0.701   2.983   2.558  0.4580 -1.0834  2.2718
   33SOL    HW2   99   0.614   0.013   2.514  1.1386 -2.1079  0.1447
   34SOL     OW  100   1.883   2.986   1.187  0.4485 -0.9815  0.6997
   34SOL    HW1  101   1.854   2.995   1.282  0.9705 -2.0434 -0.8196
   34SOL    HW2  102   1.972   2.937   1.178 -0.4117 -1.6814 -1.6587
   35SOL     OW  103   2.038   0.585   1.320 -0.5769  0.4754  0.1619
   35SOL    HW1  104   2.129   0.589   1.280 -2.7542  0.9527  0.9727
   35SOL    HW2  105   2.035   0.644   1.402  1.5667  0.2863  2.5738
   36SOL     OW  106   2.246   2.812   2.046 -0.2068  0.1196 -0.0842
   36SOL    HW1  107   2.224   2.748   2.118  1.6772 -0.9754 -4.1057
   36SOL    HW2  108   2.331   2.865   2.061 -0.3468 -0.0342  0.8373
   37SOL     OW  109   1.352   2.256   2.549 -0.2523 -0.0167  0.4173
   37SOL    HW1  110   1.293   2.293   2.621  0.0553 -1.1157 -0.2535
   37SOL    HW2  111   1.317   2.167   2.515 -1.0054  0.1015  0.2492
   38SOL     OW  112   2.268   0.285   0.087 -0.7202  0.2323 -0.4537
   38SOL    HW1  113   2.369   0.278   0.102 -3.7200 -0.8811 -0.7514
   38SOL    HW2  114   2.248   0.339   0.003  0.9189  3.4222  0.6541
   39SOL     OW  115   2.101   2.024   2.264 -0.1904 -0.1922 -0.3071
   39SOL    HW1  116   2.026   2.046   2.328  0.4948  1.2889 -0.3456
   39SOL    HW2  117   2.079   1.950   2.195  2.8703  0.9951 -1.5482
   40SOL     OW  118   0.425   2.966   2.889  0.6203  0.1788 -0.0356
   40SOL    HW1  119   0.347   2.996   2.833 -1.9199 -0.0155  3.4659
   40SOL    HW2  120   0.409   2.865   2.906 -2.8732 -0.0123 -2.0688
   41SOL     OW  121   1.516   0.698   1.541 -0.3329 -0.4068 -0.0883
   41SOL    HW1  122   1.446   0.630   1.528  0.7822  0.8824  1.9703
   41SOL    HW2  123   1.605   0.661   1.576 -0.7657 -0.6760  0.1084
   42SOL     OW  124   0.446   0.077   1.609  0.4995 -0.2297 -0.2441
   42SOL    HW1  125   0.426   0.167   1.562  1.1079  1.2960 -0.8235
   42SOL    HW2  126   0.546   0.068   1.622 -4.3203 -0.8085  2.4938
   43SOL     OW  127   1.580   0.218   1.962 -0.8261 -0.8045  0.5213
   43SOL    HW1  128   1.604   0.284   2.037 -0.9747  1.0250 -0.3853
   43SOL    HW2  129   1.629   0.253   1.878 -2.5383 -2.2291  0.8060
   44SOL     OW  130   0.019   2.652   2.669  0.1477 -0.0694  0.2040
   44SOL    HW1  131   0.097   2.602   2.713  1.1270 -0.6306  2.3198
   44SOL    HW2  132   3.096   2.737   2.719 -1.4986 -1.2758  2.7097
   45SOL     OW  133   0.135   2.359   1.388  0.5151 -0.7597  0.0513
   45SOL    HW1  134   0.054   2.384   1.446  0.1081 -1.4327  1.4716
   45SOL    HW2  135   0.218   2.358   1.450  1.5967 -0.5110  0.7019
   46SOL     OW  136   2.268   2.233   2.290 -0.0635 -0.4707 -0.4727
   46SOL    HW1  137   2.305   2.284   2.213 -1.0862  0.2788  3.8617
   46SOL    HW2  138   2.214   2.152   2.263 -1.1854 -0.8261  1.5630
   47SOL     OW  139   1.694   2.045   1.736  0.4027 -0.2453  0.0930
   47SOL    HW1  140   1.749   2.043   1.820 -2.9659 -1.0785 -0.7039
   47SOL    HW2  141   1.657   1.955   1.711 -0.0363  0.3566  0.8389
   48SOL     OW  142   0.308   1.778   0.249 -0.1960 -0.2288  0.9223
   48SOL    HW1  143   0.345   1.771   0.344  0.6260  0.8884 -0.5777
   48SOL    HW2  144   0.221   1.829   0.257 -0.3699 -1.5311  1.1088
   49SOL     OW  145   2.744   0.579   2.249 -0.0900  0.0429  0.5764
   49SOL    HW1  146   2.687   0.496   2.271 -1.2691 -1.5546  1.9202
   49SOL    HW2  147   2.746   0.594   2.149 -0.6420  1.2247  3.4235
   50SOL     OW  148   1.886   0.747   0.950 -0.1604 -0.3288 -0.0605
   50SOL    HW1  149   1.831   0.734   0.867  0.1247 -0.3911  1.3503
   50SOL    HW2  150   1.824   0.731   1.029  0.1845 -0.8251 -0.9967
   51SOL     OW  151   1.054   0.700   1.027 -0.3639 -0.3732 -0.0980
   51SOL    HW1  152   0.974   0.741   1.073 -1.8992  0.1607  1.8174
   51SOL    HW2  153   1.120   0.764   0.987  1.1489  1.3053 -0.0758
   52SOL     OW  154   1.370   1.236   3.035 -0.5149  0.0889 -0.6859
   52SOL    HW1  155   1.356   1.151   3.087  2.6778 -0.6898 -1.7248
   52SOL    HW2  156   1.282   1.268   2.993  0.4823 -1.1256 -0.6104
   53SOL     OW  157   1.226   1.992   2.739  0.1148 -0.0102  0.2277
   53SOL    HW1  158   1.157   1.952   2.805 -0.0382  1.8212  2.6682
   53SOL    HW2  159   1.211   2.096   2.748 -2.6458  2.4570  0.6373
   54SOL     OW  160   1.777   0.591   1.621 -0.0871  0.0141  0.3914
   54SOL    HW1  161   1.849   0.652   1.583 -0.8197 -1.9996  0.7004
   54SOL    HW2  162   1.806   0.569   1.717 -1.0589 -1.4376 -2.0988
   55SOL     OW  163   1.817   2.853   0.693 -0.0475  0.1817  0.1537
   55SOL    HW1  164   1.866   2.914   0.623  1.5780  2.2130  2.1602
   55SOL    HW2  165   1.747   2.900   0.745  3.0227 -4.3327 -2.3730
   56SOL     OW  166   0.780   2.687   1.261  0.0340 -0.5467  0.1364
   56SOL    HW1  167   0.853   2.741   1.212 -0.3945  2.1921  1.9241
   56SOL    HW2  168   0.746   2.726   1.350 -0.2244 -2.3951  2.1343
   57SOL     OW  169   1.800   0.952   0.467  0.8475  0.1524  0.0011
   57SOL    HW1  170   1.858   0.999   0.398 -1.3748 -0.8408  1.4197
   57SOL    HW2  171   1.715   0.915   0.424  0.3289  0.8621 -1.2308
   58SOL     OW  172   0.175   1.196   2.263 -0.3039  0.1668  0.1492
   58SOL    HW1  173   0.154   1.130   2.336 -1.2086  2.0329  0.6331
   58SOL    HW2  174   0.090   1.239   2.222 -0.2150  1.9169 -1.2791
   59SOL     OW  175   0.771   2.496   2.419 -0.1849  0.3701 -0.4857
   59SOL    HW1  176   0.854   2.551   2.440  1.4020  2.8715 -0.9329
   59SOL    HW2  177   0.759   2.474   2.320 -0.0446  1.0603 -2.8043
   60SOL     OW  178   2.612   2.955   0.903  0.2254 -0.1560  0.4653
   60SOL    HW1  179   2.579   2.870   0.954  0.3309  0.6909 -0.1984
   60SOL    HW2  180   2.542   2.979   0.833  1.2522 -0.2656  1.0093
   61SOL     OW  181   1.164   1.995   0.523 -0.2330 -0.8176  0.0512
   61SOL    HW1  182   1.113   1.939   0.589  2.0573  0.0925 -2.1492
   61SOL    HW2  183   1.256   2.025   0.550 -0.8078 -1.1370  2.6117
   62SOL     OW  184   2.134   2.654   2.942  0.0436  0.2591  0.0512
   62SOL    HW1  185   2.234   2.685   2.952  0.7013  2.5592  1.3661
   62SOL    HW2  186   2.091   2.654   3.034 -0.3747  0.5968 -2.9886
   63SOL     OW  187   1.831   0.398   0.210  0.4687 -0.3674 -1.0487
   63SOL    HW1  188   1.927   0.432   0.216  0.6492  1.1910 -2.3644
   63SOL    HW2  189   1.766   0.470   0.243 -0.3086  1.0652  4.5228
   64SOL     OW  190   0.899   1.061   2.903  0.0093 -0.4049  0.3014
   64SOL    HW1  191   0.887   1.044   2.803  0.5381  0.7921  1.0265
   64SOL    HW2  192   0.810   1.060   2.953 -0.4689 -2.2336  2.3891
   65SOL     OW  193   1.320   2.336   0.479  0.1910  0.0065 -0.1722
   65SOL    HW1  194   1.379   2.368   0.398  0.9575 -0.3523 -1.2168
   65SOL    HW2  195   1.349   2.239   0.500 -0.7504  1.9963 -1.2270
   66SOL     OW  196   0.581   1.190   1.876  0.4594 -0.0956 -0.0206
   66SOL    HW1  197   0.637   1.220   1.957  0.7436  0.6504  2.2858
   66SOL    HW2  198   0.483   1.186   1.898 -0.1928  1.9058 -1.5872
   67SOL     OW  199   2.407   0.035   2.328 -0.0494 -0.0602  0.0291
   67SOL    HW1  200   2.401   0.067   2.232 -0.3746  0.7008 -0.5532
   67SOL    HW2  201   2.476   0.089   2.380 -1.3430 -1.1409 -1.1916
   68SOL     OW  202   0.915   0.992   1.421 -0.2468  0.1810 -0.4137
   68SOL    HW1  203   0.898   1.047   1.509 -2.1017  0.8112 -0.6843
   68SOL    HW2  204   0.840   0.923   1.400 -1.7921  0.8285 -0.3415
   69SOL     OW  205   1.569   2.737   0.416 -0.2549 -0.2045  0.5584
   69SOL    HW1  206   1.587   2.833   0.423 -1.2188  1.6295  1.2054
   69SOL    HW2  207   1.643   2.684   0.469  0.7823 -1.2823 -0.1838
   70SOL     OW  208   2.932   1.082   2.316 -0.0004  0.1690 -0.4977
   70SOL    HW1  209   3.019   1.056   2.355 -0.1905  0.9311 -0.1781
   70SOL    HW2  210   2.883   0.997   2.280 -1.4517 -1.3791 -2.5766
   71SOL     OW  211   2.908   1.559   3.023  0.2002 -0.1288 -0.0541
   71SOL    HW1  212   2.823   1.511   2.981 -3.6730 -0.9727 -1.0098
   71SOL    HW2  213   2.967   1.600   2.949  1.9140 -0.6076  1.8069
   72SOL     OW  214   0.075   1.904   0.311 -0.1407  0.3310  0.1472
   72SOL    HW1  215   0.003   1.832   0.324 -0.3769 -1.0748  2.9671
   72SOL    HW2  216   0.091   1.940   0.406 -2.0926  1.1258  0.9629
   73SOL     OW  217   0.928   1.623   0.422 -0.1781 -0.3421  0.1487
   73SOL    HW1  218   0.969   1.532   0.416 -1.6020  1.4129  1.0454
   73SOL    HW2  219   0.976   1.687   0.356  1.2971 -0.4397 -0.5445
   74SOL     OW  220   0.337   2.023   1.960  0.6852 -0.3044  0.1476
   74SOL    HW1  221   0.243   2.015   2.001 -1.4517 -1.3613 -1.5676
   74SOL    HW2  222   0.402   2.011   2.041  1.3980 -0.4188 -0.3436
   75SOL     OW  223   1.686   1.354   1.663 -0.2949 -0.1155  0.6860
   75SOL    HW1  224   1.732   1.262   1.660  0.5886 -1.1642  1.9064
   75SOL    HW2  225   1.737   1.422   1.718  1.6465 -0.2709 -0.9729
   76SOL     OW  226   2.262   2.660   1.283  0.0024  0.4247 -0.0727
   76SOL    HW1  227   2.257   2.582   1.213 -0.5425 -2.9943 -0.1431
   76SOL    HW2  228   2.259   2.626   1.377 -0.3398 -0.8458 -3.4677
   77SOL     OW  229   2.745   0.942   1.447  0.2727  0.9338  0.1414
   77SOL    HW1  230   2.844   0.925   1.446 -0.3665 -0.2750 -0.2201
   77SOL    HW2  231   2.705   0.906   1.357 -0.3382 -0.3329  0.7393
   78SOL     OW  232   1.214   0.971   0.558  0.1137  0.2417  0.7577
   78SOL    HW1  233   1.288   1.043   0.554  0.5121  0.7772 -1.2714
   78SOL    HW2  234   1.258   0.879   0.543  1.0714  0.1389  1.2998
   79SOL     OW  235   2.697   1.481   1.705  0.2728  0.2418 -0.1478
   79SOL    HW1  236   2.722   1.402   1.768 -0.9781  0.6332  0.4006
   79SOL    HW2  237   2.753   1.471   1.623 -1.7031  1.2642  2.6291
   80SOL     OW  238   0.946   0.648   1.402  0.3853 -0.6583  0.2954
   80SOL    HW1  239   1.012   0.678   1.474  1.0627  4.5905  0.9182
   80SOL    HW2  240   0.952   0.548   1.388  0.6553  3.5263 -1.5021
   81SOL     OW  241   1.049   2.878   0.766  0.2519 -0.1669  0.0458
   81SOL    HW1  242   1.084   2.782   0.753 -0.9063 -1.3757  2.4324
   81SOL    HW2  243   1.107   2.952   0.723  3.2245  0.0727  0.1876
   82SOL     OW  244   1.374   0.036   1.576 -0.3510  0.4614  0.1805
   82SOL    HW1  245   1.440   0.076   1.508 -1.2531 -0.2535 -2.1325
   82SOL    HW2  246   1.354   3.039   1.550  1.2788 -0.7153  0.6672
   83SOL     OW  247   1.157   2.107   0.810 -0.2700  0.2184 -0.0930
   83SOL    HW1  248   1.155   2.170   0.889  0.7471  0.6134 -0.3157
   83SOL    HW2  249   1.064   2.072   0.797 -0.7753  1.3297 -0.7411
   84SOL     OW  250   0.282   1.751   2.672  0.5559 -0.2560  0.3416
   84SOL    HW1  251   0.236   1.674   2.615 -1.8789 -0.8263  0.8225
   84SOL    HW2  252   0.381   1.737   2.679 -1.9922 -0.5427  0.4282
   85SOL     OW  253   0.095   2.225   1.153  0.1093  0.0665 -0.3468
   85SOL    HW1  254   0.013   2.163   1.165 -2.3842  1.9335 -0.1981
   85SOL    HW2  255   0.108   2.280   1.241  0.3278 -0.9940  2.8686
   86SOL     OW  256   2.552   2.678   1.277 -0.0385 -0.4972 -0.2819
   86SOL    HW1  257   2.593   2.640   1.364  1.7337 -0.7400 -0.0604
   86SOL    HW2  258   2.448   2.684   1.289  2.1100 -0.3098 -1.3979
   87SOL     OW  259   0.150   1.984   0.574 -0.1134  0.1869 -0.4993
   87SOL    HW1  260   0.206   1.899   0.599 -0.3406 -2.1563  0.9163
   87SOL    HW2  261   0.209   2.061   0.547 -2.5893 -2.0135 -0.9601
   88SOL     OW  262   0.694   1.387   1.433 -0.1163 -0.1064 -0.3375
   88SOL    HW1  263   0.629   1.313   1.467 -1.2816  0.6446 -0.1730
   88SOL    HW2  264   0.769   1.347   1.376  0.7255  0.1102  0.1253
   89SOL     OW  265   1.189   2.899   2.084  0.2092  0.7817  0.3098
   89SOL    HW1  266   1.126   2.966   2.038  1.4223 -1.1546  1.0162
   89SOL    HW2  267   1.131   2.848   2.154  0.8710 -1.3461 -1.0767
   90SOL     OW  268   3.053   1.807   1.302  0.3618 -0.5246  0.3598
   90SOL    HW1  269   3.042   1.791   1.399 -1.0501  1.5059 -0.6353
   90SOL    HW2  270   2.987   1.750   1.250  0.4912 -2.0948 -0.7990
   91SOL     OW  271   1.380   1.881   1.120  0.2510 -0.1925 -0.5963
   91SOL    HW1  272   1.280   1.889   1.133 -1.4056 -1.4032 -1.7205
   91SOL    HW2  273   1.428   1.849   1.204 -1.0195 -0.5361 -3.1526
   92SOL     OW  274   2.384   2.658   1.607 -0.2739 -0.2289 -0.4853
   92SOL    HW1  275   2.326   2.628   1.687  1.1044 -0.3186  1.0350
   92SOL    HW2  276   2.469   2.604   1.597 -1.1240 -1.1197  1.0950
   93SOL     OW  277   2.786   1.468   2.654  0.4094 -0.6384  0.1043
   93SOL    HW1  278   2.797   1.389   2.593  2.8718  0.1280  4.0791
   93SOL    HW2  279   2.789   1.426   2.748  0.3754 -2.3821 -2.0812
   94SOL     OW  280   2.703   0.027   2.151 -0.1559 -0.2979 -0.2963
   94SOL    HW1  281   2.747   0.112   2.195 -3.9620 -0.3748 -1.6655
   94SOL    HW2  282   2.770   3.094   2.084  1.3228 -1.7186 -0.0453
   95SOL     OW  283   1.327   0.388   1.882 -0.1052  0.3041 -0.4343
   95SOL    HW1  284   1.322   0.338   1.973 -1.3427  2.1267  1.0924
   95SOL    HW2  285   1.399   0.462   1.894  1.0832 -0.2607  0.0751
   96SOL     OW  286   2.918   0.415   1.750  0.3961 -0.2853  0.4914
   96SOL    HW1  287   2.845   0.489   1.754 -1.2894  1.6793  2.4057
   96SOL    HW2  288   2.900   0.347   1.822  0.2907  1.4523  1.9308
   97SOL     OW  289   1.941   0.398   1.515  0.3403  0.5801  0.5538
   97SOL    HW1  290   1.975   0.422   1.423  0.0628  1.3260  1.7154
   97SOL    HW2  291   1.863   0.455   1.547 -0.9350  0.8770 -0.3781
   98SOL     OW  292   1.795   2.716   1.232 -0.2433 -0.3133  0.3177
   98SOL    HW1  293   1.859   2.748   1.162 -0.8070  0.2617  2.4142
   98SOL    HW2  294   1.843   2.686   1.321 -0.9311  1.1544 -0.3049
   99SOL     OW  295   3.000   0.183   1.588 -0.3214 -0.1637  0.2943
   99SOL    HW1  296   2.962   0.267   1.634 -1.6619  1.3849 -1.2370
   99SOL    HW2  297   2.995   0.188   1.484  2.8398  0.0421 -4.3362
  100SOL     OW  298   2.744   1.299   1.897 -0.3560  0.0185  0.3597
  100SOL    HW1  299   2.748   1.375   1.962 -0.3349 -0.5041 -0.8311
  100SOL    HW2  300   2.834   1.256   1.895  2.0776  2.7390  0.6172
  101SOL     OW  301   1.323   0.640   0.798 -0.5280 -0.3169 -0.2536
  101SOL    HW1  302   1.402   0.600   0.846 -2.4527  1.9355  0.9801
  101SOL    HW2  303   1.302   0.729   0.845  0.4291 -2.3805 -0.2614
  102SOL     OW  304   0.537   0.936   1.245 -0.1421  0.1110  0.2132
  102SOL    HW1  305   0.467   0.993   1.292 -0.8681 -0.6737  0.1407
  102SOL    HW2  306   0.604   0.892   1.307 -0.4156  1.9778 -0.2298
  103SOL     OW  307   2.261   0.679   0.068  0.3723  0.0958  0.3355
  103SOL    HW1  308   2.173   0.682   0.118  1.0029  0.0162  1.6392
  103SOL    HW2  309   2.336   0.690   0.131 -2.4551  0.4893 -1.9054
  104SOL     OW  310   0.008   0.135   1.951  0.1301 -0.3699 -0.2937
  104SOL    HW1  311   0.013   0.099   1.856  0.1419  1.0840 -1.3193
  104SOL    HW2  312   3.020   0.184   1.958  0.1601  0.3131  0.2759
  105SOL     OW  313   2.006   0.788   1.922 -0.2544  0.2397  0.3233
  105SOL    HW1  314   1.903   0.800   1.924  0.0707 -1.9622 -0.9302
  105SOL    HW2  315   2.033   0.799   1.825  1.6094  0.4000  1.9681
  106SOL     OW  316   1.775   3.084   0.963  0.1157 -0.3351 -0.0821
  106SOL    HW1  317   1.793   3.053   1.059  0.1180 -1.8131  2.3290
  106SOL    HW2  318   1.683   3.053   0.930 -0.0804  0.7173 -0.3666
  107SOL     OW  319   0.458   1.119   0.699  0.2026  0.1226  0.0811
  107SOL    HW1  320   0.447   1.073   0.610  1.6854  0.3952 -0.7016
  107SOL    HW2  321   0.387   1.190   0.718 -2.8661  2.2360 -2.0955
  108SOL     OW  322   2.872   0.289   1.986  0.3647 -0.3729  0.8167
  108SOL    HW1  323   2.778   0.283   1.949 -0.2325  0.5316 -0.9808
  108SOL    HW2  324   2.869   0.291   2.089  1.0022  1.7262  2.6473
  109SOL     OW  325   2.341   0.654   0.740 -0.7668  0.3406  0.3607
  109SOL    HW1  326   2.265   0.704   0.787 -0.0494  1.0755  1.0310
  109SOL    HW2  327   2.311   0.565   0.696 -1.0666 -5.9853 -0.1636
  110SOL     OW  328   0.354   2.379   2.702 -0.0204  0.0223 -0.2500
  110SOL    HW1  329   0.308   2.285   2.714 -1.3124  1.0914  2.5351
  110SOL    HW2  330   0.397   2.390   2.607  2.2640 -0.0044 -1.8288
  111SOL     OW  331   1.832   3.099   2.081 -0.3168  0.4671 -0.5927
  111SOL    HW1  332   1.851   0.092   2.112 -0.5614  0.3264 -1.6696
  111SOL    HW2  333   1.856   3.083   1.982  2.9469  0.2508  1.3298
  112SOL     OW  334   2.148   2.617   0.314 -0.3889 -0.2909  0.1357
  112SOL    HW1  335   2.101   2.630   0.223  0.0155 -0.3251  4.0280
  112SOL    HW2  336   2.250   2.622   0.300  1.9773  0.2058 -1.0415
  113SOL     OW  337   2.336   2.290   1.415 -0.3330  0.4236  0.1677
  113SOL    HW1  338   2.435   2.275   1.386  1.5426  2.5012 -1.2117
  113SOL    HW2  339   2.346   2.304   1.515 -2.9878  0.6385 -2.0485
  114SOL     OW  340   2.802   1.023   0.970  0.4138  0.1408 -0.5727
  114SOL    HW1  341   2.719   1.032   0.912 -0.5248  0.3714 -1.8267
  114SOL    HW2  342   2.796   0.941   1.029 -0.6348 -1.9027  1.9029
  115SOL     OW  343   2.982   1.754   0.096 -0.2146 -0.0336 -0.8559
  115SOL    HW1  344   2.983   1.756   0.199  0.2128  1.9045  3.0854
  115SOL    HW2  345   2.936   1.672   0.054  0.0208  2.0705  1.4331
  116SOL     OW  346   0.126   1.543   1.991  0.7028  0.5358 -0.8868
  116SOL    HW1  347   0.049   1.478   2.017 -1.7304  0.2969  3.1934
  116SOL    HW2  348   0.211   1.516   2.036 -2.2939 -2.2521 -0.4592
  117SOL     OW  349   2.437   3.002   0.693  0.0352 -0.7968 -0.3394
  117SOL    HW1  350   2.335   2.998   0.700  0.3571  1.7115  2.6283
  117SOL    HW2  351   2.472   2.954   0.612  0.6210  0.9991 -0.1757
  118SOL     OW  352   0.365   2.270   1.510  0.4714  0.4091  0.0888
  118SOL    HW1  353   0.366   2.261   1.612  1.1976  0.5930 -2.5201
  118SOL    HW2  354   0.420   2.348   1.482  0.2511 -0.5984  2.1264
  119SOL     OW  355   1.662   2.054   0.475 -0.6696 -0.4746 -0.1375
  119SOL    HW1  356   1.724   1.996   0.420 -0.4679 -1.1280 -0.3443
  119SOL    HW2  357   1.696   2.067   0.572 -0.1844  0.0640  2.4327
  120SOL     OW  358   3.069   1.986   2.482  0.4080  0.4233  0.7353
  120SOL    HW1  359   0.061   1.965   2.456 -3.7770  0.7837  1.2406
  120SOL    HW2  360   3.005   1.953   2.405 -0.0223 -0.5806 -3.4138
  121SOL     OW  361   2.546   1.995   1.318  0.2850  0.8860  0.1545
  121SOL    HW1  362   2.445   1.983   1.297 -2.6835  0.6398 -0.0518
  121SOL    HW2  363   2.588   1.913   1.361  1.1980  1.9018 -1.2957
  122SOL     OW  364   2.199   1.295   2.313  0.4170  0.3413 -0.3438
  122SOL    HW1  365   2.271   1.281   2.244  1.1308  0.5133  1.8578
  122SOL    HW2  366   2.215   1.224   2.385 -1.5738 -2.4612 -1.0506
  123SOL     OW  367   0.045   2.798   0.709  0.2664  0.8647 -0.6485
  123SOL    HW1  368   3.049   2.780   0.735  0.7772 -0.4014 -2.1797
  123SOL    HW2  369   0.111   2.743   0.767  1.4043  0.7433  2.3414
  124SOL     OW  370   1.800   0.689   2.668 -0.1126  0.0358 -0.1455
  124SOL    HW1  371   1.839   0.781   2.661 -0.4740 -0.4174 -1.4405
  124SOL    HW2  372   1.717   0.694   2.734 -0.3594  0.5814  5.4291
  125SOL     OW  373   0.605   1.458   2.797 -0.2477 -0.2032 -0.1407
  125SOL    HW1  374   0.580   1.536   2.740 -0.2037 -0.0694 -2.2172
  125SOL    HW2  375   0.605   1.461   2.898 -0.6811  1.1609 -1.4171
  126SOL     OW  376   2.759   1.905   0.039  0.4173 -0.3067  0.8243
  126SOL    HW1  377   2.786   2.001   0.006  2.3763  0.7940  1.9943
  126SOL    HW2  378   2.837   1.841   0.043  0.1221 -0.5234 -0.8018
  127SOL     OW  379   0.551   1.779   1.184 -0.4871 -0.2158 -0.0765
  127SOL    HW1  380   0.504   1.867   1.189 -0.2609 -4.7830 -1.4182
  127SOL    HW2  381   0.515   1.705   1.246 -0.6567  2.8417 -1.4408
  128SOL     OW  382   1.005   0.746   0.140  0.2463  0.0288 -0.5446
  128SOL    HW1  383   1.062   0.672   0.100 -1.1422  0.2946 -0.0439
  128SOL    HW2  384   1.040   0.835   0.108  1.5058 -1.1308 -1.3770
  129SOL     OW  385   2.278   1.425   0.929 -0.5056  0.0352 -0.0783
  129SOL    HW1  386   2.208   1.475   0.875  1.2780  1.0680  0.2447
  129SOL    HW2  387   2.372   1.446   0.900  1.3214  0.8128  0.2719
  130SOL     OW  388   2.005   1.770   0.863 -0.0107 -0.1384  0.2338
  130SOL    HW1  389   2.013   1.684   0.810  0.1301  3.6752  1.8954
  130SOL    HW2  390   1.960   1.751   0.951 -1.5390  0.4170  0.5863
  131SOL     OW  391   2.819   1.082   2.781  0.5029 -0.3554 -0.3185
  131SOL    HW1  392   2.760   1.018   2.841  0.8262 -2.6012  1.6241
  131SOL    HW2  393   2.911   1.079   2.817 -0.9762 -0.8647 -3.3596
  132SOL     OW  394   2.513   1.876   2.018 -0.1211 -0.0045 -0.3440
  132SOL    HW1  395   2.557   1.966   1.996  2.8474 -0.2740 -1.1248
  132SOL    HW2  396   2.565   1.803   1.976 -1.1449  2.9698  1.6704
  133SOL     OW  397   2.984   0.882   0.103  0.7202 -0.2130 -0.0940
  133SOL    HW1  398   2.986   0.798   0.165 -0.6120 -0.3670 -2.0429
  133SOL    HW2  399   3.062   0.885   0.042 -1.4334  0.1576  0.0806
  134SOL     OW  400   0.240   1.207   3.080  0.0114  0.1390 -0.0999
  134SOL    HW1  401   0.341   1.221   3.065 -2.2345 -0.4847 -0.4486
  134SOL    HW2  402   0.192   1.292   3.075 -0.0250 -1.3758 -1.9964
  135SOL     OW  403   2.417   1.659   0.536  0.1381 -0.1884  0.1354
  135SOL    HW1  404   2.318   1.650   0.560 -2.0535  1.9058  1.8458
  135SOL    HW2  405   2.429   1.652   0.434  0.7198  0.5365 -2.3002
  136SOL     OW  406   2.028   1.460   1.375 -0.3684 -0.5684  0.5489
  136SOL    HW1  407   1.995   1.365   1.397  1.8250 -1.9878 -1.9986
  136SOL    HW2  408   2.054   1.459   1.273  2.0795  0.5878 -3.2287
  137SOL     OW  409   2.572   1.695   0.749 -0.5410  0.0904 -0.2667
  137SOL    HW1  410   2.637   1.777   0.754  0.2017  1.4460  1.7141
  137SOL    HW2  411   2.514   1.688   0.671  3.0536 -2.0202  2.9353
  138SOL     OW  412   1.144   0.301   1.101  0.3382 -0.2978  0.0714
  138SOL    HW1  413   1.188   0.391   1.131 -0.3003  1.6991 -1.6195
  138SOL    HW2  414   1.214   0.226   1.118  2.6840 -3.5623 -0.8349
  139SOL     OW  415   2.159   0.095   0.279 -0.0733 -0.4794  0.1204
  139SOL    HW1  416   2.197   0.145   0.205 -1.5989 -2.2801  2.9037
  139SOL    HW2  417   2.191   0.125   0.371 -0.2036 -1.0907  2.6453
  140SOL     OW  418   1.499   1.962   2.740  0.3486 -0.1085  0.1195
  140SOL    HW1  419   1.397   1.977   2.735  0.1353 -0.2542 -0.5662
  140SOL    HW2  420   1.546   2.047   2.761 -0.1678  1.9945 -0.4218
  141SOL     OW  421   0.873   1.107   1.660 -0.2008  0.3342 -0.0433
  141SOL    HW1  422   0.865   1.037   1.739  0.1781 -1.8181  1.3236
  141SOL    HW2  423   0.935   1.182   1.686  0.0800  0.5549  0.3282
  142SOL     OW  424   2.520   0.178   0.124  0.3226  0.1737 -0.0620
  142SOL    HW1  425   2.602   0.172   0.181 -2.1775 -1.7460 -1.6186
  142SOL    HW2  426   2.515   0.099   0.057 -0.3989 -2.4947  3.3221
  143SOL     OW  427   0.750   2.416   2.959  0.3118 -0.0049 -0.1211
  143SOL    HW1  428   0.780   2.406   3.059  2.5090  0.5362  2.2496
  143SOL    HW2  429   0.788   2.503   2.930 -0.1597 -0.2782  2.6815
  144SOL     OW  430   1.227   2.705   2.597 -0.5443  0.3628 -0.0447
  144SOL    HW1  431   1.263   2.633   2.664  1.0685 -1.2677 -2.2673
  144SOL    HW2  432   1.223   2.795   2.646 -2.0301 -0.5740 -0.5482
  145SOL     OW  433   2.397   1.493   3.059 -0.5293  0.2461 -0.2888
  145SOL    HW1  434   2.454   1.572   3.024  1.7158  2.6599 -0.6269
  145SOL    HW2  435   2.301   1.525   3.074  1.5109  1.5181 -0.2239
  146SOL     OW  436   2.642   2.682   0.139 -0.0887  0.1069  0.4191
  146SOL    HW1  437   2.691   2.767   0.153 -1.2126 -1.4784 -2.9707
  146SOL    HW2  438   2.708   2.606   0.123  0.1333  1.3917 -2.2922
  147SOL     OW  439   2.625   2.434   1.142 -0.5506 -0.2421  0.0646
  147SOL    HW1  440   2.599   2.514   1.195 -0.7659  0.4606 -0.0930
  147SOL    HW2  441   2.626   2.460   1.043 -2.4499 -0.5757  0.2455
  148SOL     OW  442   1.655   0.175   0.115 -0.1549  0.1328 -0.2425
  148SOL    HW1  443   1.746   0.224   0.127 -1.2352  1.3449  0.6948
  148SOL    HW2  444   1.603   0.189   0.029 -0.3122  3.2846  1.5497
  149SOL     OW  445   1.057   1.554   2.670  0.3448 -0.1925 -0.5056
  149SOL    HW1  446   1.050   1.453   2.686 -0.6560 -0.0937 -0.6377
  149SOL    HW2  447   0.995   1.584   2.598 -0.2277 -0.9551 -0.4427
  150SOL     OW  448   0.707   2.440   0.502  0.2245  0.2059 -0.6578
  150SOL    HW1  449   0.712   2.374   0.424  0.6498 -0.4223  1.3889
  150SOL    HW2  450   0.740   2.398   0.591  0.3273  0.1374  0.6683
  151SOL     OW  451   0.726   1.747   2.947 -0.4187  0.3323  0.1672
  151SOL    HW1  452   0.821   1.700   2.943  2.0396 -1.0826 -0.0408
  151SOL    HW2  453   0.691   1.751   3.038  0.6254 -0.0826  0.5761
  152SOL     OW  454   2.862   1.084   0.481  0.0069  0.4678 -0.2648
  152SOL    HW1  455   2.763   1.082   0.507 -0.6547 -0.5103  0.6960
  152SOL    HW2  456   2.909   0.998   0.489  1.4483  2.2113 -0.5904
  153SOL     OW  457   2.418   2.561   0.245 -0.2169  0.5208 -0.3827
  153SOL    HW1  458   2.463   2.523   0.330 -1.0139  1.9364  2.9596
  153SOL    HW2  459   2.486   2.618   0.194 -0.4365  0.6386  0.1748
  154SOL     OW  460   0.639   2.981   1.137 -0.0468 -0.4822 -0.0693
  154SOL    HW1  461   0.556   2.952   1.184  0.6361  0.7697 -2.4572
  154SOL    HW2  462   0.632   2.982   1.038  2.5806 -0.6614  0.3468
  155SOL     OW  463   0.469   2.027   1.205  0.3872 -0.1457  0.5982
  155SOL    HW1  464   0.424   2.061   1.115  0.3889  1.3198 -0.8306
  155SOL    HW2  465   0.418   2.064   1.280  1.4478 -0.5070 -0.3444
  156SOL     OW  466   2.549   2.207   3.048  0.5034 -0.2503  0.2275
  156SOL    HW1  467   2.531   2.167   2.956 -0.1302  0.4703 -1.4843
  156SOL    HW2  468   2.646   2.194   3.076 -2.0896  1.7286  0.1539
  157SOL     OW  469   1.029   2.104   1.162  0.7174 -0.0796 -0.5666
  157SOL    HW1  470   0.938   2.156   1.143 -2.8649 -0.6405  0.5735
  157SOL    HW2  471   1.110   2.158   1.129 -2.0233  0.7194  0.5381
  158SOL     OW  472   1.644   0.639   3.097  0.3878  0.6457  0.2372
  158SOL    HW1  473   1.689   0.550   3.064  2.8539 -3.0882 -0.6535
  158SOL    HW2  474   1.548   0.645   3.060 -0.8852  1.7586 -0.3617
  159SOL     OW  475   1.290   0.504   2.766 -0.4880 -0.0661 -0.2180
  159SOL    HW1  476   1.233   0.435   2.720  1.2982  0.9128  0.1033
  159SOL    HW2  477   1.387   0.496   2.740 -2.6028  2.3239  3.2625
  160SOL     OW  478   1.267   1.610   0.347 -0.0073  0.2091  0.5632
  160SOL    HW1  479   1.204   1.672   0.299  1.0617 -0.3790  0.7091
  160SOL    HW2  480   1.228   1.515   0.359  0.6037 -2.7768 -0.9408
  161SOL     OW  481   3.069   2.274   0.004 -0.0798 -0.6035  0.0271
  161SOL    HW1  482   0.066   2.303   3.093  0.9711  0.8612 -1.8083
  161SOL    HW2  483   3.055   2.241   0.101 -3.2104  0.0276 -1.1251
  162SOL     OW  484   0.648   2.646   1.025 -0.0899 -0.1659  0.8448
  162SOL    HW1  485   0.725   2.635   0.954  4.5172 -0.3249 -0.7512
  162SOL    HW2  486   0.680   2.662   1.120 -0.1101  0.8783  0.7259
  163SOL     OW  487   2.622   0.945   2.964  0.2646 -0.2404  0.5548
  163SOL    HW1  488   2.536   0.902   2.945  1.7285  2.5818  0.5486
  163SOL    HW2  489   2.697   0.879   2.985  0.5445  0.1205  2.2348
  164SOL     OW  490   0.027   2.616   2.958 -0.2775 -0.2824  0.0900
  164SOL    HW1  491   0.074   2.555   3.021 -3.2945  0.7424  0.6714
  164SOL    HW2  492   3.032   2.603   2.964 -1.1585 -0.2188  1.4237
  165SOL     OW  493   2.349   0.318   1.333 -0.2724  0.1521  0.4878
  165SOL    HW1  494   2.285   0.285   1.403  0.0395 -0.8660  1.7353
  165SOL    HW2  495   2.357   0.256   1.253 -2.0446  1.7708 -0.9406
  166SOL     OW  496   1.927   0.219   1.036  0.1020  0.1360 -0.0811
  166SOL    HW1  497   1.979   0.274   0.970 -0.0992 -0.4297  1.0750
  166SOL    HW2  498   1.882   0.138   0.987 -4.4131 -1.2683  0.9650
  167SOL     OW  499   0.863   0.384   1.976  0.2846 -0.0125  0.0473
  167SOL    HW1  500   0.873   0.449   1.900 -0.1555  2.0851  0.6927
  167SOL    HW2  501   0.825   0.429   2.059 -0.0534 -0.1851 -0.9082
  168SOL     OW  502   2.606   0.311   1.878  0.0558  0.2228 -0.0177
  168SOL    HW1  503   2.556   0.281   1.961  2.3741  0.2494  3.3207
  168SOL    HW2  504   2.547   0.371   1.814 -0.4174  0.7670  0.6030
  169SOL     OW  505   0.383   1.355   0.401  0.9119  0.3404  0.5690
  169SOL    HW1  506   0.323   1.415   0.343  1.1480 -1.1878 -0.2252
  169SOL    HW2  507   0.366   1.255   0.384  0.1518 -2.1119 -1.5321
  170SOL     OW  508   0.211   1.078   1.758  0.3443  0.1621  0.1387
  170SOL    HW1  509   0.270   1.008   1.711 -2.5631 -0.4183  1.6421
  170SOL    HW2  510   0.116   1.034   1.775  0.5200 -2.1890  0.3559
  171SOL     OW  511   1.213   2.035   1.812 -0.1344  0.1872  0.4196
  171SOL    HW1  512   1.186   2.049   1.908  0.5503 -2.2062 -1.3502
  171SOL    HW2  513   1.133   2.069   1.758 -1.1529  2.7406  4.0100
  172SOL     OW  514   0.495   2.508   1.468 -0.4628 -0.5569 -0.1888
  172SOL    HW1  515   0.516   2.570   1.546 -2.0736  2.3507  0.0740
  172SOL    HW2  516   0.576   2.475   1.417 -0.5788  1.8764  0.8778
  173SOL     OW  517   1.175   2.655   0.734  0.7405  0.0279 -0.3589
  173SOL    HW1  518   1.142   2.644   0.639  1.0398  0.9540 -2.3639
  173SOL    HW2  519   1.213   2.571   0.778  1.6203  2.3731  1.2059
  174SOL     OW  520   1.016   2.656   0.228 -0.3659 -0.4633 -0.2695
  174SOL    HW1  521   1.021   2.757   0.208  0.4133 -0.5139 -0.4482
  174SOL    HW2  522   1.029   2.638   0.329 -1.5373  0.0931  1.7438
  175SOL     OW  523   1.052   0.992   0.031  0.5913 -0.1459  0.3015
  175SOL    HW1  524   1.048   1.058   0.110  0.2543 -0.5559 -1.0450
  175SOL    HW2  525   0.995   1.029   3.055 -0.6620  2.3480  0.4502
  176SOL     OW  526   1.541   0.877   0.392 -0.2816 -0.2469 -0.4994
  176SOL    HW1  527   1.491   0.947   0.340 -0.6597 -0.4623 -0.4651
  176SOL    HW2  528   1.486   0.823   0.460  2.0655  0.0321 -0.1802
  177SOL     OW  529   1.302   1.250   0.739  0.5628 -0.3018  0.1154
  177SOL    HW1  530   1.273   1.325   0.805  2.9594 -0.4194 -1.2695
  177SOL    HW2  531   1.370   1.197   0.780 -4.6004  3.9774 -1.6649
  178SOL     OW  532   2.535   1.589   2.614  0.5763  0.1034  0.6134
  178SOL    HW1  533   2.602   1.571   2.687 -0.4643 -1.0636 -1.8276
  178SOL    HW2  534   2.578   1.590   2.520 -0.2792 -0.2945  0.4048
  179SOL     OW  535   0.672   2.749   3.074  0.2156  0.0331  0.3429
  179SOL    HW1  536   0.583   2.730   3.020  0.5913 -1.3067  1.6104
  179SOL    HW2  537   0.751   2.696   3.039 -2.0804  0.3772  1.9549
  180SOL     OW  538   1.739   1.517   1.356 -0.5748 -0.0292 -0.3093
  180SOL    HW1  539   1.831   1.471   1.363 -1.2476  1.8002 -1.0628
  180SOL    HW2  540   1.686   1.477   1.276  0.3040  0.2110  0.7192
  181SOL     OW  541   1.034   1.335   2.331 -0.6579  0.4414 -0.0243
  181SOL    HW1  542   1.029   1.244   2.283 -2.1834 -2.1399 -1.2784
  181SOL    HW2  543   1.103   1.334   2.411  0.5778 -0.2719  1.3105
  182SOL     OW  544   2.845   0.740   2.741 -0.6187 -0.3692  0.5173
  182SOL    HW1  545   2.868   0.836   2.718  0.0091  0.3317  1.6504
  182SOL    HW2  546   2.830   0.731   2.839  1.3059 -1.2173  0.1344
  183SOL     OW  547   1.478   0.190   2.389 -0.5241  0.4069 -0.7620
  183SOL    HW1  548   1.499   0.162   2.482  0.9729  1.3285 -3.4910
  183SOL    HW2  549   1.504   0.113   2.330  0.3807 -0.9177 -0.9418
  184SOL     OW  550   0.432   0.338   1.447  0.5013  0.0923  0.4236
  184SOL    HW1  551   0.414   0.432   1.486  0.2452  1.2998 -0.3089
  184SOL    HW2  552   0.522   0.349   1.400 -1.6487  1.6183 -0.6040
  185SOL     OW  553   2.522   1.439   0.820  0.2307 -0.1063 -0.2169
  185SOL    HW1  554   2.548   1.538   0.797  3.2454  3.0136 -1.0948
  185SOL    HW2  555   2.603   1.389   0.856  1.1395  0.3528 -0.0946
  186SOL     OW  556   0.117   2.196   2.694 -0.0935  0.5478  0.6461
  186SOL    HW1  557   0.063   2.249   2.622 -2.3557  1.0603 -1.4037
  186SOL    HW2  558   0.063   2.158   2.765 -1.0423  0.8486 -1.6052
  187SOL     OW  559   2.514   1.771   3.015 -0.0942 -0.0719 -0.0052
  187SOL    HW1  560   2.611   1.796   3.027 -1.1881 -1.6505 -1.1614
  187SOL    HW2  561   2.456   1.832   3.074 -0.4007 -1.6411  1.0546
  188SOL     OW  562   0.654   2.262   0.285  0.1454 -0.2874 -0.4796
  188SOL    HW1  563   0.682   2.194   0.358  0.2936 -0.5280  0.4288
  188SOL    HW2  564   0.551   2.246   0.259  0.9978 -2.8868 -0.3584
  189SOL     OW  565   2.428   0.994   0.300 -0.3224 -0.8362  0.1766
  189SOL    HW1  566   2.478   0.910   0.326 -2.7629 -0.1863  0.7808
  189SOL    HW2  567   2.477   1.043   0.225  0.5601  1.3901 -2.0992
  190SOL     OW  568   1.096   1.676   2.015  0.1938 -1.0278 -0.7936
  190SOL    HW1  569   1.070   1.745   2.086 -0.6576  2.4903 -1.0102
  190SOL    HW2  570   1.022   1.670   1.947  2.9951 -1.3093 -1.8154
  191SOL     OW  571   2.698   0.515   1.601  0.2687  0.0493  0.0484
  191SOL    HW1  572   2.621   0.577   1.587 -0.1889 -1.7977 -3.3844
  191SOL    HW2  573   2.666   0.429   1.556  1.0381 -0.2857 -1.0367
  192SOL     OW  574   2.229   0.308   1.612  0.6469 -0.3083  0.5058
  192SOL    HW1  575   2.136   0.353   1.597 -1.9883  2.2197  2.2094
  192SOL    HW2  576   2.215   0.210   1.634  2.4461  0.2988  2.0323
  193SOL     OW  577   0.034   0.715   0.645 -0.6769 -0.0611 -0.5571
  193SOL    HW1  578   0.067   0.621   0.618 -1.3433 -2.9303  0.8485
  193SOL    HW2  579   0.109   0.787   0.659 -0.7249 -1.3691  0.1947
  194SOL     OW  580   1.699   2.801   1.570 -0.2769  0.2182 -0.1486
  194SOL    HW1  581   1.750   2.722   1.529 -0.2943 -1.7672 -1.7045
  194SOL    HW2  582   1.667   2.768   1.665  1.0678 -0.7275  0.2693
  195SOL     OW  583   2.509   0.804   0.904  0.7074 -0.0547 -0.1069
  195SOL    HW1  584   2.441   0.760   0.840 -0.2163 -1.8729 -3.8782
  195SOL    HW2  585   2.506   0.903   0.888 -2.1019 -1.3122  0.1538
  196SOL     OW  586   1.849   2.214   2.177  0.2332 -0.5499  0.4048
  196SOL    HW1  587   1.836   2.168   2.265  0.1763 -0.4440 -1.8692
  196SOL    HW2  588   1.831   2.315   2.181  1.1284  2.9335 -1.3761
  197SOL     OW  589   0.453   0.032   0.015  0.1352  0.2264 -0.2651
  197SOL    HW1  590   0.426   0.005   3.021 -1.7843  0.4957 -2.4005
  197SOL    HW2  591   0.403   3.068   0.081 -2.1090  0.8257 -0.0509
  198SOL     OW  592   0.938   1.234   0.839  0.6322  0.4008 -0.0865
  198SOL    HW1  593   1.006   1.168   0.800  3.2564  2.9125  1.0646
  198SOL    HW2  594   0.842   1.199   0.823  0.3935  1.5060  3.0040
  199SOL     OW  595   2.390   0.744   1.758  0.2819 -0.4830 -0.3534
  199SOL    HW1  596   2.381   0.759   1.861 -0.6210 -0.2284  1.2885
  199SOL    HW2  597   2.464   0.803   1.715 -1.7575 -0.8162  1.4633
  200SOL     OW  598   2.505   2.623   2.317 -0.0312  0.1079  0.3326
  200SOL    HW1  599   2.520   2.728   2.313 -2.1215  0.8556  1.7571
  200SOL    HW2  600   2.422   2.598   2.373 -1.0571  0.7984 -1.5172
  201SOL     OW  601   2.714   0.066   1.288 -0.5858  0.2948 -0.4120
  201SOL    HW1  602   2.728   3.069   1.315 -2.5351 -3.0057 -2.1715
  201SOL    HW2  603   2.675   0.071   1.194  0.0852 -2.0799  0.0498
  202SOL     OW  604   1.885   0.417   0.676  0.4844  0.4990  0.4233
  202SOL    HW1  605   1.824   0.500   0.659 -0.8872  2.1513 -0.5969
  202SOL    HW2  606   1.831   0.336   0.707 -0.1779 -0.8473  0.1626
  203SOL     OW  607   1.584   1.851   2.122  0.1826  0.4288  0.0364
  203SOL    HW1  608   1.667   1.887   2.079 -0.1493 -0.8679  2.6761
  203SOL    HW2  609   1.533   1.921   2.171  0.1938 -2.6687 -1.1163
  204SOL     OW  610   0.872   1.622   2.451  0.0480  0.3671 -0.2071
  204SOL    HW1  611   0.849   1.523   2.434 -1.6015  5.9934  1.2640
  204SOL    HW2  612   0.963   1.646   2.417 -0.6747 -2.3571 -0.9319
  205SOL     OW  613   0.836   1.803   1.424 -0.1985 -0.0404  0.3998
  205SOL    HW1  614   0.874   1.736   1.356 -1.1049 -2.4576  0.4302
  205SOL    HW2  615   0.759   1.763   1.476  1.9215  2.0301 -0.3528
  206SOL     OW  616   2.872   0.441   3.054 -0.3654  0.1777  0.4459
  206SOL    HW1  617   2.874   0.363   2.988 -1.8549 -2.2727  1.8222
  206SOL    HW2  618   2.788   0.442   0.010  0.2791 -0.3884 -0.6615
  207SOL     OW  619   1.707   2.752   2.279 -0.1517 -0.5497  0.0377
  207SOL    HW1  620   1.795   2.790   2.251 -2.7740 -0.7052  0.6302
  207SOL    HW2  621   1.722   2.654   2.306 -1.0486 -1.9237  1.8452
  208SOL     OW  622   0.668   2.442   1.265  0.3604 -0.3149  0.1279
  208SOL    HW1  623   0.732   2.520   1.247  0.2117  0.7480  0.5373
  208SOL    HW2  624   0.585   2.439   1.203 -2.9160  1.0364 -2.6072
  209SOL     OW  625   1.365   1.139   2.236 -0.1123 -1.0581 -0.3417
  209SOL    HW1  626   1.407   1.214   2.182 -1.7046  0.7362 -0.9025
  209SOL    HW2  627   1.315   1.176   2.315  0.2609 -0.2126 -1.3404
  210SOL     OW  628   1.814   0.946   1.391 -0.3232 -0.0163  0.6020
  210SOL    HW1  629   1.878   0.920   1.317 -0.1255  1.3046 -0.9223
  210SOL    HW2  630   1.718   0.930   1.365 -2.1400  0.5353  1.8514
  211SOL     OW  631   0.823   2.818   0.618  0.2847 -0.0474 -0.2139
  211SOL    HW1  632   0.805   2.892   0.547 -2.2878 -0.5075  1.7603
  211SOL    HW2  633   0.886   2.856   0.685  1.2592 -1.8349 -0.0004
  212SOL     OW  634   1.793   1.609   0.087 -0.0182  0.3811 -0.5234
  212SOL    HW1  635   1.825   1.695   0.131 -0.6074 -1.3216  0.8097
  212SOL    HW2  636   1.867   1.537   0.095  0.6960 -1.1420  1.2417
  213SOL     OW  637   1.543   0.161   2.650  0.0152 -0.2012 -0.3492
  213SOL    HW1  638   1.532   0.258   2.680 -0.7537  1.4014 -0.2176
  213SOL    HW2  639   1.601   0.107   2.715 -2.2688  0.4247 -0.9437
  214SOL     OW  640   1.376   1.682   1.946  0.6723  0.0445  0.0143
  214SOL    HW1  641   1.442   1.730   2.005 -0.2912 -0.1502  0.8186
  214SOL    HW2  642   1.282   1.695   1.978 -1.0265  1.3207 -0.5323
  215SOL     OW  643   0.667   1.839   0.111 -0.1550 -0.3204  0.2574
  215SOL    HW1  644   0.699   1.941   0.094  0.2377  0.5840 -0.7858
  215SOL    HW2  645   0.668   1.818   0.210  1.5998  2.6762 -1.2899
  216SOL     OW  646   0.375   2.905   2.316  0.0879  0.2023 -0.4519
  216SOL    HW1  647   0.452   2.961   2.277  0.2702  1.1132 -0.8483
  216SOL    HW2  648   0.393   2.874   2.411  1.4471  4.0134  4.5681
  217SOL     OW  649   2.334   1.152   0.940  0.2770  0.0106 -0.6273
  217SOL    HW1  650   2.321   1.254   0.945 -1.4773 -0.2708 -0.9387
  217SOL    HW2  651   2.256   1.102   0.904  0.0335 -0.0658 -1.4970
  218SOL     OW  652   1.787   1.565   1.813  0.6603  0.0803 -0.4872
  218SOL    HW1  653   1.769   1.560   1.915 -1.5511 -0.2411 -2.4800
  218SOL    HW2  654   1.880   1.570   1.784 -2.9488  3.1606  1.4292
  219SOL     OW  655   1.857   1.291   2.954  0.0704 -0.2190  0.5031
  219SOL    HW1  656   1.896   1.331   2.866  0.6748  3.1994 -1.9704
  219SOL    HW2  657   1.768   1.341   2.968  1.5477 -0.8640 -1.8503
  220SOL     OW  658   1.168   1.454   1.109  0.1160  0.1279 -0.6407
  220SOL    HW1  659   1.065   1.452   1.107 -2.0737 -0.0725 -1.0401
  220SOL    HW2  660   1.205   1.465   1.016  1.5186 -0.6734 -1.7741
  221SOL     OW  661   0.866   0.498   2.737 -0.1861 -0.1261 -0.7349
  221SOL    HW1  662   0.884   0.570   2.809 -1.9595  1.7204 -1.0276
  221SOL    HW2  663   0.833   0.409   2.776  2.3142 -0.7612 -1.0316
  222SOL     OW  664   1.092   1.407   0.462 -0.1410  0.3094  0.2849
  222SOL    HW1  665   1.129   1.435   0.551 -3.7872 -0.4179 -0.7500
  222SOL    HW2  666   1.038   1.323   0.474 -0.0701  0.4067  1.9869
  223SOL     OW  667   0.977   2.882   2.821  0.0176 -0.2349  0.0605
  223SOL    HW1  668   1.077   2.911   2.808  3.5740  1.0714  0.5794
  223SOL    HW2  669   0.953   2.943   2.901 -1.4809  2.1121 -0.3680
  224SOL     OW  670   2.618   0.308   1.417 -0.1203 -0.2353  0.5028
  224SOL    HW1  671   2.514   0.314   1.416 -0.6897  0.5407 -2.3417
  224SOL    HW2  672   2.659   0.228   1.369  0.4462 -1.7269  1.7924
  225SOL     OW  673   0.715   0.427   1.395 -0.2721 -0.1168 -0.5792
  225SOL    HW1  674   0.667   0.466   1.308  1.1594 -0.8251 -1.8353
  225SOL    HW2  675   0.815   0.403   1.377  1.7963  1.8363  0.2830
  226SOL     OW  676   1.458   1.639   2.923 -0.3091  0.0053  0.5469
  226SOL    HW1  677   1.434   1.616   2.828  1.5730  1.3566  0.1158
  226SOL    HW2  678   1.376   1.672   2.976 -1.2290 -1.4689 -1.4887
  227SOL     OW  679   0.977   1.637   1.247 -0.1873  0.0329  0.0586
  227SOL    HW1  680   0.915   1.591   1.181  0.7113  2.4895 -0.3076
  227SOL    HW2  681   1.013   1.571   1.320  1.7318 -0.1294  1.4173
  228SOL     OW  682   0.605   1.742   0.669 -0.2249 -0.5801  0.0936
  228SOL    HW1  683   0.582   1.650   0.706  0.3666  1.7148 -1.8739
  228SOL    HW2  684   0.603   1.822   0.736 -3.1345  1.6865 -0.0904
  229SOL     OW  685   0.961   0.331   0.057  0.9168 -0.7944 -0.0117
  229SOL    HW1  686   0.999   0.413   0.011  3.4118 -1.3491 -2.8644
  229SOL    HW2  687   0.906   0.357   0.140  0.1084 -0.1634 -0.7824
  230SOL     OW  688   1.106   0.660   2.116  0.6358 -0.3956 -0.2008
  230SOL    HW1  689   1.013   0.617   2.117  0.1880  0.0793  0.1132
  230SOL    HW2  690   1.176   0.592   2.141  1.7127  0.9530 -0.4365
  231SOL     OW  691   1.170   1.682   2.370 -0.3307  0.0689 -0.6057
  231SOL    HW1  692   1.239   1.712   2.441  2.2874  2.0020  1.1443
  231SOL    HW2  693   1.130   1.762   2.319  2.0645  0.0559 -0.0821
  232SOL     OW  694   2.318   1.920   1.165  0.3044 -0.1361 -0.0538
  232SOL    HW1  695   2.380   1.870   1.102 -0.9616  0.9176  0.8660
  232SOL    HW2  696   2.239   1.855   1.182 -2.0558 -2.9314  1.7459
  233SOL     OW  697   2.411   2.992   0.303 -0.3377  0.0248 -0.1487
  233SOL    HW1  698   2.375   3.084   0.328  1.0279  0.1154  1.2706
  233SOL    HW2  699   2.344   2.941   0.249  1.3959  0.2459  0.7874
  234SOL     OW  700   1.070   0.122   2.739  0.6713 -0.2556  0.5130
  234SOL    HW1  701   1.152   0.102   2.687 -1.4705 -1.7020  0.9779
  234SOL    HW2  702   1.088   0.101   2.836 -0.7177 -0.7636  2.0084
  235SOL     OW  703   2.512   0.139   2.747  0.5132  0.0685 -0.3639
  235SOL    HW1  704   2.424   0.094   2.763 -0.3786 -0.8705  1.3346
  235SOL    HW2  705   2.548   0.117   2.654  0.3749  0.6912 -1.9936
  236SOL     OW  706   2.173   2.586   2.191  0.3082 -0.2676 -0.3897
  236SOL    HW1  707   2.204   2.603   2.287  0.3602 -1.2474 -1.5991
  236SOL    HW2  708   2.073   2.576   2.185  2.2310 -1.0436 -0.2480
  237SOL     OW  709   0.921   1.491   2.136 -0.1824 -0.3238 -0.1954
  237SOL    HW1  710   0.991   1.545   2.085 -0.0321 -2.5967  1.4016
  237SOL    HW2  711   0.960   1.422   2.195  0.9212 -0.4856 -1.7628
  238SOL     OW  712   1.901   0.045   2.404 -0.0938 -0.5788 -0.0196
  238SOL    HW1  713   1.844   3.078   2.448 -1.8537  1.3196 -0.2747
  238SOL    HW2  714   1.989   0.011   2.358 -0.5763 -2.3639 -0.9709
  239SOL     OW  715   3.078   1.845   1.560 -0.4466  0.1654  0.3098
  239SOL    HW1  716   0.077   1.826   1.571  0.7043 -1.1918  0.4358
  239SOL    HW2  717   3.024   1.823   1.647 -1.2480  0.2586  3.8363
  240SOL     OW  718   2.814   2.535   0.660  0.2252 -0.9319  0.0207
  240SOL    HW1  719   2.847   2.433   0.671  0.8454 -2.0233  1.7596
  240SOL    HW2  720   2.812   2.574   0.565 -0.4945  1.9690 -2.2855
  241SOL     OW  721   2.040   1.467   0.761 -0.1090  0.0038  0.0311
  241SOL    HW1  722   2.066   1.456   0.662  2.0631  1.4889 -0.3642
  241SOL    HW2  723   1.975   1.399   0.798 -1.8292 -0.3952  0.3933
  242SOL     OW  724   1.661   1.735   2.687 -0.1025  0.7822 -0.3691
  242SOL    HW1  725   1.678   1.673   2.763  2.5645  2.1722  1.5789
  242SOL    HW2  726   1.611   1.817   2.711 -1.1415 -0.8029  0.5171
  243SOL     OW  727   0.609   2.579   1.882 -0.0424  0.4951  0.0090
  243SOL    HW1  728   0.655   2.649   1.940 -2.5076 -0.2655  0.4471
  243SOL    HW2  729   0.588   2.622   1.792  1.6039 -3.1534  0.6777
  244SOL     OW  730   2.216   0.060   2.787  0.0938  0.0509  0.4392
  244SOL    HW1  731   2.153   0.140   2.765  1.1068 -0.6039 -0.1143
  244SOL    HW2  732   2.204   3.079   2.720 -2.6229  1.3676 -0.7436
  245SOL     OW  733   1.367   2.824   0.833 -0.3080 -0.1346  0.2347
  245SOL    HW1  734   1.360   2.870   0.927  0.6811 -0.0819  0.4411
  245SOL    HW2  735   1.278   2.784   0.806 -0.7350  0.9377  1.2134
  246SOL     OW  736   1.402   2.694   0.169  0.3013  0.1423 -0.1564
  246SOL    HW1  737   1.414   2.747   0.252 -0.2402 -2.5717 -2.8801
  246SOL    HW2  738   1.475   2.717   0.101 -0.0511 -0.6289  1.8923
  247SOL     OW  739   0.855   0.569   2.238  0.2398  0.2001  0.2821
  247SOL    HW1  740   0.758   0.547   2.231  0.2027 -0.7566 -1.2219
  247SOL    HW2  741   0.909   0.496   2.286 -0.2180 -0.0252  0.8615
  248SOL     OW  742   0.726   1.684   2.082 -0.3098  0.1203  0.2326
  248SOL    HW1  743   0.778   1.609   2.125 -1.0907 -2.9964 -0.4500
  248SOL    HW2  744   0.787   1.738   2.022 -1.6885 -0.7574 -2.1569
  249SOL     OW  745   2.389   0.438   0.440  0.1470 -0.0570 -0.0513
  249SOL    HW1  746   2.357   0.347   0.469 -0.0261  2.4628  3.0140
  249SOL    HW2  747   2.309   0.502   0.457 -0.1089 -2.2211 -0.4746
  250SOL     OW  748   0.403   0.196   0.721 -0.6007 -0.1204  0.0087
  250SOL    HW1  749   0.304   0.162   0.726 -2.3001 -0.6767  2.5558
  250SOL    HW2  750   0.476   0.127   0.699 -1.8183 -0.0288  0.5765
  251SOL     OW  751   1.727   0.061   2.810 -0.0095  0.2174 -0.4852
  251SOL    HW1  752   1.762   0.158   2.801 -0.2755  0.5074 -2.3705
  251SOL    HW2  753   1.778   0.006   2.879 -1.3398  1.9499  0.2481
  252SOL     OW  754   1.687   1.606   2.079 -0.7415 -0.0357  0.5356
  252SOL    HW1  755   1.690   1.555   2.166  1.1277  2.2378 -1.5240
  252SOL    HW2  756   1.638   1.692   2.095  0.1401 -1.7135 -0.2700
  253SOL     OW  757   2.750   2.424   1.760 -0.7734 -0.3021 -0.4405
  253SOL    HW1  758   2.828   2.471   1.805 -0.4633  0.2272  0.5244
  253SOL    HW2  759   2.775   2.390   1.666  0.4749  1.3269 -1.7116
  254SOL     OW  760   0.017   1.336   1.207 -0.4596 -0.4342 -0.1564
  254SOL    HW1  761   3.033   1.276   1.196  1.1379  1.9074 -0.2062
  254SOL    HW2  762   0.013   1.386   1.298  2.0813  0.0921  1.9093
  255SOL     OW  763   0.680   0.747   1.412 -0.3266  0.2779  0.4162
  255SOL    HW1  764   0.777   0.714   1.413  1.0657  1.0738  1.8073
  255SOL    HW2  765   0.618   0.675   1.371 -0.0434 -0.3842  0.1606
  256SOL     OW  766   1.890   2.647   1.455 -0.5177 -0.1431 -0.5582
  256SOL    HW1  767   1.954   2.701   1.514  1.8951  1.7557  0.8274
  256SOL    HW2  768   1.846   2.571   1.508 -1.0549  0.7081 -3.1202
  257SOL     OW  769   0.563   2.674   2.642 -0.1919 -0.1204  0.9818
  257SOL    HW1  770   0.661   2.698   2.640  1.1397  2.5224 -0.9062
  257SOL    HW2  771   0.542   2.591   2.592 -1.2938  0.7061 -1.0059
  258SOL     OW  772   0.862   2.417   0.144 -0.3933 -0.2844 -0.2761
  258SOL    HW1  773   0.769   2.419   0.187  1.3766  0.7021  2.4263
  258SOL    HW2  774   0.909   2.506   0.172  0.8487  0.4009  2.2613
  259SOL     OW  775   1.022   0.004   1.985  0.0625 -0.0547  0.1512
  259SOL    HW1  776   1.061   0.089   1.942 -0.0481 -1.0219  2.3547
  259SOL    HW2  777   0.935   3.083   1.938  3.0205  0.6008  2.0877
  260SOL     OW  778   1.711   0.676   1.129  0.1962  0.6446 -0.1837
  260SOL    HW1  779   1.746   0.594   1.176 -1.8314  1.0172 -2.4699
  260SOL    HW2  780   1.648   0.732   1.192 -0.1887  1.8521  0.6451
  261SOL     OW  781   0.607   0.419   2.646  0.2927  0.6687  0.4843
  261SOL    HW1  782   0.561   0.341   2.700  1.6782 -1.1158  0.4171
  261SOL    HW2  783   0.693   0.458   2.687 -0.8680 -2.7094  0.6453
  262SOL     OW  784   0.149   2.492   1.982 -0.0459 -0.2985  0.1198
  262SOL    HW1  785   0.126   2.563   2.055  0.5720  2.8524 -2.2682
  262SOL    HW2  786   0.123   2.402   2.024 -0.1391 -0.3958  0.1343
  263SOL     OW  787   2.894   1.629   2.276 -0.0699  0.5702 -0.2528
  263SOL    HW1  788   2.924   1.712   2.229 -1.7028 -1.9192 -0.3914
  263SOL    HW2  789   2.916   1.624   2.373 -1.9059  1.0420 -1.5453
  264SOL     OW  790   0.366   0.956   0.928  0.3156 -0.2360  0.3594
  264SOL    HW1  791   0.382   1.047   0.877  0.5804 -0.4658 -1.9271
  264SOL    HW2  792   0.286   0.976   0.991 -0.4895  0.9495 -1.4212
  265SOL     OW  793   1.013   2.420   0.882 -0.1845 -0.5665  0.2010
  265SOL    HW1  794   0.993   2.408   0.980  1.4647 -0.5842 -0.6634
  265SOL    HW2  795   1.102   2.381   0.859 -2.0631  1.6882  2.1662
  266SOL     OW  796   1.510   1.138   0.889 -0.5289  0.2536  0.3045
  266SOL    HW1  797   1.546   1.113   0.981 -0.1688 -0.1178 -1.9759
  266SOL    HW2  798   1.567   1.211   0.849  2.2315 -0.9700 -0.2519
  267SOL     OW  799   2.640   1.151   0.038  0.6418 -0.3986 -0.0288
  267SOL    HW1  800   2.704   1.101   0.091 -1.5989  1.8252 -2.2257
  267SOL    HW2  801   2.601   1.104   3.056 -1.2461 -0.3460  3.4806
  268SOL     OW  802   1.430   0.435   0.284  0.1525 -0.5530  0.3289
  268SOL    HW1  803   1.511   0.493   0.292 -0.9323  0.4783  0.1114
  268SOL    HW2  804   1.412   0.407   0.189 -1.1048 -0.0967  0.3420
  269SOL     OW  805   1.990   0.560   2.953 -0.2862  0.2546 -0.6269
  269SOL    HW1  806   2.097   0.541   2.960  2.4612 -1.4449 -0.5639
  269SOL    HW2  807   1.961   0.636   3.013 -1.8644 -2.2638 -2.8859
  270SOL     OW  808   0.158   0.935   0.038  0.3568 -0.1546  0.2505
  270SOL    HW1  809   0.189   1.027   0.003  1.1884  0.7532 -1.2260
  270SOL    HW2  810   0.188   0.931   0.130  0.2015 -0.6048  0.9272
  271SOL     OW  811   2.613   0.821   0.349  0.1865  0.3635  0.0886
  271SOL    HW1  812   2.674   0.888   0.304 -0.4534 -1.1121 -0.3998
  271SOL    HW2  813   2.653   0.794   0.439  1.2848 -1.4955 -0.7160
  272SOL     OW  814   2.982   2.661   0.182 -0.6597  0.2089  0.4630
  272SOL    HW1  815   2.916   2.612   0.119  0.5059  0.3532 -0.9408
  272SOL    HW2  816   3.068   2.608   0.204  1.5540 -0.7613  0.8597
  273SOL     OW  817   2.734   2.972   0.160  0.1587 -0.3655  0.0317
  273SOL    HW1  818   2.833   2.951   0.155 -1.9720 -1.4700 -1.6911
  273SOL    HW2  819   2.717   3.044   0.230  1.4344 -1.0948  1.3378
  274SOL     OW  820   0.481   2.447   1.039 -0.3050  0.5479 -0.2715
  274SOL    HW1  821   0.546   2.528   1.036  1.9278  2.0838 -0.2600
  274SOL    HW2  822   0.520   2.361   0.995  3.5079 -1.6760  0.2903
  275SOL     OW  823   2.948   1.317   0.369  0.0733 -0.2762  0.4452
  275SOL    HW1  824   2.969   1.330   0.269  0.0232 -0.1735 -1.0305
  275SOL    HW2  825   2.911   1.230   0.391  2.1523  2.0310  2.5620
  276SOL     OW  826   2.991   1.211   1.866  0.0481  0.0147 -0.0836
  276SOL    HW1  827   3.002   1.111   1.852 -0.6809 -0.9074 -0.4337
  276SOL    HW2  828   3.038   1.261   1.792 -0.1600  1.1183 -0.0612
  277SOL     OW  829   2.325   0.172   1.093 -0.0768 -0.2546  0.3786
  277SOL    HW1  830   2.323   0.090   1.033 -2.4563  1.3275 -0.3775
  277SOL    HW2  831   2.294   0.254   1.036  0.0390  0.3775 -0.8286
  278SOL     OW  832   1.544   2.396   2.375  0.4712  0.1449 -0.3853
  278SOL    HW1  833   1.473   2.444   2.316 -1.0777 -2.9032 -0.3897
  278SOL    HW2  834   1.484   2.358   2.449 -1.1129 -1.6567 -0.5894
  279SOL     OW  835   1.646   1.754   0.549 -0.0916  0.2591 -0.2521
  279SOL    HW1  836   1.742   1.772   0.517 -1.4158 -1.7177  0.3053
  279SOL    HW2  837   1.577   1.791   0.479 -2.0382  0.0263 -1.0261
  280SOL     OW  838   0.223   1.465   1.007  0.0128  0.7127 -0.1617
  280SOL    HW1  839   0.170   1.555   1.008 -2.0644  0.7336  0.1114
  280SOL    HW2  840   0.159   1.393   1.036 -0.4086 -1.3605 -0.1283
  281SOL     OW  841   0.094   0.984   2.463 -0.1079  0.2552 -0.9677
  281SOL    HW1  842   0.094   0.881   2.445 -0.2045 -0.8242 -0.9746
  281SOL    HW2  843   0.132   1.003   2.556 -0.6274  0.8235  0.3674
  282SOL     OW  844   0.752   1.403   0.565  0.1006 -0.0247  0.0188
  282SOL    HW1  845   0.799   1.484   0.532 -3.0747 -1.3452  5.6427
  282SOL    HW2  846   0.777   1.374   0.660  3.9231 -1.6491  1.5560
  283SOL     OW  847   2.089   2.299   0.178 -0.3104  0.1959  0.5083
  283SOL    HW1  848   2.059   2.365   0.246  1.7020  1.5277 -0.2977
  283SOL    HW2  849   2.188   2.324   0.148  2.9742  0.8105 -0.2414
  284SOL     OW  850   1.088   0.165   0.463  0.2990  0.2986  0.5377
  284SOL    HW1  851   1.069   0.092   0.390  0.9220 -0.7215 -0.0398
  284SOL    HW2  852   1.029   0.245   0.446  2.1955 -2.8408 -3.1613
  285SOL     OW  853   2.204   1.063   3.016  0.1591 -0.5231 -0.7038
  285SOL    HW1  854   2.267   0.983   3.009 -1.2137  2.0420  0.4317
  285SOL    HW2  855   2.250   1.152   2.997  1.1784  1.8875  1.0737
  286SOL     OW  856   1.792   2.277   1.039  0.1394 -0.2454  0.2233
  286SOL    HW1  857   1.750   2.368   1.048 -2.2674 -0.7213 -0.0123
  286SOL    HW2  858   1.745   2.205   1.102  0.5946 -1.5626  1.7656
  287SOL     OW  859   1.175   0.423   0.737 -0.0692  0.0449 -0.1273
  287SOL    HW1  860   1.226   0.381   0.661  2.0279 -1.2554 -0.3672
  287SOL    HW2  861   1.229   0.506   0.761  2.1540  1.7845 -0.0827
  288SOL     OW  862   1.194   2.263   2.784 -0.6484 -0.4330  0.0291
  288SOL    HW1  863   1.095   2.286   2.787  0.0241  0.2168  0.3232
  288SOL    HW2  864   1.240   2.301   2.869  1.3785  2.0920  0.5442
  289SOL     OW  865   0.026   1.437   1.496  0.9796  0.0792  0.3926
  289SOL    HW1  866   0.096   1.506   1.476 -2.6532 -0.6462  0.4255
  289SOL    HW2  867   0.053   1.386   1.582  1.3418  0.8256  2.1751
  290SOL     OW  868   1.520   2.215   0.775  0.2130  0.0049  0.3068
  290SOL    HW1  869   1.506   2.187   0.871  1.6455  0.2002  2.6168
  290SOL    HW2  870   1.611   2.183   0.740  0.3459  2.8595  2.6537
  291SOL     OW  871   1.826   3.071   0.060 -0.2156 -0.0095  0.3272
  291SOL    HW1  872   1.740   0.007   0.099 -2.4478  0.7703 -1.5325
  291SOL    HW2  873   1.891   3.043   0.129  0.7201 -1.1984  1.8091
  292SOL     OW  874   0.705   0.134   1.724  0.0217  0.0585  0.3893
  292SOL    HW1  875   0.742   0.219   1.683 -2.6143 -0.4231 -0.0210
  292SOL    HW2  876   0.651   0.156   1.813 -3.3274  1.5518  1.6634
  293SOL     OW  877   2.457   2.275   0.947  0.0048  0.2888 -0.5613
  293SOL    HW1  878   2.436   2.355   0.882 -0.5479 -1.6653  1.0933
  293SOL    HW2  879   2.462   2.308   1.047 -2.3981  2.3720  1.9793
  294SOL     OW  880   0.673   0.831   2.280  0.1234 -0.4254 -0.4231
  294SOL    HW1  881   0.573   0.814   2.299  0.2342 -2.1630 -1.7809
  294SOL    HW2  882   0.726   0.747   2.252  2.0130 -1.4549 -0.5252
  295SOL     OW  883   1.563   1.488   1.114 -0.2146  0.1473  0.4959
  295SOL    HW1  884   1.480   1.540   1.140 -1.8436 -1.8166 -1.4573
  295SOL    HW2  885   1.604   1.533   1.029 -0.8980  1.2867 -0.1863
  296SOL     OW  886   2.672   1.790   0.277 -0.2218 -0.1603 -0.5604
  296SOL    HW1  887   2.677   1.846   0.189  0.2705  0.5125  0.4758
  296SOL    HW2  888   2.576   1.768   0.289  0.2520 -3.2184  1.4210
  297SOL     OW  889   1.874   0.146   0.334 -0.0587 -0.5101  0.3099
  297SOL    HW1  890   1.974   0.139   0.345 -0.3732  0.2681 -0.8575
  297SOL    HW2  891   1.851   0.235   0.286  1.0618  3.3960 -0.7489
  298SOL     OW  892   0.814   2.772   2.649 -0.3098 -0.5299  0.0932
  298SOL    HW1  893   0.863   2.741   2.566 -1.0071 -0.0807  1.5367
  298SOL    HW2  894   0.871   2.829   2.711 -1.0351 -0.5596  1.6119
  299SOL     OW  895   1.088   2.177   2.023  0.1513 -0.3544 -0.0242
  299SOL    HW1  896   1.089   2.271   1.983 -1.2030 -0.0292 -1.7785
  299SOL    HW2  897   1.088   2.180   2.126  0.3358  0.4938 -0.6970
  300SOL     OW  898   2.769   0.094   2.801  0.4196 -0.0113  0.1314
  300SOL    HW1  899   2.790   0.040   2.884 -1.7867  2.4042 -1.1665
  300SOL    HW2  900   2.665   0.103   2.786 -1.5381 -1.9812 -1.4475
  301SOL     OW  901   1.017   1.103   1.955  0.0457 -0.1351  0.6100
  301SOL    HW1  902   1.006   1.197   1.916  1.3130  2.5432  0.6045
  301SOL    HW2  903   1.110   1.065   1.949 -0.2990 -0.1797 -0.3501
  302SOL     OW  904   2.682   2.180   0.530  0.4020  0.2646 -0.2397
  302SOL    HW1  905   2.639   2.274   0.528  0.4392  1.6459  0.2470
  302SOL    HW2  906   2.623   2.113   0.585 -1.0032 -2.9757  2.1787
  303SOL     OW  907   2.504   2.354   1.855 -0.3568  0.0344  0.3334
  303SOL    HW1  908   2.598   2.383   1.816  2.4172 -0.9275  0.2562
  303SOL    HW2  909   2.480   2.404   1.938 -1.7141  0.7725 -1.3527
  304SOL     OW  910   3.073   0.945   1.767  0.1258 -0.3165 -0.4275
  304SOL    HW1  911   3.029   0.871   1.820  1.5752  0.5344  0.1931
  304SOL    HW2  912   3.047   0.934   1.671 -0.7821 -1.2610  2.2107
  305SOL     OW  913   0.499   1.552   1.335 -0.2300 -0.0941  0.0548
  305SOL    HW1  914   0.578   1.511   1.392  2.2011  2.4161  3.7940
  305SOL    HW2  915   0.458   1.489   1.268  0.0440 -0.5232 -4.6487
  306SOL     OW  916   0.402   1.457   2.113  0.1519 -0.5678 -0.2839
  306SOL    HW1  917   0.407   1.356   2.097  1.8293  0.2787 -0.2696
  306SOL    HW2  918   0.476   1.478   2.178  3.0754 -0.6797 -1.6639
  307SOL     OW  919   0.922   0.575   1.781  0.3586  0.5830  0.5251
  307SOL    HW1  920   0.855   0.528   1.723 -0.7147  0.9830  0.4381
  307SOL    HW2  921   1.008   0.603   1.726  2.6273 -3.1253  0.4749
  308SOL     OW  922   2.914   1.185   1.162 -0.2605  0.0617 -0.1745
  308SOL    HW1  923   2.853   1.173   1.240  0.0958  0.4003 -0.7289
  308SOL    HW2  924   2.881   1.126   1.084  1.2926 -1.6172 -0.1912
  309SOL     OW  925   2.627   1.347   1.139 -0.3294  0.0640 -0.5910
  309SOL    HW1  926   2.673   1.293   1.216 -0.9818  2.5343  0.4065
  309SOL    HW2  927   2.684   1.342   1.052  0.8494 -0.4961 -0.7969
  310SOL     OW  928   2.824   2.280   2.811 -0.5805 -0.0942 -0.8443
  310SOL    HW1  929   2.890   2.203   2.836 -1.7270 -2.7120 -0.6817
  310SOL    HW2  930   2.851   2.316   2.719 -0.1040  2.7200 -0.0736
  311SOL     OW  931   2.674   2.726   2.812  0.4245 -0.3069  0.3016
  311SOL    HW1  932   2.764   2.774   2.788  1.8570  3.1393 -0.4461
  311SOL    HW2  933   2.607   2.748   2.739 -0.8657 -1.9373  1.5958
  312SOL     OW  934   2.095   1.769   0.176 -0.2419  0.3978 -0.2300
  312SOL    HW1  935   2.084   1.866   0.176  1.5564 -3.3123 -0.4284
  312SOL    HW2  936   2.118   1.730   0.086  0.8930 -0.4479 -0.0937
  313SOL     OW  937   2.564   2.850   0.466 -0.0060 -0.1278 -0.1502
  313SOL    HW1  938   2.518   2.913   0.393 -2.8558  0.1059 -2.7649
  313SOL    HW2  939   2.662   2.879   0.475  1.2391  0.6972  1.3037
  314SOL     OW  940   1.631   1.230   0.153 -0.7690  0.0841 -0.0823
  314SOL    HW1  941   1.641   1.278   0.060 -0.0335  0.7142 -2.7256
  314SOL    HW2  942   1.650   1.294   0.232 -1.2326 -1.7473 -0.6098
  315SOL     OW  943   1.403   2.847   1.924  0.5556 -0.4365  0.1574
  315SOL    HW1  944   1.315   2.866   1.976 -1.3710  0.3048  2.2207
  315SOL    HW2  945   1.424   2.922   1.860 -1.0633  0.2109  0.3135
  316SOL     OW  946   2.809   0.741   3.027 -0.2888  0.5444  0.8040
  316SOL    HW1  947   2.873   0.796   3.084  0.1057  0.6944  0.6524
  316SOL    HW2  948   2.813   0.647   3.061 -0.5951  2.1852  0.2686
  317SOL     OW  949   0.570   2.856   0.206 -0.3401 -0.6751  0.5974
  317SOL    HW1  950   0.474   2.864   0.189  2.0833  0.6657  2.3243
  317SOL    HW2  951   0.618   2.832   0.120  0.9808 -1.7053  0.3649
  318SOL     OW  952   2.138   2.723   0.564 -0.6283 -0.0125  0.0629
  318SOL    HW1  953   2.109   2.647   0.625  1.5457 -1.4909 -4.3548
  318SOL    HW2  954   2.113   2.703   0.465  1.5815  3.3510 -0.8287
  319SOL     OW  955   1.037   1.887   2.917 -0.4272 -0.2541 -0.2214
  319SOL    HW1  956   0.957   1.942   2.950  1.8093  0.6881 -0.6450
  319SOL    HW2  957   1.006   1.792   2.896  0.3595 -3.4001 -0.2102
  320SOL     OW  958   0.326   2.244   1.781  0.0487  0.0670 -0.7958
  320SOL    HW1  959   0.386   2.322   1.816 -0.9439 -1.2947  3.6109
  320SOL    HW2  960   0.341   2.158   1.840 -0.4362 -3.0393 -2.4702
  321SOL     OW  961   1.306   3.018   2.347  0.8832 -0.2883 -0.3618
  321SOL    HW1  962   1.377   2.956   2.381 -1.4472  0.3576 -0.8043
  321SOL    HW2  963   1.286   3.000   2.249  0.9047  0.7699 -1.8653
  322SOL     OW  964   2.749   1.489   2.100  0.2761  0.3690 -0.0703
  322SOL    HW1  965   2.817   1.534   2.163 -1.0709 -1.2887 -1.4228
  322SOL    HW2  966   2.669   1.442   2.147  2.4802 -1.9971  0.3809
  323SOL     OW  967   2.414   0.998   1.146  0.3365  0.5106  0.1902
  323SOL    HW1  968   2.406   1.032   1.048  0.5623  1.1576 -3.2944
  323SOL    HW2  969   2.414   1.079   1.207 -2.5282 -1.3673  1.8564
  324SOL     OW  970   2.829   0.247   2.248 -0.0137 -0.1015  0.3737
  324SOL    HW1  971   2.848   0.188   2.331 -0.6626 -1.6796  0.3086
  324SOL    HW2  972   2.733   0.285   2.251 -0.7046  1.5289  0.8108
  325SOL     OW  973   1.175   0.753   2.731  0.3967  0.3430  0.1334
  325SOL    HW1  974   1.250   0.679   2.730  0.2539 -1.0451 -1.3688
  325SOL    HW2  975   1.104   0.736   2.657 -0.9261 -1.3692 -1.0367
  326SOL     OW  976   2.081   2.985   1.912  0.0852 -0.3667  0.0090
  326SOL    HW1  977   1.997   2.943   1.864 -3.9340 -1.6339 -0.1502
  326SOL    HW2  978   2.154   2.921   1.945  0.8673  0.9586  0.7742
  327SOL     OW  979   2.082   0.443   0.265 -0.2707 -0.0277  0.3609
  327SOL    HW1  980   2.106   0.447   0.369  1.0150  1.3833  0.8053
  327SOL    HW2  981   2.145   0.373   0.223  0.6281 -0.1573 -0.6692
  328SOL     OW  982   0.168   1.555   2.545 -0.0782  0.3652  0.1229
  328SOL    HW1  983   0.205   1.492   2.474  1.5339  1.1654 -1.0743
  328SOL    HW2  984   0.065   1.565   2.543 -1.3421 -0.2829 -0.1227
  329SOL     OW  985   2.117   0.077   1.706  0.4122  0.1368  0.0998
  329SOL    HW1  986   2.071   0.015   1.771 -1.4790  2.3553 -0.6217
  329SOL    HW2  987   2.136   0.035   1.615 -0.8626 -1.0088 -1.0601
  330SOL     OW  988   0.281   1.295   0.779  0.3575  0.1738 -0.2716
  330SOL    HW1  989   0.206   1.229   0.790  3.1333  2.0869  1.0304
  330SOL    HW2  990   0.261   1.384   0.826 -1.0607  0.8200 -1.5486
  331SOL     OW  991   0.211   1.822   2.339  0.0043  0.0086  0.1189
  331SOL    HW1  992   0.175   1.733   2.372 -1.5266 -1.1779  1.4752
  331SOL    HW2  993   0.309   1.823   2.365 -3.4035 -0.8657  0.5083
  332SOL     OW  994   0.010   2.965   1.427 -0.1331 -0.3540  0.1588
  332SOL    HW1  995   0.031   2.868   1.401  2.4242  0.8479  2.4565
  332SOL    HW2  996   0.019   2.978   1.528  0.1603 -0.1463  5.9541
  333SOL     OW  997   2.189   0.210   0.729  0.6924 -0.1541 -0.5406
  333SOL    HW1  998   2.115   0.145   0.760  0.1007  0.7971  0.5006
  333SOL    HW2  999   2.220   0.269   0.804 -1.8063  0.5490 -1.6908
  334SOL     OW 1000   0.518   2.095   0.653 -0.3114  0.7286  0.0609
  334SOL    HW1 1001   0.609   2.106   0.607 -1.1219 -0.0528 -0.1422
  334SOL    HW2 1002   0.438   2.139   0.609  0.1313 -2.3019  0.9670
  335SOL     OW 1003   0.119   2.509   0.178  0.6054  0.3551  0.4035
  335SOL    HW1 1004   0.088   2.454   0.257  0.5627  0.0345 -3.6294
  335SOL    HW2 1005   0.215   2.480   0.158 -0.7209  0.0615  0.8756
  336SOL     OW 1006   0.176   3.080   2.455 -0.1769  0.0920  0.3724
  336SOL    HW1 1007   0.080   3.060   2.435  0.5585 -0.6228  0.1565
  336SOL    HW2 1008   0.242   3.016   2.413 -0.6687 -0.7695  0.7979
  337SOL     OW 1009   2.375   2.305   2.700  0.3670 -0.1881  0.2873
  337SOL    HW1 1010   2.422   2.379   2.751 -1.4621  0.1594  1.3943
  337SOL    HW2 1011   2.432   2.219   2.712 -0.7103  0.1370 -2.0561
  338SOL     OW 1012   0.717   0.511   0.625  0.5854  0.3618 -0.9405
  338SOL    HW1 1013   0.713   0.417   0.585  1.3613 -0.3910  0.0345
  338SOL    HW2 1014   0.810   0.532   0.658  0.9558  0.3624  2.9833
  339SOL     OW 1015   0.335   0.863   2.132  0.0232  0.1717  0.1599
  339SOL    HW1 1016   0.343   0.851   2.231 -0.0247  1.0019 -0.5762
  339SOL    HW2 1017   0.321   0.964   2.099  0.9493  1.2091  0.0551
  340SOL     OW 1018   1.615   3.000   0.419 -0.2146  0.3842  1.0280
  340SOL    HW1 1019   1.711   3.006   0.391  0.6415  0.3346 -1.9088
  340SOL    HW2 1020   1.570   3.089   0.416  0.0967 -0.0711  0.3571
  341SOL     OW 1021   1.949   0.924   1.166  0.4478  0.3857 -0.0590
  341SOL    HW1 1022   1.935   0.872   1.079 -0.1926 -5.5485 -3.2573
  341SOL    HW2 1023   2.044   0.910   1.194 -2.4629 -1.7090 -0.3282
  342SOL     OW 1024   2.269   2.852   0.116  0.4000 -0.1877 -0.2105
  342SOL    HW1 1025   2.258   2.922   0.041  1.2573  0.7030  0.2108
  342SOL    HW2 1026   2.269   2.759   0.082  0.9727 -1.1680  2.0012
  343SOL     OW 1027   1.412   2.191   1.713  0.0974  0.0036  0.4411
  343SOL    HW1 1028   1.499   2.142   1.711 -0.6502 -0.3371  0.0431
  343SOL    HW2 1029   1.342   2.128   1.763 -0.0672 -0.4528  2.2722
  344SOL     OW 1030   2.501   2.749   1.010 -0.0829 -0.0764  0.2457
  344SOL    HW1 1031   2.405   2.708   1.000 -1.0631  0.8921  1.2394
  344SOL    HW2 1032   2.520   2.775   1.106  1.8762  1.1272  0.9539
  345SOL     OW 1033   2.824   2.169   3.094  0.1131 -0.1263 -0.0149
  345SOL    HW1 1034   2.923   2.196   3.090  0.6709 -1.6812 -1.7917
  345SOL    HW2 1035   2.796   2.163   0.088 -0.0808  0.8489 -1.5463
  346SOL     OW 1036   2.781   1.516   0.651 -0.1562  0.7317  0.2035
  346SOL    HW1 1037   2.748   1.480   0.559 -0.9750  0.8981  0.0019
  346SOL    HW2 1038   2.727   1.599   0.681 -0.5766 -0.2075  0.9017
  347SOL     OW 1039   1.801   2.012   2.002 -0.0156 -0.0691  0.0912
  347SOL    HW1 1040   1.812   2.084   2.069 -2.9240  2.5509  1.3293
  347SOL    HW2 1041   1.891   1.956   1.985  4.3580 -0.3746  0.6955
  348SOL     OW 1042   0.562   1.719   2.715 -0.2862  0.0546  0.1655
  348SOL    HW1 1043   0.608   1.748   2.629  1.3208 -0.0837 -2.3086
  348SOL    HW2 1044   0.628   1.716   2.789 -2.0899  0.1239 -1.8200
  349SOL     OW 1045   2.404   1.268   1.304 -0.0801 -0.0299  0.3657
  349SOL    HW1 1046   2.372   1.345   1.249  0.8851 -0.6859  1.1207
  349SOL    HW2 1047   2.501   1.255   1.290 -2.7449 -0.9046  0.4253
  350SOL     OW 1048   2.918   2.286   1.079  0.2107 -0.3736  0.2970
  350SOL    HW1 1049   2.933   2.216   1.148 -1.4282  1.1620  0.5730
  350SOL    HW2 1050   2.828   2.272   1.034 -1.5602  0.3456 -1.8547
  351SOL     OW 1051   0.607   0.192   2.211  0.1227  0.3110 -0.2816
  351SOL    HW1 1052   0.561   0.266   2.268 -0.8567  2.1214  0.3322
  351SOL    HW2 1053   0.700   0.170   2.250  0.2359 -0.1152  1.9809
  352SOL     OW 1054   0.723   1.685   1.017 -0.1945 -0.4924 -0.0887
  352SOL    HW1 1055   0.654   1.719   1.079  2.2006  1.6999 -0.7345
  352SOL    HW2 1056   0.694   1.591   0.988 -0.5503 -2.6632  2.6626
  353SOL     OW 1057   1.307   1.470   2.262 -0.2595 -0.4309 -0.3366
  353SOL    HW1 1058   1.258   1.555   2.293  1.3433  1.5685 -0.8116
  353SOL    HW2 1059   1.248   1.387   2.279  1.4559  0.8759 -0.2034
  354SOL     OW 1060   1.299   0.194   0.832 -0.1952 -0.0238 -0.4391
  354SOL    HW1 1061   1.302   0.167   0.928  0.0263 -0.2501 -0.7280
  354SOL    HW2 1062   1.239   0.274   0.810  0.2019  0.3759 -2.1683
  355SOL     OW 1063   2.601   1.104   0.543  0.3911 -0.1207  0.1590
  355SOL    HW1 1064   2.590   1.174   0.470 -2.2737  0.1112  0.2545
  355SOL    HW2 1065   2.527   1.035   0.537 -2.2794 -1.0659  0.9870
  356SOL     OW 1066   2.428   1.707   2.237 -0.3554 -0.0986  0.1719
  356SOL    HW1 1067   2.336   1.710   2.279 -0.1132  0.9782 -1.8347
  356SOL    HW2 1068   2.446   1.789   2.174 -0.3175  1.1775 -1.8205
  357SOL     OW 1069   0.579   2.711   1.664  0.6539  0.1521  0.3755
  357SOL    HW1 1070   0.492   2.757   1.644 -2.1413  0.2448 -3.3406
  357SOL    HW2 1071   0.649   2.742   1.599 -2.4203 -2.2699  0.0568
  358SOL     OW 1072   2.332   0.593   1.281 -0.1373  0.0752 -0.0762
  358SOL    HW1 1073   2.404   0.634   1.344 -1.5257 -0.2216 -0.6130
  358SOL    HW2 1074   2.334   0.491   1.278  2.6542  0.3547 -1.5781
  359SOL     OW 1075   2.212   2.755   2.686  0.4229  0.0171 -0.3497
  359SOL    HW1 1076   2.159   2.824   2.634  0.5094  3.1108 -2.0234
  359SOL    HW2 1077   2.169   2.714   2.771 -0.3341  0.9825  0.8351
  360SOL     OW 1078   0.946   0.560   0.810  0.8324  0.1226  0.3537
  360SOL    HW1 1079   0.971   0.630   0.877  0.3500 -0.2576 -0.3659
  360SOL    HW2 1080   1.019   0.488   0.797 -0.8624 -2.3257 -0.0234
  361SOL     OW 1081   2.133   0.115   1.263  0.0445  0.1120  0.5142
  361SOL    HW1 1082   2.200   0.136   1.191 -0.8726 -0.3561  0.6409
  361SOL    HW2 1083   2.040   0.137   1.227 -1.1741 -0.8687 -0.6594
  362SOL     OW 1084   1.401   1.191   0.482 -0.1517 -0.2117 -0.5164
  362SOL    HW1 1085   1.501   1.169   0.491 -4.8731 -1.0251  0.6333
  362SOL    HW2 1086   1.367   1.254   0.559 -0.8977  1.3294  1.4781
  363SOL     OW 1087   2.205   1.544   2.443  0.0109  0.2995 -0.0418
  363SOL    HW1 1088   2.159   1.535   2.535 -0.9031  2.4544  2.4103
  363SOL    HW2 1089   2.191   1.471   2.376  0.8072  2.6124 -1.0476
  364SOL     OW 1090   0.326   0.135   1.316 -0.3776 -0.0777 -0.3093
  364SOL    HW1 1091   0.367   0.216   1.365 -0.6332  0.0946  1.2528
  364SOL    HW2 1092   0.229   0.122   1.326  2.6085 -0.0742 -2.9900
  365SOL     OW 1093   0.234   2.757   0.256 -0.1408  0.2678 -0.0356
  365SOL    HW1 1094   0.203   2.671   0.212 -2.4287 -1.7721 -3.1887
  365SOL    HW2 1095   0.250   2.748   0.357 -1.1870  0.8897  1.5140
  366SOL     OW 1096   2.330   1.918   0.035 -0.3589  0.2813 -0.2914
  366SOL    HW1 1097   2.388   1.986   0.081  0.6594  0.3267  1.6525
  366SOL    HW2 1098   2.238   1.958   0.012 -1.3316  1.3235 -1.3378
  367SOL     OW 1099   2.566   2.477   2.799 -0.0370 -0.0706  0.0476
  367SOL    HW1 1100   2.609   2.566   2.787 -0.3643 -1.3430  0.0144
  367SOL    HW2 1101   2.631   2.405   2.823  1.1295  0.0234 -2.2584
  368SOL     OW 1102   0.324   1.821   0.940  0.1107  0.0816 -0.3964
  368SOL    HW1 1103   0.300   1.826   1.042  2.0159  0.5699  1.9139
  368SOL    HW2 1104   0.424   1.822   0.919 -0.8460 -1.8917 -0.4560
  369SOL     OW 1105   0.871   2.645   2.916  0.3769  0.6893 -0.1757
  369SOL    HW1 1106   0.887   2.701   2.833 -1.2977  3.2756 -1.2103
  369SOL    HW2 1107   0.961   2.614   2.961  1.0438 -0.8318 -0.1009
  370SOL     OW 1108   0.048   1.034   0.511 -0.3877  0.2802  0.6059
  370SOL    HW1 1109   3.089   1.091   0.563 -0.8939 -3.0123 -1.7850
  370SOL    HW2 1110   0.095   0.966   0.564 -0.2892  0.2656 -3.3067
  371SOL     OW 1111   1.992   2.709   0.912 -0.4943  0.1959  0.0596
  371SOL    HW1 1112   1.940   2.790   0.874  1.7947  0.3518  1.7927
  371SOL    HW2 1113   1.977   2.628   0.856 -1.4256  2.2047 -0.2072
  372SOL     OW 1114   0.203   0.959   2.721  0.1464 -0.0799  0.5030
  372SOL    HW1 1115   0.274   1.026   2.740 -3.6515 -2.2169 -1.4387
  372SOL    HW2 1116   0.212   0.873   2.778 -0.8446  1.0962 -0.4624
  373SOL     OW 1117   3.025   1.815   0.649 -0.7634  0.7048  0.3967
  373SOL    HW1 1118   3.084   1.753   0.707 -0.0372 -0.5084  0.6342
  373SOL    HW2 1119   3.074   1.905   0.641  1.9271  0.7756 -0.5971
  374SOL     OW 1120   0.022   2.379   0.414  0.2976 -0.1460 -0.3596
  374SOL    HW1 1121   3.040   2.369   0.480  0.2255  1.9424  1.5350
  374SOL    HW2 1122   0.094   2.415   0.475  1.7055 -0.6796  0.0314
  375SOL     OW 1123   0.445   0.482   0.255 -0.2359  0.2964  0.4660
  375SOL    HW1 1124   0.505   0.543   0.312 -2.3333 -2.2844 -1.2573
  375SOL    HW2 1125   0.442   0.389   0.291  2.0692  2.1766  0.9849
  376SOL     OW 1126   0.520   2.254   2.184  0.0034  0.1370 -0.7066
  376SOL    HW1 1127   0.476   2.298   2.107 -1.5949 -0.1484  1.5347
  376SOL    HW2 1128   0.561   2.329   2.237  0.0855  0.9701 -1.3050
  377SOL     OW 1129   1.724   2.476   2.683  0.2182 -0.1299  1.1154
  377SOL    HW1 1130   1.659   2.410   2.716  2.4774  0.4873  0.6198
  377SOL    HW2 1131   1.822   2.444   2.673 -2.9627 -0.7150  1.9797
  378SOL     OW 1132   0.941   0.928   0.470 -0.2190  0.2522  0.0703
  378SOL    HW1 1133   1.030   0.963   0.504  1.4227 -2.1000  0.5599
  378SOL    HW2 1134   0.942   0.823   0.476  1.3278 -1.7154 -0.3296
  379SOL     OW 1135   0.689   1.796   0.403 -0.5588 -0.1795 -0.1339
  379SOL    HW1 1136   0.664   1.810   0.501 -3.7285 -1.0484 -0.7264
  379SOL    HW2 1137   0.767   1.727   0.395 -3.1917  2.7069  2.1803
  380SOL     OW 1138   0.246   2.080   1.386  0.3461 -0.0932  0.3894
  380SOL    HW1 1139   0.176   2.122   1.325  0.4911  2.3827 -1.6948
  380SOL    HW2 1140   0.288   2.152   1.449  0.0971  0.3944  2.8722
  381SOL     OW 1141   0.518   1.235   1.609  0.0766 -0.5865 -0.2378
  381SOL    HW1 1142   0.570   1.208   1.693  0.3161 -1.0032 -0.8369
  381SOL    HW2 1143   0.450   1.306   1.634 -0.3732 -2.4122 -0.4104
  382SOL     OW 1144   2.347   1.990   0.438  0.4107  0.5021 -0.4217
  382SOL    HW1 1145   2.357   2.044   0.522 -1.3549 -1.8751  0.4259
  382SOL    HW2 1146   2.387   2.032   0.355 -1.0713  2.9313  3.8463
  383SOL     OW 1147   2.928   1.947   2.251 -0.0628 -0.0019  0.5515
  383SOL    HW1 1148   2.967   1.961   2.158 -1.8738 -1.8372  2.2840
  383SOL    HW2 1149   2.843   2.001   2.258 -0.6080 -0.2419  0.9200
  384SOL     OW 1150   0.037   2.263   2.142  0.2059  0.5235  0.0714
  384SOL    HW1 1151   0.116   2.282   2.204 -1.7669 -1.5079 -0.2291
  384SOL    HW2 1152   0.020   2.162   2.129 -3.2527 -0.7665  1.5790
  385SOL     OW 1153   2.953   2.100   0.784 -0.1780  0.1028  0.0963
  385SOL    HW1 1154   2.978   2.012   0.828  1.6258 -0.9763  1.0811
  385SOL    HW2 1155   2.859   2.120   0.812  2.7029 -1.2366  1.1443
  386SOL     OW 1156   1.737   0.690   0.724 -0.5688 -1.1880  0.1094
  386SOL    HW1 1157   1.691   0.784   0.731 -1.0112  2.0577  0.5552
  386SOL    HW2 1158   1.659   0.623   0.709 -1.8719  0.2895 -0.5480
  387SOL     OW 1159   0.493   0.657   2.000 -0.1457  0.0891  0.2434
  387SOL    HW1 1160   0.443   0.746   2.017  0.9713 -0.7147  2.7192
  387SOL    HW2 1161   0.589   0.683   1.965  1.3049 -0.5059  0.0066
  388SOL     OW 1162   2.262   0.926   2.424 -0.4721  0.1397  0.0507
  388SOL    HW1 1163   2.240   1.014   2.467 -0.3630 -1.2048 -0.0748
  388SOL    HW2 1164   2.178   0.887   2.391  1.4520  0.7518 -0.7736
  389SOL     OW 1165   1.942   1.175   1.961 -0.3736 -0.1075  0.5491
  389SOL    HW1 1166   1.986   1.219   1.877 -1.3197  3.4198 -0.3845
  389SOL    HW2 1167   2.007   1.106   2.001  2.0340 -1.6353 -1.5046
  390SOL     OW 1168   1.760   2.755   0.199 -0.7573  0.6311 -0.1653
  390SOL    HW1 1169   1.692   2.748   0.275 -0.8968 -0.7885 -2.6579
  390SOL    HW2 1170   1.735   2.677   0.131  0.9333 -3.0815 -1.3755
  391SOL     OW 1171   2.304   2.406   1.178  0.0602  0.4452  0.7112
  391SOL    HW1 1172   2.226   2.368   1.123 -1.0058  0.4081 -0.0447
  391SOL    HW2 1173   2.316   2.353   1.268 -4.6010  0.0203 -0.1432
  392SOL     OW 1174   3.044   2.545   1.059  0.0338  0.3482 -0.1522
  392SOL    HW1 1175   2.980   2.465   1.038 -3.7177 -1.0715 -0.0398
  392SOL    HW2 1176   0.039   2.516   1.075  1.1263  3.0407  0.1413
  393SOL     OW 1177   2.148   1.587   3.058  0.0313 -0.4992 -0.2659
  393SOL    HW1 1178   2.095   1.519   0.013 -2.0704  1.1389  2.1215
  393SOL    HW2 1179   2.082   1.628   2.996  1.2598 -1.3115 -0.7274
  394SOL     OW 1180   3.096   0.196   3.029  0.6429  0.5585  0.7249
  394SOL    HW1 1181   0.025   0.264   3.092 -2.7681 -1.4863 -0.9464
  394SOL    HW2 1182   3.060   0.240   2.943 -1.8280 -0.7725 -4.3006
  395SOL     OW 1183   0.989   1.051   1.080  0.6644  0.2315  0.0600
  395SOL    HW1 1184   1.012   1.054   0.981  1.8414 -1.6186  0.2185
  395SOL    HW2 1185   0.918   0.973   1.102 -0.7559 -1.0638  1.9398
  396SOL     OW 1186   1.402   0.646   2.995  0.2289 -0.0896 -0.2072
  396SOL    HW1 1187   1.388   0.595   2.908 -1.1963  0.2638  1.9354
  396SOL    HW2 1188   1.352   0.732   2.999  0.9430 -2.0910  0.9758
  397SOL     OW 1189   0.168   0.500   2.679 -0.2408  0.4942 -0.6088
  397SOL    HW1 1190   0.077   0.541   2.647 -1.3071  1.5424  0.2211
  397SOL    HW2 1191   0.155   0.404   2.719 -3.8477 -3.2331 -0.4752
  398SOL     OW 1192   0.841   0.092   0.283  0.0505  0.1793 -0.6343
  398SOL    HW1 1193   0.853   0.177   0.329  0.8582 -1.9378 -0.4821
  398SOL    HW2 1194   0.797   0.102   0.196  0.0030  2.3559  0.3638
  399SOL     OW 1195   2.394   2.935   1.730  0.1442 -0.4646 -0.1516
  399SOL    HW1 1196   2.377   2.835   1.710 -0.3793  1.0064  0.7745
  399SOL    HW2 1197   2.425   2.987   1.651 -2.6334 -0.5554 -0.0461
  400SOL     OW 1198   0.500   1.796   2.386 -0.2166 -0.1873 -0.1221
  400SOL    HW1 1199   0.578   1.830   2.444  0.0806 -2.1878  1.1933
  400SOL    HW2 1200   0.491   1.845   2.298  1.8734 -0.4390 -1.5274
  401SOL     OW 1201   1.060   0.355   2.624 -0.2904 -0.3178  0.1193
  401SOL    HW1 1202   1.058   0.262   2.663  0.4607 -1.6282  1.6076
  401SOL    HW2 1203   0.987   0.417   2.667 -2.0832 -0.2289  2.9311
  402SOL     OW 1204   3.004   2.107   1.507  0.3204  0.2911  0.2412
  402SOL    HW1 1205   3.014   2.004   1.517 -1.1200 -0.2154 -0.0711
  402SOL    HW2 1206   3.073   2.158   1.565  0.0985 -1.0652 -0.3026
  403SOL     OW 1207   0.775   0.995   1.881 -0.5092 -0.3934  0.5131
  403SOL    HW1 1208   0.847   1.039   1.942  3.2952  1.2244  2.1113
  403SOL    HW2 1209   0.689   1.051   1.878 -0.9187  0.2431 -2.9873
  404SOL     OW 1210   3.010   2.483   1.544 -0.4330  0.5002 -0.2305
  404SOL    HW1 1211   2.998   2.509   1.643 -0.7180 -0.2437  0.8039
  404SOL    HW2 1212   2.940   2.412   1.524  1.1170 -0.4098 -1.5484
  405SOL     OW 1213   0.515   0.474   1.797 -0.1345  0.4906  0.3149
  405SOL    HW1 1214   0.506   0.537   1.882 -0.8992  1.2277  2.1134
  405SOL    HW2 1215   0.504   0.380   1.831 -0.8803  1.3304 -3.0979
  406SOL     OW 1216   1.887   2.300   3.088 -0.5093 -0.4932 -0.1899
  406SOL    HW1 1217   1.949   2.288   0.071  1.8352  1.8919 -3.1662
  406SOL    HW2 1218   1.951   2.310   3.006  1.6862 -0.5097 -0.3480
  407SOL     OW 1219   1.745   0.898   1.920 -0.4812  0.3950 -0.0625
  407SOL    HW1 1220   1.669   0.861   1.867  2.8836  0.6118 -0.8893
  407SOL    HW2 1221   1.718   0.985   1.970 -0.9463 -0.1253 -1.0101
  408SOL     OW 1222   0.780   0.085   2.822  0.1636  0.5006 -0.6556
  408SOL    HW1 1223   0.726   0.005   2.800  1.7370 -0.0020  1.3222
  408SOL    HW2 1224   0.869   0.083   2.772 -1.2696 -1.8457 -3.6456
  409SOL     OW 1225   2.929   2.285   0.593  0.3431 -0.3716 -0.0602
  409SOL    HW1 1226   2.835   2.258   0.564 -0.0315  0.8953 -0.9193
  409SOL    HW2 1227   2.966   2.211   0.653 -0.8075  1.9694 -1.2399
  410SOL     OW 1228   2.699   1.531   0.368  0.1160  0.1017  0.4818
  410SOL    HW1 1229   2.696   1.631   0.352  0.8025  1.3872 -1.1107
  410SOL    HW2 1230   2.796   1.497   0.353 -1.4685 -0.6858 -3.2635
  411SOL     OW 1231   0.010   0.733   0.923  0.4964 -0.3055  0.3972
  411SOL    HW1 1232   0.012   0.712   0.824 -2.8391  0.2657 -0.2548
  411SOL    HW2 1233   0.030   0.651   0.976 -1.3470  0.5447 -0.8450
  412SOL     OW 1234   1.253   0.866   0.920 -0.4050 -0.1468 -0.3322
  412SOL    HW1 1235   1.205   0.935   0.859 -0.2918 -2.7028 -0.6541
  412SOL    HW2 1236   1.318   0.901   0.993  1.7392 -1.3380  0.3596
  413SOL     OW 1237   0.935   0.206   0.950 -0.0486  0.6588 -0.8763
  413SOL    HW1 1238   0.937   0.102   0.948  2.5540 -4.0408 -1.5056
  413SOL    HW2 1239   1.024   0.242   0.998  0.9054 -1.5737  0.2554
  414SOL     OW 1240   3.075   1.688   2.840  0.4980 -0.1619 -0.2888
  414SOL    HW1 1241   3.023   1.732   2.766 -1.5163 -1.2606  1.4252
  414SOL    HW2 1242   0.064   1.736   2.849  0.1248  0.4405  2.5363
  415SOL     OW 1243   0.466   2.451   2.939 -0.1423 -0.4312  0.0895
  415SOL    HW1 1244   0.562   2.420   2.941 -0.2051  1.5317  1.4593
  415SOL    HW2 1245   0.413   2.409   2.863  2.0746  0.4439 -2.2019
  416SOL     OW 1246   1.353   0.747   0.539 -0.5791  0.3223 -0.1402
  416SOL    HW1 1247   1.312   0.682   0.471 -0.8480 -1.9803  0.3947
  416SOL    HW2 1248   1.354   0.696   0.628  2.8742  2.1943  2.0595
  417SOL     OW 1249   0.209   1.082   0.284  0.1838  0.3448  0.1653
  417SOL    HW1 1250   0.155   1.117   0.211 -0.3428 -0.9334  0.8943
  417SOL    HW2 1251   0.155   1.089   0.369 -0.4227  2.1127 -1.2760
  418SOL     OW 1252   2.595   1.232   2.366  0.4422  0.3809 -0.0870
  418SOL    HW1 1253   2.560   1.313   2.316  0.6539  0.4221  3.1233
  418SOL    HW2 1254   2.686   1.247   2.417 -1.1102 -0.5133 -0.1068
  419SOL     OW 1255   0.264   0.390   2.952  0.4604  0.2641 -0.7075
  419SOL    HW1 1256   0.187   0.430   3.010  0.4049  0.6154  1.8182
  419SOL    HW2 1257   0.227   0.315   2.893  0.9711 -0.1554  0.4432
  420SOL     OW 1258   0.654   1.434   0.968  0.4871  0.2842  0.2046
  420SOL    HW1 1259   0.636   1.343   1.013  0.2396 -4.3502  1.1621
  420SOL    HW2 1260   0.588   1.445   0.889 -0.3610  2.4103 -1.0892
  421SOL     OW 1261   0.613   2.256   0.863 -1.1984 -0.4250  0.0307
  421SOL    HW1 1262   0.705   2.286   0.828 -0.9016  0.7305  0.4738
  421SOL    HW2 1263   0.554   2.226   0.788  0.8082 -0.4858  3.7272
  422SOL     OW 1264   3.008   0.867   1.504  0.4760 -0.4829  0.5025
  422SOL    HW1 1265   3.098   0.890   1.466 -2.1561  1.4409  1.9018
  422SOL    HW2 1266   2.993   0.768   1.514 -0.4758  0.6046 -1.8312
  423SOL     OW 1267   1.463   1.545   1.549 -0.1703  0.4599  0.4313
  423SOL    HW1 1268   1.552   1.527   1.493  1.1279 -1.1021 -2.1869
  423SOL    HW2 1269   1.450   1.473   1.619  0.3253 -1.3031 -2.5051
  424SOL     OW 1270   1.860   1.059   0.224 -0.0170 -0.2366  0.1055
  424SOL    HW1 1271   1.773   1.106   0.199 -1.1740  4.4671  2.5319
  424SOL    HW2 1272   1.911   1.059   0.135  1.5483  0.9244  0.8013
  425SOL     OW 1273   0.201   0.481   1.887  0.0636 -0.3313  0.2455
  425SOL    HW1 1274   0.139   0.552   1.922 -2.4830 -3.3003  0.1421
  425SOL    HW2 1275   0.182   0.457   1.791  1.0450 -0.2212  2.8076
  426SOL     OW 1276   2.482   2.797   2.615  0.8121 -0.4520 -0.1259
  426SOL    HW1 1277   2.384   2.809   2.627  0.7497 -1.8495  0.9998
  426SOL    HW2 1278   2.516   2.827   2.522 -0.2108 -0.2059 -0.6114
  427SOL     OW 1279   1.132   0.855   2.294 -0.0767  0.3451 -0.2229
  427SOL    HW1 1280   1.147   0.794   2.211 -1.0462 -1.7033  1.3998
  427SOL    HW2 1281   1.090   0.942   2.268  0.6180 -2.3543  0.3030
  428SOL     OW 1282   2.119   0.988   2.080  0.2836 -0.0993  0.2783
  428SOL    HW1 1283   2.075   0.908   2.034 -0.0338  1.6249  1.0033
  428SOL    HW2 1284   2.102   0.973   2.177 -1.8840 -1.5639 -0.2809
  429SOL     OW 1285   2.842   2.917   0.512  0.0339 -0.1241  0.4405
  429SOL    HW1 1286   2.869   2.903   0.607 -1.4949  0.9418  1.7015
  429SOL    HW2 1287   2.922   2.955   0.453  0.4226  0.2758 -2.8608
  430SOL     OW 1288   1.956   1.367   2.260  0.0910  0.0697 -0.3920
  430SOL    HW1 1289   2.054   1.340   2.284  1.4021 -2.1583  0.3034
  430SOL    HW2 1290   1.938   1.344   2.163  2.3884 -1.4147  2.0972
  431SOL     OW 1291   0.212   1.836   1.185 -0.2074 -0.1162 -0.3669
  431SOL    HW1 1292   0.279   1.881   1.250  1.8664  0.3352  0.2785
  431SOL    HW2 1293   0.116   1.839   1.223 -2.9502  1.7250  1.6772
  432SOL     OW 1294   1.571   0.001   2.216 -0.5826 -0.5264  0.2249
  432SOL    HW1 1295   1.513   3.020   2.204 -0.3158 -0.6097 -0.3987
  432SOL    HW2 1296   1.649   0.004   2.146 -0.8694 -0.3476 -2.0462
  433SOL     OW 1297   1.518   3.087   1.805  0.1813 -0.4102  0.0175
  433SOL    HW1 1298   1.484   0.018   1.719  0.3708 -1.1998  1.5805
  433SOL    HW2 1299   1.550   0.061   1.862  0.7576 -0.4595 -2.1563
  434SOL     OW 1300   0.480   2.618   2.304  0.1425 -0.2596  0.1626
  434SOL    HW1 1301   0.384   2.650   2.297 -1.2319 -1.5269  0.2389
  434SOL    HW2 1302   0.492   2.538   2.361 -0.2179  0.0678 -0.0924
  435SOL     OW 1303   0.394   2.226   0.227 -0.0540 -0.3253 -0.0568
  435SOL    HW1 1304   0.374   2.316   0.187  0.0190 -1.6429  1.8145
  435SOL    HW2 1305   0.347   2.146   0.177  1.5236 -0.1742 -3.4659
  436SOL     OW 1306   0.737   0.716   1.920 -0.1123 -0.6058 -0.1393
  436SOL    HW1 1307   0.814   0.668   1.880 -2.2127  3.6286  1.6099
  436SOL    HW2 1308   0.753   0.817   1.918  0.2136  0.0185 -0.6026
  437SOL     OW 1309   0.578   3.027   2.212 -0.5095  0.5163  0.2112
  437SOL    HW1 1310   0.573   0.026   2.186 -2.6526  0.1263 -0.0519
  437SOL    HW2 1311   0.619   3.015   2.307 -2.4042 -0.0553 -0.0228
  438SOL     OW 1312   0.613   1.716   1.600  0.2074  0.6071 -0.2040
  438SOL    HW1 1313   0.549   1.771   1.654 -0.1500  1.3428 -0.5173
  438SOL    HW2 1314   0.645   1.629   1.648 -1.9456  2.9325 -0.6803
  439SOL     OW 1315   1.899   0.772   3.101 -0.2169  0.3498  0.0055
  439SOL    HW1 1316   1.913   0.866   3.057  0.4749  1.9785 -0.0343
  439SOL    HW2 1317   1.801   0.750   0.021  0.9038 -1.2687 -0.3423
  440SOL     OW 1318   0.588   0.323   0.459 -0.8501  0.0942 -0.4322
  440SOL    HW1 1319   0.520   0.336   0.533  1.0955 -0.6590  1.8563
  440SOL    HW2 1320   0.549   0.256   0.395  2.4501 -0.4869  2.7371
  441SOL     OW 1321   0.993   2.413   1.453 -0.2046 -0.7425  0.0614
  441SOL    HW1 1322   1.017   2.474   1.531  1.5959  1.9633  0.8302
  441SOL    HW2 1323   0.923   2.343   1.476  0.3789 -0.6470  1.9093
  442SOL     OW 1324   0.026   1.519   0.394 -0.7599  0.0895 -0.0623
  442SOL    HW1 1325   3.065   1.439   0.390  1.4244  1.5704  1.5697
  442SOL    HW2 1326   3.069   1.600   0.384  1.6142 -1.5540  1.8119
  443SOL     OW 1327   2.674   1.931   2.576  0.0928 -0.9828  0.0528
  443SOL    HW1 1328   2.695   1.992   2.499  4.4166 -3.4674  0.2119
  443SOL    HW2 1329   2.588   1.880   2.562 -1.4422  0.0999 -0.7653
  444SOL     OW 1330   1.421   1.065   0.198 -0.1096  0.4048  0.0669
  444SOL    HW1 1331   1.504   1.119   0.176  0.4100  2.1055 -0.7750
  444SOL    HW2 1332   1.338   1.121   0.221  0.3264 -0.0367 -0.3637
  445SOL     OW 1333   2.695   2.806   2.038  0.4523  0.0868  0.2816
  445SOL    HW1 1334   2.758   2.872   1.995 -1.1628 -2.3039 -0.4771
  445SOL    HW2 1335   2.602   2.837   2.055  2.7971  0.7098  0.0318
  446SOL     OW 1336   3.029   1.393   0.729 -0.1393 -0.8226 -0.4132
  446SOL    HW1 1337   3.022   1.290   0.728 -2.1360 -0.7807  1.9040
  446SOL    HW2 1338   2.962   1.445   0.674 -0.2887 -2.1944  3.1983
  447SOL     OW 1339   1.081   1.843   1.094  0.1015 -0.6172  0.1130
  447SOL    HW1 1340   1.036   1.782   1.166 -2.0630  0.0131  1.8556
  447SOL    HW2 1341   1.034   1.927   1.097  2.9683 -2.0735  0.1702
  448SOL     OW 1342   1.599   1.785   1.701 -0.3513 -0.8793 -0.2268
  448SOL    HW1 1343   1.652   1.710   1.746  0.2423 -1.1526 -0.5598
  448SOL    HW2 1344   1.509   1.752   1.666 -2.5595  1.0668 -0.3511
  449SOL     OW 1345   2.767   2.582   2.409  0.2264  0.1156  0.5309
  449SOL    HW1 1346   2.665   2.585   2.407  0.8665 -0.4896  0.9911
  449SOL    HW2 1347   2.801   2.535   2.493 -2.4548 -0.7313 -0.5124
  450SOL     OW 1348   3.076   1.785   1.970 -0.1203  0.9233  0.7597
  450SOL    HW1 1349   3.023   1.802   1.887  0.1074  0.7008  1.5288
  450SOL    HW2 1350   0.040   1.703   1.961  1.3041 -2.0009 -0.3508
  451SOL     OW 1351   2.193   0.891   1.256  0.6472 -0.6509  0.2405
  451SOL    HW1 1352   2.276   0.936   1.215 -0.1484  0.3763 -1.6757
  451SOL    HW2 1353   2.208   0.795   1.283 -0.4220  0.0192  0.7257
  452SOL     OW 1354   0.732   1.090   0.752  0.0121  0.0449 -0.6714
  452SOL    HW1 1355   0.632   1.095   0.733  1.5309 -1.5417  2.7224
  452SOL    HW2 1356   0.750   0.993   0.765 -0.6958  0.5704  0.8322
  453SOL     OW 1357   1.412   2.067   0.565  0.1811  0.5710  0.2266
  453SOL    HW1 1358   1.433   2.106   0.657 -2.1806  1.6600 -0.6826
  453SOL    HW2 1359   1.501   2.057   0.517  0.8491  0.2607  1.8617
  454SOL     OW 1360   0.410   1.847   0.009  0.0232 -0.1292 -0.3044
  454SOL    HW1 1361   0.507   1.858   0.043  0.6160  1.4522 -0.3364
  454SOL    HW2 1362   0.355   1.795   0.079 -1.1110  0.7723 -0.0068
  455SOL     OW 1363   1.210   1.201   0.309  0.2026 -0.8360 -0.1835
  455SOL    HW1 1364   1.131   1.259   0.339 -1.7503 -1.7697 -1.0497
  455SOL    HW2 1365   1.281   1.192   0.386 -1.3211 -0.8390  2.7343
  456SOL     OW 1366   2.272   2.623   0.945 -0.4074  0.1166 -0.0229
  456SOL    HW1 1367   2.304   2.554   0.878  3.1140  0.6041  1.7646
  456SOL    HW2 1368   2.174   2.644   0.922 -2.3973  0.5028 -2.0828
  457SOL     OW 1369   1.574   2.845   3.087 -0.5048  0.3353  0.3373
  457SOL    HW1 1370   1.669   2.869   0.019  1.4969  2.1150  1.5228
  457SOL    HW2 1371   1.579   2.784   3.005 -0.2840 -0.2003 -0.3186
  458SOL     OW 1372   2.396   0.900   0.621  0.3693  0.0423 -0.2062
  458SOL    HW1 1373   2.383   0.803   0.654  0.3474 -1.5163  2.7687
  458SOL    HW2 1374   2.301   0.937   0.612  0.3869 -0.3522  2.8166
  459SOL     OW 1375   2.573   0.429   2.518 -0.4001  0.4562  0.4762
  459SOL    HW1 1376   2.520   0.479   2.445  1.1647 -0.3943  1.8449
  459SOL    HW2 1377   2.585   0.494   2.593 -3.8644  1.7253 -0.5553
  460SOL     OW 1378   2.573   0.614   2.699 -0.5810  0.1796 -0.3885
  460SOL    HW1 1379   2.656   0.677   2.718  1.8014 -0.8708  0.1366
  460SOL    HW2 1380   2.487   0.668   2.699  1.3625  1.0461  0.1423
  461SOL     OW 1381   0.087   2.215   0.872  0.2448  0.1802 -0.0485
  461SOL    HW1 1382   0.098   2.213   0.973  0.1884  0.0142 -2.1276
  461SOL    HW2 1383   0.000   2.171   0.838 -0.1740 -0.1008 -0.8207
  462SOL     OW 1384   0.000   2.786   1.763  0.2016 -0.3311  0.1374
  462SOL    HW1 1385   0.027   2.883   1.758  1.6447 -0.2302  0.3106
  462SOL    HW2 1386   0.044   2.734   1.687  1.0794 -2.3290  1.1948
  463SOL     OW 1387   2.236   1.812   2.427 -0.7711 -0.1856 -0.0538
  463SOL    HW1 1388   2.219   1.710   2.448 -1.5783 -1.6355  0.5299
  463SOL    HW2 1389   2.149   1.858   2.413  0.3937 -2.0373  1.3985
  464SOL     OW 1390   0.794   2.797   1.513  0.1382  0.0369 -0.2483
  464SOL    HW1 1391   0.863   2.752   1.569  0.4287  2.7990 -1.4254
  464SOL    HW2 1392   0.791   2.898   1.531 -2.4078 -1.9746  0.6290
  465SOL     OW 1393   0.815   3.082   1.524  0.7604  0.0689 -0.3851
  465SOL    HW1 1394   0.786   0.005   1.428 -1.4664  1.5701 -0.7736
  465SOL    HW2 1395   0.782   0.051   1.594  0.1819  0.5302 -0.1999
  466SOL     OW 1396   1.638   2.732   1.829 -0.0082 -0.4625 -0.4741
  466SOL    HW1 1397   1.682   2.659   1.883 -1.7186 -0.3480  1.0629
  466SOL    HW2 1398   1.549   2.756   1.871  3.1814 -1.0175 -1.4108
  467SOL     OW 1399   0.715   2.026   1.367 -0.2480 -0.2955 -0.0355
  467SOL    HW1 1400   0.765   1.943   1.399  3.1516 -0.6480  1.3918
  467SOL    HW2 1401   0.628   1.994   1.323 -0.9850 -0.3088  1.5937
  468SOL     OW 1402   2.638   1.598   2.373  0.1147 -0.1685  0.4675
  468SOL    HW1 1403   2.568   1.629   2.304  1.2739  2.4414  1.3807
  468SOL    HW2 1404   2.732   1.591   2.332  0.8656  1.5292 -1.4961
  469SOL     OW 1405   0.899   2.038   0.770  0.1269 -0.3687 -0.4095
  469SOL    HW1 1406   0.898   1.949   0.724  0.9197  0.4509  1.2588
  469SOL    HW2 1407   0.873   2.030   0.871 -0.4330  1.1327  2.2308
  470SOL     OW 1408   2.223   1.122   1.690 -0.4745  0.2955  0.2267
  470SOL    HW1 1409   2.163   1.192   1.720  1.6169 -2.2331 -2.5904
  470SOL    HW2 1410   2.228   1.122   1.588 -0.3550  1.8175  0.7444
  471SOL     OW 1411   0.382   2.472   0.102 -0.0568  0.1640  0.2261
  471SOL    HW1 1412   0.470   2.501   0.149  1.0689  2.8282 -0.9347
  471SOL    HW2 1413   0.410   2.474   0.004  0.4531  2.0724  1.9348
  472SOL     OW 1414   2.901   2.032   1.978 -0.1275  0.2452  0.5593
  472SOL    HW1 1415   2.867   1.957   1.915  1.1131 -0.2021 -0.6460
  472SOL    HW2 1416   2.846   2.117   1.967  1.7172  0.2392 -0.8128
  473SOL     OW 1417   1.093   3.098   0.250  0.3633 -0.1542 -0.2928
  473SOL    HW1 1418   1.129   3.017   0.208 -2.3923  0.0242  1.4767
  473SOL    HW2 1419   0.992   3.095   0.246 -2.2515 -1.1710  0.1257
  474SOL     OW 1420   2.635   2.540   0.859  0.6776  0.2597 -0.2498
  474SOL    HW1 1421   2.603   2.629   0.898 -0.6596  0.1942  1.1347
  474SOL    HW2 1422   2.699   2.552   0.781  1.5349  2.2419  2.6599
  475SOL     OW 1423   2.036   2.835   1.620  0.1527 -0.0885  0.0668
  475SOL    HW1 1424   2.083   2.909   1.568  0.5269  2.3384 -2.0779
  475SOL    HW2 1425   1.953   2.868   1.672 -1.1765 -0.5256 -2.0290
  476SOL     OW 1426   0.821   0.823   0.773 -0.5035  0.3743 -0.1600
  476SOL    HW1 1427   0.797   0.769   0.688  1.7250  3.2040  0.7773
  476SOL    HW2 1428   0.751   0.819   0.852 -3.1523 -0.8353  0.7246
  477SOL     OW 1429   0.570   1.933   0.857 -0.4390  0.5331  0.5966
  477SOL    HW1 1430   0.647   1.957   0.924  1.9554 -1.5700  0.5178
  477SOL    HW2 1431   0.545   2.011   0.792 -2.9130 -4.7271 -0.6396
  478SOL     OW 1432   0.039   2.645   2.167 -0.1066 -0.1042 -0.3233
  478SOL    HW1 1433   3.038   2.649   2.170  0.2921  0.6408 -0.0684
  478SOL    HW2 1434   0.084   2.734   2.144  0.6282 -1.5211  0.3250
  479SOL     OW 1435   0.370   0.583   1.591 -0.0064 -0.4576  0.0121
  479SOL    HW1 1436   0.268   0.579   1.609 -3.2102  1.3789 -0.1578
  479SOL    HW2 1437   0.427   0.537   1.663 -1.2267  1.3293  0.8499
  480SOL     OW 1438   2.790   2.465   0.110 -0.0171 -0.1998 -0.8943
  480SOL    HW1 1439   2.805   2.445   0.014 -0.6480 -0.0004  3.6257
  480SOL    HW2 1440   2.782   2.377   0.162  0.3335 -0.6787  0.6031
  481SOL     OW 1441   2.037   1.859   2.034  0.2598  0.2036  0.1949
  481SOL    HW1 1442   2.029   1.754   2.035 -1.5524  1.0456  1.8383
  481SOL    HW2 1443   2.130   1.890   2.010  0.0296 -3.1888 -1.2607
  482SOL     OW 1444   1.618   2.293   3.034 -0.1400 -0.0159 -0.3622
  482SOL    HW1 1445   1.582   2.214   3.086  2.7887  4.0410 -0.7576
  482SOL    HW2 1446   1.710   2.316   3.071 -0.7650  0.2187  1.3730
  483SOL     OW 1447   0.507   1.988   2.180  0.6490  0.0711 -0.0341
  483SOL    HW1 1448   0.599   1.945   2.175 -1.5500  0.3720  1.0935
  483SOL    HW2 1449   0.519   2.089   2.180  1.8266 -2.9873 -0.1028
  484SOL     OW 1450   2.964   0.517   1.263 -0.2118 -0.0386 -0.8091
  484SOL    HW1 1451   3.029   0.509   1.184  2.3653 -1.7231 -1.0700
  484SOL    HW2 1452   2.873   0.557   1.233  0.4257 -1.3948 -2.7179
  485SOL     OW 1453   2.093   1.041   0.831 -0.3241 -0.2078  0.1195
  485SOL    HW1 1454   2.124   1.044   0.735 -3.2115 -0.7842  0.0826
  485SOL    HW2 1455   2.036   1.123   0.851  2.5637  3.4765 -1.8498
  486SOL     OW 1456   1.625   0.356   2.219  0.8735  0.6687 -0.1615
  486SOL    HW1 1457   1.591   0.449   2.242  0.2077 -0.2310  2.6660
  486SOL    HW2 1458   1.573   0.284   2.276 -1.9580 -1.8655  2.1714
  487SOL     OW 1459   0.902   1.399   1.039 -0.4202  0.2572  0.4413
  487SOL    HW1 1460   0.804   1.431   1.008 -4.5717  0.4416 -3.6558
  487SOL    HW2 1461   0.937   1.340   0.960  0.3347 -0.2195  2.4891
  488SOL     OW 1462   2.343   1.276   2.899 -0.5240 -0.0494 -0.6746
  488SOL    HW1 1463   2.372   1.266   2.802 -0.3434  0.8743 -1.6850
  488SOL    HW2 1464   2.377   1.364   2.936  1.0625 -0.1158 -1.6933
  489SOL     OW 1465   2.314   0.178   0.503  0.2328  0.2738  0.1797
  489SOL    HW1 1466   2.412   0.152   0.523 -0.8423  0.4911  1.4506
  489SOL    HW2 1467   2.259   0.189   0.591  1.8185 -0.6713 -0.4635
  490SOL     OW 1468   1.432   2.413   0.244  0.2654  0.2952  0.2403
  490SOL    HW1 1469   1.524   2.382   0.281 -0.7649  2.0831  1.7601
  490SOL    HW2 1470   1.436   2.513   0.222  1.2040 -0.0553 -2.7960
  491SOL     OW 1471   1.062   0.997   0.785  0.2756 -0.3532  0.6295
  491SOL    HW1 1472   0.989   0.919   0.770 -1.5698  0.3876 -2.0367
  491SOL    HW2 1473   1.119   1.012   0.705  2.4822  1.1155  3.0982
  492SOL     OW 1474   1.506   0.200   2.960  0.2451 -0.4462 -0.4703
  492SOL    HW1 1475   1.540   0.110   2.927 -1.6127  4.7078 -0.0799
  492SOL    HW2 1476   1.546   0.281   2.916  0.8520 -2.0169  3.2285
  493SOL     OW 1477   2.034   2.032   0.234 -0.4376 -0.4543  0.2270
  493SOL    HW1 1478   2.059   2.121   0.189  0.6422  0.9664  1.3305
  493SOL    HW2 1479   2.040   2.035   0.335 -0.6097  1.9020  0.7132
  494SOL     OW 1480   0.668   0.935   0.352  0.3348  0.3031  0.3458
  494SOL    HW1 1481   0.753   0.944   0.401 -2.8016  0.5811 -1.9716
  494SOL    HW2 1482   0.677   0.893   0.261  1.2960 -1.3691  1.1212
  495SOL     OW 1483   2.927   2.715   0.836  0.3109 -0.1678 -0.5805
  495SOL    HW1 1484   2.963   2.643   0.903  0.2959 -2.4049  1.5559
  495SOL    HW2 1485   2.877   2.651   0.771 -0.7238  0.5050  2.7557
  496SOL     OW 1486   2.642   0.132   1.653 -0.8173  0.2432 -0.3490
  496SOL    HW1 1487   2.674   0.198   1.586  0.0339 -0.9536  0.5553
  496SOL    HW2 1488   2.589   0.179   1.728 -1.1247  2.2523  3.4637
  497SOL     OW 1489   1.949   1.371   2.698  0.2104 -0.2257 -0.1011
  497SOL    HW1 1490   2.036   1.426   2.697 -1.5953  2.6155 -1.8040
  497SOL    HW2 1491   1.890   1.384   2.616 -4.0585  0.5856 -1.4935
  498SOL     OW 1492   0.769   1.972   1.010  0.1957 -0.0921  0.3400
  498SOL    HW1 1493   0.799   2.020   1.096 -0.5824  0.9600  2.5124
  498SOL    HW2 1494   0.771   1.873   1.019 -0.1551  3.7096  1.4908
  499SOL     OW 1495   0.775   2.258   1.469 -0.3553 -0.1957 -0.7443
  499SOL    HW1 1496   0.752   2.161   1.436  1.9339 -2.2388  0.7658
  499SOL    HW2 1497   0.743   2.329   1.409  1.7392 -3.0254  0.7744
  500SOL     OW 1498   0.747   2.119   0.059 -0.1236  0.3756 -0.1255
  500SOL    HW1 1499   0.654   2.161   0.051 -0.6499 -1.9962  3.3588
  500SOL    HW2 1500   0.782   2.151   0.148 -1.0795 -2.0148  1.0587
  501SOL     OW 1501   2.715   2.891   1.407  0.3295 -0.0227  0.1534
  501SOL    HW1 1502   2.708   2.820   1.335  0.0844  0.8708  0.6783
  501SOL    HW2 1503   2.766   2.850   1.484 -0.0334  0.7412  0.0723
  502SOL     OW 1504   0.376   0.885   1.613 -0.0864  0.1139 -0.0397
  502SOL    HW1 1505   0.378   0.783   1.607 -0.6106  0.2423  1.0889
  502SOL    HW2 1506   0.470   0.923   1.591  1.3510  3.6275 -3.4086
  503SOL     OW 1507   2.157   0.843   1.669  0.2352 -0.3293  0.1742
  503SOL    HW1 1508   2.236   0.782   1.686 -2.8318  4.0379  0.5529
  503SOL    HW2 1509   2.178   0.942   1.663  0.3319 -0.6325  0.9483
  504SOL     OW 1510   1.208   0.769   1.867 -0.2304 -0.7309 -0.1076
  504SOL    HW1 1511   1.169   0.725   1.954 -1.6992 -1.4554  1.6080
  504SOL    HW2 1512   1.237   0.868   1.886 -0.1026  0.9803 -2.1928
  505SOL     OW 1513   0.835   0.116   2.331 -0.0778 -0.6881 -0.0352
  505SOL    HW1 1514   0.930   0.096   2.306 -3.2777  0.7195  1.4210
  505SOL    HW2 1515   0.792   0.046   2.398 -3.1044 -2.2638  1.9847
  506SOL     OW 1516   0.020   0.474   1.051 -0.5293  0.6756 -0.3428
  506SOL    HW1 1517   3.062   0.421   0.985  1.1135  0.2083 -0.2247
  506SOL    HW2 1518   0.112   0.427   1.067  3.4337 -0.6275  1.3358
  507SOL     OW 1519   1.377   0.393   0.038 -0.0607 -0.1019 -0.0374
  507SOL    HW1 1520   1.408   0.312   3.086 -1.4518 -1.3164  1.4105
  507SOL    HW2 1521   1.359   0.472   3.073 -1.1165  1.6160  0.9850
  508SOL     OW 1522   1.861   0.319   2.507  0.0950 -0.6269  0.2625
  508SOL    HW1 1523   1.958   0.347   2.488  0.3443 -1.6627  1.2464
  508SOL    HW2 1524   1.856   0.225   2.468  1.7543  0.1415  0.3669
  509SOL     OW 1525   0.730   1.245   2.079 -0.2550  0.2318 -0.2315
  509SOL    HW1 1526   0.791   1.325   2.111  1.2673  4.3003 -0.2831
  509SOL    HW2 1527   0.708   1.187   2.157  0.8177  0.8795 -0.5590
  510SOL     OW 1528   3.002   1.116   0.776  0.0493  0.3108 -0.2422
  510SOL    HW1 1529   3.064   1.127   0.853  0.1059  1.7695  1.0412
  510SOL    HW2 1530   2.946   1.033   0.794 -2.5707 -0.0966  2.9803
  511SOL     OW 1531   2.047   2.017   0.760 -0.7725 -0.0334 -0.0216
  511SOL    HW1 1532   2.118   2.057   0.828 -1.3649  0.7734 -0.4903
  511SOL    HW2 1533   2.026   1.920   0.800  0.0540 -2.5466  0.5057
  512SOL     OW 1534   0.532   1.446   0.722 -0.6453  0.2612 -0.0269
  512SOL    HW1 1535   0.444   1.394   0.725 -2.3206  0.4760 -1.1079
  512SOL    HW2 1536   0.578   1.434   0.633 -0.2973 -0.6937 -2.5531
  513SOL     OW 1537   0.315   2.203   0.507 -0.0368 -0.5369 -0.9445
  513SOL    HW1 1538   0.335   2.218   0.409  1.9578  1.5926  0.5279
  513SOL    HW2 1539   0.273   2.289   0.541  1.1266 -0.3453 -1.3638
  514SOL     OW 1540   2.673   2.097   2.351 -0.0948 -0.3268 -0.7505
  514SOL    HW1 1541   2.587   2.040   2.348  0.4073  1.5967 -1.8523
  514SOL    HW2 1542   2.659   2.184   2.298  0.8323  0.4469  1.2917
  515SOL     OW 1543   2.161   1.004   0.302  0.1146 -0.3571  0.1872
  515SOL    HW1 1544   2.119   0.914   0.271 -0.6550 -0.9435  0.0836
  515SOL    HW2 1545   2.255   0.991   0.337 -1.5161 -2.3252  0.6101
  516SOL     OW 1546   1.761   0.175   0.635  0.4862 -0.3147 -0.4320
  516SOL    HW1 1547   1.660   0.165   0.634 -0.5945 -0.8771  0.3788
  516SOL    HW2 1548   1.787   0.211   0.545 -2.1907  0.4679  0.2011
  517SOL     OW 1549   1.344   1.980   0.122  0.0409  0.3595  0.3113
  517SOL    HW1 1550   1.295   2.068   0.118 -0.1847 -1.1544 -0.2250
  517SOL    HW2 1551   1.294   1.914   0.057 -0.4190  0.3452 -0.7358
  518SOL     OW 1552   1.119   0.660   1.636  0.0228 -0.0662 -0.6171
  518SOL    HW1 1553   1.163   0.703   1.719 -0.5326 -0.3408  2.8028
  518SOL    HW2 1554   1.187   0.612   1.575  0.3809  0.7423 -0.0966
  519SOL     OW 1555   3.039   1.308   0.108  0.0976  0.8577  0.2341
  519SOL    HW1 1556   3.015   1.385   0.049 -2.3149 -0.0317 -2.4466
  519SOL    HW2 1557   3.032   1.220   0.060  3.0184 -1.6140  0.8525
  520SOL     OW 1558   2.229   2.009   1.678  0.1912 -0.0360 -0.4065
  520SOL    HW1 1559   2.158   1.969   1.621 -0.3518  1.9413 -1.5797
  520SOL    HW2 1560   2.220   2.109   1.674 -0.3144 -0.1296  0.0986
  521SOL     OW 1561   0.998   2.667   2.466 -0.0250  0.0227  0.0460
  521SOL    HW1 1562   1.013   2.699   2.371  1.2523 -0.0530 -0.9561
  521SOL    HW2 1563   1.087   2.671   2.518 -0.0554  0.8292  3.1399
  522SOL     OW 1564   1.868   0.238   2.191  0.4752  0.0087 -0.2280
  522SOL    HW1 1565   1.870   0.165   2.264 -2.4886 -0.5462 -0.9376
  522SOL    HW2 1566   1.786   0.302   2.206  1.2676  1.5314  1.7203
  523SOL     OW 1567   1.722   1.925   1.239 -0.3288  0.0514  0.0104
  523SOL    HW1 1568   1.669   2.008   1.249 -2.0803 -0.0925  0.7643
  523SOL    HW2 1569   1.735   1.882   1.328 -3.0219  2.8602 -1.8039
  524SOL     OW 1570   1.267   2.243   0.129 -0.1732  0.1561 -0.0116
  524SOL    HW1 1571   1.186   2.221   0.187  1.5679  1.6651 -1.1901
  524SOL    HW2 1572   1.333   2.306   0.183  0.0278  0.4187  2.7411
  525SOL     OW 1573   0.053   0.467   0.005  0.4903 -0.0316  0.0825
  525SOL    HW1 1574   3.054   0.487   0.000  3.1798  1.3110 -1.5543
  525SOL    HW2 1575   0.104   0.489   0.094  3.5798  0.9253  1.2875
  526SOL     OW 1576   1.057   2.710   0.500 -0.3987 -0.4144 -0.5878
  526SOL    HW1 1577   0.970   2.762   0.517  1.5270 -0.7604  2.5678
  526SOL    HW2 1578   1.141   2.770   0.515  0.6750  1.2109  1.2476
  527SOL     OW 1579   2.935   1.759   0.392 -0.6486 -0.1213 -0.4496
  527SOL    HW1 1580   2.966   1.771   0.488  1.6991  0.0106 -3.9696
  527SOL    HW2 1581   2.838   1.782   0.384 -0.6572  2.2128  1.9002
  528SOL     OW 1582   0.094   0.714   2.346  0.1871  0.3919 -0.1012
  528SOL    HW1 1583   0.021   0.648   2.379 -3.0792 -2.4665  1.7754
  528SOL    HW2 1584   0.170   0.660   2.297  0.0523 -1.4739  0.0187
  529SOL     OW 1585   1.345   1.540   2.667 -0.4177  0.1866  0.0183
  529SOL    HW1 1586   1.394   1.461   2.621  0.9990  0.3546  0.0584
  529SOL    HW2 1587   1.245   1.534   2.653 -1.3926  1.5629  0.8496
  530SOL     OW 1588   1.686   1.123   2.544 -0.8565  0.0139  0.4821
  530SOL    HW1 1589   1.616   1.076   2.486  0.2674 -0.0259  0.0022
  530SOL    HW2 1590   1.727   1.199   2.489 -0.4270 -0.2130 -1.6535
  531SOL     OW 1591   0.501   2.125   2.448 -0.4899 -0.4562  0.5665
  531SOL    HW1 1592   0.489   2.115   2.343  2.3601 -2.1367 -0.7983
  531SOL    HW2 1593   0.426   2.084   2.503  0.7130  0.5819 -0.3732
  532SOL     OW 1594   2.179   1.066   0.587  0.0087  0.0810 -0.3505
  532SOL    HW1 1595   2.149   1.049   0.494 -2.6828  0.5769  3.5044
  532SOL    HW2 1596   2.234   1.154   0.588 -1.4880  0.0229 -0.3470
  533SOL     OW 1597   0.035   3.078   1.713 -0.5005  0.2765  0.3025
  533SOL    HW1 1598   0.136   3.068   1.690  1.9889  0.7495  1.6924
  533SOL    HW2 1599   3.098   0.058   1.662  1.1328  0.0924  0.7589
  534SOL     OW 1600   0.723   0.098   0.019 -0.2689  0.1361 -0.0993
  534SOL    HW1 1601   0.735   0.156   3.037  0.5099  0.5917  0.0154
  534SOL    HW2 1602   0.626   0.064   0.027  0.0865  0.4737  1.3496
  535SOL     OW 1603   0.233   0.024   0.414 -0.6147 -0.3929 -0.4029
  535SOL    HW1 1604   0.183   0.112   0.426  1.3965 -1.8759 -1.2280
  535SOL    HW2 1605   0.243   3.078   0.508 -0.1052 -0.1246  3.2615
  536SOL     OW 1606   0.268   1.585   1.510  0.1267 -0.2970 -0.8108
  536SOL    HW1 1607   0.259   1.684   1.501  2.4131  0.8726 -0.3383
  536SOL    HW2 1608   0.342   1.557   1.445 -0.1910  1.1991 -1.4052
  537SOL     OW 1609   1.213   2.735   1.759 -0.6815  0.1113  0.3461
  537SOL    HW1 1610   1.277   2.730   1.841  0.1578  1.1137  0.5309
  537SOL    HW2 1611   1.226   2.644   1.712 -0.2043 -2.3666  1.7234
  538SOL     OW 1612   0.027   1.940   3.092 -0.0471 -0.0108 -0.2178
  538SOL    HW1 1613   3.070   1.869   0.036  1.7932  2.1426 -1.7377
  538SOL    HW2 1614   0.105   1.891   3.043 -0.6371  2.2592 -0.4958
  539SOL     OW 1615   2.806   1.217   2.536  0.3396 -0.1142  0.1297
  539SOL    HW1 1616   2.799   1.165   2.620  1.6000  0.5648 -2.6425
  539SOL    HW2 1617   2.851   1.171   2.457  0.9847  0.6698 -1.4750
  540SOL     OW 1618   1.733   0.647   2.119  0.2212  0.4470 -0.7951
  540SOL    HW1 1619   1.754   0.743   2.130  0.1546  0.3610  0.5441
  540SOL    HW2 1620   1.714   0.610   2.215  0.5088  1.3073  2.1645
  541SOL     OW 1621   0.586   0.539   2.207  0.2518 -0.3568 -0.1596
  541SOL    HW1 1622   0.536   0.476   2.280 -0.5309 -2.3976 -0.1407
  541SOL    HW2 1623   0.520   0.554   2.131  2.1161 -1.9227  0.8522
  542SOL     OW 1624   2.186   3.039   3.040  0.1715 -0.0351  0.4099
  542SOL    HW1 1625   2.108   3.081   3.094  0.5877 -1.4294 -1.0631
  542SOL    HW2 1626   2.200   3.092   2.952 -1.0931 -0.0686  1.4610
  543SOL     OW 1627   1.283   0.160   0.149 -0.2210 -0.1132  0.0252
  543SOL    HW1 1628   1.261   0.264   0.142  2.0106 -0.3585 -2.8753
  543SOL    HW2 1629   1.207   0.105   0.192 -2.6652  0.5578 -0.5761
  544SOL     OW 1630   2.667   1.679   1.910 -0.1923 -0.2505  0.4294
  544SOL    HW1 1631   2.698   1.624   1.993 -0.0360 -1.1113  4.0829
  544SOL    HW2 1632   2.672   1.618   1.826 -0.8117  2.5029 -1.1615
  545SOL     OW 1633   2.108   2.109   1.369  0.2376 -0.1968  0.0893
  545SOL    HW1 1634   2.065   2.135   1.280 -0.7317  1.2007  0.4737
  545SOL    HW2 1635   2.173   2.180   1.401  0.0136 -0.0639  1.8840
  546SOL     OW 1636   0.201   3.025   2.742 -0.1021 -0.0152  0.1583
  546SOL    HW1 1637   0.209   3.035   2.640 -1.7714 -0.8594 -0.9644
  546SOL    HW2 1638   0.129   2.953   2.766  0.0916 -1.7453 -0.6675
  547SOL     OW 1639   1.605   0.914   0.714  0.1638  0.2472  0.1875
  547SOL    HW1 1640   1.648   0.949   0.630  1.8633 -2.9973 -2.2423
  547SOL    HW2 1641   1.548   0.978   0.768  0.8894 -1.5677  0.5344
  548SOL     OW 1642   1.852   2.035   2.409  0.4500  0.0373 -0.1586
  548SOL    HW1 1643   1.889   2.068   2.497 -1.3179  1.2911  0.2868
  548SOL    HW2 1644   1.802   1.944   2.418 -1.6242 -2.0617  1.0389
  549SOL     OW 1645   2.098   0.502   0.526 -0.0302  0.1257  0.0004
  549SOL    HW1 1646   2.054   0.595   0.523 -0.1465 -1.0060  0.6581
  549SOL    HW2 1647   2.050   0.434   0.588 -1.5612 -2.1409  1.3444
  550SOL     OW 1648   2.752   1.884   0.705  0.3545 -0.1668 -0.2177
  550SOL    HW1 1649   2.845   1.865   0.692 -2.9695  0.1897  2.9368
  550SOL    HW2 1650   2.727   1.984   0.701  0.6272  3.5945 -1.7658
  551SOL     OW 1651   1.294   2.635   2.324 -0.7007 -0.1865 -0.1699
  551SOL    HW1 1652   1.335   2.712   2.270 -0.1292 -1.0868 -2.2547
  551SOL    HW2 1653   1.263   2.663   2.418 -2.4625  1.3502  0.5094
  552SOL     OW 1654   2.867   2.535   2.916  0.6185  0.8161 -0.5075
  552SOL    HW1 1655   2.867   2.439   2.877 -2.3044 -0.2060 -1.8158
  552SOL    HW2 1656   2.791   2.587   2.868 -0.9565 -0.1232 -1.5114
  553SOL     OW 1657   0.148   0.148   0.779 -0.3098 -0.5117  0.0969
  553SOL    HW1 1658   0.209   0.071   0.813  1.8673  0.9803  0.5146
  553SOL    HW2 1659   0.080   0.177   0.845  2.6180 -0.5276 -0.6409
  554SOL     OW 1660   2.262   2.280   1.681 -0.4896  0.1994  0.3287
  554SOL    HW1 1661   2.179   2.339   1.694  0.7033 -2.2233  0.5849
  554SOL    HW2 1662   2.338   2.319   1.738  0.9972 -1.9032  0.6623
  555SOL     OW 1663   1.788   2.465   2.273  0.1455 -0.1473  0.2966
  555SOL    HW1 1664   1.714   2.427   2.330 -0.0606  0.1909  1.6111
  555SOL    HW2 1665   1.862   2.495   2.337  1.0328  0.1415 -0.3477
  556SOL     OW 1666   1.217   1.512   1.391  0.0128 -0.5840 -0.4143
  556SOL    HW1 1667   1.227   1.477   1.298 -0.3525 -0.0289  0.8592
  556SOL    HW2 1668   1.305   1.553   1.429 -0.5917  0.5060  2.9226
  557SOL     OW 1669   1.994   2.558   2.433 -0.0425 -0.4761 -0.4286
  557SOL    HW1 1670   2.092   2.536   2.445 -1.8535 -1.0223  0.2198
  557SOL    HW2 1671   1.960   2.618   2.505 -0.2608  1.3580 -0.7218
  558SOL     OW 1672   0.197   2.857   2.108 -0.1050 -0.6978 -0.2286
  558SOL    HW1 1673   0.244   2.842   2.019  0.1687  1.4301 -1.2036
  558SOL    HW2 1674   0.263   2.877   2.183 -2.2636 -0.5746 -2.0495
  559SOL     OW 1675   2.160   2.969   0.728 -0.1071 -0.2535 -0.5417
  559SOL    HW1 1676   2.132   2.895   0.665  0.3156  3.0522  0.8167
  559SOL    HW2 1677   2.081   3.036   0.733 -1.3262  0.9596  1.3681
  560SOL     OW 1678   1.773   2.613   0.566 -0.1898 -0.3970  0.3474
  560SOL    HW1 1679   1.697   2.585   0.629  1.8328 -0.9953 -0.2390
  560SOL    HW2 1680   1.823   2.695   0.602  1.5199 -0.5752 -0.4620
  561SOL     OW 1681   0.822   0.173   0.689 -0.1853  0.6761 -0.3353
  561SOL    HW1 1682   0.885   0.247   0.651 -0.7949  2.1757  2.3708
  561SOL    HW2 1683   0.833   0.164   0.795  2.4224  0.3489  1.6561
  562SOL     OW 1684   0.655   0.771   2.587  0.3115  0.4878 -0.0792
  562SOL    HW1 1685   0.624   0.678   2.565 -1.8609 -1.6105  0.7612
  562SOL    HW2 1686   0.670   0.823   2.501  0.3343  0.8335 -0.3992
  563SOL     OW 1687   1.639   1.771   2.425  0.3174 -0.0175  0.1173
  563SOL    HW1 1688   1.649   1.761   2.527  0.5656 -1.4281  1.1527
  563SOL    HW2 1689   1.581   1.843   2.398  1.9036 -0.5936  1.3033
  564SOL     OW 1690   2.630   0.834   1.231 -0.0508  0.6820 -0.3141
  564SOL    HW1 1691   2.559   0.883   1.178  1.5624 -1.4372 -1.8356
  564SOL    HW2 1692   2.692   0.780   1.172 -0.8431 -3.5183  1.2964
  565SOL     OW 1693   1.091   0.589   3.031  0.5897  0.5243  0.3179
  565SOL    HW1 1694   1.133   0.549   2.945  1.6587  1.8090 -3.7751
  565SOL    HW2 1695   1.012   0.649   2.998 -0.0442  0.2660 -0.9475
  566SOL     OW 1696   2.110   0.326   2.763 -0.2594  0.6382  0.0963
  566SOL    HW1 1697   2.139   0.352   2.666  1.5422  0.8639  1.1478
  566SOL    HW2 1698   2.146   0.398   2.825 -1.2197 -2.7045  0.2482
  567SOL     OW 1699   2.130   1.420   0.499 -0.2195  0.1639  0.7742
  567SOL    HW1 1700   2.209   1.393   0.558  0.6163  1.0353  0.5233
  567SOL    HW2 1701   2.133   1.363   0.410 -0.5477 -3.6589 -1.0112
  568SOL     OW 1702   1.705   1.724   2.971  0.3062  0.2687 -0.1599
  568SOL    HW1 1703   1.606   1.706   2.949  0.4077 -2.4794 -1.3511
  568SOL    HW2 1704   1.739   1.666   3.052  1.6217 -1.5984  3.0331
  569SOL     OW 1705   1.949   1.058   3.065 -0.1482 -0.1135 -0.1443
  569SOL    HW1 1706   1.904   1.143   3.017 -1.8775  3.4214  0.4306
  569SOL    HW2 1707   2.050   1.058   3.052 -0.6452  1.7538  0.7644
  570SOL     OW 1708   0.426   2.425   1.989 -0.0193  0.3654  0.2766
  570SOL    HW1 1709   0.492   2.487   1.944 -0.9860  0.0225 -1.2027
  570SOL    HW2 1710   0.328   2.454   1.967 -3.1369 -1.7215  1.1501
  571SOL     OW 1711   0.325   1.118   2.009  0.4558 -0.6558  0.1627
  571SOL    HW1 1712   0.278   1.098   1.922 -0.3553 -1.5970 -1.2154
  571SOL    HW2 1713   0.258   1.159   2.077  2.5025 -0.4608  0.8658
  572SOL     OW 1714   0.983   1.818   0.650 -0.1122 -0.6198  0.3455
  572SOL    HW1 1715   0.990   1.768   0.739 -0.0488  0.7479 -4.1544
  572SOL    HW2 1716   0.945   1.757   0.574 -2.1135 -0.2278 -4.7691
  573SOL     OW 1717   1.792   1.894   0.163  0.0198  0.3578  0.0703
  573SOL    HW1 1718   1.713   1.943   0.132  2.1318 -2.7000  2.0306
  573SOL    HW2 1719   1.870   1.958   0.177 -0.3441  2.5320  0.4139
  574SOL     OW 1720   0.930   3.039   0.941  0.0387 -0.1061  0.1827
  574SOL    HW1 1721   0.836   3.004   0.956  1.0158 -0.1183 -0.5475
  574SOL    HW2 1722   0.975   2.988   0.866  1.4532  2.3758 -0.0846
  575SOL     OW 1723   0.375   1.106   1.370  0.7939  0.1093  0.1095
  575SOL    HW1 1724   0.440   1.104   1.448 -2.5138 -1.0214 -0.8537
  575SOL    HW2 1725   0.381   1.193   1.321 -0.2715 -1.6970  0.3238
  576SOL     OW 1726   2.590   0.077   1.039  0.4507 -0.3781 -0.1081
  576SOL    HW1 1727   2.499   0.077   1.082 -1.3523 -0.1606 -1.5332
  576SOL    HW2 1728   2.587   0.005   0.968 -0.1889  3.3748 -0.9509
  577SOL     OW 1729   0.986   1.087   2.229 -0.3677  0.5062 -0.1563
  577SOL    HW1 1730   0.999   1.073   2.130  0.8528 -0.3401 -1.0229
  577SOL    HW2 1731   0.896   1.050   2.256 -0.0200  2.0864  1.0882
  578SOL     OW 1732   1.906   0.955   2.615  0.3905 -0.0792  0.0268
  578SOL    HW1 1733   1.833   1.027   2.598 -0.6241 -1.2375 -0.2716
  578SOL    HW2 1734   1.966   0.985   2.686  1.3032  0.9668 -4.0444
  579SOL     OW 1735   1.841   2.452   1.635  0.1146 -0.0696 -0.2581
  579SOL    HW1 1736   1.895   2.464   1.719  2.7690  1.0571  0.2700
  579SOL    HW2 1737   1.851   2.360   1.590  0.6147 -1.0076  1.1337
  580SOL     OW 1738   1.590   1.510   2.333  0.0017  0.1012  0.0882
  580SOL    HW1 1739   1.620   1.602   2.360 -0.8170 -0.7684  1.3708
  580SOL    HW2 1740   1.490   1.512   2.306  2.3951 -0.7441 -2.5544
  581SOL     OW 1741   1.263   1.233   2.462  0.1664 -0.3756 -0.8319
  581SOL    HW1 1742   1.241   1.158   2.530 -0.8974 -2.5482  1.8852
  581SOL    HW2 1743   1.342   1.286   2.494 -0.2037  1.9963  0.7863
  582SOL     OW 1744   0.999   1.347   1.749  0.6285 -0.4731 -0.7178
  582SOL    HW1 1745   0.910   1.397   1.775 -3.1655  2.7496 -1.0061
  582SOL    HW2 1746   1.065   1.414   1.710 -0.1543  0.7825  0.0736
  583SOL     OW 1747   1.318   1.169   1.748 -0.3256 -0.1261 -0.0019
  583SOL    HW1 1748   1.294   1.157   1.648 -0.4450 -1.3464  1.2444
  583SOL    HW2 1749   1.329   1.269   1.767 -1.0128 -0.8349  2.3241
  584SOL     OW 1750   2.045   2.982   0.209 -0.2560  0.3814 -0.1189
  584SOL    HW1 1751   2.110   2.908   0.178 -0.2607 -0.0940 -1.7928
  584SOL    HW2 1752   2.099   3.065   0.245 -0.1936 -1.0881  0.0421
  585SOL     OW 1753   1.851   2.899   2.893  0.8399  0.4800  0.0661
  585SOL    HW1 1754   1.918   2.823   2.892 -0.1817  0.2886 -0.0166
  585SOL    HW2 1755   1.836   2.940   2.985  0.2383  2.7137  0.9720
  586SOL     OW 1756   2.751   1.959   1.051 -1.0395 -0.1736 -0.5539
  586SOL    HW1 1757   2.688   1.887   1.076  2.1524 -1.0561 -0.4645
  586SOL    HW2 1758   2.791   2.003   1.136 -0.2443  1.0229  3.5558
  587SOL     OW 1759   1.234   1.800   3.073 -0.2079  0.1502 -0.4029
  587SOL    HW1 1760   1.241   1.702   3.098 -0.1466  0.4942  2.9448
  587SOL    HW2 1761   1.150   1.823   3.022  1.8128 -0.8100 -1.0582
  588SOL     OW 1762   0.261   0.368   1.101  0.1645  0.9209  0.0927
  588SOL    HW1 1763   0.341   0.377   1.043 -1.5276 -0.3202 -0.8815
  588SOL    HW2 1764   0.249   0.268   1.126 -0.8572 -0.3887  0.3502
  589SOL     OW 1765   1.166   0.003   0.677  0.3892  0.1201 -0.1372
  589SOL    HW1 1766   1.139   0.040   0.587  2.2937  0.2650  0.2617
  589SOL    HW2 1767   1.201   0.085   0.722 -3.2000  2.3468 -2.1144
  590SOL     OW 1768   1.250   0.870   2.965  0.5458 -0.3331 -0.1703
  590SOL    HW1 1769   1.212   0.849   2.872  3.2988 -0.0311  1.0348
  590SOL    HW2 1770   1.176   0.890   3.030  0.2460  1.0680 -0.7396
  591SOL     OW 1771   2.907   2.392   2.108 -0.2497  0.3626  0.1439
  591SOL    HW1 1772   2.898   2.492   2.122 -0.6132 -1.1328 -0.9609
  591SOL    HW2 1773   2.993   2.350   2.143 -0.7914 -3.4637 -0.0786
  592SOL     OW 1774   2.402   1.529   1.705  0.1149 -0.0146 -0.3830
  592SOL    HW1 1775   2.334   1.521   1.631  2.2726 -0.9601 -0.1866
  592SOL    HW2 1776   2.497   1.489   1.687  0.2595 -0.6717 -0.3531
  593SOL     OW 1777   1.281   1.117   1.457  0.1632  0.1452  0.1814
  593SOL    HW1 1778   1.263   1.015   1.448 -1.5913 -0.4236 -1.5863
  593SOL    HW2 1779   1.233   1.165   1.378 -2.8735  0.5817 -0.7472
  594SOL     OW 1780   2.440   1.322   2.580 -0.0309  0.0095 -0.5243
  594SOL    HW1 1781   2.453   1.424   2.588 -0.2400  1.2884 -3.4104
  594SOL    HW2 1782   2.496   1.288   2.499  1.0134 -0.7969 -2.0121
  595SOL     OW 1783   0.088   0.223   0.512  0.1911 -0.1128  0.4844
  595SOL    HW1 1784   0.100   0.192   0.611 -0.0453 -2.1007 -0.7460
  595SOL    HW2 1785   3.087   0.233   0.487  2.1044  2.3124 -0.0244
  596SOL     OW 1786   3.015   1.564   0.950  0.0490 -0.2367 -0.1839
  596SOL    HW1 1787   3.011   1.482   0.892  1.1397  0.7161  1.0256
  596SOL    HW2 1788   0.003   1.616   0.927 -0.4409  1.3891 -0.0882
  597SOL     OW 1789   1.320   1.670   0.661 -0.6369  0.7321 -0.0666
  597SOL    HW1 1790   1.304   1.747   0.722 -1.3412  2.1148  0.4196
  597SOL    HW2 1791   1.306   1.698   0.569  0.1636  0.2780  2.2040
  598SOL     OW 1792   0.342   2.803   1.878  0.3244 -0.3944  0.5756
  598SOL    HW1 1793   0.324   2.886   1.824 -1.2002  1.6238 -2.5877
  598SOL    HW2 1794   0.344   2.717   1.826  0.1091  2.5435  0.1608
  599SOL     OW 1795   2.966   1.648   2.544  0.0591  0.3315 -0.1029
  599SOL    HW1 1796   2.904   1.578   2.577 -0.0802  1.5606 -0.0561
  599SOL    HW2 1797   2.943   1.730   2.593 -1.4196 -3.0524 -2.1985
  600SOL     OW 1798   0.598   0.749   3.000  0.5291  0.1449 -0.1078
  600SOL    HW1 1799   0.534   0.683   3.045 -2.3352  1.8137 -1.2774
  600SOL    HW2 1800   0.559   0.803   2.926 -2.1429  1.1469 -0.1861
  601SOL     OW 1801   0.606   0.780   0.926  0.3103 -0.6397 -0.4392
  601SOL    HW1 1802   0.573   0.691   0.885 -1.8583  2.0732 -0.3007
  601SOL    HW2 1803   0.533   0.829   0.975  1.8968 -1.4991 -0.6602
  602SOL     OW 1804   1.064   2.438   0.524  0.5447 -0.1980  0.2135
  602SOL    HW1 1805   1.040   2.529   0.485 -1.3046 -2.3076 -0.6232
  602SOL    HW2 1806   1.159   2.410   0.507 -0.0599  2.8153 -0.8698
  603SOL     OW 1807   1.530   2.059   2.263  0.0996  0.0043  0.0430
  603SOL    HW1 1808   1.588   2.089   2.338 -1.2410  1.5720  0.1914
  603SOL    HW2 1809   1.535   2.118   2.184 -0.1041  1.2920 -0.4457
  604SOL     OW 1810   0.515   0.223   2.804 -0.1677 -0.0630  0.7775
  604SOL    HW1 1811   0.458   0.259   2.878 -0.4120 -1.8963  1.4757
  604SOL    HW2 1812   0.613   0.200   2.830  1.7395  0.8308  1.8002
  605SOL     OW 1813   2.569   0.901   1.648 -0.0066 -0.3555  0.4439
  605SOL    HW1 1814   2.580   0.972   1.718  0.3365  1.3501 -1.4996
  605SOL    HW2 1815   2.632   0.921   1.571 -0.0786 -2.3049  1.7752
  606SOL     OW 1816   0.765   1.854   2.542 -0.0241  0.1365 -0.8211
  606SOL    HW1 1817   0.766   1.927   2.470  1.2689  1.0449 -1.9215
  606SOL    HW2 1818   0.794   1.764   2.504  0.2264  0.0199 -1.3972
  607SOL     OW 1819   0.603   0.009   0.610 -0.0009 -0.0222 -0.2048
  607SOL    HW1 1820   0.625   3.051   0.529  0.3996  2.3913  0.4210
  607SOL    HW2 1821   0.682   0.071   0.625 -0.2072 -2.7941 -1.2092
  608SOL     OW 1822   2.430   1.858   1.593 -0.1701 -0.0314  0.3060
  608SOL    HW1 1823   2.358   1.924   1.625  1.5347  1.9973 -2.8308
  608SOL    HW2 1824   2.402   1.762   1.597 -0.9086  1.4423 -0.3286
  609SOL     OW 1825   2.746   0.319   0.648 -0.0100  0.2632 -0.0568
  609SOL    HW1 1826   2.734   0.306   0.751  1.0371  0.3043 -0.7978
  609SOL    HW2 1827   2.718   0.411   0.620  2.1711 -0.6679 -1.3672
  610SOL     OW 1828   0.218   2.520   1.177  0.0795  0.3298 -0.0626
  610SOL    HW1 1829   0.196   2.470   1.264  1.2655 -0.9190 -1.3062
  610SOL    HW2 1830   0.309   2.488   1.142  1.1327  0.1735 -1.0461
  611SOL     OW 1831   1.545   1.556   0.182 -0.4503 -0.4354  0.7663
  611SOL    HW1 1832   1.635   1.578   0.141  1.0868  0.7176  0.8403
  611SOL    HW2 1833   1.502   1.640   0.222  1.2582  1.0891 -0.8484
  612SOL     OW 1834   0.706   2.701   2.170  0.0563 -0.0808 -0.5465
  612SOL    HW1 1835   0.623   2.655   2.212 -3.6066  0.7684 -2.0754
  612SOL    HW2 1836   0.672   2.774   2.107 -0.6641  0.0211  0.3751
  613SOL     OW 1837   0.496   2.748   0.832  0.4055 -0.0096  0.5969
  613SOL    HW1 1838   0.512   2.709   0.738 -0.0501 -1.3403 -1.9997
  613SOL    HW2 1839   0.546   2.697   0.901  0.0405 -3.8607 -0.1629
  614SOL     OW 1840   2.368   0.182   2.116 -0.0579  0.1748  0.0807
  614SOL    HW1 1841   2.285   0.240   2.127  0.9270 -2.6268  1.1227
  614SOL    HW2 1842   2.361   0.134   2.024 -0.8987  0.5482  1.1610
  615SOL     OW 1843   1.693   1.407   0.347 -0.4473 -0.8526  0.4336
  615SOL    HW1 1844   1.623   1.476   0.315 -1.2064  1.0078 -0.9013
  615SOL    HW2 1845   1.775   1.466   0.371 -1.0647  3.4227  0.2842
  616SOL     OW 1846   1.892   1.548   0.425  0.3994 -0.2540  0.2266
  616SOL    HW1 1847   1.915   1.650   0.430  0.5205 -1.7404  0.4490
  616SOL    HW2 1848   1.968   1.493   0.458 -3.1665  0.5501 -0.1454
  617SOL     OW 1849   1.245   1.058   2.686 -0.1846 -0.3237 -0.0845
  617SOL    HW1 1850   1.228   0.957   2.680 -0.3015  0.2094 -1.0618
  617SOL    HW2 1851   1.319   1.083   2.750 -0.1008 -0.6141 -0.9046
  618SOL     OW 1852   0.579   2.864   1.994  0.3634 -0.1021 -0.0102
  618SOL    HW1 1853   0.497   2.841   1.939 -0.2822  2.4961 -0.0223
  618SOL    HW2 1854   0.561   2.940   2.058  1.7853 -0.3141  0.8974
  619SOL     OW 1855   2.866   1.416   1.457  0.2763  0.2379  0.0784
  619SOL    HW1 1856   2.964   1.435   1.470  0.6427  0.3699  0.8186
  619SOL    HW2 1857   2.827   1.506   1.432  1.2073 -0.0043 -0.6569
  620SOL     OW 1858   2.450   0.379   2.849 -0.3970 -0.6798 -0.8104
  620SOL    HW1 1859   2.507   0.442   2.791  0.0871 -1.7945  1.3436
  620SOL    HW2 1860   2.455   0.284   2.816 -2.1092  1.4663  0.3267
  621SOL     OW 1861   2.431   1.989   2.386 -0.4675  0.1774  0.6779
  621SOL    HW1 1862   2.380   2.071   2.415 -0.4145  2.0221 -2.9390
  621SOL    HW2 1863   2.368   1.912   2.400  1.2339  0.2804  0.1688
  622SOL     OW 1864   1.008   0.733   2.510 -0.0727  0.4575  0.6093
  622SOL    HW1 1865   0.981   0.634   2.500 -2.8507  3.9432 -2.3325
  622SOL    HW2 1866   1.048   0.775   2.426 -0.3072 -0.5560 -1.5395
  623SOL     OW 1867   0.696   1.091   2.292  0.3137  0.1321 -0.2837
  623SOL    HW1 1868   0.650   1.136   2.373 -0.7858  3.7699 -0.8328
  623SOL    HW2 1869   0.679   0.988   2.290  1.8323  0.3222  2.4160
  624SOL     OW 1870   2.781   0.482   0.317  0.3980 -0.7446  0.1438
  624SOL    HW1 1871   2.726   0.461   0.232  2.7258  0.2608 -0.0346
  624SOL    HW2 1872   2.859   0.542   0.290  1.5193  0.0585  1.0332
  625SOL     OW 1873   0.789   2.220   1.116 -0.7575  0.1072 -0.5419
  625SOL    HW1 1874   0.732   2.222   1.033  0.2015 -1.9788  1.2176
  625SOL    HW2 1875   0.772   2.296   1.180  2.1516 -0.2284 -1.0818
  626SOL     OW 1876   2.086   0.626   2.683 -0.3563 -0.0092  0.1281
  626SOL    HW1 1877   2.035   0.591   2.765  0.1251 -1.3564 -0.4776
  626SOL    HW2 1878   2.015   0.644   2.613  0.9959 -1.6229  1.2502
  627SOL     OW 1879   1.580   2.641   2.842 -0.5194  0.4820 -0.4628
  627SOL    HW1 1880   1.488   2.624   2.805  0.0688 -1.0476 -0.8235
  627SOL    HW2 1881   1.650   2.593   2.785  0.3341  0.6960  0.1861
  628SOL     OW 1882   2.561   2.893   2.375  0.7998  0.4881  0.4017
  628SOL    HW1 1883   2.658   2.918   2.368 -2.2178 -0.9483 -0.7397
  628SOL    HW2 1884   2.503   2.966   2.340 -0.0101 -0.6897  0.5337
  629SOL     OW 1885   1.118   0.089   2.218 -0.4304 -0.1337 -1.0941
  629SOL    HW1 1886   1.068   0.055   2.135  1.0466  0.3190 -1.7611
  629SOL    HW2 1887   1.172   0.013   2.265 -1.2007 -0.0034 -2.0730
  630SOL     OW 1888   0.964   0.362   2.371  0.3590  0.4525 -0.1083
  630SOL    HW1 1889   1.022   0.365   2.456 -0.2705  0.6085 -1.1030
  630SOL    HW2 1890   0.892   0.296   2.383 -1.1088 -0.1202 -0.7841
  631SOL     OW 1891   1.902   1.239   0.884 -0.3657 -0.4306  0.3843
  631SOL    HW1 1892   1.817   1.236   0.822 -0.1704  0.4911  0.3535
  631SOL    HW2 1893   1.873   1.209   0.978  1.7043 -0.2477  1.3252
  632SOL     OW 1894   2.416   0.443   1.734  0.0628  0.5350 -0.3541
  632SOL    HW1 1895   2.345   0.388   1.681 -3.8631 -0.9639 -0.6716
  632SOL    HW2 1896   2.384   0.538   1.740 -1.6550 -1.5716 -3.6789
  633SOL     OW 1897   1.070   1.767   0.230 -0.0537  0.0527 -0.0831
  633SOL    HW1 1898   1.054   1.867   0.215 -0.1297  0.5040  1.6750
  633SOL    HW2 1899   1.057   1.709   0.146 -2.7850 -0.7742 -0.1815
  634SOL     OW 1900   2.841   3.064   1.706 -0.1279 -0.5118 -0.0765
  634SOL    HW1 1901   2.756   0.015   1.710  1.8611  0.3259  0.8537
  634SOL    HW2 1902   2.926   0.020   1.679  4.1546 -1.1287  0.1964
  635SOL     OW 1903   1.482   0.556   1.023  0.1988  0.6911 -0.2079
  635SOL    HW1 1904   1.569   0.603   1.052 -1.5293  0.7221 -0.0596
  635SOL    HW2 1905   1.499   0.458   0.995 -1.8746 -0.3106 -0.8380
  636SOL     OW 1906   0.748   1.116   0.030 -0.2905  0.5007 -0.2322
  636SOL    HW1 1907   0.736   1.028   0.074 -0.6013  2.1778 -1.5151
  636SOL    HW2 1908   0.658   1.151   0.005  1.3047  0.1883  0.9602
  637SOL     OW 1909   3.044   2.096   2.871 -0.0677  0.2106  0.0507
  637SOL    HW1 1910   3.019   2.006   2.912  2.0983 -1.3928 -0.7623
  637SOL    HW2 1911   3.065   2.160   2.947 -1.3790 -1.0953  3.3025
  638SOL     OW 1912   1.571   2.219   2.761 -0.0727 -0.4999  0.0713
  638SOL    HW1 1913   1.491   2.264   2.717  1.6321 -2.3803 -0.2081
  638SOL    HW2 1914   1.597   2.248   2.860  2.0878  0.6269  1.1995
  639SOL     OW 1915   1.611   1.867   0.784 -0.4244 -0.0944  0.4232
  639SOL    HW1 1916   1.509   1.869   0.787  1.2520  1.6344  0.2618
  639SOL    HW2 1917   1.637   1.814   0.700  2.1997 -2.3411  0.7557
  640SOL     OW 1918   1.894   3.001   0.452 -0.1780  0.3239  0.0194
  640SOL    HW1 1919   1.944   2.959   0.373 -0.2008  1.3310 -1.4219
  640SOL    HW2 1920   1.884   3.100   0.439 -0.3345  2.6616 -1.9799
  641SOL     OW 1921   2.630   0.418   0.085  0.2791 -0.4961 -0.4809
  641SOL    HW1 1922   2.588   0.497   0.130  1.4670 -0.7504 -1.8352
  641SOL    HW2 1923   2.571   0.335   0.074 -0.9756  0.4753  1.3692
  642SOL     OW 1924   0.178   0.713   1.273 -0.1793  0.3402 -0.3221
  642SOL    HW1 1925   0.175   0.611   1.295 -0.7524  1.4462 -1.0366
  642SOL    HW2 1926   0.181   0.773   1.355  1.4219 -1.5446 -0.2137
  643SOL     OW 1927   0.538   1.527   2.348  0.1376  0.1482  0.0036
  643SOL    HW1 1928   0.627   1.474   2.375  4.4156 -3.5715  1.1678
  643SOL    HW2 1929   0.544   1.624   2.374 -0.7066  0.6663  1.0858
  644SOL     OW 1930   2.076   2.465   0.648  0.5692 -0.0733 -0.0459
  644SOL    HW1 1931   2.070   2.408   0.565  0.4800  0.5560  1.3567
  644SOL    HW2 1932   1.997   2.450   0.713 -1.8111 -1.0782  1.0039
  645SOL     OW 1933   2.020   2.173   1.124  0.0495  0.1133  0.5616
  645SOL    HW1 1934   2.087   2.161   1.045 -1.2017  1.6927  0.3190
  645SOL    HW2 1935   1.927   2.201   1.090  1.0109 -0.8734 -1.4319
  646SOL     OW 1936   0.897   2.261   2.770  0.5048  0.5201 -0.8257
  646SOL    HW1 1937   0.836   2.177   2.773 -0.8927 -3.4832 -0.7563
  646SOL    HW2 1938   0.863   2.329   2.836  1.6332 -2.2201 -0.5863
  647SOL     OW 1939   0.933   2.789   1.791  0.1241  0.1833 -0.3416
  647SOL    HW1 1940   1.029   2.812   1.778 -1.1875 -0.2554  0.5958
  647SOL    HW2 1941   0.879   2.878   1.813  0.2575  1.4167 -0.9951
  648SOL     OW 1942   1.623   0.260   1.182  0.2068  0.2655 -0.1598
  648SOL    HW1 1943   1.624   0.186   1.257 -1.1122  0.1967 -1.6772
  648SOL    HW2 1944   1.707   0.323   1.178  1.3072 -0.3164 -1.3226
  649SOL     OW 1945   1.587   2.103   0.124 -0.6241  0.3486  0.0832
  649SOL    HW1 1946   1.502   2.052   0.101  0.0190 -2.1400 -1.1534
  649SOL    HW2 1947   1.577   2.158   0.211 -2.0761  0.4714  0.0581
  650SOL     OW 1948   2.220   1.613   1.516  0.6333 -0.0890 -0.4991
  650SOL    HW1 1949   2.151   1.549   1.469 -1.1092 -1.2707  0.0235
  650SOL    HW2 1950   2.219   1.699   1.469  1.5092 -0.6369 -1.8739
  651SOL     OW 1951   1.739   2.569   3.080 -0.0735  0.5062  0.3638
  651SOL    HW1 1952   1.670   2.583   3.002  1.7312 -0.2968  1.2313
  651SOL    HW2 1953   1.777   2.478   3.070 -1.5363  0.2597  0.6333
  652SOL     OW 1954   0.233   2.113   0.034 -0.6288  0.3892  1.0130
  652SOL    HW1 1955   0.157   2.047   0.046  1.7546  1.3572 -0.2992
  652SOL    HW2 1956   0.282   2.090   3.048  2.1965  2.1801  1.3957
  653SOL     OW 1957   2.884   2.962   0.943 -0.0879 -0.0366 -0.0490
  653SOL    HW1 1958   2.906   2.883   0.887  0.8854  0.2027 -0.7874
  653SOL    HW2 1959   2.787   2.991   0.926 -0.7379  1.2731 -0.0361
  654SOL     OW 1960   2.857   2.998   1.971 -0.1800  0.1607 -0.0971
  654SOL    HW1 1961   2.951   2.971   1.999  2.0878 -0.4632  0.0018
  654SOL    HW2 1962   2.850   3.018   1.876 -2.3661 -0.2603  2.2051
  655SOL     OW 1963   3.058   1.909   0.966  0.2908 -0.0552 -0.5726
  655SOL    HW1 1964   0.041   1.866   0.993 -3.8465  0.8082 -2.1488
  655SOL    HW2 1965   2.976   1.888   1.022  0.2539 -0.0140  1.2211
  656SOL     OW 1966   3.026   3.010   2.377 -0.1781  0.0554 -0.5711
  656SOL    HW1 1967   3.053   3.026   2.280 -0.0180  0.6581  1.8681
  656SOL    HW2 1968   2.962   2.929   2.376 -1.2389 -0.3398 -0.9697
  657SOL     OW 1969   2.762   1.344   2.892  0.1010  0.2981  0.0330
  657SOL    HW1 1970   2.773   1.253   2.844  0.6443 -1.9011 -0.9326
  657SOL    HW2 1971   2.692   1.338   2.968  0.0029  0.4629  4.0697
  658SOL     OW 1972   2.508   1.765   1.035  0.5538  0.5703  0.4395
  658SOL    HW1 1973   2.460   1.684   1.078 -1.8482 -1.8284  0.6837
  658SOL    HW2 1974   2.504   1.759   0.933  0.1986  3.1793  1.1240
  659SOL     OW 1975   1.569   0.318   0.926  0.1046  0.2330  0.0663
  659SOL    HW1 1976   1.597   0.299   1.019 -1.8112  0.6249 -4.6712
  659SOL    HW2 1977   1.537   0.236   0.881  1.4223  1.0622 -2.6286
  660SOL     OW 1978   1.595   1.371   2.992  0.4589 -0.5641  0.3690
  660SOL    HW1 1979   1.512   1.312   3.004 -0.7546 -0.9017  0.6756
  660SOL    HW2 1980   1.572   1.468   2.975  1.3708 -0.2844 -1.4724
  661SOL     OW 1981   0.324   2.115   0.998  0.4092  0.0820 -0.3675
  661SOL    HW1 1982   0.297   2.040   0.937 -0.7393  0.1674 -1.0170
  661SOL    HW2 1983   0.245   2.148   1.051 -3.1762 -1.6943 -1.3629
  662SOL     OW 1984   3.005   0.545   2.627 -0.5053 -0.8274  0.3608
  662SOL    HW1 1985   2.964   0.635   2.651  0.8063 -0.8553 -1.3096
  662SOL    HW2 1986   2.978   0.526   2.526 -0.0375 -0.9810 -3.8911
  663SOL     OW 1987   1.869   1.716   1.115  0.1163  0.4192  0.4472
  663SOL    HW1 1988   1.803   1.650   1.070  0.2756 -0.0350 -1.5847
  663SOL    HW2 1989   1.824   1.793   1.163 -1.4611 -2.3163 -0.6725
  664SOL     OW 1990   0.854   1.281   1.269 -0.1615 -0.1620  0.0177
  664SOL    HW1 1991   0.932   1.216   1.282  0.3158 -0.5936 -1.5327
  664SOL    HW2 1992   0.864   1.334   1.182 -0.5020 -0.6720  1.0507
  665SOL     OW 1993   1.524   2.891   2.452  0.7380  0.2894 -0.7599
  665SOL    HW1 1994   1.521   2.813   2.515 -0.5518  0.8208 -0.1039
  665SOL    HW2 1995   1.590   2.869   2.382  0.5634 -0.6594 -0.8415
  666SOL     OW 1996   2.875   2.910   2.722  0.1318  0.3050 -0.2965
  666SOL    HW1 1997   2.958   2.892   2.776 -0.6328 -0.7562 -0.2384
  666SOL    HW2 1998   2.841   3.002   2.747  0.2739 -0.8248 -1.1928
  667SOL     OW 1999   2.359   1.348   1.929  0.2268 -0.0642 -0.3781
  667SOL    HW1 2000   2.369   1.411   1.851  0.5178 -0.4292  1.1928
  667SOL    HW2 2001   2.361   1.247   1.903 -1.0702 -1.8113 -0.4891
  668SOL     OW 2002   0.365   1.258   2.658 -0.2368 -0.0500  0.3006
  668SOL    HW1 2003   0.306   1.304   2.720  0.7296 -0.2610 -0.6964
  668SOL    HW2 2004   0.331   1.289   2.565  0.8371  0.9287 -1.7394
  669SOL     OW 2005   2.195   2.346   2.514 -0.0435 -0.4247  0.2809
  669SOL    HW1 2006   2.231   2.309   2.424 -3.3405  2.2949 -0.6734
  669SOL    HW2 2007   2.264   2.322   2.585  0.7160  1.4366 -1.5968
  670SOL     OW 2008   2.327   1.083   1.928  0.2341  0.1361 -0.2640
  670SOL    HW1 2009   2.248   1.050   1.984 -0.7946  4.0365 -0.7666
  670SOL    HW2 2010   2.290   1.092   1.828  1.3656 -0.5444 -2.0170
  671SOL     OW 2011   2.425   1.284   0.150 -0.2405 -0.0338 -0.0890
  671SOL    HW1 2012   2.506   1.240   0.106 -0.7908 -0.5462  1.0961
  671SOL    HW2 2013   2.399   1.369   0.101 -2.3661  2.7726  1.7341
  672SOL     OW 2014   2.601   1.016   2.203  0.1427 -0.0696  0.5033
  672SOL    HW1 2015   2.587   1.041   2.106 -1.2253 -0.4534  0.9729
  672SOL    HW2 2016   2.599   1.098   2.259 -2.9134  1.6850 -1.5441
  673SOL     OW 2017   2.921   0.786   1.933 -0.1830  0.0538  0.4745
  673SOL    HW1 2018   2.876   0.859   1.996 -0.8872  1.4131  2.0192
  673SOL    HW2 2019   3.013   0.760   1.963 -1.6932 -2.2922  1.1406
  674SOL     OW 2020   2.038   1.883   1.459  0.3420 -0.0991 -0.1852
  674SOL    HW1 2021   1.937   1.858   1.454  0.5027  1.7038 -2.0006
  674SOL    HW2 2022   2.058   1.967   1.406 -1.2760  0.8140 -0.1510
  675SOL     OW 2023   0.443   0.586   0.865  0.2582  0.2188  0.5915
  675SOL    HW1 2024   0.412   0.648   0.941 -1.2746  0.0941  2.5003
  675SOL    HW2 2025   0.455   0.491   0.892 -1.4588  2.5401  0.0460
  676SOL     OW 2026   1.555   1.209   1.172  0.4031  0.3499  0.2687
  676SOL    HW1 2027   1.574   1.299   1.134 -0.6006 -2.4775 -2.3479
  676SOL    HW2 2028   1.541   1.207   1.271 -0.7444  2.9179 -1.0443
  677SOL     OW 2029   2.481   1.420   2.167  0.4880 -0.1371 -0.3078
  677SOL    HW1 2030   2.414   1.408   2.090 -2.0794  1.8900  0.4462
  677SOL    HW2 2031   2.472   1.515   2.204  0.5961  2.9013  0.1065
  678SOL     OW 2032   0.250   1.539   0.587  0.0255 -0.6296 -0.2761
  678SOL    HW1 2033   0.312   1.468   0.545 -0.3760 -0.1216 -2.6709
  678SOL    HW2 2034   0.155   1.508   0.582 -1.3254  0.8803 -1.7461
  679SOL     OW 2035   2.574   2.464   0.454  0.9774  0.7432  0.3049
  679SOL    HW1 2036   2.519   2.526   0.511  1.0617 -0.8589 -1.7255
  679SOL    HW2 2037   2.659   2.508   0.425 -3.3376 -3.1986  3.3989
  680SOL     OW 2038   2.794   2.292   1.533 -0.0929 -0.1408  0.3963
  680SOL    HW1 2039   2.707   2.277   1.479  0.8720  1.8882 -1.3498
  680SOL    HW2 2040   2.867   2.223   1.513  1.9573 -0.1652  1.1355
  681SOL     OW 2041   0.394   1.349   1.182 -0.0375  0.4592  0.1993
  681SOL    HW1 2042   0.454   1.285   1.133 -0.0877  2.5168  1.1075
  681SOL    HW2 2043   0.331   1.405   1.118  0.0893  0.7698 -1.6866
  682SOL     OW 2044   1.610   2.480   0.778 -0.1008 -0.2277  0.1561
  682SOL    HW1 2045   1.557   2.522   0.857  1.4073  1.6688  1.3923
  682SOL    HW2 2046   1.573   2.386   0.758  1.9069  0.7275 -0.6439
  683SOL     OW 2047   2.343   1.276   0.610 -0.7318 -0.1899 -1.0346
  683SOL    HW1 2048   2.399   1.303   0.690  0.9727  0.3352 -4.6247
  683SOL    HW2 2049   2.399   1.276   0.521  1.0182 -0.3351 -1.3541
  684SOL     OW 2050   0.820   2.211   1.969  0.0968  0.5811 -0.0213
  684SOL    HW1 2051   0.922   2.195   1.974  0.2266  0.8859 -0.7728
  684SOL    HW2 2052   0.791   2.171   1.881  0.5224  1.4112 -1.5435
  685SOL     OW 2053   2.004   1.402   0.085 -0.1828  0.4935  0.3837
  685SOL    HW1 2054   2.049   1.343   0.155  2.6243 -0.6877 -0.1894
  685SOL    HW2 2055   1.963   1.354   0.006 -1.3269  0.5570 -0.1314
  686SOL     OW 2056   0.359   0.453   0.641 -0.0360 -0.0177  0.5850
  686SOL    HW1 2057   0.373   0.359   0.679  0.9983 -0.1232 -0.9504
  686SOL    HW2 2058   0.397   0.525   0.698  0.7006 -0.4460 -1.2950
  687SOL     OW 2059   1.306   2.566   2.824 -0.0655  0.1692  0.1164
  687SOL    HW1 2060   1.221   2.601   2.869  0.4956 -1.0760  1.3149
  687SOL    HW2 2061   1.343   2.483   2.878  2.2660 -1.3764 -0.4111
  688SOL     OW 2062   2.269   1.984   1.949  0.0794 -0.0970 -0.1345
  688SOL    HW1 2063   2.357   1.951   1.988  0.8461 -0.0996  0.9162
  688SOL    HW2 2064   2.277   2.005   1.850  1.2750  0.6172  1.1208
  689SOL     OW 2065   2.380   0.704   2.037  0.0200  0.4405 -0.3526
  689SOL    HW1 2066   2.472   0.673   2.064 -2.0742  1.3453 -0.5236
  689SOL    HW2 2067   2.348   0.770   2.106 -2.3150  1.0329 -0.5548
  690SOL     OW 2068   1.961   0.753   1.526  0.4558  0.3068 -0.4796
  690SOL    HW1 2069   1.904   0.819   1.471 -1.8519  1.8477 -1.8820
  690SOL    HW2 2070   2.022   0.790   1.601  1.8766 -1.9733  2.6392
  691SOL     OW 2071   1.052   2.013   1.420  0.0578  0.6092  0.4547
  691SOL    HW1 2072   0.977   1.950   1.435  2.0309 -1.4093 -0.2129
  691SOL    HW2 2073   1.029   2.073   1.341 -1.1003  0.7660  0.7351
  692SOL     OW 2074   1.806   0.131   1.624  0.0047  0.3006  0.6018
  692SOL    HW1 2075   1.728   0.173   1.678 -4.3139  0.1463  2.3803
  692SOL    HW2 2076   1.874   0.202   1.597 -2.7288 -0.6078  0.2432
  693SOL     OW 2077   0.573   1.086   2.636 -0.1724 -0.8092  0.0409
  693SOL    HW1 2078   0.546   1.010   2.695  0.4888  1.7126 -0.5558
  693SOL    HW2 2079   0.506   1.159   2.632  1.7361 -0.3521 -1.6841
  694SOL     OW 2080   2.113   2.838   1.114 -0.3585 -0.0531 -0.6055
  694SOL    HW1 2081   2.087   2.784   1.034  1.7228  1.3933  1.9863
  694SOL    HW2 2082   2.160   2.784   1.187 -0.5889 -0.3540  2.2346
  695SOL     OW 2083   1.490   1.331   2.077  0.2684  0.0019  0.4168
  695SOL    HW1 2084   1.471   1.361   1.981  0.2336 -0.5316 -1.0918
  695SOL    HW2 2085   1.454   1.404   2.140 -1.7138 -0.1145  1.3872
  696SOL     OW 2086   1.847   0.418   1.197  0.3035 -0.8824  0.6477
  696SOL    HW1 2087   1.883   0.342   1.139 -0.2158  2.2794  0.1289
  696SOL    HW2 2088   1.919   0.477   1.238  1.1445  1.4452 -1.2316
  697SOL     OW 2089   1.364   0.130   1.080 -0.1859  0.1207  0.0209
  697SOL    HW1 2090   1.368   0.029   1.060 -0.7569 -3.4403 -0.1304
  697SOL    HW2 2091   1.446   0.161   1.134  3.3491 -1.9972  1.0123
  698SOL     OW 2092   1.695   1.125   2.065 -0.2204  0.2030 -0.1679
  698SOL    HW1 2093   1.781   1.165   2.024 -1.4064 -0.9995  0.5582
  698SOL    HW2 2094   1.616   1.185   2.079  1.4038 -1.4722 -1.3847
  699SOL     OW 2095   1.541   1.239   1.450 -0.2493 -0.0097  0.7846
  699SOL    HW1 2096   1.446   1.214   1.457  3.6705  1.4905 -1.7194
  699SOL    HW2 2097   1.577   1.289   1.532  0.1653  0.1283  1.1795
  700SOL     OW 2098   1.516   0.141   0.358  0.0152 -0.5673 -0.1286
  700SOL    HW1 2099   1.594   0.154   0.296 -0.5650 -1.5417  0.5805
  700SOL    HW2 2100   1.431   0.148   0.307  2.6788  2.1546 -0.3861
  701SOL     OW 2101   0.288   2.971   1.668  0.0955 -0.4639  0.9403
  701SOL    HW1 2102   0.356   3.047   1.646 -1.5780  1.2952 -0.3150
  701SOL    HW2 2103   0.314   2.896   1.598 -0.8941 -1.3622  1.5654
  702SOL     OW 2104   1.204   2.870   0.124 -0.0652  0.0591 -0.0596
  702SOL    HW1 2105   1.262   2.793   0.143 -1.6692 -1.6000  1.9104
  702SOL    HW2 2106   1.232   2.928   0.045  1.0938  0.8560 -0.8806
  703SOL     OW 2107   2.567   0.364   2.199 -0.3352 -0.5511  0.4540
  703SOL    HW1 2108   2.511   0.440   2.241 -0.1404  0.5618 -0.9565
  703SOL    HW2 2109   2.510   0.284   2.172  0.9092  0.9603  0.0931
  704SOL     OW 2110   1.233   2.245   1.059 -0.1589 -0.0001  0.1149
  704SOL    HW1 2111   1.317   2.195   1.039 -1.7410  0.4054 -0.2977
  704SOL    HW2 2112   1.249   2.304   1.146 -1.1460  0.6363  1.6880
  705SOL     OW 2113   3.063   1.273   2.136 -0.3498  0.1953  0.2282
  705SOL    HW1 2114   3.003   1.224   2.205 -1.4189 -0.4329  0.7518
  705SOL    HW2 2115   3.041   1.239   2.039 -0.8529  0.7484 -1.2655
  706SOL     OW 2116   1.491   0.130   0.626  0.2929  0.0096  0.0330
  706SOL    HW1 2117   1.409   0.165   0.674 -0.9683  2.6597  1.0491
  706SOL    HW2 2118   1.474   0.122   0.528 -1.7443  1.9084  2.6220
  707SOL     OW 2119   1.089   2.234   2.275 -0.0086  0.1352 -0.3221
  707SOL    HW1 2120   1.008   2.270   2.333 -2.2052  0.0946  2.3574
  707SOL    HW2 2121   1.163   2.187   2.332  2.9027 -0.3194  1.2795
  708SOL     OW 2122   2.946   2.059   1.242  0.1031  0.1107 -0.4757
  708SOL    HW1 2123   2.995   1.974   1.262 -2.4220  0.4406 -0.0083
  708SOL    HW2 2124   2.907   2.095   1.328 -1.3303  1.9614 -0.0658
  709SOL     OW 2125   1.822   0.482   1.892 -0.1173  0.6776 -0.5622
  709SOL    HW1 2126   1.892   0.413   1.910  1.1981  1.3391  0.6558
  709SOL    HW2 2127   1.797   0.541   1.973  0.0819  1.4898  0.2879
  710SOL     OW 2128   2.935   0.250   1.324  0.6582  0.5968  0.1025
  710SOL    HW1 2129   2.851   0.202   1.282  2.7219  0.4513  2.3493
  710SOL    HW2 2130   2.941   0.347   1.290 -0.2716  0.3417 -0.5183
  711SOL     OW 2131   0.269   2.416   0.825 -0.1372 -0.0211  0.1621
  711SOL    HW1 2132   0.338   2.409   0.894 -2.7262  2.1069  0.2551
  711SOL    HW2 2133   0.207   2.334   0.827 -1.0968  1.1382  1.0003
  712SOL     OW 2134   3.081   2.288   2.478  0.1811  0.0293 -0.0541
  712SOL    HW1 2135   3.068   2.187   2.468  0.1668  2.6436  1.4508
  712SOL    HW2 2136   0.050   2.320   2.417 -3.8003 -1.4228  2.9676
  713SOL     OW 2137   1.647   0.601   0.287  0.1877 -0.0864  0.2177
  713SOL    HW1 2138   1.628   0.693   0.329  1.5018 -1.1980 -1.6415
  713SOL    HW2 2139   1.651   0.625   0.187 -0.4963  1.1919 -1.1026
  714SOL     OW 2140   1.451   1.819   0.339 -0.2605  0.2222  0.0285
  714SOL    HW1 2141   1.424   1.892   0.278  0.9368 -2.3428  2.4815
  714SOL    HW2 2142   1.372   1.754   0.342 -0.0677  1.7594 -0.7225
  715SOL     OW 2143   2.579   0.124   0.563  0.5403 -0.2197  0.1873
  715SOL    HW1 2144   2.640   0.199   0.600  1.6547  0.4792 -0.5019
  715SOL    HW2 2145   2.561   0.052   0.632  3.6086 -0.7111 -0.7924
  716SOL     OW 2146   0.508   0.375   2.401 -0.1682  0.0769  0.0890
  716SOL    HW1 2147   0.551   0.390   2.494 -0.2994  3.2288  1.3868
  716SOL    HW2 2148   0.420   0.327   2.413  1.3220  2.2694  2.2367
  717SOL     OW 2149   0.161   0.202   2.764  0.6436 -0.4417 -0.5373
  717SOL    HW1 2150   0.171   0.104   2.786 -0.0116  1.0613  0.5958
  717SOL    HW2 2151   0.061   0.222   2.748  0.6551  2.0786  0.7084
  718SOL     OW 2152   0.991   0.670   0.522  0.1304 -0.2058 -0.1336
  718SOL    HW1 2153   1.030   0.654   0.615 -0.5755  3.4957  0.6217
  718SOL    HW2 2154   1.038   0.621   0.444 -3.1935 -0.4522 -0.9311
  719SOL     OW 2155   2.557   2.106   2.766 -0.1521 -1.0306  0.1214
  719SOL    HW1 2156   2.574   2.005   2.760 -0.9716 -0.8353 -1.1924
  719SOL    HW2 2157   2.630   2.159   2.717  1.3086 -1.3794 -0.3361
  720SOL     OW 2158   1.394   0.988   1.170  0.2832 -0.2860 -0.2732
  720SOL    HW1 2159   1.422   1.087   1.171 -2.7164  0.0840 -0.2071
  720SOL    HW2 2160   1.306   0.980   1.218  1.9318 -0.6137 -0.1810
  721SOL     OW 2161   2.933   0.783   0.494  0.5277  1.0949  0.4506
  721SOL    HW1 2162   2.839   0.783   0.536  1.3060 -1.8674  1.7419
  721SOL    HW2 2163   3.005   0.758   0.564 -0.5070  1.5683 -1.9656
  722SOL     OW 2164   1.311   1.804   2.557  0.1373 -0.2032  0.4692
  722SOL    HW1 2165   1.267   1.869   2.630  1.7337  0.1233  0.2854
  722SOL    HW2 2166   1.331   1.718   2.607  0.6755  0.4825 -2.3117
  723SOL     OW 2167   0.634   0.640   0.392  0.1439  0.3613  0.4377
  723SOL    HW1 2168   0.660   0.595   0.477  2.6177  1.2333 -3.4512
  723SOL    HW2 2169   0.616   0.737   0.402 -1.3710 -1.1223  1.4982
  724SOL     OW 2170   0.993   2.101   1.680 -0.0182  0.0684 -0.0007
  724SOL    HW1 2171   1.000   2.072   1.580 -1.7052 -0.6025 -0.4879
  724SOL    HW2 2172   0.892   2.125   1.698 -0.3701 -3.4319 -1.6839
  725SOL     OW 2173   0.185   0.920   1.440 -0.0750 -0.0659  0.0154
  725SOL    HW1 2174   0.218   1.011   1.402 -1.2697  1.5020 -0.3522
  725SOL    HW2 2175   0.242   0.901   1.525  1.0431  0.1642  0.7934
  726SOL     OW 2176   1.575   0.436   0.684 -0.4200 -0.1325 -0.6753
  726SOL    HW1 2177   1.609   0.395   0.774  1.7830  0.7206 -0.6536
  726SOL    HW2 2178   1.520   0.372   0.627  0.0516 -0.8227 -1.0543
  727SOL     OW 2179   1.504   0.956   2.395  0.5443 -0.7456  0.2984
  727SOL    HW1 2180   1.448   1.013   2.327  1.2853  1.9890  0.6711
  727SOL    HW2 2181   1.444   0.888   2.445 -0.7402 -0.7900  0.5485
  728SOL     OW 2182   1.662   2.508   1.137  0.2195 -0.6626 -0.4416
  728SOL    HW1 2183   1.578   2.542   1.087 -0.9270 -1.4946 -1.9085
  728SOL    HW2 2184   1.718   2.575   1.187 -2.1081  2.0262 -0.1115
  729SOL     OW 2185   1.293   0.526   1.455  0.1486  0.3861  0.3292
  729SOL    HW1 2186   1.272   0.515   1.353  1.5595 -0.8488 -3.0967
  729SOL    HW2 2187   1.317   0.443   1.502  0.4790  0.2939 -1.8195
  730SOL     OW 2188   0.718   2.122   1.707 -0.8531  0.2026 -0.4131
  730SOL    HW1 2189   0.636   2.066   1.686  0.4100  0.6342  2.2862
  730SOL    HW2 2190   0.738   2.195   1.641  1.6500  0.4474 -1.1386
  731SOL     OW 2191   0.433   0.192   0.269  0.2769 -0.1826  0.5120
  731SOL    HW1 2192   0.383   0.134   0.336  2.0789  1.0950 -1.0689
  731SOL    HW2 2193   0.459   0.139   0.185  3.7765 -1.8082 -0.8537
  732SOL     OW 2194   0.737   0.384   2.956  0.2637 -0.4970 -0.3445
  732SOL    HW1 2195   0.773   0.377   3.050  1.9513 -3.1704  0.8764
  732SOL    HW2 2196   0.655   0.446   2.954 -0.4136  0.9181 -1.0672
  733SOL     OW 2197   1.316   1.900   1.442 -0.1526 -0.4236 -0.1523
  733SOL    HW1 2198   1.322   1.841   1.527  3.0108 -3.0572  1.0833
  733SOL    HW2 2199   1.224   1.933   1.433  1.1303 -1.8567  0.8478
  734SOL     OW 2200   2.887   2.809   2.443  0.1685 -0.6146 -0.2498
  734SOL    HW1 2201   2.834   2.721   2.434 -0.2118 -0.6983 -1.0454
  734SOL    HW2 2202   2.889   2.849   2.536  0.8675  0.3011 -0.8915
  735SOL     OW 2203   0.871   2.655   0.847  0.2395  0.4539  0.2402
  735SOL    HW1 2204   0.831   2.688   0.758 -1.7782 -0.0353  0.6127
  735SOL    HW2 2205   0.926   2.567   0.838  3.2862  0.1639 -2.0226
  736SOL     OW 2206   1.528   0.664   2.731 -0.6044 -0.2829  0.4360
  736SOL    HW1 2207   1.487   0.674   2.639  1.3420  2.3403  1.5672
  736SOL    HW2 2208   1.529   0.759   2.770 -1.0376  0.1151 -2.3289
  737SOL     OW 2209   2.998   0.655   0.260  0.1643 -0.0006  0.2509
  737SOL    HW1 2210   3.094   0.630   0.279 -1.7030 -0.3092  0.5561
  737SOL    HW2 2211   2.971   0.704   0.346  0.0187 -0.3943 -0.3727
  738SOL     OW 2212   0.137   2.637   1.542 -0.3890  0.3565 -0.1921
  738SOL    HW1 2213   0.050   2.572   1.548 -3.7637 -2.1330 -0.0687
  738SOL    HW2 2214   0.127   2.680   1.450  0.3606 -0.2571  0.2947
  739SOL     OW 2215   1.576   2.995   0.805 -0.3514  0.7546  0.0508
  739SOL    HW1 2216   1.496   2.934   0.801  2.6107  3.2141 -2.4708
  739SOL    HW2 2217   1.578   3.054   0.722 -2.7019 -2.0744 -1.7543
  740SOL     OW 2218   1.541   2.951   1.265  0.5744  0.3305  0.0026
  740SOL    HW1 2219   1.607   2.940   1.189  1.1480 -0.9459  0.3789
  740SOL    HW2 2220   1.515   2.856   1.304 -0.2704 -1.5986 -1.4253
  741SOL     OW 2221   2.020   0.482   0.918 -1.3455 -0.7092 -0.2934
  741SOL    HW1 2222   1.974   0.564   0.957  2.2992  0.7611  0.4434
  741SOL    HW2 2223   1.988   0.472   0.826  0.8779  0.6482 -0.6353
  742SOL     OW 2224   1.523   2.197   1.993 -0.1562  0.0015 -0.1503
  742SOL    HW1 2225   1.619   2.212   1.978 -1.1376 -1.8143  2.0026
  742SOL    HW2 2226   1.462   2.257   1.937  0.7014 -0.4999  0.4401
  743SOL     OW 2227   2.137   0.328   2.149  0.1354  0.5432 -0.3441
  743SOL    HW1 2228   2.120   0.425   2.116 -1.6852 -0.2444  1.3715
  743SOL    HW2 2229   2.044   0.286   2.168  0.0491  0.2166  2.4589
  744SOL     OW 2230   2.464   0.564   1.036 -0.2597  0.2389 -0.1682
  744SOL    HW1 2231   2.485   0.638   0.970 -1.6887  0.7518 -0.5425
  744SOL    HW2 2232   2.396   0.595   1.103 -0.1909  1.3734 -0.7040
  745SOL     OW 2233   2.051   1.578   1.736 -0.3081  0.0407  0.0841
  745SOL    HW1 2234   2.099   1.614   1.654  0.1175  0.1461  0.4285
  745SOL    HW2 2235   2.098   1.616   1.820 -0.1754 -1.2147 -0.2221
  746SOL     OW 2236   0.995   1.694   0.899  0.0147  0.5089  0.0564
  746SOL    HW1 2237   0.907   1.669   0.942  3.4557  0.4680 -3.7615
  746SOL    HW2 2238   1.048   1.748   0.968 -2.3857  2.1780  1.6043
  747SOL     OW 2239   1.812   1.148   1.121 -0.0319 -0.2236  0.0077
  747SOL    HW1 2240   1.710   1.141   1.139 -0.9311 -1.8685 -0.8634
  747SOL    HW2 2241   1.854   1.059   1.147 -0.0650  2.2197 -1.1496
  748SOL     OW 2242   0.256   3.001   0.156 -0.1790 -0.0062  0.6653
  748SOL    HW1 2243   0.221   3.068   0.226 -1.4291  0.9069  0.3779
  748SOL    HW2 2244   0.226   2.910   0.195 -0.2423  2.6508  2.9213
  749SOL     OW 2245   0.286   0.205   2.350  0.0825 -0.4915  0.4815
  749SOL    HW1 2246   0.275   0.224   2.251  0.0059 -0.0933  1.5227
  749SOL    HW2 2247   0.221   0.134   2.386 -0.5378 -1.3982 -1.3071
  750SOL     OW 2248   1.846   3.010   1.461  0.2780 -0.1518  0.5467
  750SOL    HW1 2249   1.862   3.088   1.526 -0.0332  0.1226 -1.1159
  750SOL    HW2 2250   1.790   2.936   1.503  2.5855 -0.4300 -2.2034
  751SOL     OW 2251   2.933   0.264   0.453 -0.0179  0.0907 -0.4257
  751SOL    HW1 2252   2.917   0.322   0.375 -1.7313  1.4462  0.5162
  751SOL    HW2 2253   2.868   0.282   0.527  2.0083  1.1790 -1.4872
  752SOL     OW 2254   0.147   2.897   1.049  0.2136 -0.4371 -0.0221
  752SOL    HW1 2255   0.155   2.812   0.994  0.1977  0.0139 -0.4035
  752SOL    HW2 2256   0.054   2.899   1.093 -1.4630  0.1173 -1.5588
  753SOL     OW 2257   0.975   0.388   1.313 -0.1274  0.1204 -0.4458
  753SOL    HW1 2258   0.993   0.327   1.392 -0.6357  1.9695 -1.9777
  753SOL    HW2 2259   1.022   0.350   1.229  1.4389  0.5188  0.6531
  754SOL     OW 2260   0.990   2.716   2.203 -0.2189  0.4515 -0.0080
  754SOL    HW1 2261   1.036   2.625   2.181 -0.1060 -0.4058  1.1983
  754SOL    HW2 2262   0.889   2.722   2.184 -0.3534 -0.2272 -2.0692
  755SOL     OW 2263   2.509   1.321   0.401  0.3373 -0.0273 -0.5259
  755SOL    HW1 2264   2.562   1.409   0.404  1.0585 -0.1356  0.2464
  755SOL    HW2 2265   2.459   1.301   0.312 -0.3090  1.4015 -2.3285
  756SOL     OW 2266   1.919   2.078   2.690 -0.1071  0.1149  0.1160
  756SOL    HW1 2267   1.840   2.053   2.749 -0.3068  0.5401 -1.6401
  756SOL    HW2 2268   1.993   2.005   2.700 -1.5361 -0.7242  0.5958
  757SOL     OW 2269   1.959   0.051   0.778 -0.5157 -0.4453  0.4211
  757SOL    HW1 2270   1.917   0.007   0.861  3.0541 -0.5966 -1.9430
  757SOL    HW2 2271   1.890   0.081   0.709  1.4157  2.2070  2.7461
  758SOL     OW 2272   1.269   2.394   0.764  0.1427 -0.4334 -0.6506
  758SOL    HW1 2273   1.326   2.328   0.809 -2.6244  0.7547  0.0169
  758SOL    HW2 2274   1.262   2.378   0.662 -1.9858  0.8510  2.0058
  759SOL     OW 2275   2.687   0.438   1.178  0.5921  0.3729  0.1577
  759SOL    HW1 2276   2.614   0.494   1.131  0.5483  0.5470 -1.4265
  759SOL    HW2 2277   2.658   0.396   1.265 -0.0341 -1.3549  1.4806
  760SOL     OW 2278   2.180   1.106   1.407  0.2091  0.2160 -0.2922
  760SOL    HW1 2279   2.179   1.010   1.375 -1.8283  0.9965  0.2572
  760SOL    HW2 2280   2.249   1.162   1.364 -0.5405 -1.2003  1.0618
  761SOL     OW 2281   0.235   0.886   0.674  0.7363  0.4121  0.1869
  761SOL    HW1 2282   0.309   0.915   0.611 -1.7419 -1.3712  0.6664
  761SOL    HW2 2283   0.268   0.874   0.767 -3.0461 -1.5206 -2.4974
  762SOL     OW 2284   2.123   1.736   1.212 -0.0390 -0.0001  0.0201
  762SOL    HW1 2285   2.049   1.697   1.160  1.2416  1.4981  3.6069
  762SOL    HW2 2286   2.084   1.793   1.285 -0.0581 -0.5654 -1.0541
  763SOL     OW 2287   1.127   1.564   1.631 -0.0731 -0.3148  0.7295
  763SOL    HW1 2288   1.150   1.541   1.533  1.3621  0.7396  1.2400
  763SOL    HW2 2289   1.188   1.638   1.668  0.5185 -0.2630  0.0757
  764SOL     OW 2290   0.125   1.955   2.111 -0.3223 -0.0028  0.1582
  764SOL    HW1 2291   0.063   1.897   2.051  0.4057  0.1046 -1.9528
  764SOL    HW2 2292   0.154   1.913   2.202 -1.7828 -3.3688 -1.5493
  765SOL     OW 2293   1.634   2.202   1.245 -0.0583  0.0061  0.3614
  765SOL    HW1 2294   1.584   2.182   1.332  4.2133 -0.1074 -3.5051
  765SOL    HW2 2295   1.656   2.300   1.249  4.8744  2.6397  1.6279
  766SOL     OW 2296   0.209   2.611   2.358 -0.3239  0.0610 -0.4224
  766SOL    HW1 2297   0.190   2.649   2.452 -1.2787  2.3084  2.6991
  766SOL    HW2 2298   0.134   2.631   2.288 -3.3267  1.0390 -3.1996
  767SOL     OW 2299   1.351   0.727   2.451  0.6392  0.1143 -0.1656
  767SOL    HW1 2300   1.357   0.625   2.437  2.3242  0.4664 -0.7602
  767SOL    HW2 2301   1.275   0.768   2.394 -0.7935  1.7056 -3.2414
  768SOL     OW 2302   1.360   2.342   2.986  0.1948  0.1878  0.3725
  768SOL    HW1 2303   1.462   2.330   2.982  1.1015  0.4562 -1.0476
  768SOL    HW2 2304   1.311   2.298   3.065  1.6924  1.1106 -1.6059
  769SOL     OW 2305   0.072   2.709   1.293 -0.3091 -0.6159 -0.4049
  769SOL    HW1 2306   3.088   2.737   1.239 -1.5080  1.9110 -3.7554
  769SOL    HW2 2307   0.132   2.650   1.235 -1.5922 -0.4006  1.1471
  770SOL     OW 2308   1.598   0.380   2.783  0.1047 -0.2170 -0.0175
  770SOL    HW1 2309   1.699   0.355   2.794  0.0420  1.5682 -0.4314
  770SOL    HW2 2310   1.587   0.485   2.778 -2.1463  4.3503  1.6668
  771SOL     OW 2311   0.468   0.066   2.564  0.2925 -0.3004  0.1912
  771SOL    HW1 2312   0.476   0.123   2.649  0.6603 -0.7962 -1.0277
  771SOL    HW2 2313   0.403   0.112   2.504  3.1527  2.8664  1.3527
  772SOL     OW 2314   2.318   0.038   1.881  0.6627 -0.0729 -0.3396
  772SOL    HW1 2315   2.244   0.088   1.837  1.3632 -2.0903 -3.0512
  772SOL    HW2 2316   2.339   3.056   1.823  1.3256  2.6178 -1.1668
  773SOL     OW 2317   1.070   2.430   1.926  0.0411 -0.0537 -0.3601
  773SOL    HW1 2318   1.056   2.459   2.022 -0.1920 -1.8037  0.1258
  773SOL    HW2 2319   1.005   2.478   1.863 -0.9761  0.6284  1.2030
  774SOL     OW 2320   1.063   0.263   1.817  0.1957 -0.1051  0.5851
  774SOL    HW1 2321   1.130   0.334   1.802 -0.8725 -2.7150  0.2411
  774SOL    HW2 2322   0.993   0.302   1.879  0.1147  0.8992 -1.9101
  775SOL     OW 2323   2.021   2.623   0.089  0.0117  0.0433  0.4430
  775SOL    HW1 2324   1.928   2.637   0.114  2.6211 -0.4405 -0.1029
  775SOL    HW2 2325   2.033   2.535   0.041  0.6959  2.3824  1.4949
  776SOL     OW 2326   2.127   0.622   2.341 -0.7437 -0.3190  0.1098
  776SOL    HW1 2327   2.065   0.700   2.359  0.5638 -0.5541  0.2641
  776SOL    HW2 2328   2.113   0.585   2.248 -0.5750 -2.2405  0.8727
  777SOL     OW 2329   2.223   1.147   2.547 -0.3323  0.5442  0.6648
  777SOL    HW1 2330   2.148   1.124   2.612  1.1186  1.8851 -2.2016
  777SOL    HW2 2331   2.296   1.202   2.590 -2.8549 -0.8211  2.8035
  778SOL     OW 2332   1.969   0.831   2.369 -0.3280 -0.5151  0.3782
  778SOL    HW1 2333   1.888   0.845   2.314 -0.9116  0.7320 -0.9705
  778SOL    HW2 2334   1.943   0.878   2.457 -0.7562 -1.4756  0.9173
  779SOL     OW 2335   0.077   3.045   3.079 -0.0303 -0.7309  0.9528
  779SOL    HW1 2336   0.157   3.039   0.035 -3.8407  1.3376 -1.0451
  779SOL    HW2 2337   0.043   0.042   3.069 -0.9529  0.7930  1.1150
  780SOL     OW 2338   2.244   0.482   2.974  0.0734  0.0280  0.8051
  780SOL    HW1 2339   2.328   0.432   2.935  1.5422  1.2128 -2.3547
  780SOL    HW2 2340   2.261   0.560   3.037  0.0977  0.7596  1.1879
  781SOL     OW 2341   0.384   2.816   1.480  0.0707 -0.3669  0.0969
  781SOL    HW1 2342   0.408   2.867   1.393  0.8013 -0.5306  0.3620
  781SOL    HW2 2343   0.348   2.726   1.452  1.9393  2.5322  0.9646
  782SOL     OW 2344   1.914   2.492   0.345  0.2316  0.1021 -0.1333
  782SOL    HW1 2345   1.868   2.511   0.433  1.1128  1.5800 -1.3991
  782SOL    HW2 2346   1.987   2.557   0.322  0.2541  0.8678  0.4148
  783SOL     OW 2347   0.718   1.489   1.702  0.3679  0.0008  0.3400
  783SOL    HW1 2348   0.715   1.444   1.612 -0.7231 -2.2109  0.3752
  783SOL    HW2 2349   0.661   1.445   1.775 -0.0319 -2.5396  0.0079
  784SOL     OW 2350   1.372   0.459   2.409 -0.4911 -0.0749 -0.2590
  784SOL    HW1 2351   1.429   0.375   2.418  2.0652 -1.9500 -0.7115
  784SOL    HW2 2352   1.298   0.441   2.343  1.1842 -1.9442 -0.7832
  785SOL     OW 2353   2.707   0.300   0.930 -0.6801  0.2095 -0.3315
  785SOL    HW1 2354   2.707   0.358   1.012 -1.4854  0.2474 -0.8180
  785SOL    HW2 2355   2.677   0.205   0.960  2.5285  0.0753 -1.7105
  786SOL     OW 2356   1.436   2.721   1.367  0.1883  0.3688 -0.3276
  786SOL    HW1 2357   1.524   2.710   1.422  0.3466 -0.6040 -0.9051
  786SOL    HW2 2358   1.401   2.637   1.320  1.8688 -0.0873 -2.0973
  787SOL     OW 2359   1.606   0.086   1.399 -0.6891 -0.6736  0.2738
  787SOL    HW1 2360   1.591   3.092   1.370 -0.1717 -0.0936 -0.0503
  787SOL    HW2 2361   1.680   0.099   1.464 -0.2088 -0.4002 -1.4938
  788SOL     OW 2362   2.782   1.004   0.229  0.3532 -0.4199  0.0741
  788SOL    HW1 2363   2.852   0.956   0.169 -0.4264 -3.6582  0.8535
  788SOL    HW2 2364   2.833   1.038   0.309  0.3459  1.0805  1.0202
  789SOL     OW 2365   0.432   1.845   1.785 -0.4475  0.3056  0.4082
  789SOL    HW1 2366   0.391   1.919   1.843 -2.8485  0.3760 -1.7095
  789SOL    HW2 2367   0.462   1.763   1.839  0.2813  0.2540 -0.0445
  790SOL     OW 2368   0.413   0.616   2.648  0.4533 -0.1591  0.2150
  790SOL    HW1 2369   0.460   0.526   2.651 -1.2934 -3.2273  0.7940
  790SOL    HW2 2370   0.312   0.603   2.674 -4.3818 -1.4909 -0.7797
  791SOL     OW 2371   2.143   0.767   0.866 -0.2756 -0.7908  0.0492
  791SOL    HW1 2372   2.051   0.741   0.897 -1.0131  1.5102 -0.5033
  791SOL    HW2 2373   2.138   0.855   0.819 -0.6518 -0.0882 -1.2340
  792SOL     OW 2374   1.280   2.886   1.514  0.0698  0.3272  0.5449
  792SOL    HW1 2375   1.251   2.846   1.607 -0.6277 -0.2869  4.2065
  792SOL    HW2 2376   1.348   2.822   1.468  3.0283 -1.4175  2.5609
  793SOL     OW 2377   0.292   3.057   0.906 -0.1842  0.4183 -0.0240
  793SOL    HW1 2378   0.237   3.004   0.978 -1.1522 -3.1809  2.9494
  793SOL    HW2 2379   0.385   3.076   0.947  2.2954 -1.0412  3.6701
  794SOL     OW 2380   0.410   0.740   2.380 -0.1309 -0.5541  0.0643
  794SOL    HW1 2381   0.394   0.728   2.482 -0.1590  1.2887  0.8984
  794SOL    HW2 2382   0.378   0.658   2.323  0.7306  0.3158  0.7236
  795SOL     OW 2383   0.523   2.400   2.465 -0.0854 -0.7503 -0.1640
  795SOL    HW1 2384   0.506   2.305   2.494 -0.4250 -1.1830  0.0620
  795SOL    HW2 2385   0.620   2.424   2.472 -2.5426 -0.0557  1.7842
  796SOL     OW 2386   2.122   0.368   2.456  0.0105  0.4770  0.1096
  796SOL    HW1 2387   2.132   0.471   2.444  0.1250  0.0322 -2.0575
  796SOL    HW2 2388   2.172   0.312   2.386  1.9368  1.8081  0.6083
  797SOL     OW 2389   2.275   2.609   2.460  0.3773 -0.3072 -0.3295
  797SOL    HW1 2390   2.281   2.511   2.486 -0.0952  0.5534 -0.5354
  797SOL    HW2 2391   2.263   2.660   2.545 -3.5124 -1.1297  1.2960
  798SOL     OW 2392   0.189   0.309   2.077 -0.0386 -0.0274 -0.4863
  798SOL    HW1 2393   0.198   0.374   1.996  0.6513  3.8700 -1.5032
  798SOL    HW2 2394   0.119   0.233   2.049 -1.9578 -0.6668 -0.2454
  799SOL     OW 2395   0.762   2.428   2.160 -0.0338 -0.6893  0.2605
  799SOL    HW1 2396   0.770   2.365   2.080  0.2188 -1.0490  0.7857
  799SOL    HW2 2397   0.748   2.526   2.137  1.5398 -0.5394 -0.1253
  800SOL     OW 2398   3.039   2.144   0.247  0.4367 -0.3029 -0.2859
  800SOL    HW1 2399   3.091   2.060   0.264 -0.2493  2.8222  1.6189
  800SOL    HW2 2400   3.067   2.221   0.306 -0.5036 -0.1721  0.5126
  801SOL     OW 2401   1.662   1.634   0.917 -0.7673 -0.5469 -0.0017
  801SOL    HW1 2402   1.629   1.592   0.825 -0.1660 -1.8499 -1.3024
  801SOL    HW2 2403   1.688   1.732   0.903  2.5319  1.1345 -1.2972
  802SOL     OW 2404   0.136   0.506   0.497 -0.2294  0.1107 -0.2915
  802SOL    HW1 2405   0.223   0.500   0.552  1.8324 -2.7089 -1.1562
  802SOL    HW2 2406   0.099   0.411   0.481  0.9394 -0.0907 -0.6763
  803SOL     OW 2407   1.445   1.423   1.812  0.0767 -0.1010  0.4228
  803SOL    HW1 2408   1.542   1.408   1.777  1.4564 -0.8981  0.8519
  803SOL    HW2 2409   1.435   1.517   1.846  1.6730  1.7897 -0.6551
  804SOL     OW 2410   1.778   2.103   0.724  0.1828 -0.0386 -0.2194
  804SOL    HW1 2411   1.875   2.071   0.728  1.2972 -0.3259  2.6508
  804SOL    HW2 2412   1.720   2.045   0.787 -1.6048  1.7864  2.1664
  805SOL     OW 2413   2.922   1.874   2.669 -0.7265 -0.2410 -0.4117
  805SOL    HW1 2414   2.985   1.924   2.605  0.7528  1.5731  0.0221
  805SOL    HW2 2415   2.828   1.911   2.650  1.5794  0.0360 -0.8262
  806SOL     OW 2416   0.595   2.561   0.251  0.0851 -0.1971 -0.1813
  806SOL    HW1 2417   0.557   2.529   0.345 -2.1413 -1.0031  2.6438
  806SOL    HW2 2418   0.613   2.662   0.255  1.8101 -3.1004  1.7130
  807SOL     OW 2419   2.140   1.564   2.704  0.6630  0.6175 -0.3685
  807SOL    HW1 2420   2.226   1.599   2.744  0.4456  0.8274  2.8357
  807SOL    HW2 2421   2.058   1.613   2.744 -0.0125  1.6706 -0.5860
  808SOL     OW 2422   1.481   2.124   1.028 -0.1251  0.3080  0.0610
  808SOL    HW1 2423   1.451   2.028   1.061 -2.0230 -4.0002  0.2467
  808SOL    HW2 2424   1.547   2.166   1.094 -0.6063 -2.5684  0.3681
  809SOL     OW 2425   0.188   0.585   0.230 -0.2084  0.0021 -0.3964
  809SOL    HW1 2426   0.162   0.607   0.326  0.5061 -0.5303  2.8963
  809SOL    HW2 2427   0.282   0.544   0.236  0.8788 -1.4636 -0.4341
  810SOL     OW 2428   1.248   1.545   0.022 -0.3259  0.2094  0.2611
  810SOL    HW1 2429   1.204   1.452   0.009 -1.1300 -0.4934  0.3267
  810SOL    HW2 2430   1.339   1.537   0.064  2.8735  0.1410  1.0468
  811SOL     OW 2431   1.896   2.459   0.829 -0.1310  0.3483  0.0966
  811SOL    HW1 2432   1.881   2.383   0.898  0.4811 -1.5211  0.8408
  811SOL    HW2 2433   1.812   2.470   0.781  2.8758 -0.4350  0.4552
  812SOL     OW 2434   1.340   2.932   1.076 -0.5191 -0.0801 -0.0858
  812SOL    HW1 2435   1.408   2.946   1.150  1.0245 -2.4595 -0.1304
  812SOL    HW2 2436   1.246   2.924   1.109  1.4331 -0.1616 -0.1339
  813SOL     OW 2437   0.791   3.012   1.882 -0.0392 -0.0455  0.6541
  813SOL    HW1 2438   0.749   3.077   1.815 -0.2481  0.4438  3.0337
  813SOL    HW2 2439   0.724   2.954   1.930  1.8368  3.7384 -1.2321
  814SOL     OW 2440   1.114   2.483   2.194  0.2818  0.4420 -0.1002
  814SOL    HW1 2441   1.112   2.388   2.234  0.4898 -0.3437 -1.6944
  814SOL    HW2 2442   1.188   2.542   2.239 -1.1715 -1.1378 -0.3907
  815SOL     OW 2443   0.651   2.970   2.742 -0.2604  0.4159  0.0669
  815SOL    HW1 2444   0.705   2.884   2.734  1.0231  0.1835  0.5087
  815SOL    HW2 2445   0.574   2.955   2.806 -1.5696  0.4946  1.1363
  816SOL     OW 2446   2.045   0.751   0.233 -0.2093 -0.1494  0.1421
  816SOL    HW1 2447   1.995   0.707   0.302  0.8617  0.7580 -0.5689
  816SOL    HW2 2448   1.986   0.754   0.147 -2.2032 -1.3331  1.5449
  817SOL     OW 2449   2.870   2.644   2.169  0.1410 -0.1680 -0.1214
  817SOL    HW1 2450   2.814   2.700   2.108 -1.9380  1.7008  3.9263
  817SOL    HW2 2451   2.811   2.630   2.255 -0.3569 -0.5341  1.6274
  818SOL     OW 2452   0.920   1.203   0.433  0.1955  0.2502 -0.2973
  818SOL    HW1 2453   0.936   1.102   0.429 -0.0398 -1.0677 -0.0884
  818SOL    HW2 2454   0.831   1.229   0.469  3.6898  0.1517  0.4470
  819SOL     OW 2455   1.588   1.151   2.807  0.2193 -0.2942 -0.6898
  819SOL    HW1 2456   1.656   1.129   2.736 -0.6273  0.3143 -1.2207
  819SOL    HW2 2457   1.611   1.236   2.861  0.4348  0.1654  1.6940
  820SOL     OW 2458   0.570   1.497   3.067 -0.0133  0.1251  0.2707
  820SOL    HW1 2459   0.502   1.565   3.042  2.2662  1.5142 -1.6432
  820SOL    HW2 2460   0.578   1.492   0.064 -0.8328  1.3093 -1.7012
  821SOL     OW 2461   0.609   3.006   0.858 -0.6661 -0.5851  0.4645
  821SOL    HW1 2462   0.617   3.065   0.776 -0.7471  0.2492 -1.1423
  821SOL    HW2 2463   0.561   2.919   0.837 -2.7309  0.6914 -1.1337
  822SOL     OW 2464   2.392   2.737   2.960 -0.0063 -0.0349  0.0411
  822SOL    HW1 2465   2.436   2.754   2.867  2.3566 -1.3491 -1.1115
  822SOL    HW2 2466   2.458   2.691   3.019  1.1661  0.8340 -1.1534
  823SOL     OW 2467   1.301   0.033   2.599 -0.2861 -0.1058  0.0581
  823SOL    HW1 2468   1.390   0.065   2.623 -2.9832 -1.3332  1.6450
  823SOL    HW2 2469   1.302   0.001   2.498  0.5958  1.1152 -1.3537
  824SOL     OW 2470   2.981   2.561   1.800  0.0772  0.4639  0.1015
  824SOL    HW1 2471   2.998   2.655   1.809 -0.8856 -3.1760 -1.8351
  824SOL    HW2 2472   3.015   2.510   1.881 -0.1876 -1.6309  1.7742
  825SOL     OW 2473   2.919   2.467   2.600  0.5999 -0.2772  0.2184
  825SOL    HW1 2474   2.961   2.551   2.645 -0.7892 -0.2394  1.1134
  825SOL    HW2 2475   2.984   2.409   2.552 -0.6817  0.7077 -1.7478
  826SOL     OW 2476   1.786   0.413   3.028 -0.1460 -0.2484 -0.1648
  826SOL    HW1 2477   1.801   0.392   0.026  0.3473  0.3903  0.2360
  826SOL    HW2 2478   1.872   0.429   2.978 -1.8231 -3.5435 -1.9750
  827SOL     OW 2479   2.880   1.793   1.775 -0.1115  0.3986 -0.1054
  827SOL    HW1 2480   2.821   1.851   1.719  1.7680  1.1153  2.0210
  827SOL    HW2 2481   2.830   1.745   1.847  1.7301  0.2895  2.2273
  828SOL     OW 2482   0.036   0.091   1.268  0.3538 -0.1743 -0.3326
  828SOL    HW1 2483   0.034   0.016   1.337  0.8095  4.4937 -0.1423
  828SOL    HW2 2484   3.059   0.151   1.282  4.1028 -2.3709 -1.4022
  829SOL     OW 2485   0.764   2.092   2.392  0.3210 -0.2052 -0.0891
  829SOL    HW1 2486   0.836   2.161   2.415 -0.3441 -1.3830 -0.9803
  829SOL    HW2 2487   0.673   2.117   2.433  0.1901  0.8435 -0.1020
  830SOL     OW 2488   0.614   0.958   1.570  0.1407  0.2473  0.2347
  830SOL    HW1 2489   0.692   1.012   1.614  1.2413 -1.5877  0.1665
  830SOL    HW2 2490   0.649   0.883   1.514  0.1593  1.2149  0.8170
  831SOL     OW 2491   2.373   1.733   2.757  0.3230 -0.2342  0.4893
  831SOL    HW1 2492   2.432   1.697   2.684  0.5729 -0.7794 -0.5499
  831SOL    HW2 2493   2.424   1.739   2.847  0.8894  0.4383 -0.5971
  832SOL     OW 2494   2.041   2.388   2.898 -0.0995  0.3722 -0.1414
  832SOL    HW1 2495   2.030   2.358   2.805 -1.5250  2.1929  1.5004
  832SOL    HW2 2496   2.114   2.460   2.903 -2.5166  0.3421 -0.0302
  833SOL     OW 2497   0.622   0.246   1.938  0.2972 -0.2962  0.4471
  833SOL    HW1 2498   0.622   0.219   2.030  1.7988  1.1636 -3.4726
  833SOL    HW2 2499   0.704   0.302   1.917 -1.9571  0.7310  1.7188
  834SOL     OW 2500   0.118   0.459   1.376  0.2345  0.0074 -0.1754
  834SOL    HW1 2501   0.200   0.397   1.367  0.4133  0.3347  1.3396
  834SOL    HW2 2502   0.033   0.419   1.343  2.0034 -0.0405 -0.3109
  835SOL     OW 2503   2.619   0.528   0.521  0.2553 -0.0560 -0.3250
  835SOL    HW1 2504   2.526   0.482   0.507 -3.9234 -1.6377 -2.1034
  835SOL    HW2 2505   2.672   0.520   0.433 -0.6181 -0.3682 -1.2618
  836SOL     OW 2506   0.973   2.187   0.493 -0.0764 -0.1116  0.4305
  836SOL    HW1 2507   1.049   2.123   0.524  0.8637 -0.6061  2.3158
  836SOL    HW2 2508   0.991   2.285   0.522  0.7348 -1.7401  1.3536
  837SOL     OW 2509   1.853   1.833   0.401 -0.8262 -0.2383 -0.7368
  837SOL    HW1 2510   1.855   1.835   0.300  1.6992 -0.3070 -1.5618
  837SOL    HW2 2511   1.948   1.866   0.433  0.4279  1.5306 -3.8279
  838SOL     OW 2512   1.736   0.923   2.262 -0.7228  0.1609 -0.0174
  838SOL    HW1 2513   1.710   1.004   2.210 -0.5881  0.8036 -0.2263
  838SOL    HW2 2514   1.651   0.884   2.308 -1.3426 -2.1239 -0.0167
  839SOL     OW 2515   0.772   1.367   2.436  0.2073  0.6436 -0.0503
  839SOL    HW1 2516   0.741   1.334   2.529  0.8297 -1.7066 -0.7802
  839SOL    HW2 2517   0.862   1.334   2.409 -0.7817 -2.0008 -2.3238
  840SOL     OW 2518   0.901   1.289   0.175  0.0859  0.1398 -0.3395
  840SOL    HW1 2519   0.915   1.247   0.266  1.7999 -1.3100  1.3509
  840SOL    HW2 2520   0.851   1.224   0.108 -3.3300 -4.0072 -1.9548
  841SOL     OW 2521   1.660   2.318   0.332  0.1874  0.2070  0.1742
  841SOL    HW1 2522   1.665   2.241   0.397 -1.3518 -2.0024 -2.1699
  841SOL    HW2 2523   1.750   2.358   0.309 -1.4836  0.6968  1.6520
  842SOL     OW 2524   0.497   0.491   3.082 -0.4528  0.2448  0.6616
  842SOL    HW1 2525   0.417   0.448   3.030  1.8867  0.3338 -0.2799
  842SOL    HW2 2526   0.494   0.481   0.082  1.1062  1.7168 -1.4352
  843SOL     OW 2527   0.504   0.334   0.962  0.1441  0.4194 -0.2699
  843SOL    HW1 2528   0.606   0.348   0.969  2.1697 -2.0866 -0.0837
  843SOL    HW2 2529   0.482   0.271   0.886  3.8305 -1.7052  0.6031
  844SOL     OW 2530   1.939   2.866   2.171  0.3515 -0.4347 -0.5745
  844SOL    HW1 2531   1.962   2.808   2.093  1.4876  0.7228 -1.8613
  844SOL    HW2 2532   1.933   2.964   2.145 -1.6424 -2.0653  2.7651
  845SOL     OW 2533   0.295   2.573   1.743  0.1301 -0.1429 -0.0889
  845SOL    HW1 2534   0.221   2.539   1.807  1.1065 -1.5586 -1.4460
  845SOL    HW2 2535   0.247   2.602   1.657  0.0519 -3.9330 -4.4680
  846SOL     OW 2536   1.784   1.368   2.452  0.4507 -0.2256 -0.0801
  846SOL    HW1 2537   1.721   1.425   2.397  1.2030 -0.5725  0.8172
  846SOL    HW2 2538   1.868   1.357   2.395 -0.2593  1.5628 -0.3482
  847SOL     OW 2539   0.272   0.524   2.251  0.4295  0.2688 -0.3810
  847SOL    HW1 2540   0.260   0.450   2.321 -1.7600 -3.0161  0.4624
  847SOL    HW2 2541   0.263   0.486   2.161  0.1631  1.9979  0.5817
  848SOL     OW 2542   2.493   3.030   3.082 -0.4447 -0.4514 -0.3598
  848SOL    HW1 2543   2.514   2.991   0.071 -1.2281 -1.3002 -0.2835
  848SOL    HW2 2544   2.425   2.970   3.033 -1.6404  0.3650 -0.6333
  849SOL     OW 2545   0.313   2.753   0.536 -0.4272 -0.2504 -0.3704
  849SOL    HW1 2546   0.405   2.720   0.513 -0.7272 -2.7119  0.3628
  849SOL    HW2 2547   0.315   2.848   0.586  1.9396  0.2408 -0.4778
  850SOL     OW 2548   0.829   2.317   0.712  0.5314 -0.0355 -0.3992
  850SOL    HW1 2549   0.914   2.346   0.758 -1.3626 -1.1919 -2.2569
  850SOL    HW2 2550   0.838   2.226   0.665 -0.9345  1.0867  0.5989
  851SOL     OW 2551   1.846   0.290   2.771 -0.2158  0.1111  0.2484
  851SOL    HW1 2552   1.834   0.288   2.668  0.8577  0.1731 -0.0469
  851SOL    HW2 2553   1.946   0.308   2.783  1.7901 -1.9865 -3.6899
  852SOL     OW 2554   1.762   3.004   2.584 -0.2554  0.5078  0.3616
  852SOL    HW1 2555   1.692   2.969   2.515  1.3983 -0.7695 -2.2924
  852SOL    HW2 2556   1.730   3.051   2.669  2.3772  0.6535  0.8525
  853SOL     OW 2557   2.823   2.657   0.415  0.5136  0.5761  0.3530
  853SOL    HW1 2558   2.872   2.653   0.324 -1.3017 -1.5306  0.2677
  853SOL    HW2 2559   2.822   2.752   0.448  0.0989  2.0674 -2.0393
  854SOL     OW 2560   1.743   0.571   2.407  0.1262  0.0019 -0.1284
  854SOL    HW1 2561   1.776   0.478   2.402 -0.7598  3.4039  0.7387
  854SOL    HW2 2562   1.744   0.602   2.506  1.1842  1.8353  0.6706
  855SOL     OW 2563   0.218   2.503   0.570 -0.0421 -0.1993 -0.5879
  855SOL    HW1 2564   0.239   2.503   0.672 -0.8331  0.7227  2.4995
  855SOL    HW2 2565   0.242   2.595   0.534  0.9528  0.3491 -0.7109
  856SOL     OW 2566   0.405   2.881   2.570  0.5613  0.4913 -0.2459
  856SOL    HW1 2567   0.460   2.800   2.592  1.2644  0.6617 -2.4445
  856SOL    HW2 2568   0.440   2.967   2.605 -0.9220 -3.1802 -0.5646
  857SOL     OW 2569   1.090   3.065   1.415 -0.4892  0.4609 -0.0515
  857SOL    HW1 2570   1.158   2.988   1.433  3.2412 -0.1242  0.3452
  857SOL    HW2 2571   1.000   3.055   1.460 -1.3210  1.0270 -1.5734
  858SOL     OW 2572   2.654   1.965   1.697  0.4283  0.8262  0.1818
  858SOL    HW1 2573   2.562   1.942   1.646 -2.6290 -0.7884 -0.0787
  858SOL    HW2 2574   2.644   2.019   1.781 -0.5349  0.9965  0.7358
  859SOL     OW 2575   2.163   2.250   2.022 -0.2055  0.1285 -0.8301
  859SOL    HW1 2576   2.091   2.210   2.085 -1.7472  2.4671  1.3082
  859SOL    HW2 2577   2.223   2.177   1.987 -2.3683  2.3291 -4.2840
  860SOL     OW 2578   1.296   0.335   0.490 -0.9984  0.3716  0.0662
  860SOL    HW1 2579   1.356   0.362   0.407  0.1333  0.3045 -0.2717
  860SOL    HW2 2580   1.229   0.264   0.459 -0.8996 -2.2075  0.0412
  861SOL     OW 2581   2.901   0.799   1.153 -0.4686 -0.2935 -0.2620
  861SOL    HW1 2582   2.966   0.831   1.220 -1.7758 -3.2016 -0.5519
  861SOL    HW2 2583   2.954   0.760   1.077 -1.2548 -0.3602  1.5825
  862SOL     OW 2584   1.177   0.399   2.214  0.2753  0.2741 -0.1653
  862SOL    HW1 2585   1.221   0.316   2.177 -1.5634  0.9061  0.1965
  862SOL    HW2 2586   1.091   0.374   2.268  1.0242  0.7739  1.3337
  863SOL     OW 2587   0.420   0.727   1.134 -0.3854 -0.4502  0.0711
  863SOL    HW1 2588   0.339   0.705   1.184  3.7767  0.2460 -0.5709
  863SOL    HW2 2589   0.464   0.819   1.156  4.4663  0.3328 -2.9357
  864SOL     OW 2590   0.001   3.037   2.113 -0.2417 -0.2526 -0.3181
  864SOL    HW1 2591   0.077   2.968   2.112  0.7844 -1.1890  2.2179
  864SOL    HW2 2592   0.010   0.020   2.053 -1.7552  1.8164  1.1543
  865SOL     OW 2593   0.777   1.230   2.686 -0.0505 -0.1591 -0.3878
  865SOL    HW1 2594   0.727   1.292   2.745  1.2735  0.9066 -0.0480
  865SOL    HW2 2595   0.717   1.155   2.658  0.7200 -0.5050  1.7821
  866SOL     OW 2596   2.985   2.929   0.148  0.5522  0.3968  0.1514
  866SOL    HW1 2597   3.064   2.967   0.100  0.5563 -0.0974  1.2895
  866SOL    HW2 2598   3.001   2.824   0.152 -1.4227 -3.2648 -0.4226
  867SOL     OW 2599   0.016   2.871   2.870 -0.4067  0.1771  0.3961
  867SOL    HW1 2600   0.044   2.785   2.911 -1.7947  0.0469 -0.2480
  867SOL    HW2 2601   0.006   2.940   2.946  0.9663 -1.8161 -2.3289
  868SOL     OW 2602   1.539   0.886   2.890  0.6571 -0.4393  0.2330
  868SOL    HW1 2603   1.577   0.982   2.881 -1.2183 -1.2125 -1.2570
  868SOL    HW2 2604   1.448   0.885   2.935 -1.3776 -1.8458 -0.9818
  869SOL     OW 2605   0.367   1.769   0.526 -0.2213  0.1119 -0.3337
  869SOL    HW1 2606   0.447   1.753   0.576 -0.8504  1.7225 -2.4096
  869SOL    HW2 2607   0.304   1.689   0.531  2.0584 -1.1657 -0.9708
  870SOL     OW 2608   2.415   1.767   0.277  0.4806 -0.7421  0.8196
  870SOL    HW1 2609   2.385   1.834   0.349  0.6357 -1.7377  0.8227
  870SOL    HW2 2610   2.348   1.762   0.200 -0.5670 -3.5466  1.3137
  871SOL     OW 2611   0.622   1.196   1.112 -0.5723 -0.2187 -0.2771
  871SOL    HW1 2612   0.588   1.100   1.113  2.0323  3.3143 -1.3300
  871SOL    HW2 2613   0.699   1.202   1.178 -1.3029 -2.4455  1.1206
  872SOL     OW 2614   1.309   1.792   1.705 -0.7025  0.1628 -0.3170
  872SOL    HW1 2615   1.277   1.880   1.745  3.8231  0.4569  1.8161
  872SOL    HW2 2616   1.344   1.731   1.783 -0.0353  0.9709  2.3055
  873SOL     OW 2617   0.792   2.014   2.139  0.0456 -0.0678  0.5163
  873SOL    HW1 2618   0.767   2.045   2.233  0.0248 -0.0806 -0.1641
  873SOL    HW2 2619   0.777   2.093   2.069  0.2257  1.2469 -0.4716
  874SOL     OW 2620   0.976   2.436   1.182  0.0680  0.0408 -0.0009
  874SOL    HW1 2621   0.997   2.417   1.280  1.2688 -1.3697  0.7759
  874SOL    HW2 2622   0.995   2.535   1.156  0.7473 -0.4783  0.5235
  875SOL     OW 2623   3.000   0.335   0.871  0.2012  0.6623  0.1714
  875SOL    HW1 2624   3.008   0.239   0.904  0.2195  0.7148  1.3537
  875SOL    HW2 2625   2.915   0.362   0.820  2.3044  0.7147  0.0024
  876SOL     OW 2626   0.841   0.532   0.256 -0.0157  0.0733 -0.6958
  876SOL    HW1 2627   0.762   0.569   0.316 -0.3731  0.9063 -1.6656
  876SOL    HW2 2628   0.898   0.609   0.218  1.7918  0.9510  0.2769
  877SOL     OW 2629   2.961   0.606   1.520  0.1056  0.0309  0.1490
  877SOL    HW1 2630   2.968   0.572   1.427 -2.6903  1.5305  1.3460
  877SOL    HW2 2631   2.878   0.571   1.568 -0.5626 -0.3054  0.4940
  878SOL     OW 2632   2.345   2.149   0.660  0.1437 -0.3982 -0.4443
  878SOL    HW1 2633   2.374   2.246   0.657  0.1011 -0.9942  1.5583
  878SOL    HW2 2634   2.323   2.112   0.756  0.1167 -2.0202  2.2835
  879SOL     OW 2635   2.616   1.548   1.311  0.0524  0.8292 -0.0876
  879SOL    HW1 2636   2.518   1.537   1.342 -1.2151  1.3576  1.1313
  879SOL    HW2 2637   2.630   1.498   1.222 -0.5887 -1.5624 -0.8585
  880SOL     OW 2638   1.455   2.603   0.969  0.0226 -0.1209 -0.3423
  880SOL    HW1 2639   1.428   2.686   0.919  2.0839  0.2921  2.1831
  880SOL    HW2 2640   1.380   2.570   1.025 -2.5959 -0.1540 -2.5052
  881SOL     OW 2641   1.019   2.222   0.230  0.9567  0.0761  0.2099
  881SOL    HW1 2642   1.009   2.214   0.332  0.0515  0.2079  1.0587
  881SOL    HW2 2643   0.958   2.295   0.194 -0.0670  1.8512  0.4966
  882SOL     OW 2644   1.571   0.836   1.306  0.0772  0.2011  0.1229
  882SOL    HW1 2645   1.504   0.900   1.258 -1.1850  1.1307  0.7459
  882SOL    HW2 2646   1.536   0.792   1.392  2.2453 -0.4337 -1.7660
  883SOL     OW 2647   1.342   0.206   2.093  0.0770  0.3061  0.0009
  883SOL    HW1 2648   1.429   0.197   2.047 -0.9269 -1.6864  2.8372
  883SOL    HW2 2649   1.336   0.154   2.183 -1.3545 -1.6088  3.6361
  884SOL     OW 2650   2.472   0.624   0.239 -0.5454  0.1636  0.0717
  884SOL    HW1 2651   2.442   0.570   0.321 -0.3070 -1.6225 -0.8642
  884SOL    HW2 2652   2.537   0.698   0.260 -0.4379 -3.6562 -2.8564
  885SOL     OW 2653   1.106   1.330   3.011  0.6722  0.1675  0.1260
  885SOL    HW1 2654   1.076   1.306   2.916 -1.7029  2.1934 -1.7510
  885SOL    HW2 2655   1.037   1.293   3.074  2.5874  0.7906 -1.6655
  886SOL     OW 2656   1.476   1.312   2.605 -0.1742 -0.0518 -0.1062
  886SOL    HW1 2657   1.566   1.323   2.557 -1.7124 -1.1500 -0.4444
  886SOL    HW2 2658   1.484   1.247   2.684 -0.5162  0.9659  1.2271
  887SOL     OW 2659   1.367   0.331   1.619  0.0598  0.1883  0.2094
  887SOL    HW1 2660   1.355   0.229   1.608 -2.1053  1.5238  0.1818
  887SOL    HW2 2661   1.362   0.366   1.715  1.6863 -0.2288 -0.9999
  888SOL     OW 2662   2.678   0.603   1.992 -0.1570 -0.5738 -0.2259
  888SOL    HW1 2663   2.648   0.527   1.935  1.0648 -0.4846 -0.1464
  888SOL    HW2 2664   2.727   0.678   1.939  0.4627 -1.3563 -0.1155
  889SOL     OW 2665   0.222   2.697   0.879 -0.2445 -0.3295  0.1771
  889SOL    HW1 2666   0.232   2.596   0.888 -0.6307  0.4135 -0.4942
  889SOL    HW2 2667   0.312   2.746   0.864  1.0292  0.0926 -0.6115
  890SOL     OW 2668   2.759   2.214   0.271  0.0529  0.0289  0.2259
  890SOL    HW1 2669   2.725   2.191   0.366  0.1477 -0.3721  1.4091
  890SOL    HW2 2670   2.859   2.192   0.263  1.8772 -1.6279  1.4517
  891SOL     OW 2671   0.960   1.636   2.890 -0.2431  0.2242  0.3249
  891SOL    HW1 2672   1.003   1.599   2.802  0.2996 -3.0280 -2.4297
  891SOL    HW2 2673   0.947   1.560   2.960 -0.2643 -0.8660  2.7561
  892SOL     OW 2674   3.048   0.078   0.993 -0.0497  0.4034  0.5059
  892SOL    HW1 2675   3.079   0.057   1.087 -1.7440 -0.7022  0.3114
  892SOL    HW2 2676   2.984   0.004   0.965 -1.2172  1.9901 -1.6347
  893SOL     OW 2677   1.087   2.937   1.141  0.3994 -0.5300 -0.0311
  893SOL    HW1 2678   1.077   2.993   1.223  0.6744  1.5052 -0.7882
  893SOL    HW2 2679   1.035   2.978   1.062  0.0794  0.4180 -1.4385
  894SOL     OW 2680   2.684   0.773   0.608  1.1288 -0.4193  0.1399
  894SOL    HW1 2681   2.618   0.820   0.667 -0.0066  1.5749 -2.0000
  894SOL    HW2 2682   2.653   0.674   0.592  1.1405 -1.6562  1.2726
  895SOL     OW 2683   2.429   2.464   2.108 -0.3561 -0.0440  0.3918
  895SOL    HW1 2684   2.333   2.487   2.106 -0.3446  1.3111 -1.8974
  895SOL    HW2 2685   2.481   2.519   2.177  0.8967  1.5216 -0.5616
  896SOL     OW 2686   1.037   0.229   1.529 -0.3985  0.0503 -0.3645
  896SOL    HW1 2687   1.076   0.139   1.498 -1.0285 -4.1599  0.8698
  896SOL    HW2 2688   1.053   0.235   1.631 -0.8733 -1.1191  0.9529
  897SOL     OW 2689   0.898   1.690   1.795 -0.0447 -0.1208 -0.3093
  897SOL    HW1 2690   0.835   1.619   1.764  1.8452  1.9574  0.7385
  897SOL    HW2 2691   0.917   1.756   1.718 -2.1197  1.9702  2.0964
  898SOL     OW 2692   2.215   2.676   1.820  0.0656 -0.1553 -0.0117
  898SOL    HW1 2693   2.165   2.734   1.752 -0.2244  0.8012 -0.1499
  898SOL    HW2 2694   2.236   2.725   1.909  0.2593  1.1103 -0.7146
  899SOL     OW 2695   0.839   0.816   1.154  0.7334  0.4014  0.1699
  899SOL    HW1 2696   0.840   0.731   1.211  1.4503  0.2011 -1.5360
  899SOL    HW2 2697   0.754   0.823   1.095 -4.1210  2.7667 -0.6165
  900SOL     OW 2698   1.955   2.334   2.650 -0.0084  0.7220 -0.0191
  900SOL    HW1 2699   1.924   2.236   2.657 -1.5678  1.0425 -2.0405
  900SOL    HW2 2700   2.022   2.348   2.580  0.5829  0.0933  2.0889
  901SOL     OW 2701   0.941   2.256   2.494  0.7034 -0.5503  0.2634
  901SOL    HW1 2702   0.956   2.230   2.593 -0.4844 -1.1477  1.0746
  901SOL    HW2 2703   0.890   2.342   2.496  1.6570 -1.4334  1.0260
  902SOL     OW 2704   2.160   1.265   0.280  0.4885  0.3634 -0.3787
  902SOL    HW1 2705   2.258   1.269   0.251 -0.4431  1.4959  1.1803
  902SOL    HW2 2706   2.121   1.172   0.274 -0.3921  1.4733  0.9494
  903SOL     OW 2707   1.922   0.712   0.537 -0.7818 -0.1311 -0.0554
  903SOL    HW1 2708   1.867   0.695   0.624  0.0579 -0.9308  1.1665
  903SOL    HW2 2709   1.897   0.804   0.497 -1.3870  0.8579  0.2228
  904SOL     OW 2710   0.894   0.723   2.915  0.0101  0.1861  0.7060
  904SOL    HW1 2711   0.793   0.738   2.924  2.0197  0.2445  0.6533
  904SOL    HW2 2712   0.936   0.802   2.866  0.4117  1.3585 -0.6265
  905SOL     OW 2713   2.268   0.378   0.931  1.0799 -0.0034  0.4863
  905SOL    HW1 2714   2.174   0.422   0.928 -0.7194  0.8323 -0.9860
  905SOL    HW2 2715   2.336   0.446   0.962 -0.8752  2.0531  0.8230
  906SOL     OW 2716   2.637   2.601   1.529 -0.6093  0.1109 -0.7709
  906SOL    HW1 2717   2.688   2.523   1.568 -0.5445 -0.0655  1.1470
  906SOL    HW2 2718   2.677   2.688   1.566 -0.1115  1.7280 -0.4736
  907SOL     OW 2719   1.233   0.623   0.346  0.1814  0.3352  0.1632
  907SOL    HW1 2720   1.243   0.708   0.290  2.3970  3.1163  1.3767
  907SOL    HW2 2721   1.322   0.567   0.336  2.3955  0.4192  0.4967
  908SOL     OW 2722   2.185   3.042   1.491  0.0036 -0.3188 -0.4013
  908SOL    HW1 2723   2.284   3.034   1.487 -0.2289 -0.3834  4.1333
  908SOL    HW2 2724   2.154   3.098   1.411  2.2261  2.5724  0.2861
  909SOL     OW 2725   2.522   0.693   1.452  0.5986  0.3707  0.2575
  909SOL    HW1 2726   2.559   0.749   1.377  1.0200  0.6608  0.0904
  909SOL    HW2 2727   2.511   0.749   1.537 -0.0205 -0.0968  0.3014
  910SOL     OW 2728   1.470   2.836   2.187 -0.1805  0.0766  0.3203
  910SOL    HW1 2729   1.563   2.817   2.224 -1.9622  1.0031  1.2673
  910SOL    HW2 2730   1.468   2.842   2.083  2.4187 -0.9156 -2.4367
  911SOL     OW 2731   2.416   0.541   2.329 -0.4272 -0.1165 -0.0166
  911SOL    HW1 2732   2.461   0.637   2.325  2.4896  1.1376  2.5546
  911SOL    HW2 2733   2.317   0.553   2.332 -0.9183  3.7660 -0.9926
  912SOL     OW 2734   2.717   1.212   1.372  0.1052 -0.0412 -0.3450
  912SOL    HW1 2735   2.767   1.292   1.412  0.3536  3.7725  0.4708
  912SOL    HW2 2736   2.711   1.131   1.432  0.7544  1.1337  1.2019
  913SOL     OW 2737   2.590   2.264   1.361 -0.3570  0.3793 -0.1596
  913SOL    HW1 2738   2.606   2.325   1.280  1.0734  2.0879  0.0041
  913SOL    HW2 2739   2.597   2.167   1.329  0.4997 -1.9147  0.7276
  914SOL     OW 2740   1.941   1.234   1.456  0.6450 -0.5213  0.0469
  914SOL    HW1 2741   2.020   1.173   1.428 -2.7389  1.0326  0.0034
  914SOL    HW2 2742   1.848   1.186   1.455 -2.5866  1.0210  0.8680
  915SOL     OW 2743   1.181   0.875   1.328  0.0666  0.1646 -0.2220
  915SOL    HW1 2744   1.186   0.777   1.340 -1.3732  2.6879 -0.7244
  915SOL    HW2 2745   1.093   0.915   1.359  0.0553 -1.2057 -1.5430
  916SOL     OW 2746   2.816   2.801   1.638 -0.7052  0.7550  0.2395
  916SOL    HW1 2747   2.904   2.759   1.665  0.1541  0.2609  1.3579
  916SOL    HW2 2748   2.800   2.887   1.694  1.3532 -0.2879 -1.6045
  917SOL     OW 2749   2.468   2.140   0.222  0.2392 -0.0576 -0.0079
  917SOL    HW1 2750   2.444   2.169   0.128 -1.7878 -0.3032 -3.4937
  917SOL    HW2 2751   2.549   2.197   0.256  0.2818 -0.3130 -0.4150
  918SOL     OW 2752   1.800   2.709   2.576 -0.3499 -0.4892  0.0513
  918SOL    HW1 2753   1.762   2.787   2.623 -0.6603 -2.0151 -0.9355
  918SOL    HW2 2754   1.753   2.623   2.601  0.0431  1.5097 -1.3633
  919SOL     OW 2755   1.435   2.157   1.450  0.3980  0.2273  0.4482
  919SOL    HW1 2756   1.412   2.186   1.544 -2.4290 -0.2398  1.0542
  919SOL    HW2 2757   1.405   2.056   1.438  1.3068  0.0307 -0.2685
  920SOL     OW 2758   2.893   0.113   2.479 -0.2951  0.1461 -0.4433
  920SOL    HW1 2759   2.947   0.033   2.440 -0.0132  1.9337  1.9343
  920SOL    HW2 2760   2.934   0.152   2.563  0.6585 -0.1535 -1.5787
  921SOL     OW 2761   0.087   0.779   2.041 -0.0312  0.4710 -0.2124
  921SOL    HW1 2762   0.182   0.807   2.027 -1.0573 -0.8887 -0.1508
  921SOL    HW2 2763   0.069   0.788   2.139  1.5511  2.5951 -1.5869
  922SOL     OW 2764   2.067   1.994   0.495 -0.3489  0.1223 -0.1525
  922SOL    HW1 2765   2.165   1.987   0.463  0.4105  0.2576 -1.1775
  922SOL    HW2 2766   2.063   2.009   0.597  1.2449  0.9054 -1.4095
  923SOL     OW 2767   0.402   2.082   2.899  0.1551  0.1070  0.1450
  923SOL    HW1 2768   0.356   2.074   2.808 -1.8507 -3.9269  1.2641
  923SOL    HW2 2769   0.477   2.012   2.916  3.1628 -1.3513 -0.3346
  924SOL     OW 2770   0.863   0.320   0.441  0.5525  0.3058 -0.7328
  924SOL    HW1 2771   0.764   0.299   0.428 -0.9348 -1.0682  0.5328
  924SOL    HW2 2772   0.884   0.397   0.377 -0.0674 -0.3012  0.0250
  925SOL     OW 2773   2.567   1.072   0.845  0.1055 -0.1643  0.1775
  925SOL    HW1 2774   2.502   1.136   0.888  1.0298 -1.2551 -0.4892
  925SOL    HW2 2775   2.587   1.104   0.750 -0.4837 -0.8766  0.2498
  926SOL     OW 2776   0.070   1.153   0.979 -0.5492  0.2237 -0.1428
  926SOL    HW1 2777   0.034   1.220   1.047 -2.1381  0.8816  1.4745
  926SOL    HW2 2778   0.077   1.057   1.018 -1.3123 -0.3576  1.7556
  927SOL     OW 2779   3.073   1.100   2.873 -0.1367  0.2091  0.2135
  927SOL    HW1 2780   0.037   1.054   2.810 -1.3501  4.2654  0.3843
  927SOL    HW2 2781   0.014   1.187   2.902  1.6969  2.8708  0.2662
  928SOL     OW 2782   2.990   0.498   2.350  0.0978  0.2659 -0.2610
  928SOL    HW1 2783   2.898   0.527   2.315 -0.0932 -1.0378  1.1587
  928SOL    HW2 2784   3.038   0.439   2.290 -2.1357  3.9311 -0.1731
  929SOL     OW 2785   2.983   2.805   1.130  0.0312  0.2976 -0.6524
  929SOL    HW1 2786   2.941   2.867   1.061  0.2734  3.3989  0.2251
  929SOL    HW2 2787   2.971   2.712   1.091 -2.1334 -3.9522 -1.6626
  930SOL     OW 2788   2.033   1.297   1.740 -0.1142  0.0873 -0.1694
  930SOL    HW1 2789   2.047   1.398   1.753 -2.2410  2.1888  2.2056
  930SOL    HW2 2790   1.989   1.272   1.653  2.8752 -2.6350 -1.9717
  931SOL     OW 2791   1.565   1.529   0.680 -0.0374  0.1439  0.6570
  931SOL    HW1 2792   1.618   1.594   0.623 -0.5750  0.6982 -1.2977
  931SOL    HW2 2793   1.466   1.550   0.657  1.6236  0.3475 -2.6845
  932SOL     OW 2794   2.743   1.304   0.886 -0.1633  0.1932 -0.2917
  932SOL    HW1 2795   2.778   1.206   0.902  1.6723 -1.8744 -0.2500
  932SOL    HW2 2796   2.785   1.345   0.804 -0.0445 -0.3743 -2.1316
  933SOL     OW 2797   2.335   1.581   1.138  0.3703  0.2768 -0.0534
  933SOL    HW1 2798   2.310   1.508   1.068 -0.0652 -2.3706 -1.0024
  933SOL    HW2 2799   2.258   1.630   1.178  1.3895 -3.1889 -0.0274
  934SOL     OW 2800   1.835   2.918   1.779  0.3112 -0.2419  0.1685
  934SOL    HW1 2801   1.767   2.978   1.729 -2.5516  1.8826 -0.4068
  934SOL    HW2 2802   1.786   2.839   1.823  0.3403  0.0379 -0.4417
  935SOL     OW 2803   0.141   1.688   0.805  0.0519  0.3045 -0.2062
  935SOL    HW1 2804   0.193   1.638   0.732 -1.5795 -0.5523  0.0927
  935SOL    HW2 2805   0.209   1.746   0.861  0.0487  1.3303  0.7810
  936SOL     OW 2806   0.393   0.974   0.462 -0.0669 -0.5657 -0.4740
  936SOL    HW1 2807   0.327   1.007   0.390 -2.1150  3.1252 -0.4675
  936SOL    HW2 2808   0.463   0.922   0.413  0.1530 -1.3183  1.3314
  937SOL     OW 2809   2.276   3.031   0.986 -0.0478 -0.5949  0.2412
  937SOL    HW1 2810   2.222   2.967   1.044  0.9205 -0.0814  0.1236
  937SOL    HW2 2811   2.231   3.031   0.892 -0.0995  3.3961 -3.6204
  938SOL     OW 2812   2.691   2.133   0.868 -0.3544 -0.4734  0.1931
  938SOL    HW1 2813   2.712   2.058   0.936 -0.9855 -0.7736 -3.0498
  938SOL    HW2 2814   2.616   2.196   0.895 -1.7035 -0.0831  0.7346
  939SOL     OW 2815   0.738   2.072   0.440  0.0564 -0.1347 -0.1049
  939SOL    HW1 2816   0.733   1.978   0.409  1.3997  0.3050  0.0875
  939SOL    HW2 2817   0.834   2.106   0.455  0.7154  2.2566  0.7492
  940SOL     OW 2818   2.813   3.049   3.017 -0.2302  0.2948 -0.5693
  940SOL    HW1 2819   2.907   3.033   3.063  4.5783  1.4042  0.4074
  940SOL    HW2 2820   2.741   3.020   3.081  3.0796  0.2233 -0.3813
  941SOL     OW 2821   1.091   0.131   3.013  0.0180  0.1074 -0.1477
  941SOL    HW1 2822   1.174   0.133   3.076  2.7531 -1.5178 -0.6230
  941SOL    HW2 2823   1.025   0.196   3.055  2.0813 -1.6714 -2.1191
  942SOL     OW 2824   1.186   1.214   1.226 -0.2082  0.3120  0.3409
  942SOL    HW1 2825   1.169   1.305   1.186  0.9217 -0.5067  0.1396
  942SOL    HW2 2826   1.121   1.143   1.184  0.1557 -1.3962 -0.0363
  943SOL     OW 2827   1.784   1.082   1.671 -0.1520  0.2750 -0.6182
  943SOL    HW1 2828   1.747   1.043   1.762 -3.6959 -2.0380  0.7947
  943SOL    HW2 2829   1.755   1.017   1.594 -0.0202 -1.5379 -0.7399
  944SOL     OW 2830   1.503   0.598   1.900 -0.2648  0.3810 -0.2533
  944SOL    HW1 2831   1.436   0.676   1.878 -0.5767  3.6280 -1.2763
  944SOL    HW2 2832   1.589   0.637   1.943  0.0726 -2.3013  1.6340
  945SOL     OW 2833   3.051   3.047   0.365  0.4867  0.1783 -0.6742
  945SOL    HW1 2834   0.037   3.096   0.372  0.0515 -0.2736  0.8614
  945SOL    HW2 2835   3.039   2.997   0.278  0.0309  0.4724  1.5946
  946SOL     OW 2836   0.078   0.480   1.651  0.0324  0.2930 -0.0140
  946SOL    HW1 2837   0.083   0.472   1.550 -0.6401  1.6526  0.9703
  946SOL    HW2 2838   3.083   0.479   1.678 -1.5731  1.2982 -1.3229
  947SOL     OW 2839   0.720   2.971   0.404  0.2076  0.0204 -0.3157
  947SOL    HW1 2840   0.663   2.916   0.338 -1.2461 -1.3465  1.3030
  947SOL    HW2 2841   0.763   3.056   0.364  0.0928  0.5457  1.2323
  948SOL     OW 2842   2.584   1.070   1.887 -0.0903  0.2056 -0.3666
  948SOL    HW1 2843   2.487   1.087   1.905 -0.9971  0.2779  0.4482
  948SOL    HW2 2844   2.637   1.160   1.888 -0.8821  1.3664 -0.6743
  949SOL     OW 2845   0.466   0.871   2.795 -0.4700  0.5539 -0.4317
  949SOL    HW1 2846   0.502   0.818   2.720 -0.4853  3.7000 -1.0066
  949SOL    HW2 2847   0.382   0.827   2.830 -1.7607  0.9042 -0.8541
  950SOL     OW 2848   0.760   0.413   0.945 -0.3950 -0.6439  0.4167
  950SOL    HW1 2849   0.827   0.340   0.955  0.3838  1.8688  2.2809
  950SOL    HW2 2850   0.802   0.480   0.883 -1.3573 -2.5422  0.6024
  951SOL     OW 2851   1.051   1.888   2.193  0.1152  0.7407  0.2054
  951SOL    HW1 2852   1.127   1.955   2.198  0.7747 -2.2480 -2.1638
  951SOL    HW2 2853   0.963   1.922   2.151  0.7025 -0.8907 -0.4821
  952SOL     OW 2854   0.889   1.529   0.045  0.2605 -0.5424  0.2760
  952SOL    HW1 2855   0.917   1.453   0.102  1.6964 -0.0737 -3.4576
  952SOL    HW2 2856   0.791   1.555   0.056 -0.0092 -2.5037 -1.5761
  953SOL     OW 2857   2.139   3.045   2.335  0.1984 -0.1924  0.4404
  953SOL    HW1 2858   2.126   2.977   2.261 -2.0795 -0.9282 -0.9244
  953SOL    HW2 2859   2.240   3.075   2.343  3.3766 -0.4561  1.5102
  954SOL     OW 2860   1.676   1.295   0.748 -0.5011  0.5319 -0.1699
  954SOL    HW1 2861   1.662   1.240   0.661 -0.1486 -0.1434  0.8120
  954SOL    HW2 2862   1.654   1.394   0.724  1.2500  2.6069  0.8115
  955SOL     OW 2863   0.225   2.337   2.302  0.2803  0.5427 -0.1918
  955SOL    HW1 2864   0.321   2.306   2.284  2.5127 -0.0681  0.8549
  955SOL    HW2 2865   0.213   2.437   2.313  0.1895  1.3275 -1.1144
  956SOL     OW 2866   1.657   0.342   1.732  0.5355  0.0665  0.3893
  956SOL    HW1 2867   1.589   0.382   1.665  0.5040  0.8345 -3.5895
  956SOL    HW2 2868   1.711   0.417   1.771  0.5129 -1.3690 -1.0704
  957SOL     OW 2869   1.781   1.980   2.934 -0.2430  0.2228  0.0917
  957SOL    HW1 2870   1.735   1.888   2.944 -3.1763 -4.0856  1.4449
  957SOL    HW2 2871   1.745   2.043   3.008 -1.7890 -0.6900 -1.3675
  958SOL     OW 2872   1.279   2.435   1.745 -0.2562  0.0706 -0.0455
  958SOL    HW1 2873   1.210   2.425   1.820 -2.0703  1.2415  0.5146
  958SOL    HW2 2874   1.322   2.348   1.725  1.8930 -0.2311  1.5810
  959SOL     OW 2875   2.180   2.124   3.028 -0.1018 -0.7232 -0.6130
  959SOL    HW1 2876   2.202   2.218   3.069 -0.6949  1.5766  1.4423
  959SOL    HW2 2877   2.131   2.143   2.944  0.4945 -0.6875  2.7819
  960SOL     OW 2878   2.985   0.257   2.750  0.1978 -0.0849  0.0884
  960SOL    HW1 2879   2.900   0.199   2.760  3.4006  1.4101 -1.0063
  960SOL    HW2 2880   2.969   0.345   2.712 -0.8983 -2.6417  0.7162
  961SOL     OW 2881   0.853   0.901   2.683 -0.4844 -0.2410  0.2000
  961SOL    HW1 2882   0.766   0.850   2.659 -1.4710 -0.2655 -3.4268
  961SOL    HW2 2883   0.930   0.870   2.622 -0.5316  2.8641 -0.8974
  962SOL     OW 2884   1.031   1.277   2.739  0.3188 -0.4515 -0.5573
  962SOL    HW1 2885   0.928   1.265   2.737 -1.7233 -0.2498 -0.0725
  962SOL    HW2 2886   1.076   1.189   2.731  0.5824  1.6277 -0.2431
  963SOL     OW 2887   2.336   2.354   0.078 -0.6556  0.3912  0.2217
  963SOL    HW1 2888   2.399   2.324   0.003  1.9056  0.4720  0.7301
  963SOL    HW2 2889   2.387   2.419   0.136  1.0888 -0.0080 -0.1685
  964SOL     OW 2890   1.270   2.570   1.183 -0.1333 -0.6305  0.1100
  964SOL    HW1 2891   1.248   2.490   1.237  4.0077  0.0128 -1.1209
  964SOL    HW2 2892   1.190   2.629   1.159  2.6299 -0.5063  0.6425
  965SOL     OW 2893   1.198   1.503   0.848  0.7726 -0.2716  0.3235
  965SOL    HW1 2894   1.252   1.545   0.770 -2.6769 -0.0710  0.1665
  965SOL    HW2 2895   1.121   1.566   0.877 -2.8124 -1.3989 -0.8415
  966SOL     OW 2896   0.250   1.550   3.057  0.6330 -0.2075  0.0100
  966SOL    HW1 2897   0.210   1.637   3.021 -1.0950 -0.7991  1.0207
  966SOL    HW2 2898   0.232   1.549   0.058 -0.3667  1.7948 -1.3008
  967SOL     OW 2899   2.021   0.302   1.913 -0.2025 -0.1894  0.1992
  967SOL    HW1 2900   2.059   0.287   2.006  2.1743  0.8452  0.5455
  967SOL    HW2 2901   2.048   0.226   1.853  1.5656  0.9674  1.2877
  968SOL     OW 2902   1.665   1.180   0.505 -0.2987 -0.0994  0.4897
  968SOL    HW1 2903   1.692   1.255   0.439  0.9882  0.3316  1.2388
  968SOL    HW2 2904   1.724   1.097   0.499 -0.0964  0.0446 -0.9740
  969SOL     OW 2905   0.316   1.363   2.418  0.5224  0.0313 -0.5340
  969SOL    HW1 2906   0.273   1.290   2.361 -1.4388 -0.6423  1.1219
  969SOL    HW2 2907   0.388   1.408   2.367 -0.8575 -2.6876 -1.4991
  970SOL     OW 2908   2.060   1.385   1.116 -0.1143 -0.4705  0.0799
  970SOL    HW1 2909   1.972   1.339   1.100  1.6079 -1.1857  0.5898
  970SOL    HW2 2910   2.122   1.382   1.037  0.0384  2.4758  3.2752
  971SOL     OW 2911   0.366   2.967   1.244 -0.0229 -0.3009  0.1213
  971SOL    HW1 2912   0.354   3.058   1.285 -0.9892  1.4421  0.7422
  971SOL    HW2 2913   0.277   2.929   1.212  0.2196 -0.5719  0.2426
  972SOL     OW 2914   0.239   0.765   2.904  0.0077 -0.3789 -0.0137
  972SOL    HW1 2915   0.228   0.667   2.904  1.1302  3.8844 -0.4830
  972SOL    HW2 2916   0.204   0.804   2.991 -1.7291 -0.2233  2.6840
  973SOL     OW 2917   0.112   0.921   1.101 -0.0064 -0.0614 -0.2556
  973SOL    HW1 2918   0.147   0.874   1.179  0.1720  1.8812 -3.0763
  973SOL    HW2 2919   0.067   0.852   1.041  0.9262  0.3406 -3.2636
  974SOL     OW 2920   2.120   0.582   2.061  0.4743 -0.4570  0.1176
  974SOL    HW1 2921   2.057   0.635   2.004  0.9384 -1.0946  1.0647
  974SOL    HW2 2922   2.213   0.625   2.055  0.1515 -2.3209  0.6426
  975SOL     OW 2923   2.715   0.105   0.328 -0.0979  0.1797  0.4700
  975SOL    HW1 2924   2.646   0.113   0.400 -0.5088 -0.3697 -1.2880
  975SOL    HW2 2925   2.812   0.108   0.366  0.8920 -0.2846 -0.2453
  976SOL     OW 2926   0.396   1.461   1.715  0.1586  0.6845 -0.0245
  976SOL    HW1 2927   0.343   1.511   1.641 -0.1345  1.8700 -1.4709
  976SOL    HW2 2928   0.466   1.527   1.752 -0.4969  1.4971  0.3975
  977SOL     OW 2929   1.118   2.612   3.016  0.4302  0.2046  0.3022
  977SOL    HW1 2930   1.131   2.708   3.038 -0.2108 -1.9216  0.4307
  977SOL    HW2 2931   1.144   2.548   3.090  0.1707  0.4923 -0.5743
  978SOL     OW 2932   0.644   1.455   0.226  0.4629 -0.0570  0.5893
  978SOL    HW1 2933   0.732   1.403   0.220  0.6280 -1.0039  0.9774
  978SOL    HW2 2934   0.603   1.448   0.318  0.5314 -0.7698  1.3926
  979SOL     OW 2935   1.732   1.788   1.467  0.1504  0.2070  0.3211
  979SOL    HW1 2936   1.687   1.803   1.559 -1.5780  0.7650 -2.0347
  979SOL    HW2 2937   1.731   1.689   1.452 -0.5862 -0.5517  0.2278
  980SOL     OW 2938   0.540   1.599   1.902 -0.1784 -1.1317  0.1337
  980SOL    HW1 2939   0.611   1.645   1.957 -3.4110 -0.3717 -2.7343
  980SOL    HW2 2940   0.479   1.541   1.966  0.6110  1.5376  0.8627
  981SOL     OW 2941   0.248   1.522   0.242  0.0500 -0.0130 -0.3534
  981SOL    HW1 2942   0.277   1.618   0.242  0.7496 -0.9829 -1.1633
  981SOL    HW2 2943   0.166   1.507   0.305 -3.6627 -0.6912  0.9313
  982SOL     OW 2944   2.459   2.983   2.071  0.1076 -0.3410 -0.0428
  982SOL    HW1 2945   2.409   3.045   2.008  0.2035 -0.4333 -0.0706
  982SOL    HW2 2946   2.550   3.027   2.100  0.1892 -0.4647 -0.5009
  983SOL     OW 2947   1.254   0.544   1.163  0.0205  0.0419 -0.0222
  983SOL    HW1 2948   1.347   0.564   1.125 -0.7527  1.1235 -1.1588
  983SOL    HW2 2949   1.180   0.608   1.132  2.2658  0.2626  0.6257
  984SOL     OW 2950   1.237   2.929   2.743  0.1516 -0.1271  0.0610
  984SOL    HW1 2951   1.283   2.940   2.830  0.6787  0.0782  1.1940
  984SOL    HW2 2952   1.255   3.011   2.679 -1.7785 -0.5296  0.2953
  985SOL     OW 2953   1.874   2.208   1.554 -0.2392  0.2694 -0.2450
  985SOL    HW1 2954   1.788   2.157   1.572 -0.4193  2.6852  3.0799
  985SOL    HW2 2955   1.928   2.165   1.480 -0.7827 -0.2242 -2.1633
  986SOL     OW 2956   2.601   0.165   2.470 -0.7317  0.7947  0.0829
  986SOL    HW1 2957   2.700   0.138   2.474  0.8495  1.8453  1.3514
  986SOL    HW2 2958   2.595   0.264   2.501 -0.7667  0.4854 -3.0971
  987SOL     OW 2959   2.819   0.861   2.242 -0.6706 -0.1405 -0.2832
  987SOL    HW1 2960   2.814   0.768   2.276  1.2385 -0.5155 -0.0190
  987SOL    HW2 2961   2.733   0.911   2.226  1.3695 -1.7340  1.4756
  988SOL     OW 2962   2.333   0.744   2.651 -0.2588  0.8695  0.0135
  988SOL    HW1 2963   2.238   0.706   2.665 -2.2666 -0.4823  1.3858
  988SOL    HW2 2964   2.333   0.805   2.570  1.6644 -1.1931  3.9743
  989SOL     OW 2965   2.276   1.681   1.879  0.2631  0.5146 -0.2219
  989SOL    HW1 2966   2.309   1.771   1.918 -0.4411 -0.2727  2.4231
  989SOL    HW2 2967   2.340   1.635   1.813 -1.7569  0.5420  2.6441
  990SOL     OW 2968   0.510   1.237   3.043 -0.2412  0.1414  0.5713
  990SOL    HW1 2969   0.543   1.340   3.045  1.3328  2.8821  0.8956
  990SOL    HW2 2970   0.493   1.199   2.949 -0.2153 -2.0026 -0.8957
  991SOL     OW 2971   0.297   2.020   2.613 -0.0824 -0.8369  0.1378
  991SOL    HW1 2972   0.295   1.920   2.620  0.4817  1.2920  1.3721
  991SOL    HW2 2973   0.217   2.075   2.655 -0.6717 -0.5873  1.0322
  992SOL     OW 2974   2.602   2.122   1.965  0.5782 -0.0395  0.3360
  992SOL    HW1 2975   2.586   2.203   1.908  0.1699 -1.3245  0.1888
  992SOL    HW2 2976   2.633   2.151   2.058  2.7273 -1.7324  0.9551
  993SOL     OW 2977   0.243   2.992   0.656  0.0108  0.5482  0.3900
  993SOL    HW1 2978   0.277   3.006   0.748  1.6198  0.7281 -3.7510
  993SOL    HW2 2979   0.167   2.928   0.671  1.2532 -0.8055  0.4680
  994SOL     OW 2980   0.257   1.853   1.572 -0.2004  0.0586  0.0358
  994SOL    HW1 2981   0.266   1.940   1.518 -2.3129 -0.9644  2.1775
  994SOL    HW2 2982   0.302   1.853   1.663  2.8665  0.8813  0.1190
  995SOL     OW 2983   1.977   1.707   2.877  0.2018 -0.1289 -0.2417
  995SOL    HW1 2984   1.879   1.722   2.899  2.4707 -0.7536  0.0410
  995SOL    HW2 2985   2.015   1.797   2.845  1.0270  2.3502  0.4760
  996SOL     OW 2986   2.064   1.096   2.785 -0.8465 -0.2479  0.2087
  996SOL    HW1 2987   2.118   1.077   2.867 -0.6456 -1.0742 -0.2375
  996SOL    HW2 2988   2.022   1.189   2.780  3.0118  1.5888 -2.5597
  997SOL     OW 2989   1.494   0.894   1.757  0.2060 -0.4079 -0.0884
  997SOL    HW1 2990   1.407   0.948   1.753 -0.0708 -0.5989 -1.7351
  997SOL    HW2 2991   1.500   0.833   1.675  0.4824  1.3796  2.6042
  998SOL     OW 2992   2.251   2.102   0.938  0.2221  0.3012  0.0938
  998SOL    HW1 2993   2.326   2.173   0.944  1.1697 -0.4817  0.6391
  998SOL    HW2 2994   2.260   2.034   1.011 -0.6775  0.9739 -1.6613
  999SOL     OW 2995   2.340   2.445   0.747  0.1150 -0.4683  0.2588
  999SOL    HW1 2996   2.246   2.449   0.706 -0.2159  2.8369 -2.9870
  999SOL    HW2 2997   2.410   2.510   0.712  1.7132 -1.5746  1.3538
 1000SOL     OW 2998   0.849   2.957   3.058 -0.1634 -0.1549 -0.3201
 1000SOL    HW1 2999   0.777   2.885   3.064 -0.7178 -1.0058  0.1005
 1000SOL    HW2 3000   0.811   3.047   3.082 -1.8311 -1.9450  2.4577
   3.10079   3.10079   3.10079
