1000 SPC/Fw water molecules t= 293.00000 step= 293000
 3000
    1SOL     OW    1   2.512   2.905   0.940  0.2206 -0.0289 -0.1651
    1SOL    HW1    2   2.562   2.888   0.853  0.6251 -1.0985  0.1268
    1SOL    HW2    3   2.572   2.957   1.005  1.0874 -3.2576 -0.3349
    2SOL     OW    4   2.907   2.081   0.952  0.1164 -0.3606  0.0468
    2SOL    HW1    5   2.929   2.058   0.854 -2.3924  0.4224  2.8765
    2SOL    HW2    6   2.829   2.020   0.990 -1.7827 -0.4785 -0.0220
    3SOL     OW    7   0.793   2.919   2.709 -0.3185  0.6550  0.0314
    3SOL    HW1    8   0.701   2.946   2.750 -0.5121 -0.7760 -0.6532
    3SOL    HW2    9   0.799   2.819   2.703 -0.4986  0.7984  0.1917
    4SOL     OW   10   2.041   2.180   1.455 -0.4786 -0.3377 -0.2950
    4SOL    HW1   11   2.122   2.239   1.434  3.0020 -0.4786 -0.0154
    4SOL    HW2   12   2.064   2.085   1.496  3.1613 -2.7947  0.9083
    5SOL     OW   13   1.703   0.996   1.134  0.0185 -0.0569 -0.0658
    5SOL    HW1   14   1.678   0.900   1.112  0.2735 -0.5649  0.1417
    5SOL    HW2   15   1.682   1.009   1.234 -0.0350  0.9816 -1.5831
    6SOL     OW   16   2.166   3.025   0.045 -0.1388 -0.4552  0.0498
    6SOL    HW1   17   2.273   3.030   0.055  0.1880 -0.2519 -0.2634
    6SOL    HW2   18   2.119   2.972   0.116 -0.1874  0.6645 -1.2019
    7SOL     OW   19   2.793   1.213   1.231  0.1287  0.4579  0.0164
    7SOL    HW1   20   2.889   1.187   1.262  0.3326  1.8783  0.4590
    7SOL    HW2   21   2.798   1.310   1.199 -0.2260 -1.7126  1.2567
    8SOL     OW   22   1.421   2.407   1.323  0.1841 -0.8383  0.2204
    8SOL    HW1   23   1.448   2.369   1.410 -1.2549  0.2238 -1.9976
    8SOL    HW2   24   1.433   2.336   1.249 -1.6861 -0.7876 -2.8370
    9SOL     OW   25   1.392   2.937   2.283 -0.4499 -0.3399 -0.0148
    9SOL    HW1   26   1.333   2.858   2.267  0.5358 -1.6708  0.4774
    9SOL    HW2   27   1.482   2.926   2.228 -0.2204 -1.4494 -2.7494
   10SOL     OW   28   0.530   1.997   1.047  0.1311  0.0549 -0.0039
   10SOL    HW1   29   0.498   1.944   0.966 -0.9479 -0.1530  0.4478
   10SOL    HW2   30   0.616   1.956   1.082 -0.0034 -0.7323  0.0128
   11SOL     OW   31   1.800   1.508   0.991  0.3137 -0.3335  0.4845
   11SOL    HW1   32   1.899   1.536   0.974  0.0821 -1.6566  0.5913
   11SOL    HW2   33   1.792   1.459   1.080 -1.2093  0.1134 -0.6538
   12SOL     OW   34   2.555   2.644   1.736  0.2409  0.3678  0.3014
   12SOL    HW1   35   2.642   2.692   1.710  0.9837  0.9798 -0.6331
   12SOL    HW2   36   2.512   2.706   1.804  0.8914 -3.0279 -1.0562
   13SOL     OW   37   2.408   3.021   0.288  0.2698 -0.4421  0.0483
   13SOL    HW1   38   2.317   3.063   0.306 -1.0221  1.5997 -0.9483
   13SOL    HW2   39   2.439   3.030   0.191  0.5276  1.3806 -0.1036
   14SOL     OW   40   1.804   2.216   0.853 -0.0838 -0.2051 -1.0236
   14SOL    HW1   41   1.801   2.117   0.820  1.3426 -1.3916  1.8640
   14SOL    HW2   42   1.888   2.260   0.823  1.6021 -0.9183 -1.7492
   15SOL     OW   43   3.007   1.992   2.015 -0.1312  0.4057 -0.2670
   15SOL    HW1   44   0.010   1.989   1.984  0.5608 -1.8522  2.1335
   15SOL    HW2   45   3.004   2.005   2.113 -0.0167 -0.4469 -1.0769
   16SOL     OW   46   2.290   2.540   0.662 -0.1047 -0.3814 -0.4582
   16SOL    HW1   47   2.320   2.537   0.569  0.3474 -0.2562  1.1841
   16SOL    HW2   48   2.328   2.610   0.724 -0.4949 -1.8571  2.1980
   17SOL     OW   49   0.720   0.040   1.209  0.5725  0.3995  0.4630
   17SOL    HW1   50   0.741   3.044   1.246 -0.5170 -2.1800 -0.2900
   17SOL    HW2   51   0.756   0.117   1.271 -1.5579 -0.8514  0.5243
   18SOL     OW   52   1.382   1.018   0.104 -0.4937  0.1794 -0.0977
   18SOL    HW1   53   1.284   0.998   0.131 -1.0848 -0.2757 -0.6238
   18SOL    HW2   54   1.419   0.963   0.026  1.0955  1.0939  1.5196
   19SOL     OW   55   1.765   1.720   0.404  0.0888 -0.1924 -0.5276
   19SOL    HW1   56   1.833   1.793   0.391  1.4354 -1.3082  0.3538
   19SOL    HW2   57   1.810   1.636   0.450  1.5197 -2.0536 -1.3780
   20SOL     OW   58   2.332   1.690   2.098  0.4566 -0.2567 -0.0152
   20SOL    HW1   59   2.291   1.776   2.141 -1.6704  3.6164  0.6501
   20SOL    HW2   60   2.328   1.618   2.164  0.0590 -0.6052 -4.4202
   21SOL     OW   61   1.060   1.237   0.614 -0.1989  0.1349  0.2446
   21SOL    HW1   62   1.107   1.254   0.523  0.5856  0.0114  0.1466
   21SOL    HW2   63   0.960   1.208   0.612 -1.0146  1.7862 -1.2762
   22SOL     OW   64   1.930   3.018   1.595 -0.8700  0.6329  0.6113
   22SOL    HW1   65   1.982   3.022   1.688  1.9769  2.5338  1.8615
   22SOL    HW2   66   1.989   3.064   1.523  1.8115  2.6473 -1.7579
   23SOL     OW   67   2.993   0.788   1.880  0.3810 -0.6747 -0.2587
   23SOL    HW1   68   2.933   0.835   1.946  0.3150 -0.4921 -1.4186
   23SOL    HW2   69   3.093   0.811   1.895 -0.5378 -1.2867  0.3143
   24SOL     OW   70   2.512   2.768   0.234  0.6864  0.7656  0.2210
   24SOL    HW1   71   2.459   2.850   0.263 -0.6401  0.0235  0.3983
   24SOL    HW2   72   2.505   2.755   0.133 -0.3214 -0.6669  0.4126
   25SOL     OW   73   1.063   0.140   2.196  0.8960 -0.1229 -0.0405
   25SOL    HW1   74   1.162   0.113   2.210  3.6884  3.3575 -0.7253
   25SOL    HW2   75   1.031   0.186   2.279  2.2319 -2.7255 -1.0304
   26SOL     OW   76   1.709   2.344   0.341  0.0603  0.4023  0.2110
   26SOL    HW1   77   1.806   2.325   0.352 -1.0458  0.1678 -0.6515
   26SOL    HW2   78   1.671   2.330   0.248  3.0296 -0.2554 -0.0069
   27SOL     OW   79   2.366   1.549   0.061  0.5670  0.0387 -0.0948
   27SOL    HW1   80   2.272   1.514   0.044  0.7729  0.8576  0.4685
   27SOL    HW2   81   2.434   1.479   0.032 -2.0315 -1.6518 -1.2263
   28SOL     OW   82   0.628   1.430   1.640  0.1072 -0.3936 -0.0319
   28SOL    HW1   83   0.656   1.382   1.726  1.1146  0.5207  1.1379
   28SOL    HW2   84   0.701   1.491   1.605 -0.6904  0.0790 -0.9080
   29SOL     OW   85   2.148   2.470   1.514  0.1812 -0.1121 -0.0660
   29SOL    HW1   86   2.100   2.552   1.482 -0.6344 -2.2816  1.5744
   29SOL    HW2   87   2.246   2.474   1.500 -0.9270  1.0209 -0.0126
   30SOL     OW   88   1.641   0.361   0.583 -0.1471  0.2865 -0.2156
   30SOL    HW1   89   1.642   0.297   0.660  0.1498  0.1042 -2.7650
   30SOL    HW2   90   1.564   0.432   0.591 -1.1055 -4.6936  0.0977
   31SOL     OW   91   2.015   2.383   1.733  0.0160 -0.0164 -0.1243
   31SOL    HW1   92   1.938   2.452   1.743 -0.3692  1.3662 -1.3067
   31SOL    HW2   93   2.072   2.402   1.649 -0.0299  0.5625  0.4783
   32SOL     OW   94   0.888   1.582   0.901 -0.0256  0.1148  0.2187
   32SOL    HW1   95   0.896   1.550   0.803  1.8841 -0.0741  0.7349
   32SOL    HW2   96   0.966   1.643   0.923  0.7758 -0.8159 -2.5529
   33SOL     OW   97   0.157   0.227   2.537  0.2401 -0.6339 -0.0390
   33SOL    HW1   98   0.251   0.248   2.568 -2.6377  1.2054 -0.9036
   33SOL    HW2   99   0.137   0.281   2.450 -0.7832  1.8244  1.8902
   34SOL     OW  100   1.898   0.086   0.441 -0.5767  0.2982 -0.2059
   34SOL    HW1  101   1.901   0.180   0.473 -0.6639 -2.5944 -2.3524
   34SOL    HW2  102   1.840   0.073   0.357  0.6928 -3.9926  2.4992
   35SOL     OW  103   2.138   2.727   1.444  0.3770 -0.2192  0.2509
   35SOL    HW1  104   2.201   2.810   1.440  0.5542  0.8145  1.2515
   35SOL    HW2  105   2.116   2.692   1.350 -1.5587  0.0233  0.9360
   36SOL     OW  106   1.764   2.519   2.302  0.3240  0.4228  0.0783
   36SOL    HW1  107   1.811   2.435   2.325  0.7258 -0.9039 -2.2951
   36SOL    HW2  108   1.720   2.565   2.384 -0.3999 -0.1387  1.0358
   37SOL     OW  109   0.980   0.062   1.786 -0.2064  0.0668 -0.0150
   37SOL    HW1  110   0.946   0.003   1.712  2.8593  2.9253  2.1689
   37SOL    HW2  111   0.923   0.051   1.871  0.6064 -0.8354 -0.5577
   38SOL     OW  112   3.021   0.210   2.703 -0.3845  0.7734  0.1545
   38SOL    HW1  113   3.014   0.135   2.770 -2.6994 -0.4543 -1.7051
   38SOL    HW2  114   0.006   0.204   2.643  2.7652  1.1149  0.4475
   39SOL     OW  115   2.246   0.846   1.549  0.3775  0.2563 -0.2605
   39SOL    HW1  116   2.233   0.933   1.601  1.8609 -0.5663 -0.1850
   39SOL    HW2  117   2.194   0.843   1.465  3.6630 -1.2997 -1.2552
   40SOL     OW  118   1.107   2.782   0.194 -0.0148  0.1132 -0.4135
   40SOL    HW1  119   1.047   2.852   0.147  0.1003  1.5356 -0.9415
   40SOL    HW2  120   1.110   2.786   0.297 -0.0978 -0.7063  0.6132
   41SOL     OW  121   2.462   1.205   0.936 -0.0742  0.5774  0.2258
   41SOL    HW1  122   2.470   1.251   1.027 -0.0535 -2.5945  1.4868
   41SOL    HW2  123   2.551   1.165   0.901  2.1906 -1.1490 -1.8045
   42SOL     OW  124   0.235   0.323   1.031 -0.0494 -0.4714  0.3966
   42SOL    HW1  125   0.259   0.415   0.990  0.4726  0.9894 -0.3721
   42SOL    HW2  126   0.251   0.244   0.963  0.1696 -0.8524  0.1019
   43SOL     OW  127   2.778   1.725   2.551  0.0515  0.0771  1.2181
   43SOL    HW1  128   2.693   1.703   2.604  2.0647 -1.5021 -1.4221
   43SOL    HW2  129   2.806   1.653   2.485  0.9532  1.3041 -2.2814
   44SOL     OW  130   2.733   0.090   1.757  0.0370 -0.0360  0.2084
   44SOL    HW1  131   2.818   0.037   1.771 -1.6583  2.2822  1.0768
   44SOL    HW2  132   2.701   0.144   1.839  0.1163  0.2817 -0.2718
   45SOL     OW  133   0.640   0.017   1.640 -0.2237  0.8070 -0.1094
   45SOL    HW1  134   0.739   3.087   1.630  1.6974 -0.9701 -1.5679
   45SOL    HW2  135   0.601   3.076   1.728  2.5967  0.4373 -2.1264
   46SOL     OW  136   1.389   2.853   2.639 -0.6631 -0.1623  0.2093
   46SOL    HW1  137   1.303   2.825   2.597  0.6069 -1.5460  1.2566
   46SOL    HW2  138   1.395   2.951   2.667  1.2658 -2.8803  1.5874
   47SOL     OW  139   1.805   1.959   0.801  0.0117  0.2387 -0.2717
   47SOL    HW1  140   1.747   1.908   0.868  1.4691  0.2482  1.1063
   47SOL    HW2  141   1.897   1.917   0.807  1.8060  2.6373  0.3555
   48SOL     OW  142   0.814   2.331   0.562  0.1996  0.0858  0.2312
   48SOL    HW1  143   0.893   2.389   0.579 -1.5350  1.7590  0.0576
   48SOL    HW2  144   0.769   2.301   0.647  1.0302  0.7400  1.5236
   49SOL     OW  145   2.234   0.015   2.390  0.2285 -0.1592  0.3852
   49SOL    HW1  146   2.325   3.095   2.354 -1.4213  0.5929 -1.8787
   49SOL    HW2  147   2.222   0.006   2.489 -2.5289 -1.6420 -0.5501
   50SOL     OW  148   1.803   0.413   0.010 -0.7895 -0.2048  0.3257
   50SOL    HW1  149   1.871   0.473   0.061 -0.8389 -0.3063  1.6999
   50SOL    HW2  150   1.714   0.402   0.059 -1.6112  3.1135  0.0527
   51SOL     OW  151   2.087   0.927   0.612  0.5280 -0.5569 -0.0127
   51SOL    HW1  152   2.072   1.028   0.630  0.4595  1.5814 -0.1790
   51SOL    HW2  153   2.023   0.868   0.670 -1.0495  0.0778  2.8289
   52SOL     OW  154   1.099   1.416   1.307 -0.7092  0.2359 -0.0915
   52SOL    HW1  155   1.128   1.316   1.298 -2.1127 -1.0375 -0.3681
   52SOL    HW2  156   1.042   1.436   1.223 -3.2134 -1.7849  0.7331
   53SOL     OW  157   1.119   1.767   2.302  0.4816 -0.1015  0.2594
   53SOL    HW1  158   1.039   1.715   2.268 -1.1617  0.3101 -0.8051
   53SOL    HW2  159   1.088   1.849   2.359 -0.5797  0.3901 -0.9477
   54SOL     OW  160   2.670   0.332   1.594  0.5656  0.2679 -0.0363
   54SOL    HW1  161   2.635   0.247   1.643 -2.2339  0.2094  0.9602
   54SOL    HW2  162   2.635   0.327   1.497 -1.3926  1.2298 -0.3515
   55SOL     OW  163   2.908   2.006   0.668  0.1694 -0.2540 -0.1541
   55SOL    HW1  164   2.925   1.918   0.710  1.1673  1.2373 -0.3766
   55SOL    HW2  165   2.818   2.004   0.621  3.3688  0.0267  0.6494
   56SOL     OW  166   1.307   0.611   2.081 -0.4839 -0.3939  0.3745
   56SOL    HW1  167   1.266   0.564   2.159 -0.1596  1.3320  1.3074
   56SOL    HW2  168   1.402   0.648   2.101  0.1115 -1.6035  0.9819
   57SOL     OW  169   1.433   1.296   0.057 -0.0801  0.1158  0.5286
   57SOL    HW1  170   1.422   1.194   0.075 -0.3310  3.1419  1.8544
   57SOL    HW2  171   1.530   1.322   0.049 -1.9553 -0.0046  0.3998
   58SOL     OW  172   0.195   1.016   1.463  0.0823  0.0308  0.3361
   58SOL    HW1  173   0.188   1.087   1.532 -1.1549 -1.3508 -0.2880
   58SOL    HW2  174   0.153   0.929   1.497 -0.3535 -0.4779 -0.0479
   59SOL     OW  175   1.465   2.946   0.101  0.0949  0.1992  0.2831
   59SOL    HW1  176   1.402   2.978   0.030  0.4655  1.1141 -0.5335
   59SOL    HW2  177   1.478   3.021   0.169 -1.3577  1.5216 -0.7513
   60SOL     OW  178   2.920   2.085   0.249  0.3388  0.1594 -0.2164
   60SOL    HW1  179   2.842   2.024   0.235  0.1247  0.1649 -2.4014
   60SOL    HW2  180   2.893   2.182   0.234 -0.5032  1.7403  0.5045
   61SOL     OW  181   1.297   2.764   0.635 -0.1049  0.2177 -0.2363
   61SOL    HW1  182   1.325   2.668   0.659 -1.1044  0.3803 -1.3894
   61SOL    HW2  183   1.380   2.815   0.616 -2.1740 -1.1295 -0.0754
   62SOL     OW  184   2.007   2.052   2.753 -0.0345  0.2437 -0.5905
   62SOL    HW1  185   1.956   2.005   2.679  1.2651 -1.5910 -1.8008
   62SOL    HW2  186   2.104   2.072   2.729 -0.7068  0.3686  0.0977
   63SOL     OW  187   2.541   2.359   0.375  0.9509  0.0637  0.3993
   63SOL    HW1  188   2.451   2.411   0.355 -1.5140  2.5003  0.5931
   63SOL    HW2  189   2.546   2.344   0.477 -1.1867  0.0009 -0.0815
   64SOL     OW  190   1.635   1.275   2.672 -0.3953 -0.1395 -0.2155
   64SOL    HW1  191   1.556   1.324   2.631  0.3652 -0.1245 -2.6104
   64SOL    HW2  192   1.597   1.211   2.741 -2.9503  3.4079 -3.1802
   65SOL     OW  193   1.549   1.845   2.840 -0.1620  0.0610 -0.0791
   65SOL    HW1  194   1.528   1.816   2.938  0.9975 -0.9141  0.3569
   65SOL    HW2  195   1.459   1.828   2.794  1.4299 -1.3893  1.8318
   66SOL     OW  196   0.305   1.080   1.939 -0.6142 -0.2495 -0.3067
   66SOL    HW1  197   0.390   1.033   1.968  4.5430 -4.3745 -0.1167
   66SOL    HW2  198   0.340   1.160   1.887 -1.6717 -0.8675 -0.7411
   67SOL     OW  199   2.346   2.892   2.743 -0.2262 -0.0905  0.5242
   67SOL    HW1  200   2.314   2.842   2.827  1.8224  1.7163 -0.4428
   67SOL    HW2  201   2.436   2.934   2.752 -0.4436 -1.7403 -0.6089
   68SOL     OW  202   1.055   2.626   1.416  0.2635 -0.3631  0.2812
   68SOL    HW1  203   1.012   2.538   1.427 -0.1975  1.6225  0.6148
   68SOL    HW2  204   1.156   2.617   1.414 -2.5305  0.4417 -3.0043
   69SOL     OW  205   0.598   2.590   0.420  0.8336  0.3269 -0.2136
   69SOL    HW1  206   0.562   2.497   0.442 -0.3278  0.6948  1.3098
   69SOL    HW2  207   0.577   2.656   0.502  0.4092  1.4666  2.8003
   70SOL     OW  208   2.520   0.247   2.601 -0.0893  0.3607  0.5502
   70SOL    HW1  209   2.441   0.302   2.638 -0.3800  0.6105  2.3352
   70SOL    HW2  210   2.521   0.257   2.501  3.5836 -0.5125  0.9923
   71SOL     OW  211   0.706   1.195   2.381  0.5011 -0.1472  0.5482
   71SOL    HW1  212   0.714   1.300   2.373  1.0041  0.2683  0.4716
   71SOL    HW2  213   0.610   1.161   2.367  0.4273 -1.4471 -1.3011
   72SOL     OW  214   0.093   2.063   0.085 -0.0008  0.2048 -0.3290
   72SOL    HW1  215   0.103   2.136   0.009  1.8716 -0.3117 -2.2862
   72SOL    HW2  216   3.093   2.062   0.115 -2.0446 -0.3445  0.5096
   73SOL     OW  217   1.171   1.220   0.344  0.2875  0.0552 -0.2887
   73SOL    HW1  218   1.249   1.284   0.371  2.7215 -0.6206 -1.6837
   73SOL    HW2  219   1.153   1.236   0.247 -1.4451  3.1739 -0.4901
   74SOL     OW  220   2.176   2.713   2.604 -0.7049  0.0353  0.4505
   74SOL    HW1  221   2.125   2.682   2.679  2.4816 -0.0692 -2.2791
   74SOL    HW2  222   2.236   2.789   2.631 -2.5166 -2.1753 -2.7173
   75SOL     OW  223   2.332   1.863   0.880  0.3017 -0.3613  0.2366
   75SOL    HW1  224   2.357   1.799   0.956 -0.8513  2.0626 -0.4248
   75SOL    HW2  225   2.404   1.852   0.807  0.9954  0.4789 -1.2194
   76SOL     OW  226   1.860   2.698   1.466 -0.5497  0.2786 -0.3645
   76SOL    HW1  227   1.922   2.775   1.492  3.6852  1.3751 -2.4421
   76SOL    HW2  228   1.838   2.645   1.551 -1.1250  1.9443  1.5011
   77SOL     OW  229   2.428   0.209   1.971  0.3504 -0.0961  0.8200
   77SOL    HW1  230   2.389   0.202   2.063 -0.6904  1.2165 -4.0354
   77SOL    HW2  231   2.513   0.268   1.975  0.7589 -0.7117 -2.3627
   78SOL     OW  232   1.412   0.848   3.001 -0.1557  0.3224 -0.1522
   78SOL    HW1  233   1.318   0.838   2.967 -0.5082  3.7845  1.3561
   78SOL    HW2  234   1.465   0.764   2.985  0.1015  0.3608  1.6839
   79SOL     OW  235   2.353   1.515   2.309  0.1991  0.9203 -0.4798
   79SOL    HW1  236   2.370   1.610   2.347  0.7557  2.5503  1.4122
   79SOL    HW2  237   2.408   1.448   2.362  3.1430 -1.8472  1.0215
   80SOL     OW  238   1.897   1.546   1.752 -0.2085 -0.3814 -0.0668
   80SOL    HW1  239   1.931   1.479   1.821  0.6904  1.5123 -2.1252
   80SOL    HW2  240   1.842   1.482   1.696  0.8434 -2.0920 -1.5056
   81SOL     OW  241   1.375   0.605   1.152  0.1045  0.6386  0.0094
   81SOL    HW1  242   1.403   0.513   1.185 -1.5526  2.5617 -1.4209
   81SOL    HW2  243   1.350   0.605   1.052 -0.0463  0.2395 -2.0980
   82SOL     OW  244   1.572   2.522   1.788  0.0896 -0.5178  0.2471
   82SOL    HW1  245   1.517   2.478   1.861 -0.1635  0.8296 -0.9589
   82SOL    HW2  246   1.532   2.611   1.755 -1.6808  2.4153 -0.4412
   83SOL     OW  247   0.133   0.225   0.695  0.0811 -0.1397  0.1827
   83SOL    HW1  248   0.157   0.168   0.775  1.6012 -2.3089  1.7420
   83SOL    HW2  249   0.032   0.252   0.703  0.5296 -2.6921 -0.2499
   84SOL     OW  250   0.735   1.185   3.081 -0.4178 -0.1263 -0.1242
   84SOL    HW1  251   0.772   1.180   0.080 -1.8585 -0.2810  0.9100
   84SOL    HW2  252   0.722   1.281   3.051 -0.5286 -1.4397 -0.8876
   85SOL     OW  253   2.678   1.767   1.794 -0.2419 -0.3009  0.2814
   85SOL    HW1  254   2.760   1.721   1.836  0.7306  0.8336 -0.1286
   85SOL    HW2  255   2.589   1.727   1.824  0.2332  1.1018 -0.1008
   86SOL     OW  256   3.054   2.645   1.529  0.4839  0.0448 -0.1338
   86SOL    HW1  257   0.051   2.629   1.501 -0.1969 -0.0714 -0.4814
   86SOL    HW2  258   3.025   2.618   1.625 -0.0019 -2.3685  4.6935
   87SOL     OW  259   0.510   0.306   2.447  0.2525 -0.3854  0.1099
   87SOL    HW1  260   0.584   0.293   2.379  2.1635  2.7126 -0.7190
   87SOL    HW2  261   0.492   0.225   2.506  0.7663 -0.3485 -0.9572
   88SOL     OW  262   0.465   2.246   1.097 -0.0700  0.1275 -0.0110
   88SOL    HW1  263   0.504   2.153   1.092 -0.7134 -0.4166  0.3711
   88SOL    HW2  264   0.434   2.265   1.192  1.4234  1.6950  0.3371
   89SOL     OW  265   1.046   0.708   1.611 -0.1023  0.3067  0.1556
   89SOL    HW1  266   1.113   0.657   1.670 -1.4202  0.3801  0.4777
   89SOL    HW2  267   0.967   0.738   1.667  0.5285  0.1021 -3.6455
   90SOL     OW  268   2.846   1.427   1.719  0.0300 -0.0267 -0.4690
   90SOL    HW1  269   2.878   1.493   1.791 -2.2821  3.6215  2.6497
   90SOL    HW2  270   2.898   1.338   1.726  0.4598  0.2800 -1.5778
   91SOL     OW  271   1.232   1.014   1.040 -0.0380 -0.0536 -0.0209
   91SOL    HW1  272   1.194   0.934   1.092 -0.8831  2.0015  1.1997
   91SOL    HW2  273   1.184   1.037   0.952 -1.5449 -0.3376 -0.9132
   92SOL     OW  274   2.583   0.824   0.884  0.2068 -0.0091  0.3492
   92SOL    HW1  275   2.560   0.776   0.972 -1.1684  0.4828  0.6105
   92SOL    HW2  276   2.511   0.816   0.816  2.1253  1.6674  0.7478
   93SOL     OW  277   1.878   0.862   2.705  0.0620  0.0439  0.1404
   93SOL    HW1  278   1.857   0.765   2.680  2.5023 -0.7218  1.3290
   93SOL    HW2  279   1.868   0.927   2.623  1.5082 -0.3882  0.8843
   94SOL     OW  280   2.359   1.764   2.418  0.5157  0.5239 -0.2586
   94SOL    HW1  281   2.420   1.834   2.372 -0.5582 -0.3239 -0.6570
   94SOL    HW2  282   2.355   1.783   2.519  3.0717  1.7398 -3.1548
   95SOL     OW  283   2.171   0.505   1.032 -0.5052 -0.5254 -0.4180
   95SOL    HW1  284   2.078   0.539   1.064  0.0530  0.8892 -0.0846
   95SOL    HW2  285   2.208   0.460   1.116 -1.8853  0.0404  0.3114
   96SOL     OW  286   2.486   3.005   2.023  0.4739  0.1398 -0.0717
   96SOL    HW1  287   2.442   2.928   1.973 -2.5986  2.0234  2.1315
   96SOL    HW2  288   2.474   3.094   1.976  1.8849  1.9631  0.4788
   97SOL     OW  289   2.533   0.671   1.395 -0.0727  0.2302  0.3852
   97SOL    HW1  290   2.501   0.763   1.369 -1.3503  1.6355  1.4996
   97SOL    HW2  291   2.457   0.607   1.422 -0.7326 -0.2033  2.3546
   98SOL     OW  292   1.422   2.151   1.519 -0.0494  0.4866  0.6210
   98SOL    HW1  293   1.460   2.074   1.464  0.4196  4.1314  0.2963
   98SOL    HW2  294   1.503   2.201   1.554 -0.5955  0.1217  0.1749
   99SOL     OW  295   2.532   2.170   1.599 -0.5438  0.2576 -1.1744
   99SOL    HW1  296   2.593   2.103   1.655  0.0687 -0.3831  2.1692
   99SOL    HW2  297   2.471   2.128   1.529  0.0540 -1.0774 -1.2672
  100SOL     OW  298   0.828   0.675   3.013  0.2705 -0.5542  0.6405
  100SOL    HW1  299   0.752   0.613   2.984  1.6067 -0.1819 -0.5989
  100SOL    HW2  300   0.794   0.768   3.047  2.5687  0.4967  0.6285
  101SOL     OW  301   2.251   0.290   2.920  0.2925 -0.1399 -0.6963
  101SOL    HW1  302   2.174   0.224   2.949 -1.4011 -0.0248  2.9408
  101SOL    HW2  303   2.245   0.371   2.981  0.4056 -0.5848 -0.5297
  102SOL     OW  304   0.382   0.617   1.591 -0.2699  0.4335  0.2144
  102SOL    HW1  305   0.421   0.610   1.496  1.9734  1.0872  0.6846
  102SOL    HW2  306   0.470   0.625   1.650  3.1163  1.1206 -0.7260
  103SOL     OW  307   0.100   0.522   3.036  0.0413 -0.3060 -0.5903
  103SOL    HW1  308   0.200   0.532   3.053  2.0003 -2.2238 -0.4774
  103SOL    HW2  309   0.076   0.537   2.938  1.5564  2.6425 -1.5034
  104SOL     OW  310   0.677   0.443   2.641  0.1736  0.0465 -0.5167
  104SOL    HW1  311   0.779   0.454   2.638  1.4723 -1.8260 -0.5812
  104SOL    HW2  312   0.647   0.374   2.576  0.4483 -0.5326  0.6172
  105SOL     OW  313   2.079   1.881   1.849  0.0232  0.3012 -0.2534
  105SOL    HW1  314   1.984   1.838   1.868 -3.2436 -1.8687 -1.3023
  105SOL    HW2  315   2.107   1.931   1.932  2.3047 -0.4051  1.2190
  106SOL     OW  316   1.912   0.637   0.169 -0.3805 -0.2100  0.6906
  106SOL    HW1  317   1.891   0.649   0.271 -0.3095  1.4257  0.7773
  106SOL    HW2  318   1.855   0.700   0.113 -1.1468  0.3072 -1.5874
  107SOL     OW  319   0.135   1.751   0.815  0.3346  0.2854  0.2640
  107SOL    HW1  320   0.143   1.751   0.918  0.7642  0.3761  2.0738
  107SOL    HW2  321   0.203   1.816   0.775  0.5619 -1.4962  0.8113
  108SOL     OW  322   2.763   2.802   1.695 -0.1085 -0.1530 -0.1260
  108SOL    HW1  323   2.824   2.868   1.746  1.1653 -0.3037 -1.6532
  108SOL    HW2  324   2.782   2.811   1.594 -0.2011  0.3218  3.4043
  109SOL     OW  325   1.895   2.898   1.052 -0.1103  0.0159 -0.7700
  109SOL    HW1  326   1.849   2.950   0.975 -0.6508  2.2809 -3.0083
  109SOL    HW2  327   1.991   2.871   1.032  1.0486  1.1778 -0.7449
  110SOL     OW  328   0.728   2.049   2.694  0.5502 -0.0306 -0.4523
  110SOL    HW1  329   0.774   1.954   2.685  3.8011 -1.8867 -2.2007
  110SOL    HW2  330   0.795   2.125   2.713  0.1092 -1.0381 -0.0341
  111SOL     OW  331   1.532   2.434   2.162  0.8071 -0.1197  0.5421
  111SOL    HW1  332   1.465   2.485   2.106 -0.5299 -2.3974  0.8772
  111SOL    HW2  333   1.589   2.498   2.220  0.3440  2.0086 -0.9170
  112SOL     OW  334   1.922   2.214   3.089 -0.5649 -0.6259  0.5204
  112SOL    HW1  335   1.969   2.267   0.065 -0.7918  1.3261 -1.3429
  112SOL    HW2  336   1.849   2.262   3.041  0.8284 -0.1378 -1.1424
  113SOL     OW  337   1.507   2.017   1.297  0.0356  0.1132 -0.7584
  113SOL    HW1  338   1.608   1.996   1.321  3.4156 -2.4129  0.6978
  113SOL    HW2  339   1.460   1.927   1.274  0.5320 -0.1626 -0.4728
  114SOL     OW  340   3.001   1.026   0.674  0.6984  0.0537  0.2403
  114SOL    HW1  341   2.912   0.983   0.652 -0.7090  0.5242  2.9662
  114SOL    HW2  342   3.010   1.043   0.773 -0.7101  1.4954 -0.4725
  115SOL     OW  343   0.734   0.906   0.017 -0.0664 -0.6958 -0.0896
  115SOL    HW1  344   0.729   1.007   0.030 -0.3451  0.2198 -0.3635
  115SOL    HW2  345   0.730   0.857   0.110  0.6882 -0.7888  1.1391
  116SOL     OW  346   2.545   1.375   2.434  0.1776  0.3858 -0.0039
  116SOL    HW1  347   2.515   1.355   2.532  3.2885  1.2916 -0.1271
  116SOL    HW2  348   2.596   1.295   2.392  1.6601 -0.1818  0.5080
  117SOL     OW  349   0.148   2.937   0.824  0.4847 -0.5308 -0.2303
  117SOL    HW1  350   0.148   2.839   0.857 -0.1165 -0.6372 -0.4668
  117SOL    HW2  351   0.098   2.943   0.733 -0.1213 -0.1563  1.9846
  118SOL     OW  352   1.068   2.004   2.468  0.3422 -0.4997 -0.4032
  118SOL    HW1  353   1.121   2.089   2.437 -1.7838  1.7878  0.4129
  118SOL    HW2  354   1.092   1.972   2.563  0.9281 -1.2288  0.4277
  119SOL     OW  355   0.399   2.538   2.947  0.1629 -0.0927  0.2049
  119SOL    HW1  356   0.434   2.499   3.033  0.9376  1.6267 -1.7250
  119SOL    HW2  357   0.304   2.580   2.957 -0.0406 -1.3340  0.3490
  120SOL     OW  358   1.085   0.740   3.082  0.7070 -0.4359  0.3756
  120SOL    HW1  359   1.103   0.801   3.001 -0.3081  0.9538  1.7292
  120SOL    HW2  360   0.989   0.708   3.066  0.4768  0.7012 -0.3828
  121SOL     OW  361   1.404   2.869   1.115  0.0053  0.4204  0.4978
  121SOL    HW1  362   1.465   2.782   1.128  1.3325 -0.8090  0.7813
  121SOL    HW2  363   1.423   2.935   1.192 -0.6370 -1.2199 -1.6786
  122SOL     OW  364   2.410   2.562   1.511 -0.1208  0.0991 -0.2681
  122SOL    HW1  365   2.457   2.603   1.592 -1.7826 -0.9221 -1.5000
  122SOL    HW2  366   2.443   2.613   1.429  1.4830 -1.1008 -1.7129
  123SOL     OW  367   0.691   2.233   0.790  0.5421 -0.6288 -0.1553
  123SOL    HW1  368   0.623   2.153   0.798 -1.2998 -1.8446 -0.9718
  123SOL    HW2  369   0.645   2.315   0.833 -0.3635  0.0689 -0.2732
  124SOL     OW  370   2.359   0.745   0.191  0.2291  0.9057  0.3551
  124SOL    HW1  371   2.272   0.698   0.200  0.2221  0.9592 -2.8120
  124SOL    HW2  372   2.407   0.706   0.111 -0.4619 -1.3280 -0.7093
  125SOL     OW  373   0.575   1.074   0.270 -0.0520  0.0473  0.0339
  125SOL    HW1  374   0.581   1.012   0.353 -1.2019  0.4294  0.0507
  125SOL    HW2  375   0.663   1.126   0.257  1.7316  0.6338 -0.1857
  126SOL     OW  376   0.286   1.536   0.844  0.3778 -0.2490  0.2165
  126SOL    HW1  377   0.234   1.458   0.890  0.3773 -1.2638 -1.4136
  126SOL    HW2  378   0.230   1.613   0.811 -0.9498 -2.6848 -0.8135
  127SOL     OW  379   0.858   2.101   2.331  0.3554  0.4307  0.2827
  127SOL    HW1  380   0.888   2.122   2.236 -0.0244 -0.1885 -0.8804
  127SOL    HW2  381   0.938   2.071   2.393 -0.4039  0.8424  0.8827
  128SOL     OW  382   0.894   0.950   2.888 -0.0007 -0.1648 -0.7492
  128SOL    HW1  383   0.896   0.963   2.789  1.2310 -0.5416 -0.1618
  128SOL    HW2  384   0.802   0.976   2.924  0.3956  2.0805 -2.0719
  129SOL     OW  385   2.547   1.607   0.632  0.1835  0.6534  0.2763
  129SOL    HW1  386   2.446   1.616   0.623 -0.2835  0.5676  0.0139
  129SOL    HW2  387   2.601   1.661   0.565 -1.0758 -1.8406 -1.4789
  130SOL     OW  388   2.547   1.331   1.160  0.1262 -0.7260 -0.0486
  130SOL    HW1  389   2.584   1.416   1.119  1.2256 -1.6060 -1.2578
  130SOL    HW2  390   2.618   1.272   1.198 -3.0318  1.4993 -2.3071
  131SOL     OW  391   0.066   2.887   0.055 -0.1863 -0.3278 -0.0914
  131SOL    HW1  392   0.018   2.956   3.095  2.7447  1.9541  1.1170
  131SOL    HW2  393   0.039   2.906   0.153  1.7246  0.2013  1.1439
  132SOL     OW  394   0.528   1.839   0.809 -0.2777 -0.0120  0.5845
  132SOL    HW1  395   0.601   1.835   0.733 -0.4667  0.6036  0.4429
  132SOL    HW2  396   0.443   1.876   0.776 -0.5878  2.1045 -0.5938
  133SOL     OW  397   0.984   0.442   1.268 -0.3244 -0.2539  0.3242
  133SOL    HW1  398   1.067   0.443   1.332  2.3118  0.8605  0.9491
  133SOL    HW2  399   1.003   0.389   1.180 -1.1336 -0.4927 -1.4913
  134SOL     OW  400   0.096   1.778   0.133  0.0897  0.0311 -0.3405
  134SOL    HW1  401   0.047   1.751   0.044 -1.5134  1.9902 -0.3115
  134SOL    HW2  402   0.092   1.881   0.136  0.8662  0.5983  0.5397
  135SOL     OW  403   1.768   0.616   1.690 -0.1421 -0.4412 -0.1591
  135SOL    HW1  404   1.723   0.702   1.726  3.8334  3.1087 -0.1269
  135SOL    HW2  405   1.728   0.603   1.594 -1.6567 -0.6770 -1.8823
  136SOL     OW  406   0.022   1.289   0.192  0.8478 -0.4040 -0.6723
  136SOL    HW1  407   0.044   1.381   0.237 -0.2481  1.5043 -1.6215
  136SOL    HW2  408   0.079   1.219   0.244  3.1481 -0.8992  0.2075
  137SOL     OW  409   0.152   1.315   0.945 -0.3947 -0.9756  0.1547
  137SOL    HW1  410   0.158   1.217   0.923 -0.7836  0.3506  1.0519
  137SOL    HW2  411   0.054   1.341   0.964  0.6090  1.5056 -0.5214
  138SOL     OW  412   1.872   0.794   0.773 -0.0217  0.1507 -0.1933
  138SOL    HW1  413   1.875   0.694   0.773  0.3446  2.0682  0.4510
  138SOL    HW2  414   1.919   0.826   0.857 -2.0617 -1.2260  2.1623
  139SOL     OW  415   1.771   2.693   0.243 -0.2601 -0.0911  0.1276
  139SOL    HW1  416   1.675   2.709   0.277  0.9135  1.5102  1.7306
  139SOL    HW2  417   1.833   2.674   0.320  0.0218  1.5536 -0.1865
  140SOL     OW  418   1.255   1.765   1.582  0.2595  0.9626  0.2020
  140SOL    HW1  419   1.184   1.806   1.647  0.6775  0.2662 -0.5700
  140SOL    HW2  420   1.228   1.665   1.562 -2.2821  0.5293 -0.3756
  141SOL     OW  421   1.598   1.962   0.605  0.0409 -0.1519  0.4696
  141SOL    HW1  422   1.632   1.876   0.572 -1.6345  1.8857  4.1208
  141SOL    HW2  423   1.667   2.004   0.662  2.0588  3.7813 -1.1667
  142SOL     OW  424   1.150   0.279   0.057  0.0560 -0.5833 -0.1096
  142SOL    HW1  425   1.161   0.195   0.114  0.0802  1.2007 -0.1126
  142SOL    HW2  426   1.080   0.338   0.094  2.4168 -1.5850  2.1554
  143SOL     OW  427   0.409   2.194   2.960  0.3219 -0.3231 -0.1281
  143SOL    HW1  428   0.463   2.233   2.886  0.9838  0.0143  2.0022
  143SOL    HW2  429   0.442   2.221   3.054  1.5424  1.6046  1.9818
  144SOL     OW  430   1.426   3.062   1.299 -0.5801  0.1704 -0.2828
  144SOL    HW1  431   1.385   3.033   1.390 -1.3748 -1.0656  1.6181
  144SOL    HW2  432   1.524   3.081   1.295  0.0995  0.7699 -0.9978
  145SOL     OW  433   1.952   1.202   0.006  0.0738 -0.2958 -0.0347
  145SOL    HW1  434   1.978   1.148   0.084  1.6754  2.6774 -2.5729
  145SOL    HW2  435   1.872   1.261   0.024  1.1677  0.8389 -1.6731
  146SOL     OW  436   0.150   2.339   0.948 -0.4117 -0.1826  0.1962
  146SOL    HW1  437   0.109   2.344   0.850  1.1503  0.4206  1.5200
  146SOL    HW2  438   0.073   2.341   1.016  1.2626  1.1127 -0.7673
  147SOL     OW  439   2.313   3.096   1.667 -0.6685  0.5814 -0.0047
  147SOL    HW1  440   2.233   3.046   1.706  0.6410  1.9916  3.7384
  147SOL    HW2  441   2.399   3.051   1.695 -1.1664  0.4594  0.6351
  148SOL     OW  442   1.368   2.982   1.963  0.0398  0.6233 -0.0542
  148SOL    HW1  443   1.329   3.049   1.891 -1.5149  2.9177  0.2837
  148SOL    HW2  444   1.306   2.982   2.044  0.7577 -2.4186 -0.0228
  149SOL     OW  445   1.878   0.185   2.339  0.0664 -0.0158  0.0732
  149SOL    HW1  446   1.777   0.206   2.345 -1.9729 -0.3677  0.7848
  149SOL    HW2  447   1.941   0.259   2.310  0.8254 -5.0441  1.3233
  150SOL     OW  448   3.068   2.920   0.331 -0.0588  0.2152  0.4452
  150SOL    HW1  449   3.054   3.015   0.296 -2.2107  1.1071 -0.9777
  150SOL    HW2  450   3.096   2.917   0.425 -1.4167 -0.1026 -2.4419
  151SOL     OW  451   0.387   2.345   0.091 -0.3136 -0.5405  0.4241
  151SOL    HW1  452   0.374   2.445   0.118  1.1975  2.4411 -0.9959
  151SOL    HW2  453   0.358   2.284   0.165  0.6502 -0.4281  0.5547
  152SOL     OW  454   2.895   0.010   0.713  0.2565  0.7395 -0.2428
  152SOL    HW1  455   2.918   0.109   0.736 -3.4494 -0.1141  0.8169
  152SOL    HW2  456   2.864   3.064   0.802  3.1101 -0.4289 -0.4981
  153SOL     OW  457   2.399   0.235   1.093 -0.4507  0.1962  0.2315
  153SOL    HW1  458   2.326   0.234   1.021 -1.8270  1.4362 -1.1067
  153SOL    HW2  459   2.491   0.254   1.049  2.7568 -0.7521 -2.7025
  154SOL     OW  460   0.771   0.317   2.349 -0.0381  0.2105 -0.7363
  154SOL    HW1  461   0.869   0.314   2.387  4.5045  3.7926  0.2118
  154SOL    HW2  462   0.752   0.415   2.335 -0.2601  1.8610  1.6711
  155SOL     OW  463   0.224   1.339   1.222 -0.1190 -0.0748 -0.0582
  155SOL    HW1  464   0.291   1.420   1.226  0.5627  1.8061 -1.4658
  155SOL    HW2  465   0.196   1.332   1.126  0.3970  0.9012  0.5071
  156SOL     OW  466   2.269   1.972   3.021 -0.2909 -0.3717 -0.4042
  156SOL    HW1  467   2.317   1.886   3.026 -1.1230  2.9697  0.1988
  156SOL    HW2  468   2.170   1.955   3.031  0.7883 -0.8360  1.9375
  157SOL     OW  469   0.973   0.485   0.143 -0.1411 -0.3152 -0.3614
  157SOL    HW1  470   0.938   0.519   0.235  1.5188  1.5511  2.9437
  157SOL    HW2  471   1.027   0.562   0.102 -0.2712  1.5729 -1.9483
  158SOL     OW  472   2.551   0.001   2.727 -0.8158 -0.0766 -0.0609
  158SOL    HW1  473   2.554   0.082   2.659 -1.1637  1.2694  0.2416
  158SOL    HW2  474   2.522   0.038   2.820  0.1507 -0.8072 -1.8001
  159SOL     OW  475   0.587   0.274   0.715 -0.3891  0.1657 -0.3001
  159SOL    HW1  476   0.500   0.322   0.721  0.2013 -0.5474 -0.7504
  159SOL    HW2  477   0.572   0.180   0.749  0.9040 -0.0919  0.1995
  160SOL     OW  478   1.318   1.747   2.752 -0.3369  0.4660  0.1632
  160SOL    HW1  479   1.233   1.775   2.707  0.6067  2.6953 -0.1521
  160SOL    HW2  480   1.391   1.707   2.690  1.2321 -0.8636 -1.4372
  161SOL     OW  481   3.046   1.257   2.689 -0.6235  0.1960  0.1401
  161SOL    HW1  482   3.020   1.307   2.603 -1.8968 -1.3624 -1.0246
  161SOL    HW2  483   2.983   1.269   2.771 -2.7825  1.1440  1.7391
  162SOL     OW  484   0.597   2.464   1.400  0.1828 -0.0366  0.0102
  162SOL    HW1  485   0.608   2.516   1.488 -1.0082  0.4308  0.7186
  162SOL    HW2  486   0.540   2.377   1.411 -2.0131 -0.4707 -1.8882
  163SOL     OW  487   2.279   0.234   2.230  0.0488 -0.4811  0.3407
  163SOL    HW1  488   2.262   0.151   2.284  0.1503 -3.4496  0.9523
  163SOL    HW2  489   2.202   0.299   2.243 -0.2024  0.3984  1.5022
  164SOL     OW  490   2.273   1.347   0.332 -0.2111 -0.0308  0.3519
  164SOL    HW1  491   2.172   1.335   0.350 -3.7223  2.3647  0.0772
  164SOL    HW2  492   2.284   1.446   0.312  1.5633  1.0819  0.2663
  165SOL     OW  493   0.156   0.348   1.468 -0.0306  0.1541  0.3514
  165SOL    HW1  494   0.187   0.324   1.565 -0.4284 -0.5424  1.9923
  165SOL    HW2  495   0.231   0.325   1.395  2.1530 -1.8435 -1.3517
  166SOL     OW  496   2.012   1.058   0.230  0.4414 -0.5978 -0.4033
  166SOL    HW1  497   1.946   0.983   0.248  0.3757 -1.3607 -0.4406
  166SOL    HW2  498   2.111   1.024   0.218 -3.7332 -1.0333  3.7421
  167SOL     OW  499   2.844   0.720   0.359  0.1686  0.9523  0.3929
  167SOL    HW1  500   2.888   0.625   0.373  1.1855 -0.0940  0.2094
  167SOL    HW2  501   2.886   0.771   0.279 -0.4166 -1.6411 -2.2638
  168SOL     OW  502   1.612   2.622   2.508 -0.1529 -0.0481 -0.5704
  168SOL    HW1  503   1.563   2.712   2.518 -0.8740  0.0643  2.8204
  168SOL    HW2  504   1.565   2.549   2.564  0.9158 -0.9897  1.0831
  169SOL     OW  505   0.902   1.605   0.605  0.1432  0.2212 -0.1303
  169SOL    HW1  506   0.968   1.674   0.568 -0.5574  0.9882  1.7014
  169SOL    HW2  507   0.887   1.527   0.543  0.0599  3.4494  1.5763
  170SOL     OW  508   3.083   0.430   1.106  0.1866  0.4756  0.1932
  170SOL    HW1  509   0.073   0.380   1.085  1.0334  1.7089 -0.1233
  170SOL    HW2  510   3.028   0.451   1.022 -2.4728 -1.3393  1.1883
  171SOL     OW  511   1.279   2.194   2.775  0.6365 -0.5023  0.2328
  171SOL    HW1  512   1.198   2.142   2.815 -1.1470  1.1062  0.6715
  171SOL    HW2  513   1.326   2.248   2.847  0.0712  0.3676 -0.0397
  172SOL     OW  514   2.840   2.784   1.424  0.8928  0.2045 -0.0482
  172SOL    HW1  515   2.881   2.871   1.395  0.1852 -1.8920  0.5521
  172SOL    HW2  516   2.916   2.723   1.456  1.5820 -0.9936 -0.1499
  173SOL     OW  517   1.431   0.699   2.699  0.1155 -0.1141 -0.3520
  173SOL    HW1  518   1.480   0.672   2.783  1.3636 -0.4768  1.2181
  173SOL    HW2  519   1.498   0.709   2.626  1.0557  0.0055 -0.2386
  174SOL     OW  520   1.695   3.010   2.808  0.1245 -0.0730 -0.6930
  174SOL    HW1  521   1.689   0.014   2.807  2.2271 -0.4434  0.1957
  174SOL    HW2  522   1.603   2.970   2.828  2.8771  1.0734  2.5742
  175SOL     OW  523   2.125   2.341   0.622  0.2174 -0.6239  0.4527
  175SOL    HW1  524   2.128   2.274   0.693 -0.0183  0.4751 -0.9736
  175SOL    HW2  525   2.173   2.425   0.639 -0.3751 -3.0287 -0.5559
  176SOL     OW  526   1.587   0.207   2.761  0.0664  0.1901 -0.0045
  176SOL    HW1  527   1.522   0.271   2.801 -0.8001 -0.2642  0.4408
  176SOL    HW2  528   1.680   0.220   2.802  0.0283 -2.0683  0.7211
  177SOL     OW  529   1.117   1.742   0.477  0.1594  0.4964  0.1238
  177SOL    HW1  530   1.122   1.845   0.466 -0.9649 -2.0273 -1.2421
  177SOL    HW2  531   1.066   1.700   0.398  2.7955  0.1170  1.4303
  178SOL     OW  532   2.525   2.113   3.096  0.0653 -0.3639 -0.1118
  178SOL    HW1  533   2.435   2.087   3.050 -0.6078 -0.5470 -1.0240
  178SOL    HW2  534   2.518   2.106   0.104  1.7735 -0.8534  1.2295
  179SOL     OW  535   0.092   2.832   2.722 -0.1880 -0.4260  0.7415
  179SOL    HW1  536   0.021   2.807   2.655  2.7394  0.7024  2.5207
  179SOL    HW2  537   0.155   2.896   2.683 -0.4125 -1.6269  0.3022
  180SOL     OW  538   1.732   1.350   0.748 -0.8881  0.0868 -0.2378
  180SOL    HW1  539   1.756   1.413   0.825  2.0070  1.7073  1.5724
  180SOL    HW2  540   1.636   1.312   0.751 -3.6660 -3.5778  0.0888
  181SOL     OW  541   1.848   0.884   2.064  0.2572  0.0135 -0.0385
  181SOL    HW1  542   1.825   0.945   2.145 -0.3514 -0.5442 -1.0834
  181SOL    HW2  543   1.768   0.881   1.997 -1.2461 -0.4512  1.5464
  182SOL     OW  544   2.718   3.004   2.416  0.0376  0.2521  0.3724
  182SOL    HW1  545   2.774   3.028   2.496 -0.6055  1.0514 -2.6941
  182SOL    HW2  546   2.752   2.924   2.365 -0.3427 -0.4182 -0.9444
  183SOL     OW  547   1.623   0.656   2.051  0.2691  0.2426  0.4806
  183SOL    HW1  548   1.654   0.710   1.969  0.8312 -0.8109 -2.6562
  183SOL    HW2  549   1.653   0.561   2.048 -0.9472  0.4053  2.4060
  184SOL     OW  550   0.227   1.048   1.197 -0.1961 -0.3656 -0.3334
  184SOL    HW1  551   0.236   1.148   1.194 -0.3309  0.2194 -0.8631
  184SOL    HW2  552   0.240   1.012   1.292 -0.1503 -0.5638  1.7658
  185SOL     OW  553   1.853   0.659   0.442  0.0350 -0.4870 -0.6031
  185SOL    HW1  554   1.894   0.581   0.489  0.5372  3.6105 -0.3371
  185SOL    HW2  555   1.753   0.654   0.429  2.3162 -1.1299 -0.0786
  186SOL     OW  556   0.555   2.829   2.947  0.0289 -0.3265  0.0750
  186SOL    HW1  557   0.478   2.856   3.006 -0.2527  0.8921  0.8211
  186SOL    HW2  558   0.548   2.734   2.917  0.9618  4.0891  3.3150
  187SOL     OW  559   2.390   0.850   3.002  0.2598 -0.1423 -0.1102
  187SOL    HW1  560   2.290   0.866   3.013 -0.3871 -2.0901 -0.2996
  187SOL    HW2  561   2.442   0.895   3.080  2.9759  1.3409  1.8035
  188SOL     OW  562   2.950   1.511   1.460  0.2823  0.1060 -0.2968
  188SOL    HW1  563   3.041   1.467   1.463 -1.3782 -1.3741 -0.0860
  188SOL    HW2  564   2.898   1.481   1.543  2.7680 -0.2067 -1.7575
  189SOL     OW  565   2.654   0.267   0.043  0.0894 -0.2120  0.2146
  189SOL    HW1  566   2.705   0.260   0.130 -2.3286 -1.1999 -1.7433
  189SOL    HW2  567   2.659   0.361   0.005  1.3831 -4.6039  0.8183
  190SOL     OW  568   1.262   1.215   2.000 -0.2347 -0.5222  0.7531
  190SOL    HW1  569   1.362   1.239   2.010  0.4598 -0.9592 -0.7183
  190SOL    HW2  570   1.215   1.237   2.089  0.0776 -2.0262  3.5247
  191SOL     OW  571   2.887   0.536   1.829 -0.4863 -0.2741 -0.2361
  191SOL    HW1  572   2.815   0.523   1.755 -0.3035 -1.5415 -1.5608
  191SOL    HW2  573   2.922   0.635   1.832 -1.3055  2.9357  1.7431
  192SOL     OW  574   2.275   1.390   1.229 -0.1933  0.0160  0.0086
  192SOL    HW1  575   2.254   1.423   1.322 -2.3075 -0.2913 -0.0954
  192SOL    HW2  576   2.373   1.372   1.214 -2.9856 -2.3518 -3.3397
  193SOL     OW  577   1.137   0.761   1.160  0.1101  0.6061  0.1900
  193SOL    HW1  578   1.123   0.800   1.254  0.4233  1.6208 -0.8167
  193SOL    HW2  579   1.209   0.689   1.150  0.8362 -1.9832 -0.4433
  194SOL     OW  580   1.181   2.603   1.799 -0.4991 -0.1827  0.6594
  194SOL    HW1  581   1.258   2.662   1.759 -0.2538  1.5864  1.3541
  194SOL    HW2  582   1.101   2.660   1.824  3.4354 -0.1593  1.9681
  195SOL     OW  583   1.840   0.199   2.844  0.1340 -0.1604  0.4190
  195SOL    HW1  584   1.887   0.208   2.754  0.0973 -1.0357 -2.0034
  195SOL    HW2  585   1.902   0.176   2.923  1.2085 -1.1221  4.2256
  196SOL     OW  586   1.113   2.338   1.781 -0.2434 -0.1593  0.2462
  196SOL    HW1  587   1.013   2.325   1.756 -1.7595  1.5517  0.0740
  196SOL    HW2  588   1.142   2.435   1.759  0.9568  0.5045 -1.7056
  197SOL     OW  589   1.166   2.788   1.026  0.1380 -0.2839 -0.2153
  197SOL    HW1  590   1.153   2.791   0.927  1.8426  0.1851  1.0806
  197SOL    HW2  591   1.266   2.798   1.045  0.4375 -2.3167 -1.0310
  198SOL     OW  592   0.980   0.818   0.790 -0.0690 -0.0819  0.5326
  198SOL    HW1  593   0.958   0.738   0.851  1.0301  1.4030 -1.6928
  198SOL    HW2  594   0.915   0.817   0.711 -0.1440  0.5957  0.1427
  199SOL     OW  595   2.936   2.617   1.778  0.1813  0.6964 -0.2548
  199SOL    HW1  596   2.856   2.674   1.751  1.2385  0.4783  1.3723
  199SOL    HW2  597   2.988   2.663   1.850 -0.5306  0.3044 -2.3436
  200SOL     OW  598   2.057   2.109   2.414  0.0065 -0.1588  0.3587
  200SOL    HW1  599   2.010   2.025   2.446 -1.9373  0.4171  2.3388
  200SOL    HW2  600   2.125   2.090   2.338  1.0333  0.4395  0.3217
  201SOL     OW  601   0.147   1.909   1.910  0.4848 -0.1794 -1.1472
  201SOL    HW1  602   0.232   1.849   1.914  1.5448  2.3033  4.1408
  201SOL    HW2  603   0.097   1.901   1.825  1.4805  2.3107 -0.0265
  202SOL     OW  604   2.534   0.198   0.436  0.4516  0.3993 -0.2139
  202SOL    HW1  605   2.449   0.149   0.405  1.6176  2.4327  1.5221
  202SOL    HW2  606   2.615   0.150   0.484  0.2968 -0.3854  1.1819
  203SOL     OW  607   1.143   2.324   2.046  0.0081 -0.4072  0.5200
  203SOL    HW1  608   1.157   2.409   2.099 -0.8578 -0.6392 -3.1379
  203SOL    HW2  609   1.155   2.341   1.944  1.5737 -1.4892 -0.8153
  204SOL     OW  610   1.271   2.118   1.743  0.3889  0.2449 -0.1726
  204SOL    HW1  611   1.320   2.136   1.658 -1.8009  0.5742  1.7606
  204SOL    HW2  612   1.215   2.193   1.779  2.2634  0.1258 -0.2877
  205SOL     OW  613   1.455   1.509   1.808 -0.1503  0.2079  0.3530
  205SOL    HW1  614   1.506   1.461   1.732 -1.1320 -1.6608 -0.0184
  205SOL    HW2  615   1.480   1.602   1.821 -3.2987 -1.8697 -1.0953
  206SOL     OW  616   0.339   0.762   2.503  0.4648 -0.2920  0.2450
  206SOL    HW1  617   0.416   0.757   2.568 -1.2140  1.1862 -1.6181
  206SOL    HW2  618   0.313   0.859   2.490  1.7583 -2.5958 -0.4324
  207SOL     OW  619   1.254   0.049   1.773 -0.0442  0.5691  0.3926
  207SOL    HW1  620   1.282   0.141   1.736 -1.9310 -0.7097 -0.1778
  207SOL    HW2  621   1.156   0.055   1.803  1.1894  1.3719 -1.5497
  208SOL     OW  622   0.502   2.753   1.774  0.5976 -0.4369  0.1158
  208SOL    HW1  623   0.526   2.840   1.819  1.3060 -0.2464 -0.2081
  208SOL    HW2  624   0.445   2.692   1.832  0.4794 -1.7867  1.2044
  209SOL     OW  625   1.233   0.641   0.178 -0.0857  0.3342  0.1308
  209SOL    HW1  626   1.331   0.671   0.183  0.6779 -0.7284  0.9610
  209SOL    HW2  627   1.183   0.680   0.098  0.5177 -1.3990  0.0083
  210SOL     OW  628   2.757   0.369   0.622 -0.0853  0.1594  0.1646
  210SOL    HW1  629   2.856   0.376   0.603 -2.1193 -1.0185 -0.3311
  210SOL    HW2  630   2.708   0.390   0.532 -0.3967  0.3446 -0.4450
  211SOL     OW  631   0.475   0.508   1.341 -0.5562  0.0172 -0.1105
  211SOL    HW1  632   0.416   0.537   1.261  0.5914  1.9650  0.2618
  211SOL    HW2  633   0.485   0.409   1.336 -1.9043  0.2714  0.2120
  212SOL     OW  634   1.255   1.819   1.136 -0.0298  0.3055  0.8027
  212SOL    HW1  635   1.353   1.779   1.146  2.4052  2.0974  3.2672
  212SOL    HW2  636   1.225   1.871   1.218  0.1961  0.2071  0.7566
  213SOL     OW  637   2.187   0.208   1.839  0.8376 -0.2804 -0.2685
  213SOL    HW1  638   2.177   0.118   1.796  0.3202 -0.2935  2.6257
  213SOL    HW2  639   2.278   0.215   1.883 -1.9847 -0.2791 -1.6269
  214SOL     OW  640   0.864   2.510   2.329  0.2809  0.9380  0.6204
  214SOL    HW1  641   0.842   2.589   2.393  0.2904 -0.4569  3.5188
  214SOL    HW2  642   0.804   2.430   2.352 -0.0890  1.3752  1.6760
  215SOL     OW  643   2.422   1.613   1.591 -0.2430  0.0968 -0.7628
  215SOL    HW1  644   2.375   1.607   1.680 -1.0002 -0.7346  0.1776
  215SOL    HW2  645   2.488   1.535   1.581  3.4480 -0.8123 -0.5889
  216SOL     OW  646   0.456   0.917   1.411  0.4231 -0.6483 -0.3440
  216SOL    HW1  647   0.509   0.899   1.496  0.3357  1.3843  1.4728
  216SOL    HW2  648   0.357   0.928   1.440  0.5451 -3.8188  1.0045
  217SOL     OW  649   3.050   0.353   0.473  0.4772 -0.1801  0.0403
  217SOL    HW1  650   2.983   0.386   0.403  0.7724 -0.4956  0.6158
  217SOL    HW2  651   0.020   0.291   0.428  1.4114  2.4580  0.2460
  218SOL     OW  652   2.046   1.776   1.087  0.4116 -0.5290 -0.0873
  218SOL    HW1  653   2.032   1.807   0.990 -1.9942 -0.4676  0.0420
  218SOL    HW2  654   2.071   1.677   1.077  0.7193 -3.0586 -0.3782
  219SOL     OW  655   1.548   0.387   0.125 -0.9379 -0.1619  0.2485
  219SOL    HW1  656   1.477   0.397   0.052  1.5734 -0.7397  0.4616
  219SOL    HW2  657   1.526   0.304   0.179  1.2804  2.6873  0.3107
  220SOL     OW  658   1.715   1.810   1.018  0.7032  0.1374  0.2373
  220SOL    HW1  659   1.797   1.784   1.076 -3.3594 -1.8651 -2.2248
  220SOL    HW2  660   1.630   1.784   1.063 -1.5091 -3.0756 -1.7724
  221SOL     OW  661   2.784   0.871   0.582 -0.5682 -0.8885 -0.0982
  221SOL    HW1  662   2.812   0.820   0.501 -2.2250  0.5408  1.5905
  221SOL    HW2  663   2.725   0.825   0.654  1.1597  0.1854 -0.5725
  222SOL     OW  664   0.851   2.708   1.600 -0.1123 -0.3976  0.1971
  222SOL    HW1  665   0.916   2.669   1.527  0.9690 -1.9108 -2.8767
  222SOL    HW2  666   0.776   2.641   1.611  1.4710  3.5065 -0.8921
  223SOL     OW  667   1.364   0.416   3.028 -0.4774 -0.0883  0.0376
  223SOL    HW1  668   1.360   0.373   2.929  0.3788 -2.0941 -2.1012
  223SOL    HW2  669   1.276   0.405   3.079 -0.6948 -1.7207  1.6525
  224SOL     OW  670   2.618   0.505   1.183 -0.2859  1.0786  0.2457
  224SOL    HW1  671   2.614   0.520   1.083 -0.5172 -0.8240  0.4952
  224SOL    HW2  672   2.586   0.585   1.238 -1.2701  1.5946  0.4192
  225SOL     OW  673   0.800   1.616   1.558 -0.2245 -0.4906  0.8990
  225SOL    HW1  674   0.875   1.620   1.493  1.0217  1.5090  2.4787
  225SOL    HW2  675   0.724   1.660   1.506  3.6254 -1.1923  0.4040
  226SOL     OW  676   1.092   2.847   0.771  0.2601  0.2435  0.4733
  226SOL    HW1  677   1.061   2.931   0.721  1.0394  1.9529 -3.1009
  226SOL    HW2  678   1.177   2.811   0.724  1.8328 -1.7731 -1.0368
  227SOL     OW  679   1.093   1.895   1.759 -0.1499  0.0252  0.1714
  227SOL    HW1  680   1.000   1.921   1.723  0.9406  0.2876 -0.7021
  227SOL    HW2  681   1.149   1.980   1.760  0.2739  0.9919 -0.9232
  228SOL     OW  682   0.605   0.374   1.856  0.9646 -0.2643 -0.5027
  228SOL    HW1  683   0.705   0.395   1.875  1.2129 -1.1585  1.2602
  228SOL    HW2  684   0.586   0.280   1.887  1.1596  1.0881  0.5296
  229SOL     OW  685   2.656   0.695   0.155  0.3666 -0.5706  0.0171
  229SOL    HW1  686   2.610   0.791   0.159 -0.0003  2.8757  2.9027
  229SOL    HW2  687   2.725   0.686   0.229  1.8141 -2.8088 -1.2361
  230SOL     OW  688   0.167   1.224   1.656  0.3949  0.1982  0.5854
  230SOL    HW1  689   0.259   1.236   1.700 -2.0078 -0.9029  0.0689
  230SOL    HW2  690   0.096   1.230   1.732 -0.3377 -0.2722  1.0700
  231SOL     OW  691   1.044   2.855   1.263 -0.1568  0.0669 -0.1097
  231SOL    HW1  692   1.042   2.766   1.320  0.8685 -3.8013  2.4588
  231SOL    HW2  693   1.085   2.833   1.167  2.5497  0.4838  2.3174
  232SOL     OW  694   2.772   2.578   3.036 -0.4648 -0.8213  0.1724
  232SOL    HW1  695   2.814   2.488   3.029 -2.2760  2.9900 -0.5210
  232SOL    HW2  696   2.671   2.573   3.022 -0.2996 -0.8188 -0.7895
  233SOL     OW  697   1.213   2.704   3.049  0.5424  0.0332 -0.6060
  233SOL    HW1  698   1.149   2.634   3.015  2.4882 -1.1489  1.8193
  233SOL    HW2  699   1.183   2.747   0.037 -0.4656 -3.7235 -1.7807
  234SOL     OW  700   0.793   1.125   1.949  0.3873 -0.0539 -0.3785
  234SOL    HW1  701   0.790   1.224   1.940  0.5562 -0.5941 -0.2351
  234SOL    HW2  702   0.802   1.084   2.039 -0.2839  0.5520  0.6123
  235SOL     OW  703   0.123   2.239   2.990  0.4742 -0.0231  0.5801
  235SOL    HW1  704   0.224   2.259   2.979  1.0983  0.0557 -1.3335
  235SOL    HW2  705   0.063   2.294   2.929  0.7589  0.6906 -1.9795
  236SOL     OW  706   2.004   2.409   2.655 -0.2606 -0.0080  0.5496
  236SOL    HW1  707   2.101   2.382   2.661  0.4941 -1.6582  0.5001
  236SOL    HW2  708   1.968   2.372   2.568 -0.7855  1.6418 -1.6657
  237SOL     OW  709   2.250   1.011   0.994  0.2790  0.0794  0.1042
  237SOL    HW1  710   2.206   1.081   1.060 -1.5701  2.2675  1.8449
  237SOL    HW2  711   2.327   1.055   0.943  1.5909  1.4460 -0.9871
  238SOL     OW  712   1.229   2.757   2.162  0.0531  0.1995  0.2971
  238SOL    HW1  713   1.204   2.666   2.191  0.9990  1.7343 -0.0826
  238SOL    HW2  714   1.147   2.809   2.129  3.0982 -0.2697 -1.8094
  239SOL     OW  715   0.703   2.178   1.967  0.4419 -0.8499  0.6748
  239SOL    HW1  716   0.794   2.161   2.015  1.8287 -1.4639  1.3104
  239SOL    HW2  717   0.721   2.214   1.873 -1.7973  1.3054 -0.3351
  240SOL     OW  718   3.068   2.921   0.608 -0.2389  0.3442  0.0207
  240SOL    HW1  719   3.038   2.826   0.636 -2.2596 -2.8314  1.2178
  240SOL    HW2  720   3.006   2.988   0.653  2.6287  1.4587 -0.9289
  241SOL     OW  721   1.176   1.649   2.974 -0.4889  0.1040  0.0494
  241SOL    HW1  722   1.219   1.594   3.047 -0.3156 -0.0852 -2.0732
  241SOL    HW2  723   1.246   1.682   2.909 -0.3350 -1.6718  1.2708
  242SOL     OW  724   2.129   0.888   3.039 -0.3433  0.0220 -0.0535
  242SOL    HW1  725   2.117   0.968   2.978 -0.7458 -1.2138 -1.4450
  242SOL    HW2  726   2.082   0.891   0.030 -3.3202 -0.3143  2.2156
  243SOL     OW  727   0.854   0.429   1.881 -0.3978 -0.0997 -0.2900
  243SOL    HW1  728   0.921   0.494   1.930  0.2063  1.2108  3.0961
  243SOL    HW2  729   0.904   0.376   1.807 -0.6132 -0.1658 -0.5969
  244SOL     OW  730   1.407   2.400   2.926  0.1536 -0.5027 -0.1878
  244SOL    HW1  731   1.394   2.480   2.863  2.3842 -1.9971  3.3306
  244SOL    HW2  732   1.408   2.436   3.022  1.2137  0.3428  2.1073
  245SOL     OW  733   1.758   2.489   0.016  0.0064 -0.2337  0.3548
  245SOL    HW1  734   1.692   2.420   0.054 -2.2940 -3.4528  1.1470
  245SOL    HW2  735   1.752   2.573   0.074  1.4307 -0.9216 -2.5617
  246SOL     OW  736   1.214   0.990   2.430  0.4727 -0.6919  0.3161
  246SOL    HW1  737   1.279   1.046   2.373  0.0828  0.1548  0.7892
  246SOL    HW2  738   1.120   1.023   2.428  0.6462 -0.6006 -0.5526
  247SOL     OW  739   2.719   1.006   2.652 -0.6986 -0.2907 -0.5241
  247SOL    HW1  740   2.646   1.018   2.720  0.2228 -1.4041 -2.5602
  247SOL    HW2  741   2.794   0.959   2.696 -0.6078 -1.3246  0.4300
  248SOL     OW  742   3.070   1.266   1.838 -0.2757  0.0444 -0.4933
  248SOL    HW1  743   2.997   1.211   1.799  1.5738  0.5323 -0.3960
  248SOL    HW2  744   3.086   1.233   1.936 -0.6812  0.3950  1.2574
  249SOL     OW  745   2.859   0.427   0.278 -0.0928  0.2152 -0.3395
  249SOL    HW1  746   2.895   0.479   0.199 -0.5363  1.9728 -1.2029
  249SOL    HW2  747   2.862   0.324   0.264 -0.9730  0.9298 -0.7752
  250SOL     OW  748   2.798   0.158   0.265  0.3069  0.4124 -0.2784
  250SOL    HW1  749   2.894   0.120   0.259  0.5658  0.3729 -0.1448
  250SOL    HW2  750   2.743   0.117   0.346 -1.3706  0.8064  2.2012
  251SOL     OW  751   0.956   1.455   1.787  0.3859  0.3069  0.5471
  251SOL    HW1  752   1.051   1.470   1.828 -1.1022  1.4059 -1.5382
  251SOL    HW2  753   0.958   1.482   1.691 -1.4973  0.0725  0.7860
  252SOL     OW  754   1.965   1.843   1.367 -0.1762  0.3543 -0.0424
  252SOL    HW1  755   2.033   1.865   1.439 -3.1006  1.9318 -1.3895
  252SOL    HW2  756   2.005   1.836   1.274 -0.0134  1.1766 -0.6457
  253SOL     OW  757   1.775   2.265   2.004  0.3553  0.2409 -0.3917
  253SOL    HW1  758   1.695   2.232   2.055  3.1202  2.2677 -1.0389
  253SOL    HW2  759   1.803   2.363   2.021 -0.9858  1.2978 -0.2502
  254SOL     OW  760   0.667   2.285   2.422 -0.1355  0.1352 -0.2433
  254SOL    HW1  761   0.733   2.218   2.388 -1.3866  0.5923  0.4888
  254SOL    HW2  762   0.572   2.242   2.411  2.8803 -2.2871  0.5109
  255SOL     OW  763   1.554   0.099   0.548 -0.3247  0.4684 -0.3840
  255SOL    HW1  764   1.573   0.080   0.650  3.8671  0.3153  1.6692
  255SOL    HW2  765   1.581   0.194   0.521 -0.3847  2.5696  0.4696
  256SOL     OW  766   1.810   2.335   1.374 -0.0807  0.0450 -0.3860
  256SOL    HW1  767   1.903   2.298   1.400 -1.2874 -1.5036 -2.5977
  256SOL    HW2  768   1.791   2.330   1.274  2.4754  1.3158  1.0362
  257SOL     OW  769   0.379   2.635   2.673  0.0023 -0.0210  0.1115
  257SOL    HW1  770   0.458   2.614   2.612 -0.4114  2.3358 -1.1519
  257SOL    HW2  771   0.396   2.593   2.765 -2.6705  0.3543 -1.2083
  258SOL     OW  772   0.563   0.939   1.926 -0.2666  0.0272  0.1651
  258SOL    HW1  773   0.532   0.899   2.013 -0.0897 -0.5058 -3.4016
  258SOL    HW2  774   0.665   0.950   1.917  2.0519 -0.3288 -0.7640
  259SOL     OW  775   1.248   0.732   2.495  0.1902 -0.4795 -0.2060
  259SOL    HW1  776   1.319   0.725   2.569 -0.3322 -0.0850  2.9619
  259SOL    HW2  777   1.233   0.831   2.474 -1.8553 -0.3680 -1.0980
  260SOL     OW  778   2.144   0.689   0.470 -0.5232  0.5163 -0.2280
  260SOL    HW1  779   2.079   0.646   0.535 -0.8942 -0.1004  0.3597
  260SOL    HW2  780   2.146   0.785   0.493  2.0697 -0.3086 -1.3545
  261SOL     OW  781   1.010   0.261   0.427 -0.1744  0.2746  0.4369
  261SOL    HW1  782   0.914   0.272   0.394  2.1768  0.4373  1.3497
  261SOL    HW2  783   1.025   0.258   0.526  2.4886 -1.6299  0.7532
  262SOL     OW  784   1.890   2.645   2.644 -0.0252 -0.4959  0.2387
  262SOL    HW1  785   1.932   2.554   2.636  1.0358 -0.5715  2.8804
  262SOL    HW2  786   1.802   2.646   2.583 -3.2589  2.4222 -1.8696
  263SOL     OW  787   0.680   1.701   2.909 -0.3589 -0.1150  0.0303
  263SOL    HW1  788   0.668   1.621   2.967  2.5754  1.6901 -2.5445
  263SOL    HW2  789   0.588   1.733   2.879  2.9125 -3.4944 -2.1737
  264SOL     OW  790   0.349   1.724   1.885  0.3000 -0.3947 -0.1258
  264SOL    HW1  791   0.430   1.766   1.936  1.6147  0.0687  1.0859
  264SOL    HW2  792   0.385   1.655   1.817  0.2333 -1.6791  0.6646
  265SOL     OW  793   0.810   1.177   0.240 -0.1426 -0.3005 -0.3823
  265SOL    HW1  794   0.841   1.253   0.301  0.0694 -0.6068 -2.0610
  265SOL    HW2  795   0.850   1.091   0.271 -2.3367 -0.0946  0.2282
  266SOL     OW  796   1.568   1.778   0.246 -0.2176  0.6442 -0.3823
  266SOL    HW1  797   1.486   1.717   0.257 -2.2961  0.4427  0.2254
  266SOL    HW2  798   1.651   1.751   0.302 -0.8105 -1.8233  1.7908
  267SOL     OW  799   0.044   0.238   0.027  0.3791 -0.4634 -0.3213
  267SOL    HW1  800   3.095   0.326   0.001 -0.0358 -1.6984  0.2098
  267SOL    HW2  801   0.135   0.263   0.065 -2.1265 -0.3074 -0.8757
  268SOL     OW  802   1.005   0.264   2.906 -0.7873  0.0406 -0.0321
  268SOL    HW1  803   0.917   0.275   2.953  0.6149  0.6037 -1.3071
  268SOL    HW2  804   1.071   0.253   2.987  0.6890  3.0587  1.5649
  269SOL     OW  805   1.534   0.421   2.367  0.4464 -0.3556  0.4439
  269SOL    HW1  806   1.563   0.392   2.273  2.8558 -0.3247 -1.2203
  269SOL    HW2  807   1.557   0.349   2.436 -2.2455 -1.2488 -0.9406
  270SOL     OW  808   0.630   0.945   2.555 -0.3329  0.4114 -0.4560
  270SOL    HW1  809   0.725   0.979   2.562  0.3471 -1.3943 -1.8143
  270SOL    HW2  810   0.630   0.845   2.580 -3.2392  0.2469 -3.3728
  271SOL     OW  811   0.369   0.948   0.096  0.1001  0.7272  0.4683
  271SOL    HW1  812   0.448   1.005   0.102 -2.7618  2.1238 -0.3198
  271SOL    HW2  813   0.283   0.994   0.062  2.8897 -0.7913 -0.3708
  272SOL     OW  814   2.179   1.373   2.732 -0.0826 -0.2151 -0.1793
  272SOL    HW1  815   2.162   1.477   2.738 -0.1744 -1.7703 -0.7433
  272SOL    HW2  816   2.092   1.328   2.713  1.4427 -2.0497  1.4773
  273SOL     OW  817   2.893   0.281   2.396 -0.3628 -0.4910  0.9607
  273SOL    HW1  818   2.926   0.381   2.395  0.7814  4.0377  1.5636
  273SOL    HW2  819   2.916   0.237   2.485 -1.6780  0.4447 -0.6261
  274SOL     OW  820   2.936   2.983   1.782 -0.5583  0.1013 -0.3959
  274SOL    HW1  821   2.969   3.009   1.878 -0.0694 -1.1475 -0.0279
  274SOL    HW2  822   3.014   2.998   1.723 -3.2360  2.1899  3.4687
  275SOL     OW  823   2.011   1.290   0.371 -0.2310  0.1485 -0.1333
  275SOL    HW1  824   1.998   1.208   0.310  0.7106 -0.3969 -3.2728
  275SOL    HW2  825   1.928   1.315   0.426  0.8754  0.6181  1.2062
  276SOL     OW  826   0.216   1.290   2.787 -0.6354 -0.0122 -0.1260
  276SOL    HW1  827   0.121   1.284   2.750 -0.7723  2.4195  0.3645
  276SOL    HW2  828   0.244   1.204   2.832 -0.5754 -0.4405 -1.3338
  277SOL     OW  829   1.939   2.547   2.074 -0.1336 -0.2002 -0.0236
  277SOL    HW1  830   1.886   2.551   2.161 -0.3876  0.3405  0.6008
  277SOL    HW2  831   1.943   2.635   2.028  0.9344 -4.5937  0.5384
  278SOL     OW  832   2.022   0.152   1.446  0.2964 -0.1552 -0.2213
  278SOL    HW1  833   2.115   0.177   1.478 -1.5009 -2.7526 -2.3616
  278SOL    HW2  834   2.028   0.139   1.348  0.8978  1.4856  1.8826
  279SOL     OW  835   1.247   1.232   2.904 -0.0333  0.0961  0.3199
  279SOL    HW1  836   1.267   1.198   2.811  0.1105  0.8346 -0.0319
  279SOL    HW2  837   1.323   1.210   2.967  1.0516  0.1305 -0.1909
  280SOL     OW  838   0.787   1.886   0.421 -0.7860 -0.0091  0.5855
  280SOL    HW1  839   0.817   1.981   0.393  0.4385  0.3685 -1.8180
  280SOL    HW2  840   0.768   1.889   0.525 -1.8924 -1.0367  4.2099
  281SOL     OW  841   0.353   0.213   2.169 -0.1193  0.2384  0.2854
  281SOL    HW1  842   0.398   0.238   2.079  1.1740 -0.3606 -1.6026
  281SOL    HW2  843   0.263   0.165   2.148  1.3830  0.8228 -2.0368
  282SOL     OW  844   0.222   1.599   1.496  0.1615  0.0638 -0.1475
  282SOL    HW1  845   0.170   1.510   1.493 -0.5674 -1.3146 -0.0817
  282SOL    HW2  846   0.266   1.611   1.405 -0.6986  0.2183 -0.7359
  283SOL     OW  847   1.675   2.201   2.570 -0.6298 -0.1435 -0.1808
  283SOL    HW1  848   1.753   2.156   2.620 -1.5858 -2.6817  2.4023
  283SOL    HW2  849   1.592   2.144   2.565 -3.0193  0.6679  0.4606
  284SOL     OW  850   1.758   0.828   0.054  0.8547 -0.1115 -0.5293
  284SOL    HW1  851   1.779   0.879   0.141 -2.1414  0.4472  0.3171
  284SOL    HW2  852   1.771   0.889   3.071 -2.2486  0.6350  1.3022
  285SOL     OW  853   2.990   2.725   2.548  0.2387  0.0275  0.7704
  285SOL    HW1  854   2.967   2.818   2.511  0.9301 -5.3385  1.8427
  285SOL    HW2  855   2.904   2.679   2.567  5.0644 -0.0113 -0.2881
  286SOL     OW  856   2.018   2.617   1.236 -0.4683  0.1732 -0.2331
  286SOL    HW1  857   1.951   2.628   1.308 -1.3571  1.6319  2.1512
  286SOL    HW2  858   1.987   2.547   1.163  0.8341 -3.0140  0.5995
  287SOL     OW  859   0.806   0.909   1.076 -0.5464 -0.2965  0.0044
  287SOL    HW1  860   0.790   0.820   1.125  2.1643  1.0738 -0.6165
  287SOL    HW2  861   0.903   0.906   1.039  1.7995  0.8345 -0.7828
  288SOL     OW  862   1.390   2.514   0.077  0.3082 -0.2189 -0.0295
  288SOL    HW1  863   1.364   2.496   0.173 -0.9073 -0.4038 -4.7345
  288SOL    HW2  864   1.363   2.610   0.053  0.6594  0.0344  0.0380
  289SOL     OW  865   0.128   2.009   2.649 -0.4054 -0.6884  0.2665
  289SOL    HW1  866   0.200   1.956   2.697  0.0305 -0.1776  1.5758
  289SOL    HW2  867   0.055   2.029   2.721  1.3258 -2.9285  2.0236
  290SOL     OW  868   1.119   2.372   0.736  0.7118 -0.3576 -0.4355
  290SOL    HW1  869   1.068   2.347   0.826 -0.6791  1.9995  0.0359
  290SOL    HW2  870   1.169   2.295   0.691 -0.4386 -0.3237  0.2946
  291SOL     OW  871   1.953   1.637   0.177 -0.2771 -0.0559 -0.5195
  291SOL    HW1  872   2.005   1.576   0.121 -2.4286  0.1562 -0.8366
  291SOL    HW2  873   1.905   1.712   0.125  0.2570  0.5839  0.3808
  292SOL     OW  874   1.178   1.509   1.546 -0.1135 -0.2305 -0.1615
  292SOL    HW1  875   1.137   1.445   1.475  0.6387 -0.2772  0.5778
  292SOL    HW2  876   1.183   1.465   1.636  0.4819  1.4101 -0.1744
  293SOL     OW  877   2.118   2.755   1.004  0.1701 -0.1473 -0.0841
  293SOL    HW1  878   2.187   2.700   0.955  0.0148  1.8356  0.5606
  293SOL    HW2  879   2.069   2.701   1.078  0.7342 -0.1074 -1.1456
  294SOL     OW  880   3.091   1.022   2.572  0.6044  0.7009  0.2840
  294SOL    HW1  881   3.067   1.116   2.609  1.3445 -1.0193 -0.7839
  294SOL    HW2  882   3.069   1.028   2.471  0.9851  1.8715 -0.6471
  295SOL     OW  883   1.005   1.814   0.048 -0.4782  0.2592  0.1985
  295SOL    HW1  884   1.037   1.914   0.054  1.5587  0.5845  1.1801
  295SOL    HW2  885   1.062   1.760   3.077  3.6046 -1.9424 -0.0856
  296SOL     OW  886   1.861   1.918   2.522  0.5201  0.3273  0.1641
  296SOL    HW1  887   1.881   1.821   2.522 -1.8005  2.1260  0.0131
  296SOL    HW2  888   1.797   1.950   2.451 -1.2835 -0.7280  0.3119
  297SOL     OW  889   2.546   0.657   2.825 -0.6397  0.3598 -0.0933
  297SOL    HW1  890   2.558   0.691   2.727  0.4937  0.5005 -2.5740
  297SOL    HW2  891   2.484   0.716   2.888 -0.6689  0.8822  0.8647
  298SOL     OW  892   0.768   2.046   2.986 -0.0288  0.0694  0.0141
  298SOL    HW1  893   0.740   1.980   3.059 -1.2357  0.6786  3.0465
  298SOL    HW2  894   0.736   2.020   2.893  1.4074  0.4736 -1.1219
  299SOL     OW  895   1.141   2.809   2.543 -0.0831  0.0267 -0.4204
  299SOL    HW1  896   1.097   2.838   2.456 -0.0075  1.3963 -0.3328
  299SOL    HW2  897   1.122   2.705   2.560 -1.2929 -4.4248 -0.5380
  300SOL     OW  898   2.625   0.460   0.394  0.3600 -0.0260 -0.5271
  300SOL    HW1  899   2.578   0.372   0.384 -0.9621 -0.6535 -0.0233
  300SOL    HW2  900   2.708   0.449   0.337  1.1804  1.4417  2.5790
  301SOL     OW  901   1.095   0.862   1.393  0.2077 -0.4971 -0.3923
  301SOL    HW1  902   1.061   0.817   1.483 -2.2444 -0.5911 -1.1516
  301SOL    HW2  903   1.049   0.953   1.379  1.3710 -0.8531 -0.4704
  302SOL     OW  904   0.078   2.289   2.595  0.3551 -0.6286 -0.6027
  302SOL    HW1  905   0.098   2.203   2.640 -1.4170  1.7276 -1.4033
  302SOL    HW2  906   0.160   2.334   2.561  1.7820 -2.9585  1.9098
  303SOL     OW  907   3.023   0.063   2.282 -0.4908  0.1385 -0.0394
  303SOL    HW1  908   2.970   0.151   2.300 -0.3224 -2.9718  1.9167
  303SOL    HW2  909   3.031   0.005   2.370  0.4777 -0.4114  2.4000
  304SOL     OW  910   2.590   0.546   1.761 -0.2084 -0.4401  0.8843
  304SOL    HW1  911   2.599   0.462   1.696  1.2299  0.7002 -2.9136
  304SOL    HW2  912   2.555   0.530   1.851  4.0059  2.8974 -1.2056
  305SOL     OW  913   0.352   0.003   2.345 -0.0586  0.4515 -0.1383
  305SOL    HW1  914   0.339   3.017   2.293 -1.3206  1.1268 -0.0625
  305SOL    HW2  915   0.371   0.081   2.288 -1.5453 -1.3759  0.9337
  306SOL     OW  916   2.581   1.157   1.429 -0.1676 -0.8830 -0.4148
  306SOL    HW1  917   2.606   1.112   1.514 -2.1908  1.1813  0.9809
  306SOL    HW2  918   2.648   1.149   1.351 -1.9692  1.2791 -2.3042
  307SOL     OW  919   1.730   0.663   1.305 -0.3044  0.0906  0.2816
  307SOL    HW1  920   1.687   0.607   1.375 -1.9398 -0.1942 -5.0139
  307SOL    HW2  921   1.668   0.697   1.236 -0.8848 -1.9458  3.5578
  308SOL     OW  922   0.167   2.055   1.345  0.1472 -0.3742  0.0543
  308SOL    HW1  923   0.175   2.152   1.373 -1.6064 -0.7587 -1.1601
  308SOL    HW2  924   0.083   2.048   1.284  1.7049  0.0433 -0.7434
  309SOL     OW  925   2.374   1.821   1.342 -0.2906 -0.3398  0.2285
  309SOL    HW1  926   2.469   1.843   1.314  3.1049  2.5558  1.9225
  309SOL    HW2  927   2.376   1.748   1.414  0.2572  0.1510  1.2479
  310SOL     OW  928   2.703   1.755   0.006 -0.1426  0.3689  0.3800
  310SOL    HW1  929   2.767   1.766   3.021 -0.3617 -2.3853 -3.8368
  310SOL    HW2  930   2.730   1.668   0.051 -1.2173 -0.3527 -0.6469
  311SOL     OW  931   2.095   1.697   2.976  0.1717 -0.2129 -0.4923
  311SOL    HW1  932   2.050   1.781   2.999  4.2111  0.2036 -0.4423
  311SOL    HW2  933   2.098   1.675   2.882 -0.1240 -2.2334  2.6104
  312SOL     OW  934   2.561   1.872   0.741  0.4263 -0.6063 -0.7370
  312SOL    HW1  935   2.623   1.900   0.816 -0.6658  2.0965  0.4406
  312SOL    HW2  936   2.609   1.896   0.649  0.6503 -2.2016 -3.3673
  313SOL     OW  937   2.558   2.380   1.325 -0.1214 -0.0712  0.2365
  313SOL    HW1  938   2.499   2.425   1.398  1.2663  1.6599  0.4282
  313SOL    HW2  939   2.603   2.456   1.265  2.5464  1.9568  1.1939
  314SOL     OW  940   0.777   1.965   1.195 -0.7085  0.3970  0.3264
  314SOL    HW1  941   0.847   2.027   1.156  0.8717  0.7004  0.1750
  314SOL    HW2  942   0.805   1.867   1.181 -0.1658 -0.9200 -0.6192
  315SOL     OW  943   0.583   2.920   2.456  0.2319 -0.4264 -0.8969
  315SOL    HW1  944   0.533   2.997   2.414 -0.2433  3.2989 -0.8241
  315SOL    HW2  945   0.544   2.899   2.548  0.2968  1.6757  1.4836
  316SOL     OW  946   0.279   1.172   0.630  0.0765  0.2447 -0.3869
  316SOL    HW1  947   0.276   1.124   0.718  0.8326 -2.4173 -1.9359
  316SOL    HW2  948   0.350   1.249   0.628 -0.3029  1.1547 -0.4268
  317SOL     OW  949   1.868   0.356   0.470  0.5816  0.1898 -0.1133
  317SOL    HW1  950   1.769   0.365   0.510 -2.0242 -0.2974  1.9849
  317SOL    HW2  951   1.939   0.380   0.542  2.3500  0.9816  0.2902
  318SOL     OW  952   2.929   2.602   0.405 -0.0071  0.6770 -0.5770
  318SOL    HW1  953   2.836   2.580   0.366  2.1952 -1.6704  0.3648
  318SOL    HW2  954   2.998   2.537   0.368 -2.3917 -0.4333 -0.2722
  319SOL     OW  955   0.907   1.467   0.039  0.6665  0.0933 -0.0359
  319SOL    HW1  956   0.946   1.546   3.083 -2.6934 -0.8214  0.0226
  319SOL    HW2  957   0.831   1.435   3.078  0.1176  0.6826  0.0719
  320SOL     OW  958   0.777   2.766   2.396 -0.1121 -0.2510 -0.0828
  320SOL    HW1  959   0.861   2.822   2.383  0.9569 -2.4144  0.1078
  320SOL    HW2  960   0.695   2.819   2.421  2.8432 -0.6343 -0.6496
  321SOL     OW  961   1.206   2.969   2.991 -0.5652 -0.3119 -0.0301
  321SOL    HW1  962   1.225   2.873   3.019 -2.2696  2.3060 -2.1344
  321SOL    HW2  963   1.151   2.969   2.904  1.5688  3.2492 -0.7443
  322SOL     OW  964   2.334   1.213   1.916 -0.2643  0.1242 -0.0591
  322SOL    HW1  965   2.335   1.161   2.004  0.2159  0.5389 -2.5648
  322SOL    HW2  966   2.428   1.249   1.906 -1.4706  0.4451 -1.7305
  323SOL     OW  967   2.523   0.714   0.446  0.2791 -0.4436  0.4540
  323SOL    HW1  968   2.460   0.741   0.367 -1.5858  1.2841  0.3889
  323SOL    HW2  969   2.557   0.616   0.431 -0.4195 -1.1866  2.5984
  324SOL     OW  970   0.034   0.452   2.769 -0.5082 -0.5781 -0.2316
  324SOL    HW1  971   0.083   0.476   2.682 -0.7621 -2.7922 -1.7684
  324SOL    HW2  972   3.067   0.372   2.755  2.2309  1.3971  1.4183
  325SOL     OW  973   1.682   0.061   2.031 -0.2210  0.2649  0.2535
  325SOL    HW1  974   1.723   0.092   1.940 -2.5894  1.0859  0.0294
  325SOL    HW2  975   1.657   3.060   2.021  1.6271 -0.0871  0.4249
  326SOL     OW  976   2.382   3.090   1.267 -0.5664  0.0114  0.2672
  326SOL    HW1  977   2.314   0.049   1.320 -2.8185  1.4528  0.4496
  326SOL    HW2  978   2.342   3.040   1.185 -0.7220 -0.4793 -2.1338
  327SOL     OW  979   1.574   0.630   2.929 -0.1791  0.0207 -0.0868
  327SOL    HW1  980   1.543   0.538   2.963  0.3850  1.3650  0.2128
  327SOL    HW2  981   1.678   0.638   2.920  1.9411  0.8383 -2.3420
  328SOL     OW  982   3.002   1.320   2.411 -0.2361  0.5785 -0.0929
  328SOL    HW1  983   3.001   1.221   2.394  0.4920  1.2226 -1.5471
  328SOL    HW2  984   2.909   1.363   2.395 -1.9695  1.0212 -0.6980
  329SOL     OW  985   1.809   2.582   1.696  0.4993 -0.0362  0.4074
  329SOL    HW1  986   1.720   2.542   1.733 -2.2105 -1.9642 -0.9738
  329SOL    HW2  987   1.862   2.628   1.767  0.3244  0.0110 -4.7313
  330SOL     OW  988   2.262   1.643   1.847  0.1296 -0.0116  0.3260
  330SOL    HW1  989   2.203   1.722   1.813  1.4372  3.3678 -1.0086
  330SOL    HW2  990   2.287   1.658   1.942  1.2366 -0.1385 -2.4707
  331SOL     OW  991   0.340   1.902   1.228 -0.2690  0.0008 -0.1933
  331SOL    HW1  992   0.284   1.960   1.287  1.7466  0.7425 -1.6065
  331SOL    HW2  993   0.412   1.951   1.171  0.4063  0.2212 -0.8663
  332SOL     OW  994   0.750   0.564   1.156 -0.4698 -0.6362 -0.4000
  332SOL    HW1  995   0.709   0.632   1.218  0.9612  1.8617 -1.8883
  332SOL    HW2  996   0.809   0.508   1.213 -0.1141  3.7424  2.7459
  333SOL     OW  997   2.113   2.604   2.379 -0.8596  0.0557 -0.3558
  333SOL    HW1  998   2.020   2.636   2.355  0.4061  0.6545  0.7500
  333SOL    HW2  999   2.138   2.650   2.472  1.4246  0.8371  0.4131
  334SOL     OW 1000   1.171   1.158   1.259 -0.2185 -0.2117  0.3654
  334SOL    HW1 1001   1.216   1.094   1.191 -0.8370  1.6223  3.4217
  334SOL    HW2 1002   1.232   1.178   1.341  0.5253  0.4396  0.8810
  335SOL     OW 1003   0.413   2.905   2.710  0.0617  0.3437 -0.2021
  335SOL    HW1 1004   0.385   2.922   2.805  2.6028 -1.2693 -1.6247
  335SOL    HW2 1005   0.399   2.801   2.689  0.4174 -1.9061 -2.6238
  336SOL     OW 1006   2.475   2.349   1.790  0.3080 -0.1390 -0.2117
  336SOL    HW1 1007   2.518   2.431   1.747 -1.8551  1.1986 -0.5221
  336SOL    HW2 1008   2.512   2.269   1.742 -0.0436 -0.7772 -2.5043
  337SOL     OW 1009   2.383   1.637   0.335  0.6308 -0.9266  0.2849
  337SOL    HW1 1010   2.380   1.632   0.234  0.4365 -1.3280 -0.5645
  337SOL    HW2 1011   2.481   1.647   0.358 -4.5941 -0.4069  0.1795
  338SOL     OW 1012   1.167   1.898   1.378 -0.2094 -0.2478 -0.0075
  338SOL    HW1 1013   1.218   1.863   1.457 -1.5960  1.8430 -1.2107
  338SOL    HW2 1014   1.147   1.998   1.383 -2.3332  1.0983  0.7048
  339SOL     OW 1015   0.154   0.866   1.882  0.2349  0.2353 -0.4464
  339SOL    HW1 1016   0.200   0.778   1.900 -2.6537 -0.4920  0.1285
  339SOL    HW2 1017   0.216   0.948   1.905  0.6892 -0.7110  1.5959
  340SOL     OW 1018   1.695   2.901   1.658 -0.3794  0.5067 -0.2514
  340SOL    HW1 1019   1.660   2.829   1.593 -1.1544  0.8338 -2.8400
  340SOL    HW2 1020   1.760   2.961   1.609 -4.1582 -5.2797 -2.3772
  341SOL     OW 1021   2.302   1.426   0.846  0.1903  0.1917 -0.1302
  341SOL    HW1 1022   2.358   1.347   0.879  0.7439  0.4774  0.6463
  341SOL    HW2 1023   2.348   1.486   0.778 -3.0330  2.8598  0.9117
  342SOL     OW 1024   0.416   1.670   1.035 -0.0953  0.4954 -0.2610
  342SOL    HW1 1025   0.360   1.611   0.975  2.0376 -0.5191  0.8337
  342SOL    HW2 1026   0.458   1.750   0.990  0.3341 -1.0976 -1.9498
  343SOL     OW 1027   2.286   0.541   1.464 -0.1983 -0.4825 -0.1770
  343SOL    HW1 1028   2.223   0.490   1.530 -0.9451  3.1860 -0.5206
  343SOL    HW2 1029   2.257   0.637   1.455  0.6175 -0.1004  1.9841
  344SOL     OW 1030   2.127   2.844   0.676  0.0523 -0.2835 -1.3400
  344SOL    HW1 1031   2.158   2.920   0.618  1.8221 -1.4051 -1.4762
  344SOL    HW2 1032   2.198   2.809   0.739 -0.9937  0.9322  0.3734
  345SOL     OW 1033   3.003   2.997   2.507 -0.4985 -0.0912 -0.6765
  345SOL    HW1 1034   2.967   3.008   2.602 -1.3609 -1.4243  3.5582
  345SOL    HW2 1035   0.007   2.991   2.506  1.1090  2.3090  1.3553
  346SOL     OW 1036   0.001   0.939   0.438 -0.1631  0.4710 -0.2710
  346SOL    HW1 1037   3.046   0.984   0.363  0.2767 -1.0044 -1.6410
  346SOL    HW2 1038   3.076   0.972   0.531 -2.7766  1.0969 -0.2700
  347SOL     OW 1039   1.613   2.746   1.370 -0.4364 -0.3383 -0.4222
  347SOL    HW1 1040   1.709   2.732   1.402 -0.0680 -1.5896 -0.2368
  347SOL    HW2 1041   1.589   2.689   1.286  1.8992  0.7462  0.0317
  348SOL     OW 1042   1.233   1.044   1.773  0.2362 -0.6801 -0.1018
  348SOL    HW1 1043   1.261   1.110   1.846  0.0341  2.4734 -2.0790
  348SOL    HW2 1044   1.136   1.023   1.792  2.0220  0.1708  1.4719
  349SOL     OW 1045   2.084   1.292   2.269  0.0899  0.2336  0.2347
  349SOL    HW1 1046   2.106   1.195   2.289  1.5054  0.9057  2.4931
  349SOL    HW2 1047   2.167   1.339   2.237  2.8572 -1.0714 -1.7262
  350SOL     OW 1048   0.296   1.957   0.739  0.2970 -0.7152  0.1023
  350SOL    HW1 1049   0.307   2.045   0.794  2.4734 -1.5735  0.9675
  350SOL    HW2 1050   0.248   1.972   0.649  1.7661  1.7209  1.2896
  351SOL     OW 1051   0.760   0.571   2.220 -0.4245  0.3974  0.6534
  351SOL    HW1 1052   0.832   0.639   2.237 -2.4771 -0.8688 -0.7338
  351SOL    HW2 1053   0.768   0.528   2.128 -0.8641  1.7831 -0.2355
  352SOL     OW 1054   0.882   2.982   1.614  0.3879  0.0097  0.1118
  352SOL    HW1 1055   0.930   3.030   1.538  1.7907 -0.2327  2.2371
  352SOL    HW2 1056   0.875   2.882   1.594 -0.0913 -0.7753  2.4999
  353SOL     OW 1057   0.741   1.470   2.353 -0.2686 -0.0424 -0.0060
  353SOL    HW1 1058   0.717   1.560   2.388  2.0921 -1.8071  0.3563
  353SOL    HW2 1059   0.833   1.467   2.314 -1.8259  0.2968 -1.4190
  354SOL     OW 1060   1.809   1.445   0.519  0.3394  0.6531 -0.6802
  354SOL    HW1 1061   1.752   1.399   0.448  1.4466  0.3882 -0.5215
  354SOL    HW2 1062   1.777   1.402   0.606 -0.1472 -0.0527 -1.1445
  355SOL     OW 1063   2.017   0.495   0.656  0.0684  0.1255 -0.3622
  355SOL    HW1 1064   1.942   0.498   0.732 -1.2048  1.8415  1.3554
  355SOL    HW2 1065   2.113   0.512   0.685  0.0665 -0.7149 -1.4706
  356SOL     OW 1066   0.145   1.079   3.082  0.5644  0.2287  0.0641
  356SOL    HW1 1067   0.204   1.099   3.004  0.9359 -0.3075 -0.9783
  356SOL    HW2 1068   0.112   1.164   0.022  0.5534 -2.9740 -1.9668
  357SOL     OW 1069   2.920   3.072   2.044  0.2164  0.1481 -0.7559
  357SOL    HW1 1070   2.857   0.053   2.042  0.7598 -2.0836  0.6654
  357SOL    HW2 1071   2.969   3.066   2.136 -0.4615 -0.2063  1.9204
  358SOL     OW 1072   0.359   1.297   2.533 -0.2301 -0.0397  0.0972
  358SOL    HW1 1073   0.382   1.388   2.489  0.6934  1.8712  1.2461
  358SOL    HW2 1074   0.312   1.312   2.628 -3.9007 -1.0679  0.3350
  359SOL     OW 1075   2.423   2.579   2.528 -0.1909 -0.8300  0.2589
  359SOL    HW1 1076   2.336   2.626   2.544  0.3807  1.3151 -3.7886
  359SOL    HW2 1077   2.468   2.598   2.439  3.3538  0.2307 -0.0030
  360SOL     OW 1078   1.457   1.258   0.768 -0.7230  0.9863 -0.1059
  360SOL    HW1 1079   1.371   1.311   0.751  2.0544 -3.4514  1.2671
  360SOL    HW2 1080   1.464   1.213   0.857 -1.6320 -0.9532 -1.1386
  361SOL     OW 1081   2.258   2.427   1.113  0.7553 -0.2242  0.2509
  361SOL    HW1 1082   2.243   2.335   1.147 -2.3138 -0.1964  3.1664
  361SOL    HW2 1083   2.203   2.490   1.170 -1.0298 -0.2119 -0.3273
  362SOL     OW 1084   1.945   1.209   0.835  0.2780 -0.2347  0.3435
  362SOL    HW1 1085   2.025   1.184   0.777 -2.4068 -0.9185 -0.1977
  362SOL    HW2 1086   1.881   1.277   0.786 -1.8678  1.1322  0.3752
  363SOL     OW 1087   2.682   1.963   0.513  0.2265 -0.0071  0.2165
  363SOL    HW1 1088   2.698   1.930   0.418 -1.2032  1.5619  0.6271
  363SOL    HW2 1089   2.598   2.022   0.507 -1.2453  0.0749 -1.0105
  364SOL     OW 1090   2.271   0.180   1.486 -0.1722  0.5854 -0.2247
  364SOL    HW1 1091   2.292   0.110   1.561  0.1352 -2.5164  1.8240
  364SOL    HW2 1092   2.344   0.251   1.477 -0.6033 -2.2615  0.2551
  365SOL     OW 1093   0.251   2.676   1.194  0.2792  0.4117  0.2911
  365SOL    HW1 1094   0.313   2.639   1.123 -1.4462  1.5250  0.9688
  365SOL    HW2 1095   0.167   2.716   1.151 -3.3592 -0.0829 -1.3066
  366SOL     OW 1096   0.218   1.134   0.372 -0.2352  0.0629  0.1747
  366SOL    HW1 1097   0.194   1.033   0.371 -0.0560 -1.4241  0.1514
  366SOL    HW2 1098   0.253   1.160   0.466  1.4011 -2.7916 -2.1673
  367SOL     OW 1099   2.449   2.288   2.880 -0.1738  0.1132 -0.3450
  367SOL    HW1 1100   2.510   2.238   2.940 -1.3557 -0.2106 -4.0709
  367SOL    HW2 1101   2.466   2.277   2.780 -0.7516 -0.8096 -2.9614
  368SOL     OW 1102   2.726   1.893   1.004 -0.3893  0.4014 -0.6606
  368SOL    HW1 1103   2.708   1.888   1.104  0.4432 -0.1876 -3.0424
  368SOL    HW2 1104   2.737   1.799   0.960 -1.2108 -2.7132 -1.8398
  369SOL     OW 1105   0.827   0.888   0.553 -0.0638  0.2588 -0.2113
  369SOL    HW1 1106   0.726   0.877   0.537 -1.5170  0.1462 -0.1642
  369SOL    HW2 1107   0.884   0.914   0.471 -0.4628 -1.1511  0.3962
  370SOL     OW 1108   0.605   0.043   0.876 -0.6515 -0.1756  0.0483
  370SOL    HW1 1109   0.549   0.033   0.958  2.0962 -2.1183 -0.8467
  370SOL    HW2 1110   0.707   0.050   0.903  1.6416  0.7887 -2.9951
  371SOL     OW 1111   2.197   1.257   3.011 -0.6419  0.5180 -0.0900
  371SOL    HW1 1112   2.105   1.240   3.042  1.6436  2.3370 -2.4873
  371SOL    HW2 1113   2.200   1.244   2.910  2.7709 -1.7523  0.6657
  372SOL     OW 1114   0.570   0.696   2.670 -0.1636 -0.0420 -0.1861
  372SOL    HW1 1115   0.541   0.682   2.768 -2.6720 -0.5155 -1.3011
  372SOL    HW2 1116   0.601   0.600   2.644  0.9520  0.2552  1.2215
  373SOL     OW 1117   0.391   0.514   3.085  0.3246 -0.1775 -0.0495
  373SOL    HW1 1118   0.462   0.547   3.026  0.5062  2.0905  0.7658
  373SOL    HW2 1119   0.377   0.579   0.065 -0.0463  0.0761  0.3936
  374SOL     OW 1120   1.008   2.349   0.017  0.1216  0.4299 -0.5681
  374SOL    HW1 1121   1.011   2.405   3.034  1.6641 -0.5556  0.7805
  374SOL    HW2 1122   1.044   2.399   0.100 -3.4441 -2.4835  2.2687
  375SOL     OW 1123   1.061   3.083   0.623 -0.2513  0.0783 -0.4294
  375SOL    HW1 1124   1.025   0.065   0.678  0.4041  1.2586 -1.3375
  375SOL    HW2 1125   1.134   0.033   0.565  0.4699  0.8401 -0.8350
  376SOL     OW 1126   0.281   2.326   2.121 -0.0224 -0.2244  0.3636
  376SOL    HW1 1127   0.183   2.358   2.116  0.5658  0.5806 -0.0828
  376SOL    HW2 1128   0.342   2.372   2.053 -3.3547  0.4823  0.3263
  377SOL     OW 1129   2.784   2.070   2.986  0.1127  0.0958 -0.0926
  377SOL    HW1 1130   2.685   2.083   3.014 -0.2192  2.8256 -2.0472
  377SOL    HW2 1131   2.809   1.972   2.990  0.0085  4.2317 -1.7466
  378SOL     OW 1132   1.562   0.687   0.462 -0.1713 -0.4382  0.2985
  378SOL    HW1 1133   1.543   0.677   0.359  0.2841  1.5075 -1.7306
  378SOL    HW2 1134   1.490   0.641   0.519  3.6893 -1.5477  0.8518
  379SOL     OW 1135   1.249   1.421   0.714 -0.7801  0.6332  0.2241
  379SOL    HW1 1136   1.156   1.375   0.716 -2.3164  2.7516 -1.3230
  379SOL    HW2 1137   1.234   1.520   0.722 -0.8524 -3.7800 -0.1147
  380SOL     OW 1138   2.315   2.181   1.968 -0.0710  0.1709  0.2473
  380SOL    HW1 1139   2.377   2.245   1.919  2.2208 -0.3376 -0.1511
  380SOL    HW2 1140   2.228   2.235   1.980  0.1678  0.1684 -1.0927
  381SOL     OW 1141   3.039   1.069   2.308  0.9089 -0.1517 -0.1046
  381SOL    HW1 1142   3.094   1.115   2.239 -2.0526 -1.1245  0.7790
  381SOL    HW2 1143   2.948   1.055   2.262  3.0838  1.4188  0.1063
  382SOL     OW 1144   2.834   2.329   0.199 -0.1015  0.0035  0.7212
  382SOL    HW1 1145   2.792   2.417   0.236  0.0329 -0.7380 -1.3325
  382SOL    HW2 1146   2.866   2.341   0.104 -1.5060  1.1661  4.0698
  383SOL     OW 1147   1.432   1.098   2.308  0.1101  0.0068 -0.3427
  383SOL    HW1 1148   1.460   1.165   2.234  2.2160 -0.6447  2.7499
  383SOL    HW2 1149   1.458   1.004   2.284  0.8258  0.3003 -0.7610
  384SOL     OW 1150   0.908   2.257   2.727  0.6522  0.2440  0.2524
  384SOL    HW1 1151   0.969   2.269   2.646 -0.2359  0.8782  0.1045
  384SOL    HW2 1152   0.869   2.347   2.752 -1.3121 -1.5224 -0.4744
  385SOL     OW 1153   2.013   2.423   0.148  0.0399 -0.1244 -0.0281
  385SOL    HW1 1154   1.927   2.457   0.113  4.8892 -2.3553  1.7555
  385SOL    HW2 1155   2.072   2.505   0.177  0.1742  0.3595  1.2688
  386SOL     OW 1156   1.357   1.386   0.453  0.4410 -0.0236  0.0082
  386SOL    HW1 1157   1.355   1.472   0.399 -2.4240 -0.6971 -0.1192
  386SOL    HW2 1158   1.319   1.401   0.547  0.3245  0.4554  1.5186
  387SOL     OW 1159   2.784   0.917   1.257 -0.2767  0.2603 -0.6067
  387SOL    HW1 1160   2.745   0.849   1.194  2.0751  1.1115  1.4351
  387SOL    HW2 1161   2.790   1.011   1.217 -0.7161 -1.8699  1.8310
  388SOL     OW 1162   3.082   0.829   0.884 -0.0141 -0.3126  0.2066
  388SOL    HW1 1163   3.074   0.867   0.979 -0.1284 -0.3676  1.2736
  388SOL    HW2 1164   3.018   0.751   0.876  0.8664  1.3470 -0.1806
  389SOL     OW 1165   1.742   1.261   2.397  0.0099  0.5452  0.0296
  389SOL    HW1 1166   1.689   1.282   2.483  0.8204  1.5618  2.6148
  389SOL    HW2 1167   1.802   1.339   2.377 -1.6982 -0.0097 -0.5894
  390SOL     OW 1168   1.464   2.167   0.462  0.1599 -0.8974 -0.1049
  390SOL    HW1 1169   1.528   2.241   0.431  0.9348  1.5719 -0.6680
  390SOL    HW2 1170   1.501   2.098   0.527 -1.8376 -0.9968 -4.1808
  391SOL     OW 1171   1.209   2.071   1.029  0.1982  0.1761 -0.0078
  391SOL    HW1 1172   1.225   1.974   1.065  0.6009 -0.7137 -1.2819
  391SOL    HW2 1173   1.255   2.079   0.939 -0.8018 -1.4790  2.0878
  392SOL     OW 1174   2.247   2.491   1.835  0.3980 -0.4594  0.3816
  392SOL    HW1 1175   2.167   2.435   1.805  1.0169 -0.5201 -0.2740
  392SOL    HW2 1176   2.331   2.436   1.836 -1.5169  1.7934  0.2322
  393SOL     OW 1177   1.467   2.050   0.046 -0.7168  0.3582 -0.0223
  393SOL    HW1 1178   1.503   2.084   3.054 -0.0738  0.4381  2.7210
  393SOL    HW2 1179   1.482   1.953   0.058 -0.8266  0.6724  0.7157
  394SOL     OW 1180   0.157   0.388   2.325 -0.5570  0.0247 -0.1474
  394SOL    HW1 1181   0.079   0.379   2.258  0.1974  3.1772 -3.0810
  394SOL    HW2 1182   0.247   0.354   2.288  3.5872  0.4662  1.4996
  395SOL     OW 1183   0.444   1.006   0.814 -0.0772  0.3679 -0.4190
  395SOL    HW1 1184   0.518   1.075   0.830  0.7250 -0.0525  2.0537
  395SOL    HW2 1185   0.479   0.913   0.825  0.6807  1.4346 -1.5924
  396SOL     OW 1186   2.157   0.941   2.744 -0.1217  0.0479 -0.2710
  396SOL    HW1 1187   2.065   0.918   2.705 -1.4429 -1.2164 -0.0374
  396SOL    HW2 1188   2.196   1.018   2.689 -0.5741 -0.7705 -0.7514
  397SOL     OW 1189   0.023   0.778   2.728  0.9031  0.4241  0.0552
  397SOL    HW1 1190   0.059   0.689   2.688 -1.2814 -2.2890 -1.5720
  397SOL    HW2 1191   0.034   0.859   2.669 -1.9493  1.0221 -0.4548
  398SOL     OW 1192   1.530   2.778   0.323 -0.1985 -0.0713 -0.1909
  398SOL    HW1 1193   1.506   2.844   0.398  1.6645 -0.2917 -0.0936
  398SOL    HW2 1194   1.511   2.828   0.240  0.5637  0.2519  0.2470
  399SOL     OW 1195   2.090   2.332   2.004  0.2323  0.6437 -1.1860
  399SOL    HW1 1196   2.040   2.400   2.063  0.0723  1.5900 -0.4597
  399SOL    HW2 1197   2.028   2.293   1.931 -2.0092  0.9545  1.3095
  400SOL     OW 1198   0.071   1.657   2.143  0.4622  0.9048 -0.2968
  400SOL    HW1 1199   0.091   1.593   2.068  0.8640 -1.6532  2.6476
  400SOL    HW2 1200   0.058   1.753   2.111 -2.1942  2.3021  0.0708
  401SOL     OW 1201   0.547   0.927   0.502 -0.1543  0.0502 -0.4060
  401SOL    HW1 1202   0.552   0.819   0.501 -0.4992 -2.4974 -0.6306
  401SOL    HW2 1203   0.461   0.959   0.546 -0.9427 -0.3863 -2.2611
  402SOL     OW 1204   0.610   2.924   2.137  0.4073 -0.3014 -0.0307
  402SOL    HW1 1205   0.640   2.992   2.207 -3.1723  0.0825  1.6225
  402SOL    HW2 1206   0.518   2.887   2.171 -0.8001 -1.5519  2.2425
  403SOL     OW 1207   2.745   1.718   2.120  0.3789 -0.0184  0.3810
  403SOL    HW1 1208   2.709   1.789   2.182 -0.2059  2.0407  0.1738
  403SOL    HW2 1209   2.836   1.754   2.090 -2.5712  1.3474 -0.2624
  404SOL     OW 1210   2.534   2.033   2.053  0.1826  0.0596  0.6871
  404SOL    HW1 1211   2.464   2.090   2.004  0.2537 -1.2491  0.9582
  404SOL    HW2 1212   2.627   2.048   2.015 -0.2638 -1.0116 -0.7254
  405SOL     OW 1213   1.952   0.168   2.595  0.4132 -0.2610 -0.3824
  405SOL    HW1 1214   2.000   0.084   2.627 -0.6377  1.7763  1.3671
  405SOL    HW2 1215   1.914   0.162   2.504  1.2792 -0.5593  3.0265
  406SOL     OW 1216   1.084   2.037   0.434 -0.5109 -0.7331 -0.6882
  406SOL    HW1 1217   1.158   2.050   0.360  1.9763  0.4080 -2.2580
  406SOL    HW2 1218   0.995   2.067   0.388  0.2142 -1.4028 -2.5658
  407SOL     OW 1219   1.618   1.300   0.379  0.0062  0.3427 -0.2183
  407SOL    HW1 1220   1.615   1.203   0.349 -4.2587 -0.9302  1.4572
  407SOL    HW2 1221   1.525   1.337   0.398 -0.7892  1.3216 -1.9494
  408SOL     OW 1222   0.143   0.764   1.538 -0.1667 -0.0965 -0.6110
  408SOL    HW1 1223   0.229   0.728   1.574 -2.7881 -0.2450 -1.0241
  408SOL    HW2 1224   0.118   0.718   1.449  0.4469 -2.3030  0.3450
  409SOL     OW 1225   2.880   1.310   2.925  0.4089  0.4287 -1.1410
  409SOL    HW1 1226   2.796   1.366   2.899  0.3496  0.5840 -0.1192
  409SOL    HW2 1227   2.960   1.366   2.962 -1.7303 -0.3107 -1.8249
  410SOL     OW 1228   2.550   2.354   0.657  0.2731  0.8769  0.2044
  410SOL    HW1 1229   2.495   2.402   0.727  3.6119 -3.8615 -0.1509
  410SOL    HW2 1230   2.537   2.256   0.666 -0.2728 -4.3216 -0.4194
  411SOL     OW 1231   0.138   0.702   0.384  0.1975  0.5501  0.2585
  411SOL    HW1 1232   0.094   0.790   0.401  1.4625  1.2557  0.5091
  411SOL    HW2 1233   0.100   0.660   0.300  0.8091 -0.2689 -2.2337
  412SOL     OW 1234   1.787   0.086   0.169  0.4309  0.0859 -0.2092
  412SOL    HW1 1235   1.850   0.169   0.157  3.0787  0.3008  1.3344
  412SOL    HW2 1236   1.777   0.031   0.087  0.8572 -0.4206  1.9622
  413SOL     OW 1237   1.166   0.317   1.475 -0.4077  0.2575  0.4027
  413SOL    HW1 1238   1.248   0.283   1.527 -4.2852  1.7575 -1.5614
  413SOL    HW2 1239   1.088   0.310   1.535  0.5782 -1.9451  2.2949
  414SOL     OW 1240   0.428   1.278   0.233  0.4831  0.2263  0.2939
  414SOL    HW1 1241   0.336   1.274   0.276  1.5170 -1.1472  1.1559
  414SOL    HW2 1242   0.481   1.190   0.250 -1.4324 -0.9839  0.9560
  415SOL     OW 1243   2.858   1.507   0.097 -0.0823 -0.1895  0.1947
  415SOL    HW1 1244   2.950   1.511   0.049  0.9529  0.1720  0.0990
  415SOL    HW2 1245   2.871   1.512   0.199 -0.8570 -0.2941  0.7388
  416SOL     OW 1246   2.676   0.517   3.038 -0.7574  0.0871 -0.0036
  416SOL    HW1 1247   2.647   0.566   2.949 -0.2005  0.6791 -2.1692
  416SOL    HW2 1248   2.668   0.583   0.018 -1.0268 -2.4193 -1.3957
  417SOL     OW 1249   2.742   2.829   0.444  0.2511  0.1894 -0.4562
  417SOL    HW1 1250   2.833   2.784   0.430 -0.6931  2.2908  3.1447
  417SOL    HW2 1251   2.688   2.832   0.355  0.6929  0.5620 -1.2051
  418SOL     OW 1252   0.279   0.317   0.131  0.1693  0.1213 -0.4684
  418SOL    HW1 1253   0.326   0.320   0.223  0.0337  0.7420 -1.7630
  418SOL    HW2 1254   0.302   0.393   0.070 -0.3289 -0.6784  2.2709
  419SOL     OW 1255   0.589   0.822   0.938 -0.2023  0.3599  0.5330
  419SOL    HW1 1256   0.677   0.869   0.963 -2.5283  1.6917 -3.5003
  419SOL    HW2 1257   0.602   0.725   0.908  0.2376 -1.3558 -2.7435
  420SOL     OW 1258   0.249   0.574   0.904  0.1346  0.5867 -0.1721
  420SOL    HW1 1259   0.289   0.618   0.987  0.0792 -0.8257  1.8212
  420SOL    HW2 1260   0.217   0.638   0.832  2.9670  0.4472  0.8918
  421SOL     OW 1261   0.593   2.171   0.244  0.0043  0.0709 -0.0068
  421SOL    HW1 1262   0.551   2.088   0.203  0.8311  2.9539 -0.4535
  421SOL    HW2 1263   0.632   2.228   0.164  2.0385 -1.5851  0.5646
  422SOL     OW 1264   2.482   0.501   2.009  0.5419  0.0825 -1.0562
  422SOL    HW1 1265   2.546   0.512   2.088  0.1716 -0.1292 -1.0896
  422SOL    HW2 1266   2.386   0.516   2.042  0.9880 -0.0869  0.3750
  423SOL     OW 1267   1.857   1.987   0.306 -0.1842  0.0285  0.0567
  423SOL    HW1 1268   1.829   1.938   0.217 -2.5167 -1.5643  0.3518
  423SOL    HW2 1269   1.808   2.077   0.304 -3.4793 -2.5909 -0.8020
  424SOL     OW 1270   1.716   1.658   2.464  0.0408 -0.2071 -0.4336
  424SOL    HW1 1271   1.785   1.585   2.447  1.7623 -1.5960  0.0645
  424SOL    HW2 1272   1.635   1.624   2.523  0.9247 -1.7684  0.3003
  425SOL     OW 1273   3.023   2.648   2.266 -0.0780 -0.2352  0.0261
  425SOL    HW1 1274   2.931   2.698   2.262  1.2817  0.9997  2.3011
  425SOL    HW2 1275   3.072   2.664   2.350  1.4306 -0.9532 -2.8852
  426SOL     OW 1276   2.347   2.542   0.371 -0.1495 -0.4197 -0.1265
  426SOL    HW1 1277   2.261   2.564   0.322  0.3355 -1.6283 -0.5189
  426SOL    HW2 1278   2.416   2.616   0.351  0.3568 -0.0686 -0.8611
  427SOL     OW 1279   0.445   1.083   2.396 -0.5291 -0.1346  0.0133
  427SOL    HW1 1280   0.404   1.165   2.444  1.0319  1.9619 -0.6772
  427SOL    HW2 1281   0.503   1.029   2.463 -0.3580  2.3741 -1.3339
  428SOL     OW 1282   2.456   1.306   2.713 -0.1957 -0.2666  0.0226
  428SOL    HW1 1283   2.470   1.203   2.707 -1.3482 -1.3232 -3.9275
  428SOL    HW2 1284   2.363   1.320   2.752  1.3221  0.9573 -1.2587
  429SOL     OW 1285   2.411   2.985   0.573  0.1790  0.2581 -0.1890
  429SOL    HW1 1286   2.466   2.939   0.640 -0.8577  0.0104 -2.0341
  429SOL    HW2 1287   2.436   2.951   0.481  0.1485 -1.0711 -3.1665
  430SOL     OW 1288   1.408   2.040   2.350 -0.2762  0.2088  0.0840
  430SOL    HW1 1289   1.327   2.093   2.308  0.2401  1.4966 -0.9274
  430SOL    HW2 1290   1.407   2.038   2.453  0.3912 -2.3579  1.9188
  431SOL     OW 1291   3.069   1.826   1.675  0.1145 -0.9569  0.6556
  431SOL    HW1 1292   2.981   1.844   1.624 -3.3571  0.6285 -1.1370
  431SOL    HW2 1293   0.044   1.771   1.627  2.4211  0.0509 -3.3146
  432SOL     OW 1294   1.137   2.285   2.563  0.5675 -0.5097  0.0019
  432SOL    HW1 1295   1.183   2.250   2.647 -0.6576  2.2056  0.0051
  432SOL    HW2 1296   1.200   2.289   2.482 -0.6181 -1.6681  2.6007
  433SOL     OW 1297   0.916   2.647   0.790  0.0069 -0.4562  0.2576
  433SOL    HW1 1298   0.970   2.566   0.760  1.7695  0.4188  0.5762
  433SOL    HW2 1299   0.983   2.728   0.787 -0.5478  0.0843 -0.7464
  434SOL     OW 1300   0.420   2.156   2.437  0.0143 -0.3241  0.2243
  434SOL    HW1 1301   0.356   2.226   2.466 -0.7544 -0.1277 -0.7981
  434SOL    HW2 1302   0.391   2.109   2.352 -0.9747  1.8589  3.9980
  435SOL     OW 1303   0.429   1.395   0.639 -0.1843 -0.5293 -0.6773
  435SOL    HW1 1304   0.445   1.441   0.550  1.2094 -0.8304  1.4406
  435SOL    HW2 1305   0.397   1.465   0.707  0.8391 -1.5161 -0.9917
  436SOL     OW 1306   0.414   2.375   1.670  0.2290  0.1741  0.8505
  436SOL    HW1 1307   0.356   2.412   1.592 -2.2888 -0.7702 -1.8574
  436SOL    HW2 1308   0.395   2.276   1.691  0.7880  1.9991  0.8027
  437SOL     OW 1309   1.037   0.579   0.568 -1.3267 -0.1220  0.0601
  437SOL    HW1 1310   0.958   0.533   0.517 -1.1100  1.5900  1.5759
  437SOL    HW2 1311   1.074   0.655   0.511  0.4116 -1.6299  0.4339
  438SOL     OW 1312   0.350   2.196   0.857 -0.5853 -0.0431 -0.2797
  438SOL    HW1 1313   0.263   2.243   0.888 -0.2650  0.6605 -2.0057
  438SOL    HW2 1314   0.412   2.192   0.939  1.2571  2.0106  1.6551
  439SOL     OW 1315   0.945   2.709   1.855  0.3357 -0.0903 -0.1572
  439SOL    HW1 1316   0.860   2.691   1.909 -1.1733 -0.6069 -0.5751
  439SOL    HW2 1317   0.922   2.712   1.756 -1.0487 -2.4887  0.4329
  440SOL     OW 1318   1.565   0.122   1.606  0.3440 -0.1115 -0.3847
  440SOL    HW1 1319   1.627   0.114   1.688 -1.0586 -2.5944 -0.4523
  440SOL    HW2 1320   1.599   0.187   1.536  0.0947  0.2186 -1.0878
  441SOL     OW 1321   0.529   0.223   1.485 -0.1788  0.0512  0.2492
  441SOL    HW1 1322   0.576   0.150   1.537 -0.9595  1.4593  1.2738
  441SOL    HW2 1323   0.433   0.202   1.480  3.4148 -0.8304 -0.5776
  442SOL     OW 1324   2.076   1.992   0.453  0.7189  0.4987  0.0238
  442SOL    HW1 1325   2.092   1.897   0.474  0.1070  1.5454 -2.1684
  442SOL    HW2 1326   1.996   1.996   0.385  0.2774 -0.8511 -1.4899
  443SOL     OW 1327   2.504   0.369   2.292  0.5715  0.6686  0.2122
  443SOL    HW1 1328   2.568   0.294   2.300  0.8196  2.9762  1.8581
  443SOL    HW2 1329   2.410   0.330   2.264  0.6270 -0.8264 -1.9684
  444SOL     OW 1330   2.170   1.051   1.727 -0.4665 -0.3458  0.0845
  444SOL    HW1 1331   2.254   1.090   1.765  0.2434 -1.0866  0.6162
  444SOL    HW2 1332   2.131   0.996   1.802  1.0528 -1.2795 -2.9491
  445SOL     OW 1333   2.720   2.011   1.698  0.0639 -0.0274 -0.1953
  445SOL    HW1 1334   2.709   1.917   1.737  0.4816 -0.6013  1.2137
  445SOL    HW2 1335   2.772   2.066   1.766  0.8890  2.1814 -0.5193
  446SOL     OW 1336   2.952   1.451   0.703  0.1966 -0.1795 -0.3823
  446SOL    HW1 1337   3.012   1.402   0.638  0.6593  1.9717  0.3784
  446SOL    HW2 1338   2.851   1.437   0.685  1.9462  2.8929  1.0854
  447SOL     OW 1339   1.216   1.693   0.730  0.4533 -0.3320  0.4496
  447SOL    HW1 1340   1.152   1.722   0.807 -1.7260 -0.2162  1.8811
  447SOL    HW2 1341   1.174   1.706   0.640 -0.9201  0.7911  2.5332
  448SOL     OW 1342   1.518   1.197   1.489  0.5173  0.2863 -0.0480
  448SOL    HW1 1343   1.533   1.278   1.541 -0.3373 -2.5167 -0.0786
  448SOL    HW2 1344   1.522   1.220   1.387 -0.3232  0.3838  0.0125
  449SOL     OW 1345   0.668   1.432   2.978  0.1658 -0.0838  0.3040
  449SOL    HW1 1346   0.569   1.429   3.005 -0.0029  0.0056 -0.4413
  449SOL    HW2 1347   0.684   1.401   2.885 -0.4781  1.4797  1.0345
  450SOL     OW 1348   2.272   2.153   2.248 -0.4235  0.2171  0.3133
  450SOL    HW1 1349   2.278   2.161   2.147  0.3637 -0.0627 -0.5572
  450SOL    HW2 1350   2.294   2.243   2.285 -1.9693 -0.4409  0.8531
  451SOL     OW 1351   1.994   3.042   2.260 -0.2709 -0.6474  0.0960
  451SOL    HW1 1352   2.087   3.050   2.302 -2.6160  0.4306 -0.9053
  451SOL    HW2 1353   1.946   0.032   2.288 -0.4203  0.6241  0.5663
  452SOL     OW 1354   1.004   0.004   1.411 -0.1262  0.1815  0.1366
  452SOL    HW1 1355   1.042   3.032   1.349  0.6318  2.0014  1.9091
  452SOL    HW2 1356   0.994   0.094   1.364 -0.5233 -2.2550 -0.0899
  453SOL     OW 1357   1.071   1.056   0.840 -0.1474 -0.3070  0.1064
  453SOL    HW1 1358   1.028   0.964   0.824  2.5588  1.1079  2.3074
  453SOL    HW2 1359   1.090   1.104   0.751 -1.1649  0.1355 -0.9902
  454SOL     OW 1360   0.630   1.230   0.799 -0.2303  0.1491  0.0010
  454SOL    HW1 1361   0.568   1.292   0.752 -0.1871 -0.1112  1.6729
  454SOL    HW2 1362   0.667   1.279   0.879 -1.8540  1.4704 -0.7429
  455SOL     OW 1363   2.882   2.994   2.958  0.0846  0.4063 -0.3927
  455SOL    HW1 1364   2.845   2.931   3.027 -1.8065 -0.6249 -2.4392
  455SOL    HW2 1365   2.847   3.090   2.965 -0.1269 -1.1069 -0.0866
  456SOL     OW 1366   2.523   2.171   1.138  0.5468 -0.2887 -0.0090
  456SOL    HW1 1367   2.511   2.243   1.213 -0.4098  0.2688  0.9748
  456SOL    HW2 1368   2.597   2.193   1.073 -0.9325 -0.2818  1.1429
  457SOL     OW 1369   1.527   0.012   0.294  0.3738  0.5931 -0.1418
  457SOL    HW1 1370   1.616   0.039   0.257 -1.6020  1.0634  1.2918
  457SOL    HW2 1371   1.519   0.035   0.391 -0.0109 -1.5738  0.3173
  458SOL     OW 1372   2.738   0.006   0.499  0.0150  0.2624 -0.0492
  458SOL    HW1 1373   2.804   0.012   0.576  0.6537 -0.8578  0.3960
  458SOL    HW2 1374   2.708   3.006   0.480 -0.2253 -1.2300  0.9526
  459SOL     OW 1375   2.055   0.420   2.552  0.1669  0.6167 -0.0669
  459SOL    HW1 1376   2.135   0.438   2.607 -0.4533 -0.3544  0.3715
  459SOL    HW2 1377   2.012   0.331   2.575  0.7774 -0.6838  2.9804
  460SOL     OW 1378   2.845   0.154   2.971 -0.2840 -0.1821  0.1882
  460SOL    HW1 1379   2.775   0.175   3.041 -1.3120 -0.4393  0.7665
  460SOL    HW2 1380   2.900   0.237   2.946 -0.3821  0.3408 -1.4642
  461SOL     OW 1381   0.796   1.694   1.188  0.0757  0.0377  0.0250
  461SOL    HW1 1382   0.859   1.683   1.266  1.5855  0.3351 -1.3802
  461SOL    HW2 1383   0.840   1.670   1.101 -0.3602  4.8483 -1.1985
  462SOL     OW 1384   2.549   3.002   1.716  0.1086  0.8894 -0.0137
  462SOL    HW1 1385   2.603   2.926   1.674 -0.2083  0.0795 -1.5761
  462SOL    HW2 1386   2.613   3.079   1.726 -1.7567 -1.4367  2.8386
  463SOL     OW 1387   2.933   1.088   0.265 -0.2867 -0.4757 -0.5367
  463SOL    HW1 1388   2.849   1.099   0.320 -0.6732  0.2184  1.8452
  463SOL    HW2 1389   2.975   1.173   0.226  1.6855  6.5485 -3.3147
  464SOL     OW 1390   0.019   2.771   1.095 -0.2798 -0.0641 -0.4500
  464SOL    HW1 1391   3.040   2.756   1.027 -0.9786  1.6517  1.5599
  464SOL    HW2 1392   3.086   2.832   1.167 -1.1022 -2.2056  1.9346
  465SOL     OW 1393   0.551   1.438   0.381 -0.3711  0.1285  0.1200
  465SOL    HW1 1394   0.494   1.369   0.332 -0.0173  1.9436  1.3879
  465SOL    HW2 1395   0.541   1.520   0.325  0.5777 -1.3160 -2.6688
  466SOL     OW 1396   0.960   0.445   2.636 -0.9203 -0.2488  0.4377
  466SOL    HW1 1397   0.988   0.370   2.700 -2.2898 -0.9426  0.0935
  466SOL    HW2 1398   0.964   0.538   2.683  0.9533  1.9308  0.4027
  467SOL     OW 1399   0.959   0.777   2.459 -0.1144  0.2734 -0.6223
  467SOL    HW1 1400   0.951   0.769   2.360 -1.4293 -1.6254  0.7261
  467SOL    HW2 1401   1.047   0.738   2.493  0.9648 -0.6002  0.5092
  468SOL     OW 1402   0.493   0.877   2.192 -0.4048 -0.1198 -0.8379
  468SOL    HW1 1403   0.428   0.800   2.212  1.8352 -1.3410 -2.7355
  468SOL    HW2 1404   0.480   0.948   2.267 -1.0916 -2.0135 -3.2841
  469SOL     OW 1405   0.290   2.068   0.282 -0.2634 -0.1941 -0.2499
  469SOL    HW1 1406   0.371   2.008   0.255 -1.6252 -1.2320 -2.2778
  469SOL    HW2 1407   0.217   2.068   0.211 -1.5700  4.0542  1.9886
  470SOL     OW 1408   3.027   2.069   2.817 -0.5206 -0.0231  0.1530
  470SOL    HW1 1409   3.027   2.044   2.913  1.7495  1.4800 -2.5482
  470SOL    HW2 1410   2.951   2.131   2.793  2.4954  0.2644 -1.3414
  471SOL     OW 1411   1.901   0.597   2.165 -0.0512  0.1813 -0.2314
  471SOL    HW1 1412   1.847   0.669   2.115 -2.0609 -3.8058  0.2441
  471SOL    HW2 1413   1.844   0.509   2.157  0.1736 -1.5651 -2.4196
  472SOL     OW 1414   0.653   2.648   1.204 -0.0753  0.0443  0.1116
  472SOL    HW1 1415   0.643   2.572   1.278 -0.9438 -1.6026 -0.9568
  472SOL    HW2 1416   0.712   2.618   1.123  1.0380 -1.2302  1.7465
  473SOL     OW 1417   0.890   0.001   2.500  0.1201 -0.2935  0.3966
  473SOL    HW1 1418   0.949   0.064   2.553  0.4053 -0.8550  0.3039
  473SOL    HW2 1419   0.855   3.023   2.559  1.1987  0.6952  0.4123
  474SOL     OW 1420   2.118   2.957   1.795 -0.3030 -0.3163  0.1129
  474SOL    HW1 1421   2.142   2.858   1.766  3.5418 -0.5673  0.5873
  474SOL    HW2 1422   2.084   2.953   1.894 -2.1433  0.8330  3.9284
  475SOL     OW 1423   1.841   0.190   0.891 -0.2198  0.3264 -0.3215
  475SOL    HW1 1424   1.852   0.106   0.833  0.7442 -0.8434 -1.5451
  475SOL    HW2 1425   1.926   0.210   0.943 -1.5569 -1.3571  2.7863
  476SOL     OW 1426   0.643   0.531   0.921 -0.1539 -0.3342  0.5309
  476SOL    HW1 1427   0.629   0.433   0.912  0.4722  3.0987  0.4306
  476SOL    HW2 1428   0.671   0.550   1.019  3.7675 -0.9843  0.4901
  477SOL     OW 1429   1.352   2.512   0.718  0.5653  0.1105 -0.1557
  477SOL    HW1 1430   1.442   2.469   0.743  2.5731 -1.3783  2.3096
  477SOL    HW2 1431   1.268   2.463   0.752  0.7987 -0.9957  0.5070
  478SOL     OW 1432   0.327   2.412   2.480  0.7712  0.1354  0.0330
  478SOL    HW1 1433   0.250   2.481   2.494 -2.3658  1.4430  0.4423
  478SOL    HW2 1434   0.413   2.447   2.523  1.2393  3.3374  2.1307
  479SOL     OW 1435   2.743   0.243   1.108  0.0692 -0.4798  0.3840
  479SOL    HW1 1436   2.705   0.336   1.134 -0.1715  0.3280  1.4383
  479SOL    HW2 1437   2.826   0.225   1.163 -2.0948  0.5349  1.1436
  480SOL     OW 1438   0.175   2.702   0.393 -0.6373 -0.1490  0.3955
  480SOL    HW1 1439   0.124   2.767   0.337  2.3857 -1.8551 -0.2934
  480SOL    HW2 1440   0.114   2.661   0.464 -0.0159  1.0601  0.2314
  481SOL     OW 1441   2.360   2.080   1.414  0.3902  0.2537  0.0984
  481SOL    HW1 1442   2.356   1.984   1.376  0.5107  0.9926 -0.6344
  481SOL    HW2 1443   2.318   2.146   1.349  1.3625  0.3016 -3.1824
  482SOL     OW 1444   0.997   2.555   2.940  0.1870 -0.2157  0.3955
  482SOL    HW1 1445   1.011   2.564   2.837  3.8390  1.9370  0.8408
  482SOL    HW2 1446   0.925   2.621   2.974  1.0574 -0.2603 -2.7215
  483SOL     OW 1447   0.431   2.574   2.247 -0.0086 -0.1656 -0.4484
  483SOL    HW1 1448   0.408   2.489   2.293 -3.4962  2.4299 -0.4304
  483SOL    HW2 1449   0.488   2.548   2.172 -2.1265  0.4406  0.3146
  484SOL     OW 1450   1.366   0.502   1.442 -0.4711 -0.4878 -0.6620
  484SOL    HW1 1451   1.375   0.518   1.546 -1.6082 -0.9407 -0.0147
  484SOL    HW2 1452   1.283   0.444   1.427  1.1090  2.1636  1.2415
  485SOL     OW 1453   1.922   1.051   2.492 -0.2910 -0.1390 -0.0345
  485SOL    HW1 1454   1.964   0.988   2.428 -1.9036  0.9184  1.9671
  485SOL    HW2 1455   1.866   1.117   2.440  0.5837  0.1643  0.4437
  486SOL     OW 1456   2.271   2.974   1.042  0.1372 -0.0116 -0.3139
  486SOL    HW1 1457   2.194   2.908   1.051  1.8146  0.6496  0.5360
  486SOL    HW2 1458   2.357   2.938   0.994  0.3834  0.2586 -0.2294
  487SOL     OW 1459   0.763   2.316   1.715 -0.6950 -0.0481  0.0810
  487SOL    HW1 1460   0.735   2.413   1.701  2.2939  3.0584 -0.1535
  487SOL    HW2 1461   0.810   2.281   1.633  0.2378 -0.5418  0.3250
  488SOL     OW 1462   2.665   1.415   2.837  0.1579  0.0027 -0.4459
  488SOL    HW1 1463   2.586   1.356   2.794 -2.3182 -0.1962  0.9346
  488SOL    HW2 1464   2.648   1.439   2.934 -0.7236 -1.1312 -1.1846
  489SOL     OW 1465   2.180   0.139   0.944 -0.0185  0.6034 -0.1886
  489SOL    HW1 1466   2.202   0.165   0.849 -3.5334  2.4538 -0.6763
  489SOL    HW2 1467   2.222   0.046   0.968 -1.2916 -2.5379  0.1336
  490SOL     OW 1468   1.091   1.289   0.089 -0.1394  0.2415  0.2479
  490SOL    HW1 1469   1.167   1.343   0.052 -0.1250 -2.1963  1.5859
  490SOL    HW2 1470   1.009   1.351   0.077  1.5090 -0.2095  0.6657
  491SOL     OW 1471   0.464   2.228   1.407 -0.4960 -0.1922  0.2584
  491SOL    HW1 1472   0.368   2.258   1.442 -0.7965  2.4570  0.0964
  491SOL    HW2 1473   0.495   2.139   1.444 -0.8780  0.1930  0.8809
  492SOL     OW 1474   1.079   1.691   1.956 -0.1657  0.4078  0.6403
  492SOL    HW1 1475   1.138   1.631   1.903  3.4864  1.1934 -1.1208
  492SOL    HW2 1476   1.097   1.790   1.931  1.5240  0.2984  0.7409
  493SOL     OW 1477   2.755   2.273   1.032  0.2290 -0.5414 -0.2609
  493SOL    HW1 1478   2.801   2.364   1.065  0.5502 -1.1082  1.6238
  493SOL    HW2 1479   2.830   2.206   0.999  0.8901 -1.2491  1.6597
  494SOL     OW 1480   3.021   2.162   0.499  0.2383 -0.3073  0.1637
  494SOL    HW1 1481   2.977   2.112   0.575  0.9223 -2.3378 -1.9428
  494SOL    HW2 1482   3.002   2.114   0.407 -1.0759  0.9905 -3.5459
  495SOL     OW 1483   2.819   2.812   0.044 -0.0206  0.3651 -0.7753
  495SOL    HW1 1484   2.814   2.718   0.007  0.3505 -0.2836  0.2381
  495SOL    HW2 1485   2.901   2.813   0.104  0.0940 -0.8386 -0.7211
  496SOL     OW 1486   2.538   0.293   1.370  0.0158 -0.1014 -0.3073
  496SOL    HW1 1487   2.518   0.214   1.308 -0.7400 -1.3667  3.4656
  496SOL    HW2 1488   2.577   0.366   1.312 -1.2795 -2.1684 -0.3934
  497SOL     OW 1489   2.771   1.072   2.985 -0.0380  0.1579  0.0101
  497SOL    HW1 1490   2.841   1.004   2.959  0.5506 -0.7605 -1.2485
  497SOL    HW2 1491   2.804   1.169   2.970 -2.3057  0.4483 -2.8179
  498SOL     OW 1492   2.960   1.645   1.870  0.5724 -0.1376  0.0263
  498SOL    HW1 1493   3.025   1.626   1.946  0.8425 -0.8095  0.8561
  498SOL    HW2 1494   2.989   1.727   1.820  1.0425 -0.4414 -0.1354
  499SOL     OW 1495   0.773   2.656   2.718  0.1817  0.1010  0.2081
  499SOL    HW1 1496   0.723   2.632   2.630 -1.7902 -3.2875 -1.7536
  499SOL    HW2 1497   0.756   2.586   2.786  1.1317  4.0842 -1.8162
  500SOL     OW 1498   1.865   0.564   2.891  0.6389  0.4423  0.1661
  500SOL    HW1 1499   1.958   0.595   2.908 -0.0623 -2.4035 -0.1315
  500SOL    HW2 1500   1.840   0.493   2.959  0.7399  1.5395 -2.7529
  501SOL     OW 1501   1.360   0.286   1.659 -0.3125  0.8216 -0.1781
  501SOL    HW1 1502   1.395   0.369   1.708  3.3555  0.1026 -1.3789
  501SOL    HW2 1503   1.441   0.230   1.635  0.0231  0.1175 -2.0849
  502SOL     OW 1504   2.475   0.808   1.723  0.2465 -0.3171  0.2297
  502SOL    HW1 1505   2.518   0.715   1.722  2.7259 -0.5622  1.3635
  502SOL    HW2 1506   2.406   0.812   1.647 -1.6766  0.0916 -0.9930
  503SOL     OW 1507   2.164   1.901   2.189  0.0957  0.4363 -0.6460
  503SOL    HW1 1508   2.205   1.994   2.200  1.0212  1.3128  1.4248
  503SOL    HW2 1509   2.067   1.904   2.162  0.1697  0.5312 -1.0931
  504SOL     OW 1510   1.632   0.960   1.400 -0.3887 -0.4414  0.5224
  504SOL    HW1 1511   1.581   1.044   1.426 -1.4830  0.2663 -0.0121
  504SOL    HW2 1512   1.573   0.877   1.403 -0.1352  0.1923  2.3503
  505SOL     OW 1513   0.778   0.668   1.526 -0.6120  0.8022  0.4939
  505SOL    HW1 1514   0.875   0.648   1.516 -3.7014  0.5977 -1.6609
  505SOL    HW2 1515   0.730   0.581   1.540  3.0240  1.4400  3.6589
  506SOL     OW 1516   0.306   0.260   2.795  0.4846  0.4295 -0.2200
  506SOL    HW1 1517   0.358   0.266   2.884  0.3082  2.8291  1.6559
  506SOL    HW2 1518   0.246   0.339   2.782 -0.0215 -1.5719 -1.1111
  507SOL     OW 1519   0.168   0.154   0.445 -0.3798  0.1847  0.0148
  507SOL    HW1 1520   0.147   0.190   0.540 -1.5092  2.2303  1.2428
  507SOL    HW2 1521   0.254   0.097   0.435 -0.0686 -1.8549  0.9516
  508SOL     OW 1522   0.828   0.749   1.833  0.3616 -0.2637  0.6670
  508SOL    HW1 1523   0.880   0.837   1.846  2.1242 -0.0666  0.1549
  508SOL    HW2 1524   0.872   0.662   1.860  1.1226 -0.6716  1.4436
  509SOL     OW 1525   1.447   2.230   1.124 -0.2068  0.0625  0.0740
  509SOL    HW1 1526   1.482   2.149   1.167 -0.9526  1.9074 -2.3828
  509SOL    HW2 1527   1.368   2.208   1.066  1.5248 -0.5341  2.3175
  510SOL     OW 1528   2.588   1.322   1.879  0.0145  0.5156  1.0990
  510SOL    HW1 1529   2.609   1.347   1.781  0.8877  0.9183  1.3470
  510SOL    HW2 1530   2.563   1.405   1.935 -3.4642 -1.4801  1.9867
  511SOL     OW 1531   0.901   2.176   1.510  0.8347  0.1839  0.3176
  511SOL    HW1 1532   0.999   2.155   1.508  0.8306 -2.2484  0.2129
  511SOL    HW2 1533   0.844   2.091   1.526 -0.1623 -4.6725  1.0546
  512SOL     OW 1534   2.967   1.714   0.725 -0.8288  0.7769 -0.0985
  512SOL    HW1 1535   2.964   1.611   0.717  1.1372 -0.0639 -0.8697
  512SOL    HW2 1536   3.061   1.735   0.758 -1.3699  1.6842  1.8474
  513SOL     OW 1537   0.073   1.760   2.950  0.2896 -0.1826  0.3542
  513SOL    HW1 1538   0.156   1.822   2.963 -0.9021  2.1515 -0.5642
  513SOL    HW2 1539   0.110   1.670   2.917  0.0461 -2.5832 -1.6129
  514SOL     OW 1540   2.797   2.428   2.263 -0.2567 -0.1557 -0.5269
  514SOL    HW1 1541   2.876   2.377   2.306  1.0035 -1.0832  3.4076
  514SOL    HW2 1542   2.805   2.454   2.168  0.0757  2.4994  5.0319
  515SOL     OW 1543   2.410   1.105   0.647  0.1087  1.1141  0.1912
  515SOL    HW1 1544   2.378   1.006   0.654  0.4106 -1.3730 -0.5033
  515SOL    HW2 1545   2.449   1.141   0.735  0.6171  1.0271 -1.2004
  516SOL     OW 1546   2.452   1.757   3.001  0.4900 -0.1890  0.0575
  516SOL    HW1 1547   2.414   1.675   3.049 -0.6980  0.1108 -0.3505
  516SOL    HW2 1548   2.550   1.774   3.023  1.0604  0.8456 -0.2729
  517SOL     OW 1549   0.541   1.147   2.902 -0.7968  0.5378  0.2086
  517SOL    HW1 1550   0.589   1.196   2.826  0.5563 -0.9856 -2.1051
  517SOL    HW2 1551   0.600   1.153   2.986 -1.3920 -1.0674  1.1749
  518SOL     OW 1552   2.657   0.160   2.317 -0.1006 -0.2368  0.2126
  518SOL    HW1 1553   2.729   0.217   2.361  1.4439  0.1611  0.8478
  518SOL    HW2 1554   2.659   0.061   2.346  0.7235 -3.7472 -1.2179
  519SOL     OW 1555   1.432   1.457   2.846  0.3229  0.6082 -0.0809
  519SOL    HW1 1556   1.362   1.391   2.883 -0.8164 -0.7505 -1.9245
  519SOL    HW2 1557   1.507   1.478   2.910 -1.1806  1.8852 -0.3009
  520SOL     OW 1558   2.782   2.779   2.255 -0.1124 -0.7206 -0.5930
  520SOL    HW1 1559   2.805   2.805   2.158 -0.8324 -0.4806 -2.0193
  520SOL    HW2 1560   2.723   2.699   2.270 -0.4349  1.6377 -0.6658
  521SOL     OW 1561   0.597   1.547   2.113 -0.0037  0.1135  0.3882
  521SOL    HW1 1562   0.653   1.510   2.188 -1.1503  2.1602 -1.3415
  521SOL    HW2 1563   0.500   1.519   2.117 -1.1858  2.2002 -1.1254
  522SOL     OW 1564   1.003   2.897   2.044 -0.2568 -0.1898 -0.6850
  522SOL    HW1 1565   0.980   2.846   1.958  0.3592 -0.6747 -2.0351
  522SOL    HW2 1566   0.965   2.988   2.051 -0.8085 -3.0366  0.0994
  523SOL     OW 1567   2.756   2.217   1.433 -0.0534 -0.2057  0.2408
  523SOL    HW1 1568   2.687   2.279   1.382 -2.7939  1.8775 -1.1524
  523SOL    HW2 1569   2.704   2.167   1.507  2.4058  1.0155 -2.1298
  524SOL     OW 1570   1.643   2.533   0.518  0.4164  0.3077  0.0225
  524SOL    HW1 1571   1.606   2.462   0.585  1.9813 -2.2942  0.6509
  524SOL    HW2 1572   1.675   2.479   0.438 -0.4311 -0.6473 -1.0796
  525SOL     OW 1573   2.632   0.544   0.892 -0.0738 -0.8032  0.6375
  525SOL    HW1 1574   2.642   0.647   0.870  0.9821  4.2316 -0.4973
  525SOL    HW2 1575   2.579   0.491   0.827  2.1105  0.5041  2.9765
  526SOL     OW 1576   1.566   2.646   1.125 -0.2876 -0.0481  0.8122
  526SOL    HW1 1577   1.530   2.550   1.135  2.1276  0.3877  1.2385
  526SOL    HW2 1578   1.633   2.650   1.043 -0.8800 -0.9925 -2.1351
  527SOL     OW 1579   2.304   2.121   0.988 -0.1939 -0.0614  0.8542
  527SOL    HW1 1580   2.395   2.143   1.029 -4.0135 -0.8000  0.6286
  527SOL    HW2 1581   2.306   2.028   0.947 -1.6278 -2.7949  0.1425
  528SOL     OW 1582   2.120   3.038   2.639  0.7622 -0.9798  0.0611
  528SOL    HW1 1583   2.041   2.971   2.644 -3.9495  1.0535  1.2402
  528SOL    HW2 1584   2.211   3.001   2.664  3.2900  0.6784 -1.0751
  529SOL     OW 1585   1.494   1.562   2.141 -0.7084  0.4812 -0.4410
  529SOL    HW1 1586   1.593   1.554   2.151 -1.1338 -1.8519 -1.0794
  529SOL    HW2 1587   1.469   1.622   2.063  1.0559  3.2038 -0.6298
  530SOL     OW 1588   2.268   1.082   2.326 -0.2210 -0.2083  0.4099
  530SOL    HW1 1589   2.322   1.112   2.245 -0.4993  0.3140 -1.0870
  530SOL    HW2 1590   2.257   0.977   2.325 -0.5186  0.2572  1.4634
  531SOL     OW 1591   0.472   0.793   2.968 -0.0684 -0.0712  0.3246
  531SOL    HW1 1592   0.574   0.792   2.968  0.4371  1.6085 -0.0611
  531SOL    HW2 1593   0.439   0.860   3.038  1.0127 -0.5651  0.2648
  532SOL     OW 1594   1.527   1.619   0.542 -0.1135 -0.0630  0.6013
  532SOL    HW1 1595   1.582   1.646   0.625  2.2579  2.3819  1.3925
  532SOL    HW2 1596   1.568   1.538   0.499 -1.0400  0.2090  0.0393
  533SOL     OW 1597   0.268   0.622   1.969 -0.1412  0.0019 -0.1408
  533SOL    HW1 1598   0.357   0.616   1.923  0.4705 -1.4504  0.9144
  533SOL    HW2 1599   0.279   0.611   2.069 -1.1178 -2.8855 -0.1398
  534SOL     OW 1600   1.270   0.497   2.341 -0.6027 -0.4960  1.0397
  534SOL    HW1 1601   1.361   0.458   2.349  0.5744 -0.3217  1.6799
  534SOL    HW2 1602   1.256   0.577   2.405  0.1324  1.6378  1.0190
  535SOL     OW 1603   0.624   0.449   0.263  0.6177 -0.0398 -0.2075
  535SOL    HW1 1604   0.538   0.396   0.291  0.1372 -0.7572 -0.5673
  535SOL    HW2 1605   0.602   0.534   0.210  2.8767 -1.3666  1.2979
  536SOL     OW 1606   0.784   0.372   3.073  0.0096  0.0267 -0.2310
  536SOL    HW1 1607   0.849   0.422   0.031 -0.8779 -1.3552 -1.9776
  536SOL    HW2 1608   0.730   0.299   0.024  2.1436 -2.3654  0.8189
  537SOL     OW 1609   1.380   3.002   1.560  0.0114  0.4468 -0.1039
  537SOL    HW1 1610   1.302   3.028   1.615  1.9591 -3.5778 -0.1723
  537SOL    HW2 1611   1.459   3.059   1.596  1.4800 -0.6392 -0.1769
  538SOL     OW 1612   0.349   2.896   0.025  0.5004  0.1294  0.1684
  538SOL    HW1 1613   0.325   2.975   3.068 -2.0280 -0.3864  1.9630
  538SOL    HW2 1614   0.261   2.863   0.067 -2.5026  1.2279 -0.0851
  539SOL     OW 1615   2.747   1.129   1.949 -0.0761  0.2477 -0.1241
  539SOL    HW1 1616   2.807   1.113   1.870 -2.6660 -0.7308 -0.6704
  539SOL    HW2 1617   2.674   1.201   1.929  1.5816  0.6097 -1.7778
  540SOL     OW 1618   2.130   1.955   1.583  0.2835  0.6625  0.2096
  540SOL    HW1 1619   2.226   1.990   1.582  0.5760 -0.4382  2.0903
  540SOL    HW2 1620   2.096   1.935   1.675  1.0494 -1.0133  0.6977
  541SOL     OW 1621   0.624   2.542   1.651  0.1469 -0.3032  0.2905
  541SOL    HW1 1622   0.555   2.468   1.668 -0.2699 -1.5960  0.9742
  541SOL    HW2 1623   0.592   2.636   1.676 -1.4753 -2.0664  0.0277
  542SOL     OW 1624   2.325   0.861   1.984  0.0825  0.2093  0.0291
  542SOL    HW1 1625   2.375   0.815   1.907  0.1328  0.8507  0.3490
  542SOL    HW2 1626   2.226   0.873   1.960 -1.6390 -1.1380 -3.4537
  543SOL     OW 1627   1.115   0.439   0.773  0.4041  0.3979 -0.1243
  543SOL    HW1 1628   1.097   0.503   0.694  0.1585 -0.9054  1.3782
  543SOL    HW2 1629   1.059   0.474   0.850 -0.5950 -0.8037 -4.4563
  544SOL     OW 1630   2.206   2.191   1.212  0.2847 -0.5544  0.4055
  544SOL    HW1 1631   2.231   2.146   1.124  1.2509 -0.4726  0.2042
  544SOL    HW2 1632   2.106   2.180   1.233 -0.7297 -0.0314 -0.6516
  545SOL     OW 1633   1.530   1.265   1.231  0.0239  0.0201  0.7854
  545SOL    HW1 1634   1.523   1.230   1.136  1.9498  0.3407 -1.3406
  545SOL    HW2 1635   1.613   1.329   1.243 -0.4296  2.4682  0.9138
  546SOL     OW 1636   0.021   0.045   2.930 -0.5186  0.4123 -0.4471
  546SOL    HW1 1637   3.018   0.034   2.945  1.2764  1.6807 -3.1265
  546SOL    HW2 1638   0.060   0.129   2.974 -1.4494 -0.3488  1.6655
  547SOL     OW 1639   2.284   0.423   2.693 -0.2548  0.7738  0.5982
  547SOL    HW1 1640   2.278   0.361   2.774 -0.3090  0.5725  1.3320
  547SOL    HW2 1641   2.310   0.513   2.727 -1.8008 -3.3399 -2.2788
  548SOL     OW 1642   2.673   2.211   2.365  0.4158  0.3948 -0.4713
  548SOL    HW1 1643   2.670   2.134   2.297  0.6153  0.0791 -0.3405
  548SOL    HW2 1644   2.710   2.295   2.321 -0.0539 -0.6418  0.2710
  549SOL     OW 1645   2.403   0.219   0.719 -0.0027  0.0702 -0.6295
  549SOL    HW1 1646   2.498   0.216   0.745 -2.0117  2.3415  0.1534
  549SOL    HW2 1647   2.383   0.144   0.654  1.0546 -2.1343 -1.5385
  550SOL     OW 1648   2.579   0.970   0.082  0.1355  0.2499  0.2094
  550SOL    HW1 1649   2.661   1.001   0.032 -0.1210  1.0179 -0.7674
  550SOL    HW2 1650   2.521   1.047   0.102 -1.7446 -0.6067  0.8799
  551SOL     OW 1651   1.334   2.643   1.436 -0.1096  0.5134 -0.0184
  551SOL    HW1 1652   1.358   2.556   1.387  0.5055 -1.6209  0.5355
  551SOL    HW2 1653   1.399   2.714   1.410  2.8113  1.8026  2.0641
  552SOL     OW 1654   2.951   2.644   2.828  0.4846  0.0539 -0.4734
  552SOL    HW1 1655   3.019   2.712   2.858 -0.3097 -0.7932 -0.7915
  552SOL    HW2 1656   2.870   2.639   2.895 -0.8662 -3.6365  2.9469
  553SOL     OW 1657   0.580   3.019   0.633 -0.0515 -0.2136  0.2607
  553SOL    HW1 1658   0.570   3.043   0.730  0.8945 -1.0360 -0.8050
  553SOL    HW2 1659   0.672   2.981   0.601  2.4695  0.3325  0.3262
  554SOL     OW 1660   1.638   2.130   1.813  0.4657  0.1919 -0.0402
  554SOL    HW1 1661   1.697   2.164   1.891 -0.2326 -0.9641  1.4331
  554SOL    HW2 1662   1.649   2.189   1.729  2.2015  0.5848 -0.3432
  555SOL     OW 1663   1.368   2.569   1.998  0.0079  0.6571  0.4095
  555SOL    HW1 1664   1.281   2.576   1.938  0.7835 -3.0959 -1.7224
  555SOL    HW2 1665   1.382   2.658   2.044 -1.9656  2.8475  1.0223
  556SOL     OW 1666   1.708   1.689   0.731 -0.2642  0.3682  0.1801
  556SOL    HW1 1667   1.714   1.659   0.826  0.5556  3.0105 -2.9870
  556SOL    HW2 1668   1.801   1.703   0.691  1.5601 -0.5375 -1.1630
  557SOL     OW 1669   1.386   2.014   1.962 -0.0072 -0.6070  0.2299
  557SOL    HW1 1670   1.346   2.047   1.869  0.1417 -0.1876 -2.3846
  557SOL    HW2 1671   1.453   2.079   2.000  1.2887 -2.1756 -0.8539
  558SOL     OW 1672   3.094   0.738   2.281  0.2767 -0.2907  0.0395
  558SOL    HW1 1673   0.082   0.731   2.231 -0.3822  1.0660  0.6089
  558SOL    HW2 1674   3.076   0.834   2.299  1.5140  0.9707 -1.3420
  559SOL     OW 1675   2.215   2.644   2.089 -0.3258 -0.3479  0.0035
  559SOL    HW1 1676   2.220   2.587   2.007  0.6036  1.7708  3.0989
  559SOL    HW2 1677   2.186   2.588   2.169 -1.6684  0.5334 -0.3609
  560SOL     OW 1678   0.282   3.077   2.910  0.4758 -0.4120  0.2094
  560SOL    HW1 1679   0.313   0.072   2.886 -0.0933 -2.1169 -0.0380
  560SOL    HW2 1680   0.182   3.080   2.914  1.8583  2.4615 -1.0397
  561SOL     OW 1681   1.573   1.038   0.309  0.4545 -0.3320  0.2639
  561SOL    HW1 1682   1.498   1.024   0.239 -1.2013  0.4125  2.1079
  561SOL    HW2 1683   1.529   1.046   0.400  0.0309 -1.0626  0.6656
  562SOL     OW 1684   0.757   0.951   2.220 -0.4753  0.1374 -0.0330
  562SOL    HW1 1685   0.670   0.914   2.196  2.5069  1.9393  2.0529
  562SOL    HW2 1686   0.744   1.027   2.289  1.6219  0.1380 -2.3960
  563SOL     OW 1687   1.571   2.315   0.120 -0.4185  0.1657  0.1778
  563SOL    HW1 1688   1.532   2.221   0.100 -0.5625  0.1333  2.6705
  563SOL    HW2 1689   1.499   2.383   0.097  0.8115 -0.4021  1.7613
  564SOL     OW 1690   0.139   1.989   0.518 -0.5929  0.1694  0.0007
  564SOL    HW1 1691   0.197   2.032   0.447 -4.2907  1.4696 -1.1256
  564SOL    HW2 1692   0.049   2.037   0.526 -0.1062 -0.1504  2.2719
  565SOL     OW 1693   0.830   2.778   3.021 -0.0073 -0.4107 -0.2561
  565SOL    HW1 1694   0.736   2.807   3.004 -0.2432  0.7147 -1.3331
  565SOL    HW2 1695   0.880   2.853   3.071 -0.7438  0.2997  1.2895
  566SOL     OW 1696   2.052   2.619   2.877  0.8571 -0.2086 -0.4596
  566SOL    HW1 1697   2.077   2.523   2.891 -0.7336  1.5607 -1.9657
  566SOL    HW2 1698   1.961   2.632   2.834 -2.3152  0.5502  0.3418
  567SOL     OW 1699   2.744   1.665   0.875  0.1050  0.0849  0.7871
  567SOL    HW1 1700   2.831   1.683   0.831 -2.0601 -2.5884 -0.3232
  567SOL    HW2 1701   2.667   1.649   0.809 -0.0404  1.8938  0.0701
  568SOL     OW 1702   1.947   1.250   2.680  0.1563  0.3167  0.1477
  568SOL    HW1 1703   1.949   1.175   2.612  0.4203  0.9236  0.2650
  568SOL    HW2 1704   1.854   1.278   2.706  0.6285 -0.8538 -0.3260
  569SOL     OW 1705   2.034   1.654   2.478 -0.4098 -0.1195  0.0894
  569SOL    HW1 1706   2.107   1.696   2.420 -0.4158 -1.5913  0.1316
  569SOL    HW2 1707   1.986   1.577   2.426  0.7747 -2.0511  1.3022
  570SOL     OW 1708   2.927   2.390   1.935  0.1373 -0.7790 -0.1982
  570SOL    HW1 1709   3.006   2.407   2.006  4.5716  1.3843  0.6762
  570SOL    HW2 1710   2.951   2.423   1.841  1.4954  1.1409 -0.8274
  571SOL     OW 1711   0.367   0.165   1.882  0.0626  0.0536  0.2382
  571SOL    HW1 1712   0.333   0.254   1.848  1.0705  0.5453 -1.7764
  571SOL    HW2 1713   0.283   0.111   1.907  0.1602 -3.3690 -1.7665
  572SOL     OW 1714   1.066   1.771   0.966  1.0262 -0.0335  0.0131
  572SOL    HW1 1715   1.037   1.855   0.910 -0.2398  0.3036 -0.5929
  572SOL    HW2 1716   1.141   1.795   1.034  0.6401 -1.4813  1.4954
  573SOL     OW 1717   1.232   0.419   0.379  0.3241 -0.0590 -0.0413
  573SOL    HW1 1718   1.135   0.402   0.401  0.5292  0.4098  1.0241
  573SOL    HW2 1719   1.246   0.490   0.305  2.2541 -0.7229  1.3019
  574SOL     OW 1720   0.416   0.034   0.431  0.4617  0.0239  0.3288
  574SOL    HW1 1721   0.443   0.003   0.338 -1.8298  0.5643 -1.3036
  574SOL    HW2 1722   0.455   3.071   0.505 -0.5427 -1.4620 -2.0083
  575SOL     OW 1723   0.391   1.565   1.272  0.3643  0.2017 -0.3314
  575SOL    HW1 1724   0.386   1.623   1.187  0.3864  0.4046 -0.2986
  575SOL    HW2 1725   0.465   1.494   1.253  3.5169 -1.0020 -1.4106
  576SOL     OW 1726   2.724   0.196   2.043 -0.1229  0.0944  1.1042
  576SOL    HW1 1727   2.716   0.157   2.139 -2.1178 -2.3363  3.5276
  576SOL    HW2 1728   2.736   0.302   2.049  0.5582 -0.5025  2.0786
  577SOL     OW 1729   2.552   1.579   1.995 -0.1460  0.0924  0.0709
  577SOL    HW1 1730   2.474   1.636   2.026 -1.1906 -0.8750  2.1866
  577SOL    HW2 1731   2.635   1.613   2.025 -2.5614 -1.4563 -0.9113
  578SOL     OW 1732   0.857   0.062   2.032 -0.6413  0.5259 -0.5414
  578SOL    HW1 1733   0.935   0.106   2.084 -1.8470  2.1224  1.8609
  578SOL    HW2 1734   0.782   0.049   2.100  0.9385 -2.2107  0.0172
  579SOL     OW 1735   1.934   2.054   2.128  0.1195  0.2903 -0.4559
  579SOL    HW1 1736   1.847   2.012   2.091 -1.5078 -0.2832  1.8707
  579SOL    HW2 1737   1.944   2.143   2.081  2.2116  1.9047  1.2043
  580SOL     OW 1738   1.740   1.167   2.023  0.1297  0.0372 -0.1800
  580SOL    HW1 1739   1.750   1.128   1.929  0.1102 -1.0943 -2.4154
  580SOL    HW2 1740   1.744   1.109   2.106 -0.1634 -2.3175 -0.4365
  581SOL     OW 1741   1.437   1.337   2.487 -0.0657 -0.3897  0.8799
  581SOL    HW1 1742   1.374   1.393   2.432 -2.3940  1.4994  0.7866
  581SOL    HW2 1743   1.461   1.250   2.444 -3.3830  1.7418  0.4684
  582SOL     OW 1744   0.049   2.122   1.656  0.9888  0.2925 -0.2341
  582SOL    HW1 1745   3.076   2.078   1.709  1.4657  2.0967  0.0006
  582SOL    HW2 1746   0.124   2.062   1.626 -0.3230 -1.9513  1.9737
  583SOL     OW 1747   1.660   0.872   0.622 -0.2833  0.4775  0.0483
  583SOL    HW1 1748   1.753   0.847   0.657 -1.0996 -0.5229 -0.6969
  583SOL    HW2 1749   1.629   0.804   0.549 -0.3302  0.7087  0.3044
  584SOL     OW 1750   0.894   2.570   0.433  0.2698  0.4853 -0.2402
  584SOL    HW1 1751   0.792   2.547   0.431 -1.4300 -2.5326 -3.2043
  584SOL    HW2 1752   0.943   2.507   0.371 -0.6796  1.6181 -0.3795
  585SOL     OW 1753   0.013   2.507   0.062 -0.0627  0.6161 -0.1329
  585SOL    HW1 1754   3.041   2.447   0.019 -2.3259  0.2503  1.9035
  585SOL    HW2 1755   0.070   2.556   3.092 -3.2160  0.0711 -0.8212
  586SOL     OW 1756   2.461   1.176   0.380  0.3739  0.5183  0.4213
  586SOL    HW1 1757   2.437   1.142   0.475 -1.7557  2.4090  1.4962
  586SOL    HW2 1758   2.406   1.259   0.360  1.6397 -0.7230  1.1032
  587SOL     OW 1759   0.047   1.451   0.402 -0.1142  0.1399  0.0312
  587SOL    HW1 1760   0.082   1.536   0.444 -1.1773  0.0436 -0.0908
  587SOL    HW2 1761   0.080   1.370   0.452 -0.4489 -0.1604 -0.9102
  588SOL     OW 1762   3.063   0.537   0.678  0.0916 -0.1922 -0.2554
  588SOL    HW1 1763   0.034   0.614   0.673  0.1424 -2.0056 -0.8688
  588SOL    HW2 1764   3.070   0.476   0.597 -2.1646  2.7665 -1.4599
  589SOL     OW 1765   1.524   3.040   0.909 -0.2346  0.5597  0.2406
  589SOL    HW1 1766   1.497   2.974   0.978 -0.3543 -1.7966 -2.2028
  589SOL    HW2 1767   1.449   3.092   0.870  1.6993  0.3955  1.5183
  590SOL     OW 1768   2.517   2.118   0.293 -0.5576 -0.4356 -0.6854
  590SOL    HW1 1769   2.422   2.103   0.336 -4.5227 -0.3227  0.8200
  590SOL    HW2 1770   2.547   2.218   0.314  1.1363  0.8986  1.4958
  591SOL     OW 1771   0.406   2.520   1.903  0.4573  0.4488  0.3743
  591SOL    HW1 1772   0.484   2.493   1.958  1.8450  1.6211 -3.5120
  591SOL    HW2 1773   0.407   2.456   1.821 -2.1149 -1.7345 -0.1810
  592SOL     OW 1774   0.324   1.420   2.102  0.2265 -0.4235 -0.4230
  592SOL    HW1 1775   0.266   1.383   2.179 -0.8642 -2.0488  1.6890
  592SOL    HW2 1776   0.260   1.456   2.032  0.5211  0.6520  0.9771
  593SOL     OW 1777   1.521   1.689   1.528  0.0099 -0.5461 -0.2283
  593SOL    HW1 1778   1.419   1.696   1.517 -0.4022  0.2350 -0.1344
  593SOL    HW2 1779   1.552   1.777   1.578  1.3478  5.8898  1.6956
  594SOL     OW 1780   0.313   1.023   2.858 -0.1149 -0.2408  0.1890
  594SOL    HW1 1781   0.294   0.924   2.863 -0.2280 -0.4510  0.2461
  594SOL    HW2 1782   0.413   1.053   2.858  2.0346 -1.2932 -0.3158
  595SOL     OW 1783   1.864   0.543   0.875 -0.0754  0.4106 -0.7260
  595SOL    HW1 1784   1.911   0.574   0.960  0.5258  0.6648 -0.0528
  595SOL    HW2 1785   1.776   0.497   0.899  1.8144  4.8241 -2.0539
  596SOL     OW 1786   0.365   0.858   1.059  0.3726 -0.2077 -0.0821
  596SOL    HW1 1787   0.462   0.882   1.033  1.0758  0.8714 -0.8089
  596SOL    HW2 1788   0.317   0.941   1.094  0.0277  1.1603  0.8570
  597SOL     OW 1789   0.156   2.597   2.528  0.1454  0.0937  0.4836
  597SOL    HW1 1790   0.059   2.624   2.532  0.8286  0.3372 -2.6095
  597SOL    HW2 1791   0.207   2.642   2.605 -1.2549 -0.3715  0.8438
  598SOL     OW 1792   2.235   2.228   2.607 -0.1216  0.0649 -0.3478
  598SOL    HW1 1793   2.202   2.213   2.511 -0.2189 -1.6145 -1.7555
  598SOL    HW2 1794   2.335   2.261   2.617  1.2238 -2.2029 -1.2554
  599SOL     OW 1795   1.251   1.002   0.491 -0.0129  0.0691 -0.0387
  599SOL    HW1 1796   1.204   1.071   0.425  1.5320 -1.6535  0.8930
  599SOL    HW2 1797   1.344   1.027   0.524  0.3421 -0.8596  2.0804
  600SOL     OW 1798   1.271   0.109   0.500  0.0413 -0.6205 -0.1029
  600SOL    HW1 1799   1.251   0.186   0.441  0.5095  0.4362  0.2875
  600SOL    HW2 1800   1.372   0.107   0.528 -0.2926  0.6299 -2.6599
  601SOL     OW 1801   0.663   0.436   1.592  0.3491  0.5108 -0.1279
  601SOL    HW1 1802   0.654   0.415   1.692 -0.5467  2.3305  1.3239
  601SOL    HW2 1803   0.603   0.369   1.539 -1.0255 -0.2454 -1.0506
  602SOL     OW 1804   0.245   2.700   0.674 -0.1114  0.7614  0.2694
  602SOL    HW1 1805   0.271   2.698   0.577 -0.9936  1.1407  1.7866
  602SOL    HW2 1806   0.148   2.679   0.675  1.8992  0.8420 -0.5743
  603SOL     OW 1807   1.005   2.912   2.320  0.6449 -1.0784  0.6786
  603SOL    HW1 1808   0.981   3.005   2.358 -1.0367  2.7947 -1.4100
  603SOL    HW2 1809   0.985   2.907   2.219 -1.5106 -0.9609 -0.2330
  604SOL     OW 1810   1.092   2.508   0.206 -0.7371 -0.6647  0.1755
  604SOL    HW1 1811   1.185   2.511   0.247  3.5705 -1.2256  1.1479
  604SOL    HW2 1812   1.056   2.603   0.182 -2.6686 -0.2968 -0.4238
  605SOL     OW 1813   1.754   1.077   1.725 -0.6164  0.2398  0.0629
  605SOL    HW1 1814   1.680   1.084   1.655 -1.1989  1.8175 -3.0883
  605SOL    HW2 1815   1.839   1.103   1.673  3.0589  1.5691  0.5363
  606SOL     OW 1816   0.900   0.990   2.604 -0.1462 -0.0418 -0.5924
  606SOL    HW1 1817   0.914   0.897   2.559 -1.2377 -0.6861  0.7066
  606SOL    HW2 1818   0.931   1.064   2.541  2.4548  0.1290 -0.2505
  607SOL     OW 1819   0.570   1.071   1.197 -0.0492  0.0118 -0.0857
  607SOL    HW1 1820   0.530   1.030   1.281 -1.8234  1.3968  1.3890
  607SOL    HW2 1821   0.644   1.017   1.158 -0.3141  3.2009 -0.2796
  608SOL     OW 1822   2.495   2.005   2.321 -0.5185 -0.5573  0.0360
  608SOL    HW1 1823   2.429   2.073   2.361  2.2816 -0.5260 -0.2446
  608SOL    HW2 1824   2.494   2.013   2.219 -3.9385  0.3446  1.4217
  609SOL     OW 1825   2.028   0.145   3.038 -0.0040  0.0529  0.0799
  609SOL    HW1 1826   2.007   0.191   0.028  0.9992 -3.0573  1.0827
  609SOL    HW2 1827   2.092   0.070   3.059 -1.8455  0.5533 -0.4026
  610SOL     OW 1828   0.315   2.815   1.573  0.0706  1.3046  0.5751
  610SOL    HW1 1829   0.372   2.792   1.655  1.3848 -0.5142 -1.9603
  610SOL    HW2 1830   0.359   2.890   1.528 -1.0022 -1.3927  2.0930
  611SOL     OW 1831   1.362   1.490   1.242 -1.0590  0.2977  0.1041
  611SOL    HW1 1832   1.262   1.478   1.247  0.0042  0.5567 -0.9647
  611SOL    HW2 1833   1.404   1.397   1.234  1.8435  2.1744 -1.7678
  612SOL     OW 1834   0.732   0.043   2.280 -0.8213 -0.0950 -0.2103
  612SOL    HW1 1835   0.744   0.145   2.285  2.4086 -0.3684 -1.3563
  612SOL    HW2 1836   0.785   0.005   2.355 -2.2472 -0.2028 -2.7820
  613SOL     OW 1837   2.890   1.524   0.378  0.3639 -0.0947 -0.0481
  613SOL    HW1 1838   2.846   1.463   0.442  1.3432 -1.5047  0.7443
  613SOL    HW2 1839   2.992   1.517   0.388  1.2460 -2.8928  0.6707
  614SOL     OW 1840   1.782   0.115   1.778 -0.1106  0.3348 -0.4541
  614SOL    HW1 1841   1.807   0.052   1.704 -3.3955  1.1338  0.0519
  614SOL    HW2 1842   1.842   0.197   1.774 -2.6949 -2.1447  0.1529
  615SOL     OW 1843   0.984   1.664   1.378  0.1282  0.2598  0.0145
  615SOL    HW1 1844   1.049   1.588   1.372 -0.3245  0.1287  1.4442
  615SOL    HW2 1845   1.028   1.758   1.370 -2.1997  1.3103  3.7333
  616SOL     OW 1846   1.540   1.755   0.002  0.1114 -0.3317  0.1597
  616SOL    HW1 1847   1.550   1.659   3.069 -1.9274 -1.9130  1.3109
  616SOL    HW2 1848   1.560   1.763   0.105  0.1015 -0.9787  2.5547
  617SOL     OW 1849   1.962   2.830   0.105 -0.2384 -0.5530 -0.5695
  617SOL    HW1 1850   1.935   2.900   0.038  1.2715 -1.5495 -0.5311
  617SOL    HW2 1851   1.884   2.778   0.142  0.4002  0.8567 -2.1179
  618SOL     OW 1852   0.935   0.687   2.753 -0.0191 -0.1359  0.5739
  618SOL    HW1 1853   0.895   0.678   2.848  1.0611  0.3594  1.6063
  618SOL    HW2 1854   0.871   0.745   2.698  0.1064 -1.8852 -1.7984
  619SOL     OW 1855   2.727   1.368   0.573  0.2635  0.4982  0.3067
  619SOL    HW1 1856   2.717   1.281   0.515  0.3757  0.9356 -1.3249
  619SOL    HW2 1857   2.641   1.418   0.580  0.0644  0.9253  1.3152
  620SOL     OW 1858   2.501   2.543   2.956 -0.4826 -0.2314 -0.1965
  620SOL    HW1 1859   2.411   2.593   2.941 -3.9990  1.4583 -1.4648
  620SOL    HW2 1860   2.478   2.444   2.951 -0.8191  3.1102  1.7175
  621SOL     OW 1861   2.426   1.235   0.081 -0.5636 -0.3988  0.1274
  621SOL    HW1 1862   2.377   1.221   0.172  0.5440 -1.2781 -2.0359
  621SOL    HW2 1863   2.361   1.231   0.005 -1.0242  0.4465  1.2540
  622SOL     OW 1864   1.341   2.392   2.397 -0.4367 -0.1946 -0.1960
  622SOL    HW1 1865   1.396   2.390   2.313 -0.4679  2.7539 -0.1686
  622SOL    HW2 1866   1.399   2.394   2.484  4.9615  2.4109  1.2236
  623SOL     OW 1867   1.029   1.632   0.249  0.0954  0.2184 -0.0904
  623SOL    HW1 1868   0.953   1.568   0.225 -2.8397 -2.0792  1.1028
  623SOL    HW2 1869   1.040   1.699   0.174 -0.1131 -1.5234 -0.2715
  624SOL     OW 1870   0.437   0.192   3.038 -0.3843  0.0318  0.1185
  624SOL    HW1 1871   0.366   0.229   0.000 -0.1929 -0.3447  0.8102
  624SOL    HW2 1872   0.521   0.156   3.080 -3.6745  2.7873 -0.8772
  625SOL     OW 1873   0.974   2.003   0.800 -0.1861 -0.6811  0.1578
  625SOL    HW1 1874   1.005   2.012   0.701  0.2491  0.5527 -2.6424
  625SOL    HW2 1875   0.944   2.094   0.838  0.0895  3.6318  1.1919
  626SOL     OW 1876   2.813   3.022   2.704 -0.8383 -0.3497  0.2354
  626SOL    HW1 1877   2.713   3.031   2.689  1.5393 -0.2472  0.6724
  626SOL    HW2 1878   2.831   2.994   2.802 -0.4520 -0.7805 -0.7410
  627SOL     OW 1879   1.498   1.568   2.606  0.0903 -0.1241  0.2787
  627SOL    HW1 1880   1.482   1.546   2.706  1.3441 -0.9315  1.3787
  627SOL    HW2 1881   1.465   1.486   2.553 -0.4853  0.1788  1.0222
  628SOL     OW 1882   0.276   0.616   2.242  0.2028  0.2250 -0.1807
  628SOL    HW1 1883   0.227   0.533   2.278  1.2613 -1.8972  0.5681
  628SOL    HW2 1884   0.348   0.642   2.314  1.0118 -1.7480  0.4725
  629SOL     OW 1885   0.018   2.722   2.014 -0.0330  0.0357 -0.0906
  629SOL    HW1 1886   0.034   2.817   2.046  1.9705  1.8540  0.1103
  629SOL    HW2 1887   0.013   2.667   2.098 -1.7373 -0.1291 -0.3806
  630SOL     OW 1888   1.661   0.836   1.832 -0.0991 -0.0219  0.0537
  630SOL    HW1 1889   1.563   0.856   1.797 -0.7670  0.6281 -0.4883
  630SOL    HW2 1890   1.723   0.907   1.791 -0.3955 -0.7526  1.3526
  631SOL     OW 1891   2.284   1.010   0.235 -0.1159 -0.2971 -0.2806
  631SOL    HW1 1892   2.336   0.925   0.214 -1.3057 -3.6401  0.9328
  631SOL    HW2 1893   2.322   1.056   0.317  0.7078  2.4535  1.5897
  632SOL     OW 1894   2.028   0.349   1.996 -0.4754  0.3822  0.0299
  632SOL    HW1 1895   2.086   0.410   2.053 -2.0191 -0.7755 -2.2283
  632SOL    HW2 1896   2.086   0.284   1.941  1.4436 -0.1141 -3.8043
  633SOL     OW 1897   0.679   2.734   0.195 -0.0188 -0.4648  0.6713
  633SOL    HW1 1898   0.707   2.670   0.118 -0.4087  1.0000  0.1580
  633SOL    HW2 1899   0.650   2.686   0.283 -2.5159 -0.7949  1.5142
  634SOL     OW 1900   1.157   2.559   2.661  0.0997  0.0941  0.6227
  634SOL    HW1 1901   1.248   2.561   2.704 -1.8973  0.2355 -0.2871
  634SOL    HW2 1902   1.154   2.470   2.614 -0.2121 -3.0389 -3.6432
  635SOL     OW 1903   2.489   0.140   2.946 -0.5607  0.1559  0.6783
  635SOL    HW1 1904   2.554   0.200   2.987 -3.0588 -1.0275 -2.0676
  635SOL    HW2 1905   2.410   0.199   2.924  2.8522  1.2626  0.3557
  636SOL     OW 1906   0.794   1.172   0.599  0.0651 -0.2125  0.3974
  636SOL    HW1 1907   0.736   1.200   0.676 -0.2345 -1.7707 -3.8963
  636SOL    HW2 1908   0.769   1.075   0.576 -1.4869  0.0195 -1.5642
  637SOL     OW 1909   0.306   2.344   0.629 -0.7490  0.1475  0.3165
  637SOL    HW1 1910   0.323   2.276   0.705  0.5752 -0.9177 -0.1169
  637SOL    HW2 1911   0.396   2.365   0.583 -0.7092 -1.4766 -0.5919
  638SOL     OW 1912   0.544   2.993   0.200  0.2715 -0.4587  0.0326
  638SOL    HW1 1913   0.590   2.903   0.213 -0.5806  0.8643 -0.8120
  638SOL    HW2 1914   0.472   3.000   0.128  0.0637  2.1917 -0.4873
  639SOL     OW 1915   1.351   1.635   0.331  0.4869 -0.1765 -0.1073
  639SOL    HW1 1916   1.410   1.646   0.414 -1.1768  1.0848 -0.0419
  639SOL    HW2 1917   1.260   1.678   0.357 -2.0431 -1.9439 -1.1265
  640SOL     OW 1918   1.763   2.669   0.931  0.2690 -0.0318  0.0690
  640SOL    HW1 1919   1.760   2.681   0.828  1.8993 -0.5020  1.0481
  640SOL    HW2 1920   1.813   2.744   0.975 -3.5960 -0.2727 -0.8426
  641SOL     OW 1921   3.081   2.613   0.635 -0.2598 -0.2684 -0.0368
  641SOL    HW1 1922   3.075   2.522   0.687 -0.3694 -3.3260  0.7004
  641SOL    HW2 1923   3.010   2.629   0.565  1.7644 -0.1335  0.1349
  642SOL     OW 1924   0.938   0.296   1.661 -0.1415  0.0919  0.1427
  642SOL    HW1 1925   0.964   0.209   1.701  0.8363  1.6524 -2.0705
  642SOL    HW2 1926   0.898   0.289   1.568  0.4977  0.3787 -2.1051
  643SOL     OW 1927   0.738   1.879   2.217 -0.0674 -0.1145 -0.5086
  643SOL    HW1 1928   0.675   1.872   2.135 -0.0480  0.8556 -1.2405
  643SOL    HW2 1929   0.787   1.970   2.237 -1.0913 -0.1403 -1.8528
  644SOL     OW 1930   0.823   2.968   0.515  0.1213 -0.4190 -0.4028
  644SOL    HW1 1931   0.829   2.868   0.495 -0.2228 -0.3621 -2.5182
  644SOL    HW2 1932   0.908   3.007   0.546 -0.2464  2.0489  1.1716
  645SOL     OW 1933   1.022   1.535   2.759 -0.6728 -0.6646 -0.9369
  645SOL    HW1 1934   0.962   1.593   2.701  3.2866  0.2412 -1.1045
  645SOL    HW2 1935   1.075   1.582   2.833 -0.4466 -1.9211 -0.6963
  646SOL     OW 1936   0.447   1.449   0.013 -0.1733  0.1820 -0.1368
  646SOL    HW1 1937   0.420   1.538   0.052 -1.3386 -2.2670 -0.6779
  646SOL    HW2 1938   0.442   1.382   0.091  0.3992 -0.5881 -2.5832
  647SOL     OW 1939   1.134   3.073   1.024  0.1803  0.1235  0.2151
  647SOL    HW1 1940   1.195   0.035   1.080 -0.9133  0.6682 -2.4159
  647SOL    HW2 1941   1.133   2.974   1.055 -3.8343 -2.2351  0.7073
  648SOL     OW 1942   2.738   2.873   1.991 -0.5302  0.0313  0.7960
  648SOL    HW1 1943   2.645   2.919   1.986 -1.0876 -0.8468 -1.6375
  648SOL    HW2 1944   2.811   2.943   2.003  1.5365 -0.8339 -2.5658
  649SOL     OW 1945   0.709   2.433   2.890 -0.2008 -0.0098  0.2232
  649SOL    HW1 1946   0.733   2.401   2.985  1.3167 -0.7690 -0.4874
  649SOL    HW2 1947   0.651   2.371   2.836 -1.3940  0.7274 -2.0643
  650SOL     OW 1948   0.239   1.930   1.556 -0.3641  0.5204 -0.0078
  650SOL    HW1 1949   0.288   1.840   1.555  1.3600 -2.1683  0.0057
  650SOL    HW2 1950   0.224   1.972   1.460 -1.9291  0.5862 -6.2474
  651SOL     OW 1951   0.661   0.173   0.137  0.5082 -0.2330 -0.2019
  651SOL    HW1 1952   0.691   0.235   0.210 -0.5372  0.8635 -0.5236
  651SOL    HW2 1953   0.623   0.088   0.181 -2.5064 -0.8472  0.0179
  652SOL     OW 1954   2.679   1.914   0.241 -0.7111  0.6113  0.0248
  652SOL    HW1 1955   2.657   1.862   0.160  1.3425 -1.2530  1.0368
  652SOL    HW2 1956   2.610   1.988   0.261 -0.0328 -0.6711 -2.0885
  653SOL     OW 1957   2.968   0.260   0.793 -0.1777  0.5680  0.0878
  653SOL    HW1 1958   2.960   0.359   0.808  0.3711 -0.7618  0.8333
  653SOL    HW2 1959   2.985   0.207   0.879  1.2654 -0.2728 -0.1637
  654SOL     OW 1960   1.623   0.200   2.500 -0.0881  0.0788  0.3935
  654SOL    HW1 1961   1.611   0.212   2.601 -1.9846 -0.4730 -0.8363
  654SOL    HW2 1962   1.601   0.104   2.473 -2.2788 -0.9443  2.0173
  655SOL     OW 1963   0.855   2.432   1.451 -0.5304  0.1881  0.0068
  655SOL    HW1 1964   0.889   2.342   1.483 -0.3753 -1.3842 -3.0039
  655SOL    HW2 1965   0.760   2.429   1.413  2.5247  0.7674  1.3708
  656SOL     OW 1966   0.281   0.384   1.722  0.2953  0.1127  0.7080
  656SOL    HW1 1967   0.334   0.449   1.664 -1.4828  0.9500  0.6467
  656SOL    HW2 1968   0.215   0.433   1.773  2.2380 -1.8068 -1.4551
  657SOL     OW 1969   2.067   0.858   1.908 -0.2527 -0.6359 -0.4796
  657SOL    HW1 1970   1.999   0.868   1.979 -1.3240  1.2521 -0.2807
  657SOL    HW2 1971   2.043   0.788   1.836  1.2002 -3.0028  0.0083
  658SOL     OW 1972   2.350   1.707   1.091  0.6654  0.2589  0.2833
  658SOL    HW1 1973   2.335   1.754   1.175  0.0283 -1.6200 -3.5901
  658SOL    HW2 1974   2.276   1.641   1.068 -1.0341  0.1808 -1.5456
  659SOL     OW 1975   2.575   2.822   3.056 -0.1859 -0.0751  0.1078
  659SOL    HW1 1976   2.669   2.840   0.000  2.3224 -1.7515 -0.6641
  659SOL    HW2 1977   2.579   2.743   2.992 -2.3598  1.2537 -0.4496
  660SOL     OW 1978   1.011   1.272   2.689 -0.1817  0.3954 -0.6422
  660SOL    HW1 1979   1.030   1.362   2.733  0.3643 -1.9025 -0.1292
  660SOL    HW2 1980   1.013   1.194   2.759  1.1200 -1.2012  1.9362
  661SOL     OW 1981   2.462   2.442   0.940 -0.4955 -0.0935  0.7895
  661SOL    HW1 1982   2.534   2.435   1.011 -1.2417  2.3746 -0.2810
  661SOL    HW2 1983   2.372   2.416   0.979 -2.9219 -2.7735  0.5814
  662SOL     OW 1984   0.661   0.748   0.239 -0.0091 -0.1133 -0.3470
  662SOL    HW1 1985   0.708   0.692   0.311  1.0221  2.4259 -0.8284
  662SOL    HW2 1986   0.558   0.750   0.249 -1.1448 -0.7987 -0.8408
  663SOL     OW 1987   1.063   2.094   0.083 -0.3749  0.4167 -0.2212
  663SOL    HW1 1988   1.133   2.098   0.156  3.7674  0.5839 -0.6263
  663SOL    HW2 1989   1.047   2.186   0.053  2.6989 -1.9483  0.6473
  664SOL     OW 1990   0.524   2.945   1.455  0.1328 -0.4113 -0.2951
  664SOL    HW1 1991   0.611   2.930   1.404  1.2985 -0.1421  0.3091
  664SOL    HW2 1992   0.552   3.009   1.526  0.5409 -1.3376 -1.5492
  665SOL     OW 1993   1.834   1.754   1.884 -0.1220  0.1365 -0.7206
  665SOL    HW1 1994   1.731   1.755   1.885 -2.1855 -1.3685 -0.8133
  665SOL    HW2 1995   1.857   1.675   1.820 -0.0212 -1.2232 -1.5466
  666SOL     OW 1996   0.371   2.595   0.236  0.0253  0.7117 -0.1835
  666SOL    HW1 1997   0.299   2.622   0.305 -0.2599  0.2896 -0.4040
  666SOL    HW2 1998   0.465   2.601   0.276 -0.3867  0.6862  1.0519
  667SOL     OW 1999   1.727   1.700   1.336 -0.1330  0.0658  0.4994
  667SOL    HW1 2000   1.816   1.748   1.360  0.4101 -1.8188 -0.2093
  667SOL    HW2 2001   1.667   1.709   1.420 -1.8432  2.3781  1.8987
  668SOL     OW 2002   0.527   0.541   2.334  0.1761 -0.2324  0.5294
  668SOL    HW1 2003   0.512   0.464   2.400 -1.9342 -0.7913  0.1490
  668SOL    HW2 2004   0.617   0.551   2.291 -1.5570 -0.1841  0.5295
  669SOL     OW 2005   1.882   2.311   2.424 -0.2351 -0.5586  0.2326
  669SOL    HW1 2006   1.946   2.232   2.418 -4.1962  2.2248 -1.6767
  669SOL    HW2 2007   1.801   2.278   2.474 -0.7839 -0.6323 -1.0247
  670SOL     OW 2008   2.269   2.179   0.431 -0.1226 -0.0537  0.7298
  670SOL    HW1 2009   2.185   2.116   0.410 -1.1508  0.8216  0.0482
  670SOL    HW2 2010   2.240   2.256   0.496  1.1182 -0.1207  2.2725
  671SOL     OW 2011   0.599   1.360   1.207 -0.0172  0.6621 -0.0374
  671SOL    HW1 2012   0.672   1.370   1.138 -0.8716 -0.7999 -0.8202
  671SOL    HW2 2013   0.567   1.258   1.213 -0.2231 -2.2807 -1.5933
  672SOL     OW 2014   2.705   1.160   2.408  0.7455  0.1516 -0.3138
  672SOL    HW1 2015   2.700   1.104   2.327  0.7748  1.2740  0.2607
  672SOL    HW2 2016   2.713   1.113   2.501  1.7312 -1.1284  2.6412
  673SOL     OW 2017   0.042   1.880   2.399 -0.4427 -0.6933 -0.3219
  673SOL    HW1 2018   0.070   1.951   2.468  1.2497 -0.4886 -1.6896
  673SOL    HW2 2019   0.066   1.785   2.437 -0.8199 -1.9327  0.7078
  674SOL     OW 2020   0.776   2.662   2.081 -0.4919  0.5257 -0.0133
  674SOL    HW1 2021   0.840   2.630   2.156  2.3867 -3.0477 -3.7269
  674SOL    HW2 2022   0.737   2.753   2.099  1.3332  0.4130  0.1257
  675SOL     OW 2023   0.649   0.764   1.300  0.3166  0.4016  0.5352
  675SOL    HW1 2024   0.697   0.742   1.392  2.1865 -0.1424 -2.5210
  675SOL    HW2 2025   0.553   0.792   1.322 -1.9541  0.7444  2.9739
  676SOL     OW 2026   1.817   0.907   0.313  0.2779  0.1478 -0.0405
  676SOL    HW1 2027   1.734   0.965   0.323  0.4390 -2.0809  0.3142
  676SOL    HW2 2028   1.822   0.841   0.391 -0.3022  1.4026  1.0074
  677SOL     OW 2029   2.888   1.780   2.919 -0.1095 -0.4836 -0.0695
  677SOL    HW1 2030   2.868   1.770   2.820  1.8380 -2.2034 -3.5860
  677SOL    HW2 2031   2.987   1.771   2.938 -1.9106  1.9418 -1.2675
  678SOL     OW 2032   3.044   2.366   1.147  0.0093  0.0947  0.2372
  678SOL    HW1 2033   3.048   2.295   1.224 -2.1064  2.1607 -0.5494
  678SOL    HW2 2034   3.017   2.459   1.176  3.5168  0.3376 -0.8517
  679SOL     OW 2035   1.900   2.966   0.590 -0.1825 -0.2320 -0.6607
  679SOL    HW1 2036   1.922   3.052   0.537  1.2802 -2.0219 -0.9299
  679SOL    HW2 2037   1.981   2.910   0.613 -2.0045  0.1769 -0.6224
  680SOL     OW 2038   0.016   2.401   2.148 -1.0868 -0.4742  0.1899
  680SOL    HW1 2039   3.094   2.322   2.209  1.8270 -0.1905 -0.4465
  680SOL    HW2 2040   3.089   2.486   2.198 -0.6427 -1.5254 -0.6908
  681SOL     OW 2041   0.086   1.375   1.447  0.1141  0.2390 -0.6950
  681SOL    HW1 2042   0.135   1.350   1.361  1.9690 -2.1482 -1.6283
  681SOL    HW2 2043   0.108   1.313   1.523 -0.8539  0.3127 -3.5623
  682SOL     OW 2044   0.606   1.690   1.397 -0.1447 -0.1254  0.9701
  682SOL    HW1 2045   0.662   1.697   1.312 -0.7368 -0.0002 -0.9349
  682SOL    HW2 2046   0.525   1.635   1.377  1.4347  2.0943 -2.4845
  683SOL     OW 2047   2.833   1.762   1.531  0.1534  0.5522 -0.4562
  683SOL    HW1 2048   2.869   1.679   1.483  2.3074  0.7162  1.8741
  683SOL    HW2 2049   2.757   1.742   1.593  1.5192 -0.3023 -1.1196
  684SOL     OW 2050   3.085   1.442   3.076 -0.5526  0.0675 -0.0977
  684SOL    HW1 2051   0.003   1.374   0.052 -0.4010  1.2098  1.7038
  684SOL    HW2 2052   0.075   1.455   3.021  0.2563  1.0799 -1.9253
  685SOL     OW 2053   0.957   0.959   0.335  0.2071  0.1467  0.1495
  685SOL    HW1 2054   0.988   0.977   0.237 -3.4105  2.9684  0.2156
  685SOL    HW2 2055   1.008   0.878   0.367 -3.4483 -0.0061 -3.0218
  686SOL     OW 2056   3.025   0.083   1.001 -0.1354 -0.5245  0.0492
  686SOL    HW1 2057   3.023   0.099   1.103 -3.3918  1.8002  1.0132
  686SOL    HW2 2058   0.021   0.057   0.968  1.2544 -0.7049 -0.2222
  687SOL     OW 2059   1.156   1.282   2.251 -0.6504  0.7457 -0.2294
  687SOL    HW1 2060   1.078   1.239   2.309 -1.1702 -0.9857 -2.2712
  687SOL    HW2 2061   1.177   1.377   2.284  0.3824 -0.1970  0.7112
  688SOL     OW 2062   0.844   1.921   1.636 -0.4322 -0.4707  0.3013
  688SOL    HW1 2063   0.787   1.932   1.552  1.2900  2.5169  1.3009
  688SOL    HW2 2064   0.810   1.844   1.692  2.4082  2.8044 -1.5453
  689SOL     OW 2065   1.947   0.656   1.110 -0.5102 -0.1306  0.0045
  689SOL    HW1 2066   1.880   0.643   1.182 -2.4909 -0.9973 -1.1334
  689SOL    HW2 2067   1.967   0.754   1.085  1.8165 -0.4961 -1.2454
  690SOL     OW 2068   2.939   1.094   0.935 -0.3291  0.4668 -0.2694
  690SOL    HW1 2069   2.944   1.194   0.945 -2.3836  0.5652 -1.6124
  690SOL    HW2 2070   3.006   1.044   0.994  0.3931  2.0373 -1.4690
  691SOL     OW 2071   0.199   2.340   1.452  0.8010 -0.3621 -0.5528
  691SOL    HW1 2072   0.107   2.321   1.493 -0.1541 -0.1838  1.3201
  691SOL    HW2 2073   0.214   2.435   1.429  1.6190 -3.2031  0.5827
  692SOL     OW 2074   1.704   2.972   1.255 -0.1298 -0.3548 -0.6936
  692SOL    HW1 2075   1.778   2.944   1.189  0.9072  3.2252  1.4807
  692SOL    HW2 2076   1.660   2.896   1.310  0.7322  0.4676 -0.5707
  693SOL     OW 2077   0.373   1.560   2.426  0.5256  0.3114 -0.7273
  693SOL    HW1 2078   0.272   1.581   2.422  1.8611  2.8737  1.1473
  693SOL    HW2 2079   0.420   1.612   2.354 -0.8849  1.1748  1.5553
  694SOL     OW 2080   1.996   0.905   1.012  0.0262 -0.1324 -0.1743
  694SOL    HW1 2081   2.095   0.920   1.009 -0.1574  0.9820  2.2874
  694SOL    HW2 2082   1.952   0.986   1.053 -2.6404  1.2886 -0.1194
  695SOL     OW 2083   0.955   1.088   1.486 -0.0514 -0.0872  0.3839
  695SOL    HW1 2084   0.860   1.113   1.450 -4.5082 -2.3847 -0.1818
  695SOL    HW2 2085   1.018   1.167   1.484 -0.8420  1.4754 -1.4908
  696SOL     OW 2086   1.783   3.005   0.826 -0.3504  0.0685 -0.2898
  696SOL    HW1 2087   1.827   2.996   0.735  2.4589  1.3117  2.2571
  696SOL    HW2 2088   1.684   3.022   0.831 -0.8381 -2.6149 -0.3161
  697SOL     OW 2089   0.875   0.078   0.955  0.3382 -0.2095  0.2611
  697SOL    HW1 2090   0.954   0.015   0.932  3.1614 -1.9171 -0.4731
  697SOL    HW2 2091   0.831   0.051   1.045 -0.1568 -2.2762  1.0278
  698SOL     OW 2092   1.503   1.299   2.086 -0.0053  0.4516  0.5483
  698SOL    HW1 2093   1.595   1.282   2.047  0.6352 -1.5549 -1.5376
  698SOL    HW2 2094   1.493   1.398   2.112  0.1447  0.3218 -0.6252
  699SOL     OW 2095   1.509   0.764   0.839  0.2477  0.3799 -0.0236
  699SOL    HW1 2096   1.569   0.812   0.774  0.1448 -2.8144 -0.5720
  699SOL    HW2 2097   1.409   0.773   0.820  2.0474  0.4268 -0.8439
  700SOL     OW 2098   1.359   2.496   0.345 -0.3866  0.2554 -0.2648
  700SOL    HW1 2099   1.436   2.563   0.366  5.0272  1.2028  0.7423
  700SOL    HW2 2100   1.345   2.432   0.426  3.4759  1.6969 -0.4334
  701SOL     OW 2101   2.136   2.365   2.929  0.0334 -0.0586 -0.6161
  701SOL    HW1 2102   2.085   2.308   2.996  0.0495  2.5447 -1.9239
  701SOL    HW2 2103   2.227   2.326   2.914 -1.2818 -2.0961 -0.6147
  702SOL     OW 2104   0.983   0.209   0.729  0.3781 -0.0351 -0.3035
  702SOL    HW1 2105   1.041   0.290   0.744  3.1918 -0.9908  2.6595
  702SOL    HW2 2106   0.908   0.205   0.798 -1.4322  0.0246  1.6119
  703SOL     OW 2107   2.053   0.400   2.292  0.1443  0.0290 -0.6043
  703SOL    HW1 2108   2.059   0.400   2.395  0.4807 -0.4297 -0.7669
  703SOL    HW2 2109   1.995   0.481   2.276  2.6439 -0.5910 -0.1096
  704SOL     OW 2110   0.029   2.349   0.683  0.1361 -0.1154  0.2371
  704SOL    HW1 2111   3.057   2.325   0.614  1.2020 -0.8385  1.1771
  704SOL    HW2 2112   0.123   2.354   0.643 -1.0813  1.8828 -0.2757
  705SOL     OW 2113   2.756   2.592   2.031 -0.1569 -0.6167 -0.2027
  705SOL    HW1 2114   2.824   2.542   1.972  1.1725  1.1313  0.2254
  705SOL    HW2 2115   2.750   2.687   1.991  0.4407  4.3638 -1.7834
  706SOL     OW 2116   2.350   2.673   0.886 -0.1857  0.1871 -0.0535
  706SOL    HW1 2117   2.361   2.573   0.907  0.2255 -0.3730  1.4515
  706SOL    HW2 2118   2.425   2.734   0.928  0.4826  1.1467  1.0504
  707SOL     OW 2119   0.614   2.438   2.044 -0.2783 -0.6179  0.0714
  707SOL    HW1 2120   0.659   2.342   2.032 -0.2698 -1.9150  0.3350
  707SOL    HW2 2121   0.682   2.513   2.041 -0.0128  1.3790  2.4841
  708SOL     OW 2122   2.999   2.280   2.355  0.0222 -0.1097 -0.2122
  708SOL    HW1 2123   3.049   2.292   2.442 -1.4452  0.5822  1.5751
  708SOL    HW2 2124   3.005   2.182   2.326  1.7560 -1.5911 -0.2483
  709SOL     OW 2125   2.064   2.891   2.046  0.6441  0.8485 -0.3520
  709SOL    HW1 2126   2.118   2.808   2.071  2.1641  0.9218  1.8621
  709SOL    HW2 2127   2.036   2.952   2.121 -1.2968 -1.0503 -0.1753
  710SOL     OW 2128   1.548   0.836   2.270 -0.2855  0.1719  0.4457
  710SOL    HW1 2129   1.566   0.779   2.350  0.7686  1.0022 -1.2633
  710SOL    HW2 2130   1.566   0.781   2.187 -0.3548 -0.2550  0.4801
  711SOL     OW 2131   0.726   1.792   0.060 -0.2704  0.4257  0.0948
  711SOL    HW1 2132   0.823   1.807   0.101  2.9580 -0.2880  1.3745
  711SOL    HW2 2133   0.728   1.770   3.054 -1.8435 -0.8455  0.9054
  712SOL     OW 2134   0.583   2.548   2.492  0.6887 -0.3640  0.3069
  712SOL    HW1 2135   0.580   2.608   2.410 -0.2032  1.0949  2.1778
  712SOL    HW2 2136   0.610   2.450   2.467 -1.1610 -1.0090 -2.6376
  713SOL     OW 2137   1.619   1.488   3.034  0.0023  0.4651 -0.6248
  713SOL    HW1 2138   1.706   1.469   2.984 -0.4841  1.5855  0.5865
  713SOL    HW2 2139   1.641   1.505   0.036 -0.7756 -2.1923  2.5760
  714SOL     OW 2140   1.218   1.467   1.872 -0.5655 -0.0790 -0.2887
  714SOL    HW1 2141   1.312   1.500   1.848 -1.3774  1.3248 -2.3443
  714SOL    HW2 2142   1.225   1.381   1.937 -1.5007 -0.0878  2.5123
  715SOL     OW 2143   1.850   0.590   2.624  0.3134  0.7419 -0.4724
  715SOL    HW1 2144   1.846   0.577   2.728 -0.2316 -3.2915 -0.1010
  715SOL    HW2 2145   1.925   0.533   2.584  2.6813  1.8871  0.7255
  716SOL     OW 2146   2.776   2.149   1.959 -0.2215 -0.6197  1.0873
  716SOL    HW1 2147   2.803   2.247   1.939 -2.9197  1.6471  1.4516
  716SOL    HW2 2148   2.858   2.082   1.969  3.2299 -0.3899 -1.2373
  717SOL     OW 2149   2.685   1.075   0.863 -0.3940  0.3352 -0.2263
  717SOL    HW1 2150   2.789   1.080   0.883  2.9360  2.7486 -3.0792
  717SOL    HW2 2151   2.653   0.977   0.868  2.7039 -3.0673  0.7587
  718SOL     OW 2152   0.911   1.628   2.182  0.2263 -0.2872 -0.3681
  718SOL    HW1 2153   0.835   1.699   2.168 -1.4860  3.5289 -1.8442
  718SOL    HW2 2154   0.984   1.627   2.112  1.9263 -3.2737  1.1870
  719SOL     OW 2155   1.811   1.009   2.931 -0.4521  0.0268 -0.2075
  719SOL    HW1 2156   1.837   0.950   2.851  0.8719  0.0930  2.0958
  719SOL    HW2 2157   1.869   1.090   2.943 -0.9573  1.5723  0.3039
  720SOL     OW 2158   0.726   0.497   0.653 -0.5585 -0.5061  0.0650
  720SOL    HW1 2159   0.716   0.550   0.739  3.4492  2.6399 -0.2685
  720SOL    HW2 2160   0.702   0.404   0.677 -0.4707  1.2233 -1.6038
  721SOL     OW 2161   2.447   0.484   0.671  0.5089  0.7611 -0.7301
  721SOL    HW1 2162   2.440   0.519   0.574 -0.4947 -0.2188  0.5921
  721SOL    HW2 2163   2.437   0.380   0.676  0.6425  0.1620 -1.3787
  722SOL     OW 2164   2.581   0.738   2.576  0.1317  0.2942 -0.5319
  722SOL    HW1 2165   2.668   0.686   2.600  1.6706 -1.9611  1.1319
  722SOL    HW2 2166   2.598   0.839   2.576  0.0273 -0.9065 -2.1213
  723SOL     OW 2167   2.258   0.348   0.350 -0.1122 -0.1098 -0.0038
  723SOL    HW1 2168   2.358   0.358   0.365 -1.7898  0.6550 -1.4492
  723SOL    HW2 2169   2.223   0.437   0.319  1.0625 -1.1133  3.5260
  724SOL     OW 2170   0.598   1.779   1.982 -0.4062  0.1814  0.2139
  724SOL    HW1 2171   0.593   1.689   2.034  2.6005 -1.1256 -1.6837
  724SOL    HW2 2172   0.672   1.776   1.911  1.4328 -1.4236 -1.0824
  725SOL     OW 2173   1.727   0.129   1.181  0.2106 -0.2774  0.2399
  725SOL    HW1 2174   1.811   0.129   1.124  1.2179 -0.5269  1.3674
  725SOL    HW2 2175   1.725   0.035   1.227  1.4949  0.0985 -0.1370
  726SOL     OW 2176   2.102   2.652   0.247  0.1334 -0.7205 -0.2948
  726SOL    HW1 2177   2.054   2.720   0.188  1.1588  2.6827  0.8839
  726SOL    HW2 2178   2.071   2.653   0.346  0.9495 -0.2429  0.4193
  727SOL     OW 2179   1.747   1.428   1.262  0.0816  0.1875 -0.0342
  727SOL    HW1 2180   1.821   1.395   1.327  0.3112  0.3553  0.3142
  727SOL    HW2 2181   1.726   1.525   1.286  0.9168 -1.9466  0.6307
  728SOL     OW 2182   2.218   2.716   1.701 -0.2530 -0.7184 -0.0629
  728SOL    HW1 2183   2.198   2.690   1.602 -1.4269 -2.3512 -3.0426
  728SOL    HW2 2184   2.222   2.628   1.753  1.2847 -2.7203  2.4266
  729SOL     OW 2185   2.067   1.852   0.805  0.1499  0.4485  0.0818
  729SOL    HW1 2186   2.045   1.768   0.741 -0.2923 -2.2989  0.3538
  729SOL    HW2 2187   2.168   1.860   0.804  0.1959  1.1754  0.9092
  730SOL     OW 2188   1.202   0.569   2.742 -0.0065  0.3857  0.4335
  730SOL    HW1 2189   1.113   0.620   2.749 -0.4253 -1.7681 -0.5417
  730SOL    HW2 2190   1.282   0.626   2.716  0.0375 -2.7934 -0.1752
  731SOL     OW 2191   0.470   3.093   1.115  0.3091 -0.3392  0.0872
  731SOL    HW1 2192   0.560   0.004   1.158 -1.9347 -1.5976 -0.1805
  731SOL    HW2 2193   0.415   3.027   1.172 -1.1508 -0.0767  3.2172
  732SOL     OW 2194   1.396   0.533   0.581  0.2138  0.2072 -0.3476
  732SOL    HW1 2195   1.365   0.470   0.510  3.0459  0.6557  1.9599
  732SOL    HW2 2196   1.325   0.601   0.607 -0.4700  0.2946 -0.0956
  733SOL     OW 2197   0.660   1.953   1.437 -0.0523  0.1254  0.2292
  733SOL    HW1 2198   0.691   1.979   1.347  1.0771 -1.3955  1.1955
  733SOL    HW2 2199   0.634   1.854   1.446 -1.3149 -2.6162 -2.3141
  734SOL     OW 2200   0.020   2.425   0.326 -0.1444 -0.0819 -0.5424
  734SOL    HW1 2201   3.058   2.347   0.351 -1.9520 -0.0368  0.5860
  734SOL    HW2 2202   0.046   2.430   0.226  1.5338  0.1182 -1.0929
  735SOL     OW 2203   1.300   0.154   1.136 -0.2653 -0.0763  0.6231
  735SOL    HW1 2204   1.336   0.084   1.193 -1.1326  2.2741  1.2941
  735SOL    HW2 2205   1.370   0.228   1.119 -0.5996 -0.4380 -1.0219
  736SOL     OW 2206   1.969   2.293   0.382 -0.0081 -0.2917 -0.3151
  736SOL    HW1 2207   2.014   2.298   0.476  0.5932 -1.2469  0.9089
  736SOL    HW2 2208   2.023   2.337   0.313 -1.3702 -0.5318  0.8602
  737SOL     OW 2209   2.977   1.363   0.973 -0.0570  0.0664 -0.1052
  737SOL    HW1 2210   2.955   1.404   0.885 -0.2348 -0.7946 -0.2952
  737SOL    HW2 2211   2.928   1.420   1.045  0.0130  1.7020  1.5490
  738SOL     OW 2212   2.299   2.417   2.311  0.3874 -0.2137 -0.4984
  738SOL    HW1 2213   2.234   2.489   2.338 -1.1333  0.4733  1.7706
  738SOL    HW2 2214   2.392   2.452   2.315 -1.2275  0.6630 -2.0535
  739SOL     OW 2215   1.065   2.078   2.890  0.2868  0.5804  0.0097
  739SOL    HW1 2216   1.060   2.083   2.990 -1.2110 -1.1327 -0.5920
  739SOL    HW2 2217   1.008   2.148   2.849  1.9135 -1.7456 -0.2565
  740SOL     OW 2218   1.505   0.325   1.115 -0.2131 -0.2148 -0.3981
  740SOL    HW1 2219   1.587   0.287   1.157 -1.0943 -0.4731  2.6067
  740SOL    HW2 2220   1.536   0.394   1.043  0.4791  0.2417 -0.4709
  741SOL     OW 2221   0.188   1.042   0.876  0.5606 -0.1860  0.1818
  741SOL    HW1 2222   0.291   1.031   0.869  0.9404  0.4514  1.2451
  741SOL    HW2 2223   0.150   0.979   0.942  2.1989 -1.0368 -1.8916
  742SOL     OW 2224   0.969   1.189   2.432  0.1900 -0.8600  0.4616
  742SOL    HW1 2225   0.986   1.244   2.514  0.6714 -1.4660  1.8112
  742SOL    HW2 2226   0.870   1.189   2.401  0.1381  1.6299  1.9159
  743SOL     OW 2227   0.947   0.777   2.182 -0.5107  0.2376 -0.2365
  743SOL    HW1 2228   0.874   0.847   2.179 -0.4567 -1.0853  0.0041
  743SOL    HW2 2229   1.036   0.828   2.161 -1.3214 -0.9812 -0.5076
  744SOL     OW 2230   1.744   0.247   1.432 -0.4690 -0.0195  0.2086
  744SOL    HW1 2231   1.741   0.203   1.337  0.8165 -1.3445  0.1412
  744SOL    HW2 2232   1.832   0.217   1.476  1.0040  1.9780  3.4336
  745SOL     OW 2233   2.176   1.133   1.234  0.4544  0.2568 -0.1546
  745SOL    HW1 2234   2.081   1.154   1.201 -1.3222  1.1556  0.4163
  745SOL    HW2 2235   2.226   1.218   1.247  0.8972 -3.7904  0.2823
  746SOL     OW 2236   2.128   1.197   0.608 -0.1939  0.4518 -0.2718
  746SOL    HW1 2237   2.090   1.235   0.520 -2.0321 -1.4285 -0.4451
  746SOL    HW2 2238   2.230   1.193   0.621  0.6484 -0.9392  1.4902
  747SOL     OW 2239   2.597   1.581   1.095  0.1996  0.1815 -0.0242
  747SOL    HW1 2240   2.651   1.609   1.018  0.0694 -1.7423 -1.0999
  747SOL    HW2 2241   2.509   1.630   1.106  1.7584 -0.2347 -0.8288
  748SOL     OW 2242   0.527   2.323   0.463 -0.2700 -0.2674 -0.2999
  748SOL    HW1 2243   0.622   2.309   0.500  0.0474  0.6873 -2.0510
  748SOL    HW2 2244   0.515   2.268   0.377 -0.9841  2.0168 -0.3145
  749SOL     OW 2245   2.747   2.586   2.525  0.6359  0.1622 -0.5968
  749SOL    HW1 2246   2.760   2.557   2.430 -1.1540  0.3040  2.9940
  749SOL    HW2 2247   2.649   2.570   2.552 -0.8774 -2.0884  0.3080
  750SOL     OW 2248   2.383   0.831   0.663  0.3280 -0.1476 -0.3011
  750SOL    HW1 2249   2.429   0.796   0.580 -3.4862  1.3600 -0.0126
  750SOL    HW2 2250   2.314   0.763   0.694  2.6505 -1.1783  0.3657
  751SOL     OW 2251   2.425   3.035   0.026 -0.5751 -0.8464 -0.5749
  751SOL    HW1 2252   2.470   0.016   3.086  0.4541 -4.1536  3.2285
  751SOL    HW2 2253   2.452   2.952   3.071 -0.8877 -0.3205 -1.8155
  752SOL     OW 2254   2.879   2.734   0.950 -0.5793 -0.2767  0.0549
  752SOL    HW1 2255   2.845   2.834   0.957  0.0462  2.4894 -0.1368
  752SOL    HW2 2256   2.877   2.700   0.859 -0.5580 -2.0610  2.0204
  753SOL     OW 2257   1.742   1.040   2.263  0.5225 -0.0859  0.5072
  753SOL    HW1 2258   1.728   1.132   2.298  1.3482 -2.0377 -3.0632
  753SOL    HW2 2259   1.673   0.972   2.297 -2.9480 -0.4187 -2.4512
  754SOL     OW 2260   1.765   2.016   1.424  0.2021  0.1908  0.2485
  754SOL    HW1 2261   1.791   2.114   1.407  1.4485  0.6334 -0.4895
  754SOL    HW2 2262   1.850   1.952   1.406  1.6771 -1.5436  1.3259
  755SOL     OW 2263   2.713   1.121   0.432 -0.1320  0.6462  0.2455
  755SOL    HW1 2264   2.704   1.040   0.501  0.7383 -0.5686 -0.0802
  755SOL    HW2 2265   2.619   1.135   0.385 -1.6093  0.6779  0.4307
  756SOL     OW 2266   0.729   1.298   2.715 -0.3021 -0.4609  0.3935
  756SOL    HW1 2267   0.696   1.271   2.621 -1.0930 -0.1644  1.9796
  756SOL    HW2 2268   0.829   1.319   2.708 -4.5596 -1.7295 -0.9816
  757SOL     OW 2269   1.569   2.354   0.737  0.0818  0.3396 -0.7843
  757SOL    HW1 2270   1.653   2.331   0.787 -2.9216  0.2073 -0.5632
  757SOL    HW2 2271   1.493   2.296   0.766  1.3706  0.9255  0.5051
  758SOL     OW 2272   1.392   2.741   1.678  0.3808 -0.0148 -0.3856
  758SOL    HW1 2273   1.388   2.842   1.676  1.3716 -0.2541 -0.2293
  758SOL    HW2 2274   1.369   2.710   1.585 -0.6026  1.4397  0.2135
  759SOL     OW 2275   0.170   0.742   0.703  0.4820 -0.2651 -0.2366
  759SOL    HW1 2276   0.238   0.796   0.652  0.7311  0.5674 -0.5603
  759SOL    HW2 2277   0.100   0.797   0.752  0.4773 -0.4772  1.3420
  760SOL     OW 2278   2.429   0.953   1.290 -0.3321  0.1091 -0.5405
  760SOL    HW1 2279   2.331   0.979   1.293  1.2816 -0.2263 -0.2187
  760SOL    HW2 2280   2.483   1.026   1.341  0.7447 -0.5889  0.7944
  761SOL     OW 2281   1.993   0.289   0.206 -0.1694  0.1169 -0.2486
  761SOL    HW1 2282   2.099   0.298   0.209  1.2278 -1.3126 -0.6854
  761SOL    HW2 2283   1.946   0.316   0.292  0.9165  2.4303 -1.8021
  762SOL     OW 2284   2.118   1.486   0.034 -0.0698 -0.1235  0.1719
  762SOL    HW1 2285   2.135   1.404   3.073  1.5751 -0.1450 -1.9644
  762SOL    HW2 2286   2.102   1.565   3.069 -0.0360  0.9387 -0.8889
  763SOL     OW 2287   0.364   2.122   1.727 -0.2547 -0.0291 -0.1556
  763SOL    HW1 2288   0.394   2.096   1.818 -0.4075  0.6017 -0.1810
  763SOL    HW2 2289   0.320   2.040   1.677 -1.3600  0.7652 -0.7775
  764SOL     OW 2290   2.922   2.329   3.038 -0.0872  0.5859  0.1220
  764SOL    HW1 2291   2.857   2.249   3.035  1.0156  1.5968  2.3079
  764SOL    HW2 2292   2.967   2.339   2.948  0.3403 -1.6089  2.9632
  765SOL     OW 2293   0.320   2.932   1.258 -0.0178 -0.1546 -0.3763
  765SOL    HW1 2294   0.397   2.930   1.325  0.6148 -0.0433  1.0294
  765SOL    HW2 2295   0.320   2.836   1.222  2.7992 -0.6706  1.5880
  766SOL     OW 2296   2.952   2.036   2.280  0.1020  0.0448 -0.6509
  766SOL    HW1 2297   2.987   1.954   2.331 -0.1995 -1.8387 -0.4058
  766SOL    HW2 2298   2.853   2.029   2.274  1.9511  1.0147  0.5318
  767SOL     OW 2299   2.262   0.814   2.254  0.4327  0.2001  0.0125
  767SOL    HW1 2300   2.276   0.846   2.159  2.8151  1.6645  1.0615
  767SOL    HW2 2301   2.326   0.737   2.279  0.5248  0.0197  0.0422
  768SOL     OW 2302   1.394   0.005   2.776  0.4055  0.1788 -0.8830
  768SOL    HW1 2303   1.342   3.081   2.866 -3.0920  0.4064  1.8808
  768SOL    HW2 2304   1.456   0.093   2.777  0.9363  3.8873 -0.0628
  769SOL     OW 2305   2.727   2.550   1.087 -0.0353  0.4308 -0.1366
  769SOL    HW1 2306   2.796   2.610   1.042 -1.9324 -1.1755 -0.8217
  769SOL    HW2 2307   2.686   2.601   1.164 -2.3960  0.2006  0.8630
  770SOL     OW 2308   0.445   0.090   2.636 -0.2513  0.0171  0.6299
  770SOL    HW1 2309   0.435   3.092   2.663  0.3105  0.0165  0.4774
  770SOL    HW2 2310   0.405   0.154   2.705  4.0810 -0.2807  1.9155
  771SOL     OW 2311   1.150   1.952   2.086 -0.1737  0.4126 -0.4153
  771SOL    HW1 2312   1.231   1.980   2.025 -1.0411 -1.1481  2.7600
  771SOL    HW2 2313   1.154   1.855   2.119  1.5193  0.7178  1.7507
  772SOL     OW 2314   1.377   2.648   2.809 -0.1472  0.5391 -0.1944
  772SOL    HW1 2315   1.378   2.730   2.746  0.2068  1.8605 -1.0939
  772SOL    HW2 2316   1.345   2.667   2.903 -1.4869 -2.7921 -1.3429
  773SOL     OW 2317   1.889   0.889   1.471 -0.1131 -0.3799 -0.3571
  773SOL    HW1 2318   1.949   0.817   1.431  0.1718  1.1982 -1.4289
  773SOL    HW2 2319   1.803   0.895   1.418 -0.1521  3.0165  2.4038
  774SOL     OW 2320   0.947   0.602   0.951 -0.5045  0.4269 -0.1207
  774SOL    HW1 2321   1.016   0.642   1.019  0.5327  0.3697  0.8541
  774SOL    HW2 2322   0.874   0.554   1.003 -0.2966 -0.6716  2.5842
  775SOL     OW 2323   1.889   2.910   2.676  0.2217 -0.5105  0.1704
  775SOL    HW1 2324   1.801   2.942   2.722  0.2415  2.4777  1.1366
  775SOL    HW2 2325   1.897   2.808   2.676  2.1780  1.4040 -1.0695
  776SOL     OW 2326   2.116   0.856   1.301 -0.9591  0.2635 -0.0113
  776SOL    HW1 2327   2.098   0.953   1.276  1.4519  1.0239  0.0235
  776SOL    HW2 2328   2.163   0.801   1.227  2.2112  0.8147 -0.4023
  777SOL     OW 2329   0.089   1.164   2.068  0.8033  0.1896  0.0898
  777SOL    HW1 2330   0.158   1.132   1.997  0.8501  1.4301 -1.8811
  777SOL    HW2 2331   0.140   1.199   2.148 -0.9721 -0.4211  0.7423
  778SOL     OW 2332   3.022   0.910   2.947 -0.0552 -0.4714 -0.1934
  778SOL    HW1 2333   3.049   0.846   2.872 -0.2961 -2.1880  1.5351
  778SOL    HW2 2334   3.097   0.973   2.973 -2.2530  1.4681  1.7638
  779SOL     OW 2335   0.631   0.524   2.904  0.2626 -0.1246 -0.8213
  779SOL    HW1 2336   0.691   0.459   2.966  0.0594 -1.9306  1.4853
  779SOL    HW2 2337   0.619   0.480   2.812 -1.2503 -0.0299  1.4357
  780SOL     OW 2338   2.127   1.638   2.717 -0.4813  0.5848 -0.0245
  780SOL    HW1 2339   2.077   1.630   2.623  2.9229 -0.3290 -2.3865
  780SOL    HW2 2340   2.199   1.712   2.711  2.0211 -1.0478  1.2809
  781SOL     OW 2341   2.769   1.006   2.176  0.2141 -0.2645 -0.2057
  781SOL    HW1 2342   2.758   1.072   2.096 -1.6864 -0.2221 -0.3949
  781SOL    HW2 2343   2.770   0.913   2.140  1.1133  3.5818  0.6511
  782SOL     OW 2344   1.086   1.877   2.708 -0.1450  0.4088  0.2880
  782SOL    HW1 2345   0.996   1.832   2.712 -0.7258  3.7562 -1.6556
  782SOL    HW2 2346   1.092   1.951   2.779 -1.9657 -2.7640 -0.6492
  783SOL     OW 2347   1.151   2.391   1.287 -0.1060  0.1346 -0.1087
  783SOL    HW1 2348   1.251   2.396   1.295  0.4024  0.2616  2.8102
  783SOL    HW2 2349   1.117   2.434   1.204  0.8512 -3.5385  1.2914
  784SOL     OW 2350   1.625   0.678   2.472 -0.6668  0.3420 -0.2879
  784SOL    HW1 2351   1.710   0.667   2.528 -0.4250  1.3826 -0.0397
  784SOL    HW2 2352   1.579   0.588   2.453  0.9015  0.1483  1.8270
  785SOL     OW 2353   0.142   0.084   2.135 -0.4740  1.0773  0.1997
  785SOL    HW1 2354   0.080   0.071   2.216 -0.7111  0.3455  1.4351
  785SOL    HW2 2355   0.118   0.034   2.047 -0.1306  1.2953  0.1064
  786SOL     OW 2356   0.838   2.148   0.357 -0.2766 -0.0500  0.0217
  786SOL    HW1 2357   0.740   2.158   0.322 -0.5658  1.3615 -0.9757
  786SOL    HW2 2358   0.851   2.210   0.437  0.7253 -2.4541  1.7119
  787SOL     OW 2359   1.285   0.042   0.807  0.2843 -0.0637  0.6512
  787SOL    HW1 2360   1.247   0.021   0.710 -0.8129  1.1556 -1.0761
  787SOL    HW2 2361   1.224   0.000   0.876  2.6940  1.4287  0.6454
  788SOL     OW 2362   2.872   1.481   1.196 -0.2261 -0.2645  0.8859
  788SOL    HW1 2363   2.803   1.555   1.216  1.1420  2.3470 -1.3037
  788SOL    HW2 2364   2.938   1.478   1.276  1.3801  1.0073  1.7997
  789SOL     OW 2365   2.460   1.064   2.119 -0.5294 -0.2341 -0.8730
  789SOL    HW1 2366   2.439   0.991   2.056  2.5836  2.9623 -0.4797
  789SOL    HW2 2367   2.552   1.055   2.159 -0.6332 -1.3624 -0.6072
  790SOL     OW 2368   0.976   0.002   0.294  0.6334 -0.6446  0.2739
  790SOL    HW1 2369   0.982   0.097   0.336  1.2532  3.2320  1.6605
  790SOL    HW2 2370   0.938   3.031   0.360 -2.2697 -1.1309  3.1243
  791SOL     OW 2371   3.052   0.088   0.261  0.4673 -0.1493 -0.0563
  791SOL    HW1 2372   3.081   0.138   0.177 -0.4833 -1.1953  0.2175
  791SOL    HW2 2373   0.028   0.089   0.330  2.7394 -2.0666 -1.4963
  792SOL     OW 2374   1.473   0.420   1.951  0.2496 -0.1884  0.8311
  792SOL    HW1 2375   1.500   0.340   2.008 -1.6826  1.4517 -3.2524
  792SOL    HW2 2376   1.404   0.479   1.996  1.8065  0.2543 -1.2230
  793SOL     OW 2377   2.977   0.213   1.254  0.0640  0.6058  0.2829
  793SOL    HW1 2378   3.025   0.299   1.222  2.7023 -0.9129  0.4525
  793SOL    HW2 2379   2.961   0.220   1.355  1.0442  0.5850 -1.6900
  794SOL     OW 2380   3.078   0.353   2.117 -0.4008 -0.2883 -0.2176
  794SOL    HW1 2381   0.009   0.395   2.029 -0.5892 -1.4526 -0.3660
  794SOL    HW2 2382   3.076   0.253   2.115 -0.5418  0.7569 -1.6332
  795SOL     OW 2383   0.831   1.412   0.421  0.1591  0.1238 -0.1237
  795SOL    HW1 2384   0.830   1.327   0.479  1.5385 -0.2900 -0.2070
  795SOL    HW2 2385   0.735   1.440   0.403  2.8669  1.2858  1.9114
  796SOL     OW 2386   2.947   0.846   0.150 -0.3281  0.7300 -0.5003
  796SOL    HW1 2387   2.956   0.946   0.174 -0.1312  0.9481 -1.4779
  796SOL    HW2 2388   2.940   0.837   0.051 -1.5356 -3.9072  2.4164
  797SOL     OW 2389   1.574   3.038   2.477  0.1891  0.6531 -0.1658
  797SOL    HW1 2390   1.664   2.989   2.454  0.7875  1.3468 -3.8289
  797SOL    HW2 2391   1.498   2.978   2.438 -1.3658 -3.4675 -2.3593
  798SOL     OW 2392   2.990   2.975   1.317  0.5147  0.0708 -0.4200
  798SOL    HW1 2393   3.088   2.982   1.330 -1.1634  1.1618 -2.1620
  798SOL    HW2 2394   2.940   3.056   1.339  1.3586 -3.3743  0.6434
  799SOL     OW 2395   2.897   1.094   1.714 -0.0688  0.4247  0.0704
  799SOL    HW1 2396   2.802   1.071   1.684  0.3136 -3.6086 -1.2242
  799SOL    HW2 2397   2.966   1.028   1.681  1.3274  0.5899  0.3821
  800SOL     OW 2398   0.121   1.708   0.444  0.7900 -0.3617  0.7512
  800SOL    HW1 2399   0.118   1.794   0.501  1.8338 -0.4971  0.8535
  800SOL    HW2 2400   0.109   1.725   0.340  0.3094  0.8054 -1.1697
  801SOL     OW 2401   1.982   1.632   0.632 -0.5643 -0.5481 -0.6055
  801SOL    HW1 2402   2.021   1.658   0.539  1.1359  1.5558 -2.2867
  801SOL    HW2 2403   1.928   1.548   0.632  1.4284  0.2690  1.1501
  802SOL     OW 2404   1.294   1.038   2.700  0.3678  0.4705 -0.1142
  802SOL    HW1 2405   1.297   1.054   2.596 -0.6372 -1.4365 -1.4787
  802SOL    HW2 2406   1.386   1.007   2.732 -4.1540  0.5183  0.9506
  803SOL     OW 2407   0.481   2.010   1.953 -0.1406  0.4956  0.1272
  803SOL    HW1 2408   0.547   2.091   1.963  1.9693  1.7837 -1.9609
  803SOL    HW2 2409   0.527   1.920   1.945  2.0216  0.7013 -1.4717
  804SOL     OW 2410   1.375   2.165   0.822  0.3385  0.2215  0.1290
  804SOL    HW1 2411   1.401   2.070   0.807  1.0280  0.6421 -0.6470
  804SOL    HW2 2412   1.312   2.189   0.744  0.5661 -2.4015 -3.1799
  805SOL     OW 2413   2.510   2.294   2.610 -0.1309 -0.5886  0.1742
  805SOL    HW1 2414   2.560   2.245   2.535 -2.9214  1.1741 -2.5791
  805SOL    HW2 2415   2.504   2.396   2.592  0.9291 -0.3714 -1.5903
  806SOL     OW 2416   0.365   0.393   0.745 -0.4471  0.2142 -0.6545
  806SOL    HW1 2417   0.292   0.337   0.708 -0.3485  1.6014  0.8810
  806SOL    HW2 2418   0.337   0.463   0.810  1.6766  1.3708 -1.7277
  807SOL     OW 2419   2.826   0.616   2.647  0.5635  0.1246  0.4440
  807SOL    HW1 2420   2.896   0.645   2.712  0.4602 -3.0586 -0.9911
  807SOL    HW2 2421   2.784   0.525   2.672 -1.1130 -1.4451 -0.0984
  808SOL     OW 2422   0.936   2.288   0.911 -0.2306 -0.1442  0.0457
  808SOL    HW1 2423   0.943   2.241   0.999 -0.4144  0.0293  0.5348
  808SOL    HW2 2424   0.845   2.283   0.863 -0.2095  0.1799 -0.4006
  809SOL     OW 2425   2.732   0.375   2.704  0.0130 -0.5610  0.3735
  809SOL    HW1 2426   2.783   0.291   2.732 -1.4735  1.0675  0.7657
  809SOL    HW2 2427   2.647   0.338   2.659  2.7799 -0.6875 -1.7197
  810SOL     OW 2428   1.493   1.075   0.576 -0.1349  0.1744 -0.2145
  810SOL    HW1 2429   1.466   1.140   0.650  1.5820  1.1168  1.5855
  810SOL    HW2 2430   1.573   1.009   0.598 -1.2093  0.7733 -3.4090
  811SOL     OW 2431   1.919   2.742   1.883 -0.6746  0.3646  0.5487
  811SOL    HW1 2432   1.833   2.792   1.884 -1.0438 -1.9951  2.1810
  811SOL    HW2 2433   1.982   2.794   1.943 -0.5111  2.3204  1.1299
  812SOL     OW 2434   2.012   2.645   0.501  0.0242  0.0632  0.5813
  812SOL    HW1 2435   1.934   2.696   0.539  2.7325  0.5957  2.3466
  812SOL    HW2 2436   2.084   2.635   0.570 -1.4057 -1.5190 -0.1412
  813SOL     OW 2437   1.039   0.592   1.996  0.1587 -0.1267  0.1043
  813SOL    HW1 2438   1.138   0.562   2.010  2.2559  1.3127 -0.2300
  813SOL    HW2 2439   1.020   0.657   2.075  0.2951  0.7395  1.1386
  814SOL     OW 2440   0.146   3.086   1.365  0.2047 -0.0753 -0.4857
  814SOL    HW1 2441   0.186   0.079   1.349  0.2656 -1.5671  2.6582
  814SOL    HW2 2442   0.197   3.013   1.312 -0.6815  0.2901 -0.7359
  815SOL     OW 2443   0.242   0.061   0.937  0.1968 -0.1695 -0.7282
  815SOL    HW1 2444   0.315   0.034   1.003  2.1267 -1.1975 -1.2607
  815SOL    HW2 2445   0.201   3.072   0.899  1.1022  1.4096  0.0972
  816SOL     OW 2446   2.755   1.511   2.355  0.4373  0.2313 -0.1409
  816SOL    HW1 2447   2.668   1.465   2.388  0.2960 -0.6307 -0.9534
  816SOL    HW2 2448   2.744   1.555   2.262 -0.3875 -1.9705 -0.6796
  817SOL     OW 2449   1.252   0.055   0.216  0.2530  0.5090  0.3451
  817SOL    HW1 2450   1.320   0.024   0.284 -0.4462  0.5450 -1.2853
  817SOL    HW2 2451   1.166   0.000   0.224 -0.7594 -0.3953  0.7944
  818SOL     OW 2452   1.544   0.667   0.177  0.2456 -0.3539 -0.2312
  818SOL    HW1 2453   1.616   0.724   0.121 -1.5930 -0.0537 -1.7825
  818SOL    HW2 2454   1.545   0.565   0.156  0.5741 -0.8807  1.4325
  819SOL     OW 2455   2.269   2.781   2.963  0.4560  0.3930  0.0202
  819SOL    HW1 2456   2.200   2.705   2.946 -0.9605 -2.4938 -1.5345
  819SOL    HW2 2457   2.223   2.850   3.026 -1.6773  0.3575 -0.3956
  820SOL     OW 2458   1.532   1.014   2.825 -0.0166  0.0097 -0.6112
  820SOL    HW1 2459   1.483   0.949   2.884 -1.4591 -3.0802 -0.9613
  820SOL    HW2 2460   1.634   1.002   2.848  2.4871  1.4409  1.7216
  821SOL     OW 2461   0.067   0.572   1.330  0.3913  0.0114  0.1874
  821SOL    HW1 2462   0.088   0.495   1.390 -3.4534  1.5483  0.4282
  821SOL    HW2 2463   0.007   0.542   1.254  0.4910 -3.2250 -0.2149
  822SOL     OW 2464   1.135   2.502   2.249  0.3219  0.4169  0.1458
  822SOL    HW1 2465   1.211   2.455   2.290 -1.3986  0.6086 -0.7867
  822SOL    HW2 2466   1.044   2.464   2.277  1.0171 -2.5892  1.6361
  823SOL     OW 2467   0.387   1.298   1.804  0.4119 -0.1165 -0.2378
  823SOL    HW1 2468   0.465   1.312   1.868  1.6792  0.1358  0.1899
  823SOL    HW2 2469   0.362   1.386   1.757 -3.0670 -1.0942 -1.9812
  824SOL     OW 2470   1.621   2.849   2.190 -0.0614 -0.2674 -0.6077
  824SOL    HW1 2471   1.704   2.851   2.249 -2.1527 -2.4482 -0.7700
  824SOL    HW2 2472   1.643   2.840   2.090  1.1376 -0.8331 -1.5819
  825SOL     OW 2473   1.084   1.015   0.096 -0.0881 -0.4583  0.0261
  825SOL    HW1 2474   1.083   1.117   0.094 -0.6214  0.4101  2.8999
  825SOL    HW2 2475   1.023   0.983   0.020 -0.9270 -1.4157 -0.3435
  826SOL     OW 2476   2.101   0.653   2.877 -0.8567 -0.0637  0.2423
  826SOL    HW1 2477   2.162   0.663   2.798 -0.8097 -0.1812 -0.6231
  826SOL    HW2 2478   2.076   0.745   2.911  0.6287 -1.3061 -1.5316
  827SOL     OW 2479   0.549   2.270   2.738 -0.3582  1.2100 -0.4719
  827SOL    HW1 2480   0.558   2.165   2.723  1.8570 -2.1544 -1.3823
  827SOL    HW2 2481   0.567   2.309   2.649  2.7548 -1.6803  2.6398
  828SOL     OW 2482   2.981   0.190   1.507 -0.3328 -0.4559  0.0648
  828SOL    HW1 2483   3.070   0.226   1.531 -0.8085 -0.6219 -1.7548
  828SOL    HW2 2484   2.905   0.205   1.575  0.2734  1.8523  0.9932
  829SOL     OW 2485   0.757   1.368   0.998 -0.0524  0.2609  0.3806
  829SOL    HW1 2486   0.787   1.454   0.957 -1.6166 -0.1493 -2.2236
  829SOL    HW2 2487   0.837   1.308   1.024  2.3324 -0.4774  0.3763
  830SOL     OW 2488   0.728   1.240   1.440 -0.3029 -0.1229 -0.1425
  830SOL    HW1 2489   0.712   1.270   1.346 -0.7351  0.9306  2.9086
  830SOL    HW2 2490   0.678   1.305   1.505  0.9770  0.5232  1.4364
  831SOL     OW 2491   0.512   1.962   0.082 -0.2797  0.6443 -0.4861
  831SOL    HW1 2492   0.593   1.899   0.071  0.9248  1.6717 -0.0145
  831SOL    HW2 2493   0.429   1.901   0.065  0.5504 -0.3211 -0.9409
  832SOL     OW 2494   0.978   2.964   0.063  0.5530 -0.1137 -0.3387
  832SOL    HW1 2495   1.047   2.998   0.001 -2.6816  0.0404 -1.0666
  832SOL    HW2 2496   0.958   3.027   0.142  0.9916  2.1488  1.6526
  833SOL     OW 2497   0.052   0.481   1.891  0.3528 -0.1134  0.2950
  833SOL    HW1 2498   3.063   0.517   1.850 -0.4262 -0.4070 -0.3044
  833SOL    HW2 2499   0.113   0.555   1.920 -0.3181 -5.1834 -0.3481
  834SOL     OW 2500   2.912   0.502   0.881 -0.5036  0.5387 -0.1270
  834SOL    HW1 2501   2.809   0.498   0.864 -2.4599  3.7421 -2.7341
  834SOL    HW2 2502   2.966   0.524   0.800  1.5155 -1.9817  1.0851
  835SOL     OW 2503   2.599   0.011   1.087 -0.1795  0.1746  0.4929
  835SOL    HW1 2504   2.647   0.103   1.078 -0.3130 -1.7882 -1.3924
  835SOL    HW2 2505   2.526   0.018   1.156  1.2395 -0.5986  1.0012
  836SOL     OW 2506   0.275   1.958   2.994  0.2875  0.7284 -0.0751
  836SOL    HW1 2507   0.201   1.992   3.049  1.3180  0.3901 -1.2937
  836SOL    HW2 2508   0.344   2.037   2.980  0.9521  2.7812  1.0439
  837SOL     OW 2509   1.592   2.118   2.914 -1.1488 -0.2086 -0.0015
  837SOL    HW1 2510   1.682   2.167   2.906  1.1390  0.7522  0.7966
  837SOL    HW2 2511   1.596   2.015   2.888 -0.8853 -0.7021  0.3928
  838SOL     OW 2512   2.649   0.997   1.674 -0.6427  0.2051  0.7280
  838SOL    HW1 2513   2.698   0.912   1.634  2.2184  1.2238  2.2278
  838SOL    HW2 2514   2.569   0.960   1.719  1.4531 -0.5246 -0.7674
  839SOL     OW 2515   1.253   0.814   0.700  0.7879  0.1423 -0.0497
  839SOL    HW1 2516   1.151   0.810   0.724  0.2868 -0.5104 -2.7682
  839SOL    HW2 2517   1.271   0.895   0.643  0.2207 -1.0736 -1.7803
  840SOL     OW 2518   1.584   0.505   0.922  0.0673 -0.3690  0.0965
  840SOL    HW1 2519   1.515   0.443   0.880 -0.3072  0.9158  0.4780
  840SOL    HW2 2520   1.589   0.599   0.883 -2.7033 -0.8608  0.3456
  841SOL     OW 2521   0.497   2.743   0.609  0.4275  0.0778 -0.3645
  841SOL    HW1 2522   0.410   2.717   0.650 -1.8836 -0.6913  0.0786
  841SOL    HW2 2523   0.505   2.842   0.625  0.0335  0.1626 -1.1523
  842SOL     OW 2524   0.554   0.645   0.509 -0.1721 -0.2708  0.0842
  842SOL    HW1 2525   0.623   0.588   0.561 -0.3348 -2.1066 -0.6922
  842SOL    HW2 2526   0.461   0.604   0.506  2.4689  2.7849  0.2482
  843SOL     OW 2527   0.963   1.017   1.764 -0.2826 -0.1076 -0.0499
  843SOL    HW1 2528   0.890   1.054   1.824  1.3751  0.1393  0.6671
  843SOL    HW2 2529   0.933   1.018   1.664 -2.4751 -1.7876 -4.4281
  844SOL     OW 2530   1.278   2.110   0.261 -0.0960  0.0935  0.0375
  844SOL    HW1 2531   1.335   2.089   0.181 -1.4202 -0.0897 -0.3531
  844SOL    HW2 2532   1.342   2.127   0.335 -0.7839  0.6741  0.7292
  845SOL     OW 2533   2.540   2.539   2.251 -0.2756 -0.1213  0.3760
  845SOL    HW1 2534   2.493   2.557   2.166 -0.1973  0.4939  0.4028
  845SOL    HW2 2535   2.626   2.489   2.234 -3.2757  0.6122  1.8816
  846SOL     OW 2536   1.826   2.250   2.813  0.7127 -0.0473  0.5587
  846SOL    HW1 2537   1.894   2.181   2.794 -1.1855  1.9970  0.8932
  846SOL    HW2 2538   1.852   2.349   2.797  0.3504 -1.8297 -1.9099
  847SOL     OW 2539   1.799   2.929   2.406 -0.4351 -0.0334 -0.4964
  847SOL    HW1 2540   1.874   2.957   2.348  0.2236 -0.6783 -2.3095
  847SOL    HW2 2541   1.822   2.931   2.507  0.7520 -0.2803  2.5971
  848SOL     OW 2542   0.844   0.496   0.404  0.0958  0.0450  0.5136
  848SOL    HW1 2543   0.779   0.461   0.331 -0.6753 -0.2175  0.0602
  848SOL    HW2 2544   0.801   0.489   0.495  0.1449  0.2534 -0.6715
  849SOL     OW 2545   0.768   2.892   1.335 -0.3471 -0.0394 -0.0125
  849SOL    HW1 2546   0.731   2.804   1.302 -1.3775  1.6534  0.2389
  849SOL    HW2 2547   0.864   2.896   1.302 -3.2764  1.0756 -2.9821
  850SOL     OW 2548   0.366   1.676   0.147  0.0145 -0.4864  0.4728
  850SOL    HW1 2549   0.441   1.699   0.214  0.6766 -0.4130 -2.9209
  850SOL    HW2 2550   0.277   1.721   0.159  1.2585  0.1091 -0.2783
  851SOL     OW 2551   0.377   0.689   0.191  0.0434 -0.2245  0.0680
  851SOL    HW1 2552   0.383   0.782   0.144  0.4949 -1.4241  1.0184
  851SOL    HW2 2553   0.302   0.682   0.260 -1.4149  0.0989 -0.8867
  852SOL     OW 2554   1.622   1.928   1.638  0.2294  0.2159  0.3717
  852SOL    HW1 2555   1.619   1.993   1.718 -0.7116 -1.3228  1.1453
  852SOL    HW2 2556   1.677   1.965   1.558  1.8975  0.9994 -2.0104
  853SOL     OW 2557   0.612   1.701   0.282 -0.1423 -0.0149  0.1565
  853SOL    HW1 2558   0.656   1.733   0.366 -0.4673 -1.9521  0.7735
  853SOL    HW2 2559   0.666   1.725   0.200 -0.6201 -1.5116 -0.5906
  854SOL     OW 2560   1.904   1.356   1.485 -0.7525  0.3359  0.9122
  854SOL    HW1 2561   1.993   1.399   1.466 -0.2656 -0.2287 -1.6150
  854SOL    HW2 2562   1.929   1.256   1.506 -0.3969  1.2110 -0.2721
  855SOL     OW 2563   0.750   2.285   0.036 -0.8474 -0.0151  0.2319
  855SOL    HW1 2564   0.848   2.296   0.065  0.2136  0.5612  2.4992
  855SOL    HW2 2565   0.747   2.213   3.067 -0.1466  2.2457  0.6126
  856SOL     OW 2566   2.802   0.456   2.061  0.2711  0.1691 -0.2277
  856SOL    HW1 2567   2.840   0.483   1.972 -0.2679 -0.7367  1.7301
  856SOL    HW2 2568   2.875   0.428   2.128  0.9399  0.4235  1.1571
  857SOL     OW 2569   0.523   0.610   1.816  0.6726 -0.1839 -0.5766
  857SOL    HW1 2570   0.550   0.511   1.830  0.6759 -2.8400  2.3265
  857SOL    HW2 2571   0.603   0.672   1.816 -0.7968  4.0453  2.5962
  858SOL     OW 2572   0.171   1.274   2.299  0.3188 -0.0252  0.0986
  858SOL    HW1 2573   0.102   1.346   2.333  0.0854 -0.2123 -2.0817
  858SOL    HW2 2574   0.235   1.249   2.375  0.9933 -1.3004 -0.0008
  859SOL     OW 2575   2.187   0.084   0.384  0.4992 -0.5403 -0.1670
  859SOL    HW1 2576   2.211   0.183   0.364 -0.3981 -0.2085  0.6667
  859SOL    HW2 2577   2.086   0.064   0.390  1.5600 -0.2636  2.8266
  860SOL     OW 2578   1.865   3.001   3.032 -0.2540 -0.3974 -0.4093
  860SOL    HW1 2579   1.811   2.961   2.958  0.5270 -3.0110 -0.0576
  860SOL    HW2 2580   1.911   3.084   2.998 -1.6821 -0.9020  1.0251
  861SOL     OW 2581   0.311   0.518   0.504 -0.3954 -0.6732 -0.4511
  861SOL    HW1 2582   0.239   0.584   0.471 -0.6577 -1.6751 -0.9620
  861SOL    HW2 2583   0.284   0.495   0.599  0.8392 -0.2736  0.1075
  862SOL     OW 2584   1.790   0.372   2.100 -0.0512 -0.4009 -0.4724
  862SOL    HW1 2585   1.871   0.373   2.037  4.0866 -0.7361 -0.2752
  862SOL    HW2 2586   1.754   0.275   2.108 -0.0958 -1.0730  1.4115
  863SOL     OW 2587   0.131   1.760   1.098  0.3531 -0.3409 -0.6822
  863SOL    HW1 2588   0.221   1.783   1.134 -1.1705 -0.7979  1.5334
  863SOL    HW2 2589   0.051   1.821   1.124  1.2258 -0.4582 -1.0637
  864SOL     OW 2590   2.378   2.781   1.926 -0.3562  0.3213 -0.2687
  864SOL    HW1 2591   2.325   2.784   1.837 -1.3866  0.4423 -1.8172
  864SOL    HW2 2592   2.322   2.735   1.995  0.7887  2.2519 -1.1890
  865SOL     OW 2593   1.049   0.290   1.052 -0.5891  0.2293 -0.2792
  865SOL    HW1 2594   1.146   0.249   1.050  2.7558 -2.2494 -0.4207
  865SOL    HW2 2595   0.995   0.241   0.980  0.2139  1.2132 -1.4351
  866SOL     OW 2596   2.667   2.824   0.716 -0.1336 -0.4481  0.0948
  866SOL    HW1 2597   2.705   2.849   0.622 -0.2825  0.3146  0.9234
  866SOL    HW2 2598   2.705   2.737   0.747  1.1421  1.1944 -1.4243
  867SOL     OW 2599   2.735   2.562   0.771  0.8952  0.4075 -0.0875
  867SOL    HW1 2600   2.733   2.505   0.854 -1.3313  1.2603 -3.1692
  867SOL    HW2 2601   2.695   2.504   0.695 -0.2753 -1.6824  0.2634
  868SOL     OW 2602   1.191   2.156   2.261  0.8440 -0.3466  0.4689
  868SOL    HW1 2603   1.175   2.071   2.209 -0.1087  2.4675 -0.0762
  868SOL    HW2 2604   1.177   2.233   2.197  0.7347 -2.7652  0.7080
  869SOL     OW 2605   2.089   1.710   0.396  0.7607 -0.7272  0.1888
  869SOL    HW1 2606   2.021   1.670   0.331  0.8923  0.4894 -3.0220
  869SOL    HW2 2607   2.177   1.712   0.349 -2.2171 -1.7933  3.4477
  870SOL     OW 2608   2.449   2.109   0.609 -0.2285  0.0466  0.0746
  870SOL    HW1 2609   2.379   2.123   0.530 -2.5039  0.7764  2.2094
  870SOL    HW2 2610   2.437   2.028   0.669  0.5397 -0.7833 -0.8258
  871SOL     OW 2611   3.021   1.125   1.367 -0.4080 -0.1307 -0.4593
  871SOL    HW1 2612   3.094   1.185   1.403 -0.8722  0.7323  2.1353
  871SOL    HW2 2613   3.017   1.038   1.417  0.0907 -0.5648 -1.4289
  872SOL     OW 2614   0.677   1.766   2.457  0.3239 -0.0623  0.1695
  872SOL    HW1 2615   0.686   1.817   2.369  0.1650 -0.3281  0.0853
  872SOL    HW2 2616   0.587   1.794   2.501 -1.9946  0.8829  2.1373
  873SOL     OW 2617   0.278   2.742   1.945 -0.2431 -0.2051  0.0232
  873SOL    HW1 2618   0.315   2.644   1.942 -0.5407  0.5652  1.3043
  873SOL    HW2 2619   0.182   2.734   1.978  1.0626 -1.5510  0.3954
  874SOL     OW 2620   1.162   0.919   2.103 -0.4684  0.0860  0.3631
  874SOL    HW1 2621   1.190   1.015   2.083 -1.5252 -2.8075 -1.1992
  874SOL    HW2 2622   1.202   0.857   2.032  0.9099  0.0299  0.9831
  875SOL     OW 2623   2.616   2.659   1.314 -0.1684  0.4792  0.0920
  875SOL    HW1 2624   2.712   2.686   1.330  0.8793 -1.6463 -0.2728
  875SOL    HW2 2625   2.551   2.738   1.324 -1.2304  1.2519 -0.8922
  876SOL     OW 2626   1.009   1.247   1.062  0.0404  0.2025 -0.3958
  876SOL    HW1 2627   1.053   1.193   1.140 -0.2106  1.0388 -1.1458
  876SOL    HW2 2628   1.041   1.213   0.973  2.6152 -1.1483  1.7274
  877SOL     OW 2629   0.323   0.189   1.275 -0.6871  0.0237 -0.7201
  877SOL    HW1 2630   0.295   0.236   1.194  1.0396 -1.7444  1.7087
  877SOL    HW2 2631   0.416   0.148   1.254 -0.7580 -1.3201 -0.6919
  878SOL     OW 2632   2.562   1.647   2.743 -0.2678  0.5537  0.2172
  878SOL    HW1 2633   2.534   1.677   2.837  2.3287  0.5929 -0.2780
  878SOL    HW2 2634   2.605   1.553   2.749 -0.0013  1.0769  0.9038
  879SOL     OW 2635   2.618   1.929   1.265  0.3515  0.7756 -0.1438
  879SOL    HW1 2636   2.595   2.015   1.222 -0.7918 -1.3231  1.0466
  879SOL    HW2 2637   2.714   1.938   1.302  0.8753 -1.2126 -2.0265
  880SOL     OW 2638   0.959   2.135   1.136 -0.0954 -0.6026  0.3264
  880SOL    HW1 2639   0.968   2.198   1.220  1.3567 -0.9602  0.2014
  880SOL    HW2 2640   1.052   2.099   1.103  1.4169  1.4209 -0.5101
  881SOL     OW 2641   1.501   1.742   1.193  0.1352  0.3758  0.2370
  881SOL    HW1 2642   1.453   1.653   1.208  2.8091  1.4059  0.4257
  881SOL    HW2 2643   1.596   1.738   1.227  1.4441  2.0270 -0.2881
  882SOL     OW 2644   2.265   1.132   2.585 -0.0336 -0.0920 -0.0967
  882SOL    HW1 2645   2.253   1.228   2.612 -0.1955 -2.6699 -0.5265
  882SOL    HW2 2646   2.276   1.128   2.484  0.9522 -1.7397  0.8608
  883SOL     OW 2647   1.331   0.316   0.864 -0.5929  0.1724 -0.6504
  883SOL    HW1 2648   1.256   0.374   0.825  0.3745  0.3087  0.5313
  883SOL    HW2 2649   1.309   0.218   0.855  1.0755  2.3876  3.3085
  884SOL     OW 2650   2.841   2.998   0.941 -0.0697 -0.3466 -0.6395
  884SOL    HW1 2651   2.913   3.073   0.966  0.5358 -0.3349  1.2954
  884SOL    HW2 2652   2.753   3.027   0.981  2.0814 -0.7416  2.3717
  885SOL     OW 2653   1.245   1.158   1.505  0.2107  0.3527  0.5880
  885SOL    HW1 2654   1.211   1.145   1.599 -0.3122  1.2469 -0.7894
  885SOL    HW2 2655   1.346   1.149   1.501 -1.3634  0.0786  0.8552
  886SOL     OW 2656   1.148   0.891   2.871  0.0347 -0.5301  0.0550
  886SOL    HW1 2657   1.049   0.920   2.868 -2.9080  1.3287  1.0287
  886SOL    HW2 2658   1.203   0.914   2.789  0.8509  1.6304  0.4319
  887SOL     OW 2659   1.579   0.227   0.795  0.1761  0.3153  0.3947
  887SOL    HW1 2660   1.487   0.254   0.833 -0.0263  1.8196  0.3630
  887SOL    HW2 2661   1.646   0.209   0.876  0.4721 -1.1984  3.9323
  888SOL     OW 2662   2.136   1.377   1.853 -0.3038 -0.2743  0.1636
  888SOL    HW1 2663   2.187   1.467   1.850 -1.8628 -3.4206 -1.4080
  888SOL    HW2 2664   2.196   1.294   1.871 -0.8724  1.0383 -0.5765
  889SOL     OW 2665   3.060   2.032   1.187  0.0596  0.2469 -0.1844
  889SOL    HW1 2666   3.038   2.064   1.093  1.6350  2.5764  3.1460
  889SOL    HW2 2667   2.985   2.035   1.254 -1.1587 -0.1676 -2.7410
  890SOL     OW 2668   1.233   2.176   0.602 -0.4340 -0.3875  0.3946
  890SOL    HW1 2669   1.335   2.176   0.578 -1.8360 -1.0779  2.5305
  890SOL    HW2 2670   1.185   2.117   0.532  0.3431 -0.7570  0.2052
  891SOL     OW 2671   2.441   0.639   2.339 -0.6342 -0.0381 -0.0233
  891SOL    HW1 2672   2.503   0.686   2.408 -0.3937 -0.4782  0.0653
  891SOL    HW2 2673   2.459   0.538   2.326 -1.8735  0.1693  0.7337
  892SOL     OW 2674   0.218   2.611   1.438 -0.2710  0.2373  0.5379
  892SOL    HW1 2675   0.242   2.632   1.339  0.8298 -0.8563 -1.8916
  892SOL    HW2 2676   0.245   2.682   1.504 -1.6312  2.7172 -1.2157
  893SOL     OW 2677   1.070   0.322   2.414  0.5891 -0.0934 -0.1494
  893SOL    HW1 2678   1.036   0.364   2.505 -2.6552  2.0508  1.5549
  893SOL    HW2 2679   1.147   0.377   2.376 -3.1996  1.0887 -0.7444
  894SOL     OW 2680   2.655   0.236   0.821 -0.0397 -0.1433  0.2878
  894SOL    HW1 2681   2.713   0.220   0.900  0.4095 -0.1768 -1.1245
  894SOL    HW2 2682   2.700   0.289   0.749  0.6650  2.7721  1.9719
  895SOL     OW 2683   1.655   1.904   2.348  0.5468  0.3102  0.3336
  895SOL    HW1 2684   1.657   1.815   2.397  0.2097  2.1863  2.4666
  895SOL    HW2 2685   1.561   1.944   2.348  0.6023  1.4802 -0.8226
  896SOL     OW 2686   1.637   0.483   1.477 -0.1915 -0.4575  0.3911
  896SOL    HW1 2687   1.667   0.388   1.456  1.5261  0.9804  0.9557
  896SOL    HW2 2688   1.536   0.497   1.469  1.4808 -0.6421  0.4247
  897SOL     OW 2689   0.819   1.725   1.807 -0.3094 -0.3078  0.4663
  897SOL    HW1 2690   0.902   1.706   1.860 -1.9534  2.8149  0.4724
  897SOL    HW2 2691   0.807   1.660   1.730 -2.3094 -0.9139 -1.0391
  898SOL     OW 2692   1.693   1.927   2.095  0.0071 -0.0739  0.0542
  898SOL    HW1 2693   1.648   2.013   2.070  0.1542 -0.6231 -0.9051
  898SOL    HW2 2694   1.699   1.927   2.197 -1.6919  1.3901 -0.1702
  899SOL     OW 2695   2.084   2.176   0.841 -0.1067  0.4147  0.1114
  899SOL    HW1 2696   2.171   2.204   0.891 -1.3397  0.3835  1.6179
  899SOL    HW2 2697   2.053   2.082   0.875 -1.4582 -1.3402 -0.5365
  900SOL     OW 2698   1.073   0.118   2.668 -0.3203  0.3885 -0.1561
  900SOL    HW1 2699   1.108   0.023   2.679 -1.3591  0.5615  1.1828
  900SOL    HW2 2700   1.036   0.157   2.756 -0.5042 -1.8178  0.7851
  901SOL     OW 2701   1.270   1.535   2.312  0.2059 -0.8119 -0.3959
  901SOL    HW1 2702   1.220   1.622   2.309 -0.5977 -0.2085  0.7466
  901SOL    HW2 2703   1.359   1.553   2.266 -1.7285 -2.9184 -0.2119
  902SOL     OW 2704   2.219   0.501   3.080  0.7538 -0.6275 -1.0353
  902SOL    HW1 2705   2.194   0.580   3.016 -2.4984  1.5018 -3.1484
  902SOL    HW2 2706   2.193   0.516   0.080 -1.0119  0.0522 -0.4274
  903SOL     OW 2707   1.992   0.837   2.333 -0.1792 -0.1418 -0.3078
  903SOL    HW1 2708   1.938   0.773   2.276  0.6984 -0.1780  2.2526
  903SOL    HW2 2709   2.087   0.817   2.304 -0.9410  0.5783  0.6456
  904SOL     OW 2710   1.967   1.115   1.576 -0.3525 -0.0388 -0.3579
  904SOL    HW1 2711   1.929   1.029   1.545  1.3112  2.9527  0.9374
  904SOL    HW2 2712   2.050   1.101   1.636  0.9330  0.5219 -1.2547
  905SOL     OW 2713   2.241   0.613   0.777  0.1251 -0.7276  0.2558
  905SOL    HW1 2714   2.325   0.570   0.740 -0.7893 -0.2980 -1.9982
  905SOL    HW2 2715   2.224   0.588   0.872 -1.2137 -2.0944  0.7465
  906SOL     OW 2716   2.676   1.694   0.406 -0.0535 -0.1738  0.3421
  906SOL    HW1 2717   2.765   1.646   0.411 -0.8065  2.5399 -1.0541
  906SOL    HW2 2718   2.676   1.773   0.343  0.6886 -2.9775  1.2955
  907SOL     OW 2719   1.511   2.920   0.552 -0.4055  0.2438  0.4821
  907SOL    HW1 2720   1.609   2.894   0.564  0.4928 -2.2302 -0.6347
  907SOL    HW2 2721   1.502   3.020   0.552 -1.4536 -0.6184  1.2615
  908SOL     OW 2722   1.546   2.173   2.131 -0.2485 -0.3884  0.5619
  908SOL    HW1 2723   1.529   2.274   2.126 -1.5724 -0.5490  1.5479
  908SOL    HW2 2724   1.526   2.140   2.224  0.7275 -0.6889  1.8133
  909SOL     OW 2725   2.209   0.584   2.094  0.1664  0.5132  0.3284
  909SOL    HW1 2726   2.277   0.654   2.134  2.5416  3.2561  3.7443
  909SOL    HW2 2727   2.112   0.615   2.093  0.6141  1.2011  0.2386
  910SOL     OW 2728   1.322   0.163   2.557  0.9643 -0.5191 -0.0360
  910SOL    HW1 2729   1.228   0.150   2.587  0.6211  0.3830 -1.7334
  910SOL    HW2 2730   1.381   0.090   2.595 -0.9350 -1.1629  0.3250
  911SOL     OW 2731   2.518   1.039   2.840 -0.0622 -0.0063  0.2749
  911SOL    HW1 2732   2.436   0.979   2.855  1.6941  0.7559 -0.7247
  911SOL    HW2 2733   2.575   1.059   2.927 -3.5513  2.0753  2.7967
  912SOL     OW 2734   3.035   2.257   1.415  0.6216 -0.1163 -0.2185
  912SOL    HW1 2735   2.936   2.275   1.389 -2.5141 -0.7959 -0.3862
  912SOL    HW2 2736   3.039   2.206   1.505  3.0577 -1.6419 -1.4742
  913SOL     OW 2737   2.718   1.886   2.344 -0.2223 -0.0548 -0.1675
  913SOL    HW1 2738   2.753   1.834   2.426  0.2604  0.2922  0.8863
  913SOL    HW2 2739   2.627   1.929   2.369 -0.4302  1.4643  1.4959
  914SOL     OW 2740   2.273   1.612   0.615  0.4529  0.0352  0.3962
  914SOL    HW1 2741   2.249   1.643   0.518 -1.5274  2.0199 -0.0555
  914SOL    HW2 2742   2.186   1.593   0.668 -1.7347  1.5864 -0.4974
  915SOL     OW 2743   0.330   2.848   2.209  0.1219 -0.8257 -0.2413
  915SOL    HW1 2744   0.347   2.770   2.274  0.9541 -1.5938  1.9237
  915SOL    HW2 2745   0.328   2.806   2.116  1.3073  2.0644 -1.7382
  916SOL     OW 2746   0.571   2.437   0.924 -0.4074 -0.2501 -1.0576
  916SOL    HW1 2747   0.535   2.375   0.999  3.3575  0.1647 -0.8574
  916SOL    HW2 2748   0.511   2.516   0.912 -1.5598 -1.4128  0.2146
  917SOL     OW 2749   2.291   0.703   2.697  0.3854  0.1207 -0.1788
  917SOL    HW1 2750   2.243   0.792   2.714  0.5475 -2.5706 -0.2486
  917SOL    HW2 2751   2.370   0.713   2.636 -2.5389 -1.0187 -0.1675
  918SOL     OW 2752   1.488   2.398   2.614  0.7183  0.6451  0.6558
  918SOL    HW1 2753   1.443   2.371   2.698  0.6051 -0.0687 -0.7274
  918SOL    HW2 2754   1.573   2.346   2.604 -0.4837 -2.4515  0.5247
  919SOL     OW 2755   1.743   2.275   1.097  0.4917 -0.1515  0.0016
  919SOL    HW1 2756   1.765   2.240   1.006 -2.4541  1.1085  1.2762
  919SOL    HW2 2757   1.645   2.266   1.114  2.3528 -1.9955 -0.4093
  920SOL     OW 2758   1.346   0.107   2.300  1.1743 -0.0050 -0.0841
  920SOL    HW1 2759   1.364   0.160   2.387  0.3658 -1.7849  0.7367
  920SOL    HW2 2760   1.384   0.010   2.301  2.3662 -0.0657 -1.6020
  921SOL     OW 2761   0.196   0.545   2.575  0.0984  0.4899  0.3052
  921SOL    HW1 2762   0.266   0.614   2.560  2.1551 -1.1380 -1.6043
  921SOL    HW2 2763   0.179   0.497   2.489  0.0172 -0.2305  1.0061
  922SOL     OW 2764   2.868   1.990   1.362 -0.2935 -0.1939  0.0344
  922SOL    HW1 2765   2.857   1.916   1.433  1.6054 -1.8378  1.1258
  922SOL    HW2 2766   2.834   2.080   1.400 -0.6889  2.4685 -0.1562
  923SOL     OW 2767   0.055   1.615   2.422 -0.1682  0.0152 -0.0985
  923SOL    HW1 2768   0.058   1.638   2.320 -0.8894  1.3496  0.0238
  923SOL    HW2 2769   3.077   1.551   2.437  1.5502  1.3156  1.7585
  924SOL     OW 2770   1.527   0.248   2.142 -0.0921  0.2131  0.1338
  924SOL    HW1 2771   1.581   0.173   2.095 -1.2056  0.5154  1.6887
  924SOL    HW2 2772   1.463   0.194   2.196  0.1885 -2.2024  0.2142
  925SOL     OW 2773   0.028   1.244   0.602  0.2861  0.1819 -0.1717
  925SOL    HW1 2774   0.125   1.227   0.624 -2.0613 -0.0739 -1.2469
  925SOL    HW2 2775   3.068   1.160   0.625 -3.5368 -1.0257  1.3056
  926SOL     OW 2776   2.239   0.376   1.255 -0.1467  0.0082  0.8421
  926SOL    HW1 2777   2.321   0.326   1.222 -1.7677  0.5139  1.5377
  926SOL    HW2 2778   2.254   0.424   1.341  1.8507 -2.2764 -0.9415
  927SOL     OW 2779   1.589   0.750   1.109 -0.0114  0.6073  0.5095
  927SOL    HW1 2780   1.598   0.743   1.008  1.2971  0.5033  1.2543
  927SOL    HW2 2781   1.518   0.686   1.142  1.9839  0.3060  0.3631
  928SOL     OW 2782   2.958   0.545   2.416  0.0354  0.0764 -0.4149
  928SOL    HW1 2783   2.920   0.582   2.505  2.5892  1.1757 -0.4069
  928SOL    HW2 2784   3.013   0.619   2.371 -0.8254 -0.7933  0.6613
  929SOL     OW 2785   2.370   0.740   1.052 -0.2754  0.1730  0.3747
  929SOL    HW1 2786   2.302   0.672   1.024  0.3484 -0.5389  0.5106
  929SOL    HW2 2787   2.331   0.833   1.027 -2.5848  0.9598 -1.6006
  930SOL     OW 2788   1.901   2.489   1.037 -0.3332  0.0010 -0.2899
  930SOL    HW1 2789   1.835   2.411   1.044  2.1942  1.7013  0.4806
  930SOL    HW2 2790   1.855   2.572   0.996 -1.3099  1.3737 -0.2613
  931SOL     OW 2791   1.926   1.142   1.108 -0.0515 -0.1376 -0.3459
  931SOL    HW1 2792   1.829   1.110   1.120 -1.1439  2.0924  1.6495
  931SOL    HW2 2793   1.933   1.179   1.012 -1.6246 -0.0431 -4.6704
  932SOL     OW 2794   3.021   0.910   1.561 -0.2228 -0.2357  0.2543
  932SOL    HW1 2795   2.938   0.849   1.562 -0.3782 -0.7958 -1.2039
  932SOL    HW2 2796   0.010   0.861   1.584 -1.5299  0.7339  0.4350
  933SOL     OW 2797   1.767   1.577   2.107  0.2137  0.0803  0.1342
  933SOL    HW1 2798   1.823   1.513   2.050  2.2638 -0.7065  0.3051
  933SOL    HW2 2799   1.768   1.670   2.067 -1.8836 -3.5997 -0.0287
  934SOL     OW 2800   1.637   2.892   1.911 -0.0677  0.0608  0.3461
  934SOL    HW1 2801   1.668   2.895   1.815 -1.3699  0.8077  0.8307
  934SOL    HW2 2802   1.535   2.898   1.926  0.6962 -3.7742 -0.4913
  935SOL     OW 2803   3.085   0.940   1.130 -0.0368  0.0860 -0.0262
  935SOL    HW1 2804   0.071   0.992   1.160 -0.4703  0.6481 -1.3563
  935SOL    HW2 2805   3.038   0.877   1.195 -0.6925 -2.0813 -1.4380
  936SOL     OW 2806   2.781   0.775   1.503  0.0761 -0.2764 -0.0584
  936SOL    HW1 2807   2.702   0.715   1.483  1.1440  0.6519 -0.0990
  936SOL    HW2 2808   2.790   0.837   1.425 -1.3899 -1.9143 -0.0884
  937SOL     OW 2809   0.830   0.251   1.360  0.4274  0.4920 -0.3730
  937SOL    HW1 2810   0.882   0.330   1.326  0.0259 -1.5070 -0.1168
  937SOL    HW2 2811   0.745   0.276   1.410  0.6788  0.6820  0.7862
  938SOL     OW 2812   0.301   2.575   0.921  0.2491 -0.1577  0.3653
  938SOL    HW1 2813   0.229   2.503   0.921 -0.8748 -0.9256 -0.7302
  938SOL    HW2 2814   0.290   2.635   0.839  1.5252 -0.3916  2.1932
  939SOL     OW 2815   3.032   2.381   2.810  0.5210 -0.6665 -0.0836
  939SOL    HW1 2816   3.067   2.349   2.718 -0.3287 -1.4070 -0.4260
  939SOL    HW2 2817   3.010   2.484   2.803  1.3196 -0.2361 -0.7534
  940SOL     OW 2818   1.813   1.853   0.077  0.5039 -0.6713 -0.1849
  940SOL    HW1 2819   1.875   1.879   0.004 -0.5886 -2.6674  0.1673
  940SOL    HW2 2820   1.724   1.817   0.041 -1.1317 -0.8564  1.2601
  941SOL     OW 2821   1.785   2.693   0.670  0.1917 -0.2593 -0.1750
  941SOL    HW1 2822   1.735   2.626   0.613  0.8131 -0.4361  0.6623
  941SOL    HW2 2823   1.789   2.784   0.624 -1.8728  0.1624  0.0071
  942SOL     OW 2824   2.129   1.530   1.027 -0.1063 -0.3008 -0.3020
  942SOL    HW1 2825   2.183   1.506   0.948  2.6509  1.3940  2.7770
  942SOL    HW2 2826   2.164   1.464   1.095 -1.1183  1.3338  3.1380
  943SOL     OW 2827   2.027   0.661   1.722  0.5233 -0.1583 -0.0004
  943SOL    HW1 2828   1.933   0.625   1.716 -0.2207 -0.4128  0.3405
  943SOL    HW2 2829   2.088   0.591   1.686 -0.3509  2.9527  3.1631
  944SOL     OW 2830   1.396   0.834   1.729 -0.7757  0.0344  0.9066
  944SOL    HW1 2831   1.349   0.922   1.756  0.8846 -0.9412  2.5473
  944SOL    HW2 2832   1.401   0.812   1.625 -2.4092 -0.4066  0.1253
  945SOL     OW 2833   2.416   2.841   1.414  0.3766  0.1196 -0.0235
  945SOL    HW1 2834   2.409   2.922   1.351 -1.2219  1.9476  1.6503
  945SOL    HW2 2835   2.418   2.876   1.509  0.2539  0.9436 -0.5430
  946SOL     OW 2836   0.772   1.850   0.690  0.4116  0.2143 -0.0641
  946SOL    HW1 2837   0.808   1.756   0.681  2.0234  1.4107 -0.3951
  946SOL    HW2 2838   0.836   1.905   0.742 -0.3524 -1.9846  0.1354
  947SOL     OW 2839   1.067   2.522   1.079  0.4210 -0.3283 -0.3912
  947SOL    HW1 2840   1.098   2.612   1.041 -2.3727  0.9299 -0.1752
  947SOL    HW2 2841   0.969   2.509   1.061 -3.6589  0.2483 -0.2314
  948SOL     OW 2842   0.399   1.542   1.707 -0.7613  0.4670 -0.8394
  948SOL    HW1 2843   0.491   1.496   1.681 -0.8183 -1.0715  1.2077
  948SOL    HW2 2844   0.354   1.583   1.621  1.2000  1.3125 -1.1530
  949SOL     OW 2845   0.581   0.850   1.646  0.2966  0.5639  0.0898
  949SOL    HW1 2846   0.672   0.814   1.632  0.1608  0.3903 -1.9396
  949SOL    HW2 2847   0.555   0.851   1.741  3.1142  0.9166  0.6399
  950SOL     OW 2848   0.288   0.630   1.182  0.2185 -0.5486  0.6905
  950SOL    HW1 2849   0.199   0.618   1.232  1.0321 -0.2059 -0.5665
  950SOL    HW2 2850   0.321   0.726   1.172  0.3401 -0.8369  1.1476
  951SOL     OW 2851   0.939   2.153   2.068  0.3647 -0.7157 -0.0619
  951SOL    HW1 2852   0.994   2.068   2.071 -0.6409 -1.1493  0.2985
  951SOL    HW2 2853   1.003   2.231   2.056 -0.7791  0.5550 -2.8666
  952SOL     OW 2854   1.277   1.519   0.086 -0.5290 -0.1677 -0.1480
  952SOL    HW1 2855   1.280   1.547   0.186  0.9873  0.7590  2.8578
  952SOL    HW2 2856   1.336   1.436   0.068  2.5747 -2.6036  1.9553
  953SOL     OW 2857   1.055   2.951   2.774 -0.1853  0.4099 -0.5344
  953SOL    HW1 2858   0.955   2.951   2.775  2.2260 -0.7365  0.4223
  953SOL    HW2 2859   1.096   2.891   2.697 -3.3381  0.2844 -2.4967
  954SOL     OW 2860   1.714   1.495   0.190  0.2116 -0.2244  0.3491
  954SOL    HW1 2861   1.691   1.428   0.262 -0.7998 -1.0577  2.3373
  954SOL    HW2 2862   1.808   1.530   0.208 -1.1005  0.3694 -2.2131
  955SOL     OW 2863   0.137   2.677   2.967 -0.3708  0.4544  0.0899
  955SOL    HW1 2864   0.117   2.757   3.022 -0.9272  0.4084  0.0912
  955SOL    HW2 2865   0.130   2.708   2.865 -2.8006  1.0479 -1.2390
  956SOL     OW 2866   1.351   0.758   1.476  0.3913 -0.0711  0.2542
  956SOL    HW1 2867   1.349   0.658   1.444  0.6175 -3.7115 -0.8741
  956SOL    HW2 2868   1.265   0.808   1.445 -1.8844 -0.8289 -0.5323
  957SOL     OW 2869   1.561   1.776   1.889  0.4018  0.2242  0.0761
  957SOL    HW1 2870   1.570   1.834   1.974 -0.2987  1.6296 -2.2385
  957SOL    HW2 2871   1.533   1.833   1.811  0.5554 -1.1205 -2.1376
  958SOL     OW 2872   1.177   2.156   1.427 -0.1793  0.6188  0.1187
  958SOL    HW1 2873   1.282   2.157   1.445  1.4181 -0.0951  2.7909
  958SOL    HW2 2874   1.153   2.240   1.374  1.4671  1.7742  0.8331
  959SOL     OW 2875   1.490   1.115   1.004  0.2660  0.3751  0.4228
  959SOL    HW1 2876   1.575   1.058   1.029  0.0954  0.5869 -1.0569
  959SOL    HW2 2877   1.404   1.072   1.032  1.4590 -2.2464  0.9642
  960SOL     OW 2878   0.221   1.496   2.951  0.4834 -0.1510  0.1380
  960SOL    HW1 2879   0.308   1.494   2.998  1.4252  1.5284 -1.0330
  960SOL    HW2 2880   0.214   1.430   2.869  0.6369 -1.0627 -0.1271
  961SOL     OW 2881   0.719   1.386   1.888  0.3099  0.1933 -0.3470
  961SOL    HW1 2882   0.678   1.462   1.946  0.0748  2.0647  1.2235
  961SOL    HW2 2883   0.818   1.402   1.865 -1.0185 -1.0043  3.3063
  962SOL     OW 2884   1.377   1.909   0.757  0.4228  0.1577  0.3941
  962SOL    HW1 2885   1.459   1.918   0.696 -1.6829 -1.5697  1.8603
  962SOL    HW2 2886   1.335   1.815   0.743  3.5970 -0.3094  0.5271
  963SOL     OW 2887   1.449   2.026   2.637 -0.5867 -0.0779  0.1730
  963SOL    HW1 2888   1.384   2.093   2.676  2.1195 -1.7124  0.4350
  963SOL    HW2 2889   1.512   1.990   2.702 -0.1960 -0.4933 -0.1829
  964SOL     OW 2890   0.729   0.177   0.457 -0.3504  0.1152  0.6010
  964SOL    HW1 2891   0.682   0.202   0.543  3.6107 -2.5152  1.6225
  964SOL    HW2 2892   0.719   0.078   0.439  1.0623 -0.6465  2.2096
  965SOL     OW 2893   0.794   2.548   0.989  0.2650  0.4777 -0.6230
  965SOL    HW1 2894   0.706   2.502   0.958 -2.3205  0.8091 -0.7680
  965SOL    HW2 2895   0.835   2.600   0.909  0.5173  2.4195  0.3521
  966SOL     OW 2896   0.458   1.805   2.818  0.0629  0.2789 -0.4161
  966SOL    HW1 2897   0.465   1.836   2.719  2.8444 -0.4319 -1.0376
  966SOL    HW2 2898   0.367   1.823   2.863 -1.0000 -0.0440 -1.3447
  967SOL     OW 2899   0.177   3.043   2.551  0.0215  0.3394  0.2617
  967SOL    HW1 2900   0.185   0.031   2.604 -0.9926  2.6741  1.2884
  967SOL    HW2 2901   0.250   3.045   2.478  0.0638 -0.0173  0.3705
  968SOL     OW 2902   2.168   0.577   0.233  1.1102 -0.5261  0.2344
  968SOL    HW1 2903   2.170   0.619   0.329 -3.0063 -1.0304  0.4215
  968SOL    HW2 2904   2.078   0.603   0.192  0.2170 -1.4100  3.1401
  969SOL     OW 2905   0.108   1.498   1.935  0.2943 -0.1160  0.0179
  969SOL    HW1 2906   0.034   1.444   1.889 -0.0646 -2.0713  0.6216
  969SOL    HW2 2907   0.170   1.545   1.870 -0.0712 -1.3710 -1.9070
  970SOL     OW 2908   2.610   1.379   1.615 -0.1631 -0.6279  0.1385
  970SOL    HW1 2909   2.708   1.400   1.639  1.5161  1.6962 -0.4334
  970SOL    HW2 2910   2.607   1.333   1.526 -0.3018 -1.7852 -2.4068
  971SOL     OW 2911   2.025   0.222   1.150  0.3858 -0.1311  0.2777
  971SOL    HW1 2912   2.083   0.285   1.205 -4.5094 -3.3657 -0.1376
  971SOL    HW2 2913   2.084   0.182   1.075  0.9880 -0.9346  0.8753
  972SOL     OW 2914   0.198   3.028   1.907  0.0465  0.2968  0.3461
  972SOL    HW1 2915   0.248   2.943   1.929 -0.8984  1.6614 -0.2810
  972SOL    HW2 2916   0.178   3.026   1.807  0.3158 -0.6843  2.6212
  973SOL     OW 2917   3.079   0.603   0.175 -0.4708  0.5644  0.1289
  973SOL    HW1 2918   3.022   0.684   0.154  1.7539  0.8648  0.1509
  973SOL    HW2 2919   0.021   0.561   0.090  2.5378  0.7718  0.3536
  974SOL     OW 2920   1.881   1.464   2.334 -0.5721 -0.0933 -0.4000
  974SOL    HW1 2921   1.952   1.401   2.293  1.2934  0.8540  0.4744
  974SOL    HW2 2922   1.843   1.526   2.259 -0.6637  1.2114  1.1184
  975SOL     OW 2923   0.079   2.996   1.635  0.1032 -0.5522 -0.4214
  975SOL    HW1 2924   0.116   3.055   1.558 -1.6428  1.6856 -1.4947
  975SOL    HW2 2925   0.094   2.898   1.616 -0.1100  0.5315  0.0689
  976SOL     OW 2926   0.328   2.070   2.173  0.0213 -0.0048 -0.3401
  976SOL    HW1 2927   0.311   2.169   2.178 -1.3723 -2.7367 -0.3914
  976SOL    HW2 2928   0.363   2.038   2.082 -1.5882 -1.5656  2.5899
  977SOL     OW 2929   1.053   2.805   0.447 -0.1336 -0.6863  0.1272
  977SOL    HW1 2930   1.131   2.791   0.511  0.6658  0.3414  0.4772
  977SOL    HW2 2931   0.990   2.725   0.447  0.1937 -0.1941 -0.8803
  978SOL     OW 2932   0.429   1.865   2.548 -1.0637 -0.1577  0.1539
  978SOL    HW1 2933   0.429   1.968   2.554 -0.8997 -0.3251  3.5923
  978SOL    HW2 2934   0.384   1.837   2.462  1.0820  1.0293 -0.1918
  979SOL     OW 2935   1.639   2.303   1.621  0.4597 -0.4802  0.4116
  979SOL    HW1 2936   1.623   2.393   1.665 -2.6470  0.9062  1.9038
  979SOL    HW2 2937   1.701   2.323   1.540  0.8023  1.8395 -1.1611
  980SOL     OW 2938   0.841   1.738   2.681 -0.4384 -0.4736 -0.0042
  980SOL    HW1 2939   0.794   1.732   2.589 -1.3644 -3.9554  1.5868
  980SOL    HW2 2940   0.781   1.710   2.756  1.5788  0.6672 -1.9071
  981SOL     OW 2941   2.465   3.014   2.301 -0.2615 -0.2771  0.1384
  981SOL    HW1 2942   2.476   3.023   2.198 -1.7973 -2.0786  0.3013
  981SOL    HW2 2943   2.554   2.986   2.349  1.1442  0.2132 -1.0155
  982SOL     OW 2944   2.940   0.404   2.984  0.0237  0.0948  0.9774
  982SOL    HW1 2945   2.848   0.444   2.990  2.6071 -1.4225  2.2935
  982SOL    HW2 2946   3.004   0.465   2.936 -0.6146  1.9909 -1.1347
  983SOL     OW 2947   1.906   1.385   1.982  0.1921  0.0379  0.3495
  983SOL    HW1 2948   1.999   1.372   1.941 -0.3643  2.4688  1.7212
  983SOL    HW2 2949   1.852   1.299   2.010 -2.1385 -2.6283  3.8520
  984SOL     OW 2950   1.419   0.540   1.703  0.2944 -0.4475  0.3710
  984SOL    HW1 2951   1.461   0.510   1.789 -2.1496 -0.0396  0.2134
  984SOL    HW2 2952   1.410   0.638   1.697  0.6323 -0.6387  0.9457
  985SOL     OW 2953   1.628   1.449   1.579  0.1122  0.0799 -0.2012
  985SOL    HW1 2954   1.578   1.537   1.563  1.8608 -2.6541  0.1454
  985SOL    HW2 2955   1.709   1.442   1.522 -0.8772 -0.7060  1.8932
  986SOL     OW 2956   1.874   0.374   1.746 -0.3360  0.5521  0.2813
  986SOL    HW1 2957   1.912   0.394   1.837  0.0284  0.6835  0.9011
  986SOL    HW2 2958   1.811   0.448   1.721  0.5069 -1.9484 -2.0093
  987SOL     OW 2959   2.143   0.410   1.629 -0.2810  0.2620  0.4219
  987SOL    HW1 2960   2.043   0.385   1.607  0.4390 -0.1728  2.2524
  987SOL    HW2 2961   2.181   0.338   1.697 -0.1260 -1.3619  1.4970
  988SOL     OW 2962   2.782   0.750   2.096 -0.0258 -0.2154  0.3255
  988SOL    HW1 2963   2.749   0.666   2.044 -3.9262 -2.1007 -0.3817
  988SOL    HW2 2964   2.843   0.731   2.170  0.0903  1.0256 -0.2066
  989SOL     OW 2965   2.005   1.962   3.006 -0.2121  0.0370  0.2971
  989SOL    HW1 2966   1.977   1.994   2.914 -0.0811 -0.1344  2.8898
  989SOL    HW2 2967   2.003   2.042   3.071  1.3319 -0.0659  1.0654
  990SOL     OW 2968   1.343   0.339   2.761 -0.6556 -0.0725  0.6644
  990SOL    HW1 2969   1.349   0.295   2.668 -0.2700 -1.0184 -1.2647
  990SOL    HW2 2970   1.280   0.420   2.762  0.9347  3.3370 -1.0248
  991SOL     OW 2971   1.127   0.777   0.413  0.1762 -0.5752  0.1702
  991SOL    HW1 2972   1.199   0.847   0.427  0.3712  0.7472  0.2744
  991SOL    HW2 2973   1.151   0.718   0.334 -0.9858 -1.0859  0.0796
  992SOL     OW 2974   2.344   1.789   2.701  0.4018  0.1337  0.1658
  992SOL    HW1 2975   2.430   1.732   2.703  0.5701 -0.7875 -0.7668
  992SOL    HW2 2976   2.344   1.850   2.785  1.1277 -1.0199 -1.2754
  993SOL     OW 2977   0.418   0.305   0.372 -0.1212  0.1867 -0.0421
  993SOL    HW1 2978   0.454   0.237   0.439 -0.2007  0.4420  0.4683
  993SOL    HW2 2979   0.349   0.370   0.411  0.1184  0.0164 -2.3199
  994SOL     OW 2980   0.332   1.816   2.284 -0.2011 -0.5072  0.5554
  994SOL    HW1 2981   0.239   1.782   2.259 -0.2153 -0.2012 -1.4728
  994SOL    HW2 2982   0.335   1.911   2.245 -0.2640 -0.3112 -1.8620
  995SOL     OW 2983   1.861   1.451   2.894 -0.6061  0.2497  0.1429
  995SOL    HW1 2984   1.834   1.534   2.845 -2.5343 -2.0717 -0.5663
  995SOL    HW2 2985   1.927   1.396   2.838  1.0110  0.0535 -1.1439
  996SOL     OW 2986   1.775   1.704   2.797  0.0014  0.3922 -0.2662
  996SOL    HW1 2987   1.836   1.754   2.730  0.6074 -0.2792 -0.1356
  996SOL    HW2 2988   1.688   1.759   2.813 -0.9078  3.3338  2.2122
  997SOL     OW 2989   2.185   1.491   1.445  0.1377 -0.0630  0.3028
  997SOL    HW1 2990   2.232   1.441   1.521  4.4877 -3.6208  1.3117
  997SOL    HW2 2991   2.154   1.582   1.478 -0.3724 -0.5776 -0.8490
  998SOL     OW 2992   2.598   1.423   0.006 -0.1631  0.0111  0.3161
  998SOL    HW1 2993   2.543   1.337   0.030  0.4245 -3.4255  1.7576
  998SOL    HW2 2994   2.694   1.429   0.035 -1.9865 -0.4497 -1.7578
  999SOL     OW 2995   2.690   2.566   0.304 -0.1346  0.5334  0.1863
  999SOL    HW1 2996   2.631   2.492   0.340  0.8284 -0.1186  3.5934
  999SOL    HW2 2997   2.632   2.650   0.295  1.5646 -0.0947  2.7495
 1000SOL     OW 2998   0.528   3.031   1.881  0.0389  0.4314 -0.0814
 1000SOL    HW1 2999   0.477   0.021   1.876  0.4931  0.9188 -0.8618
 1000SOL    HW2 3000   0.545   2.994   1.978  3.0046 -0.3037  0.6070
   3.09742   3.09742   3.09742
