1000 SPC/Fw water molecules t= 169.00000 step= 169000
 3000
    1SOL     OW    1   2.534   2.782   0.717  0.1785 -0.0700 -0.6081
    1SOL    HW1    2   2.554   2.760   0.618  0.4473  1.9218 -0.1505
    1SOL    HW2    3   2.433   2.784   0.736 -1.7461  2.3539  0.8774
    2SOL     OW    4   1.308   1.957   2.290 -0.0845 -0.6003  0.2323
    2SOL    HW1    5   1.235   1.916   2.234  0.4036  0.1656 -1.0281
    2SOL    HW2    6   1.269   1.995   2.374  1.2710 -1.8754 -0.3306
    3SOL     OW    7   1.626   2.378   2.136  0.2412  0.6544  0.0122
    3SOL    HW1    8   1.667   2.387   2.043  0.8613 -0.5762 -4.5222
    3SOL    HW2    9   1.545   2.445   2.146  0.8871  1.4275 -2.2576
    4SOL     OW   10   1.949   1.984   1.961 -0.0193  0.4633 -0.6323
    4SOL    HW1   11   2.018   2.034   2.023  1.1501  0.8558 -0.5220
    4SOL    HW2   12   1.865   2.035   1.932  0.4339  0.3614 -0.0798
    5SOL     OW   13   1.002   0.582   1.850  0.3916  0.2669 -0.3308
    5SOL    HW1   14   1.055   0.659   1.806  0.6093 -1.2392 -2.4856
    5SOL    HW2   15   0.911   0.618   1.872  0.8066 -0.7683  1.1857
    6SOL     OW   16   2.420   1.025   2.907 -0.3888 -0.2349 -0.2751
    6SOL    HW1   17   2.440   1.003   2.813 -0.9151  1.8496  2.9018
    6SOL    HW2   18   2.332   1.078   2.908  0.4277 -0.1709  0.5106
    7SOL     OW   19   1.105   0.689   1.386  0.3709 -0.6330  0.3702
    7SOL    HW1   20   1.177   0.664   1.321 -2.1507  1.2167 -0.2928
    7SOL    HW2   21   1.067   0.780   1.360  2.5226 -0.0998 -0.7329
    8SOL     OW   22   0.926   2.473   1.505  0.7624  0.1214  0.1218
    8SOL    HW1   23   0.834   2.522   1.502 -1.4890  2.8075 -0.5466
    8SOL    HW2   24   0.991   2.537   1.543  1.5603  0.0060  1.6323
    9SOL     OW   25   0.920   0.997   0.006  0.7420  0.3959  0.1504
    9SOL    HW1   26   0.820   0.993   0.009 -1.3605  0.8051 -0.9670
    9SOL    HW2   27   0.955   1.047   0.085 -0.9684  0.3679 -1.6818
   10SOL     OW   28   0.569   2.888   0.120  0.1235  0.0929 -0.1582
   10SOL    HW1   29   0.626   2.927   0.193 -2.3152  1.3200  0.2884
   10SOL    HW2   30   0.616   2.898   0.032 -1.1903 -2.4424  0.5798
   11SOL     OW   31   0.071   1.419   2.810  0.3359 -0.2346 -0.2516
   11SOL    HW1   32   0.169   1.429   2.789 -1.2772  2.5088  1.4461
   11SOL    HW2   33   0.060   1.425   2.910  1.1244 -1.9675 -0.3523
   12SOL     OW   34   0.738   3.070   1.365 -0.1337  0.5205  0.3072
   12SOL    HW1   35   0.699   3.040   1.278  0.2027  1.3766 -0.3148
   12SOL    HW2   36   0.667   0.020   1.417  3.3971 -1.9540 -1.2666
   13SOL     OW   37   0.676   2.934   0.378 -0.2247 -0.3276 -0.3885
   13SOL    HW1   38   0.601   2.879   0.417  2.9918  1.6667  0.9884
   13SOL    HW2   39   0.756   2.871   0.356  1.7288 -3.3190 -1.7982
   14SOL     OW   40   1.187   2.047   1.124  0.3281  0.2620  0.7638
   14SOL    HW1   41   1.127   2.039   1.206 -3.7200 -1.5397  0.0729
   14SOL    HW2   42   1.270   1.992   1.133  0.3747 -0.4865  0.6363
   15SOL     OW   43   2.623   0.831   2.356 -0.3689  0.4894 -0.5468
   15SOL    HW1   44   2.648   0.912   2.301 -2.0736  0.6755  0.7778
   15SOL    HW2   45   2.523   0.828   2.379 -1.0675  0.9078 -0.5806
   16SOL     OW   46   1.260   2.781   2.973 -0.2674  0.1493 -0.4927
   16SOL    HW1   47   1.328   2.707   2.958  1.3618 -0.3232  3.1802
   16SOL    HW2   48   1.294   2.869   2.934  0.1536  1.2608 -1.8618
   17SOL     OW   49   0.749   2.939   1.700 -0.1968 -0.4762  0.0375
   17SOL    HW1   50   0.747   2.871   1.775  2.8897  0.4351  0.9605
   17SOL    HW2   51   0.845   2.962   1.671 -0.2539  0.0039 -1.2989
   18SOL     OW   52   1.538   0.747   0.063  0.1859 -0.0280 -0.9218
   18SOL    HW1   53   1.563   0.789   3.076 -0.5907 -5.5301  0.9152
   18SOL    HW2   54   1.599   0.664   0.072 -1.6524  1.2424 -0.7853
   19SOL     OW   55   2.080   1.856   2.838  0.3271  0.6515  0.5990
   19SOL    HW1   56   2.175   1.821   2.821  2.0177 -3.0697  0.2415
   19SOL    HW2   57   2.030   1.891   2.757 -0.8597 -3.3457  2.7373
   20SOL     OW   58   2.137   1.872   1.803  0.0113 -0.4064 -0.9785
   20SOL    HW1   59   2.210   1.837   1.865 -2.5294 -2.0541  0.8114
   20SOL    HW2   60   2.057   1.901   1.859 -0.1622 -0.4023  1.5183
   21SOL     OW   61   0.351   1.399   2.783  0.4847 -0.5974 -0.3235
   21SOL    HW1   62   0.389   1.429   2.871  2.1612  1.2648 -0.1801
   21SOL    HW2   63   0.385   1.453   2.705 -2.2098  0.2255  0.2233
   22SOL     OW   64   2.676   3.098   1.438  0.3191  0.1673  0.4604
   22SOL    HW1   65   2.699   0.038   1.349 -1.2389 -1.1065  1.2474
   22SOL    HW2   66   2.588   3.050   1.427 -0.9188  1.8487  1.7973
   23SOL     OW   67   2.900   0.808   1.823 -0.3849  0.2343  0.0217
   23SOL    HW1   68   2.858   0.865   1.750  0.5422  0.4924 -0.9808
   23SOL    HW2   69   2.942   0.727   1.783 -0.2628  3.1335 -1.9848
   24SOL     OW   70   2.665   2.009   1.359  0.7743  0.1697  0.2630
   24SOL    HW1   71   2.574   2.050   1.340 -2.7676  0.1466 -1.6317
   24SOL    HW2   72   2.654   1.943   1.440  0.3990 -0.0388  1.2201
   25SOL     OW   73   1.793   0.018   2.591  0.1188  0.2267 -0.3238
   25SOL    HW1   74   1.865   3.081   2.531  2.6105 -0.6730  0.3079
   25SOL    HW2   75   1.771   3.055   2.664 -0.3769 -0.9510  0.0802
   26SOL     OW   76   1.276   0.135   0.149 -0.5274 -0.3042 -0.2669
   26SOL    HW1   77   1.347   0.075   0.194  0.2204 -2.8534 -0.5657
   26SOL    HW2   78   1.257   0.100   0.053  2.8008  1.2407 -0.2241
   27SOL     OW   79   0.788   2.023   3.002 -0.0272  0.7147  0.2642
   27SOL    HW1   80   0.744   1.938   3.005 -0.8660  1.5853 -1.7463
   27SOL    HW2   81   0.865   2.020   3.070 -0.2908 -0.0103  0.5281
   28SOL     OW   82   2.727   1.363   1.135  0.0960  0.2536 -0.7232
   28SOL    HW1   83   2.667   1.432   1.093 -1.8400  1.0844  2.3769
   28SOL    HW2   84   2.815   1.401   1.171 -0.2339 -1.3844  0.8841
   29SOL     OW   85   2.630   1.964   2.109 -0.4465  0.3481 -0.4559
   29SOL    HW1   86   2.630   1.900   2.186  0.6349  2.4465  1.5880
   29SOL    HW2   87   2.699   2.039   2.123 -0.2202 -1.8670 -1.4483
   30SOL     OW   88   1.062   3.015   0.853 -0.2830 -0.0457  0.2937
   30SOL    HW1   89   1.095   3.076   0.780 -0.5644 -0.2077  2.4937
   30SOL    HW2   90   1.005   3.066   0.920 -0.4220 -1.8967 -0.6185
   31SOL     OW   91   3.060   2.438   1.945 -0.1659 -0.1092  0.0809
   31SOL    HW1   92   3.004   2.465   1.861 -1.0238  1.7995  1.8398
   31SOL    HW2   93   0.049   2.398   1.920  1.3238  0.0596  2.3634
   32SOL     OW   94   1.390   0.953   1.953  0.3490 -0.6230  0.0140
   32SOL    HW1   95   1.404   1.039   1.897 -0.1058  2.8273 -3.7659
   32SOL    HW2   96   1.477   0.898   1.962  1.5147  0.0207 -1.4780
   33SOL     OW   97   0.518   2.667   2.662  0.4499 -0.2262  0.1809
   33SOL    HW1   98   0.534   2.687   2.565 -0.2452  2.3782  1.2556
   33SOL    HW2   99   0.584   2.721   2.723  3.6642 -1.0288  2.1658
   34SOL     OW  100   1.812   0.074   1.167 -0.5422 -0.1821 -0.2187
   34SOL    HW1  101   1.815   0.023   1.079  0.3512 -0.3656 -1.8149
   34SOL    HW2  102   1.728   0.127   1.180 -3.1808 -0.8760 -1.7801
   35SOL     OW  103   2.273   0.881   1.206 -0.6781  0.2114 -0.0145
   35SOL    HW1  104   2.235   0.971   1.171  0.4823 -1.9396  0.6368
   35SOL    HW2  105   2.305   0.889   1.301  0.3302 -4.0862 -1.3325
   36SOL     OW  106   2.523   2.378   2.131 -0.5598 -0.0137 -0.5341
   36SOL    HW1  107   2.529   2.329   2.220  0.6831 -0.0179  1.1454
   36SOL    HW2  108   2.449   2.444   2.128  0.7460 -3.9877 -2.4955
   37SOL     OW  109   1.126   2.303   2.446 -0.1330  0.6276 -0.6413
   37SOL    HW1  110   1.177   2.390   2.434  2.2288  2.8737  0.7576
   37SOL    HW2  111   1.037   2.307   2.400  1.1049  1.0215  1.3035
   38SOL     OW  112   2.492   0.367   3.091  0.0519  0.0794 -0.2287
   38SOL    HW1  113   2.538   0.282   3.058 -0.7069  0.2159 -2.0907
   38SOL    HW2  114   2.410   0.396   3.032 -2.1481 -1.4757 -2.4971
   39SOL     OW  115   2.146   1.637   2.303 -0.3634  0.7696  0.2453
   39SOL    HW1  116   2.065   1.698   2.321 -2.5609  0.3093 -2.1266
   39SOL    HW2  117   2.132   1.549   2.351 -0.5446 -1.8524  1.5835
   40SOL     OW  118   0.158   2.984   2.520  0.2949 -0.3788  0.0247
   40SOL    HW1  119   0.056   2.986   2.514 -1.0324 -0.5122 -1.0038
   40SOL    HW2  120   0.190   2.919   2.588 -1.4567 -1.2344  0.4496
   41SOL     OW  121   1.795   0.497   1.537 -0.1626 -0.1277  0.4147
   41SOL    HW1  122   1.705   0.454   1.532  3.4976 -1.6133 -1.0215
   41SOL    HW2  123   1.857   0.437   1.486 -0.9873  1.7283  0.6028
   42SOL     OW  124   0.740   0.212   1.719  0.4906 -0.0094  0.1096
   42SOL    HW1  125   0.754   0.312   1.694 -1.6395  0.3643 -3.8376
   42SOL    HW2  126   0.706   0.160   1.638  1.8994 -1.3172 -0.1136
   43SOL     OW  127   1.661   0.506   1.858  0.4523  0.6782  0.4195
   43SOL    HW1  128   1.684   0.429   1.922 -0.1037 -0.0757  1.4316
   43SOL    HW2  129   1.741   0.547   1.811  2.9859  1.3888 -0.4563
   44SOL     OW  130   0.250   2.861   2.938  0.2994 -0.0346 -0.0248
   44SOL    HW1  131   0.267   2.819   2.846 -1.1509  0.6821 -0.9434
   44SOL    HW2  132   0.148   2.868   2.959 -1.8543 -0.0660  0.3918
   45SOL     OW  133   0.153   2.384   1.588 -0.5863 -0.2605 -0.0586
   45SOL    HW1  134   0.150   2.368   1.690 -1.8000  0.2594  2.5306
   45SOL    HW2  135   0.244   2.360   1.552 -1.6903 -2.4902 -1.9594
   46SOL     OW  136   2.065   2.181   2.364 -0.2428 -0.2410 -0.1122
   46SOL    HW1  137   2.036   2.109   2.429 -1.7577 -2.2361  2.1365
   46SOL    HW2  138   2.146   2.230   2.399  1.3335 -1.5020  1.8552
   47SOL     OW  139   1.757   2.002   1.593 -0.2881  0.0822  0.2914
   47SOL    HW1  140   1.798   2.079   1.645  0.3193 -1.1122  0.9682
   47SOL    HW2  141   1.683   1.952   1.646 -1.5234  1.3279 -0.5096
   48SOL     OW  142   0.372   1.681   0.356 -0.1398  0.2254  0.6480
   48SOL    HW1  143   0.425   1.765   0.339  2.1896 -3.8460 -1.3761
   48SOL    HW2  144   0.332   1.670   0.451 -0.9445 -0.0977  0.5758
   49SOL     OW  145   2.673   0.311   2.496  0.1948 -0.2066  0.2409
   49SOL    HW1  146   2.678   0.349   2.593 -1.4835  0.1933  1.4040
   49SOL    HW2  147   2.655   0.387   2.431  0.5132 -1.2465 -0.2935
   50SOL     OW  148   1.926   0.664   0.889  1.1485  0.5923  0.6348
   50SOL    HW1  149   1.943   0.746   0.944  2.4493 -1.5211  0.0913
   50SOL    HW2  150   1.913   0.694   0.790  2.3460 -0.8513 -2.3257
   51SOL     OW  151   1.336   0.684   0.897  0.2491 -0.5608 -0.0371
   51SOL    HW1  152   1.249   0.632   0.877  1.2082 -0.0773  1.2325
   51SOL    HW2  153   1.339   0.782   0.861 -0.3951 -0.5528 -2.1762
   52SOL     OW  154   1.311   1.254   3.044 -0.2891  0.0675 -0.4262
   52SOL    HW1  155   1.295   1.208   0.030 -0.0856 -2.0831 -0.0522
   52SOL    HW2  156   1.324   1.353   3.063 -0.7253 -1.1981  3.3069
   53SOL     OW  157   1.371   2.097   2.809 -0.2772 -0.1182  0.1913
   53SOL    HW1  158   1.282   2.132   2.783  2.2415  2.7368  0.4281
   53SOL    HW2  159   1.443   2.173   2.823  4.7580  0.1671  1.9074
   54SOL     OW  160   1.903   0.346   1.329 -0.3258  0.2524  0.1401
   54SOL    HW1  161   1.838   0.322   1.254 -2.3265 -0.7736  1.6753
   54SOL    HW2  162   1.995   0.311   1.308 -0.1034 -2.2825  1.9738
   55SOL     OW  163   2.204   2.629   0.657  0.8220  1.0059 -0.0826
   55SOL    HW1  164   2.261   2.643   0.576 -0.6827 -0.9417  0.9421
   55SOL    HW2  165   2.110   2.608   0.622 -1.1179 -0.2104  0.0021
   56SOL     OW  166   0.828   2.797   1.373 -0.3985 -0.5275 -0.2095
   56SOL    HW1  167   0.827   2.748   1.464  1.9495 -0.7861 -0.4826
   56SOL    HW2  168   0.787   2.893   1.380 -2.0098  0.2586 -0.0045
   57SOL     OW  169   1.633   1.333   0.383  0.3281  0.3159 -0.7708
   57SOL    HW1  170   1.611   1.292   0.293 -0.8645  0.5890 -0.4598
   57SOL    HW2  171   1.733   1.354   0.380 -0.3465  3.2342 -1.3410
   58SOL     OW  172   0.284   1.049   2.246 -0.1852 -0.0335 -0.0655
   58SOL    HW1  173   0.249   1.141   2.212 -1.6055  1.0106 -1.3140
   58SOL    HW2  174   0.213   1.001   2.299 -2.7763  0.8409 -1.2397
   59SOL     OW  175   0.871   2.676   2.650 -0.4448  0.2761 -0.1080
   59SOL    HW1  176   0.932   2.669   2.731  0.0150 -1.7373 -2.0931
   59SOL    HW2  177   0.800   2.750   2.661  0.7802 -0.2037  2.1444
   60SOL     OW  178   2.437   2.510   1.027  0.1901 -0.2625 -0.5460
   60SOL    HW1  179   2.360   2.486   0.963  2.2723  1.6996 -1.9033
   60SOL    HW2  180   2.394   2.548   1.112  1.3986 -0.1450  1.9247
   61SOL     OW  181   1.174   2.039   0.712  0.7228  0.4359  0.4412
   61SOL    HW1  182   1.102   2.051   0.786 -1.2297  0.3317  3.9931
   61SOL    HW2  183   1.228   2.121   0.688  1.6330  1.7826  0.4718
   62SOL     OW  184   2.161   2.705   2.715  0.0444 -0.4167  0.2631
   62SOL    HW1  185   2.171   2.653   2.801  1.0000  0.8073 -2.6521
   62SOL    HW2  186   2.182   2.807   2.733  1.3883  2.2798  1.9904
   63SOL     OW  187   2.259   0.677   0.101 -0.1338  0.1057 -0.5705
   63SOL    HW1  188   2.187   0.713   0.167  0.7031  1.9468 -0.0045
   63SOL    HW2  189   2.324   0.607   0.145  2.4328  1.1074  0.3950
   64SOL     OW  190   0.925   1.067   2.849 -0.7637  0.1886 -0.7211
   64SOL    HW1  191   0.999   1.133   2.830  0.2862 -1.6962  1.1369
   64SOL    HW2  192   0.923   1.029   2.944 -0.9089  0.3929 -2.0273
   65SOL     OW  193   1.182   2.352   0.312  0.7473 -0.8033 -0.0633
   65SOL    HW1  194   1.241   2.415   0.255 -0.6528 -0.2491 -1.3230
   65SOL    HW2  195   1.155   2.383   0.405  1.5436 -0.4803  2.0277
   66SOL     OW  196   0.832   1.125   1.848  0.2880 -0.4977  0.1038
   66SOL    HW1  197   0.846   1.026   1.830  0.9730 -0.2540 -1.8730
   66SOL    HW2  198   0.765   1.141   1.927 -1.4569  1.1230  2.6326
   67SOL     OW  199   2.322   3.094   2.388  0.0839 -0.1456  0.1359
   67SOL    HW1  200   2.255   3.103   2.315 -1.4343 -0.4682 -0.3775
   67SOL    HW2  201   2.397   0.062   2.373 -0.5274 -0.1898  0.5548
   68SOL     OW  202   0.928   1.415   1.235 -0.3312  0.1147  0.1599
   68SOL    HW1  203   0.942   1.346   1.311 -3.3167  0.5056 -0.6817
   68SOL    HW2  204   1.016   1.452   1.210 -0.8094 -1.1149 -0.5791
   69SOL     OW  205   1.524   2.348   0.302  0.3108 -0.4656 -0.6141
   69SOL    HW1  206   1.450   2.416   0.328 -1.5597  1.4140  0.1385
   69SOL    HW2  207   1.616   2.393   0.296  0.6156 -1.0467  1.4544
   70SOL     OW  208   2.864   1.111   2.368  0.1186  0.7609  0.6797
   70SOL    HW1  209   2.781   1.095   2.422  1.0208  0.3928  1.4442
   70SOL    HW2  210   2.927   1.032   2.376  1.1009  0.8574 -0.4039
   71SOL     OW  211   3.043   1.737   2.856 -0.2057  0.3364  0.1535
   71SOL    HW1  212   2.997   1.659   2.813 -0.1523  0.9980  0.5752
   71SOL    HW2  213   3.052   1.727   2.953 -2.1780  0.9435 -0.1479
   72SOL     OW  214   2.752   2.368   0.578  0.3049  0.7899 -0.0853
   72SOL    HW1  215   2.654   2.392   0.587  1.2852  1.0114 -1.4806
   72SOL    HW2  216   2.763   2.315   0.490  0.2723  2.4950  0.2612
   73SOL     OW  217   0.649   1.457   0.563  0.2612 -0.3091 -0.1798
   73SOL    HW1  218   0.672   1.492   0.470 -0.1672  0.8451 -2.6898
   73SOL    HW2  219   0.567   1.509   0.593 -1.7671 -4.6464 -2.2640
   74SOL     OW  220   0.114   1.607   2.550 -0.5039  0.1430 -0.0870
   74SOL    HW1  221   0.153   1.700   2.527 -4.0961  0.3249  0.1959
   74SOL    HW2  222   0.073   1.604   2.643 -1.0307 -1.4083  1.9138
   75SOL     OW  223   1.624   1.423   1.536  0.1711  0.3648  0.2292
   75SOL    HW1  224   1.676   1.496   1.488 -1.0686  1.3463 -0.5588
   75SOL    HW2  225   1.522   1.449   1.547 -3.4302  2.5052 -1.0859
   76SOL     OW  226   1.919   2.602   1.487 -0.7468  0.3332  0.0699
   76SOL    HW1  227   1.958   2.520   1.437 -0.2446 -0.7111  1.0148
   76SOL    HW2  228   1.943   2.599   1.585  0.5695 -0.4509 -0.6236
   77SOL     OW  229   2.667   0.838   1.265 -0.0980 -0.2501 -0.3723
   77SOL    HW1  230   2.757   0.801   1.303  3.2475 -1.7023 -0.1923
   77SOL    HW2  231   2.637   0.771   1.193  0.0481 -1.3075  2.1834
   78SOL     OW  232   1.416   0.922   0.564 -0.2573  0.3612 -0.1800
   78SOL    HW1  233   1.448   1.014   0.558 -1.8426 -3.6118  1.0140
   78SOL    HW2  234   1.471   0.874   0.498 -4.1454  0.5706  4.3183
   79SOL     OW  235   0.035   1.472   1.797 -0.1329 -0.3352 -0.0471
   79SOL    HW1  236   0.032   1.482   1.696 -2.0632  0.5974  0.2036
   79SOL    HW2  237   3.038   1.468   1.833 -0.7348 -0.5426  0.6215
   80SOL     OW  238   1.354   0.917   1.527  0.0741 -0.3534 -0.0017
   80SOL    HW1  239   1.334   0.881   1.623  1.5901  0.5938  0.6811
   80SOL    HW2  240   1.390   0.837   1.473  0.1277 -1.9361 -0.0813
   81SOL     OW  241   0.703   0.099   1.029  0.0294 -0.3809 -0.0349
   81SOL    HW1  242   0.714   0.076   0.927 -1.0079 -0.4169  0.8279
   81SOL    HW2  243   0.672   0.020   1.081  2.8499  2.6856 -1.3059
   82SOL     OW  244   1.470   2.791   1.442  0.4999  0.8688 -0.2911
   82SOL    HW1  245   1.385   2.744   1.403 -2.1364 -2.2871 -0.7344
   82SOL    HW2  246   1.530   2.831   1.371 -1.2234  0.2373 -1.6157
   83SOL     OW  247   0.995   2.113   0.911  0.3633 -0.1252  0.9734
   83SOL    HW1  248   0.901   2.072   0.907  0.3993 -2.2287 -2.1883
   83SOL    HW2  249   1.050   2.073   0.986 -3.0718 -0.6238  0.7455
   84SOL     OW  250   0.460   1.535   2.569 -0.2778  0.4462  0.2189
   84SOL    HW1  251   0.402   1.516   2.487 -0.0658 -2.4320 -3.5658
   84SOL    HW2  252   0.558   1.526   2.545  1.7973  0.8286 -0.2592
   85SOL     OW  253   0.083   2.174   1.379 -0.1813  0.2756 -0.0876
   85SOL    HW1  254   3.092   2.141   1.396  0.1333 -0.0788  1.3778
   85SOL    HW2  255   0.101   2.252   1.440 -1.2958 -1.0343 -0.2546
   86SOL     OW  256   2.368   2.030   1.435 -0.2817 -0.5564  0.1790
   86SOL    HW1  257   2.271   2.008   1.433  3.5217 -1.4774 -0.1615
   86SOL    HW2  258   2.393   2.072   1.527 -1.6543  2.9359  0.5215
   87SOL     OW  259   2.766   2.259   0.332 -0.3634 -0.4233 -0.0108
   87SOL    HW1  260   2.685   2.208   0.294  0.7596  0.3129  0.1768
   87SOL    HW2  261   2.840   2.230   0.270 -1.4737  2.0640  0.8879
   88SOL     OW  262   0.636   1.436   1.223 -0.3535 -0.4480  0.2630
   88SOL    HW1  263   0.622   1.539   1.221 -0.4288  2.1936 -0.5667
   88SOL    HW2  264   0.734   1.414   1.219 -2.2609 -0.9358  0.4550
   89SOL     OW  265   1.055   2.984   2.066 -0.1681  0.1809 -0.3009
   89SOL    HW1  266   1.007   2.889   2.065 -1.3201 -2.8709  1.9778
   89SOL    HW2  267   0.993   3.067   2.050 -1.5128  2.5221  2.4572
   90SOL     OW  268   3.004   1.712   1.198  0.0869 -0.0052  0.1835
   90SOL    HW1  269   2.909   1.715   1.232  2.0313 -0.9200  1.4206
   90SOL    HW2  270   3.038   1.617   1.202  2.2496 -2.3367 -0.3203
   91SOL     OW  271   1.406   1.879   1.088 -0.0366  0.2116 -0.3355
   91SOL    HW1  272   1.393   1.865   1.190  1.2766  0.5473 -0.6025
   91SOL    HW2  273   1.503   1.879   1.071 -0.0006 -2.6863  2.7875
   92SOL     OW  274   2.430   2.379   1.607  0.7519  0.0213 -0.0253
   92SOL    HW1  275   2.443   2.470   1.567 -0.7213 -1.2178 -0.1698
   92SOL    HW2  276   2.521   2.337   1.612 -0.4591  1.4724 -1.5415
   93SOL     OW  277   2.695   1.576   2.563 -0.3617  0.1218  0.1797
   93SOL    HW1  278   2.640   1.503   2.523  2.7967 -2.8194  2.2466
   93SOL    HW2  279   2.784   1.540   2.596 -1.5079  1.7710 -1.8616
   94SOL     OW  280   2.824   2.618   2.017 -0.2984 -0.4616  0.4670
   94SOL    HW1  281   2.783   2.650   2.103 -0.3503  1.2710  0.0549
   94SOL    HW2  282   2.918   2.658   2.003  0.9325  3.0252 -0.4747
   95SOL     OW  283   1.674   0.148   1.789  0.3970  0.3308 -0.2403
   95SOL    HW1  284   1.723   0.190   1.867 -2.7614 -1.5397 -1.2388
   95SOL    HW2  285   1.643   0.057   1.820  1.0477  1.6604  1.4261
   96SOL     OW  286   0.036   3.011   1.499  0.4610 -0.4696 -0.4250
   96SOL    HW1  287   3.043   3.048   1.502 -2.7961  0.7158  0.9771
   96SOL    HW2  288   0.037   2.914   1.480 -1.4983  2.0523  0.2802
   97SOL     OW  289   2.339   0.275   1.590 -0.6467 -0.0907  0.3210
   97SOL    HW1  290   2.242   0.294   1.615  3.3732  1.9517  0.3937
   97SOL    HW2  291   2.401   0.308   1.664 -0.7833 -1.8000 -0.3386
   98SOL     OW  292   1.592   2.594   1.652 -0.7596  0.2731 -0.0311
   98SOL    HW1  293   1.670   2.659   1.661  1.3063 -1.0019  0.2609
   98SOL    HW2  294   1.507   2.628   1.697  0.3955  0.4563  1.9357
   99SOL     OW  295   0.105   2.908   1.791  0.1454 -0.3604  0.0448
   99SOL    HW1  296   0.163   2.946   1.715 -1.5035  2.9706 -1.4751
   99SOL    HW2  297   0.093   2.975   1.868  1.5011  0.3118  1.6528
  100SOL     OW  298   2.987   1.139   2.112 -0.2344  0.6601 -0.0168
  100SOL    HW1  299   3.015   1.221   2.067 -1.1009 -2.8184  1.3985
  100SOL    HW2  300   2.951   1.160   2.204 -0.1810 -1.6517  2.7870
  101SOL     OW  301   1.716   0.550   0.490 -0.2950  0.4341  0.3227
  101SOL    HW1  302   1.635   0.581   0.440  0.5723 -2.8168  3.9930
  101SOL    HW2  303   1.759   0.633   0.530  1.9935 -0.0459 -1.1311
  102SOL     OW  304   0.166   0.583   1.664  0.7193 -0.1658 -0.3239
  102SOL    HW1  305   0.216   0.498   1.674 -0.3950 -0.8037  0.6483
  102SOL    HW2  306   0.221   0.658   1.705  1.2138  1.0814  0.3956
  103SOL     OW  307   2.236   0.660   2.935 -0.2298  0.2712  0.1636
  103SOL    HW1  308   2.230   0.667   3.040 -0.0526 -0.5754  0.5390
  103SOL    HW2  309   2.218   0.751   2.882 -1.9495  3.5415  0.0290
  104SOL     OW  310   0.032   0.195   2.167  0.1008  0.2865  0.0224
  104SOL    HW1  311   0.075   0.275   2.123 -1.0712 -0.1577  0.5541
  104SOL    HW2  312   0.052   0.181   2.264 -0.5299 -1.8177 -2.9611
  105SOL     OW  313   2.006   0.868   1.682 -0.3840  0.0436  0.1023
  105SOL    HW1  314   1.938   0.941   1.677  0.2891 -0.2584 -0.0839
  105SOL    HW2  315   2.057   0.862   1.595 -1.1167 -1.5391  3.0155
  106SOL     OW  316   1.396   3.080   0.909  0.1071 -0.0059 -0.2687
  106SOL    HW1  317   1.321   0.043   0.907  0.9499 -5.4082  1.2299
  106SOL    HW2  318   1.383   3.016   0.987 -2.9630 -0.2385 -2.8229
  107SOL     OW  319   0.246   1.350   0.786 -0.0486  0.7210 -0.4378
  107SOL    HW1  320   0.220   1.311   0.696 -2.0767  0.2268  0.6584
  107SOL    HW2  321   0.179   1.414   0.819  0.5153 -3.3480 -0.6805
  108SOL     OW  322   0.040   0.219   2.440  0.1054 -0.5145 -0.2479
  108SOL    HW1  323   3.058   0.173   2.474  1.0182  2.0860  0.2138
  108SOL    HW2  324   0.114   0.226   2.512  1.2455 -0.8780 -0.1012
  109SOL     OW  325   2.647   0.199   0.340  0.4524 -0.1821  0.7733
  109SOL    HW1  326   2.566   0.263   0.321 -0.7258  3.4390 -0.3550
  109SOL    HW2  327   2.730   0.231   0.293 -1.5713 -0.6183 -2.8798
  110SOL     OW  328   0.374   2.306   3.000 -0.3860  0.0946  0.8412
  110SOL    HW1  329   0.273   2.318   2.994 -0.7963 -1.5829  0.2953
  110SOL    HW2  330   0.415   2.376   2.936 -1.8206  2.0695 -0.2950
  111SOL     OW  331   1.780   3.077   2.015  0.8823 -0.1338 -0.0845
  111SOL    HW1  332   1.840   3.060   1.935 -1.5959  0.1447  0.4770
  111SOL    HW2  333   1.815   0.047   2.080  0.6871  1.4535  2.1331
  112SOL     OW  334   2.180   2.575   2.961 -0.1774 -0.0252  0.5359
  112SOL    HW1  335   2.103   2.526   3.003  3.7773 -0.9167 -0.0346
  112SOL    HW2  336   2.212   2.645   3.028 -2.0724  1.1346  2.3702
  113SOL     OW  337   2.927   2.127   1.704 -0.6555  0.4961  0.5020
  113SOL    HW1  338   2.993   2.141   1.780  2.8097  0.4993  2.6759
  113SOL    HW2  339   2.848   2.184   1.711  1.2012 -0.6060  0.9088
  114SOL     OW  340   2.625   0.665   1.082 -0.0507  0.0067 -0.5559
  114SOL    HW1  341   2.543   0.663   1.021  1.0941  0.4600 -1.0306
  114SOL    HW2  342   2.697   0.597   1.062 -1.4046  0.6394  2.4449
  115SOL     OW  343   3.056   1.737   0.029  0.1226 -0.8934  0.3801
  115SOL    HW1  344   0.038   1.699   0.074  1.7881  0.2646  0.1448
  115SOL    HW2  345   3.027   1.821   0.083 -0.9814  4.3858  0.2281
  116SOL     OW  346   0.226   1.287   1.895  0.4478  0.5857 -0.4999
  116SOL    HW1  347   0.302   1.290   1.827 -1.2050  1.4147 -0.0245
  116SOL    HW2  348   0.171   1.375   1.879  1.4218  0.8687 -2.8926
  117SOL     OW  349   2.596   3.055   0.823 -0.2302  0.1656 -0.2870
  117SOL    HW1  350   2.580   2.958   0.790 -0.6543  0.1589 -1.2498
  117SOL    HW2  351   2.581   0.011   0.745 -0.2545 -1.3797  0.4869
  118SOL     OW  352   0.426   2.224   1.554 -0.2653 -0.6497 -0.1397
  118SOL    HW1  353   0.396   2.208   1.458 -0.4247  1.8544 -1.6238
  118SOL    HW2  354   0.518   2.192   1.571 -2.5045  0.3525 -0.2736
  119SOL     OW  355   1.554   2.207   0.561 -0.7277  0.5134  0.7395
  119SOL    HW1  356   1.578   2.111   0.562  0.0285  1.2047  0.3971
  119SOL    HW2  357   1.573   2.253   0.473  0.3553 -0.6815  2.0305
  120SOL     OW  358   0.233   1.823   2.413 -0.1471 -0.3778  0.0665
  120SOL    HW1  359   0.271   1.908   2.459  1.3258  1.7285 -1.7129
  120SOL    HW2  360   0.238   1.828   2.310 -0.4507  0.7130  2.7324
  121SOL     OW  361   2.096   2.072   1.461  0.0315  0.1391  0.2520
  121SOL    HW1  362   2.078   1.984   1.409 -0.5605  0.2420  1.7282
  121SOL    HW2  363   2.036   2.148   1.428 -1.0280 -1.4546  2.2679
  122SOL     OW  364   2.365   1.818   2.321 -0.9901 -0.3284  0.3161
  122SOL    HW1  365   2.456   1.781   2.301 -2.2188  1.2210  0.5890
  122SOL    HW2  366   2.298   1.740   2.344 -0.0843 -1.7622  0.5195
  123SOL     OW  367   0.092   2.938   0.699  0.2144 -0.1432  0.1699
  123SOL    HW1  368   0.024   3.011   0.681 -0.6646  0.6312 -2.1113
  123SOL    HW2  369   0.041   2.851   0.686  0.3379  0.1552 -0.2885
  124SOL     OW  370   1.614   0.759   2.421  0.4138  0.6374 -0.0280
  124SOL    HW1  371   1.702   0.794   2.385 -1.9941 -0.2859 -0.6583
  124SOL    HW2  372   1.547   0.825   2.386 -0.4226 -4.5916  0.1674
  125SOL     OW  373   0.482   1.480   3.009 -0.2741  0.6269  0.1610
  125SOL    HW1  374   0.563   1.445   2.961  0.0773 -1.0797 -0.8134
  125SOL    HW2  375   0.460   1.424   3.088 -2.8816  0.8669 -0.8473
  126SOL     OW  376   2.593   1.955   0.408  0.2398 -0.4713  0.1736
  126SOL    HW1  377   2.561   2.015   0.330 -0.2017 -0.6040  0.8210
  126SOL    HW2  378   2.562   1.989   0.497  2.1156 -0.0337  0.7357
  127SOL     OW  379   0.523   1.686   1.214  0.3554 -0.5512 -0.3540
  127SOL    HW1  380   0.477   1.777   1.192 -1.0020  0.9418 -1.8068
  127SOL    HW2  381   0.457   1.610   1.242  1.4083 -0.8741 -0.5267
  128SOL     OW  382   0.782   0.763   0.156 -0.1981  0.4522 -0.3973
  128SOL    HW1  383   0.842   0.768   0.071 -0.1379 -2.2623  0.2552
  128SOL    HW2  384   0.830   0.789   0.243 -1.3609  0.9170  1.7697
  129SOL     OW  385   2.336   1.313   0.842  0.2891 -0.5654 -0.0525
  129SOL    HW1  386   2.234   1.298   0.830 -1.2303  0.8619 -0.2574
  129SOL    HW2  387   2.379   1.247   0.904  0.6655  0.7167 -0.8570
  130SOL     OW  388   2.179   1.735   1.085 -0.1945  0.4439 -0.8314
  130SOL    HW1  389   2.235   1.782   1.016 -0.3605 -3.1687 -0.0198
  130SOL    HW2  390   2.109   1.680   1.033 -0.3138 -0.7804  1.2096
  131SOL     OW  391   2.831   1.233   2.782  0.9795 -0.1177 -0.4886
  131SOL    HW1  392   2.774   1.198   2.858 -1.7795  1.4483  2.2354
  131SOL    HW2  393   2.923   1.194   2.785 -4.0558 -1.3397  0.5454
  132SOL     OW  394   2.851   1.684   1.634  0.1645  0.4365  0.2897
  132SOL    HW1  395   2.863   1.750   1.713 -0.3389 -3.2804  0.3143
  132SOL    HW2  396   2.817   1.591   1.672  1.0153 -0.9923  0.4313
  133SOL     OW  397   2.950   0.680   0.447 -0.0993  0.8684  0.0722
  133SOL    HW1  398   3.018   0.604   0.453  1.6597 -1.6070  1.5507
  133SOL    HW2  399   2.889   0.676   0.525  0.2861 -1.7333  1.2061
  134SOL     OW  400   0.132   1.121   0.049  0.4701 -0.2368 -0.3417
  134SOL    HW1  401   0.039   1.089   0.072 -1.0789  2.7597 -1.5270
  134SOL    HW2  402   0.174   1.069   3.074 -0.6631 -0.5159 -1.7647
  135SOL     OW  403   2.143   1.550   0.704  0.0214  0.2637  0.1831
  135SOL    HW1  404   2.153   1.446   0.721 -1.5429 -2.2365  0.2020
  135SOL    HW2  405   2.072   1.571   0.637  0.7661  0.5175  0.2454
  136SOL     OW  406   1.975   1.341   1.074 -0.1998  0.0512  0.2983
  136SOL    HW1  407   1.974   1.352   1.178  0.6611  0.1019 -1.8644
  136SOL    HW2  408   1.967   1.429   1.028  0.6435 -0.0573  0.7316
  137SOL     OW  409   2.548   1.475   0.809 -0.1815 -0.5000 -0.0548
  137SOL    HW1  410   2.464   1.428   0.838  0.2260  0.2281 -0.0873
  137SOL    HW2  411   2.546   1.569   0.848 -1.1410  0.5937  0.7542
  138SOL     OW  412   1.357   0.374   1.745  0.3807 -0.0866  0.3357
  138SOL    HW1  413   1.341   0.469   1.764 -1.9248  1.0472  1.9208
  138SOL    HW2  414   1.425   0.359   1.673  1.4678 -0.9852 -1.7669
  139SOL     OW  415   1.979   0.126   3.035 -0.3837 -0.1327  0.0625
  139SOL    HW1  416   2.004   0.205   2.973 -1.6145  0.9050 -3.3468
  139SOL    HW2  417   1.995   0.134   0.034 -1.3444 -0.0602  1.9298
  140SOL     OW  418   1.443   2.238   2.488 -0.1562 -0.0188  0.2892
  140SOL    HW1  419   1.370   2.169   2.504  1.8496 -1.3401  0.6715
  140SOL    HW2  420   1.515   2.197   2.422 -1.1946  0.0800 -1.3892
  141SOL     OW  421   1.178   1.275   1.664 -0.1895 -0.2670 -0.3877
  141SOL    HW1  422   1.165   1.212   1.586  0.2125 -0.5306 -0.7909
  141SOL    HW2  423   1.123   1.361   1.653 -2.2272 -1.0666 -2.9148
  142SOL     OW  424   2.689   0.175   2.931  0.3798 -0.3355  0.1105
  142SOL    HW1  425   2.655   0.111   3.000  0.0201 -0.3781 -3.3451
  142SOL    HW2  426   2.773   0.138   2.888 -0.7235 -2.1132 -1.1774
  143SOL     OW  427   0.785   2.499   2.923  0.0948  0.5790  0.0651
  143SOL    HW1  428   0.778   2.509   3.027 -0.4486 -0.7282  1.8895
  143SOL    HW2  429   0.866   2.556   2.891 -0.9214 -0.9404  0.0110
  144SOL     OW  430   1.091   2.676   2.422 -0.1051 -0.5392 -0.0201
  144SOL    HW1  431   1.000   2.690   2.465 -0.7941  1.1145  0.5233
  144SOL    HW2  432   1.158   2.727   2.474  2.2195  0.0214 -1.7685
  145SOL     OW  433   2.456   1.428   0.263 -0.2135 -0.1348  0.4508
  145SOL    HW1  434   2.505   1.352   0.215  2.3113  0.6566 -0.8202
  145SOL    HW2  435   2.505   1.465   0.341 -1.8865 -1.7741 -2.0425
  146SOL     OW  436   2.569   2.973   2.731 -0.1565  0.5224  0.3849
  146SOL    HW1  437   2.530   3.067   2.722 -1.5936 -0.7130  0.1272
  146SOL    HW2  438   2.537   2.926   2.812  1.3355  0.3361 -0.3390
  147SOL     OW  439   2.328   2.180   1.209  0.2836  0.0243 -0.0331
  147SOL    HW1  440   2.261   2.257   1.216 -0.2651 -0.7865  0.4987
  147SOL    HW2  441   2.340   2.130   1.295  2.9302  0.0303  0.4330
  148SOL     OW  442   1.721   0.054   0.021  0.3478  0.5942  0.3307
  148SOL    HW1  443   1.699   0.126   0.083  2.3257 -2.2936 -0.0331
  148SOL    HW2  444   1.812   0.070   3.085 -2.4939 -0.3985 -1.3308
  149SOL     OW  445   0.919   1.427   2.775  0.0757  0.0416  0.1328
  149SOL    HW1  446   0.995   1.363   2.799 -0.3413  0.4863  0.5900
  149SOL    HW2  447   0.937   1.453   2.677 -0.7203  0.0945  0.4997
  150SOL     OW  448   0.704   2.699   0.659 -0.1372  0.2445 -0.4886
  150SOL    HW1  449   0.782   2.664   0.599  0.7290  0.8027 -3.2159
  150SOL    HW2  450   0.624   2.713   0.600  0.4047 -2.9417 -1.7030
  151SOL     OW  451   0.464   1.870   0.058  0.0026 -0.0738  0.2045
  151SOL    HW1  452   0.398   1.809   0.010 -2.2834  0.9948 -0.3835
  151SOL    HW2  453   0.564   1.840   0.036  0.7309  0.2683 -1.5177
  152SOL     OW  454   2.994   0.951   0.439 -0.2200  1.3273  0.4406
  152SOL    HW1  455   3.010   0.993   0.533  1.2286 -0.5966  1.6156
  152SOL    HW2  456   2.998   0.851   0.444  2.8345  3.4746  2.2378
  153SOL     OW  457   2.517   2.503   3.073 -0.0954 -0.0651  0.1026
  153SOL    HW1  458   2.565   2.500   0.057  4.5630 -0.7665  1.1530
  153SOL    HW2  459   2.502   2.600   3.047  0.6737 -1.4472  3.8249
  154SOL     OW  460   0.623   2.955   1.138  0.5093 -0.0818 -1.3668
  154SOL    HW1  461   0.665   2.909   1.058  1.4510  2.0359 -0.8615
  154SOL    HW2  462   0.521   2.956   1.127  0.2657  1.4976 -0.3360
  155SOL     OW  463   0.357   1.899   1.172  0.3397 -0.4063  0.1531
  155SOL    HW1  464   0.349   1.883   1.073 -0.1978 -1.8076 -0.4209
  155SOL    HW2  465   0.277   1.868   1.224  0.8515 -1.5338  2.4981
  156SOL     OW  466   2.510   2.271   2.910 -0.7964  0.4620 -0.4858
  156SOL    HW1  467   2.588   2.214   2.934 -1.5297  1.1570 -1.9649
  156SOL    HW2  468   2.512   2.358   2.954  0.9192  2.4749 -0.3832
  157SOL     OW  469   0.989   2.579   0.983 -0.6089  0.0237  0.0772
  157SOL    HW1  470   0.913   2.578   1.050  0.0968  0.0314 -1.8664
  157SOL    HW2  471   1.069   2.561   1.043 -4.2640  0.9914 -0.1738
  158SOL     OW  472   1.903   0.863   2.718  0.1073  0.1558  0.1083
  158SOL    HW1  473   1.865   0.774   2.690  2.3827  4.1626  3.6324
  158SOL    HW2  474   1.824   0.928   2.718 -1.3771  2.7635 -0.0207
  159SOL     OW  475   0.974   0.410   2.490  0.2530  0.4135  0.8880
  159SOL    HW1  476   0.912   0.463   2.429 -1.6231  0.6737 -0.6839
  159SOL    HW2  477   0.971   0.449   2.583  1.5232 -0.4024 -0.4739
  160SOL     OW  478   1.113   1.833   0.519  0.2053  0.5749  0.4634
  160SOL    HW1  479   1.147   1.905   0.578 -2.0779 -1.8391 -3.2623
  160SOL    HW2  480   1.043   1.779   0.566 -0.6241  0.2364  0.1963
  161SOL     OW  481   3.072   2.134   0.193  0.2686  0.0573 -0.1989
  161SOL    HW1  482   3.024   2.043   0.193  1.2990  3.5081 -0.0118
  161SOL    HW2  483   0.067   2.138   0.225  0.8660  3.4854 -2.9333
  162SOL     OW  484   0.591   2.694   0.977  0.2804 -0.6395  0.1551
  162SOL    HW1  485   0.656   2.734   0.914 -1.2055 -1.2876  1.2014
  162SOL    HW2  486   0.637   2.634   1.040  0.3557 -0.5028 -0.5323
  163SOL     OW  487   2.368   0.952   0.070  0.0794  0.2709  0.1722
  163SOL    HW1  488   2.390   0.986   3.079  0.6961 -4.1940  3.3343
  163SOL    HW2  489   2.320   0.862   0.058 -0.8121  0.1953 -0.6618
  164SOL     OW  490   0.084   2.828   0.160  0.4412  0.0022 -0.0713
  164SOL    HW1  491   0.039   2.737   0.161  2.2180  0.0224 -1.0162
  164SOL    HW2  492   0.179   2.821   0.135  1.2571 -0.8177  0.7261
  165SOL     OW  493   2.269   0.457   1.365  0.3282 -0.1280 -0.0820
  165SOL    HW1  494   2.295   0.380   1.429 -1.1082  1.2299 -0.8704
  165SOL    HW2  495   2.268   0.552   1.402  1.1995  0.0637  1.0153
  166SOL     OW  496   1.941   0.267   1.002  0.3614  0.5816  0.1482
  166SOL    HW1  497   2.031   0.290   1.044 -0.4533  0.6277  1.4596
  166SOL    HW2  498   1.920   0.167   0.995  0.9048  0.2924 -1.5660
  167SOL     OW  499   0.474   0.632   1.688 -0.5823 -0.1307 -0.0435
  167SOL    HW1  500   0.464   0.531   1.665  1.0518 -0.9458 -0.9342
  167SOL    HW2  501   0.431   0.651   1.778 -0.7620 -0.8024 -0.1669
  168SOL     OW  502   2.864   2.965   2.088 -0.4135  0.0037  0.5134
  168SOL    HW1  503   2.793   3.016   2.138  1.2582 -0.3206  0.8278
  168SOL    HW2  504   2.837   2.942   1.991  0.3815 -0.1514 -1.0661
  169SOL     OW  505   3.084   1.475   0.553 -0.0505  0.1520 -0.2404
  169SOL    HW1  506   0.032   1.390   0.527 -2.3007  0.6090 -0.0779
  169SOL    HW2  507   3.052   1.479   0.650  1.0692  1.3405 -2.0169
  170SOL     OW  508   3.011   0.606   1.703  0.0612  0.0434 -0.0810
  170SOL    HW1  509   0.006   0.593   1.686 -1.4725  1.5956 -0.4014
  170SOL    HW2  510   2.956   0.545   1.644 -0.8212  0.3000 -0.4457
  171SOL     OW  511   1.185   2.088   1.806 -0.1504  0.4012  0.3350
  171SOL    HW1  512   1.153   2.108   1.906 -0.7748  2.4806 -2.3476
  171SOL    HW2  513   1.132   2.142   1.738  0.8385 -0.7917 -1.9562
  172SOL     OW  514   0.636   2.274   1.237 -0.1080  0.0585 -0.3880
  172SOL    HW1  515   0.568   2.205   1.269  2.2094  0.1023  0.4619
  172SOL    HW2  516   0.625   2.293   1.139  1.3224  0.6988 -1.3824
  173SOL     OW  517   1.097   0.298   0.278 -0.2748  0.1134  0.1008
  173SOL    HW1  518   0.996   0.274   0.292  0.8115 -0.5880 -1.4972
  173SOL    HW2  519   1.142   0.231   0.218  2.7484 -0.2813  0.2846
  174SOL     OW  520   0.789   2.955   3.021 -0.2800  0.3694 -0.2469
  174SOL    HW1  521   0.734   3.036   3.019  0.9614  0.7165  1.5001
  174SOL    HW2  522   0.893   2.976   3.039  0.5236  0.3682  0.7640
  175SOL     OW  523   1.151   0.869   3.027 -0.0572 -0.5225  0.1731
  175SOL    HW1  524   1.217   0.857   0.001 -1.0403 -2.5164  2.7754
  175SOL    HW2  525   1.074   0.929   3.058  0.5102  2.2704  2.1804
  176SOL     OW  526   1.478   0.581   0.349 -0.2530 -0.3298  0.4855
  176SOL    HW1  527   1.464   0.520   0.267 -4.1543 -1.0253 -2.0570
  176SOL    HW2  528   1.403   0.642   0.362  0.6521 -0.9081 -1.3488
  177SOL     OW  529   1.300   0.960   0.834 -0.0335  0.3635 -0.4377
  177SOL    HW1  530   1.333   0.980   0.743 -1.7989  0.4223  0.2339
  177SOL    HW2  531   1.244   1.037   0.875  1.7736  0.0092 -0.7135
  178SOL     OW  532   2.685   1.841   2.608 -0.3329  0.2304  0.3856
  178SOL    HW1  533   2.702   1.744   2.584 -2.0656  3.3169  4.1685
  178SOL    HW2  534   2.601   1.880   2.570 -1.6681 -0.0429  1.8560
  179SOL     OW  535   0.674   2.871   2.756  0.3146 -0.6531 -0.2444
  179SOL    HW1  536   0.731   2.883   2.841 -0.2955  1.0108  1.6177
  179SOL    HW2  537   0.701   2.941   2.689  0.2289 -1.0522  0.6676
  180SOL     OW  538   1.922   1.566   1.534  0.0629  0.1338  0.0528
  180SOL    HW1  539   1.922   1.477   1.489 -0.4291  3.0101 -0.8485
  180SOL    HW2  540   1.944   1.639   1.471 -1.8046 -0.7774 -0.5895
  181SOL     OW  541   1.347   1.510   2.219  0.1810 -0.4037 -0.0964
  181SOL    HW1  542   1.422   1.560   2.171 -1.1479  1.8742  0.8830
  181SOL    HW2  543   1.358   1.509   2.323  2.1598  0.4335  1.7981
  182SOL     OW  544   2.944   0.587   2.561  0.2148 -0.0600 -0.3304
  182SOL    HW1  545   2.862   0.596   2.622  0.0553 -0.8879  1.8354
  182SOL    HW2  546   2.938   0.516   2.494 -2.0323  0.6883  3.8346
  183SOL     OW  547   1.617   0.030   2.879  0.2551 -0.0258 -0.3414
  183SOL    HW1  548   1.688   0.020   2.809 -2.3118  2.0611  1.8964
  183SOL    HW2  549   1.649   0.048   2.974 -2.0719 -1.6776 -2.1353
  184SOL     OW  550   0.745   0.518   1.654  0.0835 -0.0311 -0.5064
  184SOL    HW1  551   0.770   0.533   1.752 -0.5939 -0.9684  0.8719
  184SOL    HW2  552   0.656   0.560   1.634 -0.4967 -0.7293  0.8006
  185SOL     OW  553   2.751   1.027   0.840  0.1292  0.1259 -0.3908
  185SOL    HW1  554   2.791   1.121   0.819  2.5297 -0.0515  2.7903
  185SOL    HW2  555   2.725   1.024   0.938  0.6811  1.6004 -0.4908
  186SOL     OW  556   0.490   1.975   2.872  0.6378 -0.2569  0.2773
  186SOL    HW1  557   0.483   1.959   2.971 -0.6401  1.6794  0.1174
  186SOL    HW2  558   0.422   2.044   2.844 -0.5070 -0.3898 -0.1445
  187SOL     OW  559   2.638   1.249   0.185 -0.5078  0.0681 -0.4008
  187SOL    HW1  560   2.735   1.270   0.201 -0.5814 -2.2263 -1.9514
  187SOL    HW2  561   2.628   1.199   0.095  1.7173 -0.9433  0.8912
  188SOL     OW  562   0.386   2.112   0.578 -0.1512  0.7939  0.1114
  188SOL    HW1  563   0.439   2.176   0.519 -0.1692 -4.9442  0.8825
  188SOL    HW2  564   0.317   2.067   0.516 -0.1492  0.6436  0.8512
  189SOL     OW  565   2.488   0.864   0.289  0.4409  0.2656  0.3532
  189SOL    HW1  566   2.447   0.896   0.200  3.1026 -1.0615  0.5441
  189SOL    HW2  567   2.506   0.939   0.353 -0.7702  0.1519 -1.3874
  190SOL     OW  568   1.101   1.576   2.152 -0.2579 -0.2326 -0.6671
  190SOL    HW1  569   1.191   1.549   2.190 -0.8302  2.0913  1.2573
  190SOL    HW2  570   1.054   1.644   2.214  0.2716  0.3687 -0.5894
  191SOL     OW  571   2.658   0.593   1.579 -0.5460  0.4051  0.0880
  191SOL    HW1  572   2.660   0.538   1.488 -0.5713 -1.5418  1.2234
  191SOL    HW2  573   2.706   0.687   1.569 -1.0272  2.0505  0.4103
  192SOL     OW  574   2.018   0.188   1.935 -0.3865  0.1182  0.2497
  192SOL    HW1  575   2.046   0.089   1.929 -1.3716 -4.3504 -0.2075
  192SOL    HW2  576   2.048   0.237   2.017 -2.6940  1.9192 -1.0278
  193SOL     OW  577   0.620   0.771   0.524  0.0067  0.2523 -0.3531
  193SOL    HW1  578   0.638   0.783   0.629  2.0354  0.7001  1.7268
  193SOL    HW2  579   0.570   0.850   0.478  1.1894 -2.0901 -2.8411
  194SOL     OW  580   1.270   2.421   1.665  0.1543  0.0425  0.3058
  194SOL    HW1  581   1.197   2.348   1.653  0.4801 -0.3392  1.2393
  194SOL    HW2  582   1.346   2.396   1.598  0.7679 -0.0802 -1.2186
  195SOL     OW  583   2.174   0.544   0.937 -0.2309 -0.0482  0.8875
  195SOL    HW1  584   2.236   0.619   0.967 -3.2238 -0.5551  0.0852
  195SOL    HW2  585   2.083   0.577   0.898 -0.5705  0.3235 -1.5451
  196SOL     OW  586   1.666   2.057   1.934  0.0240  0.1630 -0.3952
  196SOL    HW1  587   1.620   2.019   2.018 -0.4831  1.8043 -0.0006
  196SOL    HW2  588   1.591   2.114   1.892 -3.2242 -1.5281 -3.4824
  197SOL     OW  589   0.303   0.200   0.030  0.1635 -0.0800 -0.0302
  197SOL    HW1  590   0.284   0.188   0.129 -0.3065 -1.2658 -0.0539
  197SOL    HW2  591   0.347   0.115   3.099 -0.1299  1.2576  0.4474
  198SOL     OW  592   1.345   1.304   0.736  0.3325 -0.2373  0.2936
  198SOL    HW1  593   1.332   1.399   0.703 -0.4728  0.9135 -0.2381
  198SOL    HW2  594   1.281   1.290   0.813 -0.1406 -2.6355 -0.4397
  199SOL     OW  595   2.640   1.111   1.978 -0.5163  0.4270 -0.0004
  199SOL    HW1  596   2.680   1.023   2.012 -0.1001 -2.7660  2.0484
  199SOL    HW2  597   2.698   1.155   1.901  2.2613 -0.0965  1.6053
  200SOL     OW  598   2.753   2.345   2.558  0.7336 -0.1306 -0.0865
  200SOL    HW1  599   2.767   2.387   2.462 -1.5201  1.1094  1.1903
  200SOL    HW2  600   2.732   2.413   2.626  1.3500 -1.8327 -1.1449
  201SOL     OW  601   2.741   0.124   1.198  0.1620  0.1777  0.0378
  201SOL    HW1  602   2.823   0.103   1.140 -1.0085 -1.3861 -1.1175
  201SOL    HW2  603   2.648   0.116   1.149 -0.3972 -0.9209  2.4636
  202SOL     OW  604   1.901   0.305   0.736  1.1473  0.1214  0.7643
  202SOL    HW1  605   1.805   0.330   0.714 -2.0102 -2.4931 -0.0516
  202SOL    HW2  606   1.916   0.287   0.831 -0.7258  1.7472 -5.4124
  203SOL     OW  607   1.590   1.946   2.175 -0.0092  0.2671 -0.3685
  203SOL    HW1  608   1.486   1.948   2.182 -1.0832 -0.2287 -1.1566
  203SOL    HW2  609   1.626   1.849   2.183 -2.0697 -0.1780  1.8178
  204SOL     OW  610   0.644   1.636   2.033 -0.2828  0.5430  0.0380
  204SOL    HW1  611   0.686   1.574   1.965 -0.5625  0.7764  0.6261
  204SOL    HW2  612   0.702   1.716   2.058  3.2090  2.0230  2.8568
  205SOL     OW  613   0.924   1.718   1.527  0.4047 -0.0157 -0.6028
  205SOL    HW1  614   0.871   1.634   1.554 -0.6532 -2.4293 -0.6310
  205SOL    HW2  615   0.904   1.792   1.595 -0.2167  1.2780  0.9578
  206SOL     OW  616   0.008   0.374   2.983 -0.1408 -0.5893  0.3924
  206SOL    HW1  617   0.017   0.344   3.082  0.6912  2.5645  0.8438
  206SOL    HW2  618   3.014   0.413   2.972 -0.5469  0.9706  0.4851
  207SOL     OW  619   1.718   2.793   1.991 -0.3240  0.5413  0.2209
  207SOL    HW1  620   1.726   2.894   1.993  3.0811 -0.6888 -1.2054
  207SOL    HW2  621   1.777   2.749   2.057 -1.1869  1.2221 -1.5774
  208SOL     OW  622   0.411   2.133   1.289  0.0854 -0.2407  0.2285
  208SOL    HW1  623   0.396   2.037   1.266  4.0403 -0.4619 -0.4259
  208SOL    HW2  624   0.368   2.191   1.217 -0.1095 -0.6795 -1.1911
  209SOL     OW  625   1.528   1.248   2.192  0.4135 -0.6109  0.1137
  209SOL    HW1  626   1.480   1.160   2.212  0.5922  0.7176  2.2241
  209SOL    HW2  627   1.462   1.328   2.205 -1.3656  1.1888  0.0980
  210SOL     OW  628   1.893   0.865   1.292  0.4748  0.3603 -0.1223
  210SOL    HW1  629   1.905   0.875   1.189 -1.3326  0.1366 -1.0257
  210SOL    HW2  630   1.871   0.767   1.316 -2.3700 -2.0866  1.1809
  211SOL     OW  631   0.447   0.105   0.500 -0.8550 -0.3991 -0.4370
  211SOL    HW1  632   0.525   0.039   0.506 -1.3738 -1.4784  1.2087
  211SOL    HW2  633   0.398   0.093   0.416  1.0900 -0.0786  0.6388
  212SOL     OW  634   1.827   1.463   0.100 -0.0117  0.1445 -0.2828
  212SOL    HW1  635   1.746   1.515   0.074 -0.0597 -3.8291  1.6212
  212SOL    HW2  636   1.814   1.433   0.196 -1.6062 -0.9909 -0.1710
  213SOL     OW  637   1.420   0.351   2.676 -0.2385 -0.0235 -0.3245
  213SOL    HW1  638   1.508   0.339   2.626 -0.1866 -1.8927 -1.3347
  213SOL    HW2  639   1.429   0.373   2.772 -3.5377  0.7140 -3.6196
  214SOL     OW  640   1.553   1.604   2.092 -0.6589  0.5685  0.2751
  214SOL    HW1  641   1.619   1.601   2.172 -3.7912 -1.0287  1.1074
  214SOL    HW2  642   1.576   1.679   2.022 -1.7910 -0.4016  0.8777
  215SOL     OW  643   0.517   1.957   0.332 -0.4049  0.2515  0.1670
  215SOL    HW1  644   0.496   1.934   0.231 -1.0392  4.2731 -0.0616
  215SOL    HW2  645   0.555   2.052   0.332 -0.7324 -1.1302 -0.8115
  216SOL     OW  646   0.598   2.819   2.425 -0.2412  0.3424 -0.2708
  216SOL    HW1  647   0.694   2.840   2.384  2.0533 -0.5794 -1.8529
  216SOL    HW2  648   0.533   2.883   2.379 -1.5799 -1.8643  0.7622
  217SOL     OW  649   2.369   0.909   0.778  0.4602 -0.2803 -0.0576
  217SOL    HW1  650   2.449   0.887   0.719  0.6577  0.6934  1.6314
  217SOL    HW2  651   2.286   0.943   0.731 -1.5115  0.0822 -3.1892
  218SOL     OW  652   1.735   1.779   1.963 -0.1241  0.0831 -0.2423
  218SOL    HW1  653   1.793   1.865   1.967 -0.6712  3.0381 -0.2617
  218SOL    HW2  654   1.789   1.702   1.925 -0.6645  2.2057 -1.4150
  219SOL     OW  655   1.830   1.321   2.950  0.1770 -0.0345 -0.2986
  219SOL    HW1  656   1.876   1.323   2.855  1.0011 -0.3329 -2.1394
  219SOL    HW2  657   1.766   1.399   2.954  0.7568 -1.1050 -1.1837
  220SOL     OW  658   1.371   1.589   1.001  0.6296  0.4238 -0.0902
  220SOL    HW1  659   1.393   1.687   1.014  0.5552  1.7283 -3.1547
  220SOL    HW2  660   1.446   1.540   0.947  2.9350 -2.9844 -0.2632
  221SOL     OW  661   0.739   0.796   2.968 -0.6336 -0.6540 -0.4970
  221SOL    HW1  662   0.682   0.876   2.941  0.9858 -1.8934 -1.0819
  221SOL    HW2  663   0.682   0.713   2.977  0.5319  0.4371 -2.5851
  222SOL     OW  664   0.860   1.582   0.929  0.4317  0.1649  0.2696
  222SOL    HW1  665   0.796   1.502   0.909 -0.3375  1.5447  3.2698
  222SOL    HW2  666   0.815   1.650   0.990  0.3197 -0.4884 -1.4841
  223SOL     OW  667   1.329   0.084   2.986  0.4161 -0.5182 -0.0452
  223SOL    HW1  668   1.408   0.037   2.946 -1.5545 -1.6879 -0.0900
  223SOL    HW2  669   1.277   0.139   2.917  0.1838  0.6821  0.1329
  224SOL     OW  670   2.709   0.402   1.400  0.4681 -0.1949 -0.3084
  224SOL    HW1  671   2.741   0.323   1.461 -1.5851 -1.5415  0.4324
  224SOL    HW2  672   2.658   0.368   1.318  2.0461  1.1461  2.1348
  225SOL     OW  673   0.908   0.468   1.307  0.4367  0.4862 -0.5854
  225SOL    HW1  674   0.982   0.520   1.350 -1.2466  1.0916 -2.2730
  225SOL    HW2  675   0.822   0.521   1.327 -0.3296  1.5972  1.6950
  226SOL     OW  676   1.661   1.727   2.826 -0.2535 -0.1310 -0.6431
  226SOL    HW1  677   1.588   1.776   2.771 -0.9498 -0.5605  0.4236
  226SOL    HW2  678   1.676   1.785   2.906 -0.2042  0.0884 -1.6118
  227SOL     OW  679   1.330   1.898   1.361 -0.8408 -0.0500 -0.5442
  227SOL    HW1  680   1.361   1.822   1.425  1.3127 -2.1886  1.2073
  227SOL    HW2  681   1.229   1.905   1.372 -0.3120 -1.0659  0.2250
  228SOL     OW  682   0.457   1.604   0.672  0.3394  0.6074 -0.0413
  228SOL    HW1  683   0.516   1.684   0.655  0.4089 -1.6570  2.5580
  228SOL    HW2  684   0.466   1.577   0.770 -0.9911 -1.2722 -1.2178
  229SOL     OW  685   1.310   0.505   2.996  0.4300  0.5165 -0.0416
  229SOL    HW1  686   1.300   0.592   2.945  0.8429  1.3710  1.6735
  229SOL    HW2  687   1.408   0.469   2.993  2.4834 -0.6520  0.7814
  230SOL     OW  688   1.259   0.533   2.343  0.6823 -0.2448 -0.7034
  230SOL    HW1  689   1.213   0.465   2.280 -2.8390  0.8631 -2.7429
  230SOL    HW2  690   1.212   0.538   2.433  1.5535  1.9768  2.1442
  231SOL     OW  691   0.994   1.793   2.304 -0.6517 -0.6585 -0.5927
  231SOL    HW1  692   1.059   1.783   2.383  0.5160  2.9104  1.9440
  231SOL    HW2  693   0.988   1.890   2.278  3.1617 -0.8248 -0.3142
  232SOL     OW  694   2.180   1.958   0.907 -0.7004 -0.5142 -0.1561
  232SOL    HW1  695   2.160   1.897   0.827  0.5151 -0.3049 -5.1288
  232SOL    HW2  696   2.279   1.963   0.916 -0.8009 -3.3632 -2.8539
  233SOL     OW  697   2.228   2.790   0.041 -0.0453  0.0535 -0.5385
  233SOL    HW1  698   2.154   2.840   0.091  3.6686 -0.9523 -0.7503
  233SOL    HW2  699   2.300   2.854   0.002 -0.9794 -0.3816  1.8351
  234SOL     OW  700   0.839   0.256   2.820 -0.1649 -0.5877 -0.5908
  234SOL    HW1  701   0.801   0.253   2.916  1.0689  0.5635 -0.2823
  234SOL    HW2  702   0.901   0.173   2.812 -1.5404 -2.6492 -1.5470
  235SOL     OW  703   2.233   0.076   2.633 -0.0761  0.0548 -0.0032
  235SOL    HW1  704   2.333   0.097   2.661  5.3189  0.9424  1.5667
  235SOL    HW2  705   2.238   0.040   2.539  1.2324 -0.4236  2.4707
  236SOL     OW  706   2.500   2.161   2.352 -0.1725 -0.0822  0.1537
  236SOL    HW1  707   2.468   2.074   2.317  1.6497  1.3156  3.5002
  236SOL    HW2  708   2.546   2.135   2.440 -0.4237  0.2707  0.4956
  237SOL     OW  709   0.919   1.401   2.050  0.2773 -0.2394  0.1213
  237SOL    HW1  710   0.875   1.441   1.966 -3.5174 -0.6443  1.8465
  237SOL    HW2  711   0.999   1.452   2.074 -2.4638  1.3586 -0.0141
  238SOL     OW  712   1.679   0.250   2.602 -0.1382  0.0464  0.3599
  238SOL    HW1  713   1.719   0.157   2.592  1.1848  0.1981  1.8895
  238SOL    HW2  714   1.753   0.321   2.590  0.7009  0.2688  2.4464
  239SOL     OW  715   0.290   1.884   1.909  1.0779  0.6231  0.0928
  239SOL    HW1  716   0.370   1.822   1.914  1.6120  2.0985  1.2119
  239SOL    HW2  717   0.207   1.836   1.875  1.5853  0.5402 -1.9951
  240SOL     OW  718   2.834   2.736   0.312 -0.4371  0.0655  0.5388
  240SOL    HW1  719   2.879   2.675   0.379 -0.2683 -2.0630  0.1733
  240SOL    HW2  720   2.879   2.829   0.312  0.5301  0.8498 -1.6535
  241SOL     OW  721   1.965   1.640   0.497 -0.5026 -0.6433 -0.0381
  241SOL    HW1  722   2.024   1.689   0.427 -0.5509 -2.6524  0.9352
  241SOL    HW2  723   1.866   1.662   0.476 -3.2697 -1.9464  1.0404
  242SOL     OW  724   1.429   1.852   2.719 -0.1181  0.1822  0.1598
  242SOL    HW1  725   1.447   1.846   2.617  1.2214 -0.3619  0.9814
  242SOL    HW2  726   1.400   1.947   2.748 -1.4657  2.0455  1.4639
  243SOL     OW  727   0.763   2.467   2.513 -0.2309 -0.2580 -0.0884
  243SOL    HW1  728   0.690   2.428   2.573 -0.6582  0.1248 -0.3153
  243SOL    HW2  729   0.809   2.548   2.563  0.6001  0.3030  0.9285
  244SOL     OW  730   2.097   0.308   2.638 -0.6803 -0.3277 -0.2086
  244SOL    HW1  731   2.053   0.317   2.732 -0.1358 -0.8610  3.4132
  244SOL    HW2  732   2.147   0.218   2.642 -0.6511 -0.7091  0.3676
  245SOL     OW  733   1.434   2.934   0.655  0.2341  0.0038  0.3029
  245SOL    HW1  734   1.407   2.976   0.739 -1.0960 -2.7016  1.5635
  245SOL    HW2  735   1.363   2.959   0.585  1.9584  1.4398 -0.0839
  246SOL     OW  736   1.385   2.613   0.367  0.0964 -0.5002  0.3164
  246SOL    HW1  737   1.470   2.665   0.375 -2.7745 -2.9447  0.8408
  246SOL    HW2  738   1.309   2.647   0.421  1.2277 -2.1812  2.0881
  247SOL     OW  739   0.798   0.612   2.359  0.4655  0.2020 -0.2041
  247SOL    HW1  740   0.796   0.547   2.283  0.3119 -0.6600  2.1355
  247SOL    HW2  741   0.710   0.659   2.370 -0.5082 -0.1376 -1.3301
  248SOL     OW  742   0.561   1.409   2.159  0.2162 -0.1622 -0.5497
  248SOL    HW1  743   0.657   1.375   2.160  1.5558  1.6344  1.5605
  248SOL    HW2  744   0.566   1.507   2.137 -1.1457 -1.2470  1.7409
  249SOL     OW  745   2.191   0.223   0.352  0.0790 -0.6964  0.4567
  249SOL    HW1  746   2.284   0.267   0.328  0.5837 -0.2725 -1.5364
  249SOL    HW2  747   2.146   0.272   0.433  0.6731  1.2991  0.7121
  250SOL     OW  748   0.799   0.135   0.781  0.0064  0.0464  0.0786
  250SOL    HW1  749   0.789   0.084   0.694  2.4720  0.2378  2.1234
  250SOL    HW2  750   0.788   0.234   0.771  0.8757 -1.6131  2.3834
  251SOL     OW  751   1.879   0.595   2.889  0.1298  0.3071 -0.2980
  251SOL    HW1  752   1.837   0.600   2.798  2.3540  1.4249  0.1689
  251SOL    HW2  753   1.940   0.675   2.898 -0.5893  0.3508 -0.1514
  252SOL     OW  754   2.107   1.525   2.033  0.0622 -0.3223  0.3165
  252SOL    HW1  755   2.096   1.432   2.080 -0.0273  0.4925 -0.8310
  252SOL    HW2  756   2.105   1.603   2.099  2.1722 -1.7888 -2.3502
  253SOL     OW  757   2.682   2.290   1.665  0.0659  0.5165  0.0624
  253SOL    HW1  758   2.707   2.319   1.758 -2.0721  0.3052 -2.5598
  253SOL    HW2  759   2.752   2.338   1.603 -0.1235 -1.3771  1.6141
  254SOL     OW  760   0.219   1.318   1.258  0.0688 -0.3983 -0.1682
  254SOL    HW1  761   0.296   1.262   1.211  2.3268 -2.0559 -3.2293
  254SOL    HW2  762   0.235   1.310   1.361 -0.3667 -0.3876  0.6051
  255SOL     OW  763   0.755   0.695   1.328 -0.1849  0.2938 -0.0129
  255SOL    HW1  764   0.685   0.721   1.262 -0.9046 -1.6878 -2.0981
  255SOL    HW2  765   0.842   0.747   1.318  1.1784  1.5402  1.5814
  256SOL     OW  766   1.977   2.588   1.753  0.1117  0.2123  0.2062
  256SOL    HW1  767   2.007   2.678   1.779 -0.3844  1.6272  0.5050
  256SOL    HW2  768   2.054   2.519   1.753  0.6676 -0.9600 -1.0686
  257SOL     OW  769   0.338   2.757   0.057 -0.6342  0.2681 -0.5059
  257SOL    HW1  770   0.424   2.795   0.102  2.6517 -0.3825 -0.0539
  257SOL    HW2  771   0.322   2.807   3.069  0.7720  0.5876  3.5267
  258SOL     OW  772   0.874   2.725   0.032 -0.5138 -0.0743 -0.3177
  258SOL    HW1  773   0.792   2.666   0.053  1.5487 -1.9446  0.8331
  258SOL    HW2  774   0.849   2.807   3.076  1.3095 -0.5452  0.9574
  259SOL     OW  775   1.135   0.047   2.262 -0.3346  0.0073 -0.2378
  259SOL    HW1  776   1.094   3.071   2.214  0.7768  1.1204  0.4200
  259SOL    HW2  777   1.237   0.049   2.243  1.7158 -1.3928 -1.2748
  260SOL     OW  778   1.809   0.484   1.060 -0.3531 -0.2012 -0.2846
  260SOL    HW1  779   1.845   0.391   1.037  0.7311  3.1011  1.8205
  260SOL    HW2  780   1.853   0.552   0.996  0.7343 -3.2702 -1.7635
  261SOL     OW  781   0.524   0.391   2.486 -0.2963 -0.0136 -0.5381
  261SOL    HW1  782   0.440   0.436   2.520  1.5152  1.8370 -2.0043
  261SOL    HW2  783   0.599   0.424   2.548  0.4743 -0.0642  0.8151
  262SOL     OW  784   3.070   2.433   2.233 -0.0015 -0.0838 -0.1986
  262SOL    HW1  785   0.035   2.508   2.247 -0.8360  0.2260 -0.1930
  262SOL    HW2  786   3.062   2.410   2.136 -1.1829 -1.2689  1.8525
  263SOL     OW  787   0.019   1.582   2.297  0.2840 -0.3637  0.1572
  263SOL    HW1  788   3.098   1.675   2.254  1.1441  1.6169  1.3544
  263SOL    HW2  789   0.063   1.605   2.380  2.7614  0.9617  0.6984
  264SOL     OW  790   0.365   1.101   0.868 -0.3503  0.3160  0.8429
  264SOL    HW1  791   0.331   1.192   0.831  0.6753  1.2154  1.0877
  264SOL    HW2  792   0.296   1.053   0.924  1.2431  0.6214  0.2406
  265SOL     OW  793   1.072   2.317   0.571  0.0574 -0.2072  0.0213
  265SOL    HW1  794   1.167   2.287   0.579 -0.9516  3.0028 -2.8603
  265SOL    HW2  795   1.022   2.304   0.661 -0.8005  3.1162  1.6880
  266SOL     OW  796   1.644   0.761   1.058 -0.6015 -0.2007 -0.1471
  266SOL    HW1  797   1.677   0.730   1.148 -2.5533  2.1468 -0.9558
  266SOL    HW2  798   1.643   0.684   0.991  0.6938 -1.6640  2.3969
  267SOL     OW  799   2.669   1.125   2.986  0.0673  0.6545  0.6430
  267SOL    HW1  800   2.725   1.040   3.009  0.5192 -1.5084 -0.8324
  267SOL    HW2  801   2.570   1.097   2.979 -1.1148 -0.2606  3.3687
  268SOL     OW  802   1.890   0.477   0.302  0.7046  0.0614  0.1614
  268SOL    HW1  803   1.884   0.375   0.291  0.4570 -3.4869  1.2990
  268SOL    HW2  804   1.832   0.507   0.384 -0.5666  2.0757  2.0613
  269SOL     OW  805   2.153   0.888   2.795  0.2260  0.5611  0.1109
  269SOL    HW1  806   2.055   0.888   2.765  0.0348 -0.1692  0.9063
  269SOL    HW2  807   2.178   0.987   2.812 -0.4509  4.7034 -0.6606
  270SOL     OW  808   3.045   0.802   3.039 -0.6351  0.5757  0.0909
  270SOL    HW1  809   3.097   0.805   2.954  1.7428  1.2868  1.3325
  270SOL    HW2  810   0.008   0.814   0.013  1.1676 -3.0096  1.6729
  271SOL     OW  811   2.762   0.741   0.223  0.2326  0.1377 -0.4812
  271SOL    HW1  812   2.664   0.760   0.255 -1.5647 -2.3163  0.5902
  271SOL    HW2  813   2.819   0.707   0.302  1.8965 -1.7891  0.7890
  272SOL     OW  814   0.111   2.333   2.919  0.3405 -0.5994 -0.4070
  272SOL    HW1  815   0.092   2.367   2.830  1.8283 -2.7717  2.3433
  272SOL    HW2  816   0.034   2.273   2.954  1.8039 -1.0442 -1.7758
  273SOL     OW  817   2.549   3.043   0.315  0.4292 -0.6200 -0.7440
  273SOL    HW1  818   2.597   0.030   0.313  1.2670  0.3567  0.8415
  273SOL    HW2  819   2.446   3.053   0.335 -0.4009  0.0374  1.7931
  274SOL     OW  820   0.467   2.296   0.997 -0.5049 -0.4799  0.7138
  274SOL    HW1  821   0.367   2.286   0.989  0.8129 -0.7332 -0.9212
  274SOL    HW2  822   0.509   2.221   0.941 -0.4839 -0.0132  0.4832
  275SOL     OW  823   2.824   1.608   0.530  0.1145 -0.0033  0.2981
  275SOL    HW1  824   2.810   1.612   0.630  1.6989  1.0396 -0.6419
  275SOL    HW2  825   2.916   1.563   0.511 -0.7211 -0.5508 -0.2806
  276SOL     OW  826   3.049   0.896   2.026 -0.1359 -0.0186  0.3469
  276SOL    HW1  827   3.015   0.984   2.067  1.6793  2.2296 -0.8680
  276SOL    HW2  828   2.993   0.873   1.943 -2.8358  3.5408 -1.7706
  277SOL     OW  829   2.137   2.897   1.289 -0.5145  0.5807  0.1074
  277SOL    HW1  830   2.070   2.829   1.263  2.4951  0.8730  0.6198
  277SOL    HW2  831   2.092   2.991   1.304 -3.6699  0.5574  0.8837
  278SOL     OW  832   1.453   2.563   2.216  0.4320  0.2385  0.2316
  278SOL    HW1  833   1.374   2.583   2.151 -0.9144  1.1465 -1.1218
  278SOL    HW2  834   1.428   2.530   2.308 -2.8770 -0.2722  2.4148
  279SOL     OW  835   1.542   1.949   0.435  0.0167  0.2556  0.4569
  279SOL    HW1  836   1.614   1.885   0.406  0.5324  0.7205 -0.9928
  279SOL    HW2  837   1.454   1.935   0.391  2.3145 -1.1071 -1.2932
  280SOL     OW  838   0.272   1.563   1.125 -0.5775 -0.5828 -0.2848
  280SOL    HW1  839   0.206   1.597   1.054 -1.4586 -0.0519  0.8516
  280SOL    HW2  840   0.238   1.489   1.188 -3.5697  2.0294  0.0910
  281SOL     OW  841   2.964   0.839   2.407  0.2261 -0.3388 -0.0921
  281SOL    HW1  842   2.911   0.835   2.324  0.5024  2.8623  0.7049
  281SOL    HW2  843   2.949   0.762   2.465 -0.7864 -0.1687 -1.1557
  282SOL     OW  844   0.700   1.393   0.803 -0.0626 -0.0052  0.1806
  282SOL    HW1  845   0.607   1.413   0.850 -1.4618  1.3818  0.6789
  282SOL    HW2  846   0.692   1.433   0.709 -0.4398  1.1068  3.7563
  283SOL     OW  847   1.934   2.292   0.154  0.2390  0.3170  0.1692
  283SOL    HW1  848   1.877   2.349   0.215  3.7255 -0.5662  0.6051
  283SOL    HW2  849   1.991   2.229   0.211  1.3486 -0.6902 -0.1931
  284SOL     OW  850   0.893   0.527   0.428  0.3273  0.0248 -0.4762
  284SOL    HW1  851   0.825   0.486   0.362 -1.1119 -0.2679  2.9589
  284SOL    HW2  852   0.896   0.631   0.422 -0.6186 -0.5592  2.1304
  285SOL     OW  853   2.185   1.148   2.876 -0.4565  0.0160  0.5121
  285SOL    HW1  854   2.170   1.206   2.792 -1.1406 -0.0949 -1.6917
  285SOL    HW2  855   2.115   1.160   2.949 -1.5058 -0.4390  0.0917
  286SOL     OW  856   1.678   2.244   1.285 -0.1392 -0.3654 -0.1175
  286SOL    HW1  857   1.608   2.194   1.343  2.1312 -1.1557 -1.5550
  286SOL    HW2  858   1.666   2.341   1.292 -0.6157 -0.3159  1.5899
  287SOL     OW  859   1.060   1.127   0.656  0.2409 -0.7779  0.4501
  287SOL    HW1  860   1.035   1.162   0.748 -1.2405 -0.4113  2.5314
  287SOL    HW2  861   0.998   1.168   0.584 -2.2884  1.9575 -0.0310
  288SOL     OW  862   1.045   2.523   0.041 -0.1760  0.6868  0.1115
  288SOL    HW1  863   0.966   2.588   0.029 -1.0286 -0.7627  2.9339
  288SOL    HW2  864   1.134   2.570   0.051 -3.1047  2.1424 -1.0035
  289SOL     OW  865   0.087   1.498   1.474 -0.2238 -0.9097 -0.1692
  289SOL    HW1  866   0.058   1.591   1.481  2.2139  0.4235 -0.0393
  289SOL    HW2  867   0.185   1.502   1.461  0.5008  1.9538 -0.5004
  290SOL     OW  868   1.553   2.324   0.877 -0.0421 -0.4381 -0.0371
  290SOL    HW1  869   1.474   2.292   0.934 -0.2572  1.4749  1.2257
  290SOL    HW2  870   1.623   2.253   0.858 -0.5905  1.6300 -0.6314
  291SOL     OW  871   1.981   2.970   2.945  0.0854  0.2057 -0.4817
  291SOL    HW1  872   1.979   3.068   2.973 -0.5311  0.7128  1.4372
  291SOL    HW2  873   1.963   2.906   3.022 -1.5963 -2.3272  0.3131
  292SOL     OW  874   0.881   0.347   2.166 -0.1778 -0.1207 -0.4127
  292SOL    HW1  875   0.974   0.363   2.197 -0.6772 -0.8494  0.1880
  292SOL    HW2  876   0.855   0.246   2.195  1.3014  0.0537 -0.1653
  293SOL     OW  877   1.966   2.310   0.931 -0.0101 -0.1254  0.3740
  293SOL    HW1  878   1.886   2.289   0.880  2.9266 -2.2640 -2.0552
  293SOL    HW2  879   2.003   2.233   0.980  1.1643  0.6149  0.3496
  294SOL     OW  880   0.562   0.748   2.414 -0.7144  0.3204  0.2637
  294SOL    HW1  881   0.494   0.695   2.464  1.9956 -0.8772  0.4770
  294SOL    HW2  882   0.539   0.848   2.427 -1.8110 -0.9507  2.1603
  295SOL     OW  883   1.595   1.512   0.858 -0.7748  0.2151 -0.0382
  295SOL    HW1  884   1.629   1.428   0.898 -3.7111  1.6728 -0.7922
  295SOL    HW2  885   1.670   1.578   0.837  0.4654  2.2848  2.3273
  296SOL     OW  886   2.681   1.698   0.260  1.0191  0.2103  0.1291
  296SOL    HW1  887   2.628   1.764   0.318 -1.9784 -2.0100 -2.7399
  296SOL    HW2  888   2.721   1.620   0.309 -2.5891  0.5413  0.5168
  297SOL     OW  889   2.084   2.946   0.211  0.3628  0.4249  0.0524
  297SOL    HW1  890   2.027   3.033   0.211 -0.6820  1.5708  0.2151
  297SOL    HW2  891   2.162   2.972   0.269 -1.1470 -0.3716  1.4823
  298SOL     OW  892   1.021   2.653   2.861  0.3267  0.0999  0.3147
  298SOL    HW1  893   1.086   2.587   2.814  0.9434  1.3576  1.6855
  298SOL    HW2  894   1.072   2.721   2.911 -1.9741 -3.4538  1.0865
  299SOL     OW  895   1.103   2.175   2.075 -0.0725  0.7361  0.0501
  299SOL    HW1  896   1.205   2.169   2.083 -2.8176  0.2872 -1.9235
  299SOL    HW2  897   1.070   2.272   2.053  0.1533  2.7165  0.0495
  300SOL     OW  898   2.496   0.147   2.717 -0.1151  0.7563 -0.3737
  300SOL    HW1  899   2.554   0.163   2.799 -2.4684  1.2441  0.2071
  300SOL    HW2  900   2.481   0.241   2.675 -0.6035 -1.6818 -0.0221
  301SOL     OW  901   1.269   1.111   2.130  0.1236  0.4082 -0.3330
  301SOL    HW1  902   1.217   1.170   2.065  1.8472 -3.5564  1.6600
  301SOL    HW2  903   1.329   1.041   2.079  1.5190 -0.1365 -1.9774
  302SOL     OW  904   2.827   2.947   0.029  0.1284  0.1570 -0.3273
  302SOL    HW1  905   2.750   3.012   0.041 -0.1629  1.4218  0.0206
  302SOL    HW2  906   2.871   2.940   0.120  1.6310 -2.1643  1.3384
  303SOL     OW  907   2.717   2.389   1.926 -0.3344  0.1001 -0.0969
  303SOL    HW1  908   2.642   2.357   1.982  2.7949 -0.1361 -0.4319
  303SOL    HW2  909   2.758   2.469   1.974 -0.1848  2.2679 -0.1508
  304SOL     OW  910   2.684   0.833   2.020 -0.4019 -0.2448  0.1243
  304SOL    HW1  911   2.718   0.812   1.928  0.1255  1.3524  0.4811
  304SOL    HW2  912   2.704   0.755   2.082 -0.6948 -1.5253 -0.4366
  305SOL     OW  913   0.517   1.408   1.479  0.2273  0.4154  0.1312
  305SOL    HW1  914   0.568   1.392   1.388  1.1797  1.3141 -0.5421
  305SOL    HW2  915   0.447   1.476   1.465  0.5281  0.0614 -1.9447
  306SOL     OW  916   0.018   1.126   1.821 -0.1698  0.3985 -0.0990
  306SOL    HW1  917   0.091   1.189   1.854 -1.6101  0.6287  0.0230
  306SOL    HW2  918   3.095   1.056   1.893 -0.6642  1.4043  0.2125
  307SOL     OW  919   1.038   0.786   1.657 -0.2118  0.2124  0.1996
  307SOL    HW1  920   1.048   0.731   1.574  0.4227 -0.2049  2.7458
  307SOL    HW2  921   1.129   0.819   1.687  0.3429 -2.4265 -4.1657
  308SOL     OW  922   3.001   0.971   1.120 -0.0494  0.5102  0.1579
  308SOL    HW1  923   2.932   0.908   1.159 -2.0110  1.3256 -1.3124
  308SOL    HW2  924   3.071   0.994   1.195  3.2076  1.5092  2.1193
  309SOL     OW  925   2.333   1.185   1.325 -0.0307  0.6237 -0.3820
  309SOL    HW1  926   2.371   1.245   1.252 -1.9655 -1.3730 -2.7854
  309SOL    HW2  927   2.382   1.095   1.328  1.1326 -1.2787 -2.6933
  310SOL     OW  928   2.956   2.194   2.662  0.2740  0.1637 -0.5527
  310SOL    HW1  929   2.936   2.093   2.673  0.9150 -0.2537 -0.8534
  310SOL    HW2  930   2.869   2.237   2.629  1.1773 -1.0421  2.5616
  311SOL     OW  931   2.831   2.898   2.674  0.2995 -0.2025  0.3726
  311SOL    HW1  932   2.728   2.926   2.684 -0.7601 -0.1021  2.3283
  311SOL    HW2  933   2.841   2.808   2.631 -1.3041 -0.4363  0.7359
  312SOL     OW  934   2.152   1.929   0.126 -0.0743  0.0841 -0.1211
  312SOL    HW1  935   2.214   1.982   0.069 -1.5310  0.1520  2.4317
  312SOL    HW2  936   2.076   1.889   0.069  1.0871 -0.2761  0.3053
  313SOL     OW  937   2.572   2.790   0.458 -0.0133  0.6254  0.2695
  313SOL    HW1  938   2.658   2.761   0.413 -0.9280  1.6705 -1.0968
  313SOL    HW2  939   2.554   2.891   0.447  0.3261 -1.2456  0.8732
  314SOL     OW  940   1.593   1.222   0.153  0.2896  0.0910 -0.5659
  314SOL    HW1  941   1.501   1.180   0.170  0.8595 -1.0828 -0.6598
  314SOL    HW2  942   1.610   1.228   0.055 -0.0434 -2.9145 -0.8357
  315SOL     OW  943   1.311   2.863   2.015  0.1983 -0.0488 -0.1560
  315SOL    HW1  944   1.366   2.916   2.080  0.2658 -1.5314 -0.3967
  315SOL    HW2  945   1.214   2.888   2.031  2.9467 -1.0966  1.0376
  316SOL     OW  946   2.800   0.905   0.006  0.1566 -0.4004 -0.3571
  316SOL    HW1  947   2.884   0.877   3.054 -0.9605 -0.3940 -2.0970
  316SOL    HW2  948   2.787   0.838   0.085  3.5495 -1.2429 -3.1152
  317SOL     OW  949   0.424   3.097   0.220 -0.5521 -0.0466 -0.1122
  317SOL    HW1  950   0.345   3.065   0.276  1.4315 -0.0510 -0.7592
  317SOL    HW2  951   0.471   3.021   0.176 -0.0459 -1.4078  1.4864
  318SOL     OW  952   2.203   2.463   0.882  0.3890  0.1967  0.1557
  318SOL    HW1  953   2.112   2.426   0.913 -1.7302 -0.4378  0.1497
  318SOL    HW2  954   2.200   2.514   0.791  1.8448 -1.0291 -1.5853
  319SOL     OW  955   1.027   1.774   2.967  0.1180 -0.5745  0.4431
  319SOL    HW1  956   0.986   1.846   3.025 -1.8334 -0.4380  1.3775
  319SOL    HW2  957   0.952   1.721   2.927  4.1340  1.1887  2.2176
  320SOL     OW  958   0.209   2.369   1.858  0.5332 -0.1152  0.5079
  320SOL    HW1  959   0.278   2.435   1.900  0.6735  0.5730  1.0333
  320SOL    HW2  960   0.252   2.280   1.830 -0.5421  3.0850  1.0450
  321SOL     OW  961   1.490   2.913   2.837  0.2902 -0.1157 -0.6918
  321SOL    HW1  962   1.525   3.006   2.859 -0.2304  0.8696 -0.3450
  321SOL    HW2  963   1.550   2.872   2.772 -0.1934 -0.1029 -1.1657
  322SOL     OW  964   2.871   1.440   2.136  0.4753 -0.5985 -0.1700
  322SOL    HW1  965   2.943   1.448   2.209  0.4338 -0.4303  3.8386
  322SOL    HW2  966   2.788   1.385   2.169 -0.6557  0.3662 -0.3921
  323SOL     OW  967   2.147   1.093   1.073 -0.2145 -0.6198  0.4267
  323SOL    HW1  968   2.236   1.095   1.024  1.2173  1.0577  0.1971
  323SOL    HW2  969   2.124   1.179   1.122 -0.2446  1.6609  3.2310
  324SOL     OW  970   2.992   3.017   2.502  0.2882  0.3707  0.7787
  324SOL    HW1  971   2.955   0.010   2.504 -0.3887 -1.6555  3.0489
  324SOL    HW2  972   2.952   2.962   2.574 -0.9524  1.6153 -3.3332
  325SOL     OW  973   1.303   0.798   2.613  0.2682 -0.1868  0.1461
  325SOL    HW1  974   1.284   0.697   2.603  1.0584 -0.5514 -0.4628
  325SOL    HW2  975   1.214   0.848   2.617 -1.9658  0.4690 -0.0259
  326SOL     OW  976   1.957   2.632   2.067  0.0199  0.2180  0.0206
  326SOL    HW1  977   2.051   2.677   2.069  0.2885  2.5740 -1.0370
  326SOL    HW2  978   1.968   2.529   2.049  1.8444 -1.8736  0.8085
  327SOL     OW  979   1.992   0.121   0.198  0.1427 -0.1969 -0.9834
  327SOL    HW1  980   1.913   0.126   0.258  0.5309 -1.0613  1.2872
  327SOL    HW2  981   2.064   0.170   0.247 -0.1898  0.7913 -0.8111
  328SOL     OW  982   0.280   1.396   2.419  0.1730 -0.1986  0.2067
  328SOL    HW1  983   0.274   1.360   2.320 -1.8951 -2.0038 -2.0628
  328SOL    HW2  984   0.196   1.444   2.450 -2.6695  1.9662  0.8481
  329SOL     OW  985   2.298   3.093   2.030 -0.0735 -0.7588 -0.6614
  329SOL    HW1  986   2.262   3.012   1.977  2.1462 -1.0579  0.8961
  329SOL    HW2  987   2.394   3.099   2.008  0.1514 -0.0909 -1.6989
  330SOL     OW  988   3.029   1.229   0.820 -0.5810 -0.1462  0.1564
  330SOL    HW1  989   2.936   1.268   0.809  2.5254  1.1874 -0.3803
  330SOL    HW2  990   3.073   1.277   0.895  1.5002  0.6698 -2.4320
  331SOL     OW  991   0.420   1.666   2.262 -0.1846 -0.4644 -0.1295
  331SOL    HW1  992   0.383   1.732   2.326 -1.4768  0.8393 -1.1643
  331SOL    HW2  993   0.522   1.655   2.266  1.8528 -3.0265 -1.0272
  332SOL     OW  994   0.271   0.028   1.627 -0.3511 -0.0470 -0.2299
  332SOL    HW1  995   0.354   3.069   1.613  3.5295 -1.3349  0.8612
  332SOL    HW2  996   0.194   0.009   1.574  2.6919  2.5893  3.2582
  333SOL     OW  997   2.124   2.994   0.977  0.8230 -0.3566 -0.1565
  333SOL    HW1  998   2.026   3.021   0.958 -4.2164  0.7247 -2.0300
  333SOL    HW2  999   2.165   3.031   1.060 -0.4326  1.7681 -2.6330
  334SOL     OW 1000   0.571   1.822   0.581 -0.2582 -0.4265  0.2300
  334SOL    HW1 1001   0.554   1.845   0.482 -0.1148 -0.2331 -1.5818
  334SOL    HW2 1002   0.637   1.887   0.622  0.3282  0.5261  0.5435
  335SOL     OW 1003   0.435   2.480   0.089  0.7543 -0.0270 -0.1354
  335SOL    HW1 1004   0.430   2.410   0.013  0.6330 -2.6294 -0.0663
  335SOL    HW2 1005   0.373   2.562   0.078 -0.0825 -0.1895  1.1694
  336SOL     OW 1006   0.382   3.087   2.351  0.2412 -0.4634 -0.1778
  336SOL    HW1 1007   0.326   0.009   2.430 -1.8640  1.4928 -1.5462
  336SOL    HW2 1008   0.325   3.040   2.281 -1.0978  1.7463  1.9851
  337SOL     OW 1009   2.526   2.178   2.630  0.3497  0.3557 -0.3560
  337SOL    HW1 1010   2.620   2.217   2.628 -0.9382 -0.8396  0.4375
  337SOL    HW2 1011   2.481   2.202   2.716 -0.6691  0.4864  2.1966
  338SOL     OW 1012   0.954   0.980   1.042  0.3152 -0.4934 -0.3944
  338SOL    HW1 1013   0.981   0.906   0.976  2.3290 -0.5838 -0.8468
  338SOL    HW2 1014   0.903   1.058   0.997 -3.0741  4.2449 -2.6256
  339SOL     OW 1015   0.099   0.659   2.116  0.0164  0.6739 -0.1872
  339SOL    HW1 1016   0.156   0.674   2.195 -1.4809 -1.9035 -1.0829
  339SOL    HW2 1017   0.044   0.744   2.093  1.7193  0.4452 -0.2939
  340SOL     OW 1018   1.574   2.801   0.323  0.1179 -0.1897  0.1283
  340SOL    HW1 1019   1.624   2.868   0.384  1.5429 -0.7801  3.1532
  340SOL    HW2 1020   1.582   2.829   0.225  4.1149  0.7424  1.0898
  341SOL     OW 1021   1.957   0.904   1.029  0.3600 -0.2254 -0.1215
  341SOL    HW1 1022   1.898   0.931   0.950  1.7421  1.5948 -0.3992
  341SOL    HW2 1023   2.018   0.979   1.056 -0.5894 -0.7852  2.2486
  342SOL     OW 1024   2.401   2.951   3.003  0.1248 -0.0136  0.0576
  342SOL    HW1 1025   2.322   2.956   2.936  2.1032 -2.6558  1.8928
  342SOL    HW2 1026   2.451   2.863   2.991 -0.3538 -0.4812  1.1540
  343SOL     OW 1027   1.456   2.117   1.739  0.8392  0.1587 -0.5345
  343SOL    HW1 1028   1.512   2.200   1.713  2.2490  2.5412  0.4435
  343SOL    HW2 1029   1.358   2.137   1.753  1.3873  1.7897  0.1223
  344SOL     OW 1030   2.111   2.423   1.246 -0.4076  0.1728 -0.3748
  344SOL    HW1 1031   2.057   2.475   1.177 -1.7719 -1.3807  0.1901
  344SOL    HW2 1032   2.190   2.474   1.279 -3.1695  1.7371  0.1833
  345SOL     OW 1033   2.652   2.517   0.193  0.1223  0.0468 -0.0352
  345SOL    HW1 1034   2.636   2.449   0.265  0.3568  2.7123 -0.9479
  345SOL    HW2 1035   2.681   2.609   0.232  0.9334  1.4007  0.4429
  346SOL     OW 1036   2.781   1.322   0.741 -0.6451 -0.4332  0.5123
  346SOL    HW1 1037   2.817   1.295   0.646  2.1234  0.0943 -2.7469
  346SOL    HW2 1038   2.683   1.344   0.740  1.5588 -1.7321 -0.1622
  347SOL     OW 1039   1.891   2.229   1.659  0.2825  0.3649 -0.7416
  347SOL    HW1 1040   1.974   2.241   1.716  1.1185 -1.3772  1.7004
  347SOL    HW2 1041   1.910   2.247   1.560  1.6332  1.6639  1.0731
  348SOL     OW 1042   0.693   1.763   3.091 -0.1459  0.2610 -0.1915
  348SOL    HW1 1043   0.688   1.705   3.004 -2.2499  0.0430 -2.7564
  348SOL    HW2 1044   0.705   1.701   0.069  0.7674 -0.4248  2.5266
  349SOL     OW 1045   2.541   1.367   1.521  0.2291  0.0807 -0.0915
  349SOL    HW1 1046   2.523   1.466   1.517 -1.1984 -2.3625 -1.5740
  349SOL    HW2 1047   2.641   1.344   1.516 -0.4709  0.6656  1.6891
  350SOL     OW 1048   2.834   2.532   1.079  0.6045  0.5828  0.0635
  350SOL    HW1 1049   2.832   2.575   1.168 -1.5154 -1.4475  0.1016
  350SOL    HW2 1050   2.744   2.545   1.031 -0.3881 -0.1800  0.2489
  351SOL     OW 1051   0.479   0.502   2.242 -0.3203 -0.3449 -0.9900
  351SOL    HW1 1052   0.544   0.479   2.166 -0.6364  0.1362 -0.1698
  351SOL    HW2 1053   0.511   0.451   2.326  1.9999 -0.2093  1.1170
  352SOL     OW 1054   0.775   1.784   1.136  0.0752 -0.1234 -0.0962
  352SOL    HW1 1055   0.841   1.793   1.209 -1.7646  0.7501 -1.3903
  352SOL    HW2 1056   0.683   1.750   1.166 -0.7187  1.0087  1.2934
  353SOL     OW 1057   1.528   1.876   2.464  0.5257  0.2194 -0.2697
  353SOL    HW1 1058   1.456   1.924   2.409  1.1304  1.7413 -0.1334
  353SOL    HW2 1059   1.588   1.813   2.406  3.6350 -1.5524  0.4127
  354SOL     OW 1060   1.103   0.556   0.813  0.0246  0.0996  0.1443
  354SOL    HW1 1061   1.059   0.501   0.891  0.2700 -2.1361  0.9413
  354SOL    HW2 1062   1.107   0.490   0.734 -1.8873 -1.4045  0.1179
  355SOL     OW 1063   2.507   0.654   0.633  0.1668 -0.3240 -0.0775
  355SOL    HW1 1064   2.546   0.745   0.619 -0.6229 -3.6988 -2.1060
  355SOL    HW2 1065   2.424   0.642   0.576 -0.3585 -1.5857 -2.1302
  356SOL     OW 1066   2.629   1.754   2.292 -0.2748  0.2565  0.2927
  356SOL    HW1 1067   2.641   1.714   2.384  2.0673  0.0786 -0.0147
  356SOL    HW2 1068   2.708   1.736   2.232 -0.9622  4.5552 -3.3076
  357SOL     OW 1069   0.794   2.580   1.175  0.3784  0.5661 -0.2797
  357SOL    HW1 1070   0.820   2.651   1.246  0.2262  0.7290 -2.8930
  357SOL    HW2 1071   0.780   2.485   1.216  0.3072 -3.0683 -1.2312
  358SOL     OW 1072   2.386   0.857   1.674  0.5602  0.3672  0.2085
  358SOL    HW1 1073   2.368   0.872   1.574  2.6902  3.3757 -1.2145
  358SOL    HW2 1074   2.395   0.945   1.725 -1.4284  0.1280 -0.2467
  359SOL     OW 1075   2.441   2.636   2.672  0.2073  0.2061  0.3172
  359SOL    HW1 1076   2.463   2.688   2.589  0.2065 -0.2095  0.7889
  359SOL    HW2 1077   2.344   2.590   2.663 -1.5631 -0.2748 -0.7591
  360SOL     OW 1078   1.664   0.352   0.660  0.0036  0.1371  0.4776
  360SOL    HW1 1079   1.678   0.434   0.596 -1.0403  3.3132  0.7315
  360SOL    HW2 1080   1.592   0.373   0.731  0.0616  0.1172  2.3288
  361SOL     OW 1081   2.383   3.097   1.437  0.5138  0.0666 -0.7787
  361SOL    HW1 1082   2.396   0.071   1.504 -1.2966  1.6547  1.4032
  361SOL    HW2 1083   2.356   3.012   1.488 -0.4001  0.5020  1.6823
  362SOL     OW 1084   1.209   1.216   0.411  0.1262  0.2532  0.8482
  362SOL    HW1 1085   1.180   1.191   0.503 -0.2527  0.9887  1.5436
  362SOL    HW2 1086   1.182   1.313   0.384  0.4784  0.1903  2.6868
  363SOL     OW 1087   2.545   1.590   2.804  0.5524  0.8695 -0.3540
  363SOL    HW1 1088   2.584   1.543   2.886  3.0130  1.0371  0.9553
  363SOL    HW2 1089   2.612   1.598   2.732  1.3799 -0.0890  3.7973
  364SOL     OW 1090   0.929   0.179   1.305  0.8692  0.0349  0.0019
  364SOL    HW1 1091   0.898   0.273   1.337  0.3772 -1.9560  0.3438
  364SOL    HW2 1092   0.850   0.118   1.305  1.7611  1.7179  1.6222
  365SOL     OW 1093   0.210   3.032   0.360 -0.0651  0.3556  0.7547
  365SOL    HW1 1094   0.141   3.005   0.293  0.2752 -0.6442  0.7859
  365SOL    HW2 1095   0.216   2.962   0.434 -2.4379 -2.0936 -4.0558
  366SOL     OW 1096   2.755   1.651   0.007  0.2999  0.0553 -0.0561
  366SOL    HW1 1097   2.707   1.669   0.094 -1.4675 -0.8749  0.0434
  366SOL    HW2 1098   2.859   1.659   0.019  0.9953 -4.4553 -0.6667
  367SOL     OW 1099   2.909   2.708   2.515  0.0494  0.3453 -0.2631
  367SOL    HW1 1100   2.954   2.777   2.456 -2.3639  2.0813 -2.2123
  367SOL    HW2 1101   2.857   2.632   2.473  1.8419 -2.7034 -0.6253
  368SOL     OW 1102   0.155   1.709   0.920 -0.3708 -0.0865 -0.1956
  368SOL    HW1 1103   0.097   1.786   0.960 -3.1942  4.1162  1.6059
  368SOL    HW2 1104   0.235   1.745   0.867 -0.2277 -1.5985 -1.2986
  369SOL     OW 1105   0.836   0.195   0.319 -0.5026  0.0993  0.4218
  369SOL    HW1 1106   0.853   0.149   0.229 -1.3929  0.3813 -1.0006
  369SOL    HW2 1107   0.764   0.267   0.300  0.1780  2.1174  0.1533
  370SOL     OW 1108   0.152   0.806   0.614  0.4031  0.3101  0.0531
  370SOL    HW1 1109   0.201   0.749   0.684 -2.1601 -2.5309 -1.9416
  370SOL    HW2 1110   0.097   0.883   0.658 -0.7855  1.4341  0.6678
  371SOL     OW 1111   1.875   2.840   0.652  0.0875 -0.4664 -0.0826
  371SOL    HW1 1112   1.942   2.916   0.674 -1.1208  0.1408  1.7074
  371SOL    HW2 1113   1.908   2.775   0.579  0.1008 -0.6316  2.6073
  372SOL     OW 1114   0.123   1.057   2.599  0.5046 -0.4360  0.6530
  372SOL    HW1 1115   0.202   1.122   2.581  3.1944  1.4644 -1.3213
  372SOL    HW2 1116   0.110   1.006   2.514 -1.2332 -0.6129 -0.5744
  373SOL     OW 1117   2.793   1.819   0.790  0.1877  0.1366  0.5375
  373SOL    HW1 1118   2.855   1.864   0.724  1.4633  1.1233 -1.4160
  373SOL    HW2 1119   2.823   1.734   0.835  1.7186 -1.2046 -1.0633
  374SOL     OW 1120   0.359   2.507   0.362 -0.0304 -0.0638 -0.1775
  374SOL    HW1 1121   0.403   2.503   0.275 -1.1855 -0.0486  2.7690
  374SOL    HW2 1122   0.409   2.446   0.428  0.9312 -3.7114  2.6252
  375SOL     OW 1123   0.317   0.601   0.100 -0.1254  0.2769 -0.2562
  375SOL    HW1 1124   0.385   0.672   0.112 -2.8017  0.6529  0.0869
  375SOL    HW2 1125   0.341   0.547   0.018 -2.7362  2.4097 -1.5038
  376SOL     OW 1126   0.553   2.457   2.121  0.1699  0.3303 -0.2877
  376SOL    HW1 1127   0.551   2.487   2.024 -0.2694  1.1441 -0.6918
  376SOL    HW2 1128   0.489   2.509   2.181  1.2171  1.7136 -2.6691
  377SOL     OW 1129   1.337   2.495   2.475  0.7050  0.0496  0.0393
  377SOL    HW1 1130   1.394   2.562   2.523  0.9548  2.2116  1.4513
  377SOL    HW2 1131   1.385   2.407   2.489  1.3305 -1.0193 -0.1591
  378SOL     OW 1132   1.151   0.911   0.539  0.0116 -0.2196  0.3104
  378SOL    HW1 1133   1.103   0.991   0.585  1.8865  0.8464 -1.7487
  378SOL    HW2 1134   1.253   0.915   0.563  1.5060 -1.7999  0.5390
  379SOL     OW 1135   0.962   1.735   0.260 -0.9394 -0.1746  0.3656
  379SOL    HW1 1136   1.018   1.737   0.343  0.2401 -2.3100  0.3348
  379SOL    HW2 1137   0.988   1.657   0.200  0.7337  0.9767  2.2881
  380SOL     OW 1138   0.115   1.864   1.291 -0.3018  0.5121 -0.1991
  380SOL    HW1 1139   0.041   1.806   1.248 -1.9381 -0.8743  1.4324
  380SOL    HW2 1140   0.073   1.954   1.322  1.0007  1.2909  1.0611
  381SOL     OW 1141   0.203   0.932   1.686 -0.2678  0.8275 -0.3546
  381SOL    HW1 1142   0.115   0.972   1.725  0.1244 -1.9611  2.7224
  381SOL    HW2 1143   0.250   0.868   1.748  1.8930 -0.4379  0.0410
  382SOL     OW 1144   2.545   2.066   0.665 -0.3396 -0.4577 -0.2514
  382SOL    HW1 1145   2.451   2.107   0.675  2.0207  2.1718  1.0588
  382SOL    HW2 1146   2.617   2.132   0.703 -0.0168 -0.0304  2.3173
  383SOL     OW 1147   2.531   1.868   1.866 -0.3544  0.0593 -1.0342
  383SOL    HW1 1148   2.520   1.946   1.804 -0.6087 -3.8211  1.3560
  383SOL    HW2 1149   2.580   1.885   1.949 -2.8347  3.7273 -2.8898
  384SOL     OW 1150   0.286   1.965   2.178 -0.2083 -0.1005  0.4146
  384SOL    HW1 1151   0.365   1.993   2.237  2.0101  0.6740  1.7119
  384SOL    HW2 1152   0.306   1.927   2.084 -1.1697  1.0969 -2.8817
  385SOL     OW 1153   2.848   2.187   0.741 -0.0750 -0.1550 -0.0248
  385SOL    HW1 1154   2.810   2.246   0.666 -1.3278  1.1862  1.6141
  385SOL    HW2 1155   2.926   2.235   0.786  0.2735 -0.2961 -0.5121
  386SOL     OW 1156   1.817   0.765   0.646 -0.4227 -0.0976  0.2848
  386SOL    HW1 1157   1.781   0.860   0.626  1.2902  1.5859 -1.3115
  386SOL    HW2 1158   1.899   0.747   0.585 -0.5004 -0.0369  1.7220
  387SOL     OW 1159   0.298   0.742   1.866 -0.2087  0.1954 -1.0650
  387SOL    HW1 1160   0.233   0.698   1.934  1.6996 -2.4931  0.2750
  387SOL    HW2 1161   0.350   0.823   1.907  3.5182  2.4794 -0.3585
  388SOL     OW 1162   2.260   1.053   2.363  0.1391  0.3510  0.0830
  388SOL    HW1 1163   2.280   1.128   2.433  2.1193  0.0212  2.8794
  388SOL    HW2 1164   2.178   1.000   2.394  0.5637 -1.0093  1.4687
  389SOL     OW 1165   1.750   1.373   1.769 -0.1107  0.1421  0.4964
  389SOL    HW1 1166   1.722   1.403   1.672  0.3154 -0.2946 -3.0311
  389SOL    HW2 1167   1.819   1.431   1.814  1.3510  2.5617  1.3423
  390SOL     OW 1168   1.939   2.682   0.230 -0.1119 -0.0052 -0.0164
  390SOL    HW1 1169   1.999   2.763   0.246  3.5690  0.0272  0.3295
  390SOL    HW2 1170   1.882   2.692   0.144  0.7651  1.3157 -2.3083
  391SOL     OW 1171   1.950   2.278   1.390  0.4373 -0.0202 -0.0061
  391SOL    HW1 1172   2.006   2.334   1.320  0.8021  1.8295  0.4990
  391SOL    HW2 1173   1.863   2.238   1.354  2.1022  0.0617  0.1586
  392SOL     OW 1174   3.058   2.511   0.891 -0.4449 -0.2512  0.3917
  392SOL    HW1 1175   2.995   2.515   0.972 -0.3600  1.0225 -0.0986
  392SOL    HW2 1176   3.077   2.412   0.857 -3.6326 -1.3592 -3.0544
  393SOL     OW 1177   1.975   1.807   3.085  0.1603  0.2035 -0.1095
  393SOL    HW1 1178   1.978   1.704   3.095  0.9968  0.0718  1.7601
  393SOL    HW2 1179   2.007   1.836   2.991  0.6117 -0.5647  0.2287
  394SOL     OW 1180   0.080   3.103   0.062  0.0978 -0.0008  0.1559
  394SOL    HW1 1181   0.090   0.021   3.066 -1.8228  0.0106 -0.9906
  394SOL    HW2 1182   0.085   3.003   0.090 -0.2339 -0.8829 -0.3864
  395SOL     OW 1183   1.280   1.130   1.221 -0.1025  0.0494 -0.0142
  395SOL    HW1 1184   1.341   1.049   1.208 -1.6080  0.0902  1.1529
  395SOL    HW2 1185   1.244   1.151   1.130  2.9223  1.7960  1.0472
  396SOL     OW 1186   1.636   0.927   2.994 -0.2546  0.0956 -0.1518
  396SOL    HW1 1187   1.641   1.028   2.994  0.6711  0.0191 -0.0125
  396SOL    HW2 1188   1.580   0.895   2.918  0.2989  0.9608 -0.3848
  397SOL     OW 1189   0.038   0.833   2.739  0.2391  0.4064 -0.4232
  397SOL    HW1 1190   3.060   0.782   2.713  0.6346  2.2423  0.7349
  397SOL    HW2 1191   0.077   0.892   2.664  2.3299 -1.5226 -0.5756
  398SOL     OW 1192   0.794   0.396   0.010 -0.2442 -0.2428 -0.2975
  398SOL    HW1 1193   0.761   0.418   0.102  1.5029  0.2631  0.0251
  398SOL    HW2 1194   0.894   0.413   3.094  1.7374 -0.1600 -0.7145
  399SOL     OW 1195   2.756   2.912   1.832  0.3753 -0.2774  0.5283
  399SOL    HW1 1196   2.782   2.965   1.749  3.2057  1.2965  1.0632
  399SOL    HW2 1197   2.762   2.812   1.809  0.3389  0.9373 -1.1476
  400SOL     OW 1198   0.217   1.623   2.099  0.6408 -0.4279  0.2635
  400SOL    HW1 1199   0.292   1.662   2.148  1.1928  1.5178 -0.2325
  400SOL    HW2 1200   0.150   1.579   2.166 -0.1542  0.2930  1.5094
  401SOL     OW 1201   0.722   0.470   2.721  1.0352  0.2182  0.3086
  401SOL    HW1 1202   0.682   0.493   2.814 -1.2024  0.7615  1.3709
  401SOL    HW2 1203   0.775   0.382   2.730  0.5742  0.6976 -0.8778
  402SOL     OW 1204   0.279   2.127   1.771  0.0845 -0.5109 -0.1794
  402SOL    HW1 1205   0.263   2.032   1.813 -0.3612 -1.3428  1.5762
  402SOL    HW2 1206   0.326   2.124   1.681 -0.2459  1.4755 -2.3907
  403SOL     OW 1207   0.687   1.093   1.563 -0.3436  0.0301 -0.3990
  403SOL    HW1 1208   0.670   0.993   1.558 -0.6209  1.2701  1.4548
  403SOL    HW2 1209   0.719   1.121   1.655 -0.7577  1.8877 -1.4999
  404SOL     OW 1210   2.851   2.392   1.470  0.4610  0.0678 -0.0708
  404SOL    HW1 1211   2.831   2.480   1.418 -0.1158  0.8511 -1.1071
  404SOL    HW2 1212   2.896   2.328   1.411  1.8497  0.5801  1.4593
  405SOL     OW 1213   0.089   0.314   1.797  0.0163  0.0449  0.7598
  405SOL    HW1 1214   0.131   0.361   1.878  1.5045 -2.1019  2.0455
  405SOL    HW2 1215   0.153   0.244   1.763  1.3730 -0.9106  0.8397
  406SOL     OW 1216   1.649   2.594   2.903 -0.7965  0.2600  0.6088
  406SOL    HW1 1217   1.685   2.510   2.955  0.3871  0.1058 -1.7699
  406SOL    HW2 1218   1.689   2.588   2.810  1.7152 -1.5399  0.6344
  407SOL     OW 1219   1.428   1.180   1.813 -0.0037  0.1014  0.0384
  407SOL    HW1 1220   1.448   1.265   1.862 -2.4796 -0.7276 -2.1613
  407SOL    HW2 1221   1.344   1.197   1.754  1.0159 -0.0046 -2.8114
  408SOL     OW 1222   0.818   3.073   2.605 -0.2910  0.2351  0.0953
  408SOL    HW1 1223   0.732   0.023   2.604 -0.5324  1.3340  1.0535
  408SOL    HW2 1224   0.892   0.017   2.549  0.4398  1.1903 -0.7713
  409SOL     OW 1225   2.932   2.563   0.515 -0.4742 -0.9411  0.1120
  409SOL    HW1 1226   2.876   2.482   0.544  2.9647  0.4444  2.6463
  409SOL    HW2 1227   3.014   2.538   0.460 -2.2914 -1.1203 -0.5008
  410SOL     OW 1228   2.535   1.519   0.521  0.4575 -0.8736  0.0415
  410SOL    HW1 1229   2.510   1.520   0.621  0.4690 -1.8751  2.1758
  410SOL    HW2 1230   2.619   1.576   0.504  4.0174  1.7271 -0.7477
  411SOL     OW 1231   3.047   0.677   1.035 -0.0652  0.2969  0.4429
  411SOL    HW1 1232   3.102   0.592   1.022  2.0200 -0.1694 -0.8217
  411SOL    HW2 1233   3.093   0.732   1.107  1.7061  0.0937  0.0512
  412SOL     OW 1234   1.470   0.402   0.845 -0.4688  0.0022 -0.5345
  412SOL    HW1 1235   1.396   0.340   0.878 -3.2857 -0.8010  0.6871
  412SOL    HW2 1236   1.437   0.498   0.846 -0.3128  0.4041 -0.6435
  413SOL     OW 1237   1.008   0.434   1.045 -0.1340  0.3930  0.3643
  413SOL    HW1 1238   1.060   0.350   1.065 -1.8204 -1.9713  0.8790
  413SOL    HW2 1239   0.963   0.460   1.129  0.0309 -0.7672 -1.5439
  414SOL     OW 1240   0.327   1.697   3.008 -0.0896 -0.2189  0.1882
  414SOL    HW1 1241   0.282   1.748   2.931  2.4707  1.1976  0.8422
  414SOL    HW2 1242   0.385   1.619   2.975  0.9422 -0.8427 -1.9329
  415SOL     OW 1243   0.593   2.198   0.015 -0.5151 -0.4833 -0.6031
  415SOL    HW1 1244   0.661   2.142   3.071 -0.2879 -0.7738  0.2885
  415SOL    HW2 1245   0.513   2.224   3.064 -0.3442 -2.4124  1.1240
  416SOL     OW 1246   1.587   0.839   0.357 -0.7652  0.4400  0.0822
  416SOL    HW1 1247   1.566   0.775   0.278  2.5081 -2.3773  1.3699
  416SOL    HW2 1248   1.658   0.913   0.343  0.8050  1.6763  2.1890
  417SOL     OW 1249   0.198   0.946   0.402 -0.6703 -0.1907  0.1818
  417SOL    HW1 1250   0.109   0.962   0.360 -1.6873 -1.9259  1.9191
  417SOL    HW2 1251   0.187   0.891   0.487  0.1576  1.4119  0.5693
  418SOL     OW 1252   2.576   1.348   2.439 -0.0025  0.0952  0.7972
  418SOL    HW1 1253   2.601   1.339   2.340  0.5456 -1.4540  0.5394
  418SOL    HW2 1254   2.484   1.305   2.452  0.2567 -1.8968 -1.6854
  419SOL     OW 1255   0.370   0.434   2.997  0.2567 -0.3342 -0.2142
  419SOL    HW1 1256   0.349   0.341   3.033  1.9320  1.2560 -0.8355
  419SOL    HW2 1257   0.309   0.455   2.922  2.6648  0.9839  1.5970
  420SOL     OW 1258   0.475   1.458   0.930  0.6313 -0.1492  0.2854
  420SOL    HW1 1259   0.435   1.495   1.014  0.2651  2.2620  1.0279
  420SOL    HW2 1260   0.406   1.403   0.869  0.5981  0.7057  0.5012
  421SOL     OW 1261   0.569   2.138   0.812 -0.2122 -0.0030 -0.1314
  421SOL    HW1 1262   0.621   2.221   0.783 -0.0228  0.5619 -0.6918
  421SOL    HW2 1263   0.500   2.122   0.736 -1.2718 -0.7403 -2.6303
  422SOL     OW 1264   2.928   0.815   1.381  0.1718 -0.1379  0.0064
  422SOL    HW1 1265   2.993   0.895   1.368 -0.3276  1.4896 -0.1475
  422SOL    HW2 1266   2.967   0.725   1.366 -2.8962  2.3484  1.0862
  423SOL     OW 1267   1.584   1.402   1.246 -0.3447 -0.1367  0.1576
  423SOL    HW1 1268   1.566   1.337   1.172 -0.3874 -1.1919  1.8669
  423SOL    HW2 1269   1.614   1.360   1.334  0.2715  0.1614  0.0351
  424SOL     OW 1270   1.779   1.019   0.295  0.8278 -0.2862  0.2336
  424SOL    HW1 1271   1.737   1.103   0.260 -3.9535  0.9471  2.2652
  424SOL    HW2 1272   1.850   0.981   0.231  3.2352  0.8489 -0.2647
  425SOL     OW 1273   0.057   0.025   1.952  0.0122 -0.1604  0.1449
  425SOL    HW1 1274   0.015   0.049   2.040 -3.1124 -0.7661 -2.7504
  425SOL    HW2 1275   0.135   0.087   1.927  0.5286 -0.1244  2.5320
  426SOL     OW 1276   2.465   2.863   2.477 -0.0933 -0.1335  0.5818
  426SOL    HW1 1277   2.522   2.893   2.560  3.3766 -1.6933  2.1960
  426SOL    HW2 1278   2.409   2.935   2.438  0.4979 -2.8812 -0.5204
  427SOL     OW 1279   1.281   0.810   2.329  0.7111  0.1495  0.2505
  427SOL    HW1 1280   1.288   0.712   2.302 -2.0176  0.5384  0.9929
  427SOL    HW2 1281   1.297   0.813   2.430 -0.1878 -2.9450  0.1658
  428SOL     OW 1282   2.314   1.177   2.128 -0.5764 -0.4808 -0.0357
  428SOL    HW1 1283   2.301   1.131   2.220 -0.1970  1.3490 -0.5319
  428SOL    HW2 1284   2.371   1.122   2.060  0.2484 -1.7081 -1.7915
  429SOL     OW 1285   2.608   0.132   0.600 -0.1988 -0.3431 -0.2106
  429SOL    HW1 1286   2.626   0.151   0.505  3.1847 -3.9709  2.4354
  429SOL    HW2 1287   2.690   0.159   0.661  1.7301  1.6491  2.3356
  430SOL     OW 1288   1.999   1.286   2.127 -0.3262 -0.5310  0.0814
  430SOL    HW1 1289   2.056   1.207   2.089  3.1722 -0.7657 -0.2790
  430SOL    HW2 1290   1.903   1.282   2.093  1.1439  1.2197  0.8468
  431SOL     OW 1291   3.078   1.893   1.018 -0.1345  0.2724 -0.2173
  431SOL    HW1 1292   3.007   1.959   0.987 -0.7734  1.6777  0.9313
  431SOL    HW2 1293   3.035   1.824   1.077  0.8730  4.9054  1.7014
  432SOL     OW 1294   1.498   2.999   2.150  0.0469 -0.7094  1.1699
  432SOL    HW1 1295   1.439   3.078   2.173  0.3025 -2.0509 -1.8535
  432SOL    HW2 1296   1.594   3.031   2.134  3.4918  2.8583 -0.8170
  433SOL     OW 1297   1.526   3.029   1.847  0.2779 -0.0860  0.2685
  433SOL    HW1 1298   1.456   3.036   1.773 -0.3297 -2.0277  1.8223
  433SOL    HW2 1299   1.481   2.989   1.927 -2.9543  0.4593  1.5882
  434SOL     OW 1300   0.391   2.586   2.296  0.0112  0.3463 -0.4484
  434SOL    HW1 1301   0.460   2.646   2.338  0.3823 -0.5926  0.5771
  434SOL    HW2 1302   0.298   2.624   2.296  1.1754 -0.4329 -3.7043
  435SOL     OW 1303   0.211   2.071   0.399  0.0658  0.3283  0.5798
  435SOL    HW1 1304   0.239   2.094   0.301 -0.0843 -1.5212 -0.7286
  435SOL    HW2 1305   0.141   1.997   0.395  1.4892 -0.3458  0.6029
  436SOL     OW 1306   0.802   0.862   1.760  0.4545 -0.5910  0.0102
  436SOL    HW1 1307   0.893   0.873   1.725 -3.6272 -2.4542  0.0964
  436SOL    HW2 1308   0.730   0.844   1.689  1.2934  0.8184  0.7562
  437SOL     OW 1309   0.786   0.135   2.296 -0.2274  0.0602 -0.5793
  437SOL    HW1 1310   0.862   0.116   2.360 -0.6831  0.1512 -0.2927
  437SOL    HW2 1311   0.696   0.127   2.344 -0.2692 -3.0012  2.4583
  438SOL     OW 1312   0.448   1.691   1.644  0.0650 -0.5731 -0.0690
  438SOL    HW1 1313   0.497   1.781   1.660 -1.4122  2.2076 -0.6658
  438SOL    HW2 1314   0.417   1.657   1.732  1.2375  1.8242 -2.8233
  439SOL     OW 1315   1.894   0.862   3.087  0.1842 -0.2189  0.0124
  439SOL    HW1 1316   1.797   0.864   3.061  0.7049  3.1115  0.4707
  439SOL    HW2 1317   1.939   0.955   3.073 -1.5514  1.4509 -0.1177
  440SOL     OW 1318   0.891   0.839   0.437 -0.4902 -0.1972 -0.0196
  440SOL    HW1 1319   0.983   0.851   0.478 -0.1918 -0.3835 -1.2507
  440SOL    HW2 1320   0.813   0.822   0.503 -3.4401  1.2419 -0.4780
  441SOL     OW 1321   0.582   2.401   1.751 -0.2683 -0.4805 -0.4867
  441SOL    HW1 1322   0.665   2.359   1.796  1.2355 -1.1837 -0.2359
  441SOL    HW2 1323   0.530   2.334   1.691  0.2180  1.1694 -0.5230
  442SOL     OW 1324   2.827   1.878   0.509  0.4112  0.4843  0.0716
  442SOL    HW1 1325   2.739   1.925   0.482  0.6341  1.0223  2.7230
  442SOL    HW2 1326   2.826   1.777   0.513 -1.1185 -0.7455  0.7643
  443SOL     OW 1327   2.884   1.953   2.755 -0.0970 -0.1679 -0.1381
  443SOL    HW1 1328   2.804   1.903   2.713 -3.1873  0.5166  0.6669
  443SOL    HW2 1329   2.940   1.880   2.802  1.6639  0.6523  0.1398
  444SOL     OW 1330   1.348   1.147   0.186  0.4859 -0.2688  0.1698
  444SOL    HW1 1331   1.354   1.046   0.194  0.1513  4.1729 -0.4417
  444SOL    HW2 1332   1.301   1.193   0.262  0.3414 -0.7148 -1.8066
  445SOL     OW 1333   2.700   2.639   1.751  0.3632 -0.1829  0.5030
  445SOL    HW1 1334   2.794   2.615   1.724 -2.0762  0.1276  4.1470
  445SOL    HW2 1335   2.678   2.590   1.839 -1.8812  0.6654  1.4769
  446SOL     OW 1336   2.849   1.211   0.506  0.4564 -0.4950 -0.2736
  446SOL    HW1 1337   2.889   1.120   0.496 -0.9454  1.3830 -0.7460
  446SOL    HW2 1338   2.827   1.251   0.415 -0.2522 -0.2669  0.6341
  447SOL     OW 1339   0.853   2.240   1.386  0.2477 -0.0089 -0.5461
  447SOL    HW1 1340   0.768   2.248   1.328  0.5661  1.9955 -0.0859
  447SOL    HW2 1341   0.880   2.332   1.420 -0.3295  0.4692  0.3380
  448SOL     OW 1342   1.371   1.515   1.638  0.0358  0.5057  0.0412
  448SOL    HW1 1343   1.402   1.490   1.731  1.4500 -0.0350  1.4484
  448SOL    HW2 1344   1.264   1.518   1.629 -1.3294  2.3701 -0.4678
  449SOL     OW 1345   3.042   2.201   2.371 -0.2080  0.8374 -0.3152
  449SOL    HW1 1346   2.995   2.213   2.463  3.3613  2.5090 -1.4749
  449SOL    HW2 1347   3.031   2.278   2.314 -0.6666 -2.0971 -0.5134
  450SOL     OW 1348   3.077   1.803   2.102 -0.2596  0.2273 -0.4946
  450SOL    HW1 1349   3.073   1.900   2.128 -0.8816 -0.9251 -0.4127
  450SOL    HW2 1350   0.021   1.788   2.014 -0.8171  1.2510  0.8774
  451SOL     OW 1351   2.213   0.594   1.681 -0.6136  0.2991 -0.3088
  451SOL    HW1 1352   2.131   0.650   1.692 -2.5739 -0.6463  0.6589
  451SOL    HW2 1353   2.292   0.658   1.671  1.0317 -0.8382  1.6694
  452SOL     OW 1354   0.873   1.177   0.874  0.5079  0.9907 -0.7422
  452SOL    HW1 1355   0.831   1.272   0.868 -1.7844  1.9696  2.0007
  452SOL    HW2 1356   0.799   1.113   0.842 -2.9433 -1.3571 -0.3994
  453SOL     OW 1357   1.313   2.270   0.685 -0.4226 -0.3089  0.0086
  453SOL    HW1 1358   1.314   2.329   0.778 -0.2864  2.6405  0.4031
  453SOL    HW2 1359   1.409   2.247   0.651 -2.2027  1.1661 -2.2359
  454SOL     OW 1360   0.199   1.638   0.142 -0.0108 -0.1803 -0.2256
  454SOL    HW1 1361   0.270   1.636   0.215 -2.3390  0.8538 -1.2627
  454SOL    HW2 1362   0.242   1.652   0.053 -1.4721  0.5753  0.7319
  455SOL     OW 1363   0.990   1.057   0.280 -0.3694 -0.2015 -0.1609
  455SOL    HW1 1364   0.967   0.969   0.327 -2.0631 -1.3451 -1.9181
  455SOL    HW2 1365   1.083   1.099   0.300  0.4008  0.7482 -1.2463
  456SOL     OW 1366   1.732   2.664   0.828 -0.0746 -0.3138 -0.0271
  456SOL    HW1 1367   1.767   2.720   0.751 -0.3946 -1.3747  0.5417
  456SOL    HW2 1368   1.655   2.616   0.788  0.5660  2.4642  1.9143
  457SOL     OW 1369   1.589   2.909   0.066 -0.0179  0.1244 -0.5813
  457SOL    HW1 1370   1.607   3.006   0.091  2.5267 -0.5025 -1.9947
  457SOL    HW2 1371   1.529   2.902   3.093 -0.4638  2.8216 -0.1524
  458SOL     OW 1372   2.413   0.609   0.325  0.4895  0.3362 -0.1936
  458SOL    HW1 1373   2.346   0.608   0.406  0.2776 -0.6955 -0.9911
  458SOL    HW2 1374   2.445   0.702   0.316 -1.7973 -0.7685  0.7646
  459SOL     OW 1375   2.373   0.384   2.273 -0.3124 -0.3801 -0.2696
  459SOL    HW1 1376   2.334   0.429   2.358 -0.0798  2.7641  1.9019
  459SOL    HW2 1377   2.466   0.420   2.253 -0.2525  0.7653 -1.2291
  460SOL     OW 1378   2.728   0.542   2.737  0.0158  0.0699 -0.2950
  460SOL    HW1 1379   2.750   0.512   2.831 -0.9019 -0.9286 -1.4682
  460SOL    HW2 1380   2.658   0.616   2.738  0.7542 -1.4114  1.0022
  461SOL     OW 1381   0.008   2.260   0.817  0.3036  0.3375  0.7077
  461SOL    HW1 1382   0.063   2.206   0.885  1.9543  0.5510  0.1404
  461SOL    HW2 1383   0.046   2.253   0.726  1.2461  1.1145  0.7936
  462SOL     OW 1384   2.809   2.645   1.316 -0.4750  0.1602 -0.4347
  462SOL    HW1 1385   2.726   2.698   1.299  2.1535  1.8573  0.4341
  462SOL    HW2 1386   2.883   2.708   1.348  0.0883 -0.0530  1.0027
  463SOL     OW 1387   2.328   1.757   2.751 -0.1851 -0.4376  0.4227
  463SOL    HW1 1388   2.371   1.824   2.680  1.9127  0.1568 -2.3745
  463SOL    HW2 1389   2.400   1.688   2.780  0.9650 -1.1380  2.1656
  464SOL     OW 1390   0.706   2.631   1.534  0.6455  0.0833  0.0049
  464SOL    HW1 1391   0.662   2.549   1.586  0.4790  0.5139  0.3080
  464SOL    HW2 1392   0.636   2.709   1.519  0.9957  2.0004  0.4096
  465SOL     OW 1393   1.012   3.037   1.686 -0.1358  0.8972  0.2049
  465SOL    HW1 1394   1.064   2.955   1.721 -0.6231  0.3182 -0.7524
  465SOL    HW2 1395   0.969   3.094   1.761 -2.5733  1.7383 -3.6246
  466SOL     OW 1396   1.491   2.661   1.903  0.1979  0.3535  0.1481
  466SOL    HW1 1397   1.578   2.697   1.947  0.9754  3.6819 -0.1645
  466SOL    HW2 1398   1.411   2.716   1.934  1.5051  0.8472 -3.5561
  467SOL     OW 1399   1.031   2.034   1.348 -0.3332 -0.1274  0.7574
  467SOL    HW1 1400   1.003   1.952   1.297  0.5860 -0.4674 -1.0777
  467SOL    HW2 1401   0.962   2.108   1.360 -2.4037  2.2616  1.4540
  468SOL     OW 1402   2.817   1.706   2.121 -0.5839 -0.0373 -0.3489
  468SOL    HW1 1403   2.908   1.748   2.117 -1.8878  1.6471 -1.1265
  468SOL    HW2 1404   2.818   1.602   2.100 -2.8430 -0.6330  1.6999
  469SOL     OW 1405   0.827   1.979   0.637  0.0131 -0.6277 -0.5708
  469SOL    HW1 1406   0.808   1.987   0.739  1.1087  0.5380 -0.8832
  469SOL    HW2 1407   0.869   1.889   0.607  1.5812 -2.0201 -2.5518
  470SOL     OW 1408   1.910   1.617   1.839 -0.0482 -0.1697  0.2933
  470SOL    HW1 1409   1.936   1.605   1.742 -1.7735 -3.0130  0.8521
  470SOL    HW2 1410   1.989   1.610   1.900 -0.4429 -2.0346 -1.9022
  471SOL     OW 1411   0.709   2.538   0.098  0.0496  0.3582 -0.3629
  471SOL    HW1 1412   0.607   2.521   0.087  0.5919 -2.7093 -2.0974
  471SOL    HW2 1413   0.752   2.464   0.159 -1.0326 -2.4683  2.4176
  472SOL     OW 1414   3.082   2.723   1.963  0.1605  0.3919  0.6988
  472SOL    HW1 1415   0.017   2.629   1.960 -0.1073  1.5387 -0.1586
  472SOL    HW2 1416   0.029   2.783   1.903 -3.3643 -0.8729  4.5670
  473SOL     OW 1417   0.833   2.737   0.325  0.1311 -0.3898 -0.7205
  473SOL    HW1 1418   0.872   2.687   0.404  0.2050  1.2064 -0.6787
  473SOL    HW2 1419   0.839   2.685   0.240  0.6197 -2.4613 -1.9748
  474SOL     OW 1420   2.644   2.660   0.940 -0.1782  0.0737 -0.0520
  474SOL    HW1 1421   2.570   2.606   0.981 -1.2951 -2.4445  0.4608
  474SOL    HW2 1422   2.623   2.723   0.859 -0.0429  1.5864 -0.5784
  475SOL     OW 1423   2.206   2.903   1.857  0.3393 -0.4677  0.3247
  475SOL    HW1 1424   2.237   2.903   1.758  1.5824 -0.3983 -0.8037
  475SOL    HW2 1425   2.108   2.927   1.856  1.0425 -1.1306 -0.9967
  476SOL     OW 1426   0.539   1.223   0.499 -0.0497 -0.0304 -0.6288
  476SOL    HW1 1427   0.591   1.299   0.535 -0.9740  0.4222 -1.0204
  476SOL    HW2 1428   0.542   1.145   0.564 -2.1381  1.0460 -0.8721
  477SOL     OW 1429   0.336   1.861   0.813  0.0074  1.0311  0.0043
  477SOL    HW1 1430   0.283   1.940   0.846 -0.5863  1.0920  0.4781
  477SOL    HW2 1431   0.373   1.874   0.718  0.0344 -1.8680 -3.1664
  478SOL     OW 1432   0.136   2.685   2.302  0.1435  0.1753 -0.0382
  478SOL    HW1 1433   0.086   2.770   2.274 -1.5685  1.9136  0.8808
  478SOL    HW2 1434   0.118   2.653   2.399  0.1174  2.3863 -1.6476
  479SOL     OW 1435   0.317   0.256   1.368 -0.4714 -0.0034 -0.3192
  479SOL    HW1 1436   0.387   0.238   1.297 -1.7581 -0.2936  0.4248
  479SOL    HW2 1437   0.216   0.254   1.334 -1.6332 -0.1576  1.2351
  480SOL     OW 1438   2.870   2.483   0.022 -0.7751 -0.4860  0.1807
  480SOL    HW1 1439   2.872   2.387   3.089 -1.0034  1.4154 -0.2825
  480SOL    HW2 1440   2.782   2.488   0.078  0.2191  0.2597 -1.2430
  481SOL     OW 1441   2.188   2.109   1.711  0.7132 -0.1499 -0.0091
  481SOL    HW1 1442   2.166   2.028   1.766  2.2710 -0.4191 -1.5572
  481SOL    HW2 1443   2.146   2.101   1.621  1.1933 -2.4603 -0.4433
  482SOL     OW 1444   1.821   2.317   2.581 -0.4757  0.5727  0.3683
  482SOL    HW1 1445   1.754   2.243   2.572  0.3963  1.0114  1.5777
  482SOL    HW2 1446   1.844   2.354   2.486  1.4843 -1.1410 -2.3418
  483SOL     OW 1447   0.717   1.683   2.339 -0.1063  0.0706 -0.4923
  483SOL    HW1 1448   0.719   1.598   2.394  1.8671 -0.6530  1.5413
  483SOL    HW2 1449   0.808   1.703   2.300 -2.0095  0.3902  1.1970
  484SOL     OW 1450   0.051   0.271   1.350 -0.3286 -0.0638 -0.1103
  484SOL    HW1 1451   3.093   0.302   1.273 -3.0649  0.0791  1.1385
  484SOL    HW2 1452   0.002   0.274   1.442 -3.7175 -0.6721 -0.8386
  485SOL     OW 1453   2.037   1.057   0.490 -0.0785  0.5353  0.6551
  485SOL    HW1 1454   2.073   1.140   0.448 -0.6156  0.0523  1.5219
  485SOL    HW2 1455   1.947   1.076   0.523  3.9082  0.0528  0.4042
  486SOL     OW 1456   1.384   0.128   2.190 -0.7740  0.0363  0.3383
  486SOL    HW1 1457   1.385   0.149   2.089  0.6450  2.9360 -3.1142
  486SOL    HW2 1458   1.445   0.186   2.245  2.8767 -1.4390 -1.4986
  487SOL     OW 1459   1.007   1.776   1.281  0.1107 -0.1269  0.0736
  487SOL    HW1 1460   0.968   1.748   1.376 -0.8179 -1.9912  1.5517
  487SOL    HW2 1461   1.076   1.708   1.255 -1.4531  1.4819  1.4187
  488SOL     OW 1462   2.360   1.353   3.085  0.4791 -0.0111 -0.1155
  488SOL    HW1 1463   2.455   1.362   3.055  0.1870  1.7402  1.7109
  488SOL    HW2 1464   2.335   1.445   0.019 -0.1738  2.0437 -1.2357
  489SOL     OW 1465   2.261   3.064   0.376 -0.0159  0.0443 -0.3917
  489SOL    HW1 1466   2.268   3.052   0.480  0.5193 -2.8990  1.8351
  489SOL    HW2 1467   2.223   0.051   0.353  0.5505 -0.9288  0.2931
  490SOL     OW 1468   1.286   2.584   0.114 -0.2001 -0.1735  0.1040
  490SOL    HW1 1469   1.343   2.569   0.027  0.7862  0.5820 -3.3405
  490SOL    HW2 1470   1.345   2.593   0.199  1.8786  0.4576  0.4885
  491SOL     OW 1471   1.155   1.173   0.935  0.0403 -0.3981 -0.3218
  491SOL    HW1 1472   1.083   1.128   0.990  0.1323 -2.8388  1.3382
  491SOL    HW2 1473   1.131   1.272   0.935 -1.0509  0.8684 -0.8845
  492SOL     OW 1474   1.223   0.241   2.801 -0.0030  0.4763  0.0775
  492SOL    HW1 1475   1.295   0.277   2.736  1.8751 -0.5125 -0.4851
  492SOL    HW2 1476   1.162   0.318   2.822  0.3765 -0.1216 -2.0730
  493SOL     OW 1477   1.833   2.065   3.059  0.1698  0.1859  0.9445
  493SOL    HW1 1478   1.844   2.150   0.012 -1.2317  0.9012 -0.9111
  493SOL    HW2 1479   1.897   1.994   3.093 -2.7562  0.4788 -2.3348
  494SOL     OW 1480   0.338   1.323   0.329 -0.3299 -0.2096 -0.5475
  494SOL    HW1 1481   0.329   1.428   0.325  2.6113  1.0714 -2.4304
  494SOL    HW2 1482   0.418   1.297   0.387 -0.2393 -0.6385 -0.3235
  495SOL     OW 1483   3.035   2.722   0.711  0.2518 -0.3172 -0.1090
  495SOL    HW1 1484   3.062   2.646   0.772 -1.6203 -0.7876 -1.9463
  495SOL    HW2 1485   2.982   2.681   0.633 -0.1331 -1.2558  2.1597
  496SOL     OW 1486   2.771   0.196   1.580  0.3956 -0.2139  0.0499
  496SOL    HW1 1487   2.710   0.135   1.526 -0.6288  2.2182 -0.4917
  496SOL    HW2 1488   2.750   0.190   1.678 -0.6496 -2.7843 -2.9018
  497SOL     OW 1489   2.320   1.271   2.511 -0.1857 -0.6248  0.4559
  497SOL    HW1 1490   2.345   1.300   2.611  0.6453  1.7949  0.8822
  497SOL    HW2 1491   2.245   1.340   2.483 -2.0448  0.1320  0.1036
  498SOL     OW 1492   0.755   1.967   0.911  0.6304 -0.3240  0.0692
  498SOL    HW1 1493   0.662   2.014   0.883 -2.5605  2.2243 -1.8516
  498SOL    HW2 1494   0.752   1.904   0.992 -0.0576  0.5436 -0.5939
  499SOL     OW 1495   0.680   2.153   1.580 -0.4528  0.3625  0.1940
  499SOL    HW1 1496   0.726   2.162   1.675  0.5264 -1.7111  0.0414
  499SOL    HW2 1497   0.742   2.167   1.504 -2.5842  0.8935  0.5073
  500SOL     OW 1498   0.953   1.945   0.095  0.2576  0.1386  0.4919
  500SOL    HW1 1499   0.929   1.862   0.156  0.3551  1.0074  1.2750
  500SOL    HW2 1500   1.018   2.011   0.135 -0.3395 -2.1486  0.8303
  501SOL     OW 1501   2.553   2.787   1.283  0.4618 -0.1800  0.7624
  501SOL    HW1 1502   2.460   2.797   1.246 -2.1498 -0.0760  1.9603
  501SOL    HW2 1503   2.606   2.848   1.220  0.2091  3.1857 -0.2741
  502SOL     OW 1504   3.007   0.320   1.569 -0.3385  0.0726  0.1824
  502SOL    HW1 1505   3.052   0.328   1.663  1.6452 -1.4121  0.8805
  502SOL    HW2 1506   2.922   0.261   1.574 -1.8937  2.0972 -1.0185
  503SOL     OW 1507   2.408   1.064   1.858 -0.3684  0.1087 -0.0756
  503SOL    HW1 1508   2.496   1.095   1.899 -1.1924 -1.6466 -3.7545
  503SOL    HW2 1509   2.370   1.140   1.800  0.6698  0.0776  0.5982
  504SOL     OW 1510   1.284   0.818   1.774 -0.4617 -0.0374 -0.0650
  504SOL    HW1 1511   1.348   0.738   1.747  1.8102 -0.5945 -1.7412
  504SOL    HW2 1512   1.313   0.859   1.865 -1.8025  1.4057 -0.2036
  505SOL     OW 1513   0.818   2.900   2.294 -0.2543  0.1647 -0.1341
  505SOL    HW1 1514   0.845   2.845   2.214  2.6272 -0.1255 -1.2861
  505SOL    HW2 1515   0.859   2.992   2.296 -0.6107  1.2085  1.1656
  506SOL     OW 1516   0.109   0.453   0.971 -0.0953 -0.5030 -0.2715
  506SOL    HW1 1517   0.083   0.437   0.871  2.7810 -3.6684 -3.5014
  506SOL    HW2 1518   0.198   0.413   0.996  1.3182 -3.1627 -1.9948
  507SOL     OW 1519   1.551   0.372   2.954  0.2822  0.3860 -0.0014
  507SOL    HW1 1520   1.583   0.368   3.052  3.3749 -3.0227  0.5727
  507SOL    HW2 1521   1.605   0.303   2.904 -1.7138 -0.2416 -0.1768
  508SOL     OW 1522   1.516   0.233   2.387  0.3558  0.0210  1.2374
  508SOL    HW1 1523   1.525   0.331   2.364 -1.9107 -0.8588  0.9182
  508SOL    HW2 1524   1.547   0.208   2.480 -0.8026  2.7226 -0.7296
  509SOL     OW 1525   0.782   1.229   2.218  0.2097 -0.3699 -0.7573
  509SOL    HW1 1526   0.843   1.271   2.143 -0.9032  0.3363 -4.5356
  509SOL    HW2 1527   0.782   1.122   2.226  0.6392 -1.1237 -0.6725
  510SOL     OW 1528   3.065   1.014   0.692  0.2111  0.0233 -0.4293
  510SOL    HW1 1529   2.996   0.951   0.727 -0.4150  0.9322  1.9051
  510SOL    HW2 1530   3.057   1.099   0.740 -1.5687 -0.3548 -1.6003
  511SOL     OW 1531   1.786   2.096   1.083  0.4326  0.1323 -0.0148
  511SOL    HW1 1532   1.742   2.172   1.140 -2.1892 -0.6336  1.4720
  511SOL    HW2 1533   1.892   2.099   1.087  2.9656 -0.3570  0.0289
  512SOL     OW 1534   0.218   1.658   0.564  0.2035  0.0498 -0.2102
  512SOL    HW1 1535   0.144   1.590   0.560 -1.7378 -0.8147  1.2278
  512SOL    HW2 1536   0.290   1.628   0.627  1.5032 -1.4519 -0.3955
  513SOL     OW 1537   0.109   2.261   0.564 -0.3330  0.2552 -0.0035
  513SOL    HW1 1538   0.154   2.172   0.533  0.5188 -1.5529  1.3805
  513SOL    HW2 1539   0.062   2.304   0.482  0.2859 -0.2181  0.1939
  514SOL     OW 1540   2.434   1.936   2.563  0.2181 -0.2458  0.1984
  514SOL    HW1 1541   2.470   2.033   2.582  0.4666  1.0159  0.9450
  514SOL    HW2 1542   2.404   1.924   2.464  0.6812  1.0681  1.9640
  515SOL     OW 1543   2.157   1.265   0.375  0.1095  0.5388  1.2710
  515SOL    HW1 1544   2.167   1.230   0.279 -0.5256 -1.1215 -1.4871
  515SOL    HW2 1545   2.248   1.280   0.418 -1.2623 -0.2357 -0.9070
  516SOL     OW 1546   2.023   3.098   0.637 -0.1952 -0.2410  0.7540
  516SOL    HW1 1547   1.983   0.062   0.572  0.9172 -0.2449 -0.6004
  516SOL    HW2 1548   2.122   0.001   0.637 -0.6668 -1.9612  1.3390
  517SOL     OW 1549   1.103   2.193   2.787 -0.2857 -0.3672  0.0399
  517SOL    HW1 1550   1.077   2.215   2.884  0.0767 -0.3627  0.4608
  517SOL    HW2 1551   1.036   2.140   2.729 -0.3709 -1.2792 -2.9695
  518SOL     OW 1552   0.658   0.444   2.050 -0.0279 -0.6036  0.1681
  518SOL    HW1 1553   0.748   0.408   2.085 -0.5699 -0.1228  0.2820
  518SOL    HW2 1554   0.675   0.540   2.011 -0.5172 -0.6986  0.2950
  519SOL     OW 1555   2.902   1.301   0.255 -0.1451 -0.2229 -0.0627
  519SOL    HW1 1556   2.961   1.381   0.230  1.1907 -0.8828 -2.5502
  519SOL    HW2 1557   2.949   1.212   0.240 -3.1971 -0.8340  2.1066
  520SOL     OW 1558   2.480   2.079   1.699  0.1244  0.2071 -0.2007
  520SOL    HW1 1559   2.386   2.101   1.744 -2.6048  0.6500  0.5166
  520SOL    HW2 1560   2.541   2.159   1.676  3.7245  0.5080 -2.0462
  521SOL     OW 1561   0.794   2.546   2.226  0.1428  0.6673 -0.0792
  521SOL    HW1 1562   0.804   2.544   2.329  0.2401 -0.2453  0.2292
  521SOL    HW2 1563   0.707   2.500   2.198  0.8146 -2.2557  4.4109
  522SOL     OW 1564   1.774   0.154   2.250 -0.0504 -0.4182 -1.0677
  522SOL    HW1 1565   1.834   0.084   2.294 -0.5757  2.5192 -1.3697
  522SOL    HW2 1566   1.687   0.172   2.301  2.7411  1.1714 -1.1941
  523SOL     OW 1567   1.664   1.852   1.080  1.1032 -0.1901 -0.3457
  523SOL    HW1 1568   1.728   1.927   1.101  0.6884 -0.1330 -3.1817
  523SOL    HW2 1569   1.641   1.803   1.167 -1.2281 -1.2364  0.4742
  524SOL     OW 1570   0.932   2.594   0.546 -0.4436 -0.2650 -0.8017
  524SOL    HW1 1571   0.987   2.665   0.597  0.9837 -0.1650 -2.4363
  524SOL    HW2 1572   0.971   2.500   0.553  2.4131  1.5202  0.0330
  525SOL     OW 1573   2.872   0.321   0.265 -0.3397 -0.3838  0.6697
  525SOL    HW1 1574   2.819   0.383   0.203 -0.9698  2.5834 -1.8345
  525SOL    HW2 1575   2.966   0.305   0.229  0.0257  0.4024 -0.8658
  526SOL     OW 1576   0.839   0.002   0.514 -0.0048 -0.0290 -0.0488
  526SOL    HW1 1577   0.765   3.051   0.464 -0.9051  0.3355  0.6906
  526SOL    HW2 1578   0.862   0.080   0.453  0.2344  0.6251 -0.6283
  527SOL     OW 1579   2.519   1.782   0.815  0.1556 -0.3009  0.2569
  527SOL    HW1 1580   2.624   1.803   0.798  4.7522  1.4935  2.2044
  527SOL    HW2 1581   2.468   1.851   0.868 -0.7292 -3.1434 -0.0073
  528SOL     OW 1582   2.810   0.551   2.137 -0.1087 -0.3670  0.1733
  528SOL    HW1 1583   2.878   0.533   2.201 -2.2327 -0.5867 -0.8838
  528SOL    HW2 1584   2.846   0.525   2.045  2.4817  1.2317  3.0429
  529SOL     OW 1585   1.183   1.674   2.484  0.4425  0.0924 -1.0863
  529SOL    HW1 1586   1.281   1.666   2.467 -0.4644 -0.1105  1.2317
  529SOL    HW2 1587   1.151   1.728   2.568 -0.0273  2.7255 -0.4100
  530SOL     OW 1588   1.776   1.092   2.219  0.6569  0.2239  0.5368
  530SOL    HW1 1589   1.705   1.169   2.216  0.7842  0.3743 -0.7348
  530SOL    HW2 1590   1.821   1.091   2.126 -1.1848 -0.9978 -0.3005
  531SOL     OW 1591   0.714   1.858   2.522  0.1347 -0.3933  0.2167
  531SOL    HW1 1592   0.708   1.794   2.444  2.9190 -0.1054 -1.5566
  531SOL    HW2 1593   0.664   1.827   2.602  2.0937  4.0387 -2.6346
  532SOL     OW 1594   1.892   1.388   0.354 -0.1128  0.6424  0.6191
  532SOL    HW1 1595   1.967   1.319   0.362 -2.6678  0.5411  0.5701
  532SOL    HW2 1596   1.917   1.461   0.412 -0.1818 -0.7689 -1.1405
  533SOL     OW 1597   0.309   0.095   1.874 -0.0646  0.7088 -0.2115
  533SOL    HW1 1598   0.405   0.106   1.900 -1.2180  0.4592  0.7850
  533SOL    HW2 1599   0.303   0.074   1.777 -0.5631  1.0490 -0.3571
  534SOL     OW 1600   0.652   0.118   3.036 -0.2763 -0.0710 -0.2676
  534SOL    HW1 1601   0.584   0.047   3.008  2.3721 -0.3789 -0.1975
  534SOL    HW2 1602   0.620   0.176   0.010  1.8378  0.6057  2.1697
  535SOL     OW 1603   0.137   0.169   0.615 -0.5363  0.1404 -0.8319
  535SOL    HW1 1604   0.197   0.119   0.552 -1.2991  1.9257 -2.0389
  535SOL    HW2 1605   0.071   0.108   0.664 -1.0379 -2.3828  0.3206
  536SOL     OW 1606   0.263   1.244   1.515  0.2817 -0.0928  0.0548
  536SOL    HW1 1607   0.251   1.147   1.540  1.8263  0.7187 -0.6069
  536SOL    HW2 1608   0.356   1.270   1.506 -2.5048  0.7832 -1.2774
  537SOL     OW 1609   1.120   2.636   1.590  0.5817 -0.1672 -0.1552
  537SOL    HW1 1610   1.117   2.715   1.653 -1.4051  0.1735 -2.3005
  537SOL    HW2 1611   1.175   2.563   1.639 -1.2962 -0.0745  0.6392
  538SOL     OW 1612   0.064   1.860   0.470  0.1838 -0.5670  0.0645
  538SOL    HW1 1613   0.132   1.791   0.496  2.6479 -0.0482  1.5382
  538SOL    HW2 1614   0.016   1.895   0.552 -2.3456 -2.1171  1.2214
  539SOL     OW 1615   2.686   1.116   2.578 -0.6371 -0.0593 -0.6423
  539SOL    HW1 1616   2.741   1.147   2.661 -1.0130  0.8013 -0.3409
  539SOL    HW2 1617   2.644   1.198   2.531  0.9904 -1.7441  0.7946
  540SOL     OW 1618   1.883   0.978   1.990 -0.1969 -0.9012  0.4290
  540SOL    HW1 1619   1.970   0.930   1.976 -1.5445 -1.0507  0.1134
  540SOL    HW2 1620   1.854   1.025   1.908  1.8395 -2.6063  2.2086
  541SOL     OW 1621   0.721   0.671   1.920 -0.5315 -0.1151 -0.1058
  541SOL    HW1 1622   0.674   0.710   2.001 -0.0260 -2.3791 -1.6125
  541SOL    HW2 1623   0.758   0.749   1.866 -1.8881 -1.1681  1.5297
  542SOL     OW 1624   2.033   0.361   2.897 -0.2200 -0.9808 -0.0511
  542SOL    HW1 1625   1.969   0.442   2.905 -0.7858  2.1462 -1.4186
  542SOL    HW2 1626   2.131   0.382   2.896 -1.5745 -3.8507 -0.8828
  543SOL     OW 1627   0.882   0.084   0.102 -0.2610 -0.2583  0.4041
  543SOL    HW1 1628   0.794   0.111   0.055 -0.9847 -0.5980 -0.1115
  543SOL    HW2 1629   0.934   0.021   0.046  1.9250  0.0198 -0.4539
  544SOL     OW 1630   2.871   1.454   1.866 -0.3630 -0.1675 -0.4269
  544SOL    HW1 1631   2.901   1.455   1.966 -0.1305  1.3077  0.6921
  544SOL    HW2 1632   2.773   1.488   1.863 -0.6556  1.2249  2.2984
  545SOL     OW 1633   1.762   2.468   1.915 -0.1146 -0.0555  0.3517
  545SOL    HW1 1634   1.739   2.480   1.816 -0.6076  1.2834 -1.0758
  545SOL    HW2 1635   1.836   2.533   1.940  0.5333 -2.4812 -0.8133
  546SOL     OW 1636   0.198   0.122   2.659  0.0210  0.4261  0.0500
  546SOL    HW1 1637   0.191   0.035   2.606  2.4128  2.7367  1.1882
  546SOL    HW2 1638   0.292   0.140   2.694  0.6935 -1.3030  1.9510
  547SOL     OW 1639   1.870   1.053   0.823  0.4532 -0.5347 -0.0690
  547SOL    HW1 1640   1.808   1.030   0.745  1.7715  1.3103  0.6809
  547SOL    HW2 1641   1.841   1.147   0.858  0.4487 -1.1434 -0.4919
  548SOL     OW 1642   1.942   1.827   2.375  0.2167 -0.0914  0.5542
  548SOL    HW1 1643   1.965   1.874   2.463 -0.8151  1.5659  1.0653
  548SOL    HW2 1644   1.946   1.892   2.292 -0.5092  0.5364  0.1743
  549SOL     OW 1645   2.109   0.338   0.572 -0.3372 -0.6028  0.2534
  549SOL    HW1 1646   2.026   0.328   0.635 -0.1946  1.0587  1.0739
  549SOL    HW2 1647   2.195   0.311   0.620 -1.1600 -0.2165  1.8454
  550SOL     OW 1648   2.244   1.805   0.686 -0.4435  0.5098  0.6481
  550SOL    HW1 1649   2.346   1.808   0.685 -0.1407  1.5786  2.2856
  550SOL    HW2 1650   2.210   1.711   0.672 -0.1480  0.6475 -2.4868
  551SOL     OW 1651   1.173   2.628   2.147 -0.6808  0.6737  0.1373
  551SOL    HW1 1652   1.097   2.664   2.091  0.3177  0.5940 -0.8225
  551SOL    HW2 1653   1.166   2.632   2.249  0.1212 -0.2592  0.1405
  552SOL     OW 1654   0.064   2.340   2.634 -0.0177 -0.2387 -0.0090
  552SOL    HW1 1655   3.085   2.291   2.669  0.3105  0.9381  3.4381
  552SOL    HW2 1656   0.109   2.292   2.557  1.3497  0.9174 -0.6855
  553SOL     OW 1657   0.281   0.242   1.049 -0.1640 -0.3407  0.4235
  553SOL    HW1 1658   0.301   0.221   0.950 -0.8079  0.6375  1.9416
  553SOL    HW2 1659   0.207   0.180   1.073 -1.1268  1.4222  0.7924
  554SOL     OW 1660   2.412   2.118   2.077  0.0484  0.4228  0.2929
  554SOL    HW1 1661   2.487   2.051   2.076 -1.0786  1.4429  0.3345
  554SOL    HW2 1662   2.441   2.215   2.094 -1.7914 -1.3768 -1.4114
  555SOL     OW 1663   1.368   2.419   1.925  0.4842  0.1804 -0.2414
  555SOL    HW1 1664   1.314   2.421   1.842 -0.3103  3.7754  0.8160
  555SOL    HW2 1665   1.437   2.497   1.917 -2.7489  0.1488 -0.1039
  556SOL     OW 1666   1.473   1.726   1.518  0.5708  0.1089 -0.2237
  556SOL    HW1 1667   1.521   1.788   1.585  0.7233  0.4070  0.2832
  556SOL    HW2 1668   1.456   1.627   1.548 -0.2525 -2.7002  0.8515
  557SOL     OW 1669   1.845   2.448   2.329 -0.1249 -0.4039 -0.5721
  557SOL    HW1 1670   1.921   2.425   2.263 -1.8635  1.8587 -0.1219
  557SOL    HW2 1671   1.761   2.477   2.282  1.8211  1.6750  0.7859
  558SOL     OW 1672   0.398   2.799   1.833 -0.0385  0.4730 -0.2191
  558SOL    HW1 1673   0.403   2.845   1.742 -0.4855  0.3758 -0.8746
  558SOL    HW2 1674   0.340   2.850   1.901  3.5949 -1.1355 -2.5222
  559SOL     OW 1675   2.280   2.850   0.808 -0.1769  0.1382 -0.4377
  559SOL    HW1 1676   2.231   2.771   0.772  0.1557  0.6762  1.4778
  559SOL    HW2 1677   2.213   2.896   0.869 -2.7070  3.9608  1.5965
  560SOL     OW 1678   1.781   2.434   0.583 -0.2192  0.2516 -0.4375
  560SOL    HW1 1679   1.687   2.441   0.623  1.0404 -0.2113 -1.1100
  560SOL    HW2 1680   1.833   2.356   0.627 -0.9552 -1.1386  2.4855
  561SOL     OW 1681   1.166   0.321   0.678  0.3147  0.9421 -0.0128
  561SOL    HW1 1682   1.174   0.375   0.592 -2.3290  2.5730  1.7139
  561SOL    HW2 1683   1.128   0.232   0.667  3.5072 -0.4429  0.5189
  562SOL     OW 1684   0.848   0.708   2.605 -0.3190 -0.2396 -0.6474
  562SOL    HW1 1685   0.831   0.627   2.664  2.4400  0.3111  1.5300
  562SOL    HW2 1686   0.855   0.675   2.505 -0.7108 -1.5252 -0.3472
  563SOL     OW 1687   1.815   1.548   2.690 -0.3676  0.3182  0.2948
  563SOL    HW1 1688   1.752   1.620   2.733  0.6678  1.6940 -0.2414
  563SOL    HW2 1689   1.911   1.560   2.724 -2.1087 -2.5328  0.3313
  564SOL     OW 1690   2.454   0.951   1.422 -0.2954  0.3287  0.5165
  564SOL    HW1 1691   2.509   0.985   1.499 -0.8429 -1.7191 -2.6094
  564SOL    HW2 1692   2.523   0.902   1.360  1.8172  1.5025  0.8618
  565SOL     OW 1693   1.003   0.685   2.894 -0.7204  0.2134 -0.1382
  565SOL    HW1 1694   1.062   0.753   2.940 -1.4013 -0.5526  0.0513
  565SOL    HW2 1695   0.907   0.709   2.918  2.4139 -0.3360 -1.4335
  566SOL     OW 1696   1.895   0.430   2.511  0.0225  0.1426 -0.3705
  566SOL    HW1 1697   1.899   0.454   2.414  0.0462  0.5580  1.2308
  566SOL    HW2 1698   1.981   0.376   2.544  5.8139 -0.0742  0.8276
  567SOL     OW 1699   2.122   1.793   0.350 -0.1714  0.1094  0.4016
  567SOL    HW1 1700   2.181   1.831   0.420 -0.4309  0.3025 -0.8270
  567SOL    HW2 1701   2.131   1.843   0.261 -2.2472 -0.5414  1.6061
  568SOL     OW 1702   1.710   1.772   0.113 -0.2894  0.0096  0.2808
  568SOL    HW1 1703   1.772   1.829   0.058 -0.3049 -0.5233  1.7951
  568SOL    HW2 1704   1.619   1.819   0.106 -1.6842 -0.2391  1.2468
  569SOL     OW 1705   1.974   1.134   3.103  0.0986  0.1777 -0.5420
  569SOL    HW1 1706   1.922   1.214   3.058 -2.7494  2.3398 -0.4937
  569SOL    HW2 1707   2.027   1.168   0.081  1.7323  2.6824  1.8282
  570SOL     OW 1708   0.408   2.545   1.891 -0.7721  0.3112  0.1430
  570SOL    HW1 1709   0.399   2.641   1.860 -1.4281 -0.4856  1.8156
  570SOL    HW2 1710   0.463   2.488   1.824 -1.6403 -1.3291  1.4208
  571SOL     OW 1711   0.378   0.970   2.003  0.1949  0.2612 -0.3234
  571SOL    HW1 1712   0.449   1.039   1.983  0.6583 -3.0937  0.5253
  571SOL    HW2 1713   0.334   0.989   2.092  1.6228 -2.0621 -0.4894
  572SOL     OW 1714   0.976   1.493   0.493  0.5254  0.2805  0.4246
  572SOL    HW1 1715   0.931   1.401   0.511 -1.3315 -0.1278 -1.2339
  572SOL    HW2 1716   1.050   1.489   0.425  1.2110 -1.6193  1.2431
  573SOL     OW 1717   1.644   2.026   2.880 -0.2986 -0.3117 -0.5190
  573SOL    HW1 1718   1.551   2.021   2.912  2.4000 -2.9047  0.3327
  573SOL    HW2 1719   1.708   2.031   2.961  3.0328  0.8822  2.8784
  574SOL     OW 1720   0.990   0.154   1.037  0.3128  0.0119  0.1981
  574SOL    HW1 1721   0.986   0.143   1.140  1.5691  1.1808  4.3476
  574SOL    HW2 1722   0.900   0.186   1.000 -0.3636  0.8089 -3.4679
  575SOL     OW 1723   0.257   0.943   1.406 -0.4340 -0.2628 -0.2849
  575SOL    HW1 1724   0.242   0.919   1.505  0.7392 -1.0502  1.3425
  575SOL    HW2 1725   0.349   0.989   1.393 -0.4809 -1.3382 -0.1064
  576SOL     OW 1726   2.321   2.773   1.116 -0.4714 -0.3506  0.3403
  576SOL    HW1 1727   2.240   2.828   1.138  0.0699 -0.1561 -2.2740
  576SOL    HW2 1728   2.355   2.787   1.018  1.8705 -1.9518 -3.1625
  577SOL     OW 1729   1.067   0.964   2.248  0.1279  0.0268  0.1747
  577SOL    HW1 1730   1.123   1.028   2.194  1.3665 -2.4918  0.2562
  577SOL    HW2 1731   1.131   0.891   2.282 -0.1047 -0.0910 -0.9178
  578SOL     OW 1732   2.024   0.962   2.437 -0.5451 -0.2357 -0.0107
  578SOL    HW1 1733   1.949   0.906   2.404 -0.5582 -2.4710 -0.9033
  578SOL    HW2 1734   1.996   1.050   2.478  0.3850 -0.0380 -0.5473
  579SOL     OW 1735   2.170   2.371   1.742 -0.4091  0.3788  0.7047
  579SOL    HW1 1736   2.176   2.268   1.733 -0.1754 -0.0662  0.3306
  579SOL    HW2 1737   2.261   2.410   1.716  1.6881  0.3998 -0.3140
  580SOL     OW 1738   1.693   1.700   2.330 -0.3513  0.3864 -0.3216
  580SOL    HW1 1739   1.789   1.740   2.339  0.7170  0.6707 -0.0012
  580SOL    HW2 1740   1.689   1.605   2.361 -0.0320  0.4590  0.5916
  581SOL     OW 1741   1.399   1.485   2.489 -0.8879  0.3100 -0.3038
  581SOL    HW1 1742   1.495   1.458   2.484  1.2279 -0.8140  0.1037
  581SOL    HW2 1743   1.344   1.422   2.550 -1.3296 -3.9462  0.4609
  582SOL     OW 1744   0.804   1.550   1.832 -0.7068 -0.0628 -0.5400
  582SOL    HW1 1745   0.771   1.536   1.736  0.3747 -0.8189  0.1259
  582SOL    HW2 1746   0.886   1.616   1.835  3.6410  1.5917 -0.1443
  583SOL     OW 1747   1.610   1.032   1.612  0.0699  0.2456  0.0585
  583SOL    HW1 1748   1.533   0.991   1.555 -0.2213 -1.2289 -1.8945
  583SOL    HW2 1749   1.574   1.066   1.702  2.5299  2.0215 -1.4981
  584SOL     OW 1750   1.959   2.630   0.503 -0.1117  0.7532  0.3921
  584SOL    HW1 1751   1.904   2.555   0.546  1.5710 -2.1475  0.1420
  584SOL    HW2 1752   1.960   2.624   0.403  2.7553 -1.5966  1.3520
  585SOL     OW 1753   1.782   2.930   2.777  0.3718 -0.6760  0.4081
  585SOL    HW1 1754   1.801   2.844   2.727 -0.4593 -0.5685  2.7511
  585SOL    HW2 1755   1.861   2.956   2.839  0.0760 -1.5608 -0.3143
  586SOL     OW 1756   2.877   2.082   0.989 -1.2696 -0.1188 -0.3518
  586SOL    HW1 1757   2.890   2.164   1.051  1.4965 -0.1577  2.5119
  586SOL    HW2 1758   2.839   2.108   0.898 -0.6383 -1.8252  0.4174
  587SOL     OW 1759   1.506   1.927   0.030 -0.2133 -0.2375 -0.1813
  587SOL    HW1 1760   1.479   2.012   0.084 -2.1781  0.6257  2.7717
  587SOL    HW2 1761   1.419   1.875   0.004  0.8982 -1.7495 -1.5949
  588SOL     OW 1762   0.528   0.285   1.137 -0.4013  0.1424  0.4562
  588SOL    HW1 1763   0.584   0.204   1.102 -0.4756  1.5877 -0.1830
  588SOL    HW2 1764   0.430   0.260   1.118 -0.3243 -2.8459  1.7351
  589SOL     OW 1765   1.150   0.482   0.466 -0.3594 -0.6314  0.2284
  589SOL    HW1 1766   1.053   0.515   0.474 -0.7028  3.0983  0.9461
  589SOL    HW2 1767   1.153   0.408   0.401  1.4839 -0.2472  0.4584
  590SOL     OW 1768   1.442   0.807   2.853  0.2712  0.3835  0.2406
  590SOL    HW1 1769   1.395   0.800   2.764 -0.4896  0.5948  1.9001
  590SOL    HW2 1770   1.385   0.845   2.926  3.0186  0.4163 -1.7023
  591SOL     OW 1771   2.790   2.189   2.133 -0.8573  0.1188 -0.2116
  591SOL    HW1 1772   2.757   2.271   2.186  2.7137  1.0351  3.6584
  591SOL    HW2 1773   2.865   2.207   2.066 -0.1725 -0.7015 -1.1037
  592SOL     OW 1774   2.633   1.570   1.865  0.3010  0.5849  0.2683
  592SOL    HW1 1775   2.599   1.666   1.868  0.8734  2.1070  1.2476
  592SOL    HW2 1776   2.591   1.513   1.935  1.2592  1.0304 -1.0148
  593SOL     OW 1777   1.140   1.066   1.443 -0.0113  0.0398 -1.3234
  593SOL    HW1 1778   1.185   1.094   1.353  4.1872 -0.3888 -2.2157
  593SOL    HW2 1779   1.197   0.996   1.484 -2.8971  2.2141 -2.3792
  594SOL     OW 1780   2.616   1.425   3.009  0.0805 -0.0242 -0.3522
  594SOL    HW1 1781   2.677   1.501   3.044  2.1362  1.4579  1.0266
  594SOL    HW2 1782   2.664   1.331   3.015  1.4658 -1.1724  0.2208
  595SOL     OW 1783   0.463   0.439   0.847 -0.4310 -0.0457 -0.8442
  595SOL    HW1 1784   0.440   0.342   0.863  0.7110  0.8169  0.5636
  595SOL    HW2 1785   0.554   0.458   0.887  2.2961  1.7673 -0.9187
  596SOL     OW 1786   0.004   1.249   1.110  0.1259  0.3522 -0.0794
  596SOL    HW1 1787   3.087   1.152   1.112  1.2431  3.3572 -1.7335
  596SOL    HW2 1788   0.095   1.264   1.157  2.8317  0.2718  0.7769
  597SOL     OW 1789   1.364   1.848   0.820 -0.2402 -0.0666 -0.5052
  597SOL    HW1 1790   1.382   1.880   0.917  2.0887  1.2170 -1.3776
  597SOL    HW2 1791   1.300   1.901   0.760 -3.0533  2.8962 -4.7552
  598SOL     OW 1792   0.449   2.925   1.600  0.6050  0.1592 -0.3767
  598SOL    HW1 1793   0.550   2.933   1.597 -0.6287 -0.4601  1.8803
  598SOL    HW2 1794   0.413   2.875   1.516  2.4020 -0.4660  3.2426
  599SOL     OW 1795   0.182   1.872   2.853  0.1247 -0.0220  0.6935
  599SOL    HW1 1796   0.086   1.851   2.884 -1.5930  0.3830  0.1956
  599SOL    HW2 1797   0.188   1.961   2.801 -0.6434  0.7908 -0.7555
  600SOL     OW 1798   0.169   1.006   2.913 -0.0694 -0.2052  0.4912
  600SOL    HW1 1799   0.134   0.937   2.849  0.1035  1.9919 -0.3484
  600SOL    HW2 1800   0.106   1.088   2.900 -1.2906  1.4251  0.1051
  601SOL     OW 1801   0.499   0.798   1.201 -0.4627  0.2855  0.2134
  601SOL    HW1 1802   0.455   0.885   1.230  1.6742 -3.5042  0.1341
  601SOL    HW2 1803   0.440   0.717   1.203  0.1926 -1.0942 -2.8129
  602SOL     OW 1804   1.105   0.042   0.623 -0.8818  0.1695  0.4580
  602SOL    HW1 1805   1.172   3.099   0.559  0.9714 -1.8550  0.2225
  602SOL    HW2 1806   1.016   0.025   0.588  2.0887  0.7273  1.4802
  603SOL     OW 1807   1.620   2.174   2.310  0.1819 -0.4933 -0.2419
  603SOL    HW1 1808   1.623   2.088   2.261 -1.0542 -1.1309  1.3296
  603SOL    HW2 1809   1.629   2.254   2.249 -1.2362 -1.0574  1.5718
  604SOL     OW 1810   0.461   3.054   2.951  0.2163  0.2548  0.6861
  604SOL    HW1 1811   0.387   2.986   2.940  3.3034 -0.0118 -1.2752
  604SOL    HW2 1812   0.474   0.004   2.865  0.7866 -3.6609 -1.2183
  605SOL     OW 1813   2.613   1.112   1.579  0.1417  0.4287 -0.0048
  605SOL    HW1 1814   2.677   1.138   1.658  0.3347  1.1554  2.3067
  605SOL    HW2 1815   2.569   1.194   1.531 -0.1841 -2.7152  0.9693
  606SOL     OW 1816   0.779   1.628   2.873  0.3466  0.2727 -0.2589
  606SOL    HW1 1817   0.837   1.553   2.839  0.3007  2.2371  1.8162
  606SOL    HW2 1818   0.707   1.656   2.808  1.7494  0.8739 -0.1420
  607SOL     OW 1819   0.762   0.371   0.703  0.1816  0.3403  0.1098
  607SOL    HW1 1820   0.685   0.389   0.644 -0.0480  0.2905  0.9914
  607SOL    HW2 1821   0.844   0.424   0.672 -2.1836 -0.6529  1.2677
  608SOL     OW 1822   2.776   1.684   1.365  0.6834 -0.0296  0.7588
  608SOL    HW1 1823   2.816   1.671   1.455 -1.3582 -0.8665  0.9666
  608SOL    HW2 1824   2.675   1.678   1.365  2.4541 -1.6851  0.7275
  609SOL     OW 1825   2.595   0.292   0.913  0.4049  0.2864 -0.3990
  609SOL    HW1 1826   2.551   0.222   0.977 -0.7809 -0.1873  1.5280
  609SOL    HW2 1827   2.527   0.351   0.874  2.2477 -0.6491 -0.4792
  610SOL     OW 1828   0.185   2.610   1.366 -0.2154 -0.7213  0.0614
  610SOL    HW1 1829   0.158   2.539   1.431 -0.1972 -0.3453 -0.2054
  610SOL    HW2 1830   0.172   2.562   1.276 -2.1423 -0.3356  1.2149
  611SOL     OW 1831   1.410   1.654   0.246  0.3601  0.2332 -0.5579
  611SOL    HW1 1832   1.456   1.598   0.316  1.7203  0.9139 -1.0959
  611SOL    HW2 1833   1.375   1.745   0.282 -1.4146  2.4477 -1.1564
  612SOL     OW 1834   0.899   2.727   2.063 -0.4593 -0.2047 -0.1705
  612SOL    HW1 1835   0.870   2.652   2.129 -1.9960 -1.7765  1.5505
  612SOL    HW2 1836   0.820   2.745   2.005 -1.9043  0.4484  0.6182
  613SOL     OW 1837   0.332   2.614   0.891 -0.2360 -0.4301  0.0400
  613SOL    HW1 1838   0.312   2.540   0.826  0.1843  1.5360 -0.2879
  613SOL    HW2 1839   0.426   2.608   0.924 -2.3944 -0.8159  2.8021
  614SOL     OW 1840   2.128   0.061   2.212 -0.2945 -0.5856  0.6057
  614SOL    HW1 1841   2.093   0.158   2.200  1.4024 -0.1783  1.9059
  614SOL    HW2 1842   2.197   0.042   2.137  1.3240  0.3447 -1.2184
  615SOL     OW 1843   1.169   1.455   0.315  0.2671 -0.1385  0.6780
  615SOL    HW1 1844   1.119   1.474   0.225 -1.1749  0.3348  0.6355
  615SOL    HW2 1845   1.252   1.511   0.327 -0.5058 -0.0825  3.2081
  616SOL     OW 1846   1.531   1.565   0.476  0.4816 -0.5611  0.1483
  616SOL    HW1 1847   1.560   1.466   0.459 -0.1309 -2.8032 -1.8116
  616SOL    HW2 1848   1.483   1.565   0.566  1.5047  0.0767 -0.5019
  617SOL     OW 1849   1.255   1.239   2.562 -0.5830 -0.6924 -0.2140
  617SOL    HW1 1850   1.163   1.223   2.515  0.6109  0.2067  1.1250
  617SOL    HW2 1851   1.323   1.161   2.547 -0.2588  0.0746 -0.8339
  618SOL     OW 1852   0.692   3.069   2.083  0.2739 -0.3703 -0.1013
  618SOL    HW1 1853   0.654   3.102   1.995  2.1689  2.2619 -2.4062
  618SOL    HW2 1854   0.716   0.038   2.155  1.0212 -1.6883 -0.5986
  619SOL     OW 1855   2.998   1.448   1.240  0.1814  0.0820 -0.0038
  619SOL    HW1 1856   3.063   1.460   1.312 -0.5110 -1.1875 -3.5560
  619SOL    HW2 1857   3.034   1.372   1.177  1.0676  1.3393  1.8467
  620SOL     OW 1858   2.470   0.417   2.676 -0.6906 -1.1099  0.0568
  620SOL    HW1 1859   2.499   0.515   2.705  0.1629  3.4545 -0.0527
  620SOL    HW2 1860   2.411   0.421   2.593  2.0463  0.6735 -1.0192
  621SOL     OW 1861   2.060   2.239   2.718  0.5275  0.4079  0.0546
  621SOL    HW1 1862   2.121   2.310   2.754 -1.0184  1.0411 -1.7847
  621SOL    HW2 1863   1.988   2.276   2.657  1.4212  0.1119  1.6215
  622SOL     OW 1864   1.045   0.905   2.614  0.2250  0.8182 -0.3352
  622SOL    HW1 1865   0.976   0.838   2.596  1.2125  0.0890  0.4649
  622SOL    HW2 1866   1.019   0.960   2.701 -1.4964  0.8996  0.0184
  623SOL     OW 1867   0.799   0.980   2.261  0.5834  0.3098 -0.1778
  623SOL    HW1 1868   0.901   0.960   2.267  1.7780  1.1737  1.3212
  623SOL    HW2 1869   0.739   0.916   2.312  0.8249 -0.7700  2.7833
  624SOL     OW 1870   2.891   0.382   0.542  0.3011 -0.5609 -0.2272
  624SOL    HW1 1871   2.861   0.358   0.449  2.5424  2.0415  1.3179
  624SOL    HW2 1872   2.832   0.454   0.583 -1.2794 -0.6628  1.3638
  625SOL     OW 1873   0.691   2.408   0.707 -0.2978 -0.1754  0.3284
  625SOL    HW1 1874   0.685   2.513   0.710 -1.2071 -1.4078  1.2533
  625SOL    HW2 1875   0.790   2.378   0.728  2.3141 -0.2678 -0.3190
  626SOL     OW 1876   2.188   0.755   2.561 -0.1498 -0.0154 -0.2602
  626SOL    HW1 1877   2.177   0.781   2.657  1.3917  0.9371 -2.3618
  626SOL    HW2 1878   2.148   0.821   2.499  2.4842  1.4011  1.4967
  627SOL     OW 1879   1.528   2.318   2.735 -0.2266 -0.3297  0.5187
  627SOL    HW1 1880   1.501   2.292   2.642  1.4714 -3.4734 -0.9883
  627SOL    HW2 1881   1.587   2.400   2.727  0.6556  1.6833 -1.3944
  628SOL     OW 1882   2.686   2.709   2.236  0.3539  0.0878  0.0115
  628SOL    HW1 1883   2.696   2.810   2.225  1.1544 -0.4520 -1.8515
  628SOL    HW2 1884   2.588   2.683   2.261 -2.1988 -2.1746 -1.0950
  629SOL     OW 1885   1.257   2.788   2.610  0.7810 -0.9139  0.3291
  629SOL    HW1 1886   1.343   2.751   2.585 -0.9549  0.8827  0.5412
  629SOL    HW2 1887   1.260   2.888   2.634 -2.3076  0.6223 -0.8971
  630SOL     OW 1888   1.004   0.120   2.493 -0.2307  0.1189 -0.4793
  630SOL    HW1 1889   1.015   0.219   2.502 -1.8611 -0.5256 -1.9929
  630SOL    HW2 1890   1.066   0.082   2.421  0.5681  0.6180  0.9879
  631SOL     OW 1891   2.071   1.277   0.805  0.2539 -0.3355 -0.1581
  631SOL    HW1 1892   2.028   1.193   0.768 -1.6411  2.6426 -2.0264
  631SOL    HW2 1893   2.066   1.281   0.905 -0.5999 -2.0991 -3.3974
  632SOL     OW 1894   2.679   0.224   1.849  0.1472 -0.0249  0.0253
  632SOL    HW1 1895   2.610   0.292   1.818 -0.8808 -0.6497  2.5721
  632SOL    HW2 1896   2.726   0.248   1.934 -3.0607 -0.8665 -0.1095
  633SOL     OW 1897   1.016   1.491   0.090  0.0710  0.0554  1.0630
  633SOL    HW1 1898   1.079   1.464   0.018  0.1869  1.2160 -0.4963
  633SOL    HW2 1899   0.930   1.434   0.085 -1.6220  1.8370 -1.2976
  634SOL     OW 1900   2.887   3.013   1.596  0.5663  0.3381  0.3569
  634SOL    HW1 1901   2.916   3.072   1.676  0.5009  0.0043 -0.7301
  634SOL    HW2 1902   2.821   3.059   1.529 -1.7683  1.8980 -4.1133
  635SOL     OW 1903   1.619   0.278   1.151  0.4317  0.1969 -0.4366
  635SOL    HW1 1904   1.657   0.358   1.104  0.9727  1.7428  0.7454
  635SOL    HW2 1905   1.522   0.291   1.179  0.8968 -2.3006 -1.0123
  636SOL     OW 1906   0.670   1.085   0.010 -0.1389  0.4931 -0.0408
  636SOL    HW1 1907   0.576   1.084   0.047 -1.8996 -0.5063 -0.3432
  636SOL    HW2 1908   0.679   1.167   3.053 -2.0903  0.1507 -1.6916
  637SOL     OW 1909   3.009   2.223   3.055  0.3789 -0.2833 -0.6027
  637SOL    HW1 1910   2.942   2.153   3.020  0.0424  0.4801 -0.6160
  637SOL    HW2 1911   3.025   2.210   0.051  0.0824  0.4943 -1.0524
  638SOL     OW 1912   1.523   2.679   2.548 -0.1742 -0.1927  0.5805
  638SOL    HW1 1913   1.542   2.737   2.465 -0.7555  1.9445  1.7389
  638SOL    HW2 1914   1.606   2.677   2.609 -2.1228  0.4526  0.8993
  639SOL     OW 1915   1.612   1.848   0.706  0.2137 -0.3952 -0.1553
  639SOL    HW1 1916   1.518   1.836   0.747  0.1458 -1.9504 -2.0758
  639SOL    HW2 1917   1.610   1.857   0.600  4.2729 -1.0078 -0.4424
  640SOL     OW 1918   2.364   2.622   0.422 -0.0323  0.3329 -0.5717
  640SOL    HW1 1919   2.326   2.623   0.327  3.3711 -0.5727 -0.5876
  640SOL    HW2 1920   2.440   2.687   0.436 -1.2241  1.8129 -0.2309
  641SOL     OW 1921   2.824   0.419   2.971 -0.0828  0.9981 -0.0950
  641SOL    HW1 1922   2.797   0.448   3.064  2.9063  0.4625 -1.9687
  641SOL    HW2 1923   2.791   0.323   2.959 -0.5131 -0.4702  1.6806
  642SOL     OW 1924   0.364   0.553   1.223 -0.7426 -0.1640 -0.1965
  642SOL    HW1 1925   0.279   0.552   1.282  0.9356  0.8324  1.8744
  642SOL    HW2 1926   0.391   0.457   1.196 -0.0981 -2.4911  0.7296
  643SOL     OW 1927   0.719   1.467   2.516 -0.0987 -0.7305 -0.0588
  643SOL    HW1 1928   0.816   1.503   2.523  4.1520 -1.0463  0.6415
  643SOL    HW2 1929   0.728   1.366   2.522  1.4781  1.2372  0.6132
  644SOL     OW 1930   1.902   2.199   0.676 -0.6141 -0.1449 -0.8482
  644SOL    HW1 1931   1.987   2.149   0.648 -0.8513 -0.7605 -1.8659
  644SOL    HW2 1932   1.840   2.145   0.742 -0.8986 -0.2666 -2.1441
  645SOL     OW 1933   1.538   2.520   0.692 -0.1222  0.0039  0.5284
  645SOL    HW1 1934   1.528   2.451   0.766  0.0095  0.3740 -2.5089
  645SOL    HW2 1935   1.450   2.567   0.672  0.6415  0.5978 -2.7772
  646SOL     OW 1936   0.771   2.226   2.828  0.3324 -0.7378 -0.1290
  646SOL    HW1 1937   0.772   2.140   2.883 -0.2055  0.0479 -0.7654
  646SOL    HW2 1938   0.791   2.306   2.885 -0.8544  1.3542 -3.0747
  647SOL     OW 1939   1.214   2.727   1.343 -0.1409  0.5317  0.9414
  647SOL    HW1 1940   1.174   2.706   1.434 -0.6843  0.5001  0.4865
  647SOL    HW2 1941   1.183   2.823   1.314 -1.2391  2.1180 -1.8672
  648SOL     OW 1942   1.306   0.343   1.190 -0.2715 -0.3280  0.1526
  648SOL    HW1 1943   1.314   0.277   1.269 -0.3315  0.4033 -1.0791
  648SOL    HW2 1944   1.309   0.292   1.104  0.7797  2.4607  3.3741
  649SOL     OW 1945   1.150   2.129   0.171 -0.0494  0.4097  0.9287
  649SOL    HW1 1946   1.138   2.202   0.240 -2.6721 -3.6263 -2.5659
  649SOL    HW2 1947   1.246   2.127   0.140 -0.8122 -1.0584  2.2228
  650SOL     OW 1948   2.438   1.645   1.485  0.4391  0.0571 -0.2700
  650SOL    HW1 1949   2.499   1.718   1.518  0.1362 -2.0136 -0.6061
  650SOL    HW2 1950   2.346   1.650   1.528  0.8750  0.3128 -0.6049
  651SOL     OW 1951   1.831   2.779   3.076  0.5674 -0.8803 -0.1284
  651SOL    HW1 1952   1.740   2.795   0.021 -1.0063  0.4534 -0.1689
  651SOL    HW2 1953   1.810   2.716   2.997 -0.8803  0.3138 -0.8588
  652SOL     OW 1954   2.977   1.897   0.249 -0.1941 -0.0604 -0.1149
  652SOL    HW1 1955   2.888   1.884   0.289 -0.7450 -0.3305 -1.6150
  652SOL    HW2 1956   3.041   1.867   0.318 -1.8973 -2.8374 -3.9845
  653SOL     OW 1957   2.882   2.812   0.926  0.0169 -0.3992 -0.1556
  653SOL    HW1 1958   2.947   2.804   0.853  2.1430 -0.2938  4.0869
  653SOL    HW2 1959   2.818   2.735   0.922  0.2209  1.8017 -0.1592
  654SOL     OW 1960   3.003   2.761   1.671 -0.0667  0.2041 -0.4101
  654SOL    HW1 1961   3.074   2.813   1.727 -0.1676 -0.7600  0.7799
  654SOL    HW2 1962   2.942   2.828   1.632  2.1297  0.0289 -0.1131
  655SOL     OW 1963   0.172   2.090   0.951 -0.8994 -0.1841  0.6524
  655SOL    HW1 1964   0.092   2.027   0.955  0.1570  2.3147 -1.8837
  655SOL    HW2 1965   0.187   2.134   1.039 -2.3059 -0.1588 -0.1675
  656SOL     OW 1966   3.050   2.897   2.273 -0.0157 -0.4010 -0.3727
  656SOL    HW1 1967   2.989   2.921   2.186 -0.7846 -0.3376  1.3447
  656SOL    HW2 1968   3.015   2.939   2.357  0.3105 -1.4059 -1.5842
  657SOL     OW 1969   2.908   1.493   2.712  0.2047  0.2394 -0.7054
  657SOL    HW1 1970   3.009   1.475   2.720 -2.6564  1.6425 -1.5921
  657SOL    HW2 1971   2.863   1.405   2.740  5.7298  0.0043 -1.8394
  658SOL     OW 1972   2.625   1.647   1.066  0.2237  0.5869  0.3446
  658SOL    HW1 1973   2.672   1.735   1.088  0.4301  0.8326 -2.5868
  658SOL    HW2 1974   2.542   1.628   1.121 -1.7409 -3.3796 -1.5787
  659SOL     OW 1975   1.486   0.032   0.338  0.2786  0.1650 -0.1945
  659SOL    HW1 1976   1.561   3.086   0.381  0.5181  0.4499 -2.4398
  659SOL    HW2 1977   1.478   0.127   0.376  1.7432  4.4969  0.6696
  660SOL     OW 1978   1.634   1.506   2.975 -0.3712 -0.0618 -0.1671
  660SOL    HW1 1979   1.545   1.499   3.019  1.2065 -2.1216 -1.6961
  660SOL    HW2 1980   1.643   1.599   2.925  0.7655  1.4176 -1.6639
  661SOL     OW 1981   0.212   2.266   1.162 -0.0337  0.3711  0.0882
  661SOL    HW1 1982   0.179   2.360   1.135 -1.9049 -1.0676  0.0983
  661SOL    HW2 1983   0.171   2.223   1.248  1.1097 -0.0105 -2.4971
  662SOL     OW 1984   0.147   0.832   0.124 -0.0632  0.3001 -0.2206
  662SOL    HW1 1985   0.199   0.920   0.120  2.1784 -0.7781  1.3912
  662SOL    HW2 1986   0.206   0.745   0.130  1.2454 -0.9873 -1.1224
  663SOL     OW 1987   1.995   1.584   0.930 -0.4210 -0.0150  0.3712
  663SOL    HW1 1988   2.064   1.572   0.856  1.3758 -0.5507  0.2757
  663SOL    HW2 1989   1.917   1.637   0.894  1.5642 -0.6674 -1.7758
  664SOL     OW 1990   1.194   1.596   1.207 -0.7781  0.8869  0.1855
  664SOL    HW1 1991   1.209   1.512   1.262  0.9382  1.2177  0.5501
  664SOL    HW2 1992   1.261   1.612   1.131  0.5559  0.4045 -1.0721
  665SOL     OW 1993   1.873   2.791   2.309 -0.2678 -0.2146 -0.1798
  665SOL    HW1 1994   1.773   2.797   2.322  1.0402  1.5447  1.3421
  665SOL    HW2 1995   1.899   2.717   2.242  0.9859 -0.3984  0.3056
  666SOL     OW 1996   3.081   2.881   2.969 -0.0706 -0.3056  0.1977
  666SOL    HW1 1997   3.007   2.923   3.021  2.4880 -1.1704  0.5490
  666SOL    HW2 1998   3.062   2.886   2.866  1.2657  2.4187 -1.5946
  667SOL     OW 1999   2.450   1.474   2.078  0.2787 -0.1430  0.4156
  667SOL    HW1 2000   2.391   1.401   2.123  0.9343 -3.5229  3.4723
  667SOL    HW2 2001   2.400   1.538   2.015  0.4667  0.4874 -0.3012
  668SOL     OW 2002   0.468   0.990   2.455 -0.0250  0.3342  0.2228
  668SOL    HW1 2003   0.431   1.061   2.519  0.3532 -2.6201  1.0365
  668SOL    HW2 2004   0.431   1.003   2.361  0.2771 -1.1703 -0.1258
  669SOL     OW 2005   2.282   2.306   2.464  0.5033 -0.3682  0.1872
  669SOL    HW1 2006   2.379   2.283   2.442  0.6073  0.1391 -0.4260
  669SOL    HW2 2007   2.268   2.330   2.563  1.2177  1.7842  0.3406
  670SOL     OW 2008   2.344   1.294   1.711 -0.0601  0.0054 -0.4057
  670SOL    HW1 2009   2.407   1.306   1.630  1.1751  2.7954 -2.5451
  670SOL    HW2 2010   2.349   1.377   1.769 -2.8976 -0.8308 -2.5480
  671SOL     OW 2011   2.536   1.099   0.413 -0.1963  0.1167  0.5561
  671SOL    HW1 2012   2.596   1.145   0.343 -0.3443  0.1169 -1.8792
  671SOL    HW2 2013   2.471   1.166   0.463  1.3434  0.3678  1.0218
  672SOL     OW 2014   2.350   0.809   2.299  0.1145  0.1852 -0.3903
  672SOL    HW1 2015   2.299   0.767   2.226  1.3243  1.2795  0.2867
  672SOL    HW2 2016   2.328   0.909   2.296  0.5496 -1.5119 -0.3261
  673SOL     OW 2017   2.929   0.055   1.814  0.1276  0.3246  0.1569
  673SOL    HW1 2018   3.011   0.032   1.872 -2.2160 -0.9324  0.4525
  673SOL    HW2 2019   2.869   0.112   1.873 -0.6084 -1.1092  2.5447
  674SOL     OW 2020   1.821   1.819   1.422 -0.0917 -0.9510 -0.0577
  674SOL    HW1 2021   1.741   1.771   1.382 -0.2116 -1.5243  1.0821
  674SOL    HW2 2022   1.804   1.893   1.493  0.9266 -1.0655 -0.4298
  675SOL     OW 2023   0.727   0.834   0.761  0.3420  0.2418 -0.2830
  675SOL    HW1 2024   0.678   0.799   0.845 -2.7462  0.0523  4.0991
  675SOL    HW2 2025   0.823   0.803   0.760 -2.2769 -0.3518  3.4942
  676SOL     OW 2026   1.613   1.159   1.116  0.0085 -0.4574  0.1299
  676SOL    HW1 2027   1.532   1.095   1.099  1.3209  0.3213 -0.4574
  676SOL    HW2 2028   1.664   1.127   1.199  2.8418 -0.3837  0.2357
  677SOL     OW 2029   2.644   1.296   2.177  0.2978 -0.1591 -0.4242
  677SOL    HW1 2030   2.651   1.211   2.124 -1.7967  0.4249  0.6479
  677SOL    HW2 2031   2.571   1.360   2.136 -3.1579  1.8546 -0.9647
  678SOL     OW 2032   2.822   1.558   0.889  0.1814 -0.6769  0.0129
  678SOL    HW1 2033   2.793   1.462   0.870  2.5484  0.4696  0.2601
  678SOL    HW2 2034   2.740   1.600   0.942 -1.6862  1.6726 -0.0828
  679SOL     OW 2035   2.192   2.558   0.200 -0.6128 -0.5183  0.0250
  679SOL    HW1 2036   2.097   2.575   0.227 -0.4966  0.3107 -2.5513
  679SOL    HW2 2037   2.229   2.632   0.139 -0.6607 -2.4474  0.0479
  680SOL     OW 2038   3.047   2.183   1.931  0.0983 -0.3705  0.1411
  680SOL    HW1 2039   0.002   2.157   2.013 -0.4970 -0.7648  0.6154
  680SOL    HW2 2040   3.037   2.284   1.925  2.6024 -0.0490 -0.2661
  681SOL     OW 2041   0.495   1.071   1.368 -0.1891  0.0397 -0.9062
  681SOL    HW1 2042   0.493   1.141   1.292  0.0515  0.6415 -1.8903
  681SOL    HW2 2043   0.570   1.083   1.435 -2.6271  2.4359  1.2589
  682SOL     OW 2044   1.287   2.669   0.710  0.2037  0.5419 -0.0945
  682SOL    HW1 2045   1.331   2.762   0.691 -0.9830 -0.1111  1.5692
  682SOL    HW2 2046   1.185   2.680   0.714  0.9849 -0.0254  0.1637
  683SOL     OW 2047   2.382   1.279   0.560 -0.1063 -0.2933 -0.1899
  683SOL    HW1 2048   2.389   1.255   0.659 -1.3382  0.4869 -0.9841
  683SOL    HW2 2049   2.432   1.365   0.530  0.1682 -2.3271 -1.1595
  684SOL     OW 2050   0.522   2.056   1.926  0.0971 -1.0401 -0.2050
  684SOL    HW1 2051   0.542   2.122   2.007 -0.8075 -0.0524  1.8470
  684SOL    HW2 2052   0.424   2.039   1.917  0.4836 -0.3744 -0.3888
  685SOL     OW 2053   2.041   1.530   3.069 -0.1395  0.3809  0.1845
  685SOL    HW1 2054   2.123   1.541   0.023  0.7871  1.8015 -2.0074
  685SOL    HW2 2055   1.960   1.512   0.027  1.4375  0.2418 -0.2774
  686SOL     OW 2056   0.282   0.628   0.779  0.0272 -0.0392  0.1772
  686SOL    HW1 2057   0.367   0.575   0.804 -1.0526  3.0347 -0.7306
  686SOL    HW2 2058   0.234   0.648   0.870 -2.7875 -2.9704  4.6527
  687SOL     OW 2059   1.172   2.452   2.750 -0.1734 -0.2703 -0.5147
  687SOL    HW1 2060   1.158   2.351   2.754 -1.9182  1.0544 -0.2271
  687SOL    HW2 2061   1.198   2.472   2.659 -1.0692  0.4170  0.9674
  688SOL     OW 2062   2.607   1.835   1.565  0.3245  0.0216  0.3088
  688SOL    HW1 2063   2.693   1.806   1.611 -1.0806 -0.2064 -3.0255
  688SOL    HW2 2064   2.557   1.910   1.611 -0.0440  0.4676  0.7648
  689SOL     OW 2065   2.217   0.721   2.069  0.0425 -0.5552  0.6833
  689SOL    HW1 2066   2.299   0.676   2.029  2.9492 -1.0763  0.0532
  689SOL    HW2 2067   2.192   0.805   2.013 -2.4760  3.6155 -0.8122
  690SOL     OW 2068   2.116   0.931   1.436 -0.4012 -0.0473  0.2588
  690SOL    HW1 2069   2.047   0.895   1.371  0.5587  1.7513  1.0305
  690SOL    HW2 2070   2.108   1.032   1.454  0.0186  3.3874 -0.5143
  691SOL     OW 2071   0.584   1.941   1.693  0.4553  0.5376 -0.1050
  691SOL    HW1 2072   0.550   2.003   1.767  0.0061  0.0551  1.9076
  691SOL    HW2 2073   0.626   2.002   1.626  0.3123  0.1493 -0.3353
  692SOL     OW 2074   2.008   0.051   1.361  0.2531 -0.4577  0.7163
  692SOL    HW1 2075   1.984   0.089   1.454 -1.9182 -0.9125  4.4349
  692SOL    HW2 2076   1.935   0.072   1.287 -1.7281  2.5406 -1.5642
  693SOL     OW 2077   0.746   1.178   2.501 -0.4043 -0.0384 -0.4893
  693SOL    HW1 2078   0.703   1.095   2.548  3.5841  0.5869 -0.8053
  693SOL    HW2 2079   0.724   1.182   2.405 -1.6947  0.6854  0.5520
  694SOL     OW 2080   1.913   2.766   1.237  0.3007  0.0533  0.5166
  694SOL    HW1 2081   1.887   2.695   1.164 -0.1421 -3.5889  0.2124
  694SOL    HW2 2082   1.915   2.727   1.329  0.1466  1.2077 -1.7762
  695SOL     OW 2083   1.437   1.444   1.894  0.2481  0.3259 -0.2892
  695SOL    HW1 2084   1.342   1.425   1.915  4.3053  2.1459 -1.0269
  695SOL    HW2 2085   1.484   1.496   1.967 -2.7994 -1.1718 -0.9695
  696SOL     OW 2086   1.642   0.116   0.939  0.0528  0.8400 -0.0990
  696SOL    HW1 2087   1.557   0.063   0.924  0.5551 -3.1350 -0.5242
  696SOL    HW2 2088   1.642   0.184   1.017 -0.2318  0.0766  2.2453
  697SOL     OW 2089   1.236   0.215   0.947  0.6546  0.1892  0.5774
  697SOL    HW1 2090   1.168   0.169   1.009  1.1970  0.2111  1.3177
  697SOL    HW2 2091   1.192   0.239   0.859 -2.5815 -0.7031 -0.4382
  698SOL     OW 2092   1.742   1.262   2.004  0.3093  0.1753 -0.1699
  698SOL    HW1 2093   1.719   1.297   1.911  2.1724  2.1224 -0.3693
  698SOL    HW2 2094   1.661   1.274   2.064  2.0256 -2.5618  0.9184
  699SOL     OW 2095   1.259   1.395   1.359 -0.4102 -0.2278  0.5048
  699SOL    HW1 2096   1.310   1.388   1.447 -1.2829 -0.7107 -2.7154
  699SOL    HW2 2097   1.247   1.314   1.297 -0.1172 -0.4733 -0.2998
  700SOL     OW 2098   1.399   0.391   0.169 -0.1596  0.3939  0.1305
  700SOL    HW1 2099   1.372   0.430   0.079  2.0107 -0.3713 -0.6815
  700SOL    HW2 2100   1.364   0.295   0.180 -0.4636  0.8588  0.0082
  701SOL     OW 2101   0.591   0.018   1.807  0.2074  0.3841 -0.0987
  701SOL    HW1 2102   0.629   0.115   1.817 -0.1159  2.0760 -0.8591
  701SOL    HW2 2103   0.646   3.066   1.740  3.3078 -2.2525 -0.7014
  702SOL     OW 2104   1.264   2.999   0.452 -0.0119 -0.0089  0.1980
  702SOL    HW1 2105   1.334   3.052   0.397 -1.3458 -3.0095  2.4969
  702SOL    HW2 2106   1.217   2.922   0.404  1.6817 -0.4808  2.1595
  703SOL     OW 2107   2.676   0.001   2.230  0.2840  0.1724  0.4319
  703SOL    HW1 2108   2.630   0.066   2.291  1.1803 -1.0144 -0.8679
  703SOL    HW2 2109   2.628   3.100   2.138 -0.5964 -2.1511  0.7214
  704SOL     OW 2110   0.952   2.367   0.802  0.1275  0.1274  0.4108
  704SOL    HW1 2111   0.999   2.287   0.850  1.9998  1.1944  1.7093
  704SOL    HW2 2112   0.974   2.463   0.839  0.1380  2.2165  1.0805
  705SOL     OW 2113   0.123   0.894   2.388 -0.1430 -0.0299  0.5073
  705SOL    HW1 2114   0.165   0.803   2.392 -0.9386 -1.1149  1.7768
  705SOL    HW2 2115   0.023   0.879   2.379  1.5625  1.2004 -4.2245
  706SOL     OW 2116   1.642   0.262   0.180 -0.1957 -0.1297  0.1303
  706SOL    HW1 2117   1.637   0.221   0.273 -1.8884  1.4939 -1.0563
  706SOL    HW2 2118   1.566   0.333   0.165 -2.5010 -2.8387  0.0615
  707SOL     OW 2119   1.218   2.052   2.535 -0.1288 -0.3946  0.2448
  707SOL    HW1 2120   1.190   1.980   2.602  1.2060  0.6336 -0.4857
  707SOL    HW2 2121   1.145   2.124   2.531 -2.4271 -2.1357 -1.3373
  708SOL     OW 2122   2.950   2.027   1.435 -0.1545  0.2644  0.0744
  708SOL    HW1 2123   2.864   2.024   1.380  0.6466 -2.2957 -0.5393
  708SOL    HW2 2124   2.937   2.081   1.522 -0.7606  0.1563  0.6015
  709SOL     OW 2125   2.087   0.350   1.692  0.0291  0.2471  0.2344
  709SOL    HW1 2126   2.068   0.307   1.783 -1.2228 -0.9380  0.9863
  709SOL    HW2 2127   2.131   0.440   1.700 -2.2027 -0.6273  1.2106
  710SOL     OW 2128   2.700   2.926   1.115  0.3019 -0.6857 -0.0034
  710SOL    HW1 2129   2.645   2.998   1.071  1.5652 -0.5244  0.0070
  710SOL    HW2 2130   2.760   2.882   1.045  1.4531 -2.1061  1.8899
  711SOL     OW 2131   0.304   2.390   0.720 -0.3675  0.0679 -0.0582
  711SOL    HW1 2132   0.387   2.359   0.679 -1.4996  0.9340  0.0811
  711SOL    HW2 2133   0.232   2.357   0.661  3.4202  1.6339  2.1898
  712SOL     OW 2134   0.494   2.028   2.351 -0.3270  0.2954 -0.4166
  712SOL    HW1 2135   0.482   2.127   2.371  0.5176 -1.2969 -2.2143
  712SOL    HW2 2136   0.554   1.986   2.414 -4.3530  1.4164 -1.3487
  713SOL     OW 2137   2.000   0.731   0.214  0.1263 -0.1463  0.1324
  713SOL    HW1 2138   1.961   0.639   0.235  0.9479 -1.5236  0.5016
  713SOL    HW2 2139   1.964   0.758   0.122  0.5137  1.2942 -2.6160
  714SOL     OW 2140   1.272   1.885   0.313 -0.4827  0.5031  0.3282
  714SOL    HW1 2141   1.212   1.877   0.397 -1.4177  1.7093 -1.4450
  714SOL    HW2 2142   1.261   1.977   0.275  1.1347 -1.6080  1.2724
  715SOL     OW 2143   2.298   3.062   0.652 -0.2343 -0.5519  0.1453
  715SOL    HW1 2144   2.344   0.046   0.670 -0.6842  0.2706 -1.5152
  715SOL    HW2 2145   2.314   2.992   0.728 -2.1577 -2.7132  2.9973
  716SOL     OW 2146   0.597   0.770   2.137 -0.6542 -0.4323 -0.4969
  716SOL    HW1 2147   0.577   0.755   2.239 -0.1978 -0.4867  1.3682
  716SOL    HW2 2148   0.543   0.851   2.107 -1.0588  0.5875 -0.5400
  717SOL     OW 2149   0.166   0.500   2.801  0.3459 -0.4063  0.8130
  717SOL    HW1 2150   0.142   0.598   2.791  2.8877 -2.9452 -0.0151
  717SOL    HW2 2151   0.109   0.450   2.866  0.5705 -0.5894  0.1035
  718SOL     OW 2152   1.332   0.885   0.161  0.3756 -0.8978  0.6218
  718SOL    HW1 2153   1.415   0.830   0.130 -0.0999  0.9954  1.1943
  718SOL    HW2 2154   1.289   0.829   0.234  1.3633  1.0758  2.0078
  719SOL     OW 2155   2.708   2.083   2.935  0.6027 -0.7068  0.3052
  719SOL    HW1 2156   2.637   2.017   2.973 -1.0141 -1.2376  0.3430
  719SOL    HW2 2157   2.773   2.041   2.869  2.0715  0.9759  1.0097
  720SOL     OW 2158   1.434   0.954   1.084  0.1990 -0.2978 -0.0712
  720SOL    HW1 2159   1.385   0.972   0.998  1.1163  1.7942  0.2347
  720SOL    HW2 2160   1.481   0.863   1.076  0.1169 -1.4701  0.6337
  721SOL     OW 2161   2.765   0.610   0.644  0.4021 -0.4939 -0.0991
  721SOL    HW1 2162   2.662   0.617   0.666 -2.2452  2.6094 -0.7734
  721SOL    HW2 2163   2.822   0.651   0.718 -1.2372 -2.3982 -1.8523
  722SOL     OW 2164   1.071   1.852   2.675 -0.1903 -0.1653 -0.3843
  722SOL    HW1 2165   1.074   1.838   2.779  1.0509  1.1066 -0.6986
  722SOL    HW2 2166   0.982   1.889   2.644 -1.7995  0.5869 -2.9352
  723SOL     OW 2167   0.473   0.980   0.363  0.3050 -0.2004  0.2243
  723SOL    HW1 2168   0.513   1.068   0.396  1.1407 -0.7386 -2.3527
  723SOL    HW2 2169   0.373   0.976   0.385  1.2654  0.3942 -0.0261
  724SOL     OW 2170   0.837   1.850   1.761 -0.4396 -1.0354  0.7355
  724SOL    HW1 2171   0.830   1.871   1.864 -0.4553  0.9362  0.8740
  724SOL    HW2 2172   0.745   1.864   1.723  0.4358  0.2149 -0.6411
  725SOL     OW 2173   0.001   1.067   1.354 -0.2259 -0.5405 -0.1539
  725SOL    HW1 2174   0.090   1.023   1.366 -2.4948  1.8665 -0.7228
  725SOL    HW2 2175   3.067   1.121   1.431  1.4257  1.7196  0.6059
  726SOL     OW 2176   1.766   0.134   0.428 -0.0571 -0.5819  0.1015
  726SOL    HW1 2177   1.743   0.040   0.450 -2.3600  3.1858  1.1741
  726SOL    HW2 2178   1.744   0.197   0.509 -0.6892  0.1636 -0.2151
  727SOL     OW 2179   1.495   0.966   2.267  0.1239 -0.0103  0.2112
  727SOL    HW1 2180   1.400   0.925   2.261  1.4734  0.1231  1.0810
  727SOL    HW2 2181   1.544   0.940   2.182 -0.7053  1.7810  0.1160
  728SOL     OW 2182   1.353   2.344   1.396  0.2984 -0.0071 -0.3755
  728SOL    HW1 2183   1.379   2.252   1.421  1.8181  1.6080 -0.4027
  728SOL    HW2 2184   1.435   2.408   1.384  1.4691  1.0393 -1.5680
  729SOL     OW 2185   1.460   0.695   1.394  0.3227 -0.1243 -0.2393
  729SOL    HW1 2186   1.397   0.664   1.317  0.4891  0.3925 -0.6825
  729SOL    HW2 2187   1.558   0.689   1.368  0.3829  0.5332  0.2096
  730SOL     OW 2188   0.768   1.881   2.025  0.0456  0.0668  0.1221
  730SOL    HW1 2189   0.813   1.932   2.097 -2.5629 -0.2015 -3.7688
  730SOL    HW2 2190   0.672   1.921   2.012 -2.9230  1.5869  2.2761
  731SOL     OW 2191   0.464   0.426   0.320  0.3277 -0.3426 -0.1107
  731SOL    HW1 2192   0.488   0.427   0.417 -0.7288 -1.2317 -1.0330
  731SOL    HW2 2193   0.363   0.435   0.314 -0.1834 -0.2732  1.0587
  732SOL     OW 2194   0.618   0.525   2.965 -0.0863 -0.0577 -0.1692
  732SOL    HW1 2195   0.689   0.477   3.025  0.6410  2.1160  2.5754
  732SOL    HW2 2196   0.524   0.489   2.973  0.5266  2.4129  2.1239
  733SOL     OW 2197   1.493   2.120   1.435 -0.1195  0.1427  0.0797
  733SOL    HW1 2198   1.446   2.040   1.389 -0.2674 -0.4644 -1.7807
  733SOL    HW2 2199   1.559   2.093   1.511  2.2105 -0.7076  2.0731
  734SOL     OW 2200   0.052   2.624   2.548 -0.4529 -0.2707 -0.4250
  734SOL    HW1 2201   0.066   2.534   2.587  1.9208  3.7828 -0.6461
  734SOL    HW2 2202   3.058   2.651   2.556  1.6217  0.6387  0.3431
  735SOL     OW 2203   0.764   2.899   0.903  0.2926  0.0859  0.0567
  735SOL    HW1 2204   0.837   2.896   0.972 -1.2825  1.0533 -1.4635
  735SOL    HW2 2205   0.793   2.864   0.811 -1.9735  0.6040  0.6641
  736SOL     OW 2206   1.724   1.083   2.708 -0.3692 -0.4892  0.2820
  736SOL    HW1 2207   1.623   1.099   2.694 -4.2500  2.6185 -2.8443
  736SOL    HW2 2208   1.741   1.101   2.804  1.3717  0.2703  2.6077
  737SOL     OW 2209   0.016   0.390   0.697 -0.2215 -0.5139  0.1527
  737SOL    HW1 2210   0.072   0.311   0.662 -1.3362 -0.2048  0.0888
  737SOL    HW2 2211   3.038   0.403   0.636  0.5492  0.7993  1.3949
  738SOL     OW 2212   2.843   2.270   1.172 -0.0984  0.5510 -0.4496
  738SOL    HW1 2213   2.746   2.241   1.159 -1.4573  1.8283 -1.9611
  738SOL    HW2 2214   2.839   2.365   1.139 -0.5024  0.2444  1.3434
  739SOL     OW 2215   1.667   2.985   0.518  0.1954 -0.0737  0.3753
  739SOL    HW1 2216   1.587   2.978   0.576  2.0733  1.0454  2.9193
  739SOL    HW2 2217   1.742   2.927   0.560 -0.0713 -0.9553  1.7128
  740SOL     OW 2218   1.411   3.040   1.225  0.0818  0.9361  0.4855
  740SOL    HW1 2219   1.330   2.988   1.184 -0.8347  0.5607 -0.5033
  740SOL    HW2 2220   1.502   2.989   1.213  1.3055  0.1792  0.3385
  741SOL     OW 2221   2.361   0.239   0.656 -0.1208 -0.0574  0.1398
  741SOL    HW1 2222   2.453   0.196   0.655 -2.7159 -0.4962  1.0738
  741SOL    HW2 2223   2.376   0.328   0.697  3.7199 -0.3968 -0.7307
  742SOL     OW 2224   1.388   2.193   2.067 -0.3220  0.4063  0.1801
  742SOL    HW1 2225   1.461   2.208   2.135  3.3396 -1.3406 -3.6286
  742SOL    HW2 2226   1.380   2.276   2.012 -0.4379 -0.6457  1.7299
  743SOL     OW 2227   2.524   0.443   1.764 -0.3958  0.0422 -0.2085
  743SOL    HW1 2228   2.490   0.523   1.811  1.2107  3.0230 -1.2767
  743SOL    HW2 2229   2.601   0.477   1.705  0.4805 -0.8662 -2.1156
  744SOL     OW 2230   2.150   0.354   1.155  0.2332 -0.0791  0.6195
  744SOL    HW1 2231   2.174   0.420   1.083 -1.0901  0.7716  5.6023
  744SOL    HW2 2232   2.203   0.382   1.239  1.5321 -1.7520  3.1123
  745SOL     OW 2233   2.316   1.526   1.842 -0.1944  0.3274  0.1277
  745SOL    HW1 2234   2.233   1.521   1.900  3.5300  2.9929  0.8937
  745SOL    HW2 2235   2.304   1.579   1.754 -0.2389 -1.9079  0.1059
  746SOL     OW 2236   1.114   1.430   0.903  0.0433  0.5040 -0.0812
  746SOL    HW1 2237   1.030   1.476   0.874 -3.1519 -1.8592  1.7856
  746SOL    HW2 2238   1.153   1.471   0.989  1.3131  1.9920 -0.4031
  747SOL     OW 2239   1.746   1.275   0.914 -0.3824 -0.0878  0.7553
  747SOL    HW1 2240   1.693   1.223   0.984  0.9849  0.7711 -2.9172
  747SOL    HW2 2241   1.824   1.328   0.957  3.3530 -0.9561 -0.3063
  748SOL     OW 2242   3.021   0.111   0.398  0.0795  0.0487  0.0736
  748SOL    HW1 2243   2.952   0.184   0.384  0.7645  0.6088 -1.2296
  748SOL    HW2 2244   0.006   0.148   0.371 -0.2358 -0.1907  0.1703
  749SOL     OW 2245   0.218   0.397   2.070 -0.1188  0.4581  0.1820
  749SOL    HW1 2246   0.291   0.407   2.138 -1.3561  0.9823 -0.9399
  749SOL    HW2 2247   0.182   0.490   2.048 -1.0942 -2.5554  2.6448
  750SOL     OW 2248   1.952   3.012   1.784 -0.3178 -0.2845 -0.4311
  750SOL    HW1 2249   1.965   3.083   1.716 -0.2376 -0.6368 -1.4550
  750SOL    HW2 2250   1.873   2.950   1.759 -2.4083  1.3363  2.8943
  751SOL     OW 2251   2.807   0.204   0.746 -0.2358 -0.0657 -0.2780
  751SOL    HW1 2252   2.820   0.286   0.689 -0.5534  1.9927 -3.0518
  751SOL    HW2 2253   2.751   0.227   0.830 -2.8738  0.0060 -0.1368
  752SOL     OW 2254   0.219   2.846   0.937 -0.3646  0.1115 -0.5853
  752SOL    HW1 2255   0.257   2.757   0.921 -1.1957  2.3308 -1.6622
  752SOL    HW2 2256   0.198   2.897   0.844  2.7869  0.8416 -2.6641
  753SOL     OW 2257   1.125   0.349   1.914  0.1342  0.1197  0.1992
  753SOL    HW1 2258   1.087   0.439   1.893  0.2367 -2.4096  4.8251
  753SOL    HW2 2259   1.175   0.312   1.838 -2.7957  0.1801  1.1701
  754SOL     OW 2260   1.180   2.849   1.753  0.4601  0.2858 -0.7786
  754SOL    HW1 2261   1.268   2.895   1.716  3.4335 -1.8403 -1.2723
  754SOL    HW2 2262   1.201   2.788   1.829  0.5904 -1.0075 -1.0931
  755SOL     OW 2263   2.590   0.910   0.621  0.2318 -0.4303  0.4909
  755SOL    HW1 2264   2.664   0.946   0.677 -4.7639  4.1677 -0.9893
  755SOL    HW2 2265   2.578   0.967   0.536  1.0626 -1.2446 -0.5654
  756SOL     OW 2266   1.981   2.007   2.573  0.0270 -0.6021  0.2052
  756SOL    HW1 2267   1.884   2.028   2.551  1.1374  0.2936  1.8823
  756SOL    HW2 2268   2.020   2.085   2.629  1.5897  2.2616 -0.0853
  757SOL     OW 2269   1.888   0.020   0.891 -0.0050 -0.8583  0.1358
  757SOL    HW1 2270   1.788   0.047   0.876 -0.9498 -0.3151  0.8167
  757SOL    HW2 2271   1.937   0.027   0.804  1.5337  2.1015 -0.6954
  758SOL     OW 2272   1.038   2.765   0.742  0.0301  0.5031 -0.1042
  758SOL    HW1 2273   1.000   2.725   0.825  0.3460 -0.8024 -1.2398
  758SOL    HW2 2274   1.033   2.869   0.742 -1.5495  2.1045  1.2532
  759SOL     OW 2275   2.941   0.564   1.276  0.0453  0.1597  0.1257
  759SOL    HW1 2276   2.905   0.561   1.180  0.3411  0.7997 -2.0785
  759SOL    HW2 2277   2.880   0.529   1.345  0.1149  0.1948 -1.5118
  760SOL     OW 2278   2.148   1.207   1.517  0.5562 -0.2327 -0.3785
  760SOL    HW1 2279   2.224   1.221   1.454  1.0680  0.7644 -3.7607
  760SOL    HW2 2280   2.181   1.214   1.617  1.7463  1.7815  2.5057
  761SOL     OW 2281   0.566   1.039   0.698 -0.2472  0.1680  0.1101
  761SOL    HW1 2282   0.493   1.046   0.768 -0.4737  2.7842  1.5814
  761SOL    HW2 2283   0.637   0.968   0.723  3.7216 -0.1264  1.6366
  762SOL     OW 2284   2.100   1.836   1.334 -0.8707  0.1971 -0.3667
  762SOL    HW1 2285   2.120   1.794   1.241  3.7132  0.4261 -1.4346
  762SOL    HW2 2286   1.999   1.818   1.350 -2.7115 -1.3288 -0.1774
  763SOL     OW 2287   1.068   1.642   1.884  0.2764 -0.1581 -0.1373
  763SOL    HW1 2288   1.070   1.624   1.982  1.8927  0.2661 -0.9307
  763SOL    HW2 2289   1.132   1.720   1.859  1.4715  0.7721 -0.8842
  764SOL     OW 2290   0.033   2.057   2.175  0.3477 -0.5950 -0.2597
  764SOL    HW1 2291   0.003   2.110   2.262 -2.9097  2.1865  2.9191
  764SOL    HW2 2292   0.125   2.014   2.183 -1.6811  1.1263 -1.9771
  765SOL     OW 2293   1.240   2.489   1.187 -0.0880 -0.1821 -0.4872
  765SOL    HW1 2294   1.220   2.583   1.225 -0.8263 -0.7717 -2.8990
  765SOL    HW2 2295   1.262   2.429   1.272  0.1794 -1.2529  0.4461
  766SOL     OW 2296   0.579   2.324   2.643 -0.1807  0.3950 -0.0969
  766SOL    HW1 2297   0.626   2.236   2.668 -2.0593  1.4560 -0.8307
  766SOL    HW2 2298   0.552   2.374   2.730 -3.8835  2.0312  1.7291
  767SOL     OW 2299   1.444   1.032   2.514 -0.0690 -0.5184  0.1433
  767SOL    HW1 2300   1.399   0.958   2.571  1.5871 -1.6914  1.6084
  767SOL    HW2 2301   1.452   1.012   2.415  1.6104  0.4431 -0.6440
  768SOL     OW 2302   1.383   2.527   2.965  0.0475  0.7957 -0.6323
  768SOL    HW1 2303   1.336   2.467   2.899  1.4971  1.2070  4.4598
  768SOL    HW2 2304   1.475   2.549   2.930 -2.3145  0.2737 -2.0030
  769SOL     OW 2305   3.092   2.809   1.308  0.0688 -0.3411 -0.6369
  769SOL    HW1 2306   3.079   2.855   1.214 -0.9987 -0.7851 -0.3057
  769SOL    HW2 2307   0.064   2.737   1.302 -1.5226 -1.1230  0.4525
  770SOL     OW 2308   1.033   0.442   2.792  0.5996 -0.3326 -0.4053
  770SOL    HW1 2309   0.954   0.382   2.816  0.2178 -0.8142  0.3867
  770SOL    HW2 2310   1.019   0.534   2.834 -1.3875 -0.9010  0.2982
  771SOL     OW 2311   0.564   0.113   2.504  0.1518  0.0168 -0.6982
  771SOL    HW1 2312   0.507   0.046   2.449 -0.5046 -0.5044 -0.0004
  771SOL    HW2 2313   0.554   0.212   2.474 -0.3750  2.3556 -1.8040
  772SOL     OW 2314   2.568   0.010   1.985  0.4488 -0.4786 -0.2764
  772SOL    HW1 2315   2.552   0.102   1.943  1.2422  1.1500  0.3760
  772SOL    HW2 2316   2.618   3.055   1.919 -0.2160  2.1136 -0.9577
  773SOL     OW 2317   0.812   2.283   1.886  0.0627 -0.1897 -0.8052
  773SOL    HW1 2318   0.894   2.337   1.919  0.1480  0.0050 -0.0398
  773SOL    HW2 2319   0.772   2.215   1.955 -0.8333 -0.4527 -0.6666
  774SOL     OW 2320   1.160   0.339   2.195 -0.0735  0.2240  0.1870
  774SOL    HW1 2321   1.181   0.241   2.215  0.5818 -2.0551  0.1848
  774SOL    HW2 2322   1.147   0.353   2.093  0.4869  0.3820  0.7055
  775SOL     OW 2323   2.210   2.956   2.802 -0.5829 -0.4811 -0.2416
  775SOL    HW1 2324   2.119   2.960   2.846 -3.4226 -2.2424 -1.6362
  775SOL    HW2 2325   2.218   3.024   2.726 -0.6187 -0.1505 -0.9958
  776SOL     OW 2326   1.881   0.489   2.253 -0.0311 -0.6113 -0.6247
  776SOL    HW1 2327   1.933   0.557   2.199  2.4661 -1.3374  0.9438
  776SOL    HW2 2328   1.783   0.508   2.261 -0.4762 -0.5044  1.7202
  777SOL     OW 2329   2.478   0.939   2.649 -0.3672 -0.5653  0.0932
  777SOL    HW1 2330   2.557   0.992   2.609 -1.2086 -1.0171 -0.7209
  777SOL    HW2 2331   2.420   0.895   2.580  0.4775  0.4514  1.8369
  778SOL     OW 2332   1.959   0.696   2.106  0.2541  0.3259 -0.2512
  778SOL    HW1 2333   2.061   0.717   2.102 -0.4065  1.3885  0.8111
  778SOL    HW2 2334   1.918   0.667   2.014 -1.2481 -2.4425 -0.3347
  779SOL     OW 2335   3.098   0.257   0.124 -0.0587 -0.0684 -0.6229
  779SOL    HW1 2336   0.066   0.310   0.180 -1.7206 -0.6250 -0.2370
  779SOL    HW2 2337   0.024   0.158   0.110 -0.9567 -0.5670 -1.0305
  780SOL     OW 2338   2.303   0.410   2.888  0.4912  0.8351  0.0183
  780SOL    HW1 2339   2.366   0.394   2.806 -0.6107 -0.9788 -1.5451
  780SOL    HW2 2340   2.260   0.504   2.883 -0.5096 -0.8541  1.3592
  781SOL     OW 2341   0.375   2.803   1.389 -0.1404  0.2121  0.5598
  781SOL    HW1 2342   0.388   2.851   1.297  2.3613  1.9055  0.1053
  781SOL    HW2 2343   0.311   2.727   1.389  0.7192  5.4111 -2.3183
  782SOL     OW 2344   1.766   2.458   0.315  0.1722  0.6693  0.6746
  782SOL    HW1 2345   1.748   2.439   0.415 -2.4042 -1.2742 -2.2576
  782SOL    HW2 2346   1.768   2.560   0.297 -1.0106 -0.4338  4.2342
  783SOL     OW 2347   0.776   1.498   1.555  0.4541  0.3658  0.0149
  783SOL    HW1 2348   0.679   1.482   1.530  0.0519  0.2541 -1.9313
  783SOL    HW2 2349   0.835   1.424   1.522 -0.2231  4.3268 -2.3008
  784SOL     OW 2350   1.613   0.854   2.052 -0.0862 -0.0698  0.5180
  784SOL    HW1 2351   1.711   0.888   2.034 -0.6560  1.8734  0.3221
  784SOL    HW2 2352   1.613   0.749   2.063  0.5967  2.5391 -1.4359
  785SOL     OW 2353   2.509   0.064   1.052 -0.3654  0.4348  0.3929
  785SOL    HW1 2354   2.407   0.063   1.057  0.4245 -2.4484 -0.7109
  785SOL    HW2 2355   2.543   0.014   0.971  0.6164 -2.2550 -0.7469
  786SOL     OW 2356   1.647   2.915   1.222  0.1395  0.4877 -0.3748
  786SOL    HW1 2357   1.747   2.919   1.238 -1.3616  0.3552  0.2110
  786SOL    HW2 2358   1.627   2.833   1.161 -2.8961 -2.6840  0.5573
  787SOL     OW 2359   1.386   0.145   1.375  0.1127  0.2002 -0.3282
  787SOL    HW1 2360   1.304   0.123   1.429 -0.4984 -1.6693 -2.3936
  787SOL    HW2 2361   1.403   0.064   1.311 -1.1883 -2.3599  2.7019
  788SOL     OW 2362   2.986   1.047   0.166  0.6380  0.0674 -0.0471
  788SOL    HW1 2363   2.895   1.019   0.125 -0.2111  1.0575 -1.1617
  788SOL    HW2 2364   3.003   0.994   0.253  1.7288  2.8429 -1.3439
  789SOL     OW 2365   0.561   1.164   1.993  0.2858  0.1458 -0.0814
  789SOL    HW1 2366   0.554   1.212   2.084  0.2577 -0.2644  5.5697
  789SOL    HW2 2367   0.557   1.229   1.915 -1.6753 -0.1224  1.0345
  790SOL     OW 2368   0.341   0.570   2.605 -0.4414 -0.2834  0.2471
  790SOL    HW1 2369   0.392   0.637   2.664 -1.3529  0.7853  1.1625
  790SOL    HW2 2370   0.268   0.539   2.668 -1.2762 -2.2480  0.3314
  791SOL     OW 2371   2.227   0.610   0.520  0.1980  0.1513 -0.2344
  791SOL    HW1 2372   2.164   0.689   0.502 -1.3795 -0.1230  0.4154
  791SOL    HW2 2373   2.170   0.533   0.557  0.6356 -1.3139  0.8320
  792SOL     OW 2374   1.098   2.977   1.315  0.7392  0.3587 -0.2233
  792SOL    HW1 2375   0.996   2.970   1.313 -3.6700  0.4534 -0.8763
  792SOL    HW2 2376   1.129   3.055   1.370  0.4374 -0.2902  0.7107
  793SOL     OW 2377   0.356   2.939   1.136 -0.6523  0.0590 -0.2284
  793SOL    HW1 2378   0.298   2.901   1.062  2.2598  1.2905  2.0248
  793SOL    HW2 2379   0.307   3.008   1.190 -0.4226  1.2710 -0.5619
  794SOL     OW 2380   0.261   0.647   2.355 -0.4421  0.0077  0.5857
  794SOL    HW1 2381   0.276   0.598   2.445 -0.0565 -0.9609  0.7471
  794SOL    HW2 2382   0.351   0.655   2.307 -1.0694  4.0895 -2.6163
  795SOL     OW 2383   0.509   2.477   2.848  0.0510  0.3737  0.0356
  795SOL    HW1 2384   0.600   2.484   2.887 -0.3671  1.1527 -2.3415
  795SOL    HW2 2385   0.494   2.550   2.782  1.2881 -2.0191  0.3480
  796SOL     OW 2386   2.275   0.512   2.493 -0.0847  0.4005  0.4889
  796SOL    HW1 2387   2.239   0.606   2.485  1.4244  0.4674 -1.8983
  796SOL    HW2 2388   2.211   0.459   2.555  1.8232 -1.6012  0.7729
  797SOL     OW 2389   2.702   2.561   2.700  0.1429  0.1230 -0.2181
  797SOL    HW1 2390   2.758   2.594   2.780 -0.7763  0.3411 -0.6522
  797SOL    HW2 2391   2.611   2.601   2.703 -0.0442  0.2055 -0.4586
  798SOL     OW 2392   0.348   0.383   1.626 -0.1110  0.0367 -0.1969
  798SOL    HW1 2393   0.422   0.348   1.688 -1.0852 -3.9841  2.9278
  798SOL    HW2 2394   0.344   0.330   1.538 -0.5564  1.0743  0.4831
  799SOL     OW 2395   0.659   2.828   1.953  0.3280 -0.3407  0.6206
  799SOL    HW1 2396   0.644   2.891   2.027  0.3192  0.0858 -0.7275
  799SOL    HW2 2397   0.584   2.822   1.884  2.3192  1.4363  0.5608
  800SOL     OW 2398   0.072   2.477   0.367  0.0922 -0.3747  0.2327
  800SOL    HW1 2399   0.054   2.504   0.275  0.6643  1.2243  2.1189
  800SOL    HW2 2400   0.169   2.473   0.384 -2.9361  0.5249  2.3083
  801SOL     OW 2401   1.783   1.722   0.864  0.1151  0.1688 -0.1814
  801SOL    HW1 2402   1.738   1.761   0.780  1.1728  0.3033 -0.2677
  801SOL    HW2 2403   1.750   1.768   0.948 -1.3506  0.1814 -0.7192
  802SOL     OW 2404   0.548   0.482   0.584 -0.3091  0.3726  0.3740
  802SOL    HW1 2405   0.536   0.483   0.687  0.0253 -3.0563 -0.4456
  802SOL    HW2 2406   0.532   0.572   0.542 -0.0989  0.1385 -0.9016
  803SOL     OW 2407   1.139   1.251   1.936 -0.0588  0.0960 -0.0573
  803SOL    HW1 2408   1.041   1.261   1.964 -0.8124 -2.1307 -0.9454
  803SOL    HW2 2409   1.158   1.252   1.834  0.9016 -2.2690 -1.4281
  804SOL     OW 2410   1.711   2.065   0.840  0.5638 -0.3346  0.3937
  804SOL    HW1 2411   1.722   2.051   0.941 -0.5961 -1.1860  2.5280
  804SOL    HW2 2412   1.696   1.974   0.798  0.2422 -2.0584  1.9075
  805SOL     OW 2413   0.227   2.113   2.761 -0.1910 -0.4046 -0.1695
  805SOL    HW1 2414   0.178   2.196   2.799 -0.2317  0.5743  1.2191
  805SOL    HW2 2415   0.238   2.117   2.658  4.3950 -2.4242 -1.2447
  806SOL     OW 2416   0.511   2.347   0.515 -0.1492 -0.5337  0.3318
  806SOL    HW1 2417   0.583   2.372   0.580  2.8654  0.0021 -0.8117
  806SOL    HW2 2418   0.553   2.298   0.429  2.5260 -2.5394  0.5090
  807SOL     OW 2419   2.379   1.363   2.778  0.3959 -0.1737  0.1025
  807SOL    HW1 2420   2.426   1.456   2.790  1.0408  1.5468 -0.2573
  807SOL    HW2 2421   2.323   1.338   2.859  0.3092 -0.4714  1.6597
  808SOL     OW 2422   1.286   2.318   0.995 -0.1185  0.2394 -0.2261
  808SOL    HW1 2423   1.263   2.225   1.025 -0.5435 -1.5989 -0.8391
  808SOL    HW2 2424   1.259   2.385   1.065  2.3638  1.0882 -0.9150
  809SOL     OW 2425   0.142   0.521   0.497  0.1944  0.1293  0.3085
  809SOL    HW1 2426   0.165   0.618   0.505 -0.3501 -0.4151 -0.7927
  809SOL    HW2 2427   0.112   0.478   0.585 -2.6108 -2.4025 -1.2069
  810SOL     OW 2428   1.380   1.513   3.090  0.6856  0.1667  0.1115
  810SOL    HW1 2429   1.354   1.595   3.028 -1.3448  1.7845 -1.2434
  810SOL    HW2 2430   1.402   1.547   0.082  0.4403 -0.8874  1.5156
  811SOL     OW 2431   1.570   2.518   1.314 -0.1067 -1.0204  0.4362
  811SOL    HW1 2432   1.557   2.577   1.224 -0.4920 -0.6663 -3.2966
  811SOL    HW2 2433   1.574   2.576   1.397  1.1141 -1.3091  0.5085
  812SOL     OW 2434   1.224   2.910   1.047  0.7056  0.1783  0.0782
  812SOL    HW1 2435   1.248   2.813   1.028  0.6332 -0.2894  0.6424
  812SOL    HW2 2436   1.165   2.949   0.973  1.1809 -0.6196  1.4659
  813SOL     OW 2437   0.921   0.122   1.915 -0.1226  0.3675  0.6270
  813SOL    HW1 2438   0.968   0.202   1.957 -0.4497 -0.1886  1.0652
  813SOL    HW2 2439   0.844   0.151   1.855 -1.2671 -2.1139  1.6690
  814SOL     OW 2440   1.010   2.423   2.060  0.2244 -0.2849 -0.2214
  814SOL    HW1 2441   0.939   2.450   2.128  1.2742 -0.1332  1.6845
  814SOL    HW2 2442   1.095   2.478   2.078  0.0213 -3.1699 -2.9125
  815SOL     OW 2443   0.482   0.129   2.764 -0.0849 -0.0820  0.1596
  815SOL    HW1 2444   0.566   0.177   2.805  1.3009 -0.2398  1.4174
  815SOL    HW2 2445   0.508   0.103   2.666  0.0936  0.6593 -0.5289
  816SOL     OW 2446   2.208   1.171   0.140 -0.1282  0.3430 -0.0293
  816SOL    HW1 2447   2.239   1.245   0.078  0.4042  0.0330 -1.5189
  816SOL    HW2 2448   2.262   1.086   0.119 -0.3388  1.7154  0.4404
  817SOL     OW 2449   2.793   2.461   2.309 -0.0438  0.2710  0.4102
  817SOL    HW1 2450   2.744   2.543   2.271  0.6784  2.4949  2.1309
  817SOL    HW2 2451   2.887   2.473   2.283 -5.2967 -3.0149  1.9804
  818SOL     OW 2452   0.868   1.206   0.469 -0.5090 -0.3981  0.0129
  818SOL    HW1 2453   0.766   1.208   0.463  2.4495  0.3979  0.6977
  818SOL    HW2 2454   0.909   1.153   0.392 -2.0047  1.5059  3.8704
  819SOL     OW 2455   1.814   1.205   2.476 -0.6983  0.4563  0.3800
  819SOL    HW1 2456   1.806   1.140   2.402  1.0685  2.0151  1.9874
  819SOL    HW2 2457   1.765   1.158   2.552 -1.4058 -0.8326 -1.6116
  820SOL     OW 2458   0.380   1.257   0.072  0.7157  0.2658  0.2304
  820SOL    HW1 2459   0.390   1.269   0.172  4.3273 -0.7510 -0.3336
  820SOL    HW2 2460   0.286   1.221   0.049 -3.8954 -1.2742  0.5480
  821SOL     OW 2461   0.493   3.029   0.823 -0.1190 -0.2257  0.2593
  821SOL    HW1 2462   0.589   2.992   0.834 -0.5767 -1.4910  2.2162
  821SOL    HW2 2463   0.428   2.978   0.882  1.3889  1.5811 -1.4788
  822SOL     OW 2464   2.275   2.393   2.778  0.4179  0.8200  0.4577
  822SOL    HW1 2465   2.360   2.349   2.811  0.5077 -1.8526 -0.8341
  822SOL    HW2 2466   2.253   2.466   2.844 -0.0729 -2.4471 -2.0552
  823SOL     OW 2467   1.224   0.546   2.634 -0.1143 -0.0267  0.0341
  823SOL    HW1 2468   1.303   0.480   2.645  0.7438 -0.2134 -0.5633
  823SOL    HW2 2469   1.142   0.517   2.689 -0.3492 -0.0722  2.2895
  824SOL     OW 2470   2.501   2.644   1.518  0.3422  0.0438 -0.4684
  824SOL    HW1 2471   2.570   2.655   1.594 -0.3290  0.1309 -1.6145
  824SOL    HW2 2472   2.530   2.695   1.435 -1.0885  1.8835 -3.5135
  825SOL     OW 2473   0.200   2.167   2.458 -0.1046 -0.2153 -0.2691
  825SOL    HW1 2474   0.117   2.152   2.397 -2.3778  0.3720 -0.9373
  825SOL    HW2 2475   0.285   2.191   2.402 -2.4028  0.0379  0.8338
  826SOL     OW 2476   1.727   0.555   0.049 -0.0430 -0.1521  0.0691
  826SOL    HW1 2477   1.789   0.523   0.122  0.2131 -0.4961  0.5979
  826SOL    HW2 2478   1.780   0.553   3.064  1.4286 -0.7372 -1.4773
  827SOL     OW 2479   0.074   1.742   1.825 -0.3728 -0.1358 -0.4547
  827SOL    HW1 2480   0.074   1.642   1.815  1.6000  1.2727 -4.0302
  827SOL    HW2 2481   0.056   1.770   1.730  1.7146 -0.8767  0.2293
  828SOL     OW 2482   0.223   0.002   1.299 -0.1982  0.2081  0.4221
  828SOL    HW1 2483   0.251   0.090   1.346 -1.2140 -0.4737 -1.7448
  828SOL    HW2 2484   0.159   3.047   1.354 -0.0836 -0.8771 -0.9780
  829SOL     OW 2485   0.837   2.222   2.420  0.2998  0.1709 -0.1241
  829SOL    HW1 2486   0.862   2.172   2.505 -1.9142  0.1593  0.7974
  829SOL    HW2 2487   0.805   2.320   2.443  0.5342  4.7672  3.6225
  830SOL     OW 2488   0.629   0.818   1.549  0.0635 -0.3253  0.3335
  830SOL    HW1 2489   0.666   0.775   1.465 -2.2313  0.9271  1.1062
  830SOL    HW2 2490   0.561   0.756   1.596 -1.2171 -1.2788  1.4389
  831SOL     OW 2491   2.558   1.866   3.013 -0.9711  0.1328 -0.2936
  831SOL    HW1 2492   2.509   1.824   2.934 -1.0480 -1.3080 -0.4707
  831SOL    HW2 2493   2.626   1.812   3.062 -2.2770 -0.7466  1.4943
  832SOL     OW 2494   1.523   2.312   3.046  0.1112 -0.0133 -0.1048
  832SOL    HW1 2495   1.473   2.398   3.027 -0.8828  0.7001 -1.4183
  832SOL    HW2 2496   1.587   2.287   2.974 -0.2586  1.1714 -1.0801
  833SOL     OW 2497   0.468   0.326   1.863 -0.1770 -0.1274 -0.8365
  833SOL    HW1 2498   0.547   0.360   1.916 -1.0400 -1.5949 -1.7985
  833SOL    HW2 2499   0.387   0.317   1.925 -2.1692 -0.6495 -1.0741
  834SOL     OW 2500   0.139   0.780   1.222 -0.1841  0.1342  0.0700
  834SOL    HW1 2501   0.127   0.692   1.279  0.4459  0.3139  0.2974
  834SOL    HW2 2502   0.205   0.838   1.277  1.6513 -0.7801 -0.7921
  835SOL     OW 2503   2.413   0.344   0.280 -0.0762 -0.3551 -0.0310
  835SOL    HW1 2504   2.407   0.347   0.176  0.5574 -0.9659 -3.1998
  835SOL    HW2 2505   2.401   0.439   0.323  1.3973  1.4766 -2.5589
  836SOL     OW 2506   0.842   2.206   0.476  0.7323 -0.5543 -0.4339
  836SOL    HW1 2507   0.825   2.134   0.547  0.6629 -3.2767  2.9411
  836SOL    HW2 2508   0.939   2.229   0.474 -3.2498 -0.0238 -4.1487
  837SOL     OW 2509   1.731   1.716   0.392  0.0680 -0.5430 -0.1500
  837SOL    HW1 2510   1.723   1.733   0.292  0.9947  0.6587  0.7578
  837SOL    HW2 2511   1.649   1.671   0.434 -2.2493 -1.5666 -0.7247
  838SOL     OW 2512   1.831   0.847   2.306  0.1291  0.1991 -0.5045
  838SOL    HW1 2513   1.877   0.796   2.229 -0.2138 -2.1193 -2.3079
  838SOL    HW2 2514   1.804   0.938   2.274 -0.8253  1.8166  2.6464
  839SOL     OW 2515   0.992   1.485   2.503  0.7140  0.5046  0.0809
  839SOL    HW1 2516   1.019   1.397   2.454  1.0434 -0.3179 -0.4932
  839SOL    HW2 2517   1.070   1.550   2.493 -1.4053  0.7407 -0.2617
  840SOL     OW 2518   0.812   1.318   0.083  0.2159 -0.1528 -0.1386
  840SOL    HW1 2519   0.780   1.224   0.104 -0.9153 -2.1522 -2.9616
  840SOL    HW2 2520   0.787   1.345   3.091  1.8734 -1.3130 -1.2640
  841SOL     OW 2521   1.403   2.175   0.138 -0.2789 -0.6997  0.0168
  841SOL    HW1 2522   1.433   2.228   0.216  0.1744  0.1441 -1.0655
  841SOL    HW2 2523   1.451   2.210   0.056  1.3310  0.1656 -0.3917
  842SOL     OW 2524   0.192   0.399   0.244  0.4377  0.7121  0.3294
  842SOL    HW1 2525   0.214   0.473   0.183 -0.8986 -2.5647 -0.3347
  842SOL    HW2 2526   0.166   0.435   0.334 -0.3875  0.6388 -1.9386
  843SOL     OW 2527   0.708   0.467   1.039  0.0229  0.1449 -0.1182
  843SOL    HW1 2528   0.801   0.430   1.028  0.3396 -2.6099 -0.7959
  843SOL    HW2 2529   0.645   0.389   1.060 -0.9290  0.3589  2.7860
  844SOL     OW 2530   2.227   2.477   2.272  0.3883  0.0636  0.2813
  844SOL    HW1 2531   2.241   2.412   2.347  3.5790 -0.9908  0.4343
  844SOL    HW2 2532   2.140   2.459   2.223  0.8858 -0.6524  0.4843
  845SOL     OW 2533   2.949   2.489   1.695  0.3121  0.3294  0.0619
  845SOL    HW1 2534   2.990   2.580   1.682 -0.7470 -3.3904 -2.1375
  845SOL    HW2 2535   2.900   2.455   1.612 -0.9801  0.6894 -2.1613
  846SOL     OW 2536   2.076   1.378   2.379  0.1641  0.4804  0.1988
  846SOL    HW1 2537   2.015   1.350   2.455  1.3026  1.2028 -1.1178
  846SOL    HW2 2538   2.046   1.340   2.288  2.1695  0.4503 -0.0796
  847SOL     OW 2539   3.009   0.498   1.962 -0.6381 -0.7450  0.3528
  847SOL    HW1 2540   3.003   0.544   1.871  0.7435 -0.0016  1.7315
  847SOL    HW2 2541   3.078   0.543   2.024  2.3059  0.0751  1.7408
  848SOL     OW 2542   2.520   2.736   2.910 -0.5069  0.4446  0.2792
  848SOL    HW1 2543   2.620   2.712   2.902 -0.5382  0.1956  2.2129
  848SOL    HW2 2544   2.467   2.697   2.830  0.0957  0.4564 -0.9145
  849SOL     OW 2545   0.336   2.922   0.604 -0.6582 -0.0117 -0.0910
  849SOL    HW1 2546   0.399   2.973   0.665  1.3141  0.4725 -0.5457
  849SOL    HW2 2547   0.241   2.923   0.645  1.5124  0.5365 -0.5682
  850SOL     OW 2548   0.855   2.392   0.261 -0.2881  0.3733 -0.4775
  850SOL    HW1 2549   0.944   2.376   0.214 -2.7847 -1.7248  0.0544
  850SOL    HW2 2550   0.851   2.344   0.353 -2.8615  0.3609  2.6170
  851SOL     OW 2551   1.794   0.658   2.624  0.5231  0.1494  0.0989
  851SOL    HW1 2552   1.726   0.691   2.558  0.7085 -0.2471  0.3542
  851SOL    HW2 2553   1.855   0.595   2.576 -0.5939 -0.7539  2.4021
  852SOL     OW 2554   1.753   2.570   2.665  0.2564  0.7208  0.0697
  852SOL    HW1 2555   1.796   2.478   2.647  2.5871  1.1488 -1.6326
  852SOL    HW2 2556   1.816   2.645   2.635 -3.4208  1.8780  1.3308
  853SOL     OW 2557   0.012   2.555   0.113 -0.0179 -0.2815  0.3036
  853SOL    HW1 2558   0.067   2.537   0.028  0.6434 -1.4795 -5.0066
  853SOL    HW2 2559   3.016   2.546   0.089  0.1627  0.3359  2.6743
  854SOL     OW 2560   1.520   0.489   2.347  0.2752 -0.2896  0.2499
  854SOL    HW1 2561   1.417   0.512   2.335 -2.0795  0.2523  0.4084
  854SOL    HW2 2562   1.565   0.540   2.420 -1.5840 -0.1835 -2.2511
  855SOL     OW 2563   0.468   2.736   0.477 -0.2433  0.5629 -0.2446
  855SOL    HW1 2564   0.418   2.665   0.425 -0.8033 -0.6694  1.0416
  855SOL    HW2 2565   0.395   2.797   0.518 -0.9147  1.8517 -1.9088
  856SOL     OW 2566   0.255   2.777   2.675  0.0590  0.0468  0.5132
  856SOL    HW1 2567   0.356   2.770   2.662 -3.0773 -0.1182  1.4405
  856SOL    HW2 2568   0.209   2.702   2.622  2.6679 -0.1247 -1.2156
  857SOL     OW 2569   1.377   2.975   1.628  0.1186  0.2874  0.4595
  857SOL    HW1 2570   1.340   3.049   1.571  2.3950 -1.0568  0.2139
  857SOL    HW2 2571   1.407   2.898   1.569  0.0114  1.6821 -1.1372
  858SOL     OW 2572   3.090   1.741   1.545  0.2836 -0.0874 -0.2741
  858SOL    HW1 2573   3.096   1.831   1.496 -1.1490 -0.6128 -1.1306
  858SOL    HW2 2574   2.988   1.713   1.557 -1.4638 -0.9348 -0.4292
  859SOL     OW 2575   2.004   2.364   2.119 -0.1943 -0.7796 -0.2245
  859SOL    HW1 2576   1.925   2.343   2.058  0.3965 -1.0761  1.8743
  859SOL    HW2 2577   2.054   2.277   2.130 -3.0448  1.7393 -0.6649
  860SOL     OW 2578   1.476   0.272   0.438 -0.5032  0.3328  0.5350
  860SOL    HW1 2579   1.522   0.276   0.530  2.0152  0.6943  1.6006
  860SOL    HW2 2580   1.451   0.366   0.414  1.2980 -1.1334  0.1079
  861SOL     OW 2581   2.772   0.447   1.063 -0.3232 -0.0213  0.2034
  861SOL    HW1 2582   2.701   0.397   1.009 -0.9083 -0.5110  2.4699
  861SOL    HW2 2583   2.851   0.381   1.074  0.6024  1.2011 -1.5149
  862SOL     OW 2584   1.619   0.598   2.118 -0.4345  0.3118  0.2756
  862SOL    HW1 2585   1.580   0.540   2.194  0.0558  1.4855  0.2147
  862SOL    HW2 2586   1.608   0.565   2.024  0.6587  0.4046 -2.6134
  863SOL     OW 2587   0.659   0.735   0.990  0.1075 -0.2507 -0.1254
  863SOL    HW1 2588   0.700   0.646   1.010  2.9787  1.5639  4.0583
  863SOL    HW2 2589   0.588   0.771   1.055  1.5654  1.3754  0.9779
  864SOL     OW 2590   0.225   2.985   2.140  0.1727  0.3267  0.1226
  864SOL    HW1 2591   0.134   2.962   2.182 -2.6920  1.2444 -0.4811
  864SOL    HW2 2592   0.208   3.039   2.055 -0.8557 -1.3026 -3.1844
  865SOL     OW 2593   1.016   1.189   2.453 -0.2578 -0.1122  0.1524
  865SOL    HW1 2594   1.005   1.108   2.386 -1.8847 -2.1053 -4.3696
  865SOL    HW2 2595   0.932   1.201   2.507 -1.3221  3.5784 -2.5015
  866SOL     OW 2596   2.959   2.955   0.258  0.6655  0.1905  0.2855
  866SOL    HW1 2597   2.974   3.044   0.306  0.9231 -0.6443 -0.9451
  866SOL    HW2 2598   3.043   2.926   0.207  3.0506 -4.3486 -1.6021
  867SOL     OW 2599   2.788   2.696   2.949 -0.7479  0.5300 -0.1287
  867SOL    HW1 2600   2.827   2.616   2.994 -1.5830  4.7720 -2.0379
  867SOL    HW2 2601   2.816   2.779   3.002 -0.2823 -1.0724 -0.0787
  868SOL     OW 2602   1.585   1.183   2.954  0.4439 -0.0114  0.0359
  868SOL    HW1 2603   1.657   1.260   2.948 -1.0212  1.6129  1.1101
  868SOL    HW2 2604   1.488   1.220   2.973 -0.2498 -2.3036 -0.6367
  869SOL     OW 2605   3.034   2.004   0.668  0.1519  0.1376  0.2987
  869SOL    HW1 2606   2.956   1.962   0.619 -0.9064 -1.1458  0.1450
  869SOL    HW2 2607   3.003   2.092   0.704 -1.9119 -0.7654  0.9202
  870SOL     OW 2608   2.143   2.088   0.602  0.0265  0.3700  0.0481
  870SOL    HW1 2609   2.159   1.988   0.626 -3.0946 -0.7334 -1.3974
  870SOL    HW2 2610   2.108   2.105   0.506 -0.8823 -1.5309 -1.2339
  871SOL     OW 2611   0.463   1.240   1.126  0.0118 -0.3993  0.0445
  871SOL    HW1 2612   0.473   1.199   1.030 -0.2505 -0.7075 -3.1659
  871SOL    HW2 2613   0.524   1.322   1.136  1.6864 -2.2072 -1.4098
  872SOL     OW 2614   1.293   1.822   1.841 -0.2146  0.5422  0.2346
  872SOL    HW1 2615   1.264   1.917   1.833  2.2062  0.4661 -0.4950
  872SOL    HW2 2616   1.370   1.805   1.776 -1.4976  0.9129  1.1292
  873SOL     OW 2617   0.657   2.207   2.126 -0.0043  0.0213 -0.6835
  873SOL    HW1 2618   0.700   2.186   2.216  0.0185  2.0846 -1.5959
  873SOL    HW2 2619   0.609   2.299   2.133 -2.0151  3.2964  0.1136
  874SOL     OW 2620   0.949   2.883   1.099 -0.7521 -0.4233 -0.2906
  874SOL    HW1 2621   0.907   2.813   1.162 -1.2339 -0.2317  0.8077
  874SOL    HW2 2622   1.047   2.903   1.120  0.9561  1.1188 -0.4286
  875SOL     OW 2623   3.026   0.307   1.086  0.1577 -0.4425  0.3690
  875SOL    HW1 2624   3.065   0.214   1.065 -0.1910  0.9853 -0.8502
  875SOL    HW2 2625   3.090   0.380   1.060 -1.4069 -3.1313  1.7266
  876SOL     OW 2626   0.516   0.798   0.147  0.2330  0.4169 -0.1141
  876SOL    HW1 2627   0.499   0.875   0.212  0.5039 -0.2197 -0.7954
  876SOL    HW2 2628   0.606   0.761   0.146 -1.0899  0.7757  0.6652
  877SOL     OW 2629   0.118   0.567   1.385  0.2914 -0.5764  0.2898
  877SOL    HW1 2630   0.044   0.501   1.369 -0.4674 -1.0429  0.4918
  877SOL    HW2 2631   0.141   0.578   1.484  4.3867  2.8149  2.5941
  878SOL     OW 2632   2.465   2.409   0.547  0.5677  0.4380  0.3668
  878SOL    HW1 2633   2.421   2.349   0.620 -2.1602  0.0838 -1.5151
  878SOL    HW2 2634   2.416   2.498   0.533 -0.8915 -1.5928 -0.7882
  879SOL     OW 2635   2.440   1.359   1.153  0.4225  0.0347 -0.3660
  879SOL    HW1 2636   2.535   1.360   1.176 -0.5421 -0.9215  0.8635
  879SOL    HW2 2637   2.399   1.449   1.166 -2.1291  1.4651  0.3341
  880SOL     OW 2638   1.600   2.695   1.068  0.1970 -0.2939  0.3159
  880SOL    HW1 2639   1.661   2.668   0.994 -3.0551  1.1505 -0.4752
  880SOL    HW2 2640   1.502   2.684   1.044 -1.5506 -1.3852 -1.5479
  881SOL     OW 2641   1.077   2.265   3.045  0.3833 -0.5136  0.0932
  881SOL    HW1 2642   1.057   2.359   3.068 -0.6845  1.3065 -0.4066
  881SOL    HW2 2643   1.125   2.208   0.011 -0.3998  0.6828 -0.5768
  882SOL     OW 2644   1.711   0.617   1.293 -0.1892 -0.5913  0.3887
  882SOL    HW1 2645   1.769   0.563   1.231 -0.8056  1.0097  1.2512
  882SOL    HW2 2646   1.727   0.585   1.385 -1.9260  1.9231  0.6040
  883SOL     OW 2647   1.470   0.634   1.725  0.0359 -0.0262 -0.4017
  883SOL    HW1 2648   1.481   0.659   1.628 -1.1224  0.3800  0.9150
  883SOL    HW2 2649   1.547   0.581   1.768 -1.3140 -1.5524  1.6350
  884SOL     OW 2650   2.706   0.464   0.117 -0.6319 -0.3148  0.5216
  884SOL    HW1 2651   2.618   0.427   0.074  0.1180  3.7359  0.8803
  884SOL    HW2 2652   2.705   0.559   0.150  0.3621 -0.9258 -1.9992
  885SOL     OW 2653   1.306   1.731   2.942 -0.3960 -0.2316  0.3966
  885SOL    HW1 2654   1.206   1.752   2.949  2.1506 -1.6311  1.2632
  885SOL    HW2 2655   1.356   1.764   2.858  0.1995  0.2553 -0.8687
  886SOL     OW 2656   1.694   1.442   2.466 -0.1689  0.0767 -0.2198
  886SOL    HW1 2657   1.721   1.478   2.557 -0.1440 -2.9646  0.6476
  886SOL    HW2 2658   1.737   1.352   2.453 -1.7016 -0.3700 -1.9775
  887SOL     OW 2659   1.582   0.324   1.526 -0.5032 -0.2760  0.4292
  887SOL    HW1 2660   1.547   0.295   1.431  1.7402 -0.4995 -0.3718
  887SOL    HW2 2661   1.569   0.250   1.592 -0.1530 -0.4249 -1.0615
  888SOL     OW 2662   2.456   0.697   1.885  0.8824  0.0316 -0.0759
  888SOL    HW1 2663   2.504   0.762   1.949  0.6700  0.1954 -0.3546
  888SOL    HW2 2664   2.421   0.755   1.807 -0.8526  1.6619 -1.2117
  889SOL     OW 2665   0.150   2.522   1.083  0.3693 -0.0677  0.3099
  889SOL    HW1 2666   0.068   2.541   1.025 -1.0419  1.3959 -2.6636
  889SOL    HW2 2667   0.235   2.549   1.032  2.1550  2.2930  1.7855
  890SOL     OW 2668   2.335   2.335   0.305 -0.1614 -0.1225  0.0060
  890SOL    HW1 2669   2.301   2.425   0.270  1.0650  1.0213  0.3150
  890SOL    HW2 2670   2.383   2.354   0.392  0.0427  3.4256  1.6712
  891SOL     OW 2671   0.706   1.314   2.925  0.3559  0.2719  0.2597
  891SOL    HW1 2672   0.778   1.347   2.863 -1.8190  1.7455  2.8183
  891SOL    HW2 2673   0.638   1.251   2.873 -2.5426 -3.1350 -2.9301
  892SOL     OW 2674   0.063   0.080   1.065  0.1826  0.4795  0.5283
  892SOL    HW1 2675   0.104   0.064   1.156  2.7360 -1.3241  0.7839
  892SOL    HW2 2676   0.019   3.096   1.034 -2.6778  0.6480  0.2122
  893SOL     OW 2677   1.138   0.082   1.481 -0.0398 -0.7554  0.3024
  893SOL    HW1 2678   1.098   0.039   1.563  0.2011  0.9762  0.0645
  893SOL    HW2 2679   1.068   0.137   1.427 -1.0002 -2.1058 -0.7825
  894SOL     OW 2680   2.411   0.464   0.817 -0.8497  0.1368  0.0185
  894SOL    HW1 2681   2.324   0.480   0.873  0.3717 -1.4991  0.1891
  894SOL    HW2 2682   2.434   0.545   0.759 -0.0683 -1.7327 -0.2408
  895SOL     OW 2683   2.145   2.095   2.117 -0.1796 -0.8605  0.2162
  895SOL    HW1 2684   2.136   2.115   2.217  1.4366  0.7345 -0.6953
  895SOL    HW2 2685   2.236   2.066   2.081  2.1010  0.0307  0.7783
  896SOL     OW 2686   1.414   0.187   1.933  0.0377  0.2733 -0.3863
  896SOL    HW1 2687   1.389   0.271   1.882 -0.6669  1.4003 -0.6481
  896SOL    HW2 2688   1.493   0.142   1.886 -1.3294 -0.5992 -0.3024
  897SOL     OW 2689   0.404   1.638   1.919  0.5728 -0.1175  0.1295
  897SOL    HW1 2690   0.315   1.632   1.966  0.8734  0.5124 -1.0718
  897SOL    HW2 2691   0.482   1.633   1.979 -0.6394 -2.4234  1.4125
  898SOL     OW 2692   2.208   2.700   2.034  0.6231  0.4105 -0.2957
  898SOL    HW1 2693   2.217   2.780   1.974  0.7531  0.4498  0.7302
  898SOL    HW2 2694   2.299   2.663   2.056  1.5521  0.3247 -0.4477
  899SOL     OW 2695   0.936   0.888   1.307 -0.1364  0.2775  0.4118
  899SOL    HW1 2696   0.918   0.968   1.364 -3.5278  0.2100 -0.2296
  899SOL    HW2 2697   0.933   0.914   1.210  0.7163 -2.9917  1.1961
  900SOL     OW 2698   1.786   2.281   2.859  0.8167 -0.3689 -0.3137
  900SOL    HW1 2699   1.814   2.191   2.905  0.8088  1.1113  0.2968
  900SOL    HW2 2700   1.776   2.279   2.760  0.5461 -0.1879  1.6486
  901SOL     OW 2701   0.899   2.068   2.633 -0.2003 -0.7878 -0.1551
  901SOL    HW1 2702   0.856   2.120   2.711  0.8146  0.8864  0.2390
  901SOL    HW2 2703   0.837   1.989   2.608 -1.2696  0.1389  0.1440
  902SOL     OW 2704   2.246   1.560   0.148  0.5414  0.5071 -0.7503
  902SOL    HW1 2705   2.330   1.521   0.194  0.3604 -3.1966  0.0139
  902SOL    HW2 2706   2.210   1.640   0.198  1.5901 -2.5439 -1.7207
  903SOL     OW 2707   2.041   0.796   0.458 -0.0554  0.3257  0.4774
  903SOL    HW1 2708   2.040   0.896   0.465  0.3820  0.0946  0.8913
  903SOL    HW2 2709   2.010   0.774   0.362 -0.5605  1.3798 -1.7636
  904SOL     OW 2710   0.417   0.875   2.980 -0.6036 -0.0643 -0.1248
  904SOL    HW1 2711   0.445   0.849   3.073 -2.1069  1.2251 -2.9779
  904SOL    HW2 2712   0.333   0.932   2.984 -1.0247  0.9790  1.5292
  905SOL     OW 2713   2.281   0.027   1.171  0.0358 -0.0282  0.3116
  905SOL    HW1 2714   2.319   3.089   1.257  1.3195  0.5401  0.8929
  905SOL    HW2 2715   2.255   0.124   1.182 -1.5300  0.3148 -1.3828
  906SOL     OW 2716   2.572   2.272   1.118 -0.1446  0.2587 -0.6905
  906SOL    HW1 2717   2.495   2.221   1.160 -0.4205  1.2114 -0.3990
  906SOL    HW2 2718   2.533   2.348   1.069 -1.3777 -0.3495  0.7470
  907SOL     OW 2719   1.227   0.723   0.348 -0.8017 -0.3272 -0.1796
  907SOL    HW1 2720   1.190   0.628   0.366  2.2498 -0.5681 -2.5338
  907SOL    HW2 2721   1.210   0.784   0.430 -2.0697  0.2685  2.1406
  908SOL     OW 2722   2.266   2.864   1.569  0.3492 -0.6331  0.2323
  908SOL    HW1 2723   2.313   2.780   1.572 -0.9421  1.2282 -2.4550
  908SOL    HW2 2724   2.237   2.882   1.472 -0.2847  1.5499  0.3071
  909SOL     OW 2725   2.757   0.871   1.588 -0.3959 -0.0920 -0.3743
  909SOL    HW1 2726   2.828   0.856   1.513 -2.2697 -0.3070 -2.1565
  909SOL    HW2 2727   2.689   0.942   1.573 -1.5403 -1.3339 -0.7085
  910SOL     OW 2728   1.595   2.793   2.286 -0.2650  0.4150 -0.2169
  910SOL    HW1 2729   1.546   2.713   2.251 -0.2524  0.3130  2.8582
  910SOL    HW2 2730   1.560   2.878   2.242 -1.7426 -0.2242  2.1049
  911SOL     OW 2731   2.082   0.318   2.162  0.4450  0.0505 -0.1794
  911SOL    HW1 2732   2.011   0.367   2.218 -1.3738 -1.7191 -0.7586
  911SOL    HW2 2733   2.180   0.344   2.183  1.3839 -2.0899 -1.8671
  912SOL     OW 2734   2.813   1.353   1.480 -0.2716  0.2259  0.3976
  912SOL    HW1 2735   2.909   1.330   1.491  0.9337  0.3470 -0.6334
  912SOL    HW2 2736   2.804   1.417   1.403 -1.4039 -1.3891  0.9755
  913SOL     OW 2737   2.696   1.902   1.116 -0.6680 -0.4031  0.1726
  913SOL    HW1 2738   2.699   1.929   1.214 -0.0114  1.2064 -0.5921
  913SOL    HW2 2739   2.758   1.958   1.059  1.4863 -0.3714 -1.0586
  914SOL     OW 2740   1.945   1.326   1.348  0.0409 -0.2540  0.2248
  914SOL    HW1 2741   2.019   1.282   1.402  0.8583  2.5228  2.7465
  914SOL    HW2 2742   1.868   1.265   1.341  2.1115 -1.0343 -0.0930
  915SOL     OW 2743   0.902   1.243   1.442 -0.3243  0.3428 -0.1771
  915SOL    HW1 2744   0.824   1.180   1.470 -2.8019  1.6802 -2.2934
  915SOL    HW2 2745   0.990   1.194   1.455  1.1700 -0.6925  1.0707
  916SOL     OW 2746   2.331   2.573   1.303 -0.2389 -0.5002 -0.2879
  916SOL    HW1 2747   2.416   2.564   1.366 -1.8685  1.3567 -0.3253
  916SOL    HW2 2748   2.317   2.668   1.270 -2.0231 -0.8254  3.5098
  917SOL     OW 2749   2.522   2.141   0.234 -0.4419 -0.4730 -0.4440
  917SOL    HW1 2750   2.476   2.097   0.156 -2.8468  0.2128  2.3583
  917SOL    HW2 2751   2.460   2.220   0.266  0.5603  3.0010  0.6840
  918SOL     OW 2752   1.929   2.751   2.581  0.0101  0.0125  0.1473
  918SOL    HW1 2753   1.914   2.768   2.478 -1.8926  0.5806 -3.0221
  918SOL    HW2 2754   2.028   2.730   2.604 -0.4937  1.0673  3.1288
  919SOL     OW 2755   1.554   1.862   1.729  0.8185  0.5058 -0.1776
  919SOL    HW1 2756   1.611   1.852   1.814  0.9067  2.0092  1.9909
  919SOL    HW2 2757   1.504   1.949   1.741 -0.5934 -0.3269 -2.8135
  920SOL     OW 2758   2.894   0.161   2.538  0.0826  0.4624 -0.2007
  920SOL    HW1 2759   2.898   0.144   2.640  2.6091  0.0589 -2.1423
  920SOL    HW2 2760   2.802   0.186   2.513  1.6324 -1.1118 -0.3699
  921SOL     OW 2761   2.909   0.253   2.006 -0.8281 -0.0237  0.4770
  921SOL    HW1 2762   2.972   0.230   2.085  1.7931  0.1784  1.7376
  921SOL    HW2 2763   2.946   0.342   1.969 -0.3546 -1.0847  1.5052
  922SOL     OW 2764   2.137   2.138   0.311 -0.0858 -0.1543 -0.0373
  922SOL    HW1 2765   2.207   2.213   0.305  0.4632 -0.3997  0.1247
  922SOL    HW2 2766   2.142   2.065   0.241 -0.7075  5.3317  1.1716
  923SOL     OW 2767   0.288   2.140   0.141  0.2495  0.1378  0.4580
  923SOL    HW1 2768   0.350   2.064   0.107  0.6152  0.4619 -2.0075
  923SOL    HW2 2769   0.316   2.228   0.102  2.8349 -2.2493 -1.0025
  924SOL     OW 2770   0.715   0.519   0.232 -0.3588 -0.4129  0.1148
  924SOL    HW1 2771   0.621   0.516   0.269  0.6382 -1.8148 -2.4266
  924SOL    HW2 2772   0.734   0.612   0.189 -1.6728  2.0914  0.6657
  925SOL     OW 2773   2.349   0.742   0.992  0.7876  0.0043  0.2208
  925SOL    HW1 2774   2.361   0.815   0.921 -1.9254 -0.2922 -0.2901
  925SOL    HW2 2775   2.309   0.778   1.077  1.3729  1.9695 -1.0777
  926SOL     OW 2776   2.899   0.784   0.819  0.5035 -0.5024 -0.4550
  926SOL    HW1 2777   2.825   0.855   0.843 -0.5668  1.5272  0.0470
  926SOL    HW2 2778   2.939   0.754   0.911  0.7057  0.4169  2.5092
  927SOL     OW 2779   3.089   1.169   2.786 -0.2415  0.2407 -0.5025
  927SOL    HW1 2780   0.030   1.129   2.705 -2.4273  1.2665  0.3559
  927SOL    HW2 2781   0.031   1.261   2.807 -1.5839  2.2735 -0.5421
  928SOL     OW 2782   2.951   0.412   2.351  0.1663 -0.2390  0.0124
  928SOL    HW1 2783   3.049   0.373   2.336  0.5980 -0.6158 -0.0799
  928SOL    HW2 2784   2.884   0.339   2.375 -0.4453  0.4016 -1.3861
  929SOL     OW 2785   3.085   2.911   1.058 -0.1473  0.9909  0.5000
  929SOL    HW1 2786   2.999   2.870   1.017 -2.0931  2.6945 -0.3708
  929SOL    HW2 2787   0.065   2.893   0.999 -1.3665 -0.6594  2.1526
  930SOL     OW 2788   2.224   1.679   1.628  0.3254 -0.1017 -0.0274
  930SOL    HW1 2789   2.220   1.757   1.699  0.1011  1.7672  1.2294
  930SOL    HW2 2790   2.135   1.683   1.580 -0.7713 -0.9679 -3.5611
  931SOL     OW 2791   1.389   1.572   0.700 -0.2530 -1.0174  0.6092
  931SOL    HW1 2792   1.454   1.536   0.767  0.2566  0.2767  1.8348
  931SOL    HW2 2793   1.351   1.653   0.748  3.7767 -1.5471 -0.5580
  932SOL     OW 2794   2.669   1.072   1.099  0.4082  0.5908  0.2956
  932SOL    HW1 2795   2.682   0.988   1.161  1.0986 -2.5228  1.3799
  932SOL    HW2 2796   2.717   1.150   1.134 -3.1427 -1.4386 -0.2489
  933SOL     OW 2797   2.406   1.630   1.213 -0.3946  0.3039 -0.4532
  933SOL    HW1 2798   2.322   1.669   1.173  0.8495 -3.3307 -2.5744
  933SOL    HW2 2799   2.406   1.626   1.318 -1.0794 -0.3483  1.7567
  934SOL     OW 2800   1.715   2.874   1.713  0.4163 -0.0971 -0.3216
  934SOL    HW1 2801   1.673   2.853   1.804 -0.6335 -1.1633  1.1907
  934SOL    HW2 2802   1.678   2.959   1.672  0.5312 -0.7438  0.7740
  935SOL     OW 2803   3.088   1.536   0.810 -0.1088 -0.1082 -0.1755
  935SOL    HW1 2804   2.994   1.552   0.848  3.5359 -2.0726 -0.6720
  935SOL    HW2 2805   0.050   1.608   0.841  1.3612  0.6035  1.5966
  936SOL     OW 2806   0.144   1.266   0.525 -0.4344  0.1330  0.4742
  936SOL    HW1 2807   0.104   1.178   0.562 -3.1385  1.1415 -1.0475
  936SOL    HW2 2808   0.211   1.255   0.447 -0.3713 -1.4858 -2.2888
  937SOL     OW 2809   1.916   2.588   1.039 -0.0389 -0.3095  0.0143
  937SOL    HW1 2810   1.859   2.639   0.974  0.6257  0.9518  1.4702
  937SOL    HW2 2811   1.933   2.493   1.004  1.8691 -0.0279 -2.8356
  938SOL     OW 2812   2.448   1.978   1.022 -0.3961  0.4299  0.3349
  938SOL    HW1 2813   2.536   1.939   1.057 -0.9561  0.4072  0.6872
  938SOL    HW2 2814   2.424   2.053   1.080 -0.2736 -1.6555 -1.3982
  939SOL     OW 2815   0.624   2.230   0.298  0.0738  0.2993 -0.1610
  939SOL    HW1 2816   0.712   2.211   0.345 -0.6091 -1.5980 -1.2769
  939SOL    HW2 2817   0.645   2.234   0.196  0.8914 -0.6242  1.0378
  940SOL     OW 2818   2.905   0.092   2.801  0.2333 -0.0818  0.2528
  940SOL    HW1 2819   2.980   0.109   2.867  0.2321 -0.5540  2.7530
  940SOL    HW2 2820   2.896   3.096   2.768 -1.9424 -4.0030 -0.3752
  941SOL     OW 2821   1.069   0.429   0.007 -0.2275 -0.2481 -0.0434
  941SOL    HW1 2822   1.097   0.422   0.106  2.7689  2.7204  2.8771
  941SOL    HW2 2823   1.149   0.450   3.053 -0.2149  1.1515 -1.5588
  942SOL     OW 2824   1.104   1.560   1.636  0.1285  0.4516 -0.1964
  942SOL    HW1 2825   1.107   1.583   1.736 -1.2605  0.4764 -0.4670
  942SOL    HW2 2826   1.062   1.635   1.585  1.4002 -1.1655 -0.5614
  943SOL     OW 2827   1.733   1.100   1.359  0.1135 -0.4339  0.3392
  943SOL    HW1 2828   1.686   1.098   1.451 -1.1931 -3.7435 -0.4647
  943SOL    HW2 2829   1.783   1.010   1.348  2.7594  0.5413  1.0731
  944SOL     OW 2830   1.893   0.623   1.756  0.1310 -0.2509  0.7970
  944SOL    HW1 2831   1.862   0.582   1.666  0.9545  2.2950 -0.6307
  944SOL    HW2 2832   1.937   0.714   1.742 -2.9340  0.2584 -1.6669
  945SOL     OW 2833   3.006   0.026   0.661 -0.3152  0.1452 -0.2685
  945SOL    HW1 2834   2.940   0.093   0.700 -1.8788 -0.6483  0.2463
  945SOL    HW2 2835   3.013   0.050   0.563 -0.4311 -1.9110  0.8550
  946SOL     OW 2836   0.631   0.381   1.416 -0.0986  0.2504  0.2603
  946SOL    HW1 2837   0.677   0.462   1.455 -1.8813  2.2337 -2.7822
  946SOL    HW2 2838   0.607   0.399   1.320  0.3196 -0.7364  1.6356
  947SOL     OW 2839   0.589   0.233   0.168 -0.4366  0.5634 -0.1087
  947SOL    HW1 2840   0.545   0.149   0.210 -0.7991 -0.0148  0.4597
  947SOL    HW2 2841   0.545   0.316   0.205 -0.8675  1.3575 -0.5981
  948SOL     OW 2842   2.814   1.185   1.775 -0.2718 -0.7160 -0.0103
  948SOL    HW1 2843   2.836   1.279   1.808 -0.6465 -0.0721 -2.4371
  948SOL    HW2 2844   2.901   1.148   1.738 -1.0074 -4.0430 -1.4213
  949SOL     OW 2845   0.536   1.106   2.836 -0.0336  0.6266  0.6846
  949SOL    HW1 2846   0.464   1.043   2.866  0.9017 -1.3187  0.3960
  949SOL    HW2 2847   0.598   1.060   2.765  0.3748  0.4019 -1.3132
  950SOL     OW 2848   1.017   0.812   0.802  0.3414 -0.7008 -0.9116
  950SOL    HW1 2849   1.042   0.718   0.806 -1.0602  1.7983 -1.2913
  950SOL    HW2 2850   1.094   0.868   0.774 -1.6657  0.0099 -0.3859
  951SOL     OW 2851   0.892   2.040   2.210 -0.6550  0.2822 -0.0588
  951SOL    HW1 2852   0.968   2.095   2.165  2.3485 -0.6695 -0.9617
  951SOL    HW2 2853   0.856   2.103   2.285 -1.7722 -0.0535 -0.8114
  952SOL     OW 2854   0.700   1.750   0.290  0.2812  0.0702  0.1860
  952SOL    HW1 2855   0.800   1.746   0.287  0.9740 -0.2604  0.6707
  952SOL    HW2 2856   0.665   1.846   0.282 -0.4746  0.5818 -2.0081
  953SOL     OW 2857   1.933   3.053   2.353 -0.4103 -0.2453  0.2812
  953SOL    HW1 2858   1.915   2.962   2.319 -2.0053  0.7145 -0.1573
  953SOL    HW2 2859   2.027   3.086   2.321 -1.7342  0.6495 -2.2645
  954SOL     OW 2860   1.505   1.177   0.572  0.4598 -0.3763  0.0182
  954SOL    HW1 2861   1.536   1.240   0.498  1.9188 -0.5578 -2.3078
  954SOL    HW2 2862   1.440   1.227   0.635  0.8826  1.1890  3.2069
  955SOL     OW 2863   0.431   2.295   2.393  0.2848 -0.2040 -0.1832
  955SOL    HW1 2864   0.442   2.380   2.333 -0.2461  0.8431  0.0635
  955SOL    HW2 2865   0.456   2.321   2.489 -0.6691 -0.5698  2.2523
  956SOL     OW 2866   1.918   0.123   1.631 -0.1633  0.7778 -0.1640
  956SOL    HW1 2867   1.977   0.203   1.632 -2.0166 -0.0691  0.8649
  956SOL    HW2 2868   1.819   0.133   1.657 -1.8617 -1.1889  0.8874
  957SOL     OW 2869   1.708   2.071   2.590  0.5150  0.1752 -0.2532
  957SOL    HW1 2870   1.638   2.021   2.533 -2.5551 -0.7420 -1.1143
  957SOL    HW2 2871   1.690   2.034   2.685 -1.7997 -2.0407 -1.3994
  958SOL     OW 2872   1.072   2.244   1.610  0.4335 -0.0293 -0.1638
  958SOL    HW1 2873   1.052   2.169   1.545  0.8154 -2.5989 -3.2558
  958SOL    HW2 2874   0.998   2.318   1.611  0.4158 -0.2379 -0.2062
  959SOL     OW 2875   1.948   2.456   3.039  0.5646 -0.5094  0.0106
  959SOL    HW1 2876   1.956   2.399   0.023  0.0798 -2.2331  0.0710
  959SOL    HW2 2877   1.911   2.402   2.960  0.9298 -1.1879  0.8379
  960SOL     OW 2878   0.081   0.117   2.900  0.2117  0.0850 -0.4456
  960SOL    HW1 2879   0.126   0.119   2.809  0.0648 -1.5068 -4.6196
  960SOL    HW2 2880   0.063   0.213   2.928  0.5022 -0.1877  3.4376
  961SOL     OW 2881   0.743   0.945   2.690  0.3253  0.4161  0.3167
  961SOL    HW1 2882   0.807   0.976   2.763 -0.8622 -2.7179  0.0021
  961SOL    HW2 2883   0.744   0.843   2.673  0.1528 -0.2427  1.0067
  962SOL     OW 2884   1.126   1.272   2.822  0.3110 -0.3893 -0.1102
  962SOL    HW1 2885   1.178   1.254   2.736 -0.7116 -0.4864 -1.5173
  962SOL    HW2 2886   1.195   1.278   2.901 -2.0519 -2.2808  0.2212
  963SOL     OW 2887   2.374   2.044   0.007 -0.6774  0.0811  0.2267
  963SOL    HW1 2888   2.443   1.975   3.090 -2.0068  2.3137  1.2682
  963SOL    HW2 2889   2.385   2.122   3.051  1.1262 -0.3270  1.7157
  964SOL     OW 2890   1.336   2.654   0.978 -0.2640 -0.0943 -0.6078
  964SOL    HW1 2891   1.327   2.634   0.876 -0.5452  1.2865 -6.0924
  964SOL    HW2 2892   1.305   2.581   1.043  0.2874 -0.6725  1.5000
  965SOL     OW 2893   0.904   1.715   0.646  0.0347  0.0783  0.0602
  965SOL    HW1 2894   0.881   1.687   0.742 -1.9370  1.4737 -1.0217
  965SOL    HW2 2895   0.904   1.636   0.580 -1.1932 -3.0851  0.7792
  966SOL     OW 2896   0.041   1.377   3.095 -0.6378 -0.2050 -0.4543
  966SOL    HW1 2897   0.083   1.421   0.076  3.1751  0.0798  1.0249
  966SOL    HW2 2898   0.052   1.277   0.006  1.1189 -1.2727  1.7907
  967SOL     OW 2899   1.776   0.291   1.979  0.4325  0.1287 -0.2013
  967SOL    HW1 2900   1.768   0.264   2.079 -0.3757 -0.6697  2.3310
  967SOL    HW2 2901   1.874   0.268   1.958  2.1236  1.4291 -3.5287
  968SOL     OW 2902   1.763   1.046   0.568  0.8211 -0.1831 -0.5298
  968SOL    HW1 2903   1.675   1.090   0.595  1.3779 -0.7098 -1.1571
  968SOL    HW2 2904   1.766   1.045   0.464  1.6412  0.1895  1.5054
  969SOL     OW 2905   0.289   1.310   2.159  0.3154 -0.0727 -0.0355
  969SOL    HW1 2906   0.250   1.295   2.061 -2.6680  1.6006 -3.5662
  969SOL    HW2 2907   0.384   1.348   2.151  3.3981 -0.1178 -2.3952
  970SOL     OW 2908   2.402   1.072   0.986 -0.4264  0.1607 -0.0476
  970SOL    HW1 2909   2.493   1.071   1.036  0.7452  0.8381  0.3342
  970SOL    HW2 2910   2.404   1.006   0.906 -0.2457  1.0309 -0.9312
  971SOL     OW 2911   0.564   0.139   1.502  0.4039  0.0328 -0.5328
  971SOL    HW1 2912   0.597   0.232   1.478  2.1946 -0.7151  0.5268
  971SOL    HW2 2913   0.460   0.129   1.491 -3.2556  0.1085  0.4827
  972SOL     OW 2914   0.503   0.771   2.728  0.7029  0.0620  0.1738
  972SOL    HW1 2915   0.476   0.802   2.821 -2.6044  3.3468 -1.5721
  972SOL    HW2 2916   0.539   0.854   2.676  0.1280  0.2345 -0.0193
  973SOL     OW 2917   0.167   0.938   0.989  0.2621  0.2935  0.0912
  973SOL    HW1 2918   0.073   0.950   0.948 -1.4099 -0.0559 -0.4992
  973SOL    HW2 2919   0.160   0.873   1.067 -0.7830 -1.2006 -1.1399
  974SOL     OW 2920   2.171   0.931   1.892 -0.2943  0.0492 -0.6292
  974SOL    HW1 2921   2.128   0.932   1.801 -0.7935 -0.9792 -0.5087
  974SOL    HW2 2922   2.264   0.974   1.898  0.2770  0.5105  1.4971
  975SOL     OW 2923   2.569   0.020   0.032 -0.3960  0.4973  0.4876
  975SOL    HW1 2924   2.503   3.058   3.090 -1.0849 -1.3548 -2.3594
  975SOL    HW2 2925   2.554   0.011   0.131  1.9895  0.5847 -1.5713
  976SOL     OW 2926   3.079   1.251   1.564 -0.1845  0.0926  0.4772
  976SOL    HW1 2927   0.029   1.333   1.534 -1.0397 -1.7555  2.5598
  976SOL    HW2 2928   0.017   1.200   1.643  2.4089  1.5064  1.3549
  977SOL     OW 2929   1.123   2.812   0.306 -0.2279 -0.2478  0.1843
  977SOL    HW1 2930   1.152   2.741   0.239 -0.3935  2.1781  1.3480
  977SOL    HW2 2931   1.020   2.818   0.291 -2.6337 -0.5302 -0.9682
  978SOL     OW 2932   0.711   1.479   0.298 -0.1990  0.3411 -0.0570
  978SOL    HW1 2933   0.706   1.580   0.283 -0.5676  0.1473  0.7136
  978SOL    HW2 2934   0.756   1.432   0.216  2.8423  0.2143 -3.7663
  979SOL     OW 2935   1.608   1.676   1.274  0.5523  0.5404  0.2225
  979SOL    HW1 2936   1.537   1.697   1.345 -0.2523  1.3611 -0.0136
  979SOL    HW2 2937   1.599   1.575   1.247 -2.5104 -0.4191 -1.0938
  980SOL     OW 2938   0.494   1.366   1.793  0.3903 -0.1115  0.0487
  980SOL    HW1 2939   0.507   1.458   1.826  0.7941 -0.4961 -0.2527
  980SOL    HW2 2940   0.533   1.362   1.700  1.6499 -0.3140  0.1815
  981SOL     OW 2941   0.005   1.488   0.256 -0.2930  0.8695  0.0047
  981SOL    HW1 2942   0.014   1.497   0.358 -2.0982 -2.3475  0.7717
  981SOL    HW2 2943   0.052   1.562   0.205  0.3582  3.0003 -4.1819
  982SOL     OW 2944   2.418   2.661   2.302  0.4649 -0.8540 -0.2623
  982SOL    HW1 2945   2.325   2.616   2.299 -0.4818 -0.6044  0.7472
  982SOL    HW2 2946   2.423   2.745   2.357 -1.6606  0.1536  1.2669
  983SOL     OW 2947   1.326   0.615   1.170 -0.2048 -0.4007 -0.2710
  983SOL    HW1 2948   1.327   0.647   1.075 -0.2249 -1.5401  1.4884
  983SOL    HW2 2949   1.310   0.515   1.177  0.7380  1.7395  0.8943
  984SOL     OW 2950   0.998   0.052   2.805  0.1053 -0.6737 -0.4090
  984SOL    HW1 2951   1.072   0.108   2.760  0.3435 -0.4373  0.7111
  984SOL    HW2 2952   0.943   0.006   2.731 -0.6174  0.3781 -1.4689
  985SOL     OW 2953   1.632   2.318   1.682  0.3747  0.1748  0.1455
  985SOL    HW1 2954   1.626   2.418   1.662  0.3154  1.4746 -0.9766
  985SOL    HW2 2955   1.734   2.290   1.685 -0.9623  1.6820  0.5224
  986SOL     OW 2956   2.509   0.168   2.348  0.2033 -0.2016 -0.5773
  986SOL    HW1 2957   2.469   0.238   2.289 -0.2917 -1.4125  3.8787
  986SOL    HW2 2958   2.567   0.215   2.420  1.4106 -1.0630  1.1928
  987SOL     OW 2959   2.632   0.532   2.349 -0.0207 -0.1464 -0.1652
  987SOL    HW1 2960   2.697   0.527   2.268  1.0769  0.7948  0.8661
  987SOL    HW2 2961   2.603   0.631   2.351  0.6247 -1.9797 -2.5661
  988SOL     OW 2962   2.502   0.692   2.780 -0.3417 -0.8083 -0.4714
  988SOL    HW1 2963   2.422   0.671   2.839 -1.8153  0.2356  1.6185
  988SOL    HW2 2964   2.507   0.790   2.753  0.9898 -0.7463  1.1987
  989SOL     OW 2965   2.304   1.808   2.017 -0.4193 -0.2814 -0.4707
  989SOL    HW1 2966   2.295   1.825   2.119 -1.3837  0.6545  3.3956
  989SOL    HW2 2967   2.386   1.851   1.975  0.9922 -0.7008  0.3050
  990SOL     OW 2968   0.348   1.194   2.583 -0.2236  0.1654  0.0142
  990SOL    HW1 2969   0.340   1.270   2.516 -1.7916 -3.3872 -0.0311
  990SOL    HW2 2970   0.360   1.235   2.674  0.2718  0.6384 -1.6208
  991SOL     OW 2971   0.577   1.743   2.715  0.2699 -0.1955 -0.0492
  991SOL    HW1 2972   0.518   1.663   2.687  1.4703  0.8170 -2.2308
  991SOL    HW2 2973   0.524   1.814   2.767 -2.9099 -1.6523 -2.5639
  992SOL     OW 2974   2.838   1.872   1.810  0.2984 -0.3030  0.7271
  992SOL    HW1 2975   2.877   1.966   1.791 -1.9381  2.4347 -1.3856
  992SOL    HW2 2976   2.846   1.840   1.905  1.8321  0.7942  0.1369
  993SOL     OW 2977   0.379   0.169   0.816 -0.1711  0.2604  0.4235
  993SOL    HW1 2978   0.427   0.080   0.820 -0.3906 -0.7926 -2.2591
  993SOL    HW2 2979   0.329   0.177   0.733  1.0788 -1.8158  0.6691
  994SOL     OW 2980   0.337   1.627   1.423  0.3759  0.6244 -0.0971
  994SOL    HW1 2981   0.372   1.661   1.517 -0.0342  3.8119  1.9404
  994SOL    HW2 2982   0.272   1.697   1.384 -0.7706 -0.8454  1.9661
  995SOL     OW 2983   2.064   1.555   2.786  0.0404 -0.3004 -0.5202
  995SOL    HW1 2984   2.048   1.551   2.885 -1.6117 -0.7052 -2.8625
  995SOL    HW2 2985   2.141   1.621   2.765  0.4201  3.8244 -2.0196
  996SOL     OW 2986   2.004   1.300   2.716 -0.2659 -0.5003  0.6217
  996SOL    HW1 2987   2.032   1.394   2.743 -0.5974 -4.2681 -1.3429
  996SOL    HW2 2988   1.932   1.298   2.645 -1.1558  1.4497 -0.5576
  997SOL     OW 2989   1.843   1.089   1.729 -0.5535 -0.4420  0.2077
  997SOL    HW1 2990   1.850   1.183   1.696  1.0388 -2.7413  0.7136
  997SOL    HW2 2991   1.764   1.053   1.681  1.9833  4.2036 -0.5536
  998SOL     OW 2992   2.043   2.090   1.102 -0.0307  0.2126  0.5743
  998SOL    HW1 2993   2.076   2.033   1.023 -0.2284  0.7878  1.6493
  998SOL    HW2 2994   2.100   2.085   1.183 -3.2093 -0.1034 -2.9571
  999SOL     OW 2995   2.336   2.241   0.730  0.0346  0.4378  0.0006
  999SOL    HW1 2996   2.294   2.322   0.773 -0.7463 -1.0176  0.1762
  999SOL    HW2 2997   2.262   2.176   0.701 -1.0858  2.2760 -0.3051
 1000SOL     OW 2998   1.050   3.011   3.065  0.2485 -0.0213  0.2946
 1000SOL    HW1 2999   1.077   3.045   2.972 -2.8587 -0.8750  1.1657
 1000SOL    HW2 3000   1.126   2.955   0.004 -0.2519 -0.5772  0.1974
   3.10331   3.10331   3.10331
