1000 SPC/Fw water molecules t= 280.00000 step= 280000
 3000
    1SOL     OW    1   2.652   2.729   0.778  0.0626  0.0339 -0.1495
    1SOL    HW1    2   2.745   2.703   0.816 -0.8941 -0.8316  2.4521
    1SOL    HW2    3   2.640   2.830   0.786  1.7242  3.6963 -0.4377
    2SOL     OW    4   2.261   1.862   0.907 -0.6045  0.0078 -0.2888
    2SOL    HW1    5   2.354   1.849   0.945 -0.3171 -0.9509 -1.7268
    2SOL    HW2    6   2.196   1.845   0.984  1.4673 -1.1381  0.7440
    3SOL     OW    7   1.062   2.610   2.889 -0.6648  0.1127 -0.3881
    3SOL    HW1    8   0.963   2.632   2.901 -1.8077  3.1502 -1.4014
    3SOL    HW2    9   1.082   2.510   2.888 -0.8280  0.3050 -0.0927
    4SOL     OW   10   1.845   2.130   1.255 -0.2273 -0.1559 -0.1440
    4SOL    HW1   11   1.823   2.053   1.320  3.6238 -1.4838  0.9516
    4SOL    HW2   12   1.948   2.134   1.243  2.1137 -3.2860 -1.5538
    5SOL     OW   13   1.425   0.944   1.395  0.2793 -0.3732 -0.2460
    5SOL    HW1   14   1.374   0.911   1.315 -0.3042  2.0856  3.7576
    5SOL    HW2   15   1.485   1.024   1.366 -0.5551  1.1238 -0.4954
    6SOL     OW   16   2.409   2.918   0.189  0.1411 -0.1884 -0.8865
    6SOL    HW1   17   2.311   2.893   0.193 -1.3605 -1.2296  1.7908
    6SOL    HW2   18   2.422   3.017   0.214 -1.1138  2.3244 -0.5828
    7SOL     OW   19   2.839   1.177   1.247 -0.0608  0.2504 -0.1590
    7SOL    HW1   20   2.866   1.195   1.347  1.0185 -1.6775 -0.7724
    7SOL    HW2   21   2.791   1.259   1.216  0.3883 -3.3262  1.6593
    8SOL     OW   22   1.190   2.605   1.116 -0.0301 -0.5503 -0.2522
    8SOL    HW1   23   1.222   2.674   1.049 -3.7118  0.1474 -0.5904
    8SOL    HW2   24   1.233   2.512   1.096  0.5749 -0.2328 -0.0966
    9SOL     OW   25   1.533   0.020   1.841 -1.1680  0.0722  0.0869
    9SOL    HW1   26   1.498   0.075   1.762 -1.4560 -1.7395  1.4322
    9SOL    HW2   27   1.502   3.007   1.844  0.1643  0.7563 -3.9502
   10SOL     OW   28   0.721   2.378   0.905  0.2161 -0.1184  0.0017
   10SOL    HW1   29   0.756   2.464   0.857  1.7756  2.9806 -0.6887
   10SOL    HW2   30   0.793   2.333   0.959  0.8607  2.3422 -0.4901
   11SOL     OW   31   1.629   1.557   0.836  0.0741  0.3108 -0.4472
   11SOL    HW1   32   1.727   1.548   0.805  0.1657  1.6837 -1.0553
   11SOL    HW2   33   1.597   1.478   0.893 -0.1836  0.2368 -0.1750
   12SOL     OW   34   2.823   2.657   1.914 -0.0035 -0.2004  0.3288
   12SOL    HW1   35   2.821   2.732   1.987  1.3559 -1.8402 -1.0187
   12SOL    HW2   36   2.908   2.597   1.920  2.3009 -0.0131 -0.8040
   13SOL     OW   37   2.127   0.017   0.275 -0.3848  0.5379  0.2470
   13SOL    HW1   38   2.102   0.031   0.375  0.2723  0.2076 -2.2204
   13SOL    HW2   39   2.117   3.000   0.249  0.7690  0.9441 -0.8559
   14SOL     OW   40   1.541   2.566   0.780  0.1601 -0.6379  0.3988
   14SOL    HW1   41   1.489   2.480   0.759  0.7097  1.9182  1.6843
   14SOL    HW2   42   1.469   2.643   0.775 -3.3710 -0.8775  1.7938
   15SOL     OW   43   0.010   1.957   1.502  0.0975  0.5426 -0.1920
   15SOL    HW1   44   0.069   2.039   1.504  1.5821  0.0288  2.3384
   15SOL    HW2   45   0.054   1.883   1.566  0.3973 -2.7819  0.5785
   16SOL     OW   46   2.171   2.331   0.387 -0.1135  0.2114 -0.6801
   16SOL    HW1   47   2.117   2.335   0.477  0.0861  0.9718  3.3583
   16SOL    HW2   48   2.231   2.250   0.389 -2.4614  2.3961 -0.0340
   17SOL     OW   49   0.726   3.074   1.505  0.2149 -0.4377  0.2817
   17SOL    HW1   50   0.781   3.066   1.589 -0.4907  1.2286  3.4146
   17SOL    HW2   51   0.759   0.074   1.459  1.9006 -2.0715 -1.4299
   18SOL     OW   52   1.186   0.974   0.137  0.7409 -0.4731 -0.8201
   18SOL    HW1   53   1.169   0.942   0.041  3.1164 -3.0453  0.4690
   18SOL    HW2   54   1.220   1.072   0.144 -0.3478 -1.9044  0.6288
   19SOL     OW   55   1.905   2.048   0.244  0.4002 -0.5578  0.2717
   19SOL    HW1   56   1.885   2.065   0.145 -0.2826  1.8604  2.0970
   19SOL    HW2   57   1.987   1.987   0.260  3.1897 -0.1866  0.6855
   20SOL     OW   58   2.338   1.942   1.864  0.2410 -0.1603  0.4431
   20SOL    HW1   59   2.277   1.986   1.790 -2.8062  0.0548 -1.2121
   20SOL    HW2   60   2.379   1.854   1.835  2.8061 -2.5557 -3.4451
   21SOL     OW   61   0.756   1.228   0.694  0.2216 -0.2643 -0.0681
   21SOL    HW1   62   0.744   1.158   0.776 -0.0333 -1.4945  1.4587
   21SOL    HW2   63   0.688   1.307   0.697 -2.1139 -2.5015 -1.5817
   22SOL     OW   64   2.094   2.886   1.498  1.0081 -0.3397 -0.0455
   22SOL    HW1   65   2.011   2.873   1.551 -0.2341  1.5643  0.5061
   22SOL    HW2   66   2.176   2.933   1.535 -1.4195  1.4181 -0.4786
   23SOL     OW   67   2.959   0.757   2.107  0.3355  0.1706 -0.0494
   23SOL    HW1   68   2.897   0.766   2.028  0.3766 -0.0121 -0.3179
   23SOL    HW2   69   2.965   0.846   2.158  1.5493 -0.0113  1.5343
   24SOL     OW   70   2.357   2.478   0.216  0.3063  0.0477  0.0644
   24SOL    HW1   71   2.366   2.484   0.115  0.0332  1.5668 -0.7788
   24SOL    HW2   72   2.283   2.419   0.252 -0.0036  2.3790  0.4663
   25SOL     OW   73   1.341   2.912   2.356 -0.4725 -0.4472 -0.2913
   25SOL    HW1   74   1.351   2.995   2.419 -0.8552 -1.5678 -0.3456
   25SOL    HW2   75   1.390   2.934   2.271  4.5554 -1.0509 -3.6904
   26SOL     OW   76   1.475   2.320   0.125 -0.5620  0.6710 -0.6273
   26SOL    HW1   77   1.534   2.374   0.188 -2.3056  0.3261 -1.2577
   26SOL    HW2   78   1.437   2.379   0.048 -1.5395  1.5945 -0.1433
   27SOL     OW   79   2.485   1.820   0.212 -0.2277 -0.2625 -0.0837
   27SOL    HW1   80   2.406   1.758   0.213  2.6355 -1.1293  2.7593
   27SOL    HW2   81   2.480   1.899   0.147 -1.3303 -1.5828  1.8842
   28SOL     OW   82   0.073   1.204   1.835 -0.2757  0.2660 -0.2119
   28SOL    HW1   83   3.078   1.240   1.785  3.6016  0.8091  0.4003
   28SOL    HW2   84   0.112   1.112   1.805 -0.0586 -1.1779  1.4739
   29SOL     OW   85   2.338   2.306   1.368 -0.7588 -0.2807 -0.5083
   29SOL    HW1   86   2.291   2.378   1.429 -0.7640  0.4254  0.2431
   29SOL    HW2   87   2.433   2.338   1.337 -0.4145  0.5061 -0.8673
   30SOL     OW   88   1.691   0.503   0.582 -0.1260 -0.3296  0.2349
   30SOL    HW1   89   1.631   0.422   0.548 -0.8213 -1.7074  0.3596
   30SOL    HW2   90   1.663   0.587   0.540 -0.4445  0.2942  0.7940
   31SOL     OW   91   2.284   2.612   1.753  0.4081  0.0131 -0.3011
   31SOL    HW1   92   2.332   2.607   1.845  0.6778 -0.3125  2.4545
   31SOL    HW2   93   2.244   2.702   1.736 -0.3364  0.7107  2.4827
   32SOL     OW   94   0.947   1.835   1.265 -0.3189  0.1356  0.0682
   32SOL    HW1   95   0.943   1.818   1.164  0.1906 -0.2422 -0.1074
   32SOL    HW2   96   0.897   1.920   1.293 -0.6997 -1.0135  0.5989
   33SOL     OW   97   0.469   0.041   2.579 -0.1261 -0.3826 -0.1927
   33SOL    HW1   98   0.505   0.116   2.639 -0.6313 -3.6691  0.6837
   33SOL    HW2   99   0.369   0.024   2.594 -1.2224 -3.7309  1.7875
   34SOL     OW  100   1.418   2.883   0.474  0.0360  0.2741  0.4898
   34SOL    HW1  101   1.461   2.972   0.496 -1.5840 -3.4433  3.0108
   34SOL    HW2  102   1.406   2.833   0.562 -1.5455  0.8072  2.0702
   35SOL     OW  103   2.166   2.809   1.240 -0.4295 -0.1884  0.6254
   35SOL    HW1  104   2.268   2.808   1.234 -1.8446  0.9227  1.0939
   35SOL    HW2  105   2.137   2.845   1.331 -0.5385 -0.8281 -1.5654
   36SOL     OW  106   1.974   2.365   2.302  0.4162 -1.0214  0.2752
   36SOL    HW1  107   1.933   2.279   2.338  0.8739  1.7808 -2.2390
   36SOL    HW2  108   1.907   2.432   2.262 -1.6551  1.1968 -0.5210
   37SOL     OW  109   0.910   0.131   2.130  0.2392 -0.0495  0.4634
   37SOL    HW1  110   0.913   0.143   2.029  1.0866 -0.2442  1.0185
   37SOL    HW2  111   0.993   0.185   2.169  0.2944  0.7435 -1.1096
   38SOL     OW  112   0.183   2.645   2.695  0.1114  0.0244  0.0741
   38SOL    HW1  113   0.187   2.638   2.593 -0.4530  1.8312 -0.1723
   38SOL    HW2  114   0.258   2.592   2.746  0.2241 -0.5583  0.1520
   39SOL     OW  115   2.412   0.868   1.631 -0.0303  0.4301 -0.1401
   39SOL    HW1  116   2.448   0.946   1.576  0.7247 -1.0880  0.2088
   39SOL    HW2  117   2.382   0.905   1.723 -1.1119  0.3385  1.8695
   40SOL     OW  118   1.080   3.044   0.138  0.0543  0.2303 -0.4772
   40SOL    HW1  119   0.996   3.077   0.182  0.6770  1.1920 -1.8804
   40SOL    HW2  120   1.091   3.079   0.047 -1.0587 -1.4483  2.9467
   41SOL     OW  121   2.123   0.993   1.169 -0.0977  0.4955 -0.7395
   41SOL    HW1  122   2.125   1.017   1.272  2.6717 -4.7023  2.1987
   41SOL    HW2  123   2.166   1.066   1.110  2.4190 -0.8556 -0.6064
   42SOL     OW  124   0.477   0.394   0.990  0.1893  0.0686  0.2515
   42SOL    HW1  125   0.421   0.472   1.022 -0.7407 -1.2176 -1.0670
   42SOL    HW2  126   0.470   0.312   1.044  1.3955  0.7886 -0.3896
   43SOL     OW  127   2.360   1.477   2.680  0.2276  0.0288 -0.4685
   43SOL    HW1  128   2.392   1.418   2.758 -1.2838  0.2338 -0.2587
   43SOL    HW2  129   2.283   1.436   2.631 -2.5208  0.9245  2.9359
   44SOL     OW  130   2.742   2.996   1.569 -0.0366 -0.1186  0.1165
   44SOL    HW1  131   2.733   2.906   1.614  1.0470  0.5819 -0.0267
   44SOL    HW2  132   2.737   3.070   1.640  1.3065  1.3906 -0.6516
   45SOL     OW  133   0.467   2.719   1.589 -0.1513  0.0151  0.2234
   45SOL    HW1  134   0.371   2.745   1.617 -3.2928 -0.4357  0.3934
   45SOL    HW2  135   0.509   2.790   1.526  2.6881 -0.4394  0.7931
   46SOL     OW  136   1.685   0.032   2.287 -0.1246  0.4273 -0.4721
   46SOL    HW1  137   1.788   0.037   2.306  1.6554  0.1870 -1.2181
   46SOL    HW2  138   1.646   3.059   2.363  0.3563  0.6064  0.8920
   47SOL     OW  139   1.611   1.832   0.776  0.8385 -0.0937  0.2330
   47SOL    HW1  140   1.589   1.908   0.845 -0.5190  0.6712  0.8088
   47SOL    HW2  141   1.618   1.742   0.820  0.1474  0.0276  0.2454
   48SOL     OW  142   0.886   2.284   0.557  0.1111 -0.0144 -0.0604
   48SOL    HW1  143   0.858   2.382   0.542 -2.7031 -1.4133 -2.4869
   48SOL    HW2  144   0.909   2.234   0.471 -1.4774 -0.3976 -0.7740
   49SOL     OW  145   2.466   0.308   2.540  0.3405  0.3767  0.2174
   49SOL    HW1  146   2.447   0.361   2.625 -0.1601 -0.1244  0.2179
   49SOL    HW2  147   2.450   0.208   2.559  0.9157  1.5882  0.2522
   50SOL     OW  148   2.152   0.354   0.326  0.2828 -0.6415 -0.2932
   50SOL    HW1  149   2.113   0.335   0.418  0.6737  0.6791 -2.1068
   50SOL    HW2  150   2.074   0.386   0.268 -0.2993  0.4680  3.9919
   51SOL     OW  151   2.006   0.811   0.857  0.0885  0.1668  0.2810
   51SOL    HW1  152   2.054   0.726   0.815  0.7144 -0.8013 -2.2057
   51SOL    HW2  153   1.987   0.795   0.955 -0.3439  1.8218 -0.3968
   52SOL     OW  154   1.126   1.341   1.579 -0.2121  0.1241 -0.4268
   52SOL    HW1  155   1.179   1.306   1.660 -0.3388 -0.5338 -0.0329
   52SOL    HW2  156   1.072   1.264   1.535 -2.4637 -0.7865 -2.2873
   53SOL     OW  157   0.775   1.626   2.412 -0.1935  0.0365  0.3191
   53SOL    HW1  158   0.775   1.583   2.319  0.2878  2.6880  0.9276
   53SOL    HW2  159   0.773   1.727   2.401  0.4616 -2.6023 -0.8379
   54SOL     OW  160   2.487   0.016   1.426  0.4796 -0.1803  0.3806
   54SOL    HW1  161   2.576   0.014   1.479  1.4151  0.5654  0.2873
   54SOL    HW2  162   2.472   0.112   1.390  0.8361  2.5509  0.1073
   55SOL     OW  163   2.706   2.000   0.957  0.0834  0.2733 -0.1491
   55SOL    HW1  164   2.709   2.054   0.869 -2.4915  1.9134  0.9725
   55SOL    HW2  165   2.712   1.904   0.938  2.2943 -0.2569  1.3037
   56SOL     OW  166   1.104   0.181   1.920  0.1691  0.0706 -0.2039
   56SOL    HW1  167   1.145   0.114   1.983 -1.1917 -2.4630  1.3695
   56SOL    HW2  168   1.168   0.191   1.842  0.7764 -0.2596  1.0228
   57SOL     OW  169   1.468   1.458   0.136  0.6316 -0.5949  0.1037
   57SOL    HW1  170   1.540   1.415   0.197  0.6909  1.2998 -0.4664
   57SOL    HW2  171   1.510   1.515   0.061  2.7416  0.6360  1.1959
   58SOL     OW  172   0.179   1.131   2.076  0.2718  0.0098  0.0829
   58SOL    HW1  173   0.147   1.176   1.994  0.1414 -2.6888 -0.0917
   58SOL    HW2  174   0.249   1.186   2.124 -1.5367 -0.1826  0.0901
   59SOL     OW  175   1.104   0.163   2.507  0.4641 -0.4324 -0.5229
   59SOL    HW1  176   1.085   0.210   2.596 -0.8846 -0.5945  0.3300
   59SOL    HW2  177   1.037   0.085   2.507 -0.7141  0.2846 -2.0992
   60SOL     OW  178   2.939   2.141   0.290 -0.4953 -0.2647  0.6069
   60SOL    HW1  179   2.844   2.112   0.271  0.8489  0.3172  0.8645
   60SOL    HW2  180   2.945   2.235   0.323  0.7927 -1.3238 -2.0044
   61SOL     OW  181   1.063   2.285   0.297  0.0951  0.3154  0.1875
   61SOL    HW1  182   1.098   2.376   0.323 -0.9709 -1.3157 -2.2454
   61SOL    HW2  183   1.141   2.235   0.251  2.0435  0.2984 -1.4792
   62SOL     OW  184   2.047   2.068   2.667 -1.0010  0.3133 -0.0874
   62SOL    HW1  185   2.047   1.966   2.674  2.1302 -0.4171 -0.2633
   62SOL    HW2  186   1.989   2.099   2.591 -0.3412 -1.8462 -0.5322
   63SOL     OW  187   2.243   2.114   0.525  0.7533 -0.7481 -0.4082
   63SOL    HW1  188   2.221   2.090   0.620  1.5806  0.0858  1.3939
   63SOL    HW2  189   2.234   2.028   0.467  1.0640 -1.8079 -0.9944
   64SOL     OW  190   1.815   1.190   2.795 -0.2769  0.3817 -0.2720
   64SOL    HW1  191   1.743   1.254   2.836 -2.4935  1.8488  0.1197
   64SOL    HW2  192   1.850   1.121   2.862  1.6893 -0.6499 -1.6015
   65SOL     OW  193   1.507   1.999   2.911 -0.0538 -0.2969  0.1845
   65SOL    HW1  194   1.541   2.030   3.001 -0.0165  0.4767 -1.5240
   65SOL    HW2  195   1.517   1.900   2.881  0.4132 -1.2108 -2.3949
   66SOL     OW  196   0.011   1.342   2.354 -0.4096 -0.1291 -0.9625
   66SOL    HW1  197   3.019   1.394   2.398 -0.0354 -0.5627  2.1640
   66SOL    HW2  198   0.071   1.405   2.299 -0.5222 -1.6911  2.8834
   67SOL     OW  199   2.554   2.620   2.957 -0.1787 -0.2323  0.3004
   67SOL    HW1  200   2.467   2.571   2.935 -2.0827  1.9290  2.0797
   67SOL    HW2  201   2.593   2.657   2.871 -0.8533 -4.3177 -0.8550
   68SOL     OW  202   0.801   2.499   1.423 -0.3839  0.6484 -0.4613
   68SOL    HW1  203   0.757   2.508   1.327  0.4144 -0.0619 -2.7424
   68SOL    HW2  204   0.852   2.408   1.428  0.8580 -3.2820  0.9284
   69SOL     OW  205   0.860   2.601   0.574  0.2614 -0.6318  0.3424
   69SOL    HW1  206   0.814   2.643   0.491 -2.4612  0.2015 -2.4697
   69SOL    HW2  207   0.800   2.608   0.660 -0.8243  1.2498  2.1630
   70SOL     OW  208   2.531   0.623   2.675  0.3865 -0.8545  0.1862
   70SOL    HW1  209   2.490   0.534   2.713  1.2973 -2.2319  0.5830
   70SOL    HW2  210   2.609   0.619   2.602 -0.0279 -0.3573 -1.9643
   71SOL     OW  211   0.696   1.241   2.452  0.3008  0.1696  0.3149
   71SOL    HW1  212   0.739   1.318   2.509 -2.7967 -1.0561  1.3634
   71SOL    HW2  213   0.596   1.231   2.477 -2.3592 -1.5942  1.0870
   72SOL     OW  214   0.131   2.028   0.362  0.1056  0.6763  0.0807
   72SOL    HW1  215   0.208   2.095   0.370 -1.1299 -1.0289  1.8198
   72SOL    HW2  216   0.044   2.063   0.328  2.3288 -2.7201 -1.0605
   73SOL     OW  217   0.935   1.217   0.490  0.3354 -0.2014 -0.4353
   73SOL    HW1  218   0.917   1.294   0.422  0.1078 -2.0929 -0.6064
   73SOL    HW2  219   0.872   1.227   0.570  3.6363 -1.1663 -1.2438
   74SOL     OW  220   2.159   2.649   0.028  0.1226 -0.3052 -0.2266
   74SOL    HW1  221   2.185   2.723   0.093  0.0536  0.9015 -0.9868
   74SOL    HW2  222   2.063   2.618   0.033  1.7238 -0.6203  1.6507
   75SOL     OW  223   2.138   1.838   1.176 -0.4861 -0.4803  0.3214
   75SOL    HW1  224   2.227   1.885   1.178 -1.3878 -0.1947 -3.6796
   75SOL    HW2  225   2.129   1.769   1.256 -1.2873 -2.2350  2.0556
   76SOL     OW  226   1.927   2.509   1.478  0.0842  0.1422  0.1995
   76SOL    HW1  227   1.876   2.546   1.558 -0.1173  1.2957  0.6645
   76SOL    HW2  228   1.937   2.408   1.485  2.5610  0.1059 -0.4675
   77SOL     OW  229   2.306   0.197   1.936 -0.6622  0.2700 -0.5372
   77SOL    HW1  230   2.256   0.248   2.012  2.3232  0.6125  1.7207
   77SOL    HW2  231   2.383   0.138   1.974 -0.2850  1.4557  0.1429
   78SOL     OW  232   1.466   0.767   2.986 -0.1398  0.1783  0.4190
   78SOL    HW1  233   1.553   0.721   3.011 -1.4542 -1.9332  0.9178
   78SOL    HW2  234   1.440   0.760   2.890 -0.2217  1.5905  2.7640
   79SOL     OW  235   2.653   1.770   2.010 -0.0914  0.2498 -1.2213
   79SOL    HW1  236   2.678   1.727   1.922 -0.3021 -0.7027  1.8955
   79SOL    HW2  237   2.640   1.696   2.082 -0.1352  1.3982  0.5652
   80SOL     OW  238   1.970   1.397   1.534 -0.2888 -0.3241  0.6516
   80SOL    HW1  239   2.019   1.400   1.442 -1.6672  0.9578 -2.1621
   80SOL    HW2  240   1.877   1.440   1.529  0.9311  2.4786  1.8413
   81SOL     OW  241   1.291   0.660   1.607 -0.2219 -0.2219  0.8854
   81SOL    HW1  242   1.313   0.617   1.695 -0.6416  1.8516 -2.8988
   81SOL    HW2  243   1.282   0.760   1.624 -1.3787 -2.5400  1.9279
   82SOL     OW  244   1.180   2.612   1.393  0.8667 -0.2468 -0.5085
   82SOL    HW1  245   1.270   2.660   1.382 -1.7235 -0.2339 -0.9920
   82SOL    HW2  246   1.143   2.614   1.300  0.1168  1.3081  0.8112
   83SOL     OW  247   0.123   0.190   0.351  0.2717 -0.1741  0.1455
   83SOL    HW1  248   0.079   0.101   0.373 -1.9925 -0.8092 -1.0097
   83SOL    HW2  249   0.053   0.262   0.345 -2.3519  0.1922  0.3393
   84SOL     OW  250   0.362   1.152   3.016  0.1089 -0.4862 -0.3831
   84SOL    HW1  251   0.314   1.165   2.931  1.0509 -1.4235 -0.9093
   84SOL    HW2  252   0.377   1.246   3.056 -0.4617  1.5173 -0.0865
   85SOL     OW  253   2.798   1.921   1.725 -0.3117  0.1221 -0.3302
   85SOL    HW1  254   2.808   1.828   1.762  0.2118  3.4080  0.1792
   85SOL    HW2  255   2.742   1.982   1.787 -0.9658 -2.5227  0.4570
   86SOL     OW  256   2.925   2.331   1.592  0.2802  0.1713 -0.1239
   86SOL    HW1  257   2.890   2.318   1.687 -0.8798 -1.5635  0.8693
   86SOL    HW2  258   3.030   2.345   1.589  3.1201  2.1850 -0.2232
   87SOL     OW  259   0.789   0.321   2.566 -0.4133  0.3571  0.0596
   87SOL    HW1  260   0.756   0.302   2.473  1.3654 -2.3907  2.9622
   87SOL    HW2  261   0.726   0.268   2.629  0.4464 -1.3645  2.6155
   88SOL     OW  262   0.442   2.384   1.317  0.1227  0.0216  0.1107
   88SOL    HW1  263   0.508   2.313   1.292 -2.4580  0.7642 -0.0032
   88SOL    HW2  264   0.348   2.343   1.313 -1.3643 -3.0928  2.6182
   89SOL     OW  265   0.853   0.823   1.729  0.1371  0.0482 -0.9506
   89SOL    HW1  266   0.898   0.748   1.676  0.2500  0.8866 -0.6956
   89SOL    HW2  267   0.793   0.775   1.804 -3.6650 -1.1506  0.2012
   90SOL     OW  268   2.946   1.620   1.541 -0.1408 -0.0800 -0.1789
   90SOL    HW1  269   2.889   1.662   1.473  1.0640 -0.6746 -0.8507
   90SOL    HW2  270   3.023   1.568   1.499  2.3169  1.6396  2.9851
   91SOL     OW  271   1.329   1.144   0.697  0.6033 -0.4926 -1.0222
   91SOL    HW1  272   1.327   1.179   0.793  1.5701 -1.2604 -0.5348
   91SOL    HW2  273   1.305   1.046   0.704  0.3234  0.5513  0.1518
   92SOL     OW  274   2.450   0.590   0.970  0.4770  0.0455  0.5378
   92SOL    HW1  275   2.380   0.636   1.028 -2.1853 -2.5796 -3.0007
   92SOL    HW2  276   2.453   0.636   0.882  0.3536  0.5493  1.4160
   93SOL     OW  277   1.844   0.771   2.910  0.1209  0.0287 -0.0497
   93SOL    HW1  278   1.782   0.732   2.979  0.1312  4.1238  0.2520
   93SOL    HW2  279   1.860   0.719   2.828  1.4541  0.5284  3.1612
   94SOL     OW  280   2.340   1.543   2.271 -0.1499  0.0005  0.3257
   94SOL    HW1  281   2.300   1.551   2.175 -0.1397  0.3338  1.7543
   94SOL    HW2  282   2.335   1.631   2.323  2.7769 -1.6377 -0.7785
   95SOL     OW  283   2.058   0.463   0.996  0.5858 -0.1326 -0.7359
   95SOL    HW1  284   2.141   0.488   1.046 -0.6334  1.3047  0.8990
   95SOL    HW2  285   1.976   0.466   1.058 -2.0108 -0.2942  0.6821
   96SOL     OW  286   2.635   0.174   2.191  0.2242 -0.2139  0.4173
   96SOL    HW1  287   2.624   0.131   2.099  0.4078 -1.1201  0.1801
   96SOL    HW2  288   2.626   0.277   2.188  1.4586  0.1362 -1.3300
   97SOL     OW  289   2.339   0.252   1.333  0.0655 -0.1968 -0.2049
   97SOL    HW1  290   2.351   0.332   1.389  0.2844 -0.8509 -0.9013
   97SOL    HW2  291   2.240   0.221   1.348  0.1409 -0.1950  2.1595
   98SOL     OW  292   1.605   2.495   1.640  0.8793  0.0340 -0.1460
   98SOL    HW1  293   1.530   2.449   1.696 -1.1022  0.3681  0.0348
   98SOL    HW2  294   1.613   2.450   1.551 -1.9200  0.2066  1.5453
   99SOL     OW  295   2.452   2.080   1.522 -0.7676 -0.4234  0.7593
   99SOL    HW1  296   2.456   2.174   1.483  1.8688 -0.8568  1.5613
   99SOL    HW2  297   2.381   2.059   1.590  0.1704 -0.2476  2.4416
  100SOL     OW  298   0.684   0.969   2.775 -0.3113  0.6427  0.2478
  100SOL    HW1  299   0.624   0.929   2.848 -2.0990 -0.5144 -0.8118
  100SOL    HW2  300   0.635   1.020   2.702  1.5863 -1.1911 -0.7265
  101SOL     OW  301   1.942   0.480   2.876 -0.5080  0.5353  0.4725
  101SOL    HW1  302   1.971   0.383   2.888 -0.1525 -3.5640  1.3126
  101SOL    HW2  303   1.950   0.521   2.969 -0.5930  0.0327  0.0667
  102SOL     OW  304   0.171   0.677   1.795 -0.1734 -0.1055  0.2593
  102SOL    HW1  305   0.142   0.662   1.890  0.2191 -0.7746 -2.5690
  102SOL    HW2  306   0.186   0.585   1.752  1.8708 -0.1607  0.7579
  103SOL     OW  307   2.805   0.860   2.637 -0.2490 -0.2684 -0.2097
  103SOL    HW1  308   2.807   0.960   2.612 -1.9593  1.3352  0.4649
  103SOL    HW2  309   2.899   0.838   2.678  1.5145  4.6399  1.4738
  104SOL     OW  310   0.601   0.700   2.660 -0.1316  0.2798  0.4291
  104SOL    HW1  311   0.663   0.726   2.580  0.4875  1.6689 -0.7189
  104SOL    HW2  312   0.578   0.603   2.647  2.6079  2.0283 -1.2637
  105SOL     OW  313   2.408   1.693   1.807 -0.5221  0.0453  0.4788
  105SOL    HW1  314   2.312   1.680   1.773  1.2874  1.1311 -1.7435
  105SOL    HW2  315   2.450   1.617   1.861  2.3956  2.2355  3.3612
  106SOL     OW  316   1.944   0.431   0.528 -0.3671 -0.0776 -0.0889
  106SOL    HW1  317   1.960   0.487   0.446 -0.4490  0.0157  0.8991
  106SOL    HW2  318   1.845   0.433   0.552  0.5297  1.1442  0.5765
  107SOL     OW  319   0.448   1.468   0.782  0.0245 -0.0733 -0.1517
  107SOL    HW1  320   0.410   1.532   0.852 -1.7304 -0.4319 -0.2776
  107SOL    HW2  321   0.525   1.509   0.730  0.3063 -1.6439 -0.1554
  108SOL     OW  322   2.744   2.496   1.516 -0.0162  0.2499  0.2865
  108SOL    HW1  323   2.808   2.424   1.547 -1.2470  0.8152 -2.5702
  108SOL    HW2  324   2.778   2.530   1.425  0.1194 -1.6081 -0.6463
  109SOL     OW  325   2.075   0.045   0.750 -0.1431  0.0865  0.1095
  109SOL    HW1  326   2.164   0.093   0.719  1.7412 -0.4388 -0.0769
  109SOL    HW2  327   2.103   3.042   0.794  0.3597 -1.5223  2.7658
  110SOL     OW  328   0.335   1.970   2.591 -0.1115  0.0504 -0.0247
  110SOL    HW1  329   0.306   1.979   2.493 -0.7321  0.1949 -0.9052
  110SOL    HW2  330   0.420   1.914   2.604  0.2983  0.0671 -0.1252
  111SOL     OW  331   1.481   2.719   1.650 -0.1001  0.6208  0.2981
  111SOL    HW1  332   1.550   2.644   1.645  1.1147 -0.1120  0.3870
  111SOL    HW2  333   1.435   2.725   1.558 -1.6773  1.0221  1.6652
  112SOL     OW  334   1.897   2.536   3.046 -0.0108  0.4449 -0.1554
  112SOL    HW1  335   1.851   2.582   2.972 -0.3007  0.1233 -1.2335
  112SOL    HW2  336   1.826   2.500   0.027 -0.0492  0.0315 -1.2174
  113SOL     OW  337   1.656   2.373   1.372  0.6039 -0.1843  0.0631
  113SOL    HW1  338   1.657   2.440   1.300  1.2321 -0.8877  0.0731
  113SOL    HW2  339   1.670   2.279   1.334  0.4009  0.8805 -0.8742
  114SOL     OW  340   2.787   0.929   0.745 -0.0786  0.0539  0.0858
  114SOL    HW1  341   2.697   0.911   0.793 -0.6705 -1.3814  1.6642
  114SOL    HW2  342   2.825   0.846   0.701 -0.7917 -3.4109 -1.8341
  115SOL     OW  343   0.513   0.941   2.997 -0.1346  0.0336 -0.4884
  115SOL    HW1  344   0.438   1.010   2.972 -0.4426  1.3212 -0.0844
  115SOL    HW2  345   0.476   0.872   3.061  0.6654 -0.6517 -1.9214
  116SOL     OW  346   2.603   1.587   2.206  0.7387 -0.4040 -0.2090
  116SOL    HW1  347   2.660   1.503   2.196 -0.6980  0.2239 -1.3239
  116SOL    HW2  348   2.513   1.571   2.254 -2.4777 -4.9418  2.0354
  117SOL     OW  349   0.082   2.467   0.648  0.3121  0.1599  0.1127
  117SOL    HW1  350   0.169   2.418   0.644  0.4941  0.2880  0.2760
  117SOL    HW2  351   3.082   2.406   0.668 -2.0889  2.4351  0.1662
  118SOL     OW  352   0.817   1.876   2.358 -0.2780 -0.3998  0.0759
  118SOL    HW1  353   0.843   1.945   2.427  1.4903  1.4496  0.9537
  118SOL    HW2  354   0.863   1.891   2.265 -1.8309  0.0077 -1.6650
  119SOL     OW  355   0.105   2.233   2.772 -0.3281 -0.1846 -0.5559
  119SOL    HW1  356   0.130   2.157   2.837 -0.8767  0.0591 -0.3870
  119SOL    HW2  357   0.012   2.228   2.735  1.1098  0.0406 -0.5709
  120SOL     OW  358   1.113   0.699   2.870 -0.1335  0.0853  0.7964
  120SOL    HW1  359   1.145   0.789   2.908 -1.0520  1.5035 -0.6855
  120SOL    HW2  360   1.192   0.632   2.862  2.5130 -1.6334  2.6825
  121SOL     OW  361   1.261   2.814   0.933 -0.1484  0.2415 -1.0123
  121SOL    HW1  362   1.200   2.866   0.869  2.6027 -0.6309  3.2358
  121SOL    HW2  363   1.325   2.876   0.983 -0.8728  0.1010 -1.8115
  122SOL     OW  364   2.460   2.394   1.614 -0.1431 -0.5573  0.2824
  122SOL    HW1  365   2.378   2.448   1.592 -1.7569  0.7545 -2.0979
  122SOL    HW2  366   2.542   2.439   1.574  0.1605  2.1636 -2.0452
  123SOL     OW  367   0.437   2.647   0.748 -0.2850  0.2798 -0.0273
  123SOL    HW1  368   0.364   2.604   0.694 -0.0137  1.9551 -1.0676
  123SOL    HW2  369   0.445   2.585   0.829  2.1226 -1.8572 -0.0358
  124SOL     OW  370   2.211   0.918   2.861 -0.5475 -0.1128 -0.1389
  124SOL    HW1  371   2.183   0.946   2.765 -1.6109  0.2481  1.3968
  124SOL    HW2  372   2.269   0.831   2.858  0.5597 -0.7416  0.4216
  125SOL     OW  373   0.601   0.958   0.422 -0.4551  0.3141  0.1562
  125SOL    HW1  374   0.557   0.915   0.502 -0.7724  2.7772 -4.1173
  125SOL    HW2  375   0.701   0.944   0.426  0.4211 -1.3119 -1.3232
  126SOL     OW  376   0.049   1.245   0.507  0.1584  0.5391  0.4285
  126SOL    HW1  377   0.087   1.271   0.413 -1.8593  2.2536 -3.9533
  126SOL    HW2  378   0.117   1.228   0.582 -1.3970 -0.4243 -0.0005
  127SOL     OW  379   0.451   1.678   2.218 -0.3161 -0.0610  0.0081
  127SOL    HW1  380   0.440   1.700   2.316 -0.7474  2.2054  0.4720
  127SOL    HW2  381   0.373   1.708   2.158  0.7688  0.7779  0.3540
  128SOL     OW  382   0.768   1.076   3.083  0.6965 -0.1088  0.5484
  128SOL    HW1  383   0.846   1.077   3.016 -0.9407 -0.4348  0.5291
  128SOL    HW2  384   0.690   1.020   3.052 -0.6377 -3.1158 -0.4674
  129SOL     OW  385   2.639   1.331   0.945  0.1219 -0.4535 -0.3128
  129SOL    HW1  386   2.571   1.264   0.972 -0.1138  0.1697 -2.0092
  129SOL    HW2  387   2.715   1.284   0.897 -0.5688  2.1942 -1.1520
  130SOL     OW  388   2.532   1.097   1.505 -0.0160  0.2257  0.6476
  130SOL    HW1  389   2.613   1.054   1.552 -0.7225 -0.8611  0.5097
  130SOL    HW2  390   2.533   1.198   1.502  1.6716 -1.2052 -2.2551
  131SOL     OW  391   2.948   3.069   2.820 -0.3074  0.2245  0.0901
  131SOL    HW1  392   2.888   3.044   2.901 -0.7100  1.7638  0.4949
  131SOL    HW2  393   3.007   2.997   2.780  0.2192  1.4682 -1.5353
  132SOL     OW  394   0.194   1.592   1.113 -0.5564 -0.1223 -0.1378
  132SOL    HW1  395   0.275   1.619   1.054  1.2509  1.2421 -3.5378
  132SOL    HW2  396   0.111   1.634   1.076  0.7968 -0.8383  2.3517
  133SOL     OW  397   0.845   0.487   1.221  0.1540  0.2517  0.6445
  133SOL    HW1  398   0.887   0.561   1.278  2.2624  1.3462  0.3219
  133SOL    HW2  399   0.750   0.465   1.243 -0.2872 -1.7982  0.0426
  134SOL     OW  400   0.229   1.796   0.193  0.4267 -0.2857 -0.2480
  134SOL    HW1  401   0.173   1.816   0.110  1.4026 -1.8945  1.3463
  134SOL    HW2  402   0.224   1.876   0.255  0.8062 -0.6097  0.7413
  135SOL     OW  403   1.882   0.825   1.460  0.1593 -0.0330  0.1593
  135SOL    HW1  404   1.808   0.791   1.529 -1.0756 -1.3409  3.3912
  135SOL    HW2  405   1.851   0.789   1.369 -0.2847 -0.9999  0.0992
  136SOL     OW  406   0.200   0.917   0.492 -0.1403 -0.7132  0.3136
  136SOL    HW1  407   0.279   0.985   0.494  1.2947 -0.2602 -1.6009
  136SOL    HW2  408   0.129   0.950   0.430 -0.1580  0.5062  1.8859
  137SOL     OW  409   2.854   1.177   0.835  0.6860 -0.2617 -0.3654
  137SOL    HW1  410   2.845   1.082   0.805 -1.7865  1.7721 -0.5122
  137SOL    HW2  411   2.948   1.216   0.831  1.3906  1.0360 -1.9529
  138SOL     OW  412   1.688   1.038   0.993 -0.0286  0.0678 -0.2970
  138SOL    HW1  413   1.677   0.963   1.060  0.2108  1.1981 -2.6920
  138SOL    HW2  414   1.772   1.096   1.009 -0.6593  0.9885 -0.1197
  139SOL     OW  415   1.591   2.911   3.026  0.3070 -0.2073 -0.2090
  139SOL    HW1  416   1.679   2.937   3.074  0.0116 -0.0254  1.8521
  139SOL    HW2  417   1.551   2.827   3.061  2.2240  1.6416  1.1829
  140SOL     OW  418   1.390   1.555   1.689  0.7860  0.3525 -0.3042
  140SOL    HW1  419   1.478   1.561   1.739  0.7954 -0.4777 -2.0953
  140SOL    HW2  420   1.354   1.458   1.676 -0.1472 -1.0377 -3.3207
  141SOL     OW  421   1.659   2.057   0.386 -0.2310  0.3757 -0.0268
  141SOL    HW1  422   1.755   2.042   0.356  1.4789  1.3774 -0.1556
  141SOL    HW2  423   1.591   1.993   0.344  0.4826 -1.4296  2.4887
  142SOL     OW  424   0.875   0.558   3.014 -0.3185  0.6620 -0.5560
  142SOL    HW1  425   0.838   0.602   0.018 -0.6279 -0.6743  1.7621
  142SOL    HW2  426   0.973   0.590   3.003  0.5297 -1.6492  0.3652
  143SOL     OW  427   0.478   2.367   0.042  0.1310  0.4865  0.4007
  143SOL    HW1  428   0.484   2.278   3.069 -1.2755 -1.4165  0.2480
  143SOL    HW2  429   0.383   2.383   0.082 -1.6141  1.1164  1.9230
  144SOL     OW  430   1.430   2.946   1.130  0.4840 -0.0135 -0.1700
  144SOL    HW1  431   1.425   2.997   1.217  1.1410  0.6233 -0.0947
  144SOL    HW2  432   1.464   2.851   1.146  0.4058  1.0388  1.0684
  145SOL     OW  433   2.194   1.100   0.305  0.2669 -0.4716 -0.4794
  145SOL    HW1  434   2.230   1.093   0.210 -1.5727 -0.2913  2.9547
  145SOL    HW2  435   2.091   1.086   0.307 -2.7886 -1.0841  0.5389
  146SOL     OW  436   0.139   2.162   0.822 -0.3889 -0.1593 -0.2603
  146SOL    HW1  437   0.134   2.067   0.855  0.3952  2.7780  2.3467
  146SOL    HW2  438   0.047   2.210   0.824 -2.9826  2.1796 -1.7941
  147SOL     OW  439   2.295   3.017   1.603 -0.3611 -0.2724 -0.0172
  147SOL    HW1  440   2.338   2.939   1.651 -0.6408 -0.6582 -0.1168
  147SOL    HW2  441   2.357   3.055   1.528 -1.3955  0.7322 -2.5525
  148SOL     OW  442   1.443   2.851   1.879 -0.4595  0.2775  0.8951
  148SOL    HW1  443   1.451   2.803   1.786 -0.6200 -0.7065 -0.8193
  148SOL    HW2  444   1.351   2.838   1.917  0.7072 -0.2736 -0.7107
  149SOL     OW  445   1.799   0.724   2.193  0.4002  0.0175 -0.2909
  149SOL    HW1  446   1.840   0.681   2.270 -2.3970  1.3116  2.0653
  149SOL    HW2  447   1.856   0.716   2.110  0.7596 -0.2406  0.2178
  150SOL     OW  448   0.196   2.981   0.165 -0.0019 -0.4831 -0.4474
  150SOL    HW1  449   0.140   3.026   0.236  0.9682 -1.9610 -0.0271
  150SOL    HW2  450   0.292   2.981   0.196  2.0678  1.5879  2.8528
  151SOL     OW  451   0.331   2.212   0.332  0.1572  0.0217  0.0675
  151SOL    HW1  452   0.328   2.303   0.382 -2.6924  1.5906  0.7729
  151SOL    HW2  453   0.276   2.239   0.248 -1.1366  3.2537  0.3076
  152SOL     OW  454   2.930   2.950   0.804  0.0114  0.3684  0.2162
  152SOL    HW1  455   3.026   2.944   0.838 -0.5621 -1.0037  2.7354
  152SOL    HW2  456   2.864   2.966   0.880  0.3317 -0.4779  1.5194
  153SOL     OW  457   2.395   3.052   0.907 -0.3147 -0.0749  0.4612
  153SOL    HW1  458   2.317   2.987   0.906  1.2283 -1.2882 -0.8605
  153SOL    HW2  459   2.383   0.047   0.848  1.6799  0.4930  1.3494
  154SOL     OW  460   0.805   0.433   1.893 -0.2771  0.2644  0.0352
  154SOL    HW1  461   0.844   0.426   1.984  0.2045 -0.3395  0.3388
  154SOL    HW2  462   0.775   0.532   1.878  0.8061  1.1053  0.3893
  155SOL     OW  463   0.005   1.110   1.093  0.2447 -0.1476  0.4154
  155SOL    HW1  464   0.002   1.191   1.032  2.0813 -1.2063  2.6964
  155SOL    HW2  465   3.020   1.112   1.163  0.5046  0.3200 -1.4120
  156SOL     OW  466   2.987   2.082   3.082 -0.0386  0.1175 -0.5057
  156SOL    HW1  467   2.982   2.118   0.089  0.4747  1.3199 -4.3364
  156SOL    HW2  468   2.890   2.075   3.036 -2.0258 -2.7422 -0.9255
  157SOL     OW  469   0.827   0.665   0.176 -0.4005 -0.1598  0.4485
  157SOL    HW1  470   0.900   0.610   0.222 -0.8037  0.1847  0.5412
  157SOL    HW2  471   0.867   0.760   0.175  1.2611 -0.1264 -1.0987
  158SOL     OW  472   2.403   0.031   2.574  0.5785  0.3500  0.1848
  158SOL    HW1  473   2.422   3.072   2.664  0.8642 -0.1144  1.1683
  158SOL    HW2  474   2.300   0.049   2.563 -0.9592  1.0980 -1.2897
  159SOL     OW  475   0.852   0.331   0.418 -0.2040 -0.4038 -0.5007
  159SOL    HW1  476   0.834   0.272   0.500  0.4419  0.5929  1.1634
  159SOL    HW2  477   0.953   0.324   0.396  0.4833 -1.3162  2.3828
  160SOL     OW  478   1.344   1.670   2.666  0.4481  0.1848  0.3288
  160SOL    HW1  479   1.315   1.706   2.574  0.3441 -2.4705 -1.9613
  160SOL    HW2  480   1.264   1.614   2.701  3.8815  1.5138 -2.2212
  161SOL     OW  481   2.859   1.476   2.478  0.0949 -1.1078 -0.1238
  161SOL    HW1  482   2.767   1.519   2.510 -2.5614  1.7888  1.5423
  161SOL    HW2  483   2.921   1.463   2.561 -1.7160  0.1108 -0.2488
  162SOL     OW  484   0.492   2.453   1.573  0.0629  0.7307 -0.0806
  162SOL    HW1  485   0.465   2.434   1.476  0.6849 -1.7483 -1.5119
  162SOL    HW2  486   0.494   2.551   1.595 -1.0109 -0.6820  1.0667
  163SOL     OW  487   2.381   0.456   2.329 -0.2327 -0.1060  0.1262
  163SOL    HW1  488   2.356   0.553   2.346  1.7781 -3.5101 -0.1611
  163SOL    HW2  489   2.401   0.410   2.418 -1.8316  1.5029  0.1609
  164SOL     OW  490   2.472   1.213   0.569 -0.8580  0.2135 -0.5549
  164SOL    HW1  491   2.438   1.308   0.561 -0.1990  1.3895 -0.7334
  164SOL    HW2  492   2.543   1.192   0.641  2.5768 -2.2936  0.1344
  165SOL     OW  493   0.255   0.257   1.519 -0.2016 -0.1897 -0.1791
  165SOL    HW1  494   0.168   0.210   1.539  1.5922  2.5939 -1.0923
  165SOL    HW2  495   0.323   0.189   1.484 -2.7685  0.3359  0.4676
  166SOL     OW  496   2.087   1.046   0.776  0.6593  0.3962 -0.5323
  166SOL    HW1  497   2.052   0.958   0.809  1.2957 -1.5916  0.7553
  166SOL    HW2  498   2.164   1.031   0.712 -0.5875 -0.3184 -1.5534
  167SOL     OW  499   0.274   0.687   0.384  0.0039 -0.0944 -0.6128
  167SOL    HW1  500   0.207   0.649   0.322  2.4999  1.0252 -2.3772
  167SOL    HW2  501   0.245   0.783   0.417  1.9431  2.1783  0.2704
  168SOL     OW  502   1.594   2.861   2.150 -0.4733  0.1810  0.0731
  168SOL    HW1  503   1.584   2.841   2.052  1.2567 -1.0036  0.0834
  168SOL    HW2  504   1.667   2.926   2.160 -2.0263  1.1150 -0.5212
  169SOL     OW  505   0.852   1.153   0.992  0.3326  0.1435  0.2231
  169SOL    HW1  506   0.777   1.105   0.939  0.5341 -2.6557  0.3177
  169SOL    HW2  507   0.850   1.125   1.090  0.9452  3.8656 -2.1567
  170SOL     OW  508   3.022   0.559   1.278  0.3116 -0.0865 -0.1142
  170SOL    HW1  509   0.012   0.509   1.231  0.3765 -0.2398  1.8338
  170SOL    HW2  510   2.955   0.493   1.300  3.1058  1.7357 -0.1968
  171SOL     OW  511   1.149   2.523   2.544 -0.8946 -0.5969  0.4205
  171SOL    HW1  512   1.198   2.435   2.522  1.8528 -3.7951 -0.4620
  171SOL    HW2  513   1.150   2.574   2.452  1.4750 -1.0630 -2.2410
  172SOL     OW  514   0.234   2.875   1.364 -0.0945 -0.0444 -0.2915
  172SOL    HW1  515   0.317   2.836   1.315 -0.7286  0.1495 -2.1959
  172SOL    HW2  516   0.180   2.937   1.301 -0.4294  2.4335 -2.4884
  173SOL     OW  517   1.424   0.760   2.706 -0.4055  0.2843  0.3323
  173SOL    HW1  518   1.346   0.701   2.665  0.0166 -0.6840 -1.1737
  173SOL    HW2  519   1.510   0.720   2.671 -2.1593 -1.9015  1.1243
  174SOL     OW  520   1.753   0.128   2.724 -0.5797 -0.6985  0.5074
  174SOL    HW1  521   1.742   0.210   2.664  0.3576  1.3317  1.8006
  174SOL    HW2  522   1.692   0.047   2.704 -0.6540 -1.8431 -0.6327
  175SOL     OW  523   1.913   2.343   0.237  0.3789  0.1709 -0.4186
  175SOL    HW1  524   1.895   2.245   0.240 -0.6678  1.5382  0.3858
  175SOL    HW2  525   2.003   2.360   0.286  0.7004  1.4208  2.0158
  176SOL     OW  526   2.010   0.232   2.892 -0.0190 -0.3088  0.0503
  176SOL    HW1  527   2.053   0.158   2.945 -0.1842 -1.0578 -0.2387
  176SOL    HW2  528   1.935   0.200   2.831 -2.5356 -2.8794 -0.9289
  177SOL     OW  529   1.064   1.816   0.608  0.0544  0.2694  0.3927
  177SOL    HW1  530   1.054   1.821   0.506 -0.1165 -0.4006 -1.4276
  177SOL    HW2  531   1.118   1.890   0.650 -0.8595  0.7646 -1.0290
  178SOL     OW  532   2.577   2.245   2.875  0.1954 -0.7537 -0.4284
  178SOL    HW1  533   2.508   2.285   2.811  0.3342 -2.8883 -0.3694
  178SOL    HW2  534   2.658   2.308   2.878 -0.9178  0.2014  1.7744
  179SOL     OW  535   0.370   2.898   2.798 -0.2924  0.2274 -0.5075
  179SOL    HW1  536   0.413   2.810   2.763 -0.2526  0.7934 -2.7205
  179SOL    HW2  537   0.315   2.945   2.727  2.7475 -0.4887 -0.7524
  180SOL     OW  538   1.537   1.280   0.927 -0.2080 -0.1773 -0.0756
  180SOL    HW1  539   1.438   1.290   0.926  0.4791 -0.8618  0.4314
  180SOL    HW2  540   1.563   1.180   0.921  0.1261  0.7306  1.9220
  181SOL     OW  541   2.137   0.939   2.112  0.2149 -0.2236 -0.2015
  181SOL    HW1  542   2.049   0.961   2.165 -2.7486  0.3364  0.9985
  181SOL    HW2  543   2.113   0.935   2.010 -0.3965 -2.2198 -1.4169
  182SOL     OW  544   2.982   2.750   2.315 -0.1930  0.8324 -0.0346
  182SOL    HW1  545   2.943   2.806   2.243  2.1986  0.9605 -0.9371
  182SOL    HW2  546   3.080   2.716   2.288  2.6623 -0.4400 -0.6050
  183SOL     OW  547   1.252   0.821   2.189  0.9879  0.6072  0.4637
  183SOL    HW1  548   1.345   0.782   2.179  0.2486 -0.4921 -0.4574
  183SOL    HW2  549   1.189   0.780   2.118 -0.4372 -1.3425  0.1838
  184SOL     OW  550   0.453   1.067   1.693  0.1279  0.3492  0.5212
  184SOL    HW1  551   0.448   1.139   1.625 -0.0773 -1.8318  1.7651
  184SOL    HW2  552   0.362   1.031   1.703  0.7981 -1.5914 -1.8683
  185SOL     OW  553   1.968   0.605   0.283  0.0039  0.1876  0.6336
  185SOL    HW1  554   1.870   0.627   0.282  2.5016 -0.9906 -1.2065
  185SOL    HW2  555   2.026   0.671   0.335 -0.9261 -0.8951  0.8883
  186SOL     OW  556   0.722   2.474   0.052  0.5375  0.0819  0.2070
  186SOL    HW1  557   0.624   2.443   0.049  1.0878  0.6541  1.7816
  186SOL    HW2  558   0.751   2.527   3.051 -0.2960 -1.0385  0.5317
  187SOL     OW  559   2.511   1.158   0.126 -0.1016  0.1085  0.3354
  187SOL    HW1  560   2.418   1.129   0.094  0.1365 -0.9267 -0.6049
  187SOL    HW2  561   2.526   1.136   0.227 -1.9666 -0.4678  2.0831
  188SOL     OW  562   0.040   1.520   0.781  0.2296 -0.5160  0.2910
  188SOL    HW1  563   0.005   1.560   0.698  0.3936  2.0225  3.1714
  188SOL    HW2  564   0.070   1.593   0.843 -2.7797 -2.5361 -2.9675
  189SOL     OW  565   2.720   0.121   0.288 -0.5265 -0.0195  0.0785
  189SOL    HW1  566   2.810   0.107   0.246 -0.4058 -3.4628  0.9893
  189SOL    HW2  567   2.665   0.034   0.293 -0.8486 -0.3566  0.0363
  190SOL     OW  568   1.365   1.507   2.063 -0.4955  0.5224  0.1740
  190SOL    HW1  569   1.266   1.533   2.061 -4.2269 -0.5780  1.3928
  190SOL    HW2  570   1.366   1.402   2.066 -1.2768 -1.1348  1.4505
  191SOL     OW  571   2.979   0.424   1.643 -0.3824 -0.1475  0.8089
  191SOL    HW1  572   2.947   0.392   1.551 -2.7061  2.1264  0.6474
  191SOL    HW2  573   2.906   0.405   1.712  0.3060 -0.0355  0.8144
  192SOL     OW  574   1.898   1.463   1.120  0.5929  0.1863 -0.1995
  192SOL    HW1  575   1.978   1.445   1.183  0.4337  2.2078 -0.6099
  192SOL    HW2  576   1.909   1.545   1.063  2.5975 -1.2323  0.6752
  193SOL     OW  577   1.139   0.632   1.027  0.0569 -0.1766  0.1157
  193SOL    HW1  578   1.072   0.619   0.949  3.3963 -0.8086 -0.8042
  193SOL    HW2  579   1.104   0.695   1.102 -1.1557 -2.6154  1.5051
  194SOL     OW  580   1.237   2.401   1.552 -0.0114 -0.2714  0.8413
  194SOL    HW1  581   1.211   2.482   1.498 -1.2063  0.2369  1.6586
  194SOL    HW2  582   1.201   2.422   1.650 -1.5072 -1.0270  5.4393
  195SOL     OW  583   2.377   0.417   2.774  0.4416  0.3063 -0.1760
  195SOL    HW1  584   2.284   0.451   2.757  0.9366 -1.1588  0.3449
  195SOL    HW2  585   2.376   0.356   2.852  0.4000 -0.3926 -0.9411
  196SOL     OW  586   1.150   2.422   1.808  0.1148 -0.2840  0.7140
  196SOL    HW1  587   1.097   2.473   1.874  1.1542  0.3431 -1.1301
  196SOL    HW2  588   1.103   2.340   1.770 -0.1704 -0.3478  2.1913
  197SOL     OW  589   0.842   2.866   0.898 -0.4170  0.2965 -0.5344
  197SOL    HW1  590   0.796   2.956   0.907 -0.4232  0.1653 -0.6132
  197SOL    HW2  591   0.913   2.863   0.825 -3.1804 -1.6413  1.6108
  198SOL     OW  592   0.963   0.806   0.699  0.6611 -0.7152  0.6080
  198SOL    HW1  593   0.907   0.792   0.784 -0.9387 -0.0371  2.0836
  198SOL    HW2  594   0.903   0.840   0.625 -0.8924 -0.0481 -2.0567
  199SOL     OW  595   0.052   2.909   1.882  0.3903  0.3619  0.3997
  199SOL    HW1  596   3.074   2.901   1.804 -0.1836 -1.8871 -0.4235
  199SOL    HW2  597   0.079   2.817   1.912  0.0232  1.8626 -1.8887
  200SOL     OW  598   2.113   1.992   2.307  0.5582  0.2245  0.3134
  200SOL    HW1  599   2.077   1.902   2.280  0.2047  1.1678 -1.1187
  200SOL    HW2  600   2.167   2.032   2.229  0.8205  0.1198 -1.2133
  201SOL     OW  601   0.197   2.197   1.389  0.0522 -0.7355 -0.7588
  201SOL    HW1  602   0.142   2.211   1.304 -1.3293 -1.0101 -0.7284
  201SOL    HW2  603   0.159   2.265   1.460  2.4310 -1.1989  0.6846
  202SOL     OW  604   2.505   3.078   0.524  0.0666 -0.0197  0.0688
  202SOL    HW1  605   2.458   0.054   0.453 -0.5726  1.7556  0.7466
  202SOL    HW2  606   2.571   3.014   0.478  0.6725  1.0366 -0.2886
  203SOL     OW  607   1.188   2.208   2.094 -0.6191  0.3633  0.1848
  203SOL    HW1  608   1.226   2.150   2.020 -1.4881 -2.6486  3.0021
  203SOL    HW2  609   1.262   2.264   2.136 -0.0091 -0.8527  1.2927
  204SOL     OW  610   1.284   2.046   1.893  0.2345  0.1203  0.4868
  204SOL    HW1  611   1.360   2.092   1.838  2.5868  1.1413 -2.7797
  204SOL    HW2  612   1.284   1.946   1.889  0.4091 -0.6723 -1.1704
  205SOL     OW  613   1.337   1.768   1.862  0.2552  0.1054 -0.3722
  205SOL    HW1  614   1.350   1.684   1.802 -3.0282 -0.9324  1.4817
  205SOL    HW2  615   1.260   1.748   1.928 -2.7070 -1.6588 -0.2199
  206SOL     OW  616   0.335   0.803   2.615 -0.5474 -0.0478 -0.2937
  206SOL    HW1  617   0.434   0.779   2.628 -1.6986  1.1936 -3.4722
  206SOL    HW2  618   0.339   0.866   2.534  0.0054 -0.7604  1.4411
  207SOL     OW  619   0.894   0.045   1.735  0.1631  0.5718  0.3557
  207SOL    HW1  620   0.848   0.137   1.743  1.1361  0.3981  0.7852
  207SOL    HW2  621   0.993   0.047   1.693  2.9712 -4.0127 -1.7165
  208SOL     OW  622   0.764   2.406   1.881  0.1631 -0.0469  0.0956
  208SOL    HW1  623   0.765   2.506   1.891  1.3412 -1.8444  1.8082
  208SOL    HW2  624   0.751   2.386   1.784 -0.8360  0.1840  2.3584
  209SOL     OW  625   1.314   0.577   0.010  0.0472 -0.3333  0.4352
  209SOL    HW1  626   1.369   0.659   3.072  3.2159  0.8755 -2.3679
  209SOL    HW2  627   1.316   0.518   3.012  0.6531 -0.8922  1.5780
  210SOL     OW  628   3.077   0.439   0.665  0.3103  0.5066 -0.5017
  210SOL    HW1  629   2.986   0.487   0.657 -0.9867  0.8539 -1.4114
  210SOL    HW2  630   0.027   0.426   0.568  0.5790  0.0919 -0.2140
  211SOL     OW  631   0.525   0.670   1.325  0.1456 -0.4456  0.3593
  211SOL    HW1  632   0.566   0.577   1.311 -0.1502  3.1978  0.5461
  211SOL    HW2  633   0.447   0.670   1.392  1.1961 -0.3542 -1.9375
  212SOL     OW  634   1.133   1.644   1.204  0.2701 -0.0438 -0.2062
  212SOL    HW1  635   1.060   1.710   1.232  1.6433  1.9915  1.3665
  212SOL    HW2  636   1.159   1.577   1.273 -0.3255  1.3757  0.1683
  213SOL     OW  637   1.894   0.049   1.638  0.1556  0.1105  0.2828
  213SOL    HW1  638   1.978   0.080   1.689  0.2328  0.5740  0.5346
  213SOL    HW2  639   1.886   3.033   1.625  1.5757 -1.3512  1.9403
  214SOL     OW  640   0.945   2.387   2.671 -0.3417 -0.2617  0.4279
  214SOL    HW1  641   0.988   2.362   2.761  0.6639 -0.0623  0.8611
  214SOL    HW2  642   1.012   2.422   2.602  1.6640  1.8138  0.8853
  215SOL     OW  643   2.704   1.640   1.170 -0.2707  0.3005  0.4652
  215SOL    HW1  644   2.764   1.676   1.247  1.8790 -0.2228 -0.2002
  215SOL    HW2  645   2.738   1.681   1.082  0.7367  0.2542  0.9123
  216SOL     OW  646   0.324   0.914   2.066 -0.1634  0.0359 -0.1055
  216SOL    HW1  647   0.275   0.823   2.073  0.0768  2.3342 -0.7253
  216SOL    HW2  648   0.253   0.988   2.089 -2.2638  2.3059  0.9168
  217SOL     OW  649   2.962   0.031   0.156  0.0439  0.3670 -0.5383
  217SOL    HW1  650   3.017   0.108   0.128 -0.5107 -0.5590  0.6425
  217SOL    HW2  651   3.013   3.062   0.227  0.6859 -2.6814 -1.4758
  218SOL     OW  652   1.660   1.889   1.373  0.0239  0.2536 -0.0627
  218SOL    HW1  653   1.580   1.857   1.425  3.9347 -1.8414 -1.8367
  218SOL    HW2  654   1.661   1.857   1.276 -0.1339 -2.4191  0.1523
  219SOL     OW  655   1.711   0.345   3.018  0.5074 -0.1214  0.2011
  219SOL    HW1  656   1.707   0.367   2.919  0.9922  0.4585 -1.0373
  219SOL    HW2  657   1.648   0.268   3.043 -0.4373 -0.3744 -3.2051
  220SOL     OW  658   1.503   2.002   0.983 -0.2283  0.3195 -0.4567
  220SOL    HW1  659   1.545   2.092   0.947  2.6775  1.6838  1.9704
  220SOL    HW2  660   1.402   2.022   1.002  1.4046  0.2503 -1.4300
  221SOL     OW  661   0.106   0.571   0.213 -0.3219  0.2670 -0.5629
  221SOL    HW1  662   0.105   0.631   0.131 -0.5819 -1.3195 -0.9674
  221SOL    HW2  663   0.114   0.473   0.192 -0.2140 -1.3036  3.0363
  222SOL     OW  664   0.805   2.721   1.567 -0.7183 -0.2661  0.6095
  222SOL    HW1  665   0.722   2.761   1.522  0.8189  0.0197  2.9073
  222SOL    HW2  666   0.818   2.625   1.539 -2.1188 -2.3522  0.0181
  223SOL     OW  667   1.280   0.440   2.845 -0.2468 -0.0836 -0.1112
  223SOL    HW1  668   1.360   0.388   2.806 -1.2166 -0.9457  1.3233
  223SOL    HW2  669   1.194   0.391   2.827 -0.8354  0.7493  0.1872
  224SOL     OW  670   2.598   0.506   1.254 -0.1867  0.0875  0.2938
  224SOL    HW1  671   2.599   0.543   1.351  0.5618  2.7117  1.4308
  224SOL    HW2  672   2.533   0.556   1.193 -1.6779  0.6147 -0.3467
  225SOL     OW  673   0.639   1.282   1.781  0.1878  0.0053 -0.6328
  225SOL    HW1  674   0.668   1.291   1.685 -0.6840 -0.1048  0.7581
  225SOL    HW2  675   0.574   1.206   1.791  0.1055  4.7936 -0.8717
  226SOL     OW  676   1.019   3.057   0.547 -0.3737 -0.0432  0.1940
  226SOL    HW1  677   0.930   0.020   0.538  1.1111 -0.6833 -0.9493
  226SOL    HW2  678   1.085   0.011   0.479  0.1338  0.9918 -0.5000
  227SOL     OW  679   0.864   1.866   1.711 -0.1775 -0.6699  0.0731
  227SOL    HW1  680   0.935   1.828   1.651 -1.7105  3.3116  2.8132
  227SOL    HW2  681   0.905   1.934   1.778 -0.7131  0.2909 -1.4082
  228SOL     OW  682   0.470   2.958   1.846  0.5598  0.5827  0.1756
  228SOL    HW1  683   0.421   2.868   1.850 -1.5602 -0.4111  1.2817
  228SOL    HW2  684   0.410   3.024   1.793 -1.7094  1.6856 -2.4665
  229SOL     OW  685   2.668   0.633   0.357  0.3421  0.4292  0.5430
  229SOL    HW1  686   2.767   0.617   0.354 -1.2704 -0.4355  1.0504
  229SOL    HW2  687   2.639   0.709   0.293  1.0234  1.5508 -2.7929
  230SOL     OW  688   0.019   1.737   1.887 -0.1399 -0.1549  0.0802
  230SOL    HW1  689   0.046   1.765   1.794 -1.4673  2.2440  0.1021
  230SOL    HW2  690   0.041   1.638   1.903 -0.1786 -0.1023  0.5767
  231SOL     OW  691   1.023   2.912   1.174  0.1051 -0.5275 -0.0747
  231SOL    HW1  692   0.950   2.845   1.191 -1.0457  0.4299  1.6553
  231SOL    HW2  693   1.094   2.876   1.117 -0.8251 -0.8202  3.1934
  232SOL     OW  694   2.339   2.477   2.980 -0.0245 -0.4508 -0.0437
  232SOL    HW1  695   2.253   2.525   3.015 -0.0904  1.1529  2.1286
  232SOL    HW2  696   2.342   2.374   3.000  4.0031 -1.1752 -0.8354
  233SOL     OW  697   1.218   2.840   3.000 -0.2497  0.2140  0.3849
  233SOL    HW1  698   1.168   2.874   0.001  0.2072 -2.2002  2.0778
  233SOL    HW2  699   1.166   2.775   2.941 -1.2682  0.2370 -1.4604
  234SOL     OW  700   0.828   1.033   2.140 -0.1249  0.2999 -0.9763
  234SOL    HW1  701   0.873   1.057   2.233  0.1592 -1.4285  1.4536
  234SOL    HW2  702   0.842   1.111   2.076  4.2961  0.3945 -0.3810
  235SOL     OW  703   0.212   2.341   0.084 -0.3723  0.3024  0.3077
  235SOL    HW1  704   0.169   2.431   0.103  0.8028 -3.2204  0.0086
  235SOL    HW2  705   0.174   2.302   3.080  1.8074 -2.2099 -2.4935
  236SOL     OW  706   1.914   2.628   2.616 -0.0080  0.4877  0.2712
  236SOL    HW1  707   1.969   2.552   2.659 -0.9526 -0.1392 -0.1023
  236SOL    HW2  708   1.863   2.596   2.535  1.2140 -0.8173  2.4860
  237SOL     OW  709   2.271   1.182   1.352 -0.3012  0.8035 -0.3381
  237SOL    HW1  710   2.274   1.086   1.383  2.3887  0.1928 -2.6112
  237SOL    HW2  711   2.364   1.222   1.363  2.3011  1.8621 -0.8233
  238SOL     OW  712   1.508   0.109   2.088 -0.1362  0.2287  0.4990
  238SOL    HW1  713   1.591   0.086   2.145  3.4098  0.1535  1.9090
  238SOL    HW2  714   1.517   0.057   2.001 -3.2800  1.3549 -0.8027
  239SOL     OW  715   0.888   1.907   2.106  0.0532 -0.3436  0.2088
  239SOL    HW1  716   0.794   1.891   2.075  1.3240 -2.1256  1.4731
  239SOL    HW2  717   0.930   1.975   2.043  1.6613  1.3990 -2.7584
  240SOL     OW  718   2.891   2.817   0.570  0.0770  0.0380 -0.2925
  240SOL    HW1  719   2.975   2.775   0.533  1.3111 -0.6606  0.9736
  240SOL    HW2  720   2.904   2.855   0.661 -0.9978 -1.5947  0.4539
  241SOL     OW  721   1.452   1.896   0.273 -0.0039 -0.4471  0.3375
  241SOL    HW1  722   1.368   1.948   0.297 -0.9920  1.1979 -1.1365
  241SOL    HW2  723   1.467   1.925   0.175  0.5532  0.9290 -1.4885
  242SOL     OW  724   2.281   1.036   0.025  0.6666  0.3767 -0.8106
  242SOL    HW1  725   2.277   0.954   0.090  1.4422  2.5309  2.4428
  242SOL    HW2  726   2.251   1.020   3.012 -0.0068  0.8257 -0.4332
  243SOL     OW  727   0.456   0.667   2.302 -0.5181  0.3735 -0.2525
  243SOL    HW1  728   0.477   0.612   2.213 -2.2802 -0.9658 -1.1839
  243SOL    HW2  729   0.489   0.767   2.300 -3.7113 -1.7934  0.4441
  244SOL     OW  730   1.592   2.442   2.727  0.3025 -0.4531  0.6976
  244SOL    HW1  731   1.497   2.483   2.719 -3.1221  1.7218 -2.0623
  244SOL    HW2  732   1.640   2.493   2.802  0.8204 -0.2789  1.1892
  245SOL     OW  733   1.564   2.998   2.773 -0.1341  0.2902  0.1866
  245SOL    HW1  734   1.461   3.010   2.764  1.3956 -1.9353 -1.2356
  245SOL    HW2  735   1.585   2.963   2.867 -0.2400 -0.9210 -0.9422
  246SOL     OW  736   1.347   1.114   2.519 -0.0755  0.7218 -0.5381
  246SOL    HW1  737   1.427   1.142   2.463 -0.1959 -0.3465  0.5585
  246SOL    HW2  738   1.295   1.189   2.561  0.2908  0.0943 -0.9747
  247SOL     OW  739   2.743   0.627   2.247 -0.1368  0.0829 -0.0068
  247SOL    HW1  740   2.704   0.546   2.203 -0.9719  1.0619  1.2251
  247SOL    HW2  741   2.830   0.659   2.208  3.4581  1.4513 -2.2740
  248SOL     OW  742   0.076   1.445   1.955  1.2047 -0.1570  0.0775
  248SOL    HW1  743   0.090   1.347   1.924 -1.1856 -0.2728  1.6688
  248SOL    HW2  744   0.118   1.466   2.043 -2.2557  1.3114 -0.0401
  249SOL     OW  745   2.747   0.387   0.256 -0.2324  0.3556 -0.0315
  249SOL    HW1  746   2.728   0.291   0.275 -0.3158  0.7881 -0.6072
  249SOL    HW2  747   2.661   0.440   0.257 -1.8848 -0.5008  1.3586
  250SOL     OW  748   2.880   0.073   0.597  0.1569  0.7013 -0.3995
  250SOL    HW1  749   2.791   0.126   0.619 -4.7377  1.2978 -0.4924
  250SOL    HW2  750   2.876   3.064   0.642 -0.1073 -3.1225  2.7419
  251SOL     OW  751   0.658   1.321   2.178  0.3330  0.4570 -0.1572
  251SOL    HW1  752   0.681   1.309   2.280 -3.3223 -1.6784  3.0449
  251SOL    HW2  753   0.712   1.253   2.118  0.6130  0.0074 -2.8108
  252SOL     OW  754   1.724   1.745   1.677 -0.0763 -0.3595 -0.3548
  252SOL    HW1  755   1.774   1.682   1.617  0.7960  1.6255  0.5205
  252SOL    HW2  756   1.633   1.772   1.640 -0.7430  0.8291  0.8599
  253SOL     OW  757   1.778   2.054   1.791  0.2811  0.4469 -0.1924
  253SOL    HW1  758   1.861   2.093   1.841 -1.0370 -0.2062 -0.4977
  253SOL    HW2  759   1.698   2.116   1.805  2.0740 -0.6936 -4.9474
  254SOL     OW  760   0.781   2.230   2.370 -0.1976 -0.0944  0.5408
  254SOL    HW1  761   0.684   2.220   2.399  1.1350 -2.0562 -0.6434
  254SOL    HW2  762   0.785   2.222   2.272 -0.6662  1.0840  3.6485
  255SOL     OW  763   1.372   0.509   0.675 -0.2142 -0.5615  0.5451
  255SOL    HW1  764   1.280   0.545   0.699 -0.2292  1.1480 -1.4550
  255SOL    HW2  765   1.440   0.535   0.745 -0.6960  0.1348  0.1383
  256SOL     OW  766   1.724   2.183   0.975 -0.0666  0.2789  0.1113
  256SOL    HW1  767   1.767   2.163   1.067 -1.6309  0.6095 -0.5309
  256SOL    HW2  768   1.789   2.210   0.904 -1.5025 -2.9203  1.6712
  257SOL     OW  769   0.299   2.238   2.582  0.4786  0.0276  0.1489
  257SOL    HW1  770   0.309   2.135   2.575  0.9200  1.0908  0.2112
  257SOL    HW2  771   0.215   2.254   2.638 -1.3035  2.2593  1.2788
  258SOL     OW  772   0.336   1.250   2.451 -0.4461 -0.1296  0.5515
  258SOL    HW1  773   0.396   1.228   2.527 -1.8907 -0.0134 -1.8037
  258SOL    HW2  774   0.290   1.340   2.461 -1.0659  1.5583  1.0992
  259SOL     OW  775   1.207   0.894   2.431 -0.5587  0.5257  0.4272
  259SOL    HW1  776   1.269   0.971   2.458 -0.6186  1.0107 -0.0373
  259SOL    HW2  777   1.226   0.859   2.339  0.6178  1.8181  0.8528
  260SOL     OW  778   2.106   0.576   0.738 -0.2788 -0.2393 -0.9359
  260SOL    HW1  779   2.090   0.522   0.825 -1.4788 -1.8675  0.0682
  260SOL    HW2  780   2.048   0.533   0.669  1.9660  3.3985  2.7262
  261SOL     OW  781   0.865   0.287   3.023  0.5589 -0.0339 -0.5387
  261SOL    HW1  782   0.823   0.317   0.031 -1.3432  0.2868  1.6398
  261SOL    HW2  783   0.886   0.373   2.970  0.0804 -1.5093 -0.8790
  262SOL     OW  784   1.906   2.886   2.540 -0.0753 -0.2304  0.1779
  262SOL    HW1  785   1.924   2.793   2.580  1.2098  2.3497 -1.5864
  262SOL    HW2  786   1.974   2.895   2.465 -1.4971 -2.4261  0.9366
  263SOL     OW  787   1.008   1.801   2.895  0.0373 -0.5537  0.2561
  263SOL    HW1  788   1.041   1.732   2.825  0.2236  0.2018 -2.0116
  263SOL    HW2  789   0.942   1.857   2.842  3.3174  0.5871  1.2690
  264SOL     OW  790   0.338   1.628   1.804 -0.4908 -0.9199  0.2464
  264SOL    HW1  791   0.427   1.584   1.828  0.6967  0.4345  0.9317
  264SOL    HW2  792   0.292   1.669   1.888 -1.3254  1.9700  1.3821
  265SOL     OW  793   0.871   0.943   0.467  0.2965  0.2760  0.2538
  265SOL    HW1  794   0.898   1.041   0.473 -0.9801  1.4929 -1.3417
  265SOL    HW2  795   0.864   0.905   0.372 -3.3295  1.6406 -0.0715
  266SOL     OW  796   1.751   1.637   0.170  0.2167  0.5816  0.4958
  266SOL    HW1  797   1.846   1.665   0.198  2.1431  3.1516 -1.6215
  266SOL    HW2  798   1.691   1.635   0.252  1.5056  0.0782  2.4046
  267SOL     OW  799   2.599   0.107   2.931 -0.2689  0.6407 -0.4118
  267SOL    HW1  800   2.671   0.048   2.974 -2.6688 -1.0394 -1.5002
  267SOL    HW2  801   2.626   0.125   2.833  0.0980 -0.4730 -0.4123
  268SOL     OW  802   0.586   0.596   2.918  0.3806 -0.1443 -0.1964
  268SOL    HW1  803   0.613   0.642   2.830 -0.7989  0.8079 -1.8002
  268SOL    HW2  804   0.671   0.561   2.965 -0.8734  0.4454  1.4919
  269SOL     OW  805   1.572   0.545   2.355  0.1097  0.3750 -0.4753
  269SOL    HW1  806   1.475   0.510   2.342 -2.2968  1.8579  0.7528
  269SOL    HW2  807   1.577   0.625   2.292 -0.0441  2.6443 -2.2926
  270SOL     OW  808   0.959   0.926   2.521 -0.0696 -0.4734 -0.2144
  270SOL    HW1  809   1.055   0.928   2.491  0.2772  1.3511 -0.1166
  270SOL    HW2  810   0.942   0.852   2.592  0.8652 -0.8644  1.2496
  271SOL     OW  811   2.771   0.891   0.018  0.0024  0.2387 -0.1389
  271SOL    HW1  812   2.762   0.987   3.058  2.4814  3.1802 -1.2588
  271SOL    HW2  813   2.856   0.844   3.071  1.0955 -0.0040 -0.0447
  272SOL     OW  814   2.386   1.718   2.759  0.1353 -0.2972 -0.2614
  272SOL    HW1  815   2.370   1.797   2.693  0.4673  2.2259 -0.9356
  272SOL    HW2  816   2.374   1.627   2.713 -0.5352  0.5960 -0.6024
  273SOL     OW  817   2.935   0.474   2.744 -0.1209 -0.0822 -0.1771
  273SOL    HW1  818   2.862   0.453   2.674 -0.3281  2.1331 -0.2894
  273SOL    HW2  819   3.020   0.422   2.721 -0.5679 -0.9291 -2.6911
  274SOL     OW  820   3.014   0.084   1.532  0.0544 -0.3640  0.3546
  274SOL    HW1  821   2.911   0.073   1.536 -1.0499  1.4741  0.3352
  274SOL    HW2  822   3.046   0.092   1.435  0.1575  0.1162 -0.2310
  275SOL     OW  823   2.012   1.302   0.669 -0.1072  0.2745  0.1261
  275SOL    HW1  824   2.026   1.216   0.718 -4.4374 -0.3211 -0.0188
  275SOL    HW2  825   1.925   1.293   0.617 -0.0113 -0.1902 -0.6082
  276SOL     OW  826   0.265   1.404   2.769 -0.6217  0.2410  0.3627
  276SOL    HW1  827   0.191   1.338   2.773  0.3022 -0.4751 -1.8637
  276SOL    HW2  828   0.271   1.445   2.675  3.0453 -1.2131 -0.1618
  277SOL     OW  829   1.892   2.359   1.971  0.3453  0.5977  0.2093
  277SOL    HW1  830   1.897   2.260   1.994 -0.9134  1.2902  1.5646
  277SOL    HW2  831   1.875   2.419   2.050  1.1925  1.9884 -1.7010
  278SOL     OW  832   2.002   0.140   1.379  0.5996 -0.7950 -0.0456
  278SOL    HW1  833   1.982   0.085   1.465 -0.7559  0.5501 -1.5959
  278SOL    HW2  834   1.942   0.109   1.297  0.5092  0.0919  2.2073
  279SOL     OW  835   1.487   1.151   2.966  0.2116  0.1794  0.5264
  279SOL    HW1  836   1.438   1.106   2.892 -2.4280 -0.8672  3.3297
  279SOL    HW2  837   1.495   1.086   3.044  0.0005  3.5053  0.6840
  280SOL     OW  838   0.668   1.635   1.028 -0.3531 -0.0314  0.1375
  280SOL    HW1  839   0.737   1.688   0.969  0.5928 -0.4266 -1.1085
  280SOL    HW2  840   0.684   1.648   1.129 -0.2523  1.5569  0.8303
  281SOL     OW  841   0.288   0.277   2.423  0.2409 -0.4093 -0.1317
  281SOL    HW1  842   0.370   0.294   2.481  0.6113 -0.4695 -0.2323
  281SOL    HW2  843   0.316   0.266   2.327 -1.2138  0.9938 -1.1485
  282SOL     OW  844   3.048   1.026   1.555 -0.6035  0.2976  0.2662
  282SOL    HW1  845   2.988   1.098   1.510 -0.9044 -1.4964 -0.1338
  282SOL    HW2  846   0.029   0.988   1.484 -0.4069  0.4291 -2.4288
  283SOL     OW  847   1.441   2.095   2.352  0.1599  0.8114 -0.0864
  283SOL    HW1  848   1.525   2.051   2.392 -1.0236  2.8103 -0.8214
  283SOL    HW2  849   1.380   2.136   2.422  0.7504 -2.0983  0.0541
  284SOL     OW  850   1.799   1.010   0.119  0.6519  0.4401  0.2657
  284SOL    HW1  851   1.855   1.019   0.201 -2.1031 -0.4848  0.6787
  284SOL    HW2  852   1.847   1.010   0.030  0.3334  1.1350  1.5211
  285SOL     OW  853   3.081   2.849   2.752 -0.5284 -0.2999 -0.4278
  285SOL    HW1  854   0.083   2.801   2.717  2.8819  0.1943 -2.0204
  285SOL    HW2  855   0.003   2.862   2.853 -1.8801  1.0537  1.1853
  286SOL     OW  856   2.021   2.591   1.243  0.2770  0.7672  0.0548
  286SOL    HW1  857   1.986   2.564   1.331  1.1383  1.4279 -2.9949
  286SOL    HW2  858   2.079   2.674   1.253  2.0854  0.4072  0.3729
  287SOL     OW  859   0.753   0.815   1.335 -0.3187 -0.4010  0.0182
  287SOL    HW1  860   0.667   0.763   1.332 -3.1428  0.2873  1.5925
  287SOL    HW2  861   0.767   0.865   1.424 -1.1684 -0.0297  3.3756
  288SOL     OW  862   1.424   2.689   0.011 -1.1425 -0.0520  0.0377
  288SOL    HW1  863   1.424   2.603   3.040 -0.6196  1.0738  1.0845
  288SOL    HW2  864   1.358   2.758   3.058  2.1210  1.2402  2.6066
  289SOL     OW  865   0.055   1.859   3.063 -0.2282 -0.1582 -0.0305
  289SOL    HW1  866   0.121   1.892   2.990 -0.2861  0.5628 -2.4895
  289SOL    HW2  867   3.073   1.932   3.079  1.8310 -0.6513 -2.0725
  290SOL     OW  868   1.119   2.601   0.631  0.2246  0.4537  0.7686
  290SOL    HW1  869   1.025   2.606   0.594 -3.9378  1.9854 -2.8422
  290SOL    HW2  870   1.114   2.554   0.722  0.2971 -0.8524  1.5002
  291SOL     OW  871   2.161   1.944   0.134  0.4040  0.4057  0.1772
  291SOL    HW1  872   2.257   1.963   0.114 -1.0490 -2.3611 -0.9351
  291SOL    HW2  873   2.104   1.936   0.051  0.7586  0.0117  0.4337
  292SOL     OW  874   0.852   1.228   1.965  0.3946  0.7254 -0.0493
  292SOL    HW1  875   0.942   1.243   1.924  1.8401  1.2915  0.8671
  292SOL    HW2  876   0.781   1.252   1.895  2.2704 -1.5001  2.4829
  293SOL     OW  877   2.213   2.615   0.902 -0.3543 -0.0624 -0.1032
  293SOL    HW1  878   2.307   2.628   0.942 -0.2568  0.5830 -1.9357
  293SOL    HW2  879   2.158   2.534   0.935  0.5059 -1.1827  0.4630
  294SOL     OW  880   0.016   0.766   2.448  0.0685  0.1393 -0.0541
  294SOL    HW1  881   0.005   0.850   2.395 -1.6029 -0.2225  0.8860
  294SOL    HW2  882   0.095   0.704   2.417  1.0536 -0.4495 -1.9165
  295SOL     OW  883   1.006   1.897   0.350  0.0241 -0.0548  0.1362
  295SOL    HW1  884   0.913   1.934   0.336 -3.3115  0.6980 -1.2350
  295SOL    HW2  885   1.029   1.831   0.276 -1.2369 -0.6178  1.6505
  296SOL     OW  886   2.076   1.800   2.680 -1.0901  0.4902 -0.4851
  296SOL    HW1  887   2.144   1.770   2.609 -2.3758  2.9007 -2.0734
  296SOL    HW2  888   2.041   1.723   2.738  1.2689  0.8181 -1.2314
  297SOL     OW  889   2.964   0.255   2.954  0.8021 -0.0692 -0.0309
  297SOL    HW1  890   2.930   0.322   2.885  1.2015 -2.2405 -0.9401
  297SOL    HW2  891   2.949   0.159   2.917  2.7645 -0.1360 -0.4477
  298SOL     OW  892   0.773   2.104   3.054 -0.5472 -0.0314  0.6519
  298SOL    HW1  893   0.798   2.003   3.075  1.7082 -0.4556 -0.4756
  298SOL    HW2  894   0.837   2.176   0.008 -0.1611 -0.6296 -1.5621
  299SOL     OW  895   1.398   2.782   2.576  0.0187 -0.5414  0.0058
  299SOL    HW1  896   1.349   2.820   2.488 -0.1724  0.3822 -0.4285
  299SOL    HW2  897   1.497   2.810   2.574  3.4947  2.0591  0.5088
  300SOL     OW  898   2.670   0.254   0.533  0.2464  0.1171  0.4824
  300SOL    HW1  899   2.604   0.332   0.518 -1.1324  5.1567 -0.9273
  300SOL    HW2  900   2.687   0.206   0.445 -2.2941  0.6316 -0.9705
  301SOL     OW  901   1.088   0.937   1.688 -0.0056 -0.0707  0.0600
  301SOL    HW1  902   1.023   0.866   1.722  0.0766 -0.6782 -0.8697
  301SOL    HW2  903   1.054   0.979   1.598 -0.1518  0.3193  0.9069
  302SOL     OW  904   0.011   2.602   2.909  0.1042 -0.7082 -1.0417
  302SOL    HW1  905   0.081   2.586   2.836  1.3578  0.6531  0.1946
  302SOL    HW2  906   0.036   2.565   3.001  2.6438 -0.7723 -0.9461
  303SOL     OW  907   0.028   0.174   2.428 -0.3072 -0.0479  0.4729
  303SOL    HW1  908   0.122   0.200   2.409 -0.9254 -0.5378 -1.2354
  303SOL    HW2  909   3.052   0.207   2.353  0.5482  4.3578  0.7877
  304SOL     OW  910   2.832   0.385   1.403 -0.2025  0.4520 -0.7098
  304SOL    HW1  911   2.781   0.318   1.346 -0.2140 -3.1031 -1.8014
  304SOL    HW2  912   2.765   0.447   1.444  0.8177  0.6071 -2.6572
  305SOL     OW  913   0.356   2.930   2.167  0.3229 -0.0112  0.2013
  305SOL    HW1  914   0.368   3.030   2.152  1.5370  2.1017 -3.5171
  305SOL    HW2  915   0.328   2.899   2.260 -1.2722 -0.7200  0.0630
  306SOL     OW  916   2.771   0.946   1.555 -0.0607 -0.2976 -0.1420
  306SOL    HW1  917   2.861   0.993   1.580  0.9765  0.2188  2.1355
  306SOL    HW2  918   2.797   0.871   1.489  2.3615 -0.3442 -2.3889
  307SOL     OW  919   1.460   0.713   1.175  0.2465 -0.4731  0.2353
  307SOL    HW1  920   1.420   0.676   1.260 -0.9049 -2.8804 -2.7920
  307SOL    HW2  921   1.451   0.640   1.102  2.6947  1.8939  1.0539
  308SOL     OW  922   2.909   2.095   1.120 -0.1052 -0.2020 -0.3236
  308SOL    HW1  923   2.874   2.144   1.200 -1.5056 -0.0146  0.8887
  308SOL    HW2  924   2.838   2.028   1.085 -0.1733  1.7147  1.3812
  309SOL     OW  925   2.406   1.604   1.377  0.2195  0.1543  0.8367
  309SOL    HW1  926   2.433   1.641   1.286  2.0453 -0.5840  0.8844
  309SOL    HW2  927   2.456   1.648   1.457 -1.0918 -1.4552  1.0539
  310SOL     OW  928   2.695   1.726   0.333  0.4026  0.4910 -0.4844
  310SOL    HW1  929   2.763   1.677   0.272  2.4850  0.7358 -2.3629
  310SOL    HW2  930   2.604   1.747   0.287 -0.6134  0.1633 -1.1167
  311SOL     OW  931   2.332   1.960   2.927 -0.0269  0.1303 -0.2797
  311SOL    HW1  932   2.343   1.984   2.828  2.3987  1.5273  1.1145
  311SOL    HW2  933   2.320   1.859   2.953  0.7050  0.4599  1.0586
  312SOL     OW  934   2.445   1.726   1.109  0.1552  0.6245  0.2410
  312SOL    HW1  935   2.428   1.812   1.156 -0.3851 -0.5264 -1.5139
  312SOL    HW2  936   2.544   1.696   1.124  1.4793 -0.5615 -0.6259
  313SOL     OW  937   2.608   2.339   1.267  0.2011 -0.1036 -0.4723
  313SOL    HW1  938   2.681   2.308   1.328  0.0620 -0.9182  2.5282
  313SOL    HW2  939   2.615   2.441   1.245  2.3621  2.6264 -0.5533
  314SOL     OW  940   0.985   2.210   0.804 -0.0559 -1.1121  0.0109
  314SOL    HW1  941   0.928   2.132   0.841  0.5570 -2.1680  1.3293
  314SOL    HW2  942   0.951   2.247   0.715  0.4132  1.7365  4.1909
  315SOL     OW  943   0.474   2.690   2.669 -0.2774 -0.5767 -0.1232
  315SOL    HW1  944   0.549   2.739   2.625  0.3487 -0.0220 -0.1559
  315SOL    HW2  945   0.500   2.590   2.653  1.6623 -1.3905 -1.4101
  316SOL     OW  946   0.027   0.880   0.709  0.0862  0.3269  0.1448
  316SOL    HW1  947   0.095   0.874   0.637 -1.9005  2.3665 -0.5636
  316SOL    HW2  948   3.037   0.818   0.680  1.6394 -3.0091  3.7138
  317SOL     OW  949   1.747   0.491   0.849 -0.0970 -0.3367  0.3292
  317SOL    HW1  950   1.721   0.587   0.858 -0.0320 -0.3843 -0.6587
  317SOL    HW2  951   1.762   0.480   0.747  0.2152 -1.1482 -0.8819
  318SOL     OW  952   0.060   2.590   0.347  0.1550 -0.3285 -0.1900
  318SOL    HW1  953   0.082   2.585   0.247  0.1181  1.7384 -0.0772
  318SOL    HW2  954   0.025   2.497   0.377 -2.8032 -2.5158 -0.2118
  319SOL     OW  955   0.590   1.753   0.002  0.0106  0.1354  0.1049
  319SOL    HW1  956   0.687   1.774   0.015 -1.8378 -0.2846 -0.5346
  319SOL    HW2  957   0.536   1.843   0.018 -0.4244  2.7543  0.8379
  320SOL     OW  958   0.638   2.597   2.251  0.1828  0.6526 -0.4856
  320SOL    HW1  959   0.598   2.649   2.176 -0.3473  2.2463  0.8209
  320SOL    HW2  960   0.701   2.664   2.302  2.3031  2.5569  0.9609
  321SOL     OW  961   1.293   3.011   2.769  0.2570  0.4397  1.0259
  321SOL    HW1  962   1.268   2.941   2.842  1.5380 -0.9532  1.6158
  321SOL    HW2  963   1.216   2.997   2.703  0.0217  1.2338  0.2100
  322SOL     OW  964   2.518   1.479   1.951  0.0524 -0.0619 -0.4724
  322SOL    HW1  965   2.552   1.525   2.040 -0.9130  2.2475  0.8815
  322SOL    HW2  966   2.526   1.378   1.960 -0.3362  0.2520 -4.3298
  323SOL     OW  967   2.492   0.461   0.461  0.5088  0.2331 -0.6667
  323SOL    HW1  968   2.443   0.444   0.374 -1.2107  1.1372  0.0836
  323SOL    HW2  969   2.566   0.528   0.447 -2.2779 -2.3535  1.3545
  324SOL     OW  970   0.213   3.076   2.639 -0.5751  0.6275 -0.0737
  324SOL    HW1  971   0.177   0.011   2.734 -0.9363  3.5256 -0.8693
  324SOL    HW2  972   0.139   3.034   2.583 -0.6662  1.0052 -0.9624
  325SOL     OW  973   1.454   0.379   2.089  0.2355 -0.4631 -0.0738
  325SOL    HW1  974   1.466   0.276   2.083 -0.6856  0.2187 -0.4386
  325SOL    HW2  975   1.408   0.406   2.178  0.1118  2.4642  0.8717
  326SOL     OW  976   2.566   2.614   1.233 -0.3551  0.0693 -0.0886
  326SOL    HW1  977   2.516   2.685   1.290  1.2054  0.6682 -3.0044
  326SOL    HW2  978   2.548   2.619   1.135  0.3989  0.7694  1.7426
  327SOL     OW  979   1.494   0.275   2.778  0.0343  0.6762 -0.1513
  327SOL    HW1  980   1.517   0.209   2.849 -0.2435  0.3840 -1.7342
  327SOL    HW2  981   1.570   0.339   2.773 -3.4489  0.1307  0.0157
  328SOL     OW  982   2.611   1.291   2.524  0.1046  0.0271 -0.9355
  328SOL    HW1  983   2.557   1.310   2.444  0.0669  0.0411  0.2417
  328SOL    HW2  984   2.603   1.370   2.584 -0.8694 -1.8060 -0.8470
  329SOL     OW  985   1.841   2.620   1.740  0.5706 -0.5145 -0.4094
  329SOL    HW1  986   1.887   2.592   1.821 -2.8161  1.3142 -1.5962
  329SOL    HW2  987   1.753   2.568   1.730 -0.0607  2.2752 -0.1956
  330SOL     OW  988   2.571   1.721   1.568  0.0042  0.1209 -0.0099
  330SOL    HW1  989   2.499   1.731   1.634  0.8264  2.2336 -0.2383
  330SOL    HW2  990   2.658   1.761   1.609 -2.4277  0.2142  4.6081
  331SOL     OW  991   0.297   1.669   1.364 -0.0693  0.3590 -0.5864
  331SOL    HW1  992   0.248   1.639   1.280  0.2086  0.2328  1.4496
  331SOL    HW2  993   0.241   1.675   1.448  0.9164  0.2882 -0.9657
  332SOL     OW  994   0.581   0.190   1.159 -0.1756  0.1795  0.1378
  332SOL    HW1  995   0.652   0.151   1.098  1.2749 -2.4599 -0.6587
  332SOL    HW2  996   0.518   0.114   1.189  1.0694  0.9865 -0.8517
  333SOL     OW  997   1.822   2.578   2.160 -0.1918  0.4067  0.3289
  333SOL    HW1  998   1.794   2.584   2.259  0.4840 -0.0421 -0.1754
  333SOL    HW2  999   1.878   2.655   2.123  0.0880  1.2694 -1.5791
  334SOL     OW 1000   1.133   1.074   1.214  0.1311  0.0505 -0.2719
  334SOL    HW1 1001   1.102   1.163   1.173  2.1199 -0.1793  0.0665
  334SOL    HW2 1002   1.225   1.041   1.183 -0.2134 -0.3755  2.6561
  335SOL     OW 1003   0.780   2.635   2.889  0.7714 -0.0916  0.3331
  335SOL    HW1 1004   0.757   2.732   2.917  0.2436 -0.9649  0.1629
  335SOL    HW2 1005   0.754   2.621   2.790  0.2121  0.5439 -1.3673
  336SOL     OW 1006   2.565   2.566   1.994  0.1773 -0.0749  0.2636
  336SOL    HW1 1007   2.664   2.574   1.969  0.0375  0.2404 -0.7608
  336SOL    HW2 1008   2.517   2.487   1.953 -1.2765 -2.7494 -0.9420
  337SOL     OW 1009   2.398   1.497   0.611 -0.6451 -0.4599  0.4022
  337SOL    HW1 1010   2.309   1.452   0.569 -2.5559  1.3552 -1.3343
  337SOL    HW2 1011   2.416   1.587   0.569 -0.7556 -0.6466  2.2802
  338SOL     OW 1012   1.042   1.802   1.536  0.2499  0.4594  0.6833
  338SOL    HW1 1013   1.124   1.858   1.528 -0.6831 -1.1226  0.9536
  338SOL    HW2 1014   1.019   1.768   1.444  0.4894 -0.2740 -2.0890
  339SOL     OW 1015   3.053   1.020   2.243 -0.5083 -0.0440  0.1921
  339SOL    HW1 1016   0.028   1.050   2.168 -1.1808  0.4716  2.1799
  339SOL    HW2 1017   0.009   1.050   2.336 -2.8969  0.7872  3.0386
  340SOL     OW 1018   1.536   2.675   1.187  0.2269 -0.4940 -0.4629
  340SOL    HW1 1019   1.629   2.707   1.192  0.1760 -3.3738 -0.7993
  340SOL    HW2 1020   1.536   2.583   1.144  0.6468 -0.0431  0.6957
  341SOL     OW 1021   1.898   1.540   0.783 -0.1243  0.4451  0.0305
  341SOL    HW1 1022   1.934   1.451   0.749  0.0062  1.6709 -2.5111
  341SOL    HW2 1023   1.976   1.611   0.787  3.8336 -0.5385 -0.2332
  342SOL     OW 1024   0.367   1.248   0.946  0.3531  0.1718  0.7663
  342SOL    HW1 1025   0.295   1.193   0.901 -1.1012 -0.4723  0.1119
  342SOL    HW2 1026   0.382   1.332   0.888 -0.5152  1.3010  0.8879
  343SOL     OW 1027   2.245   0.536   1.468  0.4141 -0.5875  0.1643
  343SOL    HW1 1028   2.156   0.514   1.424 -1.1940  3.9307  0.2341
  343SOL    HW2 1029   2.280   0.624   1.429  0.7127 -0.4834  0.2807
  344SOL     OW 1030   2.094   2.653   0.630 -0.2676 -0.1709 -0.1425
  344SOL    HW1 1031   2.169   2.642   0.561 -0.4232 -1.2293 -0.4677
  344SOL    HW2 1032   2.129   2.636   0.724  1.4700 -2.8756 -1.0197
  345SOL     OW 1033   2.827   2.636   2.737  0.1813 -0.2633 -0.1066
  345SOL    HW1 1034   2.782   2.709   2.680  0.6310  1.6670 -0.2441
  345SOL    HW2 1035   2.924   2.663   2.769  1.6868 -1.5601 -0.5383
  346SOL     OW 1036   2.975   0.655   0.368 -0.7192 -0.5960  0.3716
  346SOL    HW1 1037   2.938   0.741   0.327  1.1305 -2.2999  4.0845
  346SOL    HW2 1038   3.047   0.614   0.308 -2.0204 -2.7376  2.4246
  347SOL     OW 1039   1.798   2.571   1.088 -0.0769 -0.0890  0.0054
  347SOL    HW1 1040   1.884   2.590   1.145  1.8908  1.8270  1.3025
  347SOL    HW2 1041   1.803   2.614   1.001 -0.4304 -0.4248  1.1016
  348SOL     OW 1042   1.496   1.675   2.261 -0.9186  0.2676  0.3363
  348SOL    HW1 1043   1.455   1.608   2.199  0.2031 -1.4958 -1.1206
  348SOL    HW2 1044   1.428   1.751   2.278 -1.1638  2.4386 -0.0235
  349SOL     OW 1045   2.488   1.304   2.289  0.5435 -0.2912  0.2023
  349SOL    HW1 1046   2.428   1.387   2.293 -0.7900 -0.0380 -0.5253
  349SOL    HW2 1047   2.506   1.276   2.191  0.6509  2.0588 -0.6648
  350SOL     OW 1048   0.535   2.051   1.005  0.5762  0.3978  0.2992
  350SOL    HW1 1049   0.492   1.997   1.086 -1.3389 -4.4911  2.7842
  350SOL    HW2 1050   0.480   2.134   0.982 -0.3673 -2.0455 -0.8675
  351SOL     OW 1051   0.870   0.453   2.179  0.0082 -0.1642  0.3468
  351SOL    HW1 1052   0.967   0.431   2.153 -2.0854  3.6680 -0.6486
  351SOL    HW2 1053   0.856   0.536   2.237  0.8722 -0.7072 -0.1497
  352SOL     OW 1054   0.786   2.706   1.821  0.0036 -0.0658 -0.8456
  352SOL    HW1 1055   0.765   2.790   1.872 -1.8749  2.9400 -1.4280
  352SOL    HW2 1056   0.784   2.713   1.721  0.3720 -3.7650  0.1430
  353SOL     OW 1057   1.060   1.662   2.402  0.2036  0.0405 -0.7873
  353SOL    HW1 1058   1.089   1.578   2.357  0.1660  2.8317  0.2653
  353SOL    HW2 1059   0.959   1.675   2.417  1.6603 -2.0995 -1.3183
  354SOL     OW 1060   1.775   1.245   0.510  0.1331 -0.7624 -0.4228
  354SOL    HW1 1061   1.689   1.274   0.558  1.7488  1.0145 -0.8950
  354SOL    HW2 1062   1.777   1.145   0.507 -1.6420 -0.8359  1.1108
  355SOL     OW 1063   2.319   0.159   0.687  0.4832 -0.1310 -0.0300
  355SOL    HW1 1064   2.375   0.239   0.724 -1.7787 -1.6667  0.2808
  355SOL    HW2 1065   2.361   0.112   0.606  1.7570 -1.4085 -0.0387
  356SOL     OW 1066   0.060   1.235   2.774  0.0773  0.2571  0.0642
  356SOL    HW1 1067   0.024   1.190   2.860  0.5892  0.2193 -2.2285
  356SOL    HW2 1068   3.077   1.306   2.737 -1.3066 -1.5664  0.7366
  357SOL     OW 1069   3.002   2.861   1.643 -0.2855  0.1760  0.1385
  357SOL    HW1 1070   2.992   2.948   1.594  0.5232 -1.4393 -0.5118
  357SOL    HW2 1071   2.922   2.797   1.631 -3.1882 -2.5651  0.9924
  358SOL     OW 1072   2.983   1.454   2.730  0.2950  0.2209  0.0433
  358SOL    HW1 1073   3.028   1.527   2.785 -1.2528 -0.6974 -2.4613
  358SOL    HW2 1074   2.912   1.413   2.792  0.1081  2.2387  0.8234
  359SOL     OW 1075   2.346   2.671   2.411 -0.1407  0.3455 -0.3402
  359SOL    HW1 1076   2.344   2.663   2.512  1.5731  2.8828 -0.4753
  359SOL    HW2 1077   2.430   2.619   2.383 -0.6381 -1.2297  1.0778
  360SOL     OW 1078   1.274   1.271   0.952 -0.8346 -0.1263  0.0536
  360SOL    HW1 1079   1.261   1.260   1.050 -2.6644 -0.3555 -0.1505
  360SOL    HW2 1080   1.184   1.294   0.908  2.3164 -2.1649 -1.5075
  361SOL     OW 1081   2.271   2.265   0.979  0.4155 -0.5350  0.3278
  361SOL    HW1 1082   2.344   2.231   1.043 -0.6860 -2.8095  1.9383
  361SOL    HW2 1083   2.187   2.289   1.036 -0.2469  1.4519  0.3701
  362SOL     OW 1084   1.651   1.347   1.172 -0.4376 -0.0128  0.2714
  362SOL    HW1 1085   1.751   1.376   1.161  2.5679  0.8718  1.1280
  362SOL    HW2 1086   1.608   1.314   1.084  0.7954 -1.4068 -0.9147
  363SOL     OW 1087   2.751   1.954   0.464 -0.3739 -0.4335  0.2210
  363SOL    HW1 1088   2.719   2.027   0.398  0.0797  1.5141 -2.7722
  363SOL    HW2 1089   2.739   1.863   0.418  0.9577 -2.1506 -1.7030
  364SOL     OW 1090   2.133   0.077   1.759 -0.5103  0.5968  0.1342
  364SOL    HW1 1091   2.175   0.002   1.697  4.8507 -0.4349 -1.3634
  364SOL    HW2 1092   2.204   0.115   1.824 -2.1184 -0.6081 -0.9268
  365SOL     OW 1093   0.001   2.469   1.200  0.7385  0.0539 -0.1883
  365SOL    HW1 1094   0.067   2.517   1.262 -0.5303  1.8347  0.1988
  365SOL    HW2 1095   2.989   2.486   1.233  1.7821 -4.4538  0.9615
  366SOL     OW 1096   2.951   1.323   0.207 -0.5294 -0.2347  0.4233
  366SOL    HW1 1097   3.051   1.333   0.203 -4.0639 -0.7299 -2.2610
  366SOL    HW2 1098   2.911   1.306   0.299 -0.0293 -1.6914  0.8784
  367SOL     OW 1099   2.103   2.697   2.849 -0.4303  0.0618 -0.5248
  367SOL    HW1 1100   2.052   2.634   2.789 -2.4629 -2.3697  0.6139
  367SOL    HW2 1101   2.109   2.666   2.947 -0.3106  3.1384 -1.1153
  368SOL     OW 1102   3.036   1.702   1.045 -0.3315  0.0290 -0.1287
  368SOL    HW1 1103   3.030   1.774   1.118  0.1503  1.8128 -1.1585
  368SOL    HW2 1104   2.954   1.696   0.982 -5.0094 -1.2960 -0.6349
  369SOL     OW 1105   0.729   0.484   0.602 -0.8094 -0.0776 -0.3573
  369SOL    HW1 1106   0.656   0.539   0.559  0.7623  0.4073 -0.6291
  369SOL    HW2 1107   0.783   0.436   0.531  2.5139  0.7249  0.1637
  370SOL     OW 1108   0.694   0.337   0.839 -0.3236 -0.1691  1.0204
  370SOL    HW1 1109   0.619   0.347   0.902 -1.1244 -1.7373  0.3843
  370SOL    HW2 1110   0.681   0.391   0.752 -1.5558  2.0284 -0.2491
  371SOL     OW 1111   2.378   1.570   0.151  0.3141 -0.1126 -0.1226
  371SOL    HW1 1112   2.292   1.515   0.178  0.1199 -0.0297 -2.6345
  371SOL    HW2 1113   2.460   1.511   0.121 -0.1320  0.5020  1.0616
  372SOL     OW 1114   0.254   1.033   2.768  0.0980 -0.1124  0.0867
  372SOL    HW1 1115   0.161   1.067   2.758  2.4400 -0.2722 -0.3128
  372SOL    HW2 1116   0.258   0.936   2.752 -0.0208  1.8821  1.3997
  373SOL     OW 1117   2.876   0.880   0.282  0.7560 -0.5595 -0.6732
  373SOL    HW1 1118   2.852   0.934   0.366  2.6246  0.4551 -1.9959
  373SOL    HW2 1119   2.810   0.893   0.208 -1.8489  1.5976  2.6964
  374SOL     OW 1120   0.938   2.314   0.042  0.0017 -0.1231  0.2157
  374SOL    HW1 1121   0.858   2.379   0.051 -0.6473 -0.0131 -0.2509
  374SOL    HW2 1122   0.986   2.313   0.127 -1.3714  2.4948 -0.4658
  375SOL     OW 1123   1.364   0.144   0.178  0.0116  0.0873  0.5883
  375SOL    HW1 1124   1.295   0.223   0.186  0.5624  1.9096  2.3873
  375SOL    HW2 1125   1.331   0.067   0.235 -0.8649 -1.7364 -1.7150
  376SOL     OW 1126   0.126   2.653   1.955 -0.6660  0.4374  0.0199
  376SOL    HW1 1127   0.215   2.624   1.911 -0.0634  0.1959 -3.5198
  376SOL    HW2 1128   0.066   2.571   1.970 -1.5564 -0.3317  3.1137
  377SOL     OW 1129   2.727   2.037   2.954 -0.2642 -0.3410 -0.4012
  377SOL    HW1 1130   2.676   2.115   2.915  0.1395 -1.7715  1.2712
  377SOL    HW2 1131   2.681   1.943   2.937 -1.4154  0.2912 -1.4805
  378SOL     OW 1132   1.692   0.917   0.461  0.0696  0.0719 -0.1901
  378SOL    HW1 1133   1.611   0.967   0.424 -1.9822  1.4717 -0.8703
  378SOL    HW2 1134   1.679   0.891   0.558 -0.3875 -0.3614 -0.9568
  379SOL     OW 1135   1.154   1.380   0.517  0.0456 -0.0352  0.4390
  379SOL    HW1 1136   1.093   1.310   0.549 -0.8698  1.0236  0.8118
  379SOL    HW2 1137   1.162   1.446   0.591  1.9497 -1.0505 -1.5144
  380SOL     OW 1138   2.060   2.309   1.764  0.3490  0.0881  0.4374
  380SOL    HW1 1139   2.036   2.301   1.669  2.0212 -0.1268  1.4748
  380SOL    HW2 1140   1.981   2.328   1.821 -1.2457 -2.0793 -0.4719
  381SOL     OW 1141   2.806   1.104   2.210  0.0513 -0.2845  0.0208
  381SOL    HW1 1142   2.902   1.078   2.225  1.4773  2.0963  0.5039
  381SOL    HW2 1143   2.781   1.065   2.117 -0.6360 -2.3572 -2.8927
  382SOL     OW 1144   2.879   2.474   0.116 -0.1202  0.1531 -0.2349
  382SOL    HW1 1145   2.862   2.449   0.017  0.8256 -1.6287 -0.3806
  382SOL    HW2 1146   2.927   2.565   0.121 -4.1621  1.6856  0.7247
  383SOL     OW 1147   1.670   1.162   2.088 -0.1552 -0.2619  0.1495
  383SOL    HW1 1148   1.727   1.232   2.039 -0.9715  0.0818  2.8299
  383SOL    HW2 1149   1.577   1.192   2.069  2.2428  1.5042  1.1202
  384SOL     OW 1150   0.873   2.052   2.554  0.0188 -0.0962 -0.0283
  384SOL    HW1 1151   0.849   2.130   2.491 -0.7995 -0.1860 -2.5101
  384SOL    HW2 1152   0.974   2.064   2.586 -0.7079 -0.1354  1.0432
  385SOL     OW 1153   2.461   2.249   0.598 -0.0385  0.1381 -0.4537
  385SOL    HW1 1154   2.487   2.308   0.521 -0.0164  1.8218  2.6188
  385SOL    HW2 1155   2.375   2.197   0.575 -2.6411 -1.6681 -0.5077
  386SOL     OW 1156   1.654   1.288   0.267  0.8362  0.1311  0.0708
  386SOL    HW1 1157   1.696   1.312   0.359  0.5672 -0.5094 -0.3167
  386SOL    HW2 1158   1.582   1.220   0.283 -0.0112 -0.0987 -0.7107
  387SOL     OW 1159   2.878   0.717   1.476  0.0563  0.4519  0.2122
  387SOL    HW1 1160   2.943   0.714   1.558  0.1371  1.3933 -1.7677
  387SOL    HW2 1161   2.922   0.669   1.394 -1.4310  2.9885  0.1126
  388SOL     OW 1162   2.928   0.733   1.073  0.1213  0.2029  0.6430
  388SOL    HW1 1163   2.999   0.783   1.028 -2.9927 -0.1519  0.6147
  388SOL    HW2 1164   2.976   0.667   1.133  0.5391 -1.7127  0.2343
  389SOL     OW 1165   1.741   1.187   2.526  0.6536 -0.2754  0.2878
  389SOL    HW1 1166   1.765   1.196   2.624  0.9022  0.3538  1.9478
  389SOL    HW2 1167   1.783   1.257   2.464  0.4233 -2.5567 -2.5885
  390SOL     OW 1168   1.592   2.320   0.374 -0.1390 -0.4509 -0.4907
  390SOL    HW1 1169   1.655   2.361   0.437 -2.3075 -1.3823 -4.9652
  390SOL    HW2 1170   1.614   2.220   0.376  0.7364 -2.7229  0.5973
  391SOL     OW 1171   1.124   2.156   1.152  0.2888 -0.2215  0.9110
  391SOL    HW1 1172   1.144   2.063   1.108 -0.8017 -2.7921  2.2505
  391SOL    HW2 1173   1.199   2.222   1.132 -1.6088  0.0461 -0.8282
  392SOL     OW 1174   2.472   2.861   1.720  0.1324 -0.7055  0.8898
  392SOL    HW1 1175   2.532   2.798   1.666 -2.8360 -1.7297  3.5959
  392SOL    HW2 1176   2.500   2.860   1.819  1.3177  0.5370  0.3176
  393SOL     OW 1177   1.720   2.535   2.441  0.1878  0.3804 -0.0596
  393SOL    HW1 1178   1.651   2.590   2.393  0.5496  1.8091  1.1711
  393SOL    HW2 1179   1.673   2.492   2.519 -1.4592 -0.3633  0.6945
  394SOL     OW 1180   0.319   2.874   2.433  0.4643  0.4011 -0.6787
  394SOL    HW1 1181   0.226   2.901   2.469 -4.3159  1.1189  0.9047
  394SOL    HW2 1182   0.380   2.953   2.447 -2.3888 -0.8989 -2.8407
  395SOL     OW 1183   0.233   1.335   1.164  0.0158 -0.0023 -0.4494
  395SOL    HW1 1184   0.270   1.283   1.081 -2.0436  2.9780 -2.7915
  395SOL    HW2 1185   0.199   1.428   1.129  2.2322  3.4113 -0.0004
  396SOL     OW 1186   2.155   0.952   2.609 -0.3939 -0.0957  0.3832
  396SOL    HW1 1187   2.211   0.884   2.565 -2.8331  1.9005 -1.2979
  396SOL    HW2 1188   2.061   0.956   2.572  2.4014 -2.2426 -2.0100
  397SOL     OW 1189   3.034   0.736   2.712  0.4544 -0.0808  0.2959
  397SOL    HW1 1190   2.995   0.640   2.722 -1.2282  0.9559  0.5465
  397SOL    HW2 1191   3.059   0.764   2.617 -1.9015 -3.2451  3.2659
  398SOL     OW 1192   1.784   2.995   0.097 -0.0361  0.2427 -0.3816
  398SOL    HW1 1193   1.786   3.083   0.150  1.7257 -0.5594  1.7336
  398SOL    HW2 1194   1.815   2.922   0.160 -0.0730  0.7967  0.5092
  399SOL     OW 1195   2.220   2.388   1.974  0.1712 -0.3669 -0.4608
  399SOL    HW1 1196   2.194   2.325   2.047  3.1765  0.0074 -2.1811
  399SOL    HW2 1197   2.164   2.374   1.892  0.4230  2.7504  4.3641
  400SOL     OW 1198   2.900   2.154   2.156 -0.1519  0.2209  0.3570
  400SOL    HW1 1199   2.930   2.082   2.093 -2.5143  2.8719  0.1927
  400SOL    HW2 1200   2.808   2.177   2.124  0.4131 -1.0685 -0.3926
  401SOL     OW 1201   0.499   0.875   0.677  0.2668 -0.7153 -0.0561
  401SOL    HW1 1202   0.493   0.776   0.652  0.4873  1.9176  3.8201
  401SOL    HW2 1203   0.422   0.895   0.743 -0.2292 -0.5419 -1.3609
  402SOL     OW 1204   0.834   2.881   2.128 -0.2810 -0.0010 -0.6477
  402SOL    HW1 1205   0.926   2.905   2.165  2.5303  1.8360 -0.7505
  402SOL    HW2 1206   0.798   2.951   2.060 -0.2211  1.1075  1.5236
  403SOL     OW 1207   2.896   1.492   1.994 -0.4696 -0.5389  0.0806
  403SOL    HW1 1208   2.996   1.467   1.994 -2.1471  1.6987  2.2067
  403SOL    HW2 1209   2.855   1.452   2.077  0.6318 -0.8327  0.0745
  404SOL     OW 1210   2.863   1.966   2.368 -0.1898 -0.3658  0.0708
  404SOL    HW1 1211   2.879   2.036   2.297  0.1385 -2.1960 -1.1097
  404SOL    HW2 1212   2.883   2.013   2.457  0.9091 -0.2266  1.6871
  405SOL     OW 1213   2.135   0.059   2.584  0.1926  0.0621  0.2080
  405SOL    HW1 1214   2.082   0.032   2.665  0.2868 -0.9812 -1.7519
  405SOL    HW2 1215   2.083   0.045   2.496  0.1845 -2.2548 -3.0182
  406SOL     OW 1216   1.458   2.072   0.629 -0.1383 -0.6278  0.0482
  406SOL    HW1 1217   1.416   2.035   0.544  1.5405  1.4594 -0.6996
  406SOL    HW2 1218   1.561   2.075   0.622 -0.4564  0.6287 -0.0777
  407SOL     OW 1219   1.917   1.342   0.140 -0.2097  0.1660  0.2859
  407SOL    HW1 1220   1.892   1.379   0.051 -1.4985  1.1445  3.5311
  407SOL    HW2 1221   1.831   1.301   0.183 -0.5671  0.9113 -0.0982
  408SOL     OW 1222   0.199   0.944   1.721 -0.0779  0.3150 -0.3824
  408SOL    HW1 1223   0.131   0.931   1.650  0.2463 -1.5818  2.5173
  408SOL    HW2 1224   0.198   0.857   1.777  2.8620  0.2064  2.2378
  409SOL     OW 1225   2.850   1.340   2.934 -0.5711 -0.2073 -0.2822
  409SOL    HW1 1226   2.780   1.265   2.935  1.6192 -0.4966  0.5489
  409SOL    HW2 1227   2.928   1.286   2.967 -2.1811 -3.5088 -2.1664
  410SOL     OW 1228   2.764   1.733   0.916 -0.2234  0.2093 -0.1000
  410SOL    HW1 1229   2.822   1.793   0.853  0.8345  2.2070 -2.8130
  410SOL    HW2 1230   2.703   1.675   0.863 -0.2296  0.8037  0.0328
  411SOL     OW 1231   2.996   0.332   0.420  0.2140 -0.3583 -0.2377
  411SOL    HW1 1232   2.925   0.396   0.389  0.4569 -1.7474 -1.2167
  411SOL    HW2 1233   2.968   0.259   0.489 -1.1757 -1.6019  0.4797
  412SOL     OW 1234   1.823   0.082   0.316  0.5110  0.2274  0.5208
  412SOL    HW1 1235   1.884   0.071   0.399 -0.2255  2.4392  1.4367
  412SOL    HW2 1236   1.865   0.148   0.253  0.2782 -1.6248 -1.2229
  413SOL     OW 1237   1.273   0.192   1.715  0.4218 -0.0563 -0.0084
  413SOL    HW1 1238   1.360   0.236   1.719 -3.3055  1.2613 -0.7110
  413SOL    HW2 1239   1.271   0.097   1.670 -1.0612 -1.2176 -3.1234
  414SOL     OW 1240   0.471   1.108   0.234  0.3962  0.0356  0.3642
  414SOL    HW1 1241   0.497   1.071   0.144 -0.8731  1.6707 -0.6188
  414SOL    HW2 1242   0.536   1.074   0.299 -0.8901  3.5784 -0.1970
  415SOL     OW 1243   2.867   1.317   0.486  0.3003 -0.1646 -0.3720
  415SOL    HW1 1244   2.961   1.308   0.524  0.9331 -1.3498 -0.5613
  415SOL    HW2 1245   2.822   1.402   0.519 -0.2134 -0.6760 -0.9246
  416SOL     OW 1246   2.306   0.758   0.169 -0.5381 -0.5483 -0.1867
  416SOL    HW1 1247   2.322   0.661   0.154 -2.3901 -3.1735  0.5310
  416SOL    HW2 1248   2.395   0.806   0.192 -2.0907  0.5265 -3.4688
  417SOL     OW 1249   2.723   2.717   0.200 -0.3530  0.5755  0.3561
  417SOL    HW1 1250   2.675   2.735   0.111 -1.6240 -0.0186 -0.3809
  417SOL    HW2 1251   2.726   2.618   0.216 -1.1109  1.3874  2.3298
  418SOL     OW 1252   3.019   0.322   0.110  0.6965 -0.4965  0.2223
  418SOL    HW1 1253   2.930   0.342   0.152 -0.1680 -0.6883  0.7501
  418SOL    HW2 1254   3.010   0.297   0.012 -0.0664 -0.0918 -0.9857
  419SOL     OW 1255   0.817   0.790   0.947 -0.5291 -0.2073 -0.6132
  419SOL    HW1 1256   0.860   0.806   1.042  2.1982 -0.7947 -1.0491
  419SOL    HW2 1257   0.805   0.687   0.933 -1.6335 -1.6127 -1.3907
  420SOL     OW 1258   0.333   0.921   0.901  0.0892 -0.1284  0.0916
  420SOL    HW1 1259   0.237   0.915   0.935 -0.0368  1.6742  0.7225
  420SOL    HW2 1260   0.397   0.884   0.972  0.8895 -0.4775  0.3990
  421SOL     OW 1261   0.471   2.015   0.550  0.6252 -0.0822 -0.3794
  421SOL    HW1 1262   0.441   2.047   0.460 -2.4703 -0.2414 -2.5689
  421SOL    HW2 1263   0.544   2.078   0.584  2.0769  1.9730  0.5175
  422SOL     OW 1264   2.775   0.353   1.821 -0.2105  0.1159 -0.3710
  422SOL    HW1 1265   2.829   0.374   1.904 -0.5767 -1.2294  3.2328
  422SOL    HW2 1266   2.675   0.349   1.840  3.2818 -2.5325 -1.1904
  423SOL     OW 1267   2.011   1.658   0.202  0.1929  0.6260 -0.6104
  423SOL    HW1 1268   2.061   1.568   0.192 -0.2836  0.4607 -0.0405
  423SOL    HW2 1269   2.028   1.723   0.129  0.8805  0.4740  2.2138
  424SOL     OW 1270   1.755   1.728   2.600 -0.0964 -0.4011 -0.4166
  424SOL    HW1 1271   1.743   1.677   2.510 -1.3712  2.5249 -0.2796
  424SOL    HW2 1272   1.850   1.739   2.627 -0.5995 -1.6549 -0.0594
  425SOL     OW 1273   0.160   0.096   1.974  0.3042  0.0505  0.2704
  425SOL    HW1 1274   0.134   3.083   1.948 -2.5954 -0.0638  0.4978
  425SOL    HW2 1275   0.137   0.165   1.900  0.9951  1.4368 -1.3166
  426SOL     OW 1276   1.863   2.777   0.252  0.5967 -0.3472 -0.2223
  426SOL    HW1 1277   1.812   2.691   0.213 -0.7250  0.3408 -2.6613
  426SOL    HW2 1278   1.854   2.779   0.352 -0.5396  0.5987  2.1213
  427SOL     OW 1279   0.269   1.529   2.541 -0.0807 -0.0156  0.3137
  427SOL    HW1 1280   0.357   1.582   2.520  0.3189 -3.0911 -1.4483
  427SOL    HW2 1281   0.188   1.583   2.513  2.5836  2.2700 -2.7426
  428SOL     OW 1282   2.144   1.347   2.586  0.3029  0.6216 -0.1203
  428SOL    HW1 1283   2.180   1.273   2.527  0.4551 -1.9886  0.1073
  428SOL    HW2 1284   2.092   1.323   2.674 -1.4154 -2.3180  2.1243
  429SOL     OW 1285   2.270   2.894   0.566  0.2956 -0.3546 -0.2585
  429SOL    HW1 1286   2.257   2.824   0.492 -0.1974 -1.4905  1.4030
  429SOL    HW2 1287   2.344   2.965   0.543  1.5030  2.6254 -0.0671
  430SOL     OW 1288   1.755   1.964   2.134 -0.4295  0.3202 -0.3920
  430SOL    HW1 1289   1.681   1.915   2.080  0.3403  0.2821 -0.8520
  430SOL    HW2 1290   1.796   1.894   2.206  1.5418 -2.1124  1.0316
  431SOL     OW 1291   3.027   2.035   1.810 -0.4259  0.5618 -0.0051
  431SOL    HW1 1292   2.977   1.974   1.741 -0.1491  0.8060  0.5123
  431SOL    HW2 1293   3.018   1.989   1.902  2.6932 -0.7127 -1.0307
  432SOL     OW 1294   1.073   2.270   2.349  0.4574 -0.4468  0.0223
  432SOL    HW1 1295   0.973   2.283   2.344  1.4362 -1.7909  2.4750
  432SOL    HW2 1296   1.109   2.231   2.266  0.7503  0.2947  5.6729
  433SOL     OW 1297   1.012   2.846   0.714  0.2733  0.5045  0.7486
  433SOL    HW1 1298   1.056   2.767   0.678 -1.2112 -0.0533  1.9694
  433SOL    HW2 1299   1.013   2.926   0.652  0.5120 -2.2331  0.5880
  434SOL     OW 1300   0.285   2.024   2.341 -0.4469  0.1871  0.2278
  434SOL    HW1 1301   0.215   1.992   2.275 -0.6846 -0.9298 -0.5825
  434SOL    HW2 1302   0.355   2.083   2.301 -1.6766 -1.6580 -0.8395
  435SOL     OW 1303   0.345   1.399   0.517 -0.3578 -0.0936  0.3454
  435SOL    HW1 1304   0.283   1.468   0.471 -2.7492  2.0608 -1.0007
  435SOL    HW2 1305   0.338   1.417   0.618 -2.0281 -1.2576 -2.3467
  436SOL     OW 1306   0.605   1.919   2.090  0.3214 -0.4939 -0.6324
  436SOL    HW1 1307   0.564   1.830   2.126  0.6460 -0.9168  1.0545
  436SOL    HW2 1308   0.532   1.980   2.060  2.2549 -1.4756 -0.3779
  437SOL     OW 1309   1.037   0.576   0.352 -0.0882 -0.2385 -0.3548
  437SOL    HW1 1310   1.067   0.564   0.450  2.3111  0.2705  0.3184
  437SOL    HW2 1311   1.112   0.615   0.297 -0.1006  2.3489 -0.3509
  438SOL     OW 1312   0.805   2.043   0.893 -0.2991 -0.1110  0.8839
  438SOL    HW1 1313   0.707   2.068   0.909 -2.4507 -0.6616 -2.3273
  438SOL    HW2 1314   0.812   1.977   0.814 -0.9142 -0.1894 -0.9138
  439SOL     OW 1315   1.026   2.641   1.958 -0.3944 -0.1916  0.2630
  439SOL    HW1 1316   0.976   2.602   2.041 -1.2084  1.2889  1.3576
  439SOL    HW2 1317   0.958   2.668   1.887 -1.0144  0.6754 -2.6170
  440SOL     OW 1318   1.662   0.039   1.479  0.4832 -0.7753  0.3393
  440SOL    HW1 1319   1.738   0.045   1.550  1.2214 -0.5495  0.7920
  440SOL    HW2 1320   1.650   0.128   1.431  1.1347  0.8804  1.8411
  441SOL     OW 1321   0.465   0.062   1.487 -0.7854 -0.4021  0.0670
  441SOL    HW1 1322   0.412   0.017   1.557  0.4684  1.4679 -3.3586
  441SOL    HW2 1323   0.565   0.033   1.501 -1.0158  1.1925  1.6306
  442SOL     OW 1324   2.210   1.886   0.380 -0.0674  0.4045 -0.2112
  442SOL    HW1 1325   2.136   1.825   0.407  2.8344  2.5916 -1.1599
  442SOL    HW2 1326   2.200   1.920   0.284 -1.3386  2.1233 -1.3324
  443SOL     OW 1327   2.732   0.386   2.537  0.1021 -0.2847  0.1025
  443SOL    HW1 1328   2.639   0.355   2.520 -0.0129 -1.4633  4.1919
  443SOL    HW2 1329   2.734   0.487   2.548  1.8834 -1.8771  1.2853
  444SOL     OW 1330   2.064   1.403   2.014  0.4053 -0.7234 -0.5579
  444SOL    HW1 1331   2.090   1.351   2.099  1.7521 -1.2466  0.1215
  444SOL    HW2 1332   2.103   1.368   1.928  1.0395  0.9549 -0.4503
  445SOL     OW 1333   2.691   1.982   1.491 -0.3683  0.5262  0.0397
  445SOL    HW1 1334   2.728   1.960   1.585 -1.7913 -1.0677  0.6723
  445SOL    HW2 1335   2.593   2.005   1.497  0.4670 -0.2511 -0.6230
  446SOL     OW 1336   2.832   1.035   0.491  0.2633 -0.5329  0.1197
  446SOL    HW1 1337   2.861   1.132   0.500  0.3052  0.6694  0.9274
  446SOL    HW2 1338   2.844   0.989   0.582 -1.1265 -0.6880 -0.5882
  447SOL     OW 1339   1.017   1.638   0.806  0.6715  0.0588 -0.6778
  447SOL    HW1 1340   1.111   1.606   0.824 -2.8031 -1.4593 -0.5735
  447SOL    HW2 1341   1.018   1.695   0.718 -1.6266  1.3914  2.7036
  448SOL     OW 1342   1.396   1.229   2.059  0.1236  0.0604  0.0820
  448SOL    HW1 1343   1.363   1.231   1.963 -1.3205 -0.2861 -0.6377
  448SOL    HW2 1344   1.327   1.185   2.116  2.4813 -0.4206 -0.5302
  449SOL     OW 1345   0.451   1.612   0.192  0.2980 -0.5387 -0.2309
  449SOL    HW1 1346   0.383   1.680   0.219  0.9872 -1.7693  0.1859
  449SOL    HW2 1347   0.514   1.661   0.128  0.4798  1.1250 -0.4717
  450SOL     OW 1348   2.464   2.316   1.873 -0.5243  0.7990 -0.5429
  450SOL    HW1 1349   2.466   2.340   1.774 -1.2233 -1.6182  1.1459
  450SOL    HW2 1350   2.372   2.344   1.908 -0.3590  0.7530  0.8048
  451SOL     OW 1351   1.965   0.299   2.235 -0.1168 -0.5403 -0.0564
  451SOL    HW1 1352   1.924   0.375   2.292  1.1739  2.7526  1.8115
  451SOL    HW2 1353   1.930   0.307   2.142 -2.3665  1.8093  1.3635
  452SOL     OW 1354   1.055   0.049   1.345 -0.4380 -0.4464 -0.1229
  452SOL    HW1 1355   1.044   3.037   1.304 -0.2169 -0.4426 -1.1875
  452SOL    HW2 1356   0.966   0.093   1.352  2.0066 -0.1809 -1.3296
  453SOL     OW 1357   0.920   1.482   1.078 -0.2808  0.1568  0.3816
  453SOL    HW1 1358   0.915   1.554   1.005  1.0221 -0.8941 -1.1588
  453SOL    HW2 1359   0.868   1.400   1.046 -0.5903 -2.1694 -0.8817
  454SOL     OW 1360   0.195   1.146   0.706 -0.2959  0.1021  0.3780
  454SOL    HW1 1361   0.142   1.058   0.697  2.1339 -0.7404  3.1951
  454SOL    HW2 1362   0.268   1.149   0.636 -2.1008 -0.6676 -2.0429
  455SOL     OW 1363   2.983   2.749   0.095  0.6200  0.6840 -0.2192
  455SOL    HW1 1364   2.891   2.778   0.130  2.2031  2.3067  1.1209
  455SOL    HW2 1365   3.008   2.806   0.013 -0.6529  2.5246 -2.0798
  456SOL     OW 1366   2.182   2.095   0.798  0.3089 -0.0916  0.0247
  456SOL    HW1 1367   2.240   2.160   0.846  0.7546 -0.7955 -1.1447
  456SOL    HW2 1368   2.216   1.996   0.823  1.2150 -3.4295  0.5484
  457SOL     OW 1369   1.527   0.111   3.027 -0.9051  1.3554 -0.3473
  457SOL    HW1 1370   1.582   0.026   3.003  3.7326 -1.6189  0.6670
  457SOL    HW2 1371   1.485   0.111   0.036  1.7404 -0.6541  0.3160
  458SOL     OW 1372   2.687   2.933   0.396  0.5564 -0.4196  0.1086
  458SOL    HW1 1373   2.739   2.880   0.465 -0.2683  1.2869 -0.9283
  458SOL    HW2 1374   2.681   2.876   0.313  1.9480 -0.3294  2.9649
  459SOL     OW 1375   2.015   0.353   2.531  0.2845 -0.2980  0.0672
  459SOL    HW1 1376   1.914   0.327   2.524  0.3728 -0.2629 -1.7346
  459SOL    HW2 1377   2.086   0.284   2.501  1.8630  0.2666 -1.0410
  460SOL     OW 1378   2.798   3.019   3.037 -0.4113 -0.0525  0.2133
  460SOL    HW1 1379   2.856   3.054   0.024 -1.7607 -1.0430 -0.8030
  460SOL    HW2 1380   2.723   2.952   3.074 -0.8940 -1.3947  0.2104
  461SOL     OW 1381   0.768   1.390   1.270  0.4950 -0.8345  0.4968
  461SOL    HW1 1382   0.681   1.441   1.252 -0.6326  0.0953  3.0110
  461SOL    HW2 1383   0.846   1.433   1.223 -0.3753  3.2081  0.9352
  462SOL     OW 1384   2.769   2.728   1.661 -0.4035  0.7888 -0.4683
  462SOL    HW1 1385   2.777   2.705   1.760 -0.6955 -0.5057  0.7898
  462SOL    HW2 1386   2.770   2.640   1.604 -1.4508 -1.2187  0.3330
  463SOL     OW 1387   2.655   1.140   2.971  0.1987 -0.2132 -0.3738
  463SOL    HW1 1388   2.594   1.150   3.054  1.2418 -0.6788 -0.0730
  463SOL    HW2 1389   2.633   1.060   2.913 -1.0167 -0.8149  0.0040
  464SOL     OW 1390   0.163   2.581   1.369  0.5982  0.3577 -0.0400
  464SOL    HW1 1391   0.243   2.610   1.319 -1.9544  1.6317  1.5745
  464SOL    HW2 1392   0.122   2.661   1.422 -0.7388  2.4015  0.9217
  465SOL     OW 1393   0.345   1.145   0.467 -0.2448 -0.1483 -0.3211
  465SOL    HW1 1394   0.397   1.130   0.377  1.9251 -0.3055  0.5063
  465SOL    HW2 1395   0.349   1.250   0.478 -0.2100 -1.1155  1.8293
  466SOL     OW 1396   1.111   0.396   2.080  0.6235  0.2040  0.4079
  466SOL    HW1 1397   1.137   0.342   2.163  1.6227  0.7805  0.6571
  466SOL    HW2 1398   1.098   0.337   1.998 -0.2515 -1.5885  0.2990
  467SOL     OW 1399   0.876   0.671   2.334  0.6235 -0.2447  0.1763
  467SOL    HW1 1400   0.807   0.725   2.389 -2.6777 -0.5664  1.9687
  467SOL    HW2 1401   0.925   0.605   2.396 -0.7881  0.1119  1.6044
  468SOL     OW 1402   0.028   1.123   2.503 -0.1123 -0.1875  0.3053
  468SOL    HW1 1403   0.049   1.149   2.600 -0.6248 -0.5489  0.8788
  468SOL    HW2 1404   0.052   1.200   2.442  1.3638  2.2845 -0.3405
  469SOL     OW 1405   0.403   1.899   0.816  0.5252 -0.2620 -0.1429
  469SOL    HW1 1406   0.423   1.933   0.720 -0.3410 -1.9862  2.7579
  469SOL    HW2 1407   0.466   1.948   0.880  1.7890  1.6036  0.8190
  470SOL     OW 1408   2.647   1.805   2.438  1.0131  0.3714  0.1889
  470SOL    HW1 1409   2.738   1.848   2.427 -1.3499  1.5726  0.4821
  470SOL    HW2 1410   2.625   1.775   2.346 -0.0532  0.7642  2.1608
  471SOL     OW 1411   1.528   0.785   2.227  0.1228 -0.1969  0.3291
  471SOL    HW1 1412   1.624   0.773   2.204 -1.4683  0.2452 -0.6020
  471SOL    HW2 1413   1.512   0.875   2.270  0.6253 -0.4503  1.7112
  472SOL     OW 1414   0.818   2.745   1.155  0.3147  0.6503 -0.2302
  472SOL    HW1 1415   0.768   2.658   1.155  1.7656 -2.2401 -0.5387
  472SOL    HW2 1416   0.813   2.790   1.064  2.1775 -1.5908  1.6573
  473SOL     OW 1417   0.674   0.329   2.309 -0.5617 -0.7561 -0.3174
  473SOL    HW1 1418   0.747   0.373   2.250  0.4084  1.5705 -0.1416
  473SOL    HW2 1419   0.648   0.236   2.280  2.0858  2.3030  1.5264
  474SOL     OW 1420   1.772   2.893   1.349  0.0347 -0.3425  0.1328
  474SOL    HW1 1421   1.728   2.978   1.387  2.2680  0.6416  2.7799
  474SOL    HW2 1422   1.807   2.910   1.255  0.1848  0.5006  2.3774
  475SOL     OW 1423   1.930   0.202   0.909 -0.7088  0.1633  0.3272
  475SOL    HW1 1424   2.002   0.141   0.866  1.1761 -2.7053  1.0418
  475SOL    HW2 1425   1.970   0.295   0.929 -0.4783 -1.9370 -0.1399
  476SOL     OW 1426   0.455   0.823   1.127  0.1973  0.2633  0.2157
  476SOL    HW1 1427   0.474   0.920   1.136  0.3570 -2.2358 -2.4586
  476SOL    HW2 1428   0.503   0.769   1.189 -2.9939  0.0372 -0.2285
  477SOL     OW 1429   1.271   2.735   0.248  0.0290  0.4018  0.2007
  477SOL    HW1 1430   1.324   2.700   0.166  0.6575 -0.1803 -1.2589
  477SOL    HW2 1431   1.344   2.771   0.317  2.3423  0.1032  1.6967
  478SOL     OW 1432   0.292   2.366   2.347  0.4440  0.0905 -0.5061
  478SOL    HW1 1433   0.301   2.463   2.352  2.1450 -0.2766 -0.3595
  478SOL    HW2 1434   0.311   2.325   2.439  1.5459  0.4187 -0.9679
  479SOL     OW 1435   2.733   0.209   1.228  0.4243  0.1022 -0.1277
  479SOL    HW1 1436   2.630   0.207   1.213 -0.1522  1.3121  1.5772
  479SOL    HW2 1437   2.782   0.260   1.160 -2.8680 -2.4208  3.6521
  480SOL     OW 1438   0.535   2.392   0.460 -0.4719  0.6522 -0.2351
  480SOL    HW1 1439   0.613   2.378   0.391  0.6847 -2.4555 -3.4549
  480SOL    HW2 1440   0.463   2.459   0.428  0.0462 -0.7743  1.1831
  481SOL     OW 1441   2.128   2.159   1.271 -0.2422  0.4897 -0.0705
  481SOL    HW1 1442   2.138   2.060   1.304  0.6118  3.5217  2.7359
  481SOL    HW2 1443   2.213   2.210   1.286  0.4903  1.2402  1.9627
  482SOL     OW 1444   1.082   2.310   2.892  1.2155 -0.1263 -0.1535
  482SOL    HW1 1445   1.161   2.253   2.871 -0.0445 -0.4869 -1.4517
  482SOL    HW2 1446   1.056   2.301   2.990  0.7776 -1.9365 -2.4108
  483SOL     OW 1447   0.840   2.255   2.097 -0.5021  0.2592 -0.3308
  483SOL    HW1 1448   0.811   2.320   2.022  1.3217 -2.9307 -2.5970
  483SOL    HW2 1449   0.937   2.219   2.083  3.7008  0.3417  1.5538
  484SOL     OW 1450   0.985   0.617   1.614 -0.5400 -0.2966 -1.1269
  484SOL    HW1 1451   0.955   0.523   1.621 -1.0705 -0.6296  0.9502
  484SOL    HW2 1452   1.084   0.626   1.593  2.0371  2.3940  1.1071
  485SOL     OW 1453   1.652   0.654   2.620 -0.3079 -0.3613  0.0879
  485SOL    HW1 1454   1.739   0.711   2.621  1.2536  2.0290  2.1497
  485SOL    HW2 1455   1.635   0.605   2.530  0.4125 -1.3705 -0.8119
  486SOL     OW 1456   2.486   2.620   0.978 -0.1525  0.3531 -0.4108
  486SOL    HW1 1457   2.501   2.530   0.935 -0.5723 -1.3051  1.5430
  486SOL    HW2 1458   2.524   2.687   0.909 -0.0355 -0.3979 -3.6783
  487SOL     OW 1459   0.832   2.061   1.360  0.1303 -0.1643  0.3434
  487SOL    HW1 1460   0.896   2.139   1.361 -3.4149  2.6385 -0.6915
  487SOL    HW2 1461   0.765   2.065   1.438 -2.0004  1.5734  1.2484
  488SOL     OW 1462   2.259   1.693   3.020  0.1129 -0.0720  0.0041
  488SOL    HW1 1463   2.301   1.660   2.936 -1.8582 -1.3594  0.0874
  488SOL    HW2 1464   2.308   1.660   0.020 -0.7217  1.0576 -0.7007
  489SOL     OW 1465   1.996   2.963   1.082  0.0943 -0.5401  0.3477
  489SOL    HW1 1466   1.976   2.918   0.996  1.3443  0.3135  2.7077
  489SOL    HW2 1467   2.067   2.912   1.137 -1.4058  1.6841 -0.2209
  490SOL     OW 1468   0.981   1.411   0.186  0.4098  0.3463 -0.2078
  490SOL    HW1 1469   1.081   1.439   0.189  0.9814 -1.2432 -0.1185
  490SOL    HW2 1470   0.934   1.463   0.257  0.6709 -3.1458  2.8500
  491SOL     OW 1471   0.372   1.973   1.444  0.4255 -0.1568  0.4662
  491SOL    HW1 1472   0.292   2.031   1.418 -1.1459 -2.6841 -0.7526
  491SOL    HW2 1473   0.360   1.937   1.541 -1.5066 -1.1631  0.8675
  492SOL     OW 1474   0.829   1.641   1.862 -0.7241  0.3860 -0.4212
  492SOL    HW1 1475   0.874   1.589   1.787 -0.7306 -1.9171  1.0302
  492SOL    HW2 1476   0.819   1.742   1.841 -0.7354 -0.6349 -1.2945
  493SOL     OW 1477   2.944   2.198   0.839 -0.1673 -0.7177  0.2252
  493SOL    HW1 1478   2.881   2.164   0.762  0.7506  0.6022 -0.3448
  493SOL    HW2 1479   2.932   2.142   0.919  0.1120 -0.4257 -1.2700
  494SOL     OW 1480   2.691   2.086   0.695  0.6631 -0.5592 -0.0798
  494SOL    HW1 1481   2.621   2.140   0.645  1.5334  1.4997 -1.1495
  494SOL    HW2 1482   2.727   2.008   0.632  2.0513 -0.4388  2.1358
  495SOL     OW 1483   2.590   2.846   0.015 -0.0351 -0.2543 -0.0550
  495SOL    HW1 1484   2.558   2.768   3.038 -1.8229  0.3200  0.7481
  495SOL    HW2 1485   2.521   2.877   0.082  0.2304 -0.4595 -1.5825
  496SOL     OW 1486   2.442   2.868   1.278  0.0929  0.8375 -0.0333
  496SOL    HW1 1487   2.459   2.906   1.184 -0.1574 -0.0662  1.8365
  496SOL    HW2 1488   2.488   2.915   1.350 -1.3353  2.7483 -2.3379
  497SOL     OW 1489   2.485   1.062   2.607  0.0058 -0.3402 -0.0540
  497SOL    HW1 1490   2.546   1.144   2.597  1.5426  2.4612  0.5207
  497SOL    HW2 1491   2.499   1.011   2.692  1.0908  1.3322 -3.0070
  498SOL     OW 1492   3.052   1.900   1.238 -0.2112  0.4939  0.4946
  498SOL    HW1 1493   0.009   1.915   1.329  1.7208  0.8836 -1.3737
  498SOL    HW2 1494   3.006   1.986   1.203 -0.6263  0.0638 -1.9514
  499SOL     OW 1495   0.724   2.263   2.824 -0.2933 -0.1032 -0.0659
  499SOL    HW1 1496   0.766   2.236   2.916 -1.3572 -0.6696 -0.6683
  499SOL    HW2 1497   0.795   2.295   2.762 -0.6762 -0.5530  0.8245
  500SOL     OW 1498   1.710   0.707   0.282  0.3461  0.2886 -0.2759
  500SOL    HW1 1499   1.717   0.804   0.311  0.2150 -1.7117 -1.3485
  500SOL    HW2 1500   1.645   0.657   0.343  0.0683  0.1020  1.8119
  501SOL     OW 1501   1.512   0.315   1.657  0.0719 -0.2359 -0.8616
  501SOL    HW1 1502   1.505   0.348   1.562 -0.8482  3.3555  0.0252
  501SOL    HW2 1503   1.610   0.316   1.689 -0.3895 -1.5866  0.7276
  502SOL     OW 1504   2.326   0.559   1.738 -0.3240 -0.3004 -0.3750
  502SOL    HW1 1505   2.385   0.644   1.738  0.7424  1.0029  0.3268
  502SOL    HW2 1506   2.288   0.537   1.647  3.2750 -0.4538 -0.8804
  503SOL     OW 1507   2.297   1.793   2.107 -0.1206  0.3981 -0.2133
  503SOL    HW1 1508   2.199   1.756   2.086 -0.8130  0.7658 -0.4114
  503SOL    HW2 1509   2.330   1.838   2.022  1.5767  0.7411 -1.0856
  504SOL     OW 1510   1.395   1.263   1.683 -0.3400 -0.5247 -0.0309
  504SOL    HW1 1511   1.497   1.257   1.689 -0.2178 -1.3826 -0.5088
  504SOL    HW2 1512   1.352   1.169   1.685 -1.4320 -5.2679 -1.4042
  505SOL     OW 1513   0.494   0.602   1.744  0.3694  0.2055 -0.6869
  505SOL    HW1 1514   0.460   0.677   1.677 -1.1563  1.2595 -1.4076
  505SOL    HW2 1515   0.582   0.625   1.789  1.9049 -0.9331  1.6369
  506SOL     OW 1516   0.387   0.397   2.818 -0.3752 -0.2844  0.2601
  506SOL    HW1 1517   0.323   0.452   2.767  1.1671  0.4639  1.2223
  506SOL    HW2 1518   0.469   0.447   2.839 -1.6243 -1.6025  1.2951
  507SOL     OW 1519   0.605   0.087   0.075 -0.1503 -0.2446 -0.1820
  507SOL    HW1 1520   0.575   0.066   3.066  0.3249  2.2625  2.3902
  507SOL    HW2 1521   0.620   0.186   0.084 -0.5165 -1.3272  1.7927
  508SOL     OW 1522   0.722   0.693   1.936 -0.2973 -0.7210 -0.2658
  508SOL    HW1 1523   0.647   0.763   1.955  0.1200  0.7898 -0.3936
  508SOL    HW2 1524   0.801   0.716   1.993 -1.0251 -0.1585 -2.1417
  509SOL     OW 1525   1.319   2.368   1.064  0.2374  0.2263 -0.9191
  509SOL    HW1 1526   1.406   2.364   1.118  0.5043  0.1195  2.4032
  509SOL    HW2 1527   1.336   2.407   0.973 -1.8117 -2.9211  1.1053
  510SOL     OW 1528   2.711   1.418   1.567  0.3117  0.2326 -0.2156
  510SOL    HW1 1529   2.769   1.501   1.560 -0.4603 -0.5570  0.1889
  510SOL    HW2 1530   2.619   1.440   1.532 -2.4031  1.6383  0.3005
  511SOL     OW 1531   1.261   1.953   1.456 -0.4598  0.1669  0.0881
  511SOL    HW1 1532   1.302   2.037   1.501 -0.9918 -2.8423 -4.4518
  511SOL    HW2 1533   1.254   1.967   1.356 -0.6309 -2.3171  1.9582
  512SOL     OW 1534   3.044   1.660   0.557  0.3676 -0.0782  0.2035
  512SOL    HW1 1535   2.948   1.624   0.555  0.2490  1.5746  0.3505
  512SOL    HW2 1536   3.035   1.752   0.594  0.7948 -0.6243 -1.1460
  513SOL     OW 1537   3.081   1.606   2.947  0.4703  0.2477 -0.1523
  513SOL    HW1 1538   3.071   1.704   2.976  0.3558  1.7018 -0.7029
  513SOL    HW2 1539   0.073   1.555   2.993  0.1092  0.0492  2.6447
  514SOL     OW 1540   2.264   2.227   2.580  0.0052  0.2146 -0.4699
  514SOL    HW1 1541   2.188   2.176   2.623  1.8745  1.9257 -1.6055
  514SOL    HW2 1542   2.234   2.289   2.508  4.3321 -2.1293  2.1967
  515SOL     OW 1543   2.493   0.795   0.558 -0.0042  0.7534  0.5397
  515SOL    HW1 1544   2.470   0.731   0.633 -0.8392  2.3011  0.0312
  515SOL    HW2 1545   2.581   0.763   0.511  2.4625 -3.6642  1.7117
  516SOL     OW 1546   2.523   2.074   0.084  0.5426 -0.2956  0.0920
  516SOL    HW1 1547   2.443   2.083   0.018  3.6150  1.0251 -2.7167
  516SOL    HW2 1548   2.606   2.052   0.026 -3.1248  2.2029 -1.1288
  517SOL     OW 1549   0.607   1.488   2.761  0.5737 -0.0772 -0.0154
  517SOL    HW1 1550   0.525   1.549   2.750  0.1819  0.8219  0.6745
  517SOL    HW2 1551   0.625   1.464   2.861  1.1548 -0.2684  0.1636
  518SOL     OW 1552   2.860   0.282   2.308  0.6165  0.1772  0.2383
  518SOL    HW1 1553   2.845   0.326   2.394 -0.4082 -1.1591 -0.4706
  518SOL    HW2 1554   2.771   0.234   2.283 -0.4087  0.1153  0.0542
  519SOL     OW 1555   1.653   1.374   2.941  0.3891  0.1648  0.1256
  519SOL    HW1 1556   1.609   1.301   3.000 -1.8442  1.2358 -1.3216
  519SOL    HW2 1557   1.631   1.469   2.969 -0.3784  0.4403 -0.0754
  520SOL     OW 1558   2.647   2.825   2.213 -0.6972  0.0192  0.2411
  520SOL    HW1 1559   2.594   2.900   2.259  1.1351 -2.1899 -0.8056
  520SOL    HW2 1560   2.630   2.733   2.254  0.6218  0.9658  1.6000
  521SOL     OW 1561   0.500   1.666   2.484  0.2015  0.5796 -0.1050
  521SOL    HW1 1562   0.594   1.643   2.451 -2.8260  1.5424 -1.1586
  521SOL    HW2 1563   0.509   1.724   2.568 -0.7697 -3.1528 -3.8074
  522SOL     OW 1564   1.224   2.811   2.035 -0.4756 -0.3399 -0.1964
  522SOL    HW1 1565   1.194   2.818   2.131  0.7001 -1.3324 -0.5351
  522SOL    HW2 1566   1.162   2.748   1.987  2.3684  0.6485  0.8883
  523SOL     OW 1567   2.496   2.154   1.092  0.3462 -0.1839  0.1740
  523SOL    HW1 1568   2.560   2.105   1.031  1.2882 -2.3448  2.1387
  523SOL    HW2 1569   2.537   2.223   1.154 -2.0970  1.7131 -0.7771
  524SOL     OW 1570   1.184   2.023   0.742  0.3218 -0.4539  1.6652
  524SOL    HW1 1571   1.279   2.053   0.707 -0.1897  0.2594 -0.0958
  524SOL    HW2 1572   1.126   2.101   0.771  0.2770 -0.5995 -1.6857
  525SOL     OW 1573   2.778   0.497   0.694  0.1601  0.1179  0.0569
  525SOL    HW1 1574   2.760   0.523   0.792 -0.9676 -1.9934  0.9546
  525SOL    HW2 1575   2.740   0.405   0.667  1.4766 -1.7236 -3.2403
  526SOL     OW 1576   1.705   2.907   0.707  0.8869 -0.0721 -0.6091
  526SOL    HW1 1577   1.655   2.967   0.638  0.2526 -0.6772 -2.1915
  526SOL    HW2 1578   1.685   2.944   0.801  1.7179 -0.5267 -1.1368
  527SOL     OW 1579   1.898   1.787   1.030 -0.2280  0.3255  0.2256
  527SOL    HW1 1580   1.926   1.764   0.933 -0.6709 -0.7646 -0.6484
  527SOL    HW2 1581   1.981   1.824   1.077 -2.1837  2.7763 -1.0994
  528SOL     OW 1582   2.583   2.806   2.708 -0.2719  0.2616  0.7400
  528SOL    HW1 1583   2.529   2.891   2.734 -0.7393  0.6576 -0.3312
  528SOL    HW2 1584   2.644   2.833   2.629  1.4909 -0.6262 -0.3286
  529SOL     OW 1585   1.205   1.315   2.609 -0.0164  0.0114 -0.9280
  529SOL    HW1 1586   1.275   1.329   2.680  0.1013 -1.8538 -2.2229
  529SOL    HW2 1587   1.114   1.321   2.657  0.7260  1.4575  2.5950
  530SOL     OW 1588   2.110   1.214   2.225  0.0766 -0.0840 -0.4766
  530SOL    HW1 1589   2.177   1.200   2.306 -0.0430  2.4002  1.1003
  530SOL    HW2 1590   2.062   1.126   2.198  2.5176  0.4167 -2.2346
  531SOL     OW 1591   0.132   1.056   0.078  0.0948  0.0354  0.5133
  531SOL    HW1 1592   0.211   1.116   0.049 -2.5038 -0.3730 -2.5629
  531SOL    HW2 1593   0.112   1.060   0.181  1.3984  2.2895  0.5729
  532SOL     OW 1594   1.431   1.501   0.527 -0.1968 -0.1609  0.0105
  532SOL    HW1 1595   1.505   1.465   0.585  1.8784  2.4047  1.3933
  532SOL    HW2 1596   1.345   1.453   0.533 -2.1584 -0.7968  0.1861
  533SOL     OW 1597   0.197   0.566   2.384 -0.6999 -0.0821  0.1234
  533SOL    HW1 1598   0.284   0.608   2.345 -3.2253  3.5129 -1.0906
  533SOL    HW2 1599   0.223   0.508   2.463  1.1309 -1.2042  0.1124
  534SOL     OW 1600   1.220   0.646   2.566 -0.3121 -0.2324 -0.2133
  534SOL    HW1 1601   1.134   0.596   2.566  2.0626  1.2907  3.1550
  534SOL    HW2 1602   1.207   0.732   2.516 -1.4722 -0.0670  3.8582
  535SOL     OW 1603   0.494   0.505   0.276 -0.1024 -0.0425  0.0839
  535SOL    HW1 1604   0.439   0.587   0.263  2.1295 -2.9099 -0.6278
  535SOL    HW2 1605   0.570   0.518   0.343 -1.4492  0.0496  0.8034
  536SOL     OW 1606   0.413   0.712   0.014 -0.0819 -0.1118  0.0953
  536SOL    HW1 1607   0.466   0.712   0.107  0.8206  0.3536  0.2524
  536SOL    HW2 1608   0.463   0.666   3.023  1.5446 -1.2799 -1.2575
  537SOL     OW 1609   1.432   3.030   1.386  0.2117  0.2894  0.0256
  537SOL    HW1 1610   1.354   3.046   1.455  0.7296  0.3146  2.3706
  537SOL    HW2 1611   1.518   3.061   1.429 -4.5609 -0.9853 -0.1502
  538SOL     OW 1612   0.367   2.712   3.058 -0.0512 -0.0089  0.0678
  538SOL    HW1 1613   0.360   2.806   3.022 -0.2300  2.4122  0.1345
  538SOL    HW2 1614   0.344   2.637   2.990 -2.1763  1.4669 -2.1545
  539SOL     OW 1615   2.865   1.301   1.800 -0.3217  0.0210 -0.4555
  539SOL    HW1 1616   2.805   1.326   1.725  2.3900  1.7649 -0.0901
  539SOL    HW2 1617   2.856   1.375   1.868  1.2854 -0.2555 -3.8498
  540SOL     OW 1618   2.148   1.674   1.441 -0.0851 -0.1241  0.8700
  540SOL    HW1 1619   2.246   1.643   1.434 -0.8001 -0.1482 -2.2558
  540SOL    HW2 1620   2.089   1.608   1.392  2.0028  3.2814  0.3037
  541SOL     OW 1621   0.630   2.032   1.545 -0.3776  0.1708  0.0050
  541SOL    HW1 1622   0.559   2.007   1.476  2.5152  0.3247  0.6537
  541SOL    HW2 1623   0.657   1.949   1.598 -0.3545 -2.2521  1.0572
  542SOL     OW 1624   2.344   0.962   1.885  0.0637 -0.0498 -0.1631
  542SOL    HW1 1625   2.243   0.998   1.882 -1.4711  1.6945 -0.1534
  542SOL    HW2 1626   2.377   0.966   1.977 -1.5805  0.3240 -2.8144
  543SOL     OW 1627   1.128   0.569   0.710 -0.2257  0.3811 -0.3815
  543SOL    HW1 1628   1.092   0.657   0.674  1.5967 -1.3496  2.4924
  543SOL    HW2 1629   1.069   0.520   0.778 -1.5046 -1.6725 -3.2644
  544SOL     OW 1630   2.119   1.946   1.447  0.0966  0.2932 -0.0730
  544SOL    HW1 1631   2.023   1.975   1.475  0.8731 -1.7559 -1.8206
  544SOL    HW2 1632   2.120   1.844   1.449 -1.2378  1.5243 -0.9106
  545SOL     OW 1633   1.571   1.597   1.265 -0.1596  0.0772 -0.2619
  545SOL    HW1 1634   1.604   1.510   1.222 -0.6353 -0.4293  0.0198
  545SOL    HW2 1635   1.619   1.672   1.218  1.6298 -3.0657 -0.1776
  546SOL     OW 1636   0.119   0.076   2.888 -0.1458 -0.0233 -0.5063
  546SOL    HW1 1637   0.053   0.146   2.859  0.0453  1.2167  0.0357
  546SOL    HW2 1638   0.183   0.118   2.953 -0.7223  0.5355 -2.7897
  547SOL     OW 1639   2.303   0.498   3.070 -0.5257 -0.2876  0.0168
  547SOL    HW1 1640   2.211   0.533   3.047  2.3860 -2.5156 -1.6803
  547SOL    HW2 1641   2.311   0.397   3.044  2.0073 -1.6126 -1.9664
  548SOL     OW 1642   2.365   2.262   2.203  0.5089 -0.5086  0.2385
  548SOL    HW1 1643   2.331   2.340   2.258  1.3511  0.5886 -0.0997
  548SOL    HW2 1644   2.450   2.234   2.248 -0.7686 -2.5329 -0.5056
  549SOL     OW 1645   2.186   2.882   0.832  0.0085 -0.7310 -0.0078
  549SOL    HW1 1646   2.210   2.894   0.732 -0.7157 -0.4415 -0.5116
  549SOL    HW2 1647   2.202   2.787   0.868  1.2800 -0.0326  2.3386
  550SOL     OW 1648   2.219   1.313   3.054 -0.0624  0.0420 -0.7278
  550SOL    HW1 1649   2.285   1.237   3.048  0.6344 -1.8303 -0.0066
  550SOL    HW2 1650   2.188   1.333   0.066 -1.3262 -0.5508  2.8984
  551SOL     OW 1651   1.233   3.057   1.542  0.2176 -0.2938 -0.1266
  551SOL    HW1 1652   1.207   2.960   1.566 -1.4873 -0.8160 -1.2053
  551SOL    HW2 1653   1.158   0.015   1.484  0.0034 -2.0386 -0.8475
  552SOL     OW 1654   2.771   2.444   2.944  0.4775 -0.1068 -0.5554
  552SOL    HW1 1655   2.835   2.465   2.867  0.0671 -3.0009 -0.3264
  552SOL    HW2 1656   2.698   2.515   2.953  2.3911 -1.6391  0.3420
  553SOL     OW 1657   0.751   0.072   0.549  0.0362 -0.3778  0.3448
  553SOL    HW1 1658   0.690   0.136   0.606  0.1830  0.0444  0.6749
  553SOL    HW2 1659   0.704   3.071   0.523  0.5113  2.1854  1.2404
  554SOL     OW 1660   1.965   2.246   1.505 -0.3388 -0.3440 -0.2683
  554SOL    HW1 1661   1.899   2.173   1.530 -1.9584 -2.1517 -0.4570
  554SOL    HW2 1662   2.018   2.232   1.419  1.8955 -1.8205  0.1287
  555SOL     OW 1663   1.417   2.433   1.827 -0.2852 -0.2637  0.2660
  555SOL    HW1 1664   1.463   2.485   1.905  1.4235  2.0508  2.0032
  555SOL    HW2 1665   1.317   2.447   1.832  0.1828  0.3237  1.9716
  556SOL     OW 1666   1.831   1.714   0.506 -0.2122 -0.3021 -0.1689
  556SOL    HW1 1667   1.796   1.718   0.605 -0.9437  0.6100  2.6365
  556SOL    HW2 1668   1.753   1.707   0.439 -3.8147 -1.4375 -3.2027
  557SOL     OW 1669   1.565   2.206   1.868 -0.2374 -0.7950 -0.1765
  557SOL    HW1 1670   1.506   2.289   1.852 -0.6936  3.0204  0.0798
  557SOL    HW2 1671   1.593   2.210   1.969  0.0007  1.7631 -2.0679
  558SOL     OW 1672   0.131   0.411   2.146  0.5694  0.1221 -0.4564
  558SOL    HW1 1673   0.208   0.343   2.152  1.3944 -0.0831 -1.0005
  558SOL    HW2 1674   0.124   0.473   2.228  1.3542  1.1185 -0.0290
  559SOL     OW 1675   2.143   2.913   2.018  0.0615 -0.1535 -0.1881
  559SOL    HW1 1676   2.137   3.011   1.991 -0.9094 -0.7941 -0.3068
  559SOL    HW2 1677   2.215   2.894   2.089 -2.2558 -1.1082  0.5317
  560SOL     OW 1678   0.487   0.006   2.934  0.1265  0.0235 -0.2231
  560SOL    HW1 1679   0.440   3.019   2.879 -1.1941 -0.6844  2.3949
  560SOL    HW2 1680   0.412   0.066   2.971 -2.2035 -0.5275 -2.6364
  561SOL     OW 1681   1.475   1.093   0.351 -0.0310  0.0716  0.4571
  561SOL    HW1 1682   1.469   1.030   0.272  1.3002  0.5845 -0.1283
  561SOL    HW2 1683   1.382   1.128   0.373 -0.1782 -0.8429 -0.3603
  562SOL     OW 1684   0.956   1.161   2.361 -0.3310  0.3133  0.1012
  562SOL    HW1 1685   0.860   1.200   2.376  1.0564 -1.3311  2.1479
  562SOL    HW2 1686   0.975   1.081   2.421  0.2411  2.8352 -1.6926
  563SOL     OW 1687   1.595   2.157   2.677 -0.1332  0.1582  0.0472
  563SOL    HW1 1688   1.572   2.127   2.773 -0.9649 -1.0961 -0.1953
  563SOL    HW2 1689   1.583   2.257   2.666  0.1246 -0.5275  0.1877
  564SOL     OW 1690   3.011   1.930   0.542 -0.2726 -0.3500  0.0358
  564SOL    HW1 1691   0.011   1.946   0.484  0.2978  1.7187  0.9430
  564SOL    HW2 1692   2.924   1.950   0.496 -0.9245 -1.8204  0.0457
  565SOL     OW 1693   1.098   2.795   2.601 -0.3831 -0.1986 -0.3197
  565SOL    HW1 1694   1.195   2.809   2.623  0.7297 -1.6607  0.3399
  565SOL    HW2 1695   1.085   2.696   2.591 -0.3823  1.8087 -0.6344
  566SOL     OW 1696   1.659   2.950   2.522  0.0819 -0.0862 -0.1438
  566SOL    HW1 1697   1.760   2.924   2.530  3.4289 -0.2324 -2.7779
  566SOL    HW2 1698   1.619   2.964   2.615  1.7954  2.0816  0.3226
  567SOL     OW 1699   2.446   1.178   1.033 -0.0303  0.0623 -0.3327
  567SOL    HW1 1700   2.470   1.113   1.112 -1.0263 -1.6585 -1.5068
  567SOL    HW2 1701   2.358   1.215   1.044  1.4967 -2.6195 -2.9617
  568SOL     OW 1702   2.018   1.356   2.840  0.4360  0.5823 -0.1841
  568SOL    HW1 1703   1.935   1.302   2.850  0.6051  0.5545 -0.9838
  568SOL    HW2 1704   2.082   1.338   2.919 -0.7574 -1.5703  2.5150
  569SOL     OW 1705   2.266   1.775   2.438  0.0200  0.2060 -0.2203
  569SOL    HW1 1706   2.330   1.836   2.499 -0.4612  1.6598  1.1641
  569SOL    HW2 1707   2.212   1.836   2.388 -0.4366 -1.7547  2.1072
  570SOL     OW 1708   3.064   2.425   1.992  0.2341  0.6124 -0.2525
  570SOL    HW1 1709   0.018   2.365   2.064 -1.5515 -0.6400  2.0224
  570SOL    HW2 1710   2.977   2.383   1.950 -0.4787 -1.3470 -2.1905
  571SOL     OW 1711   0.579   0.114   2.128  0.2126  0.0127  0.3816
  571SOL    HW1 1712   0.628   0.072   2.211  0.0379  0.6001  2.4066
  571SOL    HW2 1713   0.648   0.141   2.058  0.4008  3.7158  0.1489
  572SOL     OW 1714   0.898   1.790   0.978  0.5068  0.4385 -0.1169
  572SOL    HW1 1715   0.948   1.727   0.912 -0.3224 -1.4259  2.1347
  572SOL    HW2 1716   0.910   1.887   0.955 -1.7554  0.7331 -1.0353
  573SOL     OW 1717   1.212   0.394   0.181 -0.3935  0.2852  0.5243
  573SOL    HW1 1718   1.134   0.435   0.226  0.2856  0.0112  0.0368
  573SOL    HW2 1719   1.259   0.461   0.118  0.3632 -0.3448 -2.8823
  574SOL     OW 1720   0.454   3.011   0.276  0.1489 -0.3266  0.0632
  574SOL    HW1 1721   0.493   3.077   0.204 -0.4735 -0.8003  2.5147
  574SOL    HW2 1722   0.517   2.997   0.356 -1.6690 -1.1609  0.7959
  575SOL     OW 1723   0.042   1.444   1.414 -0.4855 -0.7571 -0.4264
  575SOL    HW1 1724   0.123   1.459   1.480 -1.3579 -2.8598 -0.3623
  575SOL    HW2 1725   0.072   1.409   1.320  1.8461  0.4961  2.4561
  576SOL     OW 1726   2.508   0.360   1.841 -0.1832 -0.0182  0.4683
  576SOL    HW1 1727   2.478   0.441   1.789 -0.5997 -0.0296 -1.4084
  576SOL    HW2 1728   2.430   0.304   1.875  0.0021 -0.7891 -1.0175
  577SOL     OW 1729   2.805   1.655   1.787 -0.0119  0.0272 -0.5125
  577SOL    HW1 1730   2.828   1.594   1.868 -0.9914 -1.9454  1.6326
  577SOL    HW2 1731   2.870   1.637   1.711 -3.3400  0.0198 -1.6317
  578SOL     OW 1732   1.241   0.010   2.100 -0.2838 -0.0899  0.5798
  578SOL    HW1 1733   1.337   0.044   2.122 -0.3566 -1.1505  1.6555
  578SOL    HW2 1734   1.247   2.999   2.064  3.6109  1.3273 -0.2167
  579SOL     OW 1735   2.227   2.078   2.083  0.2317 -0.2281  0.2628
  579SOL    HW1 1736   2.278   2.038   2.001  1.5070 -1.3897 -0.0242
  579SOL    HW2 1737   2.287   2.149   2.124  0.5634 -0.6936 -3.0679
  580SOL     OW 1738   1.799   1.372   1.982  0.0788  0.0920 -0.4481
  580SOL    HW1 1739   1.902   1.375   1.998 -0.0907  0.2167  2.3517
  580SOL    HW2 1740   1.757   1.464   1.990 -1.4748  2.4234  0.3253
  581SOL     OW 1741   1.558   1.109   2.342  0.1645 -0.1035 -0.4965
  581SOL    HW1 1742   1.593   1.126   2.248  0.6319 -1.6434 -0.4460
  581SOL    HW2 1743   1.630   1.138   2.409 -0.0745 -0.2990 -0.6089
  582SOL     OW 1744   2.892   2.283   1.861  0.5330  0.1972 -0.2832
  582SOL    HW1 1745   2.925   2.190   1.846 -2.5922  0.7826  1.0044
  582SOL    HW2 1746   2.811   2.286   1.922 -0.5082  2.8458 -0.7616
  583SOL     OW 1747   1.766   0.916   0.739 -0.2273 -0.0987 -0.3790
  583SOL    HW1 1748   1.862   0.872   0.754  1.7798 -0.6196  0.0579
  583SOL    HW2 1749   1.748   0.989   0.809  1.1336  2.4754 -0.1836
  584SOL     OW 1750   1.192   2.518   0.374 -0.5319 -0.1250  0.2224
  584SOL    HW1 1751   1.134   2.544   0.448 -0.0581 -2.3082 -2.3469
  584SOL    HW2 1752   1.207   2.591   0.303  0.6269 -0.9449 -1.8901
  585SOL     OW 1753   0.125   2.594   0.093 -0.7277 -0.3241 -0.1682
  585SOL    HW1 1754   0.056   2.666   0.104 -0.2048 -0.7744 -1.9421
  585SOL    HW2 1755   0.212   2.634   0.058  1.5538  2.8415 -0.1403
  586SOL     OW 1756   2.297   0.991   0.571  0.1479  0.6425 -0.0765
  586SOL    HW1 1757   2.369   0.917   0.561  0.3747  0.2346 -1.2712
  586SOL    HW2 1758   2.348   1.079   0.567 -0.9205 -1.1178 -0.5530
  587SOL     OW 1759   0.407   1.355   0.106 -0.5321  0.4781  0.2397
  587SOL    HW1 1760   0.447   1.272   0.149 -3.0727  0.4077 -2.8584
  587SOL    HW2 1761   0.442   1.443   0.143  1.0376 -0.8019  0.6929
  588SOL     OW 1762   0.275   0.175   0.579  0.0148 -0.0200  0.1882
  588SOL    HW1 1763   0.209   0.193   0.504  0.3467 -2.4862 -0.4356
  588SOL    HW2 1764   0.311   0.263   0.621  1.1101  0.6737  0.4053
  589SOL     OW 1765   1.472   0.089   0.713  0.2380  0.2290 -0.1067
  589SOL    HW1 1766   1.411   0.022   0.758 -1.2998  0.4711  1.3974
  589SOL    HW2 1767   1.530   0.132   0.782 -1.8144 -0.6409 -3.2852
  590SOL     OW 1768   2.539   2.403   0.392 -0.1309 -0.5582 -0.1208
  590SOL    HW1 1769   2.573   2.471   0.459  1.2626  2.3195  0.1650
  590SOL    HW2 1770   2.463   2.436   0.325 -0.5704  0.2367 -0.0871
  591SOL     OW 1771   0.299   2.252   2.074 -0.0268  0.4187  0.5318
  591SOL    HW1 1772   0.295   2.265   2.174  4.0268 -3.1749 -1.1541
  591SOL    HW2 1773   0.375   2.310   2.041 -3.3561 -1.7246 -1.2938
  592SOL     OW 1774   0.059   1.757   2.211  0.4048  0.0037  0.3064
  592SOL    HW1 1775   3.058   1.749   2.152  1.4262  0.5624 -2.3949
  592SOL    HW2 1776   0.046   1.716   2.301 -2.0835 -0.1071  0.0827
  593SOL     OW 1777   1.468   1.783   1.535  0.5073  0.0848  0.0755
  593SOL    HW1 1778   1.375   1.827   1.514 -1.3585 -1.3792 -0.1441
  593SOL    HW2 1779   1.443   1.695   1.575 -2.5047  1.6945  0.8340
  594SOL     OW 1780   0.484   1.174   2.662  0.3120  0.3629 -0.7076
  594SOL    HW1 1781   0.400   1.130   2.704 -1.0179 -0.1071  1.3762
  594SOL    HW2 1782   0.511   1.250   2.724 -0.5252  0.4911  2.4124
  595SOL     OW 1783   1.604   0.722   0.844 -0.0885  0.4424  0.3561
  595SOL    HW1 1784   1.671   0.798   0.815 -1.7266  0.7499  0.1238
  595SOL    HW2 1785   1.514   0.758   0.867  1.5665 -1.2265 -0.7107
  596SOL     OW 1786   0.525   1.119   1.123 -0.0415 -0.1496 -0.1087
  596SOL    HW1 1787   0.609   1.157   1.159 -0.9951  0.1697 -1.4021
  596SOL    HW2 1788   0.494   1.159   1.031  1.1104 -0.3126  0.5306
  597SOL     OW 1789   0.530   2.394   2.090 -0.1079 -0.2601 -0.5061
  597SOL    HW1 1790   0.546   2.473   2.149 -1.9977 -1.8117  5.3306
  597SOL    HW2 1791   0.586   2.390   2.005  1.5654  0.6764 -1.2679
  598SOL     OW 1792   2.225   2.412   2.393  0.3380 -0.5850  0.1166
  598SOL    HW1 1793   2.138   2.380   2.351  0.8101  0.3858  0.9787
  598SOL    HW2 1794   2.232   2.513   2.384 -0.7720  1.8269  0.0631
  599SOL     OW 1795   1.231   1.123   0.452 -0.0342  0.0507 -0.0745
  599SOL    HW1 1796   1.138   1.166   0.457  0.8400  0.4949  0.8751
  599SOL    HW2 1797   1.289   1.151   0.535  0.4371 -0.2856  0.3947
  600SOL     OW 1798   1.543   0.257   0.432 -0.5667 -0.3394  0.2876
  600SOL    HW1 1799   1.446   0.250   0.470 -1.2942  1.7663 -0.9778
  600SOL    HW2 1800   1.535   0.266   0.330 -0.7156  2.1846  0.9735
  601SOL     OW 1801   0.510   0.388   1.598 -0.0531 -0.1340  0.4470
  601SOL    HW1 1802   0.418   0.342   1.596  1.7521 -1.0037 -0.6333
  601SOL    HW2 1803   0.505   0.480   1.649 -1.3324  1.4682 -0.6975
  602SOL     OW 1804   0.576   2.248   0.690 -0.6008 -0.0662  0.2413
  602SOL    HW1 1805   0.639   2.273   0.767 -0.2505 -0.5244  1.1988
  602SOL    HW2 1806   0.572   2.312   0.613 -1.3937 -0.2539 -0.5302
  603SOL     OW 1807   0.764   2.593   2.593  0.9244 -0.6904 -0.0745
  603SOL    HW1 1808   0.820   2.515   2.613 -3.1965  1.6801  0.0566
  603SOL    HW2 1809   0.801   2.641   2.511  0.8559 -2.9146  2.7985
  604SOL     OW 1810   0.736   2.318   0.279  0.3024 -0.2088  0.4346
  604SOL    HW1 1811   0.826   2.342   0.317  0.7515 -0.8702 -0.4742
  604SOL    HW2 1812   0.714   2.371   0.192  0.4833  0.6196 -1.2448
  605SOL     OW 1813   1.640   1.450   1.735  0.1658  0.1410 -0.2460
  605SOL    HW1 1814   1.656   1.521   1.806  0.2247 -0.7900 -1.8930
  605SOL    HW2 1815   1.663   1.357   1.776 -2.4067  0.6932  3.8794
  606SOL     OW 1816   0.926   1.047   2.863 -0.5315 -0.2235 -0.1150
  606SOL    HW1 1817   0.848   0.991   2.823 -2.1242  1.5721 -2.9706
  606SOL    HW2 1818   0.945   1.133   2.811 -2.4450  0.9355  1.4224
  607SOL     OW 1819   0.980   0.828   1.190  0.1547  0.1576  0.3543
  607SOL    HW1 1820   0.891   0.838   1.247 -2.2092  0.7245 -1.2061
  607SOL    HW2 1821   1.032   0.912   1.204  1.2352 -0.9030  2.9150
  608SOL     OW 1822   2.677   2.286   2.077  0.4100 -0.0474 -0.4490
  608SOL    HW1 1823   2.605   2.286   2.005 -1.6425 -0.5965  1.5567
  608SOL    HW2 1824   2.637   2.262   2.168  0.1106 -0.4103 -0.5347
  609SOL     OW 1825   2.156   0.067   3.066  0.3546  0.2305  0.1914
  609SOL    HW1 1826   2.134   0.052   0.079  1.8705  0.4549  0.2728
  609SOL    HW2 1827   2.168   3.068   3.009  2.4935 -0.5253 -0.4185
  610SOL     OW 1828   0.305   2.384   1.772 -0.4275  1.1119 -0.3788
  610SOL    HW1 1829   0.338   2.448   1.841  3.0951  0.6265 -0.8349
  610SOL    HW2 1830   0.378   2.370   1.702  1.1694  2.0445 -0.2518
  611SOL     OW 1831   1.371   1.692   1.049 -0.1961 -0.4543  0.2820
  611SOL    HW1 1832   1.313   1.641   1.117  2.0027 -0.6994  1.3862
  611SOL    HW2 1833   1.467   1.701   1.085  2.4743  0.3072  1.8216
  612SOL     OW 1834   0.508   0.474   2.504  0.0289  0.0535  0.0514
  612SOL    HW1 1835   0.474   0.559   2.456 -1.3846 -0.5665  1.2267
  612SOL    HW2 1836   0.566   0.419   2.440 -0.1564 -0.8032  1.3215
  613SOL     OW 1837   2.582   1.062   0.370 -0.0854 -0.0174 -0.0455
  613SOL    HW1 1838   2.524   1.114   0.439  1.0267 -0.2358  2.2738
  613SOL    HW2 1839   2.672   1.057   0.414 -1.8782  0.1814  0.3095
  614SOL     OW 1840   1.786   0.315   1.716 -0.3466 -0.3361 -0.6173
  614SOL    HW1 1841   1.837   0.255   1.653  0.9983 -1.3487 -0.7030
  614SOL    HW2 1842   1.829   0.311   1.812  1.0843  0.3798  1.2676
  615SOL     OW 1843   0.761   1.325   1.559  0.0513  0.2262 -0.5318
  615SOL    HW1 1844   0.793   1.399   1.623  0.9432 -0.6901  0.8145
  615SOL    HW2 1845   0.774   1.342   1.462 -2.5127 -0.0614  1.5121
  616SOL     OW 1846   1.582   2.053   0.074  0.7015 -0.1158 -0.1687
  616SOL    HW1 1847   1.567   2.158   0.082  0.3969  1.0626 -0.1931
  616SOL    HW2 1848   1.675   2.031   0.054 -1.7800  1.3650  3.1377
  617SOL     OW 1849   2.151   2.829   0.253 -0.6231 -0.0669 -0.0295
  617SOL    HW1 1850   2.055   2.800   0.250  2.8266  0.2749  0.6791
  617SOL    HW2 1851   2.209   2.765   0.308  2.8371 -1.3244 -0.0018
  618SOL     OW 1852   0.704   0.852   2.443 -0.3184  0.1320  0.1472
  618SOL    HW1 1853   0.787   0.903   2.478  0.0124 -1.1490  0.3327
  618SOL    HW2 1854   0.634   0.912   2.399  0.4331  1.3355 -3.1186
  619SOL     OW 1855   2.607   1.569   0.800  0.2839 -0.8666  0.0224
  619SOL    HW1 1856   2.622   1.484   0.862 -0.1099 -3.4050 -1.1638
  619SOL    HW2 1857   2.529   1.552   0.739 -0.5703 -0.9387 -2.0455
  620SOL     OW 1858   2.172   2.951   2.884 -0.3824  0.1795  0.2313
  620SOL    HW1 1859   2.167   2.851   2.867 -2.7556  1.6561  2.6892
  620SOL    HW2 1860   2.080   2.984   2.845  0.3101  0.4889 -0.4249
  621SOL     OW 1861   2.441   1.375   2.900  0.1093  0.1179 -0.1368
  621SOL    HW1 1862   2.360   1.378   2.963 -1.9228 -0.9094  1.9547
  621SOL    HW2 1863   2.526   1.382   2.957 -2.0820 -2.8148  0.0887
  622SOL     OW 1864   1.336   2.415   2.209  0.1705  0.7798 -0.4017
  622SOL    HW1 1865   1.413   2.447   2.153 -2.3294 -1.2591  1.6293
  622SOL    HW2 1866   1.365   2.391   2.301  0.8222 -0.5158  2.9362
  623SOL     OW 1867   0.858   1.519   0.398 -0.0832  0.0002  0.2961
  623SOL    HW1 1868   0.759   1.500   0.380 -0.7947 -0.0410 -1.1842
  623SOL    HW2 1869   0.878   1.523   0.497  0.7310 -0.3352 -0.3510
  624SOL     OW 1870   0.336   0.220   3.021  0.2645  0.5775  0.1713
  624SOL    HW1 1871   0.353   0.235   0.042 -1.0526  3.3793  3.4840
  624SOL    HW2 1872   0.352   0.309   2.967 -0.7291  2.1882 -0.7430
  625SOL     OW 1873   0.642   1.538   0.620  0.2563  0.0154  0.3011
  625SOL    HW1 1874   0.611   1.629   0.586  0.7440 -0.2138  1.1688
  625SOL    HW2 1875   0.619   1.458   0.556  0.1492 -0.3250  0.9903
  626SOL     OW 1876   2.808   2.856   2.541 -0.4119  0.0926 -0.0733
  626SOL    HW1 1877   2.844   2.821   2.451  0.1003  0.6428 -0.3748
  626SOL    HW2 1878   2.883   2.884   2.606  1.8462  2.4769  0.6304
  627SOL     OW 1879   1.363   1.382   2.809  1.0039 -0.0393 -0.3571
  627SOL    HW1 1880   1.463   1.370   2.829  2.4739  0.0145 -0.5425
  627SOL    HW2 1881   1.312   1.350   2.892 -0.2269  0.9894  1.1295
  628SOL     OW 1882   0.047   0.315   2.654 -0.4145  0.5380 -0.2515
  628SOL    HW1 1883   0.005   0.254   2.582 -0.5842 -0.4689  0.9814
  628SOL    HW2 1884   0.130   0.366   2.623  0.0286  3.8051 -0.5986
  629SOL     OW 1885   0.536   2.758   2.080 -0.5247  0.4613 -0.3242
  629SOL    HW1 1886   0.614   2.819   2.066 -0.1329 -1.4255 -0.1621
  629SOL    HW2 1887   0.460   2.806   2.128 -1.0559 -0.2017  0.0449
  630SOL     OW 1888   1.662   1.177   1.762  0.4910  0.4647 -0.4836
  630SOL    HW1 1889   1.741   1.150   1.695  1.0247  0.9040 -2.3830
  630SOL    HW2 1890   1.629   1.097   1.814 -0.1246  1.8274  0.5739
  631SOL     OW 1891   2.157   0.799   0.408 -0.2698  0.0011  0.9690
  631SOL    HW1 1892   2.223   0.810   0.328  1.6060 -0.3924  2.1167
  631SOL    HW2 1893   2.208   0.817   0.490 -4.0331  0.0114  0.0377
  632SOL     OW 1894   2.222   0.332   2.139 -0.1125 -0.0701 -0.3193
  632SOL    HW1 1895   2.281   0.389   2.202 -0.6291 -0.9500  2.0118
  632SOL    HW2 1896   2.130   0.312   2.183  2.4630 -0.0636  0.4701
  633SOL     OW 1897   0.756   2.710   0.349  0.2055 -0.3133 -0.1496
  633SOL    HW1 1898   0.823   2.724   0.274  0.4926 -3.2008 -0.0162
  633SOL    HW2 1899   0.662   2.708   0.311  1.4796 -0.1181 -1.7925
  634SOL     OW 1900   1.331   2.553   2.733  0.0662 -0.3307  0.1893
  634SOL    HW1 1901   1.248   2.529   2.684  1.1022 -0.1855 -2.6558
  634SOL    HW2 1902   1.352   2.649   2.704 -1.1598 -1.4055 -1.0174
  635SOL     OW 1903   2.372   0.235   2.991 -0.5877 -0.3304  0.8822
  635SOL    HW1 1904   2.461   0.183   2.984  1.0375 -3.7098 -0.5463
  635SOL    HW2 1905   2.305   0.173   3.027 -0.1854  0.9689 -0.3920
  636SOL     OW 1906   0.710   1.004   0.816 -0.0181  0.7292  0.1904
  636SOL    HW1 1907   0.621   0.977   0.773 -0.9916 -0.9535 -1.0120
  636SOL    HW2 1908   0.755   0.919   0.859  0.6914 -5.0768 -2.8904
  637SOL     OW 1909   0.168   1.924   0.933  0.6224 -0.0987  0.3991
  637SOL    HW1 1910   0.202   1.925   1.030 -1.5084 -0.1254 -1.1616
  637SOL    HW2 1911   0.253   1.919   0.873 -0.0403 -0.0393  0.0002
  638SOL     OW 1912   0.716   2.932   2.908  0.5962  0.0889  0.7604
  638SOL    HW1 1913   0.639   2.989   2.934  3.0000  1.7772  0.2790
  638SOL    HW2 1914   0.804   2.983   2.924 -0.7088 -1.6634  1.6936
  639SOL     OW 1915   1.586   1.678   0.392  0.3006 -0.1529 -0.1410
  639SOL    HW1 1916   1.534   1.608   0.443  0.0561 -2.0677  1.6492
  639SOL    HW2 1917   1.514   1.738   0.348 -4.3273  1.0360 -1.7654
  640SOL     OW 1918   1.787   2.644   0.823  0.0963 -0.2691  0.3494
  640SOL    HW1 1919   1.694   2.600   0.821  1.0282 -0.8529 -0.2947
  640SOL    HW2 1920   1.775   2.735   0.784 -0.0525 -0.6627  0.6830
  641SOL     OW 1921   0.071   2.806   0.489  0.0798  0.2060 -0.4223
  641SOL    HW1 1922   0.054   2.723   0.434 -0.2938 -2.1245 -0.5191
  641SOL    HW2 1923   0.164   2.839   0.498 -1.6701  0.2085 -0.7429
  642SOL     OW 1924   0.740   0.267   1.697 -0.1689 -0.1903  1.0185
  642SOL    HW1 1925   0.650   0.287   1.661  2.5564  0.2490  0.0964
  642SOL    HW2 1926   0.764   0.339   1.760 -0.7472 -2.7559 -4.2833
  643SOL     OW 1927   0.518   2.175   2.262 -0.5124 -0.5794  0.7925
  643SOL    HW1 1928   0.521   2.248   2.189 -1.2271 -0.4923 -1.7744
  643SOL    HW2 1929   0.566   2.089   2.229  0.0405 -1.7304 -0.5564
  644SOL     OW 1930   0.632   2.919   0.471 -0.3285  0.0542  0.0450
  644SOL    HW1 1931   0.612   2.903   0.569 -1.4756 -2.2814 -0.5655
  644SOL    HW2 1932   0.704   2.856   0.441 -0.8145 -0.8889 -0.9743
  645SOL     OW 1933   1.072   1.705   0.168 -0.1769 -0.0525  0.6323
  645SOL    HW1 1934   1.074   1.689   0.070 -0.9223  1.3913 -1.0557
  645SOL    HW2 1935   1.136   1.640   0.210 -1.2394  2.6094  0.4667
  646SOL     OW 1936   0.652   1.470   3.016  0.1428  0.2949  0.0261
  646SOL    HW1 1937   0.641   1.416   0.017 -0.5788  0.5560 -1.1613
  646SOL    HW2 1938   0.633   1.569   3.030 -0.4255  1.9848  1.8033
  647SOL     OW 1939   1.038   0.046   1.019  0.1021  0.5576  0.0736
  647SOL    HW1 1940   1.050   0.147   1.047 -2.7939  1.7997  0.6016
  647SOL    HW2 1941   1.012   3.062   1.093 -0.5776  2.4052 -0.0417
  648SOL     OW 1942   2.766   0.082   1.785  0.0216 -0.0187  0.0869
  648SOL    HW1 1943   2.771   0.184   1.790  1.1226  2.5148 -0.8542
  648SOL    HW2 1944   2.851   0.046   1.828 -1.2482 -0.2409  0.5058
  649SOL     OW 1945   0.786   1.936   2.780  0.4169  0.2633  0.4163
  649SOL    HW1 1946   0.835   1.970   2.695 -0.1960 -0.6097  1.3063
  649SOL    HW2 1947   0.771   2.008   2.850 -0.4530 -0.6486 -0.1160
  650SOL     OW 1948   0.184   1.833   1.678  0.3701  0.0937 -0.1902
  650SOL    HW1 1949   0.254   1.783   1.729  0.7242  0.0724  0.3039
  650SOL    HW2 1950   0.191   1.932   1.690 -1.1442 -0.5140 -1.2609
  651SOL     OW 1951   0.914   0.047   2.903 -0.4765 -0.4642 -0.4714
  651SOL    HW1 1952   1.007   0.088   2.896  0.4278  1.5648 -1.7001
  651SOL    HW2 1953   0.851   0.110   2.953 -0.4199  2.5709  1.0056
  652SOL     OW 1954   2.650   2.153   0.304 -0.2490 -0.2388  1.4196
  652SOL    HW1 1955   2.577   2.126   0.233  0.0702  2.1405  1.6422
  652SOL    HW2 1956   2.628   2.249   0.330  1.6109 -0.1201  0.8134
  653SOL     OW 1957   3.000   0.223   0.796  0.1934 -0.0747  0.5730
  653SOL    HW1 1958   2.958   0.160   0.725  1.2802  1.9858 -1.1030
  653SOL    HW2 1959   3.031   0.312   0.755  0.5253 -0.1613  1.2097
  654SOL     OW 1960   1.713   0.301   2.464  0.5706 -0.6157  0.5913
  654SOL    HW1 1961   1.644   0.378   2.469 -0.8876 -0.2628  0.6434
  654SOL    HW2 1962   1.673   0.234   2.398 -2.0552  0.9986  0.9033
  655SOL     OW 1963   0.687   2.516   1.171  0.2376  0.0033  0.7841
  655SOL    HW1 1964   0.713   2.447   1.101  1.2327 -1.2106  1.1719
  655SOL    HW2 1965   0.598   2.486   1.205 -0.4076 -1.7767  1.5256
  656SOL     OW 1966   0.150   0.525   1.545 -0.0308 -0.3304  0.1066
  656SOL    HW1 1967   0.061   0.516   1.589  1.5817 -1.3294 -2.3537
  656SOL    HW2 1968   0.167   0.442   1.490  0.5421  1.0159 -0.1532
  657SOL     OW 1969   2.430   0.668   2.004  0.1270  0.4785 -0.0167
  657SOL    HW1 1970   2.461   0.700   2.096 -0.5688  0.5488 -0.0416
  657SOL    HW2 1971   2.333   0.672   1.995  2.9498  0.2456 -2.1174
  658SOL     OW 1972   2.274   1.498   1.104 -0.1306  0.0487  0.0385
  658SOL    HW1 1973   2.330   1.580   1.093 -0.7992 -1.7707 -4.7174
  658SOL    HW2 1974   2.294   1.451   1.016  2.5058  3.4589 -1.7094
  659SOL     OW 1975   2.441   2.993   2.807  0.3348 -0.5866 -0.4076
  659SOL    HW1 1976   2.341   2.985   2.838 -1.6997  1.2325  0.2553
  659SOL    HW2 1977   2.497   3.052   2.875 -1.6575  1.8773 -1.9703
  660SOL     OW 1978   1.289   1.312   3.056  0.3231 -0.0508 -0.7230
  660SOL    HW1 1979   1.332   1.383   0.033  0.8920  0.7760 -2.9043
  660SOL    HW2 1980   1.362   1.245   3.027 -0.8534  0.7020 -0.1011
  661SOL     OW 1981   2.753   2.429   0.842 -0.2546  0.4816  0.2748
  661SOL    HW1 1982   2.811   2.344   0.851 -0.4538 -1.1363  1.1619
  661SOL    HW2 1983   2.654   2.402   0.857 -1.2599  0.2578  1.2614
  662SOL     OW 1984   0.578   0.784   0.228 -0.0691  0.3988  0.2902
  662SOL    HW1 1985   0.668   0.736   0.233  3.0371  0.7396 -0.4813
  662SOL    HW2 1986   0.576   0.856   0.298 -0.7895 -0.9034  0.2238
  663SOL     OW 1987   1.246   2.197   0.136 -0.5744 -0.8208 -0.4881
  663SOL    HW1 1988   1.327   2.251   0.126 -2.5115 -1.6736 -0.0106
  663SOL    HW2 1989   1.268   2.138   0.220  1.4983 -0.6797  3.6522
  664SOL     OW 1990   0.699   2.264   1.639  0.1394 -0.4130 -0.6171
  664SOL    HW1 1991   0.650   2.335   1.588  2.9384 -0.3006  1.1846
  664SOL    HW2 1992   0.663   2.174   1.615 -1.3086  0.7718  1.1275
  665SOL     OW 1993   2.227   2.077   1.667 -0.1195 -0.1117 -0.6133
  665SOL    HW1 1994   2.178   2.161   1.703 -0.1301 -1.3814 -3.2499
  665SOL    HW2 1995   2.175   2.022   1.598  0.6847  0.1514 -3.0025
  666SOL     OW 1996   0.501   2.729   0.234 -0.0885  0.2268  0.4598
  666SOL    HW1 1997   0.500   2.830   0.256  1.6538  0.5591  1.5768
  666SOL    HW2 1998   0.490   2.711   0.135  2.9826  1.5310  1.5979
  667SOL     OW 1999   2.147   1.691   1.731 -0.0051 -0.3928 -0.4140
  667SOL    HW1 2000   2.130   1.674   1.633 -1.3944 -0.9738  1.5780
  667SOL    HW2 2001   2.070   1.743   1.768  2.2000 -0.5747 -0.8371
  668SOL     OW 2002   0.379   0.992   2.412 -0.0975  0.1785  0.4444
  668SOL    HW1 2003   0.361   1.086   2.439  0.0441  0.6924  2.2412
  668SOL    HW2 2004   0.450   0.991   2.337  2.0655 -1.1443 -1.8068
  669SOL     OW 2005   1.899   2.130   2.408  0.4229 -0.1196 -0.2458
  669SOL    HW1 2006   1.812   2.069   2.401  0.8753 -1.0453  0.8613
  669SOL    HW2 2007   1.974   2.072   2.367 -0.5122  1.1616 -1.2478
  670SOL     OW 2008   2.291   2.215   3.012 -0.5784 -0.0186  0.0495
  670SOL    HW1 2009   2.310   2.123   2.972 -1.9433 -2.0567 -0.3411
  670SOL    HW2 2010   2.195   2.248   3.002 -1.9680 -2.1414 -0.6524
  671SOL     OW 2011   0.787   1.126   1.264 -0.6027  0.4445 -0.0150
  671SOL    HW1 2012   0.788   1.231   1.268  0.0171 -0.0312  1.8247
  671SOL    HW2 2013   0.729   1.086   1.333  1.9707 -0.6690 -2.0345
  672SOL     OW 2014   2.532   0.997   2.370 -0.2623 -0.2750 -0.9120
  672SOL    HW1 2015   2.612   1.050   2.341 -1.8147  0.5084  1.1875
  672SOL    HW2 2016   2.502   1.022   2.468  0.2673 -0.3784  1.5994
  673SOL     OW 2017   2.585   2.162   2.321 -0.4007 -0.5952  0.0984
  673SOL    HW1 2018   2.587   2.066   2.282 -0.2194  0.6217 -0.9908
  673SOL    HW2 2019   2.645   2.173   2.402  2.3849 -1.4231  2.8876
  674SOL     OW 2020   1.065   2.875   2.271  0.0965  0.3268  0.2914
  674SOL    HW1 2021   1.145   2.935   2.289  1.4348  1.4018 -0.3917
  674SOL    HW2 2022   1.077   2.782   2.317  2.9551  0.6073 -0.4244
  675SOL     OW 2023   0.767   1.021   1.534 -0.0280  0.2341  0.1961
  675SOL    HW1 2024   0.801   0.952   1.605  0.1361 -0.1913  0.4863
  675SOL    HW2 2025   0.715   1.100   1.577 -0.4561 -0.9299  1.8070
  676SOL     OW 2026   1.940   0.985   0.356 -0.0750 -0.3342 -0.3065
  676SOL    HW1 2027   1.852   0.960   0.399  1.1525  0.7923 -0.4208
  676SOL    HW2 2028   2.019   0.928   0.371 -3.4723 -1.6671  0.2358
  677SOL     OW 2029   2.810   1.583   2.992  0.1441  0.1798 -0.4085
  677SOL    HW1 2030   2.807   1.476   2.986  1.5164 -3.5168 -0.9810
  677SOL    HW2 2031   2.905   1.602   2.963 -2.4788 -0.8415 -1.2701
  678SOL     OW 2032   0.101   2.225   1.148  0.4444 -0.3366 -0.2682
  678SOL    HW1 2033   0.029   2.164   1.110 -0.3380 -1.7453  1.9293
  678SOL    HW2 2034   0.075   2.322   1.144  0.7997 -2.2967  1.7711
  679SOL     OW 2035   1.980   2.416   0.597 -0.1684 -0.3090  0.5690
  679SOL    HW1 2036   1.969   2.371   0.689 -0.0750 -2.1256 -3.0841
  679SOL    HW2 2037   2.015   2.509   0.609  0.5683  0.4909 -0.6492
  680SOL     OW 2038   0.382   2.626   2.327 -0.2602  0.3463 -0.3502
  680SOL    HW1 2039   0.360   2.703   2.392 -0.5511 -0.9340 -1.1021
  680SOL    HW2 2040   0.484   2.625   2.313 -0.1753 -1.6029  2.6729
  681SOL     OW 2041   2.930   1.265   1.483 -0.2545 -0.3956 -0.1003
  681SOL    HW1 2042   3.014   1.319   1.461  0.2128 -2.5516 -1.1514
  681SOL    HW2 2043   2.850   1.326   1.512 -1.4816 -0.2150 -0.8919
  682SOL     OW 2044   0.434   1.885   1.199 -0.0181 -0.3999  0.0624
  682SOL    HW1 2045   0.402   1.914   1.291  1.3734 -1.8795 -1.7455
  682SOL    HW2 2046   0.471   1.790   1.210  1.9341 -1.4191  1.1492
  683SOL     OW 2047   2.489   1.347   1.407 -0.1659  0.2064  0.0751
  683SOL    HW1 2048   2.564   1.330   1.339 -0.4868  0.1936 -1.3998
  683SOL    HW2 2049   2.433   1.434   1.385 -0.9531  3.9192 -2.7714
  684SOL     OW 2050   2.835   1.577   0.163 -0.4021 -0.0053 -0.2328
  684SOL    HW1 2051   2.897   1.496   0.188 -0.9880 -1.6520 -1.3659
  684SOL    HW2 2052   2.834   1.589   0.061  2.0654 -0.7470 -0.3474
  685SOL     OW 2053   0.919   0.931   0.189  0.8437  0.1263 -0.3606
  685SOL    HW1 2054   0.865   0.990   0.122 -1.0412  0.2809 -3.0798
  685SOL    HW2 2055   1.017   0.954   0.198 -1.1625 -0.2591  2.1523
  686SOL     OW 2056   0.163   0.184   0.968 -0.2635 -0.0193 -0.3568
  686SOL    HW1 2057   0.227   0.140   0.904  1.2468  0.8104  1.2953
  686SOL    HW2 2058   0.068   0.177   0.934 -0.2044  0.6600  0.5079
  687SOL     OW 2059   1.118   1.372   2.375 -0.2052 -0.4072 -0.2747
  687SOL    HW1 2060   1.048   1.302   2.358 -1.3098 -1.8672  1.3490
  687SOL    HW2 2061   1.177   1.358   2.458  1.9086  1.0019 -2.2163
  688SOL     OW 2062   0.692   1.680   1.296  0.4253  0.0556 -0.0021
  688SOL    HW1 2063   0.792   1.706   1.308  3.0997 -2.0782  0.1294
  688SOL    HW2 2064   0.639   1.701   1.381  0.1183 -0.9945 -0.2331
  689SOL     OW 2065   1.679   0.848   1.195  0.7115 -0.0623  0.5025
  689SOL    HW1 2066   1.669   0.918   1.271  1.0159  1.5497  1.6697
  689SOL    HW2 2067   1.595   0.792   1.182  0.2892  1.8590 -2.4164
  690SOL     OW 2068   2.758   0.932   1.101 -0.4639  0.6791  0.4368
  690SOL    HW1 2069   2.810   1.001   1.156  1.5007  1.2738 -0.4362
  690SOL    HW2 2070   2.814   0.844   1.095  1.6728 -1.4555  0.2970
  691SOL     OW 2071   0.394   2.023   1.957  0.1440 -0.4550 -0.4665
  691SOL    HW1 2072   0.349   2.109   1.996 -1.3234  1.1960  2.1722
  691SOL    HW2 2073   0.409   2.041   1.859  1.6829  1.9096  2.0514
  692SOL     OW 2074   1.645   3.002   0.974 -0.1903 -0.0684  0.5875
  692SOL    HW1 2075   1.659   0.008   0.931 -0.1820 -2.7049 -0.8044
  692SOL    HW2 2076   1.563   2.997   1.037  1.4058 -0.2415  0.7396
  693SOL     OW 2077   3.082   1.652   2.482 -0.0391  0.6402 -0.4930
  693SOL    HW1 2078   3.082   1.740   2.535  0.3246  0.8927  1.2073
  693SOL    HW2 2079   2.985   1.620   2.481  3.5462 -2.2271 -0.6176
  694SOL     OW 2080   2.217   0.655   1.158 -0.3242  0.4370 -0.0925
  694SOL    HW1 2081   2.268   0.707   1.226  0.1647  0.4119 -1.6658
  694SOL    HW2 2082   2.122   0.691   1.144 -0.4431 -0.0739 -0.5398
  695SOL     OW 2083   1.022   1.062   1.474 -0.0464  0.1324  0.3796
  695SOL    HW1 2084   0.921   1.075   1.475 -1.1329  1.8110  2.6971
  695SOL    HW2 2085   1.064   1.076   1.383  0.5703 -0.0287 -0.3476
  696SOL     OW 2086   1.625   3.062   0.483 -0.5448  0.0864 -0.1711
  696SOL    HW1 2087   1.590   0.071   0.513 -2.9658  0.4519  3.0049
  696SOL    HW2 2088   1.695   3.065   0.413 -1.5946 -0.1114  2.4390
  697SOL     OW 2089   0.755   0.082   0.942 -0.3821  0.2750 -0.0975
  697SOL    HW1 2090   0.749   0.174   0.898 -1.7856 -1.1824 -0.2503
  697SOL    HW2 2091   0.855   0.069   0.962  0.6907  1.1484 -2.2880
  698SOL     OW 2092   1.733   1.603   2.352  0.5106  0.6223 -0.7166
  698SOL    HW1 2093   1.645   1.636   2.309  0.1578  0.2068 -2.3729
  698SOL    HW2 2094   1.749   1.507   2.318  2.7137 -1.4502 -0.8233
  699SOL     OW 2095   1.370   1.000   1.103 -0.0090  0.5247 -0.2734
  699SOL    HW1 2096   1.468   1.006   1.104 -1.0512 -0.4278  1.6735
  699SOL    HW2 2097   1.339   0.916   1.051 -2.2758  0.7220 -3.1886
  700SOL     OW 2098   1.230   3.056   0.361 -0.2392  0.0364  0.2203
  700SOL    HW1 2099   1.190   3.037   0.269 -0.3035  1.0008 -0.0145
  700SOL    HW2 2100   1.273   2.971   0.396  1.2476 -2.0162  0.3383
  701SOL     OW 2101   2.373   2.642   2.675 -0.3187 -0.1115  0.5431
  701SOL    HW1 2102   2.291   2.668   2.728 -2.7465 -1.6121 -1.7479
  701SOL    HW2 2103   2.456   2.699   2.696  1.1025  1.5849  0.1093
  702SOL     OW 2104   1.096   0.256   0.388 -0.0706  0.0634 -0.2914
  702SOL    HW1 2105   1.150   0.299   0.311 -0.4038 -0.6900 -1.2179
  702SOL    HW2 2106   1.154   0.243   0.470  1.4503  0.8194 -3.6812
  703SOL     OW 2107   2.578   0.430   2.148 -0.4873 -0.1309  0.7295
  703SOL    HW1 2108   2.509   0.457   2.216  2.3988  1.2203 -0.5297
  703SOL    HW2 2109   2.551   0.448   2.051 -1.6870  2.8442 -1.3135
  704SOL     OW 2110   2.959   1.893   0.805  0.0772  0.0608  0.0914
  704SOL    HW1 2111   2.966   1.911   0.704 -2.5618 -2.8770  2.6678
  704SOL    HW2 2112   3.041   1.927   0.855 -1.8720 -1.1382  1.4820
  705SOL     OW 2113   2.883   2.865   2.091 -0.0469  0.0394 -0.7053
  705SOL    HW1 2114   2.900   2.963   2.081  0.7045  0.3799  1.1905
  705SOL    HW2 2115   2.792   2.841   2.135 -0.0309  1.2297  0.4580
  706SOL     OW 2116   2.499   2.380   0.848 -0.0707  0.2655  0.3078
  706SOL    HW1 2117   2.512   2.332   0.759  3.0032 -0.1322 -1.5729
  706SOL    HW2 2118   2.427   2.338   0.903  0.0750 -0.4243  1.0054
  707SOL     OW 2119   0.983   2.271   1.692  0.4038 -0.1807 -0.1495
  707SOL    HW1 2120   0.882   2.295   1.686 -0.0323  1.9044  2.8276
  707SOL    HW2 2121   1.011   2.232   1.603 -1.3697  0.0001 -0.3418
  708SOL     OW 2122   0.149   2.688   2.215 -0.3783  0.3657 -0.2238
  708SOL    HW1 2123   0.156   2.680   2.112 -0.0035  0.8028 -2.5719
  708SOL    HW2 2124   0.231   2.649   2.264 -0.2312 -0.9728 -3.3489
  709SOL     OW 2125   1.901   2.831   2.095  0.6726  0.1503  0.0243
  709SOL    HW1 2126   1.992   2.842   2.053  0.2530 -1.3064  1.0348
  709SOL    HW2 2127   1.831   2.860   2.025 -1.1280 -0.6188 -2.6035
  710SOL     OW 2128   1.890   0.762   2.593  0.1945  0.2241 -0.7734
  710SOL    HW1 2129   1.945   0.712   2.524 -0.4125  0.0622 -0.3828
  710SOL    HW2 2130   1.886   0.861   2.567  1.2137  1.3005 -0.5101
  711SOL     OW 2131   0.863   1.837   0.054  0.6835  0.0931  0.0387
  711SOL    HW1 2132   0.935   1.793   0.111 -1.4389  1.4049 -0.9931
  711SOL    HW2 2133   0.883   1.834   3.036 -2.5399 -0.7496  0.0484
  712SOL     OW 2134   0.503   2.404   2.676 -0.2089  0.2402  0.1031
  712SOL    HW1 2135   0.599   2.364   2.679  0.8652  1.1304  0.5203
  712SOL    HW2 2136   0.441   2.339   2.628  0.6352 -0.0866 -0.2403
  713SOL     OW 2137   1.594   1.632   3.029 -0.2728  0.3562 -0.0390
  713SOL    HW1 2138   1.588   1.705   2.959 -1.8128 -2.2689  2.5483
  713SOL    HW2 2139   1.673   1.647   0.015  1.0616 -3.2073  3.1708
  714SOL     OW 2140   0.963   1.536   1.642  0.6654 -0.0622  0.2754
  714SOL    HW1 2141   1.013   1.626   1.613  2.2333  4.6434  0.7055
  714SOL    HW2 2142   1.027   1.462   1.616 -1.2252  1.8419 -1.2808
  715SOL     OW 2143   1.703   0.434   2.763 -0.3630  0.4363 -0.0834
  715SOL    HW1 2144   1.668   0.510   2.710  1.4909  0.1547  1.1541
  715SOL    HW2 2145   1.797   0.450   2.803  2.3412 -0.6349  1.6466
  716SOL     OW 2146   2.843   2.515   2.305  0.2982  0.2577 -0.5790
  716SOL    HW1 2147   2.901   2.432   2.303 -0.5915  1.2294  1.5724
  716SOL    HW2 2148   2.904   2.596   2.301 -0.2590  0.9739 -0.8122
  717SOL     OW 2149   2.747   0.562   0.951 -0.4304  0.9982 -0.1436
  717SOL    HW1 2150   2.807   0.625   1.006  0.3937 -0.7867  0.4133
  717SOL    HW2 2151   2.654   0.560   0.985  1.6361  0.1095 -0.4202
  718SOL     OW 2152   0.791   1.432   2.592  0.2014  0.2296  0.1644
  718SOL    HW1 2153   0.721   1.453   2.667  0.4664 -0.2753  0.5212
  718SOL    HW2 2154   0.797   1.512   2.527  0.0589  0.6382  1.2648
  719SOL     OW 2155   1.954   0.998   2.956  0.2352  0.5108  0.3220
  719SOL    HW1 2156   1.913   0.911   2.934  1.4716  2.4449  1.7055
  719SOL    HW2 2157   2.052   0.987   2.927  0.2871  0.5682  2.0292
  720SOL     OW 2158   0.942   0.475   0.884 -0.4930  0.0252  0.2399
  720SOL    HW1 2159   0.984   0.416   0.959  0.6843 -1.7012  0.9108
  720SOL    HW2 2160   0.859   0.430   0.845 -0.9749  0.8831 -0.4081
  721SOL     OW 2161   2.638   0.088   0.775  0.4811  0.3627  0.0109
  721SOL    HW1 2162   2.616   0.182   0.796  1.8304  0.5682 -1.0264
  721SOL    HW2 2163   2.590   0.057   0.692 -1.6711  0.0120  0.0818
  722SOL     OW 2164   2.302   0.700   2.525 -0.2918 -0.0734  0.1772
  722SOL    HW1 2165   2.247   0.641   2.584  2.1022 -1.5908  0.4807
  722SOL    HW2 2166   2.395   0.707   2.565 -1.6066  0.3996  1.7619
  723SOL     OW 2167   2.389   0.099   0.274  0.3287  0.7947 -0.0830
  723SOL    HW1 2168   2.288   0.080   0.277  1.0590  0.1254 -0.8248
  723SOL    HW2 2169   2.409   0.196   0.258  1.6219 -2.6648  1.5863
  724SOL     OW 2170   0.809   1.563   2.124 -0.3321 -0.1798  0.2029
  724SOL    HW1 2171   0.737   1.491   2.136 -0.4888  0.1552 -2.3593
  724SOL    HW2 2172   0.819   1.601   2.034  0.1702 -0.5261  2.0193
  725SOL     OW 2173   1.680   0.229   1.291  0.1175  0.2545 -0.0133
  725SOL    HW1 2174   1.718   0.321   1.312  0.4789  3.3905 -0.3179
  725SOL    HW2 2175   1.750   0.180   1.232 -0.6801 -2.0958 -3.0741
  726SOL     OW 2176   1.736   2.543   0.206  0.1064  0.2142  0.2384
  726SOL    HW1 2177   1.689   2.574   0.290  1.1622 -1.2551  0.1271
  726SOL    HW2 2178   1.790   2.458   0.225  1.4886  1.5709  0.5591
  727SOL     OW 2179   1.732   1.528   1.494 -0.1400  0.6214  0.4065
  727SOL    HW1 2180   1.686   1.479   1.574  0.9163 -0.8519  0.2204
  727SOL    HW2 2181   1.663   1.547   1.422 -1.0736  0.4766  1.1628
  728SOL     OW 2182   2.219   2.480   1.535 -0.3551  0.2768 -0.4214
  728SOL    HW1 2183   2.138   2.516   1.489 -1.0973 -0.9805  0.6264
  728SOL    HW2 2184   2.236   2.510   1.634 -1.3381 -0.6262  3.1598
  729SOL     OW 2185   2.263   1.451   0.823  0.4424  0.2491  0.2297
  729SOL    HW1 2186   2.181   1.511   0.804 -0.1699  0.6737 -0.2946
  729SOL    HW2 2187   2.334   1.473   0.757 -0.4415  1.5148  2.7556
  730SOL     OW 2188   0.894   0.748   2.716 -0.3948 -0.1981  0.4333
  730SOL    HW1 2189   0.806   0.789   2.751 -0.2264  4.4121  1.1663
  730SOL    HW2 2190   0.964   0.747   2.790 -1.6522 -0.4012 -1.4082
  731SOL     OW 2191   0.314   0.026   0.824  0.4314 -0.5897  0.1255
  731SOL    HW1 2192   0.293   0.045   0.727 -1.1137 -0.9443 -0.9337
  731SOL    HW2 2193   0.412   3.082   0.840  1.1647 -2.3895  0.8442
  732SOL     OW 2194   1.482   0.590   0.382  0.4623  0.6931  0.2103
  732SOL    HW1 2195   1.415   0.650   0.332  2.4424  1.6884 -0.3668
  732SOL    HW2 2196   1.433   0.550   0.462 -0.9194  2.0824  1.2949
  733SOL     OW 2197   0.625   2.193   1.216  0.2711 -0.2534 -0.3804
  733SOL    HW1 2198   0.704   2.143   1.258 -0.5690  0.5313  1.4264
  733SOL    HW2 2199   0.604   2.149   1.126  2.2814  1.0449 -1.0682
  734SOL     OW 2200   0.341   2.549   0.354 -0.0950 -0.3204 -0.6021
  734SOL    HW1 2201   0.408   2.630   0.336  1.9071  0.8039 -2.6914
  734SOL    HW2 2202   0.244   2.583   0.358  0.3078 -0.9674  0.9979
  735SOL     OW 2203   1.224   0.256   1.282 -0.1952  0.2710  0.2360
  735SOL    HW1 2204   1.180   0.167   1.300  0.9718 -0.4417 -1.3743
  735SOL    HW2 2205   1.318   0.242   1.239  0.3485  0.0043  1.5447
  736SOL     OW 2206   2.021   2.290   2.955 -0.1835 -0.4616  0.0065
  736SOL    HW1 2207   1.984   2.355   3.026 -0.6598 -0.9765  0.9873
  736SOL    HW2 2208   1.963   2.211   2.935  2.3719  1.3721  0.9216
  737SOL     OW 2209   0.060   0.881   0.983  0.3311 -0.7771  0.0283
  737SOL    HW1 2210   0.053   0.975   1.024  3.4276 -1.9996  1.4160
  737SOL    HW2 2211   0.032   0.886   0.883 -1.9313  0.0931 -2.9154
  738SOL     OW 2212   2.520   2.818   1.972  0.2156  0.0430 -0.3318
  738SOL    HW1 2213   2.518   2.715   1.971 -0.4394  1.5265  1.0277
  738SOL    HW2 2214   2.576   2.845   2.055 -1.7962  0.0004  0.3359
  739SOL     OW 2215   1.274   2.129   2.946 -0.5095 -0.2728  0.3134
  739SOL    HW1 2216   1.357   2.078   2.923 -0.7157 -0.7169  2.7641
  739SOL    HW2 2217   1.262   2.128   3.048 -0.9578  1.4540  1.3404
  740SOL     OW 2218   1.443   0.245   1.124 -0.6524 -0.2365  0.3675
  740SOL    HW1 2219   1.507   0.229   1.201  1.2712  0.8760 -0.0784
  740SOL    HW2 2220   1.484   0.231   1.034 -2.0498 -1.2410 -1.1862
  741SOL     OW 2221   2.910   0.721   0.610  0.0119 -0.2518  0.0135
  741SOL    HW1 2222   2.948   0.698   0.517  1.2142  2.9125 -1.0888
  741SOL    HW2 2223   2.842   0.648   0.642  1.5345 -1.3131  0.3101
  742SOL     OW 2224   0.977   1.286   2.747 -0.1596  0.3077  0.3253
  742SOL    HW1 2225   0.982   1.322   2.847 -1.3017  0.4645  0.5650
  742SOL    HW2 2226   0.894   1.330   2.698 -0.7072 -1.7749 -1.2044
  743SOL     OW 2227   0.916   0.774   2.101 -0.3243  0.4931 -0.0214
  743SOL    HW1 2228   0.910   0.732   2.197  1.6768  2.7689 -0.0456
  743SOL    HW2 2229   0.905   0.875   2.117 -3.6130 -0.0903  1.6928
  744SOL     OW 2230   1.999   0.419   1.384  0.1705 -0.2765  0.2054
  744SOL    HW1 2231   1.936   0.426   1.307  0.5984  1.3034  0.4202
  744SOL    HW2 2232   2.011   0.320   1.409 -0.1547 -1.9344  0.9476
  745SOL     OW 2233   1.613   1.126   1.323 -0.0077 -0.5278  0.6919
  745SOL    HW1 2234   1.632   1.207   1.262  0.8451  0.2247 -0.9503
  745SOL    HW2 2235   1.677   1.131   1.401  0.8011 -0.9841 -1.6460
  746SOL     OW 2236   2.162   1.218   0.955  0.3145 -0.4023 -0.0457
  746SOL    HW1 2237   2.198   1.298   0.902 -1.2469  1.7224  1.1661
  746SOL    HW2 2238   2.164   1.134   0.892  1.4405 -2.5346  0.0197
  747SOL     OW 2239   2.689   1.392   1.215 -0.5631 -0.0841 -0.1573
  747SOL    HW1 2240   2.645   1.362   1.127 -1.8082 -0.9157  0.0735
  747SOL    HW2 2241   2.692   1.497   1.205 -0.1827  1.8698 -3.5831
  748SOL     OW 2242   0.813   1.863   0.688  0.5302  0.0754  0.3649
  748SOL    HW1 2243   0.911   1.845   0.667  0.9747  1.6360 -2.6404
  748SOL    HW2 2244   0.756   1.840   0.605 -0.9156 -1.4275 -2.4835
  749SOL     OW 2245   2.305   2.881   2.241 -0.0360 -0.0843  0.5412
  749SOL    HW1 2246   2.318   2.807   2.312 -0.8677 -2.7205 -1.1141
  749SOL    HW2 2247   2.382   2.950   2.251  1.6224 -0.8020 -0.2416
  750SOL     OW 2248   2.384   0.591   0.695 -0.4489  0.2777  0.7693
  750SOL    HW1 2249   2.413   0.553   0.607 -1.7966  0.1479  1.3310
  750SOL    HW2 2250   2.285   0.578   0.709  1.3771 -2.2502 -0.2909
  751SOL     OW 2251   2.283   2.664   0.412 -0.5074  0.5430  0.3952
  751SOL    HW1 2252   2.362   2.672   0.473 -0.2391 -2.7272  1.0051
  751SOL    HW2 2253   2.306   2.602   0.335  1.5730  0.4725  0.5310
  752SOL     OW 2254   0.117   2.922   0.938 -0.2621  0.6612  0.1346
  752SOL    HW1 2255   0.117   2.824   0.910 -0.5922  1.6392  1.9463
  752SOL    HW2 2256   0.196   2.973   0.896 -1.4001 -0.3715  2.0846
  753SOL     OW 2257   1.879   0.992   2.184 -0.4222  0.3586 -0.4347
  753SOL    HW1 2258   1.820   1.060   2.139 -1.8618 -0.1049  1.7482
  753SOL    HW2 2259   1.857   0.902   2.146  0.4292  0.9828  1.0526
  754SOL     OW 2260   1.869   1.971   1.537 -0.0247  0.4611 -0.3716
  754SOL    HW1 2261   1.838   1.991   1.630  2.3602  0.6210 -1.8669
  754SOL    HW2 2262   1.797   1.922   1.487 -2.0115 -1.1184  1.8924
  755SOL     OW 2263   2.547   0.913   0.913  0.3158 -0.0427 -0.1340
  755SOL    HW1 2264   2.620   0.912   0.986  1.0998 -0.1150  0.7338
  755SOL    HW2 2265   2.463   0.958   0.951 -0.1691  0.3497  1.7699
  756SOL     OW 2266   0.994   1.372   3.005 -0.2402  0.3414  0.1078
  756SOL    HW1 2267   1.082   1.334   3.029 -0.5784  0.6516 -2.5275
  756SOL    HW2 2268   0.943   1.380   0.006 -0.8948 -2.8304  0.8280
  757SOL     OW 2269   1.360   2.748   0.701  0.2443  0.8869  0.2770
  757SOL    HW1 2270   1.314   2.774   0.787  1.2030 -0.2087  1.7836
  757SOL    HW2 2271   1.297   2.685   0.650 -3.0819 -0.1742 -3.8520
  758SOL     OW 2272   1.074   2.809   1.538 -0.1211  0.0915 -0.2900
  758SOL    HW1 2273   0.977   2.778   1.554 -1.4779 -2.5546  0.8927
  758SOL    HW2 2274   1.132   2.736   1.497  0.9259 -1.4873 -0.1569
  759SOL     OW 2275   0.175   0.618   0.812 -0.0942 -0.1055  0.3107
  759SOL    HW1 2276   0.107   0.547   0.817  1.6867  1.6387  1.4093
  759SOL    HW2 2277   0.140   0.709   0.777 -1.7655  2.9104 -0.0341
  760SOL     OW 2278   2.501   1.031   1.247 -0.4171  0.2247  0.2366
  760SOL    HW1 2279   2.580   0.968   1.231 -3.0547 -2.0258 -1.1149
  760SOL    HW2 2280   2.494   1.067   1.340 -1.0903  1.2156 -3.7395
  761SOL     OW 2281   1.986   3.078   0.504  0.1524 -0.2635 -0.4725
  761SOL    HW1 2282   1.973   2.976   0.509  1.9910 -1.2824  0.9525
  761SOL    HW2 2283   2.006   0.041   0.596  0.6733  2.4973  1.9245
  762SOL     OW 2284   2.004   1.778   3.040 -0.0687 -0.2255 -0.6670
  762SOL    HW1 2285   1.955   1.708   2.984 -2.2720  0.3579  1.0851
  762SOL    HW2 2286   2.105   1.761   3.039 -0.0186 -1.5647 -1.7870
  763SOL     OW 2287   0.631   1.733   1.579 -0.6396 -0.1873 -0.3182
  763SOL    HW1 2288   0.730   1.723   1.595 -3.0392 -1.8049 -0.9258
  763SOL    HW2 2289   0.579   1.691   1.659 -0.1162 -3.3596  0.5767
  764SOL     OW 2290   2.890   2.022   2.667 -0.1807  0.2002 -0.0997
  764SOL    HW1 2291   2.861   1.967   2.751  0.0020  1.1090  2.9729
  764SOL    HW2 2292   2.819   2.092   2.642 -0.1418 -1.2915 -3.0098
  765SOL     OW 2293   0.425   2.761   1.198  0.0770  0.0307 -0.1063
  765SOL    HW1 2294   0.511   2.805   1.229  1.4441 -0.5688 -1.6821
  765SOL    HW2 2295   0.415   2.765   1.098 -0.6520  1.6331  2.5106
  766SOL     OW 2296   3.038   2.298   2.337 -0.7248 -0.2418 -0.3477
  766SOL    HW1 2297   0.054   2.289   2.327 -2.5228 -2.2610 -0.0199
  766SOL    HW2 2298   2.986   2.245   2.268 -0.9060 -0.1602  0.7371
  767SOL     OW 2299   2.215   0.705   2.256  0.2695 -0.2653 -0.1097
  767SOL    HW1 2300   2.199   0.791   2.201  1.3914  0.5761  0.0516
  767SOL    HW2 2301   2.263   0.731   2.340  0.9277  0.1261 -2.3319
  768SOL     OW 2302   1.357   0.062   2.469  0.1674 -0.2465  0.0701
  768SOL    HW1 2303   1.271   0.078   2.526 -0.7319 -1.1597  3.0328
  768SOL    HW2 2304   1.412   0.146   2.470 -0.1946  0.1064  1.4267
  769SOL     OW 2305   2.890   2.660   0.897  0.2225 -0.2315 -0.0333
  769SOL    HW1 2306   2.857   2.563   0.895 -2.7376  3.5857  1.6188
  769SOL    HW2 2307   2.964   2.670   0.969 -0.5166  0.5264 -3.9053
  770SOL     OW 2308   0.566   0.225   2.751  0.2355  0.7431  0.7864
  770SOL    HW1 2309   0.579   0.151   2.823  1.0791 -2.2249  0.3586
  770SOL    HW2 2310   0.486   0.280   2.772  0.3133 -0.0543  0.1997
  771SOL     OW 2311   1.311   1.864   2.241  0.0913 -0.2292  0.4855
  771SOL    HW1 2312   1.362   1.952   2.233 -4.0813 -1.2241  1.1964
  771SOL    HW2 2313   1.243   1.851   2.165  1.0726  1.3709  2.4045
  772SOL     OW 2314   1.522   2.651   2.325 -0.5049  0.5661  0.1688
  772SOL    HW1 2315   1.432   2.681   2.365 -0.3635 -1.9413  1.0115
  772SOL    HW2 2316   1.555   2.712   2.253  3.1758 -3.3530  2.3417
  773SOL     OW 2317   1.608   0.794   1.539  0.5340 -0.1309  0.0815
  773SOL    HW1 2318   1.527   0.818   1.477 -2.2115 -0.2486 -2.2171
  773SOL    HW2 2319   1.585   0.836   1.627 -2.7910  1.3287  2.1678
  774SOL     OW 2320   1.010   0.304   1.101 -0.5582 -0.0206 -0.1301
  774SOL    HW1 2321   1.088   0.341   1.153 -1.9946  2.6655 -2.1069
  774SOL    HW2 2322   0.936   0.373   1.124  3.1704  0.2866  1.2931
  775SOL     OW 2323   1.944   3.015   2.768  0.2177  0.0429 -0.3003
  775SOL    HW1 2324   1.872   0.006   2.778  0.3820  1.4959  0.1061
  775SOL    HW2 2325   1.938   2.972   2.670  2.0860 -4.4849 -0.6668
  776SOL     OW 2326   2.160   0.935   1.448 -0.7402 -0.0442  0.4367
  776SOL    HW1 2327   2.070   0.888   1.440 -1.3610 -0.5802  1.0552
  776SOL    HW2 2328   2.226   0.881   1.504  0.5746 -0.2638  1.3249
  777SOL     OW 2329   2.782   1.379   2.228  0.1242  0.4856 -0.2000
  777SOL    HW1 2330   2.797   1.409   2.322  2.0937  0.7859 -3.7291
  777SOL    HW2 2331   2.779   1.277   2.219  0.8361 -0.0360 -1.9004
  778SOL     OW 2332   2.828   1.103   2.546 -0.7420 -0.1661  0.3325
  778SOL    HW1 2333   2.921   1.119   2.503 -0.6754 -0.6723 -1.9097
  778SOL    HW2 2334   2.777   1.186   2.553  2.8176 -2.9487  0.3841
  779SOL     OW 2335   3.005   0.788   2.992  0.3398  0.1304 -0.1282
  779SOL    HW1 2336   0.014   0.760   3.017 -0.5219 -0.5303  2.9063
  779SOL    HW2 2337   2.986   0.761   2.895  2.6536 -0.7221 -0.4905
  780SOL     OW 2338   2.431   1.952   2.570  0.2135 -0.0880 -0.1067
  780SOL    HW1 2339   2.523   1.925   2.543 -1.2843  2.6033 -0.2676
  780SOL    HW2 2340   2.422   2.052   2.560 -0.5681  2.2920  0.6736
  781SOL     OW 2341   2.757   1.070   1.935 -0.5590  0.2412  0.6279
  781SOL    HW1 2342   2.784   1.143   1.871 -1.9052  1.9727 -0.3108
  781SOL    HW2 2343   2.816   0.985   1.917 -1.2468 -3.7863  0.0917
  782SOL     OW 2344   1.128   2.056   2.650  0.3810  0.5853 -0.7292
  782SOL    HW1 2345   1.153   1.978   2.595 -3.7445  1.9083  2.2720
  782SOL    HW2 2346   1.171   2.054   2.743  0.2808 -1.2668  2.7451
  783SOL     OW 2347   0.914   2.328   1.140 -0.2458  0.2551 -0.2702
  783SOL    HW1 2348   0.990   2.253   1.144  1.8247 -2.4119  0.6111
  783SOL    HW2 2349   0.924   2.397   1.214 -0.9451  1.9060 -0.6801
  784SOL     OW 2350   1.981   0.608   2.390 -0.6664  0.0169  0.6935
  784SOL    HW1 2351   2.019   0.525   2.427  1.6799 -0.5100  0.3666
  784SOL    HW2 2352   2.044   0.643   2.316 -0.6971  1.4523  2.5479
  785SOL     OW 2353   0.038   0.204   1.746 -0.1210  0.1407  0.0883
  785SOL    HW1 2354   3.077   0.296   1.739 -0.0784  0.4812 -1.1792
  785SOL    HW2 2355   0.000   0.143   1.673 -1.7672 -0.2401 -0.0135
  786SOL     OW 2356   1.259   2.073   0.373  0.1211 -0.0559  0.2209
  786SOL    HW1 2357   1.160   2.041   0.373 -2.3766 -0.9641  0.5519
  786SOL    HW2 2358   1.276   2.165   0.415 -1.2057  1.1309  2.1382
  787SOL     OW 2359   1.209   0.017   0.800  0.2557 -0.1948 -0.5694
  787SOL    HW1 2360   1.177   0.020   0.701 -1.1123 -2.2291 -1.5053
  787SOL    HW2 2361   1.130   0.037   0.860 -1.7272 -2.6462 -0.9880
  788SOL     OW 2362   0.030   1.265   0.866 -0.0990 -0.1562 -0.0657
  788SOL    HW1 2363   0.021   1.362   0.844 -1.8798 -1.8981  1.3640
  788SOL    HW2 2364   0.083   1.218   0.793 -0.6641 -0.9910  3.8919
  789SOL     OW 2365   2.383   1.027   2.148 -0.4903 -0.6647 -0.8370
  789SOL    HW1 2366   2.280   1.011   2.149 -1.5857 -0.9451  0.7686
  789SOL    HW2 2367   2.419   1.024   2.241 -1.4694 -0.5620  0.7149
  790SOL     OW 2368   1.006   0.297   2.739  0.7730  0.1672 -0.2769
  790SOL    HW1 2369   0.938   0.322   2.671  1.9580 -0.4569  0.0077
  790SOL    HW2 2370   0.964   0.257   2.826 -0.9309 -2.2895  2.1814
  791SOL     OW 2371   0.058   2.928   3.019 -0.7132  0.4478  0.0031
  791SOL    HW1 2372   0.084   3.008   2.963  1.6253 -0.6016 -4.0606
  791SOL    HW2 2373   0.087   2.925   0.034 -1.6135  0.8442  2.3070
  792SOL     OW 2374   1.533   0.883   1.810  0.9305 -0.5056 -0.7139
  792SOL    HW1 2375   1.486   0.802   1.854  0.9983 -0.6250 -1.2348
  792SOL    HW2 2376   1.456   0.939   1.765 -1.0928  0.0540 -0.4696
  793SOL     OW 2377   2.890   0.328   1.022  0.5044  0.8408 -0.5668
  793SOL    HW1 2378   2.913   0.282   0.933 -0.9383 -1.2432 -0.4524
  793SOL    HW2 2379   2.826   0.408   1.002  1.6927  1.1962 -0.2947
  794SOL     OW 2380   0.342   0.235   2.147  0.1962  0.3528 -0.0761
  794SOL    HW1 2381   0.434   0.180   2.143  1.8516 -3.3291  0.6082
  794SOL    HW2 2382   0.272   0.187   2.087 -1.8016 -0.3216  0.4221
  795SOL     OW 2383   0.604   1.397   0.400 -0.4058 -0.3691  1.0034
  795SOL    HW1 2384   0.506   1.411   0.417  1.1869 -1.1107 -0.3852
  795SOL    HW2 2385   0.635   1.324   0.335  0.2234 -1.0172  1.1398
  796SOL     OW 2386   3.027   1.084   2.971 -0.7317  0.0120  0.3569
  796SOL    HW1 2387   2.994   0.988   2.982 -0.0362  1.2754  2.4401
  796SOL    HW2 2388   0.009   1.107   3.045 -0.0688  1.5265 -3.1819
  797SOL     OW 2389   1.957   0.059   2.370  0.3052 -0.3501  0.4419
  797SOL    HW1 2390   1.987   3.057   2.318 -0.3664 -1.9911 -0.3843
  797SOL    HW2 2391   1.951   0.149   2.312  0.6025  1.1493 -0.0379
  798SOL     OW 2392   0.114   3.042   1.194  0.7778  0.1779  0.3600
  798SOL    HW1 2393   0.091   3.013   1.097  0.5660  3.3222 -0.1614
  798SOL    HW2 2394   0.082   0.058   1.203 -1.2779 -0.7411  2.1994
  799SOL     OW 2395   2.824   0.801   1.884 -0.6315  0.7137 -0.8602
  799SOL    HW1 2396   2.899   0.789   1.814  1.0670 -2.1690 -0.1020
  799SOL    HW2 2397   2.739   0.749   1.863  1.2062  1.5489  0.0173
  800SOL     OW 2398   0.137   1.376   0.215  0.1270  0.3588 -0.2092
  800SOL    HW1 2399   0.148   1.465   0.263  0.8744 -1.6661 -0.5581
  800SOL    HW2 2400   0.217   1.351   0.161 -2.9723 -0.0425 -0.6224
  801SOL     OW 2401   2.102   1.660   0.508 -0.3102 -0.0097 -0.1342
  801SOL    HW1 2402   2.122   1.604   0.425  0.0319 -1.2208  0.6173
  801SOL    HW2 2403   2.000   1.686   0.501 -2.0363  0.3059 -0.6313
  802SOL     OW 2404   1.353   1.010   2.778  0.3674  0.4161  0.2270
  802SOL    HW1 2405   1.325   1.059   2.692 -2.2808 -2.5237 -0.2972
  802SOL    HW2 2406   1.396   0.925   2.743 -2.6789 -0.8484  2.5095
  803SOL     OW 2407   0.997   2.053   1.882  0.5884  0.1230 -0.3647
  803SOL    HW1 2408   0.990   2.138   1.829 -1.7665 -1.0529  0.1665
  803SOL    HW2 2409   1.096   2.035   1.890 -0.9601 -2.4258 -0.6211
  804SOL     OW 2410   1.408   2.341   0.736 -0.1251 -0.2232 -0.4272
  804SOL    HW1 2411   1.437   2.242   0.723  1.9295 -0.3187  0.4042
  804SOL    HW2 2412   1.343   2.374   0.663 -1.9329 -1.8414  2.0543
  805SOL     OW 2413   2.688   2.219   2.571 -0.5625 -0.4263 -0.3349
  805SOL    HW1 2414   2.766   2.282   2.579  0.9683  1.5406  2.8592
  805SOL    HW2 2415   2.603   2.262   2.614 -0.1669  0.2112 -0.0663
  806SOL     OW 2416   0.004   3.055   0.398 -0.1002 -0.3408  0.4815
  806SOL    HW1 2417   3.012   0.007   0.453 -0.8227 -0.9925 -1.9422
  806SOL    HW2 2418   0.015   2.960   0.425  1.6270 -1.5497  0.0943
  807SOL     OW 2419   2.378   0.712   2.881 -0.2058 -0.4411  0.0851
  807SOL    HW1 2420   2.431   0.666   2.811 -0.3776  3.6992  3.7302
  807SOL    HW2 2421   2.364   0.652   2.960  1.8245  1.0481 -2.9993
  808SOL     OW 2422   1.085   2.484   0.875 -0.1708  0.4745  0.5604
  808SOL    HW1 2423   1.076   2.386   0.854  0.1498 -0.2373  1.1981
  808SOL    HW2 2424   1.065   2.501   0.977 -0.4639  2.5444  4.0222
  809SOL     OW 2425   2.727   0.124   2.682 -0.2295 -0.4800  0.2594
  809SOL    HW1 2426   2.827   0.099   2.694 -2.6226 -0.3566 -0.3642
  809SOL    HW2 2427   2.712   0.192   2.606  1.2411  1.4985  0.2487
  810SOL     OW 2428   1.560   1.291   0.654 -0.4134 -0.6977  0.0584
  810SOL    HW1 2429   1.488   1.221   0.641 -0.0459  0.4831  0.1743
  810SOL    HW2 2430   1.574   1.298   0.756 -0.0552 -0.1375 -1.5389
  811SOL     OW 2431   1.847   2.862   1.602  0.0922  0.2475 -0.5116
  811SOL    HW1 2432   1.827   2.852   1.505  0.0180 -1.6307  0.9081
  811SOL    HW2 2433   1.827   2.772   1.651 -0.8943  0.1227  1.7795
  812SOL     OW 2434   1.582   2.659   0.406  0.3274 -0.0249  0.2103
  812SOL    HW1 2435   1.601   2.580   0.462 -0.7959  2.8477 -0.1275
  812SOL    HW2 2436   1.580   2.742   0.462  0.3997 -0.8986  3.7388
  813SOL     OW 2437   1.143   0.670   1.992 -0.3029 -0.0026  0.0275
  813SOL    HW1 2438   1.052   0.710   1.999 -0.4177 -1.2055 -0.4540
  813SOL    HW2 2439   1.138   0.574   2.025 -1.1934  2.4877 -1.0192
  814SOL     OW 2440   0.417   0.008   1.211 -0.0779  0.0825  0.4232
  814SOL    HW1 2441   0.318   0.004   1.183  0.8103 -2.7716  0.2110
  814SOL    HW2 2442   0.425   3.074   1.308 -1.1877  0.0233  2.2739
  815SOL     OW 2443   0.301   2.933   0.516  0.4954  0.1839 -0.4617
  815SOL    HW1 2444   0.314   2.989   0.432 -0.2212  0.5944  1.1318
  815SOL    HW2 2445   0.385   2.935   0.578  0.8908 -0.9651  0.4350
  816SOL     OW 2446   2.623   1.573   2.591 -0.7610  0.2239 -0.3437
  816SOL    HW1 2447   2.547   1.566   2.662 -1.5941  1.0480  2.0044
  816SOL    HW2 2448   2.626   1.668   2.556 -1.9104 -1.3450  0.0651
  817SOL     OW 2449   1.182   0.129   2.916 -0.4803 -0.0373  0.0868
  817SOL    HW1 2450   1.240   0.204   2.954  3.6702  0.3407  0.9538
  817SOL    HW2 2451   1.247   0.061   2.875  0.0687 -0.9709 -1.5520
  818SOL     OW 2452   1.697   0.612   0.015 -0.3637 -0.5333  0.0978
  818SOL    HW1 2453   1.689   0.635   0.116 -1.5988 -2.1029  3.2734
  818SOL    HW2 2454   1.707   0.509   0.008  0.4563 -0.1196 -0.2380
  819SOL     OW 2455   1.738   2.682   2.827  0.0032  0.2223 -0.7645
  819SOL    HW1 2456   1.769   2.665   2.733 -1.9082 -0.0757 -1.6229
  819SOL    HW2 2457   1.781   2.762   2.871 -0.4364 -1.8815  2.3227
  820SOL     OW 2458   1.511   0.983   0.099  0.0442 -0.5042  0.0024
  820SOL    HW1 2459   1.481   0.917   0.029  1.4141  0.9367  0.7129
  820SOL    HW2 2460   1.610   0.978   0.116 -0.4747  2.1935 -0.2657
  821SOL     OW 2461   0.353   0.707   1.510 -0.2747 -0.1661  0.4034
  821SOL    HW1 2462   0.311   0.797   1.485  0.3076 -0.2019  0.3135
  821SOL    HW2 2463   0.282   0.632   1.513 -0.6695  0.3579  0.1453
  822SOL     OW 2464   1.135   2.619   2.290 -0.0108 -0.0457  0.6356
  822SOL    HW1 2465   1.187   2.537   2.252 -1.0662 -1.9935 -2.0411
  822SOL    HW2 2466   1.039   2.610   2.256 -1.2557  0.3132  0.8251
  823SOL     OW 2467   0.200   1.472   2.206 -0.4214  0.1822  0.1326
  823SOL    HW1 2468   0.237   1.564   2.232 -0.8546  2.5565 -2.3724
  823SOL    HW2 2469   0.272   1.407   2.170 -1.9751  0.2712 -0.7957
  824SOL     OW 2470   1.774   2.982   1.897  0.3034  0.1102 -0.1279
  824SOL    HW1 2471   1.815   2.913   1.834  0.9558 -1.3430  3.1593
  824SOL    HW2 2472   1.706   3.046   1.847 -2.3001  2.5062 -4.1076
  825SOL     OW 2473   0.729   1.304   0.156  0.0464  0.0300 -0.1287
  825SOL    HW1 2474   0.807   1.365   0.167  0.0908  0.2951 -0.6020
  825SOL    HW2 2475   0.755   1.208   0.131  1.0918  0.1841 -2.4851
  826SOL     OW 2476   2.136   0.527   2.687  0.1932  0.7920  0.4268
  826SOL    HW1 2477   2.082   0.543   2.772  0.5198  0.8751  1.2029
  826SOL    HW2 2478   2.077   0.464   2.627 -1.1471 -1.7813  1.0951
  827SOL     OW 2479   0.453   2.197   2.894  0.5278 -0.4161 -0.8465
  827SOL    HW1 2480   0.548   2.224   2.874  1.4664 -1.6484 -1.6386
  827SOL    HW2 2481   0.382   2.212   2.817 -2.4573 -1.1692 -0.9409
  828SOL     OW 2482   3.055   0.198   1.273 -0.2472 -0.0322  0.2783
  828SOL    HW1 2483   0.032   0.281   1.279  0.7904  0.5573  1.1765
  828SOL    HW2 2484   2.964   0.233   1.239 -0.3508 -0.7937 -0.1720
  829SOL     OW 2485   1.138   1.360   1.190  0.2353  0.1942  0.3539
  829SOL    HW1 2486   1.203   1.407   1.257  0.8847  0.5553  0.2182
  829SOL    HW2 2487   1.080   1.427   1.140  0.7832  1.5125 -1.2888
  830SOL     OW 2488   0.449   1.280   1.509  0.7631 -0.0709  0.3434
  830SOL    HW1 2489   0.389   1.357   1.534  4.2166  0.1777 -1.8184
  830SOL    HW2 2490   0.516   1.303   1.435  0.2560 -1.6622 -0.0437
  831SOL     OW 2491   0.742   1.915   0.299  0.7631 -1.0527  0.7712
  831SOL    HW1 2492   0.771   1.871   0.212  2.3904 -0.7969  0.1678
  831SOL    HW2 2493   0.666   1.986   0.281 -0.1607  3.5907 -0.1544
  832SOL     OW 2494   0.702   2.956   2.648  0.2214  0.4162  0.0312
  832SOL    HW1 2495   0.702   2.950   2.751 -1.3955 -3.0278 -2.3686
  832SOL    HW2 2496   0.615   2.997   2.614 -0.0547  2.0201 -1.0621
  833SOL     OW 2497   0.142   0.709   2.076  0.1545  0.3547  0.3895
  833SOL    HW1 2498   0.171   0.625   2.119 -1.9540  1.6806  0.7042
  833SOL    HW2 2499   0.045   0.732   2.098 -1.7631  1.9452 -0.3137
  834SOL     OW 2500   0.310   0.594   1.075  0.1378 -0.0356 -0.4075
  834SOL    HW1 2501   0.351   0.677   1.118 -0.0836 -0.4416  1.4498
  834SOL    HW2 2502   0.254   0.622   0.995 -0.0757 -0.1612 -1.1653
  835SOL     OW 2503   2.835   2.919   1.238 -0.0913  0.0604  0.0156
  835SOL    HW1 2504   2.784   2.973   1.169  1.7855 -0.3795 -0.8394
  835SOL    HW2 2505   2.804   2.953   1.332 -3.4914  0.1906  1.2923
  836SOL     OW 2506   0.448   1.990   0.003  0.1083 -0.0422  0.5656
  836SOL    HW1 2507   0.472   2.027   0.092 -3.1390  1.1499  0.3069
  836SOL    HW2 2508   0.446   2.072   3.027  0.5394 -0.0717  1.3948
  837SOL     OW 2509   1.840   1.989   3.063  0.7992  0.4844  0.0269
  837SOL    HW1 2510   1.824   2.018   2.968  1.0966  0.3023  0.3828
  837SOL    HW2 2511   1.884   1.900   3.062 -0.6402  2.2542  0.4394
  838SOL     OW 2512   2.546   1.213   2.030  0.0020  0.3368  0.2407
  838SOL    HW1 2513   2.471   1.151   2.062 -0.5121 -0.1078  1.9080
  838SOL    HW2 2514   2.626   1.161   1.990  0.7746  2.0838 -2.0270
  839SOL     OW 2515   1.203   0.921   0.677  0.1659 -0.3323  0.1344
  839SOL    HW1 2516   1.114   0.879   0.694  0.0645  0.1786 -0.5325
  839SOL    HW2 2517   1.218   0.937   0.580  0.4874 -0.4032  1.0789
  840SOL     OW 2518   1.818   0.469   1.128 -0.6269  0.0136 -0.6660
  840SOL    HW1 2519   1.796   0.495   1.032 -2.3650 -2.1138 -0.4305
  840SOL    HW2 2520   1.748   0.506   1.189  0.9261  1.3538  0.3625
  841SOL     OW 2521   0.518   2.910   0.733 -0.4516 -0.6373  0.2269
  841SOL    HW1 2522   0.534   2.964   0.816  0.0205 -0.4570 -3.4055
  841SOL    HW2 2523   0.490   2.812   0.748 -1.8603 -2.9908  0.5688
  842SOL     OW 2524   0.473   0.607   0.540 -0.2228  0.5120 -0.1581
  842SOL    HW1 2525   0.439   0.539   0.610  0.2146  1.3556 -0.1719
  842SOL    HW2 2526   0.405   0.633   0.471 -0.2692  2.3970  2.8689
  843SOL     OW 2527   0.541   0.891   1.906  0.1900  0.2203 -0.5151
  843SOL    HW1 2528   0.533   0.942   1.820 -0.1100 -0.0847  0.3196
  843SOL    HW2 2529   0.449   0.894   1.949  0.3062  0.5887  0.5324
  844SOL     OW 2530   1.369   2.417   2.973 -0.6170  0.1153 -0.0616
  844SOL    HW1 2531   1.347   2.478   2.897  0.2263 -2.0795 -0.9913
  844SOL    HW2 2532   1.360   2.318   2.958 -0.4328 -0.1897 -0.6839
  845SOL     OW 2533   2.585   2.570   2.299 -0.3041  0.5560  0.4904
  845SOL    HW1 2534   2.679   2.530   2.318  0.8988 -1.6228 -0.1092
  845SOL    HW2 2535   2.554   2.567   2.202 -1.2547  0.7444  0.3338
  846SOL     OW 2536   1.663   1.971   2.470  0.3608 -0.3360 -0.4698
  846SOL    HW1 2537   1.629   2.016   2.557  1.3231 -0.7955  2.1762
  846SOL    HW2 2538   1.698   1.881   2.492  1.2021  1.4104  2.4539
  847SOL     OW 2539   2.052   2.888   2.316  0.0114 -0.8777 -0.4726
  847SOL    HW1 2540   2.146   2.872   2.290 -2.5589 -1.9252  1.2495
  847SOL    HW2 2541   1.988   2.852   2.249 -1.5659  0.9930  0.0745
  848SOL     OW 2542   0.698   0.340   0.150  0.3306 -0.2766 -0.3649
  848SOL    HW1 2543   0.614   0.395   0.173 -1.6472  4.0179  0.0904
  848SOL    HW2 2544   0.757   0.340   0.236  2.3643  0.1770  1.9523
  849SOL     OW 2545   0.641   2.848   1.362 -0.7948 -0.1449  0.7682
  849SOL    HW1 2546   0.714   2.805   1.305  1.4800  0.6669  0.3567
  849SOL    HW2 2547   0.669   2.937   1.402 -3.0934  1.2019 -0.7801
  850SOL     OW 2548   0.155   1.587   0.385 -0.1054 -0.5730 -0.4349
  850SOL    HW1 2549   0.172   1.659   0.317 -0.0499 -0.6406  1.8062
  850SOL    HW2 2550   0.082   1.617   0.448 -2.1288  2.7033 -0.8722
  851SOL     OW 2551   0.150   0.784   0.052 -0.1663  0.2562  0.6736
  851SOL    HW1 2552   0.132   0.885   0.051  1.2637 -2.8248 -0.9818
  851SOL    HW2 2553   0.254   0.781   0.038  0.5502  2.7516  0.6775
  852SOL     OW 2554   1.564   1.896   1.945 -0.3204  0.1114  0.3460
  852SOL    HW1 2555   1.620   1.951   1.877  2.2924  0.9454  0.3363
  852SOL    HW2 2556   1.470   1.863   1.906 -1.1217  1.0241 -1.9978
  853SOL     OW 2557   0.618   1.781   0.512 -0.1878 -0.1474 -0.1102
  853SOL    HW1 2558   0.653   1.792   0.415  1.1892 -1.8686 -2.0302
  853SOL    HW2 2559   0.534   1.833   0.532  2.9145  0.6499 -0.7977
  854SOL     OW 2560   1.799   1.111   1.529 -0.8177 -0.0659  0.5587
  854SOL    HW1 2561   1.837   1.017   1.535  1.2634  2.4766  0.3155
  854SOL    HW2 2562   1.875   1.177   1.528  2.6605  0.5637  1.8498
  855SOL     OW 2563   0.570   2.117   0.219 -0.0885  0.6585 -0.1667
  855SOL    HW1 2564   0.480   2.154   0.260 -3.9251 -2.3418  2.1177
  855SOL    HW2 2565   0.644   2.179   0.250  0.0138 -1.5720 -1.7577
  856SOL     OW 2566   2.960   0.018   1.976 -0.6430 -0.1271 -0.0422
  856SOL    HW1 2567   2.992   0.117   1.974  0.2585  0.7391  0.8350
  856SOL    HW2 2568   3.033   3.030   1.961 -0.8224  0.3894 -1.4719
  857SOL     OW 2569   0.431   0.512   2.074 -0.4709  0.0395 -0.1195
  857SOL    HW1 2570   0.388   0.418   2.085  0.2860  0.0563 -1.0389
  857SOL    HW2 2571   0.463   0.533   1.977 -2.1658  1.8374 -4.6946
  858SOL     OW 2572   2.536   1.952   2.164  0.3832  0.5800 -0.4899
  858SOL    HW1 2573   2.441   1.918   2.186 -2.2117 -1.5093 -1.0094
  858SOL    HW2 2574   2.578   1.896   2.089 -1.5860  3.0858 -0.6156
  859SOL     OW 2575   1.877   2.809   0.534  0.3173 -0.0577 -0.3740
  859SOL    HW1 2576   1.809   2.842   0.603 -1.1540 -2.0424  1.5385
  859SOL    HW2 2577   1.948   2.748   0.580 -1.1221 -0.3443 -0.0571
  860SOL     OW 2578   1.896   0.277   0.120  0.6263  0.4259  0.2891
  860SOL    HW1 2579   1.972   0.238   0.069 -1.4317  2.7851  0.4999
  860SOL    HW2 2580   1.829   0.319   0.053 -2.7263  0.8636 -2.4463
  861SOL     OW 2581   0.372   0.434   0.731  0.4788 -0.0923 -0.0528
  861SOL    HW1 2582   0.293   0.499   0.748 -0.8782 -1.2337 -0.8475
  861SOL    HW2 2583   0.416   0.396   0.819 -1.6031  2.9298 -0.1139
  862SOL     OW 2584   1.832   0.626   1.730  0.0739 -0.4139  0.9768
  862SOL    HW1 2585   1.747   0.571   1.751 -1.8691 -0.4084 -0.9239
  862SOL    HW2 2586   1.905   0.570   1.684  1.5388 -2.9177  0.6177
  863SOL     OW 2587   0.406   1.664   0.963 -0.0276  0.1425 -0.5571
  863SOL    HW1 2588   0.388   1.744   0.900  2.4003  2.1878 -1.1600
  863SOL    HW2 2589   0.504   1.668   0.996 -1.5093  1.1972 -1.5893
  864SOL     OW 2590   2.534   0.015   1.948  0.3924 -0.4577 -0.3659
  864SOL    HW1 2591   2.607   0.025   1.882 -0.5598  0.4507  2.2404
  864SOL    HW2 2592   2.500   3.006   1.957 -1.1346 -1.9966 -0.6117
  865SOL     OW 2593   1.374   0.540   1.386 -0.2511  0.2081  0.1502
  865SOL    HW1 2594   1.336   0.602   1.458 -0.6179 -0.6297 -2.1665
  865SOL    HW2 2595   1.314   0.458   1.368 -2.0924  1.0258 -1.4696
  866SOL     OW 2596   2.476   2.600   0.597 -0.7728 -0.1505  0.0149
  866SOL    HW1 2597   2.549   2.641   0.652 -0.0013 -1.8815 -0.8246
  866SOL    HW2 2598   2.422   2.533   0.646  2.3877 -0.8091 -2.3847
  867SOL     OW 2599   2.795   2.514   0.596  0.3518  0.0375 -0.0048
  867SOL    HW1 2600   2.743   2.474   0.677 -0.5143 -1.1586 -0.6027
  867SOL    HW2 2601   2.823   2.610   0.607  0.1833 -0.1911 -0.3960
  868SOL     OW 2602   1.230   1.845   2.498  0.0478 -0.1218  0.3322
  868SOL    HW1 2603   1.161   1.784   2.452  0.4029 -0.0542 -0.8991
  868SOL    HW2 2604   1.301   1.863   2.426  0.1826 -1.1583  0.8470
  869SOL     OW 2605   2.214   1.327   0.492  0.0756 -0.5339 -0.4068
  869SOL    HW1 2606   2.205   1.235   0.450  1.0571  1.9799  1.8141
  869SOL    HW2 2607   2.159   1.339   0.575 -1.5973 -0.1513 -0.2970
  870SOL     OW 2608   2.411   1.747   0.505  0.6782  0.8117  0.0062
  870SOL    HW1 2609   2.327   1.789   0.464 -1.2785  0.0054 -0.3778
  870SOL    HW2 2610   2.490   1.774   0.449 -0.9261 -0.0276 -0.4395
  871SOL     OW 2611   3.041   0.777   1.673 -0.2832 -0.0992  0.0689
  871SOL    HW1 2612   3.050   0.873   1.647  0.2231 -2.1200 -0.7896
  871SOL    HW2 2613   0.043   0.738   1.710  1.7913  1.2972 -3.3914
  872SOL     OW 2614   0.535   1.821   2.700  0.1013 -0.3715  0.4207
  872SOL    HW1 2615   0.630   1.862   2.718  2.3201  1.2884  0.9055
  872SOL    HW2 2616   0.487   1.780   2.779  2.0566 -0.5172  1.7307
  873SOL     OW 2617   0.395   2.626   1.870 -0.5379  1.0522 -0.4483
  873SOL    HW1 2618   0.433   2.661   1.957 -1.6103  1.9541  0.0390
  873SOL    HW2 2619   0.454   2.651   1.792 -3.1324  2.9427  2.6685
  874SOL     OW 2620   1.166   1.111   2.152 -0.0878  0.1654 -0.3255
  874SOL    HW1 2621   1.132   1.123   2.246  0.2058 -0.1667  2.7803
  874SOL    HW2 2622   1.205   1.015   2.146 -2.0251 -1.2252 -0.6770
  875SOL     OW 2623   3.017   2.765   1.137  0.1936 -0.7552 -0.3813
  875SOL    HW1 2624   0.017   2.812   1.098  3.3463 -1.2672  0.6779
  875SOL    HW2 2625   2.957   2.831   1.187  1.5232 -0.4187 -2.1294
  876SOL     OW 2626   1.015   1.300   0.822 -0.0076 -0.2659  0.5196
  876SOL    HW1 2627   0.961   1.229   0.872 -0.4438 -0.7731  1.7207
  876SOL    HW2 2628   0.966   1.385   0.805  0.5587  0.4103 -1.9016
  877SOL     OW 2629   0.602   0.395   1.323 -0.1650 -0.3277 -0.2478
  877SOL    HW1 2630   0.586   0.363   1.420 -0.5868 -2.6734  1.7393
  877SOL    HW2 2631   0.587   0.320   1.253  0.9507  1.6828  0.4624
  878SOL     OW 2632   2.614   1.782   2.932  0.4819 -0.0860 -0.2778
  878SOL    HW1 2633   2.671   1.704   2.971  2.7662 -0.7072  0.2538
  878SOL    HW2 2634   2.541   1.741   2.877  1.8292 -1.5457 -0.2252
  879SOL     OW 2635   2.385   1.944   1.252 -0.1668 -0.5176  0.5303
  879SOL    HW1 2636   2.387   1.977   1.349  1.9131  0.0400 -0.6792
  879SOL    HW2 2637   2.427   2.018   1.196  3.6556  2.7748  0.0427
  880SOL     OW 2638   1.047   2.241   1.398 -0.0315 -0.0264 -0.2370
  880SOL    HW1 2639   1.108   2.301   1.454 -1.1122 -1.1850  2.1655
  880SOL    HW2 2640   1.089   2.210   1.311  2.4031  3.8602 -1.6535
  881SOL     OW 2641   1.223   1.926   1.010 -0.4233 -0.2367  0.1352
  881SOL    HW1 2642   1.198   1.925   0.910 -1.4043  2.9014  1.4515
  881SOL    HW2 2643   1.270   1.842   1.042  0.0691  4.1991 -0.6280
  882SOL     OW 2644   2.052   1.540   2.444  0.1604  0.3858 -0.2798
  882SOL    HW1 2645   2.087   1.463   2.500  2.7794 -0.8433 -2.4745
  882SOL    HW2 2646   2.130   1.607   2.441  0.3449 -1.3523  0.4471
  883SOL     OW 2647   1.365   0.506   1.014  0.3811 -0.2362 -0.0907
  883SOL    HW1 2648   1.277   0.556   1.022 -1.7615 -2.1124  3.4422
  883SOL    HW2 2649   1.361   0.420   1.066  0.8584 -1.5414 -0.5192
  884SOL     OW 2650   0.062   2.692   0.811 -0.3697  0.0607 -0.1103
  884SOL    HW1 2651   0.083   2.621   0.737  2.6348 -0.7797 -0.3601
  884SOL    HW2 2652   3.048   2.703   0.810  1.7531 -1.5613 -2.8832
  885SOL     OW 2653   1.095   1.172   1.859 -0.0732 -0.5051 -0.0003
  885SOL    HW1 2654   1.088   1.092   1.800  1.3620 -1.5266  0.4680
  885SOL    HW2 2655   1.112   1.144   1.956 -1.1164  0.5252  1.2054
  886SOL     OW 2656   1.161   0.943   2.962 -0.5729  0.3270 -0.5137
  886SOL    HW1 2657   1.073   0.987   2.933 -0.1202  0.1138  2.6391
  886SOL    HW2 2658   1.236   0.966   2.895 -1.6439 -2.8900 -1.0014
  887SOL     OW 2659   1.632   0.223   0.895  0.2140  0.2366 -0.0613
  887SOL    HW1 2660   1.593   0.318   0.898 -0.9654  1.0698  1.8498
  887SOL    HW2 2661   1.730   0.226   0.882  0.9331 -1.4429  0.3205
  888SOL     OW 2662   2.377   1.373   1.649  0.0820 -0.2924 -0.5110
  888SOL    HW1 2663   2.425   1.347   1.563 -0.4089 -0.2927 -1.3319
  888SOL    HW2 2664   2.426   1.424   1.721 -0.9170  3.7485  1.0896
  889SOL     OW 2665   0.326   2.237   0.999 -0.0103  0.0657 -0.1009
  889SOL    HW1 2666   0.261   2.234   1.076  1.5058 -1.9302  0.8375
  889SOL    HW2 2667   0.275   2.216   0.911  0.6548 -0.4958 -0.0620
  890SOL     OW 2668   1.332   2.313   0.459  0.4905 -0.4938  0.2502
  890SOL    HW1 2669   1.432   2.320   0.441 -2.6294 -1.1262  0.6034
  890SOL    HW2 2670   1.283   2.392   0.408 -2.3457  1.3173 -1.1633
  891SOL     OW 2671   2.770   0.633   2.518  0.6465 -0.2030 -0.3709
  891SOL    HW1 2672   2.763   0.628   2.415  1.5494 -0.0894  0.2384
  891SOL    HW2 2673   2.778   0.729   2.550 -0.9924  3.4116  1.6545
  892SOL     OW 2674   0.122   2.387   1.568 -0.1461  0.3963 -0.0705
  892SOL    HW1 2675   0.138   2.467   1.508  2.1163  0.4810 -0.4188
  892SOL    HW2 2676   0.182   2.383   1.653 -0.1406 -1.9137  0.6964
  893SOL     OW 2677   1.084   0.340   1.570 -0.6236  0.5806  0.4363
  893SOL    HW1 2678   1.084   0.290   1.483 -1.2269  0.0130 -1.1901
  893SOL    HW2 2679   1.145   0.296   1.634  3.2340  1.5614 -0.8309
  894SOL     OW 2680   2.741   3.071   1.008  0.4238 -0.6790 -0.0258
  894SOL    HW1 2681   2.756   0.070   1.061  0.2677  0.7471 -0.5388
  894SOL    HW2 2682   2.701   0.006   0.918 -0.5189  0.8651  0.1715
  895SOL     OW 2683   1.895   1.779   2.268  0.3341  0.4006 -1.0411
  895SOL    HW1 2684   1.830   1.711   2.312 -0.6380 -1.8848 -1.1210
  895SOL    HW2 2685   1.943   1.730   2.195  1.9195  1.5225 -1.5546
  896SOL     OW 2686   1.656   0.535   1.367 -0.5442  0.1466  0.2552
  896SOL    HW1 2687   1.553   0.528   1.368  1.5484  0.2632 -0.3334
  896SOL    HW2 2688   1.694   0.582   1.446 -0.3751 -4.3395 -0.1946
  897SOL     OW 2689   0.580   1.531   1.838  0.4795 -0.2919 -0.2726
  897SOL    HW1 2690   0.665   1.573   1.873  1.2980 -0.7441 -1.6672
  897SOL    HW2 2691   0.593   1.429   1.816  1.1060 -5.2163  0.4015
  898SOL     OW 2692   1.970   2.080   1.989  0.4867 -0.3274 -0.4901
  898SOL    HW1 2693   1.910   2.030   2.057 -3.6766  2.0176 -2.0954
  898SOL    HW2 2694   2.072   2.082   2.013  0.8184  0.9164  2.2858
  899SOL     OW 2695   1.782   1.994   0.644  0.0329 -0.5798  0.7307
  899SOL    HW1 2696   1.716   1.926   0.689  1.1552 -0.3032 -1.9573
  899SOL    HW2 2697   1.766   1.996   0.545 -1.8427  2.3174 -1.4517
  900SOL     OW 2698   0.750   0.005   2.325  0.0174  0.5522 -0.1236
  900SOL    HW1 2699   0.806   0.018   2.411 -2.2243  0.1744  0.1736
  900SOL    HW2 2700   0.809   3.078   2.242 -0.0287  2.7717 -1.4081
  901SOL     OW 2701   1.093   1.507   2.113  0.0723 -0.4154 -0.3733
  901SOL    HW1 2702   0.990   1.509   2.109 -0.6441  0.0464  2.5093
  901SOL    HW2 2703   1.124   1.463   2.199  1.3918 -1.2223  3.2045
  902SOL     OW 2704   2.061   0.614   0.024 -0.0344  0.4575  0.2743
  902SOL    HW1 2705   2.092   0.707   0.010  0.6748 -1.1908  1.2349
  902SOL    HW2 2706   2.021   0.599   0.115 -1.8245 -1.9040  0.9732
  903SOL     OW 2707   1.912   0.990   2.476  0.3686  0.0464 -0.0331
  903SOL    HW1 2708   1.857   1.077   2.487 -0.0871  4.5610 -0.0383
  903SOL    HW2 2709   1.913   0.961   2.382  0.2616  1.2358 -2.1672
  904SOL     OW 2710   2.068   1.016   1.851 -0.3935 -0.1710 -0.2680
  904SOL    HW1 2711   1.979   0.967   1.833 -0.6639 -0.1806 -3.1519
  904SOL    HW2 2712   2.095   1.083   1.776 -0.5864 -0.1431 -0.5562
  905SOL     OW 2713   2.532   0.316   0.868 -0.0893  0.4810  0.0099
  905SOL    HW1 2714   2.505   0.413   0.885 -2.0243 -0.8652  1.0012
  905SOL    HW2 2715   2.525   0.263   0.957 -0.3669  0.1275 -2.4732
  906SOL     OW 2716   2.775   1.567   0.576  0.1170  0.5492 -0.0901
  906SOL    HW1 2717   2.712   1.554   0.652  1.2027  0.9833  0.0381
  906SOL    HW2 2718   2.737   1.621   0.497 -0.0002  0.0921 -2.3823
  907SOL     OW 2719   1.308   0.255   0.574  0.1879  0.4761  0.1776
  907SOL    HW1 2720   1.349   0.345   0.600  0.4965 -1.1482  0.4652
  907SOL    HW2 2721   1.363   0.182   0.625 -0.6521 -0.2558  0.5627
  908SOL     OW 2722   1.584   2.450   2.080 -0.0141 -0.1560 -0.4391
  908SOL    HW1 2723   1.599   2.355   2.113  1.8441  0.1809  1.2543
  908SOL    HW2 2724   1.649   2.517   2.121  0.9388 -0.4474  1.9836
  909SOL     OW 2725   2.598   0.721   1.784  0.3567  0.9740 -0.6378
  909SOL    HW1 2726   2.544   0.781   1.723  2.1624 -0.1616 -1.1768
  909SOL    HW2 2727   2.553   0.704   1.875 -0.4913  0.7541  1.5612
  910SOL     OW 2728   1.167   0.227   2.266 -0.4999 -0.4171 -0.1495
  910SOL    HW1 2729   1.216   0.150   2.226 -0.4383  2.0067  0.1414
  910SOL    HW2 2730   1.143   0.211   2.369  1.7401  1.7602  2.2543
  911SOL     OW 2731   2.281   1.146   2.423  0.5091 -0.1219 -0.2644
  911SOL    HW1 2732   2.374   1.174   2.392  0.3639 -1.1440 -0.2801
  911SOL    HW2 2733   2.291   1.086   2.507  0.0188 -1.1409  0.4617
  912SOL     OW 2734   2.830   2.198   1.370 -0.2151 -0.4530  0.6613
  912SOL    HW1 2735   2.783   2.115   1.404  1.1083  1.1858  0.1811
  912SOL    HW2 2736   2.888   2.233   1.442 -0.9958  0.2899 -2.8299
  913SOL     OW 2737   2.616   2.068   1.869  0.5655 -0.8416 -0.4600
  913SOL    HW1 2738   2.572   2.153   1.831 -0.0988 -2.7801 -0.8883
  913SOL    HW2 2739   2.556   2.021   1.938  0.9475  0.7481 -0.8369
  914SOL     OW 2740   2.126   1.674   0.775  0.4303 -0.4539  0.1952
  914SOL    HW1 2741   2.199   1.730   0.816  1.4513 -2.3789 -0.3730
  914SOL    HW2 2742   2.136   1.681   0.673 -1.1047 -0.7917 -0.3041
  915SOL     OW 2743   0.918   2.532   2.164  0.2463  0.4824 -0.6616
  915SOL    HW1 2744   0.820   2.557   2.187 -0.7034  1.8684  0.6731
  915SOL    HW2 2745   0.930   2.433   2.141  0.6484  1.2994  0.0955
  916SOL     OW 2746   0.467   2.460   0.935  0.7443 -0.5427  0.9331
  916SOL    HW1 2747   0.549   2.413   0.911 -4.7620  2.6205  1.9759
  916SOL    HW2 2748   0.397   2.391   0.959 -1.9124  3.9668 -1.9574
  917SOL     OW 2749   2.598   0.909   2.824 -0.1518  0.2602  0.0815
  917SOL    HW1 2750   2.532   0.837   2.849 -2.3746  0.4493  0.1532
  917SOL    HW2 2751   2.668   0.871   2.757  0.8759 -1.7824  1.2939
  918SOL     OW 2752   1.594   2.190   2.152 -0.8174 -0.8101 -0.2869
  918SOL    HW1 2753   1.676   2.133   2.148 -3.2732 -0.8530 -2.1731
  918SOL    HW2 2754   1.524   2.156   2.216 -0.2345  1.6611 -0.1776
  919SOL     OW 2755   1.916   2.197   0.778  0.1098 -0.3861  0.0135
  919SOL    HW1 2756   1.881   2.130   0.712  1.4426 -0.8330  1.7090
  919SOL    HW2 2757   2.016   2.176   0.797  1.0075  0.5474  0.6005
  920SOL     OW 2758   1.321   0.461   2.334  0.4057 -0.1330 -0.1191
  920SOL    HW1 2759   1.253   0.387   2.335  0.4830  1.5394 -0.8301
  920SOL    HW2 2760   1.297   0.537   2.395 -3.0730 -1.6664 -2.3340
  921SOL     OW 2761   0.203   0.563   2.672 -0.3380 -0.3080  0.2707
  921SOL    HW1 2762   0.256   0.646   2.641 -0.6160 -0.4542 -3.8329
  921SOL    HW2 2763   0.108   0.585   2.686  1.6496 -2.9511  1.9428
  922SOL     OW 2764   2.821   1.797   1.337 -0.1289 -0.3558 -0.5378
  922SOL    HW1 2765   2.909   1.840   1.297  1.2845  0.9189  0.3010
  922SOL    HW2 2766   2.769   1.869   1.391 -0.7784  3.1806 -0.3317
  923SOL     OW 2767   0.041   1.891   2.623 -0.0372  0.5819 -0.1911
  923SOL    HW1 2768   3.045   1.946   2.653  1.2329  0.0954 -2.9443
  923SOL    HW2 2769   0.134   1.939   2.638  1.9279 -1.2514  0.9816
  924SOL     OW 2770   1.647   0.518   1.988 -0.1601  0.1184 -0.3242
  924SOL    HW1 2771   1.571   0.456   2.029 -3.4264 -2.3006  1.9109
  924SOL    HW2 2772   1.676   0.588   2.056  0.8393  1.2204  1.6400
  925SOL     OW 2773   0.016   1.042   0.323  0.0285  0.3690 -0.5265
  925SOL    HW1 2774   3.020   0.986   0.296 -2.4806  0.2719 -0.7577
  925SOL    HW2 2775   3.065   1.104   0.398 -0.9293  3.4482  0.6990
  926SOL     OW 2776   2.476   0.175   1.107  0.5140  1.0220 -0.3252
  926SOL    HW1 2777   2.431   0.096   1.057  0.5636  0.7530 -0.5383
  926SOL    HW2 2778   2.421   0.203   1.187 -0.4002 -0.2314 -0.9863
  927SOL     OW 2779   1.331   0.817   0.900  0.0534  0.7163  0.7469
  927SOL    HW1 2780   1.295   0.850   0.811  0.1129  1.7946  1.1678
  927SOL    HW2 2781   1.274   0.736   0.928  3.4795 -3.0649  1.6598
  928SOL     OW 2782   2.951   0.378   2.041 -0.0698  0.5806 -0.2239
  928SOL    HW1 2783   2.921   0.336   2.131 -2.4052 -2.7314  2.0802
  928SOL    HW2 2784   3.047   0.414   2.044  1.6376 -1.5320 -1.5343
  929SOL     OW 2785   2.417   0.766   1.319 -0.2784 -0.4302  0.4412
  929SOL    HW1 2786   2.464   0.746   1.405 -1.1274  2.7266  0.0067
  929SOL    HW2 2787   2.438   0.854   1.271  0.2006 -1.6733  0.1220
  930SOL     OW 2788   2.037   2.430   1.034 -0.5737  0.3856 -0.4060
  930SOL    HW1 2789   1.938   2.439   1.012  0.9840 -0.5573 -0.0874
  930SOL    HW2 2790   2.056   2.482   1.123 -1.5147  1.3535  0.0743
  931SOL     OW 2791   1.977   0.768   1.129  0.7440  0.4261 -0.5171
  931SOL    HW1 2792   1.874   0.784   1.141 -0.7252  0.8332  1.5399
  931SOL    HW2 2793   2.028   0.853   1.162 -0.2757  0.8201  0.5783
  932SOL     OW 2794   0.088   0.930   1.328  0.1838 -0.5346  0.0259
  932SOL    HW1 2795   0.063   0.890   1.236  0.3494 -0.0452 -0.6044
  932SOL    HW2 2796   0.145   1.014   1.307 -1.6011  0.1060  0.0434
  933SOL     OW 2797   2.046   1.678   2.054  0.1723  0.0348 -0.1608
  933SOL    HW1 2798   2.045   1.578   2.038 -0.4850  0.4685  1.4843
  933SOL    HW2 2799   2.000   1.725   1.980 -1.0524 -1.0428  2.0483
  934SOL     OW 2800   1.399   2.755   1.398  0.3261  0.0456  0.1731
  934SOL    HW1 2801   1.459   2.710   1.331 -1.8025 -0.1687  0.0953
  934SOL    HW2 2802   1.420   2.853   1.393  2.4271 -1.7206 -0.5989
  935SOL     OW 2803   0.254   1.152   1.359 -0.4588 -0.6158  0.5046
  935SOL    HW1 2804   0.240   1.219   1.286  0.4473 -2.5374 -0.4924
  935SOL    HW2 2805   0.343   1.167   1.404 -0.6456 -2.3311 -0.2250
  936SOL     OW 2806   2.642   0.597   1.507 -0.4443 -0.0307  0.0796
  936SOL    HW1 2807   2.637   0.605   1.608  1.3539  1.4031  0.7959
  936SOL    HW2 2808   2.724   0.655   1.474 -1.4430  1.6601 -1.0897
  937SOL     OW 2809   0.857   0.221   1.424  0.2131 -0.0232  0.0389
  937SOL    HW1 2810   0.837   0.296   1.353  0.1950 -1.0316  3.3439
  937SOL    HW2 2811   0.843   0.256   1.518 -1.7512 -0.4412 -1.3216
  938SOL     OW 2812   0.302   2.330   0.679  0.5485 -0.0147  0.2846
  938SOL    HW1 2813   0.245   2.253   0.714  0.0008 -1.2830  1.5823
  938SOL    HW2 2814   0.404   2.305   0.682  1.0072 -1.3438 -0.0698
  939SOL     OW 2815   2.934   2.371   2.589 -0.5160  0.3137  0.1653
  939SOL    HW1 2816   2.963   2.365   2.491  0.7177 -1.1220 -1.6015
  939SOL    HW2 2817   2.928   2.467   2.618 -1.1458  0.8756 -0.2775
  940SOL     OW 2818   1.831   2.098   2.814 -0.3144  0.2567 -0.4868
  940SOL    HW1 2819   1.755   2.146   2.771  0.7653  1.2125  0.7622
  940SOL    HW2 2820   1.921   2.110   2.767  0.0556  0.9153 -0.6104
  941SOL     OW 2821   1.725   2.447   0.570 -0.4781 -0.5576  0.4199
  941SOL    HW1 2822   1.684   2.487   0.656  0.7406  2.3567  1.4722
  941SOL    HW2 2823   1.823   2.428   0.581  0.8985 -2.1604 -3.0781
  942SOL     OW 2824   1.646   1.806   1.128 -0.3180  0.1014  0.0653
  942SOL    HW1 2825   1.741   1.805   1.089 -0.8343 -0.5546 -2.3541
  942SOL    HW2 2826   1.588   1.868   1.071 -0.5893 -3.6760 -1.6904
  943SOL     OW 2827   1.977   0.679   1.986  0.2570 -0.0836 -0.4724
  943SOL    HW1 2828   1.935   0.720   1.902 -0.3179  0.2972 -0.2465
  943SOL    HW2 2829   2.050   0.613   1.954 -0.4392  1.0046 -0.8513
  944SOL     OW 2830   1.810   0.891   1.833  0.4179 -0.2717  0.5235
  944SOL    HW1 2831   1.712   0.891   1.863  1.3542  0.8263 -0.7831
  944SOL    HW2 2832   1.822   0.809   1.769  2.1209 -1.2960 -2.2053
  945SOL     OW 2833   2.836   2.576   1.259  0.3745 -0.1392  0.4745
  945SOL    HW1 2834   2.745   2.596   1.230 -0.3348  1.2345 -0.3562
  945SOL    HW2 2835   2.904   2.642   1.222  1.7189  2.0589 -2.3129
  946SOL     OW 2836   0.495   1.450   1.283  0.4395  0.2148 -0.0597
  946SOL    HW1 2837   0.404   1.409   1.256  0.3314  0.1832 -0.7957
  946SOL    HW2 2838   0.479   1.543   1.316 -0.9108  0.3700 -0.8871
  947SOL     OW 2839   0.708   2.615   0.782  0.7423  0.0820  0.1374
  947SOL    HW1 2840   0.755   2.696   0.817 -0.5660 -1.6257 -4.0416
  947SOL    HW2 2841   0.608   2.633   0.762  1.2903  2.6750 -0.9099
  948SOL     OW 2842   0.208   1.507   1.612 -0.1885  0.2537  0.5599
  948SOL    HW1 2843   0.159   1.433   1.667  0.0258 -0.6624  2.1272
  948SOL    HW2 2844   0.266   1.565   1.672  1.6549 -0.0145 -0.7390
  949SOL     OW 2845   0.544   0.929   2.210 -0.2585 -0.0973  0.0264
  949SOL    HW1 2846   0.634   0.942   2.162  2.8578  1.4498 -1.6304
  949SOL    HW2 2847   0.461   0.914   2.151 -1.0170 -2.3767 -0.1698
  950SOL     OW 2848   0.172   0.382   1.201  0.2874 -0.2203  0.2377
  950SOL    HW1 2849   0.230   0.456   1.154 -2.0520 -1.5463 -1.9170
  950SOL    HW2 2850   0.155   0.299   1.145 -3.8924  1.3062 -1.8374
  951SOL     OW 2851   1.121   1.778   2.029  0.5986  0.3132 -0.3809
  951SOL    HW1 2852   1.114   1.675   2.038 -0.6775 -0.8941  1.9351
  951SOL    HW2 2853   1.038   1.825   2.068 -0.8036 -0.1011 -1.0164
  952SOL     OW 2854   1.230   1.481   0.257  0.1525  0.5264 -0.5935
  952SOL    HW1 2855   1.218   1.431   0.347 -1.3093  1.0036 -1.0964
  952SOL    HW2 2856   1.322   1.473   0.217 -3.5206  0.7400  0.7722
  953SOL     OW 2857   0.953   3.030   2.565 -0.1271 -0.3094  0.6013
  953SOL    HW1 2858   0.870   3.030   2.628 -1.1326  1.6965  2.5067
  953SOL    HW2 2859   1.001   2.940   2.559  3.6319 -3.2001  2.1761
  954SOL     OW 2860   2.159   1.411   0.222  0.6689  0.0245 -0.7945
  954SOL    HW1 2861   2.058   1.394   0.204  1.8842 -1.0847  0.1897
  954SOL    HW2 2862   2.177   1.367   0.313  0.5788 -0.0041 -1.6361
  955SOL     OW 2863   0.340   2.480   2.889 -0.3340  0.3873 -0.0254
  955SOL    HW1 2864   0.410   2.469   2.817  0.9792 -0.7803 -2.1284
  955SOL    HW2 2865   0.377   2.426   2.970  1.0428  0.6766  0.2343
  956SOL     OW 2866   1.356   0.998   1.662  0.5545 -0.1567  0.3321
  956SOL    HW1 2867   1.255   0.980   1.685 -2.9198 -2.9201 -2.6255
  956SOL    HW2 2868   1.377   0.983   1.563  0.1462 -1.7851 -0.9385
  957SOL     OW 2869   1.927   1.819   1.864  0.4810  0.3800  0.1965
  957SOL    HW1 2870   1.912   1.917   1.881  0.6536  0.0759 -0.3635
  957SOL    HW2 2871   1.854   1.790   1.801  0.3740  0.4726  1.3266
  958SOL     OW 2872   1.375   2.169   1.573  0.0094 -0.0268 -0.1368
  958SOL    HW1 2873   1.325   2.261   1.565 -0.4461 -1.0336 -1.2596
  958SOL    HW2 2874   1.464   2.182   1.618 -1.6021 -1.4786  0.2637
  959SOL     OW 2875   1.310   1.479   1.354 -0.4407  0.3134 -0.5647
  959SOL    HW1 2876   1.405   1.515   1.347  1.1028 -1.1134  2.5434
  959SOL    HW2 2877   1.295   1.406   1.423 -0.1048 -3.0599 -2.0580
  960SOL     OW 2878   0.235   1.504   3.013 -0.5328 -0.1688  0.2570
  960SOL    HW1 2879   0.308   1.480   3.078  3.7373 -0.3188  0.7392
  960SOL    HW2 2880   0.256   1.472   2.920 -2.5577 -1.7958 -0.5804
  961SOL     OW 2881   0.382   1.277   2.191 -0.2210 -0.2465  0.5223
  961SOL    HW1 2882   0.362   1.254   2.289  1.5425  0.4324 -1.2946
  961SOL    HW2 2883   0.482   1.278   2.167  1.7915  0.0910 -2.4712
  962SOL     OW 2884   1.280   1.572   0.774  0.3479 -0.6720  0.4838
  962SOL    HW1 2885   1.345   1.589   0.699  1.5011 -0.4279 -2.6179
  962SOL    HW2 2886   1.313   1.608   0.862  0.9608  1.2887  0.4790
  963SOL     OW 2887   1.269   2.275   2.526 -0.0920  0.3071  0.4968
  963SOL    HW1 2888   1.188   2.278   2.457  0.9551 -0.8943  0.5465
  963SOL    HW2 2889   1.245   2.204   2.596  2.1064  1.6488 -0.0783
  964SOL     OW 2890   0.823   0.001   0.219 -0.4487  0.0402  0.5038
  964SOL    HW1 2891   0.803   0.022   0.315  1.1495 -2.3253  2.0870
  964SOL    HW2 2892   0.741   0.019   0.159  0.1211  1.0790  0.7269
  965SOL     OW 2893   0.532   3.010   0.970  0.4740  0.2739 -0.0188
  965SOL    HW1 2894   0.627   3.051   0.972  2.8471  1.2738  1.8698
  965SOL    HW2 2895   0.478   3.034   1.051 -0.4025  1.8821  0.0131
  966SOL     OW 2896   0.402   1.708   2.889  0.1867  0.2949  0.2590
  966SOL    HW1 2897   0.451   1.730   2.978 -0.3997  0.1912 -0.0197
  966SOL    HW2 2898   0.308   1.670   2.909 -0.1634  4.1101 -2.7419
  967SOL     OW 2899   0.768   2.801   2.398  0.4821  0.0544  0.6616
  967SOL    HW1 2900   0.767   2.832   2.494  2.7033 -1.5617 -0.6458
  967SOL    HW2 2901   0.791   2.874   2.333  0.4767  0.8620  0.9983
  968SOL     OW 2902   2.383   0.376   0.223 -0.4957  0.2014  0.1520
  968SOL    HW1 2903   2.287   0.374   0.262 -0.9804  1.1749 -0.2762
  968SOL    HW2 2904   2.379   0.406   0.129 -0.1795 -3.0986 -1.5022
  969SOL     OW 2905   2.931   1.897   2.027 -0.2622 -0.3828  0.4602
  969SOL    HW1 2906   2.975   1.822   1.971 -1.6692 -1.3945  0.5077
  969SOL    HW2 2907   2.835   1.879   2.059  1.7066  0.5680  1.6365
  970SOL     OW 2908   2.103   1.384   1.274  0.3326 -0.4250  0.6984
  970SOL    HW1 2909   2.164   1.425   1.207 -3.3899 -1.5139 -1.3938
  970SOL    HW2 2910   2.140   1.291   1.295  1.0374  4.8576  1.6493
  971SOL     OW 2911   1.871   0.099   1.152  0.1173  0.2133  0.1982
  971SOL    HW1 2912   1.874   0.157   1.065 -1.6830  0.1085  1.7467
  971SOL    HW2 2913   1.916   0.010   1.136  0.6124  0.7876 -0.7156
  972SOL     OW 2914   0.279   3.059   1.682 -0.0408 -0.8109 -0.3215
  972SOL    HW1 2915   0.193   0.019   1.706  0.1871 -0.2138  0.1816
  972SOL    HW2 2916   0.261   2.958   1.656  0.9982 -0.8158 -0.8604
  973SOL     OW 2917   2.560   0.858   0.209  0.0601  0.5073  0.0392
  973SOL    HW1 2918   2.601   0.881   0.119 -0.5700 -0.3710 -1.0384
  973SOL    HW2 2919   2.567   0.928   0.278 -1.6922 -0.9577 -1.2284
  974SOL     OW 2920   1.875   1.363   2.326  0.2515  0.1980  0.1294
  974SOL    HW1 2921   1.926   1.447   2.349 -4.1390  1.2102 -3.1902
  974SOL    HW2 2922   1.943   1.293   2.300 -1.3441  2.0958 -0.9411
  975SOL     OW 2923   0.223   2.810   1.639 -0.4493  0.2764 -0.0142
  975SOL    HW1 2924   0.214   2.840   1.544 -0.0825 -1.5342  3.6954
  975SOL    HW2 2925   0.128   2.778   1.666 -2.1138  0.7648  1.8110
  976SOL     OW 2926   0.275   1.781   2.026  0.3927 -0.0367 -0.3623
  976SOL    HW1 2927   0.319   1.871   2.010 -0.9792  0.5532 -2.8821
  976SOL    HW2 2928   0.180   1.801   2.060  0.1414  3.5440  0.6689
  977SOL     OW 2929   0.986   2.772   0.195 -0.2549  0.0453 -0.0072
  977SOL    HW1 2930   1.080   2.756   0.234  4.3520  2.0906 -0.2207
  977SOL    HW2 2931   0.978   2.870   0.167 -0.7248 -0.4641 -1.1404
  978SOL     OW 2932   0.223   1.986   2.885  0.2866  0.4641  0.1365
  978SOL    HW1 2933   0.297   1.976   2.954  0.1959 -1.3667 -0.5535
  978SOL    HW2 2934   0.261   1.952   2.797 -0.3477 -2.9882 -0.0456
  979SOL     OW 2935   1.603   2.391   1.090 -0.4163 -0.2871  0.1295
  979SOL    HW1 2936   1.677   2.460   1.064  2.4038  1.3951 -0.6700
  979SOL    HW2 2937   1.636   2.296   1.073 -2.4002  1.3278  0.5526
  980SOL     OW 2938   1.058   1.593   2.727 -0.4283  0.2489 -0.5887
  980SOL    HW1 2939   1.028   1.528   2.800  0.0682  1.3043  1.1725
  980SOL    HW2 2940   1.042   1.573   2.627  0.7544 -0.1660  2.8828
  981SOL     OW 2941   2.497   3.059   2.326  0.3974 -0.4001 -0.7173
  981SOL    HW1 2942   2.542   0.058   2.289  1.2111  0.0293  3.6536
  981SOL    HW2 2943   2.466   3.078   2.422 -0.5437  0.9472  0.2710
  982SOL     OW 2944   0.056   2.957   2.453  0.2529  0.0635  0.3069
  982SOL    HW1 2945   0.048   3.049   2.404 -0.9761  1.9507 -0.1329
  982SOL    HW2 2946   3.067   2.887   2.421 -1.5371  0.6194 -0.7335
  983SOL     OW 2947   2.106   1.265   1.730  0.5150 -0.0390 -0.0358
  983SOL    HW1 2948   2.203   1.286   1.701  1.3892 -1.2885  1.2709
  983SOL    HW2 2949   2.041   1.320   1.682  0.7386  1.4392 -0.7687
  984SOL     OW 2950   1.400   0.651   1.873  0.2892  0.0702 -0.8549
  984SOL    HW1 2951   1.308   0.659   1.916 -0.1570  0.6126  1.6040
  984SOL    HW2 2952   1.461   0.584   1.920  2.0103  1.0776  0.6270
  985SOL     OW 2953   1.635   1.625   1.976 -0.1690  0.1539 -0.0179
  985SOL    HW1 2954   1.539   1.596   1.984 -1.8276  0.1079  0.5569
  985SOL    HW2 2955   1.638   1.723   1.955  1.6331 -4.5489  2.3300
  986SOL     OW 2956   1.900   0.377   1.965 -0.9123 -0.3954 -0.1108
  986SOL    HW1 2957   1.976   0.432   1.920  0.4054  0.0436 -1.1486
  986SOL    HW2 2958   1.810   0.428   1.963 -0.8131 -1.4182  0.3157
  987SOL     OW 2959   2.152   0.492   1.916 -0.3790 -0.4034 -0.4040
  987SOL    HW1 2960   2.193   0.450   1.998 -2.5321 -2.0654  1.1105
  987SOL    HW2 2961   2.225   0.512   1.842  1.1970  1.7742 -1.5379
  988SOL     OW 2962   2.507   0.740   2.295  0.5193  0.4233 -0.5966
  988SOL    HW1 2963   2.596   0.695   2.274  0.5157  1.1201 -1.4032
  988SOL    HW2 2964   2.520   0.838   2.317 -0.3092 -0.2600  0.6352
  989SOL     OW 2965   2.051   2.426   2.721 -0.4827 -0.0260  0.6303
  989SOL    HW1 2966   2.136   2.383   2.683  0.6329  1.1702 -0.4729
  989SOL    HW2 2967   2.034   2.392   2.815 -0.0996 -1.0251  0.2890
  990SOL     OW 2968   0.971   0.538   2.545 -0.2594 -0.1944  0.5303
  990SOL    HW1 2969   0.914   0.457   2.543  2.0270 -1.2654  0.7636
  990SOL    HW2 2970   0.933   0.605   2.613  0.6079 -1.3729 -2.8922
  991SOL     OW 2971   1.249   0.711   0.231  0.1407  0.0641  0.5918
  991SOL    HW1 2972   1.234   0.806   0.215 -2.7656 -1.9716  0.3660
  991SOL    HW2 2973   1.259   0.664   0.141  0.9085 -0.7151 -0.2562
  992SOL     OW 2974   2.489   2.370   2.632  0.0088  0.1218 -0.1527
  992SOL    HW1 2975   2.466   2.471   2.625 -0.9058 -0.2787 -3.2061
  992SOL    HW2 2976   2.405   2.318   2.615  0.1984  0.3429  1.4358
  993SOL     OW 2977   0.370   0.253   0.205  0.6684  0.4966  0.2081
  993SOL    HW1 2978   0.403   0.343   0.231 -2.7490 -0.8096 -0.4447
  993SOL    HW2 2979   0.300   0.215   0.268 -0.5288 -0.3739 -1.3408
  994SOL     OW 2980   0.183   2.098   1.729 -0.0596  0.9485 -0.0739
  994SOL    HW1 2981   0.093   2.079   1.770 -1.6139  1.1713 -2.0707
  994SOL    HW2 2982   0.223   2.185   1.752  0.0062 -3.1168 -2.1142
  995SOL     OW 2983   1.919   1.613   2.815 -0.0211 -0.6760 -0.0973
  995SOL    HW1 2984   1.836   1.602   2.765  1.6878 -0.2838  0.2931
  995SOL    HW2 2985   1.959   1.525   2.834 -1.8737  4.3059 -0.9379
  996SOL     OW 2986   1.550   1.778   2.789  0.2168 -0.3845 -0.1979
  996SOL    HW1 2987   1.606   1.777   2.708 -0.6882 -1.0556 -0.0109
  996SOL    HW2 2988   1.460   1.744   2.757 -0.8897 -2.2500  0.9798
  997SOL     OW 2989   1.897   1.200   1.036 -0.5377  0.4021  0.0419
  997SOL    HW1 2990   1.994   1.170   1.019  0.4909  0.2941 -2.6671
  997SOL    HW2 2991   1.884   1.294   1.020  4.5940 -2.7195 -0.7385
  998SOL     OW 2992   2.585   1.420   0.059 -0.1329 -0.1786  0.1431
  998SOL    HW1 2993   2.577   1.325   0.100 -1.5672  0.3942 -0.4615
  998SOL    HW2 2994   2.668   1.470   0.087  0.6972 -1.4560 -0.2158
  999SOL     OW 2995   2.944   2.401   0.374  0.0352  0.2526 -0.4301
  999SOL    HW1 2996   2.896   2.451   0.447 -0.5990  0.9050 -0.6267
  999SOL    HW2 2997   2.915   2.431   0.283  0.6252  0.3730  0.2725
 1000SOL     OW 2998   0.745   2.964   1.892 -0.2048 -0.3229  0.4530
 1000SOL    HW1 2999   0.654   2.966   1.842 -0.5158  1.0649  0.7969
 1000SOL    HW2 3000   0.816   3.023   1.843  0.5233  2.9047 -0.5273
   3.08363   3.08363   3.08363
