1000 SPC/Fw water molecules t= 322.00000 step= 322000
 3000
    1SOL     OW    1   2.535   0.041   1.089 -0.4019  0.1694  0.1671
    1SOL    HW1    2   2.486   3.069   1.115 -1.5045 -1.0657  0.7964
    1SOL    HW2    3   2.634   0.021   1.065  0.5740  1.6255  1.5800
    2SOL     OW    4   2.654   2.390   0.905  0.1847  0.4087  0.1580
    2SOL    HW1    5   2.635   2.342   0.995  0.2746 -0.3168  0.5015
    2SOL    HW2    6   2.713   2.338   0.840 -0.9375  0.4703 -1.6856
    3SOL     OW    7   0.879   2.929   2.846  0.3004  0.0340  0.0867
    3SOL    HW1    8   0.906   2.893   2.935 -0.7617  2.1010 -2.0481
    3SOL    HW2    9   0.837   3.018   2.866  0.0769 -0.2470  1.4046
    4SOL     OW   10   1.967   2.445   2.138 -0.0629 -0.0202  0.6529
    4SOL    HW1   11   2.026   2.500   2.071 -1.7679  0.9639 -1.6258
    4SOL    HW2   12   1.982   2.349   2.124 -1.1809  5.0903  0.7811
    5SOL     OW   13   1.893   0.863   1.594 -0.9108 -0.3035 -0.0163
    5SOL    HW1   14   1.869   0.841   1.502  2.6478 -2.1996  4.4372
    5SOL    HW2   15   1.894   0.964   1.607  0.4900 -1.3489  0.6797
    6SOL     OW   16   2.164   2.710   0.839 -0.2804  0.0780 -0.1075
    6SOL    HW1   17   2.157   2.614   0.804 -0.8871  0.6310  2.6068
    6SOL    HW2   18   2.095   2.728   0.916 -1.9073  1.4710 -0.4956
    7SOL     OW   19   2.390   1.455   1.156  0.7856  0.7579 -0.7111
    7SOL    HW1   20   2.475   1.434   1.203 -0.1480 -0.0880  0.6652
    7SOL    HW2   21   2.356   1.369   1.124  3.3265  1.2010  0.7423
    8SOL     OW   22   1.095   1.887   1.391 -0.0560  0.2673 -0.2285
    8SOL    HW1   23   1.001   1.851   1.375 -1.4786  0.1609 -0.5167
    8SOL    HW2   24   1.089   1.987   1.374 -0.9652 -1.4865  1.5848
    9SOL     OW   25   1.256   2.549   2.347 -0.1431 -0.8250  0.1757
    9SOL    HW1   26   1.179   2.601   2.387  0.7631  0.1826 -1.8438
    9SOL    HW2   27   1.315   2.606   2.289 -0.7410 -0.8520  0.1588
   10SOL     OW   28   0.491   1.928   0.981 -0.4501  0.7577 -0.0752
   10SOL    HW1   29   0.524   1.835   1.002 -0.8778 -0.0971  0.3759
   10SOL    HW2   30   0.499   1.985   1.067 -0.5615  1.2955  0.4907
   11SOL     OW   31   1.899   1.630   1.079  0.1541 -0.4110  0.2756
   11SOL    HW1   32   1.957   1.550   1.056  0.9382 -1.0806  0.0376
   11SOL    HW2   33   1.862   1.624   1.173 -1.4114  1.3942  0.0294
   12SOL     OW   34   2.575   2.695   2.024 -0.4637  0.4052 -0.0643
   12SOL    HW1   35   2.605   2.601   2.042 -0.0795  1.5147 -0.0409
   12SOL    HW2   36   2.656   2.757   2.035  2.4006  0.9509 -0.5195
   13SOL     OW   37   2.462   2.928   0.454 -0.1929 -0.3511  0.5318
   13SOL    HW1   38   2.384   2.879   0.503  1.5254 -0.7727  0.4933
   13SOL    HW2   39   2.525   2.980   0.512  0.7436 -1.2180 -0.6502
   14SOL     OW   40   1.570   2.310   0.277 -0.3282  0.1817  0.3965
   14SOL    HW1   41   1.533   2.259   0.359  1.0014 -0.9817 -0.3651
   14SOL    HW2   42   1.647   2.262   0.234 -2.6077 -0.0620  0.0665
   15SOL     OW   43   0.016   2.456   1.537 -0.6126 -0.5642  0.0907
   15SOL    HW1   44   3.054   2.444   1.601  0.7452  1.7004  2.0072
   15SOL    HW2   45   0.091   2.504   1.578 -1.4308 -1.1316 -1.8823
   16SOL     OW   46   2.365   3.095   0.257  0.2288  0.0863 -0.3314
   16SOL    HW1   47   2.390   3.020   0.322  0.6456 -2.7237 -0.9050
   16SOL    HW2   48   2.445   3.099   0.193 -1.0465 -1.2250 -1.3082
   17SOL     OW   49   0.334   0.402   1.305 -0.4180  0.1239 -0.1369
   17SOL    HW1   50   0.398   0.464   1.358 -0.2785  1.1077  1.0608
   17SOL    HW2   51   0.338   0.308   1.348  2.4496 -1.0002  2.7175
   18SOL     OW   52   2.140   0.921   0.328  0.4458  0.0987  0.0555
   18SOL    HW1   53   2.110   0.881   0.240 -0.4647  0.4022 -1.8880
   18SOL    HW2   54   2.137   0.856   0.408  0.9507 -1.2929  2.0018
   19SOL     OW   55   1.617   1.874   0.581 -0.6905  0.0497 -0.5283
   19SOL    HW1   56   1.638   1.810   0.653 -1.4347  0.2521 -2.1328
   19SOL    HW2   57   1.702   1.923   0.553  1.4245 -0.9914 -0.4986
   20SOL     OW   58   2.416   2.103   2.229  0.4504 -0.3779  0.0866
   20SOL    HW1   59   2.421   2.130   2.327  1.4934  2.4400 -0.7950
   20SOL    HW2   60   2.470   2.167   2.169 -0.9807 -0.4797 -0.8574
   21SOL     OW   61   1.582   0.387   0.713  0.4580  0.8335 -0.7192
   21SOL    HW1   62   1.606   0.328   0.792  0.9823 -2.9924  3.0398
   21SOL    HW2   63   1.479   0.408   0.717 -1.1688 -0.2085  0.7494
   22SOL     OW   64   2.502   3.089   1.763 -0.4275  0.0658 -0.0137
   22SOL    HW1   65   2.471   0.037   1.688 -1.3373 -3.2383  0.1368
   22SOL    HW2   66   2.441   3.011   1.776  1.2826  1.4692 -3.2384
   23SOL     OW   67   0.007   0.479   2.011 -0.2294  0.4250  0.2252
   23SOL    HW1   68   3.094   0.401   2.067 -0.7685  0.1154 -0.8552
   23SOL    HW2   69   3.056   0.556   2.023 -1.5311 -0.1065 -1.8312
   24SOL     OW   70   2.621   2.779   0.292  0.1382  0.2192 -0.2760
   24SOL    HW1   71   2.665   2.705   0.352  1.7833 -1.7372 -0.7141
   24SOL    HW2   72   2.573   2.846   0.353  2.8255  1.1913  1.8965
   25SOL     OW   73   1.359   3.111   2.510 -0.0141 -0.3878  0.4009
   25SOL    HW1   74   1.362   3.013   2.482  1.7735 -0.1252  1.4820
   25SOL    HW2   75   1.453   0.031   2.523 -0.7608  1.8535  2.6103
   26SOL     OW   76   1.399   2.491   0.524  0.0345 -0.1632 -0.2627
   26SOL    HW1   77   1.422   2.402   0.475  2.2452  1.1630  0.2529
   26SOL    HW2   78   1.373   2.571   0.462 -1.2397  1.0500 -2.4564
   27SOL     OW   79   2.448   1.301   2.898  0.2530  0.6916  0.0177
   27SOL    HW1   80   2.457   1.394   2.943  0.5532 -0.0038 -0.6384
   27SOL    HW2   81   2.537   1.258   2.883 -3.7797 -1.2001  0.5462
   28SOL     OW   82   1.293   1.400   1.267  0.2148  0.6963 -0.5780
   28SOL    HW1   83   1.307   1.311   1.318 -1.5281 -0.0629  0.1967
   28SOL    HW2   84   1.195   1.432   1.286  0.0263 -2.1198 -3.0938
   29SOL     OW   85   2.874   2.395   1.752 -0.2965 -0.4280 -0.3170
   29SOL    HW1   86   2.853   2.489   1.777 -1.3293 -0.0272 -0.4274
   29SOL    HW2   87   2.912   2.344   1.833 -1.4066  1.1985  0.6794
   30SOL     OW   88   1.252   0.332   1.104 -0.3483  0.5116 -0.1863
   30SOL    HW1   89   1.208   0.318   1.012  1.7180  2.5467 -0.2118
   30SOL    HW2   90   1.346   0.368   1.091 -0.1714  0.1547 -0.6762
   31SOL     OW   91   2.165   2.825   2.025  0.4537 -0.5714 -0.5726
   31SOL    HW1   92   2.074   2.874   2.023  0.6730 -0.4803 -3.3728
   31SOL    HW2   93   2.164   2.740   1.975 -1.1881  0.3288 -2.3943
   32SOL     OW   94   0.980   1.749   0.423 -0.0193  0.5479  0.2755
   32SOL    HW1   95   1.047   1.686   0.374  1.8297  0.9371 -2.2077
   32SOL    HW2   96   0.989   1.740   0.523 -0.6458 -2.7959  0.1508
   33SOL     OW   97   0.349   0.758   2.339 -0.5836 -0.0663 -0.1531
   33SOL    HW1   98   0.286   0.776   2.418  0.8074  0.7181 -0.3024
   33SOL    HW2   99   0.417   0.693   2.373 -3.4644  0.4206  0.8996
   34SOL     OW  100   2.089   2.945   0.531 -0.2406  0.0685  0.4567
   34SOL    HW1  101   2.114   2.969   0.626  0.7586  0.3550 -3.2698
   34SOL    HW2  102   2.103   3.030   0.475  1.0180 -1.7957  1.0435
   35SOL     OW  103   2.057   2.610   1.620 -0.1137  0.0416  0.1393
   35SOL    HW1  104   1.997   2.693   1.630 -2.6138  0.6456  1.6612
   35SOL    HW2  105   2.017   2.525   1.659 -1.0500  0.2370 -0.4050
   36SOL     OW  106   1.802   2.445   0.026  0.0082  0.1277 -0.6538
   36SOL    HW1  107   1.745   2.414   3.062 -0.0777 -1.4712 -0.2291
   36SOL    HW2  108   1.826   2.363   0.083 -2.2222 -2.3803 -2.1559
   37SOL     OW  109   1.209   0.639   2.180  0.0610  0.2940  0.0560
   37SOL    HW1  110   1.156   0.706   2.230  1.4603 -0.5760  0.5236
   37SOL    HW2  111   1.217   0.555   2.237 -1.4976 -3.4153 -1.2679
   38SOL     OW  112   0.156   0.301   2.589  0.0258 -0.1372  0.2198
   38SOL    HW1  113   0.197   0.365   2.522  1.0489 -0.7880 -0.5403
   38SOL    HW2  114   0.192   0.204   2.581  0.8599  1.5536 -0.4704
   39SOL     OW  115   2.658   1.317   1.792 -0.0929  0.5278  0.0878
   39SOL    HW1  116   2.736   1.333   1.856 -1.5726  0.4440 -0.1205
   39SOL    HW2  117   2.657   1.400   1.732 -0.9126  1.0639  1.2884
   40SOL     OW  118   1.310   3.030   0.470  0.3919  0.2311  0.3812
   40SOL    HW1  119   1.291   3.082   0.556  0.9035  0.2853 -2.7897
   40SOL    HW2  120   1.268   2.940   0.467 -0.5095  0.8631  0.0061
   41SOL     OW  121   2.425   1.375   0.821 -0.0455 -0.4623  0.8584
   41SOL    HW1  122   2.340   1.372   0.877  2.2154 -0.8285 -1.4650
   41SOL    HW2  123   2.433   1.458   0.771 -1.3204 -1.4056  0.1680
   42SOL     OW  124   0.680   0.427   1.362 -0.3045 -0.9198 -0.4907
   42SOL    HW1  125   0.614   0.483   1.409  1.5770  0.3797 -1.3052
   42SOL    HW2  126   0.670   0.331   1.375  1.5418  0.4241  0.7452
   43SOL     OW  127   0.076   1.677   2.577  0.8960 -0.4595  0.2093
   43SOL    HW1  128   0.013   1.699   2.654 -1.2288  2.9129  1.9782
   43SOL    HW2  129   0.122   1.589   2.599 -0.0577  1.0210 -0.6004
   44SOL     OW  130   2.294   2.911   1.802 -0.0090 -0.4305 -0.0674
   44SOL    HW1  131   2.239   2.897   1.885 -0.9274 -1.5109 -2.0182
   44SOL    HW2  132   2.239   2.954   1.731  0.0424  0.6669  1.8947
   45SOL     OW  133   1.335   0.237   2.348  0.3092 -0.3329 -0.0490
   45SOL    HW1  134   1.332   0.210   2.248  2.9992 -2.4491 -3.1535
   45SOL    HW2  135   1.341   0.154   2.414  1.4724 -1.1231  0.4214
   46SOL     OW  136   1.090   2.838   2.712 -0.2829  0.1418  0.7545
   46SOL    HW1  137   1.016   2.892   2.761  0.1236 -1.1501  0.1534
   46SOL    HW2  138   1.117   2.749   2.761  2.2107 -1.4007  2.6588
   47SOL     OW  139   1.886   1.518   0.587 -0.5401  0.2812  0.4999
   47SOL    HW1  140   1.916   1.600   0.634 -1.0012  1.7363 -0.8778
   47SOL    HW2  141   1.961   1.447   0.594  0.5589 -2.8494 -2.4164
   48SOL     OW  142   1.080   2.214   0.677 -0.3988  0.8305 -0.1300
   48SOL    HW1  143   1.091   2.225   0.574  2.4144 -0.0990  1.2669
   48SOL    HW2  144   1.019   2.130   0.686  0.0314 -0.8609  2.6943
   49SOL     OW  145   1.998   3.036   2.876 -0.1022 -0.7178 -0.4264
   49SOL    HW1  146   1.993   2.990   2.786 -1.6967 -0.1938  1.9836
   49SOL    HW2  147   2.092   3.065   2.910 -0.5021  0.5630  1.4529
   50SOL     OW  148   1.648   2.974   0.136  0.1437 -0.4510  0.1677
   50SOL    HW1  149   1.752   2.976   0.129  3.4977 -1.3023 -0.2495
   50SOL    HW2  150   1.624   3.029   0.217 -1.4805  2.0965 -4.3729
   51SOL     OW  151   2.138   0.609   1.368  0.5055  0.6670 -0.4377
   51SOL    HW1  152   2.217   0.549   1.384 -1.7098  5.5700 -1.1340
   51SOL    HW2  153   2.161   0.702   1.343  1.4222 -2.3909  0.1547
   52SOL     OW  154   1.133   1.552   0.917 -0.3389 -0.4113 -0.0156
   52SOL    HW1  155   1.214   1.501   0.954 -0.6193 -1.9657 -0.3144
   52SOL    HW2  156   1.112   1.636   0.963 -0.8790 -4.8254  0.2252
   53SOL     OW  157   0.578   1.644   2.458 -0.3192 -0.2560 -0.1486
   53SOL    HW1  158   0.506   1.608   2.521  4.7428  1.3610 -2.7069
   53SOL    HW2  159   0.647   1.571   2.432  1.1105  1.0574  0.4923
   54SOL     OW  160   2.996   1.185   1.840 -0.3859  0.1041  0.0694
   54SOL    HW1  161   3.011   1.086   1.861 -2.0283 -2.1055  2.8975
   54SOL    HW2  162   2.923   1.219   1.901 -0.3698 -2.2930 -0.5922
   55SOL     OW  163   2.676   1.764   0.549  0.3779 -0.7585 -0.4583
   55SOL    HW1  164   2.745   1.746   0.617 -1.1884 -0.0157  2.4448
   55SOL    HW2  165   2.701   1.853   0.507 -0.8237  0.5032  2.4828
   56SOL     OW  166   1.471   0.134   1.739 -1.0659 -0.6177  0.1628
   56SOL    HW1  167   1.479   0.049   1.792  0.6580  0.7540 -4.3299
   56SOL    HW2  168   1.432   0.207   1.795  2.5059 -2.0263 -0.5384
   57SOL     OW  169   1.283   1.557   2.775 -0.4927 -0.2230 -0.0412
   57SOL    HW1  170   1.354   1.523   2.709 -1.7564  1.4574  0.7732
   57SOL    HW2  171   1.323   1.619   2.846  0.0734 -0.7019  0.3968
   58SOL     OW  172   0.091   0.688   1.662 -0.2043 -0.3427 -0.7712
   58SOL    HW1  173   0.168   0.691   1.729  2.8935  0.9677  0.0049
   58SOL    HW2  174   0.058   0.780   1.634  0.1755 -0.9092 -0.9598
   59SOL     OW  175   1.768   2.816   0.372  0.3799 -0.0046  0.3009
   59SOL    HW1  176   1.733   2.725   0.336 -4.0418  0.6633 -0.9149
   59SOL    HW2  177   1.810   2.874   0.302  1.1225  0.3868  0.9460
   60SOL     OW  178   2.880   1.761   3.104 -0.5519  0.4411  0.1435
   60SOL    HW1  179   2.848   1.809   0.072  1.0300  2.5405 -0.5955
   60SOL    HW2  180   2.975   1.785   3.078 -0.2692  1.0190  1.6562
   61SOL     OW  181   0.888   2.643   0.785 -0.3823 -0.3623 -0.1681
   61SOL    HW1  182   0.822   2.690   0.841  4.5884  1.7579  1.3384
   61SOL    HW2  183   0.848   2.606   0.704  1.0543 -0.0871  1.9678
   62SOL     OW  184   1.971   1.655   2.667  0.3613  0.6367  0.1027
   62SOL    HW1  185   1.965   1.686   2.568 -1.2252  1.9195 -0.6149
   62SOL    HW2  186   1.951   1.733   2.731  0.1277  0.5583 -2.0775
   63SOL     OW  187   2.233   2.251   0.714  0.0389  0.2861 -0.7886
   63SOL    HW1  188   2.315   2.250   0.648 -0.1284  0.3362  0.4735
   63SOL    HW2  189   2.185   2.163   0.699 -0.2085  1.4255 -1.3519
   64SOL     OW  190   1.591   1.235   2.934 -0.4827  0.3871 -0.1227
   64SOL    HW1  191   1.548   1.228   2.844  1.9893  3.0781  1.8808
   64SOL    HW2  192   1.693   1.260   2.933  1.4447  2.1847  0.6479
   65SOL     OW  193   2.029   1.736   2.371  0.2522 -0.0860  0.1326
   65SOL    HW1  194   2.123   1.763   2.399  0.7586 -1.7868  1.0853
   65SOL    HW2  195   1.973   1.817   2.348 -0.7099 -0.1795  1.1128
   66SOL     OW  196   0.279   1.002   1.389  0.2249 -0.1293  0.2986
   66SOL    HW1  197   0.321   1.042   1.307  0.5238  3.8999  1.4095
   66SOL    HW2  198   0.248   1.068   1.459 -0.6277 -0.7991 -0.4919
   67SOL     OW  199   2.328   2.734   2.779 -0.2119 -0.3072  0.1319
   67SOL    HW1  200   2.285   2.661   2.720  3.2111 -3.3252 -0.1517
   67SOL    HW2  201   2.363   2.814   2.728 -0.1917  0.4542  1.6842
   68SOL     OW  202   1.211   2.548   1.214  0.0385  0.1072  0.0690
   68SOL    HW1  203   1.161   2.632   1.237  1.2921  1.0957 -2.1003
   68SOL    HW2  204   1.190   2.514   1.121 -1.6302  1.5229  2.0639
   69SOL     OW  205   0.692   2.702   3.067  0.9490 -0.1893  0.5673
   69SOL    HW1  206   0.746   2.781   3.111  1.8130 -0.1238  0.4436
   69SOL    HW2  207   0.762   2.631   3.036 -0.0477  0.9602  0.4255
   70SOL     OW  208   2.809   0.259   2.334  0.3973  0.0319 -0.3900
   70SOL    HW1  209   2.815   0.161   2.367 -2.4719  0.2098  0.8982
   70SOL    HW2  210   2.887   0.316   2.373  0.6089 -0.6551 -0.5669
   71SOL     OW  211   0.372   1.497   2.610  0.9750 -0.0426 -0.3249
   71SOL    HW1  212   0.292   1.483   2.667  1.3909 -0.6438 -1.0249
   71SOL    HW2  213   0.452   1.516   2.672  0.9241 -3.9280  1.2137
   72SOL     OW  214   0.200   1.842   2.760  0.7611 -0.2668 -0.0798
   72SOL    HW1  215   0.174   1.757   2.707 -3.6732  1.4895  0.2667
   72SOL    HW2  216   0.258   1.898   2.693 -0.9415 -0.9057 -1.8279
   73SOL     OW  217   1.527   1.556   0.170 -0.3673  0.0744  0.3016
   73SOL    HW1  218   1.590   1.539   0.249  1.4553  0.5245  0.5919
   73SOL    HW2  219   1.443   1.614   0.196 -0.4217  1.3147  1.6463
   74SOL     OW  220   2.102   2.607   2.906  0.0870 -0.6296 -0.6600
   74SOL    HW1  221   2.172   2.669   2.882  1.6176 -2.4630 -0.1976
   74SOL    HW2  222   2.067   2.636   3.000 -0.3784 -0.2320 -1.6349
   75SOL     OW  223   2.094   1.913   1.153  0.0151 -0.1249 -0.0055
   75SOL    HW1  224   2.181   1.925   1.107 -1.9044 -2.2157 -0.9286
   75SOL    HW2  225   2.083   1.813   1.160  0.3921  1.8898 -0.4804
   76SOL     OW  226   2.268   2.341   2.001  0.3515 -0.0096 -0.1588
   76SOL    HW1  227   2.179   2.295   2.024 -0.3242 -3.0256  0.3351
   76SOL    HW2  228   2.327   2.279   1.955 -2.2152  0.9111  3.9615
   77SOL     OW  229   2.401   3.072   2.254  0.7301  0.0780  0.1005
   77SOL    HW1  230   2.360   0.020   2.183 -1.7711 -0.2736  1.0989
   77SOL    HW2  231   2.369   2.976   2.234 -0.1514 -0.1145 -0.1859
   78SOL     OW  232   1.898   1.181   3.023  0.1501 -0.4316 -0.5742
   78SOL    HW1  233   1.925   1.105   3.084 -0.3854  0.9679  1.0902
   78SOL    HW2  234   1.942   1.157   2.929 -3.0178 -0.8980  0.0219
   79SOL     OW  235   2.622   1.450   2.588 -0.3411 -0.1876 -0.2062
   79SOL    HW1  236   2.671   1.536   2.555  0.1329  1.6792 -0.4610
   79SOL    HW2  237   2.530   1.437   2.548 -2.7589 -0.1037  2.4760
   80SOL     OW  238   1.934   1.757   1.576  0.2965 -0.0269 -0.5066
   80SOL    HW1  239   1.835   1.776   1.599 -0.5842 -0.4708 -0.5716
   80SOL    HW2  240   1.986   1.697   1.642  1.9833 -1.0826 -0.5868
   81SOL     OW  241   1.982   0.605   1.728  0.0936  0.2609  0.0867
   81SOL    HW1  242   2.078   0.637   1.751 -0.8953  2.0256  1.4912
   81SOL    HW2  243   1.932   0.672   1.680  2.5890 -0.9886  1.0071
   82SOL     OW  244   2.213   2.275   1.547  0.2107  0.6072 -0.1834
   82SOL    HW1  245   2.284   2.327   1.601  0.5033 -0.4689  0.0354
   82SOL    HW2  246   2.249   2.186   1.515  2.0764  0.1560 -0.4241
   83SOL     OW  247   2.967   0.015   0.146  0.3704 -0.7664  0.1025
   83SOL    HW1  248   2.992   0.058   0.236 -0.0912  2.4450 -0.5909
   83SOL    HW2  249   2.951   0.085   0.077 -1.1707 -0.3653  0.1544
   84SOL     OW  250   0.586   1.276   0.079  0.1828 -0.2204  0.0728
   84SOL    HW1  251   0.644   1.276   3.107 -1.0432 -1.0844 -1.9568
   84SOL    HW2  252   0.634   1.242   0.158 -2.1152  3.6612 -2.0678
   85SOL     OW  253   2.711   2.057   1.534  0.5092 -0.5711 -0.4824
   85SOL    HW1  254   2.685   2.011   1.620  2.2829  1.4215  0.1173
   85SOL    HW2  255   2.810   2.042   1.507 -0.9221 -1.0402 -0.3545
   86SOL     OW  256   0.365   2.703   1.356  0.1447  0.2696 -0.0069
   86SOL    HW1  257   0.386   2.606   1.332  1.8562  1.1030 -0.9117
   86SOL    HW2  258   0.421   2.727   1.437 -0.6417  2.5716 -1.1259
   87SOL     OW  259   0.416   2.540   2.415  0.0467  0.2046 -0.0207
   87SOL    HW1  260   0.476   2.499   2.342  3.9672 -1.3562 -1.0068
   87SOL    HW2  261   0.353   2.470   2.451  3.3199  0.6683  0.0185
   88SOL     OW  262   0.109   2.146   0.691 -0.1862  1.1439 -0.0668
   88SOL    HW1  263   0.136   2.243   0.709 -0.2735  1.3584 -0.7458
   88SOL    HW2  264   0.186   2.099   0.649 -0.8535  1.2781  3.2437
   89SOL     OW  265   0.884   0.600   1.524  0.2090 -0.4118 -0.1688
   89SOL    HW1  266   0.979   0.596   1.556 -0.4911  0.1054 -1.1449
   89SOL    HW2  267   0.845   0.511   1.489  0.1617 -1.4030 -0.0667
   90SOL     OW  268   0.209   1.165   1.603 -0.2641  0.0490 -0.0910
   90SOL    HW1  269   0.180   1.238   1.539  0.7514  0.8692 -2.2428
   90SOL    HW2  270   0.298   1.187   1.644 -0.6493 -0.9751  0.2517
   91SOL     OW  271   1.220   0.824   1.084 -0.4382 -0.0573 -0.6892
   91SOL    HW1  272   1.293   0.881   1.128  1.2733 -0.7914  1.0356
   91SOL    HW2  273   1.259   0.740   1.043 -0.8761  3.3064  2.3136
   92SOL     OW  274   2.086   0.971   0.742 -0.4612 -0.1907  0.6511
   92SOL    HW1  275   2.155   1.042   0.720  0.2168  0.4661  1.4394
   92SOL    HW2  276   1.989   0.998   0.732 -0.1826 -1.9743  1.6336
   93SOL     OW  277   2.479   0.694   2.496  0.3271  0.3610 -0.4845
   93SOL    HW1  278   2.497   0.599   2.461  2.0444  1.6790 -1.8505
   93SOL    HW2  279   2.384   0.704   2.537 -1.3304  4.2692 -0.1636
   94SOL     OW  280   2.238   1.862   2.542  0.1038  0.2086  0.1944
   94SOL    HW1  281   2.277   1.958   2.536  2.5800  0.7671  1.5343
   94SOL    HW2  282   2.236   1.821   2.637 -0.2421 -0.8042 -2.4042
   95SOL     OW  283   2.622   0.611   1.139  0.2221  0.3951  0.8737
   95SOL    HW1  284   2.635   0.618   1.037  1.1383 -1.6431  0.0845
   95SOL    HW2  285   2.642   0.520   1.172  2.6351  1.6138 -0.9961
   96SOL     OW  286   2.424   2.669   1.795  0.0821  0.2708  0.3262
   96SOL    HW1  287   2.364   2.745   1.782  1.3775 -2.3345  1.5871
   96SOL    HW2  288   2.483   2.683   1.880  0.4770 -1.8484 -1.9298
   97SOL     OW  289   2.558   1.063   1.258 -0.6177  0.1822  0.1375
   97SOL    HW1  290   2.531   1.128   1.181 -1.6522 -0.6630  0.8472
   97SOL    HW2  291   2.563   1.117   1.341 -1.5699 -3.7389 -2.5438
   98SOL     OW  292   1.525   1.993   1.695 -0.1635  0.2448 -0.1121
   98SOL    HW1  293   1.469   1.962   1.776  0.0731  1.6996  0.0713
   98SOL    HW2  294   1.476   2.030   1.612  0.1783  1.4183 -1.4956
   99SOL     OW  295   0.484   2.306   1.447  0.0925 -0.2808  0.1363
   99SOL    HW1  296   0.513   2.394   1.396 -2.0655  0.1131 -0.0070
   99SOL    HW2  297   0.500   2.315   1.550 -0.1452  0.1176 -1.7169
  100SOL     OW  298   1.163   0.702   2.941 -0.1400  0.6484 -0.3305
  100SOL    HW1  299   1.194   0.797   2.924  0.5942 -2.8694  1.8330
  100SOL    HW2  300   1.220   0.640   2.881  1.5900 -0.3729 -0.3518
  101SOL     OW  301   2.283   0.066   2.676  0.6410 -0.3838  0.4814
  101SOL    HW1  302   2.245   0.095   2.588 -0.5947 -1.4755  0.0309
  101SOL    HW2  303   2.345   0.130   2.716 -4.7855 -1.1620 -0.2616
  102SOL     OW  304   0.459   0.825   1.536 -0.3112 -0.0038 -0.4738
  102SOL    HW1  305   0.408   0.905   1.502  0.9417 -0.4608  0.8873
  102SOL    HW2  306   0.561   0.841   1.554  0.4075  1.9644  2.0103
  103SOL     OW  307   0.230   0.778   2.594  0.0054 -0.1221 -0.2056
  103SOL    HW1  308   0.172   0.852   2.628 -0.3876  1.4645 -1.5927
  103SOL    HW2  309   0.290   0.750   2.670  0.1866  3.0972 -0.3160
  104SOL     OW  310   0.782   0.439   2.600  0.0472 -0.2834 -0.2063
  104SOL    HW1  311   0.780   0.421   2.497 -0.7250 -1.0840 -0.2080
  104SOL    HW2  312   0.813   0.355   2.651 -2.8485 -0.9336 -1.9061
  105SOL     OW  313   2.090   1.957   1.835 -0.3033  0.0540 -0.1451
  105SOL    HW1  314   2.090   1.876   1.900 -1.6206 -0.8451  1.2508
  105SOL    HW2  315   2.178   1.957   1.780  0.7771  1.7005 -2.9201
  106SOL     OW  316   1.838   0.166   0.682  0.0451 -0.1659  0.1924
  106SOL    HW1  317   1.819   0.073   0.654  0.3005  2.1691  0.2341
  106SOL    HW2  318   1.891   0.218   0.612 -2.4525 -0.6914 -0.5363
  107SOL     OW  319   2.811   1.963   1.065 -0.3880 -0.4702  0.4437
  107SOL    HW1  320   2.800   2.063   1.071 -1.1707  1.1782 -1.1052
  107SOL    HW2  321   2.762   1.921   0.987  0.0015  3.5560  0.5063
  108SOL     OW  322   2.784   2.811   1.588  0.2845 -0.8581  0.0643
  108SOL    HW1  323   2.782   2.915   1.590 -0.5201  2.8698 -2.3709
  108SOL    HW2  324   2.839   2.779   1.512 -0.3195  1.6485  0.1396
  109SOL     OW  325   1.992   2.754   1.045  0.5280 -0.1036 -0.6998
  109SOL    HW1  326   2.032   2.673   1.096 -0.6598  0.3244 -1.6785
  109SOL    HW2  327   2.040   2.842   1.065  0.5788 -1.0063 -0.8910
  110SOL     OW  328   0.694   1.879   2.476 -0.1168 -0.5081 -0.4312
  110SOL    HW1  329   0.650   1.791   2.481 -0.7749  1.3586  0.5717
  110SOL    HW2  330   0.785   1.886   2.526  1.0839  1.5113  0.2588
  111SOL     OW  331   1.613   2.545   2.276  0.5324 -0.6399  0.5033
  111SOL    HW1  332   1.700   2.600   2.266  2.7723  2.9465 -0.3506
  111SOL    HW2  333   1.539   2.583   2.214 -0.5947  1.8205  0.6035
  112SOL     OW  334   1.995   1.661   0.006  0.0900 -0.6774 -0.6703
  112SOL    HW1  335   2.061   1.586   3.093 -1.8016 -1.5633 -1.4956
  112SOL    HW2  336   2.045   1.732   0.056 -2.7078 -1.0482 -0.3323
  113SOL     OW  337   1.830   2.215   1.376  0.2842  0.3601 -0.0834
  113SOL    HW1  338   1.904   2.173   1.427 -0.2856 -1.1076 -2.0575
  113SOL    HW2  339   1.776   2.272   1.443  1.3148 -1.8662  1.0724
  114SOL     OW  340   2.965   0.972   0.897 -0.7387 -0.1896  0.6572
  114SOL    HW1  341   2.911   0.929   0.820  1.4224 -0.5553  0.9064
  114SOL    HW2  342   2.976   0.904   0.975 -0.4112 -1.0683 -0.1047
  115SOL     OW  343   0.749   0.744   0.007 -0.6019 -0.2744  0.7724
  115SOL    HW1  344   0.658   0.773   3.084  0.4425 -0.9090 -1.2752
  115SOL    HW2  345   0.757   0.645   0.023  2.4245 -0.0038  1.1613
  116SOL     OW  346   2.770   1.667   2.542  0.0606 -0.3541 -0.3656
  116SOL    HW1  347   2.718   1.754   2.521  0.2463  1.9176 -1.1957
  116SOL    HW2  348   2.828   1.680   2.623  0.8508 -2.0896 -1.6631
  117SOL     OW  349   2.806   2.929   0.541 -0.1669 -0.1002  0.0427
  117SOL    HW1  350   2.904   2.956   0.518  1.8329 -1.5735 -2.1298
  117SOL    HW2  351   2.787   2.830   0.530  0.4288 -0.9771  1.4195
  118SOL     OW  352   0.886   1.581   2.989 -0.0842 -0.1469  0.3304
  118SOL    HW1  353   0.852   1.644   2.914 -1.7224  2.2559  1.9249
  118SOL    HW2  354   0.949   1.632   3.052 -0.3623 -2.4977 -0.5405
  119SOL     OW  355   0.438   2.128   0.157  0.0343  0.1142 -0.0527
  119SOL    HW1  356   0.342   2.135   0.183  0.8404 -0.0529 -1.1186
  119SOL    HW2  357   0.486   2.049   0.199  0.1122 -0.9777 -0.2551
  120SOL     OW  358   1.162   0.649   0.100  0.1195  0.0536 -0.0323
  120SOL    HW1  359   1.151   0.747   0.125  0.0487  0.9565  1.8434
  120SOL    HW2  360   1.166   0.641   3.111 -0.9023 -1.1886 -0.9097
  121SOL     OW  361   1.234   2.760   0.553  0.2506 -0.0051  0.2995
  121SOL    HW1  362   1.296   2.769   0.632  1.0231 -0.1058  1.7077
  121SOL    HW2  363   1.285   2.726   0.469  0.1010 -1.0301 -2.4002
  122SOL     OW  364   2.513   2.369   1.342 -0.1638  0.8055 -0.1738
  122SOL    HW1  365   2.562   2.449   1.305  1.3949  1.1877 -2.6040
  122SOL    HW2  366   2.556   2.343   1.432 -1.2103  0.4969  0.4988
  123SOL     OW  367   0.719   1.988   0.509  0.1846 -0.8695 -0.3329
  123SOL    HW1  368   0.709   2.006   0.406  0.0397  0.3077 -2.1733
  123SOL    HW2  369   0.638   2.007   0.571 -0.0359 -0.7283  0.5222
  124SOL     OW  370   2.855   0.706   0.223  0.3892  0.0838 -0.1649
  124SOL    HW1  371   2.925   0.709   0.295 -2.0499 -1.2033 -0.3155
  124SOL    HW2  372   2.789   0.784   0.232  1.3320 -0.4156 -2.0685
  125SOL     OW  373   0.303   0.761   0.130  0.0687  0.0068 -0.2277
  125SOL    HW1  374   0.355   0.783   0.044 -3.9092  1.3729 -0.9286
  125SOL    HW2  375   0.344   0.680   0.180  0.6012 -2.1205  0.9671
  126SOL     OW  376   0.096   1.937   0.856  0.5216 -0.0629 -0.2768
  126SOL    HW1  377   0.156   1.867   0.820 -1.7105  2.4023  2.2007
  126SOL    HW2  378   0.127   2.030   0.831 -0.2843 -1.2517  0.1760
  127SOL     OW  379   1.454   1.856   1.921 -0.0362 -0.0488  0.4672
  127SOL    HW1  380   1.548   1.850   1.959  2.2523  1.4860  1.6190
  127SOL    HW2  381   1.381   1.898   1.981 -0.1342 -1.7379  0.4440
  128SOL     OW  382   1.205   1.283   0.460 -0.0352  0.3351 -0.1013
  128SOL    HW1  383   1.222   1.278   0.359  2.6616 -0.8087 -0.1814
  128SOL    HW2  384   1.278   1.228   0.503  0.8725 -4.8920 -2.7933
  129SOL     OW  385   2.061   1.067   1.071  0.3386  0.2825  0.1131
  129SOL    HW1  386   2.008   0.990   1.035 -1.2655 -0.5206 -0.5974
  129SOL    HW2  387   2.031   1.159   1.029  0.3772 -3.5264  0.0107
  130SOL     OW  388   2.452   1.497   1.585  0.6563  0.0618  0.2021
  130SOL    HW1  389   2.394   1.568   1.547  1.0705 -1.4910 -1.9008
  130SOL    HW2  390   2.539   1.541   1.614 -0.2996 -2.7230  0.6216
  131SOL     OW  391   3.029   2.597   2.789 -0.2510 -0.9329  0.2889
  131SOL    HW1  392   2.945   2.617   2.843  0.9525  1.4144 -0.8137
  131SOL    HW2  393   3.029   2.649   2.701  0.8295  2.0899 -1.0457
  132SOL     OW  394   0.005   1.511   0.378  0.5021  0.5228  0.3389
  132SOL    HW1  395   3.037   1.523   0.320 -0.1389  1.6059  1.6184
  132SOL    HW2  396   3.103   1.449   0.458 -0.9651  1.5395 -1.0986
  133SOL     OW  397   0.445   0.348   1.710 -0.3078  0.0326 -0.4879
  133SOL    HW1  398   0.521   0.321   1.778  5.0116 -1.6841  2.0204
  133SOL    HW2  399   0.353   0.337   1.757 -0.0131  3.1023 -4.4864
  134SOL     OW  400   0.307   1.912   3.018  0.0445 -0.5774  0.5812
  134SOL    HW1  401   0.275   1.890   2.923  2.3496  0.2106  1.2739
  134SOL    HW2  402   0.356   2.003   3.021 -0.6966 -0.0193  1.1246
  135SOL     OW  403   1.592   0.617   1.905 -0.1375  0.3992  0.4251
  135SOL    HW1  404   1.609   0.709   1.857 -1.0996  0.3398  1.3866
  135SOL    HW2  405   1.591   0.644   2.000  0.8372 -1.2691  0.6422
  136SOL     OW  406   2.912   1.049   0.164  0.3258  0.2743 -0.1697
  136SOL    HW1  407   2.984   1.006   0.111 -2.7855 -0.3536  2.0937
  136SOL    HW2  408   2.866   1.108   0.096 -1.5484 -0.6639 -0.5148
  137SOL     OW  409   0.178   1.496   0.940 -0.2913  0.3274  0.4615
  137SOL    HW1  410   0.280   1.499   0.934 -0.5785  0.5114  1.2180
  137SOL    HW2  411   0.139   1.532   0.851  0.5277  0.2245  0.4802
  138SOL     OW  412   2.399   0.520   1.378 -0.1202  0.3202 -0.0592
  138SOL    HW1  413   2.484   0.554   1.334  0.8588 -1.8157 -1.4984
  138SOL    HW2  414   2.415   0.504   1.478 -0.6550  1.8721 -1.2389
  139SOL     OW  415   1.320   2.700   0.300  0.2426  0.5756 -0.1546
  139SOL    HW1  416   1.386   2.707   0.223 -1.3529 -1.4706 -1.6202
  139SOL    HW2  417   1.232   2.681   0.257 -0.2778 -0.0821 -0.4231
  140SOL     OW  418   1.453   1.620   1.276  0.0427  0.3312 -0.1544
  140SOL    HW1  419   1.391   1.538   1.288  0.6221 -0.0505  0.7914
  140SOL    HW2  420   1.532   1.597   1.216  1.4011 -0.0167  0.2323
  141SOL     OW  421   1.399   2.224   0.468 -0.1331  0.6254 -0.6107
  141SOL    HW1  422   1.308   2.221   0.422  0.9273 -2.0460 -1.3957
  141SOL    HW2  423   1.398   2.184   0.562  0.2909 -2.1187  0.0162
  142SOL     OW  424   0.933   0.518   0.602  0.4824  0.1390  0.1142
  142SOL    HW1  425   0.963   0.453   0.536  1.2162  2.4841 -0.1360
  142SOL    HW2  426   0.884   0.594   0.558  0.6116  0.3277  1.6458
  143SOL     OW  427   0.576   1.972   2.800 -0.4549  0.0119  0.0664
  143SOL    HW1  428   0.521   2.028   2.869 -0.9628  1.5003  1.3086
  143SOL    HW2  429   0.522   1.948   2.720  0.6832  0.4168  1.5332
  144SOL     OW  430   1.546   2.703   0.925  0.1477 -0.0665  0.4445
  144SOL    HW1  431   1.524   2.788   0.972  0.7731 -1.0060 -2.5979
  144SOL    HW2  432   1.639   2.705   0.885 -1.2698  2.2141  3.2017
  145SOL     OW  433   1.834   0.688   2.794  0.5228 -0.1581  0.2180
  145SOL    HW1  434   1.827   0.589   2.781 -0.7842  0.5670 -0.2697
  145SOL    HW2  435   1.822   0.714   2.898 -2.0859 -1.1725  1.3307
  146SOL     OW  436   0.020   2.897   0.708 -0.4574  0.1094 -0.2278
  146SOL    HW1  437   3.095   2.994   0.701 -0.5319  2.0347 -1.4092
  146SOL    HW2  438   0.084   2.876   0.633 -0.9320 -0.3913  3.3929
  147SOL     OW  439   2.089   0.166   1.929 -0.1704  0.3712  0.2398
  147SOL    HW1  440   2.110   0.173   1.827  3.5784  1.7997  3.5205
  147SOL    HW2  441   1.995   0.133   1.950  0.5866 -1.0061 -0.2559
  148SOL     OW  442   1.075   0.103   1.992  0.6933 -0.3734 -0.0100
  148SOL    HW1  443   1.043   0.200   1.970 -2.2976  2.3265 -2.7953
  148SOL    HW2  444   1.007   0.058   2.060 -0.8439 -0.2808  1.5204
  149SOL     OW  445   1.504   0.547   2.187 -0.2784 -0.0224  0.0777
  149SOL    HW1  446   1.505   0.449   2.158 -0.4556  0.7596 -0.1829
  149SOL    HW2  447   1.412   0.593   2.190  1.7121 -1.9190  1.5845
  150SOL     OW  448   2.950   0.136   2.951  0.0596 -0.1484 -0.6446
  150SOL    HW1  449   2.863   0.194   2.965 -1.7566 -0.9047  2.3578
  150SOL    HW2  450   2.920   0.037   2.967 -0.4429 -0.2079  0.4471
  151SOL     OW  451   0.665   1.662   0.164 -0.0461 -0.5199  0.9422
  151SOL    HW1  452   0.608   1.643   0.079 -1.4583 -0.7649  1.0339
  151SOL    HW2  453   0.718   1.749   0.142 -0.5311  2.4436 -1.9999
  152SOL     OW  454   2.939   0.434   0.465 -0.3158 -0.3142  0.0232
  152SOL    HW1  455   2.849   0.459   0.509 -2.1077  1.5129 -0.7419
  152SOL    HW2  456   3.016   0.506   0.475  3.0189  1.6337  0.7996
  153SOL     OW  457   2.470   0.497   1.644 -0.3096  0.4290  0.4101
  153SOL    HW1  458   2.437   0.419   1.699 -0.1032 -1.9676  1.6033
  153SOL    HW2  459   2.552   0.540   1.695  3.7402 -0.0922  4.6063
  154SOL     OW  460   1.604   0.116   2.123 -0.3603 -0.4399  0.4631
  154SOL    HW1  461   1.602   0.018   2.146  0.1050  1.2780  0.0328
  154SOL    HW2  462   1.512   0.149   2.097  1.2619 -0.7903  2.0070
  155SOL     OW  463   0.323   1.810   0.790  0.3125  0.0788  0.3655
  155SOL    HW1  464   0.382   1.869   0.844 -0.6444  1.2557 -2.1697
  155SOL    HW2  465   0.360   1.719   0.771  0.1609  3.4186  1.5803
  156SOL     OW  466   2.086   2.163   0.022  0.1826  0.3073 -0.3651
  156SOL    HW1  467   2.108   2.219   3.060 -3.6640 -1.8085  0.9681
  156SOL    HW2  468   1.988   2.131   0.019 -0.2569 -1.7937 -0.3289
  157SOL     OW  469   0.960   0.505   0.216  0.1582 -0.2233 -0.6826
  157SOL    HW1  470   0.921   0.562   0.293  1.7329 -0.3159 -1.6322
  157SOL    HW2  471   1.036   0.552   0.167  4.3325 -1.1594  0.5195
  158SOL     OW  472   2.028   0.195   2.483 -0.7152  0.5640  0.0892
  158SOL    HW1  473   2.129   0.174   2.475 -0.1321 -2.0356 -0.3478
  158SOL    HW2  474   1.986   0.137   2.406 -1.3191 -0.0173 -2.4544
  159SOL     OW  475   2.998   0.182   0.380  0.0835  0.1751 -0.0345
  159SOL    HW1  476   2.955   0.271   0.407 -0.2577 -1.4995 -0.0110
  159SOL    HW2  477   3.102   0.184   0.380  3.1530 -1.2396 -1.3861
  160SOL     OW  478   1.580   1.879   2.541  0.3475  0.1879 -0.8205
  160SOL    HW1  479   1.610   1.792   2.509  0.7642  0.2433  0.6524
  160SOL    HW2  480   1.622   1.959   2.496 -0.6900 -1.8323 -1.4840
  161SOL     OW  481   2.660   0.811   2.650 -0.1582  0.5241 -0.0185
  161SOL    HW1  482   2.727   0.746   2.693 -1.7290  0.4546 -0.1189
  161SOL    HW2  483   2.588   0.761   2.593 -1.7027 -2.4553 -0.0552
  162SOL     OW  484   0.548   2.496   1.262 -0.2985  0.1911 -0.1103
  162SOL    HW1  485   0.620   2.433   1.240 -2.6545  1.2191  1.9046
  162SOL    HW2  486   0.582   2.591   1.259 -1.2572  0.9937  2.0164
  163SOL     OW  487   2.056   0.450   2.616  0.1626 -0.7041 -0.2135
  163SOL    HW1  488   2.081   0.435   2.713 -0.4346 -0.6792  0.8218
  163SOL    HW2  489   2.044   0.361   2.572  1.1367  4.0506 -0.9012
  164SOL     OW  490   1.955   1.864   0.343  0.5925  0.3179  0.4025
  164SOL    HW1  491   1.992   1.861   0.251 -2.6976 -0.3962 -1.2403
  164SOL    HW2  492   2.031   1.866   0.408 -1.4675  3.5683 -0.2697
  165SOL     OW  493   2.851   0.264   1.430 -0.5276  0.5435 -0.6149
  165SOL    HW1  494   2.872   0.283   1.528  1.6079  1.3476  1.7895
  165SOL    HW2  495   2.901   0.331   1.371  0.4565 -2.2639 -0.9148
  166SOL     OW  496   2.306   1.113   3.052  0.4517  0.3736  0.1209
  166SOL    HW1  497   2.354   1.185   3.000  0.7467 -0.0329 -1.4435
  166SOL    HW2  498   2.217   1.147   3.093  1.7647  0.6602 -1.3026
  167SOL     OW  499   2.820   0.737   3.054  0.3336 -0.4043  0.0644
  167SOL    HW1  500   2.850   0.701   0.025 -2.0549 -0.3864 -0.4858
  167SOL    HW2  501   2.862   0.690   2.976 -2.1208  0.0608  0.0598
  168SOL     OW  502   1.596   2.910   2.804  0.0084  0.1366  0.4103
  168SOL    HW1  503   1.673   2.914   2.877  1.0757  0.9819  3.3862
  168SOL    HW2  504   1.542   2.998   2.813  0.1181 -3.1601 -0.9657
  169SOL     OW  505   0.014   1.378   0.601  0.8023 -0.2926 -0.0924
  169SOL    HW1  506   0.011   1.466   0.650 -2.1262 -1.3756  1.2187
  169SOL    HW2  507   3.102   1.300   0.659  0.4985 -1.6301  0.4483
  170SOL     OW  508   2.988   0.445   1.279  0.3214 -0.1760  0.4315
  170SOL    HW1  509   3.078   0.467   1.319 -2.8711  2.7491  2.1076
  170SOL    HW2  510   2.998   0.433   1.177  0.0221 -0.7457  1.7724
  171SOL     OW  511   1.701   2.137   2.447  0.0833  0.1877 -0.4154
  171SOL    HW1  512   1.776   2.083   2.404  1.2258 -1.4365 -1.4127
  171SOL    HW2  513   1.667   2.214   2.387 -0.8035 -0.7645 -0.4985
  172SOL     OW  514   0.094   2.742   1.410 -0.2908  0.1001 -0.5913
  172SOL    HW1  515   0.053   2.835   1.425  1.2049 -0.4650  0.5144
  172SOL    HW2  516   0.174   2.740   1.345 -1.7285  0.1977  1.6413
  173SOL     OW  517   1.161   0.912   0.193  0.1416  0.1612  0.4696
  173SOL    HW1  518   1.122   0.987   0.138  0.3517 -0.9608 -0.6228
  173SOL    HW2  519   1.227   0.947   0.261 -0.6751 -0.3659 -0.7437
  174SOL     OW  520   1.192   0.064   2.821 -0.0671 -0.2509  0.5060
  174SOL    HW1  521   1.178   3.114   2.902  0.7031 -2.5169  2.8015
  174SOL    HW2  522   1.161   0.020   2.736  0.7153  1.4529  0.3828
  175SOL     OW  523   2.028   1.726   0.692 -0.2744 -0.2778  0.0109
  175SOL    HW1  524   1.947   1.781   0.726 -1.1001 -0.8097  3.0856
  175SOL    HW2  525   2.085   1.696   0.774 -0.0271 -1.6551 -1.0175
  176SOL     OW  526   1.353   0.462   0.170 -0.4256  0.1245  0.2131
  176SOL    HW1  527   1.291   0.545   0.175 -0.9243 -0.6912 -2.1427
  176SOL    HW2  528   1.345   0.428   0.074 -0.5962  0.2040 -2.4668
  177SOL     OW  529   0.845   1.476   0.254 -0.2374  0.4581 -0.3243
  177SOL    HW1  530   0.774   1.548   0.246  2.5352 -2.1654  0.6000
  177SOL    HW2  531   0.931   1.514   0.286 -1.0961  3.8706 -2.0804
  178SOL     OW  532   2.547   2.298   2.906  1.1002 -0.0103 -0.0343
  178SOL    HW1  533   2.633   2.248   2.918  1.5347  0.1698  2.1414
  178SOL    HW2  534   2.497   2.297   2.996 -1.4060  0.0524 -0.5959
  179SOL     OW  535   2.580   3.082   2.973 -0.2366  0.4786 -0.0038
  179SOL    HW1  536   2.530   2.995   2.949  0.3943  0.9282 -1.2366
  179SOL    HW2  537   2.573   0.040   2.904  2.8060  0.4476  3.8824
  180SOL     OW  538   1.435   1.467   0.535  0.0949  0.3248 -0.0152
  180SOL    HW1  539   1.377   1.379   0.541 -4.1207 -1.1983 -0.6738
  180SOL    HW2  540   1.380   1.537   0.587 -0.7089  0.1172 -1.0120
  181SOL     OW  541   1.624   1.065   2.501 -0.2149 -0.1863 -0.0834
  181SOL    HW1  542   1.665   0.974   2.537 -1.8554 -2.0922 -1.7725
  181SOL    HW2  543   1.688   1.144   2.522  3.7150 -1.1015  0.5612
  182SOL     OW  544   2.426   2.938   2.671  0.2892  0.0196  0.1279
  182SOL    HW1  545   2.368   3.018   2.660 -2.6558  0.0097  2.8050
  182SOL    HW2  546   2.490   2.934   2.592  0.7885 -1.3056 -0.7723
  183SOL     OW  547   1.764   0.471   2.450 -0.1389  0.3037 -0.1272
  183SOL    HW1  548   1.758   0.531   2.371 -3.1273 -0.6331 -0.2963
  183SOL    HW2  549   1.856   0.433   2.451  1.4021 -1.7942 -0.8397
  184SOL     OW  550   0.150   1.412   1.469 -0.4161 -0.0912  0.3677
  184SOL    HW1  551   0.096   1.403   1.553  1.5327 -2.3403 -0.6687
  184SOL    HW2  552   0.153   1.511   1.435  0.1106  2.1240  1.3556
  185SOL     OW  553   1.788   0.560   0.655 -0.0842 -0.0121 -0.0409
  185SOL    HW1  554   1.875   0.534   0.706  1.3269 -0.3204 -0.2059
  185SOL    HW2  555   1.731   0.475   0.654  1.5364  0.0713  1.5918
  186SOL     OW  556   0.313   2.443   3.029 -0.2730 -0.2952 -0.0574
  186SOL    HW1  557   0.240   2.507   3.012  1.2033 -2.3511 -2.6901
  186SOL    HW2  558   0.283   2.359   2.983 -0.4577  0.0756  4.3218
  187SOL     OW  559   2.686   0.944   0.263  0.1701 -0.2277 -0.0909
  187SOL    HW1  560   2.767   0.991   0.226 -3.6944  1.6861 -1.3434
  187SOL    HW2  561   2.627   0.928   0.181 -2.6173 -1.4444 -0.5261
  188SOL     OW  562   2.852   1.500   1.449 -0.3289  0.0609  0.3448
  188SOL    HW1  563   2.885   1.425   1.507  0.0609  1.4954 -2.7660
  188SOL    HW2  564   2.930   1.562   1.425 -1.2884  0.3618 -0.1419
  189SOL     OW  565   2.556   0.619   2.905 -0.1099 -0.7312 -0.5301
  189SOL    HW1  566   2.572   0.542   2.840 -1.1116  0.5837  0.3526
  189SOL    HW2  567   2.641   0.640   2.960  1.3647 -0.8079  0.8621
  190SOL     OW  568   1.593   1.314   2.168 -0.1259  0.5016 -0.0502
  190SOL    HW1  569   1.576   1.353   2.075  0.9530  0.0181 -4.3134
  190SOL    HW2  570   1.557   1.380   2.239  1.4048 -0.2275  2.4487
  191SOL     OW  571   0.661   0.259   1.857  0.3021 -0.4888  0.1747
  191SOL    HW1  572   0.738   0.286   1.796  1.4758 -2.4392 -0.2454
  191SOL    HW2  573   0.656   0.157   1.865  1.5636 -2.6555 -2.8280
  192SOL     OW  574   2.116   1.455   0.965  0.0355  0.8648  0.6626
  192SOL    HW1  575   2.069   1.387   0.906 -0.1763 -0.6741  1.5499
  192SOL    HW2  576   2.134   1.421   1.062 -1.8235  1.2877  0.9877
  193SOL     OW  577   1.589   0.657   1.033  0.0677 -0.7106  0.3504
  193SOL    HW1  578   1.677   0.704   1.027  0.6550 -1.8633  0.1602
  193SOL    HW2  579   1.543   0.663   0.940  0.3986 -1.0089 -3.3802
  194SOL     OW  580   0.720   2.110   1.410 -0.0094  0.2844 -0.2526
  194SOL    HW1  581   0.745   2.183   1.341 -1.1526  0.8170 -0.9714
  194SOL    HW2  582   0.761   2.012   1.395 -0.4091 -3.3363  0.3963
  195SOL     OW  583   1.850   0.256   2.991  0.0790 -0.6995  0.0096
  195SOL    HW1  584   1.936   0.264   3.046 -0.4458 -0.2152  1.2646
  195SOL    HW2  585   1.872   0.217   2.899  0.7873  0.7410  0.6929
  196SOL     OW  586   0.639   1.505   1.614 -0.3740 -0.4117 -0.1070
  196SOL    HW1  587   0.595   1.449   1.543  2.3185 -0.3988  0.0791
  196SOL    HW2  588   0.677   1.449   1.689  1.1881 -0.4727 -0.3373
  197SOL     OW  589   1.068   0.085   1.413 -0.4356 -0.0306 -0.0202
  197SOL    HW1  590   1.124   0.076   1.327 -1.7245 -0.2455 -1.1465
  197SOL    HW2  591   1.088   0.176   1.463 -1.2230  1.9119 -0.3063
  198SOL     OW  592   0.716   1.108   1.147  0.3540  0.1029  0.2107
  198SOL    HW1  593   0.764   1.051   1.210 -0.9254  2.8887 -2.4767
  198SOL    HW2  594   0.773   1.126   1.067  1.7842  1.1750 -1.4762
  199SOL     OW  595   0.221   2.599   1.627  0.0457  0.7040 -0.1466
  199SOL    HW1  596   0.314   2.611   1.666  1.3765 -2.3258 -3.2558
  199SOL    HW2  597   0.199   2.662   1.550  0.1844 -0.0681 -4.1886
  200SOL     OW  598   1.790   1.787   1.869  0.3830 -0.1145  0.5509
  200SOL    HW1  599   1.849   1.702   1.884  0.3914  1.6820  0.1522
  200SOL    HW2  600   1.718   1.779   1.796  0.2440 -1.0389  3.9897
  201SOL     OW  601   0.387   1.667   2.260  0.3855 -0.5068  0.2013
  201SOL    HW1  602   0.289   1.701   2.277  0.8639 -0.5023 -0.3173
  201SOL    HW2  603   0.454   1.697   2.332  2.1002  0.9635 -0.0780
  202SOL     OW  604   1.611   0.689   0.047  0.6995  0.4505  0.5674
  202SOL    HW1  605   1.674   0.614   0.010  0.4833  1.1199  1.6562
  202SOL    HW2  606   1.604   0.677   0.144 -0.9577 -2.5715  1.3756
  203SOL     OW  607   1.208   2.639   1.909  0.0231 -0.4345  0.1283
  203SOL    HW1  608   1.122   2.609   1.946  1.8186  1.0607  0.8801
  203SOL    HW2  609   1.197   2.650   1.807 -1.7621  0.7208  0.2004
  204SOL     OW  610   0.622   2.148   1.784 -1.1184  0.0845 -0.5579
  204SOL    HW1  611   0.723   2.138   1.766  0.5087 -0.7082  0.4818
  204SOL    HW2  612   0.576   2.081   1.720 -2.0527  2.2219 -0.6512
  205SOL     OW  613   1.747   1.976   2.050 -0.1710 -0.2332 -0.2740
  205SOL    HW1  614   1.783   1.907   1.982 -0.1780 -1.2987  0.2240
  205SOL    HW2  615   1.665   1.939   2.098 -4.9638  0.7408 -2.3645
  206SOL     OW  616   0.037   1.007   2.399 -0.2056  0.8308  0.5866
  206SOL    HW1  617   3.112   0.936   2.335  0.7931 -2.3378 -1.3373
  206SOL    HW2  618   0.119   1.053   2.364  0.4406  2.2733  1.1724
  207SOL     OW  619   0.837   2.882   2.007  0.0460  0.0259  0.1822
  207SOL    HW1  620   0.741   2.849   2.022 -1.9026  0.6222 -1.1161
  207SOL    HW2  621   0.901   2.830   2.066  0.1765 -0.4355  2.8039
  208SOL     OW  622   0.638   2.728   1.893  0.1624 -0.3299 -0.4324
  208SOL    HW1  623   0.715   2.661   1.903 -0.8242 -0.2257  2.0378
  208SOL    HW2  624   0.605   2.746   1.795 -1.3441 -1.3483 -3.5075
  209SOL     OW  625   1.545   0.226   0.192 -0.1573  0.2180  0.0160
  209SOL    HW1  626   1.550   0.145   0.252  0.3219 -1.6889 -0.7162
  209SOL    HW2  627   1.514   0.310   0.243 -0.4421 -2.0385  1.2543
  210SOL     OW  628   2.691   0.667   0.881  0.4105 -0.3601 -0.5074
  210SOL    HW1  629   2.777   0.640   0.833  1.9165  0.0420  1.0181
  210SOL    HW2  630   2.608   0.658   0.825  0.2244  1.0349 -2.3463
  211SOL     OW  631   0.468   0.553   1.481  0.3612 -0.2183 -0.2691
  211SOL    HW1  632   0.480   0.654   1.494 -2.5377  1.1567 -3.0850
  211SOL    HW2  633   0.438   0.508   1.565  0.2825  0.8960 -0.9610
  212SOL     OW  634   1.792   1.654   1.347  0.1708 -0.7872  0.0897
  212SOL    HW1  635   1.842   1.677   1.437 -0.0801 -0.5284  0.7082
  212SOL    HW2  636   1.743   1.735   1.309  1.0250 -0.5424  0.0267
  213SOL     OW  637   2.506   0.267   1.851  0.7036  0.5657  0.4139
  213SOL    HW1  638   2.523   0.244   1.752 -0.5221  0.7750 -2.6359
  213SOL    HW2  639   2.589   0.299   1.889 -0.8427 -1.1202  0.0241
  214SOL     OW  640   0.615   2.419   2.281  0.5446 -0.3047  0.4152
  214SOL    HW1  641   0.678   2.477   2.226 -1.7137  1.5477  5.3272
  214SOL    HW2  642   0.662   2.366   2.357 -0.4301 -0.6410 -0.5037
  215SOL     OW  643   2.684   1.584   1.658  0.3915  0.0329 -0.3248
  215SOL    HW1  644   2.745   1.619   1.734 -0.4439 -2.1822  0.3895
  215SOL    HW2  645   2.736   1.555   1.578 -2.3876  2.6271  0.0979
  216SOL     OW  646   0.587   0.688   1.861 -0.1967 -0.2155 -0.2641
  216SOL    HW1  647   0.643   0.774   1.847 -1.4181 -2.4333 -0.3975
  216SOL    HW2  648   0.489   0.711   1.834 -1.0920  0.7118 -0.2886
  217SOL     OW  649   2.696   0.496   0.592  0.0809  0.0455  0.2241
  217SOL    HW1  650   2.753   0.566   0.644 -1.1270  0.3661  2.3202
  217SOL    HW2  651   2.598   0.509   0.615 -0.3933  1.1645  0.1775
  218SOL     OW  652   1.688   1.842   1.172  0.2777 -0.2523 -0.4809
  218SOL    HW1  653   1.714   1.939   1.152  1.2727  1.0610 -0.9722
  218SOL    HW2  654   1.596   1.820   1.133 -2.4798  0.1993  0.1734
  219SOL     OW  655   1.761   3.029   0.551  0.1187  0.1762 -0.2609
  219SOL    HW1  656   1.789   3.009   0.648 -1.0371  0.9747  0.6463
  219SOL    HW2  657   1.782   2.944   0.494 -0.8726 -1.0735 -1.4419
  220SOL     OW  658   1.863   2.293   0.520  0.1499 -0.0207  0.5126
  220SOL    HW1  659   1.957   2.325   0.490  3.5576 -1.8918 -2.6191
  220SOL    HW2  660   1.823   2.354   0.592  1.0106  1.2129  0.3893
  221SOL     OW  661   2.806   1.374   0.373 -0.5810 -0.2579  0.1812
  221SOL    HW1  662   2.729   1.313   0.348  1.0011  0.7563  1.9399
  221SOL    HW2  663   2.855   1.404   0.291 -2.3853  0.1720  1.6340
  222SOL     OW  664   0.587   2.384   0.950  0.3888  0.0050  0.2344
  222SOL    HW1  665   0.594   2.369   0.849 -2.5782 -0.6164 -0.9935
  222SOL    HW2  666   0.650   2.326   1.007 -0.8766 -0.6118 -0.0635
  223SOL     OW  667   1.297   0.286   0.361 -1.0229 -0.0301  0.2840
  223SOL    HW1  668   1.282   0.207   0.299 -1.6312  2.5705  1.2471
  223SOL    HW2  669   1.308   0.368   0.303 -1.4113  1.2560  0.3741
  224SOL     OW  670   2.984   1.201   0.744 -0.0169  0.3588 -0.5639
  224SOL    HW1  671   2.888   1.214   0.723  1.4543 -0.7859 -1.7903
  224SOL    HW2  672   3.006   1.113   0.792 -0.1963 -0.0508  1.8233
  225SOL     OW  673   0.446   1.380   1.470  0.7282  0.5247  0.1193
  225SOL    HW1  674   0.462   1.292   1.522  3.4822 -0.4337  0.4511
  225SOL    HW2  675   0.348   1.411   1.478  2.4024 -0.0629 -0.2680
  226SOL     OW  676   0.465   3.006   0.855 -0.4754  0.9962 -0.3235
  226SOL    HW1  677   0.363   3.011   0.872 -2.9522 -1.2735 -0.4510
  226SOL    HW2  678   0.508   3.081   0.909  2.3613 -1.1695  1.0783
  227SOL     OW  679   1.392   1.587   1.820  0.6295  0.1724  0.2583
  227SOL    HW1  680   1.384   1.583   1.719 -0.2100  0.2078  3.3554
  227SOL    HW2  681   1.417   1.680   1.852  0.2241 -1.7561  0.1532
  228SOL     OW  682   0.814   0.076   1.589  0.0336  0.1978 -0.4634
  228SOL    HW1  683   0.836   0.167   1.623 -1.6640 -1.1754 -1.3577
  228SOL    HW2  684   0.893   0.047   1.533 -0.2279 -0.9239  2.1823
  229SOL     OW  685   2.784   0.540   2.691 -0.1936 -0.2550  0.3489
  229SOL    HW1  686   2.807   0.575   2.596  0.6641  0.8984 -0.3972
  229SOL    HW2  687   2.862   0.563   2.756 -1.3416 -1.6172  0.7064
  230SOL     OW  688   0.261   0.830   1.110 -0.2643 -0.5029  0.3923
  230SOL    HW1  689   0.245   0.919   1.065 -0.0465 -2.2337 -0.2355
  230SOL    HW2  690   0.188   0.819   1.187 -1.1544 -0.1216  1.2393
  231SOL     OW  691   1.179   3.084   1.775 -0.2050  0.2501  0.1858
  231SOL    HW1  692   1.140   0.023   1.858 -0.1788 -0.0337 -0.1789
  231SOL    HW2  693   1.276   3.066   1.799  3.7731  0.9032 -1.0572
  232SOL     OW  694   3.061   2.015   0.126 -0.6430 -0.4035  0.4191
  232SOL    HW1  695   3.041   1.961   0.210 -2.4218 -0.6487 -2.2300
  232SOL    HW2  696   2.972   2.042   0.085  1.3139 -0.3784 -2.3461
  233SOL     OW  697   1.176   2.579   2.824 -0.8980 -0.0992 -0.4160
  233SOL    HW1  698   1.198   2.486   2.793 -0.3607 -3.0217  0.2220
  233SOL    HW2  699   1.246   2.606   2.900  0.9321  0.7830  1.1486
  234SOL     OW  700   0.454   1.208   1.681  0.3965 -0.1121  0.2763
  234SOL    HW1  701   0.537   1.145   1.659 -0.3275  0.0326  0.7732
  234SOL    HW2  702   0.427   1.199   1.781  0.2789  0.6913  1.2834
  235SOL     OW  703   3.114   2.271   2.412  0.3667 -0.1851 -0.0874
  235SOL    HW1  704   0.099   2.300   2.420  0.7423  1.3557  1.0081
  235SOL    HW2  705   3.072   2.298   2.501 -1.7063  2.9632 -0.3054
  236SOL     OW  706   1.695   1.972   2.773 -0.3839 -0.9472 -0.2576
  236SOL    HW1  707   1.665   1.922   2.695 -1.4976  0.5169  0.6472
  236SOL    HW2  708   1.679   2.068   2.772  0.4202 -4.8745  2.0406
  237SOL     OW  709   1.752   1.013   0.924 -0.3195 -0.0515  0.0259
  237SOL    HW1  710   1.787   1.021   0.829  1.5201 -1.7509  0.1789
  237SOL    HW2  711   1.651   1.022   0.928 -0.4120 -2.4084 -0.9479
  238SOL     OW  712   1.251   2.807   2.190 -0.4128  0.4991 -0.0193
  238SOL    HW1  713   1.250   2.759   2.102  0.2832 -3.2624  1.2817
  238SOL    HW2  714   1.177   2.870   2.192  2.4082  0.2964 -3.4852
  239SOL     OW  715   0.993   2.489   1.979  0.6706 -0.4143 -0.3320
  239SOL    HW1  716   1.048   2.419   2.032 -0.7047 -0.1414 -1.5609
  239SOL    HW2  717   0.973   2.455   1.885  2.2468 -0.4577  1.3559
  240SOL     OW  718   2.121   0.070   0.708  0.4683 -0.4720  0.4595
  240SOL    HW1  719   2.047   0.139   0.688  0.3725  0.2920  0.9662
  240SOL    HW2  720   2.211   0.122   0.725  2.2887  0.7728 -1.3661
  241SOL     OW  721   1.016   1.446   2.710 -0.3092 -0.3762  0.4515
  241SOL    HW1  722   0.942   1.497   2.753  1.6118  0.8661  2.4125
  241SOL    HW2  723   1.109   1.492   2.723 -0.2222 -1.3294  1.0192
  242SOL     OW  724   2.693   0.941   2.936 -0.7461 -0.1605 -0.3403
  242SOL    HW1  725   2.723   0.860   2.990 -0.9764 -2.6012 -0.6040
  242SOL    HW2  726   2.645   0.912   2.853  0.2237  0.2622  2.1163
  243SOL     OW  727   0.873   0.331   1.681  0.3532 -0.1631 -0.1997
  243SOL    HW1  728   0.864   0.431   1.696 -1.1934 -0.2398 -0.2591
  243SOL    HW2  729   0.959   0.304   1.633  0.4046  0.5593 -0.7908
  244SOL     OW  730   1.134   3.022   3.037 -0.3316 -0.1311 -0.2514
  244SOL    HW1  731   1.119   2.925   3.066  4.3615 -1.4822 -1.2750
  244SOL    HW2  732   1.226   3.051   3.064 -0.2986 -0.7570  0.4493
  245SOL     OW  733   1.524   2.718   0.114 -0.0756 -0.3327 -0.3820
  245SOL    HW1  734   1.575   2.657   0.177 -1.8216  1.9030 -0.4614
  245SOL    HW2  735   1.574   2.809   0.097  1.0853  1.3714  1.0067
  246SOL     OW  736   0.737   0.917   1.812 -0.1576 -0.0570 -0.0791
  246SOL    HW1  737   0.698   0.998   1.859  0.4017  1.1121 -1.6452
  246SOL    HW2  738   0.835   0.885   1.837  0.5907  0.8712 -2.0860
  247SOL     OW  739   3.069   0.409   2.379 -0.5260 -0.0072 -0.9040
  247SOL    HW1  740   3.061   0.345   2.294  1.8346 -1.7669 -3.5005
  247SOL    HW2  741   0.053   0.419   2.406 -1.2360  0.8848 -0.8035
  248SOL     OW  742   0.012   1.351   1.997  0.5355 -0.6091 -0.0188
  248SOL    HW1  743   3.095   1.280   1.929 -1.5563 -0.9458 -0.1448
  248SOL    HW2  744   3.090   1.338   2.092 -2.4294  0.8163  0.2034
  249SOL     OW  745   0.012   0.429   0.152 -0.3813  0.5518 -0.4942
  249SOL    HW1  746   0.095   0.368   0.154  0.2966 -1.7637 -1.1060
  249SOL    HW2  747   3.050   0.389   0.201  1.5559 -0.9124  2.5524
  250SOL     OW  748   2.726   0.267   2.996 -0.1945 -0.5807  0.3652
  250SOL    HW1  749   2.752   0.322   3.080 -0.2337 -0.2795  3.5853
  250SOL    HW2  750   2.624   0.261   2.992  2.0597 -0.4283  2.9024
  251SOL     OW  751   1.031   1.873   1.925 -0.0388  0.4975 -0.0779
  251SOL    HW1  752   0.927   1.862   1.921 -0.8892  0.9084  0.0073
  251SOL    HW2  753   1.061   1.922   1.841  1.6567 -0.7418 -0.6288
  252SOL     OW  754   2.177   1.653   1.234 -1.1199  0.1467 -0.1808
  252SOL    HW1  755   2.252   1.601   1.189  1.0220  0.9171 -0.5707
  252SOL    HW2  756   2.097   1.589   1.244  1.4288 -0.0498 -1.1040
  253SOL     OW  757   1.614   2.276   2.203 -0.0019  0.0149 -0.3326
  253SOL    HW1  758   1.611   2.378   2.211 -0.6583  0.3909  1.0668
  253SOL    HW2  759   1.660   2.253   2.116  0.3669  2.6101  0.3678
  254SOL     OW  760   0.522   2.286   2.037 -0.1118  0.0867 -0.4850
  254SOL    HW1  761   0.583   2.212   2.009 -1.8883 -1.7840 -0.6045
  254SOL    HW2  762   0.553   2.345   2.116 -0.0143  1.8423 -1.3220
  255SOL     OW  763   1.126   0.281   0.870  0.5410  0.1611  0.1465
  255SOL    HW1  764   1.065   0.362   0.858 -0.5682 -0.6158 -1.2828
  255SOL    HW2  765   1.080   0.192   0.856  1.5564  1.3450 -3.8195
  256SOL     OW  766   2.328   2.033   1.403 -0.3374  0.1953 -0.5684
  256SOL    HW1  767   2.353   2.097   1.328 -0.2154 -0.3736 -0.3590
  256SOL    HW2  768   2.225   2.032   1.410 -0.0645  1.9876 -0.2888
  257SOL     OW  769   0.621   2.298   2.815  0.7477  0.3798 -0.2830
  257SOL    HW1  770   0.621   2.400   2.815  0.2018 -1.3740  2.4038
  257SOL    HW2  771   0.690   2.266   2.885 -2.8830  0.4137  2.0602
  258SOL     OW  772   0.437   0.936   2.150  0.2329  0.3084 -0.1300
  258SOL    HW1  773   0.394   0.865   2.208  1.0599 -1.1594 -0.5394
  258SOL    HW2  774   0.537   0.923   2.154  0.1311  0.5161  0.4658
  259SOL     OW  775   0.763   1.274   2.106 -0.0262 -0.4556  0.0894
  259SOL    HW1  776   0.797   1.215   2.184 -0.4460  0.5298 -1.8580
  259SOL    HW2  777   0.814   1.362   2.113  1.1339 -1.2011  1.7625
  260SOL     OW  778   2.091   0.791   0.929 -0.5168  0.4841  0.3995
  260SOL    HW1  779   2.192   0.784   0.957 -0.5377 -1.1851 -0.8303
  260SOL    HW2  780   2.085   0.865   0.858  0.8038 -1.2634 -1.9849
  261SOL     OW  781   0.849   0.107   0.836  0.1749  0.1543 -0.1833
  261SOL    HW1  782   0.804   0.188   0.789 -0.9953  0.5781 -2.9271
  261SOL    HW2  783   0.912   0.056   0.773 -0.7807 -1.6926 -1.0090
  262SOL     OW  784   2.013   2.685   2.524 -0.1597  0.4019  0.6995
  262SOL    HW1  785   1.962   2.635   2.598 -0.7315 -2.4654 -1.7112
  262SOL    HW2  786   2.106   2.647   2.516 -1.2988  1.8004  1.1914
  263SOL     OW  787   0.472   1.689   3.072  0.0089  0.5560  0.1931
  263SOL    HW1  788   0.409   1.760   3.034 -0.2678  1.0900  1.8227
  263SOL    HW2  789   0.438   1.602   3.035 -0.9704 -0.6639 -0.4555
  264SOL     OW  790   0.386   1.735   1.382  0.1964 -0.3760  0.3718
  264SOL    HW1  791   0.475   1.696   1.348 -2.0800 -3.1380 -0.9629
  264SOL    HW2  792   0.326   1.775   1.311 -3.7113 -1.0250  1.3983
  265SOL     OW  793   0.921   0.942   0.648 -0.1403 -0.0436 -0.0099
  265SOL    HW1  794   0.842   0.879   0.650 -0.2839  0.3395  1.1667
  265SOL    HW2  795   0.974   0.931   0.733 -1.7040 -0.9540  0.5497
  266SOL     OW  796   1.378   2.069   0.052 -0.3549  0.0601  0.2879
  266SOL    HW1  797   1.402   2.169   0.067  0.0384 -2.0722 -2.1456
  266SOL    HW2  798   1.454   2.021   0.004  1.6703 -0.5444 -2.2234
  267SOL     OW  799   0.364   0.640   2.798  0.1047  0.6091 -0.1817
  267SOL    HW1  800   0.285   0.584   2.835  1.3850 -2.2888 -2.1349
  267SOL    HW2  801   0.394   0.601   2.707  1.7950 -1.1240 -2.0851
  268SOL     OW  802   0.724   0.672   2.729  0.1517  0.0651 -0.5844
  268SOL    HW1  803   0.755   0.582   2.688  0.9148 -2.6855  0.5118
  268SOL    HW2  804   0.786   0.702   2.804  1.0182 -1.0604  1.4812
  269SOL     OW  805   1.672   2.975   2.547  0.7058  0.6544 -0.5671
  269SOL    HW1  806   1.662   3.074   2.532  0.6029  0.4717  1.8617
  269SOL    HW2  807   1.626   2.945   2.634  3.1112  1.1811 -0.3024
  270SOL     OW  808   0.622   1.022   2.409  0.1388  0.3290  0.5293
  270SOL    HW1  809   0.658   0.978   2.326 -0.1699 -2.2270 -0.7039
  270SOL    HW2  810   0.601   0.952   2.480  0.2208  0.7561  0.5315
  271SOL     OW  811   0.080   0.663   0.018 -0.5632 -0.5787  0.0303
  271SOL    HW1  812   0.159   0.702   0.064  1.5493 -0.8992 -1.3531
  271SOL    HW2  813   0.040   0.586   0.077  0.6119 -3.0237 -0.4420
  272SOL     OW  814   2.307   1.126   2.477 -0.4877  0.0429 -0.4048
  272SOL    HW1  815   2.213   1.129   2.439  0.6314  0.6886 -2.8766
  272SOL    HW2  816   2.373   1.065   2.423  2.1403  1.4559  0.4934
  273SOL     OW  817   3.070   0.241   2.171  0.5049 -0.4107 -0.4518
  273SOL    HW1  818   3.113   0.166   2.227  2.2188  0.3474  0.7879
  273SOL    HW2  819   3.013   0.201   2.101 -0.1444  0.3879  1.2121
  274SOL     OW  820   2.932   0.142   1.948  0.6205  0.2142  0.1304
  274SOL    HW1  821   3.001   0.069   1.926  0.1137 -0.8473 -0.9526
  274SOL    HW2  822   2.841   0.103   1.934  2.1895  0.8151  0.5663
  275SOL     OW  823   1.976   1.139   0.443 -0.4814  0.6309 -0.4523
  275SOL    HW1  824   2.043   1.077   0.393  0.1246  1.8004 -1.1222
  275SOL    HW2  825   1.909   1.172   0.376 -0.2852 -2.3109  1.1873
  276SOL     OW  826   0.348   1.195   2.917  0.3876 -0.0169 -0.0147
  276SOL    HW1  827   0.418   1.120   2.923  1.5708 -1.6710 -0.2634
  276SOL    HW2  828   0.323   1.214   2.816 -0.7948  2.2901 -1.5914
  277SOL     OW  829   1.768   2.903   2.285  0.6105  0.0201  0.1451
  277SOL    HW1  830   1.816   2.811   2.289  1.3961 -0.5555  1.2843
  277SOL    HW2  831   1.740   2.935   2.377  0.6804  2.3935  1.4564
  278SOL     OW  832   1.680   0.030   1.584 -0.6448  0.2038  0.5394
  278SOL    HW1  833   1.749   0.050   1.655 -0.6963 -0.5954  0.3100
  278SOL    HW2  834   1.592   0.084   1.598 -2.3585  1.7965 -0.8765
  279SOL     OW  835   1.331   1.322   3.044  0.4770  0.4547 -0.0228
  279SOL    HW1  836   1.357   1.419   3.031  0.4873  1.1462 -0.9628
  279SOL    HW2  837   1.406   1.252   3.035 -2.9222  0.5122 -0.4971
  280SOL     OW  838   0.731   1.224   0.317 -0.4094  0.0428  0.2291
  280SOL    HW1  839   0.783   1.312   0.325  5.2755  3.1190 -2.1223
  280SOL    HW2  840   0.793   1.146   0.330 -1.5726 -1.6798 -1.8577
  281SOL     OW  841   0.276   3.054   1.528  0.0546 -0.3279  0.9814
  281SOL    HW1  842   0.311   3.030   1.624  1.4768  1.0011  2.4025
  281SOL    HW2  843   0.266   0.042   1.517 -1.7457  2.4884 -1.1240
  282SOL     OW  844   3.022   2.407   0.795  0.0469  0.0938 -0.3172
  282SOL    HW1  845   3.002   2.506   0.796  1.4074 -2.0583  1.8262
  282SOL    HW2  846   0.006   2.388   0.775  1.3970  0.5291  0.9309
  283SOL     OW  847   1.281   2.308   1.892  0.1480 -0.3858  0.2601
  283SOL    HW1  848   1.279   2.284   1.994 -2.8730  0.6043  2.0081
  283SOL    HW2  849   1.352   2.382   1.874 -0.1285  2.4360  0.2372
  284SOL     OW  850   2.389   0.721   0.415  0.4319  0.0204 -0.0866
  284SOL    HW1  851   2.403   0.621   0.427 -0.0122 -0.3238  0.0545
  284SOL    HW2  852   2.401   0.735   0.314  3.9494 -0.5412  0.1029
  285SOL     OW  853   3.023   2.748   2.547  0.1961  0.5004 -0.5465
  285SOL    HW1  854   3.038   2.708   2.452  2.8948 -1.1830  1.0385
  285SOL    HW2  855   3.058   2.844   2.555 -0.3310 -2.8742  1.1343
  286SOL     OW  856   2.207   2.589   1.174 -0.5164  0.1459  0.1092
  286SOL    HW1  857   2.272   2.635   1.235  0.4835 -0.3778  1.8123
  286SOL    HW2  858   2.153   2.520   1.221 -1.2951  3.0314  3.0430
  287SOL     OW  859   0.827   1.375   1.179 -0.1015 -0.0946  0.0570
  287SOL    HW1  860   0.854   1.412   1.088 -0.6801 -2.7125  0.5139
  287SOL    HW2  861   0.789   1.278   1.176 -1.6696 -1.5460 -1.8226
  288SOL     OW  862   1.712   2.557   0.272 -0.1254  0.1211 -0.1988
  288SOL    HW1  863   1.662   2.474   0.296  2.0071  0.0293 -1.0516
  288SOL    HW2  864   1.759   2.545   0.185 -1.3964 -0.4546 -0.1134
  289SOL     OW  865   0.372   1.983   2.585 -0.0255  0.0975  0.4027
  289SOL    HW1  866   0.407   2.080   2.586  0.1559  1.5078  1.3069
  289SOL    HW2  867   0.387   1.941   2.494  2.1594 -0.8612  0.1940
  290SOL     OW  868   1.745   2.051   0.971 -0.1353  0.1026 -0.2771
  290SOL    HW1  869   1.820   2.103   1.026  1.9589  2.5553  1.6298
  290SOL    HW2  870   1.668   2.115   0.955 -0.7731 -0.0311  0.3805
  291SOL     OW  871   1.720   1.775   0.032  0.2772  0.7391  0.4303
  291SOL    HW1  872   1.808   1.751   3.096 -1.7914 -1.3080 -1.8754
  291SOL    HW2  873   1.681   1.693   0.078  0.2970  1.2006  0.6989
  292SOL     OW  874   1.621   1.594   1.030 -0.5012  0.2712  0.1341
  292SOL    HW1  875   1.583   1.647   0.950 -0.5613  2.9999  1.8230
  292SOL    HW2  876   1.716   1.623   1.043  0.1382  0.4980 -1.6398
  293SOL     OW  877   1.827   2.979   0.809 -0.0197  0.2016 -0.5730
  293SOL    HW1  878   1.904   3.013   0.870  1.9117 -1.3967  2.1629
  293SOL    HW2  879   1.803   2.882   0.814  1.0087  0.2454 -0.4374
  294SOL     OW  880   3.016   1.418   2.716 -0.0747  0.4890 -0.0408
  294SOL    HW1  881   2.939   1.428   2.782 -1.1772 -0.7132 -0.8510
  294SOL    HW2  882   3.008   1.327   2.675 -0.4325  1.4177 -0.8382
  295SOL     OW  883   1.324   2.094   2.859  0.2035  0.1921 -0.3323
  295SOL    HW1  884   1.319   2.187   2.846  1.1827 -1.7780 -0.4462
  295SOL    HW2  885   1.385   2.072   2.935 -0.3849 -1.4600  1.5466
  296SOL     OW  886   1.879   1.261   2.200 -0.3702 -0.1716  0.6815
  296SOL    HW1  887   1.945   1.281   2.119  2.3889 -0.5644 -3.4751
  296SOL    HW2  888   1.788   1.232   2.170 -0.1944 -0.6095  1.2381
  297SOL     OW  889   2.881   0.616   2.444  0.0368 -0.7876 -0.0091
  297SOL    HW1  890   2.948   0.540   2.431  0.4809 -1.4479  1.2884
  297SOL    HW2  891   2.811   0.618   2.368  1.2107 -0.3521 -0.7860
  298SOL     OW  892   1.172   2.340   2.180 -1.3606 -0.2044 -0.1200
  298SOL    HW1  893   1.207   2.419   2.237 -1.6243  0.8959  0.1341
  298SOL    HW2  894   1.155   2.254   2.238  0.5787 -2.1903  1.8835
  299SOL     OW  895   0.784   2.679   2.706  0.0699  0.6743 -0.0958
  299SOL    HW1  896   0.687   2.676   2.676 -0.7177  2.2197 -1.3863
  299SOL    HW2  897   0.807   2.769   2.744  1.2533  4.2821 -2.8355
  300SOL     OW  898   2.990   0.630   2.874 -0.5515  0.3176  0.7769
  300SOL    HW1  899   3.015   0.538   2.912  1.2328  0.2667  0.5644
  300SOL    HW2  900   3.071   0.692   2.889  0.2376  1.1425 -0.8542
  301SOL     OW  901   1.895   1.137   1.631 -0.3805 -0.1510 -0.3493
  301SOL    HW1  902   1.831   1.136   1.553  0.9199 -2.0297 -1.9004
  301SOL    HW2  903   1.846   1.164   1.714  1.4817 -1.4754  0.0409
  302SOL     OW  904   2.575   1.850   2.745 -0.6114  0.6224 -0.3462
  302SOL    HW1  905   2.622   1.867   2.654  1.1571 -3.1051  3.6163
  302SOL    HW2  906   2.497   1.781   2.728  1.3321 -1.2150  0.3685
  303SOL     OW  907   0.075   0.041   2.296  0.2884 -0.1993 -0.1782
  303SOL    HW1  908   0.148   0.106   2.297 -3.6544 -2.4068 -1.6114
  303SOL    HW2  909   0.052   0.006   2.393 -0.7366  0.7960  0.9848
  304SOL     OW  910   2.852   0.618   1.436  0.1075  0.0552 -0.1962
  304SOL    HW1  911   2.891   0.547   1.376 -0.5882  1.0924  1.5103
  304SOL    HW2  912   2.793   0.685   1.390 -1.5776 -1.2097  1.8367
  305SOL     OW  913   0.024   3.051   1.859  0.3410 -0.4237  0.7485
  305SOL    HW1  914   0.063   2.957   1.856 -2.6445  1.3230  1.3226
  305SOL    HW2  915   3.099   3.076   1.767  0.3892 -3.6313  1.6943
  306SOL     OW  916   2.985   1.287   1.580  0.3895  0.2646  0.0740
  306SOL    HW1  917   2.989   1.229   1.664 -0.2626  0.9309 -0.9078
  306SOL    HW2  918   3.004   1.227   1.499  0.2233  1.9972 -1.2899
  307SOL     OW  919   1.914   0.416   1.423  0.0571 -0.1109 -0.1418
  307SOL    HW1  920   1.902   0.445   1.521 -1.9482  0.6494  2.5534
  307SOL    HW2  921   1.964   0.491   1.376  2.3969 -0.1895 -2.0142
  308SOL     OW  922   0.224   1.874   1.213  0.2461  0.3452  0.2959
  308SOL    HW1  923   0.128   1.889   1.182  0.1148 -0.5127  1.8479
  308SOL    HW2  924   0.261   1.953   1.264  1.7955 -1.3767  0.4437
  309SOL     OW  925   2.270   1.686   1.516  0.3001 -0.0792 -0.0833
  309SOL    HW1  926   2.239   1.739   1.431 -2.3729  2.6803 -2.5629
  309SOL    HW2  927   2.291   1.746   1.597 -1.4696 -0.5447  0.4428
  310SOL     OW  928   2.643   1.689   2.968 -0.4592  0.0365 -0.2695
  310SOL    HW1  929   2.619   1.754   2.889 -0.9381  2.0187 -1.9968
  310SOL    HW2  930   2.715   1.737   3.024  0.9006  0.3714 -0.4029
  311SOL     OW  931   2.387   1.404   2.460  0.4621  0.3950 -0.5001
  311SOL    HW1  932   2.349   1.309   2.444  2.7503  1.0608 -0.7984
  311SOL    HW2  933   2.327   1.459   2.523  2.1843  2.4295  0.4642
  312SOL     OW  934   1.934   2.143   1.135 -0.0171 -0.1156  0.5733
  312SOL    HW1  935   1.899   2.151   1.231 -0.3612  1.5250  2.0294
  312SOL    HW2  936   2.008   2.069   1.131 -0.2813 -0.2822  0.3743
  313SOL     OW  937   0.197   2.491   1.124  0.1123  0.1359  0.5567
  313SOL    HW1  938   0.268   2.425   1.100 -0.7125 -2.2745  0.7024
  313SOL    HW2  939   0.108   2.454   1.093  2.1304  1.2306 -3.3980
  314SOL     OW  940   1.178   1.794   1.612  0.0104  0.1072  0.0294
  314SOL    HW1  941   1.137   1.827   1.522  0.8387 -2.6714  0.3447
  314SOL    HW2  942   1.198   1.872   1.674  1.1449  0.4563 -1.5340
  315SOL     OW  943   0.345   2.916   2.403 -0.5369  0.0716  0.2248
  315SOL    HW1  944   0.367   2.849   2.476  0.6706 -0.2263  3.0579
  315SOL    HW2  945   0.387   2.891   2.312  2.4697 -1.9764 -1.8737
  316SOL     OW  946   2.936   1.946   0.733 -0.1882 -0.3850 -0.0193
  316SOL    HW1  947   3.024   1.926   0.786  1.5106  0.6106  2.0360
  316SOL    HW2  948   2.891   1.861   0.712  2.9501  2.4078  1.9990
  317SOL     OW  949   1.877   0.411   0.244  0.2010 -0.2952  0.2856
  317SOL    HW1  950   1.778   0.376   0.235 -2.4286  1.8009 -1.9531
  317SOL    HW2  951   1.887   0.498   0.299  2.4105  0.1401  2.0484
  318SOL     OW  952   2.901   2.499   0.178 -0.1746  0.0538 -0.2018
  318SOL    HW1  953   2.889   2.589   0.134  0.3553 -1.5730 -1.7353
  318SOL    HW2  954   2.945   2.506   0.271 -0.7358  2.2141  1.9862
  319SOL     OW  955   1.306   1.723   0.255  0.5578 -0.2381 -0.0741
  319SOL    HW1  956   1.276   1.785   0.181  0.1992  2.1501 -0.0290
  319SOL    HW2  957   1.341   1.772   0.336  3.7902  1.2917  2.0515
  320SOL     OW  958   0.548   2.643   2.611  0.0869  0.3820  0.6929
  320SOL    HW1  959   0.506   2.608   2.697  1.2272  0.5654  0.7202
  320SOL    HW2  960   0.505   2.609   2.530 -0.9035 -0.0978  1.4250
  321SOL     OW  961   0.955   0.066   0.172 -0.4288  0.1277  0.0341
  321SOL    HW1  962   0.895   0.007   0.227 -3.0704 -0.6793 -0.0901
  321SOL    HW2  963   1.053   0.048   0.198  1.6947 -0.2093  2.5661
  322SOL     OW  964   2.339   1.111   1.992 -0.2446  0.2263  0.1200
  322SOL    HW1  965   2.252   1.116   1.936  0.8172  0.3632  0.7325
  322SOL    HW2  966   2.338   1.030   2.054 -0.1058  2.5037 -1.9551
  323SOL     OW  967   2.608   0.855   0.502  0.6794 -0.0837  0.0179
  323SOL    HW1  968   2.511   0.824   0.489  1.3498 -0.5793  0.8557
  323SOL    HW2  969   2.648   0.904   0.421  2.2326 -0.6176 -0.9691
  324SOL     OW  970   0.213   0.513   2.424  0.5051  0.4108 -0.0119
  324SOL    HW1  971   0.237   0.585   2.490 -3.3806  0.1394 -2.8255
  324SOL    HW2  972   0.272   0.514   2.340  0.5058 -2.6390 -1.6434
  325SOL     OW  973   1.101   3.001   2.267 -0.1169 -0.8036  0.1177
  325SOL    HW1  974   1.037   3.081   2.248 -2.5475  0.3761  0.6677
  325SOL    HW2  975   1.119   2.988   2.366  0.9955  1.2260  2.2369
  326SOL     OW  976   2.400   2.952   1.185  0.0970  0.0362 -0.1834
  326SOL    HW1  977   2.406   2.872   1.125 -0.1571  0.2305 -1.2221
  326SOL    HW2  978   2.306   2.973   1.210  1.0706  2.5533  0.6631
  327SOL     OW  979   1.808   0.865   3.039 -0.1081 -0.3245 -0.8774
  327SOL    HW1  980   1.777   0.935   2.972  1.8763 -0.4834  0.7495
  327SOL    HW2  981   1.729   0.812   3.072  3.4278 -0.1884 -1.3066
  328SOL     OW  982   2.886   1.621   2.094 -0.1751 -0.4164  0.0369
  328SOL    HW1  983   2.974   1.668   2.083 -2.4809  1.2331  0.3180
  328SOL    HW2  984   2.886   1.577   2.185  1.3717 -0.8191 -3.9713
  329SOL     OW  985   1.680   2.726   1.824 -0.1174 -0.2855 -0.1842
  329SOL    HW1  986   1.680   2.626   1.853  3.5308  0.0266 -2.4548
  329SOL    HW2  987   1.587   2.769   1.803  0.7652  0.8865 -2.8131
  330SOL     OW  988   2.441   1.759   2.024  0.1002 -0.2993  0.7798
  330SOL    HW1  989   2.470   1.663   2.011 -2.5851  0.2990 -1.9227
  330SOL    HW2  990   2.518   1.823   2.047  1.1826  1.3477 -0.2653
  331SOL     OW  991   2.833   2.199   0.794 -0.5281  0.4911  0.2948
  331SOL    HW1  992   2.859   2.101   0.804  1.5683  0.4601  0.8850
  331SOL    HW2  993   2.914   2.252   0.775 -0.1437 -1.1195 -0.0261
  332SOL     OW  994   0.541   0.035   0.443  0.2441  0.1946 -0.1645
  332SOL    HW1  995   0.462   0.051   0.502  2.8166 -1.3653 -0.7648
  332SOL    HW2  996   0.516   0.042   0.346  2.1429  0.3007 -0.6451
  333SOL     OW  997   1.933   0.043   2.269 -0.2166  0.5136 -0.9350
  333SOL    HW1  998   1.888   3.066   2.271  0.6533 -2.3795 -0.6538
  333SOL    HW2  999   1.919   0.089   2.184 -0.0207 -0.4733  0.2776
  334SOL     OW 1000   0.883   1.452   0.919  0.0759 -0.6367 -0.4684
  334SOL    HW1 1001   0.856   1.410   0.833  2.2199  0.4865  3.1614
  334SOL    HW2 1002   0.987   1.467   0.917 -0.3527 -1.2681  1.5989
  335SOL     OW 1003   3.082   2.629   2.313 -0.4786  0.2834  0.0624
  335SOL    HW1 1004   0.057   2.599   2.275  0.1373 -0.7497 -2.5282
  335SOL    HW2 1005   3.004   2.580   2.271  1.9989  0.5218 -0.1071
  336SOL     OW 1006   2.804   2.858   2.029  0.6549 -0.0746 -0.2520
  336SOL    HW1 1007   2.797   2.846   2.131 -0.5234 -0.5844  0.6072
  336SOL    HW2 1008   2.790   2.951   1.999  0.8772 -6.4576  0.2254
  337SOL     OW 1009   2.105   1.335   0.572 -0.3346  0.0405 -0.0991
  337SOL    HW1 1010   2.189   1.302   0.616  1.0587 -0.7943  3.0234
  337SOL    HW2 1011   2.065   1.266   0.506  0.8355 -2.1181  0.1140
  338SOL     OW 1012   1.072   1.736   1.125  0.1984  0.0966 -0.1520
  338SOL    HW1 1013   1.051   1.656   1.183 -0.3097 -0.6754  2.9728
  338SOL    HW2 1014   1.155   1.786   1.154 -0.2641 -2.1990 -2.3709
  339SOL     OW 1015   2.992   0.803   1.127  0.2173 -0.0038  0.3607
  339SOL    HW1 1016   3.066   0.792   1.194 -0.9103  1.7194 -0.7925
  339SOL    HW2 1017   2.902   0.835   1.163  0.2184  1.8125 -2.1134
  340SOL     OW 1018   1.516   2.935   2.170 -0.4625  0.3670  0.2957
  340SOL    HW1 1019   1.437   2.876   2.192 -1.7543 -1.0110 -1.2574
  340SOL    HW2 1020   1.604   2.902   2.212  0.8417  2.2379  0.4612
  341SOL     OW 1021   2.315   1.143   0.705  0.0409 -0.2742 -0.2232
  341SOL    HW1 1022   2.365   1.226   0.742  0.9092  1.7792  2.9495
  341SOL    HW2 1023   2.377   1.062   0.710  0.1984  3.1267  2.2501
  342SOL     OW 1024   0.035   1.601   0.739  0.2067 -0.1029  0.2480
  342SOL    HW1 1025   3.085   1.643   0.806 -1.7720 -0.1740 -2.5542
  342SOL    HW2 1026   0.061   1.666   0.669  1.9957 -1.6696  3.7529
  343SOL     OW 1027   2.535   1.243   1.527 -0.2497 -0.0243  0.3372
  343SOL    HW1 1028   2.569   1.201   1.614 -0.2775  0.3772 -0.1616
  343SOL    HW2 1029   2.516   1.341   1.545 -1.1922  0.5687 -1.1822
  344SOL     OW 1030   2.079   0.425   1.033 -0.0829 -0.5434  0.0171
  344SOL    HW1 1031   2.017   0.345   1.013 -1.2384 -1.4590  0.4388
  344SOL    HW2 1032   2.081   0.445   1.134  1.1442  0.1786  2.7496
  345SOL     OW 1033   0.139   2.900   2.199 -0.3421  0.0174  0.5391
  345SOL    HW1 1034   0.109   2.853   2.285  0.1149  1.2198  1.4324
  345SOL    HW2 1035   0.122   2.998   2.196  1.0310  0.1073 -1.7917
  346SOL     OW 1036   2.915   1.524   0.152 -0.3608  0.1982 -0.3181
  346SOL    HW1 1037   2.888   1.592   0.084  2.3245 -0.0341  0.1525
  346SOL    HW2 1038   2.964   1.452   0.104  1.0918  0.0365  1.6613
  347SOL     OW 1039   1.475   2.505   1.581  0.6315 -0.0120 -0.0726
  347SOL    HW1 1040   1.579   2.499   1.572  2.5277  1.0379 -0.3535
  347SOL    HW2 1041   1.439   2.492   1.488  0.1842 -1.2034 -0.4385
  348SOL     OW 1042   1.076   1.111   1.850  0.0252 -0.8376  0.0462
  348SOL    HW1 1043   1.056   1.174   1.773 -0.3836 -2.6914  1.5388
  348SOL    HW2 1044   1.170   1.133   1.886 -1.4361 -2.8973 -2.7871
  349SOL     OW 1045   2.490   1.536   2.246  0.3043  0.5359  0.5079
  349SOL    HW1 1046   2.451   1.486   2.328 -0.7853 -0.6990 -0.3395
  349SOL    HW2 1047   2.488   1.637   2.253 -1.5999  0.9697  3.2300
  350SOL     OW 1048   2.669   2.281   0.441 -0.1312 -0.2957 -0.4792
  350SOL    HW1 1049   2.683   2.295   0.341  1.6848  1.6142 -0.5250
  350SOL    HW2 1050   2.681   2.363   0.500 -1.0575 -0.0797  1.8658
  351SOL     OW 1051   0.215   0.345   1.868  0.5873 -0.1823  0.0871
  351SOL    HW1 1052   0.195   0.246   1.880  0.2323 -0.4350  0.8226
  351SOL    HW2 1053   0.137   0.401   1.910 -0.9658 -1.7894  0.5127
  352SOL     OW 1054   1.108   2.368   1.711 -0.4904  0.0279  0.0242
  352SOL    HW1 1055   1.120   2.458   1.669 -2.5703 -0.4616  0.4423
  352SOL    HW2 1056   1.178   2.341   1.782  0.6558  0.5005  0.8725
  353SOL     OW 1057   0.994   1.216   2.269  0.2958  0.3682 -0.2051
  353SOL    HW1 1058   0.997   1.242   2.369  0.0169  1.7726  1.0989
  353SOL    HW2 1059   1.064   1.269   2.225  1.0307 -2.1611  0.7361
  354SOL     OW 1060   1.293   1.668   0.636 -0.2229 -0.0030  0.1227
  354SOL    HW1 1061   1.318   1.743   0.573 -1.6822  0.7564  0.0587
  354SOL    HW2 1062   1.190   1.665   0.638 -0.0781  0.5602 -2.4679
  355SOL     OW 1063   1.927   0.238   0.918  0.5805  0.1175 -0.2552
  355SOL    HW1 1064   1.857   0.219   0.992  2.0250  1.6847  2.2240
  355SOL    HW2 1065   1.896   0.201   0.825  1.0836  1.0377 -2.5592
  356SOL     OW 1066   3.033   1.341   3.085  0.0963 -0.0698  0.1129
  356SOL    HW1 1067   3.095   1.266   3.069  1.4577 -1.5315 -1.3493
  356SOL    HW2 1068   2.938   1.308   3.070 -0.5932 -0.8038  0.5055
  357SOL     OW 1069   0.375   2.950   1.756 -0.2904 -0.4560  0.3946
  357SOL    HW1 1070   0.392   3.009   1.838  2.1775  4.0126 -0.5163
  357SOL    HW2 1071   0.300   2.884   1.774  0.2073  1.7193 -0.9219
  358SOL     OW 1072   0.443   1.428   2.995 -0.1929 -0.1314  0.2488
  358SOL    HW1 1073   0.383   1.355   2.964  2.5976  2.5002  0.9867
  358SOL    HW2 1074   0.497   1.401   3.077 -0.7184  1.2779  1.4186
  359SOL     OW 1075   2.737   2.656   2.559  0.2547 -0.2084 -0.1998
  359SOL    HW1 1076   2.682   2.682   2.640 -1.7435  2.9166 -1.0436
  359SOL    HW2 1077   2.828   2.697   2.561 -0.7664  0.9313 -1.3769
  360SOL     OW 1078   1.647   1.325   0.950 -0.1850  0.0702  0.3043
  360SOL    HW1 1079   1.631   1.322   0.849 -1.8453 -1.9263  0.4453
  360SOL    HW2 1080   1.602   1.405   0.996  0.8599  0.7131 -0.4778
  361SOL     OW 1081   2.098   2.396   1.309  0.1817 -0.1850 -0.5444
  361SOL    HW1 1082   2.038   2.314   1.281  0.2662 -4.0293 -2.1983
  361SOL    HW2 1083   2.157   2.372   1.386 -2.5964  3.9819 -0.4004
  362SOL     OW 1084   1.671   1.367   0.678 -0.0617  0.2438  0.0793
  362SOL    HW1 1085   1.757   1.396   0.624  1.8929  2.1226 -3.1025
  362SOL    HW2 1086   1.588   1.401   0.636  3.0720  0.9940  1.1160
  363SOL     OW 1087   2.461   2.157   0.558 -0.5950 -0.4333  0.7352
  363SOL    HW1 1088   2.505   2.106   0.633  1.2694 -0.3654 -1.0048
  363SOL    HW2 1089   2.530   2.210   0.502  2.3490  0.3575 -2.1670
  364SOL     OW 1090   2.807   0.062   1.281 -0.6064  0.5016 -0.7378
  364SOL    HW1 1091   2.796   0.137   1.347 -1.4329 -0.7439  0.0212
  364SOL    HW2 1092   2.904   0.041   1.257  1.0897 -1.9908  1.1472
  365SOL     OW 1093   0.477   2.737   0.879 -0.0469  0.1578 -0.1318
  365SOL    HW1 1094   0.477   2.840   0.875  2.0247 -1.2143 -1.2327
  365SOL    HW2 1095   0.540   2.710   0.950 -1.4006  1.1985 -2.9112
  366SOL     OW 1096   0.568   1.482   0.568 -0.3185 -0.1813  0.4135
  366SOL    HW1 1097   0.525   1.527   0.488  2.5310  2.7587  0.1297
  366SOL    HW2 1098   0.509   1.429   0.630 -0.3715  2.0980 -1.6065
  367SOL     OW 1099   2.604   2.591   2.799 -0.8862  0.0540 -0.2687
  367SOL    HW1 1100   2.515   2.630   2.777  0.1671 -0.2301  1.8823
  367SOL    HW2 1101   2.601   2.487   2.818  2.5284 -2.0817  0.7960
  368SOL     OW 1102   2.656   1.828   0.892 -0.4381 -0.6218  0.1711
  368SOL    HW1 1103   2.586   1.799   0.960  2.0893  2.9814 -1.2442
  368SOL    HW2 1104   2.724   1.756   0.882 -1.9530 -0.0241  0.9257
  369SOL     OW 1105   0.932   1.063   0.404  0.7110  0.4804 -0.0710
  369SOL    HW1 1106   0.915   1.022   0.498  0.3868  2.4761 -1.7797
  369SOL    HW2 1107   1.018   1.114   0.409 -0.2743  0.3802 -1.7789
  370SOL     OW 1108   0.197   2.978   0.911  0.2102 -0.2802  0.0237
  370SOL    HW1 1109   0.133   2.924   0.852 -1.8338 -0.8799  0.4841
  370SOL    HW2 1110   0.235   2.919   0.984  2.3177  2.1964  0.8435
  371SOL     OW 1111   2.706   1.260   2.744  0.1627 -0.2574 -0.4134
  371SOL    HW1 1112   2.668   1.336   2.688 -1.0013  0.4196 -0.2275
  371SOL    HW2 1113   2.695   1.174   2.687 -1.0181 -1.0607  0.1770
  372SOL     OW 1114   0.729   0.427   2.314  0.0130 -0.2104  0.0447
  372SOL    HW1 1115   0.725   0.485   2.229  0.4366  0.4514  0.9015
  372SOL    HW2 1116   0.634   0.393   2.342  2.0107 -0.6232 -2.2382
  373SOL     OW 1117   0.589   0.519   2.957 -0.2716  0.6497  0.2617
  373SOL    HW1 1118   0.637   0.575   2.889 -1.1092  0.5555 -2.5836
  373SOL    HW2 1119   0.655   0.462   3.008 -0.9506 -2.4664 -2.2693
  374SOL     OW 1120   1.009   2.378   0.186  0.0877 -0.1042  0.5991
  374SOL    HW1 1121   1.059   2.367   0.096  0.1102  2.7843 -0.9222
  374SOL    HW2 1122   0.912   2.349   0.187  2.2526  1.2911  1.2118
  375SOL     OW 1123   0.775   0.064   1.108 -0.5602 -0.1236  0.0633
  375SOL    HW1 1124   0.832   0.079   1.027  2.1332  0.2587  0.1102
  375SOL    HW2 1125   0.677   0.066   1.077 -0.3206 -2.0549 -3.5451
  376SOL     OW 1126   0.289   2.320   1.905 -0.2169  0.5222 -0.6479
  376SOL    HW1 1127   0.221   2.360   1.971 -2.3114 -1.2776 -3.3608
  376SOL    HW2 1128   0.380   2.301   1.943  0.6268 -0.2318 -0.2722
  377SOL     OW 1129   2.292   1.979   3.101  0.1638 -0.0741  0.2683
  377SOL    HW1 1130   2.213   2.040   0.013 -0.3672  0.2479  1.1176
  377SOL    HW2 1131   2.317   2.002   3.001  2.5722 -1.0066  0.2412
  378SOL     OW 1132   2.146   0.386   0.606  0.1790 -0.3177  0.0951
  378SOL    HW1 1133   2.088   0.455   0.653 -0.3394 -2.0749  0.2720
  378SOL    HW2 1134   2.221   0.347   0.668 -0.0869 -0.5887 -1.7789
  379SOL     OW 1135   1.286   0.611   0.929  0.5600 -0.0970  0.0570
  379SOL    HW1 1136   1.184   0.601   0.923 -1.7661 -2.4427 -0.1212
  379SOL    HW2 1137   1.332   0.563   0.855 -0.7630  0.6031  0.5065
  380SOL     OW 1138   2.496   2.089   1.790  0.0916  0.3892 -0.7865
  380SOL    HW1 1139   2.580   2.023   1.791 -0.1276 -2.8548  0.7112
  380SOL    HW2 1140   2.494   2.154   1.714 -2.8239  0.5578  0.4030
  381SOL     OW 1141   2.833   1.351   2.000 -0.3730  0.3747 -0.0538
  381SOL    HW1 1142   2.840   1.449   2.025  0.6235 -0.4369  2.7548
  381SOL    HW2 1143   2.803   1.294   2.082  0.0611 -3.2769  1.2131
  382SOL     OW 1144   2.987   2.141   2.817  0.2668  0.0602  0.6284
  382SOL    HW1 1145   2.993   2.226   2.756  1.9753  1.2720  0.5621
  382SOL    HW2 1146   3.032   2.156   2.902 -0.7267 -1.2719 -0.6293
  383SOL     OW 1147   1.045   0.847   2.294  0.2463  0.4555 -0.1392
  383SOL    HW1 1148   1.005   0.924   2.239 -2.2376 -1.9311 -1.2200
  383SOL    HW2 1149   1.087   0.888   2.379 -0.0695  3.8491 -1.8508
  384SOL     OW 1150   1.146   2.092   2.373  0.0547  0.0867 -0.0740
  384SOL    HW1 1151   1.247   2.101   2.361 -0.9784  0.4994 -1.4176
  384SOL    HW2 1152   1.121   1.994   2.353  1.3340 -2.4967  0.0819
  385SOL     OW 1153   2.445   2.654   0.071  0.0105  0.1767  0.0599
  385SOL    HW1 1154   2.449   2.551   0.064 -1.4708 -1.6474  0.5787
  385SOL    HW2 1155   2.499   2.700   0.142 -2.6289 -0.3664 -3.3862
  386SOL     OW 1156   1.397   1.182   0.621  0.3970  0.0527 -0.1539
  386SOL    HW1 1157   1.356   1.206   0.711 -0.9767  0.4452 -1.5777
  386SOL    HW2 1158   1.480   1.127   0.630  1.0806 -0.2437  2.6533
  387SOL     OW 1159   0.016   1.736   1.779 -0.2698 -0.0606 -0.5295
  387SOL    HW1 1160   0.052   1.705   1.872 -0.2078 -0.6382  1.1371
  387SOL    HW2 1161   0.088   1.717   1.710 -0.9173 -0.4549 -2.8788
  388SOL     OW 1162   0.696   1.101   1.520 -0.2623  0.1001  0.0801
  388SOL    HW1 1163   0.787   1.133   1.489 -1.0835  0.1996 -0.1775
  388SOL    HW2 1164   0.705   1.018   1.579 -1.7352 -3.4713  1.0230
  389SOL     OW 1165   2.052   0.810   2.350 -0.4833  0.2058  0.3252
  389SOL    HW1 1166   2.102   0.753   2.416  3.4420 -0.4167 -2.5637
  389SOL    HW2 1167   2.068   0.908   2.375 -1.1289  1.5842  0.6803
  390SOL     OW 1168   0.977   1.989   0.338 -0.5947 -0.1747  0.0363
  390SOL    HW1 1169   0.889   1.995   0.285 -1.5833  0.8633 -2.4242
  390SOL    HW2 1170   0.982   1.899   0.387  1.3425 -2.6284  1.7067
  391SOL     OW 1171   0.930   2.001   0.691  0.1615 -0.2240 -0.0105
  391SOL    HW1 1172   0.907   1.941   0.770 -0.2158  1.1136 -1.7125
  391SOL    HW2 1173   0.862   1.997   0.614 -0.5906 -0.1645 -0.5730
  392SOL     OW 1174   2.725   2.457   2.094 -0.1012 -0.4266  0.7320
  392SOL    HW1 1175   2.678   2.366   2.088  1.8013 -1.1846  2.5307
  392SOL    HW2 1176   2.815   2.448   2.137 -0.9168  0.3723  0.3737
  393SOL     OW 1177   1.429   2.344   0.037 -0.1534  0.2183  0.2758
  393SOL    HW1 1178   1.504   2.371   0.106 -1.1358  0.3242 -0.4048
  393SOL    HW2 1179   1.462   2.372   3.059  2.8373  3.7118  0.0745
  394SOL     OW 1180   0.284   0.244   2.198  0.4239 -0.2632 -0.1946
  394SOL    HW1 1181   0.319   0.340   2.189  0.5753 -1.8167 -2.1178
  394SOL    HW2 1182   0.265   0.203   2.107  1.2268 -1.4888 -0.7519
  395SOL     OW 1183   0.085   1.253   1.217  0.0672 -0.1419  0.0158
  395SOL    HW1 1184   0.100   1.326   1.289 -0.6827  2.1587  2.1305
  395SOL    HW2 1185   0.161   1.252   1.148  0.0053  0.2922  1.9689
  396SOL     OW 1186   2.192   1.496   2.641  0.2149  0.2622 -0.1562
  396SOL    HW1 1187   2.185   1.398   2.666 -1.0456 -0.6330 -0.5061
  396SOL    HW2 1188   2.106   1.540   2.670  2.1703 -2.8255 -0.1967
  397SOL     OW 1189   0.554   1.005   2.885  0.2723 -0.1282  0.5342
  397SOL    HW1 1190   0.559   0.968   2.792 -0.9051 -0.1942  0.9884
  397SOL    HW2 1191   0.617   1.080   2.903 -0.8128 -0.6626 -0.3948
  398SOL     OW 1192   0.959   2.729   0.502  0.0493 -0.2396  0.0912
  398SOL    HW1 1193   1.057   2.722   0.518  1.4604 -0.8573  1.1221
  398SOL    HW2 1194   0.926   2.824   0.515 -1.3084  0.4468 -2.0781
  399SOL     OW 1195   1.877   2.663   2.275 -0.3075  0.3858 -1.0492
  399SOL    HW1 1196   1.948   2.678   2.347 -5.7306  0.2823 -0.4794
  399SOL    HW2 1197   1.907   2.581   2.219  0.8912  0.0137  0.9830
  400SOL     OW 1198   0.303   1.308   1.937  0.3625 -0.0862  0.2222
  400SOL    HW1 1199   0.211   1.351   1.947 -0.1975 -0.0731 -0.8305
  400SOL    HW2 1200   0.371   1.378   1.923 -1.3843  1.1000  0.2471
  401SOL     OW 1201   0.693   0.796   0.684 -0.1239 -0.6457 -0.2197
  401SOL    HW1 1202   0.663   0.877   0.739  1.0976  1.5376  1.0909
  401SOL    HW2 1203   0.647   0.713   0.710 -0.0198  0.9036 -0.2364
  402SOL     OW 1204   0.851   0.059   2.524  0.5379 -0.0802 -0.1656
  402SOL    HW1 1205   0.844   0.123   2.603 -0.9659  0.9340  0.9071
  402SOL    HW2 1206   0.924   3.110   2.531 -4.5404  1.3131  0.1998
  403SOL     OW 1207   2.701   1.921   1.819 -0.2405 -0.1163  0.4293
  403SOL    HW1 1208   2.689   1.887   1.916  1.1748 -1.8163  3.0687
  403SOL    HW2 1209   2.758   1.854   1.767  3.5036  1.3614 -0.9571
  404SOL     OW 1210   2.622   2.318   1.585  0.4098  0.5874 -0.5237
  404SOL    HW1 1211   2.700   2.353   1.638 -2.9342  0.5256 -0.5226
  404SOL    HW2 1212   2.633   2.218   1.564 -0.3851 -0.2801  0.0626
  405SOL     OW 1213   1.904   0.148   2.756  0.5122 -0.2044  0.0371
  405SOL    HW1 1214   1.926   0.053   2.791 -0.7526 -1.2725  2.2574
  405SOL    HW2 1215   1.951   0.167   2.669 -0.5546 -0.6420  0.9689
  406SOL     OW 1216   1.147   1.928   0.112 -0.3776  0.1113 -0.2312
  406SOL    HW1 1217   1.224   1.982   0.068  0.0988  0.7414  0.7303
  406SOL    HW2 1218   1.110   1.982   0.191 -0.4977 -0.4621  1.4787
  407SOL     OW 1219   1.662   1.512   0.404 -0.0275  0.4419 -0.1780
  407SOL    HW1 1220   1.591   1.476   0.473 -1.6234 -1.0785 -0.4975
  407SOL    HW2 1221   1.745   1.541   0.455 -2.7217  1.7192  0.4293
  408SOL     OW 1222   0.092   0.521   1.401  0.4021  0.3896 -0.0613
  408SOL    HW1 1223   0.081   0.557   1.499  2.0332  0.4409 -2.4784
  408SOL    HW2 1224   0.192   0.516   1.378 -0.1494  0.4645  2.2965
  409SOL     OW 1225   2.640   1.404   0.058 -0.5910  0.0443 -0.5210
  409SOL    HW1 1226   2.604   1.338   0.126  0.8382 -2.5250 -1.7138
  409SOL    HW2 1227   2.622   1.499   0.092 -2.7474 -0.2298 -0.3289
  410SOL     OW 1228   2.581   2.497   0.624 -0.2553  0.1349  0.5569
  410SOL    HW1 1229   2.495   2.548   0.644 -0.4088 -0.1405 -2.7726
  410SOL    HW2 1230   2.613   2.445   0.704 -2.1011  0.9350 -3.5162
  411SOL     OW 1231   0.445   0.195   0.006 -0.0066  0.3050  0.5164
  411SOL    HW1 1232   0.542   0.180   0.037 -0.2400  0.0810  0.7743
  411SOL    HW2 1233   0.444   0.221   3.021  0.5200 -0.6605 -1.5703
  412SOL     OW 1234   1.569   3.095   0.375  0.0293  0.1189 -0.1028
  412SOL    HW1 1235   1.482   3.058   0.414  1.5411  0.6567 -1.5078
  412SOL    HW2 1236   1.647   3.074   0.439 -0.0218 -0.0702 -0.6703
  413SOL     OW 1237   1.667   0.736   2.315  0.2695  0.1244  0.3609
  413SOL    HW1 1238   1.746   0.770   2.260 -0.6887 -0.4482 -2.4723
  413SOL    HW2 1239   1.612   0.671   2.257 -0.0702 -0.6138 -1.0137
  414SOL     OW 1240   0.027   0.614   0.532 -0.1527  0.5363  0.1767
  414SOL    HW1 1241   0.009   0.705   0.493  2.6751  1.5286  1.8059
  414SOL    HW2 1242   0.127   0.595   0.558  2.5412 -0.1589  0.1205
  415SOL     OW 1243   2.943   1.107   0.433 -0.0323  0.5985  0.1009
  415SOL    HW1 1244   2.919   1.086   0.335 -0.8596  2.1050 -0.4544
  415SOL    HW2 1245   2.951   1.206   0.452  1.3305 -1.8988 -0.2466
  416SOL     OW 1246   2.585   0.379   2.658  0.0754 -0.1710 -0.1528
  416SOL    HW1 1247   2.548   0.408   2.566  1.0069 -0.4118 -0.1099
  416SOL    HW2 1248   2.671   0.435   2.668  0.9811 -0.8867 -1.4135
  417SOL     OW 1249   2.322   0.228   0.743 -0.0707 -0.3303  0.2667
  417SOL    HW1 1250   2.354   0.236   0.839 -1.1224 -3.4418 -2.6160
  417SOL    HW2 1251   2.397   0.197   0.684 -0.2420 -1.5067  0.7361
  418SOL     OW 1252   0.709   0.039   2.903 -0.3409 -0.0610  0.2906
  418SOL    HW1 1253   0.695   0.092   2.990 -3.0124  1.0422 -0.5011
  418SOL    HW2 1254   0.631   3.086   2.893 -2.4779  0.1383  1.8980
  419SOL     OW 1255   0.225   0.625   0.923 -0.1336  0.5152  0.3183
  419SOL    HW1 1256   0.230   0.706   0.991 -2.5638 -0.7872 -0.6940
  419SOL    HW2 1257   0.252   0.545   0.975 -1.3059  2.8104  1.4882
  420SOL     OW 1258   3.015   1.104   1.372  0.0040  0.5801  0.4137
  420SOL    HW1 1259   3.073   1.142   1.300 -4.7823  0.7178  2.3974
  420SOL    HW2 1260   2.929   1.066   1.336  0.3409  0.0845 -0.1058
  421SOL     OW 1261   1.018   2.058   2.982 -0.3204 -0.1778  0.3052
  421SOL    HW1 1262   1.012   1.985   3.060 -1.0638 -2.5854  0.2318
  421SOL    HW2 1263   1.074   2.025   2.908  0.4230  1.3571  2.2561
  422SOL     OW 1264   2.318   0.349   2.241  0.0929  0.3353 -0.1731
  422SOL    HW1 1265   2.323   0.275   2.176 -2.6363  0.2742  1.4519
  422SOL    HW2 1266   2.310   0.444   2.197 -1.0251  2.2647  2.0247
  423SOL     OW 1267   1.942   1.533   0.249  0.1355 -0.1457 -0.1862
  423SOL    HW1 1268   1.962   1.573   0.157  1.5644 -0.2857 -0.1279
  423SOL    HW2 1269   1.872   1.587   0.300 -0.3606  1.8241  0.2538
  424SOL     OW 1270   1.309   1.173   2.000  0.3139 -0.3316 -0.5629
  424SOL    HW1 1271   1.272   1.256   2.048 -1.0180 -2.6599  0.3514
  424SOL    HW2 1272   1.305   1.095   2.065  3.5152  1.4379 -1.8041
  425SOL     OW 1273   0.082   2.453   2.070 -0.0880 -0.2343  0.6976
  425SOL    HW1 1274   0.151   2.508   2.121 -0.7162 -0.8031  0.8036
  425SOL    HW2 1275   0.052   2.510   1.986  1.2747  1.0935  1.9947
  426SOL     OW 1276   2.337   2.784   0.655  0.4114 -0.3110  0.4452
  426SOL    HW1 1277   2.425   2.807   0.700 -2.3244  2.8690 -1.7034
  426SOL    HW2 1278   2.267   2.764   0.727  1.5604 -0.9383  1.9302
  427SOL     OW 1279   0.565   0.865   2.633  0.3820  0.3953  0.2267
  427SOL    HW1 1280   0.487   0.823   2.581 -0.4505  0.6812 -0.4836
  427SOL    HW2 1281   0.625   0.794   2.672 -1.8128  1.4258 -1.9598
  428SOL     OW 1282   2.807   1.454   2.892 -0.0157 -0.4494  0.3907
  428SOL    HW1 1283   2.742   1.526   2.911 -0.3517 -4.1190 -2.0008
  428SOL    HW2 1284   2.768   1.378   2.834  0.8879 -0.3441  0.3772
  429SOL     OW 1285   2.542   0.518   0.164  0.2091 -0.5288  0.0626
  429SOL    HW1 1286   2.513   0.471   0.247  1.6265  0.2446 -1.3804
  429SOL    HW2 1287   2.508   0.615   0.149  0.0051  1.0762  1.7079
  430SOL     OW 1288   1.412   2.093   2.306 -0.2042  0.2547  0.1852
  430SOL    HW1 1289   1.468   2.024   2.357 -1.4664 -0.5730  1.3060
  430SOL    HW2 1290   1.463   2.167   2.261  2.0826 -1.9620  0.3130
  431SOL     OW 1291   0.266   2.077   1.722  0.2715 -0.1874  0.0080
  431SOL    HW1 1292   0.169   2.056   1.695 -0.7878 -0.6378 -0.1272
  431SOL    HW2 1293   0.270   2.170   1.761 -2.1460  0.1623  0.0500
  432SOL     OW 1294   1.559   2.442   1.872  0.1355  0.4431  0.8100
  432SOL    HW1 1295   1.627   2.366   1.879  1.5169 -0.5681  2.5856
  432SOL    HW2 1296   1.533   2.463   1.776  0.0510  3.1866 -0.4648
  433SOL     OW 1297   1.108   2.229   0.412 -0.3881 -0.1542  0.0104
  433SOL    HW1 1298   1.087   2.293   0.335  2.7545 -0.7569  0.0437
  433SOL    HW2 1299   1.059   2.140   0.399  1.9906  1.3630 -1.7916
  434SOL     OW 1300   0.391   2.232   2.669  0.5740  0.9567  0.2884
  434SOL    HW1 1301   0.480   2.253   2.722 -2.9311  1.1064  1.2171
  434SOL    HW2 1302   0.313   2.252   2.733  1.8663 -2.1209 -1.2956
  435SOL     OW 1303   3.103   0.862   0.410  0.2313  0.2011  0.5304
  435SOL    HW1 1304   3.047   0.945   0.423  0.1463 -1.2761  2.3953
  435SOL    HW2 1305   0.084   0.897   0.417  1.1566 -0.2424  0.8901
  436SOL     OW 1306   0.543   2.770   1.598  0.1761 -0.3289 -0.3390
  436SOL    HW1 1307   0.491   2.850   1.639  0.0601  2.1113  0.6759
  436SOL    HW2 1308   0.634   2.801   1.566 -1.0277  2.7650  3.2048
  437SOL     OW 1309   0.765   0.349   0.715  0.3786  0.2603  0.2993
  437SOL    HW1 1310   0.846   0.411   0.716  1.6029 -0.1465 -0.3611
  437SOL    HW2 1311   0.724   0.343   0.624  1.7209  3.3285  1.2802
  438SOL     OW 1312   0.534   2.056   0.715 -0.6241 -0.1752  0.2160
  438SOL    HW1 1313   0.562   2.153   0.709 -0.2774 -0.9334 -0.5248
  438SOL    HW2 1314   0.534   2.023   0.813  0.7576 -0.2068  0.7215
  439SOL     OW 1315   0.898   2.601   1.541  0.0833  0.4640  0.1553
  439SOL    HW1 1316   0.842   2.539   1.606  3.0770  0.4941  0.1908
  439SOL    HW2 1317   0.840   2.679   1.505 -0.9496  2.2090 -0.9916
  440SOL     OW 1318   1.843   2.890   1.984 -0.1645 -0.1097 -0.1574
  440SOL    HW1 1319   1.805   2.838   1.908  2.2826  1.8419 -1.7074
  440SOL    HW2 1320   1.814   2.856   2.077 -2.5950  0.7531 -0.0101
  441SOL     OW 1321   2.992   0.284   1.701 -0.1345  0.4095  0.1216
  441SOL    HW1 1322   2.993   0.249   1.796  0.5452 -0.6196  0.1459
  441SOL    HW2 1323   2.982   0.386   1.697 -0.5589 -1.2872 -0.2636
  442SOL     OW 1324   1.888   2.430   1.037 -0.1945  0.0033 -0.0387
  442SOL    HW1 1325   1.934   2.439   0.946 -1.5394 -0.3492  2.1136
  442SOL    HW2 1326   1.903   2.337   1.072 -0.2144 -0.1408  0.1202
  443SOL     OW 1327   2.752   0.604   2.165  0.2975  0.3555 -0.1517
  443SOL    HW1 1328   2.730   0.509   2.135  0.5530 -2.3856 -0.5534
  443SOL    HW2 1329   2.672   0.663   2.150  0.0260  0.3135  1.1772
  444SOL     OW 1330   2.112   1.090   1.840 -0.5149  0.0056 -0.3100
  444SOL    HW1 1331   2.078   1.002   1.869 -0.8899 -0.0658 -2.6800
  444SOL    HW2 1332   2.111   1.087   1.738 -0.9024  3.6007  1.7366
  445SOL     OW 1333   3.047   2.360   1.081 -0.3680  0.1098  0.1352
  445SOL    HW1 1334   2.974   2.418   1.126  1.3389  3.0403  0.9215
  445SOL    HW2 1335   3.026   2.349   0.984 -0.0352 -0.3616  1.1589
  446SOL     OW 1336   2.996   1.637   0.971 -0.0317  0.0534 -0.1326
  446SOL    HW1 1337   3.049   1.701   1.027  1.4674 -1.2963  0.1100
  446SOL    HW2 1338   3.004   1.539   0.997 -3.8546  0.2065  3.4404
  447SOL     OW 1339   0.657   0.983   0.882 -0.4997 -0.0605  0.3048
  447SOL    HW1 1340   0.640   0.953   0.974  1.3337 -1.3809 -5.2436
  447SOL    HW2 1341   0.744   1.033   0.880  0.4984  1.6235  1.2651
  448SOL     OW 1342   1.501   1.332   1.869  0.6531 -0.0331  0.4551
  448SOL    HW1 1343   1.470   1.425   1.829 -2.8763  2.5674 -0.8220
  448SOL    HW2 1344   1.424   1.275   1.911  1.5581 -0.2616  1.2280
  449SOL     OW 1345   1.248   1.248   0.201 -0.3341 -0.0354  0.1815
  449SOL    HW1 1346   1.275   1.325   0.142 -0.4613  0.0815  0.5670
  449SOL    HW2 1347   1.194   1.179   0.148  0.9600  2.5506  3.3937
  450SOL     OW 1348   2.855   2.150   2.101  0.4578  0.1534  0.2348
  450SOL    HW1 1349   2.886   2.239   2.130  0.2366 -3.1401 -0.1305
  450SOL    HW2 1350   2.927   2.107   2.044 -0.2536  0.0293 -1.1288
  451SOL     OW 1351   1.941   2.936   2.638  0.0604 -0.1581  0.3687
  451SOL    HW1 1352   1.994   2.871   2.585 -0.5302 -0.3770  3.2934
  451SOL    HW2 1353   1.846   2.948   2.604  0.1151  0.4406  0.5366
  452SOL     OW 1354   1.610   2.955   1.331  0.2574  0.2576 -0.4438
  452SOL    HW1 1355   1.523   3.004   1.342  2.4987  1.3134 -0.5190
  452SOL    HW2 1356   1.673   2.984   1.405  0.9762 -0.7208  2.4927
  453SOL     OW 1357   1.841   0.803   1.068  0.1587  0.0475  0.5907
  453SOL    HW1 1358   1.924   0.757   1.027  0.2021  1.3582  0.2063
  453SOL    HW2 1359   1.822   0.892   1.018  0.7534 -1.1904 -0.2971
  454SOL     OW 1360   0.247   1.302   0.458 -0.2733  0.1157 -0.1027
  454SOL    HW1 1361   0.307   1.325   0.543  0.2775 -1.6057  2.9089
  454SOL    HW2 1362   0.159   1.348   0.469  2.2956  0.9281  0.6706
  455SOL     OW 1363   2.682   0.115   0.364  0.5174  0.4402 -0.1981
  455SOL    HW1 1364   2.635   0.099   0.275 -1.8417 -0.1488 -0.1248
  455SOL    HW2 1365   2.779   0.097   0.357 -2.7554  1.1254 -0.5736
  456SOL     OW 1366   2.923   2.676   1.411  0.3985  0.1509 -0.4823
  456SOL    HW1 1367   3.017   2.645   1.377  1.6986  2.5637 -1.2539
  456SOL    HW2 1368   2.873   2.722   1.331 -2.3005  1.8195 -0.5957
  457SOL     OW 1369   1.245   0.170   0.597  0.0423  0.1537  0.0450
  457SOL    HW1 1370   1.258   0.210   0.506 -2.6820 -0.2812  0.7095
  457SOL    HW2 1371   1.327   0.140   0.645 -0.7704 -2.1701 -1.5699
  458SOL     OW 1372   2.429   0.441   0.399  0.2470 -0.6037 -0.0501
  458SOL    HW1 1373   2.499   0.368   0.411  0.0954 -2.8189 -0.0669
  458SOL    HW2 1374   2.339   0.398   0.423 -0.1898 -1.9344 -1.3147
  459SOL     OW 1375   2.213   0.658   2.571 -0.2630 -0.3139 -0.4013
  459SOL    HW1 1376   2.169   0.569   2.580  3.1024  2.9966  2.1328
  459SOL    HW2 1377   2.163   0.728   2.630 -0.0237  1.6312 -1.8762
  460SOL     OW 1378   2.838   2.983   2.999  0.4581  0.1004 -0.1134
  460SOL    HW1 1379   2.744   3.010   2.971  0.1042 -0.0005  1.1414
  460SOL    HW2 1380   2.844   2.881   3.000  0.4221 -0.7483  0.7602
  461SOL     OW 1381   1.026   1.644   0.674  0.0988  0.3781  0.1101
  461SOL    HW1 1382   1.054   1.594   0.756 -0.5382 -0.4942  0.6736
  461SOL    HW2 1383   0.926   1.654   0.670 -0.2960  2.9331 -3.5802
  462SOL     OW 1384   2.602   2.610   1.270  0.5574  0.3802 -0.2379
  462SOL    HW1 1385   2.528   2.645   1.211  1.2062  0.9346  1.8760
  462SOL    HW2 1386   2.587   2.639   1.368 -2.2735  1.0150 -1.2001
  463SOL     OW 1387   2.485   0.923   0.747  0.2078  0.0155 -0.4070
  463SOL    HW1 1388   2.547   0.882   0.678  0.6309 -0.5100 -0.1365
  463SOL    HW2 1389   2.523   0.909   0.838  0.6372 -1.2877 -2.7306
  464SOL     OW 1390   0.236   2.787   1.098 -0.3811 -0.1611 -0.7360
  464SOL    HW1 1391   0.212   2.685   1.097 -0.9559  0.4125  0.8311
  464SOL    HW2 1392   0.299   2.801   1.180  1.1358 -1.3626  2.1772
  465SOL     OW 1393   0.107   1.544   3.037 -0.2590 -0.6576 -0.6343
  465SOL    HW1 1394   0.032   1.480   3.079  0.7957 -2.9897  1.3412
  465SOL    HW2 1395   0.168   1.565   3.112  0.0851  2.6757 -2.0421
  466SOL     OW 1396   1.498   0.062   2.809 -0.3834  0.6255 -0.3142
  466SOL    HW1 1397   1.401   0.070   2.801  1.8896 -0.5696  2.5263
  466SOL    HW2 1398   1.545   0.108   2.885  1.5747  0.5949  1.7328
  467SOL     OW 1399   1.006   0.822   1.799  0.1937  0.5403  0.3837
  467SOL    HW1 1400   1.088   0.763   1.827  0.1735  0.4736  1.7669
  467SOL    HW2 1401   1.018   0.923   1.819  1.4887  4.2537 -0.1487
  468SOL     OW 1402   0.541   1.251   2.531  0.2240 -0.0947  0.0563
  468SOL    HW1 1403   0.573   1.163   2.488 -1.4867 -3.0827  2.9364
  468SOL    HW2 1404   0.446   1.229   2.570  0.6437 -0.3541 -3.2356
  469SOL     OW 1405   0.024   2.190   3.036 -0.1373  0.3033  0.2154
  469SOL    HW1 1406   0.001   2.275   3.088 -1.0637  1.3855 -1.0716
  469SOL    HW2 1407   0.019   2.110   3.104 -1.5071 -1.0000  0.0125
  470SOL     OW 1408   2.354   1.676   2.734  0.4163  0.4379 -0.3828
  470SOL    HW1 1409   2.293   1.607   2.686  1.5408 -0.0923  2.5561
  470SOL    HW2 1410   2.366   1.638   2.830  0.4279  0.7355  2.4915
  471SOL     OW 1411   2.342   0.898   2.146 -0.3521  0.0345  0.6973
  471SOL    HW1 1412   2.381   0.908   2.244  2.0139  0.0969  0.8734
  471SOL    HW2 1413   2.415   0.853   2.086  0.2091 -1.3863 -2.6483
  472SOL     OW 1414   0.372   2.581   0.674 -0.2028 -0.2755  0.2796
  472SOL    HW1 1415   0.393   2.615   0.582 -0.9326  1.0911 -1.2711
  472SOL    HW2 1416   0.411   2.646   0.742 -1.1050  1.9661 -1.5325
  473SOL     OW 1417   0.510   0.159   2.634  0.9606  0.2370  0.0998
  473SOL    HW1 1418   0.597   0.108   2.637 -3.1717  0.8682  0.8785
  473SOL    HW2 1419   0.485   0.205   2.724 -2.1170 -1.1677  1.7480
  474SOL     OW 1420   1.605   0.112   2.434  0.1895 -0.2437 -0.0185
  474SOL    HW1 1421   1.583   0.205   2.473  2.0670  1.0677  2.3345
  474SOL    HW2 1422   1.656   0.119   2.349 -1.2474 -2.2796 -0.5719
  475SOL     OW 1423   1.811   2.723   0.838 -0.8871  0.0270  0.1231
  475SOL    HW1 1424   1.866   2.696   0.919  0.0891 -1.6566  1.5100
  475SOL    HW2 1425   1.842   2.685   0.748 -1.4137  0.8679  0.9272
  476SOL     OW 1426   3.055   0.586   0.956  0.1634 -0.5501 -0.2534
  476SOL    HW1 1427   3.007   0.662   1.009 -1.2523  0.6526 -1.8051
  476SOL    HW2 1428   0.042   0.609   0.957  0.3920  0.9852  1.6131
  477SOL     OW 1429   1.300   2.363   0.755 -0.4451  0.4218  0.0610
  477SOL    HW1 1430   1.339   2.415   0.675 -1.2278  0.6819  1.9352
  477SOL    HW2 1431   1.224   2.296   0.729  0.3354 -0.0404 -0.9681
  478SOL     OW 1432   0.253   2.311   2.457  0.3419 -0.6692  0.5990
  478SOL    HW1 1433   0.292   2.270   2.538 -0.1878  1.0487 -3.0431
  478SOL    HW2 1434   0.280   2.257   2.373  1.4145 -2.0340 -0.2264
  479SOL     OW 1435   2.321   0.501   0.962 -0.5002 -0.0936  0.1352
  479SOL    HW1 1436   2.232   0.471   1.007  1.0239 -1.0137 -0.6403
  479SOL    HW2 1437   2.391   0.428   0.969  0.1255 -0.2817 -3.3600
  480SOL     OW 1438   3.099   2.890   0.143 -0.5156  0.5694  0.2620
  480SOL    HW1 1439   3.042   2.974   0.146 -0.1026 -1.1602  2.8747
  480SOL    HW2 1440   0.044   2.890   0.059  2.4167  0.9454 -2.2486
  481SOL     OW 1441   2.816   2.461   1.225 -0.0598 -0.6620 -0.8025
  481SOL    HW1 1442   2.731   2.517   1.229 -1.0252  0.6979  0.7939
  481SOL    HW2 1443   2.866   2.484   1.309 -0.4885 -0.9158 -1.2846
  482SOL     OW 1444   0.906   2.560   2.931 -0.3057  0.0194  0.3075
  482SOL    HW1 1445   1.009   2.569   2.926 -0.7376  0.9562 -0.2077
  482SOL    HW2 1446   0.860   2.563   2.840  0.9235  0.2469 -1.5802
  483SOL     OW 1447   0.708   2.279   2.487 -0.1709 -0.3567 -0.3796
  483SOL    HW1 1448   0.695   2.225   2.571  1.0156 -1.4310 -1.0798
  483SOL    HW2 1449   0.763   2.215   2.428  2.0288  0.3106  1.7032
  484SOL     OW 1450   1.107   0.963   1.361 -0.2964  0.0752  0.5962
  484SOL    HW1 1451   1.116   0.867   1.343  2.5616  1.8844  0.3608
  484SOL    HW2 1452   1.155   0.985   1.447 -1.7868  1.4191  2.2065
  485SOL     OW 1453   2.206   0.850   3.075  0.1994 -0.0033 -0.1589
  485SOL    HW1 1454   2.234   0.787   2.998 -0.2638  1.0524  0.4631
  485SOL    HW2 1455   2.245   0.938   3.067 -0.9088 -2.2606 -0.3313
  486SOL     OW 1456   2.147   0.098   1.254 -0.2774 -0.3359  0.3455
  486SOL    HW1 1457   2.167   0.012   1.299  0.1471  1.1977  0.8890
  486SOL    HW2 1458   2.048   0.117   1.252 -1.0682  0.6872  1.7114
  487SOL     OW 1459   0.515   2.078   1.195 -0.0190  0.3880  0.0540
  487SOL    HW1 1460   0.603   2.103   1.244  0.3543  0.7535  2.0274
  487SOL    HW2 1461   0.429   2.097   1.246  0.6766  0.5527  1.9118
  488SOL     OW 1462   2.523   1.023   0.048  0.2198 -0.2153  0.2447
  488SOL    HW1 1463   2.430   1.063   0.026 -1.0304  1.7103  2.7606
  488SOL    HW2 1464   2.580   1.007   3.082 -1.5080  1.1106 -2.3242
  489SOL     OW 1465   1.743   0.194   1.116 -0.0669 -0.2480 -0.2685
  489SOL    HW1 1466   1.770   0.193   1.215 -0.1188 -1.7876  0.7090
  489SOL    HW2 1467   1.668   0.265   1.105 -0.6243  1.1629 -1.5204
  490SOL     OW 1468   0.779   0.620   0.396  0.3097  0.0570 -0.0216
  490SOL    HW1 1469   0.715   0.558   0.342  0.6144  1.8279 -1.4416
  490SOL    HW2 1470   0.777   0.711   0.354 -0.2188  0.2431 -1.0341
  491SOL     OW 1471   0.607   2.341   0.684 -0.4940 -0.1778  0.4698
  491SOL    HW1 1472   0.684   2.393   0.633  2.2138  1.9275 -0.0928
  491SOL    HW2 1473   0.520   2.349   0.632  2.1239 -0.0468  1.1880
  492SOL     OW 1474   1.575   1.821   2.193  0.8152  0.0798  0.0807
  492SOL    HW1 1475   1.663   1.805   2.240  0.6554  0.6756 -0.2937
  492SOL    HW2 1476   1.491   1.776   2.235  0.4028 -4.6680 -1.1949
  493SOL     OW 1477   2.986   2.677   0.802  0.6539 -0.2555 -0.1393
  493SOL    HW1 1478   2.893   2.690   0.840  0.8495 -1.3634 -0.1164
  493SOL    HW2 1479   3.032   2.763   0.767  3.2848  1.7940 -0.8388
  494SOL     OW 1480   2.801   2.073   0.056  0.4208  0.1259 -0.3648
  494SOL    HW1 1481   2.718   2.030   0.097  1.4050 -0.3376  0.2860
  494SOL    HW2 1482   2.798   2.061   3.071  0.1179  0.5385  1.4428
  495SOL     OW 1483   2.734   2.074   2.866 -0.1918 -0.1350  0.5447
  495SOL    HW1 1484   2.720   1.985   2.821  0.0686 -0.1495 -0.7575
  495SOL    HW2 1485   2.826   2.106   2.836 -0.4018 -1.6038  0.1418
  496SOL     OW 1486   2.708   3.062   1.592  0.7944  0.1682 -0.5400
  496SOL    HW1 1487   2.639   3.073   1.662  0.7567 -1.5931 -2.2260
  496SOL    HW2 1488   2.665   3.033   1.505 -1.8206  0.0054  1.9865
  497SOL     OW 1489   2.789   1.191   3.054  0.0949 -0.5890  0.0469
  497SOL    HW1 1490   2.760   1.152   2.967 -0.5114 -0.5795  0.1205
  497SOL    HW2 1491   2.730   1.272   3.071 -0.3229  2.1597 -0.8406
  498SOL     OW 1492   3.027   1.853   2.156 -0.1823  0.4468  0.3302
  498SOL    HW1 1493   3.052   1.901   2.069  1.3279  0.6129 -3.3759
  498SOL    HW2 1494   3.020   1.919   2.235 -2.0628 -1.0162  0.1765
  499SOL     OW 1495   0.830   2.305   2.975 -0.5459  0.4040 -0.1745
  499SOL    HW1 1496   0.907   2.238   2.969 -0.7001 -0.2998  1.8635
  499SOL    HW2 1497   0.864   2.398   2.959 -1.9890  0.7051  2.8990
  500SOL     OW 1498   1.580   0.229   3.045 -0.4758  0.2734 -0.0072
  500SOL    HW1 1499   1.553   0.233   0.028  0.4592 -0.5080 -2.3622
  500SOL    HW2 1500   1.678   0.214   3.043  0.4042  1.9024  0.3227
  501SOL     OW 1501   1.401   3.103   1.369  0.6969  0.1346  0.2872
  501SOL    HW1 1502   1.330   0.018   1.303 -0.2951 -0.5713  1.9066
  501SOL    HW2 1503   1.427   0.072   1.423  2.6337 -0.6227  1.3943
  502SOL     OW 1504   2.563   0.788   2.039 -0.6017 -0.1451 -0.3086
  502SOL    HW1 1505   2.601   0.880   2.044  1.4831 -0.8024  1.4623
  502SOL    HW2 1506   2.606   0.746   1.959 -2.8210  2.1918  0.4363
  503SOL     OW 1507   2.298   2.149   2.510  0.3522  0.2444 -0.1157
  503SOL    HW1 1508   2.335   2.207   2.584 -2.0579  1.8239 -3.0870
  503SOL    HW2 1509   2.230   2.201   2.459 -1.3755  0.0164 -0.7286
  504SOL     OW 1510   1.459   0.816   1.517  1.1142 -0.0535  0.1598
  504SOL    HW1 1511   1.457   0.773   1.424 -2.8514 -1.0752 -1.2135
  504SOL    HW2 1512   1.520   0.766   1.577 -1.2011  2.3527  1.5011
  505SOL     OW 1513   0.851   0.584   1.827  0.3805  0.2183 -0.2290
  505SOL    HW1 1514   0.754   0.612   1.844 -0.5731 -0.1194  0.5908
  505SOL    HW2 1515   0.913   0.668   1.820 -2.4067  0.4127 -0.4998
  506SOL     OW 1516   0.485   0.585   2.530  0.1880 -0.1202  0.3185
  506SOL    HW1 1517   0.582   0.603   2.553  0.4264 -0.3013 -0.1547
  506SOL    HW2 1518   0.478   0.489   2.490 -4.9226 -1.2189 -2.5288
  507SOL     OW 1519   0.191   2.870   3.047  0.7872  0.4438 -0.4934
  507SOL    HW1 1520   0.290   2.862   3.073  1.2436  2.7031  0.4679
  507SOL    HW2 1521   0.172   2.966   3.016 -0.2617 -1.7755 -1.4464
  508SOL     OW 1522   1.382   1.191   1.394 -0.6886  0.1098  0.1679
  508SOL    HW1 1523   1.348   1.129   1.467  1.2627  0.8804 -0.8647
  508SOL    HW2 1524   1.469   1.236   1.423  1.8107  1.4351 -1.1489
  509SOL     OW 1525   1.561   2.193   1.348  0.3779  0.6074 -0.1167
  509SOL    HW1 1526   1.527   2.280   1.314 -0.0081  1.6662 -0.9317
  509SOL    HW2 1527   1.661   2.189   1.335 -1.5368 -1.6538 -2.3616
  510SOL     OW 1528   2.355   1.400   2.063 -0.0113  0.2062  0.3192
  510SOL    HW1 1529   2.402   1.447   2.143 -0.8508  1.9911  0.2074
  510SOL    HW2 1530   2.373   1.300   2.065  0.4433  0.2903 -1.5287
  511SOL     OW 1531   0.811   1.867   1.385  0.3247  0.0500  0.3465
  511SOL    HW1 1532   0.759   1.814   1.317  1.2927  0.0004  0.7809
  511SOL    HW2 1533   0.779   1.846   1.479 -0.8991 -1.2823  0.9965
  512SOL     OW 1534   2.785   2.029   0.509  0.3534 -0.7255  0.0095
  512SOL    HW1 1535   2.752   2.119   0.476  1.4166 -0.8044  1.2014
  512SOL    HW2 1536   2.846   2.036   0.588  1.5662  0.6043 -0.9016
  513SOL     OW 1537   0.005   1.779   2.947  0.1274 -0.3888 -0.5130
  513SOL    HW1 1538   0.082   1.817   2.888  3.6462  1.5478 -1.5793
  513SOL    HW2 1539   0.030   1.692   2.992 -2.6505  0.9466  1.6156
  514SOL     OW 1540   2.968   2.396   2.198 -0.2899 -0.6111 -0.1111
  514SOL    HW1 1541   3.000   2.356   2.288 -1.7797  0.1208  0.4081
  514SOL    HW2 1542   3.050   2.426   2.143  0.9557 -0.1000  1.6493
  515SOL     OW 1543   2.294   1.208   1.120 -0.5868  0.1250  0.1835
  515SOL    HW1 1544   2.210   1.166   1.082 -1.6134  2.2167 -0.7326
  515SOL    HW2 1545   2.301   1.211   1.225  1.5176  0.1584  1.0832
  516SOL     OW 1546   2.228   2.270   0.222 -0.5709 -0.0232 -0.4024
  516SOL    HW1 1547   2.256   2.185   0.277 -0.2060  0.1094  1.7951
  516SOL    HW2 1548   2.167   2.241   0.148  1.0647 -0.9867  1.6903
  517SOL     OW 1549   1.069   1.131   0.016 -0.3800  0.4871 -1.0118
  517SOL    HW1 1550   1.150   1.132   3.070 -2.0461  0.1924  1.2028
  517SOL    HW2 1551   1.001   1.200   3.110  1.8017 -4.7306 -1.6622
  518SOL     OW 1552   0.189   2.812   1.900  0.5123  0.1055 -0.2392
  518SOL    HW1 1553   0.159   2.831   1.996  4.0993 -3.0129  2.4949
  518SOL    HW2 1554   0.131   2.734   1.865  0.8709 -1.9468 -0.1448
  519SOL     OW 1555   1.670   1.632   2.460 -0.1796  0.1575 -0.2459
  519SOL    HW1 1556   1.747   1.576   2.422  2.8040  0.6313 -1.6942
  519SOL    HW2 1557   1.589   1.576   2.488 -1.5437  0.5557 -1.3023
  520SOL     OW 1558   2.560   2.946   2.425 -0.2419  0.5552  0.1596
  520SOL    HW1 1559   2.480   2.998   2.383 -2.3199  0.7706 -0.0850
  520SOL    HW2 1560   2.625   2.923   2.354 -2.3543  2.2296  0.9886
  521SOL     OW 1561   0.408   1.987   1.945  0.0282 -0.0063 -0.4204
  521SOL    HW1 1562   0.331   1.998   2.010  2.0563  0.1797 -1.0123
  521SOL    HW2 1563   0.378   2.017   1.855  0.7594 -2.1373  3.2160
  522SOL     OW 1564   1.138   2.662   1.658 -0.1205 -0.3377  0.1837
  522SOL    HW1 1565   1.048   2.636   1.614 -0.5136  0.5769 -1.2023
  522SOL    HW2 1566   1.170   2.748   1.616 -0.7789 -0.7084  2.2463
  523SOL     OW 1567   0.290   2.134   1.335 -0.1114 -0.8425  0.0656
  523SOL    HW1 1568   0.357   2.174   1.401 -2.3871 -1.7504  0.1599
  523SOL    HW2 1569   0.196   2.175   1.335 -2.3290 -0.5249  1.1383
  524SOL     OW 1570   1.319   2.687   0.805 -0.0942 -0.0954 -0.1767
  524SOL    HW1 1571   1.412   2.692   0.850  0.9334  0.4426 -2.5093
  524SOL    HW2 1572   1.288   2.594   0.783 -1.8024  3.4948  1.4578
  525SOL     OW 1573   2.606   1.205   1.006  0.6141 -0.1747 -0.2246
  525SOL    HW1 1574   2.677   1.274   1.029  2.1889 -2.0231  1.5459
  525SOL    HW2 1575   2.554   1.243   0.927 -1.5216 -1.2998 -0.2980
  526SOL     OW 1576   0.915   2.365   0.862 -0.1114 -0.1251  0.1474
  526SOL    HW1 1577   0.879   2.459   0.841 -1.6123 -0.1743 -1.7742
  526SOL    HW2 1578   0.950   2.317   0.776  0.6874 -1.7691 -1.4751
  527SOL     OW 1579   2.597   2.066   0.801  0.7591  0.3583 -0.1641
  527SOL    HW1 1580   2.682   2.117   0.796 -0.5004 -2.1255 -1.2011
  527SOL    HW2 1581   2.623   1.970   0.822 -0.3821  1.7771 -0.6288
  528SOL     OW 1582   2.097   0.469   2.919 -0.0651 -0.9838 -0.6248
  528SOL    HW1 1583   2.023   0.534   2.943 -0.2549 -1.2763  0.2895
  528SOL    HW2 1584   2.119   0.412   3.002  0.9582  0.2988 -1.1277
  529SOL     OW 1585   1.201   1.387   2.149 -0.1088  0.2880  0.5868
  529SOL    HW1 1586   1.275   1.422   2.207 -0.7223 -1.8653 -1.9834
  529SOL    HW2 1587   1.148   1.462   2.113  0.5879 -3.0324  1.0640
  530SOL     OW 1588   2.464   0.935   2.378 -0.3291  0.1770 -0.1215
  530SOL    HW1 1589   2.562   0.965   2.360  1.5843 -1.4048  1.3921
  530SOL    HW2 1590   2.467   0.839   2.423 -0.0569 -1.3649  1.7642
  531SOL     OW 1591   0.899   0.802   2.897  0.4488  0.0083 -0.1695
  531SOL    HW1 1592   0.999   0.781   2.913 -0.9486 -3.5099  3.2053
  531SOL    HW2 1593   0.860   0.804   2.991 -1.5012  1.9047 -2.6742
  532SOL     OW 1594   1.591   0.969   0.614  0.1359 -0.1317 -0.0212
  532SOL    HW1 1595   1.579   0.868   0.609  2.2229 -1.1854 -0.0036
  532SOL    HW2 1596   1.646   0.994   0.531  2.0479 -0.5229 -0.1686
  533SOL     OW 1597   0.363   0.505   2.189 -0.1642 -0.6281 -0.2184
  533SOL    HW1 1598   0.312   0.550   2.111 -2.6143 -0.1073  1.1539
  533SOL    HW2 1599   0.459   0.483   2.164  2.9407 -0.6298 -1.9839
  534SOL     OW 1600   1.524   0.364   2.550 -0.0899  0.5032  0.3913
  534SOL    HW1 1601   1.579   0.445   2.525  1.0626  2.1399 -0.4338
  534SOL    HW2 1602   1.507   0.357   2.647 -1.4945  1.3734 -2.2690
  535SOL     OW 1603   0.690   0.273   0.463  0.0235  0.4154 -0.7322
  535SOL    HW1 1604   0.785   0.299   0.434 -2.3346 -0.5748  1.4597
  535SOL    HW2 1605   0.669   0.173   0.444  1.6414  0.1608 -2.2448
  536SOL     OW 1606   1.023   0.564   0.871  0.6241 -0.3908  0.3686
  536SOL    HW1 1607   0.953   0.619   0.916 -0.1506 -2.1708 -1.7958
  536SOL    HW2 1608   0.998   0.551   0.773 -0.9252 -1.2685  0.8820
  537SOL     OW 1609   1.442   3.016   1.899 -0.3238  0.2078 -0.0569
  537SOL    HW1 1610   1.457   2.997   2.000 -0.4782  0.3091 -0.8789
  537SOL    HW2 1611   1.443   2.934   1.841 -1.2996  1.1807  1.6391
  538SOL     OW 1612   0.486   2.876   3.063  0.4274  0.3820  0.1243
  538SOL    HW1 1613   0.537   2.793   3.077  0.5159  3.0663 -2.1878
  538SOL    HW2 1614   0.491   2.918   2.970 -2.1539  1.0008  0.1770
  539SOL     OW 1615   2.864   1.673   1.828 -0.7033 -0.4423 -0.1815
  539SOL    HW1 1616   2.943   1.722   1.791  1.7430 -1.1971  0.6682
  539SOL    HW2 1617   2.892   1.637   1.919  0.0935 -1.2711 -1.6316
  540SOL     OW 1618   2.584   2.225   2.047 -0.3234 -0.4824 -0.1239
  540SOL    HW1 1619   2.678   2.183   2.060  2.3573 -2.3058 -0.2489
  540SOL    HW2 1620   2.557   2.209   1.950 -0.5321 -0.6177  0.3340
  541SOL     OW 1621   0.430   2.986   1.313  0.0184 -0.5255 -0.2196
  541SOL    HW1 1622   0.374   3.002   1.397 -0.7918 -0.9378 -0.6547
  541SOL    HW2 1623   0.424   3.062   1.243  1.6007  1.9660  0.9373
  542SOL     OW 1624   2.748   0.343   2.080  0.3718  0.3533  0.5268
  542SOL    HW1 1625   2.758   0.323   2.179  2.1556 -0.5069 -1.2032
  542SOL    HW2 1626   2.809   0.293   2.019  0.6531 -0.9021  0.2797
  543SOL     OW 1627   0.824   0.731   0.996  0.5464 -0.7109  0.1975
  543SOL    HW1 1628   0.732   0.781   1.010 -1.2644 -0.1752 -2.2159
  543SOL    HW2 1629   0.825   0.645   1.048  2.3926  1.5382 -1.0878
  544SOL     OW 1630   2.373   2.191   1.207  0.1012  0.0477 -0.1011
  544SOL    HW1 1631   2.374   2.186   1.105  1.3252  1.2317 -0.3503
  544SOL    HW2 1632   2.420   2.280   1.237  0.5109 -0.0866 -0.1430
  545SOL     OW 1633   1.358   1.442   1.015  0.0767  0.4209 -0.2284
  545SOL    HW1 1634   1.431   1.512   1.021 -0.8245 -1.1506  0.3578
  545SOL    HW2 1635   1.328   1.415   1.107  0.0692  0.5083 -3.1573
  546SOL     OW 1636   2.711   0.099   2.628  0.2225 -0.3767 -0.5236
  546SOL    HW1 1637   2.658   0.014   2.647  1.1027 -3.5394 -0.9481
  546SOL    HW2 1638   2.656   0.183   2.616  0.0758 -1.7886  0.7991
  547SOL     OW 1639   2.480   0.205   2.840  0.2249  0.0034  0.3060
  547SOL    HW1 1640   2.451   0.246   2.932 -0.3696  3.0032 -0.0784
  547SOL    HW2 1641   2.527   0.279   2.786 -0.4771  2.8908 -0.4560
  548SOL     OW 1642   2.413   2.057   2.859 -0.1622  0.4066  0.1892
  548SOL    HW1 1643   2.443   1.968   2.821  1.2355  2.5784 -1.0561
  548SOL    HW2 1644   2.493   2.121   2.872 -0.4294 -1.9344  0.3917
  549SOL     OW 1645   2.036   0.558   0.783 -0.2789  0.2850  0.6077
  549SOL    HW1 1646   2.043   0.513   0.872  1.8270  0.7000 -0.4256
  549SOL    HW2 1647   2.018   0.655   0.800  0.1294 -1.6609  0.5916
  550SOL     OW 1648   2.587   1.235   0.258  0.3290  0.3711  0.3220
  550SOL    HW1 1649   2.489   1.234   0.288  0.5671 -0.8155  0.4184
  550SOL    HW2 1650   2.601   1.160   0.196  0.8401  2.6233  3.3167
  551SOL     OW 1651   1.448   2.423   1.267  0.0367 -0.2575  0.0144
  551SOL    HW1 1652   1.354   2.467   1.249 -2.8253  1.2193 -1.7954
  551SOL    HW2 1653   1.519   2.448   1.196  0.9172 -1.9285 -1.8637
  552SOL     OW 1654   2.850   2.337   2.539  0.2588  0.3244 -0.4987
  552SOL    HW1 1655   2.824   2.261   2.473  1.3192 -1.4075 -1.8457
  552SOL    HW2 1656   2.796   2.419   2.521  1.1746 -1.8541 -1.4281
  553SOL     OW 1657   0.625   2.951   0.632 -0.5375  0.4280 -0.0412
  553SOL    HW1 1658   0.582   3.018   0.568 -0.2386  0.0449 -2.1478
  553SOL    HW2 1659   0.587   2.952   0.725  1.4449 -1.8582  2.7335
  554SOL     OW 1660   1.874   2.088   1.748  0.6270  0.0432  0.4929
  554SOL    HW1 1661   1.779   2.046   1.763 -0.6854 -0.0950  1.6556
  554SOL    HW2 1662   1.945   2.018   1.768 -0.6289  0.0209  0.4172
  555SOL     OW 1663   1.430   2.581   2.070  0.0717 -0.0478 -0.0888
  555SOL    HW1 1664   1.482   2.509   2.024 -0.9572 -0.5770 -0.0251
  555SOL    HW2 1665   1.349   2.598   2.013  1.3884 -0.3411  0.7886
  556SOL     OW 1666   1.543   0.713   0.594  0.7098 -0.4202  0.1611
  556SOL    HW1 1667   1.612   0.647   0.625 -1.9375 -0.6961  2.1803
  556SOL    HW2 1668   1.452   0.665   0.602 -0.7360 -3.3084  1.6111
  557SOL     OW 1669   1.332   2.056   1.471  0.1364 -0.5557  0.4576
  557SOL    HW1 1670   1.413   2.058   1.411  1.7862  0.4321 -0.6598
  557SOL    HW2 1671   1.252   2.094   1.423 -0.7615 -1.3311 -1.5208
  558SOL     OW 1672   3.003   1.209   2.531 -1.0749 -0.0138  0.0446
  558SOL    HW1 1673   2.909   1.173   2.538  1.8453  0.8507 -1.1450
  558SOL    HW2 1674   3.062   1.142   2.479 -1.4185  0.5540  1.8984
  559SOL     OW 1675   2.483   2.622   2.436 -0.0536  0.2253  0.1400
  559SOL    HW1 1676   2.585   2.626   2.445 -1.3342  0.9562 -2.8471
  559SOL    HW2 1677   2.458   2.657   2.345  1.4865  0.4683 -2.6859
  560SOL     OW 1678   0.293   0.059   2.498  0.2849 -0.3633 -0.3382
  560SOL    HW1 1679   0.307   3.099   2.433  1.2291  0.8543 -1.3101
  560SOL    HW2 1680   0.391   0.092   2.521 -0.1467 -0.2363  0.8942
  561SOL     OW 1681   1.322   0.581   0.475 -0.1727  0.3292  0.3590
  561SOL    HW1 1682   1.248   0.646   0.455 -0.1040 -2.5581 -0.0754
  561SOL    HW2 1683   1.352   0.533   0.388  1.1263 -0.9743 -2.4790
  562SOL     OW 1684   0.872   1.566   2.068  0.2611 -0.3271  0.3689
  562SOL    HW1 1685   0.900   1.588   2.161 -0.3338 -0.5966 -0.2125
  562SOL    HW2 1686   0.928   1.618   2.002 -0.4195  0.1462  0.5252
  563SOL     OW 1687   1.836   2.251   0.230 -0.0866 -0.0777 -0.0021
  563SOL    HW1 1688   1.866   2.188   0.159 -0.1363  1.3592  0.0403
  563SOL    HW2 1689   1.902   2.261   0.306 -0.2557 -1.5491 -0.3691
  564SOL     OW 1690   3.074   2.195   0.483  0.2426  0.0874  0.5600
  564SOL    HW1 1691   3.033   2.118   0.434 -0.6507  0.5532 -1.0864
  564SOL    HW2 1692   0.010   2.166   0.566  0.9721  1.0847 -0.8902
  565SOL     OW 1693   0.517   2.944   2.811 -0.6185  0.3566  0.0446
  565SOL    HW1 1694   0.427   2.983   2.789 -0.0461  0.6264 -0.6332
  565SOL    HW2 1695   0.539   2.865   2.751  0.3598  0.3956  0.6013
  566SOL     OW 1696   1.351   2.687   3.007 -0.4433 -0.3438  0.3203
  566SOL    HW1 1697   1.405   2.683   3.098 -0.0887 -2.5651  1.8520
  566SOL    HW2 1698   1.414   2.721   2.938 -3.5882 -0.9717  0.7784
  567SOL     OW 1699   2.551   1.889   1.328 -0.0418  0.1733 -0.3394
  567SOL    HW1 1700   2.623   1.940   1.378  0.6667  1.4183 -1.2609
  567SOL    HW2 1701   2.460   1.924   1.356  0.8949 -0.8677  0.0883
  568SOL     OW 1702   1.716   0.992   2.807 -0.4258 -0.3914 -0.2746
  568SOL    HW1 1703   1.785   1.061   2.773 -0.8687  0.2063 -1.7193
  568SOL    HW2 1704   1.709   0.907   2.750 -0.7578  0.4844  0.4453
  569SOL     OW 1705   2.156   2.006   2.196  0.0840  0.4395 -0.1753
  569SOL    HW1 1706   2.154   1.915   2.146  2.9101  0.4079 -1.9838
  569SOL    HW2 1707   2.255   2.032   2.201  0.3833 -4.2528 -1.6603
  570SOL     OW 1708   2.860   2.690   1.809 -0.4764  0.2092 -0.6304
  570SOL    HW1 1709   2.842   2.737   1.899 -0.7401  2.1497  0.9496
  570SOL    HW2 1710   2.810   2.743   1.736  0.9260  3.4252  2.3114
  571SOL     OW 1711   0.091   0.814   1.319 -0.3277 -0.1516  0.1769
  571SOL    HW1 1712   0.151   0.891   1.348 -1.0627  1.3641  0.9386
  571SOL    HW2 1713   0.079   0.745   1.389 -1.2137 -0.7447 -0.3935
  572SOL     OW 1714   0.391   1.318   0.706 -0.2874  0.0248  0.7401
  572SOL    HW1 1715   0.399   1.370   0.790 -0.8947 -0.1041 -1.8674
  572SOL    HW2 1716   0.463   1.246   0.697  0.4792 -0.0705  0.6310
  573SOL     OW 1717   0.814   0.851   0.264  0.2003  0.4322  0.0576
  573SOL    HW1 1718   0.828   0.852   0.162 -0.4054 -0.3931  0.7777
  573SOL    HW2 1719   0.862   0.919   0.319  0.6180 -2.7564 -1.3478
  574SOL     OW 1720   0.249   0.285   0.151 -0.2341 -0.3943 -0.6669
  574SOL    HW1 1721   0.331   0.255   0.097 -2.7045 -1.8845  1.6368
  574SOL    HW2 1722   0.231   0.219   0.233 -0.3759 -0.9420  2.8219
  575SOL     OW 1723   0.925   2.164   1.049 -0.6374  0.2318  0.0641
  575SOL    HW1 1724   0.915   2.221   0.963 -0.1408 -1.9534 -0.0002
  575SOL    HW2 1725   1.029   2.165   1.069  4.3086  1.7438  0.8921
  576SOL     OW 1726   2.981   3.113   1.649 -0.3626 -0.2489  0.3267
  576SOL    HW1 1727   2.969   0.096   1.629 -0.0502 -1.9816 -1.6400
  576SOL    HW2 1728   2.888   3.067   1.664 -1.0927  1.3063 -1.0177
  577SOL     OW 1729   2.723   1.839   2.079  0.2304  0.0855  0.5797
  577SOL    HW1 1730   2.787   1.758   2.089 -1.5853  0.2761 -0.8728
  577SOL    HW2 1731   2.747   1.910   2.151  2.6712  0.9144  2.0497
  578SOL     OW 1732   1.100   3.041   2.548  0.6312  0.4346 -0.3337
  578SOL    HW1 1733   1.192   3.075   2.554 -1.4084 -1.6037  2.0351
  578SOL    HW2 1734   1.085   2.956   2.605  0.9463 -1.3155  0.4937
  579SOL     OW 1735   1.881   2.007   2.280  0.2983 -0.2913 -0.2017
  579SOL    HW1 1736   1.984   2.006   2.267  2.9486  2.4560 -2.3437
  579SOL    HW2 1737   1.837   2.005   2.186  0.4446  2.0713  2.2339
  580SOL     OW 1738   1.701   1.011   2.031 -0.2727 -0.1131  0.3267
  580SOL    HW1 1739   1.790   0.961   2.061  0.6134  1.4622  1.5722
  580SOL    HW2 1740   1.646   1.022   2.114 -1.0970  0.1499  0.6725
  581SOL     OW 1741   1.255   1.326   2.488 -0.3830 -0.5100  0.0346
  581SOL    HW1 1742   1.333   1.341   2.549  1.1406  4.1719 -2.0471
  581SOL    HW2 1743   1.211   1.235   2.499  3.0029  0.1074  0.7504
  582SOL     OW 1744   3.111   2.601   1.850  0.0503 -0.4539  0.4278
  582SOL    HW1 1745   0.048   2.590   1.760  0.3373  0.7687 -1.3766
  582SOL    HW2 1746   3.022   2.651   1.838 -1.8885 -1.4510  1.4276
  583SOL     OW 1747   1.787   1.135   1.183  0.7049 -0.3867  0.0212
  583SOL    HW1 1748   1.750   1.091   1.098 -2.1598  0.4971 -0.8092
  583SOL    HW2 1749   1.737   1.221   1.196 -1.1304 -0.4253  0.7458
  584SOL     OW 1750   1.129   2.035   2.688  0.0099  0.2338  0.2811
  584SOL    HW1 1751   1.200   2.055   2.760 -0.7579  2.5915 -2.1079
  584SOL    HW2 1752   1.112   2.117   2.635 -2.4463 -3.8541  1.1012
  585SOL     OW 1753   0.200   2.228   0.213 -0.2545 -0.4319  0.4904
  585SOL    HW1 1754   0.155   2.299   0.156 -1.4624  0.7562 -1.6943
  585SOL    HW2 1755   0.130   2.194   0.278  1.5598 -0.9900  0.1232
  586SOL     OW 1756   2.191   1.527   0.342 -0.2349  0.8114 -0.1048
  586SOL    HW1 1757   2.099   1.520   0.301  0.0858  0.2505  0.0414
  586SOL    HW2 1758   2.194   1.475   0.427  0.2911  0.1272 -0.1947
  587SOL     OW 1759   2.996   1.929   0.379 -0.2367  0.5977 -0.2428
  587SOL    HW1 1760   3.064   1.883   0.440 -2.1710 -0.2530 -2.4698
  587SOL    HW2 1761   2.905   1.939   0.435 -1.7685  0.0945  3.9077
  588SOL     OW 1762   2.493   0.271   0.969 -0.1456  0.4133 -0.0802
  588SOL    HW1 1763   2.587   0.308   0.957 -1.4184 -1.0484 -1.7693
  588SOL    HW2 1764   2.500   0.180   1.010  1.6669  1.4542  2.1841
  589SOL     OW 1765   1.025   0.905   0.912  0.2969  0.3500 -0.0140
  589SOL    HW1 1766   1.107   0.883   0.967 -1.9103  0.1979 -1.9035
  589SOL    HW2 1767   0.947   0.846   0.936 -0.0742 -1.6181 -0.1052
  590SOL     OW 1768   2.426   2.339   0.046 -0.3189  0.4189  0.2150
  590SOL    HW1 1769   2.346   2.307   0.101 -1.1883 -1.7837 -0.4338
  590SOL    HW2 1770   2.515   2.325   0.093 -0.1444 -1.0911 -0.0734
  591SOL     OW 1771   0.772   2.447   1.716  0.7646  0.3570  0.0408
  591SOL    HW1 1772   0.820   2.357   1.717  2.1391 -3.7694 -0.5309
  591SOL    HW2 1773   0.669   2.429   1.714 -1.1382  0.0273  1.0273
  592SOL     OW 1774   0.771   1.378   1.827  0.2022 -0.4296 -0.4125
  592SOL    HW1 1775   0.758   1.407   1.924  0.8678 -3.7722  0.0682
  592SOL    HW2 1776   0.865   1.341   1.812  1.1387 -0.5840 -0.4221
  593SOL     OW 1777   1.318   1.839   1.209  0.1111 -0.3045 -0.7088
  593SOL    HW1 1778   1.375   1.759   1.241  0.1218 -0.5144  0.0390
  593SOL    HW2 1779   1.280   1.880   1.294  1.1412 -0.5392 -0.4164
  594SOL     OW 1780   0.750   1.314   2.726 -0.6794 -0.3078  0.0688
  594SOL    HW1 1781   0.770   1.253   2.803 -1.1515  2.3203 -1.8563
  594SOL    HW2 1782   0.670   1.287   2.669  0.2031  0.3595 -0.0491
  595SOL     OW 1783   1.537   0.386   1.119  0.5007 -0.8019 -0.5781
  595SOL    HW1 1784   1.517   0.406   1.219 -3.5300  2.6852 -0.0322
  595SOL    HW2 1785   1.583   0.462   1.072 -0.5124  1.4367 -0.8549
  596SOL     OW 1786   0.359   1.057   0.953 -0.2931  0.6147 -0.5781
  596SOL    HW1 1787   0.451   1.014   0.937  0.7403  1.2080  0.6933
  596SOL    HW2 1788   0.306   1.048   0.866  3.2144  0.5932 -0.6998
  597SOL     OW 1789   0.195   2.274   2.835 -0.5581 -0.3315 -0.5278
  597SOL    HW1 1790   0.146   2.213   2.902 -2.8402 -4.2695  2.3737
  597SOL    HW2 1791   0.129   2.315   2.771 -0.5433 -1.2447 -1.3937
  598SOL     OW 1792   2.100   2.100   2.753  0.4325  0.0405  0.3331
  598SOL    HW1 1793   2.049   2.179   2.708 -2.2471 -1.3529 -1.0307
  598SOL    HW2 1794   2.199   2.119   2.752 -1.7684  2.1633 -0.9693
  599SOL     OW 1795   1.616   0.589   0.352 -0.5007 -0.0754 -0.3518
  599SOL    HW1 1796   1.610   0.486   0.366  0.8403  0.0757 -0.5959
  599SOL    HW2 1797   1.565   0.648   0.420 -0.4127  0.9143  0.7973
  600SOL     OW 1798   0.962   0.313   0.417  0.5691 -0.2901  0.1429
  600SOL    HW1 1799   1.031   0.240   0.407 -0.9174  0.2211 -1.2586
  600SOL    HW2 1800   0.955   0.363   0.329 -0.0452 -1.7734  1.0975
  601SOL     OW 1801   0.368   0.193   1.477 -0.2315  0.3572  0.2449
  601SOL    HW1 1802   0.381   0.253   1.559  0.0019  1.1192  3.5092
  601SOL    HW2 1803   0.455   0.160   1.432 -1.1775  1.0065  2.3073
  602SOL     OW 1804   3.044   0.049   0.645  0.0727 -0.0833 -0.2187
  602SOL    HW1 1805   3.095   0.118   0.701 -0.8341 -3.3569 -2.5491
  602SOL    HW2 1806   2.991   0.092   0.568 -3.2305  1.1165 -2.0421
  603SOL     OW 1807   0.663   2.824   2.371 -0.0356 -0.3431 -0.3246
  603SOL    HW1 1808   0.761   2.827   2.337 -1.7423 -0.0110  0.8860
  603SOL    HW2 1809   0.653   2.753   2.445 -0.1227 -1.4450  1.5007
  604SOL     OW 1810   1.118   2.785   0.022  0.2409 -0.0361  0.1221
  604SOL    HW1 1811   1.103   2.725   0.107  1.8556  0.1364 -0.4232
  604SOL    HW2 1812   1.201   2.750   3.089 -0.7013  0.2468  3.9767
  605SOL     OW 1813   1.268   0.997   1.572 -0.1394 -0.1086 -0.1649
  605SOL    HW1 1814   1.321   0.918   1.537 -0.6440 -0.7390 -0.1037
  605SOL    HW2 1815   1.297   1.012   1.667 -0.7320 -0.4674 -0.9543
  606SOL     OW 1816   1.077   0.462   2.571  0.0171  0.7254 -0.4254
  606SOL    HW1 1817   0.980   0.453   2.596 -0.6120  0.2379  1.7374
  606SOL    HW2 1818   1.131   0.493   2.651 -0.2032 -0.2889  1.4487
  607SOL     OW 1819   0.413   1.150   1.192 -0.4543  0.1433  0.5971
  607SOL    HW1 1820   0.515   1.134   1.200  0.8590 -1.4363 -2.9646
  607SOL    HW2 1821   0.389   1.124   1.094 -1.0139  0.4186 -0.0506
  608SOL     OW 1822   2.823   2.120   2.378 -0.3638 -0.0115 -0.0699
  608SOL    HW1 1823   2.844   2.131   2.278  1.5209 -0.1836 -3.5824
  608SOL    HW2 1824   2.899   2.054   2.409  1.7019 -3.8968 -0.3817
  609SOL     OW 1825   2.080   0.337   0.049 -0.9886 -0.3655  0.2560
  609SOL    HW1 1826   2.148   0.258   0.052  0.9554 -1.2373 -3.1009
  609SOL    HW2 1827   2.063   0.388   0.135  0.0517  2.0056 -3.8354
  610SOL     OW 1828   0.646   2.771   1.266 -0.1047  0.5856 -0.3615
  610SOL    HW1 1829   0.565   2.826   1.290 -0.5829  0.5456 -0.9705
  610SOL    HW2 1830   0.726   2.786   1.331  1.7508  1.8717  0.1255
  611SOL     OW 1831   0.770   1.319   0.665 -0.1217  0.0977  0.5222
  611SOL    HW1 1832   0.752   1.392   0.595  0.3227  2.8275 -1.1408
  611SOL    HW2 1833   0.706   1.241   0.654  0.6438  1.0036  1.6415
  612SOL     OW 1834   0.910   0.096   2.252 -0.1211 -0.1282 -0.1017
  612SOL    HW1 1835   0.871   0.056   2.335  1.3522 -1.7617 -1.3265
  612SOL    HW2 1836   0.899   0.191   2.244  0.7404 -1.7802  2.0231
  613SOL     OW 1837   2.429   1.355   0.518 -0.2420  0.4060 -0.9287
  613SOL    HW1 1838   2.397   1.449   0.541  0.9505 -1.5283  0.3031
  613SOL    HW2 1839   2.511   1.334   0.574 -3.1748 -1.7074 -1.3825
  614SOL     OW 1840   1.767   0.430   1.796 -0.5981 -0.0920 -0.5649
  614SOL    HW1 1841   1.697   0.485   1.847 -1.2522  0.1749  2.0155
  614SOL    HW2 1842   1.854   0.484   1.778  2.3018 -0.6506 -1.9541
  615SOL     OW 1843   0.889   1.887   0.947 -0.3155  0.3947 -0.0348
  615SOL    HW1 1844   0.956   1.831   1.003  0.2972  1.2808 -0.3093
  615SOL    HW2 1845   0.883   1.982   0.982  0.1828  0.1534 -0.0782
  616SOL     OW 1846   1.511   1.452   2.620 -0.6387 -0.0480  0.1525
  616SOL    HW1 1847   1.581   1.490   2.683  0.0991  0.6580 -1.1150
  616SOL    HW2 1848   1.500   1.353   2.640  2.5019  2.1020 -1.6511
  617SOL     OW 1849   1.864   2.622   0.586 -0.2781 -0.0593  0.2710
  617SOL    HW1 1850   1.779   2.610   0.531 -2.2922 -1.4793  1.4643
  617SOL    HW2 1851   1.943   2.657   0.533  0.8118  0.5665 -0.8803
  618SOL     OW 1852   0.779   1.142   2.957  0.3711  0.9325 -0.4722
  618SOL    HW1 1853   0.831   1.058   2.946 -1.1685  1.6811  0.6171
  618SOL    HW2 1854   0.836   1.213   3.004  1.4464 -0.6498  1.0215
  619SOL     OW 1855   2.762   1.446   0.630 -0.1820 -0.3899 -0.6769
  619SOL    HW1 1856   2.776   1.423   0.534  0.4647  1.5294  1.6476
  619SOL    HW2 1857   2.738   1.364   0.687  0.2827 -2.7029  0.5836
  620SOL     OW 1858   2.425   2.866   2.995  0.0350  1.1058 -0.0831
  620SOL    HW1 1859   2.409   2.802   3.076 -0.6170 -0.1006  1.3381
  620SOL    HW2 1860   2.388   2.823   2.914  0.2805  1.1260  1.6412
  621SOL     OW 1861   2.128   1.241   0.138  0.1160  0.1824  0.0779
  621SOL    HW1 1862   2.186   1.225   0.224 -0.6102 -1.1923  1.4946
  621SOL    HW2 1863   2.028   1.255   0.158  2.0469  1.2799  1.1717
  622SOL     OW 1864   1.098   2.300   2.574 -0.2783 -0.5124  0.2821
  622SOL    HW1 1865   1.053   2.392   2.586  0.5660  2.3844 -0.7900
  622SOL    HW2 1866   1.097   2.275   2.472 -1.0543  2.3274 -1.7984
  623SOL     OW 1867   0.668   1.887   0.006 -0.2778 -0.1213  0.3093
  623SOL    HW1 1868   0.725   1.882   3.032  2.0501  0.3382 -0.8796
  623SOL    HW2 1869   0.587   1.830   3.104 -2.8909  0.6474 -2.1950
  624SOL     OW 1870   0.283   3.060   2.773  0.7221 -0.0284  0.2269
  624SOL    HW1 1871   0.291   0.006   2.683  0.7178 -0.7134 -0.2974
  624SOL    HW2 1872   0.208   3.086   2.834  0.6346 -0.0636 -2.8286
  625SOL     OW 1873   0.748   2.054   0.230  0.4815  0.4284  0.1334
  625SOL    HW1 1874   0.747   2.154   0.210 -0.7014  0.3506 -0.6458
  625SOL    HW2 1875   0.730   2.006   0.142 -0.5773  0.8922 -3.3018
  626SOL     OW 1876   2.451   0.338   3.099 -0.2723  0.3225 -0.8840
  626SOL    HW1 1877   2.394   0.271   0.035 -1.9976  2.7188 -0.5411
  626SOL    HW2 1878   2.467   0.422   0.045  0.0548 -1.1939  1.2815
  627SOL     OW 1879   1.446   1.196   2.686  0.0377 -0.4654 -0.2439
  627SOL    HW1 1880   1.384   1.118   2.714 -0.4748 -2.0499 -1.0668
  627SOL    HW2 1881   1.523   1.157   2.628 -1.0466  0.5339 -0.1085
  628SOL     OW 1882   0.703   0.964   2.145 -0.7629 -0.3330  0.4365
  628SOL    HW1 1883   0.805   0.934   2.132  2.6406 -0.8109  2.3928
  628SOL    HW2 1884   0.676   1.034   2.075  1.0782 -0.5051  0.0454
  629SOL     OW 1885   0.438   3.059   2.019 -0.2979 -0.5424 -0.1619
  629SOL    HW1 1886   0.450   2.974   2.064  0.0360  0.3751 -2.9714
  629SOL    HW2 1887   0.502   0.013   2.064  2.8640  0.8523  1.2129
  630SOL     OW 1888   2.614   0.841   1.690 -0.1504  0.2947 -0.1566
  630SOL    HW1 1889   2.604   0.917   1.757 -0.9511 -1.2920  1.1950
  630SOL    HW2 1890   2.526   0.825   1.640  0.3020 -0.0915 -1.1340
  631SOL     OW 1891   2.302   1.151   0.326  0.2717 -0.0125 -0.2790
  631SOL    HW1 1892   2.264   1.057   0.334  0.4183 -0.5717 -0.5489
  631SOL    HW2 1893   2.322   1.195   0.414  1.1198 -0.7424 -1.3792
  632SOL     OW 1894   2.274   0.432   1.882 -0.0767 -0.6226 -0.1952
  632SOL    HW1 1895   2.356   0.366   1.878  2.9063  1.3242  1.5446
  632SOL    HW2 1896   2.189   0.386   1.914 -2.4702  2.0191 -0.2189
  633SOL     OW 1897   0.787   3.001   0.294 -0.4546  0.1499  0.0421
  633SOL    HW1 1898   0.684   3.007   0.282  1.3661  2.1646 -3.2916
  633SOL    HW2 1899   0.812   2.984   0.394  1.9486  2.0621  0.0626
  634SOL     OW 1900   1.411   0.010   0.005 -0.6087  0.0560 -0.2530
  634SOL    HW1 1901   1.423   0.109   3.093 -1.2974  0.4484  2.1589
  634SOL    HW2 1902   1.500   3.081   0.035  2.3383  1.1557  0.6408
  635SOL     OW 1903   2.804   0.442   0.105  0.1623  0.2634  0.6574
  635SOL    HW1 1904   2.866   0.521   0.134  3.2547 -1.1557 -1.3940
  635SOL    HW2 1905   2.707   0.466   0.125  1.7074 -0.7671  0.0255
  636SOL     OW 1906   0.689   1.638   0.931 -0.2232 -0.2388  0.4159
  636SOL    HW1 1907   0.735   1.724   0.905 -1.3063  0.0051 -0.3149
  636SOL    HW2 1908   0.758   1.557   0.933  2.9872  1.2900  1.6998
  637SOL     OW 1909   0.184   2.792   0.529 -0.7332 -0.2351  0.0800
  637SOL    HW1 1910   0.284   2.793   0.534 -0.4900  1.3661  0.7173
  637SOL    HW2 1911   0.148   2.700   0.497 -2.1984  1.5697 -2.7382
  638SOL     OW 1912   0.205   2.975   0.293  0.3040 -0.1499 -0.2412
  638SOL    HW1 1913   0.133   2.952   0.225 -0.0311  0.3399  1.0487
  638SOL    HW2 1914   0.209   2.917   0.375  1.1134 -0.2841  0.9889
  639SOL     OW 1915   1.124   1.539   0.333 -0.0123 -0.0660 -0.0628
  639SOL    HW1 1916   1.158   1.454   0.370 -3.3004 -0.3717 -0.4368
  639SOL    HW2 1917   1.204   1.601   0.312 -2.3686 -1.7944  0.1187
  640SOL     OW 1918   1.170   2.416   0.987 -0.6201 -0.2753 -0.3263
  640SOL    HW1 1919   1.238   2.405   0.913 -0.0208 -0.2896  0.1577
  640SOL    HW2 1920   1.071   2.417   0.954 -0.0013 -1.4341  0.7166
  641SOL     OW 1921   2.747   2.664   0.925  0.4430  0.6132  0.5743
  641SOL    HW1 1922   2.720   2.565   0.921  1.4162  0.8927  0.4375
  641SOL    HW2 1923   2.786   2.687   1.015 -1.3915 -0.4703 -0.1730
  642SOL     OW 1924   0.920   2.873   1.745  0.1853 -0.2042 -0.0498
  642SOL    HW1 1925   0.899   2.864   1.841  0.1234 -1.2161 -1.8376
  642SOL    HW2 1926   1.005   2.923   1.730  0.5597  0.0247 -0.6562
  643SOL     OW 1927   0.873   2.129   2.339 -0.6123  0.5070  0.3226
  643SOL    HW1 1928   0.831   2.101   2.248  0.0352 -1.7131  0.5969
  643SOL    HW2 1929   0.974   2.099   2.333 -0.5248 -2.2796  0.5249
  644SOL     OW 1930   0.898   2.993   0.559 -0.3004  0.3411 -0.2514
  644SOL    HW1 1931   0.970   3.017   0.624 -0.4813 -0.7584 -1.5929
  644SOL    HW2 1932   0.804   2.994   0.600 -0.6177  1.5024  0.2995
  645SOL     OW 1933   1.373   1.598   2.240  0.3819  0.2498  0.2044
  645SOL    HW1 1934   1.307   1.612   2.164 -0.1575 -0.0090 -0.0581
  645SOL    HW2 1935   1.325   1.588   2.329 -0.8687  1.2498 -0.6489
  646SOL     OW 1936   0.563   1.016   0.378 -0.1215 -0.1133 -0.3463
  646SOL    HW1 1937   0.618   0.942   0.329  2.1849  0.5503  1.2811
  646SOL    HW2 1938   0.604   1.108   0.363 -0.8416 -0.2489  1.2861
  647SOL     OW 1939   1.410   0.068   0.798  0.0001  0.5721  0.5069
  647SOL    HW1 1940   1.341   0.039   0.872 -1.8299 -1.2579 -0.2372
  647SOL    HW2 1941   1.503   0.029   0.821 -2.5124  0.0548 -0.9387
  648SOL     OW 1942   2.520   2.677   1.535 -0.0280 -0.5598 -0.5081
  648SOL    HW1 1943   2.466   2.675   1.623 -2.5420  1.6432  0.3426
  648SOL    HW2 1944   2.612   2.725   1.548  1.9633  0.2528  0.5518
  649SOL     OW 1945   0.744   2.299   0.134  0.2130  0.0077  0.1334
  649SOL    HW1 1946   0.657   2.348   0.160 -0.4977  1.1098 -0.8927
  649SOL    HW2 1947   0.738   2.283   0.031 -0.8254 -0.8826 -0.6868
  650SOL     OW 1948   3.025   2.047   1.457 -0.2633 -0.9095 -0.0387
  650SOL    HW1 1949   3.076   2.122   1.412 -0.4738  2.4699 -2.3852
  650SOL    HW2 1950   2.974   1.991   1.393  3.0159  0.4894  0.8882
  651SOL     OW 1951   0.134   0.013   2.987  0.0969  0.1499  0.6714
  651SOL    HW1 1952   0.055   0.034   2.932 -0.0126 -1.6158  0.3463
  651SOL    HW2 1953   0.161   0.097   3.039 -0.5460 -0.8137  0.1173
  652SOL     OW 1954   2.552   1.988   0.111  0.3062  0.1813  0.2183
  652SOL    HW1 1955   2.472   1.976   0.048 -2.7893  1.5179 -1.0479
  652SOL    HW2 1956   2.531   1.966   0.207 -0.2898 -1.5914  1.1980
  653SOL     OW 1957   0.356   0.383   1.036  0.2128 -0.1847 -0.2449
  653SOL    HW1 1958   0.449   0.357   1.001 -0.3661 -1.0021 -0.4348
  653SOL    HW2 1959   0.357   0.398   1.137  1.2458  3.1466 -0.5428
  654SOL     OW 1960   1.227   0.060   0.233 -0.1918 -0.2121 -0.0576
  654SOL    HW1 1961   1.251   3.114   0.312  1.1283 -0.7643 -0.1543
  654SOL    HW2 1962   1.285   0.044   0.151 -4.3668 -0.3627 -0.3724
  655SOL     OW 1963   0.703   2.633   1.011 -0.2583 -0.1270 -0.1661
  655SOL    HW1 1964   0.649   2.545   1.011  0.7090  0.3914  2.8335
  655SOL    HW2 1965   0.680   2.693   1.093 -0.3817  2.7513  0.8886
  656SOL     OW 1966   0.475   2.831   2.173 -0.1360  0.1928  0.3315
  656SOL    HW1 1967   0.495   2.768   2.095 -0.3625 -0.3491  0.1969
  656SOL    HW2 1968   0.552   2.843   2.237 -1.7463 -1.8138 -0.5324
  657SOL     OW 1969   1.709   0.820   2.594  0.0736 -0.1684  0.0906
  657SOL    HW1 1970   1.692   0.775   2.501 -0.2062 -0.5152  2.0894
  657SOL    HW2 1971   1.772   0.767   2.654  0.4359 -1.0562  2.2299
  658SOL     OW 1972   2.503   1.725   1.120  0.2418  0.2226 -0.1194
  658SOL    HW1 1973   2.530   1.781   1.200 -0.4435 -0.7124 -1.5994
  658SOL    HW2 1974   2.473   1.626   1.143 -0.2969 -1.5886 -3.1352
  659SOL     OW 1975   2.841   2.746   0.122 -0.0429  0.4062  0.2204
  659SOL    HW1 1976   2.928   2.795   0.143  0.6727 -2.6949  0.5478
  659SOL    HW2 1977   2.769   2.774   0.195 -0.5536  2.6251  3.0336
  660SOL     OW 1978   1.231   0.980   2.855  0.1471 -0.3125  0.1105
  660SOL    HW1 1979   1.307   0.986   2.924 -0.1891  0.0581  0.3513
  660SOL    HW2 1980   1.198   1.075   2.828  0.4153 -0.0153  0.3095
  661SOL     OW 1981   2.384   2.462   0.848  0.0901  0.0149 -0.4308
  661SOL    HW1 1982   2.318   2.392   0.813 -2.5771 -3.0568 -2.1150
  661SOL    HW2 1983   2.463   2.425   0.899  1.2490  0.3156 -1.6323
  662SOL     OW 1984   0.597   0.447   0.278 -0.0178 -0.0577  0.0681
  662SOL    HW1 1985   0.600   0.386   0.360 -2.8855 -0.1826 -0.8407
  662SOL    HW2 1986   0.500   0.480   0.260 -0.6786  0.0376 -1.5469
  663SOL     OW 1987   1.304   2.350   2.733  0.5703  0.2401 -0.0130
  663SOL    HW1 1988   1.374   2.409   2.692 -1.4937 -3.1541 -2.5571
  663SOL    HW2 1989   1.226   2.322   2.666 -1.4762  1.5538  1.9908
  664SOL     OW 1990   0.775   2.329   1.212  0.0671  0.2867 -0.2139
  664SOL    HW1 1991   0.834   2.379   1.281  1.4540  1.6402  0.2194
  664SOL    HW2 1992   0.835   2.264   1.160 -1.2568  0.4285 -0.5505
  665SOL     OW 1993   1.654   1.777   1.635 -0.1561  0.1044  0.5653
  665SOL    HW1 1994   1.624   1.877   1.644  0.5266  0.4829 -0.0237
  665SOL    HW2 1995   1.571   1.719   1.615  0.7865 -0.0630  1.5419
  666SOL     OW 1996   0.445   2.409   0.146 -0.6869  0.0049  0.1481
  666SOL    HW1 1997   0.396   2.431   0.060 -0.7570 -1.4947 -1.0281
  666SOL    HW2 1998   0.438   2.312   0.160 -1.1218  3.2103  0.6496
  667SOL     OW 1999   2.029   1.378   1.237 -0.0307 -0.6304 -0.2688
  667SOL    HW1 2000   2.073   1.400   1.328 -2.4058  1.0643 -0.9518
  667SOL    HW2 2001   1.945   1.323   1.244  0.8055 -0.3788 -2.1445
  668SOL     OW 2002   0.222   0.086   1.974 -0.4204  0.0971  0.6432
  668SOL    HW1 2003   0.310   0.035   1.977  1.4397  0.2071 -0.1312
  668SOL    HW2 2004   0.145   0.027   1.946  1.4978  3.2775  0.6348
  669SOL     OW 2005   2.082   2.302   2.388  0.2942  0.4939  0.1269
  669SOL    HW1 2006   2.033   2.298   2.476  0.3551  0.3969 -2.9459
  669SOL    HW2 2007   2.032   2.353   2.318 -1.1405  1.9511 -0.4504
  670SOL     OW 2008   2.300   2.009   0.355 -0.0230  0.2451 -0.6910
  670SOL    HW1 2009   2.262   1.933   0.411 -1.4586 -0.4606  0.3401
  670SOL    HW2 2010   2.361   2.069   0.412 -0.2705  0.1353 -0.5518
  671SOL     OW 2011   0.933   1.162   1.417  0.4390 -0.2326 -0.3723
  671SOL    HW1 2012   0.952   1.229   1.341 -0.5288  1.3477 -0.9354
  671SOL    HW2 2013   0.955   1.068   1.388 -1.1242  1.3174  0.7148
  672SOL     OW 2014   2.685   1.315   2.246 -0.1742  0.0943  0.0318
  672SOL    HW1 2015   2.726   1.353   2.331 -2.3856 -3.1626 -3.5286
  672SOL    HW2 2016   2.623   1.386   2.206  0.1600  1.2445  1.0802
  673SOL     OW 2017   2.889   1.516   2.336 -0.6300  1.1652  0.4153
  673SOL    HW1 2018   2.867   1.562   2.421  1.7175 -2.1863 -2.9901
  673SOL    HW2 2019   2.976   1.465   2.346  1.4589  2.3178 -0.8954
  674SOL     OW 2020   0.902   2.810   2.264 -0.0091 -0.0696 -0.1924
  674SOL    HW1 2021   0.957   2.898   2.251 -1.4879  1.6716  3.7958
  674SOL    HW2 2022   0.959   2.743   2.323 -3.0180 -0.1867  0.7687
  675SOL     OW 2023   0.746   0.830   1.559 -0.3730 -0.2721 -0.9044
  675SOL    HW1 2024   0.802   0.746   1.540  0.1096  1.0678  0.9569
  675SOL    HW2 2025   0.756   0.870   1.653  0.8170  0.2269 -3.2547
  676SOL     OW 2026   1.928   0.607   0.420  0.3336 -0.3118  0.0816
  676SOL    HW1 2027   1.861   0.587   0.499 -0.1527  0.3711  0.1681
  676SOL    HW2 2028   2.021   0.624   0.452 -1.0158  2.1610  1.3940
  677SOL     OW 2029   2.928   1.705   2.772 -0.2847  0.3941 -0.8211
  677SOL    HW1 2030   2.911   1.610   2.803 -3.3383  1.5552  1.3450
  677SOL    HW2 2031   2.957   1.760   2.852  1.7817  0.1868  0.5484
  678SOL     OW 2032   3.073   3.104   1.253  0.1750  0.0025  0.1519
  678SOL    HW1 2033   0.019   0.070   1.228  1.6272  2.2865 -2.0023
  678SOL    HW2 2034   3.095   3.059   1.339 -2.1691 -1.5618 -0.7143
  679SOL     OW 2035   2.105   0.008   0.319  0.2254  0.4628  0.5512
  679SOL    HW1 2036   2.204   0.014   0.295  1.3825  1.5409  0.6359
  679SOL    HW2 2037   2.072   0.100   0.348  1.4553 -0.9828 -0.0459
  680SOL     OW 2038   0.362   2.189   2.218  1.0467  0.3943  0.3926
  680SOL    HW1 2039   0.440   2.170   2.280  0.7345  0.8179 -0.6176
  680SOL    HW2 2040   0.399   2.218   2.129  1.6027  0.3797  1.0137
  681SOL     OW 2041   0.111   1.592   1.206 -0.2242 -0.3436  0.1897
  681SOL    HW1 2042   0.138   1.527   1.134  1.1250  0.8727  0.7435
  681SOL    HW2 2043   0.158   1.682   1.182  1.1899  1.1197  1.5089
  682SOL     OW 2044   0.490   2.362   1.711  0.3199 -0.3076 -0.3553
  682SOL    HW1 2045   0.529   2.270   1.738 -0.0132 -0.1717 -0.3062
  682SOL    HW2 2046   0.399   2.372   1.752 -0.6119 -1.9319 -1.6578
  683SOL     OW 2047   0.019   1.992   1.712 -0.1356  0.2681  0.6630
  683SOL    HW1 2048   3.105   2.016   1.612 -0.8351  0.2670 -2.0146
  683SOL    HW2 2049   3.114   1.892   1.724  0.7346  1.9551 -1.5524
  684SOL     OW 2050   2.411   1.562   3.008  0.6115 -0.2199  0.1526
  684SOL    HW1 2051   2.395   1.602   3.099 -1.7536 -0.0800 -0.9246
  684SOL    HW2 2052   2.498   1.601   2.970  1.9023  0.0587  2.2384
  685SOL     OW 2053   1.615   1.060   0.348  0.2115 -0.5270  0.0389
  685SOL    HW1 2054   1.691   0.994   0.326 -1.5796 -1.1803  0.0132
  685SOL    HW2 2055   1.619   1.143   0.288 -1.2576 -0.3174 -0.9322
  686SOL     OW 2056   0.309   0.081   0.604 -0.1267  0.2259 -0.1855
  686SOL    HW1 2057   0.317   0.012   0.677  0.4349 -2.1031  0.0472
  686SOL    HW2 2058   0.301   0.171   0.647  1.3039 -2.5118 -2.8791
  687SOL     OW 2059   0.977   1.267   2.534  0.3382  0.6018  0.5250
  687SOL    HW1 2060   1.017   1.331   2.603 -0.1637  0.0298  1.7598
  687SOL    HW2 2061   0.904   1.214   2.581  1.3110 -1.0137  1.2782
  688SOL     OW 2062   1.416   1.671   1.551  0.0299 -0.0719 -0.2097
  688SOL    HW1 2063   1.447   1.669   1.455 -1.4783 -0.8721 -1.4279
  688SOL    HW2 2064   1.318   1.699   1.563 -0.9243  0.0461 -0.8486
  689SOL     OW 2065   2.429   0.220   1.313  0.1688  0.3824  0.3499
  689SOL    HW1 2066   2.483   0.151   1.256 -0.2470 -1.9110  0.6893
  689SOL    HW2 2067   2.333   0.217   1.288  2.2013  1.6792  0.4110
  690SOL     OW 2068   3.001   1.358   0.997 -0.0841 -0.5267 -0.6662
  690SOL    HW1 2069   3.066   1.332   1.068 -0.6550  2.2654 -0.6168
  690SOL    HW2 2070   3.016   1.312   0.909  0.8120 -1.5208  1.4467
  691SOL     OW 2071   0.332   2.277   0.963  0.4027 -0.3073  0.1603
  691SOL    HW1 2072   0.413   2.338   0.949 -1.7033  1.9574 -1.2672
  691SOL    HW2 2073   0.361   2.183   0.991 -1.8154  1.2017  2.0074
  692SOL     OW 2074   2.417   0.169   1.592 -0.2821  0.4949  0.0269
  692SOL    HW1 2075   2.430   0.199   1.496 -3.7326 -1.7968 -0.9071
  692SOL    HW2 2076   2.316   0.162   1.608 -1.2935 -1.4509 -1.2752
  693SOL     OW 2077   0.125   1.766   2.291  0.0056  0.1445 -0.0997
  693SOL    HW1 2078   0.099   1.719   2.377  0.3984  1.4663  0.3432
  693SOL    HW2 2079   0.042   1.806   2.241 -1.9628 -1.1703 -1.0997
  694SOL     OW 2080   2.027   1.366   1.711  0.4375  0.5724 -0.2648
  694SOL    HW1 2081   1.995   1.271   1.693  2.4417  1.0772  1.5809
  694SOL    HW2 2082   2.114   1.366   1.771  1.6566  4.5987  2.4774
  695SOL     OW 2083   0.824   0.879   1.276 -0.4507 -0.4393  0.0401
  695SOL    HW1 2084   0.823   0.869   1.378  0.7185 -1.2481 -2.2681
  695SOL    HW2 2085   0.882   0.807   1.235 -0.3943 -0.6525 -1.4253
  696SOL     OW 2086   1.641   0.006   0.933  0.6186 -0.2798 -0.6523
  696SOL    HW1 2087   1.688   0.071   0.995 -0.4988 -2.5661 -0.8808
  696SOL    HW2 2088   1.716   3.070   0.878  2.6653  1.2256 -0.0689
  697SOL     OW 2089   1.064   0.444   1.277 -0.2826 -0.0982  0.4029
  697SOL    HW1 2090   1.073   0.410   1.372  0.8485 -2.1037  1.2203
  697SOL    HW2 2091   1.130   0.390   1.220  0.7098 -0.1383  1.1791
  698SOL     OW 2092   1.290   0.990   2.207 -0.0113  0.6161  0.7258
  698SOL    HW1 2093   1.259   0.902   2.250 -0.4112  0.7427  1.8996
  698SOL    HW2 2094   1.384   1.015   2.232 -1.6373 -1.2398 -1.3269
  699SOL     OW 2095   1.866   0.729   1.354  0.6451 -0.1619  0.2052
  699SOL    HW1 2096   1.822   0.731   1.265  0.3704 -1.0668 -2.4193
  699SOL    HW2 2097   1.967   0.740   1.350 -0.7271 -0.9248  2.7016
  700SOL     OW 2098   1.063   2.639   0.245 -0.3637  0.2621  0.4186
  700SOL    HW1 2099   1.021   2.689   0.322 -0.2044 -4.7148 -0.4165
  700SOL    HW2 2100   1.032   2.541   0.241  2.7561 -0.5812 -4.1209
  701SOL     OW 2101   2.201   2.367   2.982  0.0302 -0.1202 -0.3391
  701SOL    HW1 2102   2.165   2.459   2.949 -1.2466 -1.6283  0.9667
  701SOL    HW2 2103   2.292   2.376   3.033  1.1188  1.2683 -0.3583
  702SOL     OW 2104   0.615   0.370   0.950 -0.1220  0.2742 -0.0476
  702SOL    HW1 2105   0.686   0.427   0.987  0.6458 -0.2559  0.1077
  702SOL    HW2 2106   0.644   0.348   0.859  0.5717 -0.4046  1.7281
  703SOL     OW 2107   2.310   0.162   2.429  0.5708  0.2366 -0.2372
  703SOL    HW1 2108   2.349   0.090   2.371 -1.6091  3.7626  2.5083
  703SOL    HW2 2109   2.340   0.248   2.380 -0.2008  0.7610  2.5297
  704SOL     OW 2110   3.012   2.455   0.420  0.8650 -0.0603 -0.0334
  704SOL    HW1 2111   3.100   2.499   0.444 -1.8999 -2.2340  1.4059
  704SOL    HW2 2112   3.025   2.354   0.424 -1.8573 -0.3709  1.8798
  705SOL     OW 2113   2.805   2.851   2.310 -0.0628  0.0992 -0.0125
  705SOL    HW1 2114   2.812   2.770   2.372 -2.7370 -2.3826  1.0238
  705SOL    HW2 2115   2.847   2.935   2.345 -0.2909 -0.6408 -0.0698
  706SOL     OW 2116   2.148   2.919   1.331 -0.1846 -0.0307 -0.4659
  706SOL    HW1 2117   2.054   2.896   1.313  0.9321  2.4529 -3.0143
  706SOL    HW2 2118   2.201   2.842   1.371 -1.4637  0.5507  0.3952
  707SOL     OW 2119   0.803   2.552   2.161  0.0038  0.2260 -0.3746
  707SOL    HW1 2120   0.866   2.527   2.087 -3.2712 -0.7644  3.5665
  707SOL    HW2 2121   0.835   2.640   2.203  1.6468 -2.1051  0.3309
  708SOL     OW 2122   0.187   2.008   2.119  0.5249 -0.4391 -0.1109
  708SOL    HW1 2123   0.182   1.933   2.185 -1.3932  1.5135 -2.4339
  708SOL    HW2 2124   0.254   2.072   2.160 -0.0825  0.7082  1.3759
  709SOL     OW 2125   1.871   0.189   1.734 -0.2148  0.2885 -0.0887
  709SOL    HW1 2126   1.820   0.277   1.736 -0.7479  1.0236 -3.1922
  709SOL    HW2 2127   1.852   0.141   1.820 -1.3677 -0.7683  1.7427
  710SOL     OW 2128   1.297   0.573   2.729  0.1487 -0.1517  0.2214
  710SOL    HW1 2129   1.379   0.527   2.764 -0.7217  0.3663 -3.0841
  710SOL    HW2 2130   1.329   0.641   2.659 -1.3090  0.7052 -3.9966
  711SOL     OW 2131   0.943   1.853   2.581  0.5400 -0.4110 -0.2979
  711SOL    HW1 2132   1.010   1.914   2.633 -1.5378 -2.1006 -2.5271
  711SOL    HW2 2133   0.988   1.826   2.494  0.1461 -0.7302  0.9999
  712SOL     OW 2134   0.863   2.496   2.530 -0.1145 -0.6741  0.4521
  712SOL    HW1 2135   0.823   2.566   2.595 -0.4698 -0.7333  1.4404
  712SOL    HW2 2136   0.804   2.414   2.521  2.3214  1.8793 -1.5073
  713SOL     OW 2137   1.758   1.306   2.528 -0.2341  0.2659 -0.0301
  713SOL    HW1 2138   1.736   1.365   2.610 -0.6940  0.1324 -0.6165
  713SOL    HW2 2139   1.829   1.345   2.467 -1.3351 -0.6365 -0.8499
  714SOL     OW 2140   1.211   1.696   2.023 -0.0598  0.0929  0.7275
  714SOL    HW1 2141   1.138   1.746   1.974  0.4002  1.3742  2.2510
  714SOL    HW2 2142   1.278   1.653   1.956  1.4793 -2.3278 -3.2212
  715SOL     OW 2143   1.768   0.387   2.712  0.0344 -0.0471 -0.1263
  715SOL    HW1 2144   1.766   0.418   2.612 -2.7708 -0.5285 -2.0786
  715SOL    HW2 2145   1.798   0.288   2.724  2.6392  2.0947 -1.0571
  716SOL     OW 2146   0.043   2.261   1.336 -0.1248 -0.4961  0.0081
  716SOL    HW1 2147   0.036   2.335   1.406 -0.9070 -1.2634  0.1047
  716SOL    HW2 2148   0.034   2.309   1.249 -1.4023 -0.6789 -2.6928
  717SOL     OW 2149   2.725   1.173   0.728  0.3694  0.0593 -0.5902
  717SOL    HW1 2150   2.730   1.148   0.828 -0.8680 -1.7929  2.5864
  717SOL    HW2 2151   2.747   1.090   0.674  0.1961 -1.9357 -0.5767
  718SOL     OW 2152   1.266   1.974   2.068  0.2051 -0.0278  0.0565
  718SOL    HW1 2153   1.287   1.981   2.169  0.6808 -0.0085  4.9138
  718SOL    HW2 2154   1.187   1.905   2.055 -2.4655 -1.8484  0.4188
  719SOL     OW 2155   2.071   0.819   2.762  0.1467  0.1227  0.4291
  719SOL    HW1 2156   1.995   0.759   2.789 -0.4427  0.2640  0.9231
  719SOL    HW2 2157   2.155   0.774   2.793 -1.5793  0.9777 -0.1948
  720SOL     OW 2158   0.814   0.481   1.133  0.2915  0.3567  0.2783
  720SOL    HW1 2159   0.749   0.460   1.208 -1.1924 -1.3542  0.7592
  720SOL    HW2 2160   0.911   0.465   1.157  0.1889 -0.1152 -1.2420
  721SOL     OW 2161   2.851   0.948   0.645 -0.0530  0.4550 -0.1589
  721SOL    HW1 2162   2.911   1.003   0.585  0.2348 -1.3675  2.3293
  721SOL    HW2 2163   2.781   0.896   0.595 -1.7864 -0.3809 -0.5809
  722SOL     OW 2164   3.097   0.105   2.710  0.6743 -0.1948  0.1191
  722SOL    HW1 2165   3.016   0.117   2.772 -1.9032 -0.2040 -0.9200
  722SOL    HW2 2166   0.010   0.195   2.666 -0.2115 -2.2868 -2.3374
  723SOL     OW 2167   1.575   0.346   0.453  0.4843 -0.0921 -0.4117
  723SOL    HW1 2168   1.594   0.349   0.553 -0.4507 -1.3060 -0.0769
  723SOL    HW2 2169   1.474   0.334   0.444 -1.4652  0.3816  0.5392
  724SOL     OW 2170   0.770   1.837   2.216  0.1431  0.1839  0.2465
  724SOL    HW1 2171   0.730   1.760   2.162  0.4628  3.8660  0.4756
  724SOL    HW2 2172   0.712   1.858   2.296  3.0266 -1.1679 -0.3726
  725SOL     OW 2173   1.499   2.955   1.066 -0.3392  0.0246 -0.2162
  725SOL    HW1 2174   1.535   2.938   1.165  2.5347  1.3308  2.9305
  725SOL    HW2 2175   1.559   3.029   1.032 -2.1578  0.7410  1.8750
  726SOL     OW 2176   2.133   2.657   0.157  0.1240 -0.2128  0.5733
  726SOL    HW1 2177   2.107   2.675   0.255 -1.5882  1.4620  0.1544
  726SOL    HW2 2178   2.232   2.649   0.150  3.0273 -2.1882 -0.0414
  727SOL     OW 2179   1.429   1.689   0.875 -0.2088  0.3528 -0.1051
  727SOL    HW1 2180   1.400   1.776   0.906  2.6854 -3.1371 -0.5074
  727SOL    HW2 2181   1.365   1.655   0.803 -2.2952  1.0977 -2.0432
  728SOL     OW 2182   2.143   2.569   1.924  0.2091  0.1468  0.0343
  728SOL    HW1 2183   2.125   2.593   1.825 -1.7509  2.7076 -0.7070
  728SOL    HW2 2184   2.208   2.487   1.940 -1.7541  0.3085 -0.6840
  729SOL     OW 2185   2.049   1.986   1.421  0.2379  0.1354 -0.3611
  729SOL    HW1 2186   2.009   1.920   1.489  0.9839 -1.9113  0.1708
  729SOL    HW2 2187   2.063   1.947   1.327  0.8454 -0.4253  1.0475
  730SOL     OW 2188   1.461   0.765   2.945 -0.3065 -0.5581 -0.0611
  730SOL    HW1 2189   1.491   0.717   2.858 -2.8576  0.2954  0.7249
  730SOL    HW2 2190   1.488   0.722   3.032  1.0307  0.8852 -0.7046
  731SOL     OW 2191   0.536   0.100   1.000  0.1194  0.0093 -0.1638
  731SOL    HW1 2192   0.442   0.101   1.048 -3.4246 -2.0063  0.2722
  731SOL    HW2 2193   0.568   0.195   0.991 -1.7114 -0.8019  1.1640
  732SOL     OW 2194   1.319   0.429   0.729 -0.0633 -0.3405 -0.4729
  732SOL    HW1 2195   1.287   0.495   0.659 -2.2371  2.5907  0.1808
  732SOL    HW2 2196   1.252   0.356   0.754 -2.2324  0.5149 -1.9326
  733SOL     OW 2197   1.015   1.519   1.313  0.1697 -0.2256 -0.1905
  733SOL    HW1 2198   0.984   1.534   1.408 -1.0665  0.4985 -4.5884
  733SOL    HW2 2199   0.948   1.464   1.256 -0.4268  0.0617 -1.6834
  734SOL     OW 2200   2.821   2.700   2.964  0.4162  0.1787 -0.2212
  734SOL    HW1 2201   2.826   2.702   3.065 -1.4239 -1.3852  0.2217
  734SOL    HW2 2202   2.731   2.651   2.939 -1.1634 -1.3299 -0.2334
  735SOL     OW 2203   1.049   2.778   1.201  0.0298  0.0610  0.1243
  735SOL    HW1 2204   0.987   2.849   1.234  0.8329  1.0304 -2.0510
  735SOL    HW2 2205   1.053   2.787   1.100 -1.5308  0.5126 -0.3385
  736SOL     OW 2206   1.842   2.023   0.551  0.4265  0.2009 -0.0968
  736SOL    HW1 2207   1.845   2.125   0.542  0.7876  2.9605 -1.3705
  736SOL    HW2 2208   1.868   1.979   0.462 -2.1742  0.7631 -0.2365
  737SOL     OW 2209   3.042   1.671   1.388  0.3399 -0.8344 -0.3198
  737SOL    HW1 2210   3.085   1.622   1.311 -0.6822  2.9946 -0.1412
  737SOL    HW2 2211   3.107   1.740   1.417  0.9565 -1.4328  0.0304
  738SOL     OW 2212   1.950   2.281   2.624  0.0968  0.2598  0.5257
  738SOL    HW1 2213   1.943   2.367   2.672 -1.8110 -1.7097 -1.7017
  738SOL    HW2 2214   1.857   2.238   2.616 -0.2106  0.3780  0.1099
  739SOL     OW 2215   1.310   1.818   2.594  0.1497  0.4861  0.1184
  739SOL    HW1 2216   1.271   1.897   2.645  2.7287  0.1399 -0.9420
  739SOL    HW2 2217   1.411   1.825   2.590  1.7870  2.2657 -1.2183
  740SOL     OW 2218   1.248   3.017   0.975 -0.0213  0.0347  0.3178
  740SOL    HW1 2219   1.333   2.986   1.026 -0.3278  0.7313  0.1571
  740SOL    HW2 2220   1.187   2.935   0.963 -0.5373 -0.3471 -0.2370
  741SOL     OW 2221   0.217   1.018   0.436  0.4172 -0.2968  0.1896
  741SOL    HW1 2222   0.210   1.118   0.439  1.3965  0.8249 -0.5244
  741SOL    HW2 2223   0.283   0.975   0.377  0.3076  0.9107  1.0430
  742SOL     OW 2224   1.191   1.607   2.469 -0.9350  0.3589 -0.9048
  742SOL    HW1 2225   1.202   1.511   2.506  0.5801  2.0917  2.2020
  742SOL    HW2 2226   1.230   1.676   2.534 -1.9594  1.1884 -0.0536
  743SOL     OW 2227   0.967   1.027   2.086 -0.5402  0.1874  0.3685
  743SOL    HW1 2228   0.979   1.094   2.165 -1.4801  0.7126  0.0322
  743SOL    HW2 2229   0.993   1.075   1.998 -1.6329  0.9301  0.6793
  744SOL     OW 2230   2.130   2.982   1.601  0.5151 -1.2667 -0.2549
  744SOL    HW1 2231   2.039   2.947   1.624 -1.7574  2.3989 -1.4174
  744SOL    HW2 2232   2.147   2.977   1.497 -0.6782  0.5672 -3.8739
  745SOL     OW 2233   2.144   1.445   1.472  0.1832  0.5638  0.2676
  745SOL    HW1 2234   2.193   1.535   1.481  2.8991 -0.4481 -2.0310
  745SOL    HW2 2235   2.089   1.428   1.559  1.3736 -1.5610  2.1564
  746SOL     OW 2236   1.847   1.090   0.671 -0.0569  0.3553  0.6720
  746SOL    HW1 2237   1.905   1.117   0.593  0.3338  0.8620  1.6684
  746SOL    HW2 2238   1.762   1.054   0.631 -0.5878 -0.7789  1.4073
  747SOL     OW 2239   2.439   1.603   0.668 -0.1464  0.6112  0.7109
  747SOL    HW1 2240   2.502   1.671   0.622 -3.4609 -0.2144  0.9050
  747SOL    HW2 2241   2.380   1.654   0.733 -0.8965 -1.1435 -1.8459
  748SOL     OW 2242   0.283   1.832   0.384 -0.3980  0.0611 -0.2107
  748SOL    HW1 2243   0.257   1.857   0.289 -0.8903 -0.9872  2.3803
  748SOL    HW2 2244   0.362   1.775   0.383 -2.9672  4.0705  1.0210
  749SOL     OW 2245   3.056   2.361   2.686  0.5649  0.0885 -0.4227
  749SOL    HW1 2246   2.979   2.369   2.621  2.6895  2.5159  0.2485
  749SOL    HW2 2247   3.064   2.451   2.731 -1.6405 -2.1539 -2.9320
  750SOL     OW 2248   2.142   0.761   0.532  0.3846 -0.0368 -0.3020
  750SOL    HW1 2249   2.243   0.757   0.511  0.5491 -1.9654  1.1939
  750SOL    HW2 2250   2.123   0.825   0.606  1.3388  0.1341 -0.2542
  751SOL     OW 2251   2.618   0.014   0.121  0.1017  0.0288  0.9786
  751SOL    HW1 2252   2.593   0.006   0.018  0.5632  0.2558 -3.9222
  751SOL    HW2 2253   2.703   3.082   0.140 -2.8165  0.7023  1.5347
  752SOL     OW 2254   2.565   2.815   0.797 -0.3338 -0.3858 -0.5899
  752SOL    HW1 2255   2.597   2.911   0.801 -0.4646 -1.6992  0.0295
  752SOL    HW2 2256   2.629   2.752   0.847 -0.8795 -4.9704  3.0422
  753SOL     OW 2257   1.538   1.081   2.242  0.2650 -0.2319  0.0879
  753SOL    HW1 2258   1.569   1.061   2.334  0.8978 -1.4186  0.9601
  753SOL    HW2 2259   1.554   1.179   2.217  0.1378  0.7900  1.5317
  754SOL     OW 2260   2.031   2.204   2.038 -0.4251 -0.2268  0.0799
  754SOL    HW1 2261   2.035   2.154   1.950 -0.6249 -2.6360 -1.8866
  754SOL    HW2 2262   2.048   2.137   2.115  1.6877 -0.7931  0.1906
  755SOL     OW 2263   2.579   0.933   0.983  0.3037  0.5096 -0.0828
  755SOL    HW1 2264   2.665   0.893   1.026  0.3734  0.4978  1.9461
  755SOL    HW2 2265   2.585   1.033   0.994 -0.6093  0.9588  0.2160
  756SOL     OW 2266   0.869   1.346   3.114 -0.3407  0.1316  0.1024
  756SOL    HW1 2267   0.860   1.384   0.092 -1.5882  1.1984  0.3065
  756SOL    HW2 2268   0.875   1.424   3.053 -2.7505 -0.4931  1.7138
  757SOL     OW 2269   1.848   2.576   1.296  0.2027  0.3812 -0.2936
  757SOL    HW1 2270   1.934   2.521   1.281  2.5196 -1.5773 -0.2179
  757SOL    HW2 2271   1.788   2.562   1.217  0.0986  0.8944  0.3270
  758SOL     OW 2272   1.113   2.142   1.332  0.4637  0.3763  0.2955
  758SOL    HW1 2273   1.146   2.135   1.237  0.0580  0.6988 -1.0148
  758SOL    HW2 2274   1.072   2.235   1.344 -0.3460  1.7211  2.0006
  759SOL     OW 2275   2.737   1.434   1.056  0.5170 -0.1208 -0.4528
  759SOL    HW1 2276   2.720   1.450   1.158 -2.3862 -2.1727  1.4729
  759SOL    HW2 2277   2.836   1.420   1.038  1.7375  0.9697  1.5266
  760SOL     OW 2278   2.175   1.032   1.568  0.1156  0.2002 -0.1836
  760SOL    HW1 2279   2.117   0.979   1.503 -0.1679  1.5346 -1.8434
  760SOL    HW2 2280   2.210   1.119   1.531 -2.4084  1.6098 -0.5845
  761SOL     OW 2281   1.910   2.979   0.189 -0.3673  0.2265  0.3887
  761SOL    HW1 2282   1.956   3.029   0.268  1.6041  0.8526  2.3140
  761SOL    HW2 2283   1.976   2.940   0.123 -0.3780  1.5584 -1.4589
  762SOL     OW 2284   1.956   1.884   2.801  0.0594  0.0032 -0.2714
  762SOL    HW1 2285   1.857   1.905   2.789  0.4786 -0.2465  2.1570
  762SOL    HW2 2286   2.011   1.970   2.800  1.1915  1.4461 -0.4232
  763SOL     OW 2287   0.698   1.777   1.621 -0.2995 -0.3629  0.4230
  763SOL    HW1 2288   0.665   1.686   1.605 -0.9355  2.1773 -5.2345
  763SOL    HW2 2289   0.623   1.840   1.596  1.4043 -0.5236 -0.8670
  764SOL     OW 2290   0.030   2.401   0.084  0.0934  0.1384  0.0398
  764SOL    HW1 2291   3.061   2.422   0.138  0.8432 -0.0785  0.1104
  764SOL    HW2 2292   0.047   2.479   0.019 -0.7981 -0.8235 -1.0184
  765SOL     OW 2293   0.632   0.154   1.352  0.0245  0.2258 -0.0205
  765SOL    HW1 2294   0.663   0.131   1.446  1.0769 -1.1696  1.1629
  765SOL    HW2 2295   0.689   0.105   1.286 -2.3352  2.0303  0.3410
  766SOL     OW 2296   3.094   2.092   1.981 -0.8500 -0.0444 -0.0825
  766SOL    HW1 2297   0.065   2.049   2.028  0.3886 -2.4212  1.1990
  766SOL    HW2 2298   3.095   2.086   1.879 -1.5028  1.0665  1.6832
  767SOL     OW 2299   2.781   1.017   2.043  0.6255 -0.1430  0.0628
  767SOL    HW1 2300   2.708   1.039   1.971 -1.3588  0.3022  1.5617
  767SOL    HW2 2301   2.853   0.967   1.997  0.7734 -0.5599  2.2860
  768SOL     OW 2302   0.857   0.232   2.754  0.6063 -0.3174 -0.0466
  768SOL    HW1 2303   0.809   0.158   2.800 -2.1456 -0.3671 -0.9113
  768SOL    HW2 2304   0.889   0.301   2.817 -0.3602 -1.3515 -4.3562
  769SOL     OW 2305   2.418   2.727   1.045 -0.1819 -0.5966 -0.4046
  769SOL    HW1 2306   2.477   2.772   0.968 -0.4014  0.7650 -1.3545
  769SOL    HW2 2307   2.350   2.665   1.004  1.2600  0.0760  1.6644
  770SOL     OW 2308   0.029   2.991   2.582 -0.2860 -0.1042 -0.5948
  770SOL    HW1 2309   3.113   3.085   2.618 -1.3733 -0.4578  0.2290
  770SOL    HW2 2310   0.127   2.979   2.608  2.3566 -1.3988  1.7128
  771SOL     OW 2311   1.743   2.227   1.948  0.1226 -0.2566  0.0566
  771SOL    HW1 2312   1.793   2.211   1.861  0.9812 -0.7266  1.0842
  771SOL    HW2 2313   1.732   2.134   1.989  1.1419  1.5279  0.4276
  772SOL     OW 2314   1.288   0.331   3.043  0.3254 -0.2435  0.3191
  772SOL    HW1 2315   1.205   0.283   3.081  1.1723  0.5799  1.2220
  772SOL    HW2 2316   1.291   0.320   2.941 -0.0004  0.1086  0.9011
  773SOL     OW 2317   2.690   0.587   1.777  0.1231  0.2439  0.3053
  773SOL    HW1 2318   2.783   0.547   1.776  1.0080  0.2953  2.2184
  773SOL    HW2 2319   2.691   0.672   1.716  0.2666 -1.1968  0.4621
  774SOL     OW 2320   1.058   1.159   1.162 -0.1058 -0.0897 -0.0952
  774SOL    HW1 2321   1.080   1.080   1.223 -0.1212  1.9975 -0.8662
  774SOL    HW2 2322   1.135   1.173   1.099 -0.2986  0.9779 -0.1509
  775SOL     OW 2323   2.257   3.113   2.936  0.0227 -0.0343 -0.1328
  775SOL    HW1 2324   2.259   0.031   2.833  1.9262  1.0625 -0.3862
  775SOL    HW2 2325   2.320   3.036   2.959 -0.2906  1.6052  0.6221
  776SOL     OW 2326   2.574   1.079   1.846  0.4803 -0.3297  0.2571
  776SOL    HW1 2327   2.479   1.085   1.888  0.5085  3.8094 -0.5338
  776SOL    HW2 2328   2.610   1.171   1.825 -2.6737  2.5133  4.7217
  777SOL     OW 2329   0.279   1.118   2.318  0.1967  0.2503 -0.2014
  777SOL    HW1 2330   0.332   1.051   2.260  1.0898 -2.8443 -0.6839
  777SOL    HW2 2331   0.309   1.217   2.294  1.5967  2.4521  0.2325
  778SOL     OW 2332   0.480   0.790   3.048 -0.0082  0.2098 -0.0860
  778SOL    HW1 2333   0.482   0.870   2.986  1.1950  1.2537 -0.6918
  778SOL    HW2 2334   0.460   0.701   2.997  1.2691  1.3962 -0.6029
  779SOL     OW 2335   0.490   0.313   2.402 -0.1595 -0.0220 -0.3225
  779SOL    HW1 2336   0.525   0.255   2.485 -1.3704 -1.2849  2.1823
  779SOL    HW2 2337   0.407   0.276   2.360  0.0236  0.1387  0.8482
  780SOL     OW 2338   2.239   1.222   2.720 -0.5057 -0.0683  0.9197
  780SOL    HW1 2339   2.313   1.247   2.778 -2.0172 -0.3566  0.7106
  780SOL    HW2 2340   2.279   1.164   2.647 -1.3253  2.5237  1.3048
  781SOL     OW 2341   2.999   0.904   1.906  0.0812 -0.3605 -0.0633
  781SOL    HW1 2342   3.025   0.877   1.814 -0.4920  1.8193  0.5994
  781SOL    HW2 2343   3.016   0.829   1.974 -1.7745 -2.3853  0.4325
  782SOL     OW 2344   0.580   1.555   2.758 -0.0035 -0.4278 -0.1456
  782SOL    HW1 2345   0.580   1.479   2.826 -0.5577 -0.6691 -0.5179
  782SOL    HW2 2346   0.677   1.583   2.730 -1.8603  1.7244  0.1880
  783SOL     OW 2347   1.196   2.164   1.083  0.0105 -0.7121 -0.2657
  783SOL    HW1 2348   1.209   2.265   1.062 -1.2737 -0.3535  0.8623
  783SOL    HW2 2349   1.262   2.108   1.029 -0.2414 -2.5450 -1.1574
  784SOL     OW 2350   1.529   0.412   2.822  0.5709 -0.2678  0.2301
  784SOL    HW1 2351   1.503   0.389   2.917  0.2041 -0.9395 -0.6789
  784SOL    HW2 2352   1.630   0.400   2.797  2.4265  0.5960  2.1401
  785SOL     OW 2353   0.728   0.012   1.853 -0.3156 -0.8982  0.1266
  785SOL    HW1 2354   0.777   3.050   1.903  1.2519  0.7366 -1.0516
  785SOL    HW2 2355   0.750   0.000   1.757  2.5363  1.4117 -0.3543
  786SOL     OW 2356   0.314   2.060   0.558 -0.3364 -0.2260 -0.3454
  786SOL    HW1 2357   0.302   1.993   0.484  1.3343  0.5552  1.6018
  786SOL    HW2 2358   0.390   2.027   0.620  2.3957 -1.4915 -1.4107
  787SOL     OW 2359   1.118   0.797   0.454 -0.6141  0.4909 -0.1144
  787SOL    HW1 2360   1.120   0.842   0.364  2.0046 -1.5046 -1.6808
  787SOL    HW2 2361   1.068   0.848   0.523  0.0110 -2.9563 -1.8385
  788SOL     OW 2362   2.593   1.479   1.320  0.4722  0.1888 -0.3324
  788SOL    HW1 2363   2.690   1.486   1.363  0.6653  1.7458  0.4507
  788SOL    HW2 2364   2.523   1.523   1.380 -2.8776  0.3830 -0.0338
  789SOL     OW 2365   2.706   1.059   2.300 -0.8142  0.6769 -0.4200
  789SOL    HW1 2366   2.731   1.032   2.207 -0.2834  0.3147  0.3756
  789SOL    HW2 2367   2.702   1.160   2.301 -0.0218 -1.2856 -2.7152
  790SOL     OW 2368   0.719   0.186   0.014 -0.1161 -0.8461 -0.0076
  790SOL    HW1 2369   0.771   0.132   0.084 -0.7405 -1.5191 -0.4832
  790SOL    HW2 2370   0.752   0.279   0.018 -0.6103 -3.0660  0.6758
  791SOL     OW 2371   3.068   0.389   2.989  0.3826  0.2569 -0.4046
  791SOL    HW1 2372   3.039   0.295   2.972 -2.8440  2.5133 -1.1534
  791SOL    HW2 2373   3.082   0.404   3.092  0.4068 -1.3946  1.0711
  792SOL     OW 2374   1.379   0.718   2.517 -0.1636  0.0810  0.3664
  792SOL    HW1 2375   1.338   0.659   2.444 -3.8127  0.9679  0.3228
  792SOL    HW2 2376   1.467   0.759   2.488  2.6851  1.7908  2.6669
  793SOL     OW 2377   0.014   0.328   0.692  0.7560 -0.1747  0.3897
  793SOL    HW1 2378   3.092   0.398   0.626 -0.8469 -1.9014  0.9880
  793SOL    HW2 2379   3.062   0.310   0.771 -3.3115 -2.1456  1.1185
  794SOL     OW 2380   0.260   0.640   1.997 -0.0802 -0.4397 -0.0119
  794SOL    HW1 2381   0.297   0.673   1.909  2.6078  0.6466  0.5231
  794SOL    HW2 2382   0.167   0.597   1.992 -1.7363  2.7128  0.3490
  795SOL     OW 2383   0.317   1.245   0.143 -0.2562  0.1634 -0.6234
  795SOL    HW1 2384   0.412   1.225   0.113 -1.7143 -0.7624 -0.0062
  795SOL    HW2 2385   0.290   1.213   0.233  2.8202  1.8746 -2.7892
  796SOL     OW 2386   3.088   0.939   3.105 -0.3288  0.1828  0.1478
  796SOL    HW1 2387   0.004   0.844   0.016 -1.1488 -1.1614  0.4394
  796SOL    HW2 2388   0.047   1.009   3.111  0.2707  2.0503  3.1797
  797SOL     OW 2389   1.614   2.634   2.755 -0.2744  0.2444 -0.0920
  797SOL    HW1 2390   1.595   2.733   2.763 -0.6791 -1.1521 -1.4731
  797SOL    HW2 2391   1.575   2.596   2.672 -2.1970 -0.7866  1.2169
  798SOL     OW 2392   0.084   0.241   1.142 -0.1974 -0.3676 -0.1007
  798SOL    HW1 2393   0.036   0.255   1.052  0.0824  0.5661  1.5516
  798SOL    HW2 2394   0.134   0.327   1.166 -0.3716 -0.9492 -0.6455
  799SOL     OW 2395   2.121   0.826   1.993  0.1632 -0.3657 -0.4970
  799SOL    HW1 2396   2.164   0.863   2.077 -0.1268 -2.3367 -3.3375
  799SOL    HW2 2397   2.189   0.783   1.930  2.5382 -0.0868 -0.0499
  800SOL     OW 2398   0.050   1.756   0.502  0.5437 -0.2232  0.0333
  800SOL    HW1 2399   0.139   1.799   0.480 -2.4504 -1.3419  1.5229
  800SOL    HW2 2400   0.030   1.671   0.450  0.4017  1.7207  0.3894
  801SOL     OW 2401   1.434   2.043   0.718 -0.2123 -1.1852  0.5941
  801SOL    HW1 2402   1.418   2.044   0.820 -3.0282  1.7063  1.8233
  801SOL    HW2 2403   1.512   1.987   0.689 -1.2011  1.1045 -1.2111
  802SOL     OW 2404   1.502   1.529   3.019 -0.2987  0.4966  0.4321
  802SOL    HW1 2405   1.503   1.544   0.007  1.1387  2.0746  1.1080
  802SOL    HW2 2406   1.594   1.510   2.981 -0.3502  0.2999  1.7194
  803SOL     OW 2407   0.537   1.987   1.576 -0.1298 -0.4810  0.4322
  803SOL    HW1 2408   0.573   2.045   1.502 -0.8029 -0.6323 -2.8436
  803SOL    HW2 2409   0.443   2.015   1.603  1.4040  0.4300  1.4507
  804SOL     OW 2410   1.618   2.489   1.064 -0.2702 -0.0642 -0.3989
  804SOL    HW1 2411   1.718   2.475   1.044  0.5607  1.6489 -0.8754
  804SOL    HW2 2412   1.587   2.577   1.031 -0.8184 -2.1326  0.8314
  805SOL     OW 2413   2.337   2.349   2.732 -0.1623 -0.5745  0.1714
  805SOL    HW1 2414   2.423   2.328   2.783 -0.5302  1.3184 -0.0137
  805SOL    HW2 2415   2.258   2.336   2.795  0.9255  0.4113  1.1897
  806SOL     OW 2416   2.667   3.065   0.721  0.3536  0.3479  0.0533
  806SOL    HW1 2417   2.684   0.046   0.691  0.5889  0.3458  1.0554
  806SOL    HW2 2418   2.730   3.003   0.669  1.4836  0.8160 -1.6547
  807SOL     OW 2419   0.299   1.154   2.605 -0.3286 -0.1814  0.2369
  807SOL    HW1 2420   0.280   1.127   2.507  1.4186  1.7444 -1.0677
  807SOL    HW2 2421   0.241   1.099   2.672 -1.8364 -2.3326  1.9751
  808SOL     OW 2422   0.753   1.684   0.641 -0.1158 -0.1477  0.2899
  808SOL    HW1 2423   0.687   1.607   0.650  0.6427 -1.7367 -0.1337
  808SOL    HW2 2424   0.730   1.743   0.561 -2.1136 -0.2858 -2.6523
  809SOL     OW 2425   2.699   0.021   1.950 -0.0099 -0.0790  0.1184
  809SOL    HW1 2426   2.635   0.012   1.870  1.6905  0.6522 -0.2830
  809SOL    HW2 2427   2.665   0.028   2.044  2.3226 -3.4355  3.8195
  810SOL     OW 2428   1.431   0.694   1.243 -0.3316 -0.7524 -0.1040
  810SOL    HW1 2429   1.494   0.677   1.165 -0.9987  1.4848 -0.2304
  810SOL    HW2 2430   1.406   0.791   1.255 -0.0531 -1.3704  0.1927
  811SOL     OW 2431   1.820   0.063   1.972 -0.1222 -0.0911  0.0884
  811SOL    HW1 2432   1.823   3.078   1.985  0.9745 -0.8058  0.5957
  811SOL    HW2 2433   1.743   0.097   2.034 -0.5815  2.0353  2.2719
  812SOL     OW 2434   2.040   2.043   0.716  0.2814 -0.1672  0.4241
  812SOL    HW1 2435   1.970   2.025   0.645 -2.3033 -3.0963 -0.6561
  812SOL    HW2 2436   2.023   1.981   0.795  2.4705  4.1445 -2.1195
  813SOL     OW 2437   1.158   0.512   1.772  0.1241 -0.3997 -0.2880
  813SOL    HW1 2438   1.080   0.481   1.826 -0.6225 -0.3902 -1.0265
  813SOL    HW2 2439   1.211   0.589   1.821  0.4751  1.4290  1.1653
  814SOL     OW 2440   0.303   0.068   1.111 -0.1698 -0.3695 -0.2477
  814SOL    HW1 2441   0.264   3.100   1.073 -0.7807 -0.9733  1.2211
  814SOL    HW2 2442   0.229   0.144   1.111 -1.4002  1.5562  2.0137
  815SOL     OW 2443   0.172   0.121   0.361 -0.2386 -0.3383 -0.4202
  815SOL    HW1 2444   0.195   0.024   0.333  0.5886 -5.0448 -0.1977
  815SOL    HW2 2445   0.206   0.140   0.456 -1.3866  1.2337  0.6934
  816SOL     OW 2446   2.442   1.791   2.371  0.0087  0.0460 -0.1353
  816SOL    HW1 2447   2.419   1.853   2.297  1.3001  2.0850  0.5937
  816SOL    HW2 2448   2.365   1.800   2.441  0.1165  0.6106  1.5209
  817SOL     OW 2449   1.086   0.005   0.746 -0.3959 -0.2637 -0.7019
  817SOL    HW1 2450   1.144   0.077   0.700  0.9492 -1.6043 -0.1020
  817SOL    HW2 2451   1.147   3.069   0.813  1.2800 -0.3920  2.9269
  818SOL     OW 2452   1.814   0.513   3.082  0.9013 -0.3497 -0.1234
  818SOL    HW1 2453   1.810   0.439   3.013 -3.3814  0.2117  0.5782
  818SOL    HW2 2454   1.847   0.483   0.061 -2.4174  1.1862  2.6753
  819SOL     OW 2455   2.263   0.147   0.073 -0.0876  0.1000  0.1215
  819SOL    HW1 2456   2.311   0.080   0.136  2.6724 -0.9487  1.8841
  819SOL    HW2 2457   2.234   0.096   3.104 -1.8660 -0.5112 -1.2221
  820SOL     OW 2458   2.004   1.103   2.792  0.5923  0.3319 -0.0122
  820SOL    HW1 2459   2.012   1.003   2.797 -0.7103  0.0634 -2.8888
  820SOL    HW2 2460   2.092   1.151   2.778  0.2516  0.6519 -1.2428
  821SOL     OW 2461   3.011   0.301   0.927 -0.3389 -0.1839 -0.1231
  821SOL    HW1 2462   2.923   0.262   0.961  0.2952  0.3907  0.5210
  821SOL    HW2 2463   3.001   0.402   0.920  0.2570  0.3073 -0.8333
  822SOL     OW 2464   1.042   2.681   2.453 -0.1041 -0.3231 -0.3381
  822SOL    HW1 2465   0.975   2.616   2.494  1.4774  1.0777  0.8209
  822SOL    HW2 2466   1.082   2.745   2.526  0.3421 -1.5151  2.6075
  823SOL     OW 2467   0.418   1.550   1.834 -0.2396  0.2907 -0.2053
  823SOL    HW1 2468   0.492   1.525   1.768  1.4007  2.2182  1.1416
  823SOL    HW2 2469   0.455   1.613   1.908 -0.2845 -1.1492  0.6440
  824SOL     OW 2470   1.457   2.481   2.519  0.2332 -0.0542  0.2062
  824SOL    HW1 2471   1.536   2.451   2.465  0.8367  2.5195  2.5365
  824SOL    HW2 2472   1.370   2.502   2.460 -1.1159  1.2033 -1.4824
  825SOL     OW 2473   1.800   0.868   0.342 -0.5599  0.3288 -0.1506
  825SOL    HW1 2474   1.867   0.887   0.268 -0.2612 -1.8524 -0.0137
  825SOL    HW2 2475   1.800   0.766   0.358 -0.4162 -2.0699 -0.2978
  826SOL     OW 2476   1.986   0.826   0.121  0.1973  0.2235  0.5747
  826SOL    HW1 2477   1.902   0.839   0.063 -0.2375  2.1776 -1.0310
  826SOL    HW2 2478   2.065   0.836   0.058 -0.3137 -2.5529  1.2426
  827SOL     OW 2479   0.801   1.800   2.812  0.5102 -0.2880  0.1256
  827SOL    HW1 2480   0.718   1.860   2.783 -2.1001 -0.4535 -1.1313
  827SOL    HW2 2481   0.880   1.807   2.748  2.4497  0.9933 -1.9773
  828SOL     OW 2482   2.297   1.225   1.387  0.2822  0.1229  0.0975
  828SOL    HW1 2483   2.240   1.308   1.408 -1.2307  1.6286  2.9281
  828SOL    HW2 2484   2.385   1.222   1.437  0.0448  1.3984  0.6077
  829SOL     OW 2485   0.448   1.509   0.940 -0.1732 -0.3244 -0.2160
  829SOL    HW1 2486   0.537   1.550   0.922 -2.5894 -2.6894  0.4890
  829SOL    HW2 2487   0.440   1.482   1.039 -0.8104 -0.0472 -0.6821
  830SOL     OW 2488   1.414   0.971   1.203 -0.3639  0.0726  0.5372
  830SOL    HW1 2489   1.444   1.005   1.110 -2.5199 -0.5755 -2.0594
  830SOL    HW2 2490   1.409   1.048   1.270 -1.2590  2.5060 -0.6381
  831SOL     OW 2491   0.221   1.928   0.145  0.1970 -0.0466  0.0465
  831SOL    HW1 2492   0.132   1.976   0.132  4.1115 -1.1815  1.7631
  831SOL    HW2 2493   0.261   1.911   0.053  2.5080 -1.6644  1.6380
  832SOL     OW 2494   0.753   0.452   0.076  0.0887  0.3699  0.2058
  832SOL    HW1 2495   0.666   0.464   0.124  2.2376  1.0936 -3.0632
  832SOL    HW2 2496   0.828   0.475   0.142 -3.7373 -0.0647 -0.4001
  833SOL     OW 2497   0.600   0.483   2.053  0.1550 -0.5213  0.6065
  833SOL    HW1 2498   0.578   0.550   1.977 -2.0750  0.7852 -1.6989
  833SOL    HW2 2499   0.650   0.406   2.013  0.6152  0.1358 -0.1678
  834SOL     OW 2500   0.269   0.310   0.756 -0.1491  0.1406  0.3633
  834SOL    HW1 2501   0.171   0.323   0.726 -2.4239  0.5612 -1.0181
  834SOL    HW2 2502   0.288   0.331   0.857  0.8844  0.8846  1.1305
  835SOL     OW 2503   2.787   3.106   0.979 -0.3259  0.0001  0.3266
  835SOL    HW1 2504   2.746   3.111   0.888 -1.4952 -2.3215 -0.0009
  835SOL    HW2 2505   2.868   3.047   0.976 -0.7855 -0.7511 -2.1979
  836SOL     OW 2506   0.445   2.142   2.986 -0.8171 -0.7997  0.0146
  836SOL    HW1 2507   0.475   2.228   2.941  2.5672 -2.4118 -1.5177
  836SOL    HW2 2508   0.438   2.152   3.085 -2.6821  0.2859  2.3555
  837SOL     OW 2509   1.753   1.485   2.744 -0.3545  0.1091 -0.1787
  837SOL    HW1 2510   1.815   1.548   2.701 -3.7343 -0.7665  0.3115
  837SOL    HW2 2511   1.779   1.462   2.839 -0.9504  0.8946 -0.4050
  838SOL     OW 2512   0.017   0.953   1.617  0.8703  0.0978  0.3551
  838SOL    HW1 2513   3.068   0.982   1.542  2.1199 -2.0841  0.5911
  838SOL    HW2 2514   0.090   1.024   1.635  0.4159 -0.0240  0.8936
  839SOL     OW 2515   0.879   1.127   0.908 -0.0598  0.4277  0.4799
  839SOL    HW1 2516   0.919   1.219   0.910 -1.7939  0.5589 -0.3891
  839SOL    HW2 2517   0.948   1.049   0.896 -1.8757 -0.8813 -1.4370
  840SOL     OW 2518   1.430   2.792   1.769  0.1250  0.4685  0.5118
  840SOL    HW1 2519   1.359   2.732   1.806 -1.0850 -0.0110 -0.7966
  840SOL    HW2 2520   1.427   2.801   1.668  0.5700 -0.4542 -0.0272
  841SOL     OW 2521   0.554   2.529   0.367 -0.6137 -0.0593 -0.2958
  841SOL    HW1 2522   0.513   2.536   0.274  0.6083 -0.5168  0.5437
  841SOL    HW2 2523   0.521   2.443   0.411  0.0889 -2.0058  1.3815
  842SOL     OW 2524   0.464   0.621   0.768  0.2618  0.2643  0.9253
  842SOL    HW1 2525   0.376   0.659   0.808  2.2042 -0.6422  0.4107
  842SOL    HW2 2526   0.485   0.538   0.820  3.1424 -0.3843 -1.6549
  843SOL     OW 2527   0.958   1.593   2.314  0.2281 -0.1802 -0.8098
  843SOL    HW1 2528   0.878   1.560   2.374  1.5447  1.8834  2.3786
  843SOL    HW2 2529   1.043   1.591   2.368  0.8717 -2.1132 -1.8648
  844SOL     OW 2530   1.151   2.327   3.065 -0.1870  0.7142 -0.2320
  844SOL    HW1 2531   1.244   2.364   3.088 -1.1647 -2.3022 -3.0041
  844SOL    HW2 2532   1.141   2.226   3.086 -1.2874  2.4554 -0.4177
  845SOL     OW 2533   2.268   2.576   2.583  0.4950 -0.8200 -0.7549
  845SOL    HW1 2534   2.348   2.596   2.523 -0.0030  0.1030 -0.2960
  845SOL    HW2 2535   2.284   2.501   2.642  1.3609  2.8493 -1.8494
  846SOL     OW 2536   1.825   2.089   0.009 -0.3041 -0.2059 -0.5579
  846SOL    HW1 2537   1.736   2.109   3.084 -1.3143 -3.4998  0.0690
  846SOL    HW2 2538   1.828   1.988   0.007 -1.3337 -3.5103  1.2890
  847SOL     OW 2539   1.801   2.874   2.967  0.2686 -0.2931  0.0966
  847SOL    HW1 2540   1.874   2.942   2.940  2.7932 -0.2421 -1.0514
  847SOL    HW2 2541   1.834   2.809   3.040 -0.0999 -0.7564  2.6151
  848SOL     OW 2542   0.350   0.509   0.528 -0.2955  0.3061  0.7581
  848SOL    HW1 2543   0.405   0.583   0.580  2.5299 -1.8357  0.1706
  848SOL    HW2 2544   0.351   0.421   0.574  1.2528 -1.1662 -1.8525
  849SOL     OW 2545   1.258   2.901   1.552  0.3394 -1.1194 -0.3055
  849SOL    HW1 2546   1.222   2.988   1.605 -0.3611  1.0541  2.3422
  849SOL    HW2 2547   1.289   2.926   1.462  0.1309 -2.4700  1.4546
  850SOL     OW 2548   0.465   1.626   0.341  0.0898  0.0658  0.7551
  850SOL    HW1 2549   0.378   1.587   0.300 -1.1490  1.5958  0.8452
  850SOL    HW2 2550   0.536   1.636   0.271  0.7592  0.0161 -0.5296
  851SOL     OW 2551   0.228   1.072   0.724  0.0869  0.1970 -0.0829
  851SOL    HW1 2552   0.181   1.004   0.659  0.2099 -2.6385 -0.2975
  851SOL    HW2 2553   0.246   1.170   0.686  1.2567  2.4187 -0.7182
  852SOL     OW 2554   1.959   2.325   1.655  0.0079  0.6902  0.3961
  852SOL    HW1 2555   1.918   2.236   1.682 -1.2135  1.1681  1.4332
  852SOL    HW2 2556   2.058   2.313   1.641 -1.9766  1.8289  1.5377
  853SOL     OW 2557   0.239   1.506   0.212 -0.1443 -0.0590 -0.2557
  853SOL    HW1 2558   0.155   1.494   0.267  0.9085  0.1476  1.6758
  853SOL    HW2 2559   0.270   1.420   0.170 -0.2265 -2.1069 -1.3866
  854SOL     OW 2560   1.728   1.204   1.826  0.1094  0.0568  0.5613
  854SOL    HW1 2561   1.729   1.138   1.905  2.2817  1.9776 -0.9084
  854SOL    HW2 2562   1.636   1.250   1.831 -0.1050  1.8419  3.6156
  855SOL     OW 2563   0.487   2.581   2.852 -0.2745  0.1257  0.2384
  855SOL    HW1 2564   0.410   2.534   2.903 -0.4995 -1.5501 -1.4303
  855SOL    HW2 2565   0.538   2.652   2.908 -0.2617  0.3633 -0.0534
  856SOL     OW 2566   2.937   0.554   1.682  0.1580 -0.2398 -0.1523
  856SOL    HW1 2567   3.028   0.592   1.694  0.7928 -1.8019 -0.3412
  856SOL    HW2 2568   2.896   0.587   1.591  1.1839 -1.2470 -0.3525
  857SOL     OW 2569   0.634   1.130   1.945 -0.1702 -0.2352 -0.2087
  857SOL    HW1 2570   0.535   1.138   1.957 -0.7697 -3.1559 -1.7028
  857SOL    HW2 2571   0.682   1.190   2.011 -0.3818 -1.9138  1.8136
  858SOL     OW 2572   0.317   1.405   2.353 -0.4081  0.1411  0.2362
  858SOL    HW1 2573   0.345   1.427   2.450 -0.6530 -1.5510 -2.3294
  858SOL    HW2 2574   0.365   1.468   2.292 -0.4936  0.0382  2.0931
  859SOL     OW 2575   2.665   0.209   0.616 -0.0569  0.3584 -0.0815
  859SOL    HW1 2576   2.684   0.309   0.615 -1.6509  1.5750 -0.3793
  859SOL    HW2 2577   2.657   0.170   0.522  0.4571 -0.3558 -2.0782
  860SOL     OW 2578   1.921   2.686   0.002 -0.1580  0.0618  0.3580
  860SOL    HW1 2579   1.873   2.595   0.013  0.4750 -0.2756  0.9591
  860SOL    HW2 2580   2.001   2.699   0.066 -1.5645  1.7914 -2.0812
  861SOL     OW 2581   0.351   0.528   0.257  0.1915 -0.1406  0.0881
  861SOL    HW1 2582   0.291   0.459   0.217  2.1828  0.0920  0.8987
  861SOL    HW2 2583   0.341   0.539   0.357 -0.7266  0.3361 -0.4233
  862SOL     OW 2584   1.327   0.194   2.081 -0.4880 -0.3872 -0.0080
  862SOL    HW1 2585   1.332   0.279   2.029  0.9801  1.4242  0.4322
  862SOL    HW2 2586   1.240   0.145   2.063  0.6464 -0.6435 -0.0507
  863SOL     OW 2587   2.679   2.221   1.129  0.1629  0.2757  0.2348
  863SOL    HW1 2588   2.598   2.183   1.178 -2.9452  0.5514 -0.4894
  863SOL    HW2 2589   2.711   2.301   1.180 -1.4862  0.2708 -2.9822
  864SOL     OW 2590   2.387   2.775   2.204  0.1101  0.0276 -0.2618
  864SOL    HW1 2591   2.293   2.787   2.159 -1.9768  0.4675 -1.8979
  864SOL    HW2 2592   2.454   2.752   2.131 -0.0779 -4.0762  1.9005
  865SOL     OW 2593   1.122   0.342   1.543 -0.2180  0.3282  0.4694
  865SOL    HW1 2594   1.202   0.282   1.520 -0.1513  1.3618  0.5592
  865SOL    HW2 2595   1.148   0.408   1.615  1.6660  1.0933 -2.2300
  866SOL     OW 2596   2.033   3.085   0.970 -0.5364  0.3079  0.2006
  866SOL    HW1 2597   2.078   0.004   0.885  1.6677  1.7007 -0.8789
  866SOL    HW2 2598   2.043   0.041   1.040 -0.2264 -2.0150 -1.5046
  867SOL     OW 2599   2.766   2.644   0.476 -0.2360  0.1075  0.6138
  867SOL    HW1 2600   2.850   2.590   0.487 -1.1317  0.0611  1.2475
  867SOL    HW2 2601   2.696   2.600   0.536 -1.1221 -2.7100 -2.3360
  868SOL     OW 2602   1.195   2.038   1.738  0.1997 -0.6131 -0.5209
  868SOL    HW1 2603   1.240   2.061   1.649  1.3209  0.0765 -1.4558
  868SOL    HW2 2604   1.204   2.117   1.802 -1.0370  0.6584 -0.8629
  869SOL     OW 2605   2.085   2.401   0.422 -0.7117  0.3701  0.9163
  869SOL    HW1 2606   2.146   2.359   0.351 -1.0767 -0.1796  2.0779
  869SOL    HW2 2607   2.124   2.486   0.457 -1.1904  0.9488 -0.2946
  870SOL     OW 2608   2.375   2.134   0.935 -0.2984  0.1776  0.0556
  870SOL    HW1 2609   2.320   2.190   0.871  2.1265 -0.8697  3.0817
  870SOL    HW2 2610   2.465   2.107   0.891  0.2793  0.9308  1.7849
  871SOL     OW 2611   0.212   1.701   1.598 -0.2351 -0.2790 -0.3160
  871SOL    HW1 2612   0.279   1.726   1.521  3.1526 -0.8269  2.3647
  871SOL    HW2 2613   0.266   1.642   1.656  2.1217  2.7107  0.0923
  872SOL     OW 2614   0.753   1.434   2.463  0.0198  0.0291 -0.7061
  872SOL    HW1 2615   0.842   1.386   2.491  5.2245 -2.8882 -1.1413
  872SOL    HW2 2616   0.670   1.382   2.482 -0.3054  2.1974 -0.0137
  873SOL     OW 2617   0.990   2.424   1.340 -0.3102 -0.2046  0.2651
  873SOL    HW1 2618   0.944   2.484   1.406  0.6484 -0.4500  0.2635
  873SOL    HW2 2619   1.065   2.470   1.287 -0.8725  1.9183 -1.6656
  874SOL     OW 2620   1.384   0.956   1.840  0.4852 -0.3652  0.5281
  874SOL    HW1 2621   1.379   1.035   1.906 -0.5811  2.3835  0.2691
  874SOL    HW2 2622   1.475   0.908   1.851  0.0316 -1.4197 -0.2972
  875SOL     OW 2623   2.823   2.809   1.204 -0.5835  0.1639 -0.4645
  875SOL    HW1 2624   2.761   2.871   1.261  0.2119  1.0063 -1.1343
  875SOL    HW2 2625   2.886   2.865   1.147  0.5917  1.0302 -1.8825
  876SOL     OW 2626   1.044   1.288   0.705 -0.0307 -0.2776  0.5688
  876SOL    HW1 2627   1.099   1.284   0.617  0.7490  0.4911 -1.7770
  876SOL    HW2 2628   0.944   1.300   0.687 -0.3720 -0.6484 -0.4291
  877SOL     OW 2629   2.766   0.264   1.026 -0.2492 -0.2195  0.4141
  877SOL    HW1 2630   2.735   0.297   1.117 -2.1927  1.6606  0.0501
  877SOL    HW2 2631   2.785   0.166   1.021 -0.2819  3.1835 -1.9065
  878SOL     OW 2632   2.404   1.634   0.163  0.2538 -0.1882 -0.3323
  878SOL    HW1 2633   2.490   1.645   0.217 -0.8438  0.0714  0.9775
  878SOL    HW2 2634   2.333   1.589   0.221 -0.2994 -0.4027  1.3759
  879SOL     OW 2635   2.841   1.879   1.316 -0.0653 -0.4918 -0.0644
  879SOL    HW1 2636   2.882   1.789   1.321 -1.3263  2.8719 -1.6600
  879SOL    HW2 2637   2.800   1.891   1.226  0.3702  1.3346 -1.6602
  880SOL     OW 2638   0.190   2.382   0.771 -0.3559  0.5979 -0.4446
  880SOL    HW1 2639   0.261   2.342   0.838  1.8798 -1.1469 -0.0991
  880SOL    HW2 2640   0.215   2.483   0.771  0.6733  2.1118  1.3146
  881SOL     OW 2641   1.492   1.105   0.987  0.4960  0.2828 -0.4757
  881SOL    HW1 2642   1.548   1.188   0.983  1.7687 -1.5190 -0.2711
  881SOL    HW2 2643   1.394   1.116   0.954 -0.9792 -1.3465  0.4883
  882SOL     OW 2644   2.756   1.063   2.558  0.4440 -0.0958 -0.2486
  882SOL    HW1 2645   2.748   1.049   2.464  1.5814 -1.5604  2.1527
  882SOL    HW2 2646   2.756   0.975   2.607 -1.5401 -1.5691  0.4126
  883SOL     OW 2647   1.214   0.069   1.181 -0.1779 -0.2262  0.9061
  883SOL    HW1 2648   1.209   3.114   1.108  0.8295  1.0088 -0.6912
  883SOL    HW2 2649   1.235   0.163   1.144 -2.9293  0.0150  0.2490
  884SOL     OW 2650   3.017   2.944   1.050 -0.1883  0.5268  0.1631
  884SOL    HW1 2651   3.050   3.002   1.128 -3.5210  0.0311 -0.8884
  884SOL    HW2 2652   3.071   2.860   1.040  0.5517  0.5123  0.0999
  885SOL     OW 2653   1.728   1.036   1.435  0.3862  0.3254 -0.0923
  885SOL    HW1 2654   1.763   1.069   1.342 -1.3327  2.7523  0.2439
  885SOL    HW2 2655   1.660   0.955   1.428  0.5870  0.8511 -0.1530
  886SOL     OW 2656   1.434   1.041   3.022  0.2672 -0.1317 -0.3180
  886SOL    HW1 2657   1.518   1.077   2.979 -0.4598  0.1165 -0.6289
  886SOL    HW2 2658   1.442   0.942   3.030 -1.3755  1.8640 -1.6153
  887SOL     OW 2659   1.498   0.462   1.407 -0.1173  0.2775  0.6251
  887SOL    HW1 2660   1.561   0.517   1.465 -2.6064  0.0605 -1.8981
  887SOL    HW2 2661   1.446   0.525   1.348  0.8171 -1.4676  0.1510
  888SOL     OW 2662   2.083   1.333   2.049  0.4161 -0.0602  0.2010
  888SOL    HW1 2663   2.183   1.361   2.051 -0.9230  0.0299  0.3376
  888SOL    HW2 2664   2.070   1.256   1.986  0.5570  0.9498  0.4809
  889SOL     OW 2665   2.318   1.887   1.027 -1.3381 -0.1198  0.0359
  889SOL    HW1 2666   2.403   1.835   1.066 -0.7728 -2.2393  0.4350
  889SOL    HW2 2667   2.344   1.982   1.002  0.6591 -0.1024 -0.1698
  890SOL     OW 2668   1.396   1.949   0.994 -0.4340 -0.0091  0.2923
  890SOL    HW1 2669   1.487   1.991   1.017 -0.0403 -1.3367 -0.1697
  890SOL    HW2 2670   1.349   1.904   1.074 -0.1689 -1.5902 -0.8635
  891SOL     OW 2671   2.521   0.439   2.400 -0.3291  0.3262 -0.2345
  891SOL    HW1 2672   2.599   0.385   2.364  0.7757 -1.2688 -0.3075
  891SOL    HW2 2673   2.432   0.423   2.350  2.6553  0.4096  1.0500
  892SOL     OW 2674   1.067   0.350   2.250 -0.4255  0.7039 -0.4479
  892SOL    HW1 2675   1.108   0.289   2.322 -2.2568  0.3236  2.4053
  892SOL    HW2 2676   0.998   0.411   2.284 -0.3837 -1.1017 -0.2351
  893SOL     OW 2677   1.385   0.240   1.504  0.3482 -0.2651 -0.2145
  893SOL    HW1 2678   1.420   0.199   1.589 -0.2286  0.1801 -1.1275
  893SOL    HW2 2679   1.442   0.320   1.467 -0.8618 -2.5458  2.5976
  894SOL     OW 2680   2.453   0.595   0.741 -0.5596 -0.1024 -0.9729
  894SOL    HW1 2681   2.398   0.563   0.821 -2.6652  0.5621  0.1399
  894SOL    HW2 2682   2.410   0.679   0.706  0.0537 -2.6117 -0.4717
  895SOL     OW 2683   1.904   2.530   2.742  0.1735 -0.3092 -0.4105
  895SOL    HW1 2684   1.963   2.551   2.822 -0.3555 -0.6023 -0.6040
  895SOL    HW2 2685   1.810   2.567   2.757 -0.1116  0.0457  2.9677
  896SOL     OW 2686   1.883   2.816   1.675 -0.4418  0.0914 -0.3956
  896SOL    HW1 2687   1.804   2.792   1.732 -0.3582  1.6596 -0.6302
  896SOL    HW2 2688   1.858   2.822   1.582  1.9378 -0.6774  4.5231
  897SOL     OW 2689   0.756   1.828   1.880 -0.0205 -0.0930 -0.4595
  897SOL    HW1 2690   0.670   1.813   1.940 -1.4940 -1.8262 -0.1295
  897SOL    HW2 2691   0.734   1.819   1.785  0.0833 -0.3165 -1.3355
  898SOL     OW 2692   2.160   1.781   2.025  0.2521  0.3793 -0.7835
  898SOL    HW1 2693   2.125   1.694   1.990  2.3826 -0.3359  0.5994
  898SOL    HW2 2694   2.262   1.782   2.020  0.8620 -1.7223  1.8588
  899SOL     OW 2695   2.037   2.464   0.774  0.0647 -0.1734  0.0572
  899SOL    HW1 2696   1.969   2.492   0.701  1.4912  1.4471  0.4262
  899SOL    HW2 2697   2.086   2.374   0.758 -0.9435 -0.8037 -0.1902
  900SOL     OW 2698   1.017   0.197   3.049  0.5186  0.0328 -0.1886
  900SOL    HW1 2699   1.027   0.124   2.978 -0.6282 -0.8197 -2.2184
  900SOL    HW2 2700   0.995   0.157   0.026 -0.5122 -0.9311  1.7539
  901SOL     OW 2701   1.048   1.863   2.282  0.7247 -0.4414  0.7542
  901SOL    HW1 2702   0.951   1.867   2.245 -0.2563  1.4820 -0.2115
  901SOL    HW2 2703   1.079   1.764   2.293  1.2362 -0.3488  0.0781
  902SOL     OW 2704   2.280   0.683   2.871 -0.8775  0.2199  0.5070
  902SOL    HW1 2705   2.380   0.674   2.867 -0.1015  1.9764 -0.5122
  902SOL    HW2 2706   2.231   0.594   2.888  1.4255 -1.2101  2.3252
  903SOL     OW 2707   1.883   0.810   2.135 -0.1469 -0.4570  0.1644
  903SOL    HW1 2708   1.937   0.783   2.054 -0.3581  1.7097  1.9720
  903SOL    HW2 2709   1.944   0.823   2.219 -1.5416  0.4425  2.8015
  904SOL     OW 2710   1.655   0.868   1.810 -0.1050  0.7886 -0.5889
  904SOL    HW1 2711   1.697   0.896   1.726 -3.0795 -1.2787  1.4729
  904SOL    HW2 2712   1.694   0.917   1.890  0.5520 -1.5963 -1.2867
  905SOL     OW 2713   2.139   0.130   1.669  0.5565 -0.1706 -0.5219
  905SOL    HW1 2714   2.120   0.038   1.626  0.4037 -3.4405 -3.4334
  905SOL    HW2 2715   2.056   0.188   1.677  2.5746  1.3026  2.8527
  906SOL     OW 2716   2.167   1.795   0.480 -0.0111 -0.4005 -0.5079
  906SOL    HW1 2717   2.124   1.761   0.571 -0.6792 -1.5597  0.8358
  906SOL    HW2 2718   2.208   1.710   0.443 -1.7688 -1.3738  1.1557
  907SOL     OW 2719   1.104   2.783   0.917  0.0702  0.3379 -0.6850
  907SOL    HW1 2720   1.190   2.749   0.874 -1.5286 -0.0846  0.5417
  907SOL    HW2 2721   1.020   2.728   0.894 -0.1515  0.2709 -0.7481
  908SOL     OW 2722   1.592   2.236   2.678  0.4088  0.1093  0.1249
  908SOL    HW1 2723   1.492   2.257   2.681  0.9414 -0.4362  0.7225
  908SOL    HW2 2724   1.622   2.191   2.588  0.3825 -3.6440 -3.2828
  909SOL     OW 2725   2.289   0.608   2.157 -0.1093 -0.1919  0.2913
  909SOL    HW1 2726   2.310   0.700   2.193 -2.0151 -0.0613 -2.7837
  909SOL    HW2 2727   2.295   0.622   2.055  1.5859  0.4262 -5.5966
  910SOL     OW 2728   1.178   0.890   2.556  0.0438 -0.4385 -0.7745
  910SOL    HW1 2729   1.168   0.917   2.656 -0.3191 -0.2630  1.4827
  910SOL    HW2 2730   1.259   0.836   2.536 -1.1407  1.9304  0.2801
  911SOL     OW 2731   2.995   0.966   2.852 -0.0965 -0.0067  0.4192
  911SOL    HW1 2732   3.025   0.959   2.948  1.5454  0.9161  1.6103
  911SOL    HW2 2733   2.897   0.961   2.846  1.1785  0.5241  1.1079
  912SOL     OW 2734   0.157   2.510   0.485 -0.2960  0.2809  0.2269
  912SOL    HW1 2735   0.241   2.458   0.454  1.2163  0.3143 -2.0566
  912SOL    HW2 2736   0.145   2.493   0.585  0.9120 -0.2195 -1.5626
  913SOL     OW 2737   2.667   1.916   2.485 -0.1729 -0.3672 -0.2568
  913SOL    HW1 2738   2.592   1.870   2.434 -2.0643 -1.8662 -0.3796
  913SOL    HW2 2739   2.699   1.996   2.431  1.0017  1.5135 -1.8744
  914SOL     OW 2740   1.932   1.267   0.875 -1.0170  0.3456 -0.5428
  914SOL    HW1 2741   1.908   1.214   0.795 -1.1937  0.8598  0.7377
  914SOL    HW2 2742   1.850   1.298   0.925  0.3444 -0.6644 -1.1150
  915SOL     OW 2743   0.233   2.595   2.222 -0.1030 -0.3117 -0.2080
  915SOL    HW1 2744   0.252   2.690   2.193 -1.3610  0.3998 -1.2519
  915SOL    HW2 2745   0.270   2.567   2.314 -0.7523 -1.4839  1.9432
  916SOL     OW 2746   0.889   3.017   1.301 -0.4004  0.5417 -0.1900
  916SOL    HW1 2747   0.842   3.057   1.220 -0.9407 -1.4848  0.4063
  916SOL    HW2 2748   0.965   3.075   1.336  0.2625  1.4256 -0.4631
  917SOL     OW 2749   2.416   0.776   0.144 -0.1884 -0.0294 -0.5192
  917SOL    HW1 2750   2.462   0.871   0.136  1.3294  0.9642  0.8182
  917SOL    HW2 2751   2.335   0.762   0.087  1.2111  1.9623  1.8192
  918SOL     OW 2752   1.624   2.372   2.921 -0.2791  0.6229  0.1216
  918SOL    HW1 2753   1.603   2.461   2.890 -1.4807 -4.5490  0.9978
  918SOL    HW2 2754   1.609   2.311   2.843  2.4507  0.5787  0.6539
  919SOL     OW 2755   1.860   2.832   1.384 -0.4734 -0.1585 -0.0683
  919SOL    HW1 2756   1.779   2.856   1.333  1.9150  4.3600  0.1602
  919SOL    HW2 2757   1.894   2.736   1.367 -0.8357 -3.3502  1.7858
  920SOL     OW 2758   1.301   0.498   2.385 -0.2695  0.2019 -0.0462
  920SOL    HW1 2759   1.223   0.498   2.451 -1.7411  2.9047 -3.4325
  920SOL    HW2 2760   1.331   0.403   2.373  4.0165  2.3785 -2.1833
  921SOL     OW 2761   0.090   0.987   2.685 -0.3769 -0.1625  0.7432
  921SOL    HW1 2762   0.062   0.997   2.588  0.6519  1.2313  0.7298
  921SOL    HW2 2763   0.010   0.996   2.749  1.0036  0.8671  0.3965
  922SOL     OW 2764   3.078   1.899   1.095 -0.4124 -0.2261 -0.1943
  922SOL    HW1 2765   2.982   1.936   1.100 -1.9390 -0.4627  1.0723
  922SOL    HW2 2766   0.013   1.935   1.019 -0.4557 -0.0732  3.9922
  923SOL     OW 2767   0.522   1.757   2.022 -0.4973  0.1628 -0.5262
  923SOL    HW1 2768   0.487   1.746   2.114  3.1162  2.4340  0.1472
  923SOL    HW2 2769   0.474   1.835   1.984  2.5268 -1.6302  1.4675
  924SOL     OW 2770   1.353   2.852   2.451  0.0848  0.0804  0.3341
  924SOL    HW1 2771   1.444   2.807   2.460 -0.5516 -0.3887 -0.0753
  924SOL    HW2 2772   1.320   2.848   2.353  0.9845  0.7022  0.3816
  925SOL     OW 2773   2.842   1.670   0.758  0.1597  0.7222 -0.5264
  925SOL    HW1 2774   2.802   1.585   0.718  1.7507 -0.3822  0.0529
  925SOL    HW2 2775   2.896   1.651   0.843 -5.8422 -1.2631  0.3827
  926SOL     OW 2776   2.356   0.770   1.027 -0.1391  0.0799  0.3753
  926SOL    HW1 2777   2.360   0.674   0.994  0.0343  1.6874 -0.2691
  926SOL    HW2 2778   2.431   0.837   0.990  1.5740 -0.2627 -1.1713
  927SOL     OW 2779   1.831   0.180   1.370  0.0562 -0.5542  0.0150
  927SOL    HW1 2780   1.858   0.274   1.406  1.4938  1.6777  0.4443
  927SOL    HW2 2781   1.794   0.122   1.447  1.1490  1.6671  1.1631
  928SOL     OW 2782   0.047   0.707   2.284  0.2475 -0.0034  0.1890
  928SOL    HW1 2783   0.041   0.690   2.384  1.3934  1.4952  0.3770
  928SOL    HW2 2784   0.140   0.684   2.254  1.0001 -1.1874  0.8198
  929SOL     OW 2785   2.404   0.828   1.291  0.5401 -0.7873 -0.2689
  929SOL    HW1 2786   2.395   0.780   1.200  0.9865 -0.7874 -2.4388
  929SOL    HW2 2787   2.462   0.905   1.285 -2.2505 -1.4461 -0.1582
  930SOL     OW 2788   2.395   2.389   1.714  0.3314  0.4682 -0.3537
  930SOL    HW1 2789   2.485   2.402   1.669  2.1989  2.0236  0.2795
  930SOL    HW2 2790   2.373   2.474   1.768  1.7457 -0.3814  0.7541
  931SOL     OW 2791   2.124   0.907   1.280  0.0467 -0.0249  0.1054
  931SOL    HW1 2792   2.224   0.899   1.270 -0.1064  2.0327  0.6717
  931SOL    HW2 2793   2.091   0.964   1.202  0.7250 -0.8784 -0.4606
  932SOL     OW 2794   0.344   0.801   1.778  0.1703 -0.7258  0.2278
  932SOL    HW1 2795   0.376   0.816   1.680  0.8972 -0.6700  1.3575
  932SOL    HW2 2796   0.320   0.888   1.827  2.2621 -2.3599 -0.8270
  933SOL     OW 2797   2.314   1.933   1.661 -0.6885 -0.0874 -0.1809
  933SOL    HW1 2798   2.321   1.953   1.561  1.5300  1.9617 -0.4612
  933SOL    HW2 2799   2.369   1.991   1.727 -0.0613  0.6659  1.7388
  934SOL     OW 2800   0.897   2.177   1.726 -0.4298 -0.0390  0.7085
  934SOL    HW1 2801   0.984   2.228   1.723 -0.1968 -0.8693  1.2122
  934SOL    HW2 2802   0.904   2.100   1.661 -0.7602 -1.5507  4.4316
  935SOL     OW 2803   0.065   1.619   2.027  0.0759  0.0979 -0.2282
  935SOL    HW1 2804   0.023   1.530   2.002 -2.2880 -0.2738  1.7273
  935SOL    HW2 2805   0.115   1.606   2.114 -1.2998 -0.6570 -0.9755
  936SOL     OW 2806   2.733   0.847   1.232  0.0097  0.4055 -0.4892
  936SOL    HW1 2807   2.665   0.926   1.235  1.2850  0.5870  1.0734
  936SOL    HW2 2808   2.682   0.762   1.197  1.2019  0.3074 -3.0864
  937SOL     OW 2809   1.667   0.612   1.540 -0.0164 -0.6598  0.1424
  937SOL    HW1 2810   1.731   0.651   1.470  1.4568 -0.1513 -1.2861
  937SOL    HW2 2811   1.706   0.537   1.595 -2.0332  2.5607  0.1375
  938SOL     OW 2812   0.461   2.762   0.511  1.1174 -0.4743 -0.1423
  938SOL    HW1 2813   0.499   2.729   0.420  1.7220 -0.7411 -1.7039
  938SOL    HW2 2814   0.536   2.804   0.570 -0.2205  1.3164 -2.4419
  939SOL     OW 2815   2.970   1.936   2.637  0.2720  0.7306  0.2950
  939SOL    HW1 2816   2.985   1.845   2.685  0.2857 -0.2538 -1.3600
  939SOL    HW2 2817   2.985   2.007   2.706  0.5522 -2.9759  1.8206
  940SOL     OW 2818   1.349   1.881   0.461  0.3875  0.0435  0.0437
  940SOL    HW1 2819   1.448   1.886   0.495 -0.0311 -2.3694 -0.7857
  940SOL    HW2 2820   1.290   1.960   0.482 -1.0379 -1.0197 -0.5387
  941SOL     OW 2821   2.127   2.691   0.472  0.4954  0.4141  0.0220
  941SOL    HW1 2822   2.081   2.779   0.480 -1.1307 -1.0845 -2.1413
  941SOL    HW2 2823   2.215   2.697   0.510 -0.9896  0.9278 -2.0500
  942SOL     OW 2824   1.837   1.834   0.854  0.3018 -0.0493  0.2801
  942SOL    HW1 2825   1.794   1.918   0.895  1.6566 -1.5553  0.0272
  942SOL    HW2 2826   1.858   1.757   0.920  1.1456 -0.1966  0.6676
  943SOL     OW 2827   2.362   0.840   1.582 -0.1871 -0.1248 -0.2017
  943SOL    HW1 2828   2.369   0.819   1.482  0.3918 -0.5267 -2.8286
  943SOL    HW2 2829   2.290   0.912   1.596 -3.6863 -1.2548  0.0759
  944SOL     OW 2830   1.235   0.742   1.923  0.3027 -0.3522 -0.2838
  944SOL    HW1 2831   1.256   0.699   2.014  1.5801 -1.5313  1.3776
  944SOL    HW2 2832   1.294   0.826   1.907  1.1348  1.8711 -0.1704
  945SOL     OW 2833   2.269   2.720   1.457  0.2675 -0.3136  0.4035
  945SOL    HW1 2834   2.363   2.693   1.477 -1.2301 -0.9833 -1.1763
  945SOL    HW2 2835   2.196   2.659   1.494 -1.4844 -0.7986  0.9314
  946SOL     OW 2836   0.581   1.127   0.655  0.1047 -0.0929  0.3931
  946SOL    HW1 2837   0.607   1.073   0.734  0.1067  1.1782  0.8332
  946SOL    HW2 2838   0.565   1.069   0.572 -0.0404  1.6448 -1.1976
  947SOL     OW 2839   1.570   2.246   0.923 -0.1256 -0.4107  0.0613
  947SOL    HW1 2840   1.574   2.335   0.975 -0.0790 -2.6541 -0.3409
  947SOL    HW2 2841   1.506   2.250   0.839 -0.9208  1.7272 -0.1312
  948SOL     OW 2842   0.463   1.417   1.183  0.5319 -0.3188 -0.0162
  948SOL    HW1 2843   0.457   1.434   1.283  1.7877 -0.9501  0.5565
  948SOL    HW2 2844   0.450   1.317   1.166 -1.6513 -0.1670  0.9317
  949SOL     OW 2845   0.996   1.275   1.654  0.0544  0.6135 -1.0186
  949SOL    HW1 2846   0.985   1.372   1.621 -0.8297  0.4972 -2.0601
  949SOL    HW2 2847   0.954   1.215   1.583 -1.3204 -2.1164 -0.0899
  950SOL     OW 2848   0.550   0.859   1.094 -0.1911 -0.6816  0.1923
  950SOL    HW1 2849   0.614   0.851   1.176 -1.5273 -0.1736  2.1564
  950SOL    HW2 2850   0.457   0.827   1.121  1.3239  2.7733 -0.4928
  951SOL     OW 2851   0.756   2.084   2.096 -0.2491 -0.4921 -0.3022
  951SOL    HW1 2852   0.774   1.984   2.116 -0.4857 -1.5687 -0.5851
  951SOL    HW2 2853   0.774   2.112   1.997  0.5496 -0.1718 -3.2726
  952SOL     OW 2854   1.035   1.691   0.068  0.2768  0.0225 -0.1168
  952SOL    HW1 2855   1.079   1.783   0.079  3.7486 -1.1382  3.7076
  952SOL    HW2 2856   1.079   1.623   0.132  2.3342  0.1788  1.4511
  953SOL     OW 2857   0.850   2.888   0.050 -0.0812  0.0762 -0.5061
  953SOL    HW1 2858   0.827   2.928   0.135  0.1138  0.0422 -0.7079
  953SOL    HW2 2859   0.933   2.834   0.044 -1.4683  1.3211  0.8899
  954SOL     OW 2860   1.609   1.245   0.136  0.3942 -0.0295  0.0393
  954SOL    HW1 2861   1.567   1.193   0.060 -1.9485 -0.8409  0.2926
  954SOL    HW2 2862   1.574   1.336   0.153  1.1003 -0.6329  1.7224
  955SOL     OW 2863   0.081   2.606   3.018  0.2178  0.9535  0.0712
  955SOL    HW1 2864   0.142   2.685   3.010 -0.8148 -0.2243 -1.4276
  955SOL    HW2 2865   0.039   2.582   2.929 -2.6740  0.3318 -2.3472
  956SOL     OW 2866   1.052   0.723   1.247  0.0601 -1.0166  0.3022
  956SOL    HW1 2867   1.116   0.776   1.183  0.9067  0.7000 -0.6559
  956SOL    HW2 2868   1.060   0.621   1.252 -0.4739 -0.8678  2.0001
  957SOL     OW 2869   1.587   1.321   1.502  0.2378 -0.4679 -0.0737
  957SOL    HW1 2870   1.547   1.369   1.581  0.5864  1.1471 -2.3628
  957SOL    HW2 2871   1.664   1.266   1.533 -0.0727  0.6377 -1.5030
  958SOL     OW 2872   0.697   1.671   1.226  0.1432  0.0563 -0.0387
  958SOL    HW1 2873   0.712   1.583   1.272 -1.1396  1.1251  1.1116
  958SOL    HW2 2874   0.691   1.654   1.124  0.3461 -1.3140  1.4824
  959SOL     OW 2875   1.710   1.395   1.270  0.2614 -0.6110  0.4104
  959SOL    HW1 2876   1.732   1.494   1.292 -0.3467  3.1758 -0.0119
  959SOL    HW2 2877   1.661   1.351   1.350 -1.0479  1.2330  1.3155
  960SOL     OW 2878   0.145   1.155   3.098  0.3061  0.4340  0.2761
  960SOL    HW1 2879   0.204   1.184   0.061 -0.8335  1.0051  2.3043
  960SOL    HW2 2880   0.201   1.155   3.014 -0.0452 -3.7421  1.1157
  961SOL     OW 2881   0.965   1.559   1.580  0.0753  0.1513  0.4799
  961SOL    HW1 2882   0.880   1.556   1.640 -0.9062 -1.0772 -1.1513
  961SOL    HW2 2883   1.022   1.640   1.599  2.7513 -2.9834  1.0905
  962SOL     OW 2884   1.271   1.233   0.870  0.2568 -0.0638 -0.2686
  962SOL    HW1 2885   1.303   1.308   0.936 -0.8018  2.5129  1.8581
  962SOL    HW2 2886   1.175   1.242   0.826 -0.2083 -1.7785 -0.8865
  963SOL     OW 2887   1.579   1.976   3.025 -0.2513 -0.4391  0.0706
  963SOL    HW1 2888   1.607   1.973   2.925  2.3685  1.9627 -0.8703
  963SOL    HW2 2889   1.610   1.901   3.084  1.3993  2.5813 -0.7734
  964SOL     OW 2890   0.492   3.033   0.197 -0.1239  0.0470  0.5637
  964SOL    HW1 2891   0.392   3.027   0.218 -0.8590  0.0574  1.3213
  964SOL    HW2 2892   0.511   2.985   0.108  0.0784  1.6677  2.0205
  965SOL     OW 2893   0.386   2.297   0.462  0.3083  0.3017  0.4986
  965SOL    HW1 2894   0.342   2.223   0.516  0.8683  1.2479 -0.0098
  965SOL    HW2 2895   0.366   2.278   0.361  2.8647  2.1806  0.4044
  966SOL     OW 2896   0.162   1.459   2.771  0.8407 -0.0354  0.3506
  966SOL    HW1 2897   0.060   1.436   2.768 -1.4135  0.5542 -0.7138
  966SOL    HW2 2898   0.192   1.460   2.867  2.0606  1.7137 -0.1818
  967SOL     OW 2899   2.876   3.083   2.459  0.3613 -0.0083  0.0986
  967SOL    HW1 2900   2.803   0.013   2.514  0.4890  1.8316 -1.8477
  967SOL    HW2 2901   2.951   3.038   2.513  2.4996 -0.3944 -0.2294
  968SOL     OW 2902   2.015   0.240   0.427 -0.4730 -0.0821 -0.0068
  968SOL    HW1 2903   1.953   0.291   0.365 -0.8747  0.3344  0.6042
  968SOL    HW2 2904   2.081   0.302   0.473 -1.0628 -1.5535  0.8341
  969SOL     OW 2905   0.327   1.049   1.905 -0.3739 -0.5335 -0.4178
  969SOL    HW1 2906   0.299   1.146   1.922  0.1280  1.3907 -0.8416
  969SOL    HW2 2907   0.338   0.999   1.993 -0.5742 -0.4896 -0.0646
  970SOL     OW 2908   2.241   1.669   0.854 -0.1735 -0.2037  0.2070
  970SOL    HW1 2909   2.261   1.741   0.922 -0.0693 -0.4804  1.3114
  970SOL    HW2 2910   2.194   1.586   0.896 -0.2029  1.8205 -1.4200
  971SOL     OW 2911   2.633   2.977   1.336 -0.1950 -0.3869  0.4845
  971SOL    HW1 2912   2.546   2.982   1.284  0.2301 -1.2369  1.4401
  971SOL    HW2 2913   2.701   3.046   1.300  4.3389 -1.7269 -2.0364
  972SOL     OW 2914   0.796   2.849   1.523  0.0322  0.1669  0.8645
  972SOL    HW1 2915   0.846   2.859   1.612  0.3455  0.0309 -0.3690
  972SOL    HW2 2916   0.821   2.927   1.462  0.7793  1.0338 -1.7004
  973SOL     OW 2917   0.432   0.322   2.853  0.3393  0.8681 -0.2748
  973SOL    HW1 2918   0.483   0.404   2.889 -0.3396  0.8796 -1.2048
  973SOL    HW2 2919   0.341   0.348   2.827  2.6110 -0.5499  1.1366
  974SOL     OW 2920   1.885   1.510   2.352  0.3303 -0.1226  0.3362
  974SOL    HW1 2921   1.921   1.458   2.273 -0.0888 -0.4338 -1.6364
  974SOL    HW2 2922   1.958   1.582   2.373  0.7757 -0.9849  2.4427
  975SOL     OW 2923   0.008   2.996   1.479 -0.5126  0.4714 -0.1651
  975SOL    HW1 2924   0.106   3.004   1.488 -0.0099  0.0689 -1.9323
  975SOL    HW2 2925   3.074   3.052   1.547  2.5296  1.4773 -0.7406
  976SOL     OW 2926   0.574   2.063   2.327  0.6701  0.4656 -0.0948
  976SOL    HW1 2927   0.629   2.058   2.240  1.1988 -0.3453  0.5686
  976SOL    HW2 2928   0.621   2.005   2.399  2.1135 -0.7791  2.2531
  977SOL     OW 2929   0.770   2.528   0.564  0.4410  0.4255 -0.2465
  977SOL    HW1 2930   0.701   2.544   0.494 -0.6223 -2.5448  0.2662
  977SOL    HW2 2931   0.858   2.569   0.542  0.4004  0.0232  3.4229
  978SOL     OW 2932   0.039   1.372   2.315  0.0118  0.1328  0.0181
  978SOL    HW1 2933   0.140   1.383   2.336 -0.6729 -1.3190  0.2006
  978SOL    HW2 2934   0.003   1.313   2.388  0.5054  0.8086 -0.3283
  979SOL     OW 2935   1.746   2.441   1.545  0.1132  0.3128 -0.7074
  979SOL    HW1 2936   1.795   2.499   1.480  0.8793 -4.5252  0.2949
  979SOL    HW2 2937   1.815   2.402   1.604 -1.6349  4.3229 -0.9109
  980SOL     OW 2938   1.174   1.256   2.824  0.7570 -0.2251 -0.1306
  980SOL    HW1 2939   1.224   1.305   2.899 -1.7846  1.6874 -0.5577
  980SOL    HW2 2940   1.102   1.320   2.789  1.8847  0.0128  1.1907
  981SOL     OW 2941   2.343   0.145   2.070 -1.3939  0.1370 -0.2332
  981SOL    HW1 2942   2.243   0.144   2.038  0.1972  0.5769  0.9190
  981SOL    HW2 2943   2.402   0.189   1.998  1.1730 -0.0524 -0.2342
  982SOL     OW 2944   0.177   0.435   2.815  0.1292  0.4200 -0.2510
  982SOL    HW1 2945   0.095   0.439   2.876 -1.4333  2.1802 -0.6364
  982SOL    HW2 2946   0.162   0.399   2.717  1.6666 -3.1071 -3.5555
  983SOL     OW 2947   2.009   1.112   2.408 -0.0325 -0.3500 -0.3587
  983SOL    HW1 2948   1.964   1.128   2.498  1.7909 -0.4187  0.7808
  983SOL    HW2 2949   1.974   1.175   2.339 -1.3322 -0.1130  0.4490
  984SOL     OW 2950   1.407   0.406   1.915  0.8760 -0.0356  0.1824
  984SOL    HW1 2951   1.326   0.450   1.875 -2.2644 -1.8931 -2.3509
  984SOL    HW2 2952   1.486   0.472   1.908  2.1202  2.4498  0.2234
  985SOL     OW 2953   1.962   1.573   1.898  0.3619 -0.2352  0.2423
  985SOL    HW1 2954   1.985   1.518   1.816 -2.6282 -0.2197  0.9032
  985SOL    HW2 2955   1.948   1.504   1.978 -1.5255 -0.3253 -0.2884
  986SOL     OW 2956   2.248   0.698   1.793  0.5394 -0.1505  0.1054
  986SOL    HW1 2957   2.253   0.603   1.821 -1.5929 -0.2621 -0.3787
  986SOL    HW2 2958   2.300   0.725   1.707 -0.7122  1.1625 -1.0168
  987SOL     OW 2959   2.642   0.365   1.262  0.5828 -0.2830  0.1453
  987SOL    HW1 2960   2.702   0.353   1.347 -0.3307 -0.7696 -0.9013
  987SOL    HW2 2961   2.548   0.326   1.273  0.3253  0.8008  0.1051
  988SOL     OW 2962   2.998   0.690   2.071 -0.3252 -0.4331  0.0683
  988SOL    HW1 2963   2.904   0.669   2.104  2.2600 -1.9096  1.1444
  988SOL    HW2 2964   3.059   0.694   2.154  0.4585  1.2844 -0.5605
  989SOL     OW 2965   2.157   1.813   0.150 -0.1049  0.0831 -0.1803
  989SOL    HW1 2966   2.213   1.881   0.095 -2.5898  1.5318 -2.8095
  989SOL    HW2 2967   2.220   1.749   0.200 -2.0245  0.3128 -1.7872
  990SOL     OW 2968   0.981   0.453   2.881  0.1625  0.4854  0.4402
  990SOL    HW1 2969   1.030   0.542   2.881  0.8580  1.3250  3.4441
  990SOL    HW2 2970   1.011   0.384   2.952  1.6926 -2.8021  0.0634
  991SOL     OW 2971   1.343   1.008   0.364 -0.3333  0.0341  0.4468
  991SOL    HW1 2972   1.438   1.026   0.328  0.6701 -0.3205 -0.4545
  991SOL    HW2 2973   1.334   1.016   0.463 -2.0267  0.2491  1.4061
  992SOL     OW 2974   1.857   1.264   0.224 -1.0751  0.4890 -0.0126
  992SOL    HW1 2975   1.870   1.360   0.256  0.0335  1.1419 -1.4080
  992SOL    HW2 2976   1.771   1.257   0.168 -1.9970 -0.1458 -0.1545
  993SOL     OW 2977   2.920   0.605   0.726  0.0780  0.0990  0.1592
  993SOL    HW1 2978   2.997   0.617   0.662  0.9589  0.6378 -0.7563
  993SOL    HW2 2979   2.961   0.580   0.814 -0.0205  0.0791  1.7598
  994SOL     OW 2980   3.069   1.992   2.371 -0.1537  0.1372  0.4293
  994SOL    HW1 2981   3.063   1.957   2.467  0.3939  0.6437 -2.7279
  994SOL    HW2 2982   3.097   2.093   2.372 -0.6117  0.6806  1.3113
  995SOL     OW 2983   1.841   1.439   2.986  0.0394  0.3323  0.5829
  995SOL    HW1 2984   1.882   1.525   3.025  0.5688 -1.3596 -1.3724
  995SOL    HW2 2985   1.866   1.351   3.027  0.2952  1.6602  1.2279
  996SOL     OW 2986   2.155   1.466   3.097  0.1957  0.0440 -0.6332
  996SOL    HW1 2987   2.250   1.471   3.063  1.6021  0.2308  3.2199
  996SOL    HW2 2988   2.142   1.386   0.044  1.1105 -3.7886  0.8415
  997SOL     OW 2989   2.291   1.390   1.804  0.3605  0.4670  0.5248
  997SOL    HW1 2990   2.356   1.386   1.725  0.0130 -1.7906 -2.4840
  997SOL    HW2 2991   2.331   1.422   1.892 -2.2016  1.9844 -0.3453
  998SOL     OW 2992   2.621   1.622   0.339  0.0759  0.2527 -0.2632
  998SOL    HW1 2993   2.679   1.534   0.351 -1.0364 -4.2308 -0.0145
  998SOL    HW2 2994   2.626   1.688   0.421  1.4461  3.9481 -0.2550
  999SOL     OW 2995   2.690   2.322   0.148  0.2033 -0.1782 -0.2005
  999SOL    HW1 2996   2.737   2.229   0.133  0.7448  1.8282  0.2753
  999SOL    HW2 2997   2.755   2.399   0.134  1.3050 -2.4014  0.7405
 1000SOL     OW 2998   1.021   0.383   1.978 -0.5375  0.1702  0.0763
 1000SOL    HW1 2999   1.063   0.374   2.074  2.8181 -0.7446 -1.5753
 1000SOL    HW2 3000   0.939   0.439   1.973 -0.8233 -1.2946  0.5501
   3.11445   3.11445   3.11445
