1000 SPC/Fw water molecules t=  74.00000 step= 74000
 3000
    1SOL     OW    1   1.852   2.720   0.969  0.2847  0.0088 -0.5738
    1SOL    HW1    2   1.834   2.700   0.873 -2.4313  0.6280  0.0891
    1SOL    HW2    3   1.902   2.809   0.974  0.9038 -0.1132 -0.5412
    2SOL     OW    4   0.736   1.337   2.285 -0.0558 -0.3859  0.6583
    2SOL    HW1    5   0.658   1.379   2.329  1.0808 -1.0593 -0.2840
    2SOL    HW2    6   0.827   1.377   2.318 -2.5118  0.5619  0.6249
    3SOL     OW    7   1.532   2.788   2.539 -0.1621 -0.0178  0.4797
    3SOL    HW1    8   1.597   2.805   2.616 -0.9227 -1.7888  0.6282
    3SOL    HW2    9   1.503   2.690   2.536  0.5510 -0.1814  0.5174
    4SOL     OW   10   1.064   1.910   2.817 -0.2195  0.2592  0.6185
    4SOL    HW1   11   1.131   1.932   2.748 -0.9670 -2.3463  1.8028
    4SOL    HW2   12   1.096   1.830   2.869  0.1645  1.6455 -0.2992
    5SOL     OW   13   0.666   0.634   1.700  0.2833 -0.3759  0.1643
    5SOL    HW1   14   0.717   0.677   1.621  0.2843  1.6375 -1.8521
    5SOL    HW2   15   0.681   0.692   1.781  2.6899 -1.3139 -2.6460
    6SOL     OW   16   1.937   0.482   2.568  0.2432  0.6021 -0.2112
    6SOL    HW1   17   2.012   0.524   2.513 -0.2413  0.8478 -3.1137
    6SOL    HW2   18   1.844   0.505   2.532 -2.6060  2.7815 -0.8996
    7SOL     OW   19   0.422   0.409   1.452  0.5990  0.3486  0.1849
    7SOL    HW1   20   0.325   0.390   1.419 -1.9120 -0.8839 -1.0365
    7SOL    HW2   21   0.424   0.477   1.527  0.4566  2.3822 -0.8207
    8SOL     OW   22   1.716   0.217   1.894 -0.1658 -0.2154 -0.4075
    8SOL    HW1   23   1.719   0.117   1.919 -2.0163  0.8162  0.7657
    8SOL    HW2   24   1.812   0.245   1.879  0.8108 -0.5373 -0.1395
    9SOL     OW   25   0.299   0.031   0.545 -0.0877 -0.1035  0.5846
    9SOL    HW1   26   0.311   0.100   0.617  1.8744  0.0865 -0.8487
    9SOL    HW2   27   0.242   3.070   0.585  1.5702 -4.5479 -0.2575
   10SOL     OW   28   0.519   2.371   2.396 -0.0245  0.2713 -0.0326
   10SOL    HW1   29   0.617   2.379   2.415 -3.2512  0.7930 -1.3700
   10SOL    HW2   30   0.500   2.336   2.298  1.4933 -0.5789 -0.6152
   11SOL     OW   31   0.490   1.577   0.176 -0.5698  0.2993  0.0937
   11SOL    HW1   32   0.442   1.522   0.107  2.4750 -0.9649 -2.2945
   11SOL    HW2   33   0.593   1.567   0.158  1.4418 -0.4936 -2.1377
   12SOL     OW   34   2.992   2.821   1.363 -0.1265 -0.1129  0.4715
   12SOL    HW1   35   2.930   2.842   1.283 -0.8019  0.6011 -2.4510
   12SOL    HW2   36   3.088   2.796   1.331  2.0796 -2.4256 -0.3061
   13SOL     OW   37   0.814   2.866   0.408  0.1800  0.3069  0.6980
   13SOL    HW1   38   0.848   2.799   0.341 -0.4151 -0.0514  1.0965
   13SOL    HW2   39   0.778   2.948   0.362 -0.6190 -2.5551 -1.5716
   14SOL     OW   40   1.557   1.670   1.414 -0.0466  0.1822  0.8573
   14SOL    HW1   41   1.504   1.585   1.429 -0.3000 -0.8427 -1.0524
   14SOL    HW2   42   1.646   1.650   1.371 -0.4209  0.3870  2.4666
   15SOL     OW   43   0.128   1.929   2.569 -0.0985  0.4017 -0.2015
   15SOL    HW1   44   0.200   1.989   2.534  0.6243 -0.5512  0.8572
   15SOL    HW2   45   0.100   1.942   2.670 -1.1767  0.1906  2.7830
   16SOL     OW   46   1.524   0.439   2.714 -0.1217 -0.2356 -0.4626
   16SOL    HW1   47   1.566   0.503   2.642 -2.2224  2.3988 -0.0680
   16SOL    HW2   48   1.529   0.483   2.806 -0.7604 -2.9532 -0.6630
   17SOL     OW   49   3.079   2.226   2.459  0.2876 -0.1329 -0.1160
   17SOL    HW1   50   0.021   2.307   2.482 -1.7008  1.0690 -0.3674
   17SOL    HW2   51   0.012   2.157   2.409 -1.0540  2.6570  3.1574
   18SOL     OW   52   1.135   1.334   0.844 -0.0092  0.2666 -0.3868
   18SOL    HW1   53   1.084   1.416   0.808 -1.2672 -2.4778 -1.1907
   18SOL    HW2   54   1.153   1.333   0.943  0.1516  1.4755 -1.0642
   19SOL     OW   55   2.546   2.079   2.360  0.2974  0.1946  1.0271
   19SOL    HW1   56   2.600   1.999   2.339 -0.3323  4.7784 -0.9419
   19SOL    HW2   57   2.556   2.157   2.298  1.4520  0.5725  1.2031
   20SOL     OW   58   2.292   2.116   2.468 -0.1689  0.1824 -0.1719
   20SOL    HW1   59   2.389   2.119   2.445 -0.9560  0.0031 -1.7741
   20SOL    HW2   60   2.263   2.201   2.515  2.0877  1.5674  0.6100
   21SOL     OW   61   1.359   1.814   0.206 -0.1410  0.2199  0.0962
   21SOL    HW1   62   1.330   1.733   0.266  0.3201 -2.3586  0.8259
   21SOL    HW2   63   1.357   1.900   0.254  1.3460 -1.8985  0.5980
   22SOL     OW   64   2.325   2.242   1.556 -0.6759 -0.1181  0.1686
   22SOL    HW1   65   2.315   2.294   1.462 -2.7051  1.7929  0.6033
   22SOL    HW2   66   2.237   2.228   1.608  1.3089 -1.1984  2.3610
   23SOL     OW   67   0.067   1.313   1.131 -0.4391 -0.1060  0.2252
   23SOL    HW1   68   0.074   1.214   1.106  2.0664  0.4373 -2.6693
   23SOL    HW2   69   0.127   1.355   1.057  1.0945 -0.8972 -2.3515
   24SOL     OW   70   2.417   1.538   2.060  0.3942 -0.0620 -0.1818
   24SOL    HW1   71   2.448   1.532   1.964  0.6980 -0.6566 -1.0888
   24SOL    HW2   72   2.498   1.563   2.117  1.3655  0.0819  0.3184
   25SOL     OW   73   2.056   0.266   2.229  0.1367  0.0564  0.0954
   25SOL    HW1   74   2.136   0.280   2.290 -0.2652  0.7553  0.9953
   25SOL    HW2   75   2.055   0.335   2.155  3.3882 -0.3793  0.2574
   26SOL     OW   76   1.070   0.011   0.649 -0.5760 -0.0545 -0.3497
   26SOL    HW1   77   0.999   0.047   0.587  1.3645  0.7904  1.2137
   26SOL    HW2   78   1.119   0.089   0.696  3.9434  0.2432  0.4098
   27SOL     OW   79   0.643   1.506   0.508  0.2172  0.6155  0.0071
   27SOL    HW1   80   0.576   1.582   0.515  0.0227  3.0047  1.8518
   27SOL    HW2   81   0.650   1.467   0.600 -0.4624  1.1240 -1.0908
   28SOL     OW   82   2.350   2.029   1.093  0.0350  0.0871 -0.8032
   28SOL    HW1   83   2.416   1.989   1.157  1.0683  1.6295 -2.1685
   28SOL    HW2   84   2.258   2.027   1.133  2.2444 -2.6702 -1.3758
   29SOL     OW   85   2.244   3.005   1.626 -0.2811 -0.4906 -0.6131
   29SOL    HW1   86   2.158   2.947   1.638  0.1155 -0.9992  0.3705
   29SOL    HW2   87   2.308   2.991   1.701  0.0145 -0.6688 -0.1146
   30SOL     OW   88   0.917   3.001   1.125  0.0145 -0.4667  0.1000
   30SOL    HW1   89   0.856   2.939   1.178  1.7889 -0.6165  1.0523
   30SOL    HW2   90   0.985   3.041   1.192 -2.4303 -1.2596 -2.6203
   31SOL     OW   91   2.992   1.981   1.867  0.4901 -0.1086  0.0085
   31SOL    HW1   92   3.031   1.886   1.881 -1.5686 -0.2881 -0.0437
   31SOL    HW2   93   2.928   2.004   1.938  1.1541 -1.6675 -2.9751
   32SOL     OW   94   1.304   1.634   1.950  0.2371 -0.3928 -0.0851
   32SOL    HW1   95   1.227   1.635   1.882  0.4027  0.2643 -0.9865
   32SOL    HW2   96   1.339   1.731   1.967  1.1321 -1.2457  0.8159
   33SOL     OW   97   0.258   0.097   0.029 -0.2054 -0.7933  0.0421
   33SOL    HW1   98   0.249   0.179   0.091  0.3355  2.6592 -0.4752
   33SOL    HW2   99   0.276   0.118   3.046  1.4335 -0.9313 -1.0610
   34SOL     OW  100   2.502   2.955   0.536  0.0930  0.3130 -0.1392
   34SOL    HW1  101   2.412   2.958   0.587 -1.6967 -1.2438  0.0002
   34SOL    HW2  102   2.525   2.852   0.523 -1.2252 -2.0904  3.4995
   35SOL     OW  103   2.730   0.056   1.506  0.2401 -0.6155 -0.0313
   35SOL    HW1  104   2.774   0.146   1.541  2.0020  1.3176  1.7270
   35SOL    HW2  105   2.653   0.069   1.440 -1.8769 -1.2557  1.6707
   36SOL     OW  106   2.842   2.682   2.728 -0.2164 -0.1062 -0.5277
   36SOL    HW1  107   2.858   2.776   2.761  1.7765 -1.2931 -2.5891
   36SOL    HW2  108   2.882   2.682   2.634 -0.0383  0.2681  0.9810
   37SOL     OW  109   1.683   2.664   2.951  0.0208 -0.0544 -0.3992
   37SOL    HW1  110   1.686   2.764   2.972  0.0971  1.6562  1.0231
   37SOL    HW2  111   1.631   2.609   3.023 -0.2083 -0.3615  2.1959
   38SOL     OW  112   2.858   0.982   3.031  0.4682 -0.5486  0.4879
   38SOL    HW1  113   2.759   0.999   3.055 -1.8354 -1.5291  0.5147
   38SOL    HW2  114   2.921   1.047   3.076 -0.9453 -1.5593 -1.2473
   39SOL     OW  115   1.674   1.764   2.046  0.1179 -0.9045  0.5853
   39SOL    HW1  116   1.711   1.836   2.109  1.0474 -0.5064 -1.2372
   39SOL    HW2  117   1.645   1.686   2.108  1.9808 -0.1840 -1.0474
   40SOL     OW  118   0.355   0.216   2.544  0.4815  0.3040  0.4365
   40SOL    HW1  119   0.286   0.150   2.581  2.3006 -0.8694  0.9869
   40SOL    HW2  120   0.428   0.230   2.609 -3.0569  1.1931 -0.9895
   41SOL     OW  121   1.834   1.437   1.877 -0.0318 -0.1975  0.0493
   41SOL    HW1  122   1.856   1.503   1.950 -0.2752 -1.7485 -2.7062
   41SOL    HW2  123   1.735   1.445   1.845 -0.4459 -1.1685  0.5282
   42SOL     OW  124   0.169   0.228   1.665  0.6793  0.0484  0.2598
   42SOL    HW1  125   0.166   0.255   1.562 -0.2700  1.3545 -1.2093
   42SOL    HW2  126   0.261   0.241   1.700 -3.5926 -2.2969  1.6725
   43SOL     OW  127   1.412   1.444   2.088  0.5323 -0.1112  0.4919
   43SOL    HW1  128   1.410   1.353   2.033  0.5926 -3.5288 -0.5685
   43SOL    HW2  129   1.379   1.524   2.039  0.4451  0.5867 -1.7181
   44SOL     OW  130   3.100   0.275   3.028  0.0500  0.1750 -0.2492
   44SOL    HW1  131   3.101   0.175   3.005 -1.9580 -0.3117 -1.1630
   44SOL    HW2  132   3.050   0.292   0.005 -0.3996  1.6136  1.3880
   45SOL     OW  133   0.248   2.042   1.040  0.0844  0.2856 -0.3897
   45SOL    HW1  134   0.292   2.107   1.108  0.3894  0.6281 -0.7629
   45SOL    HW2  135   0.318   1.976   1.007 -3.0638  0.3912 -1.1890
   46SOL     OW  136   2.463   2.687   1.709  0.0657 -0.5934  0.1619
   46SOL    HW1  137   2.460   2.784   1.744 -2.8535  2.7875 -1.7807
   46SOL    HW2  138   2.552   2.647   1.702 -3.9118 -1.4551 -1.4301
   47SOL     OW  139   0.677   1.719   1.258  0.2191 -0.4060 -0.0621
   47SOL    HW1  140   0.713   1.624   1.245 -3.0616  4.2194  1.6698
   47SOL    HW2  141   0.655   1.771   1.179  1.6896 -1.4667  2.7303
   48SOL     OW  142   0.546   2.545   0.434 -0.6653 -0.3413  0.2816
   48SOL    HW1  143   0.536   2.641   0.467 -0.7043  2.0997  1.8163
   48SOL    HW2  144   0.616   2.497   0.492 -0.6064  0.2326  2.1405
   49SOL     OW  145   2.786   1.432   1.737 -0.2990  0.0145  0.2246
   49SOL    HW1  146   2.687   1.436   1.762  0.7572 -0.3573 -1.5170
   49SOL    HW2  147   2.805   1.345   1.683  1.1309 -1.2529 -0.8084
   50SOL     OW  148   1.708   0.517   0.610  0.7283 -0.1905 -0.0870
   50SOL    HW1  149   1.781   0.470   0.550  2.6652  1.4737  3.0803
   50SOL    HW2  150   1.741   0.528   0.704 -0.9219  2.0633 -0.9523
   51SOL     OW  151   1.268   0.665   1.060  0.1960 -0.4505  0.7300
   51SOL    HW1  152   1.304   0.739   1.121 -2.8222 -1.8209  1.8382
   51SOL    HW2  153   1.228   0.701   0.978  1.8760  1.2430 -1.6666
   52SOL     OW  154   0.936   1.239   0.449  0.3144  0.3239  0.0750
   52SOL    HW1  155   0.985   1.180   0.521  3.1321  0.0994 -1.1982
   52SOL    HW2  156   0.834   1.245   0.467 -2.5086  2.6484  1.8639
   53SOL     OW  157   1.349   0.037   2.406  0.8317 -0.2307  0.0274
   53SOL    HW1  158   1.424   0.006   2.469  0.2459  1.1645  1.7770
   53SOL    HW2  159   1.306   3.067   2.374  2.1482  0.2535 -0.6736
   54SOL     OW  160   1.752   0.848   1.770  0.2470 -0.2477 -0.3786
   54SOL    HW1  161   1.736   0.915   1.689 -0.4246  0.3432 -0.9209
   54SOL    HW2  162   1.844   0.804   1.770  1.0870 -1.5521 -2.4271
   55SOL     OW  163   2.805   2.754   0.428  0.1087  0.8487  0.1802
   55SOL    HW1  164   2.868   2.722   0.503 -0.1014 -0.4547 -2.0997
   55SOL    HW2  165   2.715   2.700   0.437 -1.3358 -0.7119 -1.7475
   56SOL     OW  166   0.979   2.706   1.712 -0.2982  0.8925  0.2607
   56SOL    HW1  167   0.942   2.773   1.640 -0.9716 -0.8470  0.3602
   56SOL    HW2  168   0.943   2.610   1.696 -1.9693 -1.3980  0.0760
   57SOL     OW  169   1.741   0.843   2.703 -0.0056 -0.7490 -0.6541
   57SOL    HW1  170   1.718   0.897   2.788  0.1434  0.0573  1.6719
   57SOL    HW2  171   1.659   0.792   2.661  0.6947 -2.0729  0.8916
   58SOL     OW  172   0.206   1.187   2.157 -0.5245 -0.2262  0.2148
   58SOL    HW1  173   0.107   1.197   2.128 -2.0291  0.2173 -3.8131
   58SOL    HW2  174   0.246   1.095   2.132 -1.1922 -0.2077 -1.1048
   59SOL     OW  175   0.639   2.676   2.014 -0.4019 -0.1252 -0.0470
   59SOL    HW1  176   0.598   2.622   2.093  0.4875  1.3174  0.7997
   59SOL    HW2  177   0.683   2.760   2.055 -2.8912  1.3410  1.0232
   60SOL     OW  178   2.461   2.413   0.264  0.6474 -0.3346  0.5009
   60SOL    HW1  179   2.542   2.373   0.219  0.0414 -0.3558  1.7937
   60SOL    HW2  180   2.383   2.414   0.198 -1.3872 -1.1980  1.4208
   61SOL     OW  181   1.007   2.645   0.698  0.3206  0.0136 -0.7066
   61SOL    HW1  182   1.026   2.600   0.608  1.0848 -1.4507  1.6035
   61SOL    HW2  183   0.974   2.743   0.679  0.5193  1.2523 -0.2182
   62SOL     OW  184   1.518   2.300   2.674 -0.1762 -0.4628  0.6548
   62SOL    HW1  185   1.611   2.254   2.682  2.9855 -0.3876  0.3196
   62SOL    HW2  186   1.455   2.262   2.746 -0.2710  0.6386  0.4187
   63SOL     OW  187   2.078   0.645   3.015  0.5026 -0.0784 -0.4293
   63SOL    HW1  188   2.053   0.605   2.925  1.2069 -1.2739  2.4941
   63SOL    HW2  189   2.166   0.613   3.054 -2.6471  1.1267  1.4445
   64SOL     OW  190   0.875   1.292   2.913 -0.2965  0.2095  0.2203
   64SOL    HW1  191   0.803   1.335   2.973 -0.4465 -3.3526  1.1941
   64SOL    HW2  192   0.961   1.287   2.965 -1.8298  0.6590 -0.8708
   65SOL     OW  193   1.096   3.114   1.300 -0.0484  0.2211 -0.1795
   65SOL    HW1  194   1.166   3.069   1.366  1.5681 -1.6918  0.5667
   65SOL    HW2  195   1.145   0.050   1.230 -0.6435 -2.4762  0.0254
   66SOL     OW  196   0.528   1.475   1.576  0.0228 -0.2968 -0.0524
   66SOL    HW1  197   0.475   1.390   1.575 -0.4925 -1.4004  0.5220
   66SOL    HW2  198   0.626   1.460   1.577 -1.2424  0.9769 -0.1976
   67SOL     OW  199   2.525   2.576   1.954  0.3329  0.2135 -0.4815
   67SOL    HW1  200   2.548   2.634   2.038  1.2038 -0.1303  1.9815
   67SOL    HW2  201   2.497   2.634   1.873  0.5550 -0.1499 -0.5559
   68SOL     OW  202   0.966   1.063   1.857 -0.2445  0.1314 -0.0615
   68SOL    HW1  203   0.955   1.069   1.954 -0.2068  1.4936 -2.4395
   68SOL    HW2  204   0.887   1.102   1.805 -0.5902  1.3008 -0.0887
   69SOL     OW  205   2.708   2.563   0.056 -0.7615  0.0559  0.5982
   69SOL    HW1  206   2.772   2.627   0.099 -1.7747 -3.2915  0.7973
   69SOL    HW2  207   2.616   2.602   0.054 -0.9699  0.4679 -2.3990
   70SOL     OW  208   2.320   0.487   2.737  0.3214  0.3005  0.0888
   70SOL    HW1  209   2.371   0.400   2.722  1.8894 -0.7840  0.2842
   70SOL    HW2  210   2.390   0.552   2.779  0.2687 -0.0192 -0.5707
   71SOL     OW  211   0.032   2.192   0.445 -0.0900  0.3713  0.0411
   71SOL    HW1  212   3.077   2.199   0.368 -1.1436  1.9735 -1.2605
   71SOL    HW2  213   0.125   2.192   0.401 -0.1869 -1.5464 -0.9612
   72SOL     OW  214   2.852   1.908   0.308 -0.7198  0.3906 -0.0318
   72SOL    HW1  215   2.869   1.828   0.250 -0.2196  1.0499  1.1217
   72SOL    HW2  216   2.841   1.989   0.248 -0.3507 -0.7525  0.4088
   73SOL     OW  217   1.121   0.559   0.677  0.2369  0.6441  0.5811
   73SOL    HW1  218   1.222   0.569   0.672 -0.4795 -0.7383 -1.8244
   73SOL    HW2  219   1.084   0.587   0.766 -0.5860 -1.5504 -1.5591
   74SOL     OW  220   2.932   2.350   2.098  0.1122  0.1325  0.4857
   74SOL    HW1  221   3.032   2.320   2.093  0.5124  0.2136 -1.1167
   74SOL    HW2  222   2.898   2.378   2.005 -1.1536 -0.9166 -2.2018
   75SOL     OW  223   1.784   1.779   1.787  0.0833  0.0630 -0.0599
   75SOL    HW1  224   1.757   1.774   1.887  1.2205  1.6054 -2.2411
   75SOL    HW2  225   1.697   1.778   1.732  0.2964 -1.1363  1.1610
   76SOL     OW  226   1.318   2.111   1.361  0.8814 -0.2271  0.5164
   76SOL    HW1  227   1.281   2.120   1.456  1.4031  2.0522  0.2798
   76SOL    HW2  228   1.242   2.123   1.297  0.4029  0.6587  2.3178
   77SOL     OW  229   2.727   1.708   1.863 -0.4615  0.1215  0.0654
   77SOL    HW1  230   2.789   1.631   1.896  1.4274 -0.7923 -2.7520
   77SOL    HW2  231   2.690   1.765   1.940  0.5020  0.9328  1.8629
   78SOL     OW  232   1.820   0.530   0.875  0.9832 -0.3035 -0.2749
   78SOL    HW1  233   1.846   0.435   0.910  1.2983 -1.0159 -0.0611
   78SOL    HW2  234   1.752   0.577   0.934 -0.4928 -0.1436  0.7371
   79SOL     OW  235   2.095   1.519   1.784  0.1256 -0.1868  0.1003
   79SOL    HW1  236   2.163   1.442   1.777  1.7745 -0.5548  0.1907
   79SOL    HW2  237   2.011   1.492   1.830  0.4490 -1.5370  0.5925
   80SOL     OW  238   1.333   0.415   1.165  0.2786 -0.3931  0.4708
   80SOL    HW1  239   1.268   0.489   1.135 -0.2207  1.3736  2.1602
   80SOL    HW2  240   1.326   0.413   1.264  0.5723  1.2412  0.7756
   81SOL     OW  241   0.790   2.432   0.543  0.2742 -0.4203 -0.3467
   81SOL    HW1  242   0.856   2.501   0.500  0.8920  0.3088  0.4184
   81SOL    HW2  243   0.839   2.376   0.609 -3.0947  2.8427 -0.1530
   82SOL     OW  244   1.306   0.642   1.822  0.1554 -1.0332 -0.1023
   82SOL    HW1  245   1.389   0.643   1.763 -1.5980  0.9282  2.0622
   82SOL    HW2  246   1.267   0.549   1.813  0.9063 -0.0541 -0.5290
   83SOL     OW  247   0.319   2.220   0.646  0.0737  0.1428 -0.2068
   83SOL    HW1  248   0.325   2.200   0.544 -1.4215 -1.0727 -2.0683
   83SOL    HW2  249   0.234   2.181   0.683  1.5155 -2.5967  1.4684
   84SOL     OW  250   2.604   1.358   3.078 -0.2748 -0.0537 -0.1853
   84SOL    HW1  251   2.687   1.366   3.021  0.4328  0.2443  1.6977
   84SOL    HW2  252   2.534   1.418   3.039 -2.4925  1.1809 -1.9600
   85SOL     OW  253   2.928   2.423   1.408 -0.6721 -0.1297 -0.1074
   85SOL    HW1  254   2.885   2.484   1.340 -1.2341 -0.0495 -0.1955
   85SOL    HW2  255   2.863   2.374   1.469 -0.2738  0.8889  0.5502
   86SOL     OW  256   1.745   2.734   1.214 -0.0759 -0.0827  0.0869
   86SOL    HW1  257   1.793   2.665   1.283  3.0107  0.0092 -0.0056
   86SOL    HW2  258   1.784   2.722   1.119  0.4838 -0.2461 -1.4506
   87SOL     OW  259   2.726   1.533   0.316 -0.5299  0.3498  0.1121
   87SOL    HW1  260   2.644   1.584   0.347 -0.9974 -1.8693 -0.6903
   87SOL    HW2  261   2.717   1.434   0.334 -0.4944 -0.9269  1.9018
   88SOL     OW  262   0.932   0.481   1.126  0.0332 -0.6166  0.1191
   88SOL    HW1  263   0.970   0.466   1.215 -1.5716 -1.2477 -1.6442
   88SOL    HW2  264   0.931   0.390   1.083 -0.3736 -0.1094  0.1790
   89SOL     OW  265   0.893   2.916   1.879  0.0329 -0.4720  0.3873
   89SOL    HW1  266   0.827   2.979   1.829  0.7653 -0.9417 -1.3168
   89SOL    HW2  267   0.910   2.831   1.828 -0.8728 -0.7501 -0.4401
   90SOL     OW  268   0.034   1.673   1.110  0.0389 -0.1260 -0.2051
   90SOL    HW1  269   3.086   1.620   1.052  1.1182 -2.1458  1.9911
   90SOL    HW2  270   0.030   1.775   1.091  1.1179  0.1071  0.9824
   91SOL     OW  271   1.260   1.656   1.181  0.2610 -0.7380 -0.0505
   91SOL    HW1  272   1.229   1.662   1.281 -2.0890 -0.0286  1.2381
   91SOL    HW2  273   1.316   1.571   1.162  0.1664 -0.6020  0.2306
   92SOL     OW  274   2.769   3.043   1.762  0.2688  0.5028  0.4633
   92SOL    HW1  275   2.682   3.055   1.817 -3.1006 -1.6008  0.0858
   92SOL    HW2  276   2.759   3.088   1.673 -2.3183  0.6488  2.0050
   93SOL     OW  277   0.055   1.372   2.636 -0.4979  0.1628  0.2882
   93SOL    HW1  278   3.096   1.319   2.676  0.6618 -0.9165  1.1138
   93SOL    HW2  279   0.117   1.306   2.589  0.5256 -1.4181 -0.1266
   94SOL     OW  280   2.418   2.910   1.876 -0.6690 -0.4286 -0.0750
   94SOL    HW1  281   2.349   2.875   1.941 -0.3349  0.7743 -0.6356
   94SOL    HW2  282   2.468   2.982   1.930  0.3205  0.5882  0.7412
   95SOL     OW  283   1.673   0.829   2.266 -0.4518 -0.4914  0.1253
   95SOL    HW1  284   1.633   0.852   2.356  0.0007 -4.9575 -0.3532
   95SOL    HW2  285   1.658   0.904   2.199  0.5105 -0.4026  1.4869
   96SOL     OW  286   2.695   0.846   1.632  0.5042 -0.7473  0.2077
   96SOL    HW1  287   2.774   0.792   1.666 -0.7388  0.5781  2.8905
   96SOL    HW2  288   2.699   0.947   1.643 -0.0868 -1.4041 -2.4168
   97SOL     OW  289   2.358   2.993   1.394 -0.2184 -0.0708  0.0005
   97SOL    HW1  290   2.384   2.896   1.397 -2.2306  0.1464 -0.2559
   97SOL    HW2  291   2.304   3.013   1.478 -0.8011  0.5050  2.7730
   98SOL     OW  292   2.155   2.584   1.523  0.5309  0.0079 -0.2763
   98SOL    HW1  293   2.210   2.664   1.553  2.2078 -0.2154 -0.9542
   98SOL    HW2  294   2.076   2.572   1.589 -1.3207 -0.8074 -0.6693
   99SOL     OW  295   2.812   0.268   1.647 -0.5388  0.7414  0.1267
   99SOL    HW1  296   2.746   0.326   1.700  3.0612  0.9065  2.5235
   99SOL    HW2  297   2.878   0.224   1.716  1.8164 -0.3189  1.0131
  100SOL     OW  298   2.299   1.801   2.050  0.5924  0.1000 -0.1226
  100SOL    HW1  299   2.326   1.709   2.069 -2.2740  0.1350 -0.8077
  100SOL    HW2  300   2.208   1.820   2.092  1.3596 -1.2744 -0.5350
  101SOL     OW  301   2.116   3.067   0.179 -0.0185 -0.1679  0.0199
  101SOL    HW1  302   2.190   3.026   0.234  0.2002  1.0239 -1.2231
  101SOL    HW2  303   2.108   0.052   0.184 -2.9204  0.8640  1.0019
  102SOL     OW  304   0.648   0.762   1.084  0.4887  0.1077  0.1778
  102SOL    HW1  305   0.589   0.708   1.149  0.1188  0.8564  0.0528
  102SOL    HW2  306   0.625   0.729   0.990  0.4268 -1.6574 -2.9687
  103SOL     OW  307   2.812   0.047   2.461 -0.0213 -0.0218  0.3577
  103SOL    HW1  308   2.762   0.028   2.550 -1.9914 -1.0015 -0.3509
  103SOL    HW2  309   2.865   3.080   2.438 -1.4501  1.5424  1.6629
  104SOL     OW  310   3.033   2.847   1.747  0.0637  0.4065  0.0657
  104SOL    HW1  311   3.068   2.774   1.808 -2.4964  3.3296  1.5732
  104SOL    HW2  312   2.959   2.822   1.688  2.2300  2.1030  1.4382
  105SOL     OW  313   1.316   1.002   2.132 -0.5557 -0.0974 -0.6018
  105SOL    HW1  314   1.238   1.067   2.152 -0.8842 -0.5818  1.8562
  105SOL    HW2  315   1.278   0.907   2.117  0.9255 -0.7147  1.6917
  106SOL     OW  316   2.051   0.650   0.952 -0.1650 -0.1402 -0.3678
  106SOL    HW1  317   2.038   0.723   1.018 -0.5661 -1.1292  2.1998
  106SOL    HW2  318   1.963   0.628   0.909  0.5317  1.4901  1.5680
  107SOL     OW  319   0.580   0.982   1.452  0.0637  0.6511  0.0453
  107SOL    HW1  320   0.534   0.912   1.390  0.6292  0.5414 -0.9074
  107SOL    HW2  321   0.669   0.939   1.473 -1.8969 -1.9345  0.8316
  108SOL     OW  322   3.077   0.466   2.299 -0.1491  0.0984  0.1063
  108SOL    HW1  323   3.086   0.488   2.203  0.1455  0.9453 -0.9820
  108SOL    HW2  324   3.088   0.365   2.311  2.8300 -0.5568 -1.3323
  109SOL     OW  325   1.981   3.017   3.018 -0.5951  0.1247 -0.1496
  109SOL    HW1  326   2.043   3.031   3.096  1.0979  1.4181  1.0586
  109SOL    HW2  327   1.977   3.100   2.958  1.1563 -2.0104 -2.2024
  110SOL     OW  328   2.999   1.765   2.902 -0.2808  0.1604  0.3907
  110SOL    HW1  329   2.906   1.806   2.884 -1.0449 -1.9033  0.7436
  110SOL    HW2  330   3.003   1.749   2.999  2.0098 -0.3988 -3.8683
  111SOL     OW  331   2.746   0.317   2.391 -0.8674  0.5053  0.2500
  111SOL    HW1  332   2.734   0.347   2.488 -0.8180  2.8416  0.2451
  111SOL    HW2  333   2.785   0.222   2.388  1.1147  0.6699 -0.9638
  112SOL     OW  334   2.598   2.778   0.980 -0.4996  0.0799  0.0432
  112SOL    HW1  335   2.679   2.714   0.969  0.9508 -0.5130 -1.3937
  112SOL    HW2  336   2.608   2.841   0.903 -0.7025  0.9283  0.9965
  113SOL     OW  337   2.306   2.224   2.166 -0.2602 -0.2303  0.7268
  113SOL    HW1  338   2.262   2.150   2.116  2.5465  1.1916  0.4670
  113SOL    HW2  339   2.408   2.211   2.177  1.6270 -0.1361 -0.2942
  114SOL     OW  340   2.670   0.051   0.437  0.4442 -0.5729  0.4865
  114SOL    HW1  341   2.600   3.103   0.477  1.1664  1.0426 -0.1823
  114SOL    HW2  342   2.697   0.124   0.499 -2.7029 -0.3484  0.4279
  115SOL     OW  343   2.709   1.863   3.104 -0.2758  0.1261 -0.2219
  115SOL    HW1  344   2.755   1.783   0.025  1.1177 -1.0974 -1.7600
  115SOL    HW2  345   2.701   1.854   3.003  1.1525  0.0040 -1.0919
  116SOL     OW  346   0.006   1.173   1.876 -0.6818 -0.0271  0.4997
  116SOL    HW1  347   0.108   1.180   1.867  1.1479 -1.1481 -0.8292
  116SOL    HW2  348   3.094   1.235   1.955 -1.3189 -0.5726 -1.3896
  117SOL     OW  349   2.186   0.146   0.965  0.6117 -0.4315 -0.2645
  117SOL    HW1  350   2.169   0.052   0.930  0.4999 -1.5729  1.3636
  117SOL    HW2  351   2.135   0.164   1.052 -1.2384  1.1201 -0.9895
  118SOL     OW  352   3.112   2.189   1.759 -0.0910 -0.4152 -0.7553
  118SOL    HW1  353   3.084   2.100   1.804 -1.6763 -1.0849  0.2485
  118SOL    HW2  354   0.097   2.203   1.767 -0.2130  2.0649  0.3922
  119SOL     OW  355   0.950   2.056   1.399 -0.2668 -0.3474 -0.2284
  119SOL    HW1  356   0.896   2.136   1.361  1.6164 -1.5229  0.5042
  119SOL    HW2  357   0.900   1.970   1.411  0.3089  2.5782  2.5924
  120SOL     OW  358   0.415   1.909   1.562  0.2606  0.2699 -0.4975
  120SOL    HW1  359   0.331   1.898   1.617 -1.3459 -1.2758  2.8661
  120SOL    HW2  360   0.428   1.845   1.481  2.1352 -2.5448 -1.1236
  121SOL     OW  361   1.983   1.334   1.098  0.7794  0.5417 -0.2101
  121SOL    HW1  362   1.891   1.379   1.087 -2.1802  0.5157 -0.3929
  121SOL    HW2  363   2.051   1.402   1.128  1.6528  0.3585  1.3901
  122SOL     OW  364   1.995   1.968   2.726  0.1120  0.0726 -0.0251
  122SOL    HW1  365   2.013   1.870   2.713 -0.2378  0.8407  2.0685
  122SOL    HW2  366   1.960   2.010   2.640 -1.6620  1.2316  0.8830
  123SOL     OW  367   2.895   3.008   0.357 -0.0626 -0.6706  0.0515
  123SOL    HW1  368   2.820   3.074   0.384 -0.7343  0.9385 -0.3016
  123SOL    HW2  369   2.854   2.914   0.366  0.2588 -0.9088  3.4891
  124SOL     OW  370   1.102   0.987   0.228  0.9808 -0.3942  0.2121
  124SOL    HW1  371   1.012   1.028   0.246 -1.2732  0.1331 -2.7272
  124SOL    HW2  372   1.099   0.951   0.131 -0.0010  0.7866 -1.9162
  125SOL     OW  373   0.008   1.497   2.374 -0.2733 -0.2380  0.0891
  125SOL    HW1  374   0.032   1.597   2.370 -1.0755 -0.2077 -2.5839
  125SOL    HW2  375   0.073   1.443   2.434  1.6555  0.8734 -0.3907
  126SOL     OW  376   0.062   2.611   0.467 -0.7333 -0.3509  0.3219
  126SOL    HW1  377   0.086   2.689   0.408 -0.4129  0.3765 -1.3437
  126SOL    HW2  378   0.146   2.578   0.507  0.9137  4.5929  1.2542
  127SOL     OW  379   2.996   1.574   0.391  0.0630 -0.6730  0.0202
  127SOL    HW1  380   2.903   1.558   0.352 -2.4959 -0.0180 -0.4498
  127SOL    HW2  381   3.065   1.503   0.365  1.2737  0.3694 -0.0034
  128SOL     OW  382   1.050   1.078   0.662 -0.4098 -0.1215  0.1073
  128SOL    HW1  383   1.102   1.115   0.746  1.5832  2.3688  2.5340
  128SOL    HW2  384   1.120   1.040   0.590  2.5304 -1.7638 -1.6554
  129SOL     OW  385   1.988   2.043   1.425 -0.5046 -0.5137  0.0323
  129SOL    HW1  386   2.042   2.093   1.497  0.6964  1.1799 -1.1269
  129SOL    HW2  387   1.889   2.059   1.432  1.0967 -0.7843  1.6243
  130SOL     OW  388   2.069   1.048   0.707 -0.5259 -0.0923 -0.1995
  130SOL    HW1  389   1.977   1.057   0.666  1.6516  0.1231  0.0220
  130SOL    HW2  390   2.071   1.077   0.807  0.0976 -0.6969  0.7128
  131SOL     OW  391   2.873   0.949   2.763 -0.0409 -0.4535  0.3669
  131SOL    HW1  392   2.864   0.950   2.863 -1.6750  2.2183 -2.6573
  131SOL    HW2  393   2.792   0.994   2.727  0.7912 -0.5200  2.9738
  132SOL     OW  394   1.611   1.316   2.401  0.7551  0.1101  0.0822
  132SOL    HW1  395   1.662   1.246   2.448 -2.8409  3.0382 -0.3582
  132SOL    HW2  396   1.670   1.373   2.346  0.7355 -0.6161  1.2125
  133SOL     OW  397   3.054   1.118   0.023  0.0879 -0.2567  0.0865
  133SOL    HW1  398   0.004   1.163   3.080 -1.3343  0.4798 -0.2290
  133SOL    HW2  399   3.016   1.183   0.093  0.1780  1.2452 -0.3121
  134SOL     OW  400   2.610   0.803   0.497  0.5451 -0.5592 -0.5031
  134SOL    HW1  401   2.596   0.860   0.580  0.3891 -0.2049 -1.7295
  134SOL    HW2  402   2.689   0.741   0.503 -2.7565  0.9297  0.3418
  135SOL     OW  403   2.001   0.920   3.013  0.1841  0.1385  0.2589
  135SOL    HW1  404   2.013   0.820   3.012 -1.0308  0.7060 -0.8625
  135SOL    HW2  405   1.962   0.937   3.106  2.4030 -0.1617  0.5271
  136SOL     OW  406   1.839   2.067   1.733 -0.5387 -0.3712 -0.5650
  136SOL    HW1  407   1.823   1.967   1.741  1.1420 -0.7467  0.1855
  136SOL    HW2  408   1.809   2.115   1.816  0.6830 -0.6109 -2.2200
  137SOL     OW  409   2.191   2.607   0.667  0.2115  0.1889  0.1705
  137SOL    HW1  410   2.203   2.518   0.715 -0.0491  0.5836  0.0479
  137SOL    HW2  411   2.238   2.606   0.578  1.6450  0.7026  0.7920
  138SOL     OW  412   2.247   0.387   1.541  0.3279  0.6401 -0.2112
  138SOL    HW1  413   2.186   0.309   1.558 -1.7311 -0.7401  1.0870
  138SOL    HW2  414   2.287   0.433   1.621  0.4140 -1.2834  0.2874
  139SOL     OW  415   2.700   0.029   2.734 -0.2256 -0.5930  0.0560
  139SOL    HW1  416   2.599   0.013   2.742 -1.8081  1.9674  0.5409
  139SOL    HW2  417   2.733   0.116   2.779 -2.0548 -2.9518  0.1160
  140SOL     OW  418   1.212   1.863   2.186 -0.3529  0.2135  0.0044
  140SOL    HW1  419   1.217   1.769   2.226  1.6989  0.9548  1.2624
  140SOL    HW2  420   1.262   1.872   2.099 -0.6272  1.3883 -0.3669
  141SOL     OW  421   0.765   0.558   2.371  0.4468  0.2810 -0.7059
  141SOL    HW1  422   0.713   0.599   2.297  1.8161 -1.0712  1.2236
  141SOL    HW2  423   0.852   0.607   2.377  1.2685 -1.4189  0.7145
  142SOL     OW  424   2.767   2.497   2.915 -0.1678 -0.3466  0.5479
  142SOL    HW1  425   2.777   2.521   3.014  1.9512  0.1257 -0.8968
  142SOL    HW2  426   2.821   2.556   2.848 -1.4601  3.2531 -1.1451
  143SOL     OW  427   0.844   2.035   0.288  0.0965  0.3457 -0.6558
  143SOL    HW1  428   0.794   2.128   0.282  0.6396 -1.4630  1.1094
  143SOL    HW2  429   0.932   2.041   0.337  0.0949 -0.9467  0.4314
  144SOL     OW  430   1.524   2.577   0.050  0.2106 -0.5122  0.4025
  144SOL    HW1  431   1.445   2.540   3.108 -1.0478 -1.9818  2.2246
  144SOL    HW2  432   1.485   2.621   0.134  0.8503  1.0844  1.5496
  145SOL     OW  433   1.522   1.987   2.689  0.6374 -0.1920 -0.0051
  145SOL    HW1  434   1.591   2.043   2.741  0.3973  0.8098 -1.3423
  145SOL    HW2  435   1.563   1.929   2.610  3.2690 -1.7721 -3.3108
  146SOL     OW  436   2.852   2.948   2.823 -0.0060 -0.4694  0.5049
  146SOL    HW1  437   2.836   2.953   2.925 -1.3692 -0.5204  1.0493
  146SOL    HW2  438   2.785   3.006   2.775 -0.8555  0.0533 -1.7547
  147SOL     OW  439   2.894   1.099   0.974 -1.1169 -0.3029  0.8229
  147SOL    HW1  440   2.873   1.143   1.063 -1.8031  0.0179 -1.1915
  147SOL    HW2  441   2.924   1.168   0.899  1.1839 -1.0607  1.3347
  148SOL     OW  442   2.196   2.718   0.167  0.0843 -0.2951 -0.4122
  148SOL    HW1  443   2.118   2.733   0.238  0.0986  0.0266  1.4781
  148SOL    HW2  444   2.176   2.766   0.080 -2.2453 -1.3142  0.2995
  149SOL     OW  445   0.471   1.828   2.744  0.5478 -0.0788  0.2342
  149SOL    HW1  446   0.555   1.794   2.788  0.5851 -2.2741 -1.3368
  149SOL    HW2  447   0.402   1.877   2.807 -2.4090  0.2349  0.3260
  150SOL     OW  448   0.299   2.471   0.566 -0.3873  0.0669  0.3767
  150SOL    HW1  449   0.375   2.471   0.496 -1.0031  0.8999  2.1477
  150SOL    HW2  450   0.295   2.376   0.605 -0.0676  2.9374 -3.0357
  151SOL     OW  451   0.431   1.091   0.332  0.4126 -0.1093  0.0121
  151SOL    HW1  452   0.394   0.997   0.318  2.8980  3.2305 -1.3545
  151SOL    HW2  453   0.427   1.116   0.429 -0.4756  1.5511 -0.1301
  152SOL     OW  454   2.671   1.809   0.495  0.0118 -0.5250 -0.1592
  152SOL    HW1  455   2.739   1.847   0.434 -2.4812 -1.3889  3.0466
  152SOL    HW2  456   2.590   1.779   0.437  0.1771  0.9751  0.3496
  153SOL     OW  457   1.797   2.364   0.661  0.4024  0.5591  0.2078
  153SOL    HW1  458   1.881   2.304   0.673 -0.8919  1.4132  3.2314
  153SOL    HW2  459   1.779   2.369   0.562 -1.9730  0.4679  4.3480
  154SOL     OW  460   1.072   2.600   0.970 -0.2560 -0.2886  0.0843
  154SOL    HW1  461   1.048   2.612   0.873  1.2303 -1.1925  0.0154
  154SOL    HW2  462   0.986   2.575   1.021 -0.1537 -0.8691 -1.1022
  155SOL     OW  463   3.007   1.624   0.709 -0.0476 -0.2306 -0.1206
  155SOL    HW1  464   2.917   1.616   0.665 -0.9472 -2.5538  0.5055
  155SOL    HW2  465   3.081   1.609   0.643 -2.2836 -0.2389  1.3950
  156SOL     OW  466   2.616   2.298   0.067  0.3453  0.1469 -0.1250
  156SOL    HW1  467   2.521   2.283   0.033  2.2649 -1.0509  0.0041
  156SOL    HW2  468   2.656   2.387   0.034  1.8067  0.6497 -1.1320
  157SOL     OW  469   0.561   2.340   1.347 -0.1027  0.1226  0.0402
  157SOL    HW1  470   0.641   2.277   1.344  1.0876  1.0370 -1.1820
  157SOL    HW2  471   0.474   2.286   1.323 -1.6898 -2.3160  0.4981
  158SOL     OW  472   1.502   0.454   0.165 -0.1719 -0.0503 -0.1233
  158SOL    HW1  473   1.503   0.482   0.268 -1.2633  1.6013  1.6486
  158SOL    HW2  474   1.589   0.407   0.142 -1.6198  0.4128 -0.7997
  159SOL     OW  475   1.351   0.716   0.392  0.4629 -0.1487 -0.3259
  159SOL    HW1  476   1.412   0.635   0.405 -1.5568  2.3336  1.3857
  159SOL    HW2  477   1.261   0.705   0.349  2.3474  1.1144  2.0573
  160SOL     OW  478   0.672   1.448   0.763 -0.1637  0.0844  0.0213
  160SOL    HW1  479   0.695   1.352   0.792  1.2588 -0.1403 -0.5732
  160SOL    HW2  480   0.725   1.512   0.822  0.3680 -0.4978 -4.0196
  161SOL     OW  481   0.121   2.397   2.603 -0.0516  0.1163 -0.0803
  161SOL    HW1  482   0.080   2.380   2.695 -1.9310  0.6716 -1.6195
  161SOL    HW2  483   0.221   2.386   2.609  0.6409 -0.2258 -0.9464
  162SOL     OW  484   0.139   2.406   1.143  0.4466  0.1477 -0.3226
  162SOL    HW1  485   0.071   2.332   1.124  0.3080 -0.9251 -1.6146
  162SOL    HW2  486   0.126   2.483   1.076 -1.1248 -0.2545  0.4584
  163SOL     OW  487   0.067   0.288   2.758  0.7888 -0.1025 -0.3841
  163SOL    HW1  488   0.058   0.385   2.727 -0.5315 -0.0330  0.6806
  163SOL    HW2  489   0.026   0.276   2.849 -2.7831  1.0866  2.9099
  164SOL     OW  490   0.556   3.023   2.425  0.3455  0.1620  0.2101
  164SOL    HW1  491   0.476   3.038   2.487 -1.4702 -1.5848 -0.1519
  164SOL    HW2  492   0.582   2.925   2.435  1.6853  0.0251 -0.8871
  165SOL     OW  493   2.349   0.525   1.739 -0.5520  0.3624  0.4336
  165SOL    HW1  494   2.287   0.505   1.816 -0.1449 -3.2437 -2.0149
  165SOL    HW2  495   2.407   0.609   1.759 -0.4640 -1.7645  0.5195
  166SOL     OW  496   2.102   2.141   1.667  0.0917 -0.4711  0.5211
  166SOL    HW1  497   2.172   2.121   1.739  2.0419  0.4107  0.5271
  166SOL    HW2  498   2.007   2.120   1.699  0.5691  2.2638 -2.1185
  167SOL     OW  499   0.724   1.065   2.341 -0.4123 -0.4284 -0.2987
  167SOL    HW1  500   0.714   1.164   2.331 -0.5541 -2.7448  1.2804
  167SOL    HW2  501   0.776   1.037   2.422 -1.0629  1.6352 -0.9871
  168SOL     OW  502   2.404   0.012   2.268 -0.3848 -0.0242 -0.3314
  168SOL    HW1  503   2.442   0.110   2.262  1.9841  1.1477  0.4718
  168SOL    HW2  504   2.307   0.012   2.260  0.6243  1.9138  0.9231
  169SOL     OW  505   0.266   0.886   0.254 -0.3615  0.0090 -0.2559
  169SOL    HW1  506   0.310   0.795   0.221  0.5886 -1.1581  0.8209
  169SOL    HW2  507   0.171   0.894   0.218 -1.7334  2.3708  0.1141
  170SOL     OW  508   0.258   1.264   1.816  0.4713  0.2354  0.3467
  170SOL    HW1  509   0.210   1.303   1.736  2.0910  1.1134  0.6608
  170SOL    HW2  510   0.286   1.337   1.879 -0.7472  0.3780 -0.1467
  171SOL     OW  511   1.199   2.263   1.915 -0.0943  0.2780 -0.5834
  171SOL    HW1  512   1.136   2.239   1.841  0.8948 -0.7909 -1.9361
  171SOL    HW2  513   1.234   2.355   1.896  0.5426  1.1349  0.3098
  172SOL     OW  514   1.285   2.685   2.209  0.1502  0.0335  0.1050
  172SOL    HW1  515   1.196   2.687   2.151 -1.9044  0.8966  0.5241
  172SOL    HW2  516   1.367   2.692   2.150 -1.5644 -0.6023 -0.7201
  173SOL     OW  517   1.370   2.385   0.651  0.5118 -0.4520 -0.0608
  173SOL    HW1  518   1.383   2.291   0.696  0.5300 -3.4324 -0.1229
  173SOL    HW2  519   1.416   2.456   0.707 -0.5627  1.8576  0.9821
  174SOL     OW  520   2.432   3.047   0.288 -0.3151  0.3486  0.0716
  174SOL    HW1  521   2.468   3.002   0.371 -3.3779 -0.1479 -3.3063
  174SOL    HW2  522   2.441   0.029   0.278 -1.0722 -1.6525 -0.4200
  175SOL     OW  523   0.924   1.519   0.471 -0.8722 -0.0238  0.0472
  175SOL    HW1  524   0.825   1.531   0.479  1.9190 -1.3758  0.1353
  175SOL    HW2  525   0.951   1.418   0.475 -0.3538 -0.9870  0.4160
  176SOL     OW  526   0.485   1.719   0.514 -0.2036  0.4088 -0.0066
  176SOL    HW1  527   0.552   1.788   0.486  1.5081 -0.0637 -1.7089
  176SOL    HW2  528   0.390   1.760   0.510 -1.7390  0.0741  2.0442
  177SOL     OW  529   1.224   1.243   1.594 -0.1578 -0.0852 -0.2794
  177SOL    HW1  530   1.162   1.295   1.658 -2.2773  3.8368  0.6913
  177SOL    HW2  531   1.317   1.224   1.635  4.3548 -0.4333  1.7990
  178SOL     OW  532   2.467   1.667   0.359 -0.1643 -0.5038  0.4015
  178SOL    HW1  533   2.393   1.721   0.403  2.1441  0.3934  1.7147
  178SOL    HW2  534   2.429   1.575   0.329 -1.0665  1.1555 -0.0276
  179SOL     OW  535   1.338   2.434   3.043  0.8956 -0.3271 -0.2178
  179SOL    HW1  536   1.347   2.370   2.964 -1.7689  0.8413  0.0828
  179SOL    HW2  537   1.260   2.403   3.097 -1.7650  4.2456 -0.0138
  180SOL     OW  538   1.977   1.539   2.106  0.3940 -0.1750 -0.3833
  180SOL    HW1  539   2.006   1.622   2.157 -2.3855  1.2100 -0.0445
  180SOL    HW2  540   2.063   1.484   2.084 -0.0954  0.2388  0.2722
  181SOL     OW  541   0.807   0.901   2.547  0.2055 -0.0775 -0.5411
  181SOL    HW1  542   0.850   0.837   2.478  2.7260 -1.0773  0.3022
  181SOL    HW2  543   0.846   0.892   2.640 -2.3314 -1.1641  1.1100
  182SOL     OW  544   2.906   1.093   2.480  0.1556 -0.7181  0.0583
  182SOL    HW1  545   2.814   1.074   2.525 -0.8725 -1.1027 -0.1645
  182SOL    HW2  546   2.985   1.072   2.544  1.0369 -0.1530 -1.1052
  183SOL     OW  547   1.393   0.859   2.362 -0.2627  0.4416  0.1578
  183SOL    HW1  548   1.346   0.774   2.339  2.0675  2.6494 -1.6390
  183SOL    HW2  549   1.390   0.920   2.282  0.5247 -1.2802  1.6973
  184SOL     OW  550   0.407   0.555   1.725  0.7248  0.4154  0.1704
  184SOL    HW1  551   0.506   0.584   1.719 -1.5211  0.1583  0.4691
  184SOL    HW2  552   0.340   0.628   1.757 -2.9376 -0.8066  0.1702
  185SOL     OW  553   1.944   1.787   0.735  0.4827 -0.1307 -0.2604
  185SOL    HW1  554   2.007   1.851   0.694  0.1198  0.4232 -2.2001
  185SOL    HW2  555   1.984   1.743   0.818  0.2714  1.0612 -0.5509
  186SOL     OW  556   0.193   1.990   0.238  0.1755 -0.1541  0.1952
  186SOL    HW1  557   0.272   1.943   0.203 -0.5796  2.9760  1.4473
  186SOL    HW2  558   0.128   1.933   0.296 -0.6669 -0.1854  0.7551
  187SOL     OW  559   2.023   1.976   0.229 -0.1852 -0.1611  0.3020
  187SOL    HW1  560   2.123   1.982   0.256 -1.5446  1.8193 -0.1301
  187SOL    HW2  561   2.010   2.050   0.152  2.0093  1.4408 -2.1200
  188SOL     OW  562   0.974   2.196   0.961  0.0428 -0.3075 -0.0035
  188SOL    HW1  563   1.027   2.131   1.021 -2.6352  0.1917 -2.6552
  188SOL    HW2  564   0.974   2.292   0.997 -1.2052 -0.2528 -0.9911
  189SOL     OW  565   1.854   1.263   2.712 -0.1183  0.2126 -0.6043
  189SOL    HW1  566   1.894   1.240   2.807  0.2466  1.1981  1.6299
  189SOL    HW2  567   1.774   1.322   2.721  1.4643 -0.1158 -2.0525
  190SOL     OW  568   1.126   2.261   2.222  0.7017  0.4126  0.7979
  190SOL    HW1  569   1.027   2.242   2.248  0.5966  2.5937 -2.3562
  190SOL    HW2  570   1.131   2.302   2.128 -0.5035  2.4997  1.2160
  191SOL     OW  571   2.457   0.876   1.502 -0.0549  0.6438  0.0542
  191SOL    HW1  572   2.418   0.839   1.589  0.1132  2.4620 -2.1929
  191SOL    HW2  573   2.556   0.861   1.492 -1.8918  0.2595  0.2995
  192SOL     OW  574   2.635   0.424   1.797 -0.2053  0.2159  0.7338
  192SOL    HW1  575   2.555   0.469   1.758  1.9052 -1.1654  0.5430
  192SOL    HW2  576   2.685   0.483   1.864  0.1304 -1.5331 -2.0668
  193SOL     OW  577   0.644   0.059   0.540  0.2652  0.5068 -0.0213
  193SOL    HW1  578   0.734   0.107   0.525  1.1116  2.0203  1.7642
  193SOL    HW2  579   0.628   3.092   0.483 -0.7787 -3.7368  1.2833
  194SOL     OW  580   1.335   2.499   1.836 -0.0486 -0.1853  0.0791
  194SOL    HW1  581   1.351   2.450   1.749 -0.9576  0.6619 -0.7914
  194SOL    HW2  582   1.304   2.592   1.818  1.9371 -2.4471  0.0688
  195SOL     OW  583   2.553   1.001   0.714  0.1379 -0.4775 -0.4431
  195SOL    HW1  584   2.552   1.103   0.731  1.4934 -2.2439 -2.7161
  195SOL    HW2  585   2.468   0.986   0.659 -1.5894  0.3371  0.4810
  196SOL     OW  586   0.998   2.224   1.760 -0.4584 -0.5374  0.3695
  196SOL    HW1  587   0.976   2.295   1.694 -1.8486 -0.9851  1.8421
  196SOL    HW2  588   0.913   2.188   1.803  0.1369 -1.9407  1.0588
  197SOL     OW  589   0.312   0.668   2.523  0.0313  0.0810  0.6494
  197SOL    HW1  590   0.260   0.745   2.478 -0.5927  1.4903  0.3237
  197SOL    HW2  591   0.316   0.590   2.456 -0.7076  0.5646  2.8963
  198SOL     OW  592   1.436   0.878   0.188  0.2193  0.1384  0.3630
  198SOL    HW1  593   1.382   0.840   0.267  0.5410  1.0500 -1.7392
  198SOL    HW2  594   1.432   0.978   0.178 -0.1110 -3.0203 -0.7727
  199SOL     OW  595   2.765   0.561   1.976  0.3479  0.0850 -0.2765
  199SOL    HW1  596   2.773   0.540   2.078 -0.7243 -0.7848  1.5778
  199SOL    HW2  597   2.725   0.657   1.971  3.0460  2.5876 -3.1468
  200SOL     OW  598   2.419   2.467   2.380 -0.3115  0.0686 -0.5966
  200SOL    HW1  599   2.391   2.565   2.388  0.2437  1.9377 -2.6610
  200SOL    HW2  600   2.354   2.402   2.425  1.5165 -2.9646 -1.3998
  201SOL     OW  601   2.526   0.076   1.284  0.4815 -0.3618 -0.1683
  201SOL    HW1  602   2.468   0.004   1.321  0.8600  0.0363  1.7711
  201SOL    HW2  603   2.480   0.129   1.206 -0.8915 -2.1457 -0.4814
  202SOL     OW  604   0.153   2.814   0.337  0.6569  0.6979 -0.7316
  202SOL    HW1  605   0.091   2.892   0.320  0.0127 -2.0673  0.4942
  202SOL    HW2  606   0.241   2.851   0.370 -0.5217 -1.2016  0.1850
  203SOL     OW  607   1.065   2.243   2.724  0.0582  0.1967  0.3280
  203SOL    HW1  608   0.968   2.260   2.717  1.9533  2.3623 -0.9003
  203SOL    HW2  609   1.097   2.176   2.653  0.5445 -1.3073 -3.0787
  204SOL     OW  610   0.501   1.962   2.507  0.4838  0.7903  0.2342
  204SOL    HW1  611   0.592   2.010   2.508  1.9154  4.3087  0.0340
  204SOL    HW2  612   0.492   1.908   2.597 -1.8391  0.0563  1.8174
  205SOL     OW  613   1.030   1.098   1.293  0.0526 -0.5896 -0.3643
  205SOL    HW1  614   0.976   1.016   1.276 -1.5346 -0.7917 -1.7788
  205SOL    HW2  615   1.117   1.081   1.343 -0.2800  1.4082 -0.4913
  206SOL     OW  616   0.095   0.568   2.705  0.0040 -0.2560  0.3572
  206SOL    HW1  617   0.023   0.637   2.689 -0.9241 -0.4956 -3.0975
  206SOL    HW2  618   0.180   0.600   2.656  0.8392 -0.1640 -0.5945
  207SOL     OW  619   1.827   2.262   1.926  0.4081 -0.0443  0.2840
  207SOL    HW1  620   1.886   2.339   1.959  1.6455 -0.3273 -0.0156
  207SOL    HW2  621   1.741   2.282   1.878  1.5397  0.7417  1.6908
  208SOL     OW  622   0.734   2.842   1.296  0.2491  0.5369  0.3127
  208SOL    HW1  623   0.687   2.765   1.246 -0.1233 -3.1563 -0.8453
  208SOL    HW2  624   0.678   2.863   1.375 -0.1790 -0.2473 -1.3479
  209SOL     OW  625   1.312   1.441   0.150 -0.0036 -0.1357 -0.2560
  209SOL    HW1  626   1.263   1.519   0.192 -0.8563 -0.2481 -1.0204
  209SOL    HW2  627   1.408   1.468   0.126  2.4685  0.5901  0.2955
  210SOL     OW  628   2.460   0.592   0.802 -0.1931 -0.0562 -0.1391
  210SOL    HW1  629   2.479   0.578   0.699 -0.0373  0.6981 -2.3286
  210SOL    HW2  630   2.370   0.555   0.816 -1.3400  4.0322 -1.6050
  211SOL     OW  631   1.400   2.696   0.301  0.3944 -0.0725 -0.6776
  211SOL    HW1  632   1.305   2.742   0.297 -0.5940 -0.4298 -0.3320
  211SOL    HW2  633   1.469   2.768   0.300 -1.9721  0.6123  1.9417
  212SOL     OW  634   2.021   2.205   0.742 -0.6596 -0.3235 -0.3316
  212SOL    HW1  635   2.115   2.241   0.760 -0.0027 -0.9174 -0.5059
  212SOL    HW2  636   1.985   2.163   0.829 -1.3754  0.7962  2.6734
  213SOL     OW  637   1.782   0.459   2.895 -0.6615  0.5925 -0.2547
  213SOL    HW1  638   1.773   0.373   2.948 -0.8192 -0.6010  2.4451
  213SOL    HW2  639   1.884   0.478   2.879  1.3100  2.4843 -1.9077
  214SOL     OW  640   0.741   1.602   1.858 -0.4150  0.2270 -0.0488
  214SOL    HW1  641   0.806   1.665   1.907  1.5629  2.9263  2.0720
  214SOL    HW2  642   0.737   1.614   1.756 -2.1972  0.5708 -2.6149
  215SOL     OW  643   0.056   1.377   0.317  0.0384  0.2964 -0.0624
  215SOL    HW1  644   0.146   1.415   0.338  1.0239 -0.6084 -3.4639
  215SOL    HW2  645   0.044   1.312   0.398 -0.5463  0.5096 -3.2160
  216SOL     OW  646   0.284   2.869   2.415 -0.4372  0.0586 -0.6568
  216SOL    HW1  647   0.327   2.911   2.497 -0.3227  0.7161 -0.6449
  216SOL    HW2  648   0.202   2.813   2.450 -4.3753  0.1576  0.1850
  217SOL     OW  649   2.759   1.044   1.366 -0.0542 -0.2259 -0.4319
  217SOL    HW1  650   2.739   0.962   1.302  0.9375 -2.3981  0.2424
  217SOL    HW2  651   2.857   1.070   1.357 -1.7053 -0.0253  1.9031
  218SOL     OW  652   1.078   2.048   2.026  0.2787 -0.1686 -0.2461
  218SOL    HW1  653   1.143   2.125   2.009 -0.1250  1.2626  2.2933
  218SOL    HW2  654   1.108   1.998   2.110  0.6129  0.4579 -0.8289
  219SOL     OW  655   2.099   1.397   0.216 -0.0140  0.3549  0.2975
  219SOL    HW1  656   2.093   1.391   0.114 -1.5345 -0.3844  1.0510
  219SOL    HW2  657   2.058   1.311   0.260 -1.4385 -2.2145  0.5415
  220SOL     OW  658   2.058   0.949   0.288 -0.2191 -0.3147  0.0292
  220SOL    HW1  659   2.150   0.984   0.260 -2.7349  2.5639 -2.1885
  220SOL    HW2  660   2.065   0.865   0.347  0.5658  0.4898 -0.2778
  221SOL     OW  661   0.035   0.483   0.274 -0.5845 -0.1026  0.3166
  221SOL    HW1  662   0.114   0.417   0.247  3.0570 -4.1797 -0.7725
  221SOL    HW2  663   0.002   0.519   0.189  1.7953  0.7479  0.7718
  222SOL     OW  664   1.369   1.358   0.663  0.2253 -0.5850 -0.6618
  222SOL    HW1  665   1.367   1.458   0.648  2.2491  1.8294 -0.0363
  222SOL    HW2  666   1.315   1.344   0.750  1.3600 -1.4004  1.2522
  223SOL     OW  667   0.919   0.304   3.060  0.0155 -0.4175  0.0515
  223SOL    HW1  668   0.878   0.212   3.080  1.1174  2.2568  3.3205
  223SOL    HW2  669   0.957   0.310   2.962  2.1892 -0.3390 -1.8722
  224SOL     OW  670   1.673   0.250   1.367  0.0046  0.2754 -0.1129
  224SOL    HW1  671   1.633   0.287   1.458  1.4790 -0.5783  0.4540
  224SOL    HW2  672   1.612   0.184   1.315 -4.8345 -1.2374 -3.4458
  225SOL     OW  673   0.202   2.528   1.368  0.0972 -0.1517 -0.0393
  225SOL    HW1  674   0.185   2.480   1.278  1.4849  0.4340 -1.5897
  225SOL    HW2  675   0.146   2.487   1.440  0.4513 -1.0143  0.4184
  226SOL     OW  676   0.795   1.549   0.185  0.1694  0.1438 -0.2745
  226SOL    HW1  677   0.868   1.477   0.194  1.4876 -0.4946  1.1094
  226SOL    HW2  678   0.837   1.641   0.185  0.2722 -2.4121 -1.0241
  227SOL     OW  679   0.793   1.613   0.941 -0.2160 -0.1089 -0.5156
  227SOL    HW1  680   0.737   1.696   0.943  2.7465  0.2317 -1.6496
  227SOL    HW2  681   0.775   1.555   1.023 -0.0984 -0.8057  0.8467
  228SOL     OW  682   0.195   1.690   0.524  0.0968 -0.1093  0.1332
  228SOL    HW1  683   0.159   1.748   0.451  1.1318 -0.4549  0.1640
  228SOL    HW2  684   0.242   1.611   0.490  0.0654  3.6574  1.5152
  229SOL     OW  685   2.468   0.256   2.787  0.0043  0.3135  0.2762
  229SOL    HW1  686   2.401   0.202   2.731 -2.7832 -2.2609 -0.2932
  229SOL    HW2  687   2.467   0.220   2.883  2.2254 -0.8114  0.7463
  230SOL     OW  688   1.816   1.058   0.620  0.0073  0.3856 -0.4874
  230SOL    HW1  689   1.749   1.130   0.651  0.1417  0.0038 -3.2108
  230SOL    HW2  690   1.768   0.963   0.601  1.1353 -1.0066 -0.9745
  231SOL     OW  691   1.269   1.451   2.523 -0.1331  0.5760 -0.3509
  231SOL    HW1  692   1.351   1.508   2.551  0.0562  0.7370 -2.1539
  231SOL    HW2  693   1.294   1.352   2.513 -1.9950 -2.4420 -1.4782
  232SOL     OW  694   2.403   2.167   0.699  0.4464  0.3026  0.0158
  232SOL    HW1  695   2.503   2.155   0.687  1.1267  1.8368 -1.9974
  232SOL    HW2  696   2.370   2.087   0.761 -0.5806 -1.4197 -0.4913
  233SOL     OW  697   0.677   2.480   0.799 -0.2287  0.1491 -0.1876
  233SOL    HW1  698   0.737   2.465   0.721 -4.1066  2.8648  1.9186
  233SOL    HW2  699   0.621   2.562   0.786  2.1460 -0.2544 -0.0432
  234SOL     OW  700   0.559   0.582   2.789  0.0857 -0.3048  0.0792
  234SOL    HW1  701   0.545   0.639   2.705  1.5281 -1.3652 -0.3426
  234SOL    HW2  702   0.558   0.635   2.877  2.6625 -3.1599 -2.2057
  235SOL     OW  703   2.775   0.541   2.244  0.0858 -0.1846 -0.3798
  235SOL    HW1  704   2.751   0.460   2.304 -0.5531 -3.2540  3.7388
  235SOL    HW2  705   2.828   0.610   2.301 -2.9800  0.1509  1.1824
  236SOL     OW  706   1.644   2.878   1.416 -0.1151  0.0010 -0.3095
  236SOL    HW1  707   1.674   2.840   1.324  1.7318 -1.2470  2.2513
  236SOL    HW2  708   1.608   2.805   1.475  1.5459 -0.5325 -2.4727
  237SOL     OW  709   0.829   1.767   2.239 -0.0388 -0.2563  0.3257
  237SOL    HW1  710   0.733   1.801   2.233 -1.2920  0.5040 -0.7666
  237SOL    HW2  711   0.844   1.712   2.322 -0.9832  0.5702 -1.8287
  238SOL     OW  712   1.034   0.221   2.247 -0.0730 -0.1080 -0.6954
  238SOL    HW1  713   1.064   0.224   2.344 -2.4930 -0.4820 -2.3279
  238SOL    HW2  714   0.944   0.174   2.233  1.3246 -2.5764  2.0154
  239SOL     OW  715   0.447   2.254   2.158  0.3522 -0.1395  0.5047
  239SOL    HW1  716   0.521   2.294   2.092  3.8402 -0.3093 -3.7411
  239SOL    HW2  717   0.361   2.309   2.150  0.1275 -0.0704  0.8841
  240SOL     OW  718   2.516   2.695   0.502 -0.4106  0.5969  0.2278
  240SOL    HW1  719   2.564   2.615   0.538 -2.2354  0.3399 -1.7029
  240SOL    HW2  720   2.419   2.671   0.487 -0.6443 -2.7085  2.1880
  241SOL     OW  721   2.508   1.291   0.795  0.2267 -0.0658 -0.0598
  241SOL    HW1  722   2.417   1.272   0.837 -2.2814 -0.5621  2.9012
  241SOL    HW2  723   2.549   1.366   0.849 -0.4020 -0.7400  1.9951
  242SOL     OW  724   2.006   2.493   1.976  0.5519 -0.8337 -0.1059
  242SOL    HW1  725   2.101   2.464   1.992 -0.0587  0.6355 -0.8603
  242SOL    HW2  726   2.002   2.592   1.998 -1.4774  0.5972  1.1013
  243SOL     OW  727   0.857   2.927   1.538 -0.3334 -0.1724 -0.0876
  243SOL    HW1  728   0.824   2.907   1.443 -4.4500 -0.5278 -0.4789
  243SOL    HW2  729   0.878   3.027   1.566  2.8808  3.4779  1.5809
  244SOL     OW  730   2.038   0.488   2.803  0.2528 -0.1549 -0.0715
  244SOL    HW1  731   1.987   0.471   2.712 -1.8947 -1.2370 -0.4418
  244SOL    HW2  732   2.140   0.484   2.787 -0.5949 -1.5374  0.7036
  245SOL     OW  733   1.537   0.615   1.178 -0.1169  0.6683 -0.4822
  245SOL    HW1  734   1.555   0.670   1.095 -1.9996  0.0214  1.6158
  245SOL    HW2  735   1.463   0.543   1.160  0.0475 -2.3841 -0.4690
  246SOL     OW  736   1.980   2.542   0.001  0.4299 -0.0369 -0.5275
  246SOL    HW1  737   2.028   2.627   3.095 -0.4042  0.6692 -0.0129
  246SOL    HW2  738   1.890   2.547   3.071  0.8773 -1.3900 -0.4141
  247SOL     OW  739   1.153   0.926   2.456 -0.1743 -0.1668  0.5147
  247SOL    HW1  740   1.247   0.903   2.428  0.9656 -0.0037  0.6007
  247SOL    HW2  741   1.156   0.978   2.545  1.7343 -1.8700 -2.8875
  248SOL     OW  742   0.245   2.265   1.798 -0.3373 -0.0943 -0.3564
  248SOL    HW1  743   0.318   2.194   1.814  0.9993 -0.7017  1.6418
  248SOL    HW2  744   0.269   2.319   1.717 -0.5391 -0.2698 -4.6871
  249SOL     OW  745   2.654   0.359   0.301 -0.6981  0.2120 -0.3272
  249SOL    HW1  746   2.645   0.457   0.273  0.6463  0.8219  1.7587
  249SOL    HW2  747   2.583   0.298   0.263  0.5752 -0.4176 -2.2503
  250SOL     OW  748   2.807   0.201   2.900  0.0718  0.2565  0.2094
  250SOL    HW1  749   2.816   0.285   2.954 -1.3602  1.9407  1.0025
  250SOL    HW2  750   2.881   0.135   2.932  0.7215  0.1553 -0.8893
  251SOL     OW  751   1.411   0.779   3.053  0.1530  0.5357  0.1808
  251SOL    HW1  752   1.419   0.809   0.033  0.2625 -1.1488 -1.6046
  251SOL    HW2  753   1.486   0.714   3.030 -1.7483  0.0883  0.2917
  252SOL     OW  754   1.480   2.142   1.953 -0.5978  0.0395  0.5829
  252SOL    HW1  755   1.391   2.190   1.940 -1.7581 -1.7893 -1.7096
  252SOL    HW2  756   1.501   2.146   2.051  0.0154 -0.8352  0.6690
  253SOL     OW  757   2.290   2.483   1.023 -0.1675 -0.0953  0.0820
  253SOL    HW1  758   2.280   2.585   1.023  0.8955  1.9731 -1.5485
  253SOL    HW2  759   2.309   2.439   1.112 -2.1919  2.0155 -3.6828
  254SOL     OW  760   2.055   1.355   0.608 -0.5208  0.5386 -0.0822
  254SOL    HW1  761   2.050   1.291   0.525 -0.7277 -1.5833 -1.4891
  254SOL    HW2  762   2.068   1.290   0.689  1.3001  1.3286  1.2013
  255SOL     OW  763   1.564   0.034   1.202 -0.0321  0.9430  0.4233
  255SOL    HW1  764   1.510   3.088   1.134 -0.8752 -1.4156 -1.7499
  255SOL    HW2  765   1.545   0.006   1.298  0.3930  2.3538 -1.2328
  256SOL     OW  766   1.709   2.535   1.662 -0.2537  0.0673  0.6137
  256SOL    HW1  767   1.674   2.445   1.684  2.1885  1.2281 -2.3186
  256SOL    HW2  768   1.647   2.619   1.665 -2.1427  1.6058 -0.5080
  257SOL     OW  769   0.625   2.765   2.524 -0.1585 -0.5105 -0.0805
  257SOL    HW1  770   0.695   2.744   2.454 -0.1071  1.8423  0.0997
  257SOL    HW2  771   0.661   2.809   2.607 -1.0970  0.9713 -2.4099
  258SOL     OW  772   1.009   2.559   0.420  0.3636 -0.3453  0.3910
  258SOL    HW1  773   0.955   2.552   0.332 -1.1386  0.9381  0.4704
  258SOL    HW2  774   1.093   2.503   0.411 -0.0493 -0.7899 -0.3381
  259SOL     OW  775   1.616   0.201   2.757  0.1788  0.8333  0.3720
  259SOL    HW1  776   1.653   0.196   2.851  1.8898 -3.2188  0.3504
  259SOL    HW2  777   1.574   0.295   2.733 -2.2266 -0.2602 -3.1225
  260SOL     OW  778   2.458   0.357   1.364 -0.2290 -0.3937  0.0795
  260SOL    HW1  779   2.504   0.267   1.380  3.0617  0.6946 -0.7512
  260SOL    HW2  780   2.386   0.372   1.436  0.2497 -1.2941  2.9605
  261SOL     OW  781   0.836   0.509   2.627 -0.3738 -0.5049  0.3359
  261SOL    HW1  782   0.749   0.503   2.672  1.7137  0.3417 -2.9727
  261SOL    HW2  783   0.824   0.507   2.524  2.4867  0.3329  0.3182
  262SOL     OW  784   1.251   2.461   2.366 -0.6692  0.2960  0.5622
  262SOL    HW1  785   1.200   2.391   2.316  1.2522  2.2440  1.9494
  262SOL    HW2  786   1.248   2.552   2.319 -0.9876  0.8361 -0.2063
  263SOL     OW  787   0.288   1.968   2.897  0.1125  0.0652 -0.4446
  263SOL    HW1  788   0.323   2.065   2.883 -1.1540  0.3243 -2.8054
  263SOL    HW2  789   0.192   1.966   2.863  1.8642  0.5357  0.1603
  264SOL     OW  790   1.030   1.618   0.805  0.3083 -0.4677 -0.3816
  264SOL    HW1  791   0.945   1.607   0.864  0.5444 -0.8902  1.1242
  264SOL    HW2  792   1.005   1.673   0.722 -0.6086 -0.8627 -0.5805
  265SOL     OW  793   1.218   2.398   0.429 -0.1751  0.5219 -0.3968
  265SOL    HW1  794   1.288   2.354   0.362 -0.0740 -1.1944 -0.5865
  265SOL    HW2  795   1.257   2.411   0.526  0.8834  1.8473  2.5415
  266SOL     OW  796   2.094   0.863   1.152 -0.1961  0.0936 -0.0903
  266SOL    HW1  797   2.065   0.790   1.218 -2.0007 -0.6911 -0.9789
  266SOL    HW2  798   2.193   0.867   1.140  0.5770  0.1987  2.3106
  267SOL     OW  799   2.911   1.294   2.699  0.0751  0.1233  0.3489
  267SOL    HW1  800   2.862   1.353   2.630  3.3971  1.2286  1.7262
  267SOL    HW2  801   2.856   1.205   2.710 -2.2183 -4.6411  1.6409
  268SOL     OW  802   1.539   0.012   0.301 -0.0155  0.5361 -0.5579
  268SOL    HW1  803   1.545   3.030   0.321  1.8697 -1.9037  0.5137
  268SOL    HW2  804   1.506   0.054   0.386  0.5676  0.9990 -0.0028
  269SOL     OW  805   2.744   0.651   2.667  0.0189 -0.5067  0.3584
  269SOL    HW1  806   2.696   0.560   2.665 -0.7813  0.3875  3.0706
  269SOL    HW2  807   2.841   0.645   2.701 -1.4877  0.1082  1.9519
  270SOL     OW  808   3.006   1.499   3.086 -0.6626  0.2494  0.1596
  270SOL    HW1  809   2.983   1.428   0.041 -0.7742 -0.4699 -0.0231
  270SOL    HW2  810   3.100   1.477   3.054  1.0099  3.1656  2.9084
  271SOL     OW  811   2.681   1.092   2.640  0.4509  0.0904  0.6669
  271SOL    HW1  812   2.646   1.191   2.632 -0.0514  0.5603  0.8514
  271SOL    HW2  813   2.599   1.031   2.627 -1.9282 -0.0749 -1.2270
  272SOL     OW  814   2.887   2.418   2.355 -0.0520 -0.7583 -0.3815
  272SOL    HW1  815   2.934   2.354   2.424 -1.7027 -2.2514  1.5840
  272SOL    HW2  816   2.916   2.395   2.262  2.3826  0.7447 -0.6196
  273SOL     OW  817   0.266   2.670   0.731  0.2204 -0.3250 -0.0588
  273SOL    HW1  818   0.357   2.707   0.756  0.4985  1.8393  1.1564
  273SOL    HW2  819   0.276   2.588   0.677  2.1153  0.9269  1.5148
  274SOL     OW  820   0.940   2.260   0.681 -0.2372 -0.4225  0.1527
  274SOL    HW1  821   0.999   2.249   0.598 -2.2291  0.4954  0.2191
  274SOL    HW2  822   0.982   2.225   0.770 -0.4390  0.7461 -0.1848
  275SOL     OW  823   2.344   1.418   0.314 -0.3482  0.2330  0.1462
  275SOL    HW1  824   2.249   1.417   0.275 -2.6988 -0.4083  0.5331
  275SOL    HW2  825   2.405   1.343   0.274  0.5145 -2.7621 -1.9246
  276SOL     OW  826   2.734   1.636   1.099  0.0936 -0.0626  0.4292
  276SOL    HW1  827   2.711   1.603   1.190  1.8314  3.5305 -1.3662
  276SOL    HW2  828   2.751   1.735   1.106  0.2571 -2.5547 -1.3331
  277SOL     OW  829   2.713   0.023   0.897  0.0659  0.5081 -0.2055
  277SOL    HW1  830   2.614   3.110   0.919 -0.3708 -0.0813  0.7828
  277SOL    HW2  831   2.780   3.065   0.886  0.3458  2.8338  0.4940
  278SOL     OW  832   1.515   0.277   2.481  0.6709  0.2976 -0.3890
  278SOL    HW1  833   1.441   0.209   2.455  1.1894 -1.0927 -1.0621
  278SOL    HW2  834   1.561   0.258   2.570 -0.9503 -1.1174  0.9605
  279SOL     OW  835   1.477   2.655   1.233  0.4557  0.3312  0.1262
  279SOL    HW1  836   1.575   2.678   1.213  1.3940  1.5375  1.5623
  279SOL    HW2  837   1.432   2.606   1.153 -0.2871  1.2453  0.6691
  280SOL     OW  838   0.865   0.895   0.701  0.7003  0.4517  0.0137
  280SOL    HW1  839   0.874   0.894   0.801 -0.0878 -1.8046 -0.3764
  280SOL    HW2  840   0.930   0.967   0.667  0.1682  2.2528  0.1188
  281SOL     OW  841   2.586   1.341   2.609 -0.2569  0.8617  0.7469
  281SOL    HW1  842   2.579   1.431   2.655 -1.0550  1.2740  0.1581
  281SOL    HW2  843   2.531   1.337   2.519 -0.8744 -0.4500  0.3374
  282SOL     OW  844   2.960   1.318   0.185  0.0911  0.5632 -0.0587
  282SOL    HW1  845   2.892   1.308   0.260 -0.1484  1.0547 -0.0106
  282SOL    HW2  846   3.050   1.339   0.227 -1.6009  2.1824  0.1807
  283SOL     OW  847   1.892   2.761   2.520 -0.3596 -0.3948  0.0406
  283SOL    HW1  848   1.835   2.740   2.437 -1.9837  0.3289 -1.2122
  283SOL    HW2  849   1.857   2.708   2.602 -1.0749  0.0369  0.7351
  284SOL     OW  850   0.824   0.047   3.110  0.3046 -0.1023  0.3946
  284SOL    HW1  851   0.736   0.026   0.037 -1.9745  0.2507 -3.3699
  284SOL    HW2  852   0.841   3.095   3.035  1.2045 -0.1248  1.0868
  285SOL     OW  853   2.272   1.452   2.647  0.5298 -0.1276  0.3173
  285SOL    HW1  854   2.356   1.499   2.658 -2.6373 -1.3261 -0.7400
  285SOL    HW2  855   2.191   1.505   2.685  0.7945 -0.2880 -0.5845
  286SOL     OW  856   1.244   1.947   0.854 -0.2749  0.2021 -0.4595
  286SOL    HW1  857   1.188   1.916   0.929  0.3107 -2.1877 -0.1362
  286SOL    HW2  858   1.324   1.995   0.896  0.2076 -1.0543 -0.7334
  287SOL     OW  859   1.891   0.268   0.972  0.4020 -0.0793  0.1197
  287SOL    HW1  860   1.942   0.259   1.056 -0.5535 -1.1349 -1.3003
  287SOL    HW2  861   1.927   0.208   0.895 -0.4499  0.7995 -0.9377
  288SOL     OW  862   0.810   2.705   2.322 -0.2935  0.1197 -0.9521
  288SOL    HW1  863   0.889   2.742   2.377  2.0187  0.1912  1.3120
  288SOL    HW2  864   0.771   2.769   2.251  1.5565  1.7657  0.9533
  289SOL     OW  865   3.101   1.213   0.548  0.0935 -0.6282 -0.2651
  289SOL    HW1  866   3.059   1.231   0.643  0.5527  1.7290  2.6159
  289SOL    HW2  867   3.094   1.115   0.532  1.2768  0.1646  0.6909
  290SOL     OW  868   1.331   2.297   1.142 -0.3054  0.0866  0.8489
  290SOL    HW1  869   1.354   2.239   1.056  0.1741 -2.6388 -0.0925
  290SOL    HW2  870   1.389   2.269   1.222  1.6730 -0.3355  0.7796
  291SOL     OW  871   1.753   2.832   0.581 -0.4890 -0.4037 -0.4690
  291SOL    HW1  872   1.667   2.849   0.635 -0.0524  2.1754 -0.4372
  291SOL    HW2  873   1.805   2.754   0.626 -1.1402  0.7984  0.2955
  292SOL     OW  874   0.487   0.180   2.222 -0.2794  0.1187 -0.1949
  292SOL    HW1  875   0.528   0.237   2.148  1.1934 -0.5256  0.2981
  292SOL    HW2  876   0.503   0.223   2.313 -0.6483  1.2625 -0.6050
  293SOL     OW  877   2.310   1.957   0.843 -0.1490  0.2221 -0.3245
  293SOL    HW1  878   2.346   1.861   0.839 -1.5707 -0.6212 -0.6301
  293SOL    HW2  879   2.323   1.997   0.934 -1.9056 -4.8774 -1.0157
  294SOL     OW  880   0.785   0.120   2.131 -0.5996 -0.0693  0.3330
  294SOL    HW1  881   0.739   0.109   2.217  0.1546  0.2736 -1.1419
  294SOL    HW2  882   0.843   0.039   2.109 -1.0919  0.4722 -2.7177
  295SOL     OW  883   1.389   1.393   1.186  0.3223 -0.3357  0.1115
  295SOL    HW1  884   1.480   1.350   1.177  2.0243  0.6080  3.9286
  295SOL    HW2  885   1.318   1.336   1.137  1.9940 -1.9650 -0.4144
  296SOL     OW  886   2.138   1.961   0.638  0.0515  0.2032 -0.0819
  296SOL    HW1  887   2.227   1.935   0.690  0.5335  0.0627  1.7023
  296SOL    HW2  888   2.108   2.052   0.672  0.4107  0.2859 -0.5955
  297SOL     OW  889   2.420   3.086   2.941  0.2055 -0.1133 -0.3686
  297SOL    HW1  890   2.414   3.020   2.865  1.8760  0.6947  1.0023
  297SOL    HW2  891   2.462   3.040   3.021  3.6586 -0.2728  0.2890
  298SOL     OW  892   1.194   0.226   2.510 -0.5354 -0.0683  0.2026
  298SOL    HW1  893   1.145   0.180   2.584  2.1854  3.2556 -0.1586
  298SOL    HW2  894   1.250   0.157   2.457  1.4672  0.7652  2.7514
  299SOL     OW  895   1.252   2.980   1.867  0.0992 -0.9179 -0.0208
  299SOL    HW1  896   1.199   3.033   1.797 -0.4753 -1.4374  1.8316
  299SOL    HW2  897   1.227   3.021   1.957 -0.3560 -1.1715  0.3515
  300SOL     OW  898   2.576   3.108   1.970 -0.0511  0.4094  0.0461
  300SOL    HW1  899   2.640   3.069   2.041  1.7942 -2.2158  3.0553
  300SOL    HW2  900   2.577   0.087   1.981 -1.0823 -2.2755 -0.5303
  301SOL     OW  901   2.101   0.508   1.913  0.1602 -0.2500  0.1571
  301SOL    HW1  902   2.157   0.466   1.987 -0.2291 -0.5214 -1.2755
  301SOL    HW2  903   2.043   0.441   1.870 -0.3900 -0.1309  0.8679
  302SOL     OW  904   0.356   2.448   3.113  0.5594  0.2633  0.4329
  302SOL    HW1  905   0.298   2.397   3.045 -3.3494  0.0596 -2.8841
  302SOL    HW2  906   0.295   2.483   0.070 -0.0128  1.2581 -0.8179
  303SOL     OW  907   1.718   2.108   1.486  0.1418  0.8719 -0.0525
  303SOL    HW1  908   1.635   2.054   1.452 -0.1094 -1.6101 -0.7934
  303SOL    HW2  909   1.740   2.082   1.585  1.9796  1.2049  2.7684
  304SOL     OW  910   2.948   0.774   1.312  0.0086  0.1936 -0.5101
  304SOL    HW1  911   2.857   0.736   1.329  0.3358 -0.9029  0.3072
  304SOL    HW2  912   2.968   0.795   1.210 -1.4242  0.5215 -3.5600
  305SOL     OW  913   0.631   0.704   0.683 -0.2683  0.1166 -0.5134
  305SOL    HW1  914   0.685   0.622   0.709  0.9747 -0.1899  0.9449
  305SOL    HW2  915   0.695   0.781   0.661  0.5690  2.6920 -1.0113
  306SOL     OW  916   0.349   0.973   2.999  0.0352  0.4016  0.1012
  306SOL    HW1  917   0.422   0.963   2.924 -0.1948 -1.1313 -3.0999
  306SOL    HW2  918   0.303   0.880   3.007 -1.3081  1.1936 -2.1373
  307SOL     OW  919   1.317   0.412   1.442  0.3916 -0.0529 -0.1114
  307SOL    HW1  920   1.355   0.502   1.470 -2.0524 -0.2597  1.2626
  307SOL    HW2  921   1.326   0.344   1.520 -0.1510 -2.2037 -2.4154
  308SOL     OW  922   0.542   1.021   1.051 -0.2710 -0.5577  0.1488
  308SOL    HW1  923   0.443   1.013   1.053  1.8477  1.3936 -1.8400
  308SOL    HW2  924   0.585   0.934   1.075 -0.5210  2.0652  0.2498
  309SOL     OW  925   2.526   0.844   0.935  0.8310 -0.0802 -0.2411
  309SOL    HW1  926   2.491   0.774   0.872 -0.5860  0.6908 -1.7252
  309SOL    HW2  927   2.542   0.927   0.878  0.1584 -0.5317 -0.0076
  310SOL     OW  928   0.680   1.487   3.023 -0.4928 -0.6166 -0.0637
  310SOL    HW1  929   0.725   1.505   3.115  1.5447  0.8782  3.3501
  310SOL    HW2  930   0.587   1.448   3.042  1.0873 -0.7862  0.8236
  311SOL     OW  931   2.439   2.733   2.390  0.4104 -0.0922 -0.3432
  311SOL    HW1  932   2.487   2.740   2.297  2.7586 -0.0367 -1.2707
  311SOL    HW2  933   2.496   2.740   2.473 -1.0494 -2.3359  0.6985
  312SOL     OW  934   2.023   2.125   0.016  0.2778 -0.3474  0.2650
  312SOL    HW1  935   2.068   2.119   3.042  0.7054  0.2800 -0.5028
  312SOL    HW2  936   2.076   2.199   0.067 -1.3287  1.4957 -2.6463
  313SOL     OW  937   0.562   0.188   0.216  0.0637 -0.3014  0.4386
  313SOL    HW1  938   0.516   0.238   0.291  0.5851 -0.6866  1.4838
  313SOL    HW2  939   0.578   0.248   0.131  0.0705 -2.4378 -0.0731
  314SOL     OW  940   2.456   1.206   2.910 -0.4332  0.3209 -0.2671
  314SOL    HW1  941   2.518   1.275   2.955 -1.2439 -1.5016 -0.2196
  314SOL    HW2  942   2.377   1.244   2.863  2.4892  0.8539 -1.9143
  315SOL     OW  943   1.669   0.519   2.461 -0.0721 -0.1404 -0.2924
  315SOL    HW1  944   1.621   0.432   2.449 -0.4310  0.7260  0.5284
  315SOL    HW2  945   1.622   0.601   2.418  0.1953 -0.0916 -0.1489
  316SOL     OW  946   3.038   0.946   0.517  0.3952  0.2613 -0.5562
  316SOL    HW1  947   2.954   0.944   0.578 -0.1189 -0.4304  1.1093
  316SOL    HW2  948   3.036   0.876   0.443 -1.5860  0.2886  2.7103
  317SOL     OW  949   0.611   2.839   0.044  0.0845 -0.4163  0.4760
  317SOL    HW1  950   0.596   2.761   3.098  0.9748  0.3528 -0.5781
  317SOL    HW2  951   0.524   2.877   0.074 -1.1546 -0.7824 -0.5036
  318SOL     OW  952   2.364   2.742   1.111 -0.4564  0.1962  0.0689
  318SOL    HW1  953   2.362   2.732   1.212 -0.9883  1.3692  0.5546
  318SOL    HW2  954   2.459   2.760   1.078  0.7688  1.3206  0.0957
  319SOL     OW  955   1.144   1.464   2.778 -0.6046  0.6350 -0.4112
  319SOL    HW1  956   1.044   1.440   2.769 -2.3585  0.9311  0.7812
  319SOL    HW2  957   1.186   1.462   2.684 -1.1797 -0.4091 -0.6686
  320SOL     OW  958   0.617   1.829   0.927 -0.1511  0.1053  0.0696
  320SOL    HW1  959   0.518   1.830   0.899 -3.0691  0.9642 -0.6871
  320SOL    HW2  960   0.647   1.923   0.950 -3.1489  1.9962  0.5453
  321SOL     OW  961   1.521   2.752   2.082 -0.0612 -0.3326  0.6463
  321SOL    HW1  962   1.484   2.796   1.996 -3.0083 -0.5002 -1.7238
  321SOL    HW2  963   1.551   2.818   2.151  0.4008  1.6289 -1.2718
  322SOL     OW  964   2.229   1.865   2.506  0.2271 -0.2417  0.1508
  322SOL    HW1  965   2.137   1.853   2.460 -2.7702 -0.3159 -0.5111
  322SOL    HW2  966   2.264   1.958   2.486 -0.9416 -0.5375 -2.0513
  323SOL     OW  967   2.770   0.264   0.793 -0.2753  0.1157  1.0098
  323SOL    HW1  968   2.746   0.169   0.834 -0.7548 -3.2777  0.8935
  323SOL    HW2  969   2.768   0.265   0.689  1.4680  0.4629  1.0595
  324SOL     OW  970   2.954   2.686   2.461  0.3300 -0.1690 -0.4025
  324SOL    HW1  971   3.045   2.691   2.503  0.7309 -0.2666  2.3002
  324SOL    HW2  972   2.942   2.598   2.413  0.7403 -0.5398 -0.5504
  325SOL     OW  973   1.078   0.618   2.763  0.6828 -0.0844  0.4138
  325SOL    HW1  974   1.148   0.622   2.685  0.4414 -1.4508 -1.5946
  325SOL    HW2  975   0.992   0.568   2.735  0.9335 -1.1878 -1.8773
  326SOL     OW  976   2.571   2.370   1.320  0.1246  0.1655  0.7638
  326SOL    HW1  977   2.478   2.403   1.332  0.6299 -0.3205 -3.6991
  326SOL    HW2  978   2.625   2.360   1.407 -1.9702 -0.9445  2.7843
  327SOL     OW  979   2.505   2.929   0.049  0.4138  0.3550 -0.2280
  327SOL    HW1  980   2.488   2.969   0.144  0.9343  1.6343 -2.5331
  327SOL    HW2  981   2.466   2.838   0.053 -0.1102  1.9591  0.2507
  328SOL     OW  982   0.244   0.918   1.524 -0.6160 -0.3230  0.2095
  328SOL    HW1  983   0.327   0.884   1.474  0.0054  0.1426 -2.1977
  328SOL    HW2  984   0.207   1.000   1.480  0.8359 -0.2954  0.5242
  329SOL     OW  985   2.026   0.856   1.522 -0.0548 -0.5985 -0.0712
  329SOL    HW1  986   2.038   0.797   1.600 -2.2445  0.3004 -3.6317
  329SOL    HW2  987   1.996   0.797   1.446 -0.2585  2.9473  1.8233
  330SOL     OW  988   0.313   0.861   0.990  0.1303  0.0875 -0.6716
  330SOL    HW1  989   0.360   0.781   0.946 -2.6891  0.6142 -0.6126
  330SOL    HW2  990   0.254   0.836   1.068 -3.9716  0.0822  1.7913
  331SOL     OW  991   0.396   1.486   1.942 -0.5966 -0.4794 -0.4773
  331SOL    HW1  992   0.481   1.435   1.941  0.4778  0.0370  0.7945
  331SOL    HW2  993   0.367   1.515   1.850  1.3165 -1.0911 -0.9134
  332SOL     OW  994   0.035   2.400   1.562  0.0143 -0.0886  0.1034
  332SOL    HW1  995   3.078   2.418   1.497  1.7444 -1.5653 -1.9154
  332SOL    HW2  996   0.016   2.322   1.620  1.1081 -0.1402 -2.1514
  333SOL     OW  997   2.904   2.919   0.887  0.4301 -0.2442 -0.1006
  333SOL    HW1  998   2.942   2.926   0.791  3.2240 -0.7342  0.9912
  333SOL    HW2  999   2.975   2.881   0.947 -0.5258  4.5516  0.5922
  334SOL     OW 1000   0.394   1.219   0.586 -0.2547 -0.1722 -0.0257
  334SOL    HW1 1001   0.350   1.170   0.667 -3.7730 -2.4424  0.2254
  334SOL    HW2 1002   0.437   1.303   0.617 -0.1759 -1.4732 -0.3771
  335SOL     OW 1003   0.545   2.614   3.027  0.0750 -0.1669  0.1743
  335SOL    HW1 1004   0.466   2.566   3.077 -0.4908  0.1296  1.1204
  335SOL    HW2 1005   0.518   2.621   2.930 -0.1374  4.4415  0.3626
  336SOL     OW 1006   2.901   2.768   2.110 -0.1809 -0.1320 -0.2739
  336SOL    HW1 1007   2.857   2.726   2.186 -0.2508  1.1007 -1.4448
  336SOL    HW2 1008   2.841   2.765   2.028  1.2172  1.4153  0.4540
  337SOL     OW 1009   1.597   2.291   1.765  0.0301 -0.3487  0.3001
  337SOL    HW1 1010   1.519   2.312   1.700  1.0956 -1.6018 -0.8335
  337SOL    HW2 1011   1.567   2.233   1.841  2.6321 -1.5604 -2.5467
  338SOL     OW 1012   0.939   0.270   2.777  0.2848  0.0718 -0.1499
  338SOL    HW1 1013   0.942   0.343   2.709  0.9704 -0.3610  1.1629
  338SOL    HW2 1014   1.013   0.203   2.755  0.8485 -0.5963 -0.7200
  339SOL     OW 1015   0.494   0.937   2.255 -0.5053 -0.0860  0.3125
  339SOL    HW1 1016   0.466   0.964   2.165  2.5311 -0.5066  0.0345
  339SOL    HW2 1017   0.571   0.985   2.300 -2.4764 -1.5908  2.2470
  340SOL     OW 1018   2.191   0.442   0.838  0.0115 -0.3404 -0.0106
  340SOL    HW1 1019   2.219   0.356   0.888  0.5630 -2.2121 -1.2692
  340SOL    HW2 1020   2.134   0.509   0.895 -2.0121  0.7677  1.4286
  341SOL     OW 1021   2.102   1.112   0.980 -0.6005 -0.2763 -0.1479
  341SOL    HW1 1022   2.067   1.194   1.028  3.3793 -1.1625  1.2561
  341SOL    HW2 1023   2.148   1.043   1.047 -0.6893 -2.4240  3.9232
  342SOL     OW 1024   2.285   2.637   2.825  1.1088  0.0221  0.0720
  342SOL    HW1 1025   2.357   2.575   2.866  1.5885  0.2215  0.5324
  342SOL    HW2 1026   2.207   2.574   2.799 -0.7070  0.2714  0.4195
  343SOL     OW 1027   0.900   2.431   1.610 -0.1560  0.2114  0.9082
  343SOL    HW1 1028   0.898   2.423   1.509 -0.6510 -0.2552  1.7942
  343SOL    HW2 1029   0.823   2.382   1.652  2.3067  0.7546  1.2270
  344SOL     OW 1030   2.431   2.717   1.434  0.1083 -0.1346  0.5356
  344SOL    HW1 1031   2.436   2.706   1.534 -0.0581  2.6196  1.6708
  344SOL    HW2 1032   2.521   2.739   1.386 -0.7314 -2.1529 -3.4517
  345SOL     OW 1033   2.357   2.283   3.093 -0.0630  0.6495  0.3852
  345SOL    HW1 1034   2.358   2.204   3.029  2.2888  2.1846 -2.3854
  345SOL    HW2 1035   2.263   2.312   0.006 -0.9395  1.1447 -0.5674
  346SOL     OW 1036   1.706   2.359   1.359 -0.2525 -0.1973 -0.3574
  346SOL    HW1 1037   1.704   2.338   1.265 -0.3047  1.3058  2.3845
  346SOL    HW2 1038   1.736   2.277   1.416 -0.9902 -1.6684  0.5399
  347SOL     OW 1039   1.267   1.835   1.638 -0.4959  0.3605  0.3541
  347SOL    HW1 1040   1.218   1.909   1.595  1.3400 -1.1997  0.9519
  347SOL    HW2 1041   1.209   1.791   1.713 -1.1011  2.5720  0.6629
  348SOL     OW 1042   0.400   2.068   1.960 -0.1654  0.2010 -0.2062
  348SOL    HW1 1043   0.395   2.137   2.035 -0.8063 -0.3062  1.8386
  348SOL    HW2 1044   0.403   1.970   1.993  0.8034 -0.1541  1.3193
  349SOL     OW 1045   1.815   1.643   1.328 -0.3529  0.0741 -0.0359
  349SOL    HW1 1046   1.806   1.572   1.397  1.7767  3.4220 -2.7005
  349SOL    HW2 1047   1.882   1.710   1.357 -2.9792 -0.9888  1.1613
  350SOL     OW 1048   2.343   2.232   0.437  0.3551 -0.0106  0.2875
  350SOL    HW1 1049   2.408   2.297   0.391 -0.6897 -1.2470  2.3810
  350SOL    HW2 1050   2.366   2.214   0.532 -2.1509 -1.5713 -1.3150
  351SOL     OW 1051   0.937   0.064   1.513  0.4825 -0.2815  0.7962
  351SOL    HW1 1052   0.909   0.160   1.508  1.0363 -0.3297 -0.3064
  351SOL    HW2 1053   0.984   0.034   1.428  1.2195 -0.0217  0.2104
  352SOL     OW 1054   0.291   1.300   0.900  0.3919  0.1511  0.2807
  352SOL    HW1 1055   0.296   1.198   0.881  0.7298 -0.6383  0.6566
  352SOL    HW2 1056   0.317   1.357   0.817  0.1398  0.0059  2.2168
  353SOL     OW 1057   1.251   1.602   2.281 -0.1925 -0.1077 -0.0183
  353SOL    HW1 1058   1.255   1.596   2.384  2.5546 -1.8525  3.3347
  353SOL    HW2 1059   1.305   1.526   2.236  1.9604 -0.1957 -0.0253
  354SOL     OW 1060   1.708   3.059   1.983 -0.4372 -0.0118  0.2260
  354SOL    HW1 1061   1.663   3.074   2.072  2.2703 -0.7535  0.7968
  354SOL    HW2 1062   1.641   3.022   1.917  1.8676 -1.5660  0.5400
  355SOL     OW 1063   2.129   1.389   3.061 -0.5383 -0.4262  0.1804
  355SOL    HW1 1064   2.166   1.294   3.084 -0.0920  2.0627  1.1658
  355SOL    HW2 1065   2.031   1.389   3.029  0.4552 -0.3955 -0.8059
  356SOL     OW 1066   2.902   1.566   1.494  0.4592  0.3888 -0.7802
  356SOL    HW1 1067   2.884   1.531   1.589 -3.1075  1.0410  1.4839
  356SOL    HW2 1068   2.983   1.522   1.460 -1.5134 -1.5145  1.5843
  357SOL     OW 1069   0.361   2.665   1.565  0.4039  0.0373 -0.2458
  357SOL    HW1 1070   0.292   2.627   1.506  0.2910  0.6092  1.9797
  357SOL    HW2 1071   0.413   2.735   1.513  0.1108 -2.3101 -1.7495
  358SOL     OW 1072   2.455   1.664   1.437  0.1389 -0.3225 -0.1217
  358SOL    HW1 1073   2.470   1.692   1.538  2.5750 -0.4582  0.7695
  358SOL    HW2 1074   2.526   1.602   1.401  2.3060  0.9824 -2.0312
  359SOL     OW 1075   2.368   2.898   2.752 -0.6502 -0.1088  0.9193
  359SOL    HW1 1076   2.322   2.932   2.671 -0.7651  1.8996  2.8642
  359SOL    HW2 1077   2.338   2.807   2.778  0.4555  1.9391 -2.3336
  360SOL     OW 1078   1.390   3.039   1.028  0.3716 -0.4809 -0.3152
  360SOL    HW1 1079   1.432   3.044   0.934  1.9425  0.0544 -4.7101
  360SOL    HW2 1080   1.314   2.972   1.020  0.6090  1.7701 -0.1453
  361SOL     OW 1081   2.224   0.368   0.340 -0.2647  0.3408  0.2672
  361SOL    HW1 1082   2.196   0.381   0.440  1.1160  0.8142  3.4202
  361SOL    HW2 1083   2.231   0.461   0.294 -1.8781  2.1594 -1.1405
  362SOL     OW 1084   1.742   1.121   0.946  0.1240  0.0506 -0.3073
  362SOL    HW1 1085   1.690   1.165   0.870 -1.7131 -0.1958  2.0740
  362SOL    HW2 1086   1.756   1.178   1.032  4.0010 -0.1583  1.9561
  363SOL     OW 1087   2.343   1.036   2.261  0.0499 -0.0510  0.8635
  363SOL    HW1 1088   2.266   1.034   2.325  0.2990  0.3947 -1.9256
  363SOL    HW2 1089   2.306   1.027   2.166  0.3815 -0.5382 -2.5596
  364SOL     OW 1090   0.270   0.495   1.042 -0.3048 -0.1139  0.6193
  364SOL    HW1 1091   0.178   0.531   1.045  3.5753  0.8152 -1.7734
  364SOL    HW2 1092   0.270   0.397   1.033  3.5504  3.6745 -1.5079
  365SOL     OW 1093   0.686   0.128   2.807  0.2419  0.2941 -0.3133
  365SOL    HW1 1094   0.669   0.033   2.833 -1.2909  0.2260  0.0215
  365SOL    HW2 1095   0.785   0.158   2.807 -0.5385  1.4463  0.3830
  366SOL     OW 1096   2.053   2.422   2.862 -0.6439  0.1224 -0.1237
  366SOL    HW1 1097   2.037   2.451   2.958 -2.3576  0.9893 -4.0639
  366SOL    HW2 1098   2.061   2.320   2.850 -2.4619  0.5669  0.0592
  367SOL     OW 1099   2.967   2.491   0.337 -0.0659 -0.3312  0.1096
  367SOL    HW1 1100   2.875   2.533   0.362 -1.3428  1.0575 -1.2432
  367SOL    HW2 1101   3.040   2.526   0.396  0.3306 -0.9968  0.9918
  368SOL     OW 1102   2.858   1.274   1.184 -0.1705 -0.4451 -0.1779
  368SOL    HW1 1103   2.757   1.280   1.200  1.0406 -1.8403 -1.7966
  368SOL    HW2 1104   2.890   1.353   1.130 -0.1554 -3.2596  0.2209
  369SOL     OW 1105   1.082   0.048   2.694 -0.0845  0.1265 -0.0659
  369SOL    HW1 1106   1.026   3.115   2.625 -0.8223  0.0323  0.9275
  369SOL    HW2 1107   1.173   0.003   2.712  1.5843 -3.1970 -0.5666
  370SOL     OW 1108   2.798   0.278   0.522 -0.3720  0.0534  0.0980
  370SOL    HW1 1109   2.745   0.309   0.437  0.7541 -1.1873  0.0294
  370SOL    HW2 1110   2.897   0.314   0.519  2.2810  0.1292 -1.1523
  371SOL     OW 1111   1.453   2.145   0.953 -0.1508 -1.0514 -0.1713
  371SOL    HW1 1112   1.504   2.073   1.004 -1.7776 -0.9365 -1.8828
  371SOL    HW2 1113   1.516   2.219   0.922 -1.5320 -1.6830 -1.3040
  372SOL     OW 1114   3.006   0.745   2.647  0.0313 -0.6149  0.4874
  372SOL    HW1 1115   2.975   0.723   2.550 -0.7820  0.6757 -2.0890
  372SOL    HW2 1116   2.955   0.821   2.687  2.7136 -1.0906 -1.3839
  373SOL     OW 1117   2.946   1.552   0.951  0.6952 -0.0750 -0.7922
  373SOL    HW1 1118   2.957   1.596   0.860  0.9409 -1.4271  3.5233
  373SOL    HW2 1119   2.865   1.591   1.006 -1.2339  0.7042  1.6160
  374SOL     OW 1120   0.764   2.900   2.712  0.1723  0.0907  0.5805
  374SOL    HW1 1121   0.789   2.927   2.804  0.9461 -0.1821 -3.6397
  374SOL    HW2 1122   0.798   2.963   2.639  2.2821  0.3324 -1.9392
  375SOL     OW 1123   3.074   2.909   0.032 -0.7108 -0.3678 -0.0847
  375SOL    HW1 1124   3.107   2.990   0.088  0.9708 -0.0523 -0.8603
  375SOL    HW2 1125   0.035   2.864   3.099  0.6118 -1.8832 -0.5360
  376SOL     OW 1126   3.042   2.007   1.520 -0.0259 -0.6582  0.4032
  376SOL    HW1 1127   3.061   2.077   1.587  0.9378 -1.6015 -0.5956
  376SOL    HW2 1128   2.968   1.949   1.557  0.1318  1.3024 -1.5953
  377SOL     OW 1129   1.799   2.266   2.402  0.4476 -0.1206  0.1648
  377SOL    HW1 1130   1.710   2.235   2.352 -0.2697 -1.1718 -1.9382
  377SOL    HW2 1131   1.827   2.361   2.365  2.1089  3.1505 -3.0188
  378SOL     OW 1132   0.503   0.314   2.733 -0.6079 -0.3014  0.1241
  378SOL    HW1 1133   0.538   0.408   2.757 -2.0766  1.3843 -0.9874
  378SOL    HW2 1134   0.574   0.241   2.749 -0.0349  0.3745  1.6775
  379SOL     OW 1135   0.526   0.620   0.390 -0.3018  1.0349  0.4470
  379SOL    HW1 1136   0.465   0.655   0.467 -1.0979  1.3635  0.3197
  379SOL    HW2 1137   0.604   0.680   0.371  2.5699 -0.9945  0.3740
  380SOL     OW 1138   3.089   1.730   1.930  0.0871 -1.0918 -0.1897
  380SOL    HW1 1139   3.020   1.649   1.930 -2.3204 -1.5044  0.5902
  380SOL    HW2 1140   0.034   1.725   2.011 -1.2942  2.8929  0.9021
  381SOL     OW 1141   0.285   0.945   2.052  0.3980  0.2686 -0.2393
  381SOL    HW1 1142   0.239   0.854   2.068  1.3738 -1.5144 -0.2769
  381SOL    HW2 1143   0.308   0.957   1.953 -0.3816  1.2565 -4.1647
  382SOL     OW 1144   2.238   1.818   0.434  0.2047 -0.4375  0.7299
  382SOL    HW1 1145   2.198   1.723   0.454  0.7554  0.4717  0.9242
  382SOL    HW2 1146   2.193   1.892   0.492 -0.7721  0.2147 -2.2795
  383SOL     OW 1147   0.028   2.010   2.822  0.1554  0.2261  0.1165
  383SOL    HW1 1148   3.094   1.929   2.850  0.6329  0.3252  0.6656
  383SOL    HW2 1149   3.084   2.086   2.798  0.7807 -1.0610 -1.2092
  384SOL     OW 1150   0.767   2.247   2.736 -0.4193 -0.0755  0.5561
  384SOL    HW1 1151   0.727   2.201   2.817 -0.9152 -3.1790 -1.7658
  384SOL    HW2 1152   0.743   2.346   2.737  0.6366  1.3475  0.6366
  385SOL     OW 1153   2.709   1.597   0.678  0.5468 -0.2369  0.0279
  385SOL    HW1 1154   2.663   1.600   0.768  0.5371  2.0396  1.5527
  385SOL    HW2 1155   2.673   1.667   0.613  0.1139  0.1379  1.2532
  386SOL     OW 1156   2.300   1.455   1.478 -0.2533 -0.3891 -0.1625
  386SOL    HW1 1157   2.354   1.542   1.462  3.0091  3.0717 -0.3699
  386SOL    HW2 1158   2.314   1.420   1.572 -0.5335  1.9765 -0.3827
  387SOL     OW 1159   2.842   1.189   2.241  0.2231  0.4800 -0.0268
  387SOL    HW1 1160   2.866   1.142   2.328 -0.1663 -1.5535 -0.5425
  387SOL    HW2 1161   2.775   1.265   2.258 -0.6574 -0.7666 -1.0195
  388SOL     OW 1162   2.935   1.505   1.939  0.2415  0.1473  0.8206
  388SOL    HW1 1163   2.982   1.434   1.996  0.2418 -2.0640  0.8726
  388SOL    HW2 1164   2.881   1.461   1.862 -2.0563 -1.8076 -3.0270
  389SOL     OW 1165   1.896   1.172   1.854 -0.0228 -0.1863  0.2703
  389SOL    HW1 1166   1.946   1.149   1.768  0.6674  0.3284 -1.0181
  389SOL    HW2 1167   1.892   1.277   1.857 -0.1168  0.2002 -1.9153
  390SOL     OW 1168   1.962   0.139   0.594 -0.5574 -0.0923 -0.4540
  390SOL    HW1 1169   1.945   0.097   0.688 -0.6444 -1.0615  0.1291
  390SOL    HW2 1170   1.873   0.168   0.553  1.6453  1.1071  0.2698
  391SOL     OW 1171   2.190   1.769   1.190 -0.2502  0.3506 -0.5127
  391SOL    HW1 1172   2.279   1.801   1.228 -0.4686  0.7580 -0.4861
  391SOL    HW2 1173   2.118   1.763   1.259  0.9580 -1.8501 -1.6132
  392SOL     OW 1174   2.665   2.485   0.589 -0.2109 -0.3602  0.3509
  392SOL    HW1 1175   2.723   2.468   0.665 -3.0820 -0.6714 -4.4791
  392SOL    HW2 1176   2.652   2.396   0.541 -2.0006 -1.4667 -0.2484
  393SOL     OW 1177   1.445   1.786   2.872  0.0719  0.5014 -0.0849
  393SOL    HW1 1178   1.499   1.706   2.902 -0.4489 -0.5120  0.0193
  393SOL    HW2 1179   1.495   1.836   2.798 -0.8839 -0.2949 -0.1274
  394SOL     OW 1180   0.355   2.985   2.652  0.3422 -0.4713  0.0097
  394SOL    HW1 1181   0.294   3.063   2.677 -1.6460 -0.3805  2.2908
  394SOL    HW2 1182   0.351   2.918   2.728  0.2010  0.9424  0.4384
  395SOL     OW 1183   0.760   0.491   0.799 -0.5461 -0.2105 -0.1866
  395SOL    HW1 1184   0.714   0.406   0.828  0.8958 -0.9148  2.3851
  395SOL    HW2 1185   0.839   0.518   0.853  0.2518 -0.2055  1.9294
  396SOL     OW 1186   1.503   0.817   0.733  0.6563 -0.2996  0.3766
  396SOL    HW1 1187   1.551   0.828   0.647  0.1150  0.1731  3.7563
  396SOL    HW2 1188   1.464   0.723   0.737  1.8754  0.7743 -2.1003
  397SOL     OW 1189   0.645   0.706   2.172 -0.2433 -0.2026  0.2373
  397SOL    HW1 1190   0.582   0.620   2.172  0.3697 -4.1781  1.3074
  397SOL    HW2 1191   0.602   0.794   2.209 -0.9683  0.5244 -0.2839
  398SOL     OW 1192   0.903   0.156   0.496  0.1553  0.5121 -0.3094
  398SOL    HW1 1193   0.898   0.257   0.519  0.8287 -1.2558  0.3317
  398SOL    HW2 1194   0.941   0.139   0.404  2.1918 -1.2952  3.8153
  399SOL     OW 1195   2.000   2.902   1.703 -0.0221 -0.1980  0.4498
  399SOL    HW1 1196   1.992   2.961   1.783  3.4269 -1.5553 -4.4462
  399SOL    HW2 1197   1.963   2.808   1.707  0.3883  1.0122 -2.3205
  400SOL     OW 1198   0.921   1.806   1.967  0.4257  0.3316  0.2713
  400SOL    HW1 1199   0.906   1.789   2.067 -2.1326 -1.5933  1.6063
  400SOL    HW2 1200   0.960   1.897   1.955 -0.8149 -1.9168 -2.9649
  401SOL     OW 1201   0.487   1.258   2.676 -0.0995 -0.1201 -0.0295
  401SOL    HW1 1202   0.399   1.294   2.705  0.9157 -0.3049 -2.0379
  401SOL    HW2 1203   0.500   1.166   2.712 -1.3513  1.6193 -1.5374
  402SOL     OW 1204   2.848   2.040   0.836  0.0847 -0.0090  0.1070
  402SOL    HW1 1205   2.923   2.007   0.782 -1.7561  0.2243  2.1467
  402SOL    HW2 1206   2.840   1.986   0.923  0.2011 -0.6204 -0.4263
  403SOL     OW 1207   0.256   0.897   2.382  0.0841 -0.2392  0.4048
  403SOL    HW1 1208   0.195   0.871   2.308 -0.6142 -1.6667  0.3020
  403SOL    HW2 1209   0.350   0.905   2.347  0.4548  1.2177 -0.1759
  404SOL     OW 1210   0.259   2.395   2.017 -0.0470  0.5710 -0.2603
  404SOL    HW1 1211   0.252   2.351   1.922 -0.9634 -2.6545  0.9796
  404SOL    HW2 1212   0.257   2.496   2.014  0.1488 -0.9395  1.8019
  405SOL     OW 1213   0.324   0.364   2.008  0.2357  0.5275  0.2777
  405SOL    HW1 1214   0.359   0.325   1.922  1.0679  0.3750 -1.0525
  405SOL    HW2 1215   0.277   0.292   2.065 -0.2501  2.6421  2.5841
  406SOL     OW 1216   1.504   1.581   2.552 -0.0094 -0.0549  0.0155
  406SOL    HW1 1217   1.590   1.528   2.578  1.1304  0.6982  0.3597
  406SOL    HW2 1218   1.527   1.670   2.506 -0.3274 -1.2934 -2.3795
  407SOL     OW 1219   1.357   1.208   2.423  0.0269 -0.3494 -0.1562
  407SOL    HW1 1220   1.317   1.179   2.337  0.7356 -0.8301 -1.4854
  407SOL    HW2 1221   1.453   1.241   2.411 -0.3689  1.2251 -0.5664
  408SOL     OW 1222   0.921   3.045   2.509 -0.3910  0.0492  0.6733
  408SOL    HW1 1223   0.861   0.004   2.480 -0.2666 -1.2069  2.0494
  408SOL    HW2 1224   0.970   3.000   2.430 -0.2094 -0.6489 -0.9684
  409SOL     OW 1225   0.130   1.796   0.770  0.3817  0.8486  0.2906
  409SOL    HW1 1226   0.035   1.767   0.803 -2.0931  0.5862  4.9639
  409SOL    HW2 1227   0.153   1.758   0.676  2.0349 -2.7392 -2.4706
  410SOL     OW 1228   2.514   1.251   0.201 -0.0036 -0.5724 -0.2980
  410SOL    HW1 1229   2.579   1.256   0.282 -0.7034 -0.8382  0.8142
  410SOL    HW2 1230   2.569   1.267   0.112 -0.4787  0.7838 -1.3782
  411SOL     OW 1231   0.210   0.164   1.082 -0.1388  0.4188  0.1964
  411SOL    HW1 1232   0.129   0.145   1.140  1.3295 -2.4672  0.5355
  411SOL    HW2 1233   0.269   0.082   1.086  2.1336 -0.4595  1.3521
  412SOL     OW 1234   1.656   1.009   1.573  1.1115  0.2102 -0.3258
  412SOL    HW1 1235   1.706   1.073   1.515 -0.5113 -2.2590  1.8309
  412SOL    HW2 1236   1.634   0.922   1.525 -0.8488 -0.7834 -1.8320
  413SOL     OW 1237   0.734   3.104   1.781 -0.6356 -0.5747 -0.3866
  413SOL    HW1 1238   0.642   3.084   1.743  1.8374 -0.1239 -1.7596
  413SOL    HW2 1239   0.736   0.081   1.820  1.8597 -0.7811 -2.0281
  414SOL     OW 1240   2.755   1.607   2.709  0.0719 -0.1558 -0.3186
  414SOL    HW1 1241   2.769   1.559   2.794  0.2576  0.3213  3.3245
  414SOL    HW2 1242   2.814   1.564   2.634 -1.3209 -3.3991 -0.1052
  415SOL     OW 1243   0.699   2.409   0.033 -0.0882  0.6397  0.2482
  415SOL    HW1 1244   0.657   2.486   3.099 -2.9807 -1.7382 -0.7319
  415SOL    HW2 1245   0.799   2.413   0.048 -1.4303 -1.2001 -0.3851
  416SOL     OW 1246   1.827   2.983   0.184 -0.2763  0.1912 -0.2601
  416SOL    HW1 1247   1.811   2.934   0.096 -0.2479 -3.4788  1.7545
  416SOL    HW2 1248   1.924   2.964   0.208  1.2169 -2.1392 -2.1189
  417SOL     OW 1249   0.126   0.643   0.682  0.5781 -0.0302 -0.1998
  417SOL    HW1 1250   0.227   0.649   0.661  0.9248 -0.6283  1.1187
  417SOL    HW2 1251   0.105   0.549   0.701  0.7155  2.4401  0.1223
  418SOL     OW 1252   2.451   0.220   1.069 -0.0086  0.0534 -0.3006
  418SOL    HW1 1253   2.382   0.218   0.996 -0.0040 -0.8365  0.0844
  418SOL    HW2 1254   2.523   0.281   1.034 -0.7457  1.5924 -2.5305
  419SOL     OW 1255   0.178   2.926   0.671  0.1554  0.0635  0.6463
  419SOL    HW1 1256   0.080   2.949   0.654  1.5113  0.6185 -0.7433
  419SOL    HW2 1257   0.191   2.834   0.710 -1.0654 -1.7863 -0.4752
  420SOL     OW 1258   0.138   1.380   1.571 -0.5552  0.1725 -0.0580
  420SOL    HW1 1259   0.197   1.460   1.606  3.3886  4.0707  0.5140
  420SOL    HW2 1260   0.068   1.410   1.506  0.0293 -2.7646  1.6808
  421SOL     OW 1261   1.275   2.952   0.567  0.1333  0.3422 -0.2884
  421SOL    HW1 1262   1.188   3.002   0.590 -5.7597 -1.3070  2.2558
  421SOL    HW2 1263   1.265   2.904   0.474 -0.5812 -0.7742 -2.4896
  422SOL     OW 1264   0.521   0.559   1.237  0.0899  0.7952 -0.0403
  422SOL    HW1 1265   0.487   0.491   1.311 -1.8985  0.7394  0.3782
  422SOL    HW2 1266   0.460   0.564   1.153  1.2375  1.7437 -1.1994
  423SOL     OW 1267   1.062   1.322   1.802 -0.2120 -0.4007  0.0536
  423SOL    HW1 1268   1.064   1.375   1.891 -1.8636  1.0626  0.7306
  423SOL    HW2 1269   1.085   1.220   1.818  0.3987 -1.0864 -0.3839
  424SOL     OW 1270   2.021   1.716   0.111  0.3083  0.0330 -0.3879
  424SOL    HW1 1271   2.018   1.804   0.164 -1.8964  2.0320 -0.1478
  424SOL    HW2 1272   1.949   1.651   0.150 -4.1492 -2.8894 -0.3108
  425SOL     OW 1273   0.126   0.189   2.060  0.2325 -0.2180 -0.3184
  425SOL    HW1 1274   0.026   0.186   2.035 -3.2595  2.0677 -0.5158
  425SOL    HW2 1275   0.131   0.159   2.158 -2.2876 -1.3713  0.3228
  426SOL     OW 1276   0.265   2.814   2.843  0.0792  0.0193 -0.3295
  426SOL    HW1 1277   0.249   2.801   2.945 -0.8943  3.1526  1.5486
  426SOL    HW2 1278   0.324   2.740   2.804 -1.7691 -0.2710  3.5444
  427SOL     OW 1279   0.948   0.892   2.791  0.3172 -0.6043 -0.1882
  427SOL    HW1 1280   1.025   0.956   2.827 -0.4013  3.2646  0.2247
  427SOL    HW2 1281   0.983   0.797   2.771 -1.7730  0.2818  1.0326
  428SOL     OW 1282   2.688   1.154   1.604  0.7063 -0.2684 -0.0621
  428SOL    HW1 1283   2.683   1.124   1.507 -0.8630 -0.4630  0.6075
  428SOL    HW2 1284   2.789   1.151   1.622  0.0464  0.9128  0.7502
  429SOL     OW 1285   2.246   2.928   0.945  0.6443 -0.2260 -0.6883
  429SOL    HW1 1286   2.284   2.860   1.011  3.2735  0.2302 -0.2430
  429SOL    HW2 1287   2.239   2.884   0.851  0.8636 -0.0773 -2.1916
  430SOL     OW 1288   0.987   1.475   2.328  0.2158  0.1545 -0.3392
  430SOL    HW1 1289   0.952   1.517   2.413 -2.4940 -2.1713 -0.8630
  430SOL    HW2 1290   1.088   1.506   2.320  1.7144  0.5508 -0.3650
  431SOL     OW 1291   2.679   1.516   1.344  0.2150  0.1368  0.2826
  431SOL    HW1 1292   2.765   1.521   1.395 -2.6371  0.7200 -1.7651
  431SOL    HW2 1293   2.650   1.422   1.305 -1.9282 -2.8320 -2.7069
  432SOL     OW 1294   1.032   2.684   2.505  0.5084 -0.3367  0.1000
  432SOL    HW1 1295   1.096   2.752   2.549 -0.0788 -0.0505  1.2181
  432SOL    HW2 1296   1.058   2.584   2.519 -0.3218 -0.6858  0.5115
  433SOL     OW 1297   1.611   0.338   2.117 -0.3706  0.1451  0.2803
  433SOL    HW1 1298   1.650   0.278   2.040  0.8458  0.5354 -1.8522
  433SOL    HW2 1299   1.639   0.435   2.107  1.0628 -2.4347 -1.1822
  434SOL     OW 1300   0.803   2.452   2.432 -0.1021 -0.2440  0.0132
  434SOL    HW1 1301   0.807   2.543   2.387  2.2392 -0.6690 -0.7771
  434SOL    HW2 1302   0.776   2.468   2.531 -0.9532  1.4696  0.8453
  435SOL     OW 1303   0.332   2.978   0.136  0.5470 -0.3315  0.1851
  435SOL    HW1 1304   0.314   3.076   0.103  1.7215  3.8410 -0.0144
  435SOL    HW2 1305   0.333   2.970   0.234 -1.2409 -1.8972 -3.6900
  436SOL     OW 1306   0.755   0.760   1.937 -0.1046 -0.0490 -0.2671
  436SOL    HW1 1307   0.712   0.850   1.910  2.4481 -2.6996  1.3780
  436SOL    HW2 1308   0.726   0.736   2.031 -1.0844 -2.6193 -2.4444
  437SOL     OW 1309   0.383   2.388   2.652  0.0518  0.3222  0.4791
  437SOL    HW1 1310   0.436   2.375   2.564 -0.8497 -0.0224 -1.4694
  437SOL    HW2 1311   0.406   2.313   2.716 -1.5916 -0.0921 -1.3229
  438SOL     OW 1312   0.791   1.423   1.614 -0.5472 -0.1242 -0.1176
  438SOL    HW1 1313   0.861   1.494   1.595 -1.0513  0.0323 -2.4632
  438SOL    HW2 1314   0.818   1.360   1.689 -0.8688  1.8150 -0.3319
  439SOL     OW 1315   2.509   0.806   2.287  0.0227  0.7134 -0.6439
  439SOL    HW1 1316   2.530   0.792   2.385  1.1134  1.0317 -1.1082
  439SOL    HW2 1317   2.445   0.883   2.268 -0.3191 -0.6278 -0.5657
  440SOL     OW 1318   0.366   0.642   0.176  0.2394 -0.8941  0.3859
  440SOL    HW1 1319   0.364   0.549   0.132 -1.7413  0.7709  1.2354
  440SOL    HW2 1320   0.422   0.641   0.266 -0.2735  0.8429  2.0085
  441SOL     OW 1321   1.351   2.337   1.618 -0.5207 -0.9161  0.0342
  441SOL    HW1 1322   1.366   2.393   1.533  0.0564  0.0384  1.0220
  441SOL    HW2 1323   1.280   2.271   1.600  1.9191 -1.7171 -0.6700
  442SOL     OW 1324   1.858   1.532   0.651 -0.0649 -0.0628 -0.0114
  442SOL    HW1 1325   1.896   1.626   0.672  0.4450  0.7833  0.9678
  442SOL    HW2 1326   1.926   1.462   0.670 -1.1372  1.3094 -0.6985
  443SOL     OW 1327   2.674   2.051   2.666 -0.3782  0.4077 -0.2164
  443SOL    HW1 1328   2.706   2.146   2.690  0.2209  2.8674  0.7798
  443SOL    HW2 1329   2.671   2.034   2.567  2.1841 -0.4554  3.2390
  444SOL     OW 1330   1.518   1.523   2.968  0.3332 -0.2989 -0.4089
  444SOL    HW1 1331   1.540   1.532   3.069  1.0950 -0.5855 -0.5524
  444SOL    HW2 1332   1.447   1.444   2.966 -5.3870 -5.1459 -0.1177
  445SOL     OW 1333   2.510   2.767   2.140  0.2730 -0.3833  0.1020
  445SOL    HW1 1334   2.591   2.827   2.130 -1.6310  1.9981 -0.5002
  445SOL    HW2 1335   2.424   2.824   2.156 -0.2032 -1.0044 -0.3861
  446SOL     OW 1336   0.787   0.819   1.553  0.0721  0.4301  0.4206
  446SOL    HW1 1337   0.836   0.779   1.470 -0.1884 -1.2159 -1.4625
  446SOL    HW2 1338   0.849   0.853   1.620  1.6028 -1.0025 -1.1568
  447SOL     OW 1339   0.948   0.924   0.962 -0.0493 -0.0103  0.5234
  447SOL    HW1 1340   0.914   0.912   1.059  0.0761  1.4389  0.7829
  447SOL    HW2 1341   1.050   0.941   0.966 -0.8838  0.5491 -0.5485
  448SOL     OW 1342   0.959   0.987   2.147 -0.3798  0.0661 -0.0792
  448SOL    HW1 1343   0.876   1.008   2.200  1.8449  0.5958 -0.4817
  448SOL    HW2 1344   1.009   0.908   2.192  0.2404  2.0574  1.2043
  449SOL     OW 1345   0.095   2.041   2.293 -0.4324  0.2718 -0.2704
  449SOL    HW1 1346   0.051   1.975   2.356 -0.3392  3.3118  0.5786
  449SOL    HW2 1347   0.190   2.064   2.325  0.3040 -1.8409  1.2171
  450SOL     OW 1348   2.551   1.905   2.052 -0.6064 -0.1827  0.0360
  450SOL    HW1 1349   2.627   1.889   2.121  2.7353 -1.6179  0.7362
  450SOL    HW2 1350   2.460   1.871   2.079  0.0299  2.1161  1.2667
  451SOL     OW 1351   2.596   1.244   1.306 -0.0032  0.5649  0.9185
  451SOL    HW1 1352   2.503   1.214   1.275 -0.5628  0.6328  1.2114
  451SOL    HW2 1353   2.660   1.165   1.326 -2.6137  2.0196  0.7919
  452SOL     OW 1354   0.171   1.156   1.425  0.3854 -0.0906 -0.3548
  452SOL    HW1 1355   0.154   1.239   1.485 -1.4754  2.0153  1.1327
  452SOL    HW2 1356   0.250   1.162   1.363 -2.1053 -1.1851  0.9100
  453SOL     OW 1357   0.264   1.028   0.783 -0.2955  0.3747  0.3310
  453SOL    HW1 1358   0.285   0.962   0.856 -0.9733 -2.1777  2.6533
  453SOL    HW2 1359   0.225   0.978   0.703  0.8138 -0.0487 -2.7233
  454SOL     OW 1360   0.315   1.476   0.374 -0.0488  0.5249  0.1124
  454SOL    HW1 1361   0.371   1.519   0.292  0.6213  2.0229 -2.4489
  454SOL    HW2 1362   0.376   1.410   0.423  2.9465  0.5371  1.7353
  455SOL     OW 1363   1.855   0.885   1.031 -0.0321 -0.5098 -1.0304
  455SOL    HW1 1364   1.825   0.960   0.969 -1.3341 -0.2342  1.1391
  455SOL    HW2 1365   1.950   0.890   1.066  1.7433  3.5775 -0.2448
  456SOL     OW 1366   1.620   2.372   0.864  0.3805 -0.1598 -0.4341
  456SOL    HW1 1367   1.580   2.467   0.848  4.9398  2.7827  0.8795
  456SOL    HW2 1368   1.695   2.357   0.797  0.1557 -0.7679  1.0578
  457SOL     OW 1369   1.953   0.200   2.620 -0.1305  0.3292 -0.7498
  457SOL    HW1 1370   1.927   0.149   2.530  3.8504  0.0113 -2.6417
  457SOL    HW2 1371   1.946   0.300   2.605 -0.1090 -0.4837  0.8534
  458SOL     OW 1372   2.513   0.421   0.009 -0.2069 -0.1927  0.6332
  458SOL    HW1 1373   2.444   0.353   3.094  0.2677 -0.0651 -0.5535
  458SOL    HW2 1374   2.610   0.398   3.096 -1.1514  1.1077  1.3713
  459SOL     OW 1375   3.049   1.322   2.121 -0.0456 -0.3865  0.2811
  459SOL    HW1 1376   3.069   1.392   2.195 -0.9638  2.6822  1.6677
  459SOL    HW2 1377   2.973   1.266   2.160 -2.1894 -0.2222 -0.3264
  460SOL     OW 1378   0.192   0.703   2.964 -0.2489 -0.3706  0.1824
  460SOL    HW1 1379   0.153   0.697   2.871 -0.3588  0.2538  4.6318
  460SOL    HW2 1380   0.293   0.692   2.966  2.5364  0.9398 -2.8769
  461SOL     OW 1381   0.023   2.344   0.714  0.2153 -0.2805 -0.5269
  461SOL    HW1 1382   0.059   2.266   0.770  2.4605  1.5265 -0.7073
  461SOL    HW2 1383   0.022   2.312   0.618 -0.0590 -3.8543  2.1760
  462SOL     OW 1384   0.085   3.038   1.622  0.1235  0.0948 -0.4195
  462SOL    HW1 1385   0.047   2.957   1.666 -1.7955 -2.1861 -2.3124
  462SOL    HW2 1386   0.015   3.072   1.552  0.5940 -0.7144 -1.3511
  463SOL     OW 1387   2.008   2.071   2.045 -0.1666 -0.0600  0.6666
  463SOL    HW1 1388   2.102   2.082   2.003 -1.3843  2.7486 -1.7645
  463SOL    HW2 1389   1.940   2.123   1.989 -0.0147  3.1534 -0.1679
  464SOL     OW 1390   0.331   2.915   1.150  0.7506  0.8716  0.1957
  464SOL    HW1 1391   0.315   2.981   1.226 -1.9872 -0.6055  1.9254
  464SOL    HW2 1392   0.342   2.966   1.056  2.7368 -0.0405 -1.5372
  465SOL     OW 1393   0.454   0.113   1.472 -0.3576  0.3649 -0.2264
  465SOL    HW1 1394   0.436   0.090   1.573  0.8397  0.5514 -1.0490
  465SOL    HW2 1395   0.448   0.212   1.453 -2.7373 -1.3467 -1.0521
  466SOL     OW 1396   1.263   2.062   2.337  0.3459  0.7488  0.4847
  466SOL    HW1 1397   1.235   1.973   2.292  1.4168 -0.8087  0.1333
  466SOL    HW2 1398   1.207   2.139   2.299 -0.2040 -0.4167 -2.2491
  467SOL     OW 1399   2.963   1.301   0.787  0.4150  0.8357 -0.3903
  467SOL    HW1 1400   2.962   1.383   0.842 -1.8618  1.2473 -0.7470
  467SOL    HW2 1401   2.896   1.313   0.715  2.0689  0.6472  0.1747
  468SOL     OW 1402   2.327   1.829   2.764 -0.6086  0.3627  0.5965
  468SOL    HW1 1403   2.276   1.761   2.814  0.3947  1.5582  0.9457
  468SOL    HW2 1404   2.306   1.830   2.662  5.1259 -1.6910  0.9796
  469SOL     OW 1405   1.052   2.162   0.417 -0.4077 -0.6201 -0.4316
  469SOL    HW1 1406   1.126   2.232   0.424 -1.2484  1.0533  0.0172
  469SOL    HW2 1407   1.086   2.080   0.468  2.8445 -0.5203 -0.1325
  470SOL     OW 1408   2.035   1.784   1.400  0.1013  0.4484  0.7275
  470SOL    HW1 1409   2.019   1.886   1.405  2.6527 -1.0527 -1.7782
  470SOL    HW2 1410   2.040   1.744   1.487 -2.1066  0.0733 -0.8524
  471SOL     OW 1411   0.493   2.364   0.260  0.3372 -0.1657  0.5318
  471SOL    HW1 1412   0.527   2.446   0.309  0.0829 -0.1350 -0.5542
  471SOL    HW2 1413   0.449   2.388   0.170  0.1427 -0.1213 -0.9199
  472SOL     OW 1414   2.455   1.763   2.361 -0.1837  0.0870 -0.0525
  472SOL    HW1 1415   2.476   1.702   2.440  2.5020  1.1431  0.5258
  472SOL    HW2 1416   2.366   1.808   2.372  0.7702  0.1991  0.7684
  473SOL     OW 1417   1.473   2.608   0.824 -0.2004 -0.1753  0.1560
  473SOL    HW1 1418   1.402   2.609   0.896  0.1700 -0.7090 -0.3313
  473SOL    HW2 1419   1.487   2.699   0.787  0.0873  0.1829 -0.2689
  474SOL     OW 1420   3.000   3.080   1.437  0.0046 -0.4176 -0.0626
  474SOL    HW1 1421   2.996   2.980   1.415  0.6225 -1.1272 -0.2365
  474SOL    HW2 1422   2.907   3.110   1.473 -0.3295  0.2379 -1.0086
  475SOL     OW 1423   1.971   3.024   1.984  1.0392 -0.0219  0.2837
  475SOL    HW1 1424   2.026   3.073   2.050 -1.6211  0.2095 -1.7782
  475SOL    HW2 1425   1.870   3.039   1.995  0.9682  0.7373  0.6061
  476SOL     OW 1426   0.445   0.665   0.882 -1.1162 -0.0973 -0.1016
  476SOL    HW1 1427   0.527   0.664   0.813  0.7081  2.8623 -2.5391
  476SOL    HW2 1428   0.411   0.571   0.891  0.4150 -0.3343 -1.9507
  477SOL     OW 1429   0.701   2.093   0.987  0.0298 -0.1070  0.0177
  477SOL    HW1 1430   0.646   2.138   0.910 -0.2327  0.7694 -2.3621
  477SOL    HW2 1431   0.784   2.154   1.005  0.9330 -0.2455  0.2008
  478SOL     OW 1432   0.705   2.528   2.677 -0.2481 -0.2814  0.0875
  478SOL    HW1 1433   0.788   2.584   2.697  0.2763 -0.8234  2.0055
  478SOL    HW2 1434   0.632   2.594   2.656  1.6602 -0.0959  1.2838
  479SOL     OW 1435   0.110   0.764   2.163 -0.1626  0.1138  0.1817
  479SOL    HW1 1436   0.027   0.824   2.153 -2.4982  2.3659 -2.0054
  479SOL    HW2 1437   0.099   0.670   2.121 -1.2064  0.9106  1.6660
  480SOL     OW 1438   0.211   2.303   2.949  0.2939  0.3277 -1.0773
  480SOL    HW1 1439   0.168   2.215   2.986 -0.3481  0.6043  0.1299
  480SOL    HW2 1440   0.155   2.347   2.878 -1.3111  2.0097 -1.4520
  481SOL     OW 1441   1.661   0.074   2.229  0.0232 -0.3783 -0.2194
  481SOL    HW1 1442   1.750   0.068   2.279  2.3401  0.8893  0.6325
  481SOL    HW2 1443   1.628   0.173   2.232 -0.0221  3.1287  0.3984
  482SOL     OW 1444   1.634   1.970   3.089 -0.8829 -0.6233 -0.0766
  482SOL    HW1 1445   1.656   1.915   0.052 -0.6213  6.2521 -5.0187
  482SOL    HW2 1446   1.532   1.981   3.075 -0.5535  0.2165  0.4533
  483SOL     OW 1447   1.254   2.801   2.619 -0.8737 -0.1136 -0.0094
  483SOL    HW1 1448   1.329   2.734   2.613 -3.0802 -0.4230  0.4054
  483SOL    HW2 1449   1.277   2.874   2.686  1.0848  1.2943  1.2702
  484SOL     OW 1450   0.544   2.740   0.820 -0.2381 -0.1305  0.2148
  484SOL    HW1 1451   0.627   2.800   0.823  1.5079 -1.2677 -0.6557
  484SOL    HW2 1452   0.505   2.725   0.914 -0.7697 -0.2916  0.7033
  485SOL     OW 1453   2.054   0.762   0.686 -0.3126  0.1960 -0.4234
  485SOL    HW1 1454   2.069   0.865   0.695  0.5797  2.8122  1.7813
  485SOL    HW2 1455   2.089   0.718   0.774 -1.0518  0.9625  0.3054
  486SOL     OW 1456   1.963   2.762   2.107  0.7068 -0.2529 -0.6223
  486SOL    HW1 1457   2.045   2.732   2.161 -0.0976 -0.1106 -1.7081
  486SOL    HW2 1458   1.973   2.854   2.066  1.6049 -1.0577  1.1006
  487SOL     OW 1459   1.150   1.972   0.586 -0.4560  0.9402  1.2118
  487SOL    HW1 1460   1.086   1.890   0.576 -2.5199 -2.8149 -4.3265
  487SOL    HW2 1461   1.190   1.989   0.678 -0.5012  0.2830 -0.3394
  488SOL     OW 1462   2.057   0.236   0.144  0.3202  0.3392  0.2892
  488SOL    HW1 1463   2.115   0.298   0.203  0.0048  3.7989  1.6898
  488SOL    HW2 1464   2.070   0.242   0.042 -0.1268  1.5002 -0.2462
  489SOL     OW 1465   1.993   2.969   0.533 -0.5090 -0.0172  0.1074
  489SOL    HW1 1466   1.980   3.072   0.531  2.0012  2.7312  1.8069
  489SOL    HW2 1467   1.906   2.921   0.548 -1.2180  2.0814  0.5205
  490SOL     OW 1468   1.722   2.935   3.020 -0.3290  0.0936  0.3764
  490SOL    HW1 1469   1.818   2.972   3.013 -0.0855  1.8472 -0.0438
  490SOL    HW2 1470   1.653   2.992   3.065  1.3213 -0.7325 -1.1439
  491SOL     OW 1471   0.985   0.230   1.022 -0.0710 -0.0200  0.0004
  491SOL    HW1 1472   1.071   0.189   1.057  1.7828 -0.3457  0.5233
  491SOL    HW2 1473   0.919   0.155   1.014 -0.5811  0.6411 -0.3236
  492SOL     OW 1474   1.596   2.860   0.336 -0.0218  0.3483 -0.4525
  492SOL    HW1 1475   1.647   2.857   0.422 -0.9994 -2.7604 -3.3134
  492SOL    HW2 1476   1.661   2.884   0.264 -2.5462 -2.0597  1.3851
  493SOL     OW 1477   1.828   2.620   2.747 -0.3093  0.1596  0.4706
  493SOL    HW1 1478   1.747   2.627   2.818 -4.1612 -0.6801 -0.0601
  493SOL    HW2 1479   1.871   2.526   2.764 -2.0126 -0.4848 -0.2270
  494SOL     OW 1480   0.729   1.203   0.881 -0.0857  0.0473  0.0257
  494SOL    HW1 1481   0.668   1.166   0.950  1.4434  1.4036  0.4670
  494SOL    HW2 1482   0.826   1.174   0.902  0.1590 -0.4930  0.6367
  495SOL     OW 1483   3.039   0.182   1.787 -0.1295  0.1775 -0.0543
  495SOL    HW1 1484   0.016   0.186   1.746  0.6801 -0.0889  1.0637
  495SOL    HW2 1485   3.029   0.098   1.847  0.2209  0.6611  1.0208
  496SOL     OW 1486   2.591   2.332   2.218  0.3361 -0.4490 -0.4687
  496SOL    HW1 1487   2.628   2.381   2.140 -1.9830 -0.9130  0.8398
  496SOL    HW2 1488   2.546   2.397   2.284  1.1860  2.4279  0.4809
  497SOL     OW 1489   1.469   1.186   2.684 -0.1443  0.6946 -0.5659
  497SOL    HW1 1490   1.445   1.177   2.586  1.1089  2.2382  2.2616
  497SOL    HW2 1491   1.498   1.092   2.716 -2.1757 -2.0413 -2.7143
  498SOL     OW 1492   0.737   1.868   0.685 -0.2226  0.3238 -0.3180
  498SOL    HW1 1493   0.693   1.844   0.775  0.4847 -0.7338 -0.9561
  498SOL    HW2 1494   0.730   1.968   0.678 -1.1832  1.1887  0.8677
  499SOL     OW 1495   0.298   1.627   1.173 -0.2105  0.2556 -0.3967
  499SOL    HW1 1496   0.202   1.617   1.143  0.6898  0.5008  2.6042
  499SOL    HW2 1497   0.306   1.684   1.259  3.0001  1.8234 -0.3915
  500SOL     OW 1498   1.547   2.532   0.474 -0.1385  0.4788 -0.1072
  500SOL    HW1 1499   1.492   2.601   0.423  0.5461  1.5524 -0.4576
  500SOL    HW2 1500   1.496   2.455   0.515 -0.0820 -1.2146 -0.2254
  501SOL     OW 1501   1.993   2.469   1.036  0.0132  0.2382 -0.1303
  501SOL    HW1 1502   2.092   2.465   1.054 -1.5453 -0.4167  0.9822
  501SOL    HW2 1503   1.955   2.562   1.028 -1.5337 -0.2527  1.8970
  502SOL     OW 1504   0.427   0.806   1.315 -0.3688  0.0006  0.3564
  502SOL    HW1 1505   0.329   0.799   1.287  1.8131 -1.7164  2.2128
  502SOL    HW2 1506   0.472   0.715   1.310 -1.8462  0.9167  2.3684
  503SOL     OW 1507   2.138   0.160   1.647 -0.7588  0.3684  0.2781
  503SOL    HW1 1508   2.053   0.132   1.598  0.8380 -0.4324  0.9305
  503SOL    HW2 1509   2.220   0.096   1.629  0.0498  1.9471 -0.3482
  504SOL     OW 1510   2.061   0.945   1.969  0.3369 -0.0436  0.1508
  504SOL    HW1 1511   2.030   0.949   2.067  1.3762  0.3424  2.7792
  504SOL    HW2 1512   2.003   1.007   1.912  2.9603  0.0800 -2.7096
  505SOL     OW 1513   1.214   3.082   2.133 -0.2719 -0.0773 -0.0492
  505SOL    HW1 1514   1.224   0.060   2.135 -1.5021 -0.7338  0.7360
  505SOL    HW2 1515   1.278   3.034   2.194  0.3928 -0.1068 -0.6542
  506SOL     OW 1516   0.420   0.298   1.761  0.2179 -0.2296  0.3038
  506SOL    HW1 1517   0.428   0.396   1.748  0.9988 -1.7564  1.4607
  506SOL    HW2 1518   0.492   0.268   1.823 -1.9117  0.0332 -0.7656
  507SOL     OW 1519   1.685   0.199   3.013  0.0647  0.6325  0.3791
  507SOL    HW1 1520   1.689   0.270   3.085  2.1048 -0.2429 -1.3240
  507SOL    HW2 1521   1.641   0.114   3.052 -1.6401 -1.1573  1.6524
  508SOL     OW 1522   2.319   0.610   2.466 -0.0345 -0.4155  0.1493
  508SOL    HW1 1523   2.344   0.576   2.558 -0.6964 -1.2980  2.3498
  508SOL    HW2 1524   2.398   0.659   2.423 -0.4512  3.2414 -0.2803
  509SOL     OW 1525   0.663   1.370   1.984 -0.3898  0.6120 -0.1683
  509SOL    HW1 1526   0.697   1.362   2.079 -1.5563  2.7117  1.1585
  509SOL    HW2 1527   0.692   1.457   1.935  1.3840  0.8276  1.6644
  510SOL     OW 1528   2.851   0.558   1.009  0.2809 -0.4947  0.2069
  510SOL    HW1 1529   2.885   0.578   0.915  1.7703 -0.0204 -0.8342
  510SOL    HW2 1530   2.754   0.520   1.011 -0.2634 -0.0319 -2.0339
  511SOL     OW 1531   1.748   1.481   1.107  0.5135 -0.0478  0.4348
  511SOL    HW1 1532   1.736   1.545   1.024 -3.6821  3.8783  0.6677
  511SOL    HW2 1533   1.777   1.539   1.185 -0.0250 -2.7461  0.9782
  512SOL     OW 1534   0.653   1.246   0.373 -0.1211  0.1536  0.0254
  512SOL    HW1 1535   0.569   1.198   0.356 -1.2663  0.8505  1.8556
  512SOL    HW2 1536   0.646   1.338   0.416  0.8905 -0.2203 -0.7830
  513SOL     OW 1537   0.538   2.216   0.799 -0.2759  0.4066 -0.3783
  513SOL    HW1 1538   0.447   2.213   0.751  2.0219  0.6635 -2.7512
  513SOL    HW2 1539   0.569   2.308   0.823  0.6877  0.3450  2.2169
  514SOL     OW 1540   0.064   2.101   0.014  0.2129  0.0098  0.7164
  514SOL    HW1 1541   0.012   2.173   0.058  2.1754 -0.8009 -2.0181
  514SOL    HW2 1542   0.116   2.060   0.089 -1.9967 -2.0679  0.6024
  515SOL     OW 1543   2.932   0.314   0.131  0.4808  0.2244 -0.0073
  515SOL    HW1 1544   2.895   0.219   0.129 -1.7165  1.3520  4.5721
  515SOL    HW2 1545   2.939   0.344   0.228  0.1856  1.3801  0.6322
  516SOL     OW 1546   1.971   2.965   0.999  0.7500 -0.4228 -0.2798
  516SOL    HW1 1547   1.927   2.992   1.088  0.1060  0.2579 -1.6285
  516SOL    HW2 1548   2.067   2.942   1.015  0.4270 -1.5150  0.8812
  517SOL     OW 1549   1.233   1.621   0.358 -0.4301 -0.2031  0.1033
  517SOL    HW1 1550   1.291   1.658   0.433 -0.0799  2.7640 -0.2782
  517SOL    HW2 1551   1.143   1.575   0.389 -2.3433 -0.4475  1.5601
  518SOL     OW 1552   1.601   0.775   1.386  0.5381 -0.5751  0.0952
  518SOL    HW1 1553   1.551   0.723   1.318  1.2889  1.1968  2.4750
  518SOL    HW2 1554   1.659   0.848   1.341  2.0356  0.8072 -0.2744
  519SOL     OW 1555   2.639   2.242   0.457  0.0875  0.5867  0.6789
  519SOL    HW1 1556   2.645   2.154   0.510  0.6979  0.4448 -0.8517
  519SOL    HW2 1557   2.670   2.231   0.357 -3.2979 -1.7821 -0.4728
  520SOL     OW 1558   2.272   2.112   1.894  0.1699 -0.3766 -0.0944
  520SOL    HW1 1559   2.298   2.022   1.851  1.5972  0.7341  0.3541
  520SOL    HW2 1560   2.336   2.194   1.878  1.2056  1.8876 -2.0413
  521SOL     OW 1561   1.557   2.931   2.305 -0.4428  0.4437  0.0529
  521SOL    HW1 1562   1.545   2.876   2.387 -0.6690  1.8967 -0.4913
  521SOL    HW2 1563   1.608   3.021   2.320  1.8603 -1.4881  0.1876
  522SOL     OW 1564   2.862   0.184   2.121 -0.1757  0.3843 -0.5793
  522SOL    HW1 1565   2.930   0.214   2.190  0.3132 -1.1748  0.6375
  522SOL    HW2 1566   2.894   0.106   2.060  1.8901  0.2769 -2.7163
  523SOL     OW 1567   1.147   2.092   1.571 -0.0776  0.6428  0.5355
  523SOL    HW1 1568   1.095   2.127   1.656  0.4839 -0.4121 -1.0595
  523SOL    HW2 1569   1.080   2.080   1.495 -0.5265  1.5446  3.1513
  524SOL     OW 1570   2.106   2.161   2.865 -0.0900 -0.3056  0.1102
  524SOL    HW1 1571   2.198   2.125   2.877 -2.2183 -0.0904 -1.5128
  524SOL    HW2 1572   2.052   2.106   2.802  0.9568  2.8672 -0.2460
  525SOL     OW 1573   2.719   1.008   0.215 -0.3891 -0.2483 -0.1782
  525SOL    HW1 1574   2.758   0.926   0.256 -1.0269  4.1015 -2.0594
  525SOL    HW2 1575   2.682   0.994   0.122 -1.3916  0.7604  3.8422
  526SOL     OW 1576   1.164   2.877   1.014  0.2691 -0.1502 -0.8644
  526SOL    HW1 1577   1.153   2.780   0.990 -2.2802  1.9019  3.4333
  526SOL    HW2 1578   1.072   2.926   1.031 -0.9875  0.6535 -0.3034
  527SOL     OW 1579   2.272   1.530   0.579  0.2800  0.0354 -0.5881
  527SOL    HW1 1580   2.191   1.473   0.575  1.7606  2.2207 -1.1979
  527SOL    HW2 1581   2.341   1.497   0.513 -0.9473 -2.6115  0.6029
  528SOL     OW 1582   0.543   0.767   2.593 -0.8213  0.6641 -0.1004
  528SOL    HW1 1583   0.625   0.799   2.538  1.9231  0.2461 -1.9361
  528SOL    HW2 1584   0.459   0.749   2.534 -0.4220  0.2323 -0.1183
  529SOL     OW 1585   0.444   1.384   0.008 -0.5881  0.3436  0.0136
  529SOL    HW1 1586   0.345   1.396   3.088 -1.6670  0.3177 -0.3975
  529SOL    HW2 1587   0.457   1.282   0.030  0.1674  0.2896 -0.8214
  530SOL     OW 1588   1.487   1.166   1.975  0.1859 -0.2888  0.0639
  530SOL    HW1 1589   1.578   1.130   2.001  0.1634 -2.2398 -1.4245
  530SOL    HW2 1590   1.416   1.107   2.025 -0.5306 -0.0019  0.3674
  531SOL     OW 1591   1.318   2.228   2.865  0.0746 -0.5183  0.1176
  531SOL    HW1 1592   1.231   2.223   2.811 -0.9911  1.6887 -0.7164
  531SOL    HW2 1593   1.353   2.139   2.904 -1.2327  0.1535 -0.2127
  532SOL     OW 1594   2.318   0.601   0.022 -0.2794 -0.1309 -0.0161
  532SOL    HW1 1595   2.302   0.624   0.119  0.1120 -1.1682  1.1361
  532SOL    HW2 1596   2.401   0.544   0.006 -1.3138 -0.4023 -2.6923
  533SOL     OW 1597   3.008   0.465   1.861  0.5300 -0.3025  0.0107
  533SOL    HW1 1598   3.044   0.379   1.841  0.2227  2.9265 -1.6408
  533SOL    HW2 1599   2.915   0.470   1.906  0.3746 -0.2398 -0.0092
  534SOL     OW 1600   1.878   0.104   0.297  0.0448 -0.8229  0.0320
  534SOL    HW1 1601   1.847   0.013   0.254  1.8589  0.0063 -0.4317
  534SOL    HW2 1602   1.946   0.154   0.238 -0.0717  0.3020  0.7987
  535SOL     OW 1603   0.641   0.305   3.076 -0.1112 -0.5230  0.0328
  535SOL    HW1 1604   0.739   0.338   3.077  2.1656  0.6886  0.8323
  535SOL    HW2 1605   0.615   0.256   2.990  2.4984  0.1228 -1.7752
  536SOL     OW 1606   0.300   1.568   1.695 -0.6740 -0.1666 -0.4134
  536SOL    HW1 1607   0.267   1.666   1.695  0.4796 -0.9892 -1.3595
  536SOL    HW2 1608   0.382   1.555   1.637 -0.2031 -0.3834 -1.4515
  537SOL     OW 1609   0.268   2.656   1.979 -0.0340 -0.3767  0.1393
  537SOL    HW1 1610   0.316   2.674   1.888  0.4671  0.7339 -2.5083
  537SOL    HW2 1611   0.274   2.734   2.044  0.4237 -0.0070 -1.0021
  538SOL     OW 1612   3.002   2.288   0.189 -0.0938  0.3169  0.0521
  538SOL    HW1 1613   2.986   2.371   0.248 -0.1561 -1.0157  0.1798
  538SOL    HW2 1614   2.932   2.221   0.209  1.3778  2.5715  1.2702
  539SOL     OW 1615   2.500   0.649   2.854  0.0089 -0.1475 -0.2322
  539SOL    HW1 1616   2.591   0.682   2.831 -0.0143 -0.8693  1.9328
  539SOL    HW2 1617   2.456   0.707   2.922 -0.2793 -1.0604 -0.3008
  540SOL     OW 1618   1.687   0.749   0.236 -0.5595 -0.4564 -0.1045
  540SOL    HW1 1619   1.745   0.825   0.195  1.0213  2.5131  1.0592
  540SOL    HW2 1620   1.591   0.765   0.213 -2.0138  1.6264 -0.4356
  541SOL     OW 1621   0.829   0.435   1.818 -0.0174 -0.2708 -0.7314
  541SOL    HW1 1622   0.893   0.491   1.877  0.4376  0.4943  0.2420
  541SOL    HW2 1623   0.764   0.494   1.772 -0.6159  1.1152  1.2237
  542SOL     OW 1624   1.902   2.488   2.246 -0.2847  0.0856  0.3323
  542SOL    HW1 1625   1.818   2.542   2.232  1.5802  0.4002 -0.6499
  542SOL    HW2 1626   1.949   2.473   2.160 -1.9476  0.9344  1.3613
  543SOL     OW 1627   0.912   2.902   0.661  0.0510  0.0961 -0.4095
  543SOL    HW1 1628   0.995   2.957   0.679 -3.5532 -3.1443  0.4366
  543SOL    HW2 1629   0.884   2.898   0.561  0.4715 -0.8158 -0.2348
  544SOL     OW 1630   2.654   1.640   2.210 -0.1582 -0.1610 -0.7089
  544SOL    HW1 1631   2.743   1.690   2.197  0.1117 -0.6844 -3.0847
  544SOL    HW2 1632   2.589   1.713   2.256 -1.1223  3.7189 -0.1205
  545SOL     OW 1633   1.543   1.932   1.366 -0.2416 -0.2736  0.0446
  545SOL    HW1 1634   1.447   1.969   1.363  1.6350 -1.1366 -1.1725
  545SOL    HW2 1635   1.541   1.833   1.387 -3.5656  1.3636  0.4001
  546SOL     OW 1636   0.734   0.100   2.393  0.1520  0.3736  0.1630
  546SOL    HW1 1637   0.682   0.190   2.406 -0.8054  4.4300  2.0188
  546SOL    HW2 1638   0.671   0.018   2.407 -3.9552 -2.0363  0.3070
  547SOL     OW 1639   1.277   0.303   0.477  0.2905  0.0879  0.3635
  547SOL    HW1 1640   1.242   0.295   0.569  4.8296  2.9831 -0.1969
  547SOL    HW2 1641   1.204   0.323   0.408  2.8886  0.3603 -0.2072
  548SOL     OW 1642   1.375   1.988   3.050  0.2726 -0.2935 -0.2096
  548SOL    HW1 1643   1.388   1.908   2.987  0.1969  1.0519 -0.0999
  548SOL    HW2 1644   1.278   1.989   3.085  0.5190 -2.6306 -0.2846
  549SOL     OW 1645   1.850   0.941   0.113  0.8083  0.0009  0.5642
  549SOL    HW1 1646   1.925   0.937   0.182  0.3068 -0.7910 -0.2846
  549SOL    HW2 1647   1.811   1.036   0.092  0.1343  0.4679 -2.2369
  550SOL     OW 1648   2.326   2.005   0.271  0.0609 -0.2223  0.6673
  550SOL    HW1 1649   2.303   1.923   0.324 -0.9932  2.0417  0.7647
  550SOL    HW2 1650   2.336   2.084   0.331  0.4921 -1.7634 -0.8762
  551SOL     OW 1651   1.474   0.620   1.583  0.0551  0.2097  0.1811
  551SOL    HW1 1652   1.518   0.673   1.509 -3.1388 -1.3040  1.6342
  551SOL    HW2 1653   1.545   0.587   1.652  0.3316 -0.8167  0.3786
  552SOL     OW 1654   3.108   2.472   2.859  0.7263 -0.4277 -0.1304
  552SOL    HW1 1655   3.016   2.436   2.827 -1.4011 -3.0873  1.4792
  552SOL    HW2 1656   3.095   2.517   2.951  1.9979  0.8738 -2.5402
  553SOL     OW 1657   2.885   2.441   0.766  0.3301  0.2176  0.3679
  553SOL    HW1 1658   2.982   2.407   0.747  1.8368 -0.5216  0.1451
  553SOL    HW2 1659   2.844   2.379   0.837  0.8005 -2.6735  1.1742
  554SOL     OW 1660   2.039   1.754   1.697  1.1416 -0.0413 -0.3269
  554SOL    HW1 1661   2.069   1.661   1.714 -1.4739  1.3360  0.6772
  554SOL    HW2 1662   1.942   1.772   1.724  0.2487 -0.2871 -0.5774
  555SOL     OW 1663   1.544   2.072   2.326 -0.0995 -0.2143  0.1189
  555SOL    HW1 1664   1.460   2.032   2.372 -0.7355  0.7425 -0.4864
  555SOL    HW2 1665   1.527   2.168   2.298 -0.4590  1.0631 -0.2716
  556SOL     OW 1666   1.224   1.651   1.441 -0.0334  0.0264 -0.2050
  556SOL    HW1 1667   1.230   1.713   1.522  0.9950  2.1191 -0.4631
  556SOL    HW2 1668   1.283   1.564   1.450 -2.3057 -2.4858  1.7656
  557SOL     OW 1669   1.586   0.286   1.654 -0.3290  0.1416  0.5472
  557SOL    HW1 1670   1.633   0.283   1.741 -2.2800  0.5900 -3.2784
  557SOL    HW2 1671   1.493   0.244   1.672  1.5098 -2.3306  3.0532
  558SOL     OW 1672   0.466   3.060   2.099  0.0523 -0.0718 -0.2971
  558SOL    HW1 1673   0.456   3.071   1.998 -0.2963  0.8987 -1.3284
  558SOL    HW2 1674   0.471   0.034   2.146 -0.6360 -0.0983  0.8642
  559SOL     OW 1675   2.138   2.353   0.126 -0.0700 -0.1613  0.2314
  559SOL    HW1 1676   2.094   2.442   0.096 -1.9402 -1.3489 -2.1875
  559SOL    HW2 1677   2.126   2.342   0.226  0.7925 -0.1267 -3.3288
  560SOL     OW 1678   1.352   2.237   0.257 -0.3676 -0.0316 -0.5035
  560SOL    HW1 1679   1.371   2.160   0.315  2.4255  1.5595 -2.1550
  560SOL    HW2 1680   1.446   2.277   0.231 -0.8917  2.1771 -1.8560
  561SOL     OW 1681   1.287   0.355   0.025  0.2414  0.1553 -0.3353
  561SOL    HW1 1682   1.245   0.420   3.075 -0.3069  0.4028 -0.5700
  561SOL    HW2 1683   1.374   0.392   0.067 -1.9202  0.9210 -0.7896
  562SOL     OW 1684   0.289   1.468   2.186  0.2000  0.1413 -0.5207
  562SOL    HW1 1685   0.263   1.369   2.195  1.3721 -1.0889  0.7249
  562SOL    HW2 1686   0.347   1.477   2.099  0.0251  0.1906  1.2962
  563SOL     OW 1687   1.247   2.034   2.648 -0.2362  0.5439  0.2517
  563SOL    HW1 1688   1.254   2.047   2.545  0.5658  2.8473 -1.5791
  563SOL    HW2 1689   1.344   2.012   2.670  2.1598 -0.4971 -0.2003
  564SOL     OW 1690   2.843   0.983   0.702 -0.2460  0.2182  0.1095
  564SOL    HW1 1691   2.739   0.989   0.692 -0.5909 -0.7010  0.9762
  564SOL    HW2 1692   2.870   1.036   0.779  0.8139 -1.9725 -4.6107
  565SOL     OW 1693   0.475   1.122   0.071  0.3032 -0.2291  0.0548
  565SOL    HW1 1694   0.433   1.060   0.001 -2.0048  1.8402 -0.4597
  565SOL    HW2 1695   0.443   1.095   0.165  2.3537 -0.5237 -1.2582
  566SOL     OW 1696   2.585   2.755   2.618  0.1549  0.3596 -0.3803
  566SOL    HW1 1697   2.673   2.705   2.642 -0.3886 -1.2140 -1.2086
  566SOL    HW2 1698   2.536   2.801   2.697 -3.2709  1.0657  1.5145
  567SOL     OW 1699   1.638   1.259   1.203  0.3777 -0.1577  0.0066
  567SOL    HW1 1700   1.656   1.345   1.145  0.7413 -4.0022 -0.0990
  567SOL    HW2 1701   1.700   1.260   1.285  1.5700  2.3332 -1.6231
  568SOL     OW 1702   1.343   1.327   2.913  0.1464  0.4901  0.0881
  568SOL    HW1 1703   1.260   1.387   2.891 -2.5611  0.5100  2.3592
  568SOL    HW2 1704   1.384   1.298   2.825 -2.3737  0.5246  0.8330
  569SOL     OW 1705   2.258   1.733   3.048  0.1121  0.6182 -0.2127
  569SOL    HW1 1706   2.321   1.809   3.079  0.5767  0.8690 -0.8604
  569SOL    HW2 1707   2.187   1.716   0.004 -2.1665  1.2618  0.7037
  570SOL     OW 1708   2.977   2.432   1.823  0.0571 -0.1838  0.2419
  570SOL    HW1 1709   3.031   2.349   1.832  0.3389  2.1320  1.0372
  570SOL    HW2 1710   3.032   2.513   1.862  2.1184  0.1341  1.5034
  571SOL     OW 1711   2.866   1.840   1.638 -0.7863 -0.4959  0.3321
  571SOL    HW1 1712   2.845   1.786   1.554  0.7671 -1.6735  3.2397
  571SOL    HW2 1713   2.849   1.791   1.725  2.1255  1.0323  0.5677
  572SOL     OW 1714   1.790   2.246   0.394 -1.2743 -0.0379  0.0669
  572SOL    HW1 1715   1.742   2.284   0.315 -0.8423 -1.9029 -0.4460
  572SOL    HW2 1716   1.890   2.282   0.410  4.3737  3.2834  1.3704
  573SOL     OW 1717   1.381   2.015   0.406  0.1469 -0.6532  0.8552
  573SOL    HW1 1718   1.478   2.007   0.438 -1.3213 -1.6928  1.1723
  573SOL    HW2 1719   1.323   1.984   0.480 -0.8587  0.1900 -2.3824
  574SOL     OW 1720   1.535   3.113   1.471  0.1775  0.2035 -0.0497
  574SOL    HW1 1721   1.584   3.022   1.461  0.4212  0.7177 -0.4312
  574SOL    HW2 1722   1.545   0.036   1.559  1.9290  1.3950 -2.2113
  575SOL     OW 1723   0.399   1.181   1.287  0.4115  0.2465 -0.1292
  575SOL    HW1 1724   0.477   1.123   1.261  0.1596  1.5502  1.3990
  575SOL    HW2 1725   0.397   1.267   1.236  1.0613 -0.6170  0.2236
  576SOL     OW 1726   2.700   0.637   1.354 -0.0663 -0.2776 -0.3035
  576SOL    HW1 1727   2.772   0.576   1.393 -0.0231  0.1079  0.5812
  576SOL    HW2 1728   2.613   0.585   1.336 -3.0471 -0.2441  0.4682
  577SOL     OW 1729   1.506   0.801   2.586 -0.1117  0.3688 -0.2953
  577SOL    HW1 1730   1.447   0.821   2.673 -0.7683 -2.4325  2.6808
  577SOL    HW2 1731   1.461   0.826   2.499  1.3617 -0.5459  1.0428
  578SOL     OW 1732   2.036   1.269   2.513  0.6980 -0.1131  0.0461
  578SOL    HW1 1733   1.965   1.281   2.588 -2.5568 -0.2660  0.2799
  578SOL    HW2 1734   2.130   1.285   2.544 -3.9038 -0.3105 -1.3965
  579SOL     OW 1735   0.804   1.834   1.460 -0.4639  0.2695  0.0125
  579SOL    HW1 1736   0.741   1.851   1.541 -0.1074  2.3964 -1.1487
  579SOL    HW2 1737   0.753   1.795   1.382  1.4595 -1.0602 -2.0831
  580SOL     OW 1738   1.587   2.335   0.152 -0.7384 -0.6926  0.4080
  580SOL    HW1 1739   1.595   2.432   0.130  1.3773  0.5191 -1.2903
  580SOL    HW2 1740   1.612   2.274   0.074 -2.3794  0.6596 -0.8229
  581SOL     OW 1741   0.994   0.611   1.967 -0.1436 -0.7251  0.3408
  581SOL    HW1 1742   0.926   0.688   1.970  2.0373 -0.8643 -2.1734
  581SOL    HW2 1743   0.983   0.551   2.048 -0.6386  1.1112  1.1573
  582SOL     OW 1744   0.902   1.350   1.338 -0.5002  0.3786  0.5526
  582SOL    HW1 1745   0.947   1.259   1.318  1.0794 -1.2668  0.4888
  582SOL    HW2 1746   0.873   1.349   1.437 -1.9385 -1.5775  1.1461
  583SOL     OW 1747   0.735   1.182   1.772  0.2225  0.5669  0.2096
  583SOL    HW1 1748   0.669   1.206   1.698  0.8584 -0.7300 -1.6762
  583SOL    HW2 1749   0.724   1.239   1.858  0.2792  0.6118 -0.6846
  584SOL     OW 1750   2.019   2.754   0.367  0.1964 -0.4830 -0.2319
  584SOL    HW1 1751   1.928   2.709   0.372  1.4389 -0.2972 -1.8554
  584SOL    HW2 1752   2.027   2.823   0.442  1.9805  1.9428  4.1481
  585SOL     OW 1753   1.932   0.153   2.879  0.4169 -0.1040  0.5465
  585SOL    HW1 1754   1.840   0.184   2.908  1.4662  0.3684 -2.8198
  585SOL    HW2 1755   1.935   0.175   2.778 -1.7067 -0.0892  0.4186
  586SOL     OW 1756   2.969   1.995   0.583 -0.1359 -0.0760  0.2418
  586SOL    HW1 1757   2.933   1.926   0.517 -1.5455 -0.0921  0.4127
  586SOL    HW2 1758   3.011   2.079   0.546  1.6712  0.7854  1.2427
  587SOL     OW 1759   1.835   1.824   0.374 -0.4113 -0.2694 -0.4139
  587SOL    HW1 1760   1.860   1.728   0.401  1.8687 -1.6395  1.8718
  587SOL    HW2 1761   1.920   1.872   0.335  3.6463 -2.3627 -2.9875
  588SOL     OW 1762   0.350   0.228   0.742  0.3452 -0.2618  0.2608
  588SOL    HW1 1763   0.377   0.161   0.811  0.8319  1.6688  1.3688
  588SOL    HW2 1764   0.435   0.284   0.729  0.5030 -0.4991  4.9435
  589SOL     OW 1765   1.198   0.989   0.993  0.3406  0.5892 -0.3383
  589SOL    HW1 1766   1.252   0.973   0.912 -1.2538  0.3274  3.6019
  589SOL    HW2 1767   1.250   0.967   1.078 -0.1419 -0.2544 -0.3578
  590SOL     OW 1768   1.332   1.140   0.158 -0.5299 -0.0482 -0.2174
  590SOL    HW1 1769   1.330   1.242   0.168  1.8881 -1.2654  0.0308
  590SOL    HW2 1770   1.246   1.096   0.191  1.3115  1.4054  0.1721
  591SOL     OW 1771   2.678   2.413   2.525 -0.5148  0.1760  0.2341
  591SOL    HW1 1772   2.588   2.436   2.483 -1.2033  2.6864  1.5347
  591SOL    HW2 1773   2.747   2.420   2.455 -4.0256 -0.8676  3.7852
  592SOL     OW 1774   1.591   1.937   1.109 -0.4908 -0.0885 -0.2672
  592SOL    HW1 1775   1.684   1.896   1.085  0.1536 -2.7514 -3.6201
  592SOL    HW2 1776   1.578   1.944   1.210 -1.7519  3.0180 -5.0149
  593SOL     OW 1777   1.229   0.123   1.120  0.2624  0.1833 -1.1401
  593SOL    HW1 1778   1.296   0.059   1.086 -0.6560  0.4703  0.5838
  593SOL    HW2 1779   1.268   0.214   1.132 -2.6122 -3.1173  0.1097
  594SOL     OW 1780   2.985   0.723   2.364  0.6036 -0.6113 -0.1715
  594SOL    HW1 1781   3.002   0.791   2.289 -1.4390 -0.2976 -2.3958
  594SOL    HW2 1782   3.033   0.635   2.343  2.3195  0.9828 -0.4226
  595SOL     OW 1783   0.627   2.583   1.234 -0.3556 -0.6103 -0.3773
  595SOL    HW1 1784   0.545   2.621   1.188 -0.0902 -0.1230  0.1243
  595SOL    HW2 1785   0.607   2.516   1.308 -0.8427  3.3111  0.2441
  596SOL     OW 1786   0.182   0.791   1.218  0.3691  0.1642 -0.6758
  596SOL    HW1 1787   0.125   0.875   1.228  1.9119  0.3920 -0.1069
  596SOL    HW2 1788   0.122   0.709   1.192 -2.4608  0.2785 -1.2023
  597SOL     OW 1789   1.638   1.754   0.170  0.6715 -0.1851 -0.2754
  597SOL    HW1 1790   1.541   1.779   0.195 -3.5000 -1.2538 -2.1713
  597SOL    HW2 1791   1.710   1.773   0.240 -1.7268 -0.3061  2.7323
  598SOL     OW 1792   0.519   2.762   1.766 -0.5172 -0.1021  0.0972
  598SOL    HW1 1793   0.468   2.709   1.697  1.2201  2.1090 -2.3126
  598SOL    HW2 1794   0.591   2.716   1.824 -0.2048  0.3081 -1.6162
  599SOL     OW 1795   2.344   2.039   2.942  0.0517 -0.0541  0.2881
  599SOL    HW1 1796   2.323   1.959   2.878  0.8469  1.3342 -1.4761
  599SOL    HW2 1797   2.386   2.001   3.030 -1.6364 -1.1948  0.3526
  600SOL     OW 1798   0.750   0.777   0.322  0.0272 -0.6208 -0.8365
  600SOL    HW1 1799   0.747   0.877   0.294 -0.7593  1.7603  0.0957
  600SOL    HW2 1800   0.831   0.762   0.384  0.0474 -0.2070  1.3190
  601SOL     OW 1801   0.988   0.685   0.477 -0.4379 -0.0069 -0.3256
  601SOL    HW1 1802   0.974   0.779   0.513  0.3628  0.8058 -2.2279
  601SOL    HW2 1803   1.039   0.630   0.549 -0.4933 -2.1378  0.9668
  602SOL     OW 1804   1.521   2.885   0.730  0.8792  0.7093 -0.4564
  602SOL    HW1 1805   1.553   2.969   0.778  0.1840  2.2593  0.4352
  602SOL    HW2 1806   1.439   2.897   0.670  2.3777  0.5096  1.3283
  603SOL     OW 1807   0.683   2.898   2.150  0.2588  0.4177 -0.1822
  603SOL    HW1 1808   0.610   2.965   2.133  0.9811  1.1445 -0.0077
  603SOL    HW2 1809   0.775   2.947   2.153  1.8608  2.7053 -0.4046
  604SOL     OW 1810   2.945   2.951   2.386  0.0675  0.3726  0.7103
  604SOL    HW1 1811   2.981   2.958   2.294 -1.6352 -0.7962  2.3868
  604SOL    HW2 1812   2.937   2.851   2.418 -1.0196 -0.1356  0.8636
  605SOL     OW 1813   2.679   2.119   1.230  0.2516 -0.6864 -0.1418
  605SOL    HW1 1814   2.647   2.093   1.322  0.3272 -0.4512 -0.4441
  605SOL    HW2 1815   2.646   2.212   1.210  0.0945 -0.4780 -2.4738
  606SOL     OW 1816   0.203   1.514   3.023 -0.3050 -0.2792 -0.1985
  606SOL    HW1 1817   0.236   1.596   3.071 -2.7273 -2.1967 -1.2423
  606SOL    HW2 1818   0.161   1.540   2.933  0.3320  0.7759  0.4123
  607SOL     OW 1819   0.740   3.093   0.289  0.0356 -0.6687 -0.0418
  607SOL    HW1 1820   0.667   0.041   0.269  1.4324 -2.8959 -1.9854
  607SOL    HW2 1821   0.825   0.035   0.291  1.4842 -0.6783  2.9982
  608SOL     OW 1822   1.766   1.095   2.516 -0.3572 -0.1080 -0.4221
  608SOL    HW1 1823   1.796   1.151   2.599  1.7070  0.9648  1.3742
  608SOL    HW2 1824   1.778   0.995   2.537 -1.6618  0.0230 -1.0847
  609SOL     OW 1825   0.028   0.348   0.989  0.3304  0.1909  0.3359
  609SOL    HW1 1826   0.110   0.295   1.024  1.2416  1.2435 -0.1058
  609SOL    HW2 1827   0.008   0.427   1.048  1.3784 -1.1807 -0.8357
  610SOL     OW 1828   0.580   2.795   0.547  0.5253  0.6472  0.5554
  610SOL    HW1 1829   0.674   2.816   0.518 -1.2745 -0.8878  2.4357
  610SOL    HW2 1830   0.573   2.781   0.648 -0.1650 -1.6862  2.0737
  611SOL     OW 1831   1.636   0.968   2.911 -0.3897 -0.2430 -0.1760
  611SOL    HW1 1832   1.695   0.924   2.982 -0.6461  2.6445 -0.6160
  611SOL    HW2 1833   1.596   1.055   2.946 -0.0972 -1.1921 -1.0614
  612SOL     OW 1834   0.877   2.214   2.327 -0.2802  0.4681  0.0024
  612SOL    HW1 1835   0.832   2.145   2.391  0.1027  0.0506  1.0713
  612SOL    HW2 1836   0.864   2.307   2.364 -1.5607 -1.4611  0.4914
  613SOL     OW 1837   0.942   2.443   0.179 -0.4749 -0.1471 -0.1365
  613SOL    HW1 1838   0.892   2.368   0.221  1.2540  1.2252  0.6654
  613SOL    HW2 1839   1.025   2.412   0.131 -1.9754  1.3647  0.5285
  614SOL     OW 1840   2.833   2.786   1.575 -0.0227  0.5771 -0.0505
  614SOL    HW1 1841   2.744   2.801   1.528 -0.2820  1.6166 -2.3703
  614SOL    HW2 1842   2.905   2.803   1.505  1.0524  1.0616 -0.0618
  615SOL     OW 1843   2.387   1.508   2.985 -0.3258 -0.9241 -0.2731
  615SOL    HW1 1844   2.356   1.607   3.005  1.1896  2.7764  1.6107
  615SOL    HW2 1845   2.303   1.450   2.994  0.7991 -1.9356 -1.3966
  616SOL     OW 1846   1.692   0.193   0.491  0.0361 -0.0592  0.1204
  616SOL    HW1 1847   1.731   0.140   0.411 -0.0512  2.0155 -0.8740
  616SOL    HW2 1848   1.605   0.152   0.526  0.3139 -1.8645 -0.5578
  617SOL     OW 1849   1.076   0.903   3.079 -0.3259 -0.2538 -0.0825
  617SOL    HW1 1850   1.071   0.809   3.040 -2.1469 -0.8529  1.1087
  617SOL    HW2 1851   1.115   0.965   3.012 -1.9727  0.4686  1.6587
  618SOL     OW 1852   0.644   0.249   1.936 -0.2036  0.2232  0.0274
  618SOL    HW1 1853   0.696   0.190   2.005  1.1596 -2.2259  0.6172
  618SOL    HW2 1854   0.702   0.327   1.910 -1.1143 -1.7044  0.7932
  619SOL     OW 1855   3.030   1.161   1.361 -0.5158 -0.4985 -0.6476
  619SOL    HW1 1856   2.993   1.226   1.298  0.1989 -1.2080  0.5129
  619SOL    HW2 1857   0.015   1.163   1.354  0.6954 -0.9027 -1.3839
  620SOL     OW 1858   2.183   0.886   2.803 -0.2408  0.5391  0.2720
  620SOL    HW1 1859   2.131   0.810   2.749 -4.5483 -1.7268 -1.9309
  620SOL    HW2 1860   2.113   0.938   2.858  1.2020 -0.5416 -0.4526
  621SOL     OW 1861   2.649   2.817   1.338 -0.1291  0.1062 -0.0319
  621SOL    HW1 1862   2.660   2.880   1.260 -1.2679  1.0493 -2.1158
  621SOL    HW2 1863   2.706   2.733   1.323  0.8678 -3.4104  0.6908
  622SOL     OW 1864   1.351   0.888   2.783 -0.2342  0.5068 -0.5531
  622SOL    HW1 1865   1.270   0.947   2.773  2.4262  0.9296 -1.3997
  622SOL    HW2 1866   1.373   0.858   2.880  1.7629  1.3913  0.1048
  623SOL     OW 1867   1.206   0.593   3.020  0.8198  0.1639 -0.0030
  623SOL    HW1 1868   1.288   0.651   3.024 -1.5674  0.4436 -1.7808
  623SOL    HW2 1869   1.172   0.586   2.923  0.1123 -0.8005 -0.7521
  624SOL     OW 1870   1.878   0.562   0.132  0.2510 -0.0436 -0.3258
  624SOL    HW1 1871   1.819   0.630   0.186 -4.8158  0.1253  2.6578
  624SOL    HW2 1872   1.940   0.610   0.067  0.3080 -0.5169  0.0417
  625SOL     OW 1873   1.199   1.240   1.112  0.0422 -0.1672  0.5937
  625SOL    HW1 1874   1.239   1.165   1.052  0.5410  1.0169 -1.8526
  625SOL    HW2 1875   1.124   1.210   1.176 -0.0700 -1.8541 -1.2924
  626SOL     OW 1876   1.510   1.173   3.058  0.4088  0.0451  0.4058
  626SOL    HW1 1877   1.458   1.120   0.014  1.1130  1.3622  1.4228
  626SOL    HW2 1878   1.444   1.215   2.988  0.0622  0.1069 -2.3557
  627SOL     OW 1879   0.942   3.002   2.126 -0.7211  0.4871  0.2995
  627SOL    HW1 1880   0.920   2.967   2.037 -1.7952  0.9683  5.0497
  627SOL    HW2 1881   1.036   3.027   2.123  1.4696  1.6500 -5.0172
  628SOL     OW 1882   2.524   0.255   2.257 -0.2288 -0.2647 -0.5805
  628SOL    HW1 1883   2.555   0.241   2.157  2.0557 -0.2902 -1.1310
  628SOL    HW2 1884   2.598   0.296   2.311 -0.4874 -2.0586 -0.5916
  629SOL     OW 1885   0.754   0.986   2.961 -0.5907  0.1341 -0.2620
  629SOL    HW1 1886   0.814   0.943   2.891  0.8663  1.7206 -1.6137
  629SOL    HW2 1887   0.741   0.922   3.039  0.6919 -2.3638 -1.4018
  630SOL     OW 1888   1.236   0.250   2.078 -0.2630  0.1035  0.5886
  630SOL    HW1 1889   1.149   0.240   2.123  3.6463 -0.8461 -3.1679
  630SOL    HW2 1890   1.310   0.301   2.130  2.7613 -0.2254  2.3365
  631SOL     OW 1891   2.828   0.590   0.556 -0.2931  0.2332 -0.0563
  631SOL    HW1 1892   2.814   0.489   0.556  1.5085  1.5865  0.3081
  631SOL    HW2 1893   2.926   0.613   0.533  3.1965 -1.1580 -2.1762
  632SOL     OW 1894   2.349   1.150   1.242  0.5244  0.4034  0.1445
  632SOL    HW1 1895   2.254   1.140   1.289 -0.0725 -1.5520  0.7069
  632SOL    HW2 1896   2.374   1.053   1.213  0.4993 -1.4688 -0.0252
  633SOL     OW 1897   1.642   0.747   0.969 -0.0390 -0.2167 -0.0592
  633SOL    HW1 1898   1.609   0.795   0.886  2.2304 -0.0222  0.7951
  633SOL    HW2 1899   1.732   0.787   0.995  0.7107 -1.9890  0.0018
  634SOL     OW 1900   1.870   0.017   0.820  0.0625  0.2523  0.0056
  634SOL    HW1 1901   1.931   3.075   0.879 -0.8120  0.8379  0.2040
  634SOL    HW2 1902   1.785   3.083   0.788 -2.7909 -1.7726 -1.3975
  635SOL     OW 1903   1.654   0.984   1.207 -0.8384  0.7029 -0.0100
  635SOL    HW1 1904   1.738   0.971   1.147  2.1695  0.0816  0.9549
  635SOL    HW2 1905   1.636   1.085   1.219  0.6192 -1.1390  0.5711
  636SOL     OW 1906   1.010   0.647   0.923  0.3605 -0.0946  0.1035
  636SOL    HW1 1907   0.959   0.613   1.008 -3.1328 -0.5450  0.5922
  636SOL    HW2 1908   0.991   0.746   0.921  2.6348 -1.5478 -1.3364
  637SOL     OW 1909   2.064   2.305   0.409  0.0703  0.2966 -0.4149
  637SOL    HW1 1910   2.134   2.234   0.438  0.4207  0.0766 -2.9875
  637SOL    HW2 1911   2.070   2.390   0.465 -0.6785 -2.7124 -2.2756
  638SOL     OW 1912   1.701   2.907   2.725 -0.0330  0.0652 -0.2864
  638SOL    HW1 1913   1.698   2.931   2.821 -1.1206  0.9785 -0.5137
  638SOL    HW2 1914   1.795   2.887   2.697  0.3306  2.3274  2.0393
  639SOL     OW 1915   0.830   2.271   1.303  0.4294  0.4680 -0.0766
  639SOL    HW1 1916   0.924   2.300   1.284 -0.3381  0.1279 -0.7216
  639SOL    HW2 1917   0.769   2.316   1.234 -0.1466 -0.0604 -2.5825
  640SOL     OW 1918   2.962   2.679   0.641 -0.1797  0.6632  0.5260
  640SOL    HW1 1919   2.901   2.600   0.666 -1.7048 -0.1521 -0.5876
  640SOL    HW2 1920   3.053   2.647   0.603  2.8633 -2.5157 -0.3688
  641SOL     OW 1921   0.393   0.418   0.003  0.1782  0.2595 -0.1944
  641SOL    HW1 1922   0.496   0.408   3.096  1.6711 -0.4183 -0.0432
  641SOL    HW2 1923   0.341   0.367   3.054  0.2910  3.8895  1.3399
  642SOL     OW 1924   3.003   0.846   1.041 -0.3926 -0.6610  0.0805
  642SOL    HW1 1925   3.030   0.792   0.961 -0.9218  3.6766  2.6675
  642SOL    HW2 1926   2.937   0.927   1.012 -4.2303  2.2508 -2.2659
  643SOL     OW 1927   0.410   1.792   2.047  0.1497 -0.2474 -0.2074
  643SOL    HW1 1928   0.445   1.707   2.007 -0.0153  2.1087  0.3946
  643SOL    HW2 1929   0.464   1.806   2.130 -0.7201 -2.4603 -1.5499
  644SOL     OW 1930   1.897   2.639   0.702  0.1209 -0.0266 -0.3700
  644SOL    HW1 1931   1.996   2.636   0.689 -1.2004  0.2637 -1.1151
  644SOL    HW2 1932   1.851   2.546   0.688 -0.5474 -1.5943 -3.7511
  645SOL     OW 1933   1.766   2.308   1.080 -0.0184  0.8510 -0.7103
  645SOL    HW1 1934   1.850   2.351   1.052 -3.4629  1.6941 -2.3222
  645SOL    HW2 1935   1.705   2.336   1.003 -1.3039  1.3138 -0.6581
  646SOL     OW 1936   1.183   2.842   0.331 -0.2518 -0.4459  0.9524
  646SOL    HW1 1937   1.112   2.789   0.371  3.5485  3.5980  0.8414
  646SOL    HW2 1938   1.140   2.890   0.253  2.2419 -0.6882  4.0678
  647SOL     OW 1939   0.464   3.032   1.750 -0.2410  0.7145  0.4362
  647SOL    HW1 1940   0.380   3.069   1.794  0.8384  0.8561  0.6685
  647SOL    HW2 1941   0.469   2.931   1.772 -0.4549 -0.6877 -0.9265
  648SOL     OW 1942   2.099   1.081   1.339  0.6559  0.2718 -0.2936
  648SOL    HW1 1943   2.058   1.034   1.417  0.9728  1.8580 -1.6888
  648SOL    HW2 1944   2.078   1.024   1.257 -1.8904 -0.4670  1.3019
  649SOL     OW 1945   1.724   2.145   2.782  0.2663 -0.0862 -0.1526
  649SOL    HW1 1946   1.819   2.105   2.767  2.3461  0.1108  1.7002
  649SOL    HW2 1947   1.721   2.180   2.880 -1.3459 -1.8681 -0.1797
  650SOL     OW 1948   2.492   1.731   1.687  0.1055  0.0144  0.1020
  650SOL    HW1 1949   2.578   1.759   1.726 -2.5709 -4.2910  0.1177
  650SOL    HW2 1950   2.416   1.790   1.728  0.0755  1.0971  0.0064
  651SOL     OW 1951   1.191   1.687   2.924  0.2060  0.2836 -0.0229
  651SOL    HW1 1952   1.178   1.601   2.868  1.8406 -0.8806  0.3052
  651SOL    HW2 1953   1.286   1.716   2.923  0.9023  0.6836 -0.7943
  652SOL     OW 1954   1.097   2.879   2.997 -0.0577  0.0707 -0.0410
  652SOL    HW1 1955   1.108   2.780   2.989 -1.7128  2.9100  0.0822
  652SOL    HW2 1956   1.178   2.930   2.958  0.6886 -2.7594  2.8448
  653SOL     OW 1957   2.108   2.206   1.205 -0.0428  0.4273  0.0533
  653SOL    HW1 1958   2.042   2.153   1.264 -0.0850 -1.1778  0.3520
  653SOL    HW2 1959   2.085   2.205   1.102  0.4270 -1.0442 -1.1442
  654SOL     OW 1960   2.740   2.791   1.903 -0.2171  0.2002  0.4260
  654SOL    HW1 1961   2.734   2.864   1.831 -1.0674 -2.4031  2.0802
  654SOL    HW2 1962   2.720   2.698   1.864  1.0020 -0.5570 -0.1245
  655SOL     OW 1963   2.797   2.288   0.948 -0.1602  0.9009  0.4226
  655SOL    HW1 1964   2.818   2.200   0.893  3.3838  1.4992 -0.2303
  655SOL    HW2 1965   2.705   2.275   0.993 -3.1521  1.0182  0.4634
  656SOL     OW 1966   0.444   2.650   2.727  0.1703  0.4647 -0.0436
  656SOL    HW1 1967   0.464   2.704   2.646 -0.4183  1.6171  0.8001
  656SOL    HW2 1968   0.435   2.547   2.699 -1.2488  0.6956  0.5284
  657SOL     OW 1969   2.916   0.803   0.267 -0.1511  0.2580 -0.0213
  657SOL    HW1 1970   2.948   0.726   0.317 -0.2426  2.0246 -2.4722
  657SOL    HW2 1971   2.985   0.847   0.202  0.7856  0.7855 -1.9146
  658SOL     OW 1972   1.438   1.727   1.012  0.5154 -0.2350 -0.2365
  658SOL    HW1 1973   1.357   1.703   1.075  0.3298 -2.2173  1.2660
  658SOL    HW2 1974   1.481   1.812   1.047  0.3915  1.8249 -0.7017
  659SOL     OW 1975   1.766   0.514   1.307 -0.3701  0.2921  0.1338
  659SOL    HW1 1976   1.741   0.412   1.295 -0.1254 -0.6915  2.4782
  659SOL    HW2 1977   1.687   0.569   1.267  1.6581 -2.1479  0.4189
  660SOL     OW 1978   1.422   1.195   0.482 -0.3071  0.1125  0.0602
  660SOL    HW1 1979   1.365   1.111   0.465  0.3634 -2.3955  0.5530
  660SOL    HW2 1980   1.384   1.250   0.561 -0.9646 -0.8519  0.4172
  661SOL     OW 1981   0.021   1.799   0.314 -0.3666  0.7543 -0.4910
  661SOL    HW1 1982   0.002   1.803   0.214  2.6590  2.1124  0.9065
  661SOL    HW2 1983   3.086   1.715   0.349  1.0072 -0.2636 -0.4093
  662SOL     OW 1984   2.999   0.902   2.156  0.5081  0.1664 -0.7696
  662SOL    HW1 1985   2.957   0.909   2.063  0.0083  1.7588 -4.4218
  662SOL    HW2 1986   2.982   0.991   2.209  0.5616  1.8697  0.4628
  663SOL     OW 1987   2.167   1.501   1.224  0.6617 -0.2969  0.3937
  663SOL    HW1 1988   2.169   1.600   1.210  1.2931 -2.9437  1.8105
  663SOL    HW2 1989   2.196   1.476   1.321  1.7629 -0.4053 -1.1145
  664SOL     OW 1990   0.650   0.321   1.156 -0.5481 -0.0235 -0.3141
  664SOL    HW1 1991   0.602   0.390   1.211 -1.6165  1.4106 -1.3712
  664SOL    HW2 1992   0.684   0.254   1.216 -1.0751  1.4828 -1.4191
  665SOL     OW 1993   1.312   3.057   2.832 -0.3314  0.2548  0.1039
  665SOL    HW1 1994   1.391   3.087   2.772 -0.2412 -1.1018  0.6174
  665SOL    HW2 1995   1.300   3.115   2.917 -2.4555  1.2737  0.3688
  666SOL     OW 1996   0.505   0.490   2.185  0.1460  0.0871 -0.2076
  666SOL    HW1 1997   0.496   0.438   2.102 -1.5054 -2.5712 -0.3282
  666SOL    HW2 1998   0.412   0.500   2.235 -0.5882  0.7561 -1.4555
  667SOL     OW 1999   1.893   1.430   2.354  0.0287  0.2388  0.2018
  667SOL    HW1 2000   1.906   1.447   2.253  0.0638  0.0725 -0.6746
  667SOL    HW2 2001   1.966   1.372   2.391 -3.1560  0.0249 -1.2593
  668SOL     OW 2002   0.071   1.588   2.801  0.4073 -0.2614  0.4562
  668SOL    HW1 2003   0.045   1.502   2.749 -2.0865  0.8663  1.9181
  668SOL    HW2 2004   3.108   1.652   2.811 -2.0891 -0.6383  0.4736
  669SOL     OW 2005   2.289   2.936   2.446 -0.0748 -0.0914 -0.4895
  669SOL    HW1 2006   2.332   3.006   2.387  0.7863 -1.0397 -1.1859
  669SOL    HW2 2007   2.326   2.842   2.434  0.2642  0.0363 -2.6268
  670SOL     OW 2008   2.546   0.776   2.547 -0.2753  0.1894  0.2026
  670SOL    HW1 2009   2.644   0.748   2.566 -0.1896 -1.6627  0.5538
  670SOL    HW2 2010   2.503   0.829   2.623  0.0939 -0.8529 -1.4388
  671SOL     OW 2011   2.447   1.913   0.035  0.0846 -0.5166 -0.4199
  671SOL    HW1 2012   2.407   1.931   0.128  1.4029 -0.2641  0.8266
  671SOL    HW2 2013   2.538   1.867   0.036  0.5554 -0.2692  1.4940
  672SOL     OW 2014   2.667   1.388   2.303 -0.1092 -0.2488 -0.4198
  672SOL    HW1 2015   2.572   1.362   2.329  1.0063  3.0712 -2.4832
  672SOL    HW2 2016   2.662   1.483   2.272 -1.7895 -2.1796  1.4324
  673SOL     OW 2017   3.104   1.478   1.336 -0.3019  0.1443  0.0865
  673SOL    HW1 2018   3.104   1.574   1.298  0.2368 -2.0775  1.7279
  673SOL    HW2 2019   0.019   1.417   1.261 -0.0672  0.2730  2.5317
  674SOL     OW 2020   1.423   1.874   1.973 -0.3546 -0.3253 -0.1504
  674SOL    HW1 2021   1.417   1.969   1.933  1.1218  1.4913 -2.4748
  674SOL    HW2 2022   1.520   1.847   1.979 -2.1283  0.1328  2.0634
  675SOL     OW 2023   2.883   0.347   1.204  0.4359 -0.0204 -0.3183
  675SOL    HW1 2024   2.880   0.419   1.130  3.7242 -0.9475 -3.4708
  675SOL    HW2 2025   2.826   0.267   1.175 -0.0072 -2.7465 -3.2239
  676SOL     OW 2026   2.730   1.337   0.618  0.1781 -0.0176  0.7178
  676SOL    HW1 2027   2.750   1.439   0.628  0.2487  1.3667 -0.9530
  676SOL    HW2 2028   2.647   1.319   0.668 -1.2222 -1.0467 -0.4121
  677SOL     OW 2029   1.603   1.557   2.230 -0.1334 -0.0002 -0.3634
  677SOL    HW1 2030   1.561   1.564   2.324 -0.9382 -2.9305 -1.8165
  677SOL    HW2 2031   1.547   1.501   2.167  4.1178  2.3243  2.2150
  678SOL     OW 2032   2.550   1.536   0.936 -0.3254  0.2905  0.5658
  678SOL    HW1 2033   2.626   1.562   1.002  1.1202  0.0916  1.2245
  678SOL    HW2 2034   2.491   1.470   0.985  0.1497 -0.6401 -3.4774
  679SOL     OW 2035   0.397   2.670   1.051 -0.0718  0.4468  0.0681
  679SOL    HW1 2036   0.324   2.603   1.047 -1.2553  1.1306  0.1198
  679SOL    HW2 2037   0.367   2.759   1.091  0.7371  1.6681 -2.3142
  680SOL     OW 2038   2.808   1.891   1.104  0.1506 -0.3511 -0.2299
  680SOL    HW1 2039   2.898   1.902   1.151 -0.2142  3.0421 -2.8980
  680SOL    HW2 2040   2.743   1.964   1.140 -0.2401  1.3569  0.9179
  681SOL     OW 2041   0.869   0.894   1.212 -0.0052 -0.2950  0.2363
  681SOL    HW1 2042   0.907   0.823   1.273 -1.2089 -2.6646  0.5672
  681SOL    HW2 2043   0.773   0.865   1.189  0.8383 -1.6133 -0.5178
  682SOL     OW 2044   1.553   0.048   0.788  0.4288 -0.4677 -0.4818
  682SOL    HW1 2045   1.586   0.121   0.853 -1.4178  2.6642  0.0458
  682SOL    HW2 2046   1.514   0.091   0.707 -0.7986 -0.6354 -0.0021
  683SOL     OW 2047   2.510   1.485   1.809  0.5607 -0.5374  0.2767
  683SOL    HW1 2048   2.498   1.575   1.761 -1.0407  0.0306 -1.5986
  683SOL    HW2 2049   2.429   1.419   1.779 -0.1003 -1.7639  0.2760
  684SOL     OW 2050   0.178   1.832   1.690  0.1477  0.1589 -0.2771
  684SOL    HW1 2051   0.106   1.847   1.621 -1.4195 -2.9248 -0.8016
  684SOL    HW2 2052   0.135   1.835   1.785 -0.4892 -0.1529 -1.4873
  685SOL     OW 2053   1.950   1.567   0.367  0.2876 -0.4013  0.1266
  685SOL    HW1 2054   1.934   1.527   0.456 -0.1413 -0.4233 -2.4203
  685SOL    HW2 2055   2.030   1.522   0.319  0.8066  0.3761  1.4403
  686SOL     OW 2056   3.019   0.142   0.749 -0.2410 -0.4423 -0.5534
  686SOL    HW1 2057   3.104   0.186   0.787 -0.4832 -2.4350 -1.5563
  686SOL    HW2 2058   2.936   0.201   0.770 -2.2695  0.3065  1.1746
  687SOL     OW 2059   1.505   3.093   2.669 -0.0184  0.2595  0.0876
  687SOL    HW1 2060   1.551   0.059   2.695  1.2295 -3.6637 -1.4641
  687SOL    HW2 2061   1.571   3.018   2.674  0.1179  2.2462  3.2669
  688SOL     OW 2062   1.614   1.823   2.485  0.5182 -0.0317 -0.3020
  688SOL    HW1 2063   1.705   1.779   2.501  1.9030 -1.6444  1.5226
  688SOL    HW2 2064   1.605   1.862   2.391  1.7898 -1.1285  0.9443
  689SOL     OW 2065   2.725   1.077   2.005 -0.1729 -0.5645  0.6223
  689SOL    HW1 2066   2.746   1.116   2.097  3.6898 -0.4847  0.6178
  689SOL    HW2 2067   2.811   1.055   1.955 -1.6147 -1.5505 -0.4430
  690SOL     OW 2068   1.838   1.841   1.008  0.3935 -0.2192 -0.2501
  690SOL    HW1 2069   1.922   1.791   1.027 -1.4603  1.3823 -1.5852
  690SOL    HW2 2070   1.778   1.781   0.946 -3.0421 -1.8626  1.2859
  691SOL     OW 2071   0.743   1.474   1.159 -0.4178  0.0389  0.4560
  691SOL    HW1 2072   0.816   1.426   1.214 -3.1353 -2.1957  0.1069
  691SOL    HW2 2073   0.662   1.417   1.159  1.1859  1.7958  0.7499
  692SOL     OW 2074   2.274   2.889   2.106  0.5573 -0.2272 -0.6323
  692SOL    HW1 2075   2.227   2.974   2.134 -0.1186 -1.6312 -0.4235
  692SOL    HW2 2076   2.228   2.803   2.142 -1.2665 -0.9172 -0.3462
  693SOL     OW 2077   2.863   1.481   2.485 -0.0141 -0.0620  0.1288
  693SOL    HW1 2078   2.959   1.468   2.455  0.3949 -0.1367  1.6891
  693SOL    HW2 2079   2.797   1.447   2.413 -4.1297 -0.9033 -2.4401
  694SOL     OW 2080   2.072   0.243   1.181  0.1100 -0.1567 -0.7347
  694SOL    HW1 2081   2.040   0.193   1.266 -0.4273  0.8530  1.2335
  694SOL    HW2 2082   2.123   0.322   1.227 -0.0696 -1.0626 -0.0660
  695SOL     OW 2083   1.132   1.071   2.863  0.0389 -0.0236  0.1666
  695SOL    HW1 2084   1.146   1.146   2.931  0.9259 -1.9639  3.2895
  695SOL    HW2 2085   1.093   1.103   2.774  0.5300 -2.9811 -2.0555
  696SOL     OW 2086   1.971   0.303   1.796  0.1787  0.5147  1.1834
  696SOL    HW1 2087   1.933   0.366   1.722  0.2149  1.4422 -0.9655
  696SOL    HW2 2088   2.031   0.230   1.748  1.3056 -2.3076 -2.6053
  697SOL     OW 2089   1.395   0.386   2.261  0.5529  0.3682  0.7330
  697SOL    HW1 2090   1.422   0.354   2.354 -1.2267  2.2814 -0.9996
  697SOL    HW2 2091   1.480   0.377   2.202  3.0477  1.4243 -0.7541
  698SOL     OW 2092   1.819   1.612   2.537 -1.0466 -0.5728 -0.4094
  698SOL    HW1 2093   1.855   1.613   2.636 -2.0841  1.4836  3.6227
  698SOL    HW2 2094   1.839   1.533   2.481 -3.8194  3.7320 -1.1422
  699SOL     OW 2095   1.676   0.799   0.515  0.4545 -0.3301  0.1939
  699SOL    HW1 2096   1.681   0.801   0.417 -0.8932  0.1750  1.0431
  699SOL    HW2 2097   1.732   0.720   0.547  0.8204  1.2807 -1.4006
  700SOL     OW 2098   1.544   0.008   0.014  0.2277 -0.2546  0.5712
  700SOL    HW1 2099   1.551   0.011   0.114 -0.5105  0.8398 -2.2006
  700SOL    HW2 2100   1.451   0.036   3.094 -0.6099 -1.8962 -1.5747
  701SOL     OW 2101   0.017   0.580   1.141 -0.4446  0.2523 -0.1698
  701SOL    HW1 2102   3.045   0.617   1.096  0.4213 -1.1695  0.0324
  701SOL    HW2 2103   0.002   0.540   1.231  2.0471  1.1949 -2.9818
  702SOL     OW 2104   1.942   0.143   1.432 -0.0093 -0.0202 -0.0564
  702SOL    HW1 2105   1.857   0.203   1.429 -2.7063 -1.3419  2.9476
  702SOL    HW2 2106   1.919   0.047   1.466 -0.6917 -1.1394  1.0502
  703SOL     OW 2107   2.884   0.461   1.465 -0.0367 -0.2724 -0.5913
  703SOL    HW1 2108   2.876   0.403   1.552 -0.2741  0.5634 -0.1440
  703SOL    HW2 2109   2.879   0.395   1.388 -0.7984  1.0154 -2.5785
  704SOL     OW 2110   1.075   2.376   1.238 -0.5207  0.2939  0.0834
  704SOL    HW1 2111   1.066   2.477   1.255  0.3271 -0.3669 -1.6671
  704SOL    HW2 2112   1.170   2.351   1.201 -0.4024 -1.8364 -0.0918
  705SOL     OW 2113   0.079   1.753   2.372 -0.3120  0.3285  0.0940
  705SOL    HW1 2114   0.110   1.801   2.285 -0.6918 -0.9866  0.4099
  705SOL    HW2 2115   0.092   1.809   2.455 -0.2800  0.0831  2.0038
  706SOL     OW 2116   2.680   0.367   2.659 -0.2809 -0.3414 -0.1385
  706SOL    HW1 2117   2.594   0.343   2.708  3.9377  0.0940  0.8810
  706SOL    HW2 2118   2.753   0.312   2.701  4.0545 -1.5495  1.4148
  707SOL     OW 2119   1.777   2.737   2.292  0.0085 -0.2181  0.3468
  707SOL    HW1 2120   1.839   2.749   2.210  1.4427 -0.2538 -2.4360
  707SOL    HW2 2121   1.678   2.754   2.265  0.5795  0.4115  0.4739
  708SOL     OW 2122   0.536   2.421   1.603 -0.4767 -0.1169  0.6150
  708SOL    HW1 2123   0.472   2.497   1.599 -0.6191  1.8219  0.4808
  708SOL    HW2 2124   0.562   2.386   1.510 -1.4874 -1.3402 -0.7682
  709SOL     OW 2125   2.916   0.734   1.726 -0.3461 -0.6510  0.3058
  709SOL    HW1 2126   2.983   0.761   1.650  0.3014  2.6673 -1.8241
  709SOL    HW2 2127   2.927   0.642   1.756  0.1621  2.7163 -3.5933
  710SOL     OW 2128   0.160   0.323   1.395  0.2053 -0.8242  0.2125
  710SOL    HW1 2129   0.095   0.259   1.341 -2.5481 -0.3324  1.0784
  710SOL    HW2 2130   0.115   0.413   1.416  2.4122  1.7725  2.5673
  711SOL     OW 2131   3.085   2.751   1.016 -0.1248 -0.2549  0.0415
  711SOL    HW1 2132   0.006   2.769   1.108 -0.7340 -0.6179 -1.4049
  711SOL    HW2 2133   0.020   2.669   0.983 -1.0440 -0.2974 -0.0575
  712SOL     OW 2134   0.201   0.121   2.330 -0.2407 -0.0078  0.2649
  712SOL    HW1 2135   0.266   0.060   2.285  1.9324  0.3400  1.2101
  712SOL    HW2 2136   0.234   0.149   2.419 -1.5183 -2.1092 -1.7815
  713SOL     OW 2137   2.406   0.212   0.228 -0.3021  0.5345  0.4437
  713SOL    HW1 2138   2.323   0.254   0.274 -1.5886 -0.3889 -0.5338
  713SOL    HW2 2139   2.395   0.214   0.126  1.8627  1.8375  1.4598
  714SOL     OW 2140   1.560   1.508   0.105  0.0081 -0.0691 -0.2955
  714SOL    HW1 2141   1.599   1.594   0.142  0.4678 -2.2355 -0.1965
  714SOL    HW2 2142   1.580   1.426   0.166  0.6546 -1.0374 -0.2570
  715SOL     OW 2143   0.075   0.393   0.722  0.5256  0.0879  0.0902
  715SOL    HW1 2144   0.162   0.346   0.694  0.8399  2.8036 -1.1301
  715SOL    HW2 2145   0.061   0.388   0.827  0.7667  0.4111  2.6896
  716SOL     OW 2146   1.168   0.392   1.858  0.4233  0.7919 -0.4229
  716SOL    HW1 2147   1.173   0.317   1.929 -0.9139 -1.7415 -0.4013
  716SOL    HW2 2148   1.099   0.461   1.882  3.1579 -0.9164  0.7371
  717SOL     OW 2149   0.285   0.267   2.922 -0.1588 -0.3650 -0.0547
  717SOL    HW1 2150   0.368   0.310   2.877 -0.3685 -1.0985  2.4863
  717SOL    HW2 2151   0.205   0.258   2.862 -1.1446  0.6043  2.6743
  718SOL     OW 2152   1.126   0.374   0.255 -0.2718  0.3702  0.8752
  718SOL    HW1 2153   1.107   0.473   0.248 -0.3851 -0.1470 -2.0631
  718SOL    HW2 2154   1.178   0.343   0.171 -0.4186  1.0846 -3.1207
  719SOL     OW 2155   2.415   2.224   2.748  0.1342  0.0350 -0.1885
  719SOL    HW1 2156   2.496   2.190   2.701 -2.5737  1.5289  0.0455
  719SOL    HW2 2157   2.379   2.160   2.817 -1.2927 -0.6161  0.3412
  720SOL     OW 2158   1.233   1.045   1.436 -0.1339 -0.4379  0.6017
  720SOL    HW1 2159   1.221   1.133   1.483 -0.3042 -0.5279  1.3249
  720SOL    HW2 2160   1.224   0.962   1.491  2.0708  3.4278 -4.6267
  721SOL     OW 2161   0.116   2.793   1.271  0.0354 -0.0111  0.3575
  721SOL    HW1 2162   0.155   2.708   1.313 -0.6753 -0.7326 -3.0455
  721SOL    HW2 2163   0.192   2.848   1.232 -0.5688  1.1338 -1.6574
  722SOL     OW 2164   0.689   1.757   2.885 -0.3719  0.2926  0.2655
  722SOL    HW1 2165   0.692   1.658   2.919 -0.3557 -2.2530 -0.7577
  722SOL    HW2 2166   0.698   1.824   2.964  2.3501 -0.2501 -0.8805
  723SOL     OW 2167   2.094   0.391   0.587  0.4920 -0.0263  0.4245
  723SOL    HW1 2168   2.045   0.301   0.575  0.4115 -2.4054 -2.9430
  723SOL    HW2 2169   2.131   0.404   0.681 -0.8820 -0.5022 -1.6132
  724SOL     OW 2170   0.674   2.159   3.000 -0.6373  0.1648  0.4551
  724SOL    HW1 2171   0.690   2.069   3.048 -1.5743  0.0120  0.7972
  724SOL    HW2 2172   0.706   2.235   3.059 -0.9471 -2.2062 -3.0602
  725SOL     OW 2173   0.080   1.062   1.032  0.3790 -0.2971 -0.0390
  725SOL    HW1 2174   0.003   0.993   1.025  0.7917  0.1933  1.0646
  725SOL    HW2 2175   0.155   1.037   0.962  1.4109 -0.9292 -0.4555
  726SOL     OW 2176   2.475   0.534   0.535 -0.4308 -0.2464  0.5175
  726SOL    HW1 2177   2.489   0.627   0.493 -0.6409 -1.4134  0.6902
  726SOL    HW2 2178   2.490   0.465   0.462  0.4026  2.2733 -0.2608
  727SOL     OW 2179   2.093   1.016   2.432  0.1580  0.5358  0.0474
  727SOL    HW1 2180   2.083   1.116   2.446  0.9094 -2.3239  0.8572
  727SOL    HW2 2181   2.055   0.963   2.514 -2.9943 -1.6063  3.4294
  728SOL     OW 2182   1.863   3.018   1.511 -0.1640  0.5364  0.0086
  728SOL    HW1 2183   1.923   2.958   1.570  0.1705 -1.1087 -3.3312
  728SOL    HW2 2184   1.790   2.957   1.469  0.6864  0.9695 -1.3790
  729SOL     OW 2185   2.498   0.558   2.172  0.0475  0.0058 -0.0339
  729SOL    HW1 2186   2.598   0.536   2.176  0.6751 -1.1424  1.9208
  729SOL    HW2 2187   2.486   0.655   2.211 -0.2499  0.5046  0.4081
  730SOL     OW 2188   0.985   0.710   1.381  0.2256  0.0111 -0.2365
  730SOL    HW1 2189   1.000   0.612   1.367  0.6333  1.0279  2.8505
  730SOL    HW2 2190   1.068   0.742   1.439  0.0097  1.2999  0.4152
  731SOL     OW 2191   0.240   0.328   0.205  0.0734  0.1344 -0.1407
  731SOL    HW1 2192   0.272   0.302   0.299 -1.5826  0.8357  0.8670
  731SOL    HW2 2193   0.314   0.369   0.152 -0.4046  0.3120  1.8769
  732SOL     OW 2194   0.563   0.394   0.583  0.0244  0.3107 -0.1745
  732SOL    HW1 2195   0.659   0.402   0.617  1.4066  0.0320 -1.1913
  732SOL    HW2 2196   0.539   0.477   0.530 -0.5099  0.4579  1.0664
  733SOL     OW 2197   1.630   1.409   2.741 -0.0460  0.2367  0.0018
  733SOL    HW1 2198   1.569   1.331   2.719 -0.1960  2.9583 -1.5129
  733SOL    HW2 2199   1.594   1.459   2.819  0.6979 -3.6759  0.8362
  734SOL     OW 2200   2.896   1.827   2.452 -0.2208 -0.1779 -0.0356
  734SOL    HW1 2201   2.975   1.793   2.396 -2.5506 -0.7292 -0.5739
  734SOL    HW2 2202   2.847   1.756   2.505  0.9356  2.4187 -1.0911
  735SOL     OW 2203   1.966   0.685   1.287  0.4936  0.1810 -0.4154
  735SOL    HW1 2204   2.033   0.613   1.251  3.3035  3.0047  0.0932
  735SOL    HW2 2205   1.886   0.630   1.324  0.5988 -1.9557 -1.5271
  736SOL     OW 2206   1.095   1.280   3.071  0.1013 -0.2546  0.5699
  736SOL    HW1 2207   1.051   1.285   0.042  0.5432 -0.8211 -2.8725
  736SOL    HW2 2208   1.185   1.328   3.083 -1.6167 -1.5905 -1.6768
  737SOL     OW 2209   3.040   0.373   0.513 -0.1758 -0.1608 -0.6851
  737SOL    HW1 2210   3.095   0.386   0.429 -0.5576 -1.0927  1.4816
  737SOL    HW2 2211   3.099   0.378   0.597  1.9431  1.6724 -0.1936
  738SOL     OW 2212   0.716   2.241   1.711 -0.2408  0.5186 -0.0602
  738SOL    HW1 2213   0.641   2.310   1.692  0.8973  1.1000  1.9377
  738SOL    HW2 2214   0.676   2.160   1.758  0.3994  2.2482 -0.5523
  739SOL     OW 2215   1.238   2.900   2.372 -0.4776  0.1758  0.3292
  739SOL    HW1 2216   1.237   2.881   2.475 -0.9565 -3.4211  0.2792
  739SOL    HW2 2217   1.261   2.815   2.315 -1.6641 -0.4546 -0.9006
  740SOL     OW 2218   1.971   2.613   1.724  0.3539  1.1828  0.6437
  740SOL    HW1 2219   1.875   2.583   1.694  2.7702 -0.4229  0.9625
  740SOL    HW2 2220   2.006   2.558   1.805  1.0007 -3.2585  1.9133
  741SOL     OW 2221   2.279   0.627   0.281  0.4493  0.5186 -0.1653
  741SOL    HW1 2222   2.354   0.695   0.297 -1.4467 -0.2061 -0.5034
  741SOL    HW2 2223   2.204   0.647   0.345 -0.7294 -0.0475  0.2605
  742SOL     OW 2224   1.170   2.641   2.943 -0.1894 -0.3021  0.0086
  742SOL    HW1 2225   1.170   2.609   2.847  1.2975 -2.3351 -0.0391
  742SOL    HW2 2226   1.212   2.570   2.998  0.5340 -1.7233  0.1306
  743SOL     OW 2227   2.517   0.711   1.817  0.0401 -0.2470  0.0427
  743SOL    HW1 2228   2.558   0.732   1.908 -0.0898 -0.5993  0.1587
  743SOL    HW2 2229   2.565   0.767   1.750 -0.0932  1.2571 -0.5432
  744SOL     OW 2230   2.620   0.439   0.949 -1.0052  0.1482 -0.0781
  744SOL    HW1 2231   2.686   0.389   0.892 -0.0379  1.7546  1.0711
  744SOL    HW2 2232   2.565   0.503   0.896  1.4813 -0.7335 -0.2027
  745SOL     OW 2233   2.520   1.148   1.855 -0.2255 -0.1626  0.0409
  745SOL    HW1 2234   2.566   1.125   1.764 -0.3431  1.4463  0.5205
  745SOL    HW2 2235   2.579   1.111   1.932  0.1080 -0.0748 -1.1363
  746SOL     OW 2236   1.299   1.609   0.765  0.5279  0.1040  0.4883
  746SOL    HW1 2237   1.339   1.663   0.845  1.6513 -2.0667  0.9809
  746SOL    HW2 2238   1.197   1.613   0.776 -1.2760  0.1840  1.8910
  747SOL     OW 2239   1.543   1.809   1.658 -0.3362  0.6938  0.2121
  747SOL    HW1 2240   1.443   1.832   1.654  2.4776  1.4833 -2.2233
  747SOL    HW2 2241   1.566   1.756   1.571  0.3367  0.2873 -2.8780
  748SOL     OW 2242   0.223   2.791   3.115 -0.2764 -0.4306  0.1414
  748SOL    HW1 2243   0.254   2.867   0.058 -1.2704 -2.6308  1.1053
  748SOL    HW2 2244   0.234   2.698   0.040  0.4230 -3.7160 -0.6449
  749SOL     OW 2245   0.219   1.248   2.468 -0.3043  0.5343  0.4661
  749SOL    HW1 2246   0.211   1.211   2.369 -0.9220 -0.9693 -1.4202
  749SOL    HW2 2247   0.301   1.220   2.515 -1.1440 -0.1125 -1.4322
  750SOL     OW 2248   1.704   0.595   2.122 -0.4370 -0.3666 -1.3943
  750SOL    HW1 2249   1.803   0.596   2.130 -3.6122 -1.1392  1.7444
  750SOL    HW2 2250   1.659   0.669   2.175  2.9063  0.7678 -1.5839
  751SOL     OW 2251   2.495   0.807   0.249 -0.1313  0.5420 -0.0461
  751SOL    HW1 2252   2.543   0.727   0.205 -1.1354  1.0905 -2.1383
  751SOL    HW2 2253   2.546   0.833   0.337  0.4390  0.5307  4.2020
  752SOL     OW 2254   0.136   2.093   0.793  0.1261  0.1297  0.2004
  752SOL    HW1 2255   0.097   1.998   0.775 -0.4120 -0.1134 -2.6909
  752SOL    HW2 2256   0.174   2.103   0.886 -1.5221 -0.8896  0.8774
  753SOL     OW 2257   1.304   2.542   1.050  0.5362  0.2410  0.0632
  753SOL    HW1 2258   1.310   2.441   1.082 -3.2325 -0.2657  1.6933
  753SOL    HW2 2259   1.207   2.565   1.022 -0.1915  0.5188 -1.3928
  754SOL     OW 2260   0.220   3.109   1.850  0.3832 -0.6780 -0.6784
  754SOL    HW1 2261   0.173   0.048   1.922  0.6451 -3.3010  0.6109
  754SOL    HW2 2262   0.178   3.116   1.757 -0.9452  2.1320 -0.2656
  755SOL     OW 2263   2.067   0.725   0.423 -0.2025 -0.8062 -0.2759
  755SOL    HW1 2264   1.995   0.655   0.409 -0.2462 -1.0851  0.8461
  755SOL    HW2 2265   2.067   0.751   0.525 -2.3280  0.9580  1.5186
  756SOL     OW 2266   2.249   2.359   2.572 -0.0934 -0.1570  0.4230
  756SOL    HW1 2267   2.291   2.318   2.659  0.9702 -2.3614 -0.9079
  756SOL    HW2 2268   2.205   2.452   2.588 -1.4009  0.7034  1.8190
  757SOL     OW 2269   1.906   0.511   0.408 -0.2811  0.0701  0.1715
  757SOL    HW1 2270   1.921   0.478   0.316 -0.7227  0.6784  0.9671
  757SOL    HW2 2271   1.972   0.470   0.477  0.5905 -0.1901 -0.2566
  758SOL     OW 2272   2.199   0.498   1.268 -0.1520 -0.4572  0.0665
  758SOL    HW1 2273   2.218   0.480   1.368 -0.6716 -0.7341  1.7640
  758SOL    HW2 2274   2.273   0.542   1.214 -0.0244  1.4776  0.5542
  759SOL     OW 2275   2.438   0.534   1.153  0.8671  0.0834 -0.1786
  759SOL    HW1 2276   2.423   0.452   1.213  1.1084 -0.9746  3.6077
  759SOL    HW2 2277   2.488   0.514   1.062  1.4454 -1.6170 -0.7850
  760SOL     OW 2278   2.379   1.379   1.100  0.5202  0.2397  0.0529
  760SOL    HW1 2279   2.295   1.424   1.139 -1.1861 -0.0444 -0.9899
  760SOL    HW2 2280   2.377   1.289   1.147 -4.4898  0.3354  1.5118
  761SOL     OW 2281   0.358   0.283   0.435  0.0758 -0.3968  0.2038
  761SOL    HW1 2282   0.425   0.326   0.504 -0.0277  1.3981  3.5473
  761SOL    HW2 2283   0.352   0.185   0.458  1.8447  2.2473 -2.4892
  762SOL     OW 2284   1.079   2.036   1.163 -0.0277 -0.7157 -0.5543
  762SOL    HW1 2285   1.089   1.939   1.124 -1.5999  3.1306 -1.4112
  762SOL    HW2 2286   1.034   2.031   1.257 -0.2841  1.8322  2.0236
  763SOL     OW 2287   1.464   1.215   1.710 -0.1387 -0.5362  0.1443
  763SOL    HW1 2288   1.479   1.192   1.812 -0.8457 -0.4031  2.0639
  763SOL    HW2 2289   1.512   1.153   1.647 -0.4453  1.9405 -1.1786
  764SOL     OW 2290   0.328   1.626   2.624 -0.3696 -0.2949 -0.3073
  764SOL    HW1 2291   0.248   1.618   2.681  1.5353 -3.2150 -1.4804
  764SOL    HW2 2292   0.391   1.696   2.662  1.8516  0.0882 -0.1598
  765SOL     OW 2293   1.000   2.677   1.306  0.0674  0.5353  0.3383
  765SOL    HW1 2294   0.916   2.726   1.289  1.9781 -2.1516  0.7078
  765SOL    HW2 2295   1.070   2.738   1.345 -1.1091  0.3643 -2.2914
  766SOL     OW 2296   2.744   2.290   2.751  0.0518 -0.3330  0.4805
  766SOL    HW1 2297   2.752   2.360   2.827  0.5623  1.2443 -1.7477
  766SOL    HW2 2298   2.702   2.333   2.667 -0.9843 -0.1561  0.7795
  767SOL     OW 2299   0.899   1.332   2.650 -0.0646  0.7921  0.4579
  767SOL    HW1 2300   0.903   1.308   2.750  0.4524 -5.6861  0.2937
  767SOL    HW2 2301   0.802   1.360   2.625 -0.2167  1.2788  0.9889
  768SOL     OW 2302   1.137   1.842   0.029  0.1976  0.1394  0.2607
  768SOL    HW1 2303   1.137   1.774   3.071 -0.8780  0.3227 -0.4683
  768SOL    HW2 2304   1.210   1.826   0.096  0.3411  0.3352 -0.6775
  769SOL     OW 2305   0.329   2.220   1.240  0.0736  0.1984  0.7205
  769SOL    HW1 2306   0.267   2.294   1.213  1.7558  0.0032 -1.1029
  769SOL    HW2 2307   0.300   2.163   1.313 -0.2404  2.6118 -3.0543
  770SOL     OW 2308   1.078   1.151   2.619  0.2709 -0.2426 -0.6179
  770SOL    HW1 2309   0.985   1.198   2.633  0.3860  1.1304  0.8855
  770SOL    HW2 2310   1.132   1.202   2.552  0.4228 -2.1709  1.8462
  771SOL     OW 2311   0.002   2.951   2.150 -0.0855  0.0983  0.2056
  771SOL    HW1 2312   0.097   2.912   2.150  1.9789 -0.3693  0.9329
  771SOL    HW2 2313   3.051   2.880   2.127 -1.2467  1.5500  1.4026
  772SOL     OW 2314   2.441   2.342   1.808 -0.9877  0.1978  0.5464
  772SOL    HW1 2315   2.501   2.422   1.826 -0.1656 -1.3311  1.3022
  772SOL    HW2 2316   2.384   2.348   1.726  0.1508 -0.2383  0.0074
  773SOL     OW 2317   0.662   1.860   1.669  0.5067  0.1485 -0.5497
  773SOL    HW1 2318   0.575   1.883   1.614 -0.4333  0.1846 -0.3705
  773SOL    HW2 2319   0.668   1.908   1.757 -0.1759  0.4224 -2.3701
  774SOL     OW 2320   1.286   0.621   2.315  1.1998 -0.5287 -0.1864
  774SOL    HW1 2321   1.318   0.542   2.254  4.1353  0.5224 -0.5485
  774SOL    HW2 2322   1.261   0.588   2.410  0.1484  0.7819  2.4307
  775SOL     OW 2323   2.101   2.772   3.020 -0.3155  0.3109  0.2083
  775SOL    HW1 2324   2.071   2.869   3.004  0.9988  0.6304  0.2040
  775SOL    HW2 2325   2.166   2.745   2.941  0.8471  0.4262 -5.9953
  776SOL     OW 2326   0.079   0.499   2.066 -0.0582 -0.1908  0.1305
  776SOL    HW1 2327   0.013   0.504   1.985 -2.7392 -0.4896 -1.2337
  776SOL    HW2 2328   0.168   0.450   2.034 -0.1012 -0.3298 -1.5936
  777SOL     OW 2329   2.611   2.122   1.892  0.0915  0.2635 -0.0927
  777SOL    HW1 2330   2.569   2.041   1.942 -1.3460  0.9940 -0.6900
  777SOL    HW2 2331   2.546   2.202   1.879 -0.0155  0.0872  0.7132
  778SOL     OW 2332   1.961   0.915   2.216  0.3452 -0.4067 -0.2778
  778SOL    HW1 2333   2.013   0.970   2.284  0.4104 -2.0089  1.0721
  778SOL    HW2 2334   1.864   0.896   2.252 -0.4155 -0.2374  1.4146
  779SOL     OW 2335   2.308   1.023   0.577  0.1824  0.0168  0.0614
  779SOL    HW1 2336   2.210   1.020   0.610 -1.6640  1.0565  0.9957
  779SOL    HW2 2337   2.322   1.078   0.494 -0.3973 -1.4726 -0.5993
  780SOL     OW 2338   2.365   0.205   3.074 -0.5472 -0.4735  0.0889
  780SOL    HW1 2339   2.273   0.238   3.048 -0.6807  1.5526  0.5560
  780SOL    HW2 2340   2.382   0.111   3.037 -1.2167  0.2547  0.5828
  781SOL     OW 2341   0.224   2.096   1.460 -0.2494  0.4319 -0.0153
  781SOL    HW1 2342   0.122   2.077   1.468 -3.1904 -1.9385 -1.6525
  781SOL    HW2 2343   0.288   2.017   1.488 -0.1228  0.9607  0.4778
  782SOL     OW 2344   2.493   2.488   2.916  0.5204  0.2073 -0.1652
  782SOL    HW1 2345   2.593   2.500   2.888  2.4226 -0.5288 -3.0868
  782SOL    HW2 2346   2.467   2.388   2.912 -2.4160 -1.4001 -1.0792
  783SOL     OW 2347   0.449   1.701   1.394 -0.0737 -0.0097 -0.1968
  783SOL    HW1 2348   0.462   1.619   1.451  3.9638 -0.2485 -0.5271
  783SOL    HW2 2349   0.529   1.710   1.331 -1.5746 -0.5700  0.0686
  784SOL     OW 2350   1.570   0.559   3.015 -0.4369  0.1150  0.0506
  784SOL    HW1 2351   1.658   0.519   2.971  2.8307 -2.2668 -0.4161
  784SOL    HW2 2352   1.556   0.530   3.115 -2.0469  1.7729  2.6028
  785SOL     OW 2353   2.463   3.090   0.946 -0.0924 -0.1801  0.2042
  785SOL    HW1 2354   2.383   3.035   0.914  1.6298  0.7479  1.7223
  785SOL    HW2 2355   2.440   0.031   1.027 -0.7938  0.6634 -0.1441
  786SOL     OW 2356   0.851   2.176   2.065  0.2754  0.0932 -0.5352
  786SOL    HW1 2357   0.933   2.131   2.022  2.4656  0.0149  1.3238
  786SOL    HW2 2358   0.856   2.177   2.165  0.2465  0.7907  0.1140
  787SOL     OW 2359   1.368   0.952   1.206  0.1900  0.1028  0.1397
  787SOL    HW1 2360   1.326   0.973   1.298 -0.1316 -2.5890 -0.8332
  787SOL    HW2 2361   1.465   0.984   1.208 -0.0053 -0.4225 -1.0885
  788SOL     OW 2362   3.113   0.695   0.454  0.0949 -0.4936  0.1097
  788SOL    HW1 2363   0.045   0.662   0.536 -0.6406  0.8666  1.9057
  788SOL    HW2 2364   0.032   0.653   0.367  1.7689  0.4295 -0.8772
  789SOL     OW 2365   0.019   1.936   1.105  0.6101  0.1309 -0.1274
  789SOL    HW1 2366   0.114   1.973   1.094  0.6336 -1.3114 -2.2470
  789SOL    HW2 2367   3.080   1.997   1.163 -0.0131  1.2513  1.0583
  790SOL     OW 2368   0.988   0.708   2.338  0.1806  0.0873 -0.4176
  790SOL    HW1 2369   1.060   0.659   2.287 -0.3486  1.8487  1.4760
  790SOL    HW2 2370   1.018   0.788   2.394  2.3106 -1.2321  2.4579
  791SOL     OW 2371   1.483   0.477   0.430 -0.0332  0.3352 -0.3374
  791SOL    HW1 2372   1.575   0.464   0.475  0.1523 -0.0956 -0.3555
  791SOL    HW2 2373   1.412   0.405   0.453  0.3257 -0.4400  1.8891
  792SOL     OW 2374   1.515   2.942   1.836  0.5572  0.2024 -0.1590
  792SOL    HW1 2375   1.427   2.984   1.859  0.9581 -0.5864  0.0966
  792SOL    HW2 2376   1.499   2.866   1.772 -0.4659 -0.3691  0.8836
  793SOL     OW 2377   1.406   0.570   0.698  0.1396  0.6118  0.3173
  793SOL    HW1 2378   1.435   0.543   0.603 -1.9987 -0.2668  0.9138
  793SOL    HW2 2379   1.453   0.513   0.763 -1.9377  2.8756 -2.9053
  794SOL     OW 2380   0.573   0.962   1.823 -0.1836  0.3875  0.8264
  794SOL    HW1 2381   0.477   0.952   1.799  0.4159 -0.8508 -0.1198
  794SOL    HW2 2382   0.623   1.045   1.785  0.9726  0.1181  0.4641
  795SOL     OW 2383   0.323   2.130   2.395  0.3499 -0.0481  0.2193
  795SOL    HW1 2384   0.383   2.173   2.324 -0.0199  1.9916 -1.1264
  795SOL    HW2 2385   0.383   2.070   2.451  2.0442 -2.6896  0.1727
  796SOL     OW 2386   2.677   0.803   2.027 -0.5887  0.0050 -0.0886
  796SOL    HW1 2387   2.642   0.813   2.124  0.0917 -0.7555  1.1984
  796SOL    HW2 2388   2.715   0.892   1.997 -2.3567  0.9404 -0.6845
  797SOL     OW 2389   3.035   2.522   0.016 -0.5317 -0.0625 -0.7141
  797SOL    HW1 2390   2.981   2.592   0.067 -0.4360  1.1244 -1.9446
  797SOL    HW2 2391   3.024   2.432   0.053 -0.3574  1.2293 -0.2616
  798SOL     OW 2392   0.055   2.253   2.109  0.0185  0.0184 -0.6826
  798SOL    HW1 2393   0.142   2.292   2.078 -0.2358 -3.2382 -1.8558
  798SOL    HW2 2394   0.060   2.172   2.177  1.4606 -0.3637  0.7035
  799SOL     OW 2395   0.446   2.203   2.848 -0.1088  0.1360  0.2217
  799SOL    HW1 2396   0.531   2.200   2.906  1.4386 -0.9305 -3.0946
  799SOL    HW2 2397   0.372   2.256   2.901 -1.2536 -0.8212  0.5613
  800SOL     OW 2398   0.676   1.919   0.018  0.4307  0.7543 -0.0893
  800SOL    HW1 2399   0.598   1.931   0.083  2.5881 -1.5334 -0.4010
  800SOL    HW2 2400   0.755   1.868   0.058 -1.8480  0.3549 -2.5789
  801SOL     OW 2401   1.795   1.443   1.540  0.0558 -0.1957  0.1455
  801SOL    HW1 2402   1.888   1.423   1.569  0.6499  0.8367 -2.6053
  801SOL    HW2 2403   1.737   1.469   1.615  2.6820 -0.0477  0.7291
  802SOL     OW 2404   2.743   1.246   0.358 -0.4518  0.0036  0.6190
  802SOL    HW1 2405   2.747   1.255   0.458 -0.7638  1.0757 -0.0007
  802SOL    HW2 2406   2.739   1.150   0.327  0.4718  5.5656 -1.2710
  803SOL     OW 2407   0.845   1.863   2.684  0.5086  0.5833 -0.0370
  803SOL    HW1 2408   0.789   1.809   2.751 -3.1367  3.2546 -0.4271
  803SOL    HW2 2409   0.931   1.891   2.733 -1.2785 -0.5950 -0.9756
  804SOL     OW 2410   1.635   1.320   0.317 -0.7795  0.0436 -0.1674
  804SOL    HW1 2411   1.557   1.261   0.356 -1.0868 -2.4483 -1.4030
  804SOL    HW2 2412   1.653   1.411   0.365  0.6424  0.1693  1.8791
  805SOL     OW 2413   2.481   1.621   2.659 -0.4720 -0.0737 -0.2304
  805SOL    HW1 2414   2.435   1.695   2.716 -1.0477  2.0384 -1.1092
  805SOL    HW2 2415   2.583   1.628   2.668 -0.3584 -1.5114 -1.6882
  806SOL     OW 2416   0.387   2.936   0.416  0.3513  0.2010  0.0591
  806SOL    HW1 2417   0.350   3.026   0.446 -1.0374 -0.3883  1.9839
  806SOL    HW2 2418   0.466   2.904   0.474  0.0504  2.3927 -1.5570
  807SOL     OW 2419   1.827   1.591   2.805 -0.7548  0.3274  0.2541
  807SOL    HW1 2420   1.791   1.647   2.887 -1.2793  1.3330  1.2537
  807SOL    HW2 2421   1.756   1.535   2.762 -0.8649  2.7883  0.9539
  808SOL     OW 2422   0.394   1.465   0.707  0.2105 -0.0801  0.2015
  808SOL    HW1 2423   0.480   1.486   0.761  1.0370 -0.9902  2.1656
  808SOL    HW2 2424   0.358   1.544   0.655 -1.3334  0.1856 -1.0504
  809SOL     OW 2425   2.327   1.039   0.215  0.8107  0.4625  0.3416
  809SOL    HW1 2426   2.394   1.115   0.226 -1.5831 -0.4147  0.7807
  809SOL    HW2 2427   2.386   0.952   0.222 -0.6901 -1.6317  0.3452
  810SOL     OW 2428   0.799   1.028   0.243  0.2524  0.1573 -0.1720
  810SOL    HW1 2429   0.778   1.059   0.150  4.7156 -0.0246  2.2264
  810SOL    HW2 2430   0.775   1.108   0.304 -0.1438 -0.1146  1.3930
  811SOL     OW 2431   1.480   2.507   1.455 -0.3527  0.1435 -0.0232
  811SOL    HW1 2432   1.467   2.562   1.368 -2.1086 -0.7736 -0.3641
  811SOL    HW2 2433   1.564   2.451   1.448 -0.7051  0.7301 -0.2575
  812SOL     OW 2434   1.234   2.737   1.741 -0.5254 -0.4496 -0.7109
  812SOL    HW1 2435   1.255   2.828   1.788  0.3743  5.1723  1.6549
  812SOL    HW2 2436   1.132   2.720   1.731  0.1431 -0.0499  0.1694
  813SOL     OW 2437   1.317   0.243   1.668  0.4257 -0.6640  0.6956
  813SOL    HW1 2438   1.261   0.289   1.738  1.6216  2.1513 -0.3492
  813SOL    HW2 2439   1.280   0.148   1.646 -0.4114  1.3493 -0.1733
  814SOL     OW 2440   1.163   2.498   2.719 -0.0778  0.0166 -0.0879
  814SOL    HW1 2441   1.248   2.522   2.664  1.7163 -1.2219 -0.7483
  814SOL    HW2 2442   1.149   2.396   2.727  1.4619 -2.2402 -1.8322
  815SOL     OW 2443   0.589   0.323   2.444 -0.4885  0.2636 -0.2442
  815SOL    HW1 2444   0.497   0.330   2.490 -0.5235  2.7851  0.7127
  815SOL    HW2 2445   0.635   0.416   2.421  2.6281  0.0340  1.7269
  816SOL     OW 2446   2.119   0.297   3.001  0.0590 -0.0153  0.5767
  816SOL    HW1 2447   2.132   0.385   2.946 -0.9744  0.4437 -3.1891
  816SOL    HW2 2448   2.053   0.235   2.954 -2.0692 -1.0068 -0.1374
  817SOL     OW 2449   2.294   0.330   2.375  0.4410 -0.1468 -0.6213
  817SOL    HW1 2450   2.381   0.303   2.324 -0.2184 -0.5133 -0.6687
  817SOL    HW2 2451   2.291   0.435   2.379 -0.4110  3.3089  0.7681
  818SOL     OW 2452   1.734   0.341   0.110  0.0425  0.2949  0.1673
  818SOL    HW1 2453   1.802   0.419   0.109  0.0179  0.4962  1.4321
  818SOL    HW2 2454   1.770   0.264   0.163  0.9989  2.6463  1.4532
  819SOL     OW 2455   2.099   1.605   2.806  0.3879  0.2020  0.3585
  819SOL    HW1 2456   1.999   1.619   2.825 -1.4604  2.5895  2.0305
  819SOL    HW2 2457   2.149   1.613   2.890 -1.3727 -0.1739 -2.4379
  820SOL     OW 2458   3.105   1.814   0.042 -0.5125 -0.1780 -0.3830
  820SOL    HW1 2459   3.105   1.918   0.036  1.4685  1.5326  1.6623
  820SOL    HW2 2460   0.086   1.780   0.030  3.3580 -1.7718 -1.0100
  821SOL     OW 2461   0.355   3.037   0.889  0.0821 -0.3889 -0.0969
  821SOL    HW1 2462   0.441   3.082   0.848  1.2121  3.4794  0.0233
  821SOL    HW2 2463   0.285   3.020   0.820 -0.5417  0.8750  0.3596
  822SOL     OW 2464   2.899   2.739   0.165 -0.0122 -0.0339 -0.4246
  822SOL    HW1 2465   2.890   2.774   0.263  1.2047  1.1922  4.9585
  822SOL    HW2 2466   2.968   2.782   0.103 -1.1876  1.5220 -1.1135
  823SOL     OW 2467   1.257   0.511   2.561 -0.2893  0.5195  0.1069
  823SOL    HW1 2468   1.222   0.424   2.521  0.0995  1.7797 -0.9853
  823SOL    HW2 2469   1.339   0.492   2.609 -2.5164 -4.7598 -2.0688
  824SOL     OW 2470   2.823   2.111   2.062  0.4744  0.2125 -0.0995
  824SOL    HW1 2471   2.748   2.126   1.998  1.4064 -0.8311  4.7087
  824SOL    HW2 2472   2.866   2.198   2.091  0.3041 -1.9260  1.5580
  825SOL     OW 2473   2.996   2.219   2.707 -0.3860 -0.0932  0.1417
  825SOL    HW1 2474   2.896   2.236   2.712 -3.5897 -1.5305 -0.7782
  825SOL    HW2 2475   3.039   2.208   2.610  2.0659  1.4836 -2.3158
  826SOL     OW 2476   2.426   1.283   2.397 -0.0321 -0.6228  0.4609
  826SOL    HW1 2477   2.403   1.191   2.349 -0.8917  0.4270  3.2012
  826SOL    HW2 2478   2.346   1.334   2.428 -0.8979  1.1167  1.0206
  827SOL     OW 2479   2.274   2.406   1.311 -0.2146  0.1306 -0.5990
  827SOL    HW1 2480   2.208   2.330   1.283 -1.4638  0.9242 -0.6125
  827SOL    HW2 2481   2.228   2.488   1.352 -0.5613 -1.2459 -0.9953
  828SOL     OW 2482   0.314   3.018   1.400  0.5346  0.3807 -0.0468
  828SOL    HW1 2483   0.246   3.002   1.473 -2.4390 -0.0458  0.4984
  828SOL    HW2 2484   0.346   3.114   1.406 -1.6482  0.9793 -1.3837
  829SOL     OW 2485   1.385   2.544   2.585  0.1084  0.2421  0.1769
  829SOL    HW1 2486   1.437   2.477   2.638 -2.3921 -0.3234 -0.8138
  829SOL    HW2 2487   1.332   2.495   2.510 -0.3754  1.0756 -0.5323
  830SOL     OW 2488   0.906   0.430   0.524  0.1447 -0.0430  0.0477
  830SOL    HW1 2489   0.884   0.511   0.471 -1.1915  3.6700 -0.6058
  830SOL    HW2 2490   0.971   0.451   0.599 -0.5269 -2.1887 -1.5293
  831SOL     OW 2491   2.818   1.416   2.905 -0.0722 -0.1440 -0.4009
  831SOL    HW1 2492   2.876   1.446   2.979 -0.8912 -0.4706 -3.4672
  831SOL    HW2 2493   2.868   1.359   2.833 -1.3939 -1.2190  0.0101
  832SOL     OW 2494   1.773   1.954   2.206 -0.0645  0.1666  0.0395
  832SOL    HW1 2495   1.701   1.999   2.261  1.2045  2.8693  1.7036
  832SOL    HW2 2496   1.839   2.021   2.172  1.4262 -2.2089 -0.1124
  833SOL     OW 2497   0.958   0.473   2.186 -0.4331  0.2195  0.1720
  833SOL    HW1 2498   0.990   0.380   2.213 -1.4000  1.4481 -1.4212
  833SOL    HW2 2499   0.876   0.496   2.243  1.1963 -0.7480 -1.8030
  834SOL     OW 2500   0.525   1.206   1.593  0.5681 -0.0704  0.3340
  834SOL    HW1 2501   0.427   1.215   1.615  0.4959 -1.7272  0.3419
  834SOL    HW2 2502   0.542   1.128   1.532 -0.9703  4.0803 -0.8200
  835SOL     OW 2503   2.593   1.013   3.088  0.6762 -0.2959 -0.3421
  835SOL    HW1 2504   2.521   0.943   3.091 -2.4755  0.0527  1.0527
  835SOL    HW2 2505   2.554   1.099   3.044 -2.2884  2.8678 -1.0209
  836SOL     OW 2506   0.905   1.812   0.131  0.0947  0.0403  0.4724
  836SOL    HW1 2507   0.904   1.887   0.202 -0.0603  0.8494 -1.2263
  836SOL    HW2 2508   0.996   1.805   0.090 -3.2231  0.0302 -0.3252
  837SOL     OW 2509   1.659   1.635   0.889 -0.2681  0.0315  0.2557
  837SOL    HW1 2510   1.649   1.686   0.805  1.5031 -2.7934  2.5885
  837SOL    HW2 2511   1.576   1.649   0.944 -0.8118  1.7022 -1.3389
  838SOL     OW 2512   1.125   1.202   2.185 -0.3598  0.1778  0.4101
  838SOL    HW1 2513   1.041   1.145   2.181  1.0794 -0.0502 -1.3099
  838SOL    HW2 2514   1.106   1.299   2.148  2.1481  2.2099 -1.8539
  839SOL     OW 2515   0.773   2.067   2.533 -0.8217  0.2671 -0.0463
  839SOL    HW1 2516   0.795   1.979   2.576 -0.7708  2.2144 -0.1333
  839SOL    HW2 2517   0.748   2.141   2.595 -0.8225  0.5280 -0.4549
  840SOL     OW 2518   0.743   2.275   0.308 -0.2764  0.2835 -0.2186
  840SOL    HW1 2519   0.659   2.305   0.262  2.8091 -2.1693 -1.0537
  840SOL    HW2 2520   0.747   2.284   0.409 -1.1096  0.7285  0.1227
  841SOL     OW 2521   1.797   2.541   0.324  0.3052 -0.2693 -0.6621
  841SOL    HW1 2522   1.709   2.536   0.369 -0.0514 -0.8624 -0.2839
  841SOL    HW2 2523   1.784   2.517   0.226 -1.4136 -3.1243 -0.1302
  842SOL     OW 2524   0.495   0.713   3.049  0.5776 -0.0593 -0.1286
  842SOL    HW1 2525   0.455   0.682   0.015 -0.1388 -0.5760 -2.7890
  842SOL    HW2 2526   0.572   0.778   3.060 -1.9341  1.4047 -0.9308
  843SOL     OW 2527   1.190   0.266   0.739  0.2223  0.2578 -0.3555
  843SOL    HW1 2528   1.102   0.306   0.778 -1.5274  1.2018 -1.2756
  843SOL    HW2 2529   1.271   0.311   0.781 -0.1889 -0.1572  0.4519
  844SOL     OW 2530   3.065   3.028   2.647 -0.3638 -0.1602 -0.3876
  844SOL    HW1 2531   3.024   2.992   2.561  0.1466 -0.9700 -0.2616
  844SOL    HW2 2532   3.005   3.024   2.722  2.9473 -0.8327 -2.3381
  845SOL     OW 2533   2.509   2.255   1.024 -0.0389 -0.2949  0.0729
  845SOL    HW1 2534   2.463   2.174   1.068  1.5122 -0.2924 -1.4045
  845SOL    HW2 2535   2.445   2.318   0.973  2.2759 -1.0499 -1.0320
  846SOL     OW 2536   2.738   1.921   2.236 -0.3992 -0.2453 -0.3532
  846SOL    HW1 2537   2.789   1.996   2.191  0.9067  1.5719 -1.2317
  846SOL    HW2 2538   2.781   1.906   2.326 -3.5920  0.8526 -0.7269
  847SOL     OW 2539   1.195   0.779   1.549 -0.1942  0.0968 -0.0926
  847SOL    HW1 2540   1.127   0.790   1.627 -1.8821 -1.3090  1.8451
  847SOL    HW2 2541   1.290   0.764   1.579 -2.2149  1.0321 -2.0459
  848SOL     OW 2542   2.786   2.987   3.100  0.4440  0.1554  0.0668
  848SOL    HW1 2543   2.691   2.948   3.095  0.8696  1.4454 -1.0173
  848SOL    HW2 2544   2.841   2.927   0.046  0.6599 -0.3114 -0.8777
  849SOL     OW 2545   0.825   2.915   2.990  0.3281  1.0991  0.4564
  849SOL    HW1 2546   0.760   2.885   3.067  0.0033  1.9388  2.7130
  849SOL    HW2 2547   0.922   2.876   2.999 -1.4557 -1.4723  0.3176
  850SOL     OW 2548   1.265   2.826   1.259 -0.0644  0.2536  0.0368
  850SOL    HW1 2549   1.325   2.745   1.255 -0.2218 -0.0057 -1.2174
  850SOL    HW2 2550   1.232   2.849   1.166  0.6448 -0.0054 -0.6630
  851SOL     OW 2551   2.627   0.262   1.995  0.4430 -0.8994  0.4183
  851SOL    HW1 2552   2.612   0.321   1.907 -0.7256  3.8479 -2.9057
  851SOL    HW2 2553   2.724   0.263   2.027 -2.4890 -1.8791 -0.9034
  852SOL     OW 2554   2.070   0.633   2.391  0.4963 -0.1624 -0.2512
  852SOL    HW1 2555   2.057   0.665   2.297 -0.8150 -1.5000 -0.7135
  852SOL    HW2 2556   2.168   0.646   2.422 -0.4651 -0.6164 -2.1340
  853SOL     OW 2557   3.027   2.999   0.640  0.2548 -0.2347  0.0804
  853SOL    HW1 2558   3.027   3.102   0.662 -0.1964  0.2121 -1.6234
  853SOL    HW2 2559   2.980   2.975   0.555 -0.5928  2.5387  2.2076
  854SOL     OW 2560   2.191   1.365   2.058  0.1434 -0.1963 -0.5145
  854SOL    HW1 2561   2.224   1.271   2.056 -1.7475 -0.5005 -1.6904
  854SOL    HW2 2562   2.267   1.432   2.072 -1.9547 -2.3020  0.5492
  855SOL     OW 2563   0.850   2.712   0.166 -0.2814  0.2571  0.3232
  855SOL    HW1 2564   0.778   2.757   0.118  3.6419  0.2291 -0.7271
  855SOL    HW2 2565   0.869   2.618   0.140 -0.7824  1.6040 -0.3828
  856SOL     OW 2566   0.165   0.049   2.661  0.1959 -0.1541 -0.2862
  856SOL    HW1 2567   0.092   3.097   2.643  1.0257 -0.4096  3.3387
  856SOL    HW2 2568   0.108   0.134   2.686  1.0993  0.2011  0.8692
  857SOL     OW 2569   1.152   3.111   1.669  0.3657  0.2365 -0.2183
  857SOL    HW1 2570   1.182   3.052   1.590 -0.1178  0.8534  1.4103
  857SOL    HW2 2571   1.047   0.003   1.665 -1.8642 -0.3649  1.7286
  858SOL     OW 2572   2.735   2.327   1.550  0.3735  0.2231 -1.0755
  858SOL    HW1 2573   2.752   2.239   1.594 -1.8443  0.8396 -0.6510
  858SOL    HW2 2574   2.694   2.396   1.614  1.3708  3.1896  1.1309
  859SOL     OW 2575   1.569   2.477   2.011 -0.2690  0.2095  0.4486
  859SOL    HW1 2576   1.520   2.446   1.930 -2.6193  0.4545 -0.7274
  859SOL    HW2 2577   1.553   2.578   2.016 -2.5587 -0.0218  1.7360
  860SOL     OW 2578   2.444   2.668   0.033  0.4999 -0.0507 -0.0146
  860SOL    HW1 2579   2.435   2.608   3.068  0.2416 -3.6655  0.1475
  860SOL    HW2 2580   2.354   2.672   0.082 -2.4802 -2.0855  1.1152
  861SOL     OW 2581   2.249   2.873   0.649  0.3019 -0.3490 -0.3647
  861SOL    HW1 2582   2.166   2.920   0.605  1.1548  1.6797  0.6678
  861SOL    HW2 2583   2.239   2.767   0.649 -0.1397 -2.4911 -2.3565
  862SOL     OW 2584   1.888   0.100   2.378 -0.4269  0.0245 -0.0420
  862SOL    HW1 2585   1.942   0.016   2.401  0.1247 -1.9453  2.5981
  862SOL    HW2 2586   1.936   0.160   2.312  1.6113  0.0989  2.9817
  863SOL     OW 2587   3.012   0.715   0.807 -0.1509  1.0713 -0.2032
  863SOL    HW1 2588   3.090   0.686   0.748 -1.4288 -2.0323  0.9277
  863SOL    HW2 2589   2.943   0.772   0.758  0.4317 -1.6622 -1.1409
  864SOL     OW 2590   0.257   2.875   2.159  0.4906 -0.8260  0.0705
  864SOL    HW1 2591   0.321   2.945   2.127  1.6384  0.8693  1.2653
  864SOL    HW2 2592   0.274   2.857   2.255  0.4779  2.3260  0.3125
  865SOL     OW 2593   0.733   1.192   0.038 -0.5902  0.2152  0.1681
  865SOL    HW1 2594   0.759   1.138   3.075 -0.0470  1.9561  0.4067
  865SOL    HW2 2595   0.636   1.184   0.068  2.7714  1.8888  3.0635
  866SOL     OW 2596   2.644   0.613   0.149 -0.0014 -0.2432 -0.2491
  866SOL    HW1 2597   2.726   0.630   0.095  1.1751 -0.2331  1.9616
  866SOL    HW2 2598   2.585   0.538   0.107 -1.0025  0.2417 -1.3834
  867SOL     OW 2599   3.002   0.028   2.984  0.1030  0.3205 -0.0834
  867SOL    HW1 2600   2.941   3.090   3.045  0.3215 -1.1190 -0.2573
  867SOL    HW2 2601   3.050   3.081   2.920  0.0759  0.4108  1.7836
  868SOL     OW 2602   1.437   0.084   0.536 -0.2676  0.7920 -0.8321
  868SOL    HW1 2603   1.379   0.162   0.503 -2.6763 -0.0665 -0.1131
  868SOL    HW2 2604   1.373   0.005   0.554 -0.2534  1.1069 -2.5758
  869SOL     OW 2605   1.459   1.695   0.566 -0.1883  0.0942 -0.1839
  869SOL    HW1 2606   1.384   1.675   0.631 -0.2008  2.6835  0.7324
  869SOL    HW2 2607   1.519   1.772   0.597  1.1018 -2.6474  0.1702
  870SOL     OW 2608   1.661   1.830   0.688 -0.9558 -0.2458 -0.2854
  870SOL    HW1 2609   1.755   1.805   0.712 -0.8756 -1.3870  1.7292
  870SOL    HW2 2610   1.658   1.922   0.641 -2.0671  0.1031 -1.0969
  871SOL     OW 2611   1.384   1.441   1.458  0.2956  0.0307 -0.7326
  871SOL    HW1 2612   1.370   1.356   1.512 -1.6637  1.1358 -0.8919
  871SOL    HW2 2613   1.399   1.426   1.358  0.0588 -2.2307 -0.1140
  872SOL     OW 2614   1.095   1.689   1.774  0.2480  0.0115 -0.0474
  872SOL    HW1 2615   1.044   1.653   1.692 -1.7701 -1.0649 -1.1635
  872SOL    HW2 2616   1.029   1.727   1.837  1.6865  1.1983  1.9917
  873SOL     OW 2617   0.833   1.624   2.491  0.1894 -0.7654  0.1733
  873SOL    HW1 2618   0.758   1.563   2.510  3.4009  0.1886  1.4514
  873SOL    HW2 2619   0.830   1.699   2.558 -0.6474  0.7324  0.1608
  874SOL     OW 2620   0.442   1.401   1.114  0.1211  0.0723 -0.0807
  874SOL    HW1 2621   0.394   1.485   1.143 -1.7884  1.5159  0.2629
  874SOL    HW2 2622   0.405   1.359   1.029  2.2504 -0.6180 -1.3088
  875SOL     OW 2623   2.750   0.110   1.145 -0.5677  0.3916 -0.2448
  875SOL    HW1 2624   2.736   0.095   1.050  2.1119 -1.1208  2.3538
  875SOL    HW2 2625   2.680   0.088   1.211  1.4075 -0.3108  0.2733
  876SOL     OW 2626   0.756   0.795   0.030 -0.6309  0.2832  0.2207
  876SOL    HW1 2627   0.834   0.737   3.113  0.6140 -1.4507  1.2375
  876SOL    HW2 2628   0.751   0.784   0.129  0.9907  2.4031 -0.5720
  877SOL     OW 2629   3.105   0.153   1.261  0.0873 -0.3123  0.1985
  877SOL    HW1 2630   3.024   0.208   1.229  0.4225  0.4403 -1.6872
  877SOL    HW2 2631   3.080   0.085   1.332 -2.2277 -0.3758  1.3175
  878SOL     OW 2632   1.742   2.213   3.064  0.4954  0.2237  0.2274
  878SOL    HW1 2633   1.838   2.213   3.055 -2.9599 -0.3913  1.2635
  878SOL    HW2 2634   1.697   2.121   3.084 -1.0649  0.2825  1.9143
  879SOL     OW 2635   2.547   2.081   1.494  0.2657 -0.1910  0.3872
  879SOL    HW1 2636   2.462   2.121   1.538 -0.6275  1.3539  0.8562
  879SOL    HW2 2637   2.621   2.070   1.566  1.2409 -1.7590 -1.1817
  880SOL     OW 2638   0.986   0.341   1.605  0.5100  0.6160  0.2144
  880SOL    HW1 2639   1.068   0.329   1.661 -1.4007  0.6660 -1.7821
  880SOL    HW2 2640   0.907   0.380   1.657  0.8171  1.3809 -0.8076
  881SOL     OW 2641   1.039   2.111   3.043 -0.0511  0.1753  0.2007
  881SOL    HW1 2642   0.996   2.108   2.953 -0.3950  0.3492  0.1225
  881SOL    HW2 2643   1.056   2.017   3.072  0.3613  1.6320  2.1941
  882SOL     OW 2644   2.313   1.315   1.734 -0.4565  0.1524 -0.2648
  882SOL    HW1 2645   2.355   1.243   1.672 -0.9244 -0.3671  0.2831
  882SOL    HW2 2646   2.301   1.275   1.825  0.0905  1.2408 -1.9940
  883SOL     OW 2647   1.225   0.769   2.041  0.0555  0.0852  0.0230
  883SOL    HW1 2648   1.142   0.714   2.063 -0.2962 -0.4015  2.1549
  883SOL    HW2 2649   1.271   0.742   1.950 -1.5722  1.3311  0.3887
  884SOL     OW 2650   2.773   0.428   3.061 -0.2465 -0.0637  0.0193
  884SOL    HW1 2651   2.824   0.423   0.030 -0.4643 -1.4653 -1.2793
  884SOL    HW2 2652   2.785   0.521   3.013 -0.8144  0.7023  0.8565
  885SOL     OW 2653   0.329   2.177   0.380  0.7498 -0.2802 -0.4162
  885SOL    HW1 2654   0.289   2.108   0.315 -2.9152  0.9634  1.3125
  885SOL    HW2 2655   0.393   2.241   0.329  0.7823 -0.2440  1.0538
  886SOL     OW 2656   1.939   1.202   2.993  0.7581  0.2853  0.7364
  886SOL    HW1 2657   2.019   1.140   3.026  1.7977 -2.5626 -1.9872
  886SOL    HW2 2658   1.864   1.213   3.059 -0.5419  2.9692 -0.0624
  887SOL     OW 2659   1.657   0.586   1.775  0.8267 -0.1680  0.0748
  887SOL    HW1 2660   1.654   0.590   1.877 -0.5974  2.3847 -1.4278
  887SOL    HW2 2661   1.688   0.680   1.747  0.4085  1.2626 -0.7487
  888SOL     OW 2662   2.951   1.159   1.630  0.8084 -0.5359  0.2202
  888SOL    HW1 2663   2.990   1.152   1.539 -0.1331 -1.8383  0.0481
  888SOL    HW2 2664   3.025   1.167   1.703  0.2528 -0.7606 -1.1843
  889SOL     OW 2665   2.850   2.621   0.980  0.2517  0.0097  0.6149
  889SOL    HW1 2666   2.912   2.702   0.969  2.3914  2.6871  0.7575
  889SOL    HW2 2667   2.860   2.565   0.895 -1.3532  0.7675  2.3113
  890SOL     OW 2668   0.085   2.701   2.556 -0.5598 -0.5210  0.3595
  890SOL    HW1 2669   0.108   2.603   2.551 -0.7867 -2.5190 -2.4248
  890SOL    HW2 2670   0.130   2.738   2.638 -0.5372 -0.1406  1.3490
  891SOL     OW 2671   0.421   1.857   0.201 -0.2865 -0.0838  0.0832
  891SOL    HW1 2672   0.481   1.893   0.273 -0.4914  1.6467 -0.7729
  891SOL    HW2 2673   0.413   1.760   0.208 -0.0273  2.9921  0.0171
  892SOL     OW 2674   3.032   2.272   1.078 -0.2744  0.4244  0.2655
  892SOL    HW1 2675   3.007   2.229   1.168  3.1775  1.2307  0.7942
  892SOL    HW2 2676   2.957   2.312   1.022 -0.3902  1.8721 -2.4134
  893SOL     OW 2677   0.517   2.858   1.486  0.1412 -0.0086 -0.1033
  893SOL    HW1 2678   0.434   2.909   1.456  1.4436 -1.7907 -2.6685
  893SOL    HW2 2679   0.555   2.917   1.565 -2.1605  5.1229  2.8785
  894SOL     OW 2680   2.353   1.671   0.780  0.3518 -0.0059 -0.2992
  894SOL    HW1 2681   2.427   1.619   0.832 -0.2161 -0.1171  2.0135
  894SOL    HW2 2682   2.319   1.611   0.698 -2.5619 -2.5975 -1.0519
  895SOL     OW 2683   2.742   2.577   1.712 -0.2342  0.3604 -0.1679
  895SOL    HW1 2684   2.812   2.524   1.762 -0.3977 -0.9744  0.0824
  895SOL    HW2 2685   2.793   2.634   1.644 -0.2719  3.0627  1.1045
  896SOL     OW 2686   1.061   0.451   1.366 -0.2293  0.3118 -0.1240
  896SOL    HW1 2687   1.161   0.460   1.390  0.1780 -0.8628 -1.6734
  896SOL    HW2 2688   1.018   0.405   1.443 -1.3629  0.8535 -1.7057
  897SOL     OW 2689   0.981   1.646   1.542  0.3169 -0.6576  0.5101
  897SOL    HW1 2690   0.916   1.720   1.503 -0.1464 -0.3263  1.1128
  897SOL    HW2 2691   1.066   1.644   1.484 -0.3122 -0.6329 -1.4360
  898SOL     OW 2692   1.487   2.730   1.598  0.1582  0.2987 -0.1976
  898SOL    HW1 2693   1.476   2.648   1.532  1.9009 -0.9912 -0.5360
  898SOL    HW2 2694   1.395   2.756   1.635  2.5966  1.3017 -0.1934
  899SOL     OW 2695   0.963   0.577   0.025 -0.0165 -0.1738 -0.1897
  899SOL    HW1 2696   1.057   0.590   3.103  0.5801  1.7999  1.6801
  899SOL    HW2 2697   0.945   0.476   0.023  1.7109 -0.7874  0.7257
  900SOL     OW 2698   1.510   2.321   2.231 -0.1632 -0.3773 -0.4876
  900SOL    HW1 2699   1.452   2.348   2.310  0.7980  0.2926 -0.8045
  900SOL    HW2 2700   1.522   2.401   2.167  1.1314 -0.8383 -1.7952
  901SOL     OW 2701   1.157   2.323   0.072  0.5634 -0.1444 -0.5319
  901SOL    HW1 2702   1.102   2.261   0.011 -0.3084 -0.7616 -0.3122
  901SOL    HW2 2703   1.200   2.272   0.151 -0.7253 -0.0377 -0.6661
  902SOL     OW 2704   1.651   1.268   0.690  0.5561 -0.2018 -0.3177
  902SOL    HW1 2705   1.586   1.275   0.613  3.2181 -0.0439  1.3040
  902SOL    HW2 2706   1.674   1.363   0.722 -0.0575 -1.0803  0.2359
  903SOL     OW 2707   2.217   1.140   3.088 -0.0224 -0.4639  0.1433
  903SOL    HW1 2708   2.261   1.078   3.018  0.7494 -1.2240 -2.0479
  903SOL    HW2 2709   2.232   1.096   0.061  1.0248  2.5843  2.0769
  904SOL     OW 2710   0.946   1.319   0.177  0.0815  0.1833  0.1845
  904SOL    HW1 2711   0.867   1.296   0.118  0.0584  1.6811 -1.0992
  904SOL    HW2 2712   0.928   1.306   0.273  0.4167  1.7849 -4.0897
  905SOL     OW 2713   1.831   3.041   1.220  0.1780 -0.3375  0.6073
  905SOL    HW1 2714   1.741   3.093   1.213  2.4430 -2.8596 -0.6329
  905SOL    HW2 2715   1.846   3.024   1.316 -0.4908 -0.6842  0.5442
  906SOL     OW 2716   2.758   2.565   1.234 -0.1508  0.5003 -0.5304
  906SOL    HW1 2717   2.793   2.566   1.140  0.4947  0.3975  0.4181
  906SOL    HW2 2718   2.688   2.490   1.244  1.3599 -0.5989  2.0679
  907SOL     OW 2719   1.236   0.953   0.470  0.0910 -0.2953 -0.1126
  907SOL    HW1 2720   1.292   0.871   0.485 -1.3499  1.0597 -1.7276
  907SOL    HW2 2721   1.210   0.968   0.370  1.1482  0.4791  0.7697
  908SOL     OW 2722   1.644   0.194   0.986 -0.2969 -0.5929  0.2839
  908SOL    HW1 2723   1.627   0.144   1.073 -0.4309  1.6461 -0.0218
  908SOL    HW2 2724   1.739   0.229   0.983  0.3391 -1.4898  0.4590
  909SOL     OW 2725   2.383   1.150   1.541 -0.3409  0.2206 -0.2957
  909SOL    HW1 2726   2.426   1.064   1.520  2.0876  1.5863  0.1101
  909SOL    HW2 2727   2.412   1.229   1.483  2.9861 -0.5236  1.1080
  910SOL     OW 2728   2.020   0.662   2.127  0.1201 -0.3445  0.7575
  910SOL    HW1 2729   2.001   0.761   2.140 -1.5740  2.6127  0.3671
  910SOL    HW2 2730   2.055   0.642   2.030 -0.8943  4.5824  0.1020
  911SOL     OW 2731   2.453   0.951   2.732  0.4443 -0.6405  0.1362
  911SOL    HW1 2732   2.468   1.009   2.812 -1.3431  0.9070 -2.4102
  911SOL    HW2 2733   2.358   0.916   2.728  2.6750  0.6036 -0.5086
  912SOL     OW 2734   0.296   0.983   1.776 -0.4256  0.0252 -0.0311
  912SOL    HW1 2735   0.273   0.939   1.686 -1.0879 -1.0039  1.2662
  912SOL    HW2 2736   0.286   1.081   1.769 -0.8646 -0.8493 -3.5738
  913SOL     OW 2737   2.956   2.078   1.270  0.0494  0.2267 -0.0130
  913SOL    HW1 2738   3.004   2.063   1.365  1.0830 -0.7099 -2.8133
  913SOL    HW2 2739   2.854   2.096   1.276 -0.2912  1.0377  1.3075
  914SOL     OW 2740   1.717   1.008   2.028 -0.4296 -0.5562  0.1409
  914SOL    HW1 2741   1.777   1.089   2.006 -0.3378  1.5774 -0.6273
  914SOL    HW2 2742   1.729   0.926   1.961  1.8272 -2.6555  1.1204
  915SOL     OW 2743   2.361   0.880   1.170 -0.0099  0.3105 -0.2257
  915SOL    HW1 2744   2.393   0.831   1.255  2.8039 -0.5036  0.0274
  915SOL    HW2 2745   2.420   0.855   1.094  1.5302  1.8654  3.8012
  916SOL     OW 2746   1.933   2.113   0.976 -0.2530  0.6755  0.3067
  916SOL    HW1 2747   1.871   2.183   1.015 -0.6944 -0.8333 -3.2896
  916SOL    HW2 2748   1.898   2.017   0.995 -0.7619 -2.1672  1.4313
  917SOL     OW 2749   1.972   2.065   2.459  0.4548  0.0891  0.1767
  917SOL    HW1 2750   1.890   2.128   2.448 -2.2440  2.3039 -0.6704
  917SOL    HW2 2751   2.064   2.108   2.448 -1.0767 -1.4365 -2.8287
  918SOL     OW 2752   2.094   2.593   2.463  0.3572 -0.2160  0.6085
  918SOL    HW1 2753   2.038   2.673   2.497  1.2204  0.2093 -3.0199
  918SOL    HW2 2754   2.026   2.522   2.429 -1.4075 -2.1995  0.2941
  919SOL     OW 2755   1.285   3.008   1.448  0.6767  0.5191  0.0071
  919SOL    HW1 2756   1.280   2.939   1.371 -4.6773  0.5400 -0.0105
  919SOL    HW2 2757   1.374   3.053   1.469 -0.9110 -1.7473 -2.1354
  920SOL     OW 2758   3.049   0.175   2.305 -0.3789 -0.1603  0.1145
  920SOL    HW1 2759   2.977   0.141   2.370  2.4649  1.0588  1.4985
  920SOL    HW2 2760   0.020   0.127   2.322  0.9742  2.2219 -0.8443
  921SOL     OW 2761   3.099   0.788   1.542  0.3864 -0.2443 -0.6380
  921SOL    HW1 2762   3.045   0.797   1.455  0.5409  0.4918 -0.7167
  921SOL    HW2 2763   0.070   0.836   1.531  0.2651  0.2294  0.6914
  922SOL     OW 2764   2.297   2.590   0.406  0.6355 -0.5350  0.0027
  922SOL    HW1 2765   2.237   2.640   0.341  0.6533 -0.0454  1.6576
  922SOL    HW2 2766   2.378   2.543   0.365  0.2693 -2.9810  0.0126
  923SOL     OW 2767   0.696   2.111   0.622 -0.4059  0.2082  0.3113
  923SOL    HW1 2768   0.783   2.162   0.621  0.7271  0.4077  1.2451
  923SOL    HW2 2769   0.636   2.135   0.700 -0.5959  0.4294  3.9381
  924SOL     OW 2770   1.105   0.653   0.247  0.2537  0.3239 -0.5167
  924SOL    HW1 2771   1.051   0.647   0.333  0.2174 -0.4747  1.2098
  924SOL    HW2 2772   1.047   0.643   0.162  1.3904 -2.6964 -1.4568
  925SOL     OW 2773   2.662   0.869   1.195 -0.1485  0.5722 -0.2229
  925SOL    HW1 2774   2.660   0.777   1.240 -1.9359  1.8496 -1.2603
  925SOL    HW2 2775   2.649   0.854   1.094  0.2702 -0.7191 -0.1929
  926SOL     OW 2776   0.682   0.100   1.319  0.2857  0.0112  0.3086
  926SOL    HW1 2777   0.734   0.020   1.342 -1.9433  1.6115  1.0840
  926SOL    HW2 2778   0.597   0.103   1.374 -1.5695  2.1412  0.8055
  927SOL     OW 2779   0.456   1.565   2.396 -0.1401  0.0303  0.9622
  927SOL    HW1 2780   0.405   1.587   2.484  0.7655 -1.3721  1.3327
  927SOL    HW2 2781   0.385   1.540   2.327 -1.2414  1.0433 -0.6397
  928SOL     OW 2782   0.291   0.449   2.345  0.1469 -0.3732 -0.1369
  928SOL    HW1 2783   0.190   0.463   2.330 -0.5277  0.6792  1.4936
  928SOL    HW2 2784   0.309   0.355   2.384  1.3931 -0.7696 -0.0676
  929SOL     OW 2785   2.837   2.959   1.153  0.1709 -0.0667 -0.0042
  929SOL    HW1 2786   2.855   2.920   1.062  0.4836 -1.1732 -2.4146
  929SOL    HW2 2787   2.825   3.059   1.149  0.1284 -0.0853 -0.4270
  930SOL     OW 2788   2.020   0.734   1.768 -0.1096 -0.4288  0.2733
  930SOL    HW1 2789   2.040   0.640   1.788 -0.1558 -0.0589 -0.2706
  930SOL    HW2 2790   2.062   0.802   1.833  2.5969  3.7719  0.3424
  931SOL     OW 2791   1.736   1.196   0.075 -0.2401  0.1126  1.0610
  931SOL    HW1 2792   1.657   1.204   0.011  0.0064  0.4442  0.2277
  931SOL    HW2 2793   1.711   1.240   0.158  2.1227 -2.5673 -4.1958
  932SOL     OW 2794   1.973   1.218   0.357 -0.0943  0.1111 -0.7017
  932SOL    HW1 2795   1.994   1.120   0.363 -0.2809  0.6300 -1.6679
  932SOL    HW2 2796   1.873   1.239   0.356 -2.5647  1.0931 -1.1392
  933SOL     OW 2797   2.102   1.699   0.940  0.7038 -0.1830  0.3588
  933SOL    HW1 2798   2.179   1.649   0.886  0.5446 -0.9656  1.2391
  933SOL    HW2 2799   2.145   1.736   1.026 -0.0978  3.0360  0.5499
  934SOL     OW 2800   2.011   0.772   2.613  0.3166  0.2043  0.1227
  934SOL    HW1 2801   2.010   0.724   2.524  1.4010 -0.2556 -0.2773
  934SOL    HW2 2802   1.924   0.767   2.664  0.0590 -1.4479  2.8599
  935SOL     OW 2803   0.194   0.899   0.544 -0.4945 -0.0044 -0.4113
  935SOL    HW1 2804   0.219   0.891   0.441  1.4520 -0.6200  2.1052
  935SOL    HW2 2805   0.095   0.898   0.560  0.2563 -2.6143 -2.3768
  936SOL     OW 2806   0.581   0.017   0.794  0.2535  0.2452  0.2665
  936SOL    HW1 2807   0.640   3.062   0.822  0.3231  0.9300 -1.1058
  936SOL    HW2 2808   0.594   0.035   0.692  0.2272  0.3942 -4.0570
  937SOL     OW 2809   2.962   3.092   1.972  0.0774 -0.5231  0.7463
  937SOL    HW1 2810   3.020   3.036   2.033 -0.6351 -1.1911  0.4865
  937SOL    HW2 2811   2.919   3.035   1.902  4.6595  0.9589 -0.1510
  938SOL     OW 2812   0.167   2.545   0.160 -0.5533 -0.2008 -0.8141
  938SOL    HW1 2813   0.069   2.530   0.144  2.5407  1.0894  0.7543
  938SOL    HW2 2814   0.177   2.616   0.239  0.1200  4.0445 -0.0755
  939SOL     OW 2815   1.108   1.805   1.034 -0.3358  0.1164  0.2727
  939SOL    HW1 2816   1.055   1.758   0.960  2.2034 -0.6560  0.4050
  939SOL    HW2 2817   1.170   1.747   1.094  0.1559  0.0051 -1.4122
  940SOL     OW 2818   3.102   0.563   3.078 -0.0924  0.2608 -0.1941
  940SOL    HW1 2819   3.094   0.469   3.041  2.2272  2.9601  3.0140
  940SOL    HW2 2820   0.067   0.608   3.034  0.5106 -0.9331  0.6159
  941SOL     OW 2821   2.243   0.193   2.613 -0.1910  0.1325  0.0708
  941SOL    HW1 2822   2.258   0.240   2.524  0.9555 -1.3020 -0.6991
  941SOL    HW2 2823   2.147   0.183   2.638  0.0051  1.2401  1.2413
  942SOL     OW 2824   1.447   0.370   0.883  0.4393  0.0260 -0.1874
  942SOL    HW1 2825   1.524   0.307   0.910  0.0349  1.5149  0.7326
  942SOL    HW2 2826   1.396   0.392   0.970  1.1359  1.1998  1.5749
  943SOL     OW 2827   1.023   0.812   1.764  0.3601  0.3183  0.3953
  943SOL    HW1 2828   1.032   0.739   1.837  0.4108 -2.6454  3.1167
  943SOL    HW2 2829   1.007   0.901   1.810  2.4447 -2.5450  1.0327
  944SOL     OW 2830   2.109   1.091   1.661 -0.2707  0.0217  0.8306
  944SOL    HW1 2831   2.078   0.995   1.631  1.0633 -0.2080 -0.6545
  944SOL    HW2 2832   2.205   1.103   1.633 -1.1861  0.5210  0.6312
  945SOL     OW 2833   2.744   0.101   0.172  0.1392 -0.4440 -0.1993
  945SOL    HW1 2834   2.726   0.073   0.272  2.2073 -1.6228 -1.2122
  945SOL    HW2 2835   2.723   0.016   0.114 -1.6751 -0.9126 -0.4687
  946SOL     OW 2836   2.947   0.960   1.893 -0.1420 -0.3399  0.2677
  946SOL    HW1 2837   3.000   1.044   1.867 -1.2110  1.3715  1.8316
  946SOL    HW2 2838   2.958   0.894   1.816 -0.4954  1.6181  0.9638
  947SOL     OW 2839   1.040   2.958   0.134 -0.1509  0.4232 -0.1708
  947SOL    HW1 2840   1.082   2.943   0.044 -0.5840 -0.8611  0.6393
  947SOL    HW2 2841   0.981   3.038   0.130 -0.1850 -1.2646 -1.3824
  948SOL     OW 2842   2.449   1.896   1.315 -0.4574 -0.1752  0.2155
  948SOL    HW1 2843   2.464   1.978   1.376 -1.4215  1.6956 -0.8902
  948SOL    HW2 2844   2.453   1.809   1.370  0.5099  0.4376  0.0816
  949SOL     OW 2845   0.133   1.261   2.995  0.4439  0.1350 -0.0255
  949SOL    HW1 2846   0.174   1.220   2.908  0.3187  1.2441 -0.9178
  949SOL    HW2 2847   0.148   1.362   2.999 -3.4527 -3.3335 -0.9234
  950SOL     OW 2848   0.817   2.519   1.037 -0.2314 -0.3986 -0.0518
  950SOL    HW1 2849   0.747   2.557   1.097  1.6949  0.0434 -3.0110
  950SOL    HW2 2850   0.761   2.479   0.959 -0.8975 -2.2030  0.7125
  951SOL     OW 2851   0.635   1.433   2.538 -0.2611  0.4611  0.2611
  951SOL    HW1 2852   0.577   1.512   2.507 -0.8421  0.3157 -0.5244
  951SOL    HW2 2853   0.572   1.365   2.583 -0.6713  0.8185 -3.7546
  952SOL     OW 2854   0.364   0.715   0.594 -0.4790 -0.0917 -0.1405
  952SOL    HW1 2855   0.443   0.725   0.655 -0.2808 -0.4002 -0.2163
  952SOL    HW2 2856   0.331   0.807   0.575 -1.1906 -1.3130  0.4548
  953SOL     OW 2857   2.648   3.006   2.227 -0.3399 -0.1447  0.1816
  953SOL    HW1 2858   2.553   3.042   2.238 -0.8912 -0.2544 -2.8260
  953SOL    HW2 2859   2.720   3.060   2.277 -1.1029 -1.6371  0.0075
  954SOL     OW 2860   1.364   1.047   0.779 -0.1382  0.1875  0.0863
  954SOL    HW1 2861   1.410   1.121   0.727  2.6990  0.4435 -2.4613
  954SOL    HW2 2862   1.412   0.958   0.769 -0.1691  1.3342 -0.2358
  955SOL     OW 2863   0.611   1.935   0.385  0.0536  0.5412  0.9128
  955SOL    HW1 2864   0.708   1.948   0.348 -1.1268  3.2794 -1.9954
  955SOL    HW2 2865   0.588   1.998   0.460 -0.1697  0.9464  0.7731
  956SOL     OW 2866   2.314   0.402   2.070  0.2683  0.2936  0.6015
  956SOL    HW1 2867   2.363   0.472   2.129 -2.7632  2.0983 -1.7746
  956SOL    HW2 2868   2.378   0.339   2.018  1.6369 -0.0544 -0.0816
  957SOL     OW 2869   2.260   2.465   2.065  0.4177  0.0819  0.8082
  957SOL    HW1 2870   2.329   2.511   2.004 -0.7168 -1.9663  1.8202
  957SOL    HW2 2871   2.299   2.385   2.120 -2.0562  0.7384  2.1278
  958SOL     OW 2872   1.822   1.202   1.397 -0.3404  0.2174 -0.2229
  958SOL    HW1 2873   1.840   1.283   1.458  0.6323 -1.2039 -0.5545
  958SOL    HW2 2874   1.907   1.178   1.350 -1.2700  1.4432  1.0106
  959SOL     OW 2875   2.062   1.835   2.158  0.1254 -0.1784  0.1241
  959SOL    HW1 2876   2.034   1.924   2.113  1.5991 -1.6191 -0.1793
  959SOL    HW2 2877   2.004   1.821   2.242  0.6735 -1.0203  0.8841
  960SOL     OW 2878   0.550   1.000   2.767  0.2889  0.4253  0.3495
  960SOL    HW1 2879   0.549   0.933   2.688 -0.2488 -0.0498  0.9890
  960SOL    HW2 2880   0.636   0.998   2.821 -3.1977 -2.6282  1.1709
  961SOL     OW 2881   0.231   1.123   2.779 -0.1241  0.0177 -0.0957
  961SOL    HW1 2882   0.253   1.057   2.853 -2.9712  2.5246 -3.2803
  961SOL    HW2 2883   0.176   1.073   2.707  0.8289 -1.0781  0.9314
  962SOL     OW 2884   0.554   1.808   2.290  0.1379  0.0588  0.3028
  962SOL    HW1 2885   0.527   1.721   2.332 -0.3224  1.5569  1.5587
  962SOL    HW2 2886   0.551   1.877   2.364  1.8750  0.9916  2.7642
  963SOL     OW 2887   2.768   2.111   0.158 -0.4280 -0.4356 -0.1026
  963SOL    HW1 2888   2.704   2.186   0.130  5.0006 -1.6768 -2.1052
  963SOL    HW2 2889   2.782   2.046   0.082  0.6332  1.7817  0.4889
  964SOL     OW 2890   0.661   2.039   1.874 -0.3463  0.2598  0.0864
  964SOL    HW1 2891   0.560   2.056   1.886 -2.0862  0.4684  1.9847
  964SOL    HW2 2892   0.711   2.066   1.957 -0.1598 -1.6464 -1.6242
  965SOL     OW 2893   1.656   2.014   0.483  0.1451 -0.1859 -0.2088
  965SOL    HW1 2894   1.702   2.098   0.442  1.3773  1.9896  0.5166
  965SOL    HW2 2895   1.706   1.937   0.439 -2.4682 -1.2539 -0.5890
  966SOL     OW 2896   2.859   1.691   0.126  0.2752  0.0393 -0.4309
  966SOL    HW1 2897   2.935   1.638   0.084 -1.8586  0.5782  1.6616
  966SOL    HW2 2898   2.791   1.620   0.156  0.3970 -1.5126 -1.3216
  967SOL     OW 2899   2.131   3.113   2.207 -0.4235 -0.1015  0.4700
  967SOL    HW1 2900   2.090   3.073   2.294 -1.5589  3.7391  0.3664
  967SOL    HW2 2901   2.094   0.094   2.199 -2.3996  1.7821 -1.7130
  968SOL     OW 2902   0.947   0.140   0.229  0.1619 -0.0491 -0.0158
  968SOL    HW1 2903   0.910   0.113   0.135  0.1879  0.5295 -0.4630
  968SOL    HW2 2904   0.984   0.235   0.225 -2.5974  0.0192 -1.3347
  969SOL     OW 2905   0.155   1.713   2.111  0.2109 -0.0310  0.0117
  969SOL    HW1 2906   0.249   1.698   2.075  1.0301 -3.0147 -0.1648
  969SOL    HW2 2907   0.131   1.643   2.181 -0.9835 -2.7348  1.6986
  970SOL     OW 2908   1.877   2.574   1.394 -0.0908  0.2270 -0.2527
  970SOL    HW1 2909   1.975   2.548   1.409  0.2489  0.2492 -0.4374
  970SOL    HW2 2910   1.815   2.493   1.412 -0.1090  0.7194  0.8897
  971SOL     OW 2911   2.243   2.374   0.768 -0.1837  0.1613  0.1707
  971SOL    HW1 2912   2.272   2.408   0.862 -1.1851 -0.2184  1.4127
  971SOL    HW2 2913   2.303   2.299   0.731 -0.2407 -2.7239 -2.7028
  972SOL     OW 2914   0.086   0.955   2.621 -0.0684 -0.6002 -0.4295
  972SOL    HW1 2915   0.141   0.945   2.536  1.8002 -0.2309  0.6759
  972SOL    HW2 2916   0.020   0.879   2.634 -2.1418 -1.3598 -0.1365
  973SOL     OW 2917   0.633   0.259   0.887  0.2885  0.0996 -0.7504
  973SOL    HW1 2918   0.646   0.265   0.992  2.9753  0.5773  2.9975
  973SOL    HW2 2919   0.621   0.164   0.859 -1.8761  0.2985  1.8397
  974SOL     OW 2920   2.288   1.121   1.964 -0.7189 -0.2755 -0.0683
  974SOL    HW1 2921   2.378   1.131   1.918  0.8341 -3.8830 -0.2217
  974SOL    HW2 2922   2.232   1.050   1.922  3.1925  0.7668 -2.9153
  975SOL     OW 2923   0.030   3.049   0.250 -0.3819 -0.0393  0.0447
  975SOL    HW1 2924   3.048   3.044   0.278 -3.6348 -0.6359 -1.8213
  975SOL    HW2 2925   0.077   0.005   0.305 -0.3494 -0.9022 -1.5578
  976SOL     OW 2926   0.356   1.824   0.940  0.3104 -0.5140 -0.0999
  976SOL    HW1 2927   0.350   1.750   1.011 -0.2520  0.7970  0.1528
  976SOL    HW2 2928   0.277   1.829   0.878  3.5498  1.4267  1.4401
  977SOL     OW 2929   0.971   1.781   0.567  0.2114 -0.2677 -0.6564
  977SOL    HW1 2930   0.965   1.704   0.501  0.4443 -0.7763 -0.3991
  977SOL    HW2 2931   0.882   1.804   0.610  1.1462  0.6205  0.3133
  978SOL     OW 2932   0.043   0.884   0.113 -0.2490 -0.2144  0.5574
  978SOL    HW1 2933   0.076   0.814   0.044  2.9994 -0.9819 -2.0582
  978SOL    HW2 2934   0.021   0.976   0.075 -1.7427 -1.7430  1.3012
  979SOL     OW 2935   1.646   1.529   0.469  0.3099 -0.1457  0.0066
  979SOL    HW1 2936   1.722   1.519   0.537  1.5022 -0.4350 -0.0557
  979SOL    HW2 2937   1.573   1.585   0.510  1.2712  0.0640  0.0332
  980SOL     OW 2938   0.644   2.354   2.015  0.4010  0.2269 -0.0670
  980SOL    HW1 2939   0.722   2.288   2.023  0.8801 -0.4886  1.2125
  980SOL    HW2 2940   0.668   2.426   1.947  0.1941  0.9092 -3.7946
  981SOL     OW 2941   2.371   0.840   3.003 -0.2820  0.0399 -0.0409
  981SOL    HW1 2942   2.305   0.849   2.932  0.8443 -0.3113  1.0951
  981SOL    HW2 2943   2.337   0.772   3.070 -2.1110 -0.8613 -0.9027
  982SOL     OW 2944   3.082   2.643   1.952 -0.4409  0.1733 -0.0576
  982SOL    HW1 2945   3.021   2.694   2.018  1.1368  1.5693 -0.1652
  982SOL    HW2 2946   0.066   2.665   1.961 -0.8046 -1.4546 -1.6887
  983SOL     OW 2947   1.867   0.469   1.631  0.1997  0.3128  0.0732
  983SOL    HW1 2948   1.837   0.493   1.539 -0.9340  1.9120  2.1960
  983SOL    HW2 2949   1.812   0.527   1.694  1.4185 -0.8103 -2.1991
  984SOL     OW 2950   2.029   2.986   2.434  0.1861  0.3019 -0.5296
  984SOL    HW1 2951   2.125   2.953   2.452  1.3795 -1.6863 -2.6600
  984SOL    HW2 2952   1.957   2.927   2.478  2.5605  2.2077 -1.3337
  985SOL     OW 2953   1.583   1.463   1.765  0.2817 -0.0562 -0.1321
  985SOL    HW1 2954   1.527   1.377   1.747  1.7241  0.2966  0.8673
  985SOL    HW2 2955   1.521   1.538   1.791  1.1546  1.0307 -0.0318
  986SOL     OW 2956   2.182   2.662   2.222  0.4090  0.0944 -0.6632
  986SOL    HW1 2957   2.211   2.573   2.182 -0.8512  1.2014 -1.8488
  986SOL    HW2 2958   2.150   2.646   2.321 -2.4983  0.4799  2.0213
  987SOL     OW 2959   2.717   1.842   2.841  0.0410 -0.0484 -0.7360
  987SOL    HW1 2960   2.734   1.759   2.791  0.3186  3.3261  2.7028
  987SOL    HW2 2961   2.690   1.924   2.782  2.4891 -0.4293  2.0570
  988SOL     OW 2962   0.005   0.540   1.421 -0.1606  0.1443  0.3577
  988SOL    HW1 2963   0.024   0.636   1.449  3.2914 -1.7740 -2.3641
  988SOL    HW2 2964   3.023   0.513   1.439 -2.8762 -0.2479 -0.4613
  989SOL     OW 2965   2.052   1.333   1.515  0.1663  0.6700  0.0017
  989SOL    HW1 2966   2.079   1.235   1.528 -0.7674 -0.1136  2.1748
  989SOL    HW2 2967   2.131   1.392   1.504  0.8242 -0.4388 -0.1751
  990SOL     OW 2968   2.873   0.688   3.104  0.0402 -0.7993 -0.3637
  990SOL    HW1 2969   2.962   0.641   3.086  0.2802  0.8504  0.0284
  990SOL    HW2 2970   2.883   0.787   3.087 -0.7625  0.4574 -0.3533
  991SOL     OW 2971   0.266   1.767   3.086 -0.1544 -0.5574 -0.0078
  991SOL    HW1 2972   0.273   1.838   3.013  1.0144  2.5356 -0.5819
  991SOL    HW2 2973   0.347   1.777   0.027 -1.8997  1.2037 -0.1802
  992SOL     OW 2974   2.273   1.866   1.781 -0.1358  0.0796 -0.4473
  992SOL    HW1 2975   2.189   1.827   1.734 -0.2245  0.4488 -0.0791
  992SOL    HW2 2976   2.281   1.839   1.882  2.8476  2.3495  0.4192
  993SOL     OW 2977   0.748   2.938   0.861 -0.4930 -0.1509  0.0097
  993SOL    HW1 2978   0.800   2.939   0.950 -0.2014 -1.2242  3.6738
  993SOL    HW2 2979   0.811   2.909   0.786 -0.7442 -4.2370  2.8219
  994SOL     OW 2980   2.766   2.085   1.673  0.0127  0.3945 -0.2082
  994SOL    HW1 2981   2.817   1.996   1.675 -1.8859 -1.9132 -2.0268
  994SOL    HW2 2982   2.712   2.085   1.758  3.8632 -1.9805 -0.3697
  995SOL     OW 2983   1.979   1.783   2.434 -0.1291  0.8361 -0.3625
  995SOL    HW1 2984   1.936   1.876   2.442  1.4548  0.4773 -0.0244
  995SOL    HW2 2985   1.913   1.711   2.466 -0.4145  1.2225  2.4906
  996SOL     OW 2986   1.812   1.754   3.016 -0.3325 -0.1572  0.4533
  996SOL    HW1 2987   1.736   1.816   3.040 -0.2152 -1.7694 -0.9889
  996SOL    HW2 2988   1.897   1.772   3.066 -1.4099 -0.2728 -0.0201
  997SOL     OW 2989   1.070   1.446   2.074  0.5118 -0.0283  0.0737
  997SOL    HW1 2990   0.999   1.484   2.139 -0.2421 -0.1890  2.2273
  997SOL    HW2 2991   1.146   1.513   2.063 -0.2052 -0.8046 -0.5652
  998SOL     OW 2992   2.669   2.039   0.638 -0.1321 -0.2414  0.3383
  998SOL    HW1 2993   2.669   1.945   0.599  0.4528  1.1739 -1.5809
  998SOL    HW2 2994   2.731   2.049   0.717 -0.5621 -1.3790 -2.6424
  999SOL     OW 2995   0.108   2.551   0.923  0.6197  0.1769 -0.5205
  999SOL    HW1 2996   0.051   2.502   0.858  1.9270  1.2893 -0.6287
  999SOL    HW2 2997   0.178   2.591   0.871 -3.1293 -0.2184  0.8015
 1000SOL     OW 2998   1.275   0.082   3.094 -0.0358 -0.0127  0.0403
 1000SOL    HW1 2999   1.220   0.029   0.042 -0.6130  0.4036 -0.0465
 1000SOL    HW2 3000   1.280   0.178   0.005  0.5265  2.7658  0.2166
   3.11726   3.11726   3.11726
