1000 SPC/Fw water molecules t= 304.00000 step= 304000
 3000
    1SOL     OW    1   2.594   0.083   0.967 -0.6664 -0.0200 -0.3568
    1SOL    HW1    2   2.622   0.083   0.868 -1.0250  1.4140 -0.2832
    1SOL    HW2    3   2.597   3.080   1.015 -0.5139 -0.0353  0.1549
    2SOL     OW    4   0.003   2.431   1.008  0.0505 -0.0581 -0.0720
    2SOL    HW1    5   0.064   2.509   0.981  0.0099  0.4363 -0.8653
    2SOL    HW2    6   0.036   2.380   1.090 -0.7183 -0.2671 -1.3812
    3SOL     OW    7   0.798   2.738   2.978 -0.5550  0.4911 -0.2486
    3SOL    HW1    8   0.808   2.637   2.970 -0.5903 -0.3547  0.7636
    3SOL    HW2    9   0.741   2.770   2.900 -2.3374  0.1934 -0.9620
    4SOL     OW   10   2.039   2.198   1.876  0.0946 -0.0728  0.8299
    4SOL    HW1   11   1.955   2.148   1.847 -1.9867  1.5627 -1.2615
    4SOL    HW2   12   2.127   2.168   1.828  3.1018 -0.4118 -1.2205
    5SOL     OW   13   1.690   0.841   1.291  0.4592 -0.0153 -0.1440
    5SOL    HW1   14   1.721   0.780   1.213  0.5777 -3.7744 -2.4129
    5SOL    HW2   15   1.591   0.840   1.316 -1.7272  0.0640  1.2429
    6SOL     OW   16   1.976   2.754   0.315 -0.0883  0.0550  0.3249
    6SOL    HW1   17   2.038   2.833   0.293 -1.9217  0.8845 -0.4199
    6SOL    HW2   18   1.877   2.775   0.294  1.8263 -0.4611 -1.8147
    7SOL     OW   19   2.849   1.205   1.062 -0.2787  0.2950  0.4859
    7SOL    HW1   20   2.899   1.281   1.108  0.3779 -1.4831  0.5724
    7SOL    HW2   21   2.775   1.167   1.117 -1.1817  0.6900 -0.1605
    8SOL     OW   22   1.329   2.499   1.537  0.4387 -0.2839  0.3317
    8SOL    HW1   23   1.425   2.528   1.554  0.1292 -1.5858  0.9498
    8SOL    HW2   24   1.326   2.413   1.485 -0.2524  2.0024  0.8561
    9SOL     OW   25   1.392   3.015   2.342 -0.2368  0.3636 -0.1208
    9SOL    HW1   26   1.362   2.973   2.428  0.9846  0.8735 -0.1491
    9SOL    HW2   27   1.402   2.950   2.265  0.9509  2.0347  1.2428
   10SOL     OW   28   0.760   2.044   1.212 -0.0240  0.0752 -0.1289
   10SOL    HW1   29   0.860   2.020   1.230  0.0619 -0.4813 -2.5299
   10SOL    HW2   30   0.746   2.146   1.197 -2.1743  0.3451 -1.2009
   11SOL     OW   31   2.157   1.540   1.038 -0.1460  0.0894 -0.1249
   11SOL    HW1   32   2.196   1.559   1.129 -1.3229  1.3305 -0.1438
   11SOL    HW2   33   2.148   1.623   0.979 -2.8102  1.6514  2.0232
   12SOL     OW   34   2.398   2.645   1.635 -0.2798  0.3692 -0.2181
   12SOL    HW1   35   2.486   2.595   1.658 -0.0083 -1.3856  0.3421
   12SOL    HW2   36   2.345   2.684   1.717 -1.0117 -0.7084  0.3770
   13SOL     OW   37   2.326   2.937   0.288  0.3019 -0.2531 -0.4552
   13SOL    HW1   38   2.363   2.856   0.338 -1.3104  1.0690 -0.1790
   13SOL    HW2   39   2.381   2.948   0.202 -1.0485 -0.9199  0.2472
   14SOL     OW   40   1.657   2.285   0.618 -0.1841  0.0814  0.6020
   14SOL    HW1   41   1.566   2.284   0.659  1.1520 -1.4198  1.1755
   14SOL    HW2   42   1.712   2.210   0.662  1.9913 -0.2826  2.7018
   15SOL     OW   43   2.952   1.787   1.932  0.4769 -0.1625 -0.1284
   15SOL    HW1   44   3.030   1.835   1.894 -0.3652 -2.2797  0.2699
   15SOL    HW2   45   2.972   1.784   2.034 -0.3415  0.8677  3.6797
   16SOL     OW   46   2.009   2.675   0.760  0.4067  0.2939  0.6713
   16SOL    HW1   47   1.934   2.736   0.724  1.3838  1.0014 -3.2181
   16SOL    HW2   48   2.014   2.681   0.858 -0.4051  0.5302 -2.0802
   17SOL     OW   49   0.609   0.190   1.271  0.6099  0.8111 -0.0137
   17SOL    HW1   50   0.631   0.270   1.324  1.1474 -4.8059 -0.3813
   17SOL    HW2   51   0.661   0.189   1.181 -0.4752  0.4808  0.7719
   18SOL     OW   52   1.685   1.213   3.051  0.4340  0.1104  0.0560
   18SOL    HW1   53   1.710   1.228   0.058  2.2952 -1.1152 -0.2007
   18SOL    HW2   54   1.648   1.120   3.042  1.5636  1.7911 -1.6366
   19SOL     OW   55   1.790   2.062   0.453  0.1522  0.3293 -0.3258
   19SOL    HW1   56   1.827   2.083   0.547 -0.0752 -1.7472  2.5268
   19SOL    HW2   57   1.858   2.104   0.383  2.0487  1.2682  0.2282
   20SOL     OW   58   2.456   1.672   2.162  0.2590  0.3632  0.0345
   20SOL    HW1   59   2.466   1.686   2.262 -0.9759 -1.7417  1.5603
   20SOL    HW2   60   2.386   1.736   2.131 -0.1658 -0.5665 -1.4387
   21SOL     OW   61   1.762   0.893   0.767  0.3198 -0.5261  0.3257
   21SOL    HW1   62   1.775   0.950   0.687  0.6615 -1.4289  1.6474
   21SOL    HW2   63   1.840   0.830   0.774  0.7024 -0.3358 -0.3615
   22SOL     OW   64   2.136   3.034   1.501 -0.4422 -0.6869 -0.0786
   22SOL    HW1   65   2.111   3.012   1.598  0.2279 -0.3117 -1.3871
   22SOL    HW2   66   2.064   3.028   1.428  1.5548  0.6405 -0.5062
   23SOL     OW   67   2.986   0.494   1.961 -1.2929  0.2742 -0.0341
   23SOL    HW1   68   2.893   0.462   1.943  1.7912 -0.0773  2.6103
   23SOL    HW2   69   2.998   0.578   1.910  0.5880 -1.2095  2.0713
   24SOL     OW   70   2.416   2.690   0.422  0.2334  0.1214  0.4207
   24SOL    HW1   71   2.328   2.719   0.470 -0.6730  0.1544  0.2503
   24SOL    HW2   72   2.479   2.658   0.496  1.9489 -1.9706  0.0315
   25SOL     OW   73   1.360   0.143   2.183 -0.1118 -0.4899 -0.5689
   25SOL    HW1   74   1.345   0.072   2.250  0.1639  0.3591 -2.5001
   25SOL    HW2   75   1.457   0.147   2.153 -2.2343 -0.1239  2.3032
   26SOL     OW   76   1.622   2.306   0.325  0.1329 -0.4366  0.2946
   26SOL    HW1   77   1.666   2.286   0.414  1.8727  0.4583  1.3242
   26SOL    HW2   78   1.581   2.224   0.286  1.3057  0.6341  0.9079
   27SOL     OW   79   2.250   1.622   0.224 -0.3158 -0.0627  0.2609
   27SOL    HW1   80   2.233   1.718   0.247 -2.3576 -1.5811 -2.1493
   27SOL    HW2   81   2.303   1.614   0.136  1.4347 -1.3469  1.1915
   28SOL     OW   82   0.840   1.541   1.710 -0.2784  0.7997 -0.7680
   28SOL    HW1   83   0.833   1.441   1.733  2.6686  0.3855  1.3733
   28SOL    HW2   84   0.842   1.559   1.613 -0.6175  0.4216 -0.6838
   29SOL     OW   85   2.342   2.233   1.535 -0.4769 -0.2382 -0.1968
   29SOL    HW1   86   2.340   2.174   1.452 -0.5779 -4.0970 -1.2650
   29SOL    HW2   87   2.280   2.310   1.529  1.1431  0.0888 -0.6466
   30SOL     OW   88   1.401   0.469   0.961 -0.3931 -0.6115  0.3829
   30SOL    HW1   89   1.312   0.489   0.912  0.6894 -0.3639 -1.2930
   30SOL    HW2   90   1.465   0.544   0.976 -0.1550 -0.7467  0.3720
   31SOL     OW   91   1.903   2.706   1.891  0.5056  0.7370  0.1925
   31SOL    HW1   92   1.934   2.758   1.975  0.8995 -0.6214  0.2034
   31SOL    HW2   93   1.908   2.614   1.918  1.6298  5.2624 -1.8855
   32SOL     OW   94   1.073   1.705   0.694 -0.4876  0.1969 -0.1252
   32SOL    HW1   95   1.009   1.655   0.763 -4.2408 -3.7651  1.9318
   32SOL    HW2   96   1.023   1.752   0.622  0.5998 -0.3710  0.2262
   33SOL     OW   97   0.281   0.507   2.613  0.1274 -0.3411 -0.1521
   33SOL    HW1   98   0.348   0.434   2.594 -0.4910 -0.2037  1.2589
   33SOL    HW2   99   0.209   0.510   2.539  0.0353  0.5869  2.9050
   34SOL     OW  100   1.880   2.832   0.572  0.1445  1.0095 -0.8611
   34SOL    HW1  101   1.901   2.927   0.604 -3.3785  1.2795  1.9174
   34SOL    HW2  102   1.933   2.805   0.489  1.2383  0.8371 -0.4690
   35SOL     OW  103   2.142   2.568   1.269 -0.2445 -0.0480 -0.4059
   35SOL    HW1  104   2.156   2.669   1.271 -1.8021 -1.9614  2.6135
   35SOL    HW2  105   2.047   2.544   1.260  0.6932  1.8225 -0.3821
   36SOL     OW  106   1.813   2.402   2.771 -0.6630  0.3992 -0.2369
   36SOL    HW1  107   1.755   2.327   2.736 -0.5540 -2.5003  0.4254
   36SOL    HW2  108   1.877   2.440   2.702  0.8686 -0.4335  0.1866
   37SOL     OW  109   0.883   0.085   2.057  0.1433  0.0231  0.2029
   37SOL    HW1  110   0.847   0.143   2.131 -1.2283 -2.8137  0.8084
   37SOL    HW2  111   0.984   0.072   2.061 -1.9743  0.5647 -3.6263
   38SOL     OW  112   0.242   0.133   2.496  0.4861 -0.1949  0.2356
   38SOL    HW1  113   0.229   0.073   2.415  0.6996  0.4371  0.4337
   38SOL    HW2  114   0.309   0.209   2.475  1.5917 -0.5373 -2.0843
   39SOL     OW  115   2.466   1.024   1.569 -0.0932  0.5832  0.4437
   39SOL    HW1  116   2.469   1.044   1.670  0.2579  1.3845 -0.6036
   39SOL    HW2  117   2.391   1.079   1.528 -0.5180 -2.9122  1.6077
   40SOL     OW  118   1.219   3.031   0.302 -0.2919 -0.3516 -0.2850
   40SOL    HW1  119   1.233   0.023   0.368  0.0681 -0.2210 -2.4859
   40SOL    HW2  120   1.153   2.967   0.342 -0.3392 -0.6320  0.1995
   41SOL     OW  121   2.416   1.471   0.881 -0.7398 -0.2251 -0.0856
   41SOL    HW1  122   2.407   1.455   0.980  2.0878  0.8795  0.2749
   41SOL    HW2  123   2.485   1.403   0.842 -0.7894  0.9792  0.7062
   42SOL     OW  124   0.911   0.430   1.244  0.3345 -0.4094 -0.2594
   42SOL    HW1  125   0.823   0.424   1.289  1.3981 -2.3795 -0.5773
   42SOL    HW2  126   0.899   0.469   1.150 -0.8298  1.3256 -0.6796
   43SOL     OW  127   2.810   1.516   2.460 -0.0403 -0.0232  0.7743
   43SOL    HW1  128   2.744   1.454   2.500 -0.9460  0.4372 -2.2670
   43SOL    HW2  129   2.897   1.527   2.518  3.1720 -1.4623  0.1440
   44SOL     OW  130   2.343   0.107   1.776  0.4978  0.3299  0.5764
   44SOL    HW1  131   2.380   0.086   1.683  1.8901 -1.7667 -2.8061
   44SOL    HW2  132   2.418   0.139   1.843  4.4360  1.1740  2.7082
   45SOL     OW  133   0.736   2.969   1.986  0.2721 -0.1985 -0.6499
   45SOL    HW1  134   0.645   3.007   1.967  1.5353  2.8350 -1.0618
   45SOL    HW2  135   0.801   3.045   2.016  3.1086 -1.2273 -1.9309
   46SOL     OW  136   1.351   2.862   2.556  0.6600 -0.5118 -0.0750
   46SOL    HW1  137   1.394   2.777   2.591  2.7539 -1.3719 -0.1383
   46SOL    HW2  138   1.253   2.839   2.516 -3.0761 -2.1311 -0.9236
   47SOL     OW  139   1.720   1.795   0.441  0.0661  0.1194 -0.3894
   47SOL    HW1  140   1.711   1.897   0.433  1.8761  0.4533 -1.0068
   47SOL    HW2  141   1.631   1.748   0.450  1.0607 -0.1668  1.4005
   48SOL     OW  142   1.055   2.132   0.549  0.6714  0.2932 -0.8267
   48SOL    HW1  143   0.978   2.199   0.548 -1.9888 -1.6888 -1.7271
   48SOL    HW2  144   1.025   2.036   0.555  1.2172  4.6066 -0.3337
   49SOL     OW  145   2.322   2.869   2.459  0.4026  0.4179  0.0873
   49SOL    HW1  146   2.405   2.820   2.435  1.2548 -0.5377  1.2710
   49SOL    HW2  147   2.322   2.892   2.561  2.8476  1.5358  3.4345
   50SOL     OW  148   1.511   0.081   0.211 -0.5037 -0.5519  0.5126
   50SOL    HW1  149   1.543   0.160   0.268 -0.8626  0.7383  0.2049
   50SOL    HW2  150   1.412   0.088   0.196  1.0380  0.8209 -0.3803
   51SOL     OW  151   2.278   0.896   0.648  0.1084  0.4700  0.4522
   51SOL    HW1  152   2.268   0.943   0.737 -0.3711 -3.2424 -3.1168
   51SOL    HW2  153   2.231   0.804   0.655  0.2629 -0.5863 -0.8383
   52SOL     OW  154   1.361   1.622   1.055  0.2362  0.1457 -0.1567
   52SOL    HW1  155   1.457   1.579   1.075  1.3820  0.0456 -0.4691
   52SOL    HW2  156   1.318   1.632   1.146  0.7298 -0.0440  3.6273
   53SOL     OW  157   1.019   1.647   2.434 -0.1802 -0.2386 -0.3360
   53SOL    HW1  158   0.963   1.694   2.363 -2.2101 -2.2582  0.4819
   53SOL    HW2  159   1.028   1.701   2.518  2.2665  0.7504  0.4898
   54SOL     OW  160   2.618   0.593   1.448  0.0502 -0.1082  0.2069
   54SOL    HW1  161   2.577   0.685   1.443  0.5526 -0.9085  2.6910
   54SOL    HW2  162   2.550   0.519   1.445  0.8540 -2.0856 -1.0259
   55SOL     OW  163   2.596   2.069   0.705 -0.4726 -0.2984 -0.1547
   55SOL    HW1  164   2.647   1.981   0.692 -0.8445 -0.2838  0.9838
   55SOL    HW2  165   2.657   2.148   0.687 -0.2957  1.0522 -0.8879
   56SOL     OW  166   1.002   0.374   2.197 -0.2930 -0.8266  0.7256
   56SOL    HW1  167   1.098   0.355   2.233  0.2956  0.6155 -0.2122
   56SOL    HW2  168   1.001   0.404   2.098  3.3030 -0.1857 -5.0290
   57SOL     OW  169   1.285   1.329   2.969  0.3591 -0.0045  0.4290
   57SOL    HW1  170   1.283   1.416   2.918  1.3501 -2.5935 -1.6932
   57SOL    HW2  171   1.292   1.250   2.903 -1.3402  1.3301  1.2470
   58SOL     OW  172   2.994   0.717   1.819  0.0834  0.0508 -0.4319
   58SOL    HW1  173   2.909   0.762   1.782 -0.3311 -0.0134 -0.0649
   58SOL    HW2  174   3.053   0.791   1.858  0.7428 -1.6777  0.7309
   59SOL     OW  175   1.575   2.939   0.101  0.0943 -0.0694 -0.4954
   59SOL    HW1  176   1.603   2.984   0.017 -0.1693  0.3984  1.5809
   59SOL    HW2  177   1.564   3.012   0.174  0.1931  0.0638  1.6878
   60SOL     OW  178   3.044   1.879   0.283 -0.1572 -0.0732 -0.3885
   60SOL    HW1  179   3.011   1.930   0.365  0.6190 -0.8127  0.0895
   60SOL    HW2  180   2.971   1.812   0.253 -0.4672 -0.6223  0.5704
   61SOL     OW  181   1.105   2.910   0.762  0.7131 -0.2992 -0.0765
   61SOL    HW1  182   1.197   2.879   0.734 -1.4056 -1.8632 -1.4599
   61SOL    HW2  183   1.074   2.855   0.839  1.5954 -1.9557  0.9208
   62SOL     OW  184   2.068   1.989   2.653  0.2157  0.4069  0.6004
   62SOL    HW1  185   1.992   1.949   2.600  0.5477 -1.3949 -0.0270
   62SOL    HW2  186   2.134   2.034   2.593  0.1742 -0.3787  0.2056
   63SOL     OW  187   2.337   2.563   0.764 -0.2360  0.0372 -0.3352
   63SOL    HW1  188   2.280   2.594   0.686 -0.0265  0.3220  0.0086
   63SOL    HW2  189   2.430   2.530   0.729  2.0189 -0.0838 -0.8413
   64SOL     OW  190   1.495   0.810   2.391  0.2558  0.6178 -0.4145
   64SOL    HW1  191   1.413   0.779   2.442 -1.0437 -1.2915  1.0991
   64SOL    HW2  192   1.541   0.727   2.348  1.2685 -2.1135 -0.2445
   65SOL     OW  193   1.781   1.650   2.515  0.3940  1.1798 -0.3107
   65SOL    HW1  194   1.759   1.561   2.566 -0.1208 -0.6374 -3.4342
   65SOL    HW2  195   1.707   1.673   2.447 -3.1034  0.7257 -0.6145
   66SOL     OW  196   0.303   0.793   1.829 -0.3049  0.2925  0.1457
   66SOL    HW1  197   0.227   0.864   1.828 -3.1059  1.1343  0.5442
   66SOL    HW2  198   0.395   0.832   1.823 -3.0388 -1.0053  1.8491
   67SOL     OW  199   2.309   2.946   2.725  0.2348 -0.2458 -0.0238
   67SOL    HW1  200   2.307   2.908   2.821 -0.7982  1.8208 -1.8626
   67SOL    HW2  201   2.375   3.023   2.716 -0.3008  1.2105  0.1733
   68SOL     OW  202   1.215   2.896   1.234  0.3790  0.6044  0.3813
   68SOL    HW1  203   1.130   2.955   1.225  3.0422  1.0985  1.8405
   68SOL    HW2  204   1.202   2.808   1.184 -0.0192  1.4413 -1.4574
   69SOL     OW  205   0.588   2.642   0.094  0.0133  1.0083 -0.2915
   69SOL    HW1  206   0.631   2.577   0.026  3.2389 -1.2691  1.1878
   69SOL    HW2  207   0.521   2.598   0.161 -1.3359  2.4527  0.1794
   70SOL     OW  208   2.398   0.037   2.419 -1.0192 -0.4131 -0.5404
   70SOL    HW1  209   2.384   0.071   2.515  2.1366  0.2066  0.0963
   70SOL    HW2  210   2.363   3.034   2.403  2.6426 -2.0334  0.1180
   71SOL     OW  211   0.456   1.166   2.519  0.1708 -0.0114 -0.0619
   71SOL    HW1  212   0.389   1.148   2.599 -2.7830  0.7448 -0.4970
   71SOL    HW2  213   0.544   1.204   2.555 -1.3030  1.5213 -0.9582
   72SOL     OW  214   2.956   2.075   0.027 -0.2166  0.5611 -0.6976
   72SOL    HW1  215   3.003   2.065   3.023 -0.0698 -0.0968 -3.0881
   72SOL    HW2  216   2.869   2.026   0.025  0.9717 -0.5209  1.0464
   73SOL     OW  217   1.459   1.214   0.550  0.6009 -0.1000 -0.3963
   73SOL    HW1  218   1.528   1.290   0.544  2.4065  0.5444 -0.5110
   73SOL    HW2  219   1.378   1.244   0.492 -0.9511  1.5587  0.0367
   74SOL     OW  220   2.208   2.525   2.755  0.4866 -0.2564 -0.0465
   74SOL    HW1  221   2.188   2.428   2.776 -1.0394 -1.9509  0.5016
   74SOL    HW2  222   2.245   2.564   2.839  2.4645  1.1374  0.2705
   75SOL     OW  223   2.271   1.902   0.949  0.1097 -0.0176  0.3454
   75SOL    HW1  224   2.310   1.997   0.951 -0.8938 -1.1914 -2.8003
   75SOL    HW2  225   2.345   1.841   0.916  1.4347 -0.7808 -2.4794
   76SOL     OW  226   1.983   2.297   1.538  0.0361 -0.1163  0.3993
   76SOL    HW1  227   2.052   2.372   1.545 -3.0627 -2.4174  3.6386
   76SOL    HW2  228   1.898   2.315   1.594  1.2118 -1.6828 -1.4735
   77SOL     OW  229   2.407   3.041   2.091  0.0444 -0.3425 -0.0948
   77SOL    HW1  230   2.426   0.058   2.084 -1.7694  1.6292  1.6636
   77SOL    HW2  231   2.464   2.995   2.028 -0.3085  0.2089 -0.2283
   78SOL     OW  232   1.587   0.942   2.993 -0.5261 -0.6165  0.7342
   78SOL    HW1  233   1.510   0.879   3.007  1.9178  1.6235 -1.8889
   78SOL    HW2  234   1.667   0.887   2.956  1.3705 -0.7847  0.1807
   79SOL     OW  235   2.243   1.432   2.278  0.9454  0.2912 -0.2906
   79SOL    HW1  236   2.334   1.432   2.321 -0.9386  0.6004  3.2413
   79SOL    HW2  237   2.181   1.499   2.327  0.0190 -1.2954 -0.9185
   80SOL     OW  238   2.037   1.471   1.650  0.2351 -0.7787  0.0884
   80SOL    HW1  239   2.126   1.508   1.670 -1.6908  1.2713 -1.2056
   80SOL    HW2  240   2.024   1.384   1.692  2.2317  1.2328 -1.2333
   81SOL     OW  241   1.466   0.460   1.274 -0.0987  0.6423  0.2726
   81SOL    HW1  242   1.382   0.508   1.309 -1.4989  0.2575  0.2911
   81SOL    HW2  243   1.428   0.384   1.218  0.2326  4.1930  2.5222
   82SOL     OW  244   1.736   2.313   1.699  0.2825  0.5004  0.3817
   82SOL    HW1  245   1.731   2.213   1.713  1.2655  1.3978  1.7873
   82SOL    HW2  246   1.655   2.351   1.751 -0.6362  1.7315 -1.8513
   83SOL     OW  247   0.190   0.151   0.514  0.1354 -0.0366  0.2274
   83SOL    HW1  248   0.274   0.151   0.462 -0.6465  0.4139  0.7700
   83SOL    HW2  249   0.137   0.233   0.483  0.2777  0.0376  0.8532
   84SOL     OW  250   0.532   1.011   0.100 -0.1903 -0.0781  0.4722
   84SOL    HW1  251   0.629   1.033   0.117 -1.0643  0.3392 -1.7730
   84SOL    HW2  252   0.521   0.922   0.047 -0.8740 -1.3196 -0.5308
   85SOL     OW  253   2.733   2.034   1.680  0.1324 -0.4549  0.1082
   85SOL    HW1  254   2.833   2.065   1.676 -2.2615  1.5338 -1.5426
   85SOL    HW2  255   2.730   1.950   1.734 -1.4981  0.2879 -1.1335
   86SOL     OW  256   0.097   2.767   1.292  0.2841 -0.2501 -0.3105
   86SOL    HW1  257   0.089   2.669   1.308 -1.3352  1.4470  0.4902
   86SOL    HW2  258   0.160   2.807   1.365  0.8702 -1.5544  0.5081
   87SOL     OW  259   0.465   0.138   2.220  0.4518 -0.5659 -0.3021
   87SOL    HW1  260   0.558   0.172   2.228 -0.3307 -1.6307 -2.7898
   87SOL    HW2  261   0.462   0.044   2.264  0.2827 -1.4761 -1.9507
   88SOL     OW  262   0.420   2.111   0.940  0.3539  0.1211  0.2522
   88SOL    HW1  263   0.430   2.211   0.949 -1.3245  0.8602 -3.3328
   88SOL    HW2  264   0.409   2.092   0.841  1.3681  0.8018 -1.5728
   89SOL     OW  265   0.899   0.679   1.619 -0.1124  0.0212 -0.1832
   89SOL    HW1  266   0.990   0.697   1.673 -0.3152  2.0858  3.2666
   89SOL    HW2  267   0.863   0.585   1.634 -1.6894  0.2704  0.5359
   90SOL     OW  268   2.842   0.874   1.638 -0.5451  0.3378  0.4085
   90SOL    HW1  269   2.933   0.906   1.608  2.0291  1.2871  0.0736
   90SOL    HW2  270   2.799   0.930   1.711  0.7280 -5.9704 -2.2619
   91SOL     OW  271   1.404   1.084   1.175 -0.1672  0.1125  0.0136
   91SOL    HW1  272   1.370   1.008   1.117 -3.9129 -2.1070 -1.8517
   91SOL    HW2  273   1.510   1.086   1.174 -2.9896 -0.1125  0.3099
   92SOL     OW  274   2.485   1.085   0.924 -0.0446  0.1163 -0.2202
   92SOL    HW1  275   2.523   1.160   0.865  0.2982  0.0938  0.0047
   92SOL    HW2  276   2.382   1.083   0.922 -0.2826 -0.7632  1.1467
   93SOL     OW  277   2.433   0.636   2.504 -0.3653  0.0945  0.6473
   93SOL    HW1  278   2.462   0.557   2.443  0.0681 -0.7009 -1.5547
   93SOL    HW2  279   2.376   0.703   2.456  0.5910  0.3461  0.6064
   94SOL     OW  280   2.251   1.825   2.440  0.0081  0.2418  0.3367
   94SOL    HW1  281   2.206   1.815   2.352  1.2587  1.9963  0.0015
   94SOL    HW2  282   2.259   1.923   2.463 -0.8550 -1.5667 -1.3429
   95SOL     OW  283   2.160   0.641   0.891 -0.0264  0.3200  0.4020
   95SOL    HW1  284   2.187   0.545   0.920 -1.2842 -2.2757  0.5843
   95SOL    HW2  285   2.228   0.715   0.922 -0.5522  2.5583  2.8087
   96SOL     OW  286   2.527   2.869   1.907 -0.2240  0.2062 -0.1480
   96SOL    HW1  287   2.440   2.814   1.893 -1.6656 -2.4233  0.1003
   96SOL    HW2  288   2.550   2.918   1.821 -0.2916 -0.5621  2.1040
   97SOL     OW  289   2.613   0.857   1.138 -0.4163  0.1866  0.0326
   97SOL    HW1  290   2.708   0.842   1.102  0.3220  0.2692  2.0863
   97SOL    HW2  291   2.606   0.843   1.236 -1.8184  1.4185 -4.6323
   98SOL     OW  292   1.449   2.258   1.721  0.1088  0.1432  0.5690
   98SOL    HW1  293   1.436   2.260   1.619 -0.0158 -2.1966  1.1852
   98SOL    HW2  294   1.474   2.352   1.759 -0.8334 -1.1108  0.6979
   99SOL     OW  295   2.579   2.253   1.733 -0.5419 -0.6722 -0.6661
   99SOL    HW1  296   2.641   2.171   1.718  1.4010  0.8574  0.2361
   99SOL    HW2  297   2.506   2.259   1.664  1.4110 -1.0099 -0.8948
  100SOL     OW  298   0.967   0.761   2.828 -0.2294 -0.3688 -0.1537
  100SOL    HW1  299   0.976   0.714   2.920  0.6589  1.5405  1.7373
  100SOL    HW2  300   0.983   0.860   2.841 -3.2537 -1.8286  2.5416
  101SOL     OW  301   2.111   0.219   2.891  0.3447 -0.1909 -0.1236
  101SOL    HW1  302   2.045   0.157   2.841  2.5013 -1.2730 -3.2823
  101SOL    HW2  303   2.065   0.297   2.935  1.4105  2.8801 -2.3541
  102SOL     OW  304   0.554   0.569   1.776  0.2831  0.3310 -0.2022
  102SOL    HW1  305   0.546   0.669   1.763  1.6216  1.6497  0.7259
  102SOL    HW2  306   0.468   0.510   1.777 -0.5507  1.0504 -0.3907
  103SOL     OW  307   0.442   0.397   2.995  0.1538  0.3422 -0.4820
  103SOL    HW1  308   0.521   0.461   2.988 -1.0850  1.9532  0.1158
  103SOL    HW2  309   0.360   0.438   2.972  2.1395 -1.6567 -0.9148
  104SOL     OW  310   0.808   0.180   2.496 -0.5690 -0.1349 -0.0031
  104SOL    HW1  311   0.880   0.164   2.428 -0.4665 -3.8437 -0.8143
  104SOL    HW2  312   0.819   0.103   2.567  1.1843 -1.1036 -1.0462
  105SOL     OW  313   2.269   1.780   1.750 -0.5239  0.3419  0.2367
  105SOL    HW1  314   2.297   1.676   1.761  2.0539 -3.6372  0.6491
  105SOL    HW2  315   2.339   1.846   1.782 -1.0346 -1.2740 -3.1527
  106SOL     OW  316   1.920   0.777   0.471 -0.1744  0.1350 -0.3246
  106SOL    HW1  317   1.897   0.730   0.560  2.4117 -0.2461  1.3688
  106SOL    HW2  318   1.983   0.718   0.412  0.3222 -2.4605 -1.8985
  107SOL     OW  319   2.904   1.959   0.836  0.1438 -0.0360 -0.0130
  107SOL    HW1  320   2.900   2.051   0.800 -0.3458 -1.1400  2.5704
  107SOL    HW2  321   2.993   1.926   0.797 -1.1081 -0.3351  0.1177
  108SOL     OW  322   2.625   2.521   1.701 -0.0737  0.0324 -0.0261
  108SOL    HW1  323   2.686   2.571   1.765 -1.2501  2.4872 -1.3915
  108SOL    HW2  324   2.632   2.421   1.720 -2.0030  0.3733  0.0363
  109SOL     OW  325   1.979   2.652   1.041  0.8995  0.1539  0.2382
  109SOL    HW1  326   1.936   2.563   1.013 -1.3024  0.0378 -2.4578
  109SOL    HW2  327   1.969   2.659   1.138 -1.1777  1.3062 -4.8828
  110SOL     OW  328   0.600   1.936   2.446  0.0301  0.3083 -0.5781
  110SOL    HW1  329   0.558   1.953   2.537  2.3993  0.0614  0.9951
  110SOL    HW2  330   0.654   2.022   2.416  3.0963  2.8133 -0.3034
  111SOL     OW  331   1.605   2.229   2.195 -0.2955 -0.0256 -0.2763
  111SOL    HW1  332   1.521   2.176   2.209  2.1329 -1.9444  0.3040
  111SOL    HW2  333   1.688   2.171   2.197  1.3772  0.6043 -1.1623
  112SOL     OW  334   2.070   1.972   3.076  0.2968  0.6005  0.1827
  112SOL    HW1  335   2.074   1.985   0.091 -0.3961 -1.7284  3.0172
  112SOL    HW2  336   2.007   2.036   3.024 -0.9388  2.2777  2.0057
  113SOL     OW  337   1.629   2.094   1.379 -0.0524 -0.7501 -0.1346
  113SOL    HW1  338   1.576   2.014   1.352  1.6603  0.1670  1.2326
  113SOL    HW2  339   1.721   2.065   1.417 -0.0195  0.1378  0.0017
  114SOL     OW  340   2.871   1.171   0.631 -0.2271  0.3847 -0.1668
  114SOL    HW1  341   2.869   1.252   0.691  1.6246  1.1813 -1.0609
  114SOL    HW2  342   2.795   1.178   0.563 -1.9070  2.2956 -1.4288
  115SOL     OW  343   0.842   0.572   0.264 -0.0464 -0.5509 -0.5692
  115SOL    HW1  344   0.750   0.610   0.288  0.6398 -1.2775 -0.4207
  115SOL    HW2  345   0.826   0.472   0.246 -1.5691  0.5637 -1.2777
  116SOL     OW  346   2.502   1.414   2.372  0.1227  0.3566  1.1117
  116SOL    HW1  347   2.568   1.366   2.432  0.2239  3.0731 -2.7385
  116SOL    HW2  348   2.497   1.509   2.401 -0.4490 -1.6780 -0.3617
  117SOL     OW  349   0.153   0.031   0.744 -0.1194 -0.2043  0.0476
  117SOL    HW1  350   0.169   0.094   0.661  0.6981  0.2730 -2.2120
  117SOL    HW2  351   0.178   3.024   0.720 -0.1880 -0.1427 -4.7667
  118SOL     OW  352   1.020   1.798   2.674 -0.3424 -0.4273 -0.1170
  118SOL    HW1  353   1.089   1.799   2.746 -1.2454  0.0289 -1.0419
  118SOL    HW2  354   0.928   1.780   2.718 -0.1381 -0.7385  1.6359
  119SOL     OW  355   0.417   2.415   0.180 -0.0618 -0.5867  0.7484
  119SOL    HW1  356   0.401   2.339   0.246 -0.4596 -2.5279  1.1683
  119SOL    HW2  357   0.337   2.482   0.174 -2.5202  2.9116 -0.6504
  120SOL     OW  358   1.340   0.787   3.019  0.3170 -0.3597 -0.1751
  120SOL    HW1  359   1.326   0.737   2.932 -1.5296  0.0715 -1.4328
  120SOL    HW2  360   1.261   0.844   3.025  2.4935  0.0038 -0.7529
  121SOL     OW  361   1.426   2.560   0.875  0.2085  0.0077  0.2369
  121SOL    HW1  362   1.394   2.501   0.801  1.6278  1.5921  2.6340
  121SOL    HW2  363   1.525   2.572   0.876 -2.0238  0.0814 -1.9882
  122SOL     OW  364   2.195   2.483   1.520 -0.2280 -0.0281  0.2924
  122SOL    HW1  365   2.265   2.541   1.567  1.1933 -0.2321  1.4565
  122SOL    HW2  366   2.185   2.497   1.417  0.9398  0.1783 -1.2246
  123SOL     OW  367   0.609   2.190   0.464 -0.8277 -0.6756 -0.0324
  123SOL    HW1  368   0.564   2.280   0.484 -0.2302 -1.9051  1.9444
  123SOL    HW2  369   0.559   2.140   0.393 -1.2543 -0.3817 -0.8250
  124SOL     OW  370   2.493   0.608   0.045 -0.6231 -0.1059 -0.4887
  124SOL    HW1  371   2.469   0.511   0.074 -2.2710 -1.1161  2.0034
  124SOL    HW2  372   2.569   0.609   3.064  1.8434  0.8679 -0.8678
  125SOL     OW  373   0.456   1.091   0.379  0.3269  0.5988 -0.1911
  125SOL    HW1  374   0.529   1.046   0.434  1.8741  1.7168 -1.2299
  125SOL    HW2  375   0.477   1.057   0.283  0.2492 -1.0138 -1.0768
  126SOL     OW  376   0.265   1.754   0.951  0.4606 -0.0380 -0.0880
  126SOL    HW1  377   0.342   1.736   0.886 -0.3810 -0.4973 -0.9494
  126SOL    HW2  378   0.287   1.834   1.012  0.4084  1.7212  0.9843
  127SOL     OW  379   0.848   1.991   2.055  0.0172 -0.1149 -0.3067
  127SOL    HW1  380   0.868   1.909   2.109 -0.3404  3.7755  1.2044
  127SOL    HW2  381   0.928   2.022   2.005 -0.8768  1.6809 -0.5812
  128SOL     OW  382   1.039   1.135   0.220 -0.3925 -0.8922 -0.1623
  128SOL    HW1  383   1.056   1.220   0.171  0.1280 -1.0287  1.9999
  128SOL    HW2  384   1.124   1.084   0.228 -1.5871 -0.5999 -0.5565
  129SOL     OW  385   2.209   1.137   0.546 -0.6290 -0.1882 -0.4548
  129SOL    HW1  386   2.208   1.204   0.622  1.1032  0.3692  1.2462
  129SOL    HW2  387   2.257   1.054   0.575 -1.0901  0.0206  2.6497
  130SOL     OW  388   2.542   1.547   1.264  0.6618  0.2831  0.0721
  130SOL    HW1  389   2.629   1.589   1.226 -1.5599  1.4340 -3.9342
  130SOL    HW2  390   2.504   1.477   1.203 -2.0516  2.3726 -0.1367
  131SOL     OW  391   3.087   2.979   2.913 -0.1840 -0.0041  0.1719
  131SOL    HW1  392   3.015   3.052   2.920 -0.5633  0.4479 -2.3493
  131SOL    HW2  393   0.077   3.017   2.857 -0.0093  1.0054 -1.5156
  132SOL     OW  394   0.501   1.445   0.776  0.4226 -0.0926  0.8420
  132SOL    HW1  395   0.587   1.420   0.729 -3.0847  0.1226  4.0585
  132SOL    HW2  396   0.419   1.392   0.744 -1.1137 -0.0248  3.1779
  133SOL     OW  397   0.727   0.414   1.655 -0.4285  0.6065 -0.3982
  133SOL    HW1  398   0.654   0.475   1.697  2.2271  2.6474 -0.2756
  133SOL    HW2  399   0.757   0.338   1.718  0.1133 -1.0460 -0.2267
  134SOL     OW  400   0.099   1.841   2.885  0.1203 -0.2374 -0.2894
  134SOL    HW1  401   0.089   1.826   2.986  1.6876  0.2374  1.2600
  134SOL    HW2  402   0.102   1.942   2.869 -0.9933  0.2460 -1.4765
  135SOL     OW  403   1.591   0.332   1.538  0.0701  0.3075 -0.7848
  135SOL    HW1  404   1.546   0.382   1.463 -0.6100  0.5902 -2.5191
  135SOL    HW2  405   1.550   0.356   1.630 -1.1067  1.1093  0.5294
  136SOL     OW  406   0.023   1.202   0.179  0.2299 -0.2269  0.2148
  136SOL    HW1  407   0.081   1.155   0.245 -0.9641  0.7529 -1.2366
  136SOL    HW2  408   3.018   1.165   0.195 -0.1750  0.6811  1.2425
  137SOL     OW  409   0.175   1.286   0.954 -0.0495  0.7471 -0.1435
  137SOL    HW1  410   0.216   1.297   0.859  0.6750 -1.3493 -0.8168
  137SOL    HW2  411   0.171   1.373   1.008  0.5686 -1.8219  0.1868
  138SOL     OW  412   1.916   0.674   0.984  0.2275  0.2938  0.6038
  138SOL    HW1  413   1.995   0.661   0.922 -0.4585 -0.7218  0.0057
  138SOL    HW2  414   1.920   0.603   1.055  1.6790  2.4534 -1.2518
  139SOL     OW  415   1.555   2.619   0.355 -0.0815 -0.3761 -0.2137
  139SOL    HW1  416   1.463   2.664   0.354  3.0746  0.6342 -0.7435
  139SOL    HW2  417   1.552   2.520   0.347 -2.4735  3.6432 -3.0951
  140SOL     OW  418   1.371   1.525   1.718 -0.2086  0.3414 -0.1980
  140SOL    HW1  419   1.332   1.621   1.732 -0.2648  0.2487  0.5516
  140SOL    HW2  420   1.296   1.456   1.730  1.0937  0.0936  0.6193
  141SOL     OW  421   1.525   2.012   0.500  0.2531 -0.0941 -0.1324
  141SOL    HW1  422   1.618   2.047   0.470  1.7318 -0.3420 -1.4332
  141SOL    HW2  423   1.527   1.973   0.590  1.2709  1.9559 -2.0630
  142SOL     OW  424   1.151   0.590   0.144 -0.0294 -0.2102  0.3851
  142SOL    HW1  425   1.112   0.566   0.058 -0.8925  0.1355  2.8353
  142SOL    HW2  426   1.083   0.617   0.221  0.0848 -1.4470  1.8513
  143SOL     OW  427   0.360   2.130   2.763  0.2996  0.1032 -0.4767
  143SOL    HW1  428   0.282   2.111   2.824 -1.2770  1.4137  0.0490
  143SOL    HW2  429   0.330   2.149   2.669 -0.7126 -0.0245  0.9521
  144SOL     OW  430   1.501   2.950   1.477 -0.0898 -0.2149 -0.9901
  144SOL    HW1  431   1.577   2.884   1.470 -0.2757 -1.6946 -3.2541
  144SOL    HW2  432   1.415   2.899   1.500  1.6270 -0.6005 -0.3379
  145SOL     OW  433   2.009   1.117   2.846  0.1777 -0.0168 -0.2827
  145SOL    HW1  434   1.989   1.087   2.942 -0.6663  2.8879  1.1161
  145SOL    HW2  435   1.947   1.195   2.828 -1.6136  0.0924  0.7565
  146SOL     OW  436   0.139   2.638   0.925  0.1341  0.1811 -0.1872
  146SOL    HW1  437   0.148   2.730   0.969  0.1015 -0.4962  1.0962
  146SOL    HW2  438   0.108   2.653   0.831  0.1787  2.5094  2.2534
  147SOL     OW  439   2.173   2.989   1.783 -0.1708  0.1017  0.0887
  147SOL    HW1  440   2.079   3.004   1.819 -0.8745  0.6648 -0.9147
  147SOL    HW2  441   2.225   3.074   1.775 -2.2778 -1.5100  0.0041
  148SOL     OW  442   0.707   2.675   2.042 -0.3455  0.1836 -0.3286
  148SOL    HW1  443   0.735   2.777   2.036  2.3069  2.9089  1.5087
  148SOL    HW2  444   0.695   2.633   1.955 -3.0458  0.1725  2.1171
  149SOL     OW  445   1.876   0.282   2.501  0.6653  0.2644 -0.0394
  149SOL    HW1  446   1.783   0.298   2.465  0.5152  2.1590 -0.6616
  149SOL    HW2  447   1.933   0.250   2.423  2.7021  4.6440  0.5504
  150SOL     OW  448   2.965   0.004   0.212  0.1868  0.0173 -0.6330
  150SOL    HW1  449   2.975   2.991   0.224  0.2886  1.2595  1.9368
  150SOL    HW2  450   2.894   0.036   0.271 -1.4976  0.8646  0.8907
  151SOL     OW  451   0.376   2.154   0.324 -0.0962  0.5529  0.1131
  151SOL    HW1  452   0.325   2.065   0.334 -1.2953 -0.9022 -0.2084
  151SOL    HW2  453   0.322   2.231   0.367 -1.8622 -1.4668  0.7815
  152SOL     OW  454   3.009   0.358   0.620 -0.0159  0.2925 -0.0753
  152SOL    HW1  455   3.070   0.371   0.706  2.3210  0.6237  1.1812
  152SOL    HW2  456   2.963   0.444   0.598  1.0973  0.3922 -1.5816
  153SOL     OW  457   2.467   0.573   1.121 -0.5749 -0.1821  0.0361
  153SOL    HW1  458   2.435   0.533   1.209  1.6312  1.1909 -3.7764
  153SOL    HW2  459   2.536   0.514   1.080  1.2155 -1.1800  0.1549
  154SOL     OW  460   0.730   0.217   2.241  0.3294  0.2841 -0.0234
  154SOL    HW1  461   0.739   0.217   2.342 -0.0816 -1.3639 -1.1293
  154SOL    HW2  462   0.764   0.301   2.201  4.0183  0.1782  0.7768
  155SOL     OW  463   0.605   1.920   1.029  0.1270  0.7518 -0.1721
  155SOL    HW1  464   0.528   1.977   0.998 -2.7261  1.1764  1.0368
  155SOL    HW2  465   0.661   1.965   1.102 -2.2440  2.2413  1.5363
  156SOL     OW  466   2.407   2.015   0.205 -0.0104 -0.3422 -0.1195
  156SOL    HW1  467   2.310   2.008   0.172 -0.6852 -2.6930  0.2481
  156SOL    HW2  468   2.413   1.994   0.304  0.0485  1.0234  2.2364
  157SOL     OW  469   1.051   0.731   0.386  0.6084 -0.0271  0.5086
  157SOL    HW1  470   1.069   0.696   0.482 -0.1223 -1.3045  1.1559
  157SOL    HW2  471   0.952   0.711   0.372 -0.0012  1.2862 -1.0627
  158SOL     OW  472   2.462   0.071   2.697 -0.2165 -0.1608 -0.7251
  158SOL    HW1  473   2.539   0.107   2.645  0.8313 -0.0473  0.6087
  158SOL    HW2  474   2.415   0.155   2.735 -1.2639  2.4044  0.1508
  159SOL     OW  475   0.403   0.478   0.796 -0.4903 -0.0220  0.0019
  159SOL    HW1  476   0.405   0.464   0.697 -0.2832 -2.3053 -0.0371
  159SOL    HW2  477   0.399   0.389   0.841  0.0194  0.8518 -1.4996
  160SOL     OW  478   1.331   1.655   2.477 -0.0458 -0.2240  0.4893
  160SOL    HW1  479   1.380   1.648   2.570 -0.4853  1.5406  1.1002
  160SOL    HW2  480   1.273   1.741   2.474 -1.6678  0.8495  1.6517
  161SOL     OW  481   2.915   0.948   2.642 -0.3190 -0.5199  0.0614
  161SOL    HW1  482   2.994   0.884   2.645  1.9790  1.4583  1.9921
  161SOL    HW2  483   2.911   1.002   2.728  0.9985  3.2914  0.3308
  162SOL     OW  484   0.585   2.288   1.418  0.1278  0.3000 -0.4325
  162SOL    HW1  485   0.633   2.227   1.489  3.7908  1.0731 -2.4450
  162SOL    HW2  486   0.627   2.287   1.326  1.5908  3.0998  0.2583
  163SOL     OW  487   1.996   0.159   2.298 -0.2014  0.0117 -0.4990
  163SOL    HW1  488   2.069   0.088   2.294  1.7628  0.7788  0.2784
  163SOL    HW2  489   1.986   0.194   2.202  0.3327  0.0450  1.7248
  164SOL     OW  490   1.953   1.695   0.330 -0.0435 -0.2170 -0.2568
  164SOL    HW1  491   1.863   1.738   0.361  1.8117  0.7916  0.2540
  164SOL    HW2  492   1.941   1.642   0.242  1.7311 -1.3648  0.4006
  165SOL     OW  493   2.800   0.079   1.536 -0.3283 -0.3642 -0.5400
  165SOL    HW1  494   2.886   0.025   1.507  1.3532 -1.8226 -0.0152
  165SOL    HW2  495   2.764   0.144   1.466 -0.4022  0.5755 -0.4252
  166SOL     OW  496   2.018   1.055   0.025 -0.3674  0.1418 -0.4903
  166SOL    HW1  497   2.114   1.087   0.051  3.6971 -1.6271 -0.2463
  166SOL    HW2  498   1.943   1.124   0.039  2.9205 -0.7401  2.2665
  167SOL     OW  499   2.928   0.827   0.095  0.4155  0.8220  0.7835
  167SOL    HW1  500   2.911   0.727   0.099  2.5548 -3.0734 -1.1095
  167SOL    HW2  501   3.010   0.853   0.043 -0.8243 -2.3101  0.5246
  168SOL     OW  502   1.672   2.785   2.625 -0.4509  0.0113  0.3029
  168SOL    HW1  503   1.659   2.883   2.646 -0.2298 -0.2441 -0.5763
  168SOL    HW2  504   1.651   2.726   2.702  0.0229  0.1493 -0.6331
  169SOL     OW  505   0.384   1.662   0.272  0.5386 -0.0996  0.4548
  169SOL    HW1  506   0.342   1.623   0.191 -1.7949 -0.5700 -0.9339
  169SOL    HW2  507   0.344   1.606   0.351 -1.0424 -0.1731  1.8851
  170SOL     OW  508   0.369   0.347   1.207 -0.3353  0.2410 -0.1273
  170SOL    HW1  509   0.373   0.404   1.293  0.0106 -0.0944 -0.0895
  170SOL    HW2  510   0.457   0.296   1.192  2.5096 -0.7715  0.3609
  171SOL     OW  511   1.386   2.238   2.774  0.1341  0.2916 -0.1341
  171SOL    HW1  512   1.478   2.191   2.758  0.7631  1.9496  0.0554
  171SOL    HW2  513   1.359   2.300   2.695 -1.9018 -0.2570 -3.3020
  172SOL     OW  514   2.901   2.805   1.072 -0.4289  0.2581  0.2619
  172SOL    HW1  515   2.914   2.715   1.119 -1.2317 -0.0033  2.1274
  172SOL    HW2  516   2.996   2.844   1.063 -1.2460 -0.5682  1.1263
  173SOL     OW  517   1.621   0.662   2.729  0.4830 -0.1607  0.0243
  173SOL    HW1  518   1.704   0.676   2.784 -1.0132 -1.0286 -2.4829
  173SOL    HW2  519   1.641   0.660   2.634 -3.8465 -1.5209  2.7145
  174SOL     OW  520   1.332   0.072   2.932  0.5295  0.7784 -0.1633
  174SOL    HW1  521   1.309   0.017   3.014 -0.2605 -2.2107 -1.9383
  174SOL    HW2  522   1.392   0.153   2.950 -2.8899  0.9934 -2.6901
  175SOL     OW  523   2.153   1.967   0.599 -0.1101 -0.0218  0.8544
  175SOL    HW1  524   2.126   2.059   0.635  0.5089 -1.3245 -2.2685
  175SOL    HW2  525   2.067   1.910   0.602 -0.0156 -0.5316  2.5963
  176SOL     OW  526   1.527   0.251   2.987  0.1101 -0.6153  0.1611
  176SOL    HW1  527   1.525   0.346   3.018 -0.1324  0.2635  1.3586
  176SOL    HW2  528   1.618   0.236   2.950 -3.8719  2.8072  0.7811
  177SOL     OW  529   1.181   1.599   0.259 -0.0075  0.6171  0.2358
  177SOL    HW1  530   1.121   1.680   0.232 -1.6804 -1.6900 -0.2047
  177SOL    HW2  531   1.141   1.511   0.224 -0.3111  0.4748  0.2036
  178SOL     OW  532   2.547   2.266   0.004  0.0479  0.0593 -0.4478
  178SOL    HW1  533   2.484   2.301   0.068 -1.8439 -0.1965 -1.4091
  178SOL    HW2  534   2.503   2.197   3.030 -1.9064 -0.6171 -2.9159
  179SOL     OW  535   2.787   2.849   2.904 -0.0806  0.4642 -0.7956
  179SOL    HW1  536   2.847   2.790   2.841  0.8430 -2.4868  1.4930
  179SOL    HW2  537   2.821   2.944   2.912  1.2503  2.6904 -0.0593
  180SOL     OW  538   1.712   1.675   0.934 -0.8930 -0.3442 -0.3701
  180SOL    HW1  539   1.749   1.660   1.025  1.3273  0.0311 -0.1151
  180SOL    HW2  540   1.708   1.589   0.882 -1.7227  2.5897 -0.2493
  181SOL     OW  541   1.887   0.721   2.226 -0.7037  0.2485  0.2752
  181SOL    HW1  542   1.897   0.824   2.224 -0.2848 -3.7581  1.1712
  181SOL    HW2  543   1.802   0.683   2.184 -0.2547  0.8548 -0.3483
  182SOL     OW  544   2.730   2.958   2.506  0.2433 -0.4010  0.7629
  182SOL    HW1  545   2.703   2.892   2.578  0.6307  0.8554  1.5152
  182SOL    HW2  546   2.667   2.953   2.429  0.0753  1.3325 -0.8122
  183SOL     OW  547   1.746   0.607   2.009  0.2405 -0.0906 -0.3206
  183SOL    HW1  548   1.718   0.653   1.924  1.3751 -1.1276  3.2817
  183SOL    HW2  549   1.792   0.522   1.989 -0.0449  1.1329  2.1732
  184SOL     OW  550   0.288   1.087   1.172  1.0166  0.2638 -0.2516
  184SOL    HW1  551   0.262   1.119   1.082 -1.2953  1.3014  2.2006
  184SOL    HW2  552   0.210   1.044   1.224  2.6267 -0.9634 -1.7558
  185SOL     OW  553   2.008   0.448   0.517  0.2349 -0.4168 -0.2338
  185SOL    HW1  554   2.064   0.532   0.498 -1.9756 -0.7439  0.4747
  185SOL    HW2  555   1.916   0.480   0.548 -2.6876 -0.5482 -1.8948
  186SOL     OW  556   0.396   2.840   0.073  0.2736  0.3412 -0.1178
  186SOL    HW1  557   0.473   2.777   0.058 -0.1952 -1.7097  1.9293
  186SOL    HW2  558   0.397   2.931   0.022 -0.7783 -0.2120 -1.5289
  187SOL     OW  559   2.465   0.800   2.843 -0.0726  0.2178  0.3781
  187SOL    HW1  560   2.440   0.862   2.767 -0.9232 -0.9505  2.6240
  187SOL    HW2  561   2.566   0.802   2.868  2.3196 -2.2586 -0.8921
  188SOL     OW  562   0.120   1.411   1.311  0.1089  0.0312 -0.1820
  188SOL    HW1  563   0.084   1.331   1.366 -0.0752  0.0911  0.5169
  188SOL    HW2  564   0.183   1.472   1.368  1.9417  2.7339  2.5387
  189SOL     OW  565   2.688   0.295   3.014  0.5454 -0.4700 -0.1898
  189SOL    HW1  566   2.776   0.294   3.061 -1.4610 -0.0933 -0.2178
  189SOL    HW2  567   2.688   0.372   2.952  2.5287 -1.7197 -1.2907
  190SOL     OW  568   1.372   1.008   1.936 -0.5947  0.0956 -0.5296
  190SOL    HW1  569   1.385   1.006   2.036 -0.9019  0.9824 -4.6479
  190SOL    HW2  570   1.405   1.096   1.897  0.6174  0.0301 -3.1168
  191SOL     OW  571   0.110   0.320   1.932  0.2652 -0.3405  0.8193
  191SOL    HW1  572   0.076   0.225   1.931 -1.3724  0.3388 -2.0095
  191SOL    HW2  573   0.045   0.376   1.991  0.2517  0.7851 -0.2335
  192SOL     OW  574   2.025   1.258   1.076 -0.2517  0.0329  0.2706
  192SOL    HW1  575   1.969   1.217   1.002  1.8452  1.3772  1.3168
  192SOL    HW2  576   2.037   1.358   1.055  0.0144 -3.5685 -2.8334
  193SOL     OW  577   1.289   0.871   1.029  0.4750  0.1028  0.1095
  193SOL    HW1  578   1.241   0.907   0.946  0.8869 -1.1139 -1.1272
  193SOL    HW2  579   1.222   0.808   1.077  0.5120 -2.6845  3.2318
  194SOL     OW  580   0.949   2.394   1.907  0.1750 -0.3440 -0.3326
  194SOL    HW1  581   0.997   2.437   1.828 -0.3808 -1.8149 -0.4841
  194SOL    HW2  582   0.857   2.438   1.918 -0.0615  0.6618  0.3523
  195SOL     OW  583   1.821   0.194   2.951 -0.6497  0.1561  0.6270
  195SOL    HW1  584   1.847   0.193   2.854  0.3316  2.1911 -1.0175
  195SOL    HW2  585   1.779   0.104   2.980 -2.1639  0.0332 -2.2029
  196SOL     OW  586   0.808   1.920   1.774 -0.4475 -0.0801  0.0521
  196SOL    HW1  587   0.869   1.840   1.764  0.5947  0.8016  2.0718
  196SOL    HW2  588   0.803   1.952   1.871 -1.2837  0.1976 -0.5875
  197SOL     OW  589   1.085   0.225   1.245  0.1477 -0.0492  0.1634
  197SOL    HW1  590   1.172   0.255   1.192  2.5677  1.3078  1.4051
  197SOL    HW2  591   1.013   0.299   1.242 -0.6039  1.7880  0.9996
  198SOL     OW  592   0.865   1.036   0.889  0.2624  0.3106 -0.3182
  198SOL    HW1  593   0.880   1.077   0.983 -2.7782  0.1650 -0.3316
  198SOL    HW2  594   0.785   0.973   0.894 -1.8604 -3.7735  0.3061
  199SOL     OW  595   0.126   2.555   1.635 -0.1663  0.4075 -0.1899
  199SOL    HW1  596   0.143   2.629   1.706 -1.3489  0.1770  1.1183
  199SOL    HW2  597   0.032   2.566   1.595 -1.7120  3.1828 -0.3930
  200SOL     OW  598   2.072   2.139   2.153  0.4652  0.1167 -0.0609
  200SOL    HW1  599   2.055   2.173   2.058 -0.8704  2.1189  0.7227
  200SOL    HW2  600   2.175   2.125   2.171  0.5758 -1.7800 -0.7476
  201SOL     OW  601   0.235   1.517   1.875 -0.0273 -0.4939 -0.2337
  201SOL    HW1  602   0.195   1.443   1.816 -2.4853  0.3797  1.3763
  201SOL    HW2  603   0.291   1.483   1.953  0.4576  0.5569 -1.0679
  202SOL     OW  604   2.163   0.372   0.213  0.2442  0.0123 -0.0547
  202SOL    HW1  605   2.214   0.314   0.147  1.0660 -0.6504 -1.0710
  202SOL    HW2  606   2.153   0.317   0.302 -1.9526  2.0996  1.6529
  203SOL     OW  607   1.035   2.362   2.169 -0.0222  0.2485 -0.0490
  203SOL    HW1  608   1.023   2.451   2.221  1.4581  3.1149  3.1026
  203SOL    HW2  609   1.000   2.370   2.070 -0.8439 -0.7094 -2.7534
  204SOL     OW  610   1.038   2.122   1.889 -0.1415  0.3305  0.0713
  204SOL    HW1  611   1.060   2.104   1.792  0.4314 -0.6232  0.4057
  204SOL    HW2  612   0.999   2.217   1.898 -0.3992  1.7533  0.5233
  205SOL     OW  613   1.436   1.766   2.099 -0.1680 -0.1083 -0.1471
  205SOL    HW1  614   1.373   1.802   2.027 -0.5986 -0.9094 -0.7980
  205SOL    HW2  615   1.423   1.665   2.105 -1.4781 -2.2839 -2.3575
  206SOL     OW  616   0.318   0.765   2.544 -0.3502  0.1523 -0.3992
  206SOL    HW1  617   0.324   0.666   2.570  1.2416  0.8171 -1.5532
  206SOL    HW2  618   0.398   0.822   2.565  0.5865  0.0630  0.6423
  207SOL     OW  619   0.852   2.837   1.774 -0.2230 -0.0255 -0.0808
  207SOL    HW1  620   0.812   2.901   1.840 -1.8108 -1.1990 -1.1707
  207SOL    HW2  621   0.883   2.885   1.694 -0.6277 -2.0682 -1.2374
  208SOL     OW  622   0.385   2.571   1.838 -0.0760 -0.2537 -0.5575
  208SOL    HW1  623   0.451   2.498   1.865  2.7941 -1.5248  0.2554
  208SOL    HW2  624   0.433   2.650   1.801  3.3487 -0.5968 -0.9394
  209SOL     OW  625   1.519   0.544   3.052  0.3095 -0.2117  0.1357
  209SOL    HW1  626   1.607   0.591   3.070  1.1104  2.2886 -0.5146
  209SOL    HW2  627   1.460   0.614   3.006 -1.5712 -1.9455 -0.7717
  210SOL     OW  628   2.826   0.560   0.477 -0.7017 -0.0908 -0.5522
  210SOL    HW1  629   2.766   0.530   0.557  1.3776  1.8925  2.2416
  210SOL    HW2  630   2.831   0.660   0.476  2.2495 -2.4596  0.7073
  211SOL     OW  631   0.686   0.411   1.401 -0.0630  0.5325  0.6034
  211SOL    HW1  632   0.663   0.503   1.360  3.4304 -3.3883 -3.3615
  211SOL    HW2  633   0.718   0.409   1.498 -1.9831  3.0125  2.3464
  212SOL     OW  634   1.457   1.873   1.293 -0.0954  0.0709 -0.2434
  212SOL    HW1  635   1.500   1.866   1.204 -0.3872 -1.8299  0.9285
  212SOL    HW2  636   1.465   1.788   1.347 -1.3824  1.2803  0.9831
  213SOL     OW  637   2.155   0.292   1.854 -0.7390  0.0072  0.6442
  213SOL    HW1  638   2.228   0.225   1.827  0.3627  1.7711  0.1810
  213SOL    HW2  639   2.200   0.381   1.878 -2.9972 -0.6318  1.1976
  214SOL     OW  640   0.980   2.429   2.620 -0.3135 -0.1950  0.5741
  214SOL    HW1  641   1.039   2.389   2.541  4.2253 -0.6543 -1.9706
  214SOL    HW2  642   0.906   2.365   2.643  1.8675  1.4816  0.4823
  215SOL     OW  643   2.898   1.318   1.485  0.0450 -0.0435 -0.2483
  215SOL    HW1  644   2.975   1.254   1.479 -1.7804 -1.3747 -0.4222
  215SOL    HW2  645   2.879   1.348   1.393  1.4854 -1.3144  1.7403
  216SOL     OW  646   0.554   0.980   1.497  0.2911  0.7014 -0.2844
  216SOL    HW1  647   0.526   1.080   1.498 -0.3509  0.9422 -0.2861
  216SOL    HW2  648   0.521   0.931   1.414 -0.4908 -1.3437 -4.4822
  217SOL     OW  649   2.805   0.160   0.359  0.1613  0.5666  0.2302
  217SOL    HW1  650   2.825   0.160   0.458 -2.1276  1.5834 -1.3617
  217SOL    HW2  651   2.784   0.256   0.331 -0.8884  2.8779  2.2837
  218SOL     OW  652   1.592   1.896   1.052  0.1372 -0.0121 -0.2343
  218SOL    HW1  653   1.637   1.982   1.015  0.1569  2.0100  0.2948
  218SOL    HW2  654   1.638   1.813   1.011  1.4485  0.9531  0.2395
  219SOL     OW  655   1.663   0.246   0.391  0.3130 -0.1965 -0.2725
  219SOL    HW1  656   1.674   0.159   0.443 -0.2592  0.1022  0.8403
  219SOL    HW2  657   1.742   0.247   0.327 -0.3336 -0.7803 -1.3736
  220SOL     OW  658   1.337   2.002   1.012 -0.2779 -0.3761 -0.0005
  220SOL    HW1  659   1.275   1.925   0.975 -1.1222 -0.3402  0.0290
  220SOL    HW2  660   1.417   1.966   1.055 -1.1375 -0.2590 -3.0825
  221SOL     OW  661   2.858   1.099   0.175  0.7301  0.3682 -0.2068
  221SOL    HW1  662   2.803   1.162   0.117 -3.7196 -1.9592  2.5558
  221SOL    HW2  663   2.869   1.010   0.128 -0.9316  1.9570  1.9502
  222SOL     OW  664   0.879   2.548   1.459 -0.3237 -0.3428 -0.3044
  222SOL    HW1  665   0.795   2.552   1.507  2.1131  0.8461 -1.4558
  222SOL    HW2  666   0.867   2.589   1.365  0.6707  0.0847 -1.4146
  223SOL     OW  667   1.389   0.416   0.201 -0.1473 -0.1947  0.4631
  223SOL    HW1  668   1.309   0.477   0.180  2.0469 -1.7297 -1.6800
  223SOL    HW2  669   1.442   0.396   0.116 -0.0835  0.4563 -1.8881
  224SOL     OW  670   2.923   0.778   0.880  0.3605  0.0669 -0.8559
  224SOL    HW1  671   2.867   0.860   0.853 -0.5129  0.4624 -1.3909
  224SOL    HW2  672   2.916   0.764   0.982 -0.8493 -0.4559  1.5348
  225SOL     OW  673   0.817   1.615   1.426 -0.4078 -0.6049  0.1142
  225SOL    HW1  674   0.906   1.598   1.379 -2.0782 -0.8738  1.7118
  225SOL    HW2  675   0.756   1.537   1.414  3.8704 -0.0687 -1.6980
  226SOL     OW  676   0.648   2.721   0.679  0.1326 -0.0951  0.0202
  226SOL    HW1  677   0.671   2.818   0.690 -0.0245 -0.0441 -3.7846
  226SOL    HW2  678   0.733   2.673   0.648  1.0548 -2.0186 -1.1511
  227SOL     OW  679   1.201   1.755   1.621 -0.0526  0.3524 -0.3727
  227SOL    HW1  680   1.120   1.720   1.673  0.0522  0.1759  0.1361
  227SOL    HW2  681   1.215   1.855   1.636 -0.2150 -0.4923  0.5436
  228SOL     OW  682   0.777   0.140   1.790 -0.0176  0.3161 -0.1275
  228SOL    HW1  683   0.674   0.141   1.779  0.7325 -2.8592  0.1785
  228SOL    HW2  684   0.805   0.132   1.887  0.5300 -2.1811 -0.6131
  229SOL     OW  685   2.731   0.632   2.950 -0.4853  0.5360  0.4547
  229SOL    HW1  686   2.737   0.726   2.920  0.1886  1.5395 -0.2903
  229SOL    HW2  687   2.804   0.617   3.017 -1.8568 -2.4150 -0.3160
  230SOL     OW  688   0.165   0.688   1.342  0.0387  0.5304 -0.1085
  230SOL    HW1  689   0.232   0.641   1.279  1.7749 -1.0877 -0.3678
  230SOL    HW2  690   0.185   0.659   1.437  1.4399  2.4722 -0.1702
  231SOL     OW  691   0.995   3.047   1.275  0.2841 -0.0904  0.4608
  231SOL    HW1  692   0.907   3.021   1.231  0.6038 -1.0923 -0.5193
  231SOL    HW2  693   1.006   0.061   1.277  0.7704 -0.9001 -0.2152
  232SOL     OW  694   2.840   2.580   0.390  0.3614 -0.0926  0.2694
  232SOL    HW1  695   2.828   2.535   0.297  0.8797  0.1270 -2.2897
  232SOL    HW2  696   2.748   2.611   0.424 -0.8341  3.1827  0.5808
  233SOL     OW  697   1.433   2.339   3.073  0.3904 -0.6026  0.7942
  233SOL    HW1  698   1.397   2.328   2.978 -0.1879 -2.2051 -0.6697
  233SOL    HW2  699   1.469   2.431   3.087 -0.2944 -1.5468 -0.6617
  234SOL     OW  700   0.643   1.216   2.017 -0.1576 -0.6637 -0.0914
  234SOL    HW1  701   0.672   1.307   2.058 -2.1416  0.4231 -0.7857
  234SOL    HW2  702   0.677   1.141   2.081  0.8226  0.1603  1.3814
  235SOL     OW  703   0.012   2.329   2.791  0.3475  0.0388 -0.1796
  235SOL    HW1  704   0.074   2.370   2.718  1.1592  1.1935 -0.9978
  235SOL    HW2  705   3.038   2.395   2.840 -1.1653 -0.6787  0.8218
  236SOL     OW  706   1.641   2.195   2.679  0.1087 -0.2587 -0.2657
  236SOL    HW1  707   1.661   2.100   2.642 -1.4129 -2.1241  0.6536
  236SOL    HW2  708   1.639   2.263   2.603  0.5720  0.1491  3.5366
  237SOL     OW  709   1.956   0.924   1.026  0.1014  0.2199  0.2087
  237SOL    HW1  710   1.937   0.822   1.015 -0.8758 -0.5051 -1.0484
  237SOL    HW2  711   1.869   0.974   1.013  1.5008  0.8104  1.8159
  238SOL     OW  712   1.111   2.727   2.088  0.0380  0.0863  0.3834
  238SOL    HW1  713   1.027   2.692   2.135  1.3586  1.7403  0.7162
  238SOL    HW2  714   1.123   2.829   2.103 -1.6513  0.4017  0.3769
  239SOL     OW  715   0.591   2.399   1.892  0.1825  0.3673 -0.0189
  239SOL    HW1  716   0.582   2.313   1.839  0.5583 -1.4925 -0.5652
  239SOL    HW2  717   0.658   2.465   1.847  1.7498  0.9671 -1.5878
  240SOL     OW  718   2.841   0.113   0.638  0.2829  0.5578  0.5853
  240SOL    HW1  719   2.835   0.028   0.699  1.3257 -2.5575  2.2650
  240SOL    HW2  720   2.915   0.176   0.665 -0.0840  0.6573 -3.1164
  241SOL     OW  721   1.223   1.838   2.881 -0.1410  0.2696 -0.2046
  241SOL    HW1  722   1.141   1.835   2.940 -0.0745 -0.1026  1.1771
  241SOL    HW2  723   1.294   1.905   2.910 -0.3919  0.7097  0.5601
  242SOL     OW  724   2.382   0.918   3.074  0.1641  0.5281  0.4319
  242SOL    HW1  725   2.447   0.905   0.069 -0.7572 -0.2773 -0.5643
  242SOL    HW2  726   2.417   0.860   2.996  1.1079 -4.0087  0.8082
  243SOL     OW  727   0.754   0.510   1.968  0.1161  0.2239  0.1716
  243SOL    HW1  728   0.704   0.529   1.880 -0.2812 -1.7481 -1.1147
  243SOL    HW2  729   0.847   0.473   1.949 -0.8151 -0.1381  2.2073
  244SOL     OW  730   1.510   2.612   3.082  0.3223 -0.0856 -0.2444
  244SOL    HW1  731   1.436   2.673   0.031 -0.2452  1.0661 -0.9760
  244SOL    HW2  732   1.581   2.587   0.061  0.0804 -1.2314 -0.4533
  245SOL     OW  733   1.734   2.500   0.137  0.2457 -0.3086 -0.5326
  245SOL    HW1  734   1.683   2.422   0.177  1.2784 -0.0200 -0.6597
  245SOL    HW2  735   1.810   2.531   0.196 -0.1479  0.7107 -0.6083
  246SOL     OW  736   1.000   0.822   2.429  0.3163  0.3390  0.8327
  246SOL    HW1  737   1.026   0.859   2.336  1.0826  1.8836 -1.3325
  246SOL    HW2  738   0.940   0.884   2.481  0.4176 -1.8427 -2.9171
  247SOL     OW  739   0.190   0.871   2.836 -0.2591 -0.6270 -0.8969
  247SOL    HW1  740   0.131   0.884   2.751 -0.0025 -1.4804 -1.9172
  247SOL    HW2  741   0.205   0.773   2.857  0.6616  2.9020  0.0862
  248SOL     OW  742   0.109   0.987   1.866 -0.2636 -0.0695  0.1385
  248SOL    HW1  743   0.018   1.005   1.908  0.7517 -3.8274  0.7839
  248SOL    HW2  744   0.176   1.042   1.915  0.6650 -1.7209  2.8074
  249SOL     OW  745   0.075   0.358   0.371 -0.3339  0.3519  0.1882
  249SOL    HW1  746   0.060   0.424   0.297  1.9669 -0.4579  1.1364
  249SOL    HW2  747   3.087   0.368   0.439 -1.2425  0.4863 -0.8639
  250SOL     OW  748   2.934   0.211   0.029  0.5203  0.1607 -0.3612
  250SOL    HW1  749   3.020   0.261   0.018 -3.3118 -0.8835 -0.0013
  250SOL    HW2  750   2.938   0.150   0.110 -0.3475  1.7693 -1.2711
  251SOL     OW  751   1.103   1.665   2.068  0.3703  0.6276 -0.1469
  251SOL    HW1  752   1.203   1.668   2.080 -1.6689  0.5785  1.2115
  251SOL    HW2  753   1.071   1.573   2.037 -3.1282 -1.1244  1.5439
  252SOL     OW  754   2.216   1.691   1.287  0.1131 -0.2670  0.1125
  252SOL    HW1  755   2.308   1.727   1.273  0.8997 -1.7753 -0.7879
  252SOL    HW2  756   2.182   1.685   1.383  0.6478  1.3211  1.8509
  253SOL     OW  757   1.819   2.404   2.233  0.5632 -0.2526 -0.7080
  253SOL    HW1  758   1.743   2.342   2.212  1.3868  0.5779  0.3010
  253SOL    HW2  759   1.837   2.407   2.331  1.2912  0.1034  0.1158
  254SOL     OW  760   0.567   2.151   2.262 -0.0810 -0.0727 -0.2721
  254SOL    HW1  761   0.562   2.256   2.269  2.1439  0.1707 -1.9760
  254SOL    HW2  762   0.581   2.137   2.162  0.9758  0.0380 -0.4693
  255SOL     OW  763   1.656   0.357   0.914  0.6146 -0.1553  0.0922
  255SOL    HW1  764   1.591   0.352   0.834  0.0884  2.6086  3.0914
  255SOL    HW2  765   1.622   0.429   0.976  0.1170  0.2730 -0.4199
  256SOL     OW  766   2.038   2.072   1.422 -0.2438  0.1978 -0.2273
  256SOL    HW1  767   2.026   2.165   1.471 -1.0197 -1.5246  1.6549
  256SOL    HW2  768   2.123   2.069   1.362  2.3119 -1.0775  0.8408
  257SOL     OW  769   0.343   2.604   2.934  0.5219 -0.3655 -0.3119
  257SOL    HW1  770   0.399   2.521   2.913  0.1457  0.1582 -0.4960
  257SOL    HW2  771   0.359   2.630   3.031  0.7371  1.0583  0.3114
  258SOL     OW  772   0.486   0.938   1.999 -0.4220  0.8020 -0.2729
  258SOL    HW1  773   0.496   0.935   2.101 -0.5926  0.2499  0.0491
  258SOL    HW2  774   0.556   0.877   1.949  0.0375 -1.9163 -1.7744
  259SOL     OW  775   1.264   0.868   2.549  0.5038 -0.5592 -0.2669
  259SOL    HW1  776   1.250   0.968   2.543 -0.0177 -0.7170 -1.2922
  259SOL    HW2  777   1.192   0.822   2.494 -2.6770 -0.1125  3.3479
  260SOL     OW  778   2.278   0.846   0.368  0.3374 -0.9477  0.5628
  260SOL    HW1  779   2.278   0.875   0.465  0.1425 -2.5523 -0.4181
  260SOL    HW2  780   2.202   0.778   0.345  0.5660 -0.3251  2.2950
  261SOL     OW  781   0.890   0.224   0.607  0.3510 -0.1040  0.0753
  261SOL    HW1  782   0.938   0.264   0.526  2.4240 -0.3265  1.3042
  261SOL    HW2  783   0.942   0.243   0.692 -0.6885  0.7469 -1.4787
  262SOL     OW  784   1.961   2.544   2.595  0.3151  0.6623 -0.1505
  262SOL    HW1  785   2.059   2.553   2.620 -0.5124  2.0028 -0.6419
  262SOL    HW2  786   1.923   2.634   2.573 -0.6761 -3.2326  0.8330
  263SOL     OW  787   0.237   1.628   2.837  0.1648 -0.0237 -0.3456
  263SOL    HW1  788   0.289   1.636   2.750  0.8028 -1.4551 -0.4099
  263SOL    HW2  789   0.182   1.715   2.850  1.4697  0.1332 -1.6393
  264SOL     OW  790   0.476   1.851   1.647  0.3257  0.5235  0.0577
  264SOL    HW1  791   0.429   1.760   1.656  1.8147 -0.7741 -3.0867
  264SOL    HW2  792   0.501   1.862   1.548  0.6887 -1.1110 -0.2441
  265SOL     OW  793   1.195   0.953   0.553  0.5213  0.3113  0.0802
  265SOL    HW1  794   1.171   1.047   0.525 -0.2053  0.2302  1.4770
  265SOL    HW2  795   1.210   0.894   0.472 -1.2623  2.9233  0.8411
  266SOL     OW  796   1.633   1.716   0.137 -0.0351 -0.3500  0.4885
  266SOL    HW1  797   1.625   1.799   0.081  1.5270  0.3269 -1.1604
  266SOL    HW2  798   1.560   1.699   0.205 -3.9903 -1.2334 -0.2434
  267SOL     OW  799   0.130   0.291   3.081 -0.2604 -0.3981 -0.1786
  267SOL    HW1  800   0.123   0.298   2.980 -0.0416  1.1707 -0.6909
  267SOL    HW2  801   0.121   0.196   0.032 -3.5185  1.2448  2.4348
  268SOL     OW  802   1.018   0.257   2.880 -0.1862  0.6166  0.1262
  268SOL    HW1  803   0.937   0.260   2.940  3.2064  1.5189  0.6085
  268SOL    HW2  804   1.053   0.163   2.855  3.5736 -2.3519 -1.2942
  269SOL     OW  805   1.610   0.369   2.436  0.2123  0.1734  0.6218
  269SOL    HW1  806   1.620   0.314   2.353 -1.8597 -1.4271  2.0590
  269SOL    HW2  807   1.520   0.356   2.477 -1.2376  2.4428  0.6279
  270SOL     OW  808   0.733   0.677   2.735  0.1259  0.3689  1.0597
  270SOL    HW1  809   0.723   0.606   2.659 -2.9153  2.8581  0.1488
  270SOL    HW2  810   0.832   0.712   2.744  3.2748  2.6346 -0.1644
  271SOL     OW  811   0.256   0.990   0.141  0.2252 -0.0499  0.5451
  271SOL    HW1  812   0.356   1.007   0.127  0.0865  1.1228  0.6529
  271SOL    HW2  813   0.220   1.003   0.236  2.2529 -0.7113 -1.0141
  272SOL     OW  814   2.232   1.183   2.684  0.0610 -0.0395  0.3051
  272SOL    HW1  815   2.299   1.104   2.675  0.7952  0.9908  0.1057
  272SOL    HW2  816   2.157   1.152   2.748 -1.0945  0.1004  2.9007
  273SOL     OW  817   3.034   0.285   2.446  0.1330 -0.0646 -0.4847
  273SOL    HW1  818   0.019   0.356   2.453 -0.2493  1.1601  2.5977
  273SOL    HW2  819   3.026   0.229   2.534  0.9421  0.8067  0.7847
  274SOL     OW  820   2.587   3.030   1.696 -0.1884 -0.3662 -0.3318
  274SOL    HW1  821   2.517   3.052   1.629  1.0901 -0.2858  0.0359
  274SOL    HW2  822   2.676   3.078   1.671  0.1272  0.2899 -1.4001
  275SOL     OW  823   1.882   1.596   0.094 -0.0966  0.5887 -0.5422
  275SOL    HW1  824   1.915   1.654   0.016 -1.0656 -2.0002 -0.3581
  275SOL    HW2  825   1.783   1.616   0.107 -0.6336  0.2772 -1.0138
  276SOL     OW  826   0.245   1.146   2.702 -0.3843  0.0396  0.3728
  276SOL    HW1  827   0.206   1.230   2.739 -3.1275 -1.0342  2.6105
  276SOL    HW2  828   0.176   1.101   2.637 -0.1634 -0.2582 -0.6232
  277SOL     OW  829   1.665   2.674   2.108 -0.4476  0.1480 -0.3666
  277SOL    HW1  830   1.700   2.668   2.204 -0.3166 -3.1490  1.2725
  277SOL    HW2  831   1.601   2.597   2.093  0.9680  2.0311  0.8275
  278SOL     OW  832   1.957   3.015   1.278  0.2047  0.1209  0.1869
  278SOL    HW1  833   1.882   2.977   1.339  2.1232  0.7774  0.5956
  278SOL    HW2  834   1.935   0.025   1.258 -0.0938 -1.0773  0.5960
  279SOL     OW  835   1.081   1.439   2.634  0.5233 -0.3525  0.2395
  279SOL    HW1  836   1.164   1.471   2.684  2.5736  1.0690 -0.1049
  279SOL    HW2  837   1.043   1.510   2.573 -0.5998 -0.0727  2.4667
  280SOL     OW  838   0.648   1.743   0.249  0.0548 -0.2025 -0.0814
  280SOL    HW1  839   0.551   1.728   0.269  0.4596 -0.7115 -0.8593
  280SOL    HW2  840   0.665   1.804   0.171  0.5159  0.5901  2.0503
  281SOL     OW  841   2.976   2.925   2.072  0.4644  0.4605 -0.0145
  281SOL    HW1  842   2.989   2.889   1.973  2.0242 -1.0001 -0.5564
  281SOL    HW2  843   3.010   2.852   2.139  3.7385 -0.6619  0.8154
  282SOL     OW  844   0.280   1.965   1.107 -0.3655  0.5514  0.2746
  282SOL    HW1  845   0.352   2.017   1.057  1.7718 -0.3076 -2.0598
  282SOL    HW2  846   0.220   2.027   1.164  1.2851 -0.3433 -2.4071
  283SOL     OW  847   1.328   2.395   2.535 -0.3985 -0.0586 -0.5504
  283SOL    HW1  848   1.261   2.318   2.527 -2.5309  0.6945  0.1777
  283SOL    HW2  849   1.425   2.362   2.509  2.7166 -1.0452 -2.8571
  284SOL     OW  850   2.058   0.783   0.095  0.0499 -0.3104 -0.3112
  284SOL    HW1  851   2.025   0.875   0.068  0.1040 -2.3368 -1.0986
  284SOL    HW2  852   2.142   0.764   0.036  2.5590 -0.4295 -2.0641
  285SOL     OW  853   2.625   2.764   2.672  0.4077  0.4294  0.5547
  285SOL    HW1  854   2.641   2.788   2.770  0.4642 -0.9539  1.5661
  285SOL    HW2  855   2.531   2.721   2.662 -0.9319 -0.7568 -2.9364
  286SOL     OW  856   1.876   2.549   1.279 -0.0605 -0.0777  0.5722
  286SOL    HW1  857   1.841   2.594   1.361 -0.9064 -3.0993 -0.4191
  286SOL    HW2  858   1.810   2.480   1.246 -1.9010 -1.1113 -0.6753
  287SOL     OW  859   0.780   1.277   1.105 -0.0421 -0.4582  0.5807
  287SOL    HW1  860   0.784   1.370   1.057 -0.9783  4.3357 -0.4127
  287SOL    HW2  861   0.873   1.236   1.118 -0.6760  0.9815  1.6729
  288SOL     OW  862   1.213   2.271   0.163 -0.1663 -0.2357  0.1191
  288SOL    HW1  863   1.204   2.341   0.236  0.1668 -0.2917  1.6695
  288SOL    HW2  864   1.295   2.291   0.100 -0.2114  1.3316  0.9679
  289SOL     OW  865   0.034   1.998   2.514  0.0633  0.6211  0.5806
  289SOL    HW1  866   0.040   1.901   2.486  0.6432 -0.5687 -2.1816
  289SOL    HW2  867   0.126   2.033   2.543  0.7759  0.3026 -1.6881
  290SOL     OW  868   0.968   2.234   0.820  0.0568  0.0287  0.4591
  290SOL    HW1  869   0.963   2.232   0.718  4.0087 -0.8820  1.4049
  290SOL    HW2  870   0.973   2.142   0.865 -1.2056  2.8493 -0.8668
  291SOL     OW  871   1.979   1.501   2.805  0.0616 -0.2193 -0.4940
  291SOL    HW1  872   2.064   1.488   2.755 -0.2945 -1.0059 -0.0114
  291SOL    HW2  873   1.969   1.594   2.839  2.5216 -3.3878 -0.2638
  292SOL     OW  874   1.208   1.339   1.816 -0.0268  0.1938 -0.1404
  292SOL    HW1  875   1.135   1.357   1.884  5.8696  0.4688 -0.8590
  292SOL    HW2  876   1.293   1.300   1.862 -0.7963 -0.0537  1.7118
  293SOL     OW  877   1.905   2.390   0.951  0.7102  0.0533  0.0726
  293SOL    HW1  878   1.926   2.329   1.031  0.4875 -0.1898 -0.7252
  293SOL    HW2  879   1.941   2.358   0.858 -0.6310  0.0092 -1.9251
  294SOL     OW  880   0.074   1.322   2.437 -0.4075  0.5726  0.5813
  294SOL    HW1  881   0.032   1.395   2.492  1.5811 -0.5914 -1.7568
  294SOL    HW2  882   0.003   1.272   2.381 -0.6897 -1.0604 -1.0840
  295SOL     OW  883   0.932   2.052   2.945  0.3676  0.2106  0.2127
  295SOL    HW1  884   1.016   2.107   2.930 -1.0010  0.4642 -0.5138
  295SOL    HW2  885   0.958   1.957   2.972 -0.0144  0.2284  1.5890
  296SOL     OW  886   1.891   1.821   2.159  0.4766 -0.3809  0.0569
  296SOL    HW1  887   1.964   1.820   2.089  1.6597  0.5946 -1.2292
  296SOL    HW2  888   1.856   1.919   2.156 -0.7063 -0.8603 -0.7675
  297SOL     OW  889   2.687   0.767   2.548 -0.0710  0.2767 -0.6005
  297SOL    HW1  890   2.766   0.713   2.506 -0.8835 -0.4345  1.9009
  297SOL    HW2  891   2.597   0.716   2.545 -0.8692 -1.4023  2.0516
  298SOL     OW  892   0.785   2.148   2.418 -0.3140  0.3204  0.4357
  298SOL    HW1  893   0.762   2.229   2.475  2.6545 -1.2205 -1.8272
  298SOL    HW2  894   0.735   2.149   2.334  0.7061 -0.8177  1.0699
  299SOL     OW  895   0.875   2.647   2.478  0.0927  0.4785 -0.0214
  299SOL    HW1  896   0.794   2.707   2.480 -2.0224 -0.0500 -1.1649
  299SOL    HW2  897   0.861   2.555   2.523  0.0161 -2.1453 -0.2076
  300SOL     OW  898   2.880   0.568   0.083 -0.6926 -0.5406  0.2281
  300SOL    HW1  899   2.815   0.512   0.137  0.1355  2.6572 -0.4667
  300SOL    HW2  900   2.977   0.532   0.082  1.6035 -0.7229  0.8461
  301SOL     OW  901   1.108   0.671   1.143  0.0488  0.5784  0.2935
  301SOL    HW1  902   1.133   0.611   1.216 -1.6777  2.1948 -2.7055
  301SOL    HW2  903   1.033   0.739   1.171 -2.1422 -0.1471  2.1427
  302SOL     OW  904   2.772   1.876   2.798 -0.0183 -0.3824  0.5948
  302SOL    HW1  905   2.834   1.956   2.803  1.7892 -0.7848  0.8473
  302SOL    HW2  906   2.731   1.845   2.884  1.6892 -1.8331 -1.0605
  303SOL     OW  907   3.006   2.918   2.529  0.1622 -0.1150 -0.0844
  303SOL    HW1  908   3.058   2.929   2.444  0.7211  1.6391  0.6123
  303SOL    HW2  909   2.909   2.949   2.511  2.2105  1.3489 -0.7578
  304SOL     OW  910   2.946   0.178   1.736 -0.2672  0.1262  0.4136
  304SOL    HW1  911   2.887   0.151   1.655  3.8094  0.1308  1.1790
  304SOL    HW2  912   2.904   0.168   1.830 -0.9775  0.4492  1.2419
  305SOL     OW  913   0.074   3.070   2.258 -0.6172  0.0294 -0.1786
  305SOL    HW1  914   0.029   3.005   2.194 -1.7297  0.3182  0.3223
  305SOL    HW2  915   0.064   0.081   2.222 -0.2262  1.3008 -0.2401
  306SOL     OW  916   2.626   1.170   1.230 -0.4004 -0.3156  0.1004
  306SOL    HW1  917   2.572   1.197   1.314  0.0781  2.1175 -1.8551
  306SOL    HW2  918   2.647   1.071   1.218  0.4929  0.2145 -2.2389
  307SOL     OW  919   1.896   0.475   1.168 -0.1890 -0.1921  0.1871
  307SOL    HW1  920   1.871   0.383   1.209 -2.1098 -3.4061  0.3409
  307SOL    HW2  921   1.811   0.534   1.176  0.0315  0.7121  1.4449
  308SOL     OW  922   0.126   2.101   1.286 -0.1218 -0.2344  0.5310
  308SOL    HW1  923   0.064   2.179   1.258 -2.0518  1.8158  0.1692
  308SOL    HW2  924   0.079   2.042   1.351  1.1935 -0.8912 -2.3941
  309SOL     OW  925   2.433   1.828   1.352  0.5690  0.5096  0.1830
  309SOL    HW1  926   2.482   1.742   1.362 -0.1182  0.6090  0.5874
  309SOL    HW2  927   2.343   1.831   1.408 -3.4517 -0.3833  2.4278
  310SOL     OW  928   2.702   1.759   0.002 -0.2412  0.4063  0.3621
  310SOL    HW1  929   2.696   1.853   0.043  0.3098  1.3961  0.8334
  310SOL    HW2  930   2.763   1.699   0.052 -0.9167  1.7242 -2.1428
  311SOL     OW  931   2.072   1.595   2.425  0.3344  0.7677  0.0783
  311SOL    HW1  932   1.969   1.612   2.436 -0.0726  2.4682  1.9005
  311SOL    HW2  933   2.118   1.683   2.447  0.0871 -2.1602  0.2830
  312SOL     OW  934   2.292   2.301   0.881  0.5551  0.4033  0.2600
  312SOL    HW1  935   2.379   2.245   0.878 -1.6876 -1.6162  2.4441
  312SOL    HW2  936   2.308   2.399   0.854  1.5067 -2.3913 -1.6643
  313SOL     OW  937   2.909   2.583   1.237 -0.3305  0.1761  0.0457
  313SOL    HW1  938   2.860   2.579   1.329 -3.8248 -2.3277 -1.7896
  313SOL    HW2  939   2.970   2.503   1.228  0.6474  2.7416  0.8292
  314SOL     OW  940   1.153   2.169   1.373  0.2886  0.1963 -0.1943
  314SOL    HW1  941   1.078   2.222   1.424 -2.5563 -1.1754 -0.1097
  314SOL    HW2  942   1.106   2.100   1.312 -1.8421 -1.1068  1.3765
  315SOL     OW  943   0.148   2.691   2.454 -0.6508  0.6948 -0.0946
  315SOL    HW1  944   0.164   2.657   2.549 -0.9954 -1.7810 -1.9878
  315SOL    HW2  945   0.242   2.727   2.420  0.6880  0.6017 -1.0422
  316SOL     OW  946   0.050   1.857   0.758  0.4817 -0.1731  0.3581
  316SOL    HW1  947   0.105   1.820   0.833 -2.2650  0.3585 -0.0352
  316SOL    HW2  948   0.108   1.881   0.675 -1.1278  1.7788 -2.0815
  317SOL     OW  949   2.032   0.206   0.426  0.2701 -0.4635 -0.0288
  317SOL    HW1  950   2.021   0.300   0.462 -0.4172 -1.5953 -1.7293
  317SOL    HW2  951   2.011   0.140   0.496 -0.4246 -0.1393  0.5868
  318SOL     OW  952   2.759   2.886   0.459 -0.1408 -0.6342 -0.2447
  318SOL    HW1  953   2.807   2.832   0.383  2.4361 -0.8980 -0.0917
  318SOL    HW2  954   2.707   2.963   0.413 -2.2793 -0.3265 -1.4161
  319SOL     OW  955   1.058   1.382   0.117  0.1211 -0.4654  0.2245
  319SOL    HW1  956   1.115   1.377   0.031  0.0779  2.6915  0.2878
  319SOL    HW2  957   0.960   1.405   0.090 -1.1064  4.3544 -2.7199
  320SOL     OW  958   0.627   2.822   2.783  0.1371 -0.1567 -0.4223
  320SOL    HW1  959   0.679   2.895   2.732  2.0665 -0.1599  2.2040
  320SOL    HW2  960   0.534   2.827   2.745 -1.1007 -1.4189 -2.8498
  321SOL     OW  961   1.163   3.047   0.034  0.3511 -0.3958  0.2720
  321SOL    HW1  962   1.194   3.048   0.129 -1.4003  0.8157 -0.3114
  321SOL    HW2  963   1.107   2.971   3.085  0.9508  3.1814  0.6586
  322SOL     OW  964   2.367   1.106   1.836 -0.5747  0.1323  0.0244
  322SOL    HW1  965   2.307   1.101   1.922  1.9182 -1.9303  0.1978
  322SOL    HW2  966   2.445   1.170   1.861 -0.1013 -1.0410 -1.2219
  323SOL     OW  967   2.523   0.808   0.219 -0.1911 -0.3042 -0.2088
  323SOL    HW1  968   2.429   0.823   0.265 -2.7925  1.6535  0.5080
  323SOL    HW2  969   2.518   0.733   0.152  1.6648  0.1144 -0.8726
  324SOL     OW  970   0.218   0.584   2.880  0.1446 -0.3122  0.7140
  324SOL    HW1  971   0.127   0.574   2.934 -1.8356 -0.6253  2.6342
  324SOL    HW2  972   0.224   0.539   2.786 -0.2346 -0.1062  1.3557
  325SOL     OW  973   1.385   2.873   2.097  0.2335  0.0200 -0.0685
  325SOL    HW1  974   1.401   2.890   2.000 -0.5537  0.6362  2.1402
  325SOL    HW2  975   1.334   2.788   2.121  0.2720 -0.7663  1.7855
  326SOL     OW  976   2.393   0.029   1.514  0.7627 -0.3817 -0.3824
  326SOL    HW1  977   2.297   3.083   1.508  3.0602 -0.9324  2.8546
  326SOL    HW2  978   2.408   0.072   1.422 -3.5395 -2.5016  3.0306
  327SOL     OW  979   1.798   0.834   2.884  0.1800  0.0414  1.0326
  327SOL    HW1  980   1.806   0.777   2.968  1.3861 -1.0493  2.0655
  327SOL    HW2  981   1.881   0.832   2.826 -1.9610  2.7188  0.3315
  328SOL     OW  982   2.910   1.409   2.137 -0.7013 -0.3673  0.1300
  328SOL    HW1  983   2.941   1.319   2.175  0.1718 -0.0718  0.2404
  328SOL    HW2  984   2.934   1.489   2.198 -1.1357  3.6709  1.1950
  329SOL     OW  985   1.505   2.485   1.823 -0.5241  0.2526 -0.0762
  329SOL    HW1  986   1.404   2.494   1.837 -3.5312 -2.6901  0.0672
  329SOL    HW2  987   1.549   2.572   1.796 -1.3138  1.7376  0.3066
  330SOL     OW  988   2.717   1.400   1.680  0.1220 -0.5333 -0.2306
  330SOL    HW1  989   2.777   1.356   1.608 -0.7153  0.8539  0.4925
  330SOL    HW2  990   2.764   1.467   1.741  0.7091  3.6972 -0.5986
  331SOL     OW  991   0.066   2.179   0.632 -0.4162  0.7071 -0.1646
  331SOL    HW1  992   0.116   2.091   0.641 -0.7792 -1.3781  0.8662
  331SOL    HW2  993   0.097   2.225   0.545  0.6987 -0.1408 -0.5492
  332SOL     OW  994   0.847   0.431   0.977 -0.0142 -0.3577 -0.2422
  332SOL    HW1  995   0.800   0.508   0.934 -0.9400 -0.7765  1.2503
  332SOL    HW2  996   0.928   0.418   0.916  0.2831  3.0717  2.0094
  333SOL     OW  997   2.119   2.759   2.303  0.0727 -0.2415  0.8453
  333SOL    HW1  998   2.029   2.733   2.338 -0.1549  0.1044  1.5194
  333SOL    HW2  999   2.177   2.801   2.375 -0.4355  0.0375 -0.7520
  334SOL     OW 1000   1.221   1.259   1.095 -0.3218  0.2053  0.3098
  334SOL    HW1 1001   1.313   1.211   1.095  0.8788  0.0440 -0.1524
  334SOL    HW2 1002   1.213   1.310   1.182  1.1843 -2.4469  1.2302
  335SOL     OW 1003   0.178   2.621   2.709  0.4544 -0.3886 -0.0317
  335SOL    HW1 1004   0.094   2.665   2.745 -2.4785  0.9613 -1.4244
  335SOL    HW2 1005   0.256   2.618   2.775 -1.7018 -0.9643 -2.5639
  336SOL     OW 1006   2.622   2.338   2.001 -0.3861 -0.3370 -0.1390
  336SOL    HW1 1007   2.718   2.380   1.995  1.2975  0.7944  0.0887
  336SOL    HW2 1008   2.600   2.299   1.912 -0.0017  3.2237 -1.6010
  337SOL     OW 1009   2.101   1.577   0.526 -0.4425  0.6157  0.3040
  337SOL    HW1 1010   2.196   1.610   0.542 -1.2132 -0.2440 -0.0091
  337SOL    HW2 1011   2.071   1.599   0.431  1.0914 -0.9544 -0.5042
  338SOL     OW 1012   1.193   1.807   1.354  0.0665 -0.5396  0.0956
  338SOL    HW1 1013   1.209   1.781   1.451  1.9714 -0.5189 -0.3257
  338SOL    HW2 1014   1.280   1.852   1.310  1.6676 -0.8791 -0.4749
  339SOL     OW 1015   3.071   0.421   1.288 -0.7037  0.4595 -0.2009
  339SOL    HW1 1016   0.020   0.512   1.322 -1.8319  2.5255 -1.1587
  339SOL    HW2 1017   2.970   0.415   1.276  2.0220  0.0215  0.8560
  340SOL     OW 1018   1.644   2.716   1.771  0.5446 -0.0621 -1.0283
  340SOL    HW1 1019   1.644   2.725   1.669  0.8572  0.6609 -1.1943
  340SOL    HW2 1020   1.738   2.733   1.817  1.9416  1.3579 -0.6736
  341SOL     OW 1021   2.229   1.303   0.790 -0.4094 -0.0064  0.0937
  341SOL    HW1 1022   2.310   1.353   0.831  1.6549 -0.4467 -3.5606
  341SOL    HW2 1023   2.144   1.361   0.790 -0.4287  0.2896 -0.3289
  342SOL     OW 1024   0.516   1.701   0.831  0.5873 -0.4220 -0.9355
  342SOL    HW1 1025   0.595   1.708   0.892 -2.8460 -0.0259 -0.9382
  342SOL    HW2 1026   0.503   1.604   0.798  2.4091 -1.0919  0.8217
  343SOL     OW 1027   2.652   0.895   1.420 -0.5240  0.0876 -0.1704
  343SOL    HW1 1028   2.569   0.929   1.469 -1.3717 -0.7937  1.9492
  343SOL    HW2 1029   2.730   0.871   1.486  0.6435 -2.8800  0.5557
  344SOL     OW 1030   2.345   0.264   0.703 -0.1709  0.2702 -0.1709
  344SOL    HW1 1031   2.352   0.354   0.663 -1.0894  0.3500 -0.6404
  344SOL    HW2 1032   2.432   0.217   0.702 -0.8320 -0.6274  1.6484
  345SOL     OW 1033   2.805   2.629   2.473 -0.1739 -0.0375 -0.2796
  345SOL    HW1 1034   2.763   2.682   2.547 -1.8462 -0.8913  0.9639
  345SOL    HW2 1035   2.748   2.648   2.391 -1.4857 -0.6035 -1.2844
  346SOL     OW 1036   0.037   1.352   0.610  0.2769  0.3036  0.0775
  346SOL    HW1 1037   3.055   1.411   0.654 -0.1447 -0.6818 -0.8358
  346SOL    HW2 1038   3.081   1.264   0.580  0.0516 -0.5955 -0.1339
  347SOL     OW 1039   1.717   2.753   1.507  0.0471 -0.3529  0.6533
  347SOL    HW1 1040   1.810   2.754   1.553 -0.3548 -1.7271 -1.6531
  347SOL    HW2 1041   1.667   2.663   1.501 -2.3596  1.5685 -3.0631
  348SOL     OW 1042   1.123   1.026   1.804 -0.0594 -0.2096 -0.0808
  348SOL    HW1 1043   1.212   1.025   1.857 -2.4493 -0.4771  2.0361
  348SOL    HW2 1044   1.047   1.006   1.869 -1.3943  1.8970  0.9406
  349SOL     OW 1045   2.314   1.484   2.014 -0.0554  0.2302  0.3573
  349SOL    HW1 1046   2.255   1.468   2.095 -0.2729 -1.9210 -1.5521
  349SOL    HW2 1047   2.395   1.536   2.043 -2.2367 -1.9965  2.9648
  350SOL     OW 1048   2.893   2.210   0.726 -0.2381  0.0602 -0.3867
  350SOL    HW1 1049   2.858   2.284   0.786 -1.1474  1.6651  0.2818
  350SOL    HW2 1050   2.993   2.223   0.717 -0.5289 -0.1562  4.7487
  351SOL     OW 1051   0.221   0.599   1.591 -0.6513  0.1081  0.6733
  351SOL    HW1 1052   0.251   0.630   1.681  0.9190 -3.2714 -0.9302
  351SOL    HW2 1053   0.135   0.548   1.609  0.1616  1.4815  1.3157
  352SOL     OW 1054   0.977   2.985   1.557  0.3794 -0.3129  0.0896
  352SOL    HW1 1055   0.996   2.997   1.455  2.3334  1.8918 -3.5417
  352SOL    HW2 1056   1.063   3.001   1.611 -0.9123  0.3768 -0.3308
  353SOL     OW 1057   0.672   1.297   2.663 -0.4913  0.1511  0.5098
  353SOL    HW1 1058   0.765   1.259   2.664 -1.0231  1.2729  0.9150
  353SOL    HW2 1059   0.670   1.392   2.622 -1.6237  0.2632  1.5676
  354SOL     OW 1060   1.369   1.778   0.315 -0.1654 -0.7758  0.1225
  354SOL    HW1 1061   1.282   1.724   0.295 -3.5565 -0.9464 -1.7284
  354SOL    HW2 1062   1.434   1.731   0.378 -1.7250  0.4319  1.4345
  355SOL     OW 1063   2.101   0.170   0.745  0.0012 -0.0735  0.2911
  355SOL    HW1 1064   2.046   0.249   0.775 -1.9934 -0.7883  1.6861
  355SOL    HW2 1065   2.197   0.203   0.745 -1.4701  0.8585 -1.3400
  356SOL     OW 1066   0.127   1.266   3.038  0.3139 -0.6276  0.1106
  356SOL    HW1 1067   0.226   1.249   3.061  0.3792  0.0602  1.3983
  356SOL    HW2 1068   0.072   1.256   0.036 -1.4947 -3.1678  0.7856
  357SOL     OW 1069   0.059   0.051   1.897 -0.2422 -0.0107 -0.7053
  357SOL    HW1 1070   3.056   0.029   1.940  0.4357 -2.5378  0.9858
  357SOL    HW2 1071   0.040   0.086   1.803  1.0667 -0.8877 -1.6325
  358SOL     OW 1072   0.545   1.206   2.893 -0.2558 -0.5510 -0.0670
  358SOL    HW1 1073   0.574   1.258   2.807  2.1417 -1.0303  2.2258
  358SOL    HW2 1074   0.498   1.272   2.960 -0.1024  2.0391  0.4218
  359SOL     OW 1075   2.407   2.598   2.597 -0.6818 -0.2488  0.4353
  359SOL    HW1 1076   2.336   2.563   2.658  1.1725 -0.0321 -0.3938
  359SOL    HW2 1077   2.414   2.547   2.510  3.1329  1.6327 -1.0841
  360SOL     OW 1078   1.640   1.429   0.795 -0.2118 -0.2030  0.0704
  360SOL    HW1 1079   1.543   1.436   0.809 -0.0386 -3.4862  1.9242
  360SOL    HW2 1080   1.680   1.337   0.823  0.2694 -0.3633  0.1343
  361SOL     OW 1081   1.903   2.124   1.144  0.0376  0.1348 -0.3207
  361SOL    HW1 1082   1.931   2.152   1.237 -2.7545  0.0699  0.4606
  361SOL    HW2 1083   1.936   2.034   1.120  1.7930  2.5813  0.8582
  362SOL     OW 1084   2.003   1.463   0.787 -0.1057  0.4048  0.8029
  362SOL    HW1 1085   2.038   1.516   0.707  0.5526  1.6785  0.4525
  362SOL    HW2 1086   2.009   1.522   0.868 -1.1521  0.3822 -2.5249
  363SOL     OW 1087   2.579   2.306   0.478 -0.0351 -0.6537 -0.3571
  363SOL    HW1 1088   2.532   2.222   0.515  0.8247 -1.5417  1.3881
  363SOL    HW2 1089   2.663   2.281   0.424  2.8461 -1.0561 -0.8179
  364SOL     OW 1090   2.462   0.143   1.276 -0.8387  0.2836  0.0671
  364SOL    HW1 1091   2.422   0.154   1.181 -1.5867  3.8878 -0.9471
  364SOL    HW2 1092   2.564   0.173   1.278  4.5203 -1.3023 -0.9866
  365SOL     OW 1093   0.585   2.778   1.089  0.2036 -0.0018 -0.2516
  365SOL    HW1 1094   0.507   2.819   1.035 -0.0929  0.6196  1.8709
  365SOL    HW2 1095   0.547   2.714   1.161  1.3407 -0.7809 -1.8946
  366SOL     OW 1096   2.901   1.464   0.447 -0.1477  0.3276  0.8934
  366SOL    HW1 1097   2.825   1.446   0.387 -1.1448 -3.8846 -1.8756
  366SOL    HW2 1098   2.987   1.428   0.403  1.7664 -0.6013 -0.6179
  367SOL     OW 1099   2.151   2.271   2.788  0.5007 -0.0692 -0.2962
  367SOL    HW1 1100   2.093   2.197   2.750  0.7831 -1.7635  0.7705
  367SOL    HW2 1101   2.244   2.236   2.792  1.1301 -0.0027 -1.1245
  368SOL     OW 1102   2.475   2.076   0.945 -0.4170 -0.4954  0.0561
  368SOL    HW1 1103   2.526   2.067   0.856 -1.5556 -1.6877 -0.2536
  368SOL    HW2 1104   2.514   2.020   1.023  1.9976 -0.8713 -0.5836
  369SOL     OW 1105   0.842   1.133   0.639  0.2932  0.5198  0.8795
  369SOL    HW1 1106   0.847   1.114   0.743  2.4742 -0.7616  1.5453
  369SOL    HW2 1107   0.937   1.144   0.609 -1.6609  0.8140 -0.3858
  370SOL     OW 1108   0.781   0.163   1.052  0.2953 -0.4492  0.5366
  370SOL    HW1 1109   0.812   0.255   1.018  1.3878  1.3339 -0.6645
  370SOL    HW2 1110   0.840   0.089   1.013  2.9776 -0.1632  0.0017
  371SOL     OW 1111   2.484   1.298   2.790  0.6083  0.6040 -0.1081
  371SOL    HW1 1112   2.497   1.284   2.891 -1.1789 -1.4005  1.2138
  371SOL    HW2 1113   2.397   1.251   2.764 -1.5423 -2.3980  2.4910
  372SOL     OW 1114   0.735   0.450   2.541  0.4663  0.3695 -0.5677
  372SOL    HW1 1115   0.774   0.503   2.459 -2.9839  0.5349  1.0495
  372SOL    HW2 1116   0.774   0.354   2.533 -1.2729 -1.3514 -0.7139
  373SOL     OW 1117   0.654   0.553   3.024  0.5068  0.1527 -0.4394
  373SOL    HW1 1118   0.680   0.613   2.943  0.2679  1.2466 -0.9655
  373SOL    HW2 1119   0.735   0.498   3.059  1.8370 -1.3607  2.5936
  374SOL     OW 1120   0.998   2.469   3.035 -0.4470 -0.1523  0.4172
  374SOL    HW1 1121   1.054   2.484   2.953  0.7003 -0.4249  0.2338
  374SOL    HW2 1122   1.046   2.495   0.032 -0.3746 -1.4199  0.6838
  375SOL     OW 1123   0.942   3.053   0.601 -0.5995  0.4663 -0.2034
  375SOL    HW1 1124   1.003   3.015   0.676  0.6103 -0.1426  1.8022
  375SOL    HW2 1125   0.921   0.064   0.600  1.5441  0.8589  1.4363
  376SOL     OW 1126   0.016   2.295   1.946 -0.5057  0.3841 -0.6612
  376SOL    HW1 1127   3.007   2.327   1.947  1.4785 -0.2541  1.4569
  376SOL    HW2 1128   0.065   2.294   1.853  0.5069 -2.3310 -0.5557
  377SOL     OW 1129   2.675   2.011   0.094 -0.1183  0.5370  0.2660
  377SOL    HW1 1130   2.588   1.987   0.150 -3.7045  0.1842  0.3389
  377SOL    HW2 1131   2.658   2.101   0.050  1.7801  1.3413  0.5927
  378SOL     OW 1132   1.832   0.578   0.698 -0.0907 -0.2773 -0.3784
  378SOL    HW1 1133   1.734   0.544   0.708 -0.6685 -1.7656  0.6053
  378SOL    HW2 1134   1.893   0.528   0.759 -4.7244  0.1926  0.0992
  379SOL     OW 1135   1.404   1.130   0.816  0.2239 -0.3065  0.0765
  379SOL    HW1 1136   1.309   1.099   0.830  2.7368 -1.0921 -0.2866
  379SOL    HW2 1137   1.424   1.125   0.715  0.9794 -2.2338  0.5853
  380SOL     OW 1138   2.463   1.964   1.845  0.4935 -0.8439  0.5162
  380SOL    HW1 1139   2.545   1.933   1.795 -0.6737 -1.0784  1.0282
  380SOL    HW2 1140   2.495   2.014   1.927 -0.0626 -2.2911 -0.6396
  381SOL     OW 1141   3.029   1.184   2.243 -0.3315 -0.3931  0.3754
  381SOL    HW1 1142   2.994   1.109   2.307 -2.2656 -0.6561 -0.0169
  381SOL    HW2 1143   0.036   1.158   2.210  0.9979 -0.1722 -1.5992
  382SOL     OW 1144   2.794   2.430   0.167 -0.4480  0.2993  0.2451
  382SOL    HW1 1145   2.772   2.341   0.207  1.9116  2.9732 -1.9411
  382SOL    HW2 1146   2.781   2.431   0.062 -2.4632 -2.5729 -2.1114
  383SOL     OW 1147   1.385   1.034   2.223 -0.0993 -0.4444  0.8291
  383SOL    HW1 1148   1.453   1.108   2.195 -0.1307  0.8055 -0.8594
  383SOL    HW2 1149   1.423   0.973   2.296  2.7716  1.3626  0.4840
  384SOL     OW 1150   1.010   2.036   2.544  0.2584 -0.2149 -0.4985
  384SOL    HW1 1151   0.996   1.947   2.599 -0.7126 -0.3100  2.1133
  384SOL    HW2 1152   0.922   2.055   2.493  1.8380 -2.1411 -0.5864
  385SOL     OW 1153   2.186   2.205   0.130 -0.2692  0.3233 -0.7823
  385SOL    HW1 1154   2.170   2.268   0.053  0.4618  2.1894 -0.4982
  385SOL    HW2 1155   2.277   2.226   0.170 -0.1944 -2.3941  0.6852
  386SOL     OW 1156   1.608   1.383   0.226 -0.1616  0.0352  0.0008
  386SOL    HW1 1157   1.616   1.455   0.299 -0.9825  0.3867  1.0747
  386SOL    HW2 1158   1.693   1.327   0.222  0.1170  2.9383 -0.3126
  387SOL     OW 1159   2.892   1.032   1.334 -0.5490 -0.3841 -0.2608
  387SOL    HW1 1160   2.893   1.131   1.319 -1.8680 -2.2043  2.9243
  387SOL    HW2 1161   2.812   1.003   1.384  1.7491  0.0441 -0.9389
  388SOL     OW 1162   0.422   0.848   1.287  0.0258  0.1779  0.1169
  388SOL    HW1 1163   0.405   0.931   1.235  1.2654 -0.8210 -0.6533
  388SOL    HW2 1164   0.358   0.775   1.261  2.0562  1.0381 -0.0693
  389SOL     OW 1165   2.221   1.092   2.089 -0.2169 -0.4201 -0.0405
  389SOL    HW1 1166   2.256   1.115   2.179 -1.1749  2.5748 -2.3134
  389SOL    HW2 1167   2.155   1.164   2.059  1.3928  2.7809  0.1065
  390SOL     OW 1168   1.228   1.900   0.512  0.1642 -0.4450  0.1228
  390SOL    HW1 1169   1.300   1.857   0.448  0.1693 -0.2704 -0.0452
  390SOL    HW2 1170   1.270   1.923   0.599 -1.2629 -0.9057  1.3042
  391SOL     OW 1171   1.005   1.979   0.930  0.2294 -0.0437 -0.5951
  391SOL    HW1 1172   1.100   1.950   0.912 -2.0242 -1.1233 -1.0086
  391SOL    HW2 1173   0.939   1.926   0.880  2.8043  0.8354  2.7110
  392SOL     OW 1174   2.462   2.541   2.107 -0.1153 -0.8124  0.2378
  392SOL    HW1 1175   2.372   2.576   2.084  1.8553  0.9805  1.3550
  392SOL    HW2 1176   2.493   2.465   2.048 -0.2969 -0.6937 -2.6340
  393SOL     OW 1177   1.403   2.036   2.974 -0.2153  0.2728 -0.1529
  393SOL    HW1 1178   1.387   2.132   2.940  0.1212  2.6280 -1.4093
  393SOL    HW2 1179   1.505   2.023   2.999  3.5728  0.8597  2.6995
  394SOL     OW 1180   0.119   0.494   2.390 -0.0208 -0.3724 -0.2822
  394SOL    HW1 1181   0.036   0.534   2.345 -1.6362 -0.3572  0.4443
  394SOL    HW2 1182   0.187   0.461   2.322 -0.1864  0.3380 -0.9349
  395SOL     OW 1183   0.432   1.075   0.734  0.1676  0.2309 -0.5684
  395SOL    HW1 1184   0.474   1.101   0.824 -1.5109  3.2672  0.2224
  395SOL    HW2 1185   0.505   1.048   0.672  0.8615  0.2540 -0.2892
  396SOL     OW 1186   2.414   0.980   2.642  0.3272  0.2415  0.1563
  396SOL    HW1 1187   2.349   0.931   2.579 -1.2130 -1.6036  0.6909
  396SOL    HW2 1188   2.497   1.014   2.595  0.6273 -1.9819 -0.9225
  397SOL     OW 1189   0.485   0.746   0.010  0.0537 -0.5492  0.3636
  397SOL    HW1 1190   0.451   0.782   3.008 -1.9489 -0.9136  0.8100
  397SOL    HW2 1191   0.540   0.660   3.079 -0.5358 -1.6172 -0.2222
  398SOL     OW 1192   1.263   2.741   0.490 -0.1420  0.0695 -0.2361
  398SOL    HW1 1193   1.307   2.758   0.580 -1.6507 -1.4969 -1.6938
  398SOL    HW2 1194   1.192   2.805   0.467 -0.8456 -1.8027 -1.6915
  399SOL     OW 1195   1.986   2.462   2.020 -0.2486 -0.6371 -0.2026
  399SOL    HW1 1196   1.923   2.444   2.094  2.6946 -2.5258  1.3335
  399SOL    HW2 1197   1.996   2.382   1.963 -1.4962 -0.9848  0.2438
  400SOL     OW 1198   0.191   1.184   1.657  0.4415 -0.2283 -0.1409
  400SOL    HW1 1199   0.245   1.148   1.737 -0.8270  1.6667  3.0102
  400SOL    HW2 1200   0.117   1.247   1.696  0.0193  2.9397 -0.6160
  401SOL     OW 1201   0.667   0.994   0.501  0.5655  0.0357 -0.0805
  401SOL    HW1 1202   0.681   0.894   0.524  1.2582 -2.1025  1.7423
  401SOL    HW2 1203   0.738   1.046   0.546 -0.7644  0.2583 -3.8814
  402SOL     OW 1204   0.744   2.931   2.265 -0.5082 -0.3726 -0.3640
  402SOL    HW1 1205   0.833   2.963   2.310  2.0815 -0.4419  2.8592
  402SOL    HW2 1206   0.745   2.956   2.167  0.0976  0.2429 -3.7575
  403SOL     OW 1207   2.695   1.798   1.805  0.2687  0.0456  0.5430
  403SOL    HW1 1208   2.780   1.787   1.857 -2.2489  0.2718  0.8632
  403SOL    HW2 1209   2.647   1.707   1.800 -0.1774  0.5776  0.2293
  404SOL     OW 1210   2.625   2.065   2.053 -0.1199 -0.3164 -0.0256
  404SOL    HW1 1211   2.699   2.029   2.111  0.5333  1.3054  2.8927
  404SOL    HW2 1212   2.640   2.165   2.051 -0.3956 -0.0944  0.0677
  405SOL     OW 1213   1.938   0.105   2.726 -0.1508 -0.7724  0.4480
  405SOL    HW1 1214   1.955   0.007   2.717 -0.5963  1.5526  0.0557
  405SOL    HW2 1215   1.936   0.150   2.636  1.7868 -0.1050  0.4382
  406SOL     OW 1216   1.038   1.836   0.188  0.3123  0.5979 -0.0018
  406SOL    HW1 1217   1.128   1.883   0.176  1.3111 -3.4891  0.7323
  406SOL    HW2 1218   0.960   1.905   0.178 -2.2574  2.0636 -1.7445
  407SOL     OW 1219   1.364   1.283   0.135  0.1570 -0.9792  0.0735
  407SOL    HW1 1220   1.343   1.325   0.044 -1.1834 -0.2820  0.5632
  407SOL    HW2 1221   1.454   1.320   0.161 -1.4411 -1.7250 -1.9333
  408SOL     OW 1222   0.400   0.444   1.457 -0.4483  0.1430 -0.1703
  408SOL    HW1 1223   0.331   0.499   1.511  1.0656  0.6042 -1.9983
  408SOL    HW2 1224   0.491   0.486   1.463 -1.7950 -0.4030  0.6123
  409SOL     OW 1225   2.846   1.612   2.791 -0.3691 -0.3128  0.1523
  409SOL    HW1 1226   2.745   1.592   2.785  1.1656  0.6102  1.0554
  409SOL    HW2 1227   2.860   1.714   2.810 -1.5301  1.2382  1.3610
  410SOL     OW 1228   2.716   2.721   0.864  0.0091 -0.1229  0.1834
  410SOL    HW1 1229   2.679   2.775   0.947 -0.9110 -0.0523  1.2572
  410SOL    HW2 1230   2.774   2.645   0.887 -2.0760  0.2821 -0.4921
  411SOL     OW 1231   0.098   0.651   0.510 -0.0646 -0.4980  0.4013
  411SOL    HW1 1232   0.094   0.670   0.612  0.0077 -1.0629  1.0232
  411SOL    HW2 1233   0.012   0.683   0.467 -1.4660 -0.4913 -2.8883
  412SOL     OW 1234   1.585   3.063   0.497  0.0392  0.3247  0.5007
  412SOL    HW1 1235   1.494   3.074   0.449 -0.3362  0.7367  0.2069
  412SOL    HW2 1236   1.629   2.972   0.491 -0.2484 -0.3037  1.4217
  413SOL     OW 1237   1.530   0.415   1.812  0.0158 -0.0324  0.5026
  413SOL    HW1 1238   1.598   0.375   1.872 -1.9818  2.3920 -0.0358
  413SOL    HW2 1239   1.442   0.418   1.863  0.4380 -2.4040 -1.2818
  414SOL     OW 1240   0.183   1.099   0.384  0.0359  0.2611  0.5355
  414SOL    HW1 1241   0.128   1.068   0.464 -0.8945 -1.8368  0.1182
  414SOL    HW2 1242   0.284   1.091   0.404 -0.3410 -0.5572  2.0528
  415SOL     OW 1243   2.671   1.481   0.291  0.1986 -0.0385  0.2696
  415SOL    HW1 1244   2.688   1.404   0.224 -0.2383 -0.1430  0.0004
  415SOL    HW2 1245   2.572   1.465   0.311 -0.4525 -2.0720  0.8067
  416SOL     OW 1246   2.583   0.469   2.790  0.4461  0.5955  0.0561
  416SOL    HW1 1247   2.481   0.481   2.796 -1.5241 -1.1104  1.4370
  416SOL    HW2 1248   2.642   0.541   2.836  0.0430  0.4728  0.5723
  417SOL     OW 1249   2.566   0.096   0.665  0.6154 -0.1652  0.3267
  417SOL    HW1 1250   2.660   0.110   0.634 -2.4895 -0.4836 -1.1917
  417SOL    HW2 1251   2.506   0.064   0.590  0.9956  3.7085 -1.5842
  418SOL     OW 1252   0.447   0.247   0.133  0.3478 -0.0176 -0.8468
  418SOL    HW1 1253   0.536   0.274   0.172  0.9205 -1.5192 -0.3825
  418SOL    HW2 1254   0.414   0.300   0.050 -0.0278  0.3483  0.7096
  419SOL     OW 1255   0.640   0.886   0.985  0.1467 -0.3547 -0.3231
  419SOL    HW1 1256   0.617   0.990   0.976  1.3314  2.1268 -0.6474
  419SOL    HW2 1257   0.558   0.832   0.962  1.1659 -0.4385 -1.3791
  420SOL     OW 1258   0.229   0.923   0.834 -0.0238  0.1274  0.3220
  420SOL    HW1 1259   0.285   0.976   0.764  1.1098  0.6568 -2.9252
  420SOL    HW2 1260   0.157   0.974   0.888 -1.5630  0.4650  1.3586
  421SOL     OW 1261   0.679   2.032   0.021 -0.1449 -0.4282  0.1333
  421SOL    HW1 1262   0.588   2.083   0.034  0.1399  2.9398  0.6698
  421SOL    HW2 1263   0.741   2.078   3.048 -0.6759 -0.8362 -0.5584
  422SOL     OW 1264   2.472   0.207   2.012 -0.0469  0.3247 -0.5214
  422SOL    HW1 1265   2.563   0.186   2.060  1.5765 -0.8429 -1.1776
  422SOL    HW2 1266   2.438   0.299   2.027  1.1311 -1.0342 -0.9089
  423SOL     OW 1267   1.951   1.747   2.951  0.1438  0.0267 -0.2658
  423SOL    HW1 1268   2.011   1.813   2.997  0.9185  1.2918 -0.8605
  423SOL    HW2 1269   1.867   1.788   2.909 -3.5850 -0.5052  0.4244
  424SOL     OW 1270   1.607   1.421   2.255  0.3898  0.3090  0.1491
  424SOL    HW1 1271   1.676   1.482   2.207 -2.0236 -1.7520  0.9694
  424SOL    HW2 1272   1.619   1.393   2.348 -0.1786  0.9805 -2.3335
  425SOL     OW 1273   2.935   2.540   2.195  0.4959 -0.2587  0.2745
  425SOL    HW1 1274   3.011   2.608   2.196  0.6944 -0.7786  0.1952
  425SOL    HW2 1275   2.929   2.497   2.284 -2.6850  1.5385 -3.8153
  426SOL     OW 1276   2.193   2.778   0.575  0.8275 -0.1471 -0.0763
  426SOL    HW1 1277   2.123   2.737   0.642 -0.3351 -0.1752 -2.0193
  426SOL    HW2 1278   2.222   2.870   0.610 -0.2950  1.1137  1.5251
  427SOL     OW 1279   0.559   0.861   2.616  0.1940  0.7871  0.5364
  427SOL    HW1 1280   0.516   0.906   2.699 -1.8816 -2.2086 -2.1697
  427SOL    HW2 1281   0.638   0.801   2.647 -0.5381  0.1639 -0.4444
  428SOL     OW 1282   2.669   1.295   2.581 -0.5412 -0.1563 -0.2017
  428SOL    HW1 1283   2.682   1.202   2.542  1.5489 -1.0375 -0.3087
  428SOL    HW2 1284   2.621   1.292   2.670  2.0753 -0.9259 -0.6703
  429SOL     OW 1285   2.493   0.346   0.346  0.4104  0.4713 -0.4528
  429SOL    HW1 1286   2.460   0.324   0.252  3.5523  0.6145 -2.1884
  429SOL    HW2 1287   2.463   0.275   0.412 -3.4072  0.3670 -2.2275
  430SOL     OW 1288   1.558   1.743   2.359  0.2447 -0.1136 -0.0216
  430SOL    HW1 1289   1.554   1.751   2.255 -1.7686 -0.4480 -4.3929
  430SOL    HW2 1290   1.472   1.721   2.407  0.9658  1.8522  0.9155
  431SOL     OW 1291   0.216   1.813   1.788  0.5710  0.1779  0.1152
  431SOL    HW1 1292   0.176   1.899   1.825  0.3091  1.3231  0.0125
  431SOL    HW2 1293   0.229   1.743   1.857  1.9365  2.1748 -0.5957
  432SOL     OW 1294   1.218   1.894   2.419 -0.2356  0.4002  0.4407
  432SOL    HW1 1295   1.229   1.922   2.323  1.5157 -1.4999  2.4343
  432SOL    HW2 1296   1.134   1.936   2.465  1.0886  0.1183 -1.7449
  433SOL     OW 1297   0.860   2.307   0.563 -0.5085  0.1005  0.0438
  433SOL    HW1 1298   0.836   2.376   0.491  2.0969 -0.2416 -1.6417
  433SOL    HW2 1299   0.779   2.255   0.578  2.6359 -1.1386 -1.9124
  434SOL     OW 1300   0.245   2.173   2.531  0.4935 -0.2210  0.0914
  434SOL    HW1 1301   0.212   2.273   2.536 -1.1130  1.1376 -0.7138
  434SOL    HW2 1302   0.260   2.149   2.431 -1.4061 -2.6823 -1.9513
  435SOL     OW 1303   0.277   1.516   0.478  0.1352 -0.0431  0.1933
  435SOL    HW1 1304   0.192   1.470   0.512 -0.3842  1.2078 -0.6910
  435SOL    HW2 1305   0.352   1.444   0.477  1.4549 -0.8514 -0.7466
  436SOL     OW 1306   0.148   2.296   1.709 -0.3688  0.1410 -0.3701
  436SOL    HW1 1307   0.182   2.380   1.664 -1.1710 -2.5261  0.5588
  436SOL    HW2 1308   0.206   2.220   1.679 -0.3228  0.5533 -1.6479
  437SOL     OW 1309   1.022   0.351   0.406  0.3876  0.4119  0.0720
  437SOL    HW1 1310   1.110   0.369   0.456  0.7622 -0.4343  3.6376
  437SOL    HW2 1311   0.981   0.428   0.360  2.8622 -1.0066  0.2609
  438SOL     OW 1312   0.467   2.403   0.563 -0.1367 -0.4648 -0.9410
  438SOL    HW1 1313   0.492   2.496   0.527 -1.7453 -2.5670 -0.9144
  438SOL    HW2 1314   0.414   2.411   0.651 -2.4676 -2.5880 -0.0005
  439SOL     OW 1315   0.613   2.533   1.559  0.6367  0.1407  0.2563
  439SOL    HW1 1316   0.609   2.434   1.537  0.9308  0.5957  0.2289
  439SOL    HW2 1317   0.517   2.578   1.548 -1.3693  2.5357 -1.1616
  440SOL     OW 1318   1.450   2.911   1.833  0.5703  0.4580 -0.1353
  440SOL    HW1 1319   1.477   2.989   1.774 -0.3986  0.0705  0.2482
  440SOL    HW2 1320   1.521   2.840   1.822  0.9360 -2.9521 -0.6705
  441SOL     OW 1321   0.033   0.381   1.649 -0.3775  0.2185 -0.0660
  441SOL    HW1 1322   0.074   0.402   1.742 -0.0045  0.5188  0.5439
  441SOL    HW2 1323   3.055   0.304   1.655  0.4545 -0.9989  2.3130
  442SOL     OW 1324   1.826   2.091   0.732  0.3846 -0.4002  0.1034
  442SOL    HW1 1325   1.780   2.085   0.824 -2.8605  0.3066  0.2723
  442SOL    HW2 1326   1.926   2.111   0.746 -1.8905  2.6347  0.9174
  443SOL     OW 1327   2.759   0.321   2.372  0.0110  0.2150  0.2668
  443SOL    HW1 1328   2.859   0.307   2.400 -1.2933 -1.7002  2.2119
  443SOL    HW2 1329   2.719   0.237   2.335 -1.8027  0.9779 -0.1136
  444SOL     OW 1330   2.224   0.857   1.703 -0.5052 -0.0877  0.0793
  444SOL    HW1 1331   2.256   0.945   1.743 -0.8310  2.1626  0.9183
  444SOL    HW2 1332   2.137   0.828   1.747  2.3821 -0.8545 -1.5785
  445SOL     OW 1333   2.669   2.300   1.425 -0.0188  0.1238 -0.2482
  445SOL    HW1 1334   2.627   2.202   1.430 -0.8133 -2.8508  0.9302
  445SOL    HW2 1335   2.627   2.352   1.351  1.7111  1.3324 -0.1303
  446SOL     OW 1336   2.764   1.579   0.681 -0.7686 -0.6707 -0.0357
  446SOL    HW1 1337   2.770   1.548   0.584  3.0647 -0.5669 -0.3241
  446SOL    HW2 1338   2.819   1.512   0.741  2.2495 -2.4500 -0.1586
  447SOL     OW 1339   0.726   1.392   0.603  0.1268 -0.2252 -0.0387
  447SOL    HW1 1340   0.781   1.308   0.590 -1.6778  1.1716 -1.6042
  447SOL    HW2 1341   0.721   1.456   0.520 -0.2852  0.8348 -0.8950
  448SOL     OW 1342   1.476   1.382   1.385  0.1324 -0.6978  0.5027
  448SOL    HW1 1343   1.545   1.354   1.453  0.1294  0.6973  1.6020
  448SOL    HW2 1344   1.518   1.422   1.299  1.6907 -0.7341 -1.4436
  449SOL     OW 1345   0.790   1.407   0.066 -0.3853  0.1618 -0.1152
  449SOL    HW1 1346   0.692   1.403   0.097  0.5900  0.6195  0.3234
  449SOL    HW2 1347   0.808   1.320   0.011  0.6808 -4.4141  1.4904
  450SOL     OW 1348   2.372   2.074   2.197  0.0405  0.1526  0.4118
  450SOL    HW1 1349   2.381   2.138   2.274  2.7246 -0.4065 -2.9051
  450SOL    HW2 1350   2.462   2.077   2.149 -0.2489  0.9819 -0.6094
  451SOL     OW 1351   1.807   3.024   2.355  0.0564 -0.8958 -0.3987
  451SOL    HW1 1352   1.872   0.011   2.328 -1.6454  2.6762  0.3445
  451SOL    HW2 1353   1.854   2.939   2.374 -2.5428  1.1217 -1.8130
  452SOL     OW 1354   1.216   0.098   1.467  0.4675  0.6009  0.1751
  452SOL    HW1 1355   1.169   0.140   1.384 -3.0353  1.5593 -1.1122
  452SOL    HW2 1356   1.232   3.085   1.444  0.7342  1.1214 -2.6167
  453SOL     OW 1357   1.632   1.040   0.940 -0.2086 -0.1550 -0.3322
  453SOL    HW1 1358   1.544   1.081   0.900 -0.8220  0.7482  1.2072
  453SOL    HW2 1359   1.676   0.973   0.876  1.9115  0.2854  0.5693
  454SOL     OW 1360   0.450   1.451   1.042  0.0824 -0.6656  0.0754
  454SOL    HW1 1361   0.460   1.448   0.941  1.2071 -1.7306 -0.4772
  454SOL    HW2 1362   0.482   1.540   1.082  0.2170 -3.2235  2.1741
  455SOL     OW 1363   2.642   3.051   0.292  0.3836 -0.3284  0.2351
  455SOL    HW1 1364   2.558   3.066   0.230 -2.2828  0.4310 -1.6257
  455SOL    HW2 1365   2.680   0.052   0.326  2.4668 -0.0757 -0.4561
  456SOL     OW 1366   2.566   2.430   1.190  0.0609 -0.1556  0.1653
  456SOL    HW1 1367   2.565   2.531   1.196  0.2909 -0.9044 -0.2109
  456SOL    HW2 1368   2.470   2.399   1.185 -0.0118 -0.3847 -0.1105
  457SOL     OW 1369   1.326   0.131   0.491  0.3015  0.1079  0.2698
  457SOL    HW1 1370   1.330   0.226   0.455 -2.2959  0.0078 -2.7533
  457SOL    HW2 1371   1.363   0.125   0.588 -1.5411 -2.5919  3.8785
  458SOL     OW 1372   2.740   0.412   0.272  0.2165  0.2966 -0.4650
  458SOL    HW1 1373   2.778   0.470   0.344  1.9991 -1.2259 -0.5882
  458SOL    HW2 1374   2.641   0.394   0.286 -1.3199 -0.3046 -0.9635
  459SOL     OW 1375   1.967   0.506   2.606 -0.2755 -0.2714 -0.4032
  459SOL    HW1 1376   1.929   0.417   2.574 -1.2261 -0.9407 -0.4601
  459SOL    HW2 1377   2.046   0.497   2.668  0.4445 -1.5759 -1.1375
  460SOL     OW 1378   2.672   0.250   2.677  0.6937  0.5054  0.3927
  460SOL    HW1 1379   2.626   0.324   2.736 -2.2888  5.2869  1.0877
  460SOL    HW2 1380   2.711   0.282   2.587  0.1227  0.0744 -0.1405
  461SOL     OW 1381   1.210   1.788   0.908  0.6309  0.0345  0.2198
  461SOL    HW1 1382   1.263   1.719   0.962  3.1072  1.1872  1.2590
  461SOL    HW2 1383   1.159   1.748   0.828 -0.4378 -1.1898 -0.9952
  462SOL     OW 1384   2.356   2.838   1.443  0.0499  0.0721  0.3048
  462SOL    HW1 1385   2.394   2.922   1.484  2.2372 -0.5602  0.2533
  462SOL    HW2 1386   2.360   2.758   1.509  2.0493  1.0093  3.2009
  463SOL     OW 1387   2.726   1.132   0.425 -0.3140  0.4285  0.4840
  463SOL    HW1 1388   2.767   1.119   0.336 -0.1599  0.3370  0.7920
  463SOL    HW2 1389   2.719   1.039   0.467  0.1221  0.4066 -0.6166
  464SOL     OW 1390   0.263   2.484   1.142  0.3443 -1.1584  0.0602
  464SOL    HW1 1391   0.208   2.555   1.099 -0.1303 -0.3074  0.3016
  464SOL    HW2 1392   0.217   2.425   1.208 -2.8168  0.6731  0.1294
  465SOL     OW 1393   0.049   1.461   0.278 -0.5642 -0.3224  0.3085
  465SOL    HW1 1394   0.076   1.372   0.235  0.8797  1.3003 -0.8595
  465SOL    HW2 1395   0.125   1.528   0.269  1.9468  0.9545 -1.1819
  466SOL     OW 1396   1.126   0.341   2.630  0.4368 -0.0810  0.5443
  466SOL    HW1 1397   1.088   0.301   2.717 -3.2788  1.8446 -4.8151
  466SOL    HW2 1398   1.107   0.440   2.616  0.8754 -2.4150  2.3301
  467SOL     OW 1399   0.673   0.667   2.188 -1.0134 -0.6919  0.2102
  467SOL    HW1 1400   0.695   0.642   2.093 -0.1218  1.8339 -0.8516
  467SOL    HW2 1401   0.748   0.626   2.245 -0.2686  0.8849 -0.3707
  468SOL     OW 1402   0.579   0.914   2.283  0.2862 -0.6189  0.2585
  468SOL    HW1 1403   0.592   0.813   2.261  1.0351 -2.2450 -1.4864
  468SOL    HW2 1404   0.530   0.926   2.371  0.5612 -0.0979 -0.9496
  469SOL     OW 1405   0.052   2.222   0.172 -0.1034  0.1997 -0.1171
  469SOL    HW1 1406   3.061   2.156   0.150 -2.6915  0.2614 -1.1470
  469SOL    HW2 1407   0.022   2.316   0.140 -2.2566 -0.1679 -1.1488
  470SOL     OW 1408   2.414   2.051   2.999 -0.6352  0.0737 -0.6231
  470SOL    HW1 1409   2.343   2.000   2.941  0.0005 -1.8582  0.9802
  470SOL    HW2 1410   2.397   2.033   0.008 -1.8247  2.0611 -3.7136
  471SOL     OW 1411   2.124   0.644   2.070  0.1293 -0.3402  0.1591
  471SOL    HW1 1412   2.188   0.724   2.058  3.5142 -0.0514  3.9714
  471SOL    HW2 1413   2.043   0.670   2.123  0.3846  1.9369  0.5291
  472SOL     OW 1414   0.471   2.610   1.242 -0.4953  0.5888 -0.2122
  472SOL    HW1 1415   0.433   2.615   1.336  0.0096 -1.0005 -1.7945
  472SOL    HW2 1416   0.403   2.557   1.179 -1.7185 -0.4704 -1.8239
  473SOL     OW 1417   0.330   2.813   2.312 -0.0497  0.3891  0.0947
  473SOL    HW1 1418   0.392   2.899   2.323  1.7618  1.5896 -0.6442
  473SOL    HW2 1419   0.335   2.773   2.217 -1.5147 -1.0870 -1.9512
  474SOL     OW 1420   1.569   0.070   1.927 -0.3530 -0.1162  0.2093
  474SOL    HW1 1421   1.592   0.055   1.828 -1.8602  0.4852 -2.9772
  474SOL    HW2 1422   1.550   3.064   1.962 -0.1023 -0.3601 -0.7399
  475SOL     OW 1423   1.703   2.562   0.842 -0.0264  0.2011 -0.2073
  475SOL    HW1 1424   1.703   2.582   0.744  0.2133 -0.4643  0.5016
  475SOL    HW2 1425   1.766   2.486   0.867 -1.7102  0.6971 -0.2791
  476SOL     OW 1426   0.416   0.753   0.904  0.3961  0.2508  0.2818
  476SOL    HW1 1427   0.350   0.822   0.870 -0.7138 -0.4291 -0.6870
  476SOL    HW2 1428   0.402   0.662   0.864 -0.3329  1.0423  0.0020
  477SOL     OW 1429   1.293   2.214   0.476  0.2195  0.0350 -0.3299
  477SOL    HW1 1430   1.355   2.137   0.465  0.1693  1.1603 -1.4468
  477SOL    HW2 1431   1.210   2.174   0.519 -0.2107  1.6041  1.3365
  478SOL     OW 1432   0.129   2.401   2.565  0.3683  0.7791 -0.0894
  478SOL    HW1 1433   0.141   2.487   2.616  1.5331 -2.1404 -0.2105
  478SOL    HW2 1434   0.090   2.409   2.471 -4.4819 -0.9837 -0.1636
  479SOL     OW 1435   2.684   0.394   1.060  0.0113 -0.8760  0.3331
  479SOL    HW1 1436   2.765   0.425   1.001  1.7756  0.2677 -1.3817
  479SOL    HW2 1437   2.670   0.293   1.049  0.1438 -2.1955 -0.0021
  480SOL     OW 1438   0.125   2.993   0.413  0.0292 -0.4771  0.2564
  480SOL    HW1 1439   0.141   0.002   0.452  2.8207  1.2692 -0.3780
  480SOL    HW2 1440   0.096   2.998   0.314  0.2897  1.2251 -2.8118
  481SOL     OW 1441   2.613   2.040   1.423  0.0897 -0.0708 -0.2971
  481SOL    HW1 1442   2.546   1.968   1.406  0.0144  1.8336 -0.3976
  481SOL    HW2 1443   2.625   2.049   1.524  0.3481  2.9820  0.8739
  482SOL     OW 1444   1.135   2.536   2.824  0.0822  0.4100  0.3075
  482SOL    HW1 1445   1.224   2.563   2.779  1.0812  0.3384 -2.6900
  482SOL    HW2 1446   1.069   2.507   2.752 -1.1038  0.4633  0.2642
  483SOL     OW 1447   0.390   2.495   2.436 -0.9030 -0.0374 -0.6987
  483SOL    HW1 1448   0.290   2.495   2.427  2.2981  0.5617  0.4086
  483SOL    HW2 1449   0.436   2.488   2.349  0.3785  0.2009  3.8678
  484SOL     OW 1450   1.127   0.736   1.761  0.4955 -0.4811 -0.4164
  484SOL    HW1 1451   1.223   0.726   1.783 -1.5368  2.6708  0.1621
  484SOL    HW2 1452   1.099   0.829   1.773  2.8005 -5.6188 -1.3808
  485SOL     OW 1453   2.230   0.863   2.451 -0.8230  0.3225  0.3777
  485SOL    HW1 1454   2.177   0.776   2.427 -2.5195 -1.2559  1.0525
  485SOL    HW2 1455   2.266   0.906   2.367 -0.3025  0.2450  1.9488
  486SOL     OW 1456   2.273   2.986   1.018 -0.2991 -0.4177  0.0564
  486SOL    HW1 1457   2.263   2.923   1.101 -0.7088 -1.0939  1.0402
  486SOL    HW2 1458   2.336   2.954   0.943 -0.5660  3.2268  0.4070
  487SOL     OW 1459   0.759   2.111   1.548 -0.1754 -1.1902  0.5181
  487SOL    HW1 1460   0.739   2.051   1.469 -0.7553  0.9158  0.4549
  487SOL    HW2 1461   0.798   2.055   1.624 -0.1694 -2.3429 -1.4521
  488SOL     OW 1462   2.600   1.551   2.799 -0.7326  0.7198  0.1545
  488SOL    HW1 1463   2.524   1.616   2.801  1.0737  1.9216  1.8202
  488SOL    HW2 1464   2.558   1.460   2.774 -1.6677  2.7912  0.9167
  489SOL     OW 1465   1.944   3.036   0.747 -0.3085 -0.6416 -0.4313
  489SOL    HW1 1466   1.962   2.986   0.832 -1.5464  1.2892 -2.9359
  489SOL    HW2 1467   2.002   0.033   0.748 -1.9638 -1.9535  0.1001
  490SOL     OW 1468   1.073   1.181   0.488  0.2896 -0.0114  0.3309
  490SOL    HW1 1469   1.132   1.265   0.472  1.6338  1.3843  0.6519
  490SOL    HW2 1470   1.027   1.157   0.401 -0.7632  0.4407  1.0160
  491SOL     OW 1471   0.453   2.361   0.990  0.4695 -0.0463 -0.1658
  491SOL    HW1 1472   0.508   2.438   0.956 -0.7987 -4.0747  0.4892
  491SOL    HW2 1473   0.385   2.405   1.055  0.3740  3.8255 -0.1788
  492SOL     OW 1474   1.310   1.851   1.873  0.4306 -0.0370 -0.0147
  492SOL    HW1 1475   1.382   1.924   1.884  0.2790 -0.0436  0.3315
  492SOL    HW2 1476   1.221   1.891   1.865  1.0779 -1.4666  0.1614
  493SOL     OW 1477   2.829   2.443   0.931  0.3723 -0.6713  0.3601
  493SOL    HW1 1478   2.928   2.439   0.961  1.0238  2.1300 -2.7753
  493SOL    HW2 1479   2.771   2.379   0.987  2.2706 -1.1785  2.0463
  494SOL     OW 1480   2.810   2.188   0.298  0.3779 -0.1390 -0.2899
  494SOL    HW1 1481   2.805   2.138   0.210 -4.1111  0.5630 -0.3255
  494SOL    HW2 1482   2.859   2.134   0.372 -1.4315  0.4162 -0.6105
  495SOL     OW 1483   2.675   2.796   0.060 -0.1109  0.1373  0.2688
  495SOL    HW1 1484   2.745   2.811   0.133 -3.6083  3.1380  0.0582
  495SOL    HW2 1485   2.711   2.796   3.049 -0.0249 -2.9333 -1.7919
  496SOL     OW 1486   2.412   0.439   1.335  0.4267  0.0305 -0.2627
  496SOL    HW1 1487   2.331   0.457   1.392  1.9922  1.1544  0.4916
  496SOL    HW2 1488   2.429   0.336   1.341 -1.3118  1.8773  1.8608
  497SOL     OW 1489   2.908   1.390   2.981 -0.3814 -0.1534 -0.0521
  497SOL    HW1 1490   3.005   1.403   3.013  1.2751  0.9726 -0.6031
  497SOL    HW2 1491   2.866   1.472   2.934  0.9835  0.8504  0.5446
  498SOL     OW 1492   0.031   1.370   1.738 -0.0747 -0.3015 -0.3115
  498SOL    HW1 1493   3.050   1.354   1.667  0.2042 -1.4452  0.7237
  498SOL    HW2 1494   0.036   1.468   1.762 -1.8460  0.8727  0.8372
  499SOL     OW 1495   0.739   2.337   2.624  0.6972  0.2521 -0.4042
  499SOL    HW1 1496   0.684   2.419   2.643  0.8943 -1.0166 -0.3959
  499SOL    HW2 1497   0.723   2.259   2.689  1.4853  1.2993 -1.0677
  500SOL     OW 1498   1.877   0.414   0.013 -0.0901  0.6265  0.2422
  500SOL    HW1 1499   1.981   0.431   3.086  3.4275 -0.2478  0.5087
  500SOL    HW2 1500   1.845   0.329   3.043 -0.6242 -3.8551  1.6321
  501SOL     OW 1501   1.136   0.053   2.048 -0.6694 -0.1315 -0.1586
  501SOL    HW1 1502   1.216   0.092   2.098  1.9069 -0.7898  2.8633
  501SOL    HW2 1503   1.154   0.007   1.956  0.7588 -0.6224 -2.0526
  502SOL     OW 1504   2.592   0.558   1.737 -0.1654 -0.2730 -0.0643
  502SOL    HW1 1505   2.646   0.541   1.652  1.1185 -0.5383  1.8752
  502SOL    HW2 1506   2.494   0.576   1.707  0.4801  2.2661 -2.5908
  503SOL     OW 1507   2.237   1.859   2.112 -0.1114 -0.0456  0.5962
  503SOL    HW1 1508   2.270   1.956   2.140  2.3600  5.6304  2.4050
  503SOL    HW2 1509   2.167   1.859   2.033 -2.6882  1.9844 -2.6184
  504SOL     OW 1510   1.429   0.827   1.414  0.1279 -0.5517 -0.2420
  504SOL    HW1 1511   1.333   0.860   1.433  0.3727 -2.3690  0.3483
  504SOL    HW2 1512   1.457   0.736   1.457  3.0634 -0.7626  2.6613
  505SOL     OW 1513   0.804   0.872   1.856  0.5318 -0.0795 -0.2508
  505SOL    HW1 1514   0.856   0.915   1.932 -0.2573  2.3157 -0.5700
  505SOL    HW2 1515   0.838   0.778   1.836  0.5818 -2.1491  0.2339
  506SOL     OW 1516   0.483   0.323   2.526 -0.1256 -0.4729 -0.2933
  506SOL    HW1 1517   0.507   0.232   2.562 -3.9679  3.0504  1.6285
  506SOL    HW2 1518   0.570   0.372   2.499  3.0443  1.2302 -1.5049
  507SOL     OW 1519   0.135   0.072   0.153 -0.0438  0.1319  0.1631
  507SOL    HW1 1520   0.144   0.129   0.237 -0.8249 -3.3486  1.8616
  507SOL    HW2 1521   0.042   0.027   0.158 -0.3925  1.3857  1.4760
  508SOL     OW 1522   1.088   1.188   1.563  0.0164  0.0239 -0.0114
  508SOL    HW1 1523   0.988   1.194   1.571  1.4429 -2.8614 -0.5778
  508SOL    HW2 1524   1.135   1.184   1.653 -0.4734  0.2201 -0.2795
  509SOL     OW 1525   1.404   2.223   1.451  0.6036  0.6818 -0.2321
  509SOL    HW1 1526   1.478   2.162   1.415 -2.0767 -0.1245 -1.1508
  509SOL    HW2 1527   1.314   2.188   1.423  1.4552  0.1715  1.1106
  510SOL     OW 1528   2.590   1.259   1.867  0.0601  0.3883 -0.7041
  510SOL    HW1 1529   2.648   1.315   1.800  2.0909  2.2529  1.1860
  510SOL    HW2 1530   2.588   1.295   1.967 -1.1572 -0.8419  1.2451
  511SOL     OW 1531   0.967   2.286   1.494 -0.0387  0.1501 -0.0776
  511SOL    HW1 1532   0.945   2.384   1.471  1.5625 -0.5034 -0.6884
  511SOL    HW2 1533   0.879   2.237   1.505  1.5508  0.5413  1.7215
  512SOL     OW 1534   2.752   1.720   0.932 -0.3745 -0.0850  0.1619
  512SOL    HW1 1535   2.759   1.668   0.846 -3.0483  1.6891 -0.2341
  512SOL    HW2 1536   2.808   1.804   0.928 -1.7926 -2.5586  2.1541
  513SOL     OW 1537   0.125   1.399   2.796 -0.6743 -0.3355  0.4519
  513SOL    HW1 1538   0.177   1.491   2.804  1.5572  2.3443 -0.0831
  513SOL    HW2 1539   0.107   1.345   2.884 -0.2872 -0.4621 -0.0617
  514SOL     OW 1540   2.845   2.364   2.539  0.1675 -0.2534  0.2807
  514SOL    HW1 1541   2.913   2.291   2.509 -1.2690  1.5983  0.0256
  514SOL    HW2 1542   2.863   2.461   2.518 -0.0601  1.7567  0.0992
  515SOL     OW 1543   2.212   1.039   0.863 -0.1125 -0.0797  0.2785
  515SOL    HW1 1544   2.129   1.020   0.924 -1.8277  0.6925  2.4616
  515SOL    HW2 1545   2.215   1.137   0.831  0.3448 -1.1185  0.8506
  516SOL     OW 1546   2.106   1.897   0.289  0.4174  0.0242  0.7703
  516SOL    HW1 1547   2.139   1.907   0.382 -2.7846 -3.9584 -3.6504
  516SOL    HW2 1548   2.056   1.811   0.286 -0.6014  2.4563  0.1370
  517SOL     OW 1549   0.795   1.027   0.118  0.6405 -0.5133  0.1079
  517SOL    HW1 1550   0.776   1.076   0.031  0.0310  1.6185  0.9943
  517SOL    HW2 1551   0.884   1.049   0.161 -0.3466 -3.4476  3.5625
  518SOL     OW 1552   2.724   3.008   2.071  0.0135  0.3030  0.5894
  518SOL    HW1 1553   2.814   2.967   2.089 -1.8426  1.1137 -2.1912
  518SOL    HW2 1554   2.666   2.936   2.029 -0.3755 -2.5530  1.1601
  519SOL     OW 1555   1.488   1.551   2.699 -0.0660 -0.0907 -0.0580
  519SOL    HW1 1556   1.525   1.551   2.795  0.9103  0.2501  0.7562
  519SOL    HW2 1557   1.542   1.492   2.642  0.0457 -0.9210  0.2330
  520SOL     OW 1558   2.571   2.877   2.298  0.2523 -0.1459  0.1048
  520SOL    HW1 1559   2.506   2.924   2.242  1.7924 -2.7822  3.8026
  520SOL    HW2 1560   2.601   2.792   2.250 -1.8033  1.3608 -3.1696
  521SOL     OW 1561   0.440   1.579   2.205 -0.2357  0.5953  0.4585
  521SOL    HW1 1562   0.454   1.662   2.147 -4.3241 -1.2443 -1.2447
  521SOL    HW2 1563   0.414   1.492   2.153 -3.5208 -0.2400  0.0867
  522SOL     OW 1564   0.738   2.602   1.784 -0.6229 -0.0480 -0.5348
  522SOL    HW1 1565   0.690   2.603   1.693  0.2479 -0.5000  0.0473
  522SOL    HW2 1566   0.776   2.695   1.799 -0.1076  1.2818 -0.1647
  523SOL     OW 1567   2.942   2.357   1.493 -0.0101 -0.4836 -0.1974
  523SOL    HW1 1568   2.947   2.287   1.568 -0.7928 -2.9307 -2.2993
  523SOL    HW2 1569   2.846   2.361   1.463  3.2037 -2.9925  3.2091
  524SOL     OW 1570   1.378   2.336   0.701 -0.6901 -0.1668  0.2364
  524SOL    HW1 1571   1.338   2.312   0.611 -0.9114  0.2592  0.0534
  524SOL    HW2 1572   1.306   2.322   0.773  1.0517 -0.5997 -1.3850
  525SOL     OW 1573   2.725   0.985   0.805 -0.0886  0.1376 -0.1731
  525SOL    HW1 1574   2.773   1.063   0.767 -0.2554  0.1145 -0.8792
  525SOL    HW2 1575   2.639   1.006   0.855  1.3188  2.0036  1.3008
  526SOL     OW 1576   0.917   2.517   0.825  0.0117  0.6839  0.4463
  526SOL    HW1 1577   0.929   2.568   0.737  0.0907  0.9601 -0.3849
  526SOL    HW2 1578   0.926   2.415   0.809 -2.6281 -0.5056  0.6923
  527SOL     OW 1579   2.087   2.188   0.737  0.1108  0.2791  0.8230
  527SOL    HW1 1580   2.040   2.251   0.675 -0.4915 -0.1720  2.1307
  527SOL    HW2 1581   2.171   2.228   0.781 -0.8983  0.5265  0.7141
  528SOL     OW 1582   2.254   0.177   0.044 -0.6603  0.1544  0.4167
  528SOL    HW1 1583   2.203   0.205   3.044  0.3700  3.4969 -2.7814
  528SOL    HW2 1584   2.223   0.082   0.073 -3.3051  0.1742 -1.0539
  529SOL     OW 1585   1.350   1.546   2.218 -0.1288  1.0253  0.1115
  529SOL    HW1 1586   1.443   1.504   2.228  2.7278 -1.2262  2.7788
  529SOL    HW2 1587   1.330   1.591   2.307  0.7773  1.6656  1.5917
  530SOL     OW 1588   2.392   1.094   2.279 -0.2068 -0.0338 -0.7665
  530SOL    HW1 1589   2.472   1.057   2.230 -0.5529  0.8367  2.2107
  530SOL    HW2 1590   2.422   1.186   2.316 -0.0122  2.6978  1.4326
  531SOL     OW 1591   0.871   0.736   0.035 -0.0510 -0.1516 -0.2249
  531SOL    HW1 1592   0.831   0.820   0.082  0.0743 -0.6310 -3.7525
  531SOL    HW2 1593   0.854   0.655   0.093  2.0530  2.2616 -0.6784
  532SOL     OW 1594   1.689   1.423   0.538 -0.3025  0.1198  0.0797
  532SOL    HW1 1595   1.789   1.396   0.526 -0.3932  1.1432 -1.4051
  532SOL    HW2 1596   1.684   1.448   0.634  0.1740 -3.3456  0.2217
  533SOL     OW 1597   0.226   0.691   2.082 -0.0912 -0.2990  0.0639
  533SOL    HW1 1598   0.252   0.746   1.997  1.1842 -0.2150 -0.2910
  533SOL    HW2 1599   0.309   0.665   2.143 -0.2649 -1.4269  3.3975
  534SOL     OW 1600   1.389   0.271   2.556 -0.2766 -0.0248 -0.4921
  534SOL    HW1 1601   1.326   0.309   2.627 -0.6356  0.6824  0.4227
  534SOL    HW2 1602   1.376   0.172   2.551 -2.4563 -0.1433 -2.4317
  535SOL     OW 1603   0.673   0.472   0.540 -0.4254 -0.1963 -0.0275
  535SOL    HW1 1604   0.575   0.457   0.517  1.6965 -2.6786  1.2752
  535SOL    HW2 1605   0.703   0.416   0.617  1.3067  1.9165  2.1320
  536SOL     OW 1606   0.885   0.422   0.023 -0.3446  0.5083 -0.0449
  536SOL    HW1 1607   0.942   0.469   3.042 -1.7436 -1.2477 -0.1737
  536SOL    HW2 1608   0.923   0.334   0.061  1.8077 -0.5250  3.9991
  537SOL     OW 1609   1.189   2.965   1.837 -0.0372 -0.2470 -0.3898
  537SOL    HW1 1610   1.122   2.891   1.856 -1.1047  0.3185  0.0838
  537SOL    HW2 1611   1.283   2.931   1.827 -0.9626  0.3948  1.2571
  538SOL     OW 1612   0.364   0.008   0.014 -0.1270  0.4294 -0.0751
  538SOL    HW1 1613   0.271   0.003   0.056  0.5667 -2.5450  1.8651
  538SOL    HW2 1614   0.405   0.087   0.063 -0.7492 -1.0515 -1.1813
  539SOL     OW 1615   2.714   1.014   1.829 -0.0856  0.0386 -0.1837
  539SOL    HW1 1616   2.643   0.942   1.845 -2.9874  1.8480  1.3886
  539SOL    HW2 1617   2.679   1.104   1.862 -0.3268 -0.8116 -0.2301
  540SOL     OW 1618   2.238   2.090   1.743 -0.1713  0.0223 -0.2071
  540SOL    HW1 1619   2.275   2.165   1.684 -0.4622 -1.9753  0.3813
  540SOL    HW2 1620   2.317   2.046   1.797  1.0177 -0.5940  0.5137
  541SOL     OW 1621   0.364   2.652   1.497  0.3889  0.1866 -0.0997
  541SOL    HW1 1622   0.338   2.748   1.522 -0.2861 -0.6073  0.4839
  541SOL    HW2 1623   0.287   2.588   1.524  2.1102 -0.1928  0.6534
  542SOL     OW 1624   2.733   0.421   1.904 -0.2463  0.4165  0.3123
  542SOL    HW1 1625   2.666   0.463   1.840 -0.6743 -0.4220 -3.0602
  542SOL    HW2 1626   2.713   0.322   1.920 -0.3235  0.8644 -1.0734
  543SOL     OW 1627   1.172   0.588   0.871  0.3154  0.2210 -0.3702
  543SOL    HW1 1628   1.239   0.654   0.833 -1.9764  0.6662  1.2502
  543SOL    HW2 1629   1.129   0.629   0.956 -0.1084 -0.9226  1.1726
  544SOL     OW 1630   2.268   2.096   1.270 -0.2738 -0.2530  0.7593
  544SOL    HW1 1631   2.292   2.026   1.201  1.2085 -2.6514  0.7281
  544SOL    HW2 1632   2.294   2.189   1.232  0.5629 -0.0171 -2.0753
  545SOL     OW 1633   1.573   1.503   1.170 -0.8887  0.1644  0.4762
  545SOL    HW1 1634   1.605   1.419   1.124 -0.7606  0.8376  0.8351
  545SOL    HW2 1635   1.656   1.557   1.202 -0.2629  0.1807 -2.3722
  546SOL     OW 1636   2.971   0.129   2.661 -0.4159  0.1889  0.1642
  546SOL    HW1 1637   2.909   0.140   2.741  2.9433  1.4569  2.9030
  546SOL    HW2 1638   2.961   0.036   2.617 -0.2407  1.2244 -1.1068
  547SOL     OW 1639   2.325   0.290   2.756  0.1927 -0.0910  0.4235
  547SOL    HW1 1640   2.250   0.259   2.818 -2.8034 -3.0299  2.2497
  547SOL    HW2 1641   2.300   0.383   2.723 -0.5141  0.4217 -0.9413
  548SOL     OW 1642   2.715   1.796   2.526  0.2755 -0.2152 -0.1402
  548SOL    HW1 1643   2.750   1.702   2.510  0.3196 -2.8048  0.5840
  548SOL    HW2 1644   2.732   1.818   2.626  0.3268 -1.0795 -0.7135
  549SOL     OW 1645   2.415   0.486   0.572  0.3916  0.2161 -0.3344
  549SOL    HW1 1646   2.513   0.497   0.594 -0.2558  1.1926 -1.1598
  549SOL    HW2 1647   2.418   0.460   0.474  1.7493  0.8608 -1.3263
  550SOL     OW 1648   2.737   1.319   0.083 -0.0225 -0.2060  0.0051
  550SOL    HW1 1649   2.814   1.343   0.020  1.5859  0.5482 -1.4149
  550SOL    HW2 1650   2.648   1.343   0.041  1.1879  1.9931  0.5043
  551SOL     OW 1651   1.287   2.795   1.478 -0.3865 -0.6935 -0.7309
  551SOL    HW1 1652   1.246   2.813   1.386  1.4058 -1.0788 -0.7577
  551SOL    HW2 1653   1.265   2.702   1.502  0.3961  1.8708  2.2001
  552SOL     OW 1654   2.712   2.456   2.976 -0.5193 -0.1447  0.0616
  552SOL    HW1 1655   2.672   2.460   2.883  1.1031  1.7280  1.3694
  552SOL    HW2 1656   2.658   2.394   3.041 -0.3609 -0.8543 -1.3276
  553SOL     OW 1657   0.705   2.983   0.716  0.3668  0.3256 -0.3354
  553SOL    HW1 1658   0.665   3.048   0.785 -0.5114  2.9982 -1.5351
  553SOL    HW2 1659   0.784   3.022   0.678 -3.3268 -1.6800 -0.4470
  554SOL     OW 1660   1.666   1.839   1.943 -0.2547 -0.0629 -0.0999
  554SOL    HW1 1661   1.583   1.801   1.992 -2.2404 -0.3940  0.5224
  554SOL    HW2 1662   1.722   1.764   1.895  1.4909  0.3261 -3.7304
  555SOL     OW 1663   1.473   2.489   2.125 -0.0817  0.5653  0.2353
  555SOL    HW1 1664   1.423   2.497   2.035 -0.5710  1.0109 -2.0152
  555SOL    HW2 1665   1.536   2.413   2.132 -0.5036  0.3219 -0.1815
  556SOL     OW 1666   1.950   1.350   0.502  0.0693 -0.0985  0.4529
  556SOL    HW1 1667   1.971   1.288   0.426 -1.6385  1.9773  1.2002
  556SOL    HW2 1668   2.019   1.425   0.510  0.7523 -2.9335 -1.6169
  557SOL     OW 1669   1.169   2.131   2.130  0.5134  0.3565  0.2834
  557SOL    HW1 1670   1.123   2.218   2.167  3.4397  1.0632 -3.2390
  557SOL    HW2 1671   1.144   2.113   2.036 -0.6477  3.7133  0.3077
  558SOL     OW 1672   2.986   0.917   2.367  0.1668 -0.2177  0.3172
  558SOL    HW1 1673   2.930   0.949   2.442  1.9082 -3.3685  0.0414
  558SOL    HW2 1674   2.934   0.855   2.303 -1.2655  0.7958 -1.8455
  559SOL     OW 1675   2.211   2.621   2.087  0.3536  0.2835 -0.0473
  559SOL    HW1 1676   2.143   2.556   2.047  0.4604  0.7993 -2.6408
  559SOL    HW2 1677   2.173   2.660   2.177  0.2659 -1.3886  0.1812
  560SOL     OW 1678   0.150   3.038   2.674  0.4982 -0.4691 -0.0990
  560SOL    HW1 1679   0.058   3.025   2.631  1.8773  0.2610  1.7179
  560SOL    HW2 1680   0.204   0.015   2.620  0.2233 -0.3039  1.5644
  561SOL     OW 1681   1.966   1.064   0.413 -0.3514 -0.5149  0.6175
  561SOL    HW1 1682   1.937   0.963   0.408 -2.3355 -2.1418 -0.2933
  561SOL    HW2 1683   2.061   1.085   0.449  5.1113 -1.6886  1.3368
  562SOL     OW 1684   0.789   1.074   2.194  0.0941  0.3000 -0.2092
  562SOL    HW1 1685   0.716   1.006   2.227  0.6110  1.7044  3.2548
  562SOL    HW2 1686   0.824   1.137   2.271  0.8656  1.8723 -0.5158
  563SOL     OW 1687   1.507   2.064   0.241 -0.0831  0.5570 -0.5062
  563SOL    HW1 1688   1.499   2.041   0.343 -1.6053 -2.2502 -0.2822
  563SOL    HW2 1689   1.440   2.005   0.200  1.7282  2.4090 -0.5873
  564SOL     OW 1690   0.487   1.945   0.697  0.0335 -0.5136 -0.1642
  564SOL    HW1 1691   0.578   1.978   0.676 -0.7051 -0.3756  1.4237
  564SOL    HW2 1692   0.486   1.851   0.727 -0.6101  0.2472 -1.1863
  565SOL     OW 1693   0.803   2.988   0.027 -0.2535  0.4552 -0.2321
  565SOL    HW1 1694   0.790   2.895   3.083  1.9297  0.7692 -0.5984
  565SOL    HW2 1695   0.832   3.042   3.035 -1.5305 -0.3389  2.9635
  566SOL     OW 1696   1.874   2.562   2.976  0.2474  0.5009  0.1776
  566SOL    HW1 1697   1.848   2.487   2.906 -0.6137 -1.1335 -1.9561
  566SOL    HW2 1698   1.808   2.554   3.053 -1.2317  0.1959  1.4810
  567SOL     OW 1699   2.447   1.716   0.811 -0.8148  0.1065 -0.3929
  567SOL    HW1 1700   2.536   1.742   0.852 -1.9101  0.9885 -0.7101
  567SOL    HW2 1701   2.424   1.618   0.835 -0.4862 -0.0429 -1.7970
  568SOL     OW 1702   1.743   0.898   2.492  0.2133 -0.4626 -0.6833
  568SOL    HW1 1703   1.665   0.870   2.433  0.6093 -0.1800 -1.2184
  568SOL    HW2 1704   1.764   0.835   2.567 -0.6184 -0.7423  1.8503
  569SOL     OW 1705   2.292   1.510   1.757  0.2320 -0.0218  0.1091
  569SOL    HW1 1706   2.344   1.457   1.688  0.1643  2.1537 -2.4327
  569SOL    HW2 1707   2.304   1.471   1.849 -0.5535  0.1658 -2.5436
  570SOL     OW 1708   2.881   2.436   1.962  0.1704 -0.0211  0.0288
  570SOL    HW1 1709   2.900   2.470   2.058  1.7316  0.0498  0.0954
  570SOL    HW2 1710   2.872   2.516   1.902 -0.6978  0.3448 -0.7491
  571SOL     OW 1711   0.162   0.144   1.437 -0.4205 -0.1343 -0.4217
  571SOL    HW1 1712   0.210   0.169   1.351 -1.2434 -0.0412 -0.9542
  571SOL    HW2 1713   0.113   0.220   1.475  0.0073 -1.2935 -3.6680
  572SOL     OW 1714   0.792   1.863   0.847 -0.2049 -0.9347 -0.1504
  572SOL    HW1 1715   0.732   1.876   0.931 -0.1555 -1.4980  2.1926
  572SOL    HW2 1716   0.780   1.929   0.773  2.3192 -0.2964  0.9857
  573SOL     OW 1717   1.071   0.911   3.067 -0.1393  0.4872 -0.1063
  573SOL    HW1 1718   1.001   0.849   0.012 -1.2859 -1.0429  1.9123
  573SOL    HW2 1719   1.130   0.939   0.064  0.2765 -1.3232  1.9526
  574SOL     OW 1720   0.436   0.142   0.394  0.3924  0.6968 -0.0092
  574SOL    HW1 1721   0.513   0.085   0.432 -0.2125 -1.9206 -0.9264
  574SOL    HW2 1722   0.444   0.156   0.294  0.0837 -0.6760  1.6036
  575SOL     OW 1723   1.007   1.971   1.219  0.3060 -0.2357  0.1848
  575SOL    HW1 1724   0.987   1.941   1.122 -0.2326  3.4477 -0.1336
  575SOL    HW2 1725   1.071   1.904   1.267  0.9445 -0.9565  0.4888
  576SOL     OW 1726   2.881   0.149   2.007  0.0379  0.1991 -0.4729
  576SOL    HW1 1727   2.835   0.065   2.031  3.5986  2.2791  1.6442
  576SOL    HW2 1728   2.938   0.182   2.082 -2.1135  0.2578 -1.2961
  577SOL     OW 1729   2.862   1.523   1.879 -0.9111  0.1151  0.2958
  577SOL    HW1 1730   2.905   1.612   1.886 -4.9199  1.6649 -0.1486
  577SOL    HW2 1731   2.870   1.471   1.963  1.4829  2.8316  1.9326
  578SOL     OW 1732   0.991   2.980   2.365 -0.0192 -0.3977 -0.3397
  578SOL    HW1 1733   1.052   3.062   2.363 -0.0565  0.9442 -0.4531
  578SOL    HW2 1734   1.051   2.898   2.372  3.2219  1.3311  0.7380
  579SOL     OW 1735   2.042   1.817   1.903  0.0662 -0.2090 -0.4105
  579SOL    HW1 1736   2.128   1.801   1.848 -2.6311  0.3871  0.9856
  579SOL    HW2 1737   1.959   1.804   1.845  0.3147  1.4460  2.2333
  580SOL     OW 1738   1.809   1.042   2.039 -0.0093 -0.2952 -0.6670
  580SOL    HW1 1739   1.776   0.959   2.001  3.1918  2.3514  1.2133
  580SOL    HW2 1740   1.853   1.018   2.129  2.2128  1.3188  3.3528
  581SOL     OW 1741   1.257   1.161   2.502  0.0252  0.0581 -0.6658
  581SOL    HW1 1742   1.343   1.133   2.456 -4.0233 -1.6021 -0.5307
  581SOL    HW2 1743   1.227   1.254   2.474  1.6662 -1.5959 -0.7473
  582SOL     OW 1744   0.120   2.028   1.910 -0.3724 -0.4834 -0.2058
  582SOL    HW1 1745   0.196   2.002   1.974 -1.1884  1.1738  0.0631
  582SOL    HW2 1746   0.062   2.101   1.949 -1.9262 -0.6953 -1.1022
  583SOL     OW 1747   1.907   1.212   0.814 -0.0673  0.2645 -0.0065
  583SOL    HW1 1748   1.861   1.151   0.751 -0.2629  0.2903  3.0740
  583SOL    HW2 1749   1.948   1.295   0.773  0.2882 -0.0255 -3.6889
  584SOL     OW 1750   0.790   2.523   0.409 -0.6003  0.0651  0.1932
  584SOL    HW1 1751   0.690   2.531   0.399 -0.0284 -0.7882 -0.9557
  584SOL    HW2 1752   0.833   2.562   0.328 -0.8398  2.5229 -0.6588
  585SOL     OW 1753   0.200   2.558   0.191 -0.0810  0.2675  0.4824
  585SOL    HW1 1754   0.103   2.530   0.167 -2.2385 -1.1547  0.6992
  585SOL    HW2 1755   0.194   2.620   0.274  2.4179  0.9908  0.5311
  586SOL     OW 1756   2.340   1.141   0.322  0.6799 -0.1526  0.3929
  586SOL    HW1 1757   2.324   1.039   0.319 -2.6653 -3.3169 -0.3625
  586SOL    HW2 1758   2.304   1.176   0.410  1.4163 -0.1325 -0.9492
  587SOL     OW 1759   2.914   2.019   0.488  0.0139 -0.1469  0.3510
  587SOL    HW1 1760   2.975   2.069   0.557  1.9457  5.0851  1.1552
  587SOL    HW2 1761   2.862   1.943   0.534 -1.0347 -0.8205  1.8401
  588SOL     OW 1762   0.078   0.695   0.800 -0.2448  0.1635  0.2691
  588SOL    HW1 1763   0.139   0.779   0.794  2.3230  3.9100  0.7046
  588SOL    HW2 1764   3.085   0.724   0.847  1.0886  0.1491 -0.7697
  589SOL     OW 1765   1.499   0.355   0.691 -0.2750 -0.7545  0.0993
  589SOL    HW1 1766   1.459   0.380   0.600 -2.8272  1.8142 -2.5847
  589SOL    HW2 1767   1.436   0.300   0.748 -2.3853 -0.9431  1.8056
  590SOL     OW 1768   2.405   2.363   0.226  0.3225 -0.1881 -0.2875
  590SOL    HW1 1769   2.450   2.316   0.304 -1.3174 -1.0774  0.8740
  590SOL    HW2 1770   2.425   2.461   0.207 -1.8738  0.2800  1.3484
  591SOL     OW 1771   0.177   2.523   2.007 -0.7724  0.1796 -0.1902
  591SOL    HW1 1772   0.125   2.450   1.958  0.3652  0.8454 -2.4672
  591SOL    HW2 1773   0.270   2.537   1.963 -0.3749  2.4945 -1.5217
  592SOL     OW 1774   0.355   1.346   2.064 -0.9183  0.3254 -0.0356
  592SOL    HW1 1775   0.359   1.300   2.155  1.9348 -2.0922 -0.1887
  592SOL    HW2 1776   0.345   1.273   1.995  3.1549  0.6527 -0.3096
  593SOL     OW 1777   1.455   1.647   1.451 -0.1710 -0.3132 -0.1543
  593SOL    HW1 1778   1.440   1.547   1.427  2.2405 -1.7302 -4.3449
  593SOL    HW2 1779   1.399   1.674   1.534 -1.8591  1.7154  0.1667
  594SOL     OW 1780   0.458   0.948   2.885  0.5280 -0.5933  0.1641
  594SOL    HW1 1781   0.493   1.040   2.891 -2.6054 -2.3151 -1.8657
  594SOL    HW2 1782   0.361   0.958   2.870 -0.4793  0.5988  0.5866
  595SOL     OW 1783   1.938   0.362   0.861 -0.0053 -0.8542 -0.8899
  595SOL    HW1 1784   2.004   0.391   0.935 -0.7507  0.5201  1.1807
  595SOL    HW2 1785   1.836   0.362   0.889 -4.3718  0.1792 -2.3088
  596SOL     OW 1786   0.559   1.165   0.964 -0.0948  0.0922  0.1198
  596SOL    HW1 1787   0.647   1.181   1.013 -1.8364  0.5846 -2.0020
  596SOL    HW2 1788   0.500   1.247   0.987 -0.8725 -0.6606  1.1935
  597SOL     OW 1789   2.966   2.512   2.911 -0.4700  0.1450  0.2438
  597SOL    HW1 1790   2.871   2.511   2.940  4.0892  0.6307  0.4012
  597SOL    HW2 1791   2.988   2.604   2.872 -1.4201  1.3274  0.3494
  598SOL     OW 1792   2.281   2.122   2.500 -0.0737 -0.2721  0.5231
  598SOL    HW1 1793   2.216   2.200   2.472  0.5762  0.7584 -3.0671
  598SOL    HW2 1794   2.350   2.157   2.568 -0.3663 -1.3161 -2.1709
  599SOL     OW 1795   1.726   0.737   0.288  0.0848  0.1629 -0.6024
  599SOL    HW1 1796   1.679   0.660   0.344  1.4275 -1.3984 -0.6035
  599SOL    HW2 1797   1.786   0.792   0.344  0.4199  0.0761 -1.8130
  600SOL     OW 1798   0.915   0.171   0.080  1.0528 -0.4186 -0.3317
  600SOL    HW1 1799   0.855   0.156   0.166 -0.7906  1.6983  1.4919
  600SOL    HW2 1800   0.996   0.115   0.078 -0.8607  1.0762  0.2455
  601SOL     OW 1801   0.469   0.175   1.537 -0.0329  0.4833  0.0312
  601SOL    HW1 1802   0.566   0.154   1.515  1.4819  0.7212 -2.3053
  601SOL    HW2 1803   0.436   0.261   1.487 -1.6139 -0.7017  1.7490
  602SOL     OW 1804   0.284   2.829   0.696  0.2307 -0.1904 -0.8515
  602SOL    HW1 1805   0.312   2.810   0.602  2.2109 -1.2428 -0.8850
  602SOL    HW2 1806   0.184   2.818   0.716 -1.2156  0.0493 -0.8261
  603SOL     OW 1807   0.619   2.718   2.417 -0.0520 -0.7317  0.1610
  603SOL    HW1 1808   0.670   2.776   2.347  0.5425  1.0409 -2.3508
  603SOL    HW2 1809   0.527   2.767   2.434 -6.5125  0.8102  0.5376
  604SOL     OW 1810   1.118   2.627   0.158 -0.1763 -0.0369 -0.1881
  604SOL    HW1 1811   1.153   2.556   0.227 -1.5522 -0.2626 -0.0061
  604SOL    HW2 1812   1.195   2.693   0.135 -0.6666  0.1858  0.1689
  605SOL     OW 1813   1.635   0.897   1.629 -0.6712 -0.4975  0.7859
  605SOL    HW1 1814   1.586   0.877   1.541 -1.5126 -1.6688  0.4192
  605SOL    HW2 1815   1.696   0.982   1.632  1.5593  2.1792  0.9120
  606SOL     OW 1816   0.855   0.562   2.332 -0.3129  0.5144 -0.2986
  606SOL    HW1 1817   0.914   0.491   2.290 -1.1686  1.0151  1.6698
  606SOL    HW2 1818   0.907   0.635   2.373 -1.7831 -0.9813 -2.3703
  607SOL     OW 1819   0.418   1.302   1.303 -0.3117  0.2638  0.2095
  607SOL    HW1 1820   0.372   1.233   1.244  2.1276  0.0403  0.4177
  607SOL    HW2 1821   0.402   1.396   1.266  1.1633 -0.1139  2.8023
  608SOL     OW 1822   2.606   2.272   2.398  0.4871 -0.5016  0.1919
  608SOL    HW1 1823   2.696   2.300   2.436 -0.5760  0.4250 -1.8541
  608SOL    HW2 1824   2.611   2.169   2.380  0.7883  0.6572  0.4623
  609SOL     OW 1825   2.137   3.023   0.111  0.7285 -0.2688  0.3126
  609SOL    HW1 1826   2.044   3.024   0.150  1.8213 -2.0280  0.4525
  609SOL    HW2 1827   2.207   2.997   0.180  1.3061  1.7745  1.7839
  610SOL     OW 1828   0.627   2.847   1.465 -0.0989 -0.1152  0.1988
  610SOL    HW1 1829   0.631   2.751   1.449  1.2497  1.6297 -0.5735
  610SOL    HW2 1830   0.675   2.909   1.398 -0.4641 -0.4011  1.7517
  611SOL     OW 1831   0.876   1.520   0.815  0.2117 -0.5012 -0.0797
  611SOL    HW1 1832   0.807   1.486   0.750 -0.0322 -0.2265 -2.1605
  611SOL    HW2 1833   0.951   1.451   0.840 -0.1953 -0.5405 -0.0127
  612SOL     OW 1834   0.518   3.013   2.362  0.7773  0.0389 -0.0567
  612SOL    HW1 1835   0.526   3.049   2.459  1.2687 -1.5926  3.8181
  612SOL    HW2 1836   0.608   2.988   2.322 -2.5624 -0.6290  1.0286
  613SOL     OW 1837   2.729   1.836   0.592  0.4002  0.7368  0.1415
  613SOL    HW1 1838   2.767   1.760   0.644 -0.9046  3.9244 -2.2588
  613SOL    HW2 1839   2.712   1.806   0.499 -2.3789 -2.4940  2.6819
  614SOL     OW 1840   1.600   0.035   1.661  0.3036  0.2355  0.2832
  614SOL    HW1 1841   1.582   0.128   1.629  1.7757 -3.0886 -0.2902
  614SOL    HW2 1842   1.565   3.048   1.596  3.6949 -3.9508 -1.9464
  615SOL     OW 1843   1.057   1.586   1.261  0.3383  0.3653 -0.0060
  615SOL    HW1 1844   1.093   1.499   1.306  1.9074  0.6360  1.2177
  615SOL    HW2 1845   1.108   1.668   1.289 -0.3900  2.3157 -0.4201
  616SOL     OW 1846   1.593   1.555   2.951  0.1064  0.7663 -0.0923
  616SOL    HW1 1847   1.594   1.453   2.963 -3.7286  0.7975  0.7903
  616SOL    HW2 1848   1.614   1.600   3.037  0.4815 -0.2975 -0.3855
  617SOL     OW 1849   1.715   2.823   0.285  0.0784  0.1026 -0.4754
  617SOL    HW1 1850   1.660   2.869   0.210 -3.2124 -1.4772 -2.0934
  617SOL    HW2 1851   1.678   2.728   0.308 -1.3175 -3.4463  2.0754
  618SOL     OW 1852   1.044   0.600   2.620 -0.2728  0.1025  0.0349
  618SOL    HW1 1853   1.027   0.647   2.710  0.9541  2.1700  0.7981
  618SOL    HW2 1854   1.022   0.664   2.547  0.4082 -1.4251  1.1776
  619SOL     OW 1855   2.535   1.298   0.533  0.2126 -0.1737  0.1788
  619SOL    HW1 1856   2.576   1.223   0.477 -0.6922 -0.6158  0.3098
  619SOL    HW2 1857   2.482   1.362   0.475  0.4285  0.7081 -2.6643
  620SOL     OW 1858   2.324   2.579   3.034 -0.4757  0.7406  0.5423
  620SOL    HW1 1859   2.352   2.607   0.041  0.1755 -0.0642  0.0431
  620SOL    HW2 1860   2.268   2.497   3.036  0.5144  1.0648 -2.7296
  621SOL     OW 1861   2.454   1.331   3.054  0.0741 -0.4333 -0.1554
  621SOL    HW1 1862   2.360   1.290   3.065 -0.8716  0.1005 -3.8448
  621SOL    HW2 1863   2.450   1.429   3.072  0.6150 -1.9607  1.7658
  622SOL     OW 1864   1.333   2.588   2.331 -0.5754 -0.2309  0.1650
  622SOL    HW1 1865   1.327   2.525   2.412  0.6361 -1.0888 -0.7507
  622SOL    HW2 1866   1.395   2.555   2.255 -0.2101  0.3541 -1.4060
  623SOL     OW 1867   0.532   1.767   3.033 -0.4488 -0.5240 -0.2194
  623SOL    HW1 1868   0.562   1.865   3.053 -0.0699  2.2192 -1.4078
  623SOL    HW2 1869   0.433   1.764   3.008  1.6466  1.2732 -0.1136
  624SOL     OW 1870   0.543   0.047   2.616 -0.1023 -0.3237 -0.3665
  624SOL    HW1 1871   0.500   0.051   2.707  1.5193  0.8516  0.2003
  624SOL    HW2 1872   0.640   0.040   2.628 -1.3622  0.5985 -0.1511
  625SOL     OW 1873   0.955   1.867   0.500 -0.3469  0.2831  0.6090
  625SOL    HW1 1874   0.925   1.867   0.403 -1.4755  3.9686  0.5143
  625SOL    HW2 1875   1.059   1.865   0.500 -0.6728  0.9645  1.0257
  626SOL     OW 1876   2.552   0.052   2.981  0.0517  0.3152 -0.0352
  626SOL    HW1 1877   2.515   0.055   2.884  0.8260 -2.9757 -0.2333
  626SOL    HW2 1878   2.609   0.135   3.008  0.3470  0.1007  2.3302
  627SOL     OW 1879   1.542   1.123   2.466 -0.2717  0.6605  0.4965
  627SOL    HW1 1880   1.629   1.092   2.425 -0.7591  1.0337  1.1034
  627SOL    HW2 1881   1.549   1.128   2.570  2.2737  1.9650  1.6263
  628SOL     OW 1882   0.412   0.608   2.267 -0.0890 -0.3982 -0.1071
  628SOL    HW1 1883   0.377   0.676   2.334  0.1084 -0.4268  0.2358
  628SOL    HW2 1884   0.511   0.627   2.235 -0.3704 -1.2596  1.6056
  629SOL     OW 1885   0.142   2.744   1.828  0.3011  0.2101 -0.2277
  629SOL    HW1 1886   0.171   2.687   1.906  0.9685 -1.9591  1.0532
  629SOL    HW2 1887   0.196   2.831   1.831  2.5919 -1.1703  1.5247
  630SOL     OW 1888   1.748   0.707   1.769  0.2790  0.1325 -0.2503
  630SOL    HW1 1889   1.759   0.630   1.703 -0.9048  2.1929 -0.2665
  630SOL    HW2 1890   1.718   0.789   1.719  0.2248 -1.0818  0.8139
  631SOL     OW 1891   2.277   1.145   0.063  0.1486  0.3371  0.2005
  631SOL    HW1 1892   2.320   1.060   0.026  0.9556  2.1238  0.6020
  631SOL    HW2 1893   2.310   1.164   0.156  0.4987  3.7652 -1.6433
  632SOL     OW 1894   1.974   0.190   2.028 -0.2324  0.0569  0.1040
  632SOL    HW1 1895   1.986   0.090   2.013  0.3939  0.0794  1.0307
  632SOL    HW2 1896   2.037   0.236   1.961 -0.3419  0.8659  0.8968
  633SOL     OW 1897   0.870   2.710   0.223 -0.4815 -0.2724 -0.1794
  633SOL    HW1 1898   0.811   2.709   0.145  1.1297  1.0782  1.0678
  633SOL    HW2 1899   0.965   2.678   0.195  0.0257 -0.8952  1.4234
  634SOL     OW 1900   1.368   2.612   2.705 -0.9030 -0.2377  0.4951
  634SOL    HW1 1901   1.362   2.537   2.634 -0.1159 -1.5758  1.5013
  634SOL    HW2 1902   1.450   2.601   2.758 -2.1357 -1.1148 -0.7145
  635SOL     OW 1903   2.469   0.341   0.089 -0.0010 -0.0063 -0.7718
  635SOL    HW1 1904   2.539   0.325   0.017 -1.1550 -0.8906  1.3382
  635SOL    HW2 1905   2.393   0.276   0.092 -0.6608 -0.2904  1.9900
  636SOL     OW 1906   0.777   1.574   1.065  0.1764  0.3770 -0.2512
  636SOL    HW1 1907   0.849   1.615   1.125  0.9646 -0.3564 -1.4741
  636SOL    HW2 1908   0.806   1.576   0.969 -2.8515  1.1156 -1.8269
  637SOL     OW 1909   0.175   2.715   0.439  0.0733 -0.1283  0.3078
  637SOL    HW1 1910   0.117   2.644   0.485 -0.4982 -2.8841  0.9171
  637SOL    HW2 1911   0.140   2.811   0.444  2.6659  3.9902 -1.0798
  638SOL     OW 1912   0.610   3.038   0.471 -0.3462  0.4216  0.4401
  638SOL    HW1 1913   0.625   3.029   0.570 -2.3235 -0.3899  1.9718
  638SOL    HW2 1914   0.539   2.978   0.428 -0.7624  1.4716  1.3496
  639SOL     OW 1915   1.267   1.358   0.391 -0.0448 -0.5086  0.6129
  639SOL    HW1 1916   1.306   1.320   0.304 -1.2184  0.2257  0.0053
  639SOL    HW2 1917   1.248   1.456   0.391  0.0398 -0.8628 -0.0409
  640SOL     OW 1918   1.208   2.643   1.124  0.6898 -0.4331  0.1275
  640SOL    HW1 1919   1.172   2.561   1.171  2.1002 -2.5267 -1.5096
  640SOL    HW2 1920   1.279   2.626   1.050  2.2626  0.6267 -0.4600
  641SOL     OW 1921   3.054   2.556   0.569 -0.3634  0.2910 -0.1360
  641SOL    HW1 1922   3.056   2.493   0.649 -2.3791  0.0490  2.0029
  641SOL    HW2 1923   2.971   2.548   0.512 -1.9836  1.8632 -0.1097
  642SOL     OW 1924   1.056   0.191   1.731  0.6092 -0.7799  0.0386
  642SOL    HW1 1925   0.961   0.167   1.753  0.5014  0.9900 -1.5659
  642SOL    HW2 1926   1.094   0.118   1.669 -1.5615  2.6547 -0.7510
  643SOL     OW 1927   0.666   1.683   2.317 -0.3048 -0.0827  0.3789
  643SOL    HW1 1928   0.577   1.653   2.297  2.9718  1.4062  0.7886
  643SOL    HW2 1929   0.660   1.778   2.350  1.7611 -0.8998  0.8057
  644SOL     OW 1930   1.017   2.878   0.406 -0.2311  0.2032  0.1577
  644SOL    HW1 1931   0.946   2.830   0.351  0.5063  0.5075  0.8335
  644SOL    HW2 1932   0.980   2.938   0.481 -0.0810  0.7595  2.6001
  645SOL     OW 1933   1.255   1.552   2.829 -0.3132  0.2734  0.5091
  645SOL    HW1 1934   1.223   1.646   2.846 -0.7090 -1.0974 -1.0008
  645SOL    HW2 1935   1.348   1.547   2.784 -0.1055 -1.0635  2.8779
  646SOL     OW 1936   0.553   1.469   0.173  0.4975  0.2449  0.6059
  646SOL    HW1 1937   0.564   1.413   0.251 -2.2320  1.9433 -1.2723
  646SOL    HW2 1938   0.551   1.571   0.196  0.6353 -0.7909  1.0587
  647SOL     OW 1939   1.155   0.070   0.902 -0.2211  0.1069 -0.5029
  647SOL    HW1 1940   1.209   0.052   0.990  0.9242 -0.7287  1.9965
  647SOL    HW2 1941   1.118   3.075   0.864  1.9691  2.7058  0.0099
  648SOL     OW 1942   2.762   2.682   1.857  0.0746  0.9805  0.1111
  648SOL    HW1 1943   2.683   2.748   1.855 -0.5504  0.9051  1.4687
  648SOL    HW2 1944   2.849   2.731   1.836 -0.4760 -0.7101  0.7057
  649SOL     OW 1945   0.489   2.232   3.079  0.0936  0.1360 -0.5564
  649SOL    HW1 1946   0.482   2.265   2.979 -1.5910 -1.2589 -1.3675
  649SOL    HW2 1947   0.487   2.315   0.054  0.0042  3.1083  0.9913
  650SOL     OW 1948   0.296   2.070   1.609  0.1669 -0.1177  0.7920
  650SOL    HW1 1949   0.325   1.987   1.662 -3.0938  1.3574 -1.0412
  650SOL    HW2 1950   0.243   2.046   1.525 -2.3153 -0.0788 -3.2280
  651SOL     OW 1951   0.464   0.138   2.880 -0.4898 -0.3396 -0.6789
  651SOL    HW1 1952   0.455   0.234   2.917 -0.3796 -0.3262 -0.8642
  651SOL    HW2 1953   0.410   0.079   2.941  2.4505  2.4042  0.0627
  652SOL     OW 1954   2.544   1.748   0.391  0.3499 -0.1646 -0.1013
  652SOL    HW1 1955   2.458   1.753   0.438  0.9265 -1.3896 -0.3749
  652SOL    HW2 1956   2.565   1.653   0.359 -0.6490 -2.7701 -2.6470
  653SOL     OW 1957   0.027   0.069   1.008  0.4391 -0.2617 -0.2377
  653SOL    HW1 1958   0.075   0.139   1.059  0.8400 -3.7835 -1.0209
  653SOL    HW2 1959   0.052   0.069   0.906 -1.2749 -1.6916  0.0796
  654SOL     OW 1960   1.643   3.086   2.675  0.1062  0.6688  0.2083
  654SOL    HW1 1961   1.554   0.047   2.670 -0.0801 -2.3349  0.2061
  654SOL    HW2 1962   1.717   0.058   2.631  0.3059  1.5015 -0.8379
  655SOL     OW 1963   0.824   2.670   1.211  0.7345 -0.3551 -0.3934
  655SOL    HW1 1964   0.740   2.723   1.185  1.5325  0.1708 -1.2302
  655SOL    HW2 1965   0.833   2.580   1.164 -2.0629  0.3361  0.8720
  656SOL     OW 1966   0.389   2.754   2.065  0.0317  0.3096  0.1556
  656SOL    HW1 1967   0.352   2.805   1.988  0.7422 -1.1620  2.2191
  656SOL    HW2 1968   0.461   2.689   2.035 -2.2102 -1.2573  1.8702
  657SOL     OW 1969   2.016   0.782   1.849 -0.4754  0.1089 -0.1428
  657SOL    HW1 1970   2.054   0.716   1.915 -0.5584  2.8520  1.1333
  657SOL    HW2 1971   1.925   0.749   1.820  0.7008  0.6110 -1.1320
  658SOL     OW 1972   2.566   1.888   1.103 -0.2162 -0.1355  0.3887
  658SOL    HW1 1973   2.547   1.892   1.200  1.3249  2.0478 -0.8799
  658SOL    HW2 1974   2.621   1.803   1.086 -0.4193 -2.0472  1.3229
  659SOL     OW 1975   2.476   2.614   0.165  0.0254 -0.2215  0.7017
  659SOL    HW1 1976   2.547   2.678   0.123  0.9647 -0.0301 -0.8663
  659SOL    HW2 1977   2.444   2.649   0.259 -0.3489 -0.3790  1.1904
  660SOL     OW 1978   0.927   1.210   2.683  0.6428  0.3962  0.2690
  660SOL    HW1 1979   0.982   1.289   2.655 -3.5394 -0.3456  0.4279
  660SOL    HW2 1980   0.978   1.146   2.737 -0.2677  3.2868 -1.9196
  661SOL     OW 1981   2.288   2.342   1.172 -0.0251  0.3768  0.4160
  661SOL    HW1 1982   2.247   2.429   1.196  1.1381 -1.0257 -2.3598
  661SOL    HW2 1983   2.301   2.325   1.074 -2.0609 -4.2318  3.2688
  662SOL     OW 1984   0.570   0.739   0.266 -0.3159 -0.3156  0.5264
  662SOL    HW1 1985   0.505   0.672   0.318 -2.1606  0.9830  1.5031
  662SOL    HW2 1986   0.533   0.754   0.174 -0.9466  1.6467 -0.2184
  663SOL     OW 1987   1.139   2.192   2.922 -0.0281 -0.7799 -0.2235
  663SOL    HW1 1988   1.108   2.279   2.965  1.3054 -0.0838  1.2970
  663SOL    HW2 1989   1.220   2.204   2.866 -0.5180  1.2876  0.8946
  664SOL     OW 1990   0.734   0.040   1.535  0.1882  0.4399 -0.4486
  664SOL    HW1 1991   0.790   3.047   1.504 -0.1279  1.8624 -1.0239
  664SOL    HW2 1992   0.773   0.084   1.620  1.4645  4.1644  1.2853
  665SOL     OW 1993   1.810   1.648   1.836  0.3562  0.3395  0.5085
  665SOL    HW1 1994   1.721   1.599   1.808 -0.5398 -1.0252 -1.4150
  665SOL    HW2 1995   1.881   1.580   1.859 -1.5134  1.8926 -0.1709
  666SOL     OW 1996   0.391   2.904   0.350 -0.2504  0.0321  0.1529
  666SOL    HW1 1997   0.295   2.936   0.365 -2.4026 -3.2460  1.3366
  666SOL    HW2 1998   0.396   2.875   0.254  0.0699  1.8495 -2.3968
  667SOL     OW 1999   1.841   1.601   1.506 -0.0346 -0.1931 -0.0877
  667SOL    HW1 2000   1.923   1.605   1.562 -1.7553  0.6845 -1.7669
  667SOL    HW2 2001   1.784   1.517   1.524 -1.0567 -2.1545  0.5106
  668SOL     OW 2002   0.287   0.346   2.231  0.1650  0.4605  0.2102
  668SOL    HW1 2003   0.337   0.434   2.244  1.6306 -0.1408 -2.6364
  668SOL    HW2 2004   0.358   0.273   2.221  0.2045  1.1441 -0.6863
  669SOL     OW 2005   1.812   2.073   2.205 -0.5846  0.7157 -0.3143
  669SOL    HW1 2006   1.902   2.107   2.171 -1.4649  0.7686  0.4262
  669SOL    HW2 2007   1.798   2.112   2.298  1.1164  2.3505 -1.9750
  670SOL     OW 2008   2.396   2.091   0.531 -0.2866 -0.1905 -0.1515
  670SOL    HW1 2009   2.472   2.069   0.602  1.4755  0.4603  2.7190
  670SOL    HW2 2010   2.314   2.045   0.567  3.2935 -0.2036  1.2727
  671SOL     OW 2011   0.697   1.350   1.380 -0.0124  0.7755  0.1950
  671SOL    HW1 2012   0.750   1.339   1.294 -0.7225 -1.4347 -0.4087
  671SOL    HW2 2013   0.602   1.354   1.363  0.1499 -0.0611  1.3256
  672SOL     OW 2014   2.645   1.325   2.142 -0.0590 -0.5120  0.2476
  672SOL    HW1 2015   2.598   1.367   2.220  0.7394  1.5905 -0.0070
  672SOL    HW2 2016   2.740   1.367   2.127  0.5507  1.2674 -0.3823
  673SOL     OW 2017   3.017   1.677   2.216  0.4237  0.1949 -0.3245
  673SOL    HW1 2018   2.912   1.667   2.225 -2.7497  0.1410 -0.7992
  673SOL    HW2 2019   3.069   1.689   2.304  0.8453 -1.8179  1.3695
  674SOL     OW 2020   0.910   2.619   2.210  0.4151  0.4129  0.1741
  674SOL    HW1 2021   0.895   2.650   2.305 -0.2964  0.2131  0.7127
  674SOL    HW2 2022   0.832   2.644   2.144  1.3600  1.0795 -1.1139
  675SOL     OW 2023   0.819   0.898   1.490  1.2288  0.2037  0.2453
  675SOL    HW1 2024   0.847   0.812   1.534  1.9730  1.8722 -0.1080
  675SOL    HW2 2025   0.716   0.914   1.503 -0.1271 -0.9191 -0.6812
  676SOL     OW 2026   1.821   1.190   0.214 -0.4227 -0.1766 -0.5698
  676SOL    HW1 2027   1.867   1.123   0.276 -0.6605  0.0686 -0.6057
  676SOL    HW2 2028   1.883   1.265   0.191 -0.6125  0.6469 -0.2216
  677SOL     OW 2029   3.039   1.539   2.619  0.4817  0.3255  0.1766
  677SOL    HW1 2030   2.961   1.561   2.683  0.8173  1.3238 -1.0741
  677SOL    HW2 2031   0.021   1.484   2.675  0.3773 -1.9240  0.2079
  678SOL     OW 2032   2.751   2.646   1.475  0.0380  0.1492 -0.2319
  678SOL    HW1 2033   2.710   2.578   1.543  2.1768 -1.9857 -0.2829
  678SOL    HW2 2034   2.686   2.663   1.404  2.5547  3.4119 -2.0115
  679SOL     OW 2035   2.243   3.036   0.663 -0.0818  0.8055 -0.5619
  679SOL    HW1 2036   2.197   0.035   0.696  0.8768  1.6336  0.3279
  679SOL    HW2 2037   2.330   3.024   0.715 -0.8243 -2.5534 -0.1580
  680SOL     OW 2038   0.084   2.275   2.237 -0.6696 -0.2577  0.0550
  680SOL    HW1 2039   0.171   2.222   2.238 -2.7978 -0.9774 -1.4946
  680SOL    HW2 2040   0.062   2.309   2.143  1.6386 -0.5553  1.4481
  681SOL     OW 2041   0.282   1.604   1.429 -0.6613 -0.3656 -0.0121
  681SOL    HW1 2042   0.294   1.702   1.395 -1.6283  3.1404 -2.6655
  681SOL    HW2 2043   0.329   1.582   1.520  1.8442  0.3747  1.8933
  682SOL     OW 2044   0.295   2.315   1.403 -0.2678 -0.4595 -0.0973
  682SOL    HW1 2045   0.396   2.306   1.407  2.3708  2.1711  1.0269
  682SOL    HW2 2046   0.246   2.241   1.352 -1.7703 -1.0119 -0.3431
  683SOL     OW 2047   0.047   1.714   1.600  0.5634 -0.2939  0.1247
  683SOL    HW1 2048   0.093   1.759   1.677  0.2946 -1.8602 -1.1020
  683SOL    HW2 2049   0.108   1.669   1.535 -1.4272 -1.4921  0.5565
  684SOL     OW 2050   2.889   1.658   0.210  0.3696  0.3317 -0.6077
  684SOL    HW1 2051   2.803   1.620   0.254  3.3091  0.3622  0.3913
  684SOL    HW2 2052   2.973   1.599   0.223  0.3829  0.4400 -0.4684
  685SOL     OW 2053   1.319   0.727   0.409 -0.3035 -0.4201 -0.5646
  685SOL    HW1 2054   1.239   0.698   0.362  2.1171 -0.1693 -0.9188
  685SOL    HW2 2055   1.395   0.740   0.342 -0.5090  0.1394  1.4908
  686SOL     OW 2056   0.317   3.076   1.119 -0.6971 -0.4329  0.3356
  686SOL    HW1 2057   0.340   3.064   1.216 -0.9968  0.0310  0.9115
  686SOL    HW2 2058   0.334   2.998   1.058  0.0991  0.8672 -1.4544
  687SOL     OW 2059   0.946   1.215   2.367  0.0299  0.0501  0.0748
  687SOL    HW1 2060   1.025   1.276   2.338  1.1970 -0.2897 -2.3800
  687SOL    HW2 2061   0.971   1.174   2.454  1.9608  1.9312  0.5871
  688SOL     OW 2062   1.010   1.709   1.806  0.3327  0.0518 -0.0849
  688SOL    HW1 2063   0.940   1.636   1.796 -1.2248 -1.6098  0.0290
  688SOL    HW2 2064   1.039   1.724   1.899 -2.2465 -1.2198 -1.1974
  689SOL     OW 2065   2.122   0.387   1.058 -0.7013 -0.5150  0.2945
  689SOL    HW1 2066   2.171   0.309   1.100 -0.1555  2.6392  0.2376
  689SOL    HW2 2067   2.042   0.408   1.115  0.7119 -1.4197 -0.9295
  690SOL     OW 2068   2.868   1.352   0.830 -0.5426 -0.3883 -0.3601
  690SOL    HW1 2069   2.943   1.425   0.848 -0.0314  0.9405 -2.1183
  690SOL    HW2 2070   2.865   1.283   0.909 -0.9670 -0.2020 -0.9653
  691SOL     OW 2071   0.063   2.475   1.372 -1.1508 -0.0461  0.2210
  691SOL    HW1 2072   0.142   2.423   1.407 -3.5910  1.9857  0.6558
  691SOL    HW2 2073   3.065   2.455   1.427  0.8218  1.8952 -1.1230
  692SOL     OW 2074   1.967   2.959   1.004 -0.7903 -0.1096  0.6473
  692SOL    HW1 2075   2.069   2.950   0.993  0.1154  0.1811 -2.7890
  692SOL    HW2 2076   1.948   2.975   1.105 -1.2561 -0.8657 -0.2219
  693SOL     OW 2077   0.425   1.703   2.612  0.2353 -0.1992  0.1230
  693SOL    HW1 2078   0.517   1.653   2.614  0.0297  1.5198  2.1941
  693SOL    HW2 2079   0.360   1.658   2.552  1.2062 -1.8204  4.0777
  694SOL     OW 2080   1.889   0.942   1.443 -0.1253 -0.3690  0.6707
  694SOL    HW1 2081   1.973   0.886   1.424  2.0242  1.9246 -2.2076
  694SOL    HW2 2082   1.808   0.908   1.386  1.3082  0.5487  1.0057
  695SOL     OW 2083   0.979   0.894   1.280 -0.3438  0.2983  0.6420
  695SOL    HW1 2084   0.912   0.889   1.358 -0.0897  0.0578  2.5304
  695SOL    HW2 2085   1.067   0.917   1.324 -1.7913  0.9173  0.3504
  696SOL     OW 2086   1.559   2.975   0.757 -0.2604  0.0260 -0.0549
  696SOL    HW1 2087   1.648   2.945   0.791  1.3401  3.0166  0.4506
  696SOL    HW2 2088   1.571   3.039   0.679 -0.3204  1.6534  3.2784
  697SOL     OW 2089   1.167   0.489   1.337  0.0037  0.0819 -0.5438
  697SOL    HW1 2090   1.192   0.443   1.422 -1.0505 -1.1246  0.6530
  697SOL    HW2 2091   1.068   0.482   1.326  1.7707  0.9590  1.2029
  698SOL     OW 2092   1.577   1.203   2.111  0.8146  0.1804 -0.3014
  698SOL    HW1 2093   1.664   1.160   2.079 -1.0273  0.1509 -3.1345
  698SOL    HW2 2094   1.590   1.277   2.181  0.3065 -1.3476 -1.9171
  699SOL     OW 2095   1.523   0.744   0.993  0.0739 -0.6581 -0.0342
  699SOL    HW1 2096   1.553   0.804   0.913  1.2084  2.7252 -1.7696
  699SOL    HW2 2097   1.428   0.774   1.019 -1.5207  0.0088 -0.1101
  700SOL     OW 2098   1.241   2.508   0.361  0.5043  0.3664  0.0516
  700SOL    HW1 2099   1.254   2.595   0.412  1.6692  3.8148 -0.8206
  700SOL    HW2 2100   1.300   2.438   0.401  0.3800 -0.1981 -1.5464
  701SOL     OW 2101   2.102   2.404   3.016 -0.1124  0.0491 -0.0026
  701SOL    HW1 2102   2.026   2.471   3.005  1.5815 -4.1771  0.6143
  701SOL    HW2 2103   2.104   2.337   2.938 -0.9970  0.0022 -1.9766
  702SOL     OW 2104   1.049   0.331   0.846 -0.0549  0.4124  0.5156
  702SOL    HW1 2105   1.107   0.253   0.877 -0.5638 -0.9748 -0.5127
  702SOL    HW2 2106   1.098   0.418   0.849  1.8683 -2.2764 -1.2433
  703SOL     OW 2107   2.339   0.285   2.292 -0.4847  0.2192 -0.2891
  703SOL    HW1 2108   2.364   0.191   2.320  2.0379  0.6421 -0.2442
  703SOL    HW2 2109   2.243   0.307   2.286  1.0072 -0.3960  1.0852
  704SOL     OW 2110   0.145   2.300   0.400  0.0227  0.7272  0.2993
  704SOL    HW1 2111   0.113   2.257   0.314 -2.2926 -2.9795  0.1482
  704SOL    HW2 2112   0.131   2.398   0.398  2.5176  0.3404  0.9469
  705SOL     OW 2113   2.677   2.626   2.239  0.2606  0.3750  0.6585
  705SOL    HW1 2114   2.765   2.585   2.212  0.2942  0.3684  0.7635
  705SOL    HW2 2115   2.595   2.584   2.201 -2.4647  0.1706 -0.2643
  706SOL     OW 2116   2.332   2.679   1.043  0.0825  0.2746  0.1761
  706SOL    HW1 2117   2.237   2.677   1.085 -2.0690 -2.9249  1.2788
  706SOL    HW2 2118   2.327   2.659   0.945  4.8955  1.4954 -0.2957
  707SOL     OW 2119   0.578   2.426   2.172  0.2769 -0.4912  0.2747
  707SOL    HW1 2120   0.592   2.416   2.071 -0.1545  1.6410 -0.7530
  707SOL    HW2 2121   0.641   2.498   2.207  0.1234 -0.4775 -1.2547
  708SOL     OW 2122   2.976   2.181   2.394 -0.1908  0.4930  0.0230
  708SOL    HW1 2123   3.019   2.111   2.453 -1.7842  1.3802  1.9560
  708SOL    HW2 2124   3.048   2.216   2.332 -0.8663 -0.5477 -1.5463
  709SOL     OW 2125   2.005   2.998   1.995  0.0638 -0.5454 -0.2077
  709SOL    HW1 2126   1.909   2.971   2.002  1.9070 -0.7343 -0.5172
  709SOL    HW2 2127   2.049   2.995   2.088 -0.2077  0.4989 -0.5478
  710SOL     OW 2128   1.540   0.605   2.218  0.3423 -0.7214 -0.0397
  710SOL    HW1 2129   1.599   0.554   2.283  0.5241  0.9765 -1.6351
  710SOL    HW2 2130   1.590   0.608   2.130  1.4900  0.5226  2.1181
  711SOL     OW 2131   0.688   2.154   2.802  0.2757 -0.0161 -0.3476
  711SOL    HW1 2132   0.777   2.135   2.850 -1.7790 -3.4085 -0.6496
  711SOL    HW2 2133   0.638   2.070   2.787 -0.2076 -0.5201 -0.7661
  712SOL     OW 2134   0.588   2.553   2.640  0.2210 -0.2278 -0.1248
  712SOL    HW1 2135   0.597   2.625   2.706 -1.2987 -1.4251 -0.4458
  712SOL    HW2 2136   0.539   2.583   2.555  1.9609  0.5973  1.8215
  713SOL     OW 2137   1.694   1.396   2.570  0.4312  0.5107  0.1908
  713SOL    HW1 2138   1.763   1.367   2.505  0.7546  2.5561  0.1334
  713SOL    HW2 2139   1.712   1.353   2.660 -3.3876 -1.0323 -3.0771
  714SOL     OW 2140   1.451   1.271   1.896  0.3719 -0.1090 -0.1870
  714SOL    HW1 2141   1.491   1.344   1.836  0.6949  0.2340 -1.2933
  714SOL    HW2 2142   1.491   1.280   1.991 -0.1301 -0.9635 -0.1725
  715SOL     OW 2143   2.062   0.662   2.408  0.1053 -0.3197  0.2186
  715SOL    HW1 2144   2.022   0.601   2.481 -0.6603  0.6877  0.9184
  715SOL    HW2 2145   1.995   0.700   2.339 -0.5914  2.8396 -1.9534
  716SOL     OW 2146   2.998   2.130   1.633  0.0581 -0.0272  0.1692
  716SOL    HW1 2147   3.078   2.178   1.681 -1.1065  0.4657 -0.5444
  716SOL    HW2 2148   3.033   2.077   1.552  1.1025 -2.4011  1.7074
  717SOL     OW 2149   2.594   1.290   0.782  0.2363 -0.2065 -0.1307
  717SOL    HW1 2150   2.693   1.311   0.801 -1.7672 -2.2485  1.7745
  717SOL    HW2 2151   2.574   1.293   0.682 -1.4780  0.0010  1.9635
  718SOL     OW 2152   0.912   1.793   2.219 -0.3070  0.5456  0.0431
  718SOL    HW1 2153   0.836   1.726   2.225  0.2690 -2.6688  1.5110
  718SOL    HW2 2154   0.990   1.741   2.178  1.7583  0.0548  0.0937
  719SOL     OW 2155   2.030   0.864   2.727  0.1257 -0.3532 -0.1086
  719SOL    HW1 2156   2.049   0.824   2.634  0.5327 -2.4252  0.2491
  719SOL    HW2 2157   2.029   0.965   2.729 -1.6441  2.6695  0.4775
  720SOL     OW 2158   0.792   0.694   0.854  0.2691  0.3007  0.5064
  720SOL    HW1 2159   0.773   0.751   0.930 -2.6300 -2.0557 -2.2360
  720SOL    HW2 2160   0.709   0.699   0.792  0.2640 -0.7645  0.6220
  721SOL     OW 2161   2.957   0.784   0.407 -0.3073  0.4039  0.3754
  721SOL    HW1 2162   3.013   0.868   0.428  1.3376  1.1477 -1.0425
  721SOL    HW2 2163   2.907   0.789   0.317 -0.8747  3.5046 -1.4357
  722SOL     OW 2164   2.859   0.602   2.427  0.2398 -0.5184  0.3545
  722SOL    HW1 2165   2.917   0.622   2.344  1.0941 -0.4996 -1.5258
  722SOL    HW2 2166   2.829   0.507   2.421 -0.3956 -1.3299 -0.3667
  723SOL     OW 2167   1.873   0.220   0.204 -0.1179  0.3623 -0.3360
  723SOL    HW1 2168   1.873   0.308   0.146  0.6425  2.7875 -1.2113
  723SOL    HW2 2169   1.955   0.226   0.270  2.3726  0.8133  0.6655
  724SOL     OW 2170   0.494   1.803   2.025  0.3368 -0.2410  0.0086
  724SOL    HW1 2171   0.534   1.899   2.016 -0.9774 -0.6278  1.9205
  724SOL    HW2 2172   0.529   1.746   1.949 -1.8750 -0.7448 -1.5226
  725SOL     OW 2173   1.734   2.857   0.959 -0.3710 -0.4421  0.0713
  725SOL    HW1 2174   1.732   2.756   0.948  2.1502  0.1887 -1.3350
  725SOL    HW2 2175   1.831   2.889   0.982 -1.8645  1.1250 -1.3873
  726SOL     OW 2176   1.978   2.481   0.345 -0.3831 -0.0701  0.0135
  726SOL    HW1 2177   1.986   2.582   0.335 -0.4188 -1.6360  1.8095
  726SOL    HW2 2178   1.951   2.459   0.440  1.1058  0.9637  0.3332
  727SOL     OW 2179   1.822   1.618   1.225  0.1154 -0.3237 -0.1175
  727SOL    HW1 2180   1.818   1.587   1.319  1.7899 -0.9926 -1.1821
  727SOL    HW2 2181   1.890   1.699   1.216 -0.0244  2.1428  1.0158
  728SOL     OW 2182   1.973   2.682   1.637  0.0586 -0.4610 -0.2113
  728SOL    HW1 2183   2.070   2.676   1.613 -1.1225 -2.6989 -1.4759
  728SOL    HW2 2184   1.971   2.684   1.741  1.1621 -1.3921  0.1490
  729SOL     OW 2185   1.989   1.830   1.154  0.0330  0.1008 -0.5837
  729SOL    HW1 2186   1.998   1.805   1.053  1.9045  0.8260 -1.4857
  729SOL    HW2 2187   2.067   1.794   1.213  1.7700 -0.7588  1.0647
  730SOL     OW 2188   1.357   0.692   2.768 -0.0857 -0.0825  0.6675
  730SOL    HW1 2189   1.313   0.751   2.695 -0.4224  0.8082  0.0958
  730SOL    HW2 2190   1.459   0.692   2.757 -0.4141  1.8325 -0.6773
  731SOL     OW 2191   0.581   0.071   0.876  0.0221 -0.5302  0.0916
  731SOL    HW1 2192   0.486   0.105   0.895 -4.5386  0.8920 -1.2883
  731SOL    HW2 2193   0.651   0.118   0.928 -2.6246 -0.7002  0.1394
  732SOL     OW 2194   1.592   0.505   0.353 -0.2271 -0.7814  0.2148
  732SOL    HW1 2195   1.541   0.490   0.263  0.5501  1.3714 -1.9077
  732SOL    HW2 2196   1.624   0.412   0.381 -0.7634  0.2225  0.5756
  733SOL     OW 2197   0.667   1.894   1.427 -0.8498 -0.1962 -0.3693
  733SOL    HW1 2198   0.685   1.797   1.458 -1.8619  0.7500 -0.9230
  733SOL    HW2 2199   0.690   1.903   1.328 -1.5470 -2.6236 -0.6320
  734SOL     OW 2200   2.929   2.814   0.251  0.4196  0.2862  0.5188
  734SOL    HW1 2201   2.930   2.726   0.310  0.5073 -2.4102  1.2370
  734SOL    HW2 2202   3.010   2.820   0.194 -0.3016 -0.8295 -0.2772
  735SOL     OW 2203   1.359   3.059   1.073 -0.1439 -0.4537  0.2807
  735SOL    HW1 2204   1.323   2.992   1.141  1.0559 -1.0819  0.2177
  735SOL    HW2 2205   1.461   3.054   1.069  2.0632  0.4438 -3.5621
  736SOL     OW 2206   1.962   2.208   0.281  0.1523 -0.0806  0.4763
  736SOL    HW1 2207   2.052   2.194   0.233  0.1506 -0.2889 -0.1586
  736SOL    HW2 2208   1.939   2.308   0.287 -0.1608 -1.4238 -2.1802
  737SOL     OW 2209   0.114   1.550   1.079 -1.2060  0.3851 -0.5702
  737SOL    HW1 2210   0.183   1.620   1.060 -0.6914  0.0757 -0.1354
  737SOL    HW2 2211   0.126   1.505   1.172  1.0154  0.3592  1.2283
  738SOL     OW 2212   2.107   2.342   2.442 -0.0681 -0.0357 -0.0016
  738SOL    HW1 2213   2.036   2.389   2.500 -0.9090  0.2085  1.9497
  738SOL    HW2 2214   2.188   2.402   2.424  0.6537  0.2668 -1.7167
  739SOL     OW 2215   1.408   1.878   2.666  0.1438 -0.1823  0.1735
  739SOL    HW1 2216   1.352   1.940   2.607  1.5538  0.2147 -2.1119
  739SOL    HW2 2217   1.364   1.859   2.756 -0.6231 -1.0073 -0.1305
  740SOL     OW 2218   1.637   0.010   1.069 -0.1467 -0.1219  0.4540
  740SOL    HW1 2219   1.665   0.084   1.002  2.2153  1.0413 -0.5684
  740SOL    HW2 2220   1.677   3.007   1.039  0.1252  1.1158  1.9886
  741SOL     OW 2221   0.285   1.303   0.703  0.3638 -0.0488  0.6976
  741SOL    HW1 2222   0.328   1.215   0.723 -0.3809  0.5003 -2.4258
  741SOL    HW2 2223   0.193   1.294   0.660  2.4212 -0.8422 -1.6366
  742SOL     OW 2224   0.806   0.974   2.570  0.1032  0.4207 -1.1327
  742SOL    HW1 2225   0.829   1.060   2.622  0.9682 -1.1340  2.9037
  742SOL    HW2 2226   0.708   0.957   2.567 -0.9114  0.1734 -1.7476
  743SOL     OW 2227   0.977   0.970   2.041 -0.4420 -0.1835  0.0559
  743SOL    HW1 2228   0.919   1.035   2.097 -3.0501  2.9114  0.1494
  743SOL    HW2 2229   1.054   0.944   2.099 -2.2609 -1.4488 -0.0430
  744SOL     OW 2230   1.876   0.033   1.719 -0.2295 -0.0775  0.2911
  744SOL    HW1 2231   1.772   0.023   1.707 -1.3908 -2.3671  0.6889
  744SOL    HW2 2232   1.918   0.105   1.657  0.4567  1.5093  0.7171
  745SOL     OW 2233   2.274   1.221   1.470 -0.6203  0.3994  0.4483
  745SOL    HW1 2234   2.332   1.302   1.474 -0.7976 -1.2612  1.2325
  745SOL    HW2 2235   2.239   1.212   1.375 -2.2818 -1.4275  1.4525
  746SOL     OW 2236   2.026   1.347   0.119 -0.4959  0.4398 -0.3244
  746SOL    HW1 2237   2.016   1.443   0.084  0.7970  2.1702 -0.9302
  746SOL    HW2 2238   2.093   1.293   0.064 -0.0123 -2.2804 -0.6765
  747SOL     OW 2239   2.793   1.640   1.176  0.3806 -0.2565  0.2052
  747SOL    HW1 2240   2.782   1.653   1.075 -0.4511 -0.2652 -1.0621
  747SOL    HW2 2241   2.821   1.726   1.226 -1.8769  2.7359  0.5743
  748SOL     OW 2242   0.237   1.909   0.337 -0.5081  0.6151 -0.4684
  748SOL    HW1 2243   0.140   1.879   0.332 -0.8863  0.9933 -0.3973
  748SOL    HW2 2244   0.296   1.843   0.285  1.5154 -3.0829  1.5224
  749SOL     OW 2245   2.639   2.430   2.722 -0.8422  0.2031  0.3715
  749SOL    HW1 2246   2.714   2.388   2.669 -1.7255 -0.0861  0.4377
  749SOL    HW2 2247   2.579   2.483   2.660  1.8136 -2.3932  1.2508
  750SOL     OW 2248   2.568   0.769   0.749  0.2696 -0.0016 -0.0255
  750SOL    HW1 2249   2.641   0.839   0.767  0.4371 -0.9899 -0.8624
  750SOL    HW2 2250   2.495   0.776   0.818  0.8563 -0.1753  0.3012
  751SOL     OW 2251   2.456   2.948   0.069  0.3748 -0.2970 -0.0763
  751SOL    HW1 2252   2.466   3.023   0.003 -0.7111 -1.8009 -0.9277
  751SOL    HW2 2253   2.541   2.892   0.072  0.1142 -0.3884 -1.6501
  752SOL     OW 2254   0.034   2.807   0.721  0.3118  0.0569 -0.2101
  752SOL    HW1 2255   3.054   2.852   0.775  0.1715 -2.0570 -0.0039
  752SOL    HW2 2256   3.087   2.733   0.661  0.4337 -0.7659 -0.3331
  753SOL     OW 2257   1.906   0.988   2.295 -0.3349 -0.3649 -0.3045
  753SOL    HW1 2258   1.987   1.052   2.300 -2.4700  0.3509  1.6136
  753SOL    HW2 2259   1.864   0.984   2.385  0.1112 -2.0905  1.1870
  754SOL     OW 2260   1.824   1.959   1.527 -0.4803 -0.6259  0.0753
  754SOL    HW1 2261   1.899   2.005   1.476 -0.5940 -0.0134 -2.7434
  754SOL    HW2 2262   1.833   1.861   1.520 -2.0026  0.9050  0.5415
  755SOL     OW 2263   2.637   0.853   0.467  0.0758 -0.2307  0.0985
  755SOL    HW1 2264   2.607   0.838   0.371 -2.7806  0.8804 -2.3587
  755SOL    HW2 2265   2.584   0.803   0.536 -0.7657  0.1311  1.0258
  756SOL     OW 2266   0.821   1.197   2.990  0.3023 -0.6738  0.2010
  756SOL    HW1 2267   0.733   1.183   2.938 -1.4692 -0.6102  1.8460
  756SOL    HW2 2268   0.902   1.190   2.925  0.7995 -2.3105  1.3492
  757SOL     OW 2269   1.129   2.383   1.175 -0.3572  0.0623  0.4675
  757SOL    HW1 2270   1.184   2.360   1.092  0.7825 -0.3490 -1.2275
  757SOL    HW2 2271   1.124   2.307   1.242 -0.2060  0.2061  0.6424
  758SOL     OW 2272   1.093   2.481   1.684  0.6901  0.8930 -0.0663
  758SOL    HW1 2273   1.185   2.480   1.635  0.3810  1.3261  0.2500
  758SOL    HW2 2274   1.029   2.521   1.618 -1.0839  0.1886 -0.0829
  759SOL     OW 2275   0.039   1.057   0.987  0.1724 -0.0209  0.3701
  759SOL    HW1 2276   3.036   1.057   1.039 -2.8762  1.1513 -0.4716
  759SOL    HW2 2277   0.083   1.154   0.983  0.2121  1.5591 -3.0372
  760SOL     OW 2278   2.232   1.173   1.210 -0.1588 -0.2338  0.5421
  760SOL    HW1 2279   2.228   1.075   1.197 -0.1293  1.4819 -0.5269
  760SOL    HW2 2280   2.161   1.217   1.154 -0.0735  1.6417 -1.3416
  761SOL     OW 2281   1.893   3.022   0.202  0.0047 -0.2686 -0.2479
  761SOL    HW1 2282   1.812   2.964   0.187 -1.2238  3.8284  2.6018
  761SOL    HW2 2283   1.874   0.030   0.175  0.6734 -0.5588 -1.3208
  762SOL     OW 2284   2.218   1.459   2.678  0.0382  0.4011 -0.3977
  762SOL    HW1 2285   2.213   1.359   2.698  0.9032  1.9734  0.4959
  762SOL    HW2 2286   2.208   1.484   2.580  1.3908  0.4667 -3.5629
  763SOL     OW 2287   0.554   2.163   1.735 -0.1630  0.4291  0.2254
  763SOL    HW1 2288   0.471   2.120   1.695 -0.9088 -3.1275 -0.9094
  763SOL    HW2 2289   0.640   2.136   1.683  2.1314  0.2694 -1.4424
  764SOL     OW 2290   3.055   2.456   0.079 -0.2746  0.4569 -0.2974
  764SOL    HW1 2291   2.961   2.439   0.116  1.8612 -3.1561 -0.2667
  764SOL    HW2 2292   3.050   2.473   3.063 -2.6080  1.8681 -2.6998
  765SOL     OW 2293   0.404   3.033   1.379  0.0319 -0.3241 -0.6279
  765SOL    HW1 2294   0.423   0.037   1.423  0.2384  0.2355  0.3874
  765SOL    HW2 2295   0.491   2.981   1.363  0.7754  0.5509 -1.0673
  766SOL     OW 2296   2.759   2.011   2.283  0.3360 -0.0684 -0.3243
  766SOL    HW1 2297   2.856   2.049   2.303  0.5417  4.3630  0.4325
  766SOL    HW2 2298   2.741   1.933   2.348  1.5301 -0.2164  0.9263
  767SOL     OW 2299   2.560   0.811   1.881  0.1834  0.1847 -0.3431
  767SOL    HW1 2300   2.571   0.741   1.806 -1.5627 -3.5737 -0.8666
  767SOL    HW2 2301   2.570   0.771   1.978 -0.7749  0.0089  1.3238
  768SOL     OW 2302   1.069   3.068   2.832 -0.0653  0.4758  0.5620
  768SOL    HW1 2303   1.050   2.972   2.844 -1.6306 -0.0570  1.8887
  768SOL    HW2 2304   1.156   0.000   2.880 -0.8759  1.6955  0.8908
  769SOL     OW 2305   2.647   2.886   1.072  0.2274  0.0034  0.3178
  769SOL    HW1 2306   2.749   2.868   1.084  0.3466  0.5732  2.8414
  769SOL    HW2 2307   2.594   2.825   1.130  2.3377  0.4820 -1.1405
  770SOL     OW 2308   0.393   2.872   2.644 -0.2258 -0.1281 -0.2567
  770SOL    HW1 2309   0.331   2.950   2.666  0.7225 -1.1254 -0.1784
  770SOL    HW2 2310   0.333   2.789   2.635 -2.5635  1.0392 -1.0158
  771SOL     OW 2311   1.399   2.054   2.243  0.1792 -0.4395 -0.5255
  771SOL    HW1 2312   1.317   2.097   2.200 -1.8075  2.1333 -0.5619
  771SOL    HW2 2313   1.417   1.961   2.212  1.4754 -0.5092 -1.2229
  772SOL     OW 2314   1.336   2.810   0.116  0.0254 -0.4026 -0.2334
  772SOL    HW1 2315   1.275   2.845   0.188  2.2466  0.3977 -0.9814
  772SOL    HW2 2316   1.415   2.870   0.099  1.8850  0.7298  0.5645
  773SOL     OW 2317   2.001   0.533   1.408 -0.0935 -0.6541 -0.0015
  773SOL    HW1 2318   2.019   0.626   1.443 -0.5266  1.6519  0.0631
  773SOL    HW2 2319   1.988   0.534   1.308  1.7479  0.8633 -0.7170
  774SOL     OW 2320   1.008   1.099   1.125  0.3988 -0.0398  0.3628
  774SOL    HW1 2321   1.105   1.133   1.115  2.9257 -0.8181  1.3987
  774SOL    HW2 2322   0.998   1.020   1.189 -1.7878 -2.9791 -1.6538
  775SOL     OW 2323   1.938   2.812   2.940 -0.3692  0.5544  0.5493
  775SOL    HW1 2324   2.015   2.849   2.994  0.5850  0.9246 -0.8318
  775SOL    HW2 2325   1.931   2.711   2.943 -2.6596  0.0822  1.1576
  776SOL     OW 2326   2.117   0.786   1.435 -0.1830 -0.6040 -0.5297
  776SOL    HW1 2327   2.175   0.826   1.505  1.4241 -1.8915 -3.1037
  776SOL    HW2 2328   2.156   0.807   1.344 -2.7998 -1.5488  2.4446
  777SOL     OW 2329   0.187   1.106   2.132  0.4728 -0.2368 -0.1974
  777SOL    HW1 2330   0.237   1.022   2.115  3.0603  0.4726  0.8288
  777SOL    HW2 2331   0.236   1.163   2.201 -0.6275 -1.4513 -0.9117
  778SOL     OW 2332   0.243   0.721   0.120 -0.1770  0.4446 -0.0631
  778SOL    HW1 2333   0.331   0.710   0.070 -1.9522  0.8293  1.3467
  778SOL    HW2 2334   0.205   0.816   0.108 -0.6592  2.6615 -1.7136
  779SOL     OW 2335   0.807   3.058   2.679 -0.3787 -0.6654 -0.2351
  779SOL    HW1 2336   0.894   3.002   2.668  0.4963  0.5875  1.3175
  779SOL    HW2 2337   0.811   0.020   2.768  1.2216 -2.8899 -2.0663
  780SOL     OW 2338   2.095   1.192   2.366 -0.5112 -0.1034 -0.1279
  780SOL    HW1 2339   2.142   1.153   2.447 -2.7970 -0.8622  1.4525
  780SOL    HW2 2340   2.152   1.262   2.319 -1.1582  0.4206 -1.1084
  781SOL     OW 2341   2.951   0.993   1.968  0.1152 -0.3491 -0.8500
  781SOL    HW1 2342   2.881   1.020   1.909  1.9094  1.9792  0.4730
  781SOL    HW2 2343   2.918   0.911   2.024 -0.8924 -2.4621  1.8189
  782SOL     OW 2344   0.774   1.744   2.755  0.0102  0.1588 -0.7385
  782SOL    HW1 2345   0.770   1.723   2.857  1.4749  0.1901  1.6941
  782SOL    HW2 2346   0.712   1.820   2.727 -3.0180  0.9576 -0.4421
  783SOL     OW 2347   0.882   2.456   1.092  0.0154 -0.8341  0.3162
  783SOL    HW1 2348   0.975   2.427   1.122 -1.2879 -0.4529  1.0805
  783SOL    HW2 2349   0.880   2.475   0.993 -0.9995 -0.2254  2.8739
  784SOL     OW 2350   1.720   0.608   2.478 -0.1958  0.3261 -0.2323
  784SOL    HW1 2351   1.821   0.586   2.476  1.5017 -1.4033 -1.8595
  784SOL    HW2 2352   1.663   0.524   2.481 -0.8925 -2.6530  1.3820
  785SOL     OW 2353   0.277   2.961   1.863  0.3152 -0.0061 -0.4591
  785SOL    HW1 2354   0.360   3.006   1.905  3.9423  0.0833  1.6252
  785SOL    HW2 2355   0.196   3.020   1.874  3.3874  0.2276 -1.3063
  786SOL     OW 2356   0.849   2.014   0.232  0.7145  0.0820 -0.3070
  786SOL    HW1 2357   0.771   2.039   0.173  0.4231  0.0969  0.0041
  786SOL    HW2 2358   0.878   2.101   0.270 -2.2057  1.3562 -2.0577
  787SOL     OW 2359   1.322   0.436   0.469 -0.9406 -0.0764 -0.0781
  787SOL    HW1 2360   1.370   0.403   0.383  0.7202 -4.7565  0.6131
  787SOL    HW2 2361   1.339   0.534   0.481  1.5343 -0.7942  2.1953
  788SOL     OW 2362   2.944   1.414   1.199 -0.0863 -0.6186 -0.9626
  788SOL    HW1 2363   2.875   1.487   1.187 -1.4602  1.2443  0.8538
  788SOL    HW2 2364   3.029   1.445   1.244 -1.6624  1.7579  0.1795
  789SOL     OW 2365   2.670   1.076   2.235 -0.4310 -0.2735 -0.0692
  789SOL    HW1 2366   2.746   1.031   2.188 -0.8136  2.5391  0.6995
  789SOL    HW2 2367   2.664   1.170   2.195 -2.4003 -0.1359 -3.6684
  790SOL     OW 2368   0.686   0.316   0.283 -0.1156 -0.0945 -0.3540
  790SOL    HW1 2369   0.727   0.361   0.368 -2.3250  1.4659  2.1016
  790SOL    HW2 2370   0.681   0.214   0.289  0.0563  1.9217 -0.2022
  791SOL     OW 2371   2.869   0.039   2.934  0.1974  0.1771  0.2502
  791SOL    HW1 2372   2.771   0.038   2.897  1.3258  0.9819 -0.2178
  791SOL    HW2 2373   2.879   0.103   3.017  0.2347  4.3283  1.2747
  792SOL     OW 2374   1.263   0.609   2.219 -0.2695  0.0259  0.3819
  792SOL    HW1 2375   1.366   0.614   2.222 -0.2950  1.0760  2.9807
  792SOL    HW2 2376   1.228   0.528   2.269  0.0980  0.2266  1.7260
  793SOL     OW 2377   2.869   0.496   0.875  0.3164 -0.1683 -0.3100
  793SOL    HW1 2378   2.956   0.441   0.876  1.6212 -1.9371 -1.1791
  793SOL    HW2 2379   2.874   0.598   0.867 -1.8881  1.1995 -0.5462
  794SOL     OW 2380   3.045   0.588   2.199  0.4661  0.6984  0.1453
  794SOL    HW1 2381   0.050   0.615   2.166 -1.3160 -1.0062  0.9158
  794SOL    HW2 2382   2.993   0.541   2.123 -0.5429  2.2423  1.6642
  795SOL     OW 2383   0.489   1.344   0.433  0.3117  0.1437 -0.2217
  795SOL    HW1 2384   0.563   1.359   0.501 -1.4343  0.3895 -1.8734
  795SOL    HW2 2385   0.472   1.243   0.416 -3.9822 -1.9155 -0.1459
  796SOL     OW 2386   0.038   0.952   3.054  0.4078  0.2129 -0.0828
  796SOL    HW1 2387   0.088   0.985   0.051 -1.3209  0.6930  2.6926
  796SOL    HW2 2388   0.106   0.930   2.982  0.3172  1.0714  0.3155
  797SOL     OW 2389   1.914   2.802   2.487 -0.1322 -0.3419  0.0325
  797SOL    HW1 2390   1.981   2.835   2.558  0.2592  1.3420  4.4779
  797SOL    HW2 2391   1.824   2.789   2.533  1.1812  1.6827  1.6423
  798SOL     OW 2392   3.039   3.038   1.451  0.5480 -0.1147  0.5076
  798SOL    HW1 2393   2.987   3.027   1.363 -0.6673 -2.0738  1.6064
  798SOL    HW2 2394   0.027   0.019   1.446  0.9964  1.4420  2.0582
  799SOL     OW 2395   2.333   0.599   1.653  0.7411  0.1742 -0.6995
  799SOL    HW1 2396   2.290   0.690   1.642  1.4644  0.8401  0.8495
  799SOL    HW2 2397   2.292   0.531   1.590  2.7856  0.8081  2.0703
  800SOL     OW 2398   0.238   1.977   0.587  0.1886  0.0557 -0.3264
  800SOL    HW1 2399   0.338   1.990   0.610  2.8889 -0.6363 -1.0999
  800SOL    HW2 2400   0.234   1.935   0.494 -0.2178  3.3292  0.4934
  801SOL     OW 2401   1.520   1.627   0.481 -0.0851 -0.2255 -0.5204
  801SOL    HW1 2402   1.436   1.612   0.546 -0.6205 -2.0976  1.3029
  801SOL    HW2 2403   1.587   1.548   0.494 -0.7662  1.0541  0.3450
  802SOL     OW 2404   1.286   1.153   2.767 -0.0745 -0.1374  0.7304
  802SOL    HW1 2405   1.267   1.167   2.666 -0.9390 -0.5240  1.7557
  802SOL    HW2 2406   1.387   1.157   2.775 -1.8978  1.1335  0.0327
  803SOL     OW 2407   0.270   1.881   2.123  1.1520  0.2727  0.3405
  803SOL    HW1 2408   0.369   1.856   2.094  2.4766 -1.6501  0.3329
  803SOL    HW2 2409   0.202   1.808   2.104 -1.7649 -0.1814  1.5961
  804SOL     OW 2410   1.219   2.283   0.928 -0.3975  0.3754  0.0480
  804SOL    HW1 2411   1.244   2.189   0.967 -1.2707  0.2076 -0.0215
  804SOL    HW2 2412   1.131   2.280   0.884 -0.8058 -0.4577 -1.2649
  805SOL     OW 2413   2.442   2.195   2.747  0.7818  0.1459 -0.5715
  805SOL    HW1 2414   2.438   2.113   2.809  0.1525 -0.9674  1.3731
  805SOL    HW2 2415   2.528   2.246   2.755 -1.5269  1.4680 -0.0929
  806SOL     OW 2416   0.040   0.424   0.880  0.1873  0.7162  0.3593
  806SOL    HW1 2417   0.054   0.381   0.969  0.3644  0.9096 -0.8896
  806SOL    HW2 2418   0.096   0.510   0.865  2.4186 -0.6075 -0.3913
  807SOL     OW 2419   2.725   0.889   2.847 -0.3567 -0.4052 -0.0852
  807SOL    HW1 2420   2.747   0.857   2.754 -3.2544 -2.0530  0.7429
  807SOL    HW2 2421   2.781   0.967   2.874  0.0779 -1.9844 -0.4372
  808SOL     OW 2422   0.745   2.014   0.613 -0.2673 -0.1622 -0.5547
  808SOL    HW1 2423   0.815   1.951   0.569 -1.3569 -1.2049  0.8938
  808SOL    HW2 2424   0.703   2.069   0.540 -2.5020 -0.2466  0.7472
  809SOL     OW 2425   2.614   0.141   2.243  0.1929  0.5522  0.0918
  809SOL    HW1 2426   2.643   0.073   2.177 -1.6173  0.5002  1.6110
  809SOL    HW2 2427   2.545   0.100   2.308 -0.3697 -0.1712  0.9665
  810SOL     OW 2428   1.764   1.111   0.594 -0.2498 -0.2935 -0.1856
  810SOL    HW1 2429   1.828   1.105   0.513 -0.2102  0.8998 -0.7870
  810SOL    HW2 2430   1.680   1.162   0.574  1.5914  2.5598 -0.4530
  811SOL     OW 2431   1.746   2.943   2.098 -0.0262 -0.9208 -0.7130
  811SOL    HW1 2432   1.765   2.969   2.193 -1.3049  0.6821  0.7259
  811SOL    HW2 2433   1.715   2.846   2.087  1.2334 -0.1743 -3.6379
  812SOL     OW 2434   1.920   2.426   0.646 -0.2086  0.0590  0.3101
  812SOL    HW1 2435   1.825   2.401   0.648  2.1054 -0.5125 -0.4415
  812SOL    HW2 2436   1.926   2.522   0.680 -2.1929  2.1128 -0.3627
  813SOL     OW 2437   1.020   0.441   1.909 -0.1582  0.1993  0.3950
  813SOL    HW1 2438   1.090   0.503   1.876  1.5094  3.8164  0.8699
  813SOL    HW2 2439   1.042   0.355   1.854  2.1733  0.1798  0.8254
  814SOL     OW 2440   0.236   2.886   1.528  0.1356  0.0823 -0.0934
  814SOL    HW1 2441   0.284   2.952   1.467 -0.9366  1.1855  0.0323
  814SOL    HW2 2442   0.174   2.930   1.594  0.1182 -1.9927 -1.5566
  815SOL     OW 2443   0.318   0.171   0.901  0.4575  0.2008  0.1769
  815SOL    HW1 2444   0.239   0.136   0.847  2.2067  1.9513  1.6320
  815SOL    HW2 2445   0.307   0.146   0.997 -0.4249  1.9135 -1.0286
  816SOL     OW 2446   2.730   1.629   2.207  0.2584 -0.6097 -0.1786
  816SOL    HW1 2447   2.630   1.638   2.180  1.9446 -0.9139 -2.4121
  816SOL    HW2 2448   2.745   1.576   2.293  0.9530  2.0864  0.3082
  817SOL     OW 2449   1.395   0.096   0.779 -0.1459 -0.4317 -0.2691
  817SOL    HW1 2450   1.304   0.091   0.827 -1.6955  0.5128 -1.0984
  817SOL    HW2 2451   1.458   0.024   0.816  1.7829 -2.2712  2.5075
  818SOL     OW 2452   1.755   0.658   0.019  0.3954  0.0274 -0.0868
  818SOL    HW1 2453   1.813   0.573   0.019  0.6003 -2.8451 -0.9462
  818SOL    HW2 2454   1.757   0.698   0.113  1.6289 -0.7478  0.5706
  819SOL     OW 2455   2.258   2.845   2.970 -0.2768  0.4874  0.0021
  819SOL    HW1 2456   2.286   2.743   2.987 -0.2381 -1.6412 -2.4282
  819SOL    HW2 2457   2.254   2.898   3.058 -0.4579  1.0574 -2.7890
  820SOL     OW 2458   1.582   1.112   2.760 -0.1503  0.6553 -0.0262
  820SOL    HW1 2459   1.666   1.167   2.779 -0.0155  2.0543 -0.5137
  820SOL    HW2 2460   1.574   1.031   2.819 -1.1630  2.4073  0.5135
  821SOL     OW 2461   0.343   0.625   1.152  0.0099 -0.4852 -0.0693
  821SOL    HW1 2462   0.346   0.524   1.149  1.6228 -1.8461  0.3041
  821SOL    HW2 2463   0.379   0.669   1.070  2.8935 -0.1449 -2.5483
  822SOL     OW 2464   1.134   2.753   2.414  0.5883 -0.4637 -0.2005
  822SOL    HW1 2465   1.202   2.706   2.353 -2.2228  1.2098 -1.8999
  822SOL    HW2 2466   1.058   2.692   2.446 -1.9681 -0.9655 -1.0795
  823SOL     OW 2467   0.416   1.554   1.664  0.2198  0.2891 -0.1702
  823SOL    HW1 2468   0.357   1.576   1.744 -1.0955  0.5247  1.1648
  823SOL    HW2 2469   0.501   1.498   1.693  1.1662 -1.2670 -0.1963
  824SOL     OW 2470   1.600   2.626   2.413 -0.7254 -0.5126  0.6941
  824SOL    HW1 2471   1.636   2.701   2.478  1.8844  0.2775  2.5790
  824SOL    HW2 2472   1.526   2.666   2.355 -1.6305  1.4232 -1.1948
  825SOL     OW 2473   1.281   1.006   0.177  0.0373  0.1181  0.3881
  825SOL    HW1 2474   1.341   0.931   0.193 -2.2631  1.5186  1.8949
  825SOL    HW2 2475   1.329   1.094   0.156  1.3483  0.8329  0.7381
  826SOL     OW 2476   2.194   0.708   2.896 -0.4958 -0.6702 -0.0150
  826SOL    HW1 2477   2.110   0.753   2.858  0.8948  2.5964 -0.5244
  826SOL    HW2 2478   2.277   0.771   2.882  1.8959  1.3854 -2.6130
  827SOL     OW 2479   0.463   2.368   2.838 -0.4642 -0.2188  0.3776
  827SOL    HW1 2480   0.493   2.422   2.755  0.3080 -3.4165  1.7177
  827SOL    HW2 2481   0.431   2.275   2.808  0.2273  1.9550 -0.1068
  828SOL     OW 2482   2.884   0.759   1.157  0.3494  0.4254  0.2432
  828SOL    HW1 2483   2.875   0.671   1.207  0.4982 -0.4764  1.7660
  828SOL    HW2 2484   2.929   0.826   1.219 -1.3004 -1.3569  0.5692
  829SOL     OW 2485   0.607   1.710   1.220  0.1187 -0.0486  0.2182
  829SOL    HW1 2486   0.593   1.759   1.132  1.9341 -3.8921 -1.1988
  829SOL    HW2 2487   0.683   1.640   1.215 -2.0643 -0.8780 -0.5441
  830SOL     OW 2488   0.818   1.179   1.584 -0.3602  0.0505 -0.4515
  830SOL    HW1 2489   0.772   1.240   1.519  0.3619  0.9893  0.9652
  830SOL    HW2 2490   0.827   1.086   1.543  0.4630 -2.6133  0.4418
  831SOL     OW 2491   0.234   2.071   0.064  0.3474 -0.2224 -0.5680
  831SOL    HW1 2492   0.170   2.132   0.118  0.2684  0.6948 -0.3082
  831SOL    HW2 2493   0.327   2.110   0.053  3.4158 -0.2535  1.8754
  832SOL     OW 2494   0.756   0.125   2.920  0.7009  0.5777  0.1426
  832SOL    HW1 2495   0.655   0.130   2.930  1.8143 -1.6022 -0.6237
  832SOL    HW2 2496   0.802   0.160   3.003  0.4011  0.3199 -2.5739
  833SOL     OW 2497   0.366   0.406   1.917  0.1881  1.0325 -0.4583
  833SOL    HW1 2498   0.404   0.423   2.009  2.0060 -1.5694 -1.3046
  833SOL    HW2 2499   0.269   0.378   1.925  0.7091 -0.5389  0.9912
  834SOL     OW 2500   0.137   0.302   1.099 -0.4045  0.0296 -0.3192
  834SOL    HW1 2501   0.070   0.347   1.157  0.7515  0.4747 -0.7525
  834SOL    HW2 2502   0.231   0.331   1.132  0.3859 -0.4465  1.8021
  835SOL     OW 2503   2.894   3.078   1.182 -0.0938 -0.8661  0.0344
  835SOL    HW1 2504   2.943   0.026   1.098  1.9056  3.3885  3.1003
  835SOL    HW2 2505   2.877   2.979   1.172  0.3124  1.6172 -0.4409
  836SOL     OW 2506   0.119   2.119   2.906  0.3636  0.1551 -0.1230
  836SOL    HW1 2507   0.075   2.209   2.877  1.0459 -1.3891 -1.6069
  836SOL    HW2 2508   0.163   2.130   2.999 -0.4352 -2.5471  0.6962
  837SOL     OW 2509   1.716   1.816   2.815  0.3216 -0.0358  0.0473
  837SOL    HW1 2510   1.707   1.714   2.826 -3.0552  0.3019 -1.8914
  837SOL    HW2 2511   1.677   1.838   2.726 -0.9808 -1.1800  1.9412
  838SOL     OW 2512   0.079   0.942   1.288  0.1175 -0.7045 -0.0824
  838SOL    HW1 2513   0.104   0.850   1.326  0.3069 -0.5974  0.3866
  838SOL    HW2 2514   3.068   0.955   1.295  1.6515  2.4423  1.7303
  839SOL     OW 2515   1.146   1.011   0.826  0.3680 -0.1656  0.1702
  839SOL    HW1 2516   1.062   1.018   0.876  2.0481  0.3416 -0.7209
  839SOL    HW2 2517   1.148   0.978   0.730  4.5449  2.1668  0.1632
  840SOL     OW 2518   1.692   0.015   1.346 -0.4674  0.1276 -0.0903
  840SOL    HW1 2519   1.676   0.027   1.248 -0.9809 -0.1099  0.7442
  840SOL    HW2 2520   1.610   3.056   1.388 -0.3554  0.5120 -0.7547
  841SOL     OW 2521   0.520   2.644   0.475  0.3143  0.1787  0.0829
  841SOL    HW1 2522   0.477   2.715   0.420  0.2693 -0.1869  1.1868
  841SOL    HW2 2523   0.550   2.683   0.561 -0.4357  2.6236 -2.5863
  842SOL     OW 2524   0.723   0.728   0.524  0.5226 -0.1595 -0.4781
  842SOL    HW1 2525   0.710   0.627   0.543 -0.2287 -1.4191 -0.7656
  842SOL    HW2 2526   0.668   0.747   0.440  1.7489 -1.6290 -2.7137
  843SOL     OW 2527   0.990   1.438   1.969 -0.1144 -0.4176 -0.3408
  843SOL    HW1 2528   0.924   1.456   2.048 -0.6636  1.8480 -1.2307
  843SOL    HW2 2529   0.936   1.379   1.903 -0.6112 -1.8673 -1.6030
  844SOL     OW 2530   1.234   2.006   0.101 -0.0890  0.3423 -0.4679
  844SOL    HW1 2531   1.299   2.017   0.021  0.2094 -2.0656  2.2321
  844SOL    HW2 2532   1.200   2.099   0.132 -0.9523  0.2764  2.3431
  845SOL     OW 2533   2.392   2.449   2.380 -0.4095 -0.4316 -0.2981
  845SOL    HW1 2534   2.410   2.483   2.290  0.4346 -1.9135  1.6817
  845SOL    HW2 2535   2.463   2.379   2.400  1.6398 -3.0651  0.5639
  846SOL     OW 2536   1.888   2.151   2.957  0.3894 -0.3594 -0.2606
  846SOL    HW1 2537   1.833   2.187   2.881  1.0232 -1.0921 -0.0867
  846SOL    HW2 2538   1.840   2.179   3.046 -0.2471  0.0255  0.0574
  847SOL     OW 2539   2.044   2.910   2.704 -0.0694 -0.2921  0.0257
  847SOL    HW1 2540   2.148   2.919   2.711  1.1774 -0.8967 -0.0144
  847SOL    HW2 2541   2.004   2.878   2.793 -0.2068  0.7624  1.9044
  848SOL     OW 2542   1.019   0.586   0.652 -0.1586 -1.0173 -0.2520
  848SOL    HW1 2543   0.934   0.623   0.703 -0.2845  2.9509  0.8241
  848SOL    HW2 2544   1.104   0.597   0.710  3.1382 -0.9096  1.4248
  849SOL     OW 2545   0.697   2.990   1.269  0.1299 -0.7289 -0.7753
  849SOL    HW1 2546   0.707   2.964   1.173  1.2365  1.2154  1.2230
  849SOL    HW2 2547   0.681   0.002   1.278 -1.9579  0.3956 -1.4781
  850SOL     OW 2548   0.245   1.572   0.030 -0.0499  0.0034  0.5710
  850SOL    HW1 2549   0.179   1.648   0.037 -2.0133 -2.3559  0.7766
  850SOL    HW2 2550   0.251   1.536   3.021 -2.6294  2.0457 -1.3644
  851SOL     OW 2551   0.004   1.023   0.598 -0.4583  0.2379  0.5400
  851SOL    HW1 2552   3.002   1.073   0.614  0.5804  0.8580  1.0294
  851SOL    HW2 2553   0.013   0.961   0.677  0.7038 -0.6895  0.4581
  852SOL     OW 2554   1.754   2.027   1.764 -0.3034  0.2845  0.0397
  852SOL    HW1 2555   1.761   1.990   1.672  0.2278  0.7050  1.0389
  852SOL    HW2 2556   1.739   1.952   1.834 -0.1817 -3.8565  2.1358
  853SOL     OW 2557   0.124   1.831   0.065 -0.0606  0.7775 -0.2806
  853SOL    HW1 2558   0.055   1.837   0.138  2.8091 -1.0234 -2.8038
  853SOL    HW2 2559   0.164   1.919   0.050  1.7815  1.3079 -2.1960
  854SOL     OW 2560   1.704   1.288   1.541  0.0493  0.2621 -0.4541
  854SOL    HW1 2561   1.727   1.272   1.445 -0.9459  2.2337  3.4540
  854SOL    HW2 2562   1.749   1.226   1.607  0.3967  3.2066 -1.4475
  855SOL     OW 2563   0.704   2.460   3.010  0.2855  0.0439  0.1327
  855SOL    HW1 2564   0.801   2.441   3.032  0.0471 -1.3858 -0.9997
  855SOL    HW2 2565   0.674   2.405   2.931  0.0255  0.4632  1.5424
  856SOL     OW 2566   0.010   0.241   2.181 -0.2150  0.1493 -0.0716
  856SOL    HW1 2567   0.100   0.287   2.165 -3.1401 -1.2490  2.3178
  856SOL    HW2 2568   3.071   0.234   2.281  1.7808  0.3885 -1.3429
  857SOL     OW 2569   0.553   0.843   1.729 -0.5042  0.3384  0.4464
  857SOL    HW1 2570   0.652   0.859   1.760  2.0032 -1.3937 -2.5952
  857SOL    HW2 2571   0.527   0.915   1.662  0.2256 -0.7065 -1.7952
  858SOL     OW 2572   0.302   1.238   2.315 -0.9736 -0.7057  0.0828
  858SOL    HW1 2573   0.238   1.307   2.351  1.5695  2.2564  1.8021
  858SOL    HW2 2574   0.357   1.201   2.391  0.2512 -0.9026  1.1512
  859SOL     OW 2575   2.382   0.082   0.444 -0.3512  0.1735 -0.6498
  859SOL    HW1 2576   2.352   0.004   0.391  1.6999  0.6878  1.3896
  859SOL    HW2 2577   2.317   0.107   0.515  0.9766  1.7779 -2.5003
  860SOL     OW 2578   1.740   3.009   2.970  0.2716  0.3098 -0.1500
  860SOL    HW1 2579   1.686   3.012   2.882 -0.7136 -2.5881 -1.2097
  860SOL    HW2 2580   1.813   2.935   2.961 -0.7732  0.6505 -0.4240
  861SOL     OW 2581   0.321   0.621   0.361  0.3657  0.0199 -0.4147
  861SOL    HW1 2582   0.300   0.663   0.272 -0.0788 -0.6283  1.9924
  861SOL    HW2 2583   0.234   0.617   0.414  0.2850 -2.1127 -0.6972
  862SOL     OW 2584   1.706   0.287   1.986 -0.1055 -0.2774  0.5159
  862SOL    HW1 2585   1.805   0.271   1.979 -0.8857  1.7885  1.5876
  862SOL    HW2 2586   1.650   0.210   1.957 -1.9065 -1.5271 -2.6823
  863SOL     OW 2587   2.860   2.051   1.080  0.1538  0.1927  0.2848
  863SOL    HW1 2588   2.895   2.009   0.992  0.7891  2.5471 -2.3113
  863SOL    HW2 2589   2.799   2.132   1.059 -0.2676  1.4421  1.4613
  864SOL     OW 2590   2.296   2.759   1.846 -0.0090  0.1370  0.3419
  864SOL    HW1 2591   2.250   2.844   1.817  0.5312 -0.9534  1.3993
  864SOL    HW2 2592   2.261   2.726   1.940  1.3088 -1.3682  1.1080
  865SOL     OW 2593   1.454   0.591   1.594  0.1978  0.2381  0.2461
  865SOL    HW1 2594   1.502   0.571   1.681 -1.7145  0.8451 -1.2423
  865SOL    HW2 2595   1.395   0.512   1.563 -0.4344 -2.7387 -2.9907
  866SOL     OW 2596   2.464   2.969   0.811 -0.1897  0.1680  0.1545
  866SOL    HW1 2597   2.500   3.060   0.780 -0.9710  1.3961 -1.2436
  866SOL    HW2 2598   2.539   2.898   0.820  0.8073  1.0582 -0.2332
  867SOL     OW 2599   2.801   2.943   0.724 -0.1452  0.0132 -0.1644
  867SOL    HW1 2600   2.799   2.919   0.622 -0.4449 -0.2265  0.4566
  867SOL    HW2 2601   2.789   2.863   0.784  0.1879  1.3851  0.0794
  868SOL     OW 2602   1.112   2.263   2.449 -0.1529 -0.0905  0.1277
  868SOL    HW1 2603   1.080   2.177   2.499 -2.4643  0.7935  0.9833
  868SOL    HW2 2604   1.073   2.255   2.358 -2.8893  0.0457  0.8675
  869SOL     OW 2605   1.728   2.191   0.082  0.2234  0.4129 -0.1893
  869SOL    HW1 2606   1.631   2.220   0.104 -3.7668  1.3123  0.6508
  869SOL    HW2 2607   1.785   2.190   0.167  0.2016 -1.4922 -0.5338
  870SOL     OW 2608   2.585   2.420   0.755  0.5108  0.3065 -0.2224
  870SOL    HW1 2609   2.657   2.430   0.819  0.2682 -0.0498 -1.2414
  870SOL    HW2 2610   2.591   2.375   0.667 -0.9274  1.5147  1.5896
  871SOL     OW 2611   0.438   1.244   1.560 -0.6698  0.2990 -0.1907
  871SOL    HW1 2612   0.440   1.291   1.468  0.7161 -0.0435 -0.4384
  871SOL    HW2 2613   0.342   1.233   1.589 -0.8186  1.1673  0.4494
  872SOL     OW 2614   0.673   1.561   2.585 -0.2142 -0.2301 -0.3879
  872SOL    HW1 2615   0.707   1.617   2.661  0.9794  1.3794  1.0854
  872SOL    HW2 2616   0.709   1.604   2.495  1.6064 -0.4612 -3.1116
  873SOL     OW 2617   0.493   2.801   1.742 -0.0540 -0.0907 -0.1951
  873SOL    HW1 2618   0.557   2.799   1.660  1.0084 -0.3091  0.2701
  873SOL    HW2 2619   0.438   2.882   1.748  2.0926 -0.1195 -0.4730
  874SOL     OW 2620   1.163   0.874   2.209  0.4992 -0.2592  0.4278
  874SOL    HW1 2621   1.242   0.939   2.220 -0.6507 -1.1733  0.4325
  874SOL    HW2 2622   1.208   0.786   2.209  1.5352  1.7863  1.6569
  875SOL     OW 2623   2.502   2.685   1.263  0.5066 -0.1124  0.5456
  875SOL    HW1 2624   2.446   2.723   1.341  2.2797 -0.3973  0.0385
  875SOL    HW2 2625   2.443   2.697   1.179  1.8302 -0.8276 -1.3402
  876SOL     OW 2626   1.024   1.317   0.894  0.2699 -0.0270  0.2953
  876SOL    HW1 2627   1.098   1.304   0.963 -2.5548 -0.1203 -1.1408
  876SOL    HW2 2628   0.998   1.221   0.865 -1.0943  1.2111 -3.5518
  877SOL     OW 2629   2.741   0.196   1.307  0.4381 -0.3645 -0.7816
  877SOL    HW1 2630   2.778   0.289   1.283  0.3341  1.5813  1.0114
  877SOL    HW2 2631   2.799   0.118   1.270  0.1358 -1.3321 -0.9248
  878SOL     OW 2632   2.433   1.611   0.001  0.0126 -0.0256 -0.2885
  878SOL    HW1 2633   2.515   1.671   0.017  0.9486 -0.7554 -1.3342
  878SOL    HW2 2634   2.400   1.625   2.992  0.5492  0.8657  0.6759
  879SOL     OW 2635   2.836   1.916   1.304  0.3130  0.0914 -0.1557
  879SOL    HW1 2636   2.766   1.964   1.356 -0.4699  2.3491 -0.9711
  879SOL    HW2 2637   2.836   1.950   1.207  0.9259 -0.6313 -0.4350
  880SOL     OW 2638   0.662   2.304   1.150 -0.4351  0.0257 -0.8341
  880SOL    HW1 2639   0.576   2.321   1.101  1.4553  1.6294 -0.6418
  880SOL    HW2 2640   0.720   2.386   1.135 -2.4185 -2.4801 -0.1789
  881SOL     OW 2641   1.368   1.429   0.830 -0.3158  0.6692 -0.5571
  881SOL    HW1 2642   1.345   1.331   0.844 -1.2084 -1.5183 -1.1823
  881SOL    HW2 2643   1.332   1.483   0.906 -0.0816 -0.1021  0.4914
  882SOL     OW 2644   2.671   1.038   2.507 -0.3018  0.2484 -0.4286
  882SOL    HW1 2645   2.666   1.043   2.405  1.6500  1.2590  4.8358
  882SOL    HW2 2646   2.694   0.940   2.533  3.4930 -1.1800  0.0064
  883SOL     OW 2647   1.335   0.239   1.093 -0.1333  0.5832  0.2038
  883SOL    HW1 2648   1.350   0.139   1.065  1.8048 -3.3770 -0.9996
  883SOL    HW2 2649   1.372   0.309   1.026 -2.0048  0.7536  1.3745
  884SOL     OW 2650   0.081   2.895   1.036  0.2185  0.2805  0.0353
  884SOL    HW1 2651   0.081   2.994   1.014  1.5818 -1.8318 -0.2811
  884SOL    HW2 2652   0.110   2.876   1.132  0.2815  1.9605  2.0854
  885SOL     OW 2653   1.167   1.353   1.361  0.4008 -0.1478  0.0741
  885SOL    HW1 2654   1.124   1.300   1.436 -2.4710  0.4612  3.2496
  885SOL    HW2 2655   1.266   1.361   1.373  0.5672 -1.6126 -3.0485
  886SOL     OW 2656   1.052   1.047   2.848 -0.3659  0.2055 -0.4237
  886SOL    HW1 2657   1.050   1.013   2.945 -1.0189 -1.1345 -0.0363
  886SOL    HW2 2658   1.143   1.089   2.822  0.1445 -0.3615 -1.3341
  887SOL     OW 2659   1.290   0.769   0.711  0.7034  0.4142  0.4457
  887SOL    HW1 2660   1.366   0.723   0.661  0.7210 -2.6085 -2.8705
  887SOL    HW2 2661   1.244   0.834   0.649  0.5185  1.0817  4.1612
  888SOL     OW 2662   2.119   1.194   1.698  0.2929 -0.2150  0.0619
  888SOL    HW1 2663   2.149   1.215   1.597 -0.4850  0.7303 -1.4865
  888SOL    HW2 2664   2.198   1.167   1.755 -0.0597  1.1417  0.2083
  889SOL     OW 2665   2.681   2.255   1.036  0.1960 -0.2369  0.0330
  889SOL    HW1 2666   2.606   2.201   0.998 -0.3767 -1.7553  0.0245
  889SOL    HW2 2667   2.644   2.300   1.119  2.2483  1.2191 -0.4330
  890SOL     OW 2668   1.491   1.861   0.736 -0.0395 -0.3976 -0.1547
  890SOL    HW1 2669   1.589   1.832   0.736 -2.1037 -1.6383  2.4781
  890SOL    HW2 2670   1.434   1.784   0.714  2.7738 -0.5411  1.1139
  891SOL     OW 2671   2.550   0.472   2.296 -0.2342 -0.0118 -0.0521
  891SOL    HW1 2672   2.629   0.415   2.334  4.6821 -0.6981  2.2446
  891SOL    HW2 2673   2.473   0.417   2.272  3.2806  2.4718  0.5469
  892SOL     OW 2674   0.493   0.186   1.795 -0.4570 -0.4701  0.3280
  892SOL    HW1 2675   0.443   0.268   1.834  0.2986 -1.6367  0.1352
  892SOL    HW2 2676   0.471   0.173   1.695  0.0450 -0.4389 -0.9041
  893SOL     OW 2677   1.246   0.350   2.307 -0.1821 -0.4494  0.2436
  893SOL    HW1 2678   1.285   0.278   2.248  0.7767 -0.2587  0.2801
  893SOL    HW2 2679   1.288   0.346   2.396  0.1201 -0.4656 -1.1738
  894SOL     OW 2680   2.656   0.516   0.674 -0.0284  0.1271  0.3061
  894SOL    HW1 2681   2.743   0.485   0.721  2.2760 -0.0672 -0.7407
  894SOL    HW2 2682   2.625   0.602   0.716 -1.0858 -1.0152 -1.8414
  895SOL     OW 2683   1.856   2.198   2.459  0.1603  0.0391  0.2841
  895SOL    HW1 2684   1.940   2.231   2.420 -0.6270 -1.0336  2.8678
  895SOL    HW2 2685   1.859   2.096   2.465 -1.5587 -2.5990  1.2631
  896SOL     OW 2686   1.880   0.220   1.321 -0.3052 -0.1300  0.7367
  896SOL    HW1 2687   1.916   0.250   1.411 -2.0319  0.2674  2.1706
  896SOL    HW2 2688   1.791   0.175   1.333 -0.4503  2.0480 -2.4688
  897SOL     OW 2689   0.615   1.671   1.818 -0.4249  0.5413 -0.4218
  897SOL    HW1 2690   0.601   1.730   1.741 -2.4547 -2.6173  3.8132
  897SOL    HW2 2691   0.693   1.605   1.803 -0.4137  0.9207 -0.0209
  898SOL     OW 2692   2.009   1.493   1.970 -0.2453 -0.1010 -0.0419
  898SOL    HW1 2693   2.092   1.545   1.944  1.6933  0.2713  1.0954
  898SOL    HW2 2694   2.028   1.392   1.966 -3.2393  2.4444 -0.4571
  899SOL     OW 2695   1.710   2.125   0.965  0.5987 -0.2048 -0.4152
  899SOL    HW1 2696   1.788   2.139   1.028  2.9393 -0.0877  0.7331
  899SOL    HW2 2697   1.635   2.188   0.992 -2.2738 -1.7122  0.4908
  900SOL     OW 2698   0.982   2.812   2.673  0.0049 -0.0630  0.6415
  900SOL    HW1 2699   1.020   2.737   2.734  3.1091 -1.3232  2.3528
  900SOL    HW2 2700   0.938   2.771   2.591 -2.1411  0.2612  0.4897
  901SOL     OW 2701   1.133   1.402   2.312 -0.1215 -0.3539  0.0442
  901SOL    HW1 2702   1.112   1.489   2.363  0.7751 -0.0671  1.1215
  901SOL    HW2 2703   1.209   1.414   2.245 -0.7175 -1.2299 -1.9882
  902SOL     OW 2704   2.130   0.475   3.021  0.2309 -0.5134 -0.1842
  902SOL    HW1 2705   2.181   0.543   2.960  1.5311  0.6060 -3.1162
  902SOL    HW2 2706   2.157   0.473   0.032 -0.8605 -1.4602 -0.8311
  903SOL     OW 2707   2.305   0.843   2.059  0.1530 -0.4240 -0.4933
  903SOL    HW1 2708   2.394   0.839   2.011 -1.8209  1.5608 -0.5619
  903SOL    HW2 2709   2.262   0.934   2.055  0.1198  0.3024 -1.6208
  904SOL     OW 2710   1.852   1.098   1.665  0.3663  0.3632 -0.1740
  904SOL    HW1 2711   1.856   1.055   1.575  0.5787  1.3218 -1.9482
  904SOL    HW2 2712   1.943   1.133   1.679 -2.5732 -0.1723  1.8328
  905SOL     OW 2713   2.195   0.631   0.615 -0.5883 -0.4144  0.1374
  905SOL    HW1 2714   2.281   0.581   0.583  0.2120  0.8244 -1.0153
  905SOL    HW2 2715   2.177   0.605   0.710 -0.9273 -0.2631 -1.9677
  906SOL     OW 2716   2.337   1.775   0.555 -0.4960  0.3378  0.1658
  906SOL    HW1 2717   2.258   1.845   0.566  0.1757  0.2424 -2.2066
  906SOL    HW2 2718   2.382   1.754   0.641 -1.6734  0.8456  1.7977
  907SOL     OW 2719   1.351   2.792   0.744 -0.5298 -0.4103 -0.2049
  907SOL    HW1 2720   1.369   2.708   0.795 -0.0190 -0.1874  0.3419
  907SOL    HW2 2721   1.413   2.867   0.775 -2.8171 -1.2392 -0.9988
  908SOL     OW 2722   1.593   2.370   2.479  0.7881  0.4015 -0.3783
  908SOL    HW1 2723   1.616   2.313   2.395 -2.0859  0.2031 -0.1030
  908SOL    HW2 2724   1.604   2.471   2.457  0.3877 -2.7615 -0.0781
  909SOL     OW 2725   2.337   0.516   1.946 -0.6614 -0.2906  0.3930
  909SOL    HW1 2726   2.258   0.546   2.002  1.8374 -0.0955  1.4177
  909SOL    HW2 2727   2.376   0.593   1.886  1.1358  0.2794 -0.1262
  910SOL     OW 2728   1.133   0.100   2.467  0.0575  0.4039 -0.3480
  910SOL    HW1 2729   1.114   0.189   2.519  1.3794 -1.0242  0.6435
  910SOL    HW2 2730   1.233   0.078   2.467 -1.3857 -2.0516 -0.9021
  911SOL     OW 2731   2.935   1.052   2.886  0.0168  0.5116  0.2509
  911SOL    HW1 2732   3.001   1.012   2.956  0.0945 -1.7159  0.2187
  911SOL    HW2 2733   2.953   1.153   2.873 -0.5153 -0.5684 -0.8705
  912SOL     OW 2734   2.980   2.233   1.235 -0.1780 -0.3552 -0.3446
  912SOL    HW1 2735   2.924   2.154   1.202  0.7766 -0.2135  0.3447
  912SOL    HW2 2736   2.937   2.287   1.310  0.2452 -1.4941 -1.1893
  913SOL     OW 2737   2.488   1.674   2.419 -0.5123  0.3581 -0.2256
  913SOL    HW1 2738   2.402   1.711   2.452  0.8655 -0.9901 -2.3741
  913SOL    HW2 2739   2.571   1.722   2.455 -1.9285 -0.1583  1.2685
  914SOL     OW 2740   1.937   1.802   0.637 -0.2246  0.5021  0.0756
  914SOL    HW1 2741   1.967   1.704   0.626  0.2009 -2.4320 -0.6223
  914SOL    HW2 2742   1.852   1.813   0.584  2.1058 -1.9404 -0.3876
  915SOL     OW 2743   0.030   2.741   2.198  0.2291 -0.0622 -0.5792
  915SOL    HW1 2744   0.067   2.728   2.294  0.4731  2.6614  0.8248
  915SOL    HW2 2745   0.104   2.705   2.138 -0.5188  0.9225  2.2618
  916SOL     OW 2746   0.820   2.968   1.002  0.2810  0.3702  0.1560
  916SOL    HW1 2747   0.899   2.899   1.012 -0.5571 -0.7298  0.0061
  916SOL    HW2 2748   0.734   2.915   0.985 -2.4357 -0.2623  1.9444
  917SOL     OW 2749   2.243   0.562   2.683  0.9057 -0.5107 -0.1249
  917SOL    HW1 2750   2.226   0.616   2.769 -1.8699  1.0813  4.7604
  917SOL    HW2 2751   2.319   0.606   2.634 -0.4434  2.4621  1.7739
  918SOL     OW 2752   1.619   2.605   2.810 -0.3734 -0.1641 -0.1476
  918SOL    HW1 2753   1.609   2.634   2.909 -2.0285  1.1274  0.0389
  918SOL    HW2 2754   1.674   2.522   2.800 -0.4955  0.5556  0.7102
  919SOL     OW 2755   1.521   2.289   1.041  0.7812 -0.4887  0.3947
  919SOL    HW1 2756   1.465   2.357   0.987  1.4012 -0.1675 -0.7445
  919SOL    HW2 2757   1.447   2.229   1.081  0.6013  0.4366  0.4527
  920SOL     OW 2758   1.365   0.031   2.648  0.3633  0.8226  0.2182
  920SOL    HW1 2759   1.333   0.031   2.745  0.4750  1.4227 -0.1324
  920SOL    HW2 2760   1.365   3.023   2.617 -0.0819 -1.5195  1.0228
  921SOL     OW 2761   0.119   0.937   2.555  0.1184 -0.1224 -0.5332
  921SOL    HW1 2762   0.196   0.868   2.560  0.7926  0.0810 -1.4127
  921SOL    HW2 2763   0.061   0.918   2.472 -1.6915 -4.0594  0.2175
  922SOL     OW 2764   3.062   1.945   1.455 -0.5447 -0.4221 -0.1133
  922SOL    HW1 2765   2.987   1.928   1.394 -0.3086 -1.8909  3.5084
  922SOL    HW2 2766   3.070   1.866   1.520  0.2548  2.3978 -2.0483
  923SOL     OW 2767   0.284   1.564   2.428 -0.1162  0.3554 -0.0408
  923SOL    HW1 2768   0.328   1.599   2.348 -2.3997 -1.6427  3.9867
  923SOL    HW2 2769   0.301   1.466   2.439 -1.0863  0.7272  0.2541
  924SOL     OW 2770   1.642   0.186   2.234  0.1818  0.0454 -0.3927
  924SOL    HW1 2771   1.697   0.211   2.153 -0.1720 -1.5472 -1.8788
  924SOL    HW2 2772   1.652   0.089   2.266 -0.2103 -0.8330  2.2128
  925SOL     OW 2773   3.041   1.554   0.854  0.0311 -0.0514  0.1763
  925SOL    HW1 2774   3.085   1.610   0.782 -1.6325 -0.1132  0.2637
  925SOL    HW2 2775   0.009   1.552   0.941 -0.9042  2.2677 -1.0977
  926SOL     OW 2776   2.378   0.776   0.986  0.3761 -0.4038 -0.1414
  926SOL    HW1 2777   2.415   0.695   1.033  1.0879  1.8950  0.1713
  926SOL    HW2 2778   2.436   0.855   1.007  0.7205 -1.3296  0.9213
  927SOL     OW 2779   1.664   0.591   1.161  0.0906  0.2466 -0.0310
  927SOL    HW1 2780   1.612   0.652   1.099 -0.5686 -2.1510 -1.1808
  927SOL    HW2 2781   1.593   0.532   1.214 -0.0903 -2.1387  1.0444
  928SOL     OW 2782   2.856   0.790   2.148 -0.0211 -0.3889 -1.0118
  928SOL    HW1 2783   2.912   0.707   2.167  0.6017 -1.2278  3.0710
  928SOL    HW2 2784   2.764   0.762   2.125  0.9238  0.8626  0.0686
  929SOL     OW 2785   2.206   0.896   1.181 -0.1932 -0.3658  0.4581
  929SOL    HW1 2786   2.274   0.857   1.118 -1.2081  1.7145 -2.0003
  929SOL    HW2 2787   2.121   0.914   1.122  1.3862 -0.2265 -0.2039
  930SOL     OW 2788   1.687   2.345   1.258 -0.3448  0.6892  0.5241
  930SOL    HW1 2789   1.671   2.263   1.318 -1.0405 -2.6158  0.7586
  930SOL    HW2 2790   1.653   2.322   1.164  2.0240 -3.0928 -2.5271
  931SOL     OW 2791   1.878   1.203   1.292  0.3680  0.1522 -0.0143
  931SOL    HW1 2792   1.952   1.234   1.228  2.9113 -2.3743 -0.0324
  931SOL    HW2 2793   1.875   1.098   1.307  0.5687 -1.4256  1.4752
  932SOL     OW 2794   0.022   0.932   1.602  0.1477  0.0774 -0.1817
  932SOL    HW1 2795   0.069   0.850   1.568 -1.2211  1.8808 -0.4778
  932SOL    HW2 2796   0.065   0.973   1.686  3.2336 -0.7655  2.2268
  933SOL     OW 2797   2.195   1.852   1.510  0.4087  0.7302  0.1479
  933SOL    HW1 2798   2.123   1.928   1.505 -0.8491 -2.0376 -0.9718
  933SOL    HW2 2799   2.229   1.842   1.607  0.8571 -2.2480  1.5777
  934SOL     OW 2800   1.252   2.559   1.889 -0.2842  0.6619 -0.1868
  934SOL    HW1 2801   1.184   2.529   1.820 -0.1030  2.3058  0.0037
  934SOL    HW2 2802   1.214   2.623   1.955 -0.8873  0.8405  1.0796
  935SOL     OW 2803   0.029   1.194   1.425  0.0633  0.4889  0.1187
  935SOL    HW1 2804   0.091   1.157   1.500  1.1901  1.6175 -1.9300
  935SOL    HW2 2805   0.040   1.131   1.349 -3.1942 -0.9990  1.1229
  936SOL     OW 2806   2.803   0.514   1.276  0.2919 -0.0361 -0.0250
  936SOL    HW1 2807   2.750   0.484   1.201  1.6060  1.0674  5.3103
  936SOL    HW2 2808   2.746   0.564   1.348  0.5011  3.2864  2.1488
  937SOL     OW 2809   1.281   0.361   1.556  0.2319 -0.1669  0.0137
  937SOL    HW1 2810   1.236   0.373   1.648 -0.4142 -1.3275  2.0915
  937SOL    HW2 2811   1.280   0.264   1.525  0.6391 -0.4748  0.3971
  938SOL     OW 2812   0.413   2.917   0.920 -0.2986 -0.0052 -0.1696
  938SOL    HW1 2813   0.350   2.895   0.842 -0.9301 -1.0130 -0.5014
  938SOL    HW2 2814   0.476   2.991   0.895 -1.1875 -0.6060 -1.1430
  939SOL     OW 2815   2.959   2.070   2.770 -0.0472 -0.2442  0.2863
  939SOL    HW1 2816   3.014   2.010   2.713  0.2429  1.3501 -1.9500
  939SOL    HW2 2817   2.995   2.165   2.761 -1.2018 -1.7943 -2.6507
  940SOL     OW 2818   1.650   1.943   3.053  0.1087 -0.0622  0.2663
  940SOL    HW1 2819   1.674   2.032   0.010 -0.1849  1.8891  0.4382
  940SOL    HW2 2820   1.698   1.925   2.967 -2.6797  0.0768  0.7245
  941SOL     OW 2821   1.694   2.633   0.592 -0.2446  0.1280  0.2334
  941SOL    HW1 2822   1.759   2.712   0.580 -0.4960 -0.3944  0.5646
  941SOL    HW2 2823   1.628   2.629   0.517  0.4713 -1.0346  1.1047
  942SOL     OW 2824   2.053   1.756   0.881 -0.2910 -0.2287  0.4745
  942SOL    HW1 2825   2.127   1.824   0.892  0.4432 -1.9745  0.4523
  942SOL    HW2 2826   1.992   1.784   0.804  3.7355 -1.0786 -2.2262
  943SOL     OW 2827   1.809   0.472   1.583  0.5251 -0.4394 -0.1277
  943SOL    HW1 2828   1.733   0.416   1.541  1.9248  0.0480 -0.8022
  943SOL    HW2 2829   1.887   0.484   1.522 -2.2959  0.6616  1.4553
  944SOL     OW 2830   1.411   0.789   1.798 -0.0124 -0.1234 -0.1687
  944SOL    HW1 2831   1.409   0.880   1.845  0.9327 -2.9525 -0.6614
  944SOL    HW2 2832   1.488   0.779   1.729  1.0339 -1.1315 -1.3275
  945SOL     OW 2833   2.171   2.841   1.246  0.1533  0.6435 -0.1914
  945SOL    HW1 2834   2.243   2.856   1.320  1.3051 -0.4409  2.7964
  945SOL    HW2 2835   2.098   2.909   1.245 -0.3147 -0.1793 -1.4058
  946SOL     OW 2836   0.774   1.507   0.358 -0.4538 -0.2094 -0.2173
  946SOL    HW1 2837   0.843   1.492   0.284 -0.9507  0.6192  0.5129
  946SOL    HW2 2838   0.727   1.595   0.331  0.9955  0.6227 -0.1656
  947SOL     OW 2839   0.990   2.743   0.995  0.0525  0.0838 -0.3308
  947SOL    HW1 2840   1.046   2.691   1.059  1.8506  1.4762  0.2275
  947SOL    HW2 2841   0.927   2.689   0.937 -2.8691 -0.4945 -0.7746
  948SOL     OW 2842   0.365   1.857   1.353  0.4752  0.2198 -0.1054
  948SOL    HW1 2843   0.335   1.909   1.273  0.9351 -1.3754  1.8751
  948SOL    HW2 2844   0.465   1.844   1.349 -0.4593 -1.8046 -2.6537
  949SOL     OW 2845   0.816   1.283   1.824  0.3574  0.3558  0.2575
  949SOL    HW1 2846   0.748   1.255   1.898 -1.2879  2.0482  2.2355
  949SOL    HW2 2847   0.806   1.233   1.738 -0.7065 -0.1643 -0.7480
  950SOL     OW 2848   0.645   0.681   1.322  0.0841 -0.7975 -0.3503
  950SOL    HW1 2849   0.736   0.728   1.307 -1.1781 -1.0596 -0.5762
  950SOL    HW2 2850   0.567   0.749   1.309 -1.6738  2.1315  1.0730
  951SOL     OW 2851   0.588   2.090   1.991  0.0379  0.6219  0.0185
  951SOL    HW1 2852   0.564   2.099   1.893  0.5075 -2.2771  2.1374
  951SOL    HW2 2853   0.682   2.052   1.998 -1.2196  3.0309 -2.6321
  952SOL     OW 2854   0.989   1.774   3.003  0.8390  0.8697  0.2033
  952SOL    HW1 2855   0.911   1.710   2.989 -3.7985  0.2691 -0.4022
  952SOL    HW2 2856   1.008   1.805   0.012  0.4710  0.6057 -0.9418
  953SOL     OW 2857   1.054   2.828   2.997  0.1359  0.3877  0.1378
  953SOL    HW1 2858   0.958   2.807   2.981  2.4992 -0.4058  1.5497
  953SOL    HW2 2859   1.111   2.748   2.981  0.3729 -1.2146  0.5241
  954SOL     OW 2860   1.798   1.306   2.827  0.2006  0.7172 -0.0570
  954SOL    HW1 2861   1.767   1.281   2.921  0.3720 -0.9984 -1.4430
  954SOL    HW2 2862   1.863   1.384   2.833  0.0027 -1.8846 -0.2707
  955SOL     OW 2863   0.072   2.870   0.123 -0.8540  0.4820 -0.5126
  955SOL    HW1 2864   0.159   2.819   0.117  0.9887  0.4887 -1.0601
  955SOL    HW2 2865   0.055   2.917   0.033 -1.5496  2.4401 -1.0236
  956SOL     OW 2866   1.179   1.011   1.393  0.3039 -0.5608  0.1183
  956SOL    HW1 2867   1.256   1.054   1.346  2.9405  0.5810  0.3893
  956SOL    HW2 2868   1.148   1.068   1.471 -1.4154  2.4854  0.2692
  957SOL     OW 2869   1.476   2.054   1.883 -0.1246  0.1104 -0.0285
  957SOL    HW1 2870   1.564   2.036   1.933  3.3372 -0.6300  1.5573
  957SOL    HW2 2871   1.474   2.134   1.819 -0.6062 -1.0633 -2.3865
  958SOL     OW 2872   1.215   2.055   1.649 -0.0444 -0.1518 -0.0445
  958SOL    HW1 2873   1.289   2.113   1.687  2.8075  1.3751  1.3267
  958SOL    HW2 2874   1.208   2.057   1.551  1.7688  0.8388  3.0609
  959SOL     OW 2875   1.696   1.269   1.090 -0.1484 -0.1237 -0.0722
  959SOL    HW1 2876   1.765   1.252   1.164 -0.8173 -0.7576 -3.0248
  959SOL    HW2 2877   1.679   1.188   1.030 -1.7529 -0.1496 -0.7716
  960SOL     OW 2878   0.382   1.303   0.050 -0.0083  0.1961 -0.0648
  960SOL    HW1 2879   0.407   1.384   0.108  0.4212 -4.4509 -0.9607
  960SOL    HW2 2880   0.384   1.218   0.108  0.0731 -0.2364  2.1625
  961SOL     OW 2881   0.785   1.447   2.181 -0.7640  0.2986  0.0535
  961SOL    HW1 2882   0.720   1.499   2.235  0.2965 -0.4798  0.3743
  961SOL    HW2 2883   0.846   1.384   2.236  0.6914 -0.7380 -1.6043
  962SOL     OW 2884   1.325   1.631   0.640  0.0089  0.4233  0.1237
  962SOL    HW1 2885   1.340   1.546   0.697  1.0279 -3.8884  0.2168
  962SOL    HW2 2886   1.225   1.660   0.642 -1.0756  0.3735  0.0905
  963SOL     OW 2887   1.647   1.950   2.556  0.3872 -0.3891  0.1685
  963SOL    HW1 2888   1.658   1.909   2.461  0.2081 -1.4717 -2.0566
  963SOL    HW2 2889   1.554   1.919   2.589 -0.5211 -1.4917  0.3321
  964SOL     OW 2890   0.772   0.043   0.276  0.3335  0.4255 -0.1678
  964SOL    HW1 2891   0.737   3.087   0.360  1.1649  0.7353  0.2766
  964SOL    HW2 2892   0.781   3.058   0.206  1.5369 -0.3228 -0.7637
  965SOL     OW 2893   0.587   2.563   0.900  0.3125 -0.3752 -0.0301
  965SOL    HW1 2894   0.599   2.607   0.809 -2.3737  0.9163 -1.4261
  965SOL    HW2 2895   0.603   2.636   0.971 -3.4553  0.2660  1.7166
  966SOL     OW 2896   0.545   1.928   2.734 -0.5109  0.5982  0.0681
  966SOL    HW1 2897   0.483   1.994   2.783  0.6832 -0.2621  0.7459
  966SOL    HW2 2898   0.489   1.851   2.694 -0.9189  1.7468  2.5435
  967SOL     OW 2899   3.032   2.747   2.774  0.3760 -0.1816  0.3795
  967SOL    HW1 2900   3.029   2.791   2.683 -0.2034 -1.5717  0.8366
  967SOL    HW2 2901   3.056   2.821   2.845 -0.5498 -1.7270  1.0456
  968SOL     OW 2902   2.099   0.645   0.317 -0.3855  0.8984 -0.2233
  968SOL    HW1 2903   2.113   0.548   0.298  2.2049  2.3713  2.0779
  968SOL    HW2 2904   2.066   0.695   0.239  1.3641 -0.4117  2.4639
  969SOL     OW 2905   0.371   1.142   1.867 -0.7045 -0.2479  0.0267
  969SOL    HW1 2906   0.433   1.202   1.812 -0.0434  2.0140 -0.2163
  969SOL    HW2 2907   0.428   1.081   1.924 -0.3520 -1.3491 -1.5171
  970SOL     OW 2908   2.433   1.347   1.137 -0.3521  0.8070 -0.3146
  970SOL    HW1 2909   2.348   1.302   1.174 -0.8117  0.1542 -1.2771
  970SOL    HW2 2910   2.505   1.275   1.123  1.2653  0.4737 -0.2178
  971SOL     OW 2911   2.314   0.192   1.054  0.8842 -0.2968  0.1932
  971SOL    HW1 2912   2.378   0.222   0.987 -2.1066 -1.6006 -0.4883
  971SOL    HW2 2913   2.297   0.092   1.037 -0.2940  0.7402 -1.8480
  972SOL     OW 2914   2.991   2.839   1.829  0.1631  0.0339 -0.2113
  972SOL    HW1 2915   3.081   2.796   1.838 -3.3650 -0.6226 -0.4583
  972SOL    HW2 2916   2.975   2.837   1.731 -1.1641  0.5870  4.0695
  973SOL     OW 2917   0.061   0.525   0.115  0.0702 -0.0941  0.9223
  973SOL    HW1 2918   0.134   0.593   0.143  0.6106  2.5379 -0.0344
  973SOL    HW2 2919   0.100   0.445   0.066  0.9500  2.3036  1.8923
  974SOL     OW 2920   1.836   1.554   2.168  0.3510  0.0963 -0.1723
  974SOL    HW1 2921   1.849   1.655   2.157 -1.6596  1.9772 -0.8015
  974SOL    HW2 2922   1.893   1.506   2.101 -0.5633  3.3154 -0.1208
  975SOL     OW 2923   2.943   2.815   1.568  0.6826 -0.1947  0.3043
  975SOL    HW1 2924   2.971   2.901   1.518  2.2920 -2.2305  0.8865
  975SOL    HW2 2925   2.879   2.756   1.516  0.1316  1.0781 -0.7828
  976SOL     OW 2926   0.304   2.099   2.283 -0.2928 -0.2820 -0.1225
  976SOL    HW1 2927   0.404   2.117   2.306  0.6914  1.8836  2.0593
  976SOL    HW2 2928   0.287   2.013   2.233  0.7346  0.1816  3.1249
  977SOL     OW 2929   0.915   2.667   0.585 -0.3941  0.3652  0.4706
  977SOL    HW1 2930   0.887   2.594   0.522  1.7978 -0.2034 -0.6441
  977SOL    HW2 2931   0.980   2.717   0.528 -0.2168 -0.1272  0.0701
  978SOL     OW 2932   0.058   1.725   2.462 -0.3428 -0.4410 -0.1411
  978SOL    HW1 2933   0.153   1.683   2.455  0.5920 -0.6644 -0.3556
  978SOL    HW2 2934   3.076   1.669   2.518 -2.8538 -0.3649  1.9919
  979SOL     OW 2935   1.644   2.482   1.498 -0.3965 -0.6738  0.0138
  979SOL    HW1 2936   1.673   2.415   1.568 -1.3245  2.2048  2.2847
  979SOL    HW2 2937   1.673   2.450   1.405 -0.9243 -0.2659 -4.3250
  980SOL     OW 2938   0.757   1.621   3.002  0.0749  0.3146  0.1961
  980SOL    HW1 2939   0.774   1.530   3.042 -0.6397 -1.1891 -0.7379
  980SOL    HW2 2940   0.663   1.653   3.035 -1.2323  1.7231 -0.5576
  981SOL     OW 2941   2.154   3.026   2.213  0.2148 -0.2606  0.1039
  981SOL    HW1 2942   2.246   3.051   2.186  0.6634  0.2881  0.8569
  981SOL    HW2 2943   2.146   2.924   2.220 -2.6147  1.3522  0.9984
  982SOL     OW 2944   0.110   0.266   2.815  0.8097 -0.1851  0.7192
  982SOL    HW1 2945   0.045   0.203   2.771  0.3658 -4.2945  0.3588
  982SOL    HW2 2946   0.196   0.266   2.761  2.1741 -1.4915 -1.3088
  983SOL     OW 2947   2.000   1.236   1.950 -0.1551 -0.1313 -0.0442
  983SOL    HW1 2948   2.026   1.215   1.857  0.6192  0.6671  0.0351
  983SOL    HW2 2949   1.910   1.194   1.970  1.9919  1.6012  0.4267
  984SOL     OW 2950   1.294   0.560   1.916  0.0056  0.3605 -0.1873
  984SOL    HW1 2951   1.275   0.584   2.017  0.0859 -0.4870  3.7598
  984SOL    HW2 2952   1.351   0.637   1.872  0.2154 -1.6204 -1.0161
  985SOL     OW 2953   1.620   1.452   1.740 -0.3860 -0.2690  0.5980
  985SOL    HW1 2954   1.522   1.481   1.732  0.1098 -2.2050  0.1718
  985SOL    HW2 2955   1.652   1.403   1.658 -0.6604 -0.1119  1.0335
  986SOL     OW 2956   1.999   0.253   1.623  0.4003 -0.3505 -0.4876
  986SOL    HW1 2957   2.065   0.228   1.697 -0.6456 -1.3766  0.2114
  986SOL    HW2 2958   1.937   0.329   1.654 -1.9418 -1.0132 -2.3199
  987SOL     OW 2959   2.217   0.404   1.508 -0.2021  0.5476 -0.2445
  987SOL    HW1 2960   2.193   0.320   1.562 -0.7208  0.8815  3.3314
  987SOL    HW2 2961   2.131   0.458   1.485 -4.0507  2.8291 -0.4619
  988SOL     OW 2962   2.608   0.627   2.083 -0.0535 -0.0559 -0.1676
  988SOL    HW1 2963   2.645   0.569   2.006 -1.8668 -1.4842 -0.0926
  988SOL    HW2 2964   2.584   0.576   2.166  1.3150 -0.3010 -0.6355
  989SOL     OW 2965   2.218   1.924   2.867 -0.1500 -0.4273  0.3164
  989SOL    HW1 2966   2.162   1.947   2.785  0.5900 -0.4750 -1.0880
  989SOL    HW2 2967   2.164   1.948   2.947  0.7182  0.7541 -2.2436
  990SOL     OW 2968   1.097   0.510   2.943  0.2714 -0.5457  0.3166
  990SOL    HW1 2969   1.109   0.410   2.922  1.0092  0.2519  0.0986
  990SOL    HW2 2970   1.152   0.563   2.874 -0.8258  2.6891  0.8404
  991SOL     OW 2971   1.455   0.790   0.194  0.2084  0.2763  0.0632
  991SOL    HW1 2972   1.554   0.773   0.208  0.6344  0.9298 -2.7818
  991SOL    HW2 2973   1.431   0.792   0.095 -0.6330  1.1532  1.1537
  992SOL     OW 2974   2.350   1.648   2.823 -0.0817 -0.0734 -0.2826
  992SOL    HW1 2975   2.298   1.574   2.774 -1.0991  0.6260 -0.5035
  992SOL    HW2 2976   2.297   1.736   2.828  0.9937  0.5228 -2.0173
  993SOL     OW 2977   0.409   0.410   0.516  0.3969  0.5881 -0.5496
  993SOL    HW1 2978   0.420   0.320   0.462 -0.1698 -1.7347 -1.7425
  993SOL    HW2 2979   0.373   0.486   0.457  0.7677 -0.4330 -0.9356
  994SOL     OW 2980   0.120   1.686   2.038 -0.3555  0.5695 -0.0299
  994SOL    HW1 2981   0.053   1.675   2.114 -1.0069  1.9697  0.4786
  994SOL    HW2 2982   0.139   1.600   1.984  0.3139  0.2690 -1.9313
  995SOL     OW 2983   1.875   1.353   2.392 -0.1410  0.5121  0.0940
  995SOL    HW1 2984   1.896   1.412   2.311 -1.0419 -1.4089  1.5555
  995SOL    HW2 2985   1.953   1.288   2.405  0.5179 -0.4235  0.7455
  996SOL     OW 2986   1.895   1.905   2.423 -1.0424  1.0003 -0.1257
  996SOL    HW1 2987   1.895   1.871   2.328  0.8134  1.2875  1.1602
  996SOL    HW2 2988   1.856   1.836   2.483 -0.2079  1.2477  1.2644
  997SOL     OW 2989   2.484   1.407   1.539  0.6313  0.0184 -0.1662
  997SOL    HW1 2990   2.503   1.479   1.469  1.5932 -0.5205 -0.9494
  997SOL    HW2 2991   2.560   1.395   1.610 -1.2381  0.2197  2.4852
  998SOL     OW 2992   2.408   1.411   0.321  0.9649 -0.5943  0.1424
  998SOL    HW1 2993   2.378   1.317   0.294  0.3187  0.2058 -0.0717
  998SOL    HW2 2994   2.338   1.478   0.287 -1.7551  1.8905 -0.1579
  999SOL     OW 2995   2.606   2.712   0.607  0.1609 -0.1852  0.2610
  999SOL    HW1 2996   2.623   2.719   0.709  2.4891  2.1574  1.2157
  999SOL    HW2 2997   2.667   2.778   0.561  1.0227 -0.9935  0.0001
 1000SOL     OW 2998   0.496   3.082   1.984  0.1848 -0.0172 -0.0280
 1000SOL    HW1 2999   0.482   0.066   1.915 -2.1112  0.5258  0.6200
 1000SOL    HW2 3000   0.477   0.034   2.079 -0.4017 -1.5142  0.0737
   3.08735   3.08735   3.08735
