1000 SPC/Fw water molecules t= 253.00000 step= 253000
 3000
    1SOL     OW    1   2.780   2.450   0.901  0.1888  0.1852  0.8546
    1SOL    HW1    2   2.770   2.354   0.929 -1.8624 -0.4380  1.3718
    1SOL    HW2    3   2.713   2.473   0.822 -3.1437  2.7703 -2.7641
    2SOL     OW    4   1.714   1.901   0.930  0.2396  0.7952  0.2088
    2SOL    HW1    5   1.649   1.979   0.943  1.7963  0.3567  0.1992
    2SOL    HW2    6   1.738   1.861   1.015 -0.1930  2.3670 -3.6953
    3SOL     OW    7   1.222   2.635   2.762 -0.2679 -0.0255  0.1445
    3SOL    HW1    8   1.268   2.722   2.789 -0.3641  1.2888 -0.7897
    3SOL    HW2    9   1.124   2.642   2.779 -0.4218  1.2109 -1.6627
    4SOL     OW   10   1.922   1.891   1.853  0.3016  0.3901 -0.5058
    4SOL    HW1   11   1.982   1.890   1.933  0.2057 -1.3232 -2.1548
    4SOL    HW2   12   1.939   1.979   1.803 -1.6386 -0.9605  0.7068
    5SOL     OW   13   1.451   1.155   1.559 -0.5544 -0.0330  0.0942
    5SOL    HW1   14   1.457   1.256   1.537  0.1880  0.0642 -1.1149
    5SOL    HW2   15   1.515   1.105   1.500 -0.1707  2.2987 -1.0076
    6SOL     OW   16   2.530   0.126   0.147  0.2332  0.0772  0.1633
    6SOL    HW1   17   2.571   0.135   0.054 -0.6537  0.3815  3.3988
    6SOL    HW2   18   2.432   0.127   0.134 -0.7605 -0.8102  0.0729
    7SOL     OW   19   2.595   1.472   1.314 -0.2240 -0.0034  0.0709
    7SOL    HW1   20   2.650   1.401   1.366 -1.6109 -1.6927  1.0040
    7SOL    HW2   21   2.645   1.558   1.300 -0.5865 -0.6519  0.1397
    8SOL     OW   22   1.172   0.201   0.901 -0.1857  0.1585 -0.2015
    8SOL    HW1   23   1.081   0.165   0.877  1.5441 -0.7073 -2.0934
    8SOL    HW2   24   1.239   0.170   0.831  1.3676 -2.0172  0.1524
    9SOL     OW   25   1.550   0.147   2.456  0.9271 -0.3293  0.6283
    9SOL    HW1   26   1.557   0.242   2.414 -1.2499  2.1650 -0.1188
    9SOL    HW2   27   1.617   0.137   2.532 -1.6699  0.9648 -0.3117
   10SOL     OW   28   0.696   2.005   0.671  0.1430 -0.1927 -0.3505
   10SOL    HW1   29   0.619   2.057   0.720 -1.2466  1.3941  2.2065
   10SOL    HW2   30   0.676   1.907   0.692 -1.2834  1.6469 -2.3621
   11SOL     OW   31   1.311   1.280   0.284  0.0222 -0.1390  0.3217
   11SOL    HW1   32   1.235   1.270   0.350 -0.3323 -2.6220  2.5725
   11SOL    HW2   33   1.316   1.381   0.258  0.5757  1.3722 -1.3730
   12SOL     OW   34   2.906   0.052   1.735  0.0217 -0.4333 -0.3708
   12SOL    HW1   35   2.883   0.119   1.810  0.9132  3.4532  0.1368
   12SOL    HW2   36   2.844   0.056   1.655  1.8088  0.4194 -0.3865
   13SOL     OW   37   1.631   0.299   0.473 -0.3293 -0.2977  0.2915
   13SOL    HW1   38   1.554   0.306   0.538  0.1188 -3.3451 -1.6804
   13SOL    HW2   39   1.699   0.237   0.510 -1.1394 -1.2231 -0.4794
   14SOL     OW   40   1.351   2.555   1.448  0.2109  0.2937 -0.1040
   14SOL    HW1   41   1.357   2.655   1.445  0.0680 -0.7957 -1.0342
   14SOL    HW2   42   1.417   2.501   1.390  1.2453 -1.1606 -1.4724
   15SOL     OW   43   2.578   1.258   1.573  0.3859  0.2611 -0.6002
   15SOL    HW1   44   2.648   1.268   1.499  1.0539 -0.8725  1.4545
   15SOL    HW2   45   2.614   1.287   1.668 -0.8950 -0.5219  0.7344
   16SOL     OW   46   1.882   2.538   0.474 -0.2385  0.1372 -0.0481
   16SOL    HW1   47   1.873   2.597   0.391  0.7464 -1.0165 -0.7214
   16SOL    HW2   48   1.860   2.595   0.559  2.2242  1.0626 -1.1411
   17SOL     OW   49   1.010   0.127   1.283  0.0508 -0.1290 -0.5486
   17SOL    HW1   50   0.999   0.218   1.235 -1.5541  0.2007 -3.1547
   17SOL    HW2   51   0.917   0.097   1.320 -2.9359 -3.7514 -0.2116
   18SOL     OW   52   1.556   0.763   2.751 -0.2505 -0.1597 -0.2572
   18SOL    HW1   53   1.627   0.731   2.820  0.1729  1.4826  1.4261
   18SOL    HW2   54   1.590   0.846   2.701  4.0241 -0.1210 -0.6378
   19SOL     OW   55   1.807   1.986   0.111 -0.0258  0.1134  0.5478
   19SOL    HW1   56   1.903   1.971   0.074 -0.2286  1.7545  0.6364
   19SOL    HW2   57   1.762   2.066   0.068  0.3104 -1.0431 -2.0393
   20SOL     OW   58   2.309   2.206   1.765  0.0496  0.1969 -0.3162
   20SOL    HW1   59   2.391   2.149   1.794 -0.4888 -0.0224  1.3835
   20SOL    HW2   60   2.232   2.189   1.827  3.6659  3.1766  0.1399
   21SOL     OW   61   0.965   1.762   0.082 -0.1119  0.0428 -0.4644
   21SOL    HW1   62   0.987   1.679   0.139 -2.7006 -1.5573  0.1581
   21SOL    HW2   63   0.893   1.817   0.129  2.8715 -2.7673  2.9269
   22SOL     OW   64   2.008   2.850   1.441  0.1206  0.2636 -0.0898
   22SOL    HW1   65   2.011   2.941   1.405  3.4700 -2.8141  0.7693
   22SOL    HW2   66   1.957   2.848   1.535  0.5400  0.8202  2.9260
   23SOL     OW   67   2.829   1.021   2.107 -0.2236 -0.0672 -0.1308
   23SOL    HW1   68   2.747   1.072   2.089  2.4691 -1.2935  2.1718
   23SOL    HW2   69   2.804   0.949   2.177  1.6403 -0.2798 -1.3955
   24SOL     OW   70   2.210   2.572   0.787 -0.0782 -0.1992 -0.2280
   24SOL    HW1   71   2.114   2.528   0.793 -1.5144  0.9743  0.2584
   24SOL    HW2   72   2.235   2.624   0.869 -1.2024 -2.0687 -3.4302
   25SOL     OW   73   1.056   2.718   2.478 -0.1394  0.0082 -0.3766
   25SOL    HW1   74   1.149   2.675   2.486  0.0618  0.6737 -0.1131
   25SOL    HW2   75   1.060   2.807   2.435  0.3812 -1.7384  0.5540
   26SOL     OW   76   1.935   2.653   3.084 -0.2806  0.8157 -0.7272
   26SOL    HW1   77   1.927   2.733   3.028 -0.9901 -1.1032  2.3617
   26SOL    HW2   78   1.854   2.644   0.044 -0.9611  2.6824  1.1709
   27SOL     OW   79   2.920   1.845   2.981 -1.1180 -0.2257 -0.0297
   27SOL    HW1   80   2.842   1.903   2.962 -0.6509  0.0530  1.0947
   27SOL    HW2   81   2.995   1.879   2.922  2.2802  1.3413  2.4702
   28SOL     OW   82   2.966   1.082   1.674  0.4948  0.1366 -0.0529
   28SOL    HW1   83   2.863   1.069   1.687  0.0753  0.9669  1.7856
   28SOL    HW2   84   2.982   1.165   1.617 -0.4212  0.5830 -0.7941
   29SOL     OW   85   2.552   2.428   1.253 -0.2004  0.1946  0.8056
   29SOL    HW1   86   2.542   2.503   1.320 -1.9362 -1.0757 -2.3022
   29SOL    HW2   87   2.650   2.400   1.247  0.5167  0.9797  0.0438
   30SOL     OW   88   1.620   0.669   0.085 -0.6438  0.3026  0.4028
   30SOL    HW1   89   1.557   0.593   0.060 -1.8715 -2.5854 -0.7449
   30SOL    HW2   90   1.625   0.676   0.187  3.6910  0.2047  0.6918
   31SOL     OW   91   2.826   2.707   1.657 -0.3260  0.2012 -0.0918
   31SOL    HW1   92   2.794   2.694   1.557  0.7043  1.2347 -3.4798
   31SOL    HW2   93   2.901   2.646   1.684 -1.9167  0.9422 -0.3471
   32SOL     OW   94   0.663   1.648   1.434  0.3261 -0.0713 -0.3064
   32SOL    HW1   95   0.730   1.718   1.403 -0.9372  0.0499  1.1534
   32SOL    HW2   96   0.567   1.679   1.415 -2.1142 -0.9746  1.5067
   33SOL     OW   97   0.441   2.653   2.337  0.1329 -0.0886 -0.0098
   33SOL    HW1   98   0.532   2.606   2.341  2.4022 -0.4569 -2.3080
   33SOL    HW2   99   0.449   2.756   2.344 -0.5447  0.0188 -1.5688
   34SOL     OW  100   1.542   3.093   0.806  0.0017 -0.0110  0.5322
   34SOL    HW1  101   1.559   3.074   0.903  0.1951  1.4650 -0.7238
   34SOL    HW2  102   1.576   3.020   0.738 -0.8578 -0.7339 -1.3526
   35SOL     OW  103   2.042   3.028   1.038  0.2761  0.9303  0.0415
   35SOL    HW1  104   1.956   3.062   0.990  2.3259 -0.0164 -0.5798
   35SOL    HW2  105   2.042   3.071   1.131 -1.2429 -1.0067 -0.7975
   36SOL     OW  106   1.861   2.855   2.376  0.1737 -0.7212 -0.4862
   36SOL    HW1  107   1.774   2.827   2.420 -1.0674 -1.4017 -0.5832
   36SOL    HW2  108   1.929   2.783   2.391 -2.0898  0.8663 -2.3413
   37SOL     OW  109   0.781   3.086   2.304  0.2494 -0.2104  0.4586
   37SOL    HW1  110   0.780   3.069   2.204  0.6445  1.9367  1.6995
   37SOL    HW2  111   0.718   3.029   2.360  0.5489 -0.4690  0.8100
   38SOL     OW  112   0.198   2.551   2.525  0.0074  0.0871 -0.4978
   38SOL    HW1  113   0.288   2.594   2.544 -0.4238 -0.7946 -0.5629
   38SOL    HW2  114   0.176   2.546   2.423 -1.5092  0.6820 -0.1701
   39SOL     OW  115   2.085   1.163   2.144  0.5056 -0.0352  0.6635
   39SOL    HW1  116   1.997   1.146   2.091  0.0047 -1.0525  2.3090
   39SOL    HW2  117   2.091   1.261   2.176  1.6973  0.4011  0.6248
   40SOL     OW  118   0.800   2.896   3.068 -0.5497  0.5304  0.3554
   40SOL    HW1  119   0.869   2.823   3.103  1.7460 -2.3781  3.2850
   40SOL    HW2  120   0.788   2.969   0.034 -2.4954  0.5357 -0.0181
   41SOL     OW  121   2.245   1.024   1.052 -0.1901  0.3012  0.2540
   41SOL    HW1  122   2.330   1.000   1.099 -1.4783  2.7400 -1.6114
   41SOL    HW2  123   2.267   1.096   0.986  0.0376 -1.5582 -0.4231
   42SOL     OW  124   0.531   0.530   1.093  0.1899 -0.2838 -0.0814
   42SOL    HW1  125   0.598   0.523   1.016  0.9814  1.1380  1.3941
   42SOL    HW2  126   0.472   0.615   1.086  3.1777  2.7233  1.0080
   43SOL     OW  127   2.112   1.557   2.787  0.0397  0.1828  0.8176
   43SOL    HW1  128   2.030   1.501   2.816 -0.4199 -0.3541 -2.0030
   43SOL    HW2  129   2.136   1.528   2.692  2.3556  0.5311 -0.2051
   44SOL     OW  130   0.093   2.787   0.984  0.1600  0.0306 -0.2380
   44SOL    HW1  131   0.110   2.872   0.940  1.5154 -2.0983  0.9780
   44SOL    HW2  132   0.189   2.749   0.997  0.4146 -0.7211 -0.0292
   45SOL     OW  133   0.109   2.498   1.211 -0.4078 -0.0207 -0.5538
   45SOL    HW1  134   0.182   2.568   1.206 -1.3019  0.4198 -0.2572
   45SOL    HW2  135   0.031   2.514   1.149 -0.3246  0.8190  1.5300
   46SOL     OW  136   2.339   2.826   2.599 -0.0534 -0.2485 -0.0833
   46SOL    HW1  137   2.344   2.787   2.507 -0.8966  2.2272 -0.3506
   46SOL    HW2  138   2.425   2.878   2.626 -0.8282  1.1676 -2.6477
   47SOL     OW  139   1.999   1.983   0.920  0.2688 -1.0337 -0.0175
   47SOL    HW1  140   2.007   1.895   0.969 -0.7731 -0.6819 -0.5941
   47SOL    HW2  141   1.916   1.990   0.870  1.1892 -1.3903 -0.1517
   48SOL     OW  142   0.700   1.726   0.393  0.2033  0.0207 -0.1610
   48SOL    HW1  143   0.772   1.777   0.340  0.5818 -0.1069  0.2757
   48SOL    HW2  144   0.626   1.682   0.339  0.8281  1.3251  3.1063
   49SOL     OW  145   2.923   0.164   2.626 -0.4366 -0.1553  0.8362
   49SOL    HW1  146   2.954   0.094   2.698 -0.8883  1.1695 -0.4760
   49SOL    HW2  147   2.942   0.130   2.531 -0.9828 -0.0654  0.8890
   50SOL     OW  148   2.025   0.684   0.306 -0.2734 -0.3264  0.2116
   50SOL    HW1  149   1.982   0.732   0.227 -1.6989 -0.0420  0.9093
   50SOL    HW2  150   1.952   0.645   0.367 -2.0129  2.4054 -0.6511
   51SOL     OW  151   2.433   0.843   0.813 -0.1720 -0.0252  0.7989
   51SOL    HW1  152   2.447   0.880   0.906 -2.1468 -3.8504  1.2065
   51SOL    HW2  153   2.335   0.837   0.781  0.8072  0.6526  2.5535
   52SOL     OW  154   1.440   1.407   2.325  0.0567 -0.3139  0.0338
   52SOL    HW1  155   1.504   1.332   2.299  1.3560 -3.7293  1.6393
   52SOL    HW2  156   1.342   1.375   2.329 -2.1705  0.3954  3.0636
   53SOL     OW  157   0.698   1.886   2.080  0.3782  0.4318 -0.2737
   53SOL    HW1  158   0.769   1.824   2.042  0.9667  4.2429  1.6014
   53SOL    HW2  159   0.709   1.892   2.182  2.2768 -0.1285 -0.6138
   54SOL     OW  160   2.181   0.369   1.135 -0.0242  0.0466  0.0028
   54SOL    HW1  161   2.099   0.318   1.095 -1.4006 -1.7758  1.1950
   54SOL    HW2  162   2.196   0.461   1.093 -1.4634 -0.0227  0.7296
   55SOL     OW  163   2.498   2.171   0.889 -0.1402 -0.4511 -0.2321
   55SOL    HW1  164   2.546   2.125   0.968  0.7365 -1.2633  2.2426
   55SOL    HW2  165   2.414   2.117   0.861 -0.5338  0.2207 -0.2733
   56SOL     OW  166   1.110   3.089   1.787 -0.2197  0.1733 -0.8362
   56SOL    HW1  167   1.072   3.089   1.881 -1.4345 -1.2893  0.8170
   56SOL    HW2  168   1.211   3.100   1.795 -0.7265 -0.4604 -0.3353
   57SOL     OW  169   1.625   1.669   0.349  0.5648  0.7371  0.0222
   57SOL    HW1  170   1.535   1.670   0.397  0.5161  0.9527  0.0396
   57SOL    HW2  171   1.622   1.726   0.266  2.0500 -2.5857  1.4652
   58SOL     OW  172   0.027   1.076   2.439 -0.4809  0.3581 -0.4588
   58SOL    HW1  173   0.104   1.063   2.503 -0.5744 -1.3373  0.2118
   58SOL    HW2  174   0.061   1.032   2.356  3.1649  0.2727  3.1164
   59SOL     OW  175   0.728   2.871   2.593 -0.3211  0.0796 -0.0240
   59SOL    HW1  176   0.784   2.917   2.666  0.9506  0.6660  0.5221
   59SOL    HW2  177   0.761   2.775   2.574  2.3638  0.0698 -2.5389
   60SOL     OW  178   2.542   2.169   0.413  0.2826 -0.2264  0.4438
   60SOL    HW1  179   2.601   2.218   0.346 -1.2449  1.1930  0.5791
   60SOL    HW2  180   2.568   2.196   0.509 -0.5369  0.8334  1.6147
   61SOL     OW  181   1.318   2.195   0.550  0.3440 -0.2298 -0.3879
   61SOL    HW1  182   1.366   2.263   0.497 -0.9125 -1.5945  2.2828
   61SOL    HW2  183   1.230   2.241   0.568  0.5606  0.9773  2.0244
   62SOL     OW  184   2.042   2.183   2.607 -0.7668 -0.1669  0.6475
   62SOL    HW1  185   2.131   2.154   2.563 -0.7319  0.4694 -1.2679
   62SOL    HW2  186   1.973   2.184   2.538  0.8061 -0.3884  2.9108
   63SOL     OW  187   2.205   2.748   0.073  0.3342 -0.1189 -0.1462
   63SOL    HW1  188   2.116   2.696   0.058  0.9444 -2.5477  0.7403
   63SOL    HW2  189   2.238   2.783   3.086  0.4319  2.4190 -1.8715
   64SOL     OW  190   1.552   1.170   2.525 -0.2644 -0.4401 -0.5173
   64SOL    HW1  191   1.636   1.191   2.472  2.0761 -0.8533 -1.1806
   64SOL    HW2  192   1.572   1.098   2.591 -3.2217  0.2696 -1.0382
   65SOL     OW  193   1.279   2.386   2.877 -0.0484  0.1740 -0.2525
   65SOL    HW1  194   1.298   2.324   2.796 -1.0281  0.8636 -1.5714
   65SOL    HW2  195   1.239   2.478   2.845 -1.0820  4.1506  3.5710
   66SOL     OW  196   0.239   1.418   1.989  0.2528  0.2073 -0.5386
   66SOL    HW1  197   0.328   1.415   2.035 -1.1667 -3.1422 -1.9106
   66SOL    HW2  198   0.225   1.335   1.936  2.5053  1.7656  1.6627
   67SOL     OW  199   2.885   2.702   2.781  0.3408 -0.4432  0.0092
   67SOL    HW1  200   2.798   2.649   2.783 -0.1124 -1.7804  0.4489
   67SOL    HW2  201   2.901   2.731   2.684  0.9720  0.3956 -0.7579
   68SOL     OW  202   0.880   2.448   1.379 -0.1528  0.5626  0.4800
   68SOL    HW1  203   0.918   2.455   1.475 -2.0314 -0.5568 -2.4511
   68SOL    HW2  204   0.942   2.500   1.318  0.0126 -1.9593  4.2863
   69SOL     OW  205   0.659   2.156   0.426  0.4112 -1.0048 -0.1276
   69SOL    HW1  206   0.674   2.242   0.482 -2.4975  1.2327  1.1785
   69SOL    HW2  207   0.681   2.075   0.480 -1.2267  0.5413 -0.4720
   70SOL     OW  208   2.698   0.901   2.659  0.1651 -0.5202  0.2852
   70SOL    HW1  209   2.775   0.960   2.630  1.6568 -3.3855 -0.8937
   70SOL    HW2  210   2.713   0.808   2.615  0.5506 -0.1435  0.9111
   71SOL     OW  211   0.699   1.137   2.381  0.2080  0.0262  0.0360
   71SOL    HW1  212   0.666   1.046   2.392  5.1731  0.2166  0.1978
   71SOL    HW2  213   0.632   1.214   2.393 -2.3660  1.8394 -0.2887
   72SOL     OW  214   0.296   2.057   0.611  0.0512 -0.3626 -0.6491
   72SOL    HW1  215   0.360   1.977   0.595  1.2815 -0.4344 -0.0461
   72SOL    HW2  216   0.198   2.030   0.635 -2.6370  3.6164 -0.2654
   73SOL     OW  217   1.032   1.533   0.234 -1.0273  0.4683  0.4676
   73SOL    HW1  218   0.950   1.476   0.241  1.2999 -0.8644  0.9600
   73SOL    HW2  219   1.061   1.561   0.330  2.3610 -0.6900  2.1307
   74SOL     OW  220   2.655   3.038   0.304 -0.1621  0.0002 -0.0192
   74SOL    HW1  221   2.624   2.955   0.246 -1.8892 -0.8233  0.8001
   74SOL    HW2  222   2.608   0.018   0.270  0.8567 -1.4716 -3.2213
   75SOL     OW  223   2.347   1.543   2.138 -0.1678  0.2356 -0.2109
   75SOL    HW1  224   2.266   1.486   2.159 -0.0591 -0.7533 -1.2119
   75SOL    HW2  225   2.361   1.551   2.039 -0.7648 -0.5470 -2.4124
   76SOL     OW  226   2.051   2.383   1.756  0.6291  0.0666  0.1479
   76SOL    HW1  227   1.986   2.446   1.806 -0.8782  0.2859 -1.3720
   76SOL    HW2  228   2.074   2.395   1.659  1.2995 -0.7539  0.0171
   77SOL     OW  229   2.610   0.337   1.516  0.4452 -0.1825  0.5280
   77SOL    HW1  230   2.551   0.309   1.594 -1.3816 -0.1144 -2.3262
   77SOL    HW2  231   2.617   0.438   1.515  1.9359 -1.2742  1.1959
   78SOL     OW  232   2.014   0.910   2.792  0.1195  0.2434  0.1621
   78SOL    HW1  233   1.999   0.809   2.793  1.7914 -0.2582 -1.1525
   78SOL    HW2  234   2.060   0.937   2.878 -1.9038 -0.9149 -0.7800
   79SOL     OW  235   0.042   1.570   2.107 -0.3447  0.0885  0.2973
   79SOL    HW1  236   0.102   1.501   2.062 -0.0364  1.4355  2.3885
   79SOL    HW2  237   3.077   1.619   2.048 -2.8148  0.7434  0.4966
   80SOL     OW  238   1.877   1.123   1.273  0.2307 -0.1501  0.0215
   80SOL    HW1  239   1.910   1.039   1.226 -1.1951  1.1011  1.7047
   80SOL    HW2  240   1.894   1.205   1.222 -0.9563 -0.3477  0.7557
   81SOL     OW  241   1.391   0.625   1.736 -0.6998 -0.2177  0.4449
   81SOL    HW1  242   1.351   0.652   1.646  0.5647 -0.7036 -4.7062
   81SOL    HW2  243   1.495   0.618   1.732  0.8914 -1.5632 -0.5176
   82SOL     OW  244   1.576   2.502   1.706 -0.1757  0.3849  0.9716
   82SOL    HW1  245   1.550   2.597   1.693 -0.1579 -1.5666 -0.3716
   82SOL    HW2  246   1.610   2.472   1.796  0.0184 -0.2585  0.1061
   83SOL     OW  247   0.446   3.039   0.674 -0.1440 -0.0743  0.0358
   83SOL    HW1  248   0.436   2.949   0.623 -0.5801 -1.2753  1.0874
   83SOL    HW2  249   0.415   3.028   0.769  1.4730 -2.4750 -3.4075
   84SOL     OW  250   0.160   0.865   2.811  0.1872 -0.0901 -0.0481
   84SOL    HW1  251   0.261   0.863   2.814  1.7984 -2.0332  1.7295
   84SOL    HW2  252   0.117   0.953   2.842 -1.4240  0.8883  0.6664
   85SOL     OW  253   2.736   2.201   1.712 -0.1093  0.2741  0.1941
   85SOL    HW1  254   2.782   2.202   1.619 -0.4836 -2.3384  0.6563
   85SOL    HW2  255   2.662   2.271   1.716  0.1179 -0.0370  0.9959
   86SOL     OW  256   2.897   2.203   1.493 -0.5492  0.0831 -0.1424
   86SOL    HW1  257   2.997   2.199   1.494 -3.2383  0.9442 -1.2640
   86SOL    HW2  258   2.864   2.282   1.435 -0.1535  0.8268 -1.5247
   87SOL     OW  259   0.364   2.986   3.032 -0.2968 -0.2915  0.1114
   87SOL    HW1  260   0.389   2.906   2.978 -2.3243  2.0526  1.3034
   87SOL    HW2  261   0.437   3.049   3.059 -3.1252  0.0639  2.1240
   88SOL     OW  262   0.231   1.893   1.070  0.4225 -0.4210 -0.0444
   88SOL    HW1  263   0.212   1.978   1.023  1.2075 -0.0689 -0.7864
   88SOL    HW2  264   0.319   1.896   1.120 -2.1584 -1.5733  0.1093
   89SOL     OW  265   0.951   0.732   1.468  0.0168 -0.0442 -0.4152
   89SOL    HW1  266   1.031   0.771   1.421 -3.1524 -0.2736  1.2380
   89SOL    HW2  267   0.940   0.628   1.467  1.6318 -1.8694 -0.1989
   90SOL     OW  268   2.566   1.613   1.765 -0.4759 -0.1272  0.2099
   90SOL    HW1  269   2.589   1.519   1.804  1.0796  2.2098  0.6366
   90SOL    HW2  270   2.518   1.607   1.675 -0.3378 -2.1662 -1.2487
   91SOL     OW  271   1.359   1.725   0.754 -0.1878  0.2916 -0.0795
   91SOL    HW1  272   1.360   1.826   0.755  1.7482  0.1775  0.6327
   91SOL    HW2  273   1.258   1.696   0.747 -2.7596 -0.0650 -1.9507
   92SOL     OW  274   2.187   0.614   1.014 -0.2933 -0.4798  0.2204
   92SOL    HW1  275   2.213   0.702   0.971  0.7147  4.9366  0.9466
   92SOL    HW2  276   2.194   0.622   1.121 -0.0717  0.3730  2.4035
   93SOL     OW  277   2.160   1.389   0.089 -0.2301  0.2226 -0.1143
   93SOL    HW1  278   2.155   1.302   0.144 -0.6601  2.2495  0.5930
   93SOL    HW2  279   2.109   1.463   0.131 -1.2152 -0.3570 -0.6710
   94SOL     OW  280   2.386   2.145   2.199  0.7288 -0.1752 -0.5036
   94SOL    HW1  281   2.486   2.155   2.210 -1.8535  1.1762  2.2854
   94SOL    HW2  282   2.353   2.161   2.105  2.4521 -2.1879  3.2232
   95SOL     OW  283   1.996   0.475   0.847  0.1666  0.1845  0.2592
   95SOL    HW1  284   2.038   0.542   0.911  0.7363 -1.7790 -1.5373
   95SOL    HW2  285   2.063   0.441   0.779 -0.4906  1.9446  0.7400
   96SOL     OW  286   2.905   2.886   1.357 -0.1688  0.3207 -0.3342
   96SOL    HW1  287   2.821   2.830   1.363  0.4692  0.9469  1.7330
   96SOL    HW2  288   2.883   2.986   1.346 -1.3308  0.3281 -0.9149
   97SOL     OW  289   2.358   0.187   1.065 -0.0903 -0.7549  0.5385
   97SOL    HW1  290   2.296   0.261   1.108 -0.9092 -0.8663  1.7036
   97SOL    HW2  291   2.313   0.150   0.981  0.0564  0.4488  0.9784
   98SOL     OW  292   1.699   2.377   1.513 -0.0084  0.2763 -0.6877
   98SOL    HW1  293   1.649   2.396   1.426 -1.4577 -1.8834  0.4850
   98SOL    HW2  294   1.654   2.432   1.591  0.2264  0.5100  2.0753
   99SOL     OW  295   2.588   2.651   1.781  0.4106  0.1042  0.4481
   99SOL    HW1  296   2.612   2.668   1.880 -0.9430  1.2270  2.7576
   99SOL    HW2  297   2.672   2.664   1.730  0.3326  1.7337  1.8751
  100SOL     OW  298   0.425   0.846   2.746  0.3199 -0.0018 -0.1533
  100SOL    HW1  299   0.484   0.880   2.818  3.1645  0.1279 -3.1732
  100SOL    HW2  300   0.439   0.747   2.734  4.6111  3.1214  0.0043
  101SOL     OW  301   2.018   0.616   3.039  0.1408  0.0425  0.2895
  101SOL    HW1  302   2.052   0.625   2.943 -1.2063 -0.5182 -2.0204
  101SOL    HW2  303   2.093   0.576   0.000 -0.2206 -1.7678 -0.3450
  102SOL     OW  304   0.090   0.592   1.688  0.3022 -0.2575 -0.0368
  102SOL    HW1  305   0.094   0.612   1.790  1.3234  1.0221  2.0487
  102SOL    HW2  306   0.120   0.497   1.661  0.1068 -0.1694  1.3449
  103SOL     OW  307   2.682   1.216   2.351  0.0136 -0.6606 -1.0808
  103SOL    HW1  308   2.676   1.310   2.398 -2.2703  2.2283 -0.0581
  103SOL    HW2  309   2.638   1.211   2.259  0.0564  1.0213  0.5190
  104SOL     OW  310   0.419   0.280   2.452 -0.1765  0.0620  0.1081
  104SOL    HW1  311   0.501   0.284   2.510 -1.1702 -1.3646 -1.5577
  104SOL    HW2  312   0.343   0.334   2.496  0.8171  1.2120  0.6092
  105SOL     OW  313   1.943   1.487   1.323 -0.0548  0.1000 -0.1249
  105SOL    HW1  314   1.930   1.441   1.234  1.5947 -2.1832  2.2632
  105SOL    HW2  315   1.947   1.428   1.405  0.3210 -1.0816  1.1127
  106SOL     OW  316   2.037   0.153   0.503 -0.6148  0.5460  0.4403
  106SOL    HW1  317   2.105   0.102   0.442  0.3209 -1.2352 -0.4644
  106SOL    HW2  318   2.084   0.211   0.575 -1.4138  1.0315 -0.7964
  107SOL     OW  319   0.002   1.490   1.402 -0.4279 -0.1779  0.0646
  107SOL    HW1  320   0.097   1.510   1.377  0.9412  1.0335 -0.7811
  107SOL    HW2  321   3.051   1.547   1.335 -0.5520 -0.5111 -2.1419
  108SOL     OW  322   2.997   2.558   1.994 -0.3492 -0.6057  0.6417
  108SOL    HW1  323   3.080   2.607   1.957 -0.9643  0.1705 -2.1396
  108SOL    HW2  324   2.987   2.479   1.936 -1.1480  2.9835 -1.0830
  109SOL     OW  325   1.822   0.073   0.645  0.2611  0.1699  0.3027
  109SOL    HW1  326   1.907   0.105   0.594 -0.2189  2.7046  0.0788
  109SOL    HW2  327   1.820   3.074   0.632  0.7505 -0.9689  1.3089
  110SOL     OW  328   0.427   2.152   2.351  0.6209 -0.3121 -0.0375
  110SOL    HW1  329   0.390   2.195   2.435  0.6229 -2.1524 -1.0274
  110SOL    HW2  330   0.397   2.053   2.349  0.1783 -1.2857 -0.4446
  111SOL     OW  331   1.625   2.423   1.966  0.2457 -0.1696 -0.4162
  111SOL    HW1  332   1.672   2.337   1.983  1.3742 -0.4860 -2.0278
  111SOL    HW2  333   1.542   2.439   2.026  0.6019 -1.3901  0.3492
  112SOL     OW  334   1.525   2.722   0.018  0.4239  0.7568  0.3723
  112SOL    HW1  335   1.450   2.669   0.067 -2.8940 -1.5624  2.1960
  112SOL    HW2  336   1.545   2.688   3.028 -3.0101  1.5430 -1.5304
  113SOL     OW  337   2.068   2.403   1.484  0.0312  0.0427 -0.5566
  113SOL    HW1  338   1.995   2.335   1.481  2.6347  0.3742 -0.0378
  113SOL    HW2  339   2.053   2.488   1.427 -0.8815 -1.1172  0.5654
  114SOL     OW  340   2.923   1.120   0.693 -0.4499 -0.2360  0.5071
  114SOL    HW1  341   2.848   1.078   0.742 -0.2451  0.1571  2.4136
  114SOL    HW2  342   3.010   1.113   0.741  0.2181  1.5090  0.5608
  115SOL     OW  343   0.609   0.898   2.944 -0.0489 -1.5532  0.2218
  115SOL    HW1  344   0.594   0.999   2.947 -0.7511 -0.9966 -1.2416
  115SOL    HW2  345   0.567   0.844   3.024 -1.2380 -2.1366  2.7943
  116SOL     OW  346   2.781   1.701   2.384  0.2711 -0.0958 -0.7766
  116SOL    HW1  347   2.880   1.673   2.373  0.2050  0.9726 -2.3292
  116SOL    HW2  348   2.772   1.790   2.435 -1.1129 -1.7009  1.3381
  117SOL     OW  349   2.658   2.978   0.712  0.2966 -0.4582 -0.2508
  117SOL    HW1  350   2.719   2.954   0.641 -1.9285  2.8755  0.9344
  117SOL    HW2  351   2.705   2.975   0.803 -0.7518 -0.1076 -1.0806
  118SOL     OW  352   1.151   2.107   1.549 -0.0080  0.0288  0.2622
  118SOL    HW1  353   1.225   2.048   1.587  3.2166 -0.1132  1.0456
  118SOL    HW2  354   1.175   2.200   1.572  0.5250  0.4676  0.3475
  119SOL     OW  355   0.554   2.326   2.791 -0.6348  0.7154 -0.2682
  119SOL    HW1  356   0.584   2.393   2.864  0.1765  1.5244  2.2893
  119SOL    HW2  357   0.459   2.291   2.807  0.5567 -1.8433  1.9061
  120SOL     OW  358   0.804   0.705   2.895 -0.2530  0.3325  0.7140
  120SOL    HW1  359   0.761   0.615   2.902  0.0564  3.7923  1.2627
  120SOL    HW2  360   0.729   0.780   2.897 -1.2730 -0.7877 -0.2363
  121SOL     OW  361   1.547   2.783   1.138 -0.0008 -1.0095 -0.2095
  121SOL    HW1  362   1.632   2.741   1.182 -0.0174 -0.0568 -1.8294
  121SOL    HW2  363   1.542   2.748   1.043  2.1177 -1.0348  0.6601
  122SOL     OW  364   2.290   2.547   1.595  0.2093 -0.1883 -0.3121
  122SOL    HW1  365   2.259   2.633   1.650 -1.3765 -0.3560 -0.8608
  122SOL    HW2  366   2.207   2.491   1.580  1.8597 -1.0841  2.8642
  123SOL     OW  367   0.353   2.780   0.931 -0.0612  0.0021  0.4713
  123SOL    HW1  368   0.389   2.875   0.931  0.8387 -1.4066  0.1359
  123SOL    HW2  369   0.330   2.749   0.838 -1.2512  2.2017 -0.1560
  124SOL     OW  370   2.178   1.283   2.960  0.4212 -0.6948 -0.1751
  124SOL    HW1  371   2.254   1.313   2.899  1.0257 -0.0522 -0.1275
  124SOL    HW2  372   2.156   1.345   3.035 -3.3718 -0.4782 -1.6850
  125SOL     OW  373   0.748   0.957   0.392  0.1692 -0.2346  0.0281
  125SOL    HW1  374   0.676   0.979   0.466 -0.4043 -0.0380  0.7487
  125SOL    HW2  375   0.846   0.997   0.406  2.2389 -0.4988 -1.3405
  126SOL     OW  376   2.644   1.505   0.644  0.5124 -0.1789  0.4386
  126SOL    HW1  377   2.648   1.528   0.546  0.6578 -0.9892 -1.1927
  126SOL    HW2  378   2.732   1.467   0.679 -1.5805  1.1224 -0.6934
  127SOL     OW  379   0.004   1.940   1.865  0.2044 -0.6896  0.0299
  127SOL    HW1  380   0.096   1.970   1.830  3.8518 -0.3203 -0.3305
  127SOL    HW2  381   0.011   1.941   1.968  2.2994  0.2985 -2.1472
  128SOL     OW  382   1.229   1.043   0.138  0.2212  0.0741 -0.4048
  128SOL    HW1  383   1.300   0.974   0.112  1.6648 -0.7757  1.5721
  128SOL    HW2  384   1.268   1.119   0.187 -1.7447  0.1260 -0.6152
  129SOL     OW  385   2.666   1.050   0.824  0.3606 -0.1421  0.1109
  129SOL    HW1  386   2.597   1.121   0.832  1.9918 -1.0612 -0.9625
  129SOL    HW2  387   2.645   0.975   0.762  2.8470 -1.3454  2.7177
  130SOL     OW  388   2.432   0.845   1.357  0.1710 -0.2627 -0.0215
  130SOL    HW1  389   2.481   0.865   1.445  1.2991  0.5521  1.3899
  130SOL    HW2  390   2.457   0.904   1.275 -0.4914 -0.1998 -1.6188
  131SOL     OW  391   2.938   2.665   3.030 -0.0183  0.2748  0.2535
  131SOL    HW1  392   2.935   2.687   2.932 -0.4003 -1.2181  0.5275
  131SOL    HW2  393   2.961   2.754   3.079  0.9101  2.0571 -0.9835
  132SOL     OW  394   2.965   1.936   1.632  0.3300  0.0060  0.1952
  132SOL    HW1  395   2.928   2.028   1.641 -0.5762 -0.3998 -1.3544
  132SOL    HW2  396   3.020   1.915   1.717  1.4091 -1.5250 -2.9529
  133SOL     OW  397   1.381   0.462   1.406  0.1775 -0.0931 -0.1904
  133SOL    HW1  398   1.479   0.452   1.429 -2.1082 -0.3996  0.0205
  133SOL    HW2  399   1.317   0.398   1.454 -2.5441  0.1634 -2.9218
  134SOL     OW  400   3.095   1.324   0.256  0.0662  0.1819  0.3323
  134SOL    HW1  401   2.997   1.297   0.242  1.7413 -1.1960 -0.4843
  134SOL    HW2  402   0.030   1.375   0.176  1.4291 -1.2089  1.4514
  135SOL     OW  403   2.309   1.202   1.623  0.0758  0.0411 -0.3325
  135SOL    HW1  404   2.398   1.250   1.621  0.6721  0.2538  0.7193
  135SOL    HW2  405   2.266   1.201   1.713 -0.2946 -1.1067 -0.8175
  136SOL     OW  406   0.178   0.928   0.545  0.1903 -0.0562 -0.3917
  136SOL    HW1  407   0.153   0.981   0.631  2.5609  1.9805 -0.3883
  136SOL    HW2  408   0.200   0.984   0.468  0.7967  2.1925  1.0205
  137SOL     OW  409   2.783   1.240   1.386  0.0616  0.1007  0.0299
  137SOL    HW1  410   2.769   1.226   1.285 -0.9153  1.0090  1.3366
  137SOL    HW2  411   2.876   1.282   1.398  0.2312 -0.8382 -1.3593
  138SOL     OW  412   1.620   1.019   1.376 -0.3837  0.0442 -0.0553
  138SOL    HW1  413   1.639   0.922   1.399  0.8798  0.9842  0.5456
  138SOL    HW2  414   1.702   1.058   1.333  1.6339 -0.1144  0.8352
  139SOL     OW  415   1.966   0.032   0.179 -0.0046  0.1385  0.2150
  139SOL    HW1  416   1.929   3.051   0.224 -2.4533 -0.8937  0.3948
  139SOL    HW2  417   1.894   0.107   0.182 -1.8973  2.2025 -0.5694
  140SOL     OW  418   1.552   2.079   1.736  0.4272 -0.0289 -0.4213
  140SOL    HW1  419   1.615   2.088   1.816 -2.5995  0.7599 -2.3042
  140SOL    HW2  420   1.492   1.994   1.727  0.1219  0.8575  1.8477
  141SOL     OW  421   1.674   2.358   0.673  0.1984 -0.3175 -0.2393
  141SOL    HW1  422   1.743   2.352   0.597 -0.2464 -1.0223  1.2406
  141SOL    HW2  423   1.639   2.268   0.698 -1.2245  1.9172 -0.4546
  142SOL     OW  424   0.509   0.782   0.054 -0.3401  0.0232 -0.1122
  142SOL    HW1  425   0.554   0.740   0.136  0.1065  0.0300 -2.3880
  142SOL    HW2  426   0.426   0.730   0.027  1.8001  1.7110  2.6497
  143SOL     OW  427   0.289   2.254   2.851 -0.1024 -0.0666 -0.3279
  143SOL    HW1  428   0.266   2.293   2.942 -1.6253 -2.0762  0.5287
  143SOL    HW2  429   0.213   2.196   2.815 -0.8100  3.1994  0.7021
  144SOL     OW  430   1.481   0.098   1.496  0.3880  0.2566 -0.1219
  144SOL    HW1  431   1.393   0.135   1.459 -1.0301 -1.0710 -0.2176
  144SOL    HW2  432   1.491   0.115   1.597  0.6475 -0.6284 -1.0227
  145SOL     OW  433   2.405   1.397   0.563  0.1098 -0.2332 -0.8978
  145SOL    HW1  434   2.442   1.448   0.479  0.3194  1.9459 -1.3598
  145SOL    HW2  435   2.484   1.393   0.626  0.0419  3.1880 -0.6336
  146SOL     OW  436   2.714   2.234   0.180  0.3611  0.2302  0.3089
  146SOL    HW1  437   2.697   2.192   0.091  0.6677  0.5078  0.3965
  146SOL    HW2  438   2.681   2.331   0.184 -0.0413  1.1185 -0.3959
  147SOL     OW  439   2.304   2.889   1.401 -0.4867 -0.1965 -0.3239
  147SOL    HW1  440   2.207   2.894   1.374 -1.7672  2.3568  2.3816
  147SOL    HW2  441   2.360   2.940   1.327  1.0126  2.3354 -0.9291
  148SOL     OW  442   1.327   2.856   1.933 -0.2119  0.7961  0.0498
  148SOL    HW1  443   1.405   2.802   1.979  0.6629 -0.7522  0.5708
  148SOL    HW2  444   1.251   2.786   1.925  0.7054 -1.6113 -1.3475
  149SOL     OW  445   1.614   0.432   2.414  0.1668  0.1784 -0.0910
  149SOL    HW1  446   1.572   0.515   2.373  1.1332 -1.3509  1.5151
  149SOL    HW2  447   1.607   0.441   2.520 -1.1127  1.2864  3.0255
  150SOL     OW  448   0.452   2.837   0.506  0.6326 -0.0152  0.8299
  150SOL    HW1  449   0.551   2.824   0.473  2.3538  0.8934 -3.3282
  150SOL    HW2  450   0.407   2.888   0.428 -2.3671  1.5700 -0.1490
  151SOL     OW  451   0.060   1.458   0.033  0.3147  0.2163  0.3571
  151SOL    HW1  452   0.004   1.540   0.050  0.1237 -0.3534  1.6266
  151SOL    HW2  453   0.073   1.454   3.037  0.4044 -0.8089 -0.2598
  152SOL     OW  454   0.092   0.134   0.614 -0.4933  0.2665 -0.5028
  152SOL    HW1  455   0.078   0.096   0.518 -0.5387 -0.5040 -0.1689
  152SOL    HW2  456   0.177   0.190   0.630  0.0758  1.2734 -0.1924
  153SOL     OW  457   2.247   0.048   0.889  0.2293 -0.0886  0.3753
  153SOL    HW1  458   2.165   0.000   0.933 -3.3434 -0.1906 -0.3388
  153SOL    HW2  459   2.299   3.085   0.827  0.4538  0.0491 -1.6633
  154SOL     OW  460   1.076   0.318   1.683 -0.0550  0.2795 -0.0369
  154SOL    HW1  461   0.999   0.276   1.738 -1.0564 -0.5724 -3.4161
  154SOL    HW2  462   1.148   0.353   1.745 -1.4772 -1.0524 -0.1840
  155SOL     OW  463   2.764   1.128   1.119 -0.2311 -0.7956 -0.1781
  155SOL    HW1  464   2.851   1.066   1.121  0.4967  0.6465 -1.0901
  155SOL    HW2  465   2.727   1.139   1.027 -0.7062 -0.2723  0.3538
  156SOL     OW  466   2.971   2.253   0.231 -0.4891  0.0293 -0.4598
  156SOL    HW1  467   3.003   2.346   0.259  3.0874 -1.9327 -1.6994
  156SOL    HW2  468   2.870   2.242   0.218  2.5516  0.4239 -2.2205
  157SOL     OW  469   1.080   0.270   0.100 -0.4045  0.6672  0.0104
  157SOL    HW1  470   1.056   0.174   0.126  0.6036 -2.0098 -2.6382
  157SOL    HW2  471   1.015   0.323   0.048  1.4528 -1.4895  0.3733
  158SOL     OW  472   2.498   0.337   2.715  0.2825 -0.2536  0.4217
  158SOL    HW1  473   2.563   0.328   2.636 -2.4144 -0.9316 -0.5924
  158SOL    HW2  474   2.412   0.283   2.702 -1.3359  0.5056 -1.0391
  159SOL     OW  475   0.569   0.086   0.013 -0.2952  0.0204  0.4300
  159SOL    HW1  476   0.658   0.042   0.039  0.9975 -1.7828  0.7237
  159SOL    HW2  477   0.562   0.114   3.020  0.6983  0.9605  0.3932
  160SOL     OW  478   1.167   1.913   3.049  0.4228 -0.2907  0.0555
  160SOL    HW1  479   1.099   1.968   2.995  3.5677  0.3022  1.3803
  160SOL    HW2  480   1.115   1.850   0.005 -0.4638  0.4860 -1.2270
  161SOL     OW  481   3.007   1.827   2.599 -0.9876 -0.1351  0.1097
  161SOL    HW1  482   2.911   1.853   2.614  1.8508  1.9684  1.7253
  161SOL    HW2  483   3.023   1.765   2.517 -1.5793  0.1187  0.7924
  162SOL     OW  484   0.169   2.234   1.238  0.0038  0.3518 -0.2212
  162SOL    HW1  485   0.272   2.232   1.227 -1.4771 -0.4192  2.4475
  162SOL    HW2  486   0.130   2.327   1.233  0.8119  1.3074 -1.8619
  163SOL     OW  487   2.156   0.252   2.791  0.7493 -0.0909 -0.0479
  163SOL    HW1  488   2.178   0.270   2.890  0.4167  0.1652 -0.3598
  163SOL    HW2  489   2.200   0.164   2.759 -1.0115  1.3321 -2.3412
  164SOL     OW  490   2.902   1.399   0.638 -0.0267  0.5434  0.3802
  164SOL    HW1  491   2.876   1.403   0.539  1.0826 -0.1582  2.3292
  164SOL    HW2  492   2.889   1.312   0.685 -2.3318  0.1219 -0.4454
  165SOL     OW  493   0.204   3.033   1.902  0.0487  0.1562 -0.4728
  165SOL    HW1  494   0.139   2.961   1.873 -3.0058 -0.7405  0.2714
  165SOL    HW2  495   0.190   0.016   1.854  1.5664 -2.5439 -1.0765
  166SOL     OW  496   2.177   0.774   0.730  0.4386  0.1804  0.1103
  166SOL    HW1  497   2.206   0.761   0.632 -0.7640 -0.5855  4.2198
  166SOL    HW2  498   2.079   0.802   0.736 -3.8605 -0.5218 -1.1369
  167SOL     OW  499   0.560   0.523   0.441 -0.0976 -0.3389  0.6540
  167SOL    HW1  500   0.571   0.598   0.371  1.1723  0.4901  3.0140
  167SOL    HW2  501   0.468   0.489   0.432  1.5739  2.2348 -0.3705
  168SOL     OW  502   1.811   2.866   2.102 -0.9343  0.2145 -0.0734
  168SOL    HW1  503   1.805   2.849   2.202 -0.5270 -1.1171 -0.3283
  168SOL    HW2  504   1.778   2.958   2.077 -0.8079  1.4311  0.4120
  169SOL     OW  505   1.111   1.106   0.724  0.2812 -0.0303  0.4140
  169SOL    HW1  506   1.087   1.009   0.707  3.3351 -1.3767  2.9075
  169SOL    HW2  507   1.061   1.142   0.805 -1.6045 -0.2015 -0.7999
  170SOL     OW  508   3.041   0.231   1.445 -0.8227 -0.2354  0.5021
  170SOL    HW1  509   0.029   0.237   1.494  1.0648 -0.6376 -1.0449
  170SOL    HW2  510   2.988   0.317   1.459 -0.9805 -0.2356 -1.9731
  171SOL     OW  511   0.800   2.835   1.732  0.1903  0.0830 -0.0923
  171SOL    HW1  512   0.737   2.771   1.679 -1.6576  1.3506  1.5433
  171SOL    HW2  513   0.848   2.910   1.679  0.0845  0.2984  2.1270
  172SOL     OW  514   0.356   2.151   1.543 -0.0957 -0.0081 -0.1845
  172SOL    HW1  515   0.308   2.065   1.519  0.4171  1.0953  1.4640
  172SOL    HW2  516   0.391   2.150   1.640 -1.1589  0.4805  0.0456
  173SOL     OW  517   1.329   0.901   2.720 -0.5123 -0.5460  0.3502
  173SOL    HW1  518   1.253   0.852   2.679 -0.6466 -0.4198 -0.7100
  173SOL    HW2  519   1.407   0.832   2.718 -0.4327 -0.5089 -1.1949
  174SOL     OW  520   1.824   3.070   3.036 -0.1100 -0.3748 -0.3168
  174SOL    HW1  521   1.902   3.085   3.101 -1.5800  0.1240 -0.5206
  174SOL    HW2  522   1.839   0.025   2.959 -0.0900 -1.4913  1.9747
  175SOL     OW  523   1.766   2.659   0.217 -0.0880 -0.2683  0.4917
  175SOL    HW1  524   1.673   2.679   0.251  0.1013 -0.4311 -0.3684
  175SOL    HW2  525   1.779   2.555   0.219  3.7632 -1.1571 -0.7517
  176SOL     OW  526   1.537   0.160   2.829 -0.1566 -0.7788  0.8267
  176SOL    HW1  527   1.543   0.243   2.883 -0.1734  0.3483 -0.6557
  176SOL    HW2  528   1.613   0.141   2.760  2.1110 -0.9703  1.5158
  177SOL     OW  529   1.098   1.586   0.505  0.6405  0.6799  0.2843
  177SOL    HW1  530   1.142   1.522   0.567  2.9771  0.7628 -1.0511
  177SOL    HW2  531   1.048   1.657   0.563  0.6747  2.5323  0.4402
  178SOL     OW  532   2.904   2.191   2.438 -0.2239 -0.0800  0.5640
  178SOL    HW1  533   2.892   2.221   2.531  1.4903 -0.0004  0.3944
  178SOL    HW2  534   2.999   2.207   2.400 -2.3793 -1.1093  1.1026
  179SOL     OW  535   0.463   2.531   2.646  0.0198 -0.5968  0.1044
  179SOL    HW1  536   0.506   2.497   2.561  1.1461  1.3231  1.8677
  179SOL    HW2  537   0.489   2.474   2.726  0.9827 -0.3303 -0.2261
  180SOL     OW  538   1.594   1.568   0.731  0.5179  0.2413  0.3848
  180SOL    HW1  539   1.669   1.625   0.700  1.2639  0.1661 -1.3641
  180SOL    HW2  540   1.512   1.620   0.755  0.0625  0.9155 -1.0292
  181SOL     OW  541   1.957   0.979   2.321  0.2011  0.0097 -0.4618
  181SOL    HW1  542   2.021   0.944   2.400  0.2269  0.5447  4.6653
  181SOL    HW2  543   2.013   1.047   2.265  0.0326 -0.2618 -2.1130
  182SOL     OW  544   2.931   2.783   2.514  0.2209  0.3467 -0.0612
  182SOL    HW1  545   2.889   2.793   2.420  2.5441 -2.0608 -0.3654
  182SOL    HW2  546   3.007   2.854   2.524 -0.6593  0.7981 -0.9611
  183SOL     OW  547   1.101   0.589   2.400 -0.4824  0.0440 -0.0647
  183SOL    HW1  548   1.120   0.491   2.422  0.9093 -3.6286 -1.7009
  183SOL    HW2  549   1.189   0.622   2.351  2.4651  0.0208 -2.9375
  184SOL     OW  550   0.707   0.660   1.792  0.3315  0.4089  0.7944
  184SOL    HW1  551   0.755   0.739   1.747  1.1593  0.3302 -0.1996
  184SOL    HW2  552   0.755   0.630   1.872  1.2122 -0.7856 -0.2366
  185SOL     OW  553   1.991   1.152   0.622 -0.6000 -0.5996 -0.3995
  185SOL    HW1  554   1.933   1.201   0.554 -1.3103 -1.1376 -1.4275
  185SOL    HW2  555   2.092   1.163   0.592  5.4458 -0.1137 -0.2968
  186SOL     OW  556   0.050   2.149   2.768 -0.1896 -0.2872  0.2627
  186SOL    HW1  557   0.049   2.051   2.788  0.7278  1.2409 -0.8893
  186SOL    HW2  558   3.067   2.194   2.756  3.3336  1.1601  0.9012
  187SOL     OW  559   2.507   1.499   0.334 -0.4056 -0.3860  0.2754
  187SOL    HW1  560   2.490   1.602   0.338 -1.2436  0.7914  0.0098
  187SOL    HW2  561   2.476   1.462   0.247  0.8377 -0.0083 -1.7219
  188SOL     OW  562   0.183   1.631   1.002 -0.2804 -0.2734 -0.0013
  188SOL    HW1  563   0.236   1.602   0.923 -0.7317 -1.2414  0.6936
  188SOL    HW2  564   0.191   1.732   1.003  1.2501 -2.7415 -1.4903
  189SOL     OW  565   2.392   0.501   0.414  0.1405  0.8758 -0.1702
  189SOL    HW1  566   2.329   0.448   0.356  2.1620  1.6106  1.6726
  189SOL    HW2  567   2.488   0.485   0.378 -0.1451 -4.2074 -2.4199
  190SOL     OW  568   1.154   1.693   2.085 -0.0604  1.1858 -0.3683
  190SOL    HW1  569   1.099   1.659   2.167 -0.0811  2.1137 -0.2945
  190SOL    HW2  570   1.173   1.611   2.024  3.2384  1.3689  0.1199
  191SOL     OW  571   2.906   0.405   1.751  0.5110 -0.4323  0.6701
  191SOL    HW1  572   2.840   0.343   1.800  0.9789  0.6527  1.1116
  191SOL    HW2  573   2.996   0.411   1.801  2.0827 -0.4344  0.9390
  192SOL     OW  574   1.735   1.523   1.560  0.2931  0.2372  0.1353
  192SOL    HW1  575   1.795   1.440   1.551  0.9839 -1.1571 -1.0993
  192SOL    HW2  576   1.770   1.580   1.635  0.6671  0.7832 -2.5951
  193SOL     OW  577   1.047   0.834   0.640  0.1723 -0.0920  0.2288
  193SOL    HW1  578   0.961   0.782   0.608 -0.6944  0.7378  0.3205
  193SOL    HW2  579   1.105   0.773   0.695  0.3125 -1.1174  3.1304
  194SOL     OW  580   1.293   2.862   1.253  0.0284 -0.0872 -0.0770
  194SOL    HW1  581   1.381   2.823   1.215  0.2409  0.8532 -0.4128
  194SOL    HW2  582   1.265   2.939   1.189 -0.1933 -0.2293  1.0844
  195SOL     OW  583   2.264   0.299   3.023 -0.5751  0.5802  0.0021
  195SOL    HW1  584   2.363   0.294   2.996 -1.2851 -0.9123  0.7152
  195SOL    HW2  585   2.246   0.226   3.094  0.8926  1.0954  2.5087
  196SOL     OW  586   0.579   2.338   1.440  0.1723 -0.3097  0.3394
  196SOL    HW1  587   0.554   2.248   1.473  0.7449  2.3546 -1.6758
  196SOL    HW2  588   0.674   2.363   1.461 -1.6560 -0.2954  0.3626
  197SOL     OW  589   0.717   2.342   0.601  0.6296 -0.0583  0.3812
  197SOL    HW1  590   0.747   2.310   0.695 -1.0681 -0.5922 -0.1543
  197SOL    HW2  591   0.623   2.390   0.597 -2.3036  1.5718 -2.5246
  198SOL     OW  592   0.849   0.634   0.505 -0.0904  0.3593 -0.4201
  198SOL    HW1  593   0.779   0.678   0.565 -0.5887 -0.7652  0.4964
  198SOL    HW2  594   0.811   0.634   0.409 -1.0903  0.8042  0.5792
  199SOL     OW  595   3.089   2.821   1.540  0.3348  0.6026  0.9204
  199SOL    HW1  596   3.018   2.853   1.467 -1.7030  0.5595 -1.6233
  199SOL    HW2  597   0.018   2.728   1.512 -0.1156 -0.4853  3.4778
  200SOL     OW  598   2.337   1.808   2.763  0.2185  0.6456 -0.4396
  200SOL    HW1  599   2.351   1.722   2.710  0.0070  0.3771  0.3048
  200SOL    HW2  600   2.285   1.794   2.849  1.7342  0.8682 -0.4497
  201SOL     OW  601   2.948   2.021   1.250  0.2739  0.3114 -0.4373
  201SOL    HW1  602   3.015   1.946   1.265  3.1888  0.4563 -1.9486
  201SOL    HW2  603   2.905   2.061   1.338  0.3373  3.6491  0.6587
  202SOL     OW  604   2.830   0.283   0.459 -0.1891  0.0058 -0.3174
  202SOL    HW1  605   2.873   0.369   0.495 -0.4828 -2.4553  1.2873
  202SOL    HW2  606   2.889   0.231   0.398 -0.0299  2.1120 -0.5939
  203SOL     OW  607   1.155   2.211   2.216  0.7493 -0.2790  0.1265
  203SOL    HW1  608   1.157   2.110   2.230  0.2166  1.7786 -2.2524
  203SOL    HW2  609   1.124   2.266   2.299 -1.5355 -0.1102 -1.0411
  204SOL     OW  610   1.069   1.786   1.636  0.1175 -0.1031 -0.6510
  204SOL    HW1  611   0.968   1.771   1.665  0.4927 -3.1768  1.0070
  204SOL    HW2  612   1.123   1.839   1.702 -1.6333 -3.0045  1.2022
  205SOL     OW  613   0.901   2.052   1.672 -0.4254  0.3233 -0.3013
  205SOL    HW1  614   0.993   2.087   1.669 -0.5286  0.3819  0.2767
  205SOL    HW2  615   0.900   1.950   1.673 -0.4271 -2.5227  0.4513
  206SOL     OW  616   0.259   0.432   2.617  0.0774 -0.0575  0.1268
  206SOL    HW1  617   0.345   0.484   2.622  0.9852  0.8762 -1.0301
  206SOL    HW2  618   0.183   0.496   2.590  0.3149  1.1167 -1.3820
  207SOL     OW  619   1.576   0.158   1.843 -0.7239 -0.5428  0.4612
  207SOL    HW1  620   1.514   0.087   1.802  0.7322  2.0890 -4.4543
  207SOL    HW2  621   1.532   0.240   1.883 -0.4671  1.3764  1.1085
  208SOL     OW  622   0.611   2.427   1.827  0.8854 -0.1456  0.1010
  208SOL    HW1  623   0.605   2.454   1.923  0.8811  0.9968 -0.7856
  208SOL    HW2  624   0.564   2.498   1.770 -0.1253 -0.7707 -0.2876
  209SOL     OW  625   1.961   0.844   0.086 -0.6104  0.1934  0.6230
  209SOL    HW1  626   1.957   0.779   0.008 -0.8615  1.1423  2.3931
  209SOL    HW2  627   1.920   0.931   0.057  0.8774  0.9784  0.5055
  210SOL     OW  628   0.127   0.337   1.020  0.1637 -0.3116 -0.2832
  210SOL    HW1  629   0.051   0.330   0.951 -0.9879  0.6093 -2.2306
  210SOL    HW2  630   0.104   0.401   1.098  1.3515 -1.2837  0.7541
  211SOL     OW  631   0.768   0.823   1.261  0.1449 -0.0178  0.3180
  211SOL    HW1  632   0.678   0.785   1.294 -0.4128  0.6305 -0.5004
  211SOL    HW2  633   0.827   0.813   1.341 -1.7384  0.8340 -0.9095
  212SOL     OW  634   1.351   2.274   1.023  0.2213 -0.2345  0.0999
  212SOL    HW1  635   1.308   2.323   1.102  0.6061 -2.2786 -2.0526
  212SOL    HW2  636   1.343   2.334   0.942  0.0034  1.3094 -0.0961
  213SOL     OW  637   2.133   0.241   2.027 -0.4834 -0.0475 -0.3133
  213SOL    HW1  638   2.044   0.291   2.040 -0.8650  0.8042 -0.3914
  213SOL    HW2  639   2.118   0.144   2.012  1.1532  1.1079  1.2884
  214SOL     OW  640   1.288   2.596   2.484 -0.5438 -0.4588 -0.1706
  214SOL    HW1  641   1.299   2.626   2.583 -2.2712  0.8131  1.3527
  214SOL    HW2  642   1.368   2.587   2.427 -2.8650 -0.9628  1.6919
  215SOL     OW  643   2.938   1.646   1.251 -0.1797 -0.4474  0.3382
  215SOL    HW1  644   2.906   1.692   1.339 -0.1456 -2.5562  1.0995
  215SOL    HW2  645   2.865   1.630   1.179 -1.9240  0.1889  2.0318
  216SOL     OW  646   0.359   0.250   2.102 -0.4329 -0.2930  0.0266
  216SOL    HW1  647   0.448   0.217   2.141  2.3643  0.9417  0.7128
  216SOL    HW2  648   0.358   0.244   1.999  0.4098 -0.2568 -1.6032
  217SOL     OW  649   2.730   0.391   0.025 -0.9166  0.2272 -0.1809
  217SOL    HW1  650   2.735   0.456   0.104 -0.5012  1.5494 -1.0403
  217SOL    HW2  651   2.821   0.350   0.006  0.2726 -0.9617 -1.4908
  218SOL     OW  652   1.670   1.898   2.157  0.5588 -0.1620  0.3716
  218SOL    HW1  653   1.715   1.914   2.242  0.5204 -1.7070 -2.2363
  218SOL    HW2  654   1.622   1.805   2.166 -2.1037 -0.0725 -0.3731
  219SOL     OW  655   1.874   1.008   0.307 -0.4836  0.0561  0.4163
  219SOL    HW1  656   1.886   0.938   0.234 -0.0737  0.4853  0.7392
  219SOL    HW2  657   1.800   0.977   0.373  2.2141 -2.3002 -0.8167
  220SOL     OW  658   1.542   2.055   1.051 -0.0297  0.0655 -0.3399
  220SOL    HW1  659   1.487   2.041   1.140 -3.6949 -0.8535  3.5290
  220SOL    HW2  660   1.479   2.090   0.978  2.1145  1.5535 -0.5584
  221SOL     OW  661   0.260   0.658   3.079 -0.4686 -0.1805 -0.4701
  221SOL    HW1  662   0.220   0.749   0.015 -1.5466  2.3285  0.5515
  221SOL    HW2  663   0.251   0.657   2.980 -0.9350 -1.6657  1.3781
  222SOL     OW  664   1.047   2.778   1.368 -0.4098 -0.4838 -0.5849
  222SOL    HW1  665   1.033   2.784   1.470  3.0309  0.3498 -0.1636
  222SOL    HW2  666   1.131   2.834   1.341  2.4695  1.2853 -0.2556
  223SOL     OW  667   1.566   0.487   2.689  0.1084  0.6955  0.0254
  223SOL    HW1  668   1.565   0.454   2.784  1.4384 -1.2019 -1.6977
  223SOL    HW2  669   1.556   0.590   2.692 -0.9658  0.7985  2.0902
  224SOL     OW  670   3.007   0.837   1.280  0.0403 -0.0969 -0.2676
  224SOL    HW1  671   2.968   0.746   1.253 -1.6747  0.9606 -1.3909
  224SOL    HW2  672   3.016   0.837   1.383  1.9626 -0.7658  0.3923
  225SOL     OW  673   0.988   1.360   1.474  0.2696  0.1882 -0.2399
  225SOL    HW1  674   0.918   1.281   1.467 -1.3523  1.8141 -2.8729
  225SOL    HW2  675   0.974   1.426   1.402  2.9380  2.7153 -0.2685
  226SOL     OW  676   1.078   0.005   0.188  0.1859  0.3208  0.1572
  226SOL    HW1  677   1.124   3.053   0.116 -0.7795 -0.1879  2.9365
  226SOL    HW2  678   1.149   0.025   0.259  0.1924  0.5701  1.1367
  227SOL     OW  679   0.728   1.415   1.288 -0.2205  0.1054 -0.0412
  227SOL    HW1  680   0.756   1.499   1.337 -2.6969 -0.7934 -0.8050
  227SOL    HW2  681   0.624   1.412   1.268 -2.0389  1.6746 -2.7235
  228SOL     OW  682   0.429   2.855   1.350 -0.7925 -0.1282  0.2776
  228SOL    HW1  683   0.523   2.816   1.351 -0.4757 -0.1410 -0.2506
  228SOL    HW2  684   0.391   2.874   1.443  0.6845 -2.4036 -0.4010
  229SOL     OW  685   2.369   0.944   0.412  0.4658 -0.2970 -0.2234
  229SOL    HW1  686   2.335   0.851   0.437 -0.2865  0.8406 -0.4316
  229SOL    HW2  687   2.415   0.948   0.321 -1.9287  0.8870 -1.1550
  230SOL     OW  688   0.677   1.193   1.907  0.0164 -0.1688  0.2316
  230SOL    HW1  689   0.620   1.112   1.867 -2.3886 -0.8163 -0.3357
  230SOL    HW2  690   0.730   1.167   1.988  0.7973 -0.6726 -0.1033
  231SOL     OW  691   1.176   2.383   1.613 -0.2518  0.1453  0.3509
  231SOL    HW1  692   1.245   2.345   1.679  2.7810  0.2339 -0.3335
  231SOL    HW2  693   1.229   2.450   1.554  3.0639  0.1657 -1.2890
  232SOL     OW  694   2.089   2.379   0.562  0.3762  0.2847 -0.1910
  232SOL    HW1  695   2.061   2.371   0.664  2.0503  1.3378  2.0431
  232SOL    HW2  696   2.034   2.455   0.514  0.5541 -1.8110  0.5802
  233SOL     OW  697   0.934   2.507   2.927  0.6439  0.1548 -0.3853
  233SOL    HW1  698   0.930   2.588   2.991  2.6999  0.2690 -0.8754
  233SOL    HW2  699   0.969   2.422   2.968 -3.1451  1.8006 -3.0548
  234SOL     OW  700   1.168   0.242   2.472  0.2502 -0.0267  0.5796
  234SOL    HW1  701   1.239   0.252   2.541 -0.4464 -0.2026 -4.0149
  234SOL    HW2  702   1.087   0.186   2.508 -2.2458 -1.2687  2.1621
  235SOL     OW  703   0.088   2.281   0.067  0.1478 -0.9697  0.0795
  235SOL    HW1  704   0.014   2.253   0.132 -0.2927  1.1145 -1.4927
  235SOL    HW2  705   0.165   2.210   0.070  1.9091 -1.9161 -0.5430
  236SOL     OW  706   2.051   2.694   2.550  0.4824 -0.4671 -0.0901
  236SOL    HW1  707   2.057   2.596   2.574  2.4825  2.0809 -2.0576
  236SOL    HW2  708   2.141   2.737   2.571  0.2051 -0.2779 -0.0149
  237SOL     OW  709   1.907   1.299   1.535 -0.3017 -0.1294  0.1519
  237SOL    HW1  710   2.010   1.311   1.530  3.1156  0.9072 -0.4482
  237SOL    HW2  711   1.878   1.210   1.490 -0.5240 -1.8231 -0.4820
  238SOL     OW  712   2.183   0.065   2.456  0.3700  0.5284 -0.4931
  238SOL    HW1  713   2.179   0.165   2.427 -0.2118  0.0354  0.2982
  238SOL    HW2  714   2.092   0.026   2.444  1.9670  0.5067 -0.8096
  239SOL     OW  715   0.384   1.797   1.729  0.1497  0.0017 -0.0960
  239SOL    HW1  716   0.321   1.719   1.748  2.7954 -2.7432 -1.1565
  239SOL    HW2  717   0.474   1.762   1.694  1.7582 -0.0241  0.1396
  240SOL     OW  718   0.242   2.316   0.570 -0.5239  0.3617 -0.3056
  240SOL    HW1  719   0.143   2.339   0.566  1.3419  1.0904  0.6376
  240SOL    HW2  720   0.269   2.219   0.555  1.2507  0.4289  2.0184
  241SOL     OW  721   1.301   2.390   0.221  0.5104 -0.1303  0.0181
  241SOL    HW1  722   1.353   2.381   0.313 -3.1263 -0.3550  0.1939
  241SOL    HW2  723   1.364   2.368   0.144 -0.4030 -2.1010 -1.6833
  242SOL     OW  724   1.846   1.241   0.414  0.1562  0.0090 -0.0547
  242SOL    HW1  725   1.847   1.150   0.367  2.1833  0.7491 -0.4105
  242SOL    HW2  726   1.767   1.298   0.371 -1.1740 -0.9268 -2.2596
  243SOL     OW  727   0.883   3.068   1.595 -0.2558  0.6826 -0.4759
  243SOL    HW1  728   0.879   0.046   1.537  0.9327 -1.7609  2.5294
  243SOL    HW2  729   0.954   3.077   1.672 -0.5848 -1.4529 -1.2251
  244SOL     OW  730   1.976   2.868   2.905  0.0583 -0.2597 -0.1935
  244SOL    HW1  731   1.937   2.949   2.950  0.1522 -2.3508  1.0092
  244SOL    HW2  732   1.928   2.842   2.816 -2.9071  2.0975 -5.2850
  245SOL     OW  733   1.393   0.021   3.029 -0.5604  0.1290  0.0971
  245SOL    HW1  734   1.459   0.043   2.956 -0.2573  0.8369 -2.8822
  245SOL    HW2  735   1.444   3.083   0.003 -0.8727  0.1771  1.4403
  246SOL     OW  736   0.830   0.828   2.439  0.3321 -0.6177 -0.1712
  246SOL    HW1  737   0.863   0.752   2.493 -0.5653  1.0809 -1.3813
  246SOL    HW2  738   0.817   0.912   2.500 -0.1439 -1.5103  0.7034
  247SOL     OW  739   0.088   0.670   1.948 -1.1810 -0.2883  0.6707
  247SOL    HW1  740   0.157   0.700   2.018 -2.4337 -1.8221 -1.6162
  247SOL    HW2  741   3.103   0.705   1.977  0.6972  2.7403  3.8329
  248SOL     OW  742   0.578   0.891   2.050 -0.1872  0.7151  0.6898
  248SOL    HW1  743   0.666   0.864   2.090 -3.0529 -2.0274 -2.1925
  248SOL    HW2  744   0.594   0.921   1.952 -1.1026 -1.5973 -1.7414
  249SOL     OW  745   2.202   0.545   0.126  0.1491  0.0795  0.3107
  249SOL    HW1  746   2.208   0.448   0.156 -1.5421  1.5692 -1.7078
  249SOL    HW2  747   2.138   0.594   0.190 -0.3679  0.5816  0.0465
  250SOL     OW  748   0.336   0.316   0.412  0.3441  0.3171  0.0406
  250SOL    HW1  749   0.250   0.364   0.382  1.8984  1.4820 -2.3770
  250SOL    HW2  750   0.323   0.279   0.506  0.9283 -2.0939 -0.3856
  251SOL     OW  751   0.840   0.452   2.373 -0.1781 -0.0706  0.0647
  251SOL    HW1  752   0.878   0.419   2.285 -0.9049  2.9290  1.1973
  251SOL    HW2  753   0.901   0.529   2.398 -0.6040  0.5879 -0.5513
  252SOL     OW  754   1.449   1.822   1.779 -0.4024 -0.1289 -0.4410
  252SOL    HW1  755   1.430   1.732   1.743  1.4706  3.4248  2.4293
  252SOL    HW2  756   1.367   1.859   1.825 -0.3826  2.6354 -2.1956
  253SOL     OW  757   1.570   2.738   2.032  0.7469  0.4242  0.0321
  253SOL    HW1  758   1.652   2.795   2.045  0.5644 -1.5608  0.2392
  253SOL    HW2  759   1.597   2.642   2.013 -0.2774  3.1286 -2.5521
  254SOL     OW  760   0.833   2.169   2.078  0.3390 -0.4635 -0.1793
  254SOL    HW1  761   0.922   2.123   2.084 -2.7836 -0.7609 -0.6853
  254SOL    HW2  762   0.811   2.205   1.987 -0.8939  0.6131 -1.6604
  255SOL     OW  763   1.395   0.674   0.519 -0.0743  0.0794  0.0145
  255SOL    HW1  764   1.404   0.760   0.570 -0.1303 -3.8164 -1.3827
  255SOL    HW2  765   1.304   0.661   0.480  4.9556 -0.3591  2.3394
  256SOL     OW  766   1.868   2.157   1.434 -0.5646  0.1025  0.1528
  256SOL    HW1  767   1.882   2.168   1.332 -0.6675  0.7691  0.4421
  256SOL    HW2  768   1.794   2.220   1.461 -0.0631 -1.7478 -0.6213
  257SOL     OW  769   0.302   2.300   2.534  0.2789 -0.4341  0.0417
  257SOL    HW1  770   0.246   2.391   2.536 -1.9929 -1.7001  1.3346
  257SOL    HW2  771   0.263   2.249   2.608  0.0321 -2.3724 -0.9711
  258SOL     OW  772   0.652   0.338   1.980 -0.3844 -0.1994  0.5297
  258SOL    HW1  773   0.715   0.420   1.989  1.5493  1.3649 -1.3545
  258SOL    HW2  774   0.662   0.289   2.069 -0.9077  1.3688  0.3553
  259SOL     OW  775   1.127   0.825   2.520  0.2880 -0.0365  0.2143
  259SOL    HW1  776   1.035   0.868   2.531  1.9278  0.4935 -2.1414
  259SOL    HW2  777   1.114   0.732   2.480 -1.1588  1.0893 -1.9355
  260SOL     OW  778   1.695   0.797   0.731 -0.1579  0.3237  0.2276
  260SOL    HW1  779   1.599   0.819   0.746  0.9469 -1.0186  1.3629
  260SOL    HW2  780   1.711   0.695   0.722  2.7799 -2.1497 -0.0584
  261SOL     OW  781   0.553   0.088   2.842  0.0849 -0.1042 -0.5955
  261SOL    HW1  782   0.630   0.125   2.781  0.8349 -0.0115  0.4617
  261SOL    HW2  783   0.458   0.076   2.807 -0.5713 -0.6665  0.2008
  262SOL     OW  784   2.637   3.077   2.939  0.1169  0.4428 -0.1912
  262SOL    HW1  785   2.712   3.077   3.011 -1.3227 -0.3823 -1.8260
  262SOL    HW2  786   2.608   0.064   2.930  0.6315  0.6023 -1.4026
  263SOL     OW  787   0.426   2.252   0.358 -0.0779 -0.1885  0.3051
  263SOL    HW1  788   0.383   2.280   0.443 -0.7358 -0.6809  2.0661
  263SOL    HW2  789   0.515   2.204   0.379  2.0005 -4.3948  0.9203
  264SOL     OW  790   0.406   1.400   1.644 -0.1102 -0.3663 -0.1350
  264SOL    HW1  791   0.488   1.467   1.643  3.0932  2.8242 -1.8545
  264SOL    HW2  792   0.328   1.447   1.683  4.0063  0.4990 -0.4031
  265SOL     OW  793   0.563   1.282   0.246 -0.3063 -0.2105 -0.4582
  265SOL    HW1  794   0.557   1.193   0.196 -2.0870  2.1719  0.4102
  265SOL    HW2  795   0.661   1.316   0.260 -1.6264 -0.4454  2.4380
  266SOL     OW  796   2.016   1.453   0.437  0.6155 -0.2229  1.0216
  266SOL    HW1  797   1.960   1.370   0.430  2.3078  2.1923  0.2382
  266SOL    HW2  798   2.055   1.464   0.530  0.4032  3.3031  3.9020
  267SOL     OW  799   2.984   0.307   3.053 -0.1773  0.0250 -0.0893
  267SOL    HW1  800   3.084   0.293   3.055 -0.5828 -0.6461 -1.4429
  267SOL    HW2  801   2.946   0.335   2.961 -0.3769  0.2543 -2.4613
  268SOL     OW  802   0.297   0.016   2.752  0.3175  0.2555 -0.5805
  268SOL    HW1  803   0.253   3.037   2.803  1.8289 -3.1048  1.2188
  268SOL    HW2  804   0.283   0.017   2.652  1.7806  0.0337  2.0623
  269SOL     OW  805   1.897   0.176   2.884  0.2313 -0.2254 -0.3754
  269SOL    HW1  806   1.859   0.255   2.936  2.8384 -1.5656  1.5268
  269SOL    HW2  807   1.992   0.201   2.854 -0.7845  0.1843 -2.4477
  270SOL     OW  808   0.788   1.018   2.663  0.3970 -0.2432 -0.0888
  270SOL    HW1  809   0.710   1.081   2.675  0.6072  0.9529 -0.4701
  270SOL    HW2  810   0.847   1.005   2.742  0.7459 -1.3765 -1.0503
  271SOL     OW  811   2.535   0.949   0.164  0.2868 -0.0833  0.4424
  271SOL    HW1  812   2.464   0.879   0.166  0.7944  0.0886  1.3649
  271SOL    HW2  813   2.505   1.026   0.101  0.7934  1.5538  2.3520
  272SOL     OW  814   2.771   1.957   2.502 -0.5301  0.0336  0.1086
  272SOL    HW1  815   2.826   2.042   2.472  1.3441  3.3962 -2.6757
  272SOL    HW2  816   2.687   1.977   2.555  0.9537 -0.5157  1.6421
  273SOL     OW  817   2.489   0.593   2.852  0.2575  0.2879  0.9147
  273SOL    HW1  818   2.480   0.490   2.843  1.2815 -0.8975  0.4130
  273SOL    HW2  819   2.580   0.613   2.812  0.1596 -0.6376 -1.4474
  274SOL     OW  820   0.330   2.659   1.177  0.1384 -0.8809 -0.5692
  274SOL    HW1  821   0.351   2.687   1.082  0.4007 -1.4243  2.3945
  274SOL    HW2  822   0.374   2.723   1.242  0.4378  1.7053  0.9249
  275SOL     OW  823   2.024   1.566   0.864  0.4793  0.2860  0.2914
  275SOL    HW1  824   1.988   1.469   0.879  2.5254 -1.9237  2.2834
  275SOL    HW2  825   2.056   1.574   0.773 -0.5338 -1.5582  4.2932
  276SOL     OW  826   0.160   1.321   2.695 -0.0245 -0.8476  0.1785
  276SOL    HW1  827   0.258   1.331   2.666  1.3693 -1.6289 -0.5345
  276SOL    HW2  828   0.094   1.340   2.618 -4.8625 -0.5243 -2.1208
  277SOL     OW  829   1.525   2.775   1.721 -0.1121 -0.1225  0.1091
  277SOL    HW1  830   1.453   2.800   1.650  0.9550 -0.4996 -1.0331
  277SOL    HW2  831   1.507   2.781   1.819  2.6370 -2.0101  0.8545
  278SOL     OW  832   1.660   0.571   1.759 -0.3622  0.3076 -0.2878
  278SOL    HW1  833   1.661   0.499   1.687 -0.0375  0.4142  1.8477
  278SOL    HW2  834   1.755   0.597   1.788 -1.4343 -1.0772  1.9576
  279SOL     OW  835   2.025   1.598   0.199 -0.4696  0.1858 -0.0243
  279SOL    HW1  836   1.987   1.693   0.181  0.1613  1.4104  0.3293
  279SOL    HW2  837   2.026   1.579   0.298  0.0148 -0.6330  0.6711
  280SOL     OW  838   0.794   1.456   0.856 -0.2281 -0.0553  0.2364
  280SOL    HW1  839   0.887   1.461   0.900  0.4128 -0.3472  3.6538
  280SOL    HW2  840   0.800   1.457   0.753  0.3075 -0.4312  2.8120
  281SOL     OW  841   0.300   0.017   2.421  0.2192  0.2275  0.3289
  281SOL    HW1  842   0.323   0.116   2.431 -0.5586 -0.6916 -2.6810
  281SOL    HW2  843   0.261   3.096   2.329  0.9764 -1.1022 -2.4632
  282SOL     OW  844   0.217   0.706   1.300  0.3335 -0.7833 -0.0720
  282SOL    HW1  845   0.273   0.733   1.220 -0.6793 -0.4072  2.1786
  282SOL    HW2  846   0.174   0.618   1.289  0.0840  1.9119  2.3450
  283SOL     OW  847   1.694   2.203   3.086  0.3199  0.2672 -0.1978
  283SOL    HW1  848   1.732   2.206   2.992  0.2706  0.6690 -0.3660
  283SOL    HW2  849   1.595   2.241   3.089 -1.4122  2.7701  0.8518
  284SOL     OW  850   1.481   1.379   0.534 -0.0195  0.0553 -0.0821
  284SOL    HW1  851   1.532   1.455   0.585 -0.3242  4.2703 -0.9291
  284SOL    HW2  852   1.535   1.352   0.455 -0.7722  0.7548 -0.3386
  285SOL     OW  853   3.013   3.086   2.796 -0.3654 -0.2848 -0.4384
  285SOL    HW1  854   3.074   3.068   2.874  2.3882  2.8947 -0.5768
  285SOL    HW2  855   3.042   3.025   2.722 -1.5380  3.7626  2.1815
  286SOL     OW  856   1.804   3.100   1.658 -0.4725 -0.6748  0.7957
  286SOL    HW1  857   1.811   3.001   1.667 -1.7371  2.7522 -0.5932
  286SOL    HW2  858   1.801   0.024   1.560 -0.4590  0.3948  0.0074
  287SOL     OW  859   0.803   1.032   1.088  0.0322  0.2738  0.0132
  287SOL    HW1  860   0.773   0.964   1.159 -2.5282  2.6127  0.5650
  287SOL    HW2  861   0.744   1.120   1.102 -1.6932 -0.7243  2.6351
  288SOL     OW  862   1.430   2.990   0.342 -0.5599 -0.1460 -0.0321
  288SOL    HW1  863   1.483   3.000   0.258 -1.5338  0.0861  0.0349
  288SOL    HW2  864   1.379   3.072   0.355 -2.1623  0.7675  0.2309
  289SOL     OW  865   0.115   1.525   2.878  0.2225 -0.4703  0.0634
  289SOL    HW1  866   0.024   1.524   2.834 -3.1437  0.0222 -0.4748
  289SOL    HW2  867   0.179   1.454   2.831  1.0759 -2.2704 -1.9071
  290SOL     OW  868   1.084   2.808   0.618  0.1602 -0.4472  0.2323
  290SOL    HW1  869   0.992   2.784   0.654  0.9832  1.8017  0.4137
  290SOL    HW2  870   1.152   2.814   0.695  1.5170  4.5000  0.3006
  291SOL     OW  871   2.353   2.201   2.807  0.2671  0.0244 -0.3168
  291SOL    HW1  872   2.297   2.116   2.814 -1.5731 -0.5635 -1.4697
  291SOL    HW2  873   2.361   2.228   2.708  0.5198 -1.4946 -0.4472
  292SOL     OW  874   1.034   0.959   2.088 -0.2132 -0.0379 -0.1655
  292SOL    HW1  875   1.124   0.952   2.140  3.2627  2.0024  2.0777
  292SOL    HW2  876   1.057   1.008   2.003  0.6516 -0.7561  0.1094
  293SOL     OW  877   2.057   2.759   1.080 -0.1108 -0.0826  0.4785
  293SOL    HW1  878   2.050   2.862   1.052 -1.3470  1.7663  0.3565
  293SOL    HW2  879   2.157   2.739   1.074  0.5239  3.5195 -0.7880
  294SOL     OW  880   0.066   0.538   2.287 -0.1110 -0.2449  0.2709
  294SOL    HW1  881   3.086   0.596   2.309 -1.2102  0.1405  0.9085
  294SOL    HW2  882   0.151   0.586   2.319 -0.6193  2.5769  2.1676
  295SOL     OW  883   1.354   1.975   0.360  0.1625  0.1884  1.0569
  295SOL    HW1  884   1.370   2.055   0.426 -2.4511  0.1461  1.5750
  295SOL    HW2  885   1.365   1.890   0.413 -1.0761  2.7603 -1.1079
  296SOL     OW  886   2.026   1.915   3.088  0.1346 -0.5901 -0.9713
  296SOL    HW1  887   1.991   1.961   3.004 -0.0727 -1.3304 -2.2002
  296SOL    HW2  888   2.099   1.842   3.078 -0.5819  2.7789  1.3248
  297SOL     OW  889   2.423   0.677   0.015  0.1467 -0.2247  0.5301
  297SOL    HW1  890   2.447   0.631   3.028 -0.0014 -0.9061 -3.0338
  297SOL    HW2  891   2.353   0.619   0.062  0.1745  1.4665 -0.4275
  298SOL     OW  892   1.019   2.201   2.613  0.3610 -0.3889 -0.0984
  298SOL    HW1  893   1.066   2.281   2.569 -2.3622 -0.1030  2.0198
  298SOL    HW2  894   0.916   2.213   2.596 -0.1014 -0.4208  0.2502
  299SOL     OW  895   1.120   2.961   2.360 -0.3252 -0.0470 -0.1442
  299SOL    HW1  896   1.220   2.984   2.366  2.0713  0.1166 -1.2477
  299SOL    HW2  897   1.058   3.033   2.401 -3.7880 -2.1382  0.8551
  300SOL     OW  898   2.571   0.244   2.966 -0.2847  0.2550 -0.5414
  300SOL    HW1  899   2.630   0.302   3.028  2.6839  1.3018 -0.4612
  300SOL    HW2  900   2.562   0.278   2.871  0.5613  1.2186  2.2761
  301SOL     OW  901   1.193   1.126   1.440  0.4472 -0.1267 -0.2811
  301SOL    HW1  902   1.282   1.130   1.492  1.1270  0.5766  0.7950
  301SOL    HW2  903   1.127   1.193   1.474  1.6702 -0.5649 -0.6800
  302SOL     OW  904   2.777   2.513   0.345  0.4545 -0.2326  0.1913
  302SOL    HW1  905   2.879   2.521   0.338  0.8868 -1.2270 -0.2253
  302SOL    HW2  906   2.721   2.517   0.254 -2.2555 -2.1595 -0.9415
  303SOL     OW  907   2.967   2.515   2.547  0.2165  0.5458  0.2207
  303SOL    HW1  908   2.964   2.609   2.513 -1.1955  1.9598 -0.2841
  303SOL    HW2  909   3.035   2.456   2.504  2.1937  0.5245  0.5293
  304SOL     OW  910   2.948   0.769   2.069 -0.2745 -0.2674 -0.0079
  304SOL    HW1  911   2.908   0.859   2.081 -1.7131 -1.9344  0.3027
  304SOL    HW2  912   2.908   0.727   1.983 -1.3459  2.3884 -0.3492
  305SOL     OW  913   0.525   2.107   2.041 -0.1750 -0.3808 -0.4403
  305SOL    HW1  914   0.599   2.038   2.037 -1.5305  0.7429 -2.2794
  305SOL    HW2  915   0.487   2.105   2.135 -0.2939  0.2375  0.4095
  306SOL     OW  916   2.573   1.091   1.964 -0.6353 -0.0306  0.6643
  306SOL    HW1  917   2.519   1.172   1.998 -0.4321  0.0345  0.1834
  306SOL    HW2  918   2.509   1.015   1.933 -0.2984 -2.1152  0.0620
  307SOL     OW  919   1.718   0.919   1.673  0.3073  0.2853 -0.5226
  307SOL    HW1  920   1.813   0.900   1.649 -2.1372  0.1577 -4.3765
  307SOL    HW2  921   1.656   0.875   1.604  1.4672 -1.4630  1.0950
  308SOL     OW  922   2.521   1.777   1.075 -0.3233 -0.7058 -0.3097
  308SOL    HW1  923   2.425   1.762   1.115  0.6672 -0.4398 -1.3150
  308SOL    HW2  924   2.522   1.749   0.980  2.7885  0.2004 -0.3152
  309SOL     OW  925   2.107   1.559   1.636  0.2828 -0.1190 -0.4619
  309SOL    HW1  926   2.032   1.621   1.610 -0.7402 -0.6589  1.4950
  309SOL    HW2  927   2.127   1.488   1.559  2.4106  0.1869 -3.3870
  310SOL     OW  928   2.719   1.683   2.753  0.1879 -0.2464  0.3779
  310SOL    HW1  929   2.656   1.765   2.759  1.0361  1.1439 -0.8368
  310SOL    HW2  930   2.661   1.601   2.745  1.5639  1.2985 -2.3364
  311SOL     OW  931   2.561   1.944   2.718 -0.0689  0.2513 -0.0422
  311SOL    HW1  932   2.492   1.876   2.745  1.3062  1.7058  1.0144
  311SOL    HW2  933   2.527   2.010   2.644 -3.0209 -0.4033  2.9160
  312SOL     OW  934   2.313   1.805   1.493 -0.0031  0.4032  0.2094
  312SOL    HW1  935   2.227   1.837   1.529 -1.9216 -1.3381  0.6362
  312SOL    HW2  936   2.373   1.881   1.480 -1.8406 -1.8399 -0.7245
  313SOL     OW  937   2.331   2.664   1.025 -0.3552 -0.0478 -0.2768
  313SOL    HW1  938   2.403   2.734   1.009  1.8166  0.3667  0.8527
  313SOL    HW2  939   2.361   2.563   1.014  0.6428 -1.0503  1.9338
  314SOL     OW  940   1.076   1.997   0.353 -0.4629 -0.2644 -0.6614
  314SOL    HW1  941   1.172   1.976   0.328 -1.0536 -0.4091  0.2688
  314SOL    HW2  942   1.047   1.960   0.440 -1.1378  0.3589  0.4099
  315SOL     OW  943   0.691   2.540   2.352 -0.0511 -0.2645 -0.3733
  315SOL    HW1  944   0.726   2.449   2.331 -2.1124  0.6780  0.8258
  315SOL    HW2  945   0.756   2.592   2.408  3.1185  2.2296  0.6611
  316SOL     OW  946   0.075   0.694   0.540 -0.0342 -0.1287  0.1363
  316SOL    HW1  947   0.127   0.782   0.534  2.8005 -2.0275  0.6962
  316SOL    HW2  948   3.097   0.693   0.485  1.9631  1.7285 -0.1588
  317SOL     OW  949   1.207   0.434   0.759  0.6584  0.2153  0.3383
  317SOL    HW1  950   1.195   0.354   0.818  0.1119  0.1907 -0.0116
  317SOL    HW2  951   1.134   0.439   0.683 -0.8988  2.7892 -0.2359
  318SOL     OW  952   3.077   2.382   0.569 -0.0906 -0.5611  0.2847
  318SOL    HW1  953   3.067   2.469   0.626 -1.0971 -0.6176  0.9524
  318SOL    HW2  954   3.018   2.304   0.600  1.5549  2.7572 -0.6686
  319SOL     OW  955   0.224   1.617   2.506  0.2787  0.1174  0.0648
  319SOL    HW1  956   0.288   1.561   2.555 -1.3546  2.7730 -1.4629
  319SOL    HW2  957   0.275   1.696   2.470 -2.0755  0.1174  1.5739
  320SOL     OW  958   0.788   2.789   2.002 -0.8410  0.1388  0.0083
  320SOL    HW1  959   0.818   2.789   1.902  1.1197  0.1572 -3.2088
  320SOL    HW2  960   0.724   2.710   2.017  3.1972 -3.1356 -1.9460
  321SOL     OW  961   0.933   2.665   0.038  0.0996 -0.7023 -0.1851
  321SOL    HW1  962   1.030   2.644   0.071  1.2309 -0.0514  1.0371
  321SOL    HW2  963   0.858   2.663   0.107 -0.0684  0.4632 -0.8669
  322SOL     OW  964   2.559   1.342   2.083 -0.7151 -0.7327 -0.2887
  322SOL    HW1  965   2.496   1.408   2.134  0.4707  1.0919  0.9931
  322SOL    HW2  966   2.657   1.367   2.098 -0.1354  0.4500 -0.2658
  323SOL     OW  967   2.238   0.719   0.485  0.1447  0.2323 -0.1285
  323SOL    HW1  968   2.161   0.721   0.416 -0.5285 -0.3487  1.1535
  323SOL    HW2  969   2.309   0.649   0.464  1.0548 -0.6669  0.5845
  324SOL     OW  970   0.412   2.593   0.041  0.0499  0.2593 -0.0381
  324SOL    HW1  971   0.340   2.561   3.079 -2.9685 -0.6111  1.1634
  324SOL    HW2  972   0.462   2.674   0.006  0.1563 -1.8402  0.1346
  325SOL     OW  973   1.749   0.090   2.645 -0.1851  0.7391 -0.4896
  325SOL    HW1  974   1.808   0.163   2.689  0.9319  0.9716  1.0616
  325SOL    HW2  975   1.803   0.032   2.582 -1.3388 -0.5616 -0.0046
  326SOL     OW  976   2.466   2.683   1.430  0.1603  0.2755  0.2602
  326SOL    HW1  977   2.399   2.623   1.481 -1.1026 -0.3102 -2.8286
  326SOL    HW2  978   2.411   2.769   1.405 -0.5064  0.9693 -1.7541
  327SOL     OW  979   1.554   0.395   2.941 -0.3989  0.1938 -0.2553
  327SOL    HW1  980   1.491   0.417   3.019  1.7993 -0.5581 -0.4838
  327SOL    HW2  981   1.654   0.409   2.964 -0.0537  1.0436  0.1137
  328SOL     OW  982   2.685   1.454   2.486 -0.5462 -0.2346  0.3508
  328SOL    HW1  983   2.704   1.551   2.461 -0.7668  0.3661  1.2784
  328SOL    HW2  984   2.636   1.449   2.572  0.8176  0.2783 -1.1752
  329SOL     OW  985   1.782   3.103   1.954 -0.0145  0.1612 -0.1150
  329SOL    HW1  986   1.824   3.051   1.878  2.3980 -0.9268  1.5356
  329SOL    HW2  987   1.724   0.074   1.915 -1.8176  1.6144 -0.5780
  330SOL     OW  988   2.412   1.575   1.548  0.3548 -0.2752 -0.7766
  330SOL    HW1  989   2.370   1.669   1.518  0.5485  2.0474 -0.1797
  330SOL    HW2  990   2.426   1.518   1.469 -0.8212  1.1089  3.2455
  331SOL     OW  991   0.375   1.272   1.403  0.3359  0.4208 -0.2341
  331SOL    HW1  992   0.413   1.334   1.335 -1.8829  1.3615 -0.8042
  331SOL    HW2  993   0.402   1.308   1.495 -3.0742  0.7040  1.4282
  332SOL     OW  994   0.817   0.243   1.031  0.1149  0.0853 -0.0673
  332SOL    HW1  995   0.843   0.282   0.944 -0.5602  0.2483  2.4448
  332SOL    HW2  996   0.849   0.303   1.109  1.9579  1.2931  1.3246
  333SOL     OW  997   2.317   2.732   1.810 -0.2669  0.1105  0.2009
  333SOL    HW1  998   2.414   2.695   1.805 -0.1083  0.3958 -1.9167
  333SOL    HW2  999   2.285   2.707   1.903  2.9845  3.2557  1.4353
  334SOL     OW 1000   1.004   1.579   1.311 -0.5549  0.2484 -0.3651
  334SOL    HW1 1001   0.947   1.662   1.322 -0.7701  0.3470  2.4427
  334SOL    HW2 1002   1.106   1.607   1.329  0.3795 -2.4817  0.0393
  335SOL     OW 1003   0.579   2.768   2.981  0.2967  0.6865  0.1622
  335SOL    HW1 1004   0.654   2.815   3.028 -0.7305 -1.1386 -2.0837
  335SOL    HW2 1005   0.590   2.783   2.882 -1.1225 -2.1037  2.1378
  336SOL     OW 1006   2.858   2.903   1.819 -0.2478  0.1712 -0.2012
  336SOL    HW1 1007   2.845   2.997   1.782  1.4378 -2.1900  1.0537
  336SOL    HW2 1008   2.841   2.833   1.746 -0.2621  2.0822  1.2109
  337SOL     OW 1009   2.664   1.912   0.689 -0.1711  0.2622 -0.2160
  337SOL    HW1 1010   2.568   1.888   0.682  1.6340  2.9076  1.0884
  337SOL    HW2 1011   2.714   1.879   0.610 -0.0093  0.0710  3.6990
  338SOL     OW 1012   1.107   2.165   1.288 -0.0912  0.0586  0.4381
  338SOL    HW1 1013   1.100   2.132   1.385 -1.1537  3.3325 -1.3980
  338SOL    HW2 1014   1.019   2.156   1.232  0.5377  1.2472  1.4316
  339SOL     OW 1015   2.887   0.603   2.284 -0.2541  0.3554  0.4825
  339SOL    HW1 1016   2.856   0.507   2.264 -2.5180  1.7412  0.8160
  339SOL    HW2 1017   2.920   0.650   2.202 -1.0472 -0.0474  3.2443
  340SOL     OW 1018   1.619   3.024   1.061  0.5336 -0.6625  0.4525
  340SOL    HW1 1019   1.596   0.000   1.114  0.0986  0.7372 -1.1769
  340SOL    HW2 1020   1.581   2.936   1.097  0.3336  0.6093 -1.8346
  341SOL     OW 1021   1.793   1.704   1.239  0.3955  0.2251  0.1813
  341SOL    HW1 1022   1.829   1.617   1.286  0.2378 -0.7381  1.7010
  341SOL    HW2 1023   1.728   1.679   1.167  0.3641  0.1075  1.4800
  342SOL     OW 1024   0.335   1.282   0.995 -0.3832 -0.2761 -0.7036
  342SOL    HW1 1025   0.249   1.230   1.006  0.2009 -1.2832 -1.6004
  342SOL    HW2 1026   0.349   1.327   0.907 -2.2979 -1.1213  2.7583
  343SOL     OW 1027   2.155   0.300   1.413 -0.6077  0.6203  0.2923
  343SOL    HW1 1028   2.233   0.342   1.365  2.6495  1.3685 -2.8205
  343SOL    HW2 1029   2.067   0.306   1.358 -0.8068 -0.7061  2.3167
  344SOL     OW 1030   2.193   2.282   1.039  0.4692 -0.4216 -0.2993
  344SOL    HW1 1031   2.219   2.181   1.049 -2.3897  0.4245 -0.6793
  344SOL    HW2 1032   2.278   2.343   1.038  2.8430  2.7830 -1.6185
  345SOL     OW 1033   2.756   2.276   2.954  0.1039  0.4338  0.4556
  345SOL    HW1 1034   2.829   2.341   2.987  2.4523 -0.3469 -0.8562
  345SOL    HW2 1035   2.665   2.325   2.944  1.5296 -0.6804  3.2533
  346SOL     OW 1036   0.124   1.317   0.728  0.1171  0.1252 -0.3700
  346SOL    HW1 1037   0.057   1.354   0.793  0.6125  0.9525  1.6576
  346SOL    HW2 1038   0.109   1.357   0.632 -1.6059 -0.3468 -1.2153
  347SOL     OW 1039   1.869   2.707   0.873 -0.1084  0.0449  0.1848
  347SOL    HW1 1040   1.827   2.622   0.910  2.4973 -0.9819  1.1247
  347SOL    HW2 1041   1.938   2.732   0.942 -1.0394 -1.3546 -0.8151
  348SOL     OW 1042   1.257   1.361   2.630  0.7341  0.1091 -0.5861
  348SOL    HW1 1043   1.284   1.280   2.573 -0.8176 -1.4887 -0.0084
  348SOL    HW2 1044   1.292   1.446   2.584  2.2482 -0.9786 -0.2580
  349SOL     OW 1045   2.219   1.162   2.551  0.5303 -0.0151  1.2469
  349SOL    HW1 1046   2.168   1.070   2.561 -1.3837 -1.7336 -1.9981
  349SOL    HW2 1047   2.315   1.135   2.526 -2.3947 -0.5176  0.4017
  350SOL     OW 1048   0.059   1.836   1.272  0.1238  0.4823  0.5191
  350SOL    HW1 1049   0.003   1.753   1.246 -1.8666 -1.2348 -2.4765
  350SOL    HW2 1050   0.127   1.856   1.198  2.4299  2.2572 -1.8571
  351SOL     OW 1051   0.652   0.344   2.554  0.1247 -0.1551  0.5262
  351SOL    HW1 1052   0.690   0.301   2.639 -0.0983  0.8110  0.7091
  351SOL    HW2 1053   0.717   0.388   2.488 -1.4890  0.9548 -1.0556
  352SOL     OW 1054   0.734   2.665   1.529  0.2911 -0.0315  0.5049
  352SOL    HW1 1055   0.817   2.612   1.551 -0.2869 -0.0524  1.9826
  352SOL    HW2 1056   0.731   2.696   1.430  3.1390 -1.4304 -0.5268
  353SOL     OW 1057   0.817   1.130   2.127 -0.2847 -0.6086 -0.1313
  353SOL    HW1 1058   0.766   1.126   2.214 -0.4535  0.5314 -3.6902
  353SOL    HW2 1059   0.878   1.048   2.127 -0.3324  1.9458 -1.8228
  354SOL     OW 1060   1.964   1.304   0.823  0.1838 -0.1517  0.1282
  354SOL    HW1 1061   1.863   1.311   0.835  1.3689  0.2421 -1.2208
  354SOL    HW2 1062   1.978   1.234   0.749  1.1422  0.7561  0.4489
  355SOL     OW 1063   2.424   0.360   0.651  0.0670 -0.2131  0.1823
  355SOL    HW1 1064   2.439   0.407   0.559  3.2688  1.3125 -0.1384
  355SOL    HW2 1065   2.488   0.282   0.650  0.1806  0.2179 -1.2970
  356SOL     OW 1066   2.843   1.109   2.565  0.7373  0.1951  0.2525
  356SOL    HW1 1067   2.801   1.156   2.481  0.7953 -0.5668  0.0218
  356SOL    HW2 1068   2.947   1.101   2.565 -0.6458  0.1579 -0.1390
  357SOL     OW 1069   0.391   2.884   1.619 -0.2204 -0.2034 -0.0226
  357SOL    HW1 1070   0.316   2.948   1.613  0.8136  0.5986  1.7915
  357SOL    HW2 1071   0.486   2.923   1.614 -0.4204 -3.2597 -2.0251
  358SOL     OW 1072   2.833   1.287   2.781  0.4997  0.1915 -0.3065
  358SOL    HW1 1073   2.829   1.243   2.687  0.6960  0.9377  0.3590
  358SOL    HW2 1074   2.893   1.374   2.780  1.5454 -0.1120 -0.5550
  359SOL     OW 1075   2.646   2.696   3.069 -0.1646 -0.0712  0.3381
  359SOL    HW1 1076   2.750   2.706   3.074 -3.8689 -0.7736  1.0706
  359SOL    HW2 1077   2.611   2.685   2.969  0.3607 -2.7605 -0.5472
  360SOL     OW 1078   1.657   1.370   1.206 -0.2991  0.8502 -0.1147
  360SOL    HW1 1079   1.635   1.274   1.173 -1.0156 -3.7498 -0.7588
  360SOL    HW2 1080   1.600   1.433   1.155  1.6509 -1.5433  1.4126
  361SOL     OW 1081   2.007   2.616   1.316  0.5078 -0.4914 -0.2548
  361SOL    HW1 1082   2.010   2.696   1.383  1.0195 -0.5272 -0.9046
  361SOL    HW2 1083   2.049   2.641   1.229 -0.2094 -0.5401  2.2277
  362SOL     OW 1084   1.514   1.529   1.049  0.2957  0.9543  0.3907
  362SOL    HW1 1085   1.450   1.607   1.073 -0.6189  1.6753 -0.3622
  362SOL    HW2 1086   1.467   1.454   1.000 -0.6832  0.4402  2.4887
  363SOL     OW 1087   2.722   2.007   2.925  0.0337 -0.1299 -0.2822
  363SOL    HW1 1088   2.655   1.994   2.845 -2.1365  1.4282  0.5225
  363SOL    HW2 1089   2.730   2.110   2.935 -1.8908 -0.1942 -1.0577
  364SOL     OW 1090   2.327   0.502   1.619 -0.1143  0.4647  0.1814
  364SOL    HW1 1091   2.302   0.462   1.530 -0.8644 -0.6609  1.7877
  364SOL    HW2 1092   2.345   0.431   1.687  0.5242  0.1207 -1.3332
  365SOL     OW 1093   2.763   2.617   1.159 -0.2639  0.0920 -0.4172
  365SOL    HW1 1094   2.799   2.713   1.147  3.1737 -0.4982 -2.0773
  365SOL    HW2 1095   2.734   2.578   1.069  2.1176  0.8566 -0.6302
  366SOL     OW 1096   2.848   1.247   0.181 -0.3524  0.6762  0.3420
  366SOL    HW1 1097   2.815   1.260   0.086 -1.4288 -0.2823  0.0893
  366SOL    HW2 1098   2.825   1.145   0.211  2.5340 -2.4726  2.7087
  367SOL     OW 1099   2.488   2.360   2.996 -0.2762  0.5398 -0.2280
  367SOL    HW1 1100   2.435   2.306   2.928  1.3246 -0.9758 -1.7138
  367SOL    HW2 1101   2.437   2.402   3.069 -2.4005 -0.7349 -0.4617
  368SOL     OW 1102   2.641   1.909   1.329 -0.2812 -0.3207 -0.2881
  368SOL    HW1 1103   2.585   1.961   1.396 -0.4865 -0.1386 -0.3711
  368SOL    HW2 1104   2.588   1.843   1.273 -1.6711 -3.3042 -1.1682
  369SOL     OW 1105   0.638   0.317   0.594 -0.2900 -0.1374 -0.6413
  369SOL    HW1 1106   0.548   0.272   0.617 -0.5737 -3.3910 -2.7775
  369SOL    HW2 1107   0.625   0.406   0.542  0.9679 -1.0342 -0.1391
  370SOL     OW 1108   0.889   0.661   1.071 -0.0721  0.2526 -0.0348
  370SOL    HW1 1109   0.847   0.722   1.133  1.3360 -4.3439 -1.1455
  370SOL    HW2 1110   0.829   0.591   1.028  0.8097 -1.2187 -3.8740
  371SOL     OW 1111   2.538   1.773   0.337 -0.0037 -0.1650 -0.1748
  371SOL    HW1 1112   2.630   1.781   0.384 -0.5068  0.0742 -1.1535
  371SOL    HW2 1113   2.517   1.865   0.304  2.1735 -0.9088  1.1969
  372SOL     OW 1114   0.256   0.997   2.572  0.3518  0.4345 -0.0043
  372SOL    HW1 1115   0.318   0.947   2.634 -1.0995 -0.2318  0.3185
  372SOL    HW2 1116   0.295   1.004   2.481 -0.6180 -0.7932  3.7153
  373SOL     OW 1117   2.878   0.978   0.455 -0.1557  0.0156  0.2784
  373SOL    HW1 1118   2.893   1.036   0.538 -1.1974  3.8614  2.0758
  373SOL    HW2 1119   2.919   0.884   0.460 -1.6942  0.9237  0.7218
  374SOL     OW 1120   0.645   2.243   0.028  0.1720 -0.3029 -0.0260
  374SOL    HW1 1121   0.699   2.288   0.105  2.0511  0.4101 -0.7190
  374SOL    HW2 1122   0.623   2.307   3.061 -0.7963  0.7335  1.8506
  375SOL     OW 1123   1.163   0.685   3.104  0.1015  0.1030  0.4584
  375SOL    HW1 1124   1.107   0.694   3.020 -0.3643  2.1475  1.9611
  375SOL    HW2 1125   1.107   0.716   0.077  0.2234 -2.0973  1.3473
  376SOL     OW 1126   0.019   2.836   1.810  0.4043 -0.4888  0.2414
  376SOL    HW1 1127   3.036   2.889   1.822 -3.2192 -2.6315 -0.2307
  376SOL    HW2 1128   0.014   2.808   1.713  1.2067  0.5112  0.3816
  377SOL     OW 1129   0.343   1.875   2.353  0.1154  0.4259  0.0329
  377SOL    HW1 1130   0.277   1.930   2.413 -0.2706  0.0764  2.8288
  377SOL    HW2 1131   0.297   1.858   2.261  0.7642 -0.2739  1.4788
  378SOL     OW 1132   1.676   0.935   0.487  0.3486  0.0364  0.1295
  378SOL    HW1 1133   1.601   1.003   0.506  0.8159 -1.1389  0.5053
  378SOL    HW2 1134   1.688   0.881   0.573 -1.9800 -0.0008  0.6341
  379SOL     OW 1135   1.314   1.529   0.220  0.5245 -0.4793  0.3559
  379SOL    HW1 1136   1.223   1.499   0.180  0.3837 -2.3371 -0.9102
  379SOL    HW2 1137   1.372   1.561   0.143  0.7899  0.5362  2.4537
  380SOL     OW 1138   2.379   2.411   1.984  0.3590 -0.0089  0.3025
  380SOL    HW1 1139   2.438   2.401   1.900  0.6058  0.8002 -0.4974
  380SOL    HW2 1140   2.290   2.366   1.974 -2.1951  0.7368 -1.4469
  381SOL     OW 1141   0.069   0.982   2.141 -0.6589 -0.1394 -0.3307
  381SOL    HW1 1142   0.022   1.048   2.076  0.1312  2.9696 -1.0987
  381SOL    HW2 1143   0.041   0.884   2.120 -0.7627 -1.7182  0.7749
  382SOL     OW 1144   2.620   2.471   0.128  0.1950  0.3669  0.0666
  382SOL    HW1 1145   2.519   2.475   0.136 -2.7224 -0.7094  0.0250
  382SOL    HW2 1146   2.650   2.545   0.066 -1.0090 -3.5964 -0.3861
  383SOL     OW 1147   1.861   1.128   2.004 -1.0178  0.3734 -0.1372
  383SOL    HW1 1148   1.825   1.033   1.982 -0.6791 -2.1795  0.4503
  383SOL    HW2 1149   1.841   1.182   1.924  0.5678 -2.1431  1.4891
  384SOL     OW 1150   0.710   2.238   2.313 -0.1109  1.1297 -0.2264
  384SOL    HW1 1151   0.753   2.219   2.219 -0.3215 -0.7902 -0.1585
  384SOL    HW2 1152   0.615   2.199   2.326  2.1442  1.4349  0.5402
  385SOL     OW 1153   2.643   2.178   0.668  0.0041 -0.6966  0.3577
  385SOL    HW1 1154   2.643   2.078   0.658 -1.0519  1.1321  0.0716
  385SOL    HW2 1155   2.589   2.210   0.750 -0.9291  0.2130  0.9772
  386SOL     OW 1156   1.763   0.713   2.948 -0.0600 -0.0401 -0.3265
  386SOL    HW1 1157   1.709   0.743   3.027  0.3893  0.9716 -0.4555
  386SOL    HW2 1158   1.823   0.635   2.972  1.8299 -1.1480  0.1681
  387SOL     OW 1159   0.391   0.609   1.515  0.3392 -0.0157 -0.2168
  387SOL    HW1 1160   0.318   0.626   1.448 -1.2813 -1.4072  1.8711
  387SOL    HW2 1161   0.361   0.614   1.609 -0.1851 -1.9748 -0.1711
  388SOL     OW 1162   3.045   0.830   1.542 -0.1614 -0.2839 -0.3947
  388SOL    HW1 1163   3.056   0.742   1.601 -1.4866 -1.3203  2.1524
  388SOL    HW2 1164   3.015   0.908   1.598  2.0875 -2.8417 -5.1529
  389SOL     OW 1165   1.673   1.347   2.733 -0.0610  0.3590  0.0595
  389SOL    HW1 1166   1.612   1.343   2.814  0.3122 -0.6681  0.7175
  389SOL    HW2 1167   1.627   1.309   2.652  0.8730  0.4063  1.8126
  390SOL     OW 1168   1.718   2.249   0.400 -0.1212 -0.3591 -0.1225
  390SOL    HW1 1169   1.755   2.294   0.317  1.3508 -3.3134 -2.3412
  390SOL    HW2 1170   1.758   2.160   0.417 -3.3039 -0.4862 -0.0952
  391SOL     OW 1171   1.112   2.558   0.996  0.2293  0.3459 -0.1956
  391SOL    HW1 1172   1.022   2.602   1.019  0.0971  0.1865 -1.6626
  391SOL    HW2 1173   1.141   2.499   1.075 -1.5463  1.3095  1.8025
  392SOL     OW 1174   2.733   2.663   1.420  0.3108 -0.0188 -0.1665
  392SOL    HW1 1175   2.754   2.628   1.326  1.8400  3.0026 -0.1802
  392SOL    HW2 1176   2.632   2.676   1.426 -1.1193 -0.7466  3.0001
  393SOL     OW 1177   1.986   2.445   2.611 -0.0053  0.1735 -0.4751
  393SOL    HW1 1178   1.977   2.469   2.709 -0.5024  1.1470  0.0318
  393SOL    HW2 1179   2.004   2.344   2.607 -0.9645 -4.7179  0.6069
  394SOL     OW 1180   0.493   2.795   2.680  0.0591  0.0131 -0.1592
  394SOL    HW1 1181   0.481   2.694   2.671  0.5017 -0.9412 -2.6356
  394SOL    HW2 1182   0.585   2.827   2.652  0.1271 -1.0884 -2.0115
  395SOL     OW 1183   0.525   1.039   1.311 -0.0694  0.3046 -0.6617
  395SOL    HW1 1184   0.507   0.940   1.326 -1.5462 -0.1523  0.0153
  395SOL    HW2 1185   0.451   1.100   1.355 -2.9896  1.5560  0.4325
  396SOL     OW 1186   1.864   1.472   2.488  0.4484  0.1331 -0.2985
  396SOL    HW1 1187   1.846   1.388   2.445  3.3458  1.5025  2.4194
  396SOL    HW2 1188   1.817   1.480   2.581 -1.1824  0.4665  0.5054
  397SOL     OW 1189   2.699   0.304   2.501 -0.1293 -0.0007 -0.2081
  397SOL    HW1 1190   2.743   0.327   2.414  0.0240  0.6770  3.5375
  397SOL    HW2 1191   2.765   0.266   2.564 -3.6047 -0.6710  1.8007
  398SOL     OW 1192   1.649   0.264   0.794  0.0932  0.0352  0.2860
  398SOL    HW1 1193   1.717   0.234   0.725 -0.1967 -0.4941 -0.8073
  398SOL    HW2 1194   1.598   0.183   0.842  1.2488 -1.1362 -0.7749
  399SOL     OW 1195   2.249   2.956   1.702 -0.5145  0.3066  0.0852
  399SOL    HW1 1196   2.228   2.946   1.605 -1.4505  0.2523 -0.3366
  399SOL    HW2 1197   2.267   2.864   1.744 -0.3046  2.0737 -2.6058
  400SOL     OW 1198   3.003   2.269   2.011  0.2416  0.1546 -0.3315
  400SOL    HW1 1199   2.918   2.217   2.020 -0.8799  0.9186  3.3514
  400SOL    HW2 1200   3.054   2.246   1.923 -0.0998 -2.1575  2.0857
  401SOL     OW 1201   0.727   0.350   0.301 -0.2762 -0.0713 -0.0510
  401SOL    HW1 1202   0.692   0.262   0.338 -0.7554  0.1648  3.9677
  401SOL    HW2 1203   0.679   0.427   0.343 -0.1079 -0.8304  0.2708
  402SOL     OW 1204   0.497   2.619   1.666  0.1302  0.3943 -0.1999
  402SOL    HW1 1205   0.587   2.630   1.610  2.3013  2.6912 -0.8180
  402SOL    HW2 1206   0.444   2.708   1.665 -2.6624  1.6969  0.3705
  403SOL     OW 1207   0.219   1.170   1.827 -0.0636  0.2989  0.0934
  403SOL    HW1 1208   0.137   1.120   1.791  0.8117 -0.4036 -0.7805
  403SOL    HW2 1209   0.309   1.134   1.784  2.6367  1.2254 -2.7690
  404SOL     OW 1210   2.817   2.439   2.182 -0.3106 -0.6531  0.1824
  404SOL    HW1 1211   2.898   2.454   2.122 -1.3005 -1.1276 -1.5990
  404SOL    HW2 1212   2.752   2.380   2.132  3.3647  0.3709  3.1842
  405SOL     OW 1213   2.489   0.210   2.335  0.0797  0.2879  0.2230
  405SOL    HW1 1214   2.461   0.115   2.358  1.2632  0.2768  0.8760
  405SOL    HW2 1215   2.575   0.239   2.386  1.4175  1.0467  1.9711
  406SOL     OW 1216   1.524   2.692   0.399 -0.6893  0.0163  0.4619
  406SOL    HW1 1217   1.432   2.738   0.389 -0.3506 -2.4601 -0.2219
  406SOL    HW2 1218   1.511   2.588   0.416  0.6694 -3.4526  1.1740
  407SOL     OW 1219   1.887   1.711   0.482 -0.1118 -0.1823 -0.4657
  407SOL    HW1 1220   1.937   1.620   0.472  1.7800 -0.6436  0.6002
  407SOL    HW2 1221   1.794   1.696   0.449  2.7048 -0.4250  1.1462
  408SOL     OW 1222   0.336   0.708   2.063 -0.1221  0.0418 -0.1813
  408SOL    HW1 1223   0.383   0.631   2.116 -0.5592  0.0566  0.7240
  408SOL    HW2 1224   0.404   0.784   2.048  1.2475  1.3315  1.0635
  409SOL     OW 1225   2.766   1.328   3.053 -0.5409  0.6100 -0.1252
  409SOL    HW1 1226   2.752   1.425   3.055 -0.1429 -1.9855 -2.4265
  409SOL    HW2 1227   2.821   1.293   2.975 -0.9659  0.4263  2.3663
  410SOL     OW 1228   2.503   1.330   1.100  0.0925 -0.4119  0.0413
  410SOL    HW1 1229   2.412   1.370   1.086  3.1583 -2.0086 -1.3290
  410SOL    HW2 1230   2.548   1.369   1.182 -0.0618 -0.9407 -5.5640
  411SOL     OW 1231   2.967   0.730   0.382  0.5265 -0.5448  0.0051
  411SOL    HW1 1232   2.981   0.747   0.283 -1.9987  2.8360  2.1202
  411SOL    HW2 1233   2.887   0.671   0.399 -0.0875 -1.6394 -0.4944
  412SOL     OW 1234   1.785   0.232   0.156  0.1893 -0.2014 -0.2307
  412SOL    HW1 1235   1.687   0.201   0.169  0.5500  0.8581  0.8113
  412SOL    HW2 1236   1.809   0.298   0.226 -0.7368  0.7232 -2.0009
  413SOL     OW 1237   1.263   0.418   1.868  0.3504 -0.0607  0.4795
  413SOL    HW1 1238   1.310   0.365   1.945 -0.2493 -0.3534  1.6795
  413SOL    HW2 1239   1.331   0.481   1.823  2.8977  1.0272  0.6628
  414SOL     OW 1240   0.470   1.059   0.100  0.1953 -0.0802  0.0754
  414SOL    HW1 1241   0.485   0.959   0.090 -1.6673 -0.4477  1.3660
  414SOL    HW2 1242   0.392   1.087   0.049  0.9940 -4.2911  3.8999
  415SOL     OW 1243   0.155   1.405   0.456  1.0244  0.0467  1.0904
  415SOL    HW1 1244   0.162   1.502   0.434  0.1673 -1.1872  1.2169
  415SOL    HW2 1245   0.082   1.369   0.392 -0.2332  0.5423 -0.2382
  416SOL     OW 1246   2.078   1.175   0.214  0.1066  0.6943 -0.6684
  416SOL    HW1 1247   2.152   1.150   0.279 -3.2922  0.9365 -0.7677
  416SOL    HW2 1248   2.001   1.120   0.248  1.7767 -0.9605  0.7694
  417SOL     OW 1249   2.818   3.081   0.086 -0.5673  0.4727 -0.5275
  417SOL    HW1 1250   2.886   3.001   0.088 -1.6524 -2.4782 -1.0267
  417SOL    HW2 1251   2.766   3.083   0.173  1.2329  0.0104  1.2192
  418SOL     OW 1252   2.696   0.700   0.074  0.8109 -0.0155 -0.0706
  418SOL    HW1 1253   2.595   0.681   0.072  1.0825 -0.1935  1.3324
  418SOL    HW2 1254   2.713   0.790   0.116 -1.8232  0.1562  0.3030
  419SOL     OW 1255   0.955   0.225   0.376  0.0951  0.1701 -0.1466
  419SOL    HW1 1256   0.861   0.259   0.351 -2.1718 -0.9071  2.2889
  419SOL    HW2 1257   1.014   0.202   0.299 -1.4299 -0.9603 -3.1029
  420SOL     OW 1258   0.554   1.041   0.614 -0.2087  0.7114  0.0337
  420SOL    HW1 1259   0.489   0.966   0.581 -1.6767  1.2169  1.0725
  420SOL    HW2 1260   0.593   1.022   0.705  1.5504  0.7923  1.7028
  421SOL     OW 1261   0.479   1.821   0.520  0.1222  0.4661 -0.2434
  421SOL    HW1 1262   0.575   1.788   0.508 -1.4901 -2.7158 -1.9327
  421SOL    HW2 1263   0.427   1.806   0.436 -1.9252  2.2405 -1.0802
  422SOL     OW 1264   2.911   0.461   1.482  0.0921  0.5097 -0.0463
  422SOL    HW1 1265   2.848   0.522   1.435  3.3771 -0.3603  0.7540
  422SOL    HW2 1266   2.871   0.448   1.575  0.2470  2.0737  5.0217
  423SOL     OW 1267   1.808   2.066   0.661  0.1152  0.2706 -0.2676
  423SOL    HW1 1268   1.904   2.097   0.683  2.5762  1.0611  0.1103
  423SOL    HW2 1269   1.800   2.025   0.570  1.9964 -0.4311  1.0302
  424SOL     OW 1270   1.634   1.677   2.981  0.1111 -0.1986  0.1129
  424SOL    HW1 1271   1.603   1.713   3.071 -0.5705 -1.4716  1.2794
  424SOL    HW2 1272   1.735   1.656   2.982  0.7351 -0.8206 -1.4127
  425SOL     OW 1273   0.342   2.815   2.078  0.0459 -0.5828  0.0679
  425SOL    HW1 1274   0.324   2.839   2.173 -5.6783  0.9186 -1.4453
  425SOL    HW2 1275   0.307   2.894   2.020 -0.2021  1.6294  0.6187
  426SOL     OW 1276   2.377   3.012   3.038 -0.0202 -0.3287 -0.1702
  426SOL    HW1 1277   2.468   3.007   3.010 -4.0584  0.7806 -0.5715
  426SOL    HW2 1278   2.319   2.957   2.977  3.4548  0.0412  2.8333
  427SOL     OW 1279   0.478   1.492   2.135  0.0015  0.5206  0.2699
  427SOL    HW1 1280   0.576   1.469   2.115  0.5401 -1.5807  1.4953
  427SOL    HW2 1281   0.460   1.586   2.105 -0.4702 -0.4744 -2.5450
  428SOL     OW 1282   2.129   1.423   2.532 -0.4899 -0.5070 -0.3683
  428SOL    HW1 1283   2.148   1.324   2.531 -0.4352  1.0279  0.9823
  428SOL    HW2 1284   2.041   1.440   2.488  0.1280  0.4505  0.3864
  429SOL     OW 1285   2.639   0.192   0.658  0.2155 -0.3657  0.4621
  429SOL    HW1 1286   2.720   0.221   0.598  2.2206  2.0811  0.0756
  429SOL    HW2 1287   2.633   0.089   0.673  0.8912 -0.0607  0.0644
  430SOL     OW 1288   1.838   1.931   2.364 -0.1020  0.3639  0.3002
  430SOL    HW1 1289   1.858   1.845   2.313 -0.0344  0.4199  1.6251
  430SOL    HW2 1290   1.817   1.909   2.462  0.4649 -0.4272  0.5351
  431SOL     OW 1291   2.822   1.671   1.711 -0.4531 -0.6345  0.3946
  431SOL    HW1 1292   2.817   1.735   1.636 -0.5236 -2.9634  4.1011
  431SOL    HW2 1293   2.731   1.626   1.726 -1.9671 -0.0543  2.9149
  432SOL     OW 1294   1.033   2.365   1.970 -0.1062  0.0740 -0.2321
  432SOL    HW1 1295   1.092   2.288   1.955  0.2696  1.4352 -1.2499
  432SOL    HW2 1296   0.939   2.343   1.933 -1.0083 -0.1875  3.8391
  433SOL     OW 1297   1.143   0.034   0.633 -0.0979  0.0082  0.1677
  433SOL    HW1 1298   1.242   0.051   0.658  3.6930  0.8664  2.9798
  433SOL    HW2 1299   1.095   3.090   0.708 -0.7517 -1.6417  1.1904
  434SOL     OW 1300   0.324   2.319   2.039 -0.4303 -0.0650  0.1449
  434SOL    HW1 1301   0.302   2.368   1.954  0.9737  1.1227  0.7241
  434SOL    HW2 1302   0.419   2.295   2.054  0.7114  1.2680  1.1318
  435SOL     OW 1303   0.579   1.283   0.505 -0.3095 -0.5271  0.1993
  435SOL    HW1 1304   0.571   1.190   0.537  0.6545  3.4187 -3.8027
  435SOL    HW2 1305   0.570   1.284   0.403  2.6220  2.6868  3.2427
  436SOL     OW 1306   0.211   1.589   1.782  0.3576 -0.0383 -0.3853
  436SOL    HW1 1307   0.216   1.523   1.863 -0.6616  0.1660  1.8584
  436SOL    HW2 1308   0.121   1.566   1.731 -1.4605 -3.7060 -1.2490
  437SOL     OW 1309   1.163   0.628   0.390  0.2767  0.3056  0.2907
  437SOL    HW1 1310   1.097   0.571   0.440 -0.4161  1.3499 -0.5321
  437SOL    HW2 1311   1.120   0.706   0.341  0.3433 -0.6994  5.1784
  438SOL     OW 1312   0.841   1.787   1.279 -0.1156 -0.2869  0.2567
  438SOL    HW1 1313   0.831   1.887   1.295  0.0920 -0.4967  0.0386
  438SOL    HW2 1314   0.843   1.766   1.177 -0.1872 -3.6838  0.0658
  439SOL     OW 1315   1.433   2.080   2.461 -0.0397 -0.1181  0.1935
  439SOL    HW1 1316   1.349   2.025   2.476  1.8239 -0.3657  0.3353
  439SOL    HW2 1317   1.500   2.067   2.537 -1.6267  0.4378 -1.8718
  440SOL     OW 1318   1.637   0.433   1.460 -0.1373  0.0971 -0.4991
  440SOL    HW1 1319   1.691   0.368   1.518 -0.5078 -2.7708  1.6748
  440SOL    HW2 1320   1.677   0.444   1.363  2.6259 -1.9451  0.6652
  441SOL     OW 1321   0.744   0.179   1.373 -0.2954 -0.2374 -0.6411
  441SOL    HW1 1322   0.698   0.097   1.337 -0.5563 -0.3187 -1.2518
  441SOL    HW2 1323   0.705   0.265   1.335 -0.4536 -0.6400  0.8677
  442SOL     OW 1324   2.256   2.069   0.782 -0.7504  0.3161 -0.6599
  442SOL    HW1 1325   2.191   2.043   0.856  1.3050  0.7702 -3.6514
  442SOL    HW2 1326   2.203   2.090   0.698  2.5477  1.3637 -1.5612
  443SOL     OW 1327   2.791   0.359   2.209  0.3033 -0.4490 -0.3710
  443SOL    HW1 1328   2.705   0.355   2.158  3.3623 -0.1203 -3.1492
  443SOL    HW2 1329   2.855   0.282   2.187  0.6333  3.3853 -0.0367
  444SOL     OW 1330   1.794   1.210   2.384  0.1083 -0.3537 -0.1605
  444SOL    HW1 1331   1.758   1.248   2.296 -1.8897  0.2814  0.0730
  444SOL    HW2 1332   1.850   1.128   2.375 -0.0234  2.5871  1.1579
  445SOL     OW 1333   2.490   2.014   1.527 -0.0664 -0.4929  0.2605
  445SOL    HW1 1334   2.419   2.085   1.502  0.1755 -3.1139 -1.7620
  445SOL    HW2 1335   2.521   2.015   1.623  0.8263 -0.2309 -2.4396
  446SOL     OW 1336   0.408   0.790   0.576 -0.3992  0.1614 -1.0067
  446SOL    HW1 1337   0.380   0.692   0.577  0.6894  1.1724 -1.0132
  446SOL    HW2 1338   0.329   0.850   0.551 -0.2985 -2.5955 -2.8683
  447SOL     OW 1339   0.849   1.903   0.994 -0.2489  0.1144 -0.3563
  447SOL    HW1 1340   0.810   1.997   0.984  0.9787  0.9055 -0.3990
  447SOL    HW2 1341   0.784   1.827   0.971  0.3597  0.8824 -1.6132
  448SOL     OW 1342   1.113   1.066   1.808 -0.3397 -0.0470 -0.2732
  448SOL    HW1 1343   1.036   1.091   1.745 -0.0282  0.5855  0.7613
  448SOL    HW2 1344   1.199   1.024   1.764  0.8708 -0.1128 -0.8211
  449SOL     OW 1345   0.284   1.737   2.856  0.2029 -0.7168 -0.6171
  449SOL    HW1 1346   0.222   1.656   2.867 -4.1774 -2.5540 -1.1942
  449SOL    HW2 1347   0.362   1.726   2.922 -0.0239 -0.7703  0.8566
  450SOL     OW 1348   2.448   2.542   2.213  0.5120  0.3724  0.1790
  450SOL    HW1 1349   2.412   2.478   2.137  1.1032 -0.1505 -0.8778
  450SOL    HW2 1350   2.542   2.513   2.241  0.1645  0.9970  1.4693
  451SOL     OW 1351   2.308   0.452   1.973 -0.2882  0.4057 -0.5390
  451SOL    HW1 1352   2.240   0.376   1.990 -0.3785  2.5556  0.6353
  451SOL    HW2 1353   2.262   0.540   1.996  1.1502 -1.1405  2.6047
  452SOL     OW 1354   0.910   2.708   1.132  0.8095 -0.0337 -0.5826
  452SOL    HW1 1355   0.911   2.781   1.062 -0.4922  0.9537  0.2295
  452SOL    HW2 1356   0.946   2.733   1.222  1.9295 -0.1343  0.3445
  453SOL     OW 1357   1.027   1.205   0.957  0.4782  0.1017  0.1725
  453SOL    HW1 1358   1.032   1.302   0.992  1.7576 -0.7728  2.0938
  453SOL    HW2 1359   0.943   1.153   0.984 -0.2164  1.4875  2.6201
  454SOL     OW 1360   0.093   1.055   0.788  0.2425 -0.6089 -0.6396
  454SOL    HW1 1361   0.078   1.042   0.886 -0.5640  0.3413 -1.2837
  454SOL    HW2 1362   0.110   1.155   0.760 -1.5537  0.4511 -1.7319
  455SOL     OW 1363   0.329   0.178   0.169  0.2393  0.4209 -0.3751
  455SOL    HW1 1364   0.404   0.135   0.119  0.3932  1.3344 -0.2785
  455SOL    HW2 1365   0.360   0.259   0.226  0.4070 -0.2191 -0.3797
  456SOL     OW 1366   2.365   2.359   0.703 -0.2227 -0.0750  0.3604
  456SOL    HW1 1367   2.341   2.270   0.744 -0.0057 -0.2495  0.2246
  456SOL    HW2 1368   2.288   2.423   0.718 -2.5344  2.9047  1.8356
  457SOL     OW 1369   1.128   2.934   2.713  0.3355  0.0606  0.1178
  457SOL    HW1 1370   1.223   2.928   2.751  1.8027 -0.4220  0.1482
  457SOL    HW2 1371   1.124   3.000   2.638  0.0779  2.6645 -1.3161
  458SOL     OW 1372   2.752   2.645   0.573 -0.3185 -0.4988 -0.6892
  458SOL    HW1 1373   2.674   2.623   0.634 -0.4639 -1.5253 -1.7924
  458SOL    HW2 1374   2.749   2.578   0.495 -0.9151  0.7602  1.8891
  459SOL     OW 1375   2.507   0.384   2.130 -0.1310 -0.1670 -0.1590
  459SOL    HW1 1376   2.477   0.307   2.192 -0.0228  2.1789  2.2487
  459SOL    HW2 1377   2.431   0.416   2.069 -2.5676  0.6131 -2.4648
  460SOL     OW 1378   3.048   0.541   0.126  0.4565  0.6705  0.2656
  460SOL    HW1 1379   3.016   0.639   0.127 -0.9798  1.8423  1.0962
  460SOL    HW2 1380   3.016   0.489   0.039 -1.7953 -2.2549 -4.9190
  461SOL     OW 1381   0.523   1.882   1.154  0.1841  0.4288  0.3242
  461SOL    HW1 1382   0.554   1.817   1.082 -0.9757 -1.1884 -3.7654
  461SOL    HW2 1383   0.600   1.923   1.201 -1.3229 -1.0629  1.2511
  462SOL     OW 1384   2.954   2.827   1.097  0.1560  0.2339 -0.9965
  462SOL    HW1 1385   3.047   2.812   1.066 -1.9042  0.9513  1.6982
  462SOL    HW2 1386   2.955   2.854   1.196  1.1440 -1.4183  0.6648
  463SOL     OW 1387   2.526   1.167   3.071 -0.2497  0.0953  0.2505
  463SOL    HW1 1388   2.545   1.125   2.981  0.7825 -0.1231  2.0211
  463SOL    HW2 1389   2.605   1.222   0.002  1.2107 -0.1836 -0.7545
  464SOL     OW 1390   0.440   2.391   1.195 -0.5032  0.1077 -0.3370
  464SOL    HW1 1391   0.491   2.366   1.279  0.9964  0.7102 -1.9143
  464SOL    HW2 1392   0.385   2.473   1.219  1.3615  2.0913  1.2427
  465SOL     OW 1393   0.681   0.506   0.877 -0.2379 -0.0807 -0.1612
  465SOL    HW1 1394   0.748   0.445   0.836 -3.4466  1.1633 -1.5944
  465SOL    HW2 1395   0.665   0.576   0.807  1.3505  0.6213  0.8433
  466SOL     OW 1396   1.299   3.095   2.105  0.3094  0.3075  0.1235
  466SOL    HW1 1397   1.311   2.998   2.075 -3.8025 -1.5655 -0.6296
  466SOL    HW2 1398   1.208   0.034   2.081  0.3137  1.9393 -1.4875
  467SOL     OW 1399   0.877   0.207   1.834 -0.3429 -0.0736 -0.0078
  467SOL    HW1 1400   0.945   0.169   1.903  0.5641  1.2233 -0.6175
  467SOL    HW2 1401   0.793   0.241   1.873 -0.5348 -1.0198 -1.1211
  468SOL     OW 1402   0.291   1.052   2.274 -0.1164  0.3880  0.3653
  468SOL    HW1 1403   0.244   1.015   2.194  1.5237 -1.4756  0.6031
  468SOL    HW2 1404   0.265   1.154   2.279 -0.6497  1.3993 -2.8812
  469SOL     OW 1405   0.415   1.625   0.829  0.1993  0.4389  0.0072
  469SOL    HW1 1406   0.413   1.700   0.759  1.2836 -0.0963 -1.6719
  469SOL    HW2 1407   0.436   1.535   0.793  0.2918  0.2644  0.9271
  470SOL     OW 1408   2.342   1.804   2.024 -0.3017 -0.1097  0.2728
  470SOL    HW1 1409   2.308   1.735   1.954  0.1808  0.1166 -0.0336
  470SOL    HW2 1410   2.444   1.817   2.016 -2.0003 -1.5040 -0.1981
  471SOL     OW 1411   1.334   0.331   2.687  0.6387 -0.2074  0.4153
  471SOL    HW1 1412   1.321   0.263   2.759 -0.5359 -0.4470 -0.3058
  471SOL    HW2 1413   1.429   0.367   2.678  1.8223 -0.5950  1.2958
  472SOL     OW 1414   0.306   2.421   1.542 -0.0473  0.1792 -0.0581
  472SOL    HW1 1415   0.329   2.324   1.519  0.2573  1.0177  1.0886
  472SOL    HW2 1416   0.390   2.479   1.543  1.6190 -0.3640  1.1825
  473SOL     OW 1417   0.621   0.255   2.244  0.2494  0.1443 -0.4390
  473SOL    HW1 1418   0.563   0.285   2.323 -0.5531  1.1055  0.8280
  473SOL    HW2 1419   0.704   0.203   2.280  2.3798 -0.4698 -0.3611
  474SOL     OW 1420   1.902   0.281   1.283  0.1988 -0.0142  0.2877
  474SOL    HW1 1421   1.810   0.334   1.271 -3.4399  2.9087  0.6475
  474SOL    HW2 1422   1.929   0.258   1.185 -2.3632 -2.8187 -0.0929
  475SOL     OW 1423   1.941   0.654   1.174  0.2300  0.1942  0.3613
  475SOL    HW1 1424   2.007   0.578   1.182 -0.0462 -1.6560 -0.7574
  475SOL    HW2 1425   1.972   0.740   1.125 -0.6134  0.0924 -0.9193
  476SOL     OW 1426   0.645   0.954   0.873 -0.0234 -0.3804  0.1762
  476SOL    HW1 1427   0.557   0.962   0.917  1.2779 -1.2074 -0.2362
  476SOL    HW2 1428   0.719   0.959   0.942 -2.0280 -0.1255 -1.1415
  477SOL     OW 1429   1.247   2.438   0.793  0.2161  0.3546 -0.4861
  477SOL    HW1 1430   1.201   2.377   0.723 -0.4979 -0.3819 -2.1095
  477SOL    HW2 1431   1.177   2.493   0.843  0.1436 -0.7099 -0.2613
  478SOL     OW 1432   0.008   2.633   2.221 -0.2595  0.0043 -0.2963
  478SOL    HW1 1433   3.057   2.603   2.139 -0.1520 -1.4349 -0.0557
  478SOL    HW2 1434   0.089   2.571   2.218  0.3448  0.8857 -1.3800
  479SOL     OW 1435   2.421   0.428   1.341  0.1249 -0.4003 -0.2567
  479SOL    HW1 1436   2.480   0.368   1.404  1.7941 -0.7224  1.4081
  479SOL    HW2 1437   2.463   0.443   1.250 -0.3224  1.2109 -0.2927
  480SOL     OW 1438   0.488   2.470   0.593 -0.1773  0.4658  0.0371
  480SOL    HW1 1439   0.467   2.554   0.535 -0.6135 -0.2754  0.4041
  480SOL    HW2 1440   0.405   2.417   0.605  1.0185 -0.1964  0.3644
  481SOL     OW 1441   2.277   2.187   1.502 -0.4545 -0.4958 -0.3421
  481SOL    HW1 1442   2.202   2.250   1.473 -0.2007  0.6116 -2.6354
  481SOL    HW2 1443   2.286   2.194   1.603  0.9301  0.6016  2.0223
  482SOL     OW 1444   1.365   2.850   2.814 -0.0916  0.1481 -0.1000
  482SOL    HW1 1445   1.401   2.937   2.772  0.6446 -1.1757  2.3711
  482SOL    HW2 1446   1.446   2.790   2.826  0.1886  0.1812  0.1775
  483SOL     OW 1447   0.831   1.786   1.731  0.0840  0.2659 -0.2233
  483SOL    HW1 1448   0.871   1.775   1.825 -1.1924  2.1707  1.2472
  483SOL    HW2 1449   0.741   1.737   1.726  0.1861 -0.7460 -1.0156
  484SOL     OW 1450   0.941   0.396   1.211  0.5654 -0.0498 -0.3382
  484SOL    HW1 1451   0.933   0.393   1.314  0.5091  0.8380 -0.0372
  484SOL    HW2 1452   0.945   0.494   1.177 -0.6923  3.0001 -1.0005
  485SOL     OW 1453   1.921   1.135   3.080  0.4122 -0.5165  0.1424
  485SOL    HW1 1454   1.829   1.180   3.087 -0.6546  0.9872  1.3931
  485SOL    HW2 1455   1.995   1.183   0.025 -0.5152  0.8861 -2.7427
  486SOL     OW 1456   2.134   0.022   1.277  0.3897  0.2278 -0.2421
  486SOL    HW1 1457   2.142   0.104   1.334 -5.4366 -1.8222  1.0062
  486SOL    HW2 1458   2.221   3.098   1.231 -0.6087  0.3591 -1.1845
  487SOL     OW 1459   0.722   2.021   1.280  0.0259  0.0659 -0.3877
  487SOL    HW1 1460   0.768   2.104   1.242  2.1145 -1.2936  1.0737
  487SOL    HW2 1461   0.679   2.037   1.372  1.1973  0.3762 -1.6846
  488SOL     OW 1462   2.033   2.244   0.157  0.5754 -0.0993 -0.1510
  488SOL    HW1 1463   2.070   2.256   0.058  1.2269 -1.2779 -2.2985
  488SOL    HW2 1464   2.108   2.262   0.226 -0.7201 -0.2164 -2.7135
  489SOL     OW 1465   1.866   2.807   0.608  0.2600  0.5628 -0.0847
  489SOL    HW1 1466   1.892   2.793   0.704 -2.1489 -2.4493 -0.9965
  489SOL    HW2 1467   1.948   2.816   0.550 -1.2055  0.7322  1.1350
  490SOL     OW 1468   0.998   2.053   2.879 -0.3562  0.2039  0.0543
  490SOL    HW1 1469   0.992   2.065   2.780 -0.2025  3.4621  0.7161
  490SOL    HW2 1470   1.007   2.144   2.926 -1.3455 -3.2475  1.2261
  491SOL     OW 1471   0.246   1.995   1.815  0.2373  0.6024  0.4119
  491SOL    HW1 1472   0.293   1.909   1.782 -0.2013 -0.1618 -0.0255
  491SOL    HW2 1473   0.308   2.076   1.810  1.1717 -0.1608  2.0329
  492SOL     OW 1474   0.719   1.424   1.783 -0.1486  0.4441  0.4307
  492SOL    HW1 1475   0.822   1.419   1.778  1.8191 -0.6600 -0.5848
  492SOL    HW2 1476   0.680   1.342   1.837 -0.0102  0.5826 -0.2219
  493SOL     OW 1477   2.465   1.632   0.846 -0.1641  0.1052 -0.7436
  493SOL    HW1 1478   2.419   1.708   0.799 -0.9284  0.2734 -1.2955
  493SOL    HW2 1479   2.527   1.584   0.785 -0.4633  2.7735 -1.1543
  494SOL     OW 1480   2.917   1.584   0.836 -0.3187  0.3413 -0.4574
  494SOL    HW1 1481   2.920   1.523   0.758 -0.4390  1.1777  2.4199
  494SOL    HW2 1482   2.940   1.679   0.812 -0.2933 -1.3393 -1.6551
  495SOL     OW 1483   2.304   2.734   0.593  0.3325  0.9230  0.2139
  495SOL    HW1 1484   2.229   2.749   0.529  0.4173 -0.0134  0.2936
  495SOL    HW2 1485   2.271   2.673   0.669  0.1626 -2.3367  0.7133
  496SOL     OW 1486   2.718   0.097   1.530 -0.1565  0.1731 -0.2740
  496SOL    HW1 1487   2.775   0.083   1.450  0.0164  2.6037 -2.0450
  496SOL    HW2 1488   2.679   0.191   1.527 -0.7257  0.3502  1.0013
  497SOL     OW 1489   2.385   1.252   2.776  0.2093 -0.0458  0.2343
  497SOL    HW1 1490   2.322   1.232   2.693 -2.8036 -0.7884 -4.0607
  497SOL    HW2 1491   2.469   1.193   2.768  1.3871  0.9134 -1.5215
  498SOL     OW 1492   2.851   1.774   1.466  0.3939 -0.0165  0.1516
  498SOL    HW1 1493   2.908   1.826   1.530 -0.8210 -0.0194  0.9442
  498SOL    HW2 1494   2.784   1.838   1.426  1.5947 -1.2476 -1.9049
  499SOL     OW 1495   1.093   2.404   2.418  0.2559 -0.4503 -0.4133
  499SOL    HW1 1496   1.170   2.474   2.439 -1.2944  2.1707  2.5577
  499SOL    HW2 1497   1.023   2.441   2.351 -1.3945  0.2045 -0.8852
  500SOL     OW 1498   1.273   1.464   0.699 -0.5115  0.2196  0.3944
  500SOL    HW1 1499   1.332   1.410   0.635 -0.7452  1.3781 -0.4656
  500SOL    HW2 1500   1.285   1.426   0.792  0.0622  1.2323 -0.5510
  501SOL     OW 1501   1.766   0.290   1.641  0.7608 -0.0777  0.3453
  501SOL    HW1 1502   1.696   0.234   1.690 -1.5174 -0.5116  0.8595
  501SOL    HW2 1503   1.862   0.266   1.663 -1.1638  1.6358  0.4215
  502SOL     OW 1504   2.591   0.632   1.807 -0.5738  0.3283 -0.6765
  502SOL    HW1 1505   2.597   0.620   1.907 -0.0987 -0.4756  0.4326
  502SOL    HW2 1506   2.528   0.566   1.764 -1.7216  0.9458  1.8187
  503SOL     OW 1507   2.468   1.690   2.331 -0.0622 -0.4740  0.1240
  503SOL    HW1 1508   2.433   1.633   2.257  0.7798  3.3523  0.2682
  503SOL    HW2 1509   2.569   1.678   2.352  2.5786 -1.5817 -0.5233
  504SOL     OW 1510   1.230   1.482   1.905 -0.0508 -0.1966 -0.2317
  504SOL    HW1 1511   1.145   1.488   1.849  1.9849 -0.9646  1.8798
  504SOL    HW2 1512   1.258   1.386   1.908  0.3451 -1.3670  1.1838
  505SOL     OW 1513   0.579   3.084   1.271 -0.2755  0.2268  0.6576
  505SOL    HW1 1514   0.509   3.028   1.319  0.8014  0.3355 -1.0783
  505SOL    HW2 1515   0.552   3.084   1.174  3.5517 -0.4224  0.9876
  506SOL     OW 1516   0.151   0.224   3.089  0.2078  0.0422 -0.2707
  506SOL    HW1 1517   0.210   0.205   0.065  0.1235 -1.7592  0.6307
  506SOL    HW2 1518   0.200   0.275   3.020 -1.0242  0.7683  2.4677
  507SOL     OW 1519   0.203   2.514   2.999 -0.0225  0.4680  0.5449
  507SOL    HW1 1520   0.154   2.560   2.919  0.8790  0.0943 -2.2574
  507SOL    HW2 1521   0.140   2.457   3.054  0.4581 -1.1342 -1.5124
  508SOL     OW 1522   1.050   0.256   2.207  0.2109 -0.3615  0.3075
  508SOL    HW1 1523   1.075   0.344   2.165 -1.2359  0.5458  3.3904
  508SOL    HW2 1524   1.112   0.243   2.286  1.0079  1.9011 -0.8602
  509SOL     OW 1525   1.359   2.044   1.274 -0.9500  0.0561 -0.2004
  509SOL    HW1 1526   1.414   2.063   1.354 -3.9579 -1.4436 -2.4324
  509SOL    HW2 1527   1.272   2.095   1.279  0.3322 -3.2032  0.4270
  510SOL     OW 1528   2.694   1.050   1.719  0.6615  0.2577  0.7261
  510SOL    HW1 1529   2.665   1.056   1.816  0.5790 -2.8629 -0.6243
  510SOL    HW2 1530   2.632   1.103   1.653  0.9645  0.5355 -0.5087
  511SOL     OW 1531   1.325   1.782   1.173 -0.6836 -0.5060  0.1194
  511SOL    HW1 1532   1.348   1.880   1.187  0.9441  0.9449  0.9093
  511SOL    HW2 1533   1.301   1.734   1.263 -2.1573  0.2214  1.4522
  512SOL     OW 1534   0.303   1.746   0.320  0.4243 -0.4827  0.4363
  512SOL    HW1 1535   0.243   1.725   0.400 -0.1873  1.2189 -3.1373
  512SOL    HW2 1536   0.244   1.797   0.259 -0.0304  0.5446  1.0764
  513SOL     OW 1537   0.276   1.219   3.063 -0.2073 -0.3050  0.3420
  513SOL    HW1 1538   0.238   1.302   0.002 -1.2390  3.4903  0.6281
  513SOL    HW2 1539   0.211   1.167   2.997  0.3923  0.6232 -0.3776
  514SOL     OW 1540   2.150   2.251   2.304  0.2119 -0.6789 -0.2913
  514SOL    HW1 1541   2.092   2.191   2.240  0.0409 -0.9960  0.0847
  514SOL    HW2 1542   2.250   2.224   2.307 -0.3855 -0.3579  2.0894
  515SOL     OW 1543   2.605   0.926   0.589 -0.2995  0.2487 -0.0315
  515SOL    HW1 1544   2.509   0.941   0.569 -1.3305  0.4856  1.4898
  515SOL    HW2 1545   2.668   0.965   0.525 -0.5302 -1.3874  0.1881
  516SOL     OW 1546   2.558   2.779   0.206  0.7830 -0.0182 -0.3045
  516SOL    HW1 1547   2.561   2.760   0.104  0.0497 -0.1880 -1.3933
  516SOL    HW2 1548   2.513   2.701   0.256 -2.1365  0.8379 -0.7477
  517SOL     OW 1549   0.657   1.636   2.915 -0.0283 -0.1226 -0.3223
  517SOL    HW1 1550   0.714   1.700   2.859 -1.6128 -2.1874 -0.8899
  517SOL    HW2 1551   0.591   1.691   2.971  2.9233  1.7229 -0.5310
  518SOL     OW 1552   0.076   0.158   1.748 -0.9385  0.0864 -0.1715
  518SOL    HW1 1553   3.085   0.123   1.739  0.9719  0.8064 -0.7231
  518SOL    HW2 1554   0.077   0.240   1.807  0.6301 -0.0150 -1.2882
  519SOL     OW 1555   1.663   1.400   0.319  0.0829 -0.2085 -0.4510
  519SOL    HW1 1556   1.666   1.388   0.217  0.3200  1.0634 -1.4071
  519SOL    HW2 1557   1.647   1.494   0.347  0.6572  1.4742  0.7994
  520SOL     OW 1558   2.760   2.779   2.283 -0.5780 -0.2879  0.2128
  520SOL    HW1 1559   2.773   2.775   2.180 -0.7148 -0.5520 -1.8975
  520SOL    HW2 1560   2.726   2.694   2.327 -0.2735  1.4812 -0.2517
  521SOL     OW 1561   3.100   1.916   2.139  0.6067 -0.1138  0.1985
  521SOL    HW1 1562   0.034   2.007   2.157 -2.5447 -1.9448 -0.0520
  521SOL    HW2 1563   0.075   1.855   2.113  0.8264 -1.6592 -0.7930
  522SOL     OW 1564   1.395   3.064   1.772 -0.0671  0.0221 -0.4310
  522SOL    HW1 1565   1.385   2.977   1.826 -2.2749 -1.7556  0.5272
  522SOL    HW2 1566   1.380   3.051   1.673  1.5801  0.5084  0.6557
  523SOL     OW 1567   1.972   2.163   1.150 -0.1953  0.6054 -0.0765
  523SOL    HW1 1568   1.969   2.094   1.074 -0.8129  0.7134  2.1178
  523SOL    HW2 1569   2.044   2.229   1.143 -2.0995  0.9185  0.9170
  524SOL     OW 1570   0.924   2.261   0.840 -0.4672  0.0705 -0.1409
  524SOL    HW1 1571   0.886   2.353   0.868  0.7486  1.8029  0.5706
  524SOL    HW2 1572   0.870   2.180   0.873 -0.9654  2.1720  0.8980
  525SOL     OW 1573   2.851   0.504   0.800 -0.1745  0.1681 -0.7357
  525SOL    HW1 1574   2.764   0.546   0.769  0.7670 -0.7777  0.4800
  525SOL    HW2 1575   2.923   0.576   0.802 -0.7185 -1.1988 -0.3463
  526SOL     OW 1576   1.262   0.408   0.273  0.1121 -0.0417  0.1202
  526SOL    HW1 1577   1.241   0.499   0.316 -0.5555  3.5591 -0.3181
  526SOL    HW2 1578   1.201   0.379   0.195  1.0970 -1.3614  1.0765
  527SOL     OW 1579   1.926   1.353   1.099 -0.3225 -0.3087  0.1832
  527SOL    HW1 1580   1.826   1.361   1.084  1.6710  1.0099 -1.0999
  527SOL    HW2 1581   1.977   1.338   1.006  2.3807 -0.2899  0.4650
  528SOL     OW 1582   2.719   2.528   2.407  0.5413  0.2406 -0.3057
  528SOL    HW1 1583   2.784   2.492   2.477  1.4321  0.1404 -0.0319
  528SOL    HW2 1584   2.753   2.489   2.317  3.6172  0.0188  2.8684
  529SOL     OW 1585   0.967   1.209   2.466 -0.1046 -0.0939 -0.0215
  529SOL    HW1 1586   1.018   1.120   2.478  0.2594 -0.4094 -0.7853
  529SOL    HW2 1587   0.873   1.193   2.432 -0.0262 -1.9103  1.7313
  530SOL     OW 1588   1.727   0.936   2.618  0.5597 -0.1724 -0.0648
  530SOL    HW1 1589   1.761   0.852   2.565  1.0317 -2.4722 -1.2266
  530SOL    HW2 1590   1.801   0.983   2.672  1.6315  1.3434  1.2740
  531SOL     OW 1591   0.166   0.880   0.123  0.0646 -0.0224 -0.3407
  531SOL    HW1 1592   0.060   0.873   0.118 -0.9894 -1.8001  1.8661
  531SOL    HW2 1593   0.189   0.931   0.211  1.3022  2.1439  0.3542
  532SOL     OW 1594   1.712   1.367   0.872 -0.0966 -0.3206  0.2418
  532SOL    HW1 1595   1.631   1.306   0.890 -1.2692  1.7220  1.8340
  532SOL    HW2 1596   1.673   1.457   0.842  0.5749 -0.8817  1.7595
  533SOL     OW 1597   0.452   0.530   2.210 -0.3066 -0.4882 -0.1616
  533SOL    HW1 1598   0.428   0.431   2.206  1.2614  1.3901 -0.6803
  533SOL    HW2 1599   0.519   0.549   2.284 -0.1366 -0.0756  0.4900
  534SOL     OW 1600   0.798   0.162   2.725 -0.2725 -0.5343  0.4262
  534SOL    HW1 1601   0.845   0.237   2.778 -2.3776 -0.7344  3.5449
  534SOL    HW2 1602   0.810   0.071   2.764  0.0698 -1.2687 -0.5162
  535SOL     OW 1603   0.508   0.365   3.043  0.2075  0.4149  0.4189
  535SOL    HW1 1604   0.471   0.385   0.030 -0.3449 -1.2255  1.5293
  535SOL    HW2 1605   0.427   0.355   2.982 -1.4832  1.9758  1.3222
  536SOL     OW 1606   0.540   0.921   2.316 -1.4773 -0.0522 -0.0854
  536SOL    HW1 1607   0.447   0.946   2.342  0.9393  1.0564  0.8414
  536SOL    HW2 1608   0.555   0.893   2.220  0.0159  0.8424  0.0220
  537SOL     OW 1609   1.535   0.111   1.222 -0.0517 -0.2773  0.3118
  537SOL    HW1 1610   1.519   0.087   1.321  0.3428  0.9724 -1.6019
  537SOL    HW2 1611   1.470   0.188   1.191  0.0591  0.9879 -0.0569
  538SOL     OW 1612   0.493   2.033   3.045 -0.2026  0.1824  0.1138
  538SOL    HW1 1613   0.578   2.083   3.075  1.7257  1.8460 -0.1654
  538SOL    HW2 1614   0.489   2.016   2.946 -2.5075 -1.5150  1.7433
  539SOL     OW 1615   2.240   1.223   1.888  0.4799  0.7055 -0.0275
  539SOL    HW1 1616   2.146   1.271   1.879 -2.4275  1.7944 -1.6404
  539SOL    HW2 1617   2.265   1.234   1.984  2.7850  0.9894  2.7158
  540SOL     OW 1618   1.913   1.745   1.627  0.3803  0.4316 -0.1277
  540SOL    HW1 1619   1.861   1.797   1.556 -3.1133  1.0389  2.6740
  540SOL    HW2 1620   1.919   1.804   1.712 -2.3744  0.8961  0.9755
  541SOL     OW 1621   0.608   1.633   1.698  0.3231  0.0342  0.5070
  541SOL    HW1 1622   0.663   1.555   1.733 -2.3092  2.9573 -0.0295
  541SOL    HW2 1623   0.634   1.643   1.597  2.1284 -0.3876 -0.6471
  542SOL     OW 1624   1.785   0.764   2.410  0.5742  0.2992 -0.1722
  542SOL    HW1 1625   1.798   0.862   2.382  1.3962 -2.2650  0.6337
  542SOL    HW2 1626   1.870   0.714   2.414  0.6091 -1.3192  0.3615
  543SOL     OW 1627   1.022   0.436   0.559 -0.3817 -0.0911  0.3278
  543SOL    HW1 1628   0.950   0.501   0.550  0.8457 -0.0527  1.1483
  543SOL    HW2 1629   0.997   0.352   0.506  1.9766 -0.3077 -0.9750
  544SOL     OW 1630   2.239   1.969   2.576  0.3664  0.0706  0.3411
  544SOL    HW1 1631   2.277   1.960   2.482 -1.5518 -1.6722  1.8146
  544SOL    HW2 1632   2.280   1.900   2.637  0.0963 -0.0816 -1.5973
  545SOL     OW 1633   1.777   1.888   1.450 -0.6230  0.5589  0.2335
  545SOL    HW1 1634   1.799   1.823   1.375 -1.1010  0.4470  1.1350
  545SOL    HW2 1635   1.801   1.986   1.421 -0.0544 -0.7165 -2.5563
  546SOL     OW 1636   0.302   0.280   2.867  0.3086 -0.0528 -0.1004
  546SOL    HW1 1637   0.260   0.336   2.791 -1.5920 -1.3052 -1.7564
  546SOL    HW2 1638   0.323   0.189   2.823 -1.6037 -2.6532  1.1470
  547SOL     OW 1639   2.253   0.871   0.128 -0.4414  0.4655  0.0203
  547SOL    HW1 1640   2.156   0.843   0.116 -0.4075  2.2756 -1.5508
  547SOL    HW2 1641   2.312   0.803   0.085 -2.7212  1.8147  0.6677
  548SOL     OW 1642   2.294   1.893   2.325  0.2112 -0.0049 -0.0533
  548SOL    HW1 1643   2.293   1.944   2.235 -0.4557 -1.9077 -0.1594
  548SOL    HW2 1644   2.336   1.804   2.317  1.7562  1.2413  1.2937
  549SOL     OW 1645   2.170   0.271   0.709  0.5330 -0.2385  0.1261
  549SOL    HW1 1646   2.170   0.213   0.789 -2.9167 -0.1754 -2.9213
  549SOL    HW2 1647   2.262   0.304   0.683 -0.9418 -0.8795  0.9628
  550SOL     OW 1648   2.169   1.796   0.533  0.6041 -0.7931 -0.2749
  550SOL    HW1 1649   2.172   1.836   0.437  0.5293  2.1534 -1.6964
  550SOL    HW2 1650   2.073   1.796   0.562 -0.2330  0.3529 -0.7107
  551SOL     OW 1651   1.360   0.288   2.077  0.1902  0.5348  0.3151
  551SOL    HW1 1652   1.452   0.302   2.115 -2.1164 -0.2218  0.7573
  551SOL    HW2 1653   1.327   0.191   2.094 -3.2961 -0.5457  3.7414
  552SOL     OW 1654   0.066   2.272   2.404  0.9177 -0.0461  0.3337
  552SOL    HW1 1655   0.083   2.256   2.303  0.1117  0.0121  1.5358
  552SOL    HW2 1656   0.155   2.289   2.448  0.4731 -2.1879 -0.1778
  553SOL     OW 1657   0.802   3.080   0.144  0.6294  0.0521 -0.5828
  553SOL    HW1 1658   0.899   3.066   0.176 -1.2547 -1.3413  2.2078
  553SOL    HW2 1659   0.746   0.017   0.215 -0.4203 -0.6738 -0.2115
  554SOL     OW 1660   1.985   2.109   1.686  0.4275  0.4058  0.2399
  554SOL    HW1 1661   1.961   2.108   1.588 -2.1052 -0.7821  1.3706
  554SOL    HW2 1662   1.993   2.205   1.722  2.1821 -1.3279  3.0441
  555SOL     OW 1663   1.211   2.167   1.936  0.0186  0.7328 -0.1924
  555SOL    HW1 1664   1.234   2.177   2.032  2.7936  2.5918 -1.9052
  555SOL    HW2 1665   1.276   2.224   1.879  1.0858  0.4266  0.2688
  556SOL     OW 1666   1.324   1.993   0.713  0.6374 -0.3003 -0.0962
  556SOL    HW1 1667   1.333   2.066   0.640  0.7182 -0.1811  2.6283
  556SOL    HW2 1668   1.267   2.025   0.791  0.1522 -0.0047  1.2779
  557SOL     OW 1669   1.698   2.135   1.951  0.3578  0.0917 -0.0265
  557SOL    HW1 1670   1.784   2.117   1.902 -2.3913  0.3163 -1.5553
  557SOL    HW2 1671   1.685   2.067   2.024  2.4527  0.9120 -0.8060
  558SOL     OW 1672   0.174   0.319   1.557 -0.3829 -0.0800 -0.1862
  558SOL    HW1 1673   0.193   0.247   1.628 -1.2046  0.9998 -0.3570
  558SOL    HW2 1674   0.220   0.298   1.464  2.9452 -0.3798 -4.6117
  559SOL     OW 1675   2.410   3.023   1.191 -0.0093  0.1758 -0.0629
  559SOL    HW1 1676   2.451   2.954   1.128 -0.4476 -2.9041  1.3797
  559SOL    HW2 1677   2.410   0.011   1.146  0.4680  0.3779  0.0617
  560SOL     OW 1678   0.806   2.287   0.244 -0.4609 -0.2514  0.1463
  560SOL    HW1 1679   0.898   2.248   0.219  0.6620 -0.9833 -1.4753
  560SOL    HW2 1680   0.745   2.240   0.307  1.5125  2.2386 -3.8590
  561SOL     OW 1681   1.010   0.793   0.247 -0.3988 -0.2188  0.1893
  561SOL    HW1 1682   0.927   0.750   0.209  0.7972  0.5083  1.2380
  561SOL    HW2 1683   0.987   0.886   0.283 -0.7168  1.1842  0.4796
  562SOL     OW 1684   0.841   0.606   2.639  0.0421  0.6734 -0.6016
  562SOL    HW1 1685   0.917   0.537   2.645 -1.0980 -1.4214 -1.3512
  562SOL    HW2 1686   0.816   0.645   2.731  2.7620 -1.7437 -2.4353
  563SOL     OW 1687   1.834   2.457   2.385 -0.5051  0.0795  0.5777
  563SOL    HW1 1688   1.821   2.353   2.381  1.5599 -2.3982 -0.9847
  563SOL    HW2 1689   1.891   2.474   2.469 -2.7148  0.7007  0.1347
  564SOL     OW 1690   0.273   1.071   0.320  0.2156  0.3817  0.1323
  564SOL    HW1 1691   0.354   1.073   0.262  0.9977 -3.0920 -1.2382
  564SOL    HW2 1692   0.240   1.166   0.333  1.4891  2.0717 -0.2222
  565SOL     OW 1693   1.415   3.070   2.676 -0.0602  0.0123  0.2636
  565SOL    HW1 1694   1.436   3.093   2.580  2.2730 -1.4852 -1.0105
  565SOL    HW2 1695   1.445   0.044   2.733  1.2113 -0.1516  0.8023
  566SOL     OW 1696   1.913   0.014   2.432  0.6677  0.5436 -0.0029
  566SOL    HW1 1697   1.912   3.020   2.413  0.9001  0.9816  2.0887
  566SOL    HW2 1698   1.880   0.060   2.346 -2.2712 -1.6442  0.8735
  567SOL     OW 1699   2.498   1.250   0.853  0.0339  0.1104  0.1664
  567SOL    HW1 1700   2.516   1.297   0.939  1.4886  1.5611 -1.0609
  567SOL    HW2 1701   2.404   1.216   0.846  0.3870 -0.0090 -0.5607
  568SOL     OW 1702   1.835   1.961   0.389 -0.1351 -0.2874 -0.2405
  568SOL    HW1 1703   1.811   1.965   0.290  0.0307  1.6487 -0.8413
  568SOL    HW2 1704   1.867   1.870   0.428  0.2131  3.0270  1.6472
  569SOL     OW 1705   2.181   1.720   3.014  0.5689  0.1404 -0.4305
  569SOL    HW1 1706   2.213   1.661   3.093  0.1111 -1.4257  3.0551
  569SOL    HW2 1707   2.146   1.664   2.939  1.4865  1.7290  0.0463
  570SOL     OW 1708   3.020   2.510   1.697 -0.4736 -0.2899  0.5185
  570SOL    HW1 1709   3.065   2.540   1.610  2.3610 -1.5706 -0.5456
  570SOL    HW2 1710   3.028   2.405   1.704  3.2219  0.4882 -2.6935
  571SOL     OW 1711   0.098   0.287   2.190  0.4702  0.6801 -0.3728
  571SOL    HW1 1712   0.196   0.273   2.174 -1.7724 -1.0811  0.7170
  571SOL    HW2 1713   0.075   0.379   2.230 -0.2808  3.2690  1.4927
  572SOL     OW 1714   1.022   1.491   1.022  0.7792  0.1456 -0.0758
  572SOL    HW1 1715   1.061   1.582   1.003 -0.6266 -0.9379  0.4953
  572SOL    HW2 1716   0.985   1.483   1.119 -1.2462  0.7049 -0.4994
  573SOL     OW 1717   0.957   0.333   2.844  0.1125  0.0896 -0.5634
  573SOL    HW1 1718   1.012   0.271   2.904 -1.5646 -0.3298  0.0773
  573SOL    HW2 1719   1.024   0.396   2.802 -0.4308 -2.2087  0.9843
  574SOL     OW 1720   0.711   3.079   0.677  0.6774  0.2170 -0.6054
  574SOL    HW1 1721   0.777   3.044   0.609 -2.8748 -1.9531  1.7418
  574SOL    HW2 1722   0.611   3.066   0.654  0.6556  2.8803  3.5503
  575SOL     OW 1723   3.053   1.249   1.461  0.0959 -0.3385 -0.2904
  575SOL    HW1 1724   0.018   1.209   1.405 -1.0851  2.9880  1.4944
  575SOL    HW2 1725   3.067   1.351   1.459  0.9593  1.0406 -1.4649
  576SOL     OW 1726   2.467   0.308   1.768 -0.5020  0.6451  0.2360
  576SOL    HW1 1727   2.456   0.340   1.863  0.9554  1.4691 -1.7504
  576SOL    HW2 1728   2.478   0.206   1.761  0.6552 -1.2686  0.2462
  577SOL     OW 1729   2.816   1.401   2.100  0.0425 -0.1652  0.3683
  577SOL    HW1 1730   2.874   1.398   2.184 -0.4171  1.1895  1.2041
  577SOL    HW2 1731   2.868   1.379   2.012 -1.9056 -1.6320 -1.1429
  578SOL     OW 1732   1.629   2.776   2.483 -0.3882 -0.0235 -0.0806
  578SOL    HW1 1733   1.602   2.693   2.435 -0.5433  0.2410  0.2515
  578SOL    HW2 1734   1.560   2.853   2.472  2.3943  0.2551  0.2710
  579SOL     OW 1735   2.138   2.267   1.987 -0.4591  0.4065 -0.0607
  579SOL    HW1 1736   2.081   2.191   2.022  0.6533  2.5287 -3.0503
  579SOL    HW2 1737   2.103   2.314   1.905 -1.4184 -0.9989 -2.3870
  580SOL     OW 1738   1.768   1.622   2.105 -0.3471  0.1340  0.3906
  580SOL    HW1 1739   1.669   1.629   2.129  1.1374 -2.3361 -1.5933
  580SOL    HW2 1740   1.778   1.637   2.004  1.6806 -0.8300  0.0010
  581SOL     OW 1741   1.298   1.089   2.454  0.4578  0.0636 -0.5341
  581SOL    HW1 1742   1.390   1.107   2.493 -0.9347  0.0422  1.1281
  581SOL    HW2 1743   1.249   1.014   2.500  0.5140  1.7850  1.9985
  582SOL     OW 1744   0.240   2.425   1.805  0.2093 -0.1496  0.3137
  582SOL    HW1 1745   0.276   2.442   1.711  1.1071 -0.3695  1.3854
  582SOL    HW2 1746   0.211   2.513   1.849 -2.2704 -0.4450 -1.1232
  583SOL     OW 1747   1.514   1.093   1.126 -0.3464  0.2672 -0.5650
  583SOL    HW1 1748   1.415   1.115   1.129  3.0095  0.8462  2.6424
  583SOL    HW2 1749   1.532   1.042   1.212 -0.3061  2.7754 -1.0334
  584SOL     OW 1750   1.084   2.307   0.599 -0.3215  0.7084  0.5728
  584SOL    HW1 1751   1.057   2.334   0.507  0.5422 -2.5597  1.3315
  584SOL    HW2 1752   1.011   2.256   0.650  1.7394 -3.1815  1.1498
  585SOL     OW 1753   2.982   2.402   3.015  0.0113 -0.1656  0.6078
  585SOL    HW1 1754   3.030   2.339   3.075 -0.7746  2.1042  0.3665
  585SOL    HW2 1755   2.983   2.500   3.042  0.4912  0.7857  0.6149
  586SOL     OW 1756   2.772   1.414   0.388 -0.2913 -0.3375 -0.4911
  586SOL    HW1 1757   2.797   1.346   0.315  0.7639  2.1750  2.9913
  586SOL    HW2 1758   2.682   1.452   0.367  0.3741 -0.2011  1.6321
  587SOL     OW 1759   1.134   1.486   2.976  0.4523 -0.2014 -0.4813
  587SOL    HW1 1760   1.144   1.388   2.948 -0.3427 -0.1506  0.1572
  587SOL    HW2 1761   1.224   1.532   3.001  1.0940 -1.0142 -1.3141
  588SOL     OW 1762   0.368   0.220   0.673  0.0117  0.2895  0.4622
  588SOL    HW1 1763   0.410   0.132   0.704  0.3580  2.0956 -0.0125
  588SOL    HW2 1764   0.369   0.287   0.740  4.5452 -4.7751 -1.5246
  589SOL     OW 1765   1.419   0.395   0.607  0.3030  0.0386 -0.0301
  589SOL    HW1 1766   1.336   0.414   0.664  3.6066  0.8921  0.6007
  589SOL    HW2 1767   1.444   0.475   0.549  1.7890  1.0407 -2.9974
  590SOL     OW 1768   2.322   2.372   0.381 -0.4443 -0.5198 -0.0140
  590SOL    HW1 1769   2.375   2.288   0.383 -0.4314  2.5800 -0.6987
  590SOL    HW2 1770   2.244   2.374   0.447 -0.2569  0.3686 -0.6832
  591SOL     OW 1771   0.155   2.649   1.926 -0.4338 -0.0645  0.1156
  591SOL    HW1 1772   0.230   2.698   1.978  0.2695  2.7213  0.0900
  591SOL    HW2 1773   0.092   2.721   1.883  0.0419  1.3937  0.9448
  592SOL     OW 1774   2.841   1.973   2.121 -0.2108  0.1096  0.5744
  592SOL    HW1 1775   2.817   1.990   2.219 -1.7001 -0.1594 -0.2580
  592SOL    HW2 1776   2.943   1.952   2.119 -0.7692 -3.2484  0.1144
  593SOL     OW 1777   1.525   1.392   1.437 -0.6754 -0.1178  0.0992
  593SOL    HW1 1778   1.595   1.460   1.472  2.0591  1.3254  0.7462
  593SOL    HW2 1779   1.563   1.357   1.346  1.4091 -1.2800 -4.2479
  594SOL     OW 1780   0.786   1.179   3.060  0.0416 -0.4114  0.1129
  594SOL    HW1 1781   0.700   1.173   3.007  0.9216  0.5002 -0.2488
  594SOL    HW2 1782   0.821   1.274   3.051 -1.7678  0.4021  1.9020
  595SOL     OW 1783   1.435   0.874   0.748  0.0861 -0.4112  0.2055
  595SOL    HW1 1784   1.357   0.812   0.766  0.2600  2.1706  0.4385
  595SOL    HW2 1785   1.417   0.968   0.776  3.1930 -3.7374  1.2198
  596SOL     OW 1786   3.016   0.991   1.085  0.7651  0.0556 -0.6785
  596SOL    HW1 1787   3.042   0.923   1.161  0.5770 -0.4545  1.4461
  596SOL    HW2 1788   3.094   1.055   1.069 -0.9206 -1.0306  0.0079
  597SOL     OW 1789   0.823   2.278   1.833 -0.7507 -0.2482 -0.1901
  597SOL    HW1 1790   0.740   2.330   1.810  0.9006 -1.0164  1.3145
  597SOL    HW2 1791   0.835   2.202   1.768 -3.4796  1.2151 -0.4904
  598SOL     OW 1792   2.185   2.616   2.016  0.6546  0.1080  0.2979
  598SOL    HW1 1793   2.129   2.601   2.101  0.0496 -0.8469 -0.3509
  598SOL    HW2 1794   2.253   2.539   2.002 -0.6555  0.7081  0.1920
  599SOL     OW 1795   0.991   1.056   0.394 -0.1084 -0.4743 -0.4900
  599SOL    HW1 1796   1.036   1.119   0.466  1.8162  3.9880  2.2849
  599SOL    HW2 1797   0.977   1.108   0.308 -1.0344 -0.3196 -2.8309
  600SOL     OW 1798   1.410   0.863   0.012 -0.4270  0.2751  0.4440
  600SOL    HW1 1799   1.341   0.794   3.087 -3.1240 -1.9196 -1.1815
  600SOL    HW2 1800   1.496   0.816   0.036  1.3150 -1.8701  1.8988
  601SOL     OW 1801   0.902   0.462   1.493 -0.3319 -0.5014 -0.5588
  601SOL    HW1 1802   0.944   0.445   1.583 -0.4387  0.8816  0.2170
  601SOL    HW2 1803   0.801   0.473   1.503 -2.3203  1.3817  0.9856
  602SOL     OW 1804   0.488   2.146   0.788 -0.7231 -0.0452  0.1624
  602SOL    HW1 1805   0.420   2.111   0.723  1.0348 -0.9601 -1.2221
  602SOL    HW2 1806   0.445   2.219   0.847 -0.0518  0.4708  2.1460
  603SOL     OW 1807   0.937   2.500   2.193 -0.3728  0.1208 -0.3639
  603SOL    HW1 1808   0.980   2.434   2.130  2.3720 -0.5074 -0.6151
  603SOL    HW2 1809   0.965   2.596   2.179 -1.8108  0.2955 -0.6637
  604SOL     OW 1810   0.304   2.132   0.113 -0.5704  0.2242 -0.0768
  604SOL    HW1 1811   0.340   2.181   0.196  0.4181  2.2134 -0.4318
  604SOL    HW2 1812   0.382   2.098   0.052 -0.3801 -0.2214  1.1547
  605SOL     OW 1813   2.003   1.439   1.876  0.0437 -0.1951 -0.8053
  605SOL    HW1 1814   1.913   1.394   1.868  2.1718 -0.2692 -1.4426
  605SOL    HW2 1815   2.035   1.478   1.788 -0.5497  1.3236 -0.5583
  606SOL     OW 1816   0.993   1.042   2.890 -0.0799  0.0579  0.4124
  606SOL    HW1 1817   0.918   1.079   2.953 -2.1692  1.3983 -1.0273
  606SOL    HW2 1818   1.073   1.107   2.886  0.6715  2.0648 -0.0854
  607SOL     OW 1819   1.234   1.168   1.136 -0.1570 -0.3188  0.1730
  607SOL    HW1 1820   1.191   1.143   1.225 -1.9241  1.4029  0.4201
  607SOL    HW2 1821   1.171   1.158   1.057  0.3261 -3.5622  0.2601
  608SOL     OW 1822   2.738   2.185   1.995 -0.4255 -0.2237  0.2201
  608SOL    HW1 1823   2.723   2.197   1.897 -0.7416  0.9889  0.0796
  608SOL    HW2 1824   2.764   2.089   2.025  1.9104 -0.5746  1.0920
  609SOL     OW 1825   2.289   0.043   0.388 -0.2349 -0.3528 -0.5022
  609SOL    HW1 1826   2.375   0.050   0.441  1.1796 -0.1866 -2.7251
  609SOL    HW2 1827   2.284   3.052   0.351  1.0848 -0.7889  1.4075
  610SOL     OW 1828   0.060   2.160   1.460  0.3873  0.4330 -0.2542
  610SOL    HW1 1829   0.106   2.201   1.380  0.3014  0.2992  0.3960
  610SOL    HW2 1830   0.084   2.064   1.473 -1.3083  0.4988  2.0028
  611SOL     OW 1831   1.465   2.388   0.441 -0.2192 -0.3105 -0.3734
  611SOL    HW1 1832   1.548   2.326   0.415  1.8693 -0.3716 -0.6144
  611SOL    HW2 1833   1.479   2.437   0.533  0.4224  0.8140 -0.7545
  612SOL     OW 1834   0.601   3.048   1.575  0.3935  0.0351  0.0696
  612SOL    HW1 1835   0.706   3.051   1.584  1.6489  0.7600 -0.9008
  612SOL    HW2 1836   0.557   0.034   1.563  0.5549 -1.3849  3.0700
  613SOL     OW 1837   0.106   1.693   0.504 -0.3211  0.4053 -0.6627
  613SOL    HW1 1838   0.083   1.758   0.580  0.9206  2.8226 -1.1123
  613SOL    HW2 1839   0.023   1.658   0.448 -3.2618  0.7424 -0.2934
  614SOL     OW 1840   2.002   0.516   2.172 -0.2401  0.4991 -0.1305
  614SOL    HW1 1841   2.016   0.529   2.275 -0.4237 -2.0289  1.2587
  614SOL    HW2 1842   1.973   0.598   2.124  1.3154  2.0834  0.5488
  615SOL     OW 1843   0.728   1.280   1.050  0.3173  0.0731 -0.1038
  615SOL    HW1 1844   0.751   1.345   1.130 -0.2870  0.8738 -1.4226
  615SOL    HW2 1845   0.740   1.324   0.960  0.8364 -3.4025  0.6262
  616SOL     OW 1846   1.595   1.815   0.104 -0.0148  0.0777  0.0795
  616SOL    HW1 1847   1.517   1.884   0.095 -2.5764  1.7977  0.3557
  616SOL    HW2 1848   1.685   1.862   0.113  1.3131  0.1263  1.1832
  617SOL     OW 1849   2.093   2.813   0.447  0.0257  0.6085  0.5630
  617SOL    HW1 1850   2.180   2.835   0.395 -0.4651  1.1794  1.4866
  617SOL    HW2 1851   2.014   2.821   0.382 -1.9641  0.9373 -2.6982
  618SOL     OW 1852   0.588   0.679   2.463 -0.3696  0.2631 -0.7756
  618SOL    HW1 1853   0.558   0.763   2.411  0.9357  3.3790  2.6272
  618SOL    HW2 1854   0.687   0.672   2.473 -0.8450  1.5827  1.6075
  619SOL     OW 1855   2.750   1.623   1.075 -0.3751  0.2597  0.4580
  619SOL    HW1 1856   2.778   1.597   0.977  2.3394  3.0406 -2.8692
  619SOL    HW2 1857   2.667   1.683   1.069 -0.4261  0.5782  0.9827
  620SOL     OW 1858   2.231   2.880   2.853  0.0727 -0.4462 -0.1767
  620SOL    HW1 1859   2.262   2.841   2.766  1.3948  0.4331  3.2154
  620SOL    HW2 1860   2.127   2.889   2.860 -1.6137  0.7055 -0.1273
  621SOL     OW 1861   2.517   1.695   0.073 -0.0812 -0.3881  0.0855
  621SOL    HW1 1862   2.487   1.597   0.069 -1.5248 -2.1770  1.3331
  621SOL    HW2 1863   2.529   1.715   0.172  0.7823 -4.7817  0.4977
  622SOL     OW 1864   1.804   0.123   2.189  0.7581  0.2448  0.4343
  622SOL    HW1 1865   1.721   0.175   2.208  2.5961 -0.9266  0.3141
  622SOL    HW2 1866   1.806   0.078   2.094 -0.9058 -1.2542  0.9039
  623SOL     OW 1867   1.162   2.120   0.883 -0.0280  0.1802 -0.3899
  623SOL    HW1 1868   1.076   2.179   0.888 -0.0368 -1.1679  0.6656
  623SOL    HW2 1869   1.232   2.147   0.947  0.2200 -2.8652  0.6742
  624SOL     OW 1870   0.089   3.054   3.015  0.0764  0.0214  0.4622
  624SOL    HW1 1871   0.175   3.006   3.018 -1.6609  0.7021  0.7853
  624SOL    HW2 1872   0.104   0.046   3.030  0.5131 -3.4245  0.2362
  625SOL     OW 1873   1.065   1.741   0.737  0.3585 -0.0790  0.0646
  625SOL    HW1 1874   1.075   1.740   0.837 -3.0222 -1.5812  0.9635
  625SOL    HW2 1875   1.034   1.830   0.704  1.5486 -1.4017 -2.1111
  626SOL     OW 1876   3.037   2.887   0.080  0.1695  0.0777  0.0186
  626SOL    HW1 1877   3.091   2.953   0.027 -0.7829 -0.8712  0.8430
  626SOL    HW2 1878   3.095   2.845   0.152 -1.6605  0.9123 -3.6864
  627SOL     OW 1879   1.237   1.811   2.808 -0.0610 -0.0312  0.4073
  627SOL    HW1 1880   1.162   1.770   2.754  1.0972  0.9014 -0.6832
  627SOL    HW2 1881   1.209   1.850   2.896 -1.1400 -0.5035 -1.8853
  628SOL     OW 1882   0.219   2.868   2.760  0.5381  0.3589 -0.4640
  628SOL    HW1 1883   0.318   2.844   2.754 -1.7350  0.2260 -0.6713
  628SOL    HW2 1884   0.160   2.792   2.799  0.3374 -3.3312  0.0945
  629SOL     OW 1885   0.468   2.917   2.382  0.0495 -0.2079  0.0529
  629SOL    HW1 1886   0.493   2.892   2.477 -2.3461 -2.5396 -1.3593
  629SOL    HW2 1887   0.413   2.998   2.370 -1.8207 -2.3047 -1.0875
  630SOL     OW 1888   1.267   1.221   1.991  0.0085  0.2458  0.4711
  630SOL    HW1 1889   1.266   1.177   2.082 -0.9483  0.3156  0.8613
  630SOL    HW2 1890   1.200   1.175   1.933 -0.4095  0.0723  1.2959
  631SOL     OW 1891   2.281   1.139   0.569  0.1907 -0.3657  0.3091
  631SOL    HW1 1892   2.339   1.226   0.562  3.7000  1.3653 -0.4287
  631SOL    HW2 1893   2.313   1.061   0.510 -0.5833 -1.0738  1.6736
  632SOL     OW 1894   2.608   0.638   2.092 -0.4367 -0.3303 -0.3202
  632SOL    HW1 1895   2.665   0.701   2.149 -0.0369  0.3057 -0.0172
  632SOL    HW2 1896   2.593   0.548   2.135  0.3620 -0.3342 -1.3073
  633SOL     OW 1897   0.831   1.931   0.269 -0.0282 -0.4307  0.2686
  633SOL    HW1 1898   0.761   2.006   0.279 -1.4905  1.2629 -1.3229
  633SOL    HW2 1899   0.928   1.955   0.296 -0.6104 -1.7011 -1.5439
  634SOL     OW 1900   1.829   2.770   2.691 -0.3787 -0.3187 -0.0724
  634SOL    HW1 1901   1.756   2.784   2.622  1.2650 -0.8376 -0.8821
  634SOL    HW2 1902   1.913   2.739   2.642 -2.4426 -1.9102 -0.2951
  635SOL     OW 1903   2.222   0.309   0.277 -0.2020  0.8681 -0.1717
  635SOL    HW1 1904   2.263   0.213   0.295  0.9779 -2.0167  1.6973
  635SOL    HW2 1905   2.121   0.320   0.303 -3.1461  0.0648  2.6926
  636SOL     OW 1906   0.711   1.505   0.587  0.3387  0.4051 -0.3275
  636SOL    HW1 1907   0.712   1.581   0.523  1.8359  0.9332  1.8174
  636SOL    HW2 1908   0.655   1.426   0.540 -0.1164  1.0031 -0.1766
  637SOL     OW 1909   2.872   2.055   0.427 -0.2317 -0.6383 -0.3249
  637SOL    HW1 1910   2.909   2.123   0.363 -2.2513  1.2624 -0.3778
  637SOL    HW2 1911   2.881   2.091   0.521 -0.2031  1.8520 -0.3851
  638SOL     OW 1912   0.832   2.613   2.573  0.0265  0.4857 -0.3707
  638SOL    HW1 1913   0.916   2.653   2.533  0.2300 -1.0038 -3.1402
  638SOL    HW2 1914   0.854   2.534   2.635  1.5456  0.6995  0.0810
  639SOL     OW 1915   1.382   2.003   0.090  0.4004 -0.6503 -0.4829
  639SOL    HW1 1916   1.304   1.978   0.029  0.1703 -0.9754  0.2019
  639SOL    HW2 1917   1.350   1.994   0.188 -2.1474  0.9988 -0.4921
  640SOL     OW 1918   1.826   0.043   0.916 -0.0597  0.7112  0.2465
  640SOL    HW1 1919   1.746   3.100   0.958  1.0245 -1.4270 -2.4926
  640SOL    HW2 1920   1.823   0.049   0.818  0.7856 -1.7023  0.7758
  641SOL     OW 1921   3.071   2.914   0.441  0.2076 -0.0777 -0.3910
  641SOL    HW1 1922   2.969   2.910   0.456 -3.4660  0.9561 -0.9812
  641SOL    HW2 1923   3.101   3.002   0.407 -1.9827  0.8008  1.2240
  642SOL     OW 1924   1.227   0.196   1.459  0.1051  0.2662 -0.6952
  642SOL    HW1 1925   1.167   0.157   1.386 -0.1527 -1.2054 -0.4342
  642SOL    HW2 1926   1.170   0.237   1.534  0.5965 -0.2023 -0.9758
  643SOL     OW 1927   0.459   1.746   1.996 -0.4599  0.1229 -0.0137
  643SOL    HW1 1928   0.542   1.812   2.002  1.1218  2.4888 -0.2312
  643SOL    HW2 1929   0.424   1.745   1.897 -1.2732 -1.0137 -1.9693
  644SOL     OW 1930   0.760   2.587   0.230  0.8004 -0.0367  0.9847
  644SOL    HW1 1931   0.799   2.491   0.235 -0.9642  0.2830  0.3604
  644SOL    HW2 1932   0.660   2.579   0.252 -0.1839  0.7286 -1.9316
  645SOL     OW 1933   1.440   2.252   0.021 -0.0382 -0.2247 -0.2099
  645SOL    HW1 1934   1.379   2.266   3.041 -2.0489 -2.8473 -3.3781
  645SOL    HW2 1935   1.421   2.150   0.051  0.7775 -2.7946 -1.2268
  646SOL     OW 1936   0.529   1.161   2.914 -0.3970 -0.1399  0.1164
  646SOL    HW1 1937   0.560   1.242   2.855  0.4016  2.8076 -2.1353
  646SOL    HW2 1938   0.447   1.187   2.970  1.4339 -0.1869 -2.4116
  647SOL     OW 1939   0.661   0.044   0.939 -0.6044  0.3645 -0.3310
  647SOL    HW1 1940   0.691   0.042   0.838 -2.0958  1.0685  0.1954
  647SOL    HW2 1941   0.723   0.111   0.986  0.1874  0.9009  0.0626
  648SOL     OW 1942   2.057   0.328   1.678 -0.6120 -0.3221 -0.5420
  648SOL    HW1 1943   2.096   0.245   1.725  0.9374  1.5208  1.2758
  648SOL    HW2 1944   2.086   0.329   1.580 -1.8699  0.5167  1.3358
  649SOL     OW 1945   1.185   1.968   2.521 -0.1466 -0.7092 -0.5700
  649SOL    HW1 1946   1.127   2.022   2.591 -1.1595  0.6575 -0.8075
  649SOL    HW2 1947   1.147   1.873   2.503 -1.9462 -1.4538  2.6364
  650SOL     OW 1948   2.607   1.814   1.949  0.2329  0.6866 -0.3440
  650SOL    HW1 1949   2.603   1.744   1.872 -0.7366 -1.9224 -0.9397
  650SOL    HW2 1950   2.689   1.822   2.001 -1.0696 -1.3923 -2.2826
  651SOL     OW 1951   1.224   0.197   2.926 -0.7457  0.4755 -0.8712
  651SOL    HW1 1952   1.231   0.245   3.013 -0.3974 -0.4867  0.8412
  651SOL    HW2 1953   1.272   0.106   2.943 -0.4394 -0.6372  0.0252
  652SOL     OW 1954   2.997   1.660   0.060 -0.5298  1.0431 -0.9162
  652SOL    HW1 1955   2.906   1.625   0.035  0.8299  2.6664  0.8502
  652SOL    HW2 1956   3.019   1.747   0.011  1.3810 -0.7292  2.0703
  653SOL     OW 1957   0.222   0.085   1.034 -0.0710 -0.0350 -0.3874
  653SOL    HW1 1958   0.193   0.056   1.129 -2.8651 -1.6833  0.1851
  653SOL    HW2 1959   0.194   0.182   1.015 -1.6116 -1.4049  0.5190
  654SOL     OW 1960   2.330   0.050   2.732 -0.0307  0.1703 -0.2200
  654SOL    HW1 1961   2.300   0.037   2.636  0.1031  0.3412  1.9807
  654SOL    HW2 1962   2.338   3.066   2.784  0.0708 -0.1021  0.9399
  655SOL     OW 1963   0.391   2.331   0.952  0.4283  0.4878  0.1460
  655SOL    HW1 1964   0.296   2.366   0.933  0.4446  1.3793  0.7136
  655SOL    HW2 1965   0.422   2.343   1.049  1.7839  0.5964  0.4391
  656SOL     OW 1966   0.056   2.884   2.328  0.2045 -0.2352  0.4794
  656SOL    HW1 1967   0.117   2.939   2.274 -2.5240 -0.7553  1.0399
  656SOL    HW2 1968   0.039   2.795   2.289  0.5898  0.4423 -1.7037
  657SOL     OW 1969   2.482   0.531   2.440  0.0929 -0.0903  0.0618
  657SOL    HW1 1970   2.432   0.540   2.353  0.5102  0.8387 -0.3742
  657SOL    HW2 1971   2.495   0.430   2.459 -1.7113  0.3273  1.3613
  658SOL     OW 1972   2.262   1.785   1.155 -0.9181  0.0182  0.0402
  658SOL    HW1 1973   2.174   1.782   1.105  2.3889  1.1137 -0.9094
  658SOL    HW2 1974   2.245   1.761   1.252  0.8990 -0.4306 -2.2829
  659SOL     OW 1975   2.222   0.087   0.069 -0.9629 -0.6956 -0.2185
  659SOL    HW1 1976   2.259   0.007   0.018  0.7133 -0.4191  0.7256
  659SOL    HW2 1977   2.128   0.079   0.118 -0.8371 -3.6690  3.4552
  660SOL     OW 1978   1.353   1.628   3.040 -0.5824  0.7895  0.2478
  660SOL    HW1 1979   1.451   1.639   3.013 -1.5677 -0.8244  3.0079
  660SOL    HW2 1980   1.306   1.715   3.028 -0.7384  0.2168 -0.4833
  661SOL     OW 1981   2.434   2.409   1.009  0.0892  0.0106  0.0491
  661SOL    HW1 1982   2.452   2.331   0.948 -1.0714  1.1537  1.4542
  661SOL    HW2 1983   2.463   2.393   1.105 -3.0594 -0.4183 -0.5560
  662SOL     OW 1984   0.670   0.715   0.286  0.3000  0.5374  0.2418
  662SOL    HW1 1985   0.730   0.705   0.203  0.4013  0.3868 -1.8407
  662SOL    HW2 1986   0.682   0.802   0.333 -0.2868  0.6723  0.7668
  663SOL     OW 1987   1.792   2.396   0.174  0.6155 -0.1318  0.0827
  663SOL    HW1 1988   1.753   2.338   0.099  0.4634  0.1057 -0.9660
  663SOL    HW2 1989   1.891   2.374   0.169  1.2716  0.9446 -1.2605
  664SOL     OW 1990   0.663   2.079   1.556 -0.3578  0.1797 -0.4902
  664SOL    HW1 1991   0.578   2.097   1.603 -0.4346  0.9461  1.5968
  664SOL    HW2 1992   0.734   2.040   1.624  0.4571 -1.3968  2.0731
  665SOL     OW 1993   1.977   2.108   2.142  0.4088 -0.7069 -0.7275
  665SOL    HW1 1994   1.880   2.119   2.167 -0.3097  2.0788  1.2465
  665SOL    HW2 1995   2.012   2.015   2.136  1.2702  1.2883  0.1845
  666SOL     OW 1996   0.508   2.511   0.285  0.3820  0.2066  0.4284
  666SOL    HW1 1997   0.480   2.423   0.328  0.1920  1.8028 -0.5636
  666SOL    HW2 1998   0.449   2.532   0.206  1.0097 -0.2889  0.3276
  667SOL     OW 1999   2.086   1.433   2.131 -0.2820  0.6194 -0.9150
  667SOL    HW1 2000   2.052   1.508   2.187  0.6729 -1.2373  1.2751
  667SOL    HW2 2001   2.058   1.438   2.032  0.7229  0.5406 -0.1421
  668SOL     OW 2002   0.500   0.583   2.691 -0.4698 -0.6557 -0.3468
  668SOL    HW1 2003   0.542   0.606   2.602 -2.3514  1.3864  0.5928
  668SOL    HW2 2004   0.558   0.526   2.754  2.0537 -2.4932  0.0427
  669SOL     OW 2005   1.530   2.457   2.685 -0.2574  0.1184  0.2048
  669SOL    HW1 2006   1.435   2.421   2.696  3.2362  1.5134  2.4930
  669SOL    HW2 2007   1.544   2.502   2.593  2.7776  0.3607 -1.5385
  670SOL     OW 2008   2.581   1.958   0.064  0.2762  0.3846  0.1041
  670SOL    HW1 2009   2.651   1.990   0.001 -3.1446 -5.1211 -0.3166
  670SOL    HW2 2010   2.557   1.863   0.031 -2.7438 -2.1409  1.6347
  671SOL     OW 2011   0.461   1.031   1.059  0.4450  0.1520 -0.1937
  671SOL    HW1 2012   0.420   1.124   1.034 -2.4432  0.8502  0.1660
  671SOL    HW2 2013   0.496   1.027   1.155  0.1403 -1.8451 -2.5825
  672SOL     OW 2014   2.467   0.865   2.315  0.1312 -0.1859 -0.1324
  672SOL    HW1 2015   2.408   0.919   2.250 -0.2228 -0.8193  0.3153
  672SOL    HW2 2016   2.442   0.882   2.412 -1.0889  0.3230  2.2159
  673SOL     OW 2017   2.489   2.778   2.077  0.0535 -0.1754  0.0023
  673SOL    HW1 2018   2.591   2.795   2.059 -0.9754  1.8051 -1.4251
  673SOL    HW2 2019   2.477   2.707   2.147  2.0553  1.3883 -2.2346
  674SOL     OW 2020   1.423   2.428   2.171 -0.1126  0.5667  0.4913
  674SOL    HW1 2021   1.324   2.450   2.144 -0.4905 -0.0351 -2.5855
  674SOL    HW2 2022   1.446   2.327   2.185 -0.7687  0.2290 -1.1494
  675SOL     OW 2023   0.529   0.742   1.331  0.0169 -0.1837 -0.4848
  675SOL    HW1 2024   0.513   0.674   1.255 -1.2013 -2.4588 -1.0203
  675SOL    HW2 2025   0.488   0.694   1.414 -0.5110 -3.1441  3.0517
  676SOL     OW 2026   1.932   0.899   0.764 -0.4764  0.5325  0.2713
  676SOL    HW1 2027   1.831   0.879   0.750 -0.8409  0.0125 -2.2318
  676SOL    HW2 2028   1.954   0.982   0.706  0.4526  0.7606 -0.8124
  677SOL     OW 2029   2.988   1.497   2.736  0.1165  0.0215 -0.1542
  677SOL    HW1 2030   3.018   1.470   2.644 -0.0330  0.7480 -0.0705
  677SOL    HW2 2031   2.936   1.586   2.739  0.3604  2.2029  0.1373
  678SOL     OW 2032   2.690   2.034   1.089  0.1380  0.2262  0.1982
  678SOL    HW1 2033   2.712   2.033   1.186 -2.1712 -1.6373 -0.0741
  678SOL    HW2 2034   2.645   1.944   1.068 -1.5958  0.7147  1.7769
  679SOL     OW 2035   1.536   2.743   0.883  0.0846  0.1136 -0.5098
  679SOL    HW1 2036   1.519   2.670   0.812 -2.9733 -2.8890  0.5566
  679SOL    HW2 2037   1.595   2.814   0.847 -3.0110 -2.0099 -0.9892
  680SOL     OW 2038   0.234   2.508   2.241  0.3205  0.0607 -0.3470
  680SOL    HW1 2039   0.302   2.575   2.275  2.4177 -2.6589  0.4629
  680SOL    HW2 2040   0.277   2.448   2.172 -0.7292  1.8358 -0.9428
  681SOL     OW 2041   2.669   1.358   1.830 -0.0109 -0.0457 -0.4488
  681SOL    HW1 2042   2.771   1.359   1.842 -1.4134 -0.8547  0.8222
  681SOL    HW2 2043   2.625   1.345   1.923  1.2264 -0.8128  1.7999
  682SOL     OW 2044   0.404   1.777   1.367  0.2312 -0.6270 -0.0166
  682SOL    HW1 2045   0.342   1.826   1.430 -2.0954  0.3774  0.3059
  682SOL    HW2 2046   0.437   1.834   1.291  2.6041  1.0522  0.1450
  683SOL     OW 2047   2.219   1.550   1.274  0.1328 -0.2721  0.2089
  683SOL    HW1 2048   2.239   1.540   1.174 -0.4224 -0.4760 -1.9423
  683SOL    HW2 2049   2.123   1.580   1.296  0.3531  0.8628 -1.6632
  684SOL     OW 2050   2.738   1.604   3.041 -0.2080  0.0777 -0.0460
  684SOL    HW1 2051   2.734   1.653   2.952 -1.0338 -0.6908  0.4012
  684SOL    HW2 2052   2.665   1.637   0.000  2.0491 -1.9470 -1.0981
  685SOL     OW 2053   1.532   1.292   2.967  0.5510 -0.2182 -0.3998
  685SOL    HW1 2054   1.454   1.345   3.006 -2.9015 -1.1905 -2.5653
  685SOL    HW2 2055   1.509   1.197   2.938  0.5972 -0.6214 -0.5767
  686SOL     OW 2056   0.307   0.253   1.313 -0.1677  1.0138  0.1634
  686SOL    HW1 2057   0.390   0.267   1.248  2.8899 -0.9454 -1.0681
  686SOL    HW2 2058   0.268   0.157   1.307  0.3088 -0.8601 -1.7760
  687SOL     OW 2059   1.206   1.927   2.204  0.1734  0.3265 -0.0767
  687SOL    HW1 2060   1.193   1.839   2.162  0.3182  2.6607 -0.0636
  687SOL    HW2 2061   1.273   1.922   2.278 -2.1600  1.9793 -2.6176
  688SOL     OW 2062   0.250   1.578   1.296  0.6831 -0.3870  0.2046
  688SOL    HW1 2063   0.320   1.633   1.339 -3.2418 -2.6856 -0.7060
  688SOL    HW2 2064   0.224   1.615   1.203  1.3149  0.6582  1.7545
  689SOL     OW 2065   1.337   0.926   1.697  0.0107 -0.4178  0.0775
  689SOL    HW1 2066   1.389   0.999   1.650 -0.3071  0.1925 -0.8610
  689SOL    HW2 2067   1.340   0.846   1.632 -2.1301 -0.8367  0.3424
  690SOL     OW 2068   2.655   0.782   1.050  1.0953  0.2787 -0.8698
  690SOL    HW1 2069   2.632   0.686   1.019 -1.1556 -3.6029 -0.5068
  690SOL    HW2 2070   2.740   0.810   1.007 -2.9836 -2.8997  4.2314
  691SOL     OW 2071   0.482   2.171   1.791 -0.3132  0.2407  0.6730
  691SOL    HW1 2072   0.483   2.138   1.885 -1.3045  0.0605 -0.6212
  691SOL    HW2 2073   0.515   2.266   1.795 -0.1857 -0.3096 -0.7738
  692SOL     OW 2074   1.962   0.247   1.018  0.2995  0.5347  0.6118
  692SOL    HW1 2075   1.900   0.177   0.974 -0.8994 -0.6912 -3.5909
  692SOL    HW2 2076   1.970   0.331   0.968  1.5075  0.3164 -0.5097
  693SOL     OW 2077   0.219   1.322   2.336 -0.1520 -0.6964 -0.0884
  693SOL    HW1 2078   0.233   1.404   2.274  3.4835 -0.0734 -2.4490
  693SOL    HW2 2079   0.179   1.344   2.428  1.2770 -0.3205  0.5983
  694SOL     OW 2080   2.257   0.640   1.286  0.7402 -0.5865 -0.0838
  694SOL    HW1 2081   2.300   0.555   1.317 -2.0007 -1.5514  1.3135
  694SOL    HW2 2082   2.328   0.717   1.297  4.1939  0.6018 -0.9162
  695SOL     OW 2083   1.019   1.497   1.714  0.9932  0.3520 -0.5674
  695SOL    HW1 2084   1.052   1.583   1.670 -3.3657 -0.1480  0.6260
  695SOL    HW2 2085   1.004   1.425   1.647  0.0860  1.1938  1.2247
  696SOL     OW 2086   1.221   2.920   3.102 -0.6802  0.0318  0.6689
  696SOL    HW1 2087   1.245   2.827   3.062 -1.7998  0.4756 -0.4558
  696SOL    HW2 2088   1.284   2.986   3.052 -2.6957  1.5970 -1.8594
  697SOL     OW 2089   0.844   0.327   0.758 -0.3108  0.3596 -0.1495
  697SOL    HW1 2090   0.763   0.337   0.692  0.5640 -0.3354 -1.5374
  697SOL    HW2 2091   0.927   0.322   0.700  0.0145  0.2529  0.6114
  698SOL     OW 2092   1.184   1.363   2.267 -0.1954 -0.2396 -0.4652
  698SOL    HW1 2093   1.157   1.279   2.316  0.2005  2.2288  0.4923
  698SOL    HW2 2094   1.118   1.437   2.300 -1.4527 -0.0663  0.4962
  699SOL     OW 2095   1.641   0.785   1.131 -0.6860  0.3643  0.7068
  699SOL    HW1 2096   1.566   0.822   1.066 -1.0367 -1.2478 -1.3044
  699SOL    HW2 2097   1.729   0.781   1.085 -0.7421  0.9362  0.0766
  700SOL     OW 2098   0.702   2.800   0.439  0.0949 -0.1443 -0.1121
  700SOL    HW1 2099   0.708   2.729   0.366  2.5703 -2.5392  2.4480
  700SOL    HW2 2100   0.773   2.868   0.416  1.2540  0.0506  0.7842
  701SOL     OW 2101   2.582   2.946   2.686  0.0328  0.1618  0.3549
  701SOL    HW1 2102   2.593   2.991   2.779  0.6515 -1.3074  0.1970
  701SOL    HW2 2103   2.652   2.982   2.622 -1.2681 -1.7903  1.8056
  702SOL     OW 2104   1.410   0.490   0.027  0.7014  0.3186  0.0123
  702SOL    HW1 2105   1.423   0.434   0.112 -0.0430  0.1336 -1.9764
  702SOL    HW2 2106   1.333   0.555   0.042  1.4878 -0.8906  1.2081
  703SOL     OW 2107   2.665   3.009   2.403  0.1618  0.4190  0.1067
  703SOL    HW1 2108   2.565   3.019   2.406  0.9161 -0.3512 -0.4054
  703SOL    HW2 2109   2.685   2.920   2.357  0.2150 -3.8381 -0.5104
  704SOL     OW 2110   0.024   1.923   0.659  0.2390 -0.5923 -0.4398
  704SOL    HW1 2111   3.101   1.955   0.571 -1.6129  2.6244  1.1189
  704SOL    HW2 2112   3.055   1.925   0.729 -1.1850  1.6232 -0.0619
  705SOL     OW 2113   3.024   2.993   2.085  0.4314  0.4963  0.0189
  705SOL    HW1 2114   3.038   2.942   2.174  1.7798 -2.2862  1.2518
  705SOL    HW2 2115   2.973   2.932   2.023 -0.0276 -2.3916  1.4452
  706SOL     OW 2116   1.836   2.920   0.290 -0.1026 -0.6407  0.1346
  706SOL    HW1 2117   1.814   2.835   0.242  0.3588 -0.9262 -1.9415
  706SOL    HW2 2118   1.754   2.975   0.319 -0.6099  2.9024 -1.4224
  707SOL     OW 2119   0.920   1.719   1.973 -0.3102 -0.2971  0.1271
  707SOL    HW1 2120   0.997   1.730   2.045  3.3060  0.3037  0.7306
  707SOL    HW2 2121   0.860   1.641   2.001  0.1200 -0.1440 -1.5072
  708SOL     OW 2122   0.016   2.270   1.743 -0.2448  0.0708  0.1478
  708SOL    HW1 2123   0.033   2.228   1.654 -2.1716  1.8485  0.1674
  708SOL    HW2 2124   0.100   2.315   1.779 -3.5200 -0.2482  0.0206
  709SOL     OW 2125   2.137   3.082   1.933  0.2655  0.6744 -0.0813
  709SOL    HW1 2126   2.043   3.042   1.947 -0.5402  0.8254 -1.3548
  709SOL    HW2 2127   2.172   3.047   1.844  1.0176  1.4408 -1.2323
  710SOL     OW 2128   2.093   0.927   2.546  0.1459  0.2074  0.0677
  710SOL    HW1 2129   2.060   0.929   2.644 -0.2883 -1.2246 -0.9120
  710SOL    HW2 2130   2.130   0.837   2.521  1.3006 -0.1784 -2.7072
  711SOL     OW 2131   1.063   2.276   3.020 -0.5740 -0.2867  0.6007
  711SOL    HW1 2132   1.080   2.233   0.007  1.5228  2.0335 -1.6682
  711SOL    HW2 2133   1.144   2.315   2.974  1.0468  0.8938  0.2525
  712SOL     OW 2134   0.616   2.570   2.074  0.0495  0.4154  0.3159
  712SOL    HW1 2135   0.530   2.621   2.096  0.8700  0.0227 -0.3998
  712SOL    HW2 2136   0.668   2.547   2.159  0.6834 -1.9495 -1.9185
  713SOL     OW 2137   1.732   1.336   0.023  0.3153 -0.0930 -0.1327
  713SOL    HW1 2138   1.651   1.318   3.063 -0.9447  0.1860 -0.2605
  713SOL    HW2 2139   1.777   1.425   0.005  0.7141 -0.6142  0.9826
  714SOL     OW 2140   0.761   1.199   1.441  0.1213 -0.5897  0.4013
  714SOL    HW1 2141   0.761   1.287   1.382 -1.6834  1.2006 -2.1895
  714SOL    HW2 2142   0.702   1.134   1.390 -1.5458  2.0001 -0.5140
  715SOL     OW 2143   1.834   0.412   3.031  0.1776 -0.4021  1.3879
  715SOL    HW1 2144   1.913   0.481   3.046  2.0232  2.0668  2.2987
  715SOL    HW2 2145   1.802   0.365   0.010 -0.9611  2.2702  0.9878
  716SOL     OW 2146   2.770   2.726   2.011 -0.0070  0.1890  0.0098
  716SOL    HW1 2147   2.786   2.797   1.937  0.7687  0.8420 -1.6648
  716SOL    HW2 2148   2.842   2.653   2.013 -0.0809 -0.6336 -0.1263
  717SOL     OW 2149   0.094   0.645   1.030 -0.2729  0.6234  0.2003
  717SOL    HW1 2150   0.053   0.655   0.939 -0.2348 -0.8181  1.0838
  717SOL    HW2 2151   0.018   0.617   1.095 -2.0041 -3.9126  0.0166
  718SOL     OW 2152   0.534   1.359   2.374 -0.2304 -0.0362 -0.7356
  718SOL    HW1 2153   0.631   1.402   2.367  1.0206  2.2565  0.1499
  718SOL    HW2 2154   0.490   1.378   2.280 -0.2831  2.2093  1.0446
  719SOL     OW 2155   2.422   1.445   0.067  0.4135 -0.4222 -0.0041
  719SOL    HW1 2156   2.325   1.454   0.084  0.9193  0.6174  3.6276
  719SOL    HW2 2157   2.443   1.361   0.017 -2.0761  1.1550  0.9817
  720SOL     OW 2158   1.228   0.708   0.812  0.0004  0.5423  0.0721
  720SOL    HW1 2159   1.225   0.608   0.807 -2.2784  0.1656  0.8186
  720SOL    HW2 2160   1.197   0.737   0.905 -0.7650  0.1008  3.0373
  721SOL     OW 2161   2.622   0.385   0.301  0.1773 -0.1999 -0.4661
  721SOL    HW1 2162   2.588   0.322   0.232  2.3331 -0.5704  1.3036
  721SOL    HW2 2163   2.669   0.331   0.370  0.9126  1.1874 -2.1255
  722SOL     OW 2164   2.059   0.652   2.765 -0.3592 -0.1629 -0.6133
  722SOL    HW1 2165   2.158   0.661   2.739  4.6377  0.6483 -1.5328
  722SOL    HW2 2166   2.036   0.563   2.724  1.4956 -0.5146 -0.6795
  723SOL     OW 2167   2.788   0.551   0.460 -0.2981  0.1836  0.4883
  723SOL    HW1 2168   2.722   0.509   0.390 -0.6236 -1.3343 -1.4084
  723SOL    HW2 2169   2.738   0.573   0.548  2.7256 -0.9448 -0.7417
  724SOL     OW 2170   0.771   1.514   2.102 -0.1559 -0.0276 -0.1913
  724SOL    HW1 2171   0.748   1.517   2.204 -1.3562  0.2467  0.4710
  724SOL    HW2 2172   0.835   1.438   2.077 -0.7072  2.3842 -0.0738
  725SOL     OW 2173   1.930   0.591   1.781 -0.2235 -0.3527  0.2015
  725SOL    HW1 2174   1.969   0.679   1.740 -0.2221  0.4075 -1.7723
  725SOL    HW2 2175   1.997   0.516   1.783 -0.9777  1.8590 -0.5881
  726SOL     OW 2176   1.620   2.907   0.648 -0.8741 -0.2032  0.5095
  726SOL    HW1 2177   1.716   2.865   0.637  2.8322 -1.6598 -0.1696
  726SOL    HW2 2178   1.568   2.870   0.571  1.8109 -2.6515  3.3869
  727SOL     OW 2179   1.527   1.643   2.184 -0.1462  0.5697  0.1705
  727SOL    HW1 2180   1.454   1.668   2.118  1.3281  0.6253 -5.2681
  727SOL    HW2 2181   1.500   1.566   2.240  2.6540  1.8032 -1.9156
  728SOL     OW 2182   1.833   2.827   1.696  0.0743 -0.0291  0.7011
  728SOL    HW1 2183   1.735   2.789   1.687 -4.0432 -0.7592 -0.8799
  728SOL    HW2 2184   1.886   2.787   1.773 -1.9915  0.2337  1.3769
  729SOL     OW 2185   2.235   1.187   0.825  0.3182  0.4569 -0.0321
  729SOL    HW1 2186   2.161   1.252   0.844 -0.5106  0.0171 -0.9470
  729SOL    HW2 2187   2.250   1.177   0.727 -0.5952  2.4104  5.1036
  730SOL     OW 2188   0.402   1.439   2.607  0.2091  0.2267  0.2856
  730SOL    HW1 2189   0.467   1.436   2.682 -1.2572 -1.3209  1.4067
  730SOL    HW2 2190   0.439   1.387   2.528  1.6234  1.3677  0.1380
  731SOL     OW 2191   0.071   3.103   0.837 -0.0092 -0.2112 -0.5251
  731SOL    HW1 2192   0.072   0.064   0.758 -1.1827 -0.2622  0.6161
  731SOL    HW2 2193   0.126   0.035   0.913 -0.8900  2.0342 -0.3122
  732SOL     OW 2194   1.246   0.949   0.453  0.1051 -0.3294 -0.0865
  732SOL    HW1 2195   1.216   1.003   0.376 -1.5914 -2.2973  2.5019
  732SOL    HW2 2196   1.159   0.912   0.492 -0.6283 -1.6550 -1.2537
  733SOL     OW 2197   0.663   1.655   0.991 -0.5869 -0.2191 -0.2382
  733SOL    HW1 2198   0.726   1.580   0.958  0.2068  0.0290 -0.5375
  733SOL    HW2 2199   0.568   1.640   0.960  1.2314  1.6369  1.0901
  734SOL     OW 2200   3.054   2.581   0.343  0.2438 -0.5122 -0.0397
  734SOL    HW1 2201   3.016   2.678   0.352  1.0295  0.5396 -0.9732
  734SOL    HW2 2202   3.083   2.552   0.433 -0.4601  3.6184 -0.2095
  735SOL     OW 2203   1.321   0.586   1.154  0.3828  0.0807  0.0699
  735SOL    HW1 2204   1.309   0.529   1.235 -0.3420  2.6677 -0.7391
  735SOL    HW2 2205   1.404   0.563   1.106 -1.1338  2.3319  1.6327
  736SOL     OW 2206   2.351   2.501   0.114  0.5851  0.2652  0.1282
  736SOL    HW1 2207   2.300   2.590   0.118  0.6695 -0.7034  0.6744
  736SOL    HW2 2208   2.347   2.452   0.204 -1.0717  2.2111  0.1477
  737SOL     OW 2209   3.064   0.700   0.793  0.6997  0.8365  0.2950
  737SOL    HW1 2210   3.010   0.784   0.804 -0.8484  2.6444 -0.9251
  737SOL    HW2 2211   0.014   0.697   0.705  2.4373  0.6481 -1.0548
  738SOL     OW 2212   2.639   0.165   1.045 -0.0813  0.2927  0.5704
  738SOL    HW1 2213   2.659   0.100   1.118  0.0923 -1.1134  0.6211
  738SOL    HW2 2214   2.542   0.195   1.048  0.3335 -0.2998 -0.5174
  739SOL     OW 2215   1.196   2.622   0.127  0.2484  0.1134 -0.2704
  739SOL    HW1 2216   1.223   2.523   0.145 -0.8055 -0.9309  0.3593
  739SOL    HW2 2217   1.194   2.673   0.215  0.3632  2.0591 -2.5107
  740SOL     OW 2218   1.710   0.492   1.215 -0.4565 -0.7538 -0.1964
  740SOL    HW1 2219   1.650   0.471   1.135 -1.3649 -5.1505 -1.5190
  740SOL    HW2 2220   1.774   0.573   1.198  1.6927  1.8754  1.4051
  741SOL     OW 2221   2.872   0.880   0.891  0.3843 -0.8884  0.4892
  741SOL    HW1 2222   2.926   0.926   0.966 -2.0869  1.5898  0.8250
  741SOL    HW2 2223   2.789   0.938   0.874  1.3629  2.0020 -2.3707
  742SOL     OW 2224   0.626   1.395   2.777 -0.2434 -0.0602  0.9790
  742SOL    HW1 2225   0.683   1.400   2.688  0.1580  1.8557 -3.1777
  742SOL    HW2 2226   0.634   1.478   2.835 -1.0413  1.0908  1.6084
  743SOL     OW 2227   1.309   0.653   2.224  0.0408 -0.2318 -0.2824
  743SOL    HW1 2228   1.304   0.683   2.127 -1.1289  0.7486 -1.2612
  743SOL    HW2 2229   1.410   0.632   2.239  1.2091 -0.0355 -0.0887
  744SOL     OW 2230   2.218   0.955   1.507  0.1126 -0.2169 -0.3157
  744SOL    HW1 2231   2.267   0.927   1.420 -1.9410 -2.5460 -1.7995
  744SOL    HW2 2232   2.254   1.040   1.544 -1.6641 -0.3884 -1.4441
  745SOL     OW 2233   1.382   1.569   1.650  0.3737 -0.3367  0.1274
  745SOL    HW1 2234   1.438   1.510   1.591  0.5842  0.1933 -0.5351
  745SOL    HW2 2235   1.337   1.520   1.727 -0.5431 -1.2166 -0.3312
  746SOL     OW 2236   2.017   1.745   1.067 -0.4417  0.1122 -0.2851
  746SOL    HW1 2237   1.935   1.746   1.133 -1.7063  0.8654  1.2818
  746SOL    HW2 2238   2.003   1.674   0.998  1.3190 -1.8194 -1.9346
  747SOL     OW 2239   2.272   1.508   1.010  0.4744 -0.3352  0.7304
  747SOL    HW1 2240   2.343   1.548   0.951  0.4409 -0.6618  1.6455
  747SOL    HW2 2241   2.179   1.543   0.985 -2.0887 -0.6815 -0.8981
  748SOL     OW 2242   0.721   2.124   0.948 -0.0394  0.1782  0.3701
  748SOL    HW1 2243   0.637   2.147   0.890 -2.4925  2.8228  3.6939
  748SOL    HW2 2244   0.710   2.176   1.036  0.0541  1.2723  2.8651
  749SOL     OW 2245   2.372   3.021   2.095  0.2873  0.5293  0.0026
  749SOL    HW1 2246   2.295   3.059   2.042  0.5685  2.2368  3.3605
  749SOL    HW2 2247   2.404   2.929   2.064  0.9117  0.3418 -1.3617
  750SOL     OW 2248   2.453   0.543   0.859  0.4205  0.3487 -0.3913
  750SOL    HW1 2249   2.442   0.476   0.784  0.0373  1.5952 -0.2646
  750SOL    HW2 2250   2.374   0.606   0.862 -1.7537 -0.1358  1.4208
  751SOL     OW 2251   2.812   2.902   0.486 -0.4500  0.4007  0.3126
  751SOL    HW1 2252   2.789   2.802   0.514  4.1764 -4.6013 -1.7714
  751SOL    HW2 2253   2.741   2.949   0.429 -1.1832 -1.2506  1.5858
  752SOL     OW 2254   0.056   2.874   0.689  0.4054 -0.5588 -0.1460
  752SOL    HW1 2255   0.037   2.892   0.591 -1.2060  0.2847  1.5459
  752SOL    HW2 2256   0.065   2.962   0.746 -0.4093 -0.4126 -0.6949
  753SOL     OW 2257   1.589   0.651   2.269  0.5149 -0.2564 -0.1881
  753SOL    HW1 2258   1.604   0.679   2.170 -2.6001 -3.2293  0.8706
  753SOL    HW2 2259   1.667   0.697   2.318 -1.9073 -1.6225 -0.4402
  754SOL     OW 2260   1.392   2.307   1.776 -0.2770 -0.4269  0.2967
  754SOL    HW1 2261   1.455   2.380   1.742  0.2254  0.0220  0.6521
  754SOL    HW2 2262   1.449   2.223   1.784 -1.9825  2.1385  0.3028
  755SOL     OW 2263   2.657   0.675   0.684  0.0383  0.2894  0.6752
  755SOL    HW1 2264   2.592   0.661   0.764 -0.1897 -0.3531  1.0679
  755SOL    HW2 2265   2.624   0.749   0.626 -0.8646 -3.7516 -0.5881
  756SOL     OW 2266   0.999   1.620   2.756 -0.4283  0.1199 -0.4485
  756SOL    HW1 2267   1.051   1.580   2.831  1.9823 -1.3337 -2.8096
  756SOL    HW2 2268   0.937   1.694   2.786  0.9677 -0.0701  1.4084
  757SOL     OW 2269   0.912   3.002   0.484  0.3185 -0.1041 -0.5327
  757SOL    HW1 2270   1.001   2.972   0.517 -3.6969  2.7362  2.1009
  757SOL    HW2 2271   0.914   3.098   0.456 -1.9604 -1.1677 -1.9469
  758SOL     OW 2272   1.180   3.091   1.140  0.0027 -0.1410 -0.0608
  758SOL    HW1 2273   1.140   3.096   1.044 -1.4433 -2.8756 -0.6288
  758SOL    HW2 2274   1.113   0.033   1.201  2.4459 -0.3098  0.0588
  759SOL     OW 2275   0.278   0.551   0.610 -0.5899  0.3156  0.2595
  759SOL    HW1 2276   0.193   0.607   0.593 -2.4038  0.8111 -3.1214
  759SOL    HW2 2277   0.301   0.536   0.710 -2.2393 -3.7368  0.0670
  760SOL     OW 2278   2.514   0.982   1.144 -0.4125  0.1655 -0.1489
  760SOL    HW1 2279   2.570   0.904   1.110  1.0741  1.3759 -1.2043
  760SOL    HW2 2280   2.573   1.062   1.165  1.3174  1.8869  3.0487
  761SOL     OW 2281   1.748   0.526   0.714  0.2377 -0.1488 -0.2209
  761SOL    HW1 2282   1.685   0.444   0.726 -0.2285 -5.3995  2.9081
  761SOL    HW2 2283   1.832   0.519   0.767 -1.8086 -0.2818 -1.8156
  762SOL     OW 2284   2.094   2.128   0.560  0.3067  0.3612  0.2316
  762SOL    HW1 2285   2.108   2.075   0.471 -0.0691 -1.3980  1.1955
  762SOL    HW2 2286   2.075   2.226   0.545  1.1202 -5.4315  0.2353
  763SOL     OW 2287   0.851   1.137   1.684  0.6332 -0.6896  0.3738
  763SOL    HW1 2288   0.806   1.184   1.768 -0.5732  5.0237  2.2656
  763SOL    HW2 2289   0.810   1.167   1.595 -0.8733  0.5050 -0.6437
  764SOL     OW 2290   2.532   2.090   2.513 -0.2268 -0.1220  0.7676
  764SOL    HW1 2291   2.584   2.110   2.425  0.9782 -0.5395  0.6231
  764SOL    HW2 2292   2.430   2.101   2.507 -1.6124  2.3002  0.7150
  765SOL     OW 2293   0.810   2.462   1.009  0.2308  0.3120 -0.5381
  765SOL    HW1 2294   0.723   2.484   0.961 -1.7621 -1.3113  1.3752
  765SOL    HW2 2295   0.831   2.543   1.070 -1.0609  3.4120  2.6981
  766SOL     OW 2296   3.085   1.628   2.373 -0.6953 -0.1523  0.2828
  766SOL    HW1 2297   0.066   1.655   2.420 -2.1301 -1.1190  0.3788
  766SOL    HW2 2298   3.086   1.591   2.275 -0.7011 -0.9198  0.0264
  767SOL     OW 2299   2.275   0.731   2.535  0.2165  1.1612  0.3140
  767SOL    HW1 2300   2.310   0.773   2.619  0.5812 -3.4674 -3.0774
  767SOL    HW2 2301   2.331   0.651   2.502 -1.1891  2.2818  0.8195
  768SOL     OW 2302   0.987   0.047   2.495  0.1569  0.2903 -0.4569
  768SOL    HW1 2303   0.954   0.077   2.588 -2.4037 -0.0273  2.0562
  768SOL    HW2 2304   0.910   0.035   2.427  0.8596  0.7530 -1.3466
  769SOL     OW 2305   0.132   2.373   0.854 -0.3403 -0.7360 -0.2759
  769SOL    HW1 2306   0.157   2.386   0.755  2.9332 -1.4064 -2.1670
  769SOL    HW2 2307   0.055   2.430   0.889 -1.8443  2.4488  1.9080
  770SOL     OW 2308   0.783   0.361   0.032 -0.2299 -0.6807  0.6918
  770SOL    HW1 2309   0.698   0.345   3.085  1.4056  0.7379  0.7059
  770SOL    HW2 2310   0.776   0.340   0.135 -0.5752  1.0985 -3.7554
  771SOL     OW 2311   1.134   1.683   2.519  0.3542  0.4607  0.7631
  771SOL    HW1 2312   1.087   1.646   2.601  0.6404 -0.2388  0.1191
  771SOL    HW2 2313   1.232   1.647   2.512  1.4734 -2.6424  1.9907
  772SOL     OW 2314   2.402   3.047   2.373 -0.6255 -0.0181  0.2303
  772SOL    HW1 2315   2.391   3.029   2.270  2.1327 -1.9393 -0.9686
  772SOL    HW2 2316   2.317   3.073   2.420 -1.1356  0.4702 -1.4160
  773SOL     OW 2317   1.572   0.688   2.018  0.2865 -0.5140 -0.3873
  773SOL    HW1 2318   1.474   0.710   1.993 -3.7759 -0.3344  1.8336
  773SOL    HW2 2319   1.605   0.619   1.952 -0.2804 -0.4594 -1.0836
  774SOL     OW 2320   1.337   0.750   1.498 -0.3885 -1.0304  0.1132
  774SOL    HW1 2321   1.284   0.797   1.423 -1.5738  1.8652 -0.3968
  774SOL    HW2 2322   1.419   0.707   1.453 -1.4141  0.6227 -1.8823
  775SOL     OW 2323   2.309   2.885   0.282 -0.1306 -0.3825  0.7309
  775SOL    HW1 2324   2.255   2.850   0.207  1.1192  0.4463  2.6052
  775SOL    HW2 2325   2.407   2.856   0.275  0.1059 -0.8875 -1.0240
  776SOL     OW 2326   1.959   0.836   2.099 -0.8436  0.4127  0.6774
  776SOL    HW1 2327   1.877   0.842   2.036 -1.5072 -1.4420  0.3904
  776SOL    HW2 2328   1.958   0.890   2.186 -0.4925  0.8027 -1.2252
  777SOL     OW 2329   3.093   1.392   2.493 -0.0701 -0.0218 -0.8860
  777SOL    HW1 2330   3.061   1.323   2.424 -0.9135 -2.7386 -1.1532
  777SOL    HW2 2331   3.099   1.486   2.454  0.5654 -0.7220  1.7428
  778SOL     OW 2332   2.472   1.020   2.570 -0.7779  0.0462 -0.6232
  778SOL    HW1 2333   2.424   0.983   2.653 -0.3765  0.9854  2.8802
  778SOL    HW2 2334   2.572   0.998   2.579  0.7687  1.7995  1.5459
  779SOL     OW 2335   2.863   0.370   2.800  0.1672  0.0522 -0.2397
  779SOL    HW1 2336   2.949   0.422   2.792 -1.1021 -1.7746  0.0804
  779SOL    HW2 2337   2.869   0.284   2.747  0.3846  2.4317 -0.6061
  780SOL     OW 2338   2.289   2.656   2.392 -0.2690 -0.0933 -0.0096
  780SOL    HW1 2339   2.195   2.622   2.375  2.8401  0.0506 -2.9605
  780SOL    HW2 2340   2.351   2.614   2.319 -0.2582 -1.1613 -0.2909
  781SOL     OW 2341   3.034   1.117   1.942  0.4704 -0.4109 -0.1238
  781SOL    HW1 2342   2.969   1.087   2.013 -0.6769 -0.6821  0.0097
  781SOL    HW2 2343   3.008   1.078   1.848  0.1005 -1.6155 -2.2066
  782SOL     OW 2344   1.747   2.298   2.795  0.1304 -0.5330  0.2708
  782SOL    HW1 2345   1.664   2.352   2.774  1.2011 -0.4071  0.4206
  782SOL    HW2 2346   1.817   2.362   2.838 -2.0676  0.2397 -0.4285
  783SOL     OW 2347   0.813   2.256   1.176 -0.1780  0.2114  0.5232
  783SOL    HW1 2348   0.837   2.306   1.261  1.1689  1.1857 -2.0582
  783SOL    HW2 2349   0.800   2.328   1.105  0.4572 -0.3478  0.4393
  784SOL     OW 2350   2.304   0.651   2.241  0.2343 -0.7931 -0.1221
  784SOL    HW1 2351   2.255   0.651   2.154 -2.0382 -0.0310  2.2615
  784SOL    HW2 2352   2.366   0.732   2.244  1.6112 -1.9758  1.9517
  785SOL     OW 2353   0.155   0.030   1.309 -0.3385 -0.6089  0.1161
  785SOL    HW1 2354   0.058   0.052   1.290  1.2196  0.3056 -1.3670
  785SOL    HW2 2355   0.167   3.085   1.396 -1.4828  2.3639  0.2186
  786SOL     OW 2356   1.256   2.794   0.351 -0.0647  0.3980 -0.1996
  786SOL    HW1 2357   1.230   2.792   0.445 -0.7491 -0.2114 -1.2873
  786SOL    HW2 2358   1.326   2.865   0.336 -2.1398  0.7376  0.7845
  787SOL     OW 2359   1.360   0.156   0.721  0.1540 -0.5615 -0.2788
  787SOL    HW1 2360   1.398   0.223   0.655  0.3889 -1.0391 -0.8748
  787SOL    HW2 2361   1.429   0.092   0.760  0.6457  0.7648  1.1222
  788SOL     OW 2362   0.085   1.168   1.052  0.4678  0.0449  0.0507
  788SOL    HW1 2363   0.041   1.255   1.019  0.2206 -0.4933  0.8143
  788SOL    HW2 2364   0.110   1.167   1.151  0.0603 -2.4850  0.8075
  789SOL     OW 2365   2.719   0.834   2.268  0.4613 -0.0467 -0.1891
  789SOL    HW1 2366   2.618   0.848   2.280  0.1699 -0.6968  0.5488
  789SOL    HW2 2367   2.764   0.780   2.345  0.7451 -1.0025 -1.4330
  790SOL     OW 2368   1.047   0.772   2.856  0.3625 -0.6839 -0.2881
  790SOL    HW1 2369   1.041   0.876   2.850 -0.2709  1.1819  0.0128
  790SOL    HW2 2370   0.955   0.740   2.880  2.9011 -0.3802  0.5220
  791SOL     OW 2371   0.143   2.735   0.193 -0.0938  0.2024 -0.9496
  791SOL    HW1 2372   0.093   2.665   0.250 -3.2685 -0.4917  0.0762
  791SOL    HW2 2373   0.131   2.711   0.097 -0.0463  1.2792 -0.2904
  792SOL     OW 2374   1.082   0.510   2.067  0.0173 -0.3031  0.0934
  792SOL    HW1 2375   1.107   0.595   2.123  0.2732  0.3570  4.2851
  792SOL    HW2 2376   1.151   0.486   1.997  0.8731  1.5421  0.8378
  793SOL     OW 2377   2.966   0.568   1.194 -0.3353  0.3805 -0.3204
  793SOL    HW1 2378   3.032   0.514   1.248 -0.4711 -0.3346 -0.3764
  793SOL    HW2 2379   2.917   0.498   1.135  2.1042  0.6780  0.2808
  794SOL     OW 2380   2.975   0.149   2.153 -0.1948 -0.0879 -0.1757
  794SOL    HW1 2381   3.010   0.066   2.104  0.6818  0.8178 -0.9112
  794SOL    HW2 2382   3.055   0.209   2.179 -0.0759  0.0137  3.5756
  795SOL     OW 2383   0.472   1.754   3.070 -0.4430  0.5166  0.5897
  795SOL    HW1 2384   0.461   1.707   0.051 -1.4525  3.2895 -2.0228
  795SOL    HW2 2385   0.473   1.855   3.078 -0.5641 -2.4153 -0.1474
  796SOL     OW 2386   2.888   0.710   2.980 -0.4875 -0.4094 -0.4631
  796SOL    HW1 2387   2.854   0.713   2.885  2.0674 -0.9740  1.2094
  796SOL    HW2 2388   2.818   0.666   3.042 -1.2966 -0.1960 -1.0163
  797SOL     OW 2389   2.340   2.297   2.558 -0.1863  0.3134  0.0474
  797SOL    HW1 2390   2.271   2.355   2.507 -0.2388  1.1970 -1.6387
  797SOL    HW2 2391   2.425   2.356   2.575  1.0091  0.1318  1.8739
  798SOL     OW 2392   2.935   0.077   0.983  0.1764 -0.3393  0.1032
  798SOL    HW1 2393   3.004   0.020   0.937 -0.5732 -1.8261 -2.4335
  798SOL    HW2 2394   2.963   0.170   0.964 -0.1151 -0.8791 -3.1548
  799SOL     OW 2395   2.853   0.652   1.847  0.6659 -0.3398  0.1406
  799SOL    HW1 2396   2.882   0.569   1.799 -0.5041  0.0121  0.9149
  799SOL    HW2 2397   2.764   0.682   1.822  0.7501 -1.7683 -1.2299
  800SOL     OW 2398   0.525   1.601   0.219 -0.6271  0.0329  0.1564
  800SOL    HW1 2399   0.526   1.498   0.222 -1.5314  0.9940  0.7741
  800SOL    HW2 2400   0.433   1.632   0.256 -0.1440  0.8456 -0.6346
  801SOL     OW 2401   1.570   2.124   0.747  0.3263 -0.0435 -0.3150
  801SOL    HW1 2402   1.665   2.087   0.729 -2.2996  0.9393  0.1657
  801SOL    HW2 2403   1.494   2.057   0.732  0.6002 -0.1795  2.1543
  802SOL     OW 2404   1.395   1.060   2.924 -0.5124  0.2730  0.0677
  802SOL    HW1 2405   1.370   1.008   2.841  0.0647  1.3968 -0.2591
  802SOL    HW2 2406   1.399   1.002   3.007 -3.7663  1.3324 -1.2556
  803SOL     OW 2407   1.188   1.904   1.859 -0.1908 -0.4250  0.3939
  803SOL    HW1 2408   1.195   2.002   1.882 -0.5167 -0.7097  1.3506
  803SOL    HW2 2409   1.145   1.852   1.934  2.9472 -0.6764  0.7670
  804SOL     OW 2410   1.479   2.542   0.698  0.0238  0.1820  0.0055
  804SOL    HW1 2411   1.559   2.475   0.699  1.9355  0.6170 -1.1570
  804SOL    HW2 2412   1.399   2.497   0.743 -1.1287 -0.4485  2.3518
  805SOL     OW 2413   0.102   2.171   2.134 -0.1740  0.2346 -0.1071
  805SOL    HW1 2414   0.023   2.220   2.098  0.9007 -0.4683  1.9158
  805SOL    HW2 2415   0.184   2.203   2.084  1.7983  2.3739 -2.0300
  806SOL     OW 2416   0.085   0.082   0.350  0.3334 -0.4694  0.0360
  806SOL    HW1 2417   3.099   0.124   0.316 -3.0941 -0.8686  0.6508
  806SOL    HW2 2418   0.167   0.109   0.295 -4.1466  0.6094  0.1521
  807SOL     OW 2419   2.353   0.857   2.753  0.2107  0.3821  0.0340
  807SOL    HW1 2420   2.436   0.809   2.793  2.1151  0.1226  1.4032
  807SOL    HW2 2421   2.301   0.912   2.824  1.1762 -1.6383  1.0198
  808SOL     OW 2422   1.253   2.806   0.841 -0.3905 -0.4690 -0.4871
  808SOL    HW1 2423   1.226   2.725   0.898 -0.2799 -0.5980 -1.2320
  808SOL    HW2 2424   1.351   2.810   0.823  0.0387 -1.1478 -0.3411
  809SOL     OW 2425   2.959   0.178   0.229 -0.2402 -0.8570 -0.6019
  809SOL    HW1 2426   2.918   0.103   0.169 -1.9991 -4.8689  0.3641
  809SOL    HW2 2427   2.981   0.254   0.165 -0.8718  1.3687 -1.1069
  810SOL     OW 2428   1.384   1.306   0.939  0.4514  0.4298 -0.1741
  810SOL    HW1 2429   1.353   1.261   1.027  0.1984  2.3033 -1.2832
  810SOL    HW2 2430   1.393   1.237   0.867  0.5811 -0.6206  0.8770
  811SOL     OW 2431   1.695   2.906   1.434  0.0504  0.8745 -0.4395
  811SOL    HW1 2432   1.751   2.988   1.424 -0.8992 -2.8258  1.4059
  811SOL    HW2 2433   1.596   2.918   1.465 -0.9552 -0.6724  1.4226
  812SOL     OW 2434   1.495   0.305   0.226 -0.4883  0.2255  0.5226
  812SOL    HW1 2435   1.543   0.292   0.315 -0.4594  0.2008 -0.6949
  812SOL    HW2 2436   1.397   0.333   0.239  1.6973 -0.3803 -0.3669
  813SOL     OW 2437   1.018   0.049   2.046 -0.3051 -0.1155  0.8423
  813SOL    HW1 2438   0.922   0.007   2.051 -3.5254  0.6917  0.7542
  813SOL    HW2 2439   1.017   0.128   2.114  1.2334  0.8053  1.5774
  814SOL     OW 2440   0.429   3.034   0.956  0.0767  0.0746  0.0719
  814SOL    HW1 2441   0.511   3.097   0.955  2.2789  0.9391  0.1822
  814SOL    HW2 2442   0.349   3.078   1.004  0.4440  0.3054 -0.2808
  815SOL     OW 2443   0.252   2.693   0.648  0.3569  0.2341 -0.3059
  815SOL    HW1 2444   0.161   2.743   0.656 -1.5657  1.3754  0.6622
  815SOL    HW2 2445   0.326   2.750   0.611  0.3875 -1.5092  1.9287
  816SOL     OW 2446   2.519   1.501   2.745 -0.3204 -0.3775  0.0420
  816SOL    HW1 2447   2.491   1.403   2.763 -0.2395  0.0252 -2.7066
  816SOL    HW2 2448   2.459   1.536   2.671 -0.2022 -1.6902 -0.5719
  817SOL     OW 2449   1.597   2.673   2.870  0.1691 -0.0472  0.2165
  817SOL    HW1 2450   1.558   2.596   2.817 -0.8450  3.0775 -0.8256
  817SOL    HW2 2451   1.689   2.692   2.836 -0.6655 -1.8583 -2.1811
  818SOL     OW 2452   1.465   1.103   0.488  0.5479 -0.3294  0.2261
  818SOL    HW1 2453   1.456   1.187   0.434 -1.7668 -1.0274  0.2712
  818SOL    HW2 2454   1.380   1.044   0.473 -0.3187 -0.9964 -1.1986
  819SOL     OW 2455   1.984   2.050   2.824 -0.1220 -0.0513  0.3197
  819SOL    HW1 2456   1.997   2.108   2.741 -1.7284  1.6222  0.5805
  819SOL    HW2 2457   1.991   1.953   2.804 -1.0033  0.3672 -0.9063
  820SOL     OW 2458   0.815   0.662   0.074  0.1889 -0.4934 -0.0290
  820SOL    HW1 2459   0.841   0.712   3.091 -0.5386  0.7149 -2.0816
  820SOL    HW2 2460   0.809   0.561   0.043  1.4763  0.2830 -2.0679
  821SOL     OW 2461   0.496   0.263   1.132  0.0135  0.7628  0.4954
  821SOL    HW1 2462   0.512   0.366   1.125 -1.2817 -0.8329  0.0090
  821SOL    HW2 2463   0.579   0.206   1.117  4.2243 -0.7041 -1.3305
  822SOL     OW 2464   1.564   2.530   2.420  0.2182 -0.4543 -0.2808
  822SOL    HW1 2465   1.663   2.503   2.406  1.2370 -1.2494  0.6820
  822SOL    HW2 2466   1.502   2.476   2.355 -1.6889 -0.9765  0.0287
  823SOL     OW 2467   0.807   0.798   2.169  0.1910  0.2248 -0.2850
  823SOL    HW1 2468   0.893   0.842   2.142 -3.5975  1.4141 -0.5014
  823SOL    HW2 2469   0.787   0.822   2.269 -0.2358  2.4922  1.5509
  824SOL     OW 2470   2.468   0.043   1.706 -0.0101  0.0620 -0.3786
  824SOL    HW1 2471   2.402   3.067   1.691  2.0130 -1.6897 -0.0192
  824SOL    HW2 2472   2.546   0.025   1.641 -2.1010  0.7754 -0.7738
  825SOL     OW 2473   0.820   1.365   0.219  0.3120  0.7626 -0.2521
  825SOL    HW1 2474   0.889   1.290   0.204 -0.4314  0.1110 -1.1912
  825SOL    HW2 2475   0.797   1.413   0.129 -4.5335 -0.0295 -2.2962
  826SOL     OW 2476   2.038   0.428   2.610 -0.5416 -0.2485  0.0339
  826SOL    HW1 2477   2.093   0.357   2.661  0.2704 -1.4015  0.4747
  826SOL    HW2 2478   1.988   0.392   2.529 -0.1989  2.0628 -2.2114
  827SOL     OW 2479   0.734   2.220   2.594  0.4862  0.2053  0.0565
  827SOL    HW1 2480   0.719   2.245   2.496 -1.2736  0.4759  0.1611
  827SOL    HW2 2481   0.663   2.266   2.648  0.7695 -1.6372  1.2812
  828SOL     OW 2482   2.901   0.070   1.301 -0.7932  0.1076  0.0541
  828SOL    HW1 2483   2.894   0.103   1.205 -1.6764  1.9286  2.2234
  828SOL    HW2 2484   2.953   0.140   1.357 -0.2862  0.4239  0.2039
  829SOL     OW 2485   1.234   1.685   1.429 -0.2813 -0.1094 -0.0267
  829SOL    HW1 2486   1.320   1.656   1.484  3.1280  0.9083 -1.1530
  829SOL    HW2 2487   1.167   1.728   1.493 -1.4873  4.5534  0.0850
  830SOL     OW 2488   0.574   0.976   1.773  0.2871 -0.4649 -0.0582
  830SOL    HW1 2489   0.634   0.914   1.713  0.5991 -2.2963 -1.6266
  830SOL    HW2 2490   0.477   0.966   1.749  0.1906  0.3490  0.3489
  831SOL     OW 2491   0.133   1.915   0.141  0.5118 -0.6728  0.0631
  831SOL    HW1 2492   0.059   1.933   0.073 -2.3326  0.8167  0.2250
  831SOL    HW2 2493   0.201   1.992   0.157  0.8907 -2.2337  1.0970
  832SOL     OW 2494   0.881   3.008   2.789  0.6510 -0.6193  0.4021
  832SOL    HW1 2495   0.973   2.981   2.754 -0.5627  0.7560 -2.7109
  832SOL    HW2 2496   0.869   2.977   2.883  3.3038  1.8824  0.1683
  833SOL     OW 2497   0.065   0.390   1.921 -0.4262  0.3542  0.2953
  833SOL    HW1 2498   0.073   0.340   2.009  2.9575 -0.2527 -1.7478
  833SOL    HW2 2499   0.066   0.488   1.938 -2.7464  0.6365  1.6322
  834SOL     OW 2500   0.347   0.745   1.052  0.0262 -0.1313  0.2871
  834SOL    HW1 2501   0.358   0.849   1.048 -0.8705  0.5089  0.3391
  834SOL    HW2 2502   0.250   0.715   1.020  0.9936 -0.1460 -1.6308
  835SOL     OW 2503   2.517   2.874   0.987 -0.5570  0.5524  0.2622
  835SOL    HW1 2504   2.482   2.910   0.900 -0.9722  0.7471  4.7836
  835SOL    HW2 2505   2.607   2.920   1.007 -0.7979  1.6349  0.3742
  836SOL     OW 2506   0.833   1.825   2.799 -0.4169 -0.5571 -0.1812
  836SOL    HW1 2507   0.770   1.863   2.728 -1.5896  0.0031  0.8202
  836SOL    HW2 2508   0.874   1.900   2.862  2.4048  0.4584  0.3870
  837SOL     OW 2509   2.102   2.264   2.968 -0.0019  0.2959  0.4207
  837SOL    HW1 2510   2.056   2.189   2.917  1.3147  1.3979  0.4826
  837SOL    HW2 2511   2.200   2.270   2.936  2.1554  2.1297  2.0699
  838SOL     OW 2512   2.945   1.226   2.295  0.2107 -0.3724 -0.5057
  838SOL    HW1 2513   2.845   1.202   2.313 -0.6569 -2.7596 -0.4746
  838SOL    HW2 2514   3.017   1.153   2.315  0.5356 -0.7936 -0.4634
  839SOL     OW 2515   0.984   1.149   0.147 -0.5068  0.2423  0.2489
  839SOL    HW1 2516   0.913   1.111   0.083  0.2178  0.3126 -1.5909
  839SOL    HW2 2517   1.070   1.103   0.111  3.2073 -0.8193  0.6384
  840SOL     OW 2518   1.598   0.699   0.353 -0.4383  0.3589  0.5235
  840SOL    HW1 2519   1.622   0.796   0.365  1.4988 -0.3003 -2.6410
  840SOL    HW2 2520   1.520   0.671   0.417  0.7485 -0.1526  2.6359
  841SOL     OW 2521   0.832   2.725   0.716 -0.4023 -0.2306 -0.1063
  841SOL    HW1 2522   0.854   2.639   0.663  1.9954  0.5284 -2.5532
  841SOL    HW2 2523   0.760   2.770   0.662 -1.9121 -0.1150 -2.9724
  842SOL     OW 2524   0.130   0.501   0.323  0.4436  0.2091  0.0599
  842SOL    HW1 2525   0.074   0.512   0.240 -0.4155  2.1406  0.9556
  842SOL    HW2 2526   0.119   0.572   0.397  3.1283 -2.4385 -1.0535
  843SOL     OW 2527   0.628   0.489   1.553  0.3420 -0.0651  0.0185
  843SOL    HW1 2528   0.653   0.489   1.650  1.1037  1.3678  1.7246
  843SOL    HW2 2529   0.534   0.518   1.540  1.7801 -0.9760 -1.9810
  844SOL     OW 2530   1.943   2.477   2.880 -0.1036  0.2319  0.3092
  844SOL    HW1 2531   1.925   2.545   2.954  0.0153 -2.5105 -0.9639
  844SOL    HW2 2532   2.016   2.416   2.916 -0.7145  3.9615 -0.2472
  845SOL     OW 2533   2.797   0.209   1.923  0.4566 -0.2965 -0.0945
  845SOL    HW1 2534   2.702   0.185   1.940  2.5342  0.6360 -2.6561
  845SOL    HW2 2535   2.854   0.196   2.004 -0.3769  1.3413 -0.8747
  846SOL     OW 2536   2.011   1.823   2.685 -0.1365  0.2892  0.8700
  846SOL    HW1 2537   2.049   1.729   2.707 -1.6465 -2.2906  0.1589
  846SOL    HW2 2538   2.078   1.877   2.629 -0.0123  1.2996 -1.1914
  847SOL     OW 2539   1.958   2.749   1.905  0.3514  0.2023  0.8135
  847SOL    HW1 2540   1.908   2.795   1.982 -2.7055  0.4588 -1.8405
  847SOL    HW2 2541   2.037   2.696   1.937  0.0234  0.6446  0.2298
  848SOL     OW 2542   0.367   2.905   0.240 -0.0588 -0.0935 -0.0911
  848SOL    HW1 2543   0.378   2.952   0.154  0.6449  1.6598  4.1866
  848SOL    HW2 2544   0.303   2.827   0.238  2.0656 -2.1597 -0.8247
  849SOL     OW 2545   0.684   2.743   1.254  0.3342 -0.5002 -0.2548
  849SOL    HW1 2546   0.761   2.688   1.213 -0.9408 -1.6685 -3.8161
  849SOL    HW2 2547   0.656   2.808   1.179  0.4498 -0.9238 -0.9201
  850SOL     OW 2548   3.101   1.438   0.971 -0.2175 -0.2400  0.1227
  850SOL    HW1 2549   3.019   1.499   0.963  0.2607  0.5925 -2.5057
  850SOL    HW2 2550   0.077   1.499   0.994 -1.1029  0.7456  0.9988
  851SOL     OW 2551   3.055   0.551   2.802  0.1892  0.3173  0.4189
  851SOL    HW1 2552   3.101   0.605   2.728 -3.1652  2.8491 -1.4828
  851SOL    HW2 2553   3.006   0.615   2.865  0.7006 -0.5769 -0.5218
  852SOL     OW 2554   1.807   2.190   2.384 -0.7909  0.2869 -0.3935
  852SOL    HW1 2555   1.720   2.168   2.427 -1.9322  1.9569  0.4263
  852SOL    HW2 2556   1.842   2.103   2.349 -2.6524 -1.4667 -0.1530
  853SOL     OW 2557   0.706   1.753   0.732 -0.0087 -0.5272  0.3507
  853SOL    HW1 2558   0.699   1.726   0.827 -1.1948 -3.5475 -3.7170
  853SOL    HW2 2559   0.722   1.674   0.674  1.2444  0.8925  0.8828
  854SOL     OW 2560   1.528   1.220   1.874 -0.2964 -0.3050  0.0975
  854SOL    HW1 2561   1.443   1.220   1.926  1.5859 -0.3952 -2.8906
  854SOL    HW2 2562   1.510   1.170   1.783 -1.5871  2.7467 -0.8764
  855SOL     OW 2563   0.421   1.962   2.762 -0.5348 -0.1693  0.2029
  855SOL    HW1 2564   0.380   1.872   2.772  1.8364  0.5226  1.1997
  855SOL    HW2 2565   0.356   2.041   2.761 -1.8225 -1.4108 -0.0584
  856SOL     OW 2566   0.148   3.047   1.571 -0.1714  0.2635 -0.1910
  856SOL    HW1 2567   0.093   2.963   1.578  0.3142  1.6677 -0.6311
  856SOL    HW2 2568   0.112   0.020   1.625 -2.1152 -3.4111  1.4181
  857SOL     OW 2569   0.513   0.205   1.619 -0.1300  0.2040  0.1756
  857SOL    HW1 2570   0.477   0.253   1.702 -0.7823 -0.6191  2.7349
  857SOL    HW2 2571   0.574   0.268   1.563  0.7240  1.0845  0.4194
  858SOL     OW 2572   0.124   1.995   2.487 -0.3073  0.0645 -0.1252
  858SOL    HW1 2573   0.074   1.940   2.563 -0.2069 -3.9696  1.3177
  858SOL    HW2 2574   0.075   2.086   2.478 -1.4933 -0.1459  2.2155
  859SOL     OW 2575   2.028   2.389   0.829  0.1217 -0.1718  0.0526
  859SOL    HW1 2576   2.078   2.339   0.906  0.6551 -0.3382  2.2834
  859SOL    HW2 2577   1.930   2.405   0.855  2.8233  1.1621 -0.2172
  860SOL     OW 2578   1.810   0.566   0.450 -0.1371  0.0955  0.0322
  860SOL    HW1 2579   1.788   0.565   0.553 -1.3147  0.5749  0.6943
  860SOL    HW2 2580   1.725   0.596   0.399  0.4215 -0.0013  1.3164
  861SOL     OW 2581   0.320   0.451   0.853  0.5753 -1.0066  0.3066
  861SOL    HW1 2582   0.412   0.467   0.887 -0.9005  0.4936 -1.2259
  861SOL    HW2 2583   0.252   0.430   0.926  2.0493  0.0897  0.1380
  862SOL     OW 2584   2.252   0.736   1.701 -0.2001  0.0497  0.6699
  862SOL    HW1 2585   2.294   0.654   1.668 -0.4474  2.0793 -2.0868
  862SOL    HW2 2586   2.219   0.786   1.613 -0.4711  0.3832 -2.1474
  863SOL     OW 2587   0.455   1.424   1.193  0.2634 -0.1182 -0.8344
  863SOL    HW1 2588   0.436   1.368   1.106  2.6749  0.4461  2.1094
  863SOL    HW2 2589   0.371   1.459   1.228  0.4624  1.6753 -1.3921
  864SOL     OW 2590   2.562   0.073   1.964 -0.2378  0.4569 -0.5090
  864SOL    HW1 2591   2.514   0.067   1.872  0.0288  1.7938 -3.2272
  864SOL    HW2 2592   2.505   0.025   2.036 -2.8138 -1.0731  1.9968
  865SOL     OW 2593   1.868   0.369   1.987  0.6271  0.2720 -0.2923
  865SOL    HW1 2594   1.892   0.385   1.888 -0.4033 -0.6431 -1.7699
  865SOL    HW2 2595   1.933   0.426   2.046 -1.8860  0.2610  0.7809
  866SOL     OW 2596   2.394   2.943   0.730 -0.4913 -0.3979  0.1112
  866SOL    HW1 2597   2.362   2.869   0.670  0.8998 -0.8731 -1.0288
  866SOL    HW2 2598   2.487   2.970   0.692  1.2917 -0.4230  1.7743
  867SOL     OW 2599   2.577   2.524   0.756  0.1508 -0.1806 -0.4257
  867SOL    HW1 2600   2.545   2.589   0.830  1.0369 -1.9508  1.3110
  867SOL    HW2 2601   2.501   2.466   0.722  2.1386 -0.5035 -0.3789
  868SOL     OW 2602   1.516   1.734   2.733  0.2975  0.0113  0.5786
  868SOL    HW1 2603   1.420   1.766   2.754 -1.0885 -0.3503 -1.5222
  868SOL    HW2 2604   1.571   1.719   2.819 -1.5942  1.7664 -3.0342
  869SOL     OW 2605   2.378   1.848   0.699 -0.2677 -0.4232  0.3910
  869SOL    HW1 2606   2.322   1.829   0.616  1.2208  4.0309  2.2133
  869SOL    HW2 2607   2.339   1.934   0.733  0.8717 -0.4304 -0.8111
  870SOL     OW 2608   2.794   1.792   0.447 -0.2415  0.2638  0.3776
  870SOL    HW1 2609   2.858   1.730   0.400 -0.4426  1.1018  1.9516
  870SOL    HW2 2610   2.811   1.893   0.429  0.7699  1.4864 -0.3980
  871SOL     OW 2611   0.321   0.917   1.694  0.7656 -0.2763  0.8214
  871SOL    HW1 2612   0.287   0.935   1.597 -0.8713  2.0343 -0.0618
  871SOL    HW2 2613   0.289   0.830   1.729 -1.2817  1.5395  0.6479
  872SOL     OW 2614   0.222   1.790   2.111 -0.2390  0.1202 -0.0022
  872SOL    HW1 2615   0.154   1.711   2.117  4.3516 -0.2495 -0.1561
  872SOL    HW2 2616   0.307   1.775   2.054  2.2558  1.0960 -0.3015
  873SOL     OW 2617   0.068   2.568   1.484  0.5932  0.3461  0.7325
  873SOL    HW1 2618   0.058   2.543   1.385  1.0208 -0.5954 -1.0704
  873SOL    HW2 2619   0.137   2.513   1.530 -1.1610  0.0035 -2.4126
  874SOL     OW 2620   0.829   0.567   2.000 -0.0877  0.2069 -0.2409
  874SOL    HW1 2621   0.812   0.629   2.080  0.7822 -3.5776 -2.0222
  874SOL    HW2 2622   0.928   0.545   1.999  0.9576 -0.8738 -2.4551
  875SOL     OW 2623   2.768   2.975   0.997  0.2210 -0.0836  0.4560
  875SOL    HW1 2624   2.832   2.911   1.046 -0.1064 -0.3183 -0.5414
  875SOL    HW2 2625   2.812   3.068   0.990 -0.8232  0.5184  1.1947
  876SOL     OW 2626   1.096   1.287   0.497 -0.2084 -0.3183  0.4343
  876SOL    HW1 2627   1.119   1.263   0.592 -1.1319  0.4305 -2.4804
  876SOL    HW2 2628   1.036   1.369   0.493  1.0903 -0.1121 -1.6616
  877SOL     OW 2629   1.144   0.753   1.071 -0.3939  0.3804  0.0160
  877SOL    HW1 2630   1.046   0.728   1.066  0.6489 -2.8558  1.8485
  877SOL    HW2 2631   1.207   0.678   1.093 -2.1981 -0.1960 -0.8133
  878SOL     OW 2632   2.400   2.010   0.249 -0.3952 -0.0433 -0.3990
  878SOL    HW1 2633   2.449   2.064   0.319  2.2392  0.3452 -3.1407
  878SOL    HW2 2634   2.459   1.997   0.163  0.5579 -1.3801  1.2603
  879SOL     OW 2635   2.525   2.040   1.811 -0.2817  0.6642  0.0134
  879SOL    HW1 2636   2.538   1.950   1.851  1.3113 -0.2607 -0.3003
  879SOL    HW2 2637   2.615   2.077   1.783  1.2284 -2.0515  2.0710
  880SOL     OW 2638   1.222   2.428   1.219 -0.1618  0.2953  0.1919
  880SOL    HW1 2639   1.269   2.500   1.276  0.5673  1.4369  0.2031
  880SOL    HW2 2640   1.200   2.347   1.271  1.3802  0.4228 -2.0182
  881SOL     OW 2641   0.967   1.971   0.625 -0.6259 -0.2167 -0.4735
  881SOL    HW1 2642   1.002   2.043   0.687 -0.2458 -2.7117  0.1806
  881SOL    HW2 2643   0.868   1.954   0.637  1.8833  3.0633  0.3550
  882SOL     OW 2644   1.882   1.595   3.045 -0.3377 -0.6318  0.0801
  882SOL    HW1 2645   1.898   1.526   2.971  2.5445  1.2896 -2.3731
  882SOL    HW2 2646   1.930   1.575   0.025  0.3664  0.5782  0.4257
  883SOL     OW 2647   1.612   0.728   1.416 -0.2793  0.5325 -0.4686
  883SOL    HW1 2648   1.597   0.730   1.313 -1.1502 -2.1640  0.4859
  883SOL    HW2 2649   1.621   0.630   1.448  1.2827  0.7660 -0.7616
  884SOL     OW 2650   3.016   2.612   0.682  0.4374  0.0303  0.1016
  884SOL    HW1 2651   2.918   2.607   0.654  0.4951  3.8125  1.4188
  884SOL    HW2 2652   3.046   2.711   0.699 -0.2373  2.9133  1.7519
  885SOL     OW 2653   0.974   1.340   2.062 -0.4819 -0.0306 -0.2093
  885SOL    HW1 2654   0.926   1.253   2.066  3.0491  0.0178 -0.9217
  885SOL    HW2 2655   1.069   1.341   2.093 -0.4774  2.2131 -1.1154
  886SOL     OW 2656   0.855   1.432   2.577 -0.5057 -0.3042 -0.0511
  886SOL    HW1 2657   0.913   1.483   2.645 -0.2540 -0.9152 -0.5155
  886SOL    HW2 2658   0.900   1.342   2.553 -0.4567 -0.7589 -0.6140
  887SOL     OW 2659   1.555   0.413   1.003 -0.1362 -0.2595  0.0843
  887SOL    HW1 2660   1.592   0.377   0.919  2.4832 -0.1266  2.7263
  887SOL    HW2 2661   1.468   0.362   1.033 -0.4188 -0.3339  0.8922
  888SOL     OW 2662   2.020   0.615   2.436  0.4480 -0.3009 -0.0071
  888SOL    HW1 2663   2.021   0.553   2.517  0.3811 -0.5759 -1.0003
  888SOL    HW2 2664   2.113   0.654   2.417  0.3493 -0.9339 -3.9693
  889SOL     OW 2665   2.916   1.885   0.851 -0.1474  0.4585 -0.5499
  889SOL    HW1 2666   2.821   1.877   0.811 -2.3292  0.3802  0.7630
  889SOL    HW2 2667   2.930   1.960   0.918 -1.0685 -1.3005  1.1090
  890SOL     OW 2668   1.080   2.222   0.206 -0.2861 -0.0994 -0.1546
  890SOL    HW1 2669   1.163   2.283   0.229  3.9474 -0.3417 -0.8366
  890SOL    HW2 2670   1.073   2.139   0.265  1.1167  2.4617  1.8164
  891SOL     OW 2671   2.754   0.604   2.765  0.1260 -0.5147  0.0171
  891SOL    HW1 2672   2.796   0.516   2.791  0.7107  0.9553 -0.5511
  891SOL    HW2 2673   2.744   0.622   2.663  0.5862  0.1236 -0.9884
  892SOL     OW 2674   2.978   2.136   1.006  0.2165 -0.2471  0.4136
  892SOL    HW1 2675   3.075   2.117   0.988 -2.5966 -2.2799 -2.2289
  892SOL    HW2 2676   2.942   2.092   1.093 -0.4706  0.0497 -2.8485
  893SOL     OW 2677   1.322   0.255   1.126  0.8685 -0.7259  0.2872
  893SOL    HW1 2678   1.263   0.234   1.042  1.1051 -0.2083  1.6489
  893SOL    HW2 2679   1.270   0.242   1.210  1.9604 -0.2575  1.2008
  894SOL     OW 2680   2.794   0.371   1.043  0.0163 -0.2243  0.7434
  894SOL    HW1 2681   2.812   0.399   0.947  0.5790 -0.0824 -1.6480
  894SOL    HW2 2682   2.740   0.283   1.050 -3.4788 -2.9296  1.8408
  895SOL     OW 2683   1.747   1.839   2.612  0.0833  0.0418  0.1844
  895SOL    HW1 2684   1.835   1.787   2.647  2.0376  1.3319 -0.3214
  895SOL    HW2 2685   1.667   1.799   2.660 -0.4752  2.0709  1.7005
  896SOL     OW 2686   1.972   0.840   1.602  0.7821 -0.3066 -0.0747
  896SOL    HW1 2687   2.043   0.911   1.592 -0.8752 -3.4728 -0.9447
  896SOL    HW2 2688   2.002   0.758   1.555  0.6754  1.7450  0.1251
  897SOL     OW 2689   0.156   1.149   1.301  0.1269 -0.9212  0.1626
  897SOL    HW1 2690   0.232   1.214   1.327  0.8618  1.2576 -1.6212
  897SOL    HW2 2691   0.178   1.060   1.349  0.6726  0.4580  0.9261
  898SOL     OW 2692   2.089   2.503   2.274 -0.3675 -0.2536 -0.1183
  898SOL    HW1 2693   1.987   2.502   2.272 -1.0635  0.1470 -1.4877
  898SOL    HW2 2694   2.125   2.407   2.294  1.0432  0.6917  2.5941
  899SOL     OW 2695   1.112   1.768   0.987 -0.1584 -0.4159  0.2284
  899SOL    HW1 2696   1.193   1.795   1.044  0.2630  0.4831  1.7313
  899SOL    HW2 2697   1.034   1.830   1.003  1.6495 -2.7928  0.4003
  900SOL     OW 2698   1.016   2.769   2.157 -0.1645 -0.0711 -0.0145
  900SOL    HW1 2699   1.056   2.829   2.232 -0.4990  2.5275 -0.8806
  900SOL    HW2 2700   0.956   2.823   2.093 -2.2706  0.7179 -1.5987
  901SOL     OW 2701   0.749   1.563   2.357  0.7112  0.1415  0.0817
  901SOL    HW1 2702   0.690   1.649   2.363 -3.0533  0.4455 -5.3641
  901SOL    HW2 2703   0.764   1.524   2.447  1.7011 -0.4063 -0.7116
  902SOL     OW 2704   2.231   1.019   2.971  0.4499 -0.0487 -0.1464
  902SOL    HW1 2705   2.224   1.121   2.957 -1.3467 -0.0729  0.5919
  902SOL    HW2 2706   2.239   1.004   3.069  0.6576  0.6256 -1.2110
  903SOL     OW 2707   1.932   1.396   2.867  0.4192 -0.0002  0.3613
  903SOL    HW1 2708   1.987   1.314   2.890  0.0772 -1.5917 -1.0564
  903SOL    HW2 2709   1.851   1.361   2.812 -0.3841 -1.1417  0.6936
  904SOL     OW 2710   1.266   0.981   2.218 -0.0043 -0.1390 -0.0027
  904SOL    HW1 2711   1.311   0.891   2.221 -0.6378  2.7032  2.4918
  904SOL    HW2 2712   1.278   1.031   2.309  0.3221  3.5606  0.1497
  905SOL     OW 2713   2.548   0.471   1.098 -0.1838 -0.0928  0.3191
  905SOL    HW1 2714   2.638   0.428   1.076  2.5123 -0.3988 -0.5495
  905SOL    HW2 2715   2.498   0.503   1.013 -1.5608  0.7899  1.3351
  906SOL     OW 2716   0.408   1.351   0.728 -0.5418  0.1246  0.2007
  906SOL    HW1 2717   0.477   1.316   0.663  1.5869  3.7362  1.4039
  906SOL    HW2 2718   0.313   1.336   0.694  0.3497  0.0637  0.6661
  907SOL     OW 2719   1.263   0.104   0.394  0.4625  0.2865  0.4938
  907SOL    HW1 2720   1.204   0.089   0.476  0.0872  0.7553 -0.8909
  907SOL    HW2 2721   1.302   0.196   0.387  3.0275 -0.0068  0.4962
  908SOL     OW 2722   1.338   2.845   1.538  0.3057  0.6654  0.2357
  908SOL    HW1 2723   1.323   2.876   1.446  2.3450  0.5555  1.3884
  908SOL    HW2 2724   1.245   2.834   1.580 -0.4957 -0.2556 -0.2592
  909SOL     OW 2725   2.410   0.877   1.883  0.7486 -0.3132 -0.3062
  909SOL    HW1 2726   2.434   0.806   1.947 -0.6698 -1.8865  0.6489
  909SOL    HW2 2727   2.349   0.845   1.810  2.2302  1.9091  1.0115
  910SOL     OW 2728   1.397   3.040   2.373  0.7910  0.1500 -0.0540
  910SOL    HW1 2729   1.462   0.009   2.382 -0.2552 -2.1393  0.2302
  910SOL    HW2 2730   1.356   3.050   2.281  1.0794 -0.0632  0.3641
  911SOL     OW 2731   2.354   1.594   2.559 -0.0176  0.1188 -0.2364
  911SOL    HW1 2732   2.394   1.623   2.468  2.3131  0.8245 -1.1659
  911SOL    HW2 2733   2.271   1.536   2.548 -3.0900  0.5699  1.5165
  912SOL     OW 2734   2.419   2.184   1.264  0.1751 -0.1570  0.3299
  912SOL    HW1 2735   2.480   2.266   1.253  2.7977 -2.8611 -0.4084
  912SOL    HW2 2736   2.371   2.182   1.352  2.7822 -1.1725 -1.1960
  913SOL     OW 2737   2.538   2.382   1.748  0.0972 -0.0627  0.3168
  913SOL    HW1 2738   2.532   2.479   1.727  0.9612 -0.0331  1.0586
  913SOL    HW2 2739   2.463   2.326   1.707 -0.6430 -1.7940 -1.1938
  914SOL     OW 2740   2.277   2.052   1.099 -0.0270  0.1928  0.4251
  914SOL    HW1 2741   2.346   2.096   1.164  2.2564 -0.9880  2.5380
  914SOL    HW2 2742   2.282   1.951   1.110  2.2549  0.3879  0.8945
  915SOL     OW 2743   0.948   2.493   1.665  0.3562  0.0109  0.0998
  915SOL    HW1 2744   0.900   2.462   1.750 -1.1819  0.2548  0.2799
  915SOL    HW2 2745   1.040   2.448   1.652  1.7484 -0.5492  1.4886
  916SOL     OW 2746   0.134   2.143   0.974 -0.2193  0.7751  0.2335
  916SOL    HW1 2747   0.149   2.216   0.902  2.0689  0.2187 -0.7769
  916SOL    HW2 2748   0.151   2.179   1.066 -0.0417 -0.9791  1.1332
  917SOL     OW 2749   2.627   1.115   2.817 -0.3306 -0.8573 -0.2992
  917SOL    HW1 2750   2.656   1.032   2.765  2.5570 -0.0338 -0.0885
  917SOL    HW2 2751   2.686   1.199   2.808  0.8535 -0.9507  0.5744
  918SOL     OW 2752   1.656   2.090   2.638  0.5915  0.1631 -0.0390
  918SOL    HW1 2753   1.696   2.161   2.698  0.8316  1.6990 -0.2882
  918SOL    HW2 2754   1.700   2.000   2.658 -0.3003 -0.4632 -0.6187
  919SOL     OW 2755   1.698   2.267   1.118 -0.3295 -0.2374  0.1285
  919SOL    HW1 2756   1.627   2.196   1.115 -0.4912 -1.7210  1.4478
  919SOL    HW2 2757   1.793   2.232   1.125  3.1530 -0.1319 -1.0032
  920SOL     OW 2758   1.129   0.512   2.767 -0.2035 -0.6609 -0.5402
  920SOL    HW1 2759   1.225   0.477   2.760  0.3747  0.3847  1.8861
  920SOL    HW2 2760   1.117   0.613   2.784 -0.1789 -0.5792  2.2497
  921SOL     OW 2761   0.031   2.948   2.596  0.4747 -0.0672  0.0309
  921SOL    HW1 2762   0.063   2.956   2.500 -0.7950  2.5834  0.8194
  921SOL    HW2 2763   0.105   2.929   2.659 -2.7727 -0.4401 -1.7450
  922SOL     OW 2764   2.292   1.606   1.850  0.1536  0.5245  0.0148
  922SOL    HW1 2765   2.387   1.594   1.813 -1.8970  0.5845 -1.5080
  922SOL    HW2 2766   2.222   1.595   1.779  1.8664 -2.0375  0.5398
  923SOL     OW 2767   0.652   1.953   2.653 -0.2196  0.2632  0.5481
  923SOL    HW1 2768   0.558   1.963   2.694  1.7157 -0.6382  0.6050
  923SOL    HW2 2769   0.688   2.047   2.636 -0.2851 -0.8817 -1.3719
  924SOL     OW 2770   1.882   0.329   2.392 -0.4588 -0.0383  0.3027
  924SOL    HW1 2771   1.855   0.274   2.308 -2.2785  1.4574 -1.0825
  924SOL    HW2 2772   1.806   0.389   2.417  3.0827 -1.7918  0.7722
  925SOL     OW 2773   2.986   0.811   0.106 -0.5856 -0.0353  0.6015
  925SOL    HW1 2774   2.951   0.792   0.013  0.6854  0.3118  0.2076
  925SOL    HW2 2775   2.924   0.878   0.146  1.7974  0.0849 -0.9322
  926SOL     OW 2776   3.046   0.308   0.812  0.2729  0.6586  0.2782
  926SOL    HW1 2777   3.092   0.298   0.717 -0.2536 -0.2532 -0.7362
  926SOL    HW2 2778   2.972   0.375   0.805 -0.1830  1.1014  0.7953
  927SOL     OW 2779   1.377   1.127   0.740 -0.1930  0.1435 -0.2594
  927SOL    HW1 2780   1.422   1.125   0.649 -2.8780 -0.1778  0.9100
  927SOL    HW2 2781   1.278   1.137   0.727  2.1924  0.0340 -0.3906
  928SOL     OW 2782   0.177   3.104   2.190  0.3467 -0.1905  0.3663
  928SOL    HW1 2783   0.170   3.088   2.089  0.1007 -1.5699  2.4119
  928SOL    HW2 2784   0.102   0.054   2.233  1.0242  1.8241 -3.2938
  929SOL     OW 2785   2.603   0.823   1.599  0.3294  0.3476 -0.3573
  929SOL    HW1 2786   2.628   0.920   1.625 -2.7893 -1.9573 -0.0095
  929SOL    HW2 2787   2.603   0.766   1.683 -0.4365 -0.8679  0.3090
  930SOL     OW 2788   1.781   2.441   0.923 -0.1909  0.0128 -0.0052
  930SOL    HW1 2789   1.726   2.415   0.840 -2.3184  0.3103 -1.8463
  930SOL    HW2 2790   1.748   2.386   1.005 -1.2669 -2.3682  0.6332
  931SOL     OW 2791   2.022   0.863   1.019 -0.5383  0.1536  0.6763
  931SOL    HW1 2792   1.981   0.871   0.927 -0.1721  0.1591 -0.3640
  931SOL    HW2 2793   2.108   0.922   1.026  1.0679  0.7951 -0.3670
  932SOL     OW 2794   0.093   0.457   1.304 -0.0450 -0.3543 -0.5687
  932SOL    HW1 2795   0.079   0.483   1.401 -2.4349  3.8131 -0.6261
  932SOL    HW2 2796   0.168   0.390   1.296 -2.8009  2.0968 -2.9780
  933SOL     OW 2797   2.065   1.846   2.103 -0.0099 -0.3324 -0.3673
  933SOL    HW1 2798   2.029   1.789   2.183  1.3270  3.0088  0.5624
  933SOL    HW2 2799   2.159   1.818   2.081  0.3319  0.7971 -0.2723
  934SOL     OW 2800   1.782   0.069   1.385 -0.3967 -0.7249  0.3110
  934SOL    HW1 2801   1.845   0.146   1.364 -0.1328 -1.0954 -0.2823
  934SOL    HW2 2802   1.699   0.082   1.333  2.8295  1.1755  1.1817
  935SOL     OW 2803   0.186   0.932   1.450 -0.4786  0.3352  0.2227
  935SOL    HW1 2804   0.084   0.924   1.454  0.7255  1.3581 -0.1856
  935SOL    HW2 2805   0.224   0.859   1.396  0.9680  3.6716  1.8589
  936SOL     OW 2806   2.645   0.595   1.461 -0.8256 -0.2218  0.4297
  936SOL    HW1 2807   2.614   0.606   1.364  2.8385 -1.4360  0.8313
  936SOL    HW2 2808   2.646   0.681   1.516  0.5024  1.9454 -1.3223
  937SOL     OW 2809   1.079   3.021   0.867 -0.1493  0.1040 -0.3042
  937SOL    HW1 2810   0.985   2.982   0.894 -3.2423  2.3145 -1.8565
  937SOL    HW2 2811   1.151   2.951   0.853 -0.1022 -3.2979 -2.5447
  938SOL     OW 2812   2.911   2.174   0.691 -0.2481 -0.7709 -0.3955
  938SOL    HW1 2813   2.937   2.157   0.788 -2.6154  1.0438  0.9065
  938SOL    HW2 2814   2.806   2.176   0.686 -0.7334 -1.2448  0.5559
  939SOL     OW 2815   0.060   1.886   2.807 -0.1432 -0.0499 -0.2523
  939SOL    HW1 2816   3.099   1.849   2.738 -1.4619 -1.8583  0.6250
  939SOL    HW2 2817   0.135   1.821   2.830  0.2230 -0.4390  0.0181
  940SOL     OW 2818   2.598   2.687   2.786 -0.2927  0.6136 -0.8475
  940SOL    HW1 2819   2.560   2.625   2.715  1.4754  0.9574  0.0910
  940SOL    HW2 2820   2.582   2.785   2.758 -0.1583  2.1979 -1.3190
  941SOL     OW 2821   1.608   2.994   0.112 -0.1721  0.0053 -0.1967
  941SOL    HW1 2822   1.579   2.908   0.072  2.0776  1.8409  0.9437
  941SOL    HW2 2823   1.687   3.037   0.059  1.0434 -0.6323  0.1681
  942SOL     OW 2824   1.564   2.122   1.463  0.7341 -0.2629 -0.5749
  942SOL    HW1 2825   1.581   2.076   1.549  1.5638 -0.0272  0.1484
  942SOL    HW2 2826   1.569   2.219   1.480 -0.3497  0.6967 -4.2069
  943SOL     OW 2827   1.721   0.898   1.952 -0.0302 -0.1748  0.0012
  943SOL    HW1 2828   1.693   0.909   1.853  0.7276  2.4650 -1.4471
  943SOL    HW2 2829   1.650   0.846   2.006 -0.3688 -0.6077 -1.3429
  944SOL     OW 2830   1.318   0.750   1.971 -0.1795  0.3234 -0.1631
  944SOL    HW1 2831   1.314   0.845   1.925  0.5160  0.4047 -0.1959
  944SOL    HW2 2832   1.312   0.684   1.893  0.8482  0.6403 -0.2823
  945SOL     OW 2833   2.818   2.327   1.207 -0.1413  0.0980 -0.3721
  945SOL    HW1 2834   2.855   2.416   1.178  0.9736 -0.1104  0.1370
  945SOL    HW2 2835   2.829   2.260   1.132  2.5374  0.5017 -0.5529
  946SOL     OW 2836   0.815   0.862   1.646 -0.5035 -0.3422 -0.1441
  946SOL    HW1 2837   0.872   0.816   1.571 -0.2748 -0.1750  0.7564
  946SOL    HW2 2838   0.834   0.963   1.649 -1.3048 -0.8023 -1.8864
  947SOL     OW 2839   0.596   2.460   0.844  0.2662  0.2144 -0.3410
  947SOL    HW1 2840   0.516   2.424   0.889  3.1395  4.4253  1.3920
  947SOL    HW2 2841   0.572   2.482   0.745 -0.2130 -1.0220  0.6606
  948SOL     OW 2842   2.940   1.362   1.876 -0.1628  0.1324  0.1033
  948SOL    HW1 2843   2.992   1.274   1.883 -0.2184 -5.0535 -1.6957
  948SOL    HW2 2844   2.996   1.431   1.826  1.8759 -2.0950  0.9843
  949SOL     OW 2845   0.426   0.332   1.851 -0.0482 -0.0337  0.4794
  949SOL    HW1 2846   0.505   0.342   1.917 -0.9599  1.0585  1.9494
  949SOL    HW2 2847   0.398   0.425   1.824  1.9060  0.3651  0.8884
  950SOL     OW 2848   0.672   0.739   0.697 -0.2748 -0.2344 -0.3061
  950SOL    HW1 2849   0.674   0.817   0.769  0.0063  1.6711  0.5439
  950SOL    HW2 2850   0.589   0.753   0.647  0.0679  0.0986  1.1386
  951SOL     OW 2851   1.018   1.584   2.295  0.2891 -0.7184  0.7782
  951SOL    HW1 2852   1.055   1.635   2.375 -1.4770  0.4633  1.7676
  951SOL    HW2 2853   0.919   1.556   2.307 -4.0502 -1.1772  1.3911
  952SOL     OW 2854   1.184   1.246   2.875  0.8744 -0.3724 -0.3442
  952SOL    HW1 2855   1.201   1.287   2.784  0.9173 -1.5296  1.9592
  952SOL    HW2 2856   1.265   1.189   2.904  0.4624 -0.5895 -0.4668
  953SOL     OW 2857   1.130   2.668   1.938  0.5452 -0.7813 -0.1231
  953SOL    HW1 2858   1.121   2.568   1.940  1.6194  1.1575  0.1096
  953SOL    HW2 2859   1.092   2.702   2.023  0.3584  0.3940 -1.5175
  954SOL     OW 2860   2.168   1.531   0.628 -0.4118  0.1951  0.4779
  954SOL    HW1 2861   2.192   1.626   0.603  0.8050 -3.3675 -0.0814
  954SOL    HW2 2862   2.255   1.469   0.625  3.0071 -2.5347 -1.4140
  955SOL     OW 2863   2.903   2.285   2.703 -0.1658  0.2149 -0.0936
  955SOL    HW1 2864   2.920   2.371   2.656 -2.7020 -1.4306  1.8219
  955SOL    HW2 2865   2.862   2.292   2.797  1.1810 -3.6259  0.8503
  956SOL     OW 2866   1.166   0.872   1.336 -0.2129 -0.0594  0.2812
  956SOL    HW1 2867   1.146   0.840   1.237 -0.3734  0.5828  0.3141
  956SOL    HW2 2868   1.164   0.970   1.351  1.9751 -1.8072 -1.9609
  957SOL     OW 2869   1.946   1.646   2.277  0.0757  0.1452 -0.7910
  957SOL    HW1 2870   1.867   1.651   2.214  0.9506 -0.4639 -0.3550
  957SOL    HW2 2871   1.925   1.580   2.357  1.1921 -1.6631  2.2547
  958SOL     OW 2872   1.741   2.685   1.281  0.2335 -0.2119 -0.3969
  958SOL    HW1 2873   1.839   2.666   1.274 -0.2065  0.1367  0.2315
  958SOL    HW2 2874   1.727   2.765   1.343 -0.2068  0.2030 -1.6433
  959SOL     OW 2875   1.694   1.746   1.877  0.4782  0.6016 -0.8666
  959SOL    HW1 2876   1.783   1.801   1.862 -0.2277 -0.1257 -0.9947
  959SOL    HW2 2877   1.612   1.798   1.844  1.9541 -1.7971 -1.0799
  960SOL     OW 2878   0.099   0.680   2.625  0.0182  0.5792  0.3223
  960SOL    HW1 2879   0.122   0.747   2.695 -1.9619 -2.1499  1.1654
  960SOL    HW2 2880   0.083   0.730   2.540 -0.5769  0.7495  1.8157
  961SOL     OW 2881   0.437   0.607   1.822  0.0688  0.7122  0.3222
  961SOL    HW1 2882   0.539   0.630   1.818 -1.2722 -1.2404 -0.3989
  961SOL    HW2 2883   0.389   0.641   1.907 -1.6783 -1.2776  0.7221
  962SOL     OW 2884   1.354   1.725   0.469  0.1039  0.3874  0.3418
  962SOL    HW1 2885   1.278   1.666   0.429  0.6177 -0.2299 -0.3120
  962SOL    HW2 2886   1.369   1.701   0.570  0.5466 -0.5988 -1.5065
  963SOL     OW 2887   1.320   2.256   2.655 -0.2967 -0.2233 -0.5082
  963SOL    HW1 2888   1.229   2.218   2.636 -1.4552  1.1865  2.4741
  963SOL    HW2 2889   1.380   2.243   2.574  2.0182  0.3389  2.0303
  964SOL     OW 2890   0.868   2.540   0.511  0.3069 -0.1502  0.2952
  964SOL    HW1 2891   0.801   2.468   0.549 -0.6093 -1.1462  1.2016
  964SOL    HW2 2892   0.841   2.565   0.417 -1.1260  1.2594 -0.4844
  965SOL     OW 2893   0.839   2.890   0.941 -0.0768  0.0500 -0.1071
  965SOL    HW1 2894   0.767   2.963   0.953  0.8792  0.7099  0.1513
  965SOL    HW2 2895   0.830   2.840   0.851 -1.0796 -1.0370 -1.7291
  966SOL     OW 2896   0.072   1.132   2.873  0.2386  0.3481  0.1874
  966SOL    HW1 2897   0.111   1.194   2.803  0.1469 -0.3309 -2.0784
  966SOL    HW2 2898   3.077   1.137   2.886  5.0711  1.3448 -2.6278
  967SOL     OW 2899   1.092   2.833   1.653  0.2979 -0.5164 -0.0122
  967SOL    HW1 2900   1.115   2.920   1.707 -0.9706 -0.4850  0.6036
  967SOL    HW2 2901   1.043   2.767   1.711 -2.5733  0.9385 -0.8569
  968SOL     OW 2902   1.962   0.371   0.356 -0.1446 -0.0687 -0.1930
  968SOL    HW1 2903   1.972   0.297   0.430  1.1573 -0.5035  1.4281
  968SOL    HW2 2904   1.900   0.445   0.390 -0.3476  0.1825  0.2465
  969SOL     OW 2905   3.006   1.704   1.929 -0.0990  0.5991  0.2837
  969SOL    HW1 2906   2.931   1.696   1.859 -3.1934  2.2366 -2.2464
  969SOL    HW2 2907   3.060   1.788   1.913 -1.1477 -2.1598  2.6514
  970SOL     OW 2908   2.153   1.322   1.431 -0.1295  0.0632  0.1025
  970SOL    HW1 2909   2.187   1.396   1.368 -1.8943 -1.2508 -0.1253
  970SOL    HW2 2910   2.225   1.266   1.471 -1.3337  0.5889  1.9345
  971SOL     OW 2911   2.043   0.642   1.445  0.1802 -0.1417 -0.3468
  971SOL    HW1 2912   2.132   0.659   1.394 -1.1383  0.8352 -3.8430
  971SOL    HW2 2913   1.965   0.655   1.381  0.6463  0.5977  2.6778
  972SOL     OW 2914   0.511   0.008   1.937 -0.6279  0.2475 -0.0441
  972SOL    HW1 2915   0.550   0.006   1.844  0.4850 -0.8923 -0.5895
  972SOL    HW2 2916   0.424   3.064   1.932  0.7841  1.9275 -2.1657
  973SOL     OW 2917   2.802   0.990   0.207  0.1360  0.1989 -0.5655
  973SOL    HW1 2918   2.702   0.982   0.205  0.1542 -0.2139  0.2420
  973SOL    HW2 2919   2.828   0.980   0.306  2.1920 -0.2269  0.2888
  974SOL     OW 2920   1.725   1.315   2.153 -0.1123  0.1002  0.2734
  974SOL    HW1 2921   1.746   1.239   2.087  2.3388  1.5563 -0.2582
  974SOL    HW2 2922   1.733   1.406   2.113  0.2553  2.2859  2.2120
  975SOL     OW 2923   3.031   2.529   1.004  0.0906 -0.7144 -0.4089
  975SOL    HW1 2924   3.064   2.623   0.986 -2.2150 -1.9528  1.0614
  975SOL    HW2 2925   2.942   2.518   0.957  0.9885 -1.0259  1.1416
  976SOL     OW 2926   3.045   1.529   1.667 -0.0785 -0.4356 -0.2376
  976SOL    HW1 2927   3.057   1.522   1.566  1.3924  1.3609 -2.5940
  976SOL    HW2 2928   2.961   1.580   1.688  1.1478  0.4248  0.0008
  977SOL     OW 2929   0.665   2.489   2.971  0.1433 -0.9762 -0.3531
  977SOL    HW1 2930   0.633   2.581   2.999  1.9498  0.7657 -1.3149
  977SOL    HW2 2931   0.761   2.497   2.946 -0.7441  0.8885 -0.7424
  978SOL     OW 2932   0.618   1.805   2.397 -0.2722  0.0513  0.2822
  978SOL    HW1 2933   0.522   1.812   2.363 -0.1815 -2.9808  0.4210
  978SOL    HW2 2934   0.629   1.876   2.468  0.9563 -1.2209  0.6324
  979SOL     OW 2935   1.582   2.464   1.296 -0.1116  0.6256 -0.4050
  979SOL    HW1 2936   1.653   2.537   1.289  0.2693  0.5034 -1.1841
  979SOL    HW2 2937   1.606   2.393   1.226  1.6376 -1.1026  0.0135
  980SOL     OW 2938   0.854   1.434   3.056 -0.1859 -0.0262 -0.2457
  980SOL    HW1 2939   0.790   1.503   3.009 -0.9003  1.9069 -0.7691
  980SOL    HW2 2940   0.953   1.449   3.041  1.0862  0.7377  0.5243
  981SOL     OW 2941   2.928   0.049   2.385 -0.2303 -0.1919 -0.1298
  981SOL    HW1 2942   2.846   3.095   2.394  1.9234  0.3836 -2.2440
  981SOL    HW2 2943   2.940   0.081   2.287  0.5136 -1.2639 -1.4267
  982SOL     OW 2944   0.071   2.634   2.783 -0.3641 -0.0785 -0.0546
  982SOL    HW1 2945   0.111   2.620   2.690  0.7912 -1.4592 -1.8019
  982SOL    HW2 2946   3.072   2.623   2.785 -0.0684 -2.1946 -2.2479
  983SOL     OW 2947   2.321   1.009   2.121  0.8206  0.3540 -0.4292
  983SOL    HW1 2948   2.238   1.062   2.156 -0.7979  0.9377  1.1237
  983SOL    HW2 2949   2.297   0.969   2.030 -4.1167 -0.0964  0.0355
  984SOL     OW 2950   1.620   0.327   2.161  0.8665  0.4579  0.6451
  984SOL    HW1 2951   1.638   0.383   2.245 -0.0583  0.7643  0.8744
  984SOL    HW2 2952   1.698   0.317   2.093  0.5427 -0.0948 -0.7611
  985SOL     OW 2953   1.546   2.186   2.253 -0.4607  0.1153  0.2099
  985SOL    HW1 2954   1.601   2.112   2.209  2.1786  1.1287  1.7042
  985SOL    HW2 2955   1.502   2.152   2.338  0.0031 -1.0153  0.6863
  986SOL     OW 2956   2.156   0.310   2.354 -0.2398  0.5235 -0.1585
  986SOL    HW1 2957   2.201   0.292   2.265  1.7620 -3.9198  2.0298
  986SOL    HW2 2958   2.052   0.316   2.342 -7.6864 -1.0725  1.1598
  987SOL     OW 2959   2.190   0.698   1.996 -0.2932 -0.0549 -0.6322
  987SOL    HW1 2960   2.108   0.749   2.032  4.3191  0.7844 -0.4277
  987SOL    HW2 2961   2.223   0.728   1.904 -2.2306 -0.2702 -1.3025
  988SOL     OW 2962   2.732   0.654   2.506  0.5417 -0.1946  0.4063
  988SOL    HW1 2963   2.785   0.625   2.423  0.9032  0.7299  0.4192
  988SOL    HW2 2964   2.642   0.603   2.503 -1.9705  0.2440  0.8389
  989SOL     OW 2965   2.487   2.533   2.579  0.5118  0.1678 -0.7234
  989SOL    HW1 2966   2.396   2.578   2.553 -1.7334  2.5677 -1.1234
  989SOL    HW2 2967   2.543   2.525   2.492 -1.1537 -1.6506 -1.8772
  990SOL     OW 2968   0.354   0.484   0.158  0.1188 -0.2166  0.1565
  990SOL    HW1 2969   0.310   0.502   0.247  2.0848  1.3929 -1.0165
  990SOL    HW2 2970   0.312   0.543   0.085 -0.3925 -1.9494 -0.4260
  991SOL     OW 2971   0.681   0.474   2.884 -0.1561  0.1265 -0.1224
  991SOL    HW1 2972   0.615   0.449   2.955  3.9013  1.0391 -2.3538
  991SOL    HW2 2973   0.755   0.410   2.888 -2.0362  1.5490  0.5451
  992SOL     OW 2974   2.652   2.173   2.280 -0.0488  0.0754 -0.1729
  992SOL    HW1 2975   2.730   2.167   2.349  0.1274 -3.5300  0.6059
  992SOL    HW2 2976   2.691   2.189   2.188 -0.9168  0.3936  1.5759
  993SOL     OW 2977   0.618   0.096   0.367 -0.3970 -0.5303 -0.1443
  993SOL    HW1 2978   0.609   0.102   0.469 -0.9291 -0.0361 -0.3123
  993SOL    HW2 2979   0.525   0.121   0.327 -1.3100  1.0725 -0.4192
  994SOL     OW 2980   0.185   1.916   1.495  0.0238 -0.0968  0.0329
  994SOL    HW1 2981   0.162   1.850   1.570  2.1504  0.8313 -1.6695
  994SOL    HW2 2982   0.143   1.886   1.405 -0.1009  0.8171 -1.0707
  995SOL     OW 2983   2.162   1.928   0.288  0.1677  0.7283  0.2843
  995SOL    HW1 2984   2.264   1.959   0.278  1.1811  1.7095 -1.4852
  995SOL    HW2 2985   2.114   1.939   0.197  0.4295  0.3896 -2.4957
  996SOL     OW 2986   1.374   1.574   2.543 -0.0725  0.1415 -0.4810
  996SOL    HW1 2987   1.430   1.504   2.492  1.1725 -0.5018  0.2750
  996SOL    HW2 2988   1.430   1.621   2.610 -0.4081 -2.3230  1.2298
  997SOL     OW 2989   1.796   1.258   1.783 -0.5628  0.1517 -0.0200
  997SOL    HW1 2990   1.816   1.261   1.685 -0.5296 -1.6770 -0.0204
  997SOL    HW2 2991   1.699   1.277   1.794 -0.2653 -1.4700  1.7629
  998SOL     OW 2992   2.966   1.600   0.342 -0.4347 -0.0554 -0.2932
  998SOL    HW1 2993   2.903   1.518   0.349  0.7621  1.5287  1.1693
  998SOL    HW2 2994   2.993   1.627   0.247 -1.2540  0.4803  0.9611
  999SOL     OW 2995   2.439   2.618   0.373 -0.1819  0.6552  0.7892
  999SOL    HW1 2996   2.428   2.666   0.462 -0.7822  0.1641 -0.4370
  999SOL    HW2 2997   2.401   2.522   0.379  0.5149 -1.2929 -0.3603
 1000SOL     OW 2998   0.781   3.061   2.046  0.7047  0.0117  0.0131
 1000SOL    HW1 2999   0.687   3.089   2.015  1.0892  2.8593  1.0513
 1000SOL    HW2 3000   0.789   2.963   2.023 -0.3732  1.2021  0.1266
   3.10444   3.10444   3.10444
