1000 SPC/Fw water molecules t= 455.00000 step= 455000
 3000
    1SOL     OW    1   2.887   0.013   1.545 -0.1115 -0.0147  0.5407
    1SOL    HW1    2   2.861   0.002   1.448  1.2598  1.0269  1.9740
    1SOL    HW2    3   2.850   0.100   1.584  1.1282  2.2149  1.3292
    2SOL     OW    4   2.814   0.052   0.060 -0.0417  0.5287 -0.0186
    2SOL    HW1    5   2.823   3.030   0.062 -2.0563  0.3317  0.7446
    2SOL    HW2    6   2.748   0.080   0.130  0.2407  0.0054  0.2669
    3SOL     OW    7   1.246   2.704   0.196 -0.4437  0.0621  0.2784
    3SOL    HW1    8   1.185   2.648   0.135  0.7953 -0.5895  3.7397
    3SOL    HW2    9   1.337   2.662   0.207  0.1533 -0.6918 -0.5271
    4SOL     OW   10   1.616   2.578   2.221  0.5905  0.3489 -0.6998
    4SOL    HW1   11   1.616   2.567   2.325  0.9259 -3.1216 -1.9106
    4SOL    HW2   12   1.559   2.507   2.178  0.6060  1.6358 -0.9548
    5SOL     OW   13   2.255   0.369   2.110 -0.1727 -0.1058 -0.3365
    5SOL    HW1   14   2.291   0.311   2.033  1.2103  0.7564  1.5868
    5SOL    HW2   15   2.258   0.470   2.093  1.4649  1.1487  0.0669
    6SOL     OW   16   2.696   1.839   1.197 -0.1193 -0.2102 -0.2539
    6SOL    HW1   17   2.692   1.791   1.107 -1.0920  0.8220  0.2772
    6SOL    HW2   18   2.612   1.893   1.210 -0.8666 -0.1597  2.9019
    7SOL     OW   19   1.102   2.178   0.515 -0.3019  0.2493 -0.2806
    7SOL    HW1   20   1.069   2.127   0.600 -2.0379 -0.5713  2.7749
    7SOL    HW2   21   1.044   2.154   0.434  0.0850 -0.8213  2.2076
    8SOL     OW   22   0.299   0.787   0.540 -0.2318 -0.2488 -0.3045
    8SOL    HW1   23   0.370   0.804   0.466  3.5939  2.7265 -3.7596
    8SOL    HW2   24   0.214   0.755   0.498 -0.5322  1.6093 -0.8371
    9SOL     OW   25   0.224   2.976   1.466  0.4085  0.4980  0.2627
    9SOL    HW1   26   0.217   2.942   1.373  0.6332 -0.2675  2.7476
    9SOL    HW2   27   0.146   2.943   1.521  0.2653  0.6180 -0.5134
   10SOL     OW   28   1.183   2.504   0.798  0.2326  0.8403  0.7299
   10SOL    HW1   29   1.116   2.492   0.875  1.5800  1.5987 -1.8756
   10SOL    HW2   30   1.134   2.525   0.708 -1.1038  0.6527 -1.6249
   11SOL     OW   31   2.198   1.134   1.232 -0.2522  0.0825  0.0165
   11SOL    HW1   32   2.233   1.040   1.226 -0.7746 -1.0534 -1.0595
   11SOL    HW2   33   2.109   1.133   1.285  0.8791  0.2736  1.1717
   12SOL     OW   34   0.234   0.886   2.018  0.3872  0.1344 -0.1795
   12SOL    HW1   35   0.268   0.867   1.923 -1.2952 -1.3297 -1.9140
   12SOL    HW2   36   0.320   0.890   2.071 -0.9812 -3.6535 -0.2565
   13SOL     OW   37   2.213   0.119   0.170  0.5071  0.3389  0.1078
   13SOL    HW1   38   2.264   0.034   0.182  0.6223  0.2951  0.2536
   13SOL    HW2   39   2.142   0.104   0.098  0.0510 -3.1885 -0.7440
   14SOL     OW   40   1.710   2.005   0.059  0.1031 -0.1379 -0.3371
   14SOL    HW1   41   1.758   1.943   3.066  0.3450 -1.7419 -0.8928
   14SOL    HW2   42   1.615   2.029   0.027 -1.0060 -0.1588  1.4979
   15SOL     OW   43   3.062   2.721   2.326  0.0277  0.1879  0.1517
   15SOL    HW1   44   0.071   2.754   2.302 -1.3372 -1.3557  2.1587
   15SOL    HW2   45   2.988   2.779   2.282 -0.0381 -3.2185  1.0886
   16SOL     OW   46   2.945   0.684   1.040 -0.0731  0.1742  0.2197
   16SOL    HW1   47   2.973   0.654   0.947  2.3549 -0.7452  1.7912
   16SOL    HW2   48   2.894   0.611   1.096  2.1335 -1.0032  3.1783
   17SOL     OW   49   0.761   0.282   0.834 -0.1247  0.1488 -0.0132
   17SOL    HW1   50   0.767   0.249   0.932 -1.0938 -0.6932  1.8502
   17SOL    HW2   51   0.821   0.231   0.766  1.7768 -0.4696 -2.1203
   18SOL     OW   52   0.235   0.225   0.396  0.7831 -0.2016  0.0562
   18SOL    HW1   53   0.183   0.285   0.465  1.0651  0.2450  1.6688
   18SOL    HW2   54   0.302   0.164   0.438 -0.5597  1.2184  1.7927
   19SOL     OW   55   1.582   0.960   0.936 -0.0113  0.2775  0.0240
   19SOL    HW1   56   1.509   1.015   0.891  0.8574 -0.6420 -1.4189
   19SOL    HW2   57   1.573   0.961   1.037 -0.3056 -0.2902 -0.2899
   20SOL     OW   58   2.164   1.788   2.714  0.0338  0.2822  0.0258
   20SOL    HW1   59   2.167   1.859   2.638 -1.5893  0.0613  0.7831
   20SOL    HW2   60   2.256   1.755   2.740 -2.7631 -0.5441 -1.8160
   21SOL     OW   61   1.396   2.700   0.561 -0.5152  0.7152 -0.0801
   21SOL    HW1   62   1.419   2.607   0.595 -1.5069 -0.1968  0.0092
   21SOL    HW2   63   1.475   2.767   0.556 -0.1935  4.3904 -0.2642
   22SOL     OW   64   2.372   0.991   0.341  0.3035 -0.7886  0.0873
   22SOL    HW1   65   2.340   1.012   0.436 -0.5850 -2.2145  1.7956
   22SOL    HW2   66   2.391   1.078   0.292 -2.6806  1.8711 -0.2291
   23SOL     OW   67   0.949   0.388   1.975  0.3230 -0.1023 -0.2402
   23SOL    HW1   68   0.914   0.308   1.924 -2.0739 -0.9064  0.9081
   23SOL    HW2   69   1.047   0.388   1.988 -2.5991  0.3407 -1.2567
   24SOL     OW   70   1.901   2.279   0.637  0.4056  0.0284 -0.6201
   24SOL    HW1   71   1.950   2.359   0.674 -0.0494 -2.9124 -1.4986
   24SOL    HW2   72   1.804   2.292   0.672  0.6686 -0.3532 -0.3325
   25SOL     OW   73   1.712   0.203   2.503 -0.0021 -0.0970  0.8520
   25SOL    HW1   74   1.698   0.228   2.603  0.3942  0.4527 -0.8286
   25SOL    HW2   75   1.634   0.244   2.450 -0.6060 -0.3758  0.7998
   26SOL     OW   76   1.274   2.887   2.798  0.3791  0.2064  0.1713
   26SOL    HW1   77   1.365   2.860   2.763 -3.2844 -1.2546 -1.1195
   26SOL    HW2   78   1.203   2.819   2.774 -1.2865  1.5480 -0.0407
   27SOL     OW   79   1.215   0.398   1.173 -0.3943  0.2549  0.1645
   27SOL    HW1   80   1.157   0.480   1.144 -3.3030 -1.1901 -0.5461
   27SOL    HW2   81   1.187   0.354   1.264  1.2170 -1.2704  3.6060
   28SOL     OW   82   0.208   1.866   0.909 -0.0720  0.3120 -0.3676
   28SOL    HW1   83   0.299   1.825   0.885  0.2930  0.8970 -0.3802
   28SOL    HW2   84   0.210   1.899   1.010 -0.1836  2.0758  2.3830
   29SOL     OW   85   2.710   1.116   1.191 -0.0306  0.2944  0.2518
   29SOL    HW1   86   2.631   1.125   1.128  1.5055  0.0380 -0.7524
   29SOL    HW2   87   2.685   1.140   1.291  0.8840 -2.1303 -0.3897
   30SOL     OW   88   1.809   2.670   1.571  0.9437 -0.3466  0.0437
   30SOL    HW1   89   1.807   2.614   1.485 -1.3646 -0.9489  0.2365
   30SOL    HW2   90   1.734   2.742   1.565 -1.2955  1.9098  0.6609
   31SOL     OW   91   1.510   2.800   1.312 -0.4185  0.3097  0.0320
   31SOL    HW1   92   1.432   2.769   1.260 -0.7485  0.6164  1.9251
   31SOL    HW2   93   1.598   2.771   1.264  0.3947  2.3640 -1.9949
   32SOL     OW   94   2.184   1.364   2.004 -0.3468  0.1178  0.5147
   32SOL    HW1   95   2.285   1.357   1.993 -0.3520  0.0756 -3.4027
   32SOL    HW2   96   2.139   1.370   1.911 -2.1924  1.6959 -2.7056
   33SOL     OW   97   2.342   2.866   2.344  0.1777 -0.2912  0.1858
   33SOL    HW1   98   2.309   2.962   2.372  1.8498 -1.3320  0.3788
   33SOL    HW2   99   2.300   2.841   2.258  2.4661  0.4002  4.8933
   34SOL     OW  100   2.010   0.721   0.769  0.0775  0.4617  0.1637
   34SOL    HW1  101   2.008   0.675   0.677 -0.5342 -1.1883 -0.5780
   34SOL    HW2  102   1.944   0.799   0.764 -0.3321 -0.6705  2.0720
   35SOL     OW  103   0.185   1.389   1.845  1.2011 -0.5821 -0.4887
   35SOL    HW1  104   0.231   1.449   1.911  0.3050  1.7626  0.4483
   35SOL    HW2  105   0.102   1.342   1.886 -1.2867 -0.3973  0.1171
   36SOL     OW  106   2.611   2.227   2.809  0.2182  0.2683  0.0028
   36SOL    HW1  107   2.639   2.126   2.817  0.8321  0.8743 -0.4333
   36SOL    HW2  108   2.520   2.246   2.855  0.9136  0.1504  2.0677
   37SOL     OW  109   1.326   2.844   1.812 -0.1467  0.0792  0.1928
   37SOL    HW1  110   1.351   2.879   1.906  2.2517  0.5555 -1.9130
   37SOL    HW2  111   1.308   2.925   1.751 -1.5462  1.0672 -0.1838
   38SOL     OW  112   0.796   0.908   2.252 -0.0800  0.0697 -0.2538
   38SOL    HW1  113   0.815   0.807   2.259  1.4894 -2.8255  0.8687
   38SOL    HW2  114   0.816   0.945   2.159 -0.3972  3.2472  2.5344
   39SOL     OW  115   1.846   0.757   1.734 -0.2279 -0.1342 -0.0379
   39SOL    HW1  116   1.759   0.706   1.706 -2.4105  0.8751  2.4113
   39SOL    HW2  117   1.907   0.708   1.803  0.1308 -0.7655 -0.2045
   40SOL     OW  118   0.723   2.271   0.591 -0.1692 -0.3982  0.0278
   40SOL    HW1  119   0.775   2.286   0.681  2.9745  1.3545  1.9680
   40SOL    HW2  120   0.727   2.174   0.557  0.4553  0.1900  1.7940
   41SOL     OW  121   2.468   2.007   1.201 -0.2844 -0.3594 -0.1776
   41SOL    HW1  122   2.423   1.946   1.267 -1.0052 -0.4818 -0.9161
   41SOL    HW2  123   2.437   2.106   1.210  2.6205  2.2462 -1.0294
   42SOL     OW  124   2.465   0.747   0.519 -0.5683  0.1593  0.0442
   42SOL    HW1  125   2.518   0.816   0.469 -2.5694 -3.0829 -1.9496
   42SOL    HW2  126   2.531   0.676   0.560  1.8539 -0.3705  0.0209
   43SOL     OW  127   0.645   1.028   2.454 -0.0042  0.6289 -0.3261
   43SOL    HW1  128   0.613   1.123   2.463  0.5884 -1.9292  0.3347
   43SOL    HW2  129   0.692   1.013   2.368 -0.0509  0.0308  4.8267
   44SOL     OW  130   1.813   2.517   1.358 -0.3866 -0.2225  0.4980
   44SOL    HW1  131   1.730   2.466   1.332 -0.6818 -1.0785 -0.1225
   44SOL    HW2  132   1.898   2.461   1.344 -1.7868 -2.3865 -2.2390
   45SOL     OW  133   0.569   2.473   2.831 -0.0045 -0.2691 -0.0228
   45SOL    HW1  134   0.629   2.480   2.913  0.8612  2.3449  1.0894
   45SOL    HW2  135   0.592   2.543   2.756 -0.4272 -2.5276 -2.5917
   46SOL     OW  136   0.558   2.830   2.110  0.0844 -0.7733 -0.2497
   46SOL    HW1  137   0.616   2.800   2.033  0.8460  1.3963  0.4835
   46SOL    HW2  138   0.505   2.758   2.156 -0.8824 -0.2214 -0.2994
   47SOL     OW  139   0.479   1.736   0.751  0.6179 -0.4268  0.5137
   47SOL    HW1  140   0.573   1.738   0.716 -3.2013 -1.5011 -1.2647
   47SOL    HW2  141   0.485   1.784   0.837 -0.2728 -2.9101 -1.2436
   48SOL     OW  142   0.747   3.076   1.274 -0.7713 -0.7783  0.2154
   48SOL    HW1  143   0.768   2.986   1.236 -0.0287  2.1432  3.1860
   48SOL    HW2  144   0.686   3.068   1.351 -0.7507 -3.3500 -1.7137
   49SOL     OW  145   3.060   2.721   2.901 -0.1424 -0.5995  0.3712
   49SOL    HW1  146   2.962   2.721   2.909  1.5605 -2.6882 -1.0740
   49SOL    HW2  147   0.014   2.624   2.912 -0.4863 -0.8593 -1.8122
   50SOL     OW  148   1.325   1.024   0.136 -0.0216  0.0504 -0.5451
   50SOL    HW1  149   1.220   1.017   0.151 -1.5038  1.0463  1.6550
   50SOL    HW2  150   1.350   1.080   0.054 -2.0110  2.1916 -0.5407
   51SOL     OW  151   1.862   0.056   0.466  0.6990  0.4365  0.5004
   51SOL    HW1  152   1.815   0.124   0.409 -0.3001 -2.5321  1.8752
   51SOL    HW2  153   1.857   0.083   0.566  0.4019  0.6201  2.3539
   52SOL     OW  154   0.376   1.486   0.827  0.3168  0.4901  0.1553
   52SOL    HW1  155   0.423   1.566   0.791 -1.1923 -3.5878 -1.9928
   52SOL    HW2  156   0.347   1.501   0.924 -0.4367 -0.1282  0.4350
   53SOL     OW  157   0.212   1.096   2.986 -0.2061 -0.0335 -0.0998
   53SOL    HW1  158   0.117   1.069   3.008 -0.6037  0.1102  0.8820
   53SOL    HW2  159   0.282   1.058   3.049  3.4956  0.0749 -0.4125
   54SOL     OW  160   2.671   2.152   0.057  0.4560  0.1950 -0.1814
   54SOL    HW1  161   2.763   2.178   0.087 -0.3113 -0.7945 -1.4112
   54SOL    HW2  162   2.596   2.218   0.081  0.9658  1.8705 -1.0512
   55SOL     OW  163   2.696   2.208   1.283 -0.3340 -0.0889  0.0578
   55SOL    HW1  164   2.707   2.218   1.384 -0.3535  0.2773 -1.1430
   55SOL    HW2  165   2.596   2.191   1.260 -1.2617 -0.2168  0.0491
   56SOL     OW  166   1.863   0.334   1.096  0.1540  0.2496  0.3015
   56SOL    HW1  167   1.778   0.289   1.127 -0.6122  2.3393 -1.6082
   56SOL    HW2  168   1.846   0.396   1.018 -1.5665 -0.9297  1.0011
   57SOL     OW  169   2.062   2.020   1.216 -0.0692  0.3931  0.1051
   57SOL    HW1  170   2.119   2.081   1.162 -1.4971  0.6526  1.7784
   57SOL    HW2  171   1.975   1.989   1.165  0.8222 -0.1710  2.1741
   58SOL     OW  172   2.580   0.465   2.086 -0.1289  0.0723  0.4231
   58SOL    HW1  173   2.651   0.465   2.160  1.7178 -0.9760 -1.6127
   58SOL    HW2  174   2.515   0.540   2.108 -0.0439 -2.9424 -0.4737
   59SOL     OW  175   1.362   2.451   2.074  0.8192 -0.3621  0.0961
   59SOL    HW1  176   1.275   2.481   2.117  1.8677 -0.6088  0.2219
   59SOL    HW2  177   1.377   2.501   1.986  1.2466 -1.3553 -0.8340
   60SOL     OW  178   0.865   2.366   2.844  0.1269  0.6264 -0.3461
   60SOL    HW1  179   0.837   2.411   2.932  0.7929 -1.2867  1.7238
   60SOL    HW2  180   0.816   2.278   2.836  0.3933 -1.0770  1.4475
   61SOL     OW  181   0.422   2.063   0.242  0.5699  0.0011  0.4395
   61SOL    HW1  182   0.430   2.150   0.189 -0.3207 -0.7700  1.1457
   61SOL    HW2  183   0.405   1.986   0.183  1.1986  0.7732  1.5462
   62SOL     OW  184   1.233   1.655   1.866 -0.7112 -0.7488 -0.1023
   62SOL    HW1  185   1.168   1.723   1.827 -0.1435  1.8531 -1.2334
   62SOL    HW2  186   1.303   1.639   1.794 -3.0486  0.4388 -0.7930
   63SOL     OW  187   0.973   2.036   0.701 -0.1054 -0.1833  0.2394
   63SOL    HW1  188   0.868   2.040   0.698 -1.0431  1.5764  0.2202
   63SOL    HW2  189   1.001   1.940   0.723 -0.1567 -1.1544 -2.3022
   64SOL     OW  190   1.053   1.532   2.781  0.2910 -0.5641  0.0016
   64SOL    HW1  191   1.130   1.586   2.820  0.6002  1.7714 -3.1048
   64SOL    HW2  192   0.958   1.561   2.814  0.0808  0.2880  1.3784
   65SOL     OW  193   1.770   2.038   2.057  0.4329 -1.0233 -0.3262
   65SOL    HW1  194   1.808   2.068   1.968 -1.0845  2.4350  0.3155
   65SOL    HW2  195   1.819   1.964   2.100 -3.1914 -0.5526  0.1145
   66SOL     OW  196   0.069   1.137   0.919 -0.5922 -0.2221 -0.4888
   66SOL    HW1  197   3.056   1.146   0.953 -0.8121  0.5647  4.8591
   66SOL    HW2  198   0.072   1.071   0.836  2.7914 -4.0532 -1.5378
   67SOL     OW  199   2.216   2.527   0.954 -0.1273 -0.6164  0.0966
   67SOL    HW1  200   2.261   2.474   0.876 -3.8113 -2.0071 -2.9991
   67SOL    HW2  201   2.180   2.619   0.920  1.8147  0.6568  2.0298
   68SOL     OW  202   2.506   2.579   1.584  0.0839  0.2779 -0.0316
   68SOL    HW1  203   2.465   2.661   1.540  1.3152 -2.8676 -0.1635
   68SOL    HW2  204   2.522   2.599   1.679 -0.0196 -1.4110 -1.9082
   69SOL     OW  205   2.427   2.618   0.044  0.2203  0.2966 -0.4196
   69SOL    HW1  206   2.388   2.631   3.032  1.5477  0.3783 -0.8277
   69SOL    HW2  207   2.349   2.606   0.110  0.7533 -1.9103 -1.1799
   70SOL     OW  208   0.424   1.481   2.719 -0.5017  0.4154 -0.2396
   70SOL    HW1  209   0.524   1.462   2.702 -0.6421  0.5389 -0.1937
   70SOL    HW2  210   0.378   1.393   2.744 -0.5173  1.2507 -3.1777
   71SOL     OW  211   0.684   1.265   2.181 -0.2081  0.4192 -0.0176
   71SOL    HW1  212   0.596   1.216   2.173  0.9360 -0.4203 -2.6337
   71SOL    HW2  213   0.675   1.363   2.161 -3.4072  1.2595 -0.2709
   72SOL     OW  214   2.815   1.301   1.605 -0.3022  0.2294 -0.1827
   72SOL    HW1  215   2.833   1.397   1.579  3.4824 -0.3303 -0.7274
   72SOL    HW2  216   2.822   1.281   1.708  1.6530 -2.5580  3.5440
   73SOL     OW  217   0.836   2.159   2.378  0.4351 -0.6809  0.8362
   73SOL    HW1  218   0.734   2.169   2.386 -2.9993  2.5142 -1.0531
   73SOL    HW2  219   0.857   2.110   2.292  1.7686  1.9627 -0.6910
   74SOL     OW  220   1.664   0.008   1.908  0.1905 -0.1530  0.1153
   74SOL    HW1  221   1.730   3.028   1.855  1.7482  1.6605  0.3376
   74SOL    HW2  222   1.707   0.048   1.989 -1.6094 -0.3699 -1.9816
   75SOL     OW  223   1.219   2.853   0.757 -0.5800  0.5147 -0.2214
   75SOL    HW1  224   1.260   2.940   0.790 -2.0874  0.6275 -0.5131
   75SOL    HW2  225   1.279   2.804   0.690  0.3432  0.3108  1.2031
   76SOL     OW  226   0.451   1.944   2.572  0.0859 -0.0985  0.4327
   76SOL    HW1  227   0.533   1.931   2.641 -0.6822  3.5421  0.1100
   76SOL    HW2  228   0.416   1.853   2.538  1.5353 -0.3185 -0.1989
   77SOL     OW  229   0.590   2.614   1.187 -0.0031 -0.4414  0.2259
   77SOL    HW1  230   0.526   2.589   1.265 -0.2844 -0.8155  1.6530
   77SOL    HW2  231   0.597   2.714   1.175 -1.0374  0.0669  0.8254
   78SOL     OW  232   2.448   1.312   0.234 -0.6147  0.5219 -0.2030
   78SOL    HW1  233   2.458   1.411   0.203 -2.5421 -1.4458 -2.0273
   78SOL    HW2  234   2.486   1.298   0.327  1.3037 -2.6952  0.1267
   79SOL     OW  235   0.458   1.639   2.930 -0.1312 -0.6616 -0.3254
   79SOL    HW1  236   0.451   1.570   3.007  1.0243 -0.7859 -0.3292
   79SOL    HW2  237   0.442   1.592   2.837  0.8329  3.0628 -2.1967
   80SOL     OW  238   1.739   1.555   1.660 -0.5555 -0.1003  0.2235
   80SOL    HW1  239   1.703   1.631   1.712  0.5731 -2.2772 -3.2653
   80SOL    HW2  240   1.728   1.469   1.719 -2.0687 -1.7452 -3.4048
   81SOL     OW  241   2.096   0.825   2.411  0.2745  0.8075 -0.1170
   81SOL    HW1  242   2.068   0.778   2.325 -0.1946 -0.5754  0.7610
   81SOL    HW2  243   2.177   0.883   2.388  2.5672  1.6961 -0.8965
   82SOL     OW  244   1.732   1.898   1.442  0.3403 -0.0965 -0.1218
   82SOL    HW1  245   1.634   1.883   1.469  1.6772  0.8875 -0.2320
   82SOL    HW2  246   1.766   1.990   1.468  1.0471  2.2837  1.9780
   83SOL     OW  247   2.925   0.038   2.680  0.0514 -0.4049 -0.2563
   83SOL    HW1  248   2.878   0.059   2.590 -3.2160  2.4826  0.2484
   83SOL    HW2  249   2.864   0.022   2.759  1.0384 -2.9751 -0.2670
   84SOL     OW  250   0.969   0.859   0.414 -0.1830 -0.2135  0.6294
   84SOL    HW1  251   0.886   0.918   0.406  2.2660 -0.5599  1.8889
   84SOL    HW2  252   0.972   0.812   0.507 -0.7510 -1.8995  0.8819
   85SOL     OW  253   2.167   1.850   1.411 -0.2652  0.1977  0.1299
   85SOL    HW1  254   2.098   1.908   1.359  0.9968  1.0420  0.9729
   85SOL    HW2  255   2.178   1.759   1.364  1.6752 -2.6153 -0.1417
   86SOL     OW  256   0.855   1.036   1.356  0.4775  0.1421  0.2914
   86SOL    HW1  257   0.788   1.090   1.298  0.6205  0.9665  1.3301
   86SOL    HW2  258   0.804   0.970   1.413 -1.4179  0.5153 -0.6334
   87SOL     OW  259   2.808   1.970   2.582  0.1223 -0.0339  0.3326
   87SOL    HW1  260   2.869   1.992   2.504 -0.3652  0.2014 -1.7200
   87SOL    HW2  261   2.807   2.051   2.647 -0.3820 -0.3853  1.9600
   88SOL     OW  262   0.163   2.798   0.219  0.3759  0.2130 -0.5153
   88SOL    HW1  263   0.209   2.862   0.162 -0.9199 -3.5080  1.2585
   88SOL    HW2  264   0.230   2.744   0.276 -0.7206 -1.7004  1.9651
   89SOL     OW  265   1.388   0.052   0.530 -0.0720 -0.1108 -0.2044
   89SOL    HW1  266   1.445   3.049   0.538 -0.3420  0.9184  2.1756
   89SOL    HW2  267   1.440   0.137   0.537  0.7115 -1.3602 -0.2579
   90SOL     OW  268   2.703   1.024   2.230  0.0413  0.0561 -0.4978
   90SOL    HW1  269   2.650   1.053   2.316 -3.3757  0.2727  2.5352
   90SOL    HW2  270   2.766   0.948   2.237 -2.1277  1.0746 -0.7800
   91SOL     OW  271   2.093   2.956   1.040 -0.2768  0.3738 -0.4239
   91SOL    HW1  272   2.024   2.929   1.110 -1.2251  1.7137 -2.8466
   91SOL    HW2  273   2.108   2.886   0.967  2.2892  2.1028 -3.1297
   92SOL     OW  274   1.534   1.703   0.579  0.0180  0.1550  0.2239
   92SOL    HW1  275   1.573   1.610   0.594 -1.2489  0.2599  0.3155
   92SOL    HW2  276   1.607   1.773   0.568 -1.0605  0.6879 -1.4891
   93SOL     OW  277   0.186   1.488   0.411  0.2673 -0.4840  0.0180
   93SOL    HW1  278   0.143   1.553   0.475 -0.0799  0.9647  1.5805
   93SOL    HW2  279   0.276   1.529   0.388  1.1939 -0.1202  2.1972
   94SOL     OW  280   0.916   2.525   1.392  0.0101 -0.2010  0.1109
   94SOL    HW1  281   1.014   2.540   1.360  0.5852 -0.5520  0.8712
   94SOL    HW2  282   0.860   2.496   1.316 -0.0330  1.2584  2.0839
   95SOL     OW  283   0.165   0.984   0.700  0.2294  0.1571  0.1714
   95SOL    HW1  284   0.241   0.944   0.648 -1.5600  0.0211  1.1975
   95SOL    HW2  285   0.096   0.915   0.708 -0.5490  2.6276  0.9093
   96SOL     OW  286   0.662   2.764   1.870  0.0026 -0.2806  0.7361
   96SOL    HW1  287   0.640   2.841   1.803  1.4353  2.7023  0.1239
   96SOL    HW2  288   0.761   2.739   1.858  1.5765 -3.0993 -4.0655
   97SOL     OW  289   2.514   0.874   0.813  0.1845 -0.3901  0.2114
   97SOL    HW1  290   2.518   0.806   0.889  1.4251 -0.5368  0.0090
   97SOL    HW2  291   2.432   0.865   0.755  2.8533  2.2951 -1.1879
   98SOL     OW  292   0.206   2.319   1.838  0.5106  0.1508 -0.5012
   98SOL    HW1  293   0.246   2.322   1.932 -0.4756  1.2925  1.8469
   98SOL    HW2  294   0.108   2.288   1.843  1.0519 -0.0316 -3.0087
   99SOL     OW  295   3.027   0.439   1.436  0.2225  0.4394 -0.4620
   99SOL    HW1  296   3.059   0.344   1.460 -0.3122  0.3902 -0.5123
   99SOL    HW2  297   3.025   0.502   1.519  0.3640 -0.4926 -2.6932
  100SOL     OW  298   2.067   0.377   2.622  0.3751 -0.2106 -0.3168
  100SOL    HW1  299   2.169   0.386   2.607 -0.5468 -1.8199 -2.3168
  100SOL    HW2  300   2.021   0.337   2.536  0.8441 -1.9696 -2.3574
  101SOL     OW  301   1.114   2.968   2.090  0.9073  0.3818 -0.5447
  101SOL    HW1  302   1.016   2.964   2.118  0.3630  1.8140 -1.2407
  101SOL    HW2  303   1.171   2.929   2.166  2.0798  1.0493 -0.4843
  102SOL     OW  304   0.933   0.638   1.564 -0.1875  0.2527  0.8876
  102SOL    HW1  305   0.844   0.593   1.547 -2.2613  0.1081  1.5546
  102SOL    HW2  306   0.997   0.639   1.482 -0.9871  1.8611  0.9814
  103SOL     OW  307   0.812   0.799   2.899  0.2663 -0.1962  0.4220
  103SOL    HW1  308   0.766   0.866   2.837 -0.4438  0.1077 -0.7977
  103SOL    HW2  309   0.749   0.726   2.925  2.8965  0.6643  0.0272
  104SOL     OW  310   0.423   0.369   2.076 -0.3756  0.1292 -1.1513
  104SOL    HW1  311   0.485   0.342   1.999 -0.1921 -2.6195 -2.9719
  104SOL    HW2  312   0.411   0.291   2.143 -2.0088 -2.4385  1.3745
  105SOL     OW  313   2.650   2.185   1.738 -0.2133  0.0292 -0.0059
  105SOL    HW1  314   2.674   2.087   1.760 -0.9613  0.2328 -0.6016
  105SOL    HW2  315   2.613   2.233   1.821  0.6752  0.5997 -2.4482
  106SOL     OW  316   0.972   2.960   0.664  0.4266 -0.0245  0.2901
  106SOL    HW1  317   1.024   2.984   0.581 -0.9466 -0.4203  1.8646
  106SOL    HW2  318   1.014   2.875   0.700 -0.7323 -0.0597 -2.0308
  107SOL     OW  319   2.985   2.114   1.263 -0.3698  0.0465  0.2012
  107SOL    HW1  320   3.012   2.022   1.226  0.1519  0.5604  0.9322
  107SOL    HW2  321   2.885   2.109   1.284  0.8477 -1.3738 -0.1226
  108SOL     OW  322   0.071   2.187   0.547 -0.9216 -0.3077 -0.2120
  108SOL    HW1  323   0.075   2.278   0.500  0.1789 -1.8426  0.1241
  108SOL    HW2  324   3.065   2.172   0.595  2.1547  0.1812  1.0476
  109SOL     OW  325   1.753   2.844   0.730 -0.1076  0.0876  0.0764
  109SOL    HW1  326   1.837   2.825   0.676 -0.6916  2.1159 -0.7128
  109SOL    HW2  327   1.772   2.923   0.790  3.8259 -0.1528 -4.3407
  110SOL     OW  328   1.723   1.871   0.553  0.1011 -0.1082 -0.9191
  110SOL    HW1  329   1.762   1.904   0.464  0.3226 -0.4516 -2.2247
  110SOL    HW2  330   1.764   1.915   0.637 -0.2272 -0.7475 -2.7485
  111SOL     OW  331   1.937   2.771   1.935 -0.1334 -0.1987  0.7541
  111SOL    HW1  332   2.039   2.760   1.929  0.6793 -0.3684  1.0750
  111SOL    HW2  333   1.901   2.779   2.029 -0.4630  0.0730 -1.4908
  112SOL     OW  334   1.691   2.197   2.466 -0.0172  0.3650 -0.3547
  112SOL    HW1  335   1.630   2.237   2.396 -0.3716 -1.8574 -2.4304
  112SOL    HW2  336   1.746   2.267   2.516 -1.0944  0.7146  1.0263
  113SOL     OW  337   2.307   1.978   2.100 -0.0775 -0.4819  0.0537
  113SOL    HW1  338   2.304   1.893   2.158 -0.5129 -2.6760 -2.7724
  113SOL    HW2  339   2.223   1.976   2.036  0.3940  0.5642 -1.4135
  114SOL     OW  340   0.270   1.178   1.093 -0.0560  0.3157  0.0540
  114SOL    HW1  341   0.196   1.158   1.027  0.4421 -0.6130 -1.0921
  114SOL    HW2  342   0.297   1.275   1.090  0.0779  0.5460  1.5497
  115SOL     OW  343   2.550   0.811   2.581 -0.2196 -0.3303  0.1042
  115SOL    HW1  344   2.641   0.847   2.612 -0.7759 -2.0341 -1.8569
  115SOL    HW2  345   2.565   0.773   2.486 -2.2029  0.3445 -0.8812
  116SOL     OW  346   2.732   0.484   2.842 -0.0483  0.3991  0.0779
  116SOL    HW1  347   2.664   0.558   2.836 -0.7683 -2.9452 -0.4808
  116SOL    HW2  348   2.694   0.400   2.791 -0.6175 -1.1070 -1.5987
  117SOL     OW  349   2.591   2.627   0.645  0.5373 -0.1958 -0.6609
  117SOL    HW1  350   2.550   2.567   0.717  0.2750  1.8043  2.1434
  117SOL    HW2  351   2.687   2.661   0.666  2.4604  1.9182  0.5219
  118SOL     OW  352   0.911   2.056   2.126  0.4592  0.1102  0.6199
  118SOL    HW1  353   0.927   2.081   2.030  3.0274  1.0106  2.1389
  118SOL    HW2  354   0.981   1.981   2.142 -1.3914 -1.1290 -0.5571
  119SOL     OW  355   0.665   2.706   0.471  0.5026 -0.4534  0.0027
  119SOL    HW1  356   0.743   2.768   0.446 -0.8223 -0.1866 -0.1620
  119SOL    HW2  357   0.682   2.613   0.437 -0.8221 -0.1290 -0.8855
  120SOL     OW  358   1.377   0.419   0.752 -0.6058 -0.6965 -0.3283
  120SOL    HW1  359   1.441   0.340   0.779  0.5558 -0.9120  0.4866
  120SOL    HW2  360   1.417   0.507   0.790 -0.1532 -1.9767 -1.5167
  121SOL     OW  361   1.799   0.497   0.883  0.0328  0.4572  0.6813
  121SOL    HW1  362   1.754   0.572   0.933 -1.1308  1.4052 -1.2413
  121SOL    HW2  363   1.819   0.516   0.785  1.8561 -0.6456 -0.2807
  122SOL     OW  364   1.853   1.372   2.383  0.8877  0.0223 -0.7000
  122SOL    HW1  365   1.825   1.273   2.391 -0.7384  0.9294  2.5875
  122SOL    HW2  366   1.899   1.391   2.294 -1.1829 -0.7253 -2.6258
  123SOL     OW  367   0.991   1.218   0.989  0.2373 -0.1919 -0.0040
  123SOL    HW1  368   0.997   1.126   0.942  0.1496  0.9335  0.9562
  123SOL    HW2  369   0.998   1.304   0.932 -0.0939  0.4125 -0.6965
  124SOL     OW  370   0.586   0.228   2.676  0.1775 -0.6113 -0.1990
  124SOL    HW1  371   0.555   0.305   2.734  0.1649 -0.6896  1.4931
  124SOL    HW2  372   0.660   0.266   2.612  0.9903  0.9017  2.4776
  125SOL     OW  373   0.900   3.041   3.075  0.7559  0.3094  0.5740
  125SOL    HW1  374   0.964   3.067   2.999 -0.3426 -1.6614  2.9388
  125SOL    HW2  375   0.940   3.071   0.086  0.1660  2.3607  0.9612
  126SOL     OW  376   0.749   1.346   0.131  0.1985  0.5824 -0.5548
  126SOL    HW1  377   0.757   1.247   0.108  1.0718  1.0303 -0.5801
  126SOL    HW2  378   0.713   1.360   0.226  1.1285 -0.4461  2.2357
  127SOL     OW  379   1.195   2.281   1.265  0.0696 -0.7549  0.0259
  127SOL    HW1  380   1.181   2.373   1.314  0.1250  0.9015 -1.8189
  127SOL    HW2  381   1.282   2.278   1.213  2.9494  0.2396 -1.2282
  128SOL     OW  382   0.871   1.777   0.163  0.4761 -0.5059 -0.2692
  128SOL    HW1  383   0.901   1.691   0.110  1.3073 -1.0314 -0.4198
  128SOL    HW2  384   0.938   1.855   0.168 -0.7466  3.1663 -0.6737
  129SOL     OW  385   1.958   1.456   2.147 -0.1853 -0.0813 -0.2742
  129SOL    HW1  386   1.875   1.426   2.096  0.4745 -1.9903 -2.9960
  129SOL    HW2  387   2.044   1.419   2.102 -0.1297  2.0618 -0.9524
  130SOL     OW  388   2.025   1.725   1.944  0.1146 -0.4567  0.1402
  130SOL    HW1  389   2.017   1.641   1.993 -1.9554 -0.2877 -2.0445
  130SOL    HW2  390   2.020   1.705   1.844  0.8176  1.5240  1.2878
  131SOL     OW  391   0.737   2.494   2.051 -0.1688 -0.0047 -0.6723
  131SOL    HW1  392   0.798   2.415   2.075  0.0624 -0.1229  0.4496
  131SOL    HW2  393   0.672   2.470   1.972 -1.1530 -0.0850  2.5094
  132SOL     OW  394   2.452   1.600   0.652 -0.4756 -0.8426  0.1680
  132SOL    HW1  395   2.531   1.567   0.590  2.5590 -0.2922 -2.2659
  132SOL    HW2  396   2.490   1.680   0.700 -0.2931 -1.3404  1.3064
  133SOL     OW  397   0.619   1.581   2.120 -0.0736 -0.0972 -0.1430
  133SOL    HW1  398   0.692   1.651   2.135  1.9812  3.2594 -0.8866
  133SOL    HW2  399   0.538   1.618   2.071 -0.2867 -2.6132  2.6829
  134SOL     OW  400   3.052   1.524   0.645  0.4156  0.0830  0.1087
  134SOL    HW1  401   0.025   1.445   0.676  1.2492  2.1750  0.2561
  134SOL    HW2  402   3.000   1.513   0.556 -3.8412 -0.9080  0.1173
  135SOL     OW  403   1.703   0.938   2.992  0.2645 -0.8044 -0.0297
  135SOL    HW1  404   1.718   0.959   0.011 -0.7793  0.9078 -0.5227
  135SOL    HW2  405   1.634   0.862   2.987  0.2352  0.5997  2.2846
  136SOL     OW  406   0.090   1.418   1.082  0.4535  0.6071 -0.2321
  136SOL    HW1  407   0.020   1.346   1.112  1.8960 -0.2668  1.6438
  136SOL    HW2  408   0.044   1.495   1.039  0.4470 -0.3816 -0.8578
  137SOL     OW  409   2.178   1.577   0.543 -0.0828  0.3564  0.1977
  137SOL    HW1  410   2.161   1.476   0.530  1.2898 -3.1385 -0.6757
  137SOL    HW2  411   2.279   1.592   0.569  1.3889  1.0472  0.4075
  138SOL     OW  412   2.587   0.565   0.670 -0.1314 -0.5306  0.4829
  138SOL    HW1  413   2.550   0.552   0.763 -0.4014  1.7584  0.4237
  138SOL    HW2  414   2.568   0.487   0.607 -0.1619 -1.9313  0.7723
  139SOL     OW  415   2.701   0.036   2.855  0.6808  0.3186  0.5325
  139SOL    HW1  416   2.738   0.042   2.949  0.0163  1.7247 -4.1699
  139SOL    HW2  417   2.669   3.022   2.833  1.2795 -1.4721 -2.8397
  140SOL     OW  418   0.693   1.599   1.310 -0.0849 -0.0278  0.6708
  140SOL    HW1  419   0.766   1.526   1.297  0.2804 -0.9873 -1.1385
  140SOL    HW2  420   0.736   1.690   1.301  1.9784  0.3632 -0.6973
  141SOL     OW  421   1.336   1.459   0.715 -0.0076 -0.6147 -0.1741
  141SOL    HW1  422   1.421   1.421   0.684 -0.6707  3.1582 -0.2371
  141SOL    HW2  423   1.298   1.432   0.805  0.2351 -0.2687 -1.0178
  142SOL     OW  424   1.658   0.677   1.009 -0.4985  0.5916  0.2840
  142SOL    HW1  425   1.573   0.629   1.045 -0.3926  0.5826  2.4862
  142SOL    HW2  426   1.638   0.744   0.936  2.0488 -1.5688 -1.2167
  143SOL     OW  427   0.599   0.639   2.948 -0.1193 -0.2179 -0.6376
  143SOL    HW1  428   0.521   0.703   2.970 -1.5426 -0.2948  0.5849
  143SOL    HW2  429   0.555   0.549   2.923  0.5236 -0.4020 -1.4259
  144SOL     OW  430   2.615   0.134   0.235  0.2225 -0.0883 -0.7286
  144SOL    HW1  431   2.538   0.200   0.217 -1.2055 -1.5193 -0.9472
  144SOL    HW2  432   2.633   0.130   0.336 -0.1169 -0.4100  2.3695
  145SOL     OW  433   2.202   0.026   2.465  0.1351 -0.0176 -0.0533
  145SOL    HW1  434   2.202   0.019   2.569 -0.9114 -2.1916  2.7701
  145SOL    HW2  435   2.238   0.112   2.424  2.1468  2.0658  0.1755
  146SOL     OW  436   2.750   2.888   0.379 -0.2408  0.1707  0.2105
  146SOL    HW1  437   2.720   2.805   0.330  1.8598 -0.2922  2.1000
  146SOL    HW2  438   2.840   2.919   0.345  0.5518 -0.5081  0.7668
  147SOL     OW  439   1.318   0.878   2.578  0.3842 -0.2910  0.9258
  147SOL    HW1  440   1.408   0.892   2.625  0.7037 -0.8649 -0.5918
  147SOL    HW2  441   1.233   0.903   2.631 -1.5491 -0.1417 -0.9996
  148SOL     OW  442   1.129   3.042   0.454 -0.0018 -0.2618 -0.6517
  148SOL    HW1  443   1.208   0.022   0.483 -2.3849 -0.3138  1.7283
  148SOL    HW2  444   1.154   2.943   0.454 -0.6257  0.8516 -0.4864
  149SOL     OW  445   1.259   0.794   2.337 -0.0654 -0.1410 -0.0839
  149SOL    HW1  446   1.282   0.815   2.433  0.3682  1.3362 -0.5079
  149SOL    HW2  447   1.201   0.875   2.309  0.2952 -0.1083  0.9603
  150SOL     OW  448   1.636   0.013   2.936  1.2487 -0.8285 -0.2260
  150SOL    HW1  449   1.670   0.010   3.032 -0.3103 -0.5765  1.6465
  150SOL    HW2  450   1.665   3.017   2.878 -2.1306 -0.2452 -2.1160
  151SOL     OW  451   0.519   1.465   0.076  0.3117 -0.5137  0.2858
  151SOL    HW1  452   0.476   1.380   0.112  2.6629 -2.1015 -0.7020
  151SOL    HW2  453   0.616   1.441   0.060 -1.7443  0.5541 -0.2394
  152SOL     OW  454   0.880   0.433   1.221 -0.5166  0.0130 -0.3620
  152SOL    HW1  455   0.790   0.473   1.248 -0.3329 -0.3288  2.3295
  152SOL    HW2  456   0.911   0.362   1.284  0.4335  1.2602 -4.1140
  153SOL     OW  457   2.505   0.009   1.858 -0.4142  0.1551  0.4388
  153SOL    HW1  458   2.508   0.093   1.906  2.7235 -0.9078 -1.5854
  153SOL    HW2  459   2.450   3.022   1.910  2.4644  3.4547 -1.3253
  154SOL     OW  460   2.334   2.915   1.986  0.0191 -0.0354 -0.1221
  154SOL    HW1  461   2.280   2.959   2.061 -0.2401 -3.2659  0.5768
  154SOL    HW2  462   2.274   2.838   1.959 -0.4475  0.7046 -0.6575
  155SOL     OW  463   2.980   1.086   0.339  0.0417  0.0245  0.1541
  155SOL    HW1  464   2.957   0.990   0.317 -1.1578 -0.4337 -0.6514
  155SOL    HW2  465   3.042   1.086   0.420  2.5732 -0.2928 -0.8438
  156SOL     OW  466   2.160   1.316   0.513 -0.3202  0.1212  0.0572
  156SOL    HW1  467   2.094   1.261   0.564 -0.3177 -2.7586 -0.6718
  156SOL    HW2  468   2.155   1.292   0.410  0.2498 -2.4073  1.3043
  157SOL     OW  469   0.772   2.945   2.839  0.5056 -0.3600  0.2223
  157SOL    HW1  470   0.813   2.970   2.930  1.1509 -0.9934  0.1890
  157SOL    HW2  471   0.689   2.997   2.814 -0.6785 -3.0821  0.9464
  158SOL     OW  472   1.991   1.105   1.399  0.3911  0.2092  0.0601
  158SOL    HW1  473   1.976   1.046   1.482  1.2605  0.2556 -0.6490
  158SOL    HW2  474   1.938   1.191   1.422 -0.1673  0.7309 -0.0212
  159SOL     OW  475   0.106   0.094   0.187 -0.2303 -0.4082 -0.4192
  159SOL    HW1  476   0.160   0.025   0.135  1.0379 -1.7119 -1.6275
  159SOL    HW2  477   0.163   0.151   0.248 -0.2124  0.2853 -0.8739
  160SOL     OW  478   2.517   2.015   1.955  0.3990  0.2480  0.2042
  160SOL    HW1  479   2.605   1.982   1.994  0.8341  1.0523  0.2494
  160SOL    HW2  480   2.434   1.987   2.009  2.2160 -0.7052  1.1280
  161SOL     OW  481   0.205   0.581   0.110 -0.2412  0.1919  0.7860
  161SOL    HW1  482   0.247   0.634   0.030 -0.4032  1.1321 -1.4087
  161SOL    HW2  483   0.128   0.522   0.075 -1.6306  1.2815 -0.2249
  162SOL     OW  484   0.677   0.555   1.573 -0.6030 -1.0231 -0.0942
  162SOL    HW1  485   0.639   0.568   1.665  0.2811 -0.7729  0.8264
  162SOL    HW2  486   0.649   0.464   1.538 -0.3313 -1.2394 -0.7375
  163SOL     OW  487   2.639   2.925   2.406  0.2795  0.1200 -0.0085
  163SOL    HW1  488   2.658   2.854   2.483  1.0128 -2.0016 -1.7204
  163SOL    HW2  489   2.534   2.923   2.387 -0.1842 -1.8449  0.5102
  164SOL     OW  490   2.219   1.733   0.324 -0.3912  0.1599 -0.2470
  164SOL    HW1  491   2.147   1.699   0.258  1.9824  0.3487 -1.2873
  164SOL    HW2  492   2.210   1.679   0.414 -2.6165  0.3364  1.1704
  165SOL     OW  493   0.324   2.951   0.613  0.1283  0.0989  0.4135
  165SOL    HW1  494   0.332   3.046   0.572 -2.8088  0.3189 -2.7851
  165SOL    HW2  495   0.412   2.911   0.641 -1.2881  1.2548 -1.6800
  166SOL     OW  496   2.827   0.320   0.030  0.1971  0.1886 -0.4025
  166SOL    HW1  497   2.750   0.359   3.062  1.9897 -0.2730  1.3377
  166SOL    HW2  498   2.817   0.213   0.035  0.2490 -3.8603 -0.9747
  167SOL     OW  499   2.200   0.681   0.479  0.4506  0.1819 -0.3982
  167SOL    HW1  500   2.295   0.724   0.494  2.2368 -2.5743  2.0466
  167SOL    HW2  501   2.198   0.638   0.388  1.5282  2.1535  1.9212
  168SOL     OW  502   1.560   0.316   2.278  0.1327  0.2540  0.4646
  168SOL    HW1  503   1.464   0.318   2.313 -0.0307  0.0788 -2.9668
  168SOL    HW2  504   1.594   0.404   2.246 -1.7933 -4.1574  0.8203
  169SOL     OW  505   0.535   1.861   0.983 -0.1246  0.1973  0.6285
  169SOL    HW1  506   0.581   1.878   1.070 -0.1559 -0.6322  0.8138
  169SOL    HW2  507   0.515   1.956   0.941 -0.6978  2.6760 -2.7892
  170SOL     OW  508   0.386   0.148   1.423  0.0387 -0.2231  0.9425
  170SOL    HW1  509   0.385   0.214   1.499  0.2368 -3.5116 -1.3836
  170SOL    HW2  510   0.345   0.058   1.447 -1.3109 -1.9606 -0.0792
  171SOL     OW  511   2.282   1.264   2.432 -0.7727 -0.3773 -0.2537
  171SOL    HW1  512   2.222   1.226   2.358 -1.4445 -1.3101  0.3335
  171SOL    HW2  513   2.357   1.323   2.391 -0.4382 -2.3608  0.5400
  172SOL     OW  514   0.953   1.724   1.065  0.8194  0.0664 -0.5379
  172SOL    HW1  515   0.901   1.642   1.031 -0.9564 -1.5754 -2.7456
  172SOL    HW2  516   0.915   1.766   1.147 -0.0435  0.3760  0.4254
  173SOL     OW  517   1.767   2.257   3.031 -0.1584 -0.5622  0.0077
  173SOL    HW1  518   1.821   2.299   0.025  0.0867  0.4010  2.2386
  173SOL    HW2  519   1.720   2.176   3.069 -2.2954  0.9903  1.0048
  174SOL     OW  520   1.695   0.591   0.086  0.4171 -0.1416 -0.0609
  174SOL    HW1  521   1.787   0.619   0.059 -0.7997  0.3476 -1.0093
  174SOL    HW2  522   1.628   0.659   0.043 -0.1808  2.2457  0.8020
  175SOL     OW  523   0.587   1.745   1.704 -0.3947 -1.4575  0.6588
  175SOL    HW1  524   0.491   1.718   1.734 -0.7117 -3.0658  0.3872
  175SOL    HW2  525   0.613   1.839   1.734  0.4193  0.3469  0.1291
  176SOL     OW  526   0.826   0.261   0.482 -0.0554 -0.5997  0.0707
  176SOL    HW1  527   0.905   0.296   0.423 -1.8005 -1.8252 -1.4160
  176SOL    HW2  528   0.856   0.215   0.569  0.5570 -1.1315 -0.0117
  177SOL     OW  529   0.142   1.480   3.081 -0.1876 -0.0331 -0.0524
  177SOL    HW1  530   0.083   1.444   3.006 -2.2011  2.2847  2.3056
  177SOL    HW2  531   0.135   1.422   0.083 -1.6827 -0.8950  0.9247
  178SOL     OW  532   2.872   2.245   2.189  0.2512  0.7675  0.3026
  178SOL    HW1  533   2.914   2.206   2.110 -3.3205  1.0129 -0.6001
  178SOL    HW2  534   2.880   2.348   2.167 -0.3911  2.1551 -1.9023
  179SOL     OW  535   2.239   0.094   2.728  0.1393  0.2258 -0.2929
  179SOL    HW1  536   2.269   0.190   2.744 -1.0821  3.2181 -0.3255
  179SOL    HW2  537   2.151   0.078   2.779 -1.0902  0.0127  0.9563
  180SOL     OW  538   2.452   0.510   0.899  0.0012 -0.5417 -0.5602
  180SOL    HW1  539   2.356   0.494   0.872  2.9920 -2.2718 -0.9551
  180SOL    HW2  540   2.453   0.581   0.971 -0.6557  0.5258 -0.0713
  181SOL     OW  541   2.811   0.046   2.430 -0.3260 -0.2424  0.7262
  181SOL    HW1  542   2.863   0.072   2.342  1.1432 -2.6092 -1.8610
  181SOL    HW2  543   2.756   3.044   2.430  2.9207  3.0400  0.5402
  182SOL     OW  544   2.371   2.336   2.425  0.4731 -0.5364  0.2847
  182SOL    HW1  545   2.447   2.378   2.474 -2.3134  0.3432 -1.3689
  182SOL    HW2  546   2.399   2.288   2.341  1.0207 -0.6872 -1.4657
  183SOL     OW  547   2.620   1.152   1.460 -0.2788 -0.2889  0.3044
  183SOL    HW1  548   2.669   1.212   1.531  1.3980  1.3466  1.8547
  183SOL    HW2  549   2.529   1.187   1.435  0.7065  0.0066  2.9211
  184SOL     OW  550   2.851   1.510   0.957  0.7851  0.3255 -0.1880
  184SOL    HW1  551   2.864   1.567   1.046  1.3122 -1.0990  3.4440
  184SOL    HW2  552   2.937   1.479   0.912 -0.1951  0.0961 -1.2291
  185SOL     OW  553   0.200   3.023   0.946  0.2551  0.0067  0.2262
  185SOL    HW1  554   0.160   2.956   0.878  2.4115  1.7742 -0.8005
  185SOL    HW2  555   0.298   3.031   0.939 -1.7985 -1.5134 -1.5892
  186SOL     OW  556   2.309   2.559   2.200 -0.0278 -0.3729 -0.0977
  186SOL    HW1  557   2.267   2.562   2.296  0.3265 -0.8232  1.3983
  186SOL    HW2  558   2.318   2.456   2.181  0.5484  1.2535 -1.8676
  187SOL     OW  559   0.440   1.333   0.602 -0.5048  0.0179 -0.1524
  187SOL    HW1  560   0.358   1.348   0.548 -0.0426  3.1850 -0.0789
  187SOL    HW2  561   0.436   1.382   0.691 -0.2173 -0.0161 -1.7307
  188SOL     OW  562   1.601   1.793   0.237  0.4229 -0.1156  0.0390
  188SOL    HW1  563   1.657   1.872   0.213 -1.6151 -0.6112  0.1170
  188SOL    HW2  564   1.530   1.822   0.302 -0.7338 -3.1443 -3.1206
  189SOL     OW  565   3.038   1.433   2.869 -0.0276  0.7276  0.1296
  189SOL    HW1  566   3.010   1.337   2.885 -2.1978 -1.6518 -0.5381
  189SOL    HW2  567   2.959   1.496   2.867 -0.5301  1.1227 -1.3423
  190SOL     OW  568   2.305   0.715   2.590 -1.3876  0.5460  0.1898
  190SOL    HW1  569   2.262   0.744   2.506 -1.4063 -0.1815  0.0831
  190SOL    HW2  570   2.399   0.754   2.598 -1.3797 -2.3235 -1.8632
  191SOL     OW  571   0.809   0.998   1.990 -0.2696 -0.2701 -0.5005
  191SOL    HW1  572   0.807   0.962   1.894  0.0601  0.8593  4.9357
  191SOL    HW2  573   0.744   1.074   2.006  1.0235  1.4361 -2.7844
  192SOL     OW  574   1.731   1.368   2.026  0.0151  0.1285  0.3636
  192SOL    HW1  575   1.635   1.329   2.029 -0.8893  0.6754  1.9623
  192SOL    HW2  576   1.796   1.305   1.992 -0.6014 -0.7209  1.0199
  193SOL     OW  577   1.325   2.667   1.165  1.1816  0.6007 -0.3672
  193SOL    HW1  578   1.359   2.594   1.097 -1.0105 -0.1489 -2.0249
  193SOL    HW2  579   1.273   2.741   1.115 -0.7308  2.2956 -3.1167
  194SOL     OW  580   1.271   1.386   1.912  0.0243 -0.2077  0.5776
  194SOL    HW1  581   1.335   1.347   1.844  1.6836  0.4350 -0.3039
  194SOL    HW2  582   1.265   1.487   1.895  0.3464  1.3224 -2.9954
  195SOL     OW  583   1.911   0.180   0.708  0.1830 -0.6678 -0.7218
  195SOL    HW1  584   1.872   0.268   0.677 -0.6661 -0.1429 -0.0433
  195SOL    HW2  585   1.963   0.192   0.797 -1.8459  2.5951 -0.7414
  196SOL     OW  586   0.936   1.317   2.303 -0.8591  0.2295  0.9211
  196SOL    HW1  587   0.850   1.303   2.245 -1.1820 -1.4216  0.4091
  196SOL    HW2  588   0.998   1.373   2.242  1.5335  0.9657 -3.3651
  197SOL     OW  589   0.402   0.131   2.254  0.1433 -0.8758  0.2981
  197SOL    HW1  590   0.406   0.173   2.347 -0.3415  1.5785 -3.4904
  197SOL    HW2  591   0.384   0.032   2.267 -1.1523  2.4295  1.1983
  198SOL     OW  592   2.939   1.269   1.135  0.1834 -0.9900 -0.3838
  198SOL    HW1  593   2.875   1.189   1.144 -3.1617 -2.0280 -0.9465
  198SOL    HW2  594   2.889   1.360   1.132 -2.6243  1.5804 -2.3913
  199SOL     OW  595   0.413   2.150   1.317  0.3211  0.2659 -0.5099
  199SOL    HW1  596   0.330   2.137   1.372  2.5361 -0.7178 -1.9318
  199SOL    HW2  597   0.403   2.213   1.239  1.9714 -0.2395 -0.0227
  200SOL     OW  598   2.480   1.882   2.721 -0.1606  0.2738 -0.6482
  200SOL    HW1  599   2.551   1.910   2.791 -0.0964 -0.0097 -1.1505
  200SOL    HW2  600   2.442   1.789   2.735  2.1485  0.2764  1.8810
  201SOL     OW  601   0.863   2.199   1.404  0.5730  0.5738  0.2283
  201SOL    HW1  602   0.958   2.204   1.431 -1.3679 -0.5433 -0.0901
  201SOL    HW2  603   0.849   2.273   1.332 -1.2383  2.8568 -1.7973
  202SOL     OW  604   0.711   2.271   0.092 -0.1561 -0.0215  0.2112
  202SOL    HW1  605   0.767   2.295   0.172 -1.8213  1.2595 -2.0684
  202SOL    HW2  606   0.764   2.216   0.021 -1.4442 -0.3036 -1.0634
  203SOL     OW  607   1.923   0.313   2.376  0.6184  0.3115 -0.0442
  203SOL    HW1  608   1.953   0.250   2.303 -1.5866  0.1087 -0.2222
  203SOL    HW2  609   1.843   0.273   2.422  1.2649  0.4130 -0.4358
  204SOL     OW  610   0.233   1.146   1.771 -0.3359  0.0715 -0.0419
  204SOL    HW1  611   0.234   1.248   1.783  1.2291  0.5067  0.3344
  204SOL    HW2  612   0.312   1.107   1.816  0.9306 -0.8286 -1.1461
  205SOL     OW  613   2.071   1.317   2.610  0.1009  0.7077  0.6828
  205SOL    HW1  614   2.140   1.298   2.538  1.0487 -1.1857 -3.2155
  205SOL    HW2  615   2.056   1.418   2.611  1.4212 -0.9382 -0.3184
  206SOL     OW  616   0.032   2.044   2.606  0.2351 -0.2768 -0.1736
  206SOL    HW1  617   0.055   1.944   2.595  1.9800  1.4618 -2.1871
  206SOL    HW2  618   3.065   2.079   2.524  0.4975 -1.0070  3.7791
  207SOL     OW  619   0.515   2.924   1.681 -0.1000  0.2485 -0.3675
  207SOL    HW1  620   0.424   2.944   1.724 -0.2852  0.2008  0.5539
  207SOL    HW2  621   0.512   2.859   1.599 -0.5118  1.2907 -2.3393
  208SOL     OW  622   0.388   2.528   1.393 -0.2123  0.0420  0.4643
  208SOL    HW1  623   0.318   2.583   1.341 -0.9419 -0.6046 -0.8669
  208SOL    HW2  624   0.348   2.507   1.483 -1.1386 -0.0476 -0.6916
  209SOL     OW  625   1.230   2.699   2.487  0.2218  0.1039 -0.2287
  209SOL    HW1  626   1.231   2.596   2.457  1.7484 -1.9502 -1.5549
  209SOL    HW2  627   1.197   2.703   2.589  1.1313 -3.2609  3.2740
  210SOL     OW  628   2.713   1.247   2.085  0.6515 -0.4602  0.3167
  210SOL    HW1  629   2.735   1.322   2.153  3.8099 -1.6549  0.6446
  210SOL    HW2  630   2.717   1.156   2.131 -0.1017 -1.0544 -1.1423
  211SOL     OW  631   1.440   2.966   2.019 -0.3240 -0.2463  0.5110
  211SOL    HW1  632   1.515   3.004   1.959  1.2800  3.1742 -0.3392
  211SOL    HW2  633   1.428   3.024   2.098 -3.5362 -0.7945  0.7645
  212SOL     OW  634   1.453   2.606   1.865 -0.2792 -0.0551 -0.3673
  212SOL    HW1  635   1.411   2.689   1.825 -2.0799  0.7231  0.1347
  212SOL    HW2  636   1.555   2.609   1.855 -2.1518 -0.6130 -1.2804
  213SOL     OW  637   2.439   0.716   1.651  0.3848 -0.0020 -0.7416
  213SOL    HW1  638   2.417   0.646   1.582 -1.0147  0.8543  0.4924
  213SOL    HW2  639   2.521   0.768   1.622 -1.8764 -0.3585  0.9912
  214SOL     OW  640   0.803   2.391   1.188  0.2651  0.1600  0.3245
  214SOL    HW1  641   0.780   2.307   1.132 -0.1468 -1.1356  0.3525
  214SOL    HW2  642   0.732   2.468   1.169 -1.4209  1.7639  0.3826
  215SOL     OW  643   2.446   1.956   0.752  0.2218 -0.2900 -0.0103
  215SOL    HW1  644   2.368   2.022   0.733 -1.8041 -0.6173  1.3866
  215SOL    HW2  645   2.495   1.960   0.660 -0.0871  0.3740 -0.2444
  216SOL     OW  646   0.178   0.790   1.519 -0.1213 -0.6599  1.0562
  216SOL    HW1  647   0.198   0.693   1.488  0.0656 -1.3752 -0.5891
  216SOL    HW2  648   0.108   0.832   1.458 -0.8238  0.2812 -0.1362
  217SOL     OW  649   2.278   0.354   1.298  0.6466  0.2028  0.3327
  217SOL    HW1  650   2.328   0.261   1.286  1.3789 -2.5244 -1.0808
  217SOL    HW2  651   2.222   0.382   1.211 -0.7544  0.6783 -1.1089
  218SOL     OW  652   1.722   2.183   1.095 -0.3929  0.1936  0.8298
  218SOL    HW1  653   1.748   2.261   1.030  0.9921 -1.4360  0.7888
  218SOL    HW2  654   1.707   2.224   1.186  1.8981 -2.7203 -3.6647
  219SOL     OW  655   1.420   2.297   3.001 -0.2521 -0.2442  0.3893
  219SOL    HW1  656   1.481   2.364   2.955 -0.4541 -1.3598 -1.8271
  219SOL    HW2  657   1.391   2.316   0.016 -1.0192 -1.0546  1.3628
  220SOL     OW  658   1.436   2.506   2.720  0.1498  0.1228 -0.3641
  220SOL    HW1  659   1.366   2.433   2.721  1.9239 -2.2936 -0.0583
  220SOL    HW2  660   1.526   2.477   2.760 -0.6813 -1.1666  0.9020
  221SOL     OW  661   0.234   2.542   1.689 -0.7909 -0.3941  0.2072
  221SOL    HW1  662   0.276   2.612   1.752 -1.6561 -0.2476  0.3606
  221SOL    HW2  663   0.213   2.457   1.739 -1.6453 -0.6540 -1.9412
  222SOL     OW  664   1.959   2.433   1.062  0.5289 -0.3255 -0.0444
  222SOL    HW1  665   1.975   2.415   1.163 -0.0418 -0.4920  0.2745
  222SOL    HW2  666   2.040   2.474   1.024  1.8473  2.0475  2.6581
  223SOL     OW  667   1.045   2.506   1.794  0.1691 -0.2253  0.3079
  223SOL    HW1  668   0.953   2.525   1.757  2.2335 -1.0724  0.6898
  223SOL    HW2  669   1.060   2.560   1.879 -1.1487  1.5372  0.6991
  224SOL     OW  670   2.833   2.164   1.535 -0.3914  0.2276 -0.2325
  224SOL    HW1  671   2.903   2.238   1.534 -1.2050  0.7424  0.4997
  224SOL    HW2  672   2.787   2.156   1.626  0.3962 -2.1414  0.9207
  225SOL     OW  673   2.273   2.378   0.742  0.0274 -0.2988  0.4671
  225SOL    HW1  674   2.243   2.281   0.755 -0.7886  0.9700  0.1150
  225SOL    HW2  675   2.274   2.404   0.645 -2.3966  0.4535 -0.4113
  226SOL     OW  676   1.430   2.428   0.634  0.2816  0.1658 -0.3400
  226SOL    HW1  677   1.363   2.451   0.706  0.3544 -2.0029  0.2501
  226SOL    HW2  678   1.524   2.405   0.661  0.1252  0.3984  0.1430
  227SOL     OW  679   2.008   1.070   0.893  0.0580  0.1842  0.1423
  227SOL    HW1  680   1.975   1.051   0.990 -3.3138 -0.2188  0.2515
  227SOL    HW2  681   2.076   1.144   0.895 -2.1850 -3.3723  2.1770
  228SOL     OW  682   1.312   0.471   2.556 -1.0753  0.1488 -0.2895
  228SOL    HW1  683   1.311   0.430   2.649 -1.6258 -2.6698 -2.9863
  228SOL    HW2  684   1.396   0.521   2.535  1.2341 -1.5041  1.4491
  229SOL     OW  685   2.974   1.181   2.885  0.7958  0.2264  0.1758
  229SOL    HW1  686   3.001   1.108   2.957  1.3698 -3.3922  2.9854
  229SOL    HW2  687   2.987   1.141   2.793  0.6813  1.2437 -0.8888
  230SOL     OW  688   0.612   1.356   1.075  1.1591 -0.1356 -0.0752
  230SOL    HW1  689   0.527   1.411   1.094  0.9025 -2.6533  1.9798
  230SOL    HW2  690   0.614   1.304   0.987  1.3256  2.1230  2.0173
  231SOL     OW  691   2.489   0.007   2.606 -0.2682  0.0681  0.2058
  231SOL    HW1  692   2.398   0.037   2.648 -0.5105 -1.9240  0.4356
  231SOL    HW2  693   2.488   0.026   2.506 -1.5244 -0.2150  0.6107
  232SOL     OW  694   0.177   2.229   0.099  0.0925  0.1844 -0.3111
  232SOL    HW1  695   0.268   2.199   0.073 -1.0303  0.6744  2.6393
  232SOL    HW2  696   0.119   2.224   0.015  0.1676  0.1626  1.2597
  233SOL     OW  697   1.507   2.258   2.233  0.2608  0.0107 -0.0778
  233SOL    HW1  698   1.461   2.322   2.168  0.1023 -0.9372 -0.3776
  233SOL    HW2  699   1.608   2.254   2.216 -2.0791  0.2588  1.2445
  234SOL     OW  700   1.229   1.588   1.480 -0.5533  0.5077 -0.5503
  234SOL    HW1  701   1.314   1.591   1.541  1.7253  1.4621  3.1766
  234SOL    HW2  702   1.239   1.663   1.411 -2.7224 -0.7011 -1.0717
  235SOL     OW  703   1.035   1.831   1.771 -0.4755  0.1375  0.1772
  235SOL    HW1  704   1.006   1.900   1.695 -0.7609 -1.5437 -2.9987
  235SOL    HW2  705   0.970   1.752   1.765 -0.4420  0.0088  0.7856
  236SOL     OW  706   1.355   3.037   2.990 -0.6559 -0.0083 -0.5910
  236SOL    HW1  707   1.449   3.079   2.974 -0.5473 -0.2501 -1.7078
  236SOL    HW2  708   1.326   2.972   2.920  0.0908  2.0507  1.3314
  237SOL     OW  709   1.334   0.200   1.355 -0.5519 -0.3488 -0.0225
  237SOL    HW1  710   1.314   0.126   1.286 -0.2773 -0.5722  1.2381
  237SOL    HW2  711   1.425   0.184   1.406  2.5496 -1.5886 -0.3472
  238SOL     OW  712   1.107   0.708   3.059 -0.7113  0.5170  0.6310
  238SOL    HW1  713   1.120   0.801   3.021 -0.0789  0.5096 -1.0630
  238SOL    HW2  714   1.020   0.661   3.034 -1.9534  0.4680  0.5152
  239SOL     OW  715   2.787   0.887   2.685  0.1934 -0.8823 -0.1201
  239SOL    HW1  716   2.760   0.985   2.674 -0.7731  2.5297  0.0874
  239SOL    HW2  717   2.849   0.877   2.766  1.7506  0.2300  0.3896
  240SOL     OW  718   2.516   2.407   0.874  0.0390  0.1712  0.5889
  240SOL    HW1  719   2.561   2.323   0.912  0.4648 -0.4373  0.1335
  240SOL    HW2  720   2.429   2.379   0.826 -0.4441 -1.1011  2.3512
  241SOL     OW  721   1.157   1.196   1.211  0.0192 -0.4876 -0.4942
  241SOL    HW1  722   1.155   1.269   1.283  0.1762 -1.4862 -0.7686
  241SOL    HW2  723   1.083   1.207   1.140  1.5046 -0.9259 -0.8187
  242SOL     OW  724   0.616   0.608   0.862  0.2908 -0.6451  0.2973
  242SOL    HW1  725   0.653   0.692   0.910 -1.1712  0.4446  0.0693
  242SOL    HW2  726   0.690   0.559   0.817  1.8238 -1.0959 -1.9889
  243SOL     OW  727   0.250   0.458   1.100 -0.2600  0.0761 -0.1819
  243SOL    HW1  728   0.231   0.446   1.004  2.9235  0.6495  0.7421
  243SOL    HW2  729   0.350   0.444   1.118  0.1883  1.5436  0.9373
  244SOL     OW  730   1.022   0.060   0.215  0.3835 -0.2299  0.2468
  244SOL    HW1  731   1.073   0.019   0.292 -1.4176 -0.5050  1.8793
  244SOL    HW2  732   1.044   0.156   0.196 -0.3364 -1.8606  1.7482
  245SOL     OW  733   1.958   0.731   0.350  0.1881  0.1549 -0.5673
  245SOL    HW1  734   1.985   0.724   0.251 -1.6338  3.6843 -0.4953
  245SOL    HW2  735   2.037   0.731   0.416 -1.5542 -0.5359  0.5215
  246SOL     OW  736   0.315   0.563   1.672  0.4103 -0.3377 -0.7000
  246SOL    HW1  737   0.316   0.664   1.675  0.1587 -0.6327  2.2694
  246SOL    HW2  738   0.220   0.527   1.691 -1.1489 -1.2819 -0.3662
  247SOL     OW  739   0.859   0.180   1.812  0.1809 -0.3034 -0.5596
  247SOL    HW1  740   0.782   0.122   1.852 -0.1784 -1.3012  0.5510
  247SOL    HW2  741   0.903   0.136   1.731 -1.6241 -1.7800  1.8965
  248SOL     OW  742   0.592   1.508   2.385 -0.2098 -0.4348 -0.0953
  248SOL    HW1  743   0.677   1.513   2.446 -1.6290 -1.3274  0.4777
  248SOL    HW2  744   0.614   1.533   2.286  0.9748 -0.5813 -0.5577
  249SOL     OW  745   0.540   2.803   0.059  0.5956  0.0822 -0.0531
  249SOL    HW1  746   0.475   2.796   3.059  0.6867 -1.7573  0.3978
  249SOL    HW2  747   0.530   2.721   0.117  2.3308 -0.9084 -0.0252
  250SOL     OW  748   0.665   0.186   2.139  0.2575 -0.0124  0.2081
  250SOL    HW1  749   0.567   0.159   2.170 -0.9990 -1.1208 -1.6484
  250SOL    HW2  750   0.701   0.106   2.079  3.1732 -0.4938 -1.1443
  251SOL     OW  751   2.828   1.907   1.458  0.4851  0.0723  0.0467
  251SOL    HW1  752   2.750   1.892   1.394  2.4861  0.1669  1.2450
  251SOL    HW2  753   2.836   2.001   1.487 -0.0759 -1.1314 -2.3283
  252SOL     OW  754   1.927   0.122   1.709  0.4586 -0.0169 -0.2325
  252SOL    HW1  755   1.887   0.185   1.779 -1.9357 -2.7863  1.1452
  252SOL    HW2  756   1.895   0.023   1.724 -0.8818  1.9672 -1.3678
  253SOL     OW  757   2.024   1.583   2.605 -0.4456  0.2035 -0.3084
  253SOL    HW1  758   1.926   1.595   2.629  0.7718  3.6654  3.5228
  253SOL    HW2  759   2.079   1.651   2.660  0.4463  0.4733  0.5203
  254SOL     OW  760   0.580   1.529   1.540  0.4860  0.7143 -0.3277
  254SOL    HW1  761   0.612   1.559   1.446 -0.6900  2.1516 -1.6556
  254SOL    HW2  762   0.582   1.606   1.607  0.8929 -2.6362  0.7673
  255SOL     OW  763   0.664   0.002   1.541 -0.3087 -0.5183  0.3974
  255SOL    HW1  764   0.763   3.080   1.568  0.1008 -0.6668  0.8108
  255SOL    HW2  765   0.610   3.035   1.610  2.1131  0.5515  1.6357
  256SOL     OW  766   0.051   2.441   0.730 -0.0518 -0.3595 -0.6061
  256SOL    HW1  767   3.032   2.452   0.748 -0.8930 -0.4940 -0.5722
  256SOL    HW2  768   0.107   2.402   0.808  3.6665  3.2868  3.9885
  257SOL     OW  769   0.520   2.527   2.197  0.1143  0.1985 -0.1600
  257SOL    HW1  770   0.596   2.510   2.139 -4.5017  1.8330 -0.1767
  257SOL    HW2  771   0.546   2.529   2.297 -0.8412 -2.0638  0.7285
  258SOL     OW  772   1.344   1.607   2.169 -0.4100 -0.0164 -0.5010
  258SOL    HW1  773   1.437   1.607   2.130 -0.5593  1.5378  0.5077
  258SOL    HW2  774   1.275   1.627   2.097 -2.3154  0.3265  0.6656
  259SOL     OW  775   1.046   1.094   1.933  0.1425 -0.3344  1.2169
  259SOL    HW1  776   0.951   1.066   1.944  0.2783  0.1575  1.4876
  259SOL    HW2  777   1.053   1.174   1.880  0.8130 -1.5962  3.4454
  260SOL     OW  778   2.038   0.690   2.189 -0.5885  0.4061  0.2425
  260SOL    HW1  779   2.027   0.654   2.095  0.0430 -0.3187  1.8583
  260SOL    HW2  780   1.961   0.653   2.248  1.3451 -0.6633 -0.8647
  261SOL     OW  781   0.824   1.336   0.750  0.5196  0.1657  0.4015
  261SOL    HW1  782   0.743   1.285   0.786  2.0624 -1.0967 -0.5337
  261SOL    HW2  783   0.862   1.286   0.672  0.0287 -0.6232  3.3963
  262SOL     OW  784   2.052   2.090   2.593 -0.2447 -0.3465 -0.1053
  262SOL    HW1  785   2.154   2.078   2.589  0.9119  3.8005  1.2489
  262SOL    HW2  786   2.026   2.102   2.690 -1.8882 -3.6269 -1.2191
  263SOL     OW  787   1.066   2.387   1.022 -0.3628  0.0895 -0.6209
  263SOL    HW1  788   0.994   2.403   1.096  0.2843 -1.3070 -0.9445
  263SOL    HW2  789   1.102   2.294   1.035 -0.9479  1.0395  1.6051
  264SOL     OW  790   0.056   2.090   0.300 -0.6537  0.0092  0.2458
  264SOL    HW1  791   0.075   2.119   0.399  0.6403  0.2592  4.3743
  264SOL    HW2  792   0.103   2.150   0.232  1.3181  3.2741  0.1614
  265SOL     OW  793   1.196   1.243   2.731 -0.2732 -0.1693  0.3247
  265SOL    HW1  794   1.171   1.195   2.645  0.7875 -0.1023  2.7493
  265SOL    HW2  795   1.133   1.322   2.747 -2.3723 -0.7301 -1.2261
  266SOL     OW  796   1.154   1.890   2.046  0.0160 -0.2199  0.2399
  266SOL    HW1  797   1.221   1.959   2.082  0.3201 -0.0295 -1.0165
  266SOL    HW2  798   1.140   1.886   1.938  0.0940 -2.2300 -1.2849
  267SOL     OW  799   2.236   1.107   2.724  0.4155 -0.1214  0.0871
  267SOL    HW1  800   2.321   1.117   2.779  0.0653  0.1499 -0.6028
  267SOL    HW2  801   2.216   1.197   2.673 -0.9779  1.0855 -1.9847
  268SOL     OW  802   0.928   1.154   2.988  0.3271  0.0974 -0.3673
  268SOL    HW1  803   0.849   1.121   3.049  0.4770 -1.6719  3.6838
  268SOL    HW2  804   0.899   1.186   2.896 -3.4424  0.7346  0.2104
  269SOL     OW  805   2.805   1.670   2.405  0.8174 -0.2399  0.2694
  269SOL    HW1  806   2.726   1.738   2.398  0.4297  0.9490 -0.8734
  269SOL    HW2  807   2.830   1.653   2.503  0.2267  0.0540 -0.6620
  270SOL     OW  808   0.388   2.264   2.868 -0.2421 -0.6999  0.2591
  270SOL    HW1  809   0.347   2.234   2.778 -2.2861 -1.4234 -0.6631
  270SOL    HW2  810   0.464   2.334   2.856 -0.7214  2.1972 -2.1818
  271SOL     OW  811   0.394   0.415   0.280 -0.0226  0.3258  0.5939
  271SOL    HW1  812   0.330   0.341   0.307  1.0015 -1.4482  1.4694
  271SOL    HW2  813   0.351   0.460   0.195 -2.7376  0.1112 -2.6570
  272SOL     OW  814   3.054   2.979   0.332  0.1308 -0.4331  0.5457
  272SOL    HW1  815   3.074   3.075   0.292 -0.4344  1.5320 -1.4153
  272SOL    HW2  816   0.028   2.906   0.286 -1.6342 -1.5798  0.2351
  273SOL     OW  817   0.277   2.976   1.796 -0.1305  0.3087  0.1973
  273SOL    HW1  818   0.185   2.937   1.819  0.9477  0.3433  1.1341
  273SOL    HW2  819   0.273   3.073   1.762  0.3115  0.8828 -0.4598
  274SOL     OW  820   0.056   0.769   1.185  0.1134  0.0366 -0.4713
  274SOL    HW1  821   3.062   0.740   1.122  0.2092  1.8053  1.4345
  274SOL    HW2  822   0.092   0.693   1.242 -2.7332 -0.6706 -0.9025
  275SOL     OW  823   0.830   1.502   0.974 -0.3784  0.0859  0.3211
  275SOL    HW1  824   0.827   1.450   0.886  0.4121 -0.8846  0.4448
  275SOL    HW2  825   0.753   1.474   1.037  3.7068  0.9840  0.5056
  276SOL     OW  826   0.490   1.065   1.876 -0.0015 -0.1932 -0.0768
  276SOL    HW1  827   0.496   1.091   1.975 -0.7376  0.9333  2.0801
  276SOL    HW2  828   0.519   1.149   1.819  0.6227  1.6966  0.4984
  277SOL     OW  829   1.384   1.951   1.704 -0.4680 -0.1767  0.1765
  277SOL    HW1  830   1.440   1.985   1.788  2.0786 -0.3725  0.0829
  277SOL    HW2  831   1.288   1.983   1.712  0.9882 -1.9529  0.1227
  278SOL     OW  832   2.518   2.702   2.100 -0.1314  0.1934  0.0435
  278SOL    HW1  833   2.474   2.789   2.067  1.7489 -1.5942  0.7704
  278SOL    HW2  834   2.448   2.642   2.144 -0.3592 -0.3916  0.7387
  279SOL     OW  835   1.235   1.688   2.907 -0.0942  0.2625 -0.3428
  279SOL    HW1  836   1.332   1.668   2.872  1.6552 -0.7934 -0.5868
  279SOL    HW2  837   1.227   1.773   2.957  0.4146 -3.2019 -1.3324
  280SOL     OW  838   1.282   0.345   0.406  0.1732  0.2536 -0.1295
  280SOL    HW1  839   1.368   0.311   0.452 -2.1878  3.3395  1.0030
  280SOL    HW2  840   1.290   0.444   0.380 -0.2627  1.4815  1.3099
  281SOL     OW  841   0.647   0.530   1.264  0.6312 -0.6765  0.2994
  281SOL    HW1  842   0.604   0.620   1.286  0.0055  3.0635 -0.2700
  281SOL    HW2  843   0.617   0.455   1.326  2.1914  0.0415 -0.8436
  282SOL     OW  844   0.031   2.663   0.563 -0.1843  0.3334  0.0387
  282SOL    HW1  845   0.072   2.589   0.623  0.1337 -0.2165  2.4120
  282SOL    HW2  846   0.032   2.631   0.467  1.4791 -0.7956  1.2816
  283SOL     OW  847   1.471   1.926   1.468  0.0670  0.0271  0.3546
  283SOL    HW1  848   1.387   1.908   1.414  0.7991  0.7422  2.1092
  283SOL    HW2  849   1.450   1.923   1.568  0.8031 -0.6592 -2.1572
  284SOL     OW  850   2.882   2.678   1.438 -0.1427  0.2834 -0.3803
  284SOL    HW1  851   2.962   2.729   1.408  0.5950  0.0511 -1.8815
  284SOL    HW2  852   2.871   2.589   1.387 -1.0285 -1.5813 -0.2612
  285SOL     OW  853   0.461   2.390   0.667 -0.3810  0.0454 -0.6024
  285SOL    HW1  854   0.555   2.355   0.664 -0.1732  0.9517  5.1316
  285SOL    HW2  855   0.397   2.311   0.689 -0.6050 -0.6667  0.9595
  286SOL     OW  856   0.497   2.935   1.193 -0.7739 -0.1624 -0.1793
  286SOL    HW1  857   0.508   3.038   1.206  0.8831  1.3175 -0.9543
  286SOL    HW2  858   0.404   2.915   1.157  1.1565 -1.0965  2.5921
  287SOL     OW  859   0.598   1.215   0.833  0.3319  0.3068  0.6465
  287SOL    HW1  860   0.551   1.240   0.744  2.5045  0.7647  1.1867
  287SOL    HW2  861   0.562   1.124   0.871  1.3817 -0.1672  0.8981
  288SOL     OW  862   1.288   1.935   2.515 -0.2627  0.2350 -0.3442
  288SOL    HW1  863   1.352   1.928   2.596  1.1694 -0.3606  4.4871
  288SOL    HW2  864   1.322   1.877   2.435 -0.2807 -0.0975 -3.6267
  289SOL     OW  865   2.430   1.566   0.125 -0.2014  0.4764 -0.3030
  289SOL    HW1  866   2.365   1.612   0.187  0.7660 -1.7010 -0.6849
  289SOL    HW2  867   2.525   1.598   0.151  1.0063 -0.0665 -0.7589
  290SOL     OW  868   1.327   1.297   1.027  0.3691  0.1026 -0.0262
  290SOL    HW1  869   1.360   1.371   1.084 -2.5077 -1.2983 -2.9007
  290SOL    HW2  870   1.259   1.235   1.067 -0.8259 -1.1364  1.0286
  291SOL     OW  871   1.115   0.984   2.952 -0.8148 -0.7795  0.4801
  291SOL    HW1  872   1.204   1.039   2.942  0.6345  0.0107  0.1886
  291SOL    HW2  873   1.034   1.046   2.968 -3.9008 -0.8783  0.5001
  292SOL     OW  874   1.278   1.812   0.357 -0.1012  0.1239 -0.5493
  292SOL    HW1  875   1.302   1.885   0.425  0.8155  1.5662 -0.5986
  292SOL    HW2  876   1.284   1.719   0.396 -0.1523 -0.1194  1.7134
  293SOL     OW  877   1.437   3.002   1.086 -0.6190  0.0006 -0.0244
  293SOL    HW1  878   1.495   2.963   1.157  0.1808  0.7794 -0.9826
  293SOL    HW2  879   1.342   3.015   1.113  1.3391  1.8233  0.1212
  294SOL     OW  880   2.009   0.928   0.078  0.6113  0.1752  0.1423
  294SOL    HW1  881   1.914   0.969   0.088 -1.0673  0.1069 -1.4364
  294SOL    HW2  882   2.078   1.005   0.066 -0.1406  2.3884 -1.7830
  295SOL     OW  883   1.790   1.802   2.944 -0.3573  0.5028 -0.1945
  295SOL    HW1  884   1.731   1.722   2.982 -0.0472 -0.9999 -0.9458
  295SOL    HW2  885   1.792   1.807   2.841  2.6465  2.3786 -0.2268
  296SOL     OW  886   1.757   1.319   1.294  0.0810  0.3852 -0.3411
  296SOL    HW1  887   1.734   1.316   1.195  3.4223  1.6596  0.5967
  296SOL    HW2  888   1.705   1.243   1.342 -0.1128 -3.4100 -2.9018
  297SOL     OW  889   0.187   0.834   2.387 -0.2575 -0.6078  0.1695
  297SOL    HW1  890   0.153   0.769   2.317 -0.0800 -0.3555 -1.0035
  297SOL    HW2  891   0.130   0.826   2.474 -0.5418  2.1141 -0.2574
  298SOL     OW  892   1.529   2.234   1.508 -0.3699  0.2448 -0.3381
  298SOL    HW1  893   1.517   2.137   1.483 -1.2084  0.5887  2.3662
  298SOL    HW2  894   1.501   2.249   1.609  1.0545  0.0883  0.1491
  299SOL     OW  895   1.072   0.342   2.347 -0.1594  0.0994 -0.0713
  299SOL    HW1  896   1.164   0.296   2.365  1.8738 -0.6487  1.8927
  299SOL    HW2  897   0.995   0.274   2.345 -2.9577  1.2903  0.0848
  300SOL     OW  898   2.538   1.980   0.492 -0.2391  0.0129  0.4190
  300SOL    HW1  899   2.595   2.061   0.457  2.5040 -0.7010  0.3183
  300SOL    HW2  900   2.480   1.944   0.420  3.7613  0.4271  0.3019
  301SOL     OW  901   2.328   0.436   2.571  0.9556 -0.2053  0.2675
  301SOL    HW1  902   2.311   0.538   2.576 -0.4628  1.5001 -0.0426
  301SOL    HW2  903   2.381   0.404   2.652  0.8486 -2.2646 -0.2916
  302SOL     OW  904   2.317   2.031   2.560  0.0889  0.2288  0.4712
  302SOL    HW1  905   2.378   1.967   2.616 -0.5637  0.1936  2.8216
  302SOL    HW2  906   2.362   2.119   2.541  2.4690  0.1199 -1.2699
  303SOL     OW  907   0.281   2.638   2.271 -0.2923  0.2761  0.2572
  303SOL    HW1  908   0.361   2.587   2.235 -1.1934  0.4491 -1.4854
  303SOL    HW2  909   0.285   2.663   2.370 -0.2717 -0.6037 -0.7151
  304SOL     OW  910   0.011   1.622   1.398  0.2904 -0.1995 -0.1210
  304SOL    HW1  911   0.072   1.544   1.406 -2.5562  1.0646  0.4178
  304SOL    HW2  912   0.057   1.715   1.399  0.0484 -0.3127  0.2373
  305SOL     OW  913   0.160   0.418   2.018  0.1476  0.0281 -0.0275
  305SOL    HW1  914   0.261   0.426   2.017 -2.3659 -1.7417 -4.0887
  305SOL    HW2  915   0.133   0.321   2.013 -0.2922  0.0412 -0.5790
  306SOL     OW  916   1.057   1.526   0.393  0.0253  0.0473 -0.2782
  306SOL    HW1  917   1.072   1.618   0.360 -1.4607  1.9720  1.1464
  306SOL    HW2  918   1.112   1.458   0.344  0.8380  3.5729 -1.1700
  307SOL     OW  919   0.039   2.972   0.616  0.0078 -0.2695 -0.4308
  307SOL    HW1  920   0.139   2.978   0.629  2.2804 -3.2458  0.0446
  307SOL    HW2  921   0.016   2.954   0.522 -3.4282  0.2777  2.2635
  308SOL     OW  922   2.998   1.069   2.378  0.3870  0.6172 -0.6202
  308SOL    HW1  923   3.043   1.044   2.466  0.2728  0.7416  2.3822
  308SOL    HW2  924   3.055   1.052   2.295  0.1168  1.7840 -0.9146
  309SOL     OW  925   2.863   1.702   2.678 -0.0444  0.2452  0.5543
  309SOL    HW1  926   2.808   1.657   2.754  0.9051 -0.5012  1.4202
  309SOL    HW2  927   2.861   1.804   2.691 -0.4741 -4.1347  2.4864
  310SOL     OW  928   2.216   0.539   0.252  0.3623  0.1672  0.2924
  310SOL    HW1  929   2.260   0.631   0.233 -0.3431 -0.7413  2.6786
  310SOL    HW2  930   2.127   0.530   0.216  3.7482  3.5792  2.3124
  311SOL     OW  931   1.962   0.665   0.065  0.4999 -0.1137 -0.5410
  311SOL    HW1  932   1.977   0.760   0.046 -1.0934 -1.3356 -0.2422
  311SOL    HW2  933   2.015   0.602   0.005  2.5340 -1.2457  1.7273
  312SOL     OW  934   1.093   1.621   2.484 -0.3896 -0.0658 -0.9503
  312SOL    HW1  935   1.086   1.624   2.587  2.1478  1.0007 -5.2700
  312SOL    HW2  936   1.158   1.545   2.456 -0.1014 -1.4919  0.9889
  313SOL     OW  937   0.088   0.628   0.487  0.0458 -0.1778 -0.3056
  313SOL    HW1  938   0.085   0.642   0.384  0.5339  1.2543 -0.3473
  313SOL    HW2  939   0.058   0.532   0.510 -1.3857 -1.4334  0.6045
  314SOL     OW  940   0.411   1.643   1.291 -0.2752  0.1996 -0.2830
  314SOL    HW1  941   0.355   1.590   1.364 -1.4551 -0.7786  1.3809
  314SOL    HW2  942   0.509   1.641   1.318 -0.8986 -0.4655  0.2403
  315SOL     OW  943   0.841   1.646   1.751  0.0209 -0.2916  0.1163
  315SOL    HW1  944   0.840   1.550   1.790 -0.3062  1.4793  0.8085
  315SOL    HW2  945   0.745   1.688   1.750 -1.2709  1.5943  0.7883
  316SOL     OW  946   0.293   2.178   0.688  0.5603 -0.0869  0.4219
  316SOL    HW1  947   0.204   2.186   0.636  1.7512 -0.3461 -1.0577
  316SOL    HW2  948   0.370   2.138   0.627  0.3822  0.6725 -0.4703
  317SOL     OW  949   2.463   0.226   1.126  0.0160 -0.6432  0.0975
  317SOL    HW1  950   2.424   0.275   1.046 -2.6627 -1.2294 -2.4475
  317SOL    HW2  951   2.561   0.254   1.142  2.2666  0.6147  0.8062
  318SOL     OW  952   1.552   2.910   0.282  0.2927  0.3379 -0.0453
  318SOL    HW1  953   1.455   2.948   0.273 -0.3351 -0.2066 -0.7944
  318SOL    HW2  954   1.554   2.820   0.232  0.8953  0.0636 -0.3535
  319SOL     OW  955   1.592   0.489   2.562 -0.0372  0.1778  0.1069
  319SOL    HW1  956   1.610   0.427   2.643  2.4717 -0.2256 -3.0190
  319SOL    HW2  957   1.657   0.563   2.562 -1.6885 -1.8686  0.2168
  320SOL     OW  958   2.967   1.946   1.829 -0.0248 -0.0255  0.3164
  320SOL    HW1  959   2.874   1.917   1.791 -0.1931 -0.9289  0.4725
  320SOL    HW2  960   3.018   1.857   1.852  1.1686 -2.3038  0.1275
  321SOL     OW  961   0.057   2.444   2.964 -0.5802 -0.1565 -0.0700
  321SOL    HW1  962   3.074   2.439   3.044  0.2459  0.8198 -0.6510
  321SOL    HW2  963   0.019   2.385   2.884 -0.7909 -0.7716 -3.6485
  322SOL     OW  964   2.621   0.734   2.318 -0.5253  0.0483  0.6283
  322SOL    HW1  965   2.541   0.739   2.256 -1.7109  2.4566  2.2534
  322SOL    HW2  966   2.676   0.649   2.307  1.0785  2.7061 -0.2385
  323SOL     OW  967   1.943   1.222   0.680 -0.2330 -0.4158  0.2830
  323SOL    HW1  968   1.975   1.160   0.751 -0.5654  0.3533 -2.0394
  323SOL    HW2  969   1.877   1.178   0.616 -0.4051  1.0692  1.1638
  324SOL     OW  970   0.164   0.202   1.283 -0.0294  0.6507 -0.5423
  324SOL    HW1  971   0.251   0.198   1.337 -0.7884 -1.9206 -0.2347
  324SOL    HW2  972   0.161   0.280   1.222 -1.5613  1.1910  0.6173
  325SOL     OW  973   2.768   3.059   1.827 -0.0869  0.3126  0.1800
  325SOL    HW1  974   2.823   0.061   1.833 -1.9336 -0.1378  0.8150
  325SOL    HW2  975   2.670   3.079   1.823 -0.2800 -0.1524 -4.4454
  326SOL     OW  976   1.510   2.662   0.183  0.1207  0.3893  0.2664
  326SOL    HW1  977   1.559   2.586   0.230 -0.7573  0.4242 -3.5088
  326SOL    HW2  978   1.547   2.674   0.085  2.5888 -0.0396  0.3060
  327SOL     OW  979   1.813   2.043   0.308  0.0186  0.1592  0.5271
  327SOL    HW1  980   1.744   2.111   0.341 -0.3347 -2.8155  1.4330
  327SOL    HW2  981   1.791   2.016   0.214  0.5773 -0.2194  0.8673
  328SOL     OW  982   3.049   2.206   1.894  0.2850 -0.3003 -0.3077
  328SOL    HW1  983   3.021   2.113   1.869  0.5050 -0.7411  2.0522
  328SOL    HW2  984   2.995   2.282   1.847 -0.5936  4.5501 -0.1326
  329SOL     OW  985   0.026   2.388   1.226  0.2264  0.5287 -0.6498
  329SOL    HW1  986   3.015   2.437   1.212  0.0377  2.6908 -0.2770
  329SOL    HW2  987   0.021   2.288   1.219  1.9843 -1.0016 -0.3531
  330SOL     OW  988   2.129   0.839   2.776  0.1009  0.2143 -0.4482
  330SOL    HW1  989   2.192   0.780   2.721 -0.1771  1.2712 -0.5219
  330SOL    HW2  990   2.119   0.937   2.745 -0.2918 -1.4208 -0.5163
  331SOL     OW  991   2.233   1.592   0.975 -0.3244  0.1039  0.3684
  331SOL    HW1  992   2.160   1.572   0.903 -2.4886 -3.0551 -1.1545
  331SOL    HW2  993   2.283   1.677   0.957 -0.2753 -0.3273  1.7066
  332SOL     OW  994   0.388   2.561   1.019  0.0315 -0.0722 -0.1592
  332SOL    HW1  995   0.381   2.587   0.918 -2.4315  1.7925 -3.4162
  332SOL    HW2  996   0.463   2.609   1.070 -3.5032 -1.4183 -3.2156
  333SOL     OW  997   3.034   1.793   2.304 -0.3655 -0.2143 -0.0422
  333SOL    HW1  998   0.043   1.751   2.318 -0.4253  1.1573 -1.1982
  333SOL    HW2  999   2.959   1.742   2.356 -1.2467 -0.6402 -0.2065
  334SOL     OW 1000   0.643   0.840   1.038 -0.0152  0.0619  0.1874
  334SOL    HW1 1001   0.573   0.895   0.985  0.0503 -1.9948 -1.8340
  334SOL    HW2 1002   0.601   0.790   1.120 -1.3566 -1.1088 -2.2959
  335SOL     OW 1003   0.109   1.462   2.208  0.1236 -0.6008  0.6811
  335SOL    HW1 1004   0.144   1.521   2.279 -0.3404  0.9948 -2.0311
  335SOL    HW2 1005   0.140   1.369   2.224 -0.9329  1.9520  0.8603
  336SOL     OW 1006   2.136   3.018   2.160 -0.2608 -0.3625  0.2338
  336SOL    HW1 1007   2.099   2.973   2.244  0.2810  1.9056  0.4141
  336SOL    HW2 1008   2.088   0.027   2.154 -0.8432 -1.9812 -0.1895
  337SOL     OW 1009   0.953   0.853   1.173  0.0325  0.6732 -0.0959
  337SOL    HW1 1010   0.929   0.923   1.247  0.8011 -0.8388  1.0162
  337SOL    HW2 1011   0.877   0.839   1.105 -3.2376 -0.1533  1.0148
  338SOL     OW 1012   1.518   1.981   1.149 -0.3622  1.0458  0.0459
  338SOL    HW1 1013   1.548   2.080   1.133  0.2676  1.4155 -0.3458
  338SOL    HW2 1014   1.556   1.950   1.238  1.5686 -2.4935  1.1619
  339SOL     OW 1015   0.259   1.874   1.178 -0.0903  0.7002  0.4492
  339SOL    HW1 1016   0.343   1.817   1.201  1.2909 -1.4046 -2.9155
  339SOL    HW2 1017   0.189   1.871   1.252 -1.4541  0.3269  1.7437
  340SOL     OW 1018   0.697   3.079   1.950 -0.2307 -0.1765 -0.2176
  340SOL    HW1 1019   0.739   3.013   2.021 -1.4062 -0.3749  0.8912
  340SOL    HW2 1020   0.601   3.052   1.930  1.4795 -2.9944  2.7413
  341SOL     OW 1021   1.820   1.477   0.820  0.1105 -0.3854  0.2730
  341SOL    HW1 1022   1.900   1.541   0.804  0.5816 -0.0443 -1.0662
  341SOL    HW2 1023   1.852   1.384   0.791  0.6448  1.6628 -0.6852
  342SOL     OW 1024   1.801   1.298   0.245  0.4533 -0.4031  0.0622
  342SOL    HW1 1025   1.786   1.341   0.156  3.8808 -0.9191  1.2758
  342SOL    HW2 1026   1.775   1.370   0.314 -1.9896  1.8137 -0.1413
  343SOL     OW 1027   2.037   0.149   0.956  0.4633 -0.6134  0.1289
  343SOL    HW1 1028   2.005   0.191   1.044 -2.6096 -0.2611 -0.9208
  343SOL    HW2 1029   2.071   0.058   0.978  0.7730  1.3563  3.4170
  344SOL     OW 1030   2.640   0.508   0.331 -0.0941 -0.0638  0.4858
  344SOL    HW1 1031   2.564   0.476   0.389  1.1024  2.0686  1.0942
  344SOL    HW2 1032   2.710   0.439   0.324 -1.0202  0.0877  0.8788
  345SOL     OW 1033   1.224   2.675   1.632 -0.4797  0.2171  0.0626
  345SOL    HW1 1034   1.262   2.747   1.696 -0.6480 -0.5363  0.8262
  345SOL    HW2 1035   1.166   2.608   1.685 -1.6733 -2.0615 -0.1659
  346SOL     OW 1036   2.420   2.273   1.286  0.0509 -0.2583  0.4959
  346SOL    HW1 1037   2.377   2.359   1.254 -1.3239  0.9829  1.7560
  346SOL    HW2 1038   2.455   2.286   1.383 -1.0779  2.0208  1.7821
  347SOL     OW 1039   2.334   3.014   1.172  1.0007 -1.0573 -0.2845
  347SOL    HW1 1040   2.378   0.026   1.181 -2.3463  3.5233  1.5103
  347SOL    HW2 1041   2.242   3.015   1.120 -2.1739  3.1222 -1.3972
  348SOL     OW 1042   0.882   1.268   1.492  0.4850 -0.0046  0.6281
  348SOL    HW1 1043   0.876   1.180   1.434 -0.3461 -0.9580  2.0333
  348SOL    HW2 1044   0.822   1.334   1.441  1.6253  0.2317 -0.7826
  349SOL     OW 1045   2.391   0.515   2.997  0.5266 -0.8524 -0.6280
  349SOL    HW1 1046   2.435   0.557   2.916 -3.3580  2.6265  1.0107
  349SOL    HW2 1047   2.450   0.522   3.078 -1.2427 -0.5889 -1.9917
  350SOL     OW 1048   1.956   2.103   2.854  0.6681 -0.1439  0.1791
  350SOL    HW1 1049   1.924   2.186   2.905  2.1953  0.0578  2.7366
  350SOL    HW2 1050   2.025   2.047   2.904 -0.2426 -0.9363  0.2120
  351SOL     OW 1051   1.216   0.231   0.671 -0.4105  0.4176 -0.4362
  351SOL    HW1 1052   1.248   0.251   0.576 -1.1182  3.2358 -1.9212
  351SOL    HW2 1053   1.274   0.304   0.722  0.8940 -0.8163 -0.4354
  352SOL     OW 1054   1.671   2.088   2.779  0.3322 -0.1253 -0.4670
  352SOL    HW1 1055   1.653   2.156   2.703  1.1000  1.9674 -2.1316
  352SOL    HW2 1056   1.774   2.069   2.783  1.6475 -0.8179 -0.2003
  353SOL     OW 1057   0.341   0.748   3.007 -0.3513  0.2634  0.5449
  353SOL    HW1 1058   0.295   0.773   2.919 -3.2760  0.7779 -0.1705
  353SOL    HW2 1059   0.370   0.831   3.055 -1.2906 -1.0115  3.4935
  354SOL     OW 1060   0.894   2.376   2.543 -0.8793 -0.2027  1.0738
  354SOL    HW1 1061   0.881   2.304   2.472  2.1968  0.2640 -2.5866
  354SOL    HW2 1062   0.852   2.356   2.635 -1.5308 -0.9050  1.7355
  355SOL     OW 1063   2.841   2.643   1.705  0.1721 -0.7304 -0.0190
  355SOL    HW1 1064   2.845   2.713   1.778  0.2617 -1.6074  0.6799
  355SOL    HW2 1065   2.880   2.666   1.614 -0.4446  0.8878  0.0933
  356SOL     OW 1066   2.468   1.126   1.061 -0.2207  0.3726 -0.7668
  356SOL    HW1 1067   2.391   1.195   1.068 -1.5745 -0.9730  2.2661
  356SOL    HW2 1068   2.437   1.052   1.013  1.0399  1.9564  4.8837
  357SOL     OW 1069   2.727   0.261   1.140 -0.4263 -0.0319 -0.0342
  357SOL    HW1 1070   2.748   0.186   1.200  0.2237  2.9811 -2.7649
  357SOL    HW2 1071   2.787   0.259   1.056  0.2263 -1.0558 -3.1623
  358SOL     OW 1072   1.132   2.169   1.494  0.0736 -0.2320 -0.1327
  358SOL    HW1 1073   1.175   2.225   1.420 -0.7312  0.7808 -1.0888
  358SOL    HW2 1074   1.164   2.189   1.589 -1.0558 -1.1368 -3.2022
  359SOL     OW 1075   2.993   2.672   2.594  0.2018  0.0652 -0.2238
  359SOL    HW1 1076   0.002   2.665   2.639  1.1398 -0.0055 -2.1805
  359SOL    HW2 1077   3.001   2.666   2.493  1.4555 -0.2496  1.7285
  360SOL     OW 1078   1.238   0.911   1.568  0.3032  0.1524 -0.0842
  360SOL    HW1 1079   1.201   0.897   1.663 -0.3651 -0.4869  0.3996
  360SOL    HW2 1080   1.251   0.821   1.522 -2.0570 -0.0007 -0.8339
  361SOL     OW 1081   2.541   0.312   0.521  0.2458  0.1671  0.1039
  361SOL    HW1 1082   2.598   0.241   0.570  0.7185  1.0489 -0.3045
  361SOL    HW2 1083   2.446   0.270   0.490 -2.1424  0.0306 -1.5944
  362SOL     OW 1084   0.434   0.091   0.513  0.4563  0.3310 -0.2440
  362SOL    HW1 1085   0.521   0.055   0.469  0.2532 -1.4342 -1.6863
  362SOL    HW2 1086   0.452   0.146   0.596 -1.0128 -0.7555 -0.1433
  363SOL     OW 1087   0.785   1.441   0.383 -0.3295  0.4289  0.7887
  363SOL    HW1 1088   0.771   1.361   0.439 -1.0566  1.6306  0.6508
  363SOL    HW2 1089   0.885   1.462   0.365  0.5138  1.7389 -1.0830
  364SOL     OW 1090   0.676   0.874   1.507  0.3587 -0.4540 -0.0986
  364SOL    HW1 1091   0.679   0.773   1.504 -2.1573  2.9494  0.5929
  364SOL    HW2 1092   0.583   0.921   1.506 -0.1394  1.5318  0.0721
  365SOL     OW 1093   2.822   1.171   0.575  0.6424  0.2766 -0.0223
  365SOL    HW1 1094   2.777   1.122   0.650 -0.1626  0.7604 -2.4601
  365SOL    HW2 1095   2.921   1.184   0.592  1.6634 -3.6326 -0.5689
  366SOL     OW 1096   2.695   1.535   0.502  0.3976  0.0311  0.2999
  366SOL    HW1 1097   2.658   1.441   0.485 -0.4598 -0.5715 -0.0639
  366SOL    HW2 1098   2.793   1.535   0.475  2.5043  0.6806  2.2490
  367SOL     OW 1099   2.287   1.770   2.279  0.1957  0.3180 -0.1037
  367SOL    HW1 1100   2.306   1.858   2.322 -2.0377  1.5457 -1.7566
  367SOL    HW2 1101   2.191   1.738   2.302 -0.5570 -1.6000  0.2713
  368SOL     OW 1102   2.643   1.714   0.973  0.3522 -0.1631  0.1872
  368SOL    HW1 1103   2.731   1.672   0.954 -1.9751 -0.2544 -0.8830
  368SOL    HW2 1104   2.580   1.638   0.998  1.7536 -1.3415  1.9918
  369SOL     OW 1105   2.225   2.352   2.768 -0.6813  0.2712  0.1573
  369SOL    HW1 1106   2.279   2.281   2.821  3.1486 -1.8720 -1.1820
  369SOL    HW2 1107   2.130   2.351   2.804  1.4304 -0.2293 -1.6452
  370SOL     OW 1108   0.031   3.054   1.168  0.1723 -0.5164 -0.7102
  370SOL    HW1 1109   0.087   0.043   1.213  0.3780  0.5250  0.9344
  370SOL    HW2 1110   0.056   3.034   1.074 -2.1364  3.0634  2.4706
  371SOL     OW 1111   0.679   1.882   3.053  0.2092 -0.1962  0.1860
  371SOL    HW1 1112   0.744   1.845   0.041 -0.0648  0.7095 -2.0875
  371SOL    HW2 1113   0.578   1.869   0.004  0.4921 -1.2474  1.2373
  372SOL     OW 1114   1.063   1.000   0.188  0.0487  0.1577  0.1395
  372SOL    HW1 1115   1.036   0.949   0.273 -0.2138 -1.6243  0.4351
  372SOL    HW2 1116   0.996   0.972   0.116  1.2341  1.2223  3.4736
  373SOL     OW 1117   1.622   2.581   2.510  0.5175 -0.4269 -0.4476
  373SOL    HW1 1118   1.690   2.510   2.534 -3.8041 -0.1491 -0.7799
  373SOL    HW2 1119   1.551   2.593   2.583  1.8325  1.8711 -1.5557
  374SOL     OW 1120   0.193   2.401   0.326  0.0979  0.1244  0.0391
  374SOL    HW1 1121   0.201   2.352   0.235 -0.0040  0.5056 -0.9631
  374SOL    HW2 1122   0.283   2.410   0.373  0.8635  0.2635  0.4413
  375SOL     OW 1123   0.565   1.308   1.756 -0.1776  0.1101 -1.0424
  375SOL    HW1 1124   0.530   1.394   1.711  1.2059 -1.7531  0.0550
  375SOL    HW2 1125   0.667   1.301   1.751 -2.8278  0.6474  0.1533
  376SOL     OW 1126   0.524   2.457   1.878  0.0197 -0.7525 -0.1352
  376SOL    HW1 1127   0.518   2.514   1.792 -1.5447  3.2243 -0.5954
  376SOL    HW2 1128   0.434   2.418   1.902 -0.9320 -0.9663 -0.4171
  377SOL     OW 1129   2.768   1.402   2.309 -0.2359 -0.3232 -0.0935
  377SOL    HW1 1130   2.789   1.502   2.309  0.2765 -1.2501 -0.4201
  377SOL    HW2 1131   2.819   1.355   2.382 -2.2032 -1.1857 -2.5469
  378SOL     OW 1132   1.283   2.999   0.154 -0.2486 -0.2651 -0.0693
  378SOL    HW1 1133   1.325   3.023   0.067 -0.8724 -0.4152  3.3102
  378SOL    HW2 1134   1.226   2.914   0.142  0.5070  0.4980  2.7081
  379SOL     OW 1135   1.836   0.469   0.593 -0.4536  0.3108  0.0950
  379SOL    HW1 1136   1.806   0.491   0.500 -0.3434 -0.7247  3.1154
  379SOL    HW2 1137   1.937   0.456   0.589 -0.5219 -1.7355  0.6696
  380SOL     OW 1138   0.061   1.890   1.452  0.1549  0.0424  0.7581
  380SOL    HW1 1139   0.105   1.879   1.546 -1.5149  0.1438  1.1058
  380SOL    HW2 1140   3.048   1.925   1.455  0.4304 -0.8948  1.2703
  381SOL     OW 1141   2.044   1.645   2.341 -0.0818 -0.0432  0.3837
  381SOL    HW1 1142   2.023   1.624   2.437  1.2749 -0.3880 -0.1800
  381SOL    HW2 1143   2.039   1.557   2.286  2.9097 -0.9593 -0.7829
  382SOL     OW 1144   3.073   0.307   2.691  0.5927 -0.1683 -0.0572
  382SOL    HW1 1145   3.046   0.210   2.691 -1.3828 -0.7969 -0.2543
  382SOL    HW2 1146   0.013   0.329   2.594 -1.5071  0.3343 -2.1385
  383SOL     OW 1147   1.433   1.379   2.787  0.1521 -0.0907 -0.1427
  383SOL    HW1 1148   1.508   1.316   2.812 -0.8824 -1.1021 -0.4723
  383SOL    HW2 1149   1.342   1.334   2.766 -0.0547 -0.7824  2.6511
  384SOL     OW 1150   1.295   1.826   1.275  0.3030  0.2965 -0.1349
  384SOL    HW1 1151   1.353   1.782   1.201  2.2024 -0.8209 -0.2754
  384SOL    HW2 1152   1.208   1.872   1.240 -0.8230  0.1982  0.7952
  385SOL     OW 1153   1.713   2.457   0.982  0.4438 -0.1972  0.0821
  385SOL    HW1 1154   1.811   2.449   1.010 -0.4069 -2.4066 -1.7586
  385SOL    HW2 1155   1.683   2.554   0.976  0.6516 -1.5519  0.3131
  386SOL     OW 1156   1.840   1.950   1.097 -0.2159 -0.5144  0.4231
  386SOL    HW1 1157   1.799   1.873   1.148  1.8208 -1.7537  3.9039
  386SOL    HW2 1158   1.781   2.032   1.110 -0.0002 -3.3485  0.2020
  387SOL     OW 1159   0.193   2.123   1.490  0.0763  0.1073  0.1559
  387SOL    HW1 1160   0.134   2.047   1.460 -0.2324  0.3631  2.8125
  387SOL    HW2 1161   0.248   2.089   1.568 -1.0866  1.9198 -0.5093
  388SOL     OW 1162   2.877   0.555   1.665 -0.6831  0.1942  0.0807
  388SOL    HW1 1163   2.889   0.654   1.638 -1.0439  0.1644 -0.7331
  388SOL    HW2 1164   2.791   0.550   1.722 -1.6445  3.0016 -1.2018
  389SOL     OW 1165   1.721   0.903   0.368  0.2361 -0.6302  0.5262
  389SOL    HW1 1166   1.812   0.858   0.367  0.5246  1.9227 -0.5246
  389SOL    HW2 1167   1.646   0.837   0.392  0.4888  0.2664  0.6139
  390SOL     OW 1168   1.018   1.972   2.552 -0.0108 -0.2253 -0.2379
  390SOL    HW1 1169   0.970   2.053   2.507 -2.4227  2.0216  1.7648
  390SOL    HW2 1170   1.112   1.945   2.522 -0.2165 -0.8428  0.4319
  391SOL     OW 1171   0.671   2.225   2.673 -0.2970 -0.4349 -0.8519
  391SOL    HW1 1172   0.632   2.317   2.691  1.8665 -0.2749  1.5646
  391SOL    HW2 1173   0.644   2.207   2.577 -0.5688  1.0065 -1.0025
  392SOL     OW 1174   3.050   2.879   1.611 -0.5029  0.1350  0.5371
  392SOL    HW1 1175   2.983   2.957   1.590 -0.4381 -0.0880  0.6102
  392SOL    HW2 1176   3.044   2.849   1.708 -0.5669 -3.0983 -0.7909
  393SOL     OW 1177   1.637   2.412   0.227 -0.1043 -0.0005 -0.2418
  393SOL    HW1 1178   1.734   2.436   0.192  2.2398 -1.4229  1.9956
  393SOL    HW2 1179   1.652   2.346   0.306 -2.3498 -2.4172 -0.1657
  394SOL     OW 1180   0.729   0.451   2.110  0.2872 -0.3860  0.4377
  394SOL    HW1 1181   0.815   0.432   2.056  1.4344  1.5397 -1.9991
  394SOL    HW2 1182   0.668   0.368   2.127  0.1001  0.6422 -0.6477
  395SOL     OW 1183   0.349   1.141   1.341  0.2162  0.2824 -0.2899
  395SOL    HW1 1184   0.311   1.155   1.245  0.5954  1.7976 -2.4768
  395SOL    HW2 1185   0.288   1.192   1.404 -1.5936 -0.9004  1.6346
  396SOL     OW 1186   1.762   1.101   2.396 -0.0547 -0.4370 -0.0233
  396SOL    HW1 1187   1.683   1.143   2.447  1.3713  3.2422  1.1691
  396SOL    HW2 1188   1.818   1.027   2.445 -4.0060 -0.6477 -2.1810
  397SOL     OW 1189   0.831   0.235   3.048 -0.3307  0.4576 -0.2601
  397SOL    HW1 1190   0.836   0.137   3.078  0.9028 -3.6432 -0.2252
  397SOL    HW2 1191   0.735   0.262   3.030 -1.4795 -2.7680 -1.5316
  398SOL     OW 1192   0.624   1.937   2.766 -0.2643  0.2225 -0.1730
  398SOL    HW1 1193   0.631   1.919   2.867  0.0599 -0.0210 -0.8873
  398SOL    HW2 1194   0.626   2.038   2.748  1.1335 -1.0767 -0.6419
  399SOL     OW 1195   2.521   1.592   2.492  0.1941  0.1362  0.1957
  399SOL    HW1 1196   2.494   1.541   2.409  0.5964 -0.2685  1.6900
  399SOL    HW2 1197   2.540   1.692   2.482  0.9820  0.5679 -2.1642
  400SOL     OW 1198   2.352   1.293   1.388 -0.2943 -0.1078  0.4239
  400SOL    HW1 1199   2.393   1.368   1.332  0.8986 -0.7194 -0.4606
  400SOL    HW2 1200   2.292   1.239   1.319 -1.3152 -0.4326  0.5372
  401SOL     OW 1201   1.059   1.790   0.788 -0.6337 -0.2176 -0.1062
  401SOL    HW1 1202   1.023   1.765   0.879  0.6705  0.7494 -0.7201
  401SOL    HW2 1203   1.027   1.727   0.713  1.0788 -1.3905 -0.3579
  402SOL     OW 1204   0.141   2.641   2.042  0.4883  0.3870  0.1155
  402SOL    HW1 1205   0.179   2.638   2.135 -0.1682  0.1840  0.1262
  402SOL    HW2 1206   0.209   2.666   1.973  2.0283  1.1046 -1.7806
  403SOL     OW 1207   0.215   1.286   2.541  0.8131 -0.1406 -0.0355
  403SOL    HW1 1208   0.151   1.366   2.552 -0.6073 -0.1284 -0.7730
  403SOL    HW2 1209   0.210   1.223   2.620  0.5980 -0.4774 -2.9792
  404SOL     OW 1210   2.053   2.191   1.450 -0.7108 -0.4958  0.1488
  404SOL    HW1 1211   2.142   2.199   1.506  0.4566 -0.1774  1.7633
  404SOL    HW2 1212   2.055   2.112   1.381 -1.6905 -2.8370 -0.2766
  405SOL     OW 1213   2.643   0.261   2.732 -0.7873 -0.0553  0.2892
  405SOL    HW1 1214   2.631   0.267   2.631 -2.1456  0.0609 -2.5799
  405SOL    HW2 1215   2.679   0.168   2.761  1.8037 -1.8360  0.1078
  406SOL     OW 1216   0.712   1.089   0.051 -0.2298  0.2049 -0.4138
  406SOL    HW1 1217   0.743   0.992   0.068 -1.3266 -1.1160  0.5832
  406SOL    HW2 1218   0.634   1.086   3.067  0.6967 -0.9273  0.9333
  407SOL     OW 1219   1.916   2.467   2.814 -0.2422  0.0128 -0.3192
  407SOL    HW1 1220   1.841   2.466   2.877 -0.1664 -1.2531 -2.1703
  407SOL    HW2 1221   1.952   2.560   2.794 -1.6713 -1.2675 -0.3161
  408SOL     OW 1222   2.918   2.879   0.048 -0.2533 -0.0535 -0.1858
  408SOL    HW1 1223   2.870   2.808   3.077  1.0680  0.1340 -1.8765
  408SOL    HW2 1224   3.020   2.868   0.051  0.3921  0.8041  2.1079
  409SOL     OW 1225   2.161   1.612   1.246 -0.2164 -0.1106 -0.0628
  409SOL    HW1 1226   2.066   1.586   1.272 -1.4631 -0.1820 -2.1938
  409SOL    HW2 1227   2.169   1.594   1.143  0.0058  1.9727  1.5534
  410SOL     OW 1228   2.568   1.912   0.157  0.2446  0.6929  0.1873
  410SOL    HW1 1229   2.628   1.839   0.117  0.5492 -2.2998 -1.7317
  410SOL    HW2 1230   2.609   2.003   0.132 -0.1575  4.2793  2.0945
  411SOL     OW 1231   0.028   1.178   0.571  0.2496 -0.3583 -0.1304
  411SOL    HW1 1232   0.083   1.261   0.592  1.9848 -0.4678  2.6594
  411SOL    HW2 1233   0.068   1.100   0.623  0.4317  0.0620  1.0719
  412SOL     OW 1234   2.030   2.504   0.418 -0.0802  0.6455 -0.5247
  412SOL    HW1 1235   1.983   2.451   0.343 -1.9819 -0.4482 -0.2378
  412SOL    HW2 1236   2.106   2.451   0.465  0.4416  0.2185 -0.7356
  413SOL     OW 1237   1.761   0.868   2.015  0.3504 -0.2977 -0.0316
  413SOL    HW1 1238   1.723   0.827   2.099  1.1394 -0.7049  1.9331
  413SOL    HW2 1239   1.818   0.804   1.959  2.3268  1.8774  1.4414
  414SOL     OW 1240   2.854   0.346   0.317 -0.2497  0.1861  0.1656
  414SOL    HW1 1241   2.878   0.270   0.381 -1.4407 -1.7893  1.0874
  414SOL    HW2 1242   2.849   0.312   0.221 -1.0728 -0.9014 -0.0113
  415SOL     OW 1243   0.961   1.630   1.456  0.1552 -0.2937 -0.2555
  415SOL    HW1 1244   1.065   1.615   1.458 -0.8569 -1.1353  0.4156
  415SOL    HW2 1245   0.912   1.618   1.546 -0.5817 -0.8171 -0.2905
  416SOL     OW 1246   0.282   0.015   2.836 -0.2944 -0.3544 -0.1809
  416SOL    HW1 1247   0.262   0.105   2.887  2.9835  2.0974  0.7548
  416SOL    HW2 1248   0.204   3.035   2.822  1.0930  0.6299  1.6027
  417SOL     OW 1249   2.622   0.283   0.829 -0.3495 -0.0050  0.0011
  417SOL    HW1 1250   2.578   0.372   0.850  0.5082 -1.1206 -0.5161
  417SOL    HW2 1251   2.718   0.283   0.848 -0.4626  3.3316 -3.2048
  418SOL     OW 1252   0.195   0.562   2.648 -0.1081  0.6258 -0.5252
  418SOL    HW1 1253   0.177   0.477   2.702 -0.4573 -0.1260  0.5283
  418SOL    HW2 1254   0.257   0.544   2.565 -0.2329 -2.2666 -1.1882
  419SOL     OW 1255   0.177   1.246   1.511 -0.2068 -0.0564  0.2953
  419SOL    HW1 1256   0.170   1.194   1.602 -1.1894  1.6952 -2.6562
  419SOL    HW2 1257   0.081   1.249   1.468 -3.1165 -2.2902 -1.7450
  420SOL     OW 1258   0.720   1.763   0.636  0.1117  0.2112 -0.0771
  420SOL    HW1 1259   0.743   1.730   0.544  0.9590  0.5981  3.5047
  420SOL    HW2 1260   0.782   1.715   0.701 -0.9808  0.0822 -3.4808
  421SOL     OW 1261   2.081   2.420   2.437  0.2342  1.1499 -0.0900
  421SOL    HW1 1262   2.102   2.512   2.468 -0.2527 -1.5008 -2.5806
  421SOL    HW2 1263   2.124   2.350   2.494 -0.7150  0.9365 -2.0557
  422SOL     OW 1264   2.916   0.540   2.662 -0.3333  0.5858  0.0228
  422SOL    HW1 1265   2.840   0.526   2.728 -1.3791  3.6056 -0.5485
  422SOL    HW2 1266   2.980   0.454   2.665  1.9820 -0.5883  1.1938
  423SOL     OW 1267   1.345   1.996   0.952 -0.2861  0.5373  0.5417
  423SOL    HW1 1268   1.398   1.987   1.036 -1.0977  0.7299 -4.1636
  423SOL    HW2 1269   1.341   1.902   0.911 -0.4989 -0.0457 -0.0655
  424SOL     OW 1270   0.665   2.053   1.771 -0.5787  0.2600 -0.3910
  424SOL    HW1 1271   0.633   2.101   1.688  2.1572 -1.2328 -1.5643
  424SOL    HW2 1272   0.625   2.094   1.856  0.9675 -0.9608 -1.9416
  425SOL     OW 1273   0.046   2.859   1.906 -0.1780  0.4995  0.0828
  425SOL    HW1 1274   0.079   2.781   1.967 -0.4382 -0.5097 -1.2526
  425SOL    HW2 1275   3.027   2.874   1.916  0.4460  3.4416 -1.3665
  426SOL     OW 1276   1.529   0.730   0.443  0.3220  0.5004  0.1881
  426SOL    HW1 1277   1.512   0.649   0.379  1.3595 -0.6098  1.0016
  426SOL    HW2 1278   1.543   0.695   0.535 -2.6789  1.6507 -2.4956
  427SOL     OW 1279   0.826   0.856   0.066 -0.4866  0.1910  0.3197
  427SOL    HW1 1280   0.789   0.773   0.113  0.3875 -0.3158  3.9499
  427SOL    HW2 1281   0.830   0.839   3.048 -0.1235 -1.4821 -0.6849
  428SOL     OW 1282   1.388   1.353   0.069  0.2632 -0.3949 -0.1923
  428SOL    HW1 1283   1.408   1.336   0.166 -0.8505  1.4504  2.7848
  428SOL    HW2 1284   1.284   1.369   0.066 -2.3547  1.3917 -1.1527
  429SOL     OW 1285   2.843   2.768   0.620 -0.7073  0.4791 -0.1636
  429SOL    HW1 1286   2.941   2.744   0.594 -1.5861 -0.8360 -1.7325
  429SOL    HW2 1287   2.802   2.834   0.556  0.4188 -0.0601  1.4441
  430SOL     OW 1288   0.461   2.899   2.583 -0.5801 -0.1597 -0.1593
  430SOL    HW1 1289   0.463   2.969   2.657 -3.0339  0.1694 -0.0369
  430SOL    HW2 1290   0.518   2.821   2.613 -1.5445  1.1908  1.4710
  431SOL     OW 1291   2.699   1.044   0.773  0.1556  0.5162  0.4500
  431SOL    HW1 1292   2.611   0.993   0.793 -1.3225  2.6306 -1.8262
  431SOL    HW2 1293   2.758   1.045   0.859 -1.9364 -1.4330  1.1126
  432SOL     OW 1294   2.227   2.667   1.958  0.1424 -0.3295 -0.1477
  432SOL    HW1 1295   2.222   2.601   2.032  3.2145 -0.7363  0.6831
  432SOL    HW2 1296   2.256   2.621   1.871 -0.1106  0.6158 -0.9473
  433SOL     OW 1297   1.655   2.307   0.743  0.0720 -0.9146  0.1678
  433SOL    HW1 1298   1.599   2.223   0.760 -1.2851 -2.7663 -0.9355
  433SOL    HW2 1299   1.672   2.359   0.827  0.0950  0.8315  2.0626
  434SOL     OW 1300   0.526   2.147   1.988  0.4498 -0.3013  0.2047
  434SOL    HW1 1301   0.488   2.240   2.011 -2.5784  0.1951 -0.8587
  434SOL    HW2 1302   0.452   2.095   1.938 -1.1350  1.7085  0.5580
  435SOL     OW 1303   3.051   0.965   3.049  0.4243 -0.0968 -0.2619
  435SOL    HW1 1304   3.079   0.935   0.059 -0.2042  0.8207 -1.1963
  435SOL    HW2 1305   3.030   0.888   2.985  1.4121  1.2684  0.3707
  436SOL     OW 1306   0.359   2.703   1.875  0.0462 -0.0847  0.6048
  436SOL    HW1 1307   0.333   2.799   1.867  3.0212 -0.4969  4.0342
  436SOL    HW2 1308   0.455   2.691   1.901 -0.0496 -0.6973 -0.2758
  437SOL     OW 1309   1.760   2.585   1.812 -0.1813  0.2349 -0.1176
  437SOL    HW1 1310   1.782   2.604   1.714  2.5249  0.1173  1.3844
  437SOL    HW2 1311   1.824   2.648   1.865 -0.7572 -0.1516 -1.5286
  438SOL     OW 1312   0.279   1.773   0.550 -0.1655  0.1879 -0.4249
  438SOL    HW1 1313   0.341   1.759   0.630  3.3325 -1.1053  0.1844
  438SOL    HW2 1314   0.184   1.775   0.590  0.6721  0.9392  0.7657
  439SOL     OW 1315   0.183   0.446   0.837  0.1049 -0.0705 -0.4411
  439SOL    HW1 1316   0.252   0.520   0.824 -0.9430  2.4496  0.3275
  439SOL    HW2 1317   0.221   0.355   0.823 -1.8575  2.3594  0.4306
  440SOL     OW 1318   0.217   2.806   2.529 -0.0909  0.0761  0.1678
  440SOL    HW1 1319   0.185   2.720   2.574 -1.2225 -0.8577 -0.2808
  440SOL    HW2 1320   0.310   2.839   2.559 -0.1556 -0.7616 -1.1219
  441SOL     OW 1321   3.058   0.798   0.673  0.4721  0.1130 -0.6836
  441SOL    HW1 1322   0.008   0.723   0.609 -1.0573 -1.3405  0.8787
  441SOL    HW2 1323   2.966   0.771   0.702  1.0891  0.3449 -2.2647
  442SOL     OW 1324   1.354   2.210   2.529 -0.6444 -0.3141 -0.1061
  442SOL    HW1 1325   1.325   2.114   2.513  1.8945  3.1972  0.6044
  442SOL    HW2 1326   1.421   2.248   2.460  0.5336 -1.0669  1.5543
  443SOL     OW 1327   0.707   0.473   0.626  0.2124 -0.1980  0.0838
  443SOL    HW1 1328   0.604   0.494   0.612  0.6243 -0.7637 -0.7739
  443SOL    HW2 1329   0.729   0.384   0.577  0.5320 -1.7897  2.1309
  444SOL     OW 1330   1.493   1.525   2.550 -0.4355 -0.2445 -0.3667
  444SOL    HW1 1331   1.421   1.501   2.480 -0.4250 -0.5707 -1.6930
  444SOL    HW2 1332   1.455   1.500   2.640 -0.3994 -1.6102 -4.8139
  445SOL     OW 1333   0.072   0.372   0.586  0.2806 -0.3719 -0.2630
  445SOL    HW1 1334   3.053   0.363   0.585  1.9782  0.7576 -0.6140
  445SOL    HW2 1335   0.111   0.418   0.667 -0.0765  2.1103 -0.8131
  446SOL     OW 1336   2.041   0.710   1.074  0.1789 -0.2329 -0.2138
  446SOL    HW1 1337   1.954   0.714   1.125 -0.3335 -2.3865 -0.1901
  446SOL    HW2 1338   2.026   0.702   0.970 -2.5069 -0.1074 -0.4732
  447SOL     OW 1339   0.102   0.834   0.181  0.3941  0.2729  0.0252
  447SOL    HW1 1340   0.163   0.762   0.139  1.3508  1.5420 -1.1907
  447SOL    HW2 1341   0.029   0.790   0.241  0.0369  0.8795  0.9084
  448SOL     OW 1342   1.874   2.115   1.800  0.3690 -0.5360 -0.3780
  448SOL    HW1 1343   1.872   2.210   1.831 -1.9856 -0.5153  0.7744
  448SOL    HW2 1344   1.860   2.107   1.698  0.1228 -1.5350  0.8992
  449SOL     OW 1345   0.971   1.560   0.670  0.0395  0.1442  0.2811
  449SOL    HW1 1346   1.001   1.548   0.573  1.2514  0.3784 -0.8765
  449SOL    HW2 1347   0.911   1.483   0.705 -1.5330 -0.1186  1.5214
  450SOL     OW 1348   2.755   2.480   2.355  0.6800  0.5476  0.4636
  450SOL    HW1 1349   2.732   2.568   2.302  1.4423  1.0026 -0.2615
  450SOL    HW2 1350   2.825   2.419   2.318  0.0506  1.5028  3.2786
  451SOL     OW 1351   2.458   1.179   2.891 -0.1040 -0.4784 -0.4626
  451SOL    HW1 1352   2.489   1.140   2.980 -2.2569  4.2150 -0.5693
  451SOL    HW2 1353   2.426   1.277   2.898 -0.6086  2.9149 -0.1669
  452SOL     OW 1354   1.946   1.017   1.142 -0.0259  0.2373  0.0255
  452SOL    HW1 1355   1.980   1.060   1.228  0.5575 -0.7574 -3.0286
  452SOL    HW2 1356   1.894   0.930   1.157  1.1579  0.2031  1.2945
  453SOL     OW 1357   2.225   0.777   1.507 -1.0681 -0.3607  0.2973
  453SOL    HW1 1358   2.151   0.837   1.551 -4.0285  0.1348 -0.6052
  453SOL    HW2 1359   2.318   0.813   1.536  3.4637  2.8495  2.4647
  454SOL     OW 1360   2.770   1.301   3.038 -0.5892  0.0849 -0.7430
  454SOL    HW1 1361   2.828   1.238   2.975 -0.7308 -1.3883  3.1846
  454SOL    HW2 1362   2.690   1.253   3.077 -1.2519 -0.8458  0.0592
  455SOL     OW 1363   2.595   1.637   1.442 -0.0183  0.6076 -0.0092
  455SOL    HW1 1364   2.539   1.568   1.390 -2.4613 -0.7098  2.6232
  455SOL    HW2 1365   2.536   1.722   1.452  0.9049  0.8768 -0.1537
  456SOL     OW 1366   1.137   0.172   1.545  0.0700  0.4333  0.6989
  456SOL    HW1 1367   1.130   0.262   1.590  0.4212  2.6839  1.0494
  456SOL    HW2 1368   1.199   0.176   1.460 -2.0135  0.5939  0.0801
  457SOL     OW 1369   1.723   2.701   1.180 -0.1710  0.4250  0.4420
  457SOL    HW1 1370   1.736   2.612   1.222  1.9240 -2.5994  0.4458
  457SOL    HW2 1371   1.790   2.770   1.212 -1.8359 -0.5940 -1.1614
  458SOL     OW 1372   2.875   0.182   0.592 -0.4075 -0.0229  0.1536
  458SOL    HW1 1373   2.798   0.121   0.576  1.5221 -3.0822 -1.2805
  458SOL    HW2 1374   2.931   0.154   0.670  0.0486 -2.7324 -1.1697
  459SOL     OW 1375   1.484   0.777   0.081  0.0282  0.0020 -0.2923
  459SOL    HW1 1376   1.449   0.871   0.105 -0.0067 -1.1376 -0.1486
  459SOL    HW2 1377   1.454   0.748   3.067 -1.1373 -2.0978 -3.1506
  460SOL     OW 1378   0.165   2.582   2.661 -0.3878 -0.8738  0.8019
  460SOL    HW1 1379   0.211   2.583   2.752  0.5901 -0.5048 -0.9922
  460SOL    HW2 1380   0.199   2.509   2.601  1.6746  0.5382  1.5819
  461SOL     OW 1381   0.438   1.635   0.272  0.2900  0.4670  0.1115
  461SOL    HW1 1382   0.522   1.679   0.306 -5.7594 -1.0208  0.5076
  461SOL    HW2 1383   0.462   1.570   0.192  1.7832  0.2833  0.3424
  462SOL     OW 1384   2.043   1.891   0.888  0.0087 -0.4686  0.1112
  462SOL    HW1 1385   2.137   1.886   0.928  0.3895  0.4859  1.3641
  462SOL    HW2 1386   1.969   1.878   0.960 -0.6644  0.0383 -1.5170
  463SOL     OW 1387   2.963   0.572   0.176 -0.3032  0.1539 -0.0207
  463SOL    HW1 1388   2.899   0.495   0.200 -2.2514  1.8471  1.2054
  463SOL    HW2 1389   2.933   0.616   0.086  0.3902  0.0505 -0.1351
  464SOL     OW 1390   0.732   2.443   0.361 -0.2409 -0.0032 -0.0358
  464SOL    HW1 1391   0.818   2.424   0.311  2.2072 -1.8996 -1.2104
  464SOL    HW2 1392   0.725   2.389   0.449  0.2174  0.8156  0.9584
  465SOL     OW 1393   2.198   0.387   0.849  0.4877 -0.2893  0.3511
  465SOL    HW1 1394   2.220   0.290   0.855  2.3670  4.3757  0.3603
  465SOL    HW2 1395   2.134   0.403   0.769 -1.4024  1.1731  1.3163
  466SOL     OW 1396   2.059   0.232   0.387  0.5685 -0.2156  0.3887
  466SOL    HW1 1397   1.986   0.165   0.404 -0.8520  1.5122 -1.7107
  466SOL    HW2 1398   2.104   0.220   0.293 -1.5873  2.3346 -2.6555
  467SOL     OW 1399   1.216   0.416   1.937 -0.0178 -0.4397  0.0583
  467SOL    HW1 1400   1.234   0.489   2.010  0.3236  1.3730 -0.0108
  467SOL    HW2 1401   1.303   0.370   1.922  0.0882  0.7659 -0.6837
  468SOL     OW 1402   2.657   0.498   1.837 -0.0944  0.6450 -0.6074
  468SOL    HW1 1403   2.600   0.450   1.768 -0.1459 -0.0415 -0.5765
  468SOL    HW2 1404   2.631   0.485   1.935 -0.9897  1.3866 -1.1124
  469SOL     OW 1405   0.975   2.330   2.120  0.1655  0.9025 -0.9022
  469SOL    HW1 1406   0.966   2.247   2.184  2.2149 -1.4717 -1.1929
  469SOL    HW2 1407   1.007   2.289   2.033  1.6976 -0.5891  3.6572
  470SOL     OW 1408   1.882   1.166   1.955  0.3216  0.1183 -1.0067
  470SOL    HW1 1409   1.952   1.135   1.884 -3.0150 -1.5304 -1.8430
  470SOL    HW2 1410   1.915   1.136   2.050  1.9085 -1.0090 -2.8225
  471SOL     OW 1411   2.798   1.540   2.881  0.3211 -0.2514 -0.3156
  471SOL    HW1 1412   2.745   1.497   2.809  2.5547 -0.9935  1.4872
  471SOL    HW2 1413   2.790   1.488   2.969 -0.6736 -2.1856 -0.7011
  472SOL     OW 1414   0.469   2.467   0.413 -0.2091 -0.2871  0.2892
  472SOL    HW1 1415   0.453   2.424   0.503 -0.6981 -0.1111  0.5473
  472SOL    HW2 1416   0.566   2.467   0.395  1.3048  2.1709 -1.5647
  473SOL     OW 1417   1.127   2.506   2.203 -0.3615  0.3438 -0.3547
  473SOL    HW1 1418   1.058   2.444   2.163 -0.8937 -0.8139 -0.8239
  473SOL    HW2 1419   1.130   2.499   2.307  0.3236 -1.8762  0.7692
  474SOL     OW 1420   1.303   0.030   2.579 -0.3346  0.5758  0.2195
  474SOL    HW1 1421   1.227   3.074   2.525  0.6723  1.0433 -1.2099
  474SOL    HW2 1422   1.329   3.054   2.664  0.3654 -3.2809  5.8098
  475SOL     OW 1423   0.956   2.374   0.225 -0.0051 -0.1567  0.4582
  475SOL    HW1 1424   1.038   2.417   0.185 -2.9218 -0.3125 -1.3045
  475SOL    HW2 1425   0.958   2.267   0.211 -0.9543 -2.4266 -0.8455
  476SOL     OW 1426   0.523   0.408   1.055  0.0819  0.1728  0.5236
  476SOL    HW1 1427   0.584   0.446   1.128  0.3289  0.8372  0.3231
  476SOL    HW2 1428   0.536   0.463   0.972  2.8042 -0.3604  2.3834
  477SOL     OW 1429   1.805   2.139   1.529 -0.4189  0.6672 -0.1293
  477SOL    HW1 1430   1.739   2.213   1.524  2.7734 -2.5308  1.2879
  477SOL    HW2 1431   1.892   2.162   1.479 -0.8693  0.5640 -0.6891
  478SOL     OW 1432   2.986   0.793   2.866  0.3509 -0.7598 -0.2927
  478SOL    HW1 1433   2.946   0.724   2.926  0.1777  1.2461 -1.0069
  478SOL    HW2 1434   3.024   0.749   2.782  0.1951  0.1133 -0.4742
  479SOL     OW 1435   0.705   3.005   0.835 -0.0531  0.5782 -0.6930
  479SOL    HW1 1436   0.764   2.928   0.876  0.3463 -3.6965 -1.1373
  479SOL    HW2 1437   0.761   0.002   0.803  0.5323  0.1081  0.8589
  480SOL     OW 1438   2.468   2.604   0.397 -0.0873 -0.2087  0.1593
  480SOL    HW1 1439   2.498   2.632   0.494  2.5038  2.4157  1.3532
  480SOL    HW2 1440   2.540   2.641   0.334 -1.2639 -1.3291 -0.6094
  481SOL     OW 1441   2.827   0.510   1.258  0.3588  0.2172  0.1232
  481SOL    HW1 1442   2.782   0.429   1.216  1.7702 -2.1594  0.5162
  481SOL    HW2 1443   2.913   0.479   1.305 -3.6541  0.9210 -0.0512
  482SOL     OW 1444   1.124   2.823   1.025  0.0515 -0.1119 -0.1127
  482SOL    HW1 1445   1.178   2.807   0.940 -0.0622 -0.4652  0.3966
  482SOL    HW2 1446   1.104   2.923   1.037 -0.1393  0.0040  0.7278
  483SOL     OW 1447   0.385   1.300   2.903 -0.4062  0.0121 -0.6373
  483SOL    HW1 1448   0.331   1.253   2.978 -0.4452 -1.2952 -0.8628
  483SOL    HW2 1449   0.432   1.386   2.927  1.2028 -3.3161  1.3127
  484SOL     OW 1450   1.608   1.608   2.081 -0.2641  0.0700 -0.1868
  484SOL    HW1 1451   1.660   1.527   2.057 -2.1346  2.8522  1.3782
  484SOL    HW2 1452   1.643   1.648   2.168 -0.8052 -0.5097 -0.7274
  485SOL     OW 1453   0.096   3.068   2.497 -0.5495 -0.4893 -0.3977
  485SOL    HW1 1454   0.009   3.074   2.551 -0.7008  1.5803  0.7022
  485SOL    HW2 1455   0.139   2.980   2.496 -1.6125  2.9750 -0.2324
  486SOL     OW 1456   1.556   2.922   0.545  0.1956  0.5086 -0.1060
  486SOL    HW1 1457   1.630   2.894   0.609 -0.5202  1.4888  2.4023
  486SOL    HW2 1458   1.579   2.931   0.447 -0.3826 -0.4286  0.9885
  487SOL     OW 1459   1.549   3.041   0.849 -0.1285  0.6574  0.4545
  487SOL    HW1 1460   1.496   3.032   0.937  1.3418 -0.0641  1.3149
  487SOL    HW2 1461   1.651   3.044   0.862  1.0720  1.1388 -0.7370
  488SOL     OW 1462   2.208   0.931   0.743 -0.0572 -0.2786  0.4023
  488SOL    HW1 1463   2.158   0.963   0.825  2.9546 -1.6912 -0.2211
  488SOL    HW2 1464   2.161   0.843   0.723  0.5256 -1.9205 -2.7733
  489SOL     OW 1465   1.187   3.061   1.243  0.7418  0.4262  0.2158
  489SOL    HW1 1466   1.165   2.981   1.302  1.3161  1.3590 -1.3592
  489SOL    HW2 1467   1.116   0.001   1.170 -0.3454 -1.0480 -0.2762
  490SOL     OW 1468   0.958   0.744   0.647 -0.4197 -0.1912  0.2869
  490SOL    HW1 1469   0.924   0.789   0.730 -1.9890  1.2158  1.2680
  490SOL    HW2 1470   1.014   0.659   0.665  1.2788 -1.6818  1.8769
  491SOL     OW 1471   1.158   2.784   0.445 -0.2732  0.1486  0.3410
  491SOL    HW1 1472   1.241   2.751   0.503  2.7694 -1.1883  3.7953
  491SOL    HW2 1473   1.165   2.760   0.346 -2.9672 -1.0171 -2.9340
  492SOL     OW 1474   0.852   1.422   1.870 -0.0332 -0.2987 -0.2087
  492SOL    HW1 1475   0.917   1.435   1.946 -1.5976  1.3988 -0.2141
  492SOL    HW2 1476   0.854   1.322   1.842  1.7675  1.8582  1.6712
  493SOL     OW 1477   0.183   1.828   0.299  0.0211  0.2740 -0.1683
  493SOL    HW1 1478   0.164   1.929   0.290  0.9506 -1.3951 -0.0439
  493SOL    HW2 1479   0.233   1.804   0.386 -2.3945  1.5490 -1.1778
  494SOL     OW 1480   1.751   1.578   0.306  0.2689 -0.4405 -0.3309
  494SOL    HW1 1481   1.734   1.567   0.409 -0.6983 -0.6628  2.6659
  494SOL    HW2 1482   1.687   1.648   0.271 -0.9975 -1.0760 -0.7767
  495SOL     OW 1483   0.450   0.823   2.474 -0.3094 -0.1343 -0.0280
  495SOL    HW1 1484   0.364   0.821   2.416  1.6422 -2.8080  0.7929
  495SOL    HW2 1485   0.512   0.903   2.459  1.2250  1.5842  0.5696
  496SOL     OW 1486   0.103   0.132   2.263  0.3692  0.0133  0.1121
  496SOL    HW1 1487   0.101   0.065   2.339 -0.1024  1.7237 -1.6684
  496SOL    HW2 1488   0.191   0.147   2.215  1.4501  1.2471  4.3128
  497SOL     OW 1489   1.777   1.130   0.490  0.5637  0.3123  0.4706
  497SOL    HW1 1490   1.804   1.177   0.404 -0.8483 -1.8470 -2.3205
  497SOL    HW2 1491   1.745   1.035   0.463 -0.7726 -0.8593 -0.4496
  498SOL     OW 1492   2.785   2.718   2.921 -0.0755  0.6298 -0.2916
  498SOL    HW1 1493   2.758   2.617   2.909 -0.5385 -3.0208 -2.0448
  498SOL    HW2 1494   2.719   2.776   2.863 -1.3799  2.5241  0.0000
  499SOL     OW 1495   1.969   2.733   0.575 -0.2556  0.7552  0.4076
  499SOL    HW1 1496   1.985   2.815   0.519 -0.6696 -2.0393  3.9445
  499SOL    HW2 1497   1.979   2.651   0.518  0.6275  0.5736  0.4663
  500SOL     OW 1498   0.887   0.708   2.620  0.7279  0.0033 -0.1245
  500SOL    HW1 1499   0.957   0.665   2.563 -1.4875 -1.9367  1.7980
  500SOL    HW2 1500   0.793   0.711   2.572 -2.1055  0.4743 -2.0012
  501SOL     OW 1501   1.304   3.020   1.619 -0.5256  0.3262  0.5604
  501SOL    HW1 1502   1.286   0.039   1.623  1.9473 -0.1272 -0.0480
  501SOL    HW2 1503   1.245   2.969   1.553 -2.0789  0.6597  0.8830
  502SOL     OW 1504   0.084   0.121   1.967  0.0209 -0.2079  0.1343
  502SOL    HW1 1505   0.109   0.051   2.038 -2.1941  1.8961 -0.1107
  502SOL    HW2 1506   0.130   0.099   1.876  0.8887 -0.8898 -1.2129
  503SOL     OW 1507   1.778   2.280   2.192  0.3157 -0.5704  0.3253
  503SOL    HW1 1508   1.870   2.313   2.213 -3.4955  0.5425 -0.0007
  503SOL    HW2 1509   1.782   2.181   2.160  1.7877 -4.3707 -1.6844
  504SOL     OW 1510   2.068   0.166   1.470  0.2133 -0.1884 -0.1753
  504SOL    HW1 1511   2.052   0.264   1.444 -0.0614 -0.0829 -3.5100
  504SOL    HW2 1512   2.042   0.152   1.571  1.0036 -1.0295  1.3938
  505SOL     OW 1513   2.713   1.638   1.802  0.3285  0.7364 -0.0614
  505SOL    HW1 1514   2.787   1.608   1.731  0.9574  0.2316 -0.1413
  505SOL    HW2 1515   2.618   1.614   1.771  2.3930  0.1447 -2.3838
  506SOL     OW 1516   0.229   1.205   2.275  0.8836 -0.2371 -0.3551
  506SOL    HW1 1517   0.210   1.216   2.379 -2.5329  2.9495  1.2246
  506SOL    HW2 1518   0.166   1.132   2.239  1.5790  0.3012  1.0589
  507SOL     OW 1519   0.270   2.845   1.149  0.0600  0.1621 -0.0080
  507SOL    HW1 1520   0.234   2.889   1.066  2.6025  0.0895  0.2737
  507SOL    HW2 1521   0.241   2.748   1.160 -2.1255 -0.8629  0.2022
  508SOL     OW 1522   1.267   0.678   1.430 -0.5714 -0.0111 -0.6969
  508SOL    HW1 1523   1.189   0.633   1.378 -0.3498  0.8960 -0.8079
  508SOL    HW2 1524   1.334   0.608   1.468 -0.6375 -1.6087  1.9097
  509SOL     OW 1525   1.775   2.352   1.913 -0.0510  0.1470 -0.0762
  509SOL    HW1 1526   1.765   2.442   1.860  0.2659  0.3759 -2.7401
  509SOL    HW2 1527   1.773   2.365   2.013  1.2281  1.2839  0.0590
  510SOL     OW 1528   2.389   1.450   2.965 -0.1128 -0.8082 -0.4557
  510SOL    HW1 1529   2.398   1.493   3.057 -0.0879  1.6502 -1.0515
  510SOL    HW2 1530   2.295   1.418   2.943  0.6448  0.6306  2.7531
  511SOL     OW 1531   0.289   1.504   1.498  0.0839 -0.6035 -0.3255
  511SOL    HW1 1532   0.242   1.423   1.534 -0.5311 -0.9364 -0.1169
  511SOL    HW2 1533   0.391   1.497   1.507  2.0290  0.5836 -0.4999
  512SOL     OW 1534   2.421   2.241   0.328 -0.3124  0.6676  0.0255
  512SOL    HW1 1535   2.518   2.225   0.361 -0.0758  0.1237  1.7621
  512SOL    HW2 1536   2.367   2.150   0.334  1.7927 -2.1154  0.3265
  513SOL     OW 1537   0.781   1.767   2.193  0.3942 -0.1186 -0.0898
  513SOL    HW1 1538   0.867   1.737   2.142  0.0931  2.4990  0.4886
  513SOL    HW2 1539   0.810   1.804   2.284 -2.9015 -0.7033  1.0135
  514SOL     OW 1540   0.121   2.287   2.226 -0.1577  0.7328 -0.1191
  514SOL    HW1 1541   0.082   2.192   2.237  1.6437  1.1511  2.6041
  514SOL    HW2 1542   0.059   2.363   2.209  0.8323  0.3174  0.6076
  515SOL     OW 1543   1.739   1.287   1.741  0.0848  0.3991 -0.4263
  515SOL    HW1 1544   1.761   1.213   1.810 -0.9233  2.2313 -0.0807
  515SOL    HW2 1545   1.777   1.267   1.648  0.9149 -1.5155 -0.1968
  516SOL     OW 1546   1.891   2.437   0.130 -0.1009  0.4502  0.5985
  516SOL    HW1 1547   1.921   2.523   0.085 -2.4522  2.2783  0.8730
  516SOL    HW2 1548   1.954   2.353   0.115 -1.4078 -2.8445 -1.1455
  517SOL     OW 1549   0.704   1.707   0.349 -0.3132 -0.4786  0.0063
  517SOL    HW1 1550   0.762   1.734   0.264  2.9983  0.5720 -1.1228
  517SOL    HW2 1551   0.715   1.606   0.358 -2.3207 -1.5550 -1.6805
  518SOL     OW 1552   2.064   2.601   1.600 -0.6172  0.1765 -0.3118
  518SOL    HW1 1553   1.980   2.648   1.589 -0.2849 -2.0220 -1.1431
  518SOL    HW2 1554   2.076   2.533   1.524  2.7318  0.0791  2.5941
  519SOL     OW 1555   2.286   2.519   1.221 -0.1648 -0.2323  0.0800
  519SOL    HW1 1556   2.334   2.607   1.244 -0.7856  2.2023 -1.7661
  519SOL    HW2 1557   2.275   2.514   1.120  2.6830 -0.9564 -1.3006
  520SOL     OW 1558   2.977   2.070   2.379 -0.2242 -0.2045 -0.4912
  520SOL    HW1 1559   3.008   1.985   2.332 -2.0193  0.8741 -2.4871
  520SOL    HW2 1560   2.927   2.129   2.310  0.8190  4.3366 -0.8002
  521SOL     OW 1561   2.497   1.101   2.417  0.2206  0.3968  0.1932
  521SOL    HW1 1562   2.552   1.092   2.502  0.9651 -0.9034 -0.1899
  521SOL    HW2 1563   2.403   1.148   2.443 -1.5485  0.7159  1.2889
  522SOL     OW 1564   0.849   0.652   2.263  0.1840 -0.0170  0.0212
  522SOL    HW1 1565   0.940   0.634   2.310  3.6937 -0.5379  0.5410
  522SOL    HW2 1566   0.818   0.561   2.225  2.4384  1.3027 -1.7558
  523SOL     OW 1567   0.072   2.110   0.879 -0.1877  0.6792  0.3599
  523SOL    HW1 1568   0.151   2.050   0.858  1.8851 -3.1779 -1.8254
  523SOL    HW2 1569   0.104   2.210   0.905  1.0183  3.4562  0.6933
  524SOL     OW 1570   1.947   2.671   3.080  0.5489  0.2379  0.2595
  524SOL    HW1 1571   1.988   2.747   0.057  0.9063 -0.9359  0.0499
  524SOL    HW2 1572   1.994   2.665   2.989 -0.2299 -0.5572 -2.0764
  525SOL     OW 1573   2.435   0.526   1.407 -0.4026 -0.1112 -0.1292
  525SOL    HW1 1574   2.518   0.563   1.358 -0.3980  2.1427 -0.0179
  525SOL    HW2 1575   2.368   0.479   1.340 -0.1891  1.6471 -2.1529
  526SOL     OW 1576   1.052   2.536   0.556 -0.2937 -0.0600 -0.0053
  526SOL    HW1 1577   1.041   2.452   0.504  3.3594 -2.1977 -0.6888
  526SOL    HW2 1578   1.099   2.608   0.501 -1.1229  3.0543  1.6715
  527SOL     OW 1579   2.322   2.977   0.496 -0.1726  0.3599 -0.1150
  527SOL    HW1 1580   2.366   2.922   0.569  0.4358 -0.5008 -3.5979
  527SOL    HW2 1581   2.371   2.963   0.408  1.1367 -1.6059 -0.8731
  528SOL     OW 1582   1.334   0.592   0.298  0.1199  0.0582  0.2178
  528SOL    HW1 1583   1.269   0.668   0.323  1.8789  2.5019  1.0452
  528SOL    HW2 1584   1.405   0.615   0.225  4.6766 -1.4972 -0.9867
  529SOL     OW 1585   1.270   1.441   2.391  0.5105  0.2908 -0.3575
  529SOL    HW1 1586   1.290   1.345   2.365  0.2994 -1.2409  0.1244
  529SOL    HW2 1587   1.301   1.503   2.323 -0.0987  0.6990  1.7004
  530SOL     OW 1588   2.408   0.326   0.173 -0.6882  0.5727 -0.1190
  530SOL    HW1 1589   2.366   0.414   0.198 -0.7393 -0.3879  1.3112
  530SOL    HW2 1590   2.333   0.256   0.170  1.0881 -0.1771  4.8720
  531SOL     OW 1591   1.480   0.739   2.892  0.1083  0.2754 -0.1493
  531SOL    HW1 1592   1.505   0.806   2.817  1.9403  3.5308 -2.1466
  531SOL    HW2 1593   1.393   0.688   2.868 -1.4757 -1.4106 -0.6723
  532SOL     OW 1594   1.625   0.288   0.813 -0.6784  0.2915 -0.5293
  532SOL    HW1 1595   1.614   0.224   0.891  0.0877  0.0546  0.2825
  532SOL    HW2 1596   1.662   0.374   0.854  0.4445  1.7429 -0.1343
  533SOL     OW 1597   0.314   0.766   2.728 -0.3160  0.4087 -0.1100
  533SOL    HW1 1598   0.377   0.779   2.648  2.1100 -0.7456  0.6137
  533SOL    HW2 1599   0.253   0.686   2.705  0.2553  3.2981  0.6919
  534SOL     OW 1600   1.700   0.261   2.772  0.0959 -0.3999  0.1078
  534SOL    HW1 1601   1.662   0.169   2.804 -0.2713 -3.7161  1.4443
  534SOL    HW2 1602   1.679   0.332   2.844 -0.5105  0.2652  2.9308
  535SOL     OW 1603   0.344   2.836   2.943 -0.0856 -0.1533 -0.0981
  535SOL    HW1 1604   0.340   2.733   2.922 -0.4343 -1.3665  2.4967
  535SOL    HW2 1605   0.313   2.893   2.863  0.7236  3.3499  0.0940
  536SOL     OW 1606   0.676   0.072   0.379 -0.5755 -0.0777 -0.4446
  536SOL    HW1 1607   0.708   0.158   0.420  1.0243 -0.2571  2.2936
  536SOL    HW2 1608   0.748   3.081   0.373 -0.7355  1.8629  0.4537
  537SOL     OW 1609   1.584   0.223   0.093 -0.0192  0.1443  0.0233
  537SOL    HW1 1610   1.599   0.273   0.004  0.4212  0.5392 -1.1208
  537SOL    HW2 1611   1.480   0.223   0.112 -2.7699 -0.2280  1.9723
  538SOL     OW 1612   2.682   1.964   2.886  0.3411  0.3314  0.2524
  538SOL    HW1 1613   2.772   1.915   2.868  1.9908 -0.5439 -2.1339
  538SOL    HW2 1614   2.671   1.987   2.985 -0.6949  1.0083  2.9397
  539SOL     OW 1615   2.228   2.068   0.036 -0.2394 -0.4727 -0.8292
  539SOL    HW1 1616   2.170   1.990   0.011  1.6347 -0.3727  2.7020
  539SOL    HW2 1617   2.268   2.049   0.131 -0.3816 -1.1215  0.6874
  540SOL     OW 1618   0.960   2.867   1.774  0.1566 -0.2872  0.1676
  540SOL    HW1 1619   1.022   2.852   1.848 -0.8276  2.4152 -3.0251
  540SOL    HW2 1620   0.945   2.779   1.715 -0.4130  0.2173  0.7878
  541SOL     OW 1621   2.478   0.112   2.331  0.0265 -0.4024  0.4101
  541SOL    HW1 1622   2.512   0.096   2.240 -0.3495 -0.6972  0.0286
  541SOL    HW2 1623   2.391   0.169   2.340 -0.6793 -0.4939  1.3226
  542SOL     OW 1624   0.016   0.758   2.597  0.3052 -0.4492 -0.4515
  542SOL    HW1 1625   0.081   0.688   2.626  1.2024  2.9960  2.1543
  542SOL    HW2 1626   3.016   0.713   2.556  0.5463 -0.5817  0.3076
  543SOL     OW 1627   0.301   0.793   1.075  0.5040 -0.0510  0.5079
  543SOL    HW1 1628   0.295   0.729   0.997 -1.5314 -0.5613 -0.9222
  543SOL    HW2 1629   0.210   0.784   1.126 -1.1253  2.2258  1.1872
  544SOL     OW 1630   2.667   0.718   1.301 -0.5355  0.0827  0.3785
  544SOL    HW1 1631   2.737   0.645   1.305  0.1820  0.1175  0.1782
  544SOL    HW2 1632   2.681   0.780   1.381 -1.8630 -0.8264  0.1433
  545SOL     OW 1633   1.343   2.022   0.506 -0.1205  0.0223  0.0622
  545SOL    HW1 1634   1.253   2.069   0.496 -0.7427  0.1671  0.6109
  545SOL    HW2 1635   1.403   2.073   0.574 -0.7677  0.6522 -1.8039
  546SOL     OW 1636   2.277   2.783   1.550  0.2289 -0.0315 -0.0048
  546SOL    HW1 1637   2.213   2.712   1.588 -1.7521 -2.6614 -2.1996
  546SOL    HW2 1638   2.315   2.742   1.463 -0.2007  0.5283 -1.3411
  547SOL     OW 1639   0.539   2.471   2.454 -0.3691  0.0359 -0.4738
  547SOL    HW1 1640   0.455   2.428   2.490 -2.0701  1.4059  1.7725
  547SOL    HW2 1641   0.585   2.545   2.506  0.2216  0.4437  0.0568
  548SOL     OW 1642   1.237   0.646   2.772 -0.5475  0.0150 -0.0772
  548SOL    HW1 1643   1.142   0.671   2.804 -0.6244 -1.1295 -4.2853
  548SOL    HW2 1644   1.234   0.633   2.673 -0.2949  3.0077  2.8673
  549SOL     OW 1645   2.679   0.971   0.214 -0.3024  0.5513  0.2109
  549SOL    HW1 1646   2.653   0.927   0.305 -0.2781  0.0775  2.3573
  549SOL    HW2 1647   2.760   0.920   0.177 -0.5205 -0.5490 -2.3003
  550SOL     OW 1648   2.038   1.620   0.777 -0.6043  0.0440 -0.2160
  550SOL    HW1 1649   2.027   1.721   0.800 -1.0110  2.7136 -1.6589
  550SOL    HW2 1650   2.088   1.614   0.686 -0.3833 -0.1421 -3.4654
  551SOL     OW 1651   1.294   0.024   0.811 -0.1449  0.1617  0.7463
  551SOL    HW1 1652   1.395   0.007   0.808  0.7693  2.1492 -0.3004
  551SOL    HW2 1653   1.279   0.098   0.738  1.1707  1.8502  0.5457
  552SOL     OW 1654   2.737   2.728   2.247  0.3982 -0.0420 -0.0936
  552SOL    HW1 1655   2.651   2.721   2.189 -2.5415  0.8500 -1.3546
  552SOL    HW2 1656   2.724   2.786   2.330  1.9218  0.7471  0.4060
  553SOL     OW 1657   0.405   2.948   2.308  0.8703 -0.6861  0.3367
  553SOL    HW1 1658   0.490   2.934   2.250  2.7893 -1.5792 -1.6269
  553SOL    HW2 1659   0.420   2.938   2.410 -0.7841 -0.5643 -0.1464
  554SOL     OW 1660   0.465   0.008   0.920  0.1771 -0.5811 -0.0933
  554SOL    HW1 1661   0.476   0.041   1.018 -0.2312 -1.0652  0.2271
  554SOL    HW2 1662   0.552   3.049   0.881  1.6520  0.8920  0.2784
  555SOL     OW 1663   2.628   2.071   2.270 -0.3966 -0.3408  0.5406
  555SOL    HW1 1664   2.555   2.112   2.213  0.9776 -0.1988  0.8497
  555SOL    HW2 1665   2.713   2.133   2.273  1.6184  0.6860 -0.9168
  556SOL     OW 1666   1.078   0.266   2.669 -0.3151  0.5023  0.0907
  556SOL    HW1 1667   1.027   0.342   2.715 -0.2926 -1.4468 -0.2222
  556SOL    HW2 1668   1.074   0.265   2.568  0.7964  1.6771  2.0714
  557SOL     OW 1669   0.277   1.854   2.137  0.2722 -0.4811  0.7441
  557SOL    HW1 1670   0.223   1.942   2.137  0.1022  1.0806  0.2235
  557SOL    HW2 1671   0.378   1.876   2.137 -1.5575 -0.1285  0.0772
  558SOL     OW 1672   2.302   0.879   3.026  0.1268  0.3889 -0.4659
  558SOL    HW1 1673   2.231   0.882   2.950 -2.9888 -0.3870 -1.0659
  558SOL    HW2 1674   2.367   0.800   3.003 -0.0391 -0.7139 -0.4070
  559SOL     OW 1675   2.315   1.747   1.863  0.4438 -0.4259 -0.2268
  559SOL    HW1 1676   2.376   1.821   1.811  1.2842  3.6089 -0.6823
  559SOL    HW2 1677   2.220   1.778   1.861  0.6887 -2.2867 -2.8458
  560SOL     OW 1678   2.266   0.974   1.950 -0.3949 -0.1891  0.7890
  560SOL    HW1 1679   2.227   0.891   1.921  0.2553  3.6473 -1.0014
  560SOL    HW2 1680   2.346   0.956   2.007 -2.3194  0.8311 -0.5318
  561SOL     OW 1681   0.043   2.962   2.774  0.0852 -0.2150 -0.4129
  561SOL    HW1 1682   3.048   3.029   2.768  0.3398 -0.8568  1.5692
  561SOL    HW2 1683   0.012   2.875   2.815  3.9710  0.9970 -2.1950
  562SOL     OW 1684   1.129   1.336   1.444  0.0147  0.3042  0.4935
  562SOL    HW1 1685   1.158   1.433   1.460  4.6547 -1.3738 -1.9348
  562SOL    HW2 1686   1.029   1.321   1.460  1.3890 -0.4397 -1.2238
  563SOL     OW 1687   1.100   0.066   2.894  0.1347 -0.5212  0.2680
  563SOL    HW1 1688   1.199   0.058   2.925  3.4256 -0.2267  1.0698
  563SOL    HW2 1689   1.083   0.148   2.834 -1.1004  0.2470  1.0956
  564SOL     OW 1690   2.953   2.020   0.688  0.1509 -0.4406 -0.6090
  564SOL    HW1 1691   3.035   2.053   0.739  0.4097  0.1904  2.7751
  564SOL    HW2 1692   2.874   2.006   0.755 -1.8556  1.2436  1.1495
  565SOL     OW 1693   0.631   1.968   1.228  0.6795  0.2391 -0.1783
  565SOL    HW1 1694   0.568   2.035   1.279  1.9723  0.0341  0.8259
  565SOL    HW2 1695   0.711   1.936   1.288 -0.6511  0.7506  2.0977
  566SOL     OW 1696   1.661   2.797   2.070  0.2218 -0.0098  0.2087
  566SOL    HW1 1697   1.568   2.843   2.052 -1.5302 -0.5930  0.4944
  566SOL    HW2 1698   1.645   2.707   2.115  2.7313  2.7945  0.4113
  567SOL     OW 1699   2.428   2.821   0.753  0.1165  0.1850  0.0141
  567SOL    HW1 1700   2.466   2.868   0.836 -1.0864  0.7971  0.0478
  567SOL    HW2 1701   2.496   2.756   0.709  1.2390 -1.1389 -1.1313
  568SOL     OW 1702   1.548   1.262   0.600 -0.0072  0.1880  1.1172
  568SOL    HW1 1703   1.500   1.210   0.671  0.7630  1.4083 -1.3503
  568SOL    HW2 1704   1.632   1.222   0.566 -2.0725 -0.2057 -0.7956
  569SOL     OW 1705   0.033   1.754   2.627 -0.1990 -0.1456 -0.0375
  569SOL    HW1 1706   0.070   1.740   2.722 -0.6819  1.4748 -0.5686
  569SOL    HW2 1707   3.018   1.722   2.627  0.2521  2.3119 -1.5536
  570SOL     OW 1708   3.081   0.178   1.495 -0.1501  0.4670  0.2192
  570SOL    HW1 1709   0.039   0.172   1.400  0.5488 -2.5526 -0.8484
  570SOL    HW2 1710   3.017   0.098   1.513 -3.6106 -1.5613 -2.4451
  571SOL     OW 1711   0.402   0.313   1.631 -0.1938 -0.0390  0.5412
  571SOL    HW1 1712   0.473   0.293   1.702 -0.2256  1.4722 -2.7675
  571SOL    HW2 1713   0.363   0.408   1.643 -2.4209  0.6465 -1.4065
  572SOL     OW 1714   0.166   2.607   1.224 -0.5114  0.0797 -0.0525
  572SOL    HW1 1715   0.134   2.508   1.229 -0.0828  0.4035 -3.3832
  572SOL    HW2 1716   0.137   2.646   1.314  2.6697 -1.8093 -2.7557
  573SOL     OW 1717   0.902   0.501   3.058 -0.1701 -0.0346  0.0214
  573SOL    HW1 1718   0.877   0.518   0.074 -0.7777 -1.1191  2.9353
  573SOL    HW2 1719   0.903   0.401   3.043 -0.7478  0.3120  1.8399
  574SOL     OW 1720   2.426   2.996   0.230 -0.0594 -0.0181  0.0678
  574SOL    HW1 1721   2.453   2.911   0.177  0.2299 -1.2459  1.7096
  574SOL    HW2 1722   2.499   3.068   0.230  0.3665 -0.2159  2.0910
  575SOL     OW 1723   1.593   2.373   1.301 -0.5358  0.1314  0.2256
  575SOL    HW1 1724   1.563   2.323   1.388  2.0440 -1.0645 -0.8642
  575SOL    HW2 1725   1.523   2.355   1.228 -0.5566  0.9903  0.5682
  576SOL     OW 1726   1.049   0.000   0.988  0.2208 -0.6318 -0.4344
  576SOL    HW1 1727   1.097   0.008   0.899  0.9462 -1.5268 -1.3056
  576SOL    HW2 1728   0.962   0.059   0.997 -0.3267 -0.1614 -0.2265
  577SOL     OW 1729   2.441   1.361   0.790  0.1150 -0.4210 -0.1556
  577SOL    HW1 1730   2.456   1.438   0.727  1.3202 -0.7879  2.7969
  577SOL    HW2 1731   2.499   1.282   0.759 -0.3927  0.6938  0.3686
  578SOL     OW 1732   1.533   0.270   0.542 -0.0573  0.2355  0.1511
  578SOL    HW1 1733   1.582   0.278   0.636  1.3817 -0.1143  1.0603
  578SOL    HW2 1734   1.604   0.273   0.470  2.6773 -0.5005 -3.0628
  579SOL     OW 1735   2.102   0.472   3.018 -0.4472 -0.0512  0.3415
  579SOL    HW1 1736   2.199   0.477   2.987  0.1800  0.0831 -0.2463
  579SOL    HW2 1737   2.041   0.422   2.948  0.7668  0.0539 -1.4587
  580SOL     OW 1738   1.694   0.794   2.259  0.6643  0.2013 -0.0158
  580SOL    HW1 1739   1.745   0.742   2.330  0.4933 -0.7177  1.8328
  580SOL    HW2 1740   1.629   0.865   2.293 -0.0498 -1.3307  0.3443
  581SOL     OW 1741   0.362   0.634   0.802 -0.0057 -0.5916  0.1430
  581SOL    HW1 1742   0.462   0.624   0.811 -3.2927 -0.0323  0.7679
  581SOL    HW2 1743   0.344   0.709   0.734  2.2964  0.5229  2.2823
  582SOL     OW 1744   2.915   0.227   1.967  0.4456 -0.2643  0.2170
  582SOL    HW1 1745   2.910   0.286   1.883 -1.2401  1.8078 -2.6794
  582SOL    HW2 1746   3.005   0.178   1.962 -0.1872  2.5126 -0.4130
  583SOL     OW 1747   0.446   0.590   2.251 -0.4745 -0.1157  0.1494
  583SOL    HW1 1748   0.405   0.529   2.323 -1.7002  0.8751  1.6583
  583SOL    HW2 1749   0.433   0.542   2.166 -1.4122  0.6198  2.5563
  584SOL     OW 1750   1.494   2.040   2.995  0.0222 -0.4230  0.1372
  584SOL    HW1 1751   1.563   2.021   2.919  0.1148 -0.2796  0.1688
  584SOL    HW2 1752   1.459   2.135   2.997 -0.1172 -0.6112 -0.1018
  585SOL     OW 1753   0.316   2.559   2.869 -0.5717  0.3182  0.3991
  585SOL    HW1 1754   0.243   2.503   2.914 -2.6444  1.1235 -0.7389
  585SOL    HW2 1755   0.411   2.525   2.875 -1.4087  1.3454  0.6974
  586SOL     OW 1756   1.761   1.807   2.671  0.0529  0.3433  0.1002
  586SOL    HW1 1757   1.782   1.873   2.600 -0.2504 -3.4265  0.7193
  586SOL    HW2 1758   1.740   1.714   2.638 -2.2554  1.8624  0.5881
  587SOL     OW 1759   2.384   2.230   2.955  0.3641 -0.0758  0.4763
  587SOL    HW1 1760   2.426   2.303   3.016  1.1436  1.7848  0.7766
  587SOL    HW2 1761   2.353   2.156   3.017  0.1984 -0.7928 -2.2630
  588SOL     OW 1762   2.978   0.510   0.845 -0.2086 -0.1959 -0.4726
  588SOL    HW1 1763   2.933   0.486   0.760 -0.2939  2.8719  3.0071
  588SOL    HW2 1764   3.074   0.488   0.845  0.4994  0.8339 -1.4545
  589SOL     OW 1765   1.035   0.359   0.344  0.1082  0.3385  0.0089
  589SOL    HW1 1766   1.030   0.451   0.298 -0.1674  0.4232 -0.4007
  589SOL    HW2 1767   1.129   0.342   0.384  0.0851 -2.4842  3.5768
  590SOL     OW 1768   2.054   2.177   0.409 -0.3218  0.4988 -0.2172
  590SOL    HW1 1769   2.019   2.222   0.493  2.6109  0.3090  0.3857
  590SOL    HW2 1770   2.000   2.097   0.386  2.8640 -0.9026  2.4396
  591SOL     OW 1771   0.452   2.289   1.073  0.1443  0.3163  0.2791
  591SOL    HW1 1772   0.441   2.390   1.085  1.2761 -1.8011 -1.0494
  591SOL    HW2 1773   0.549   2.264   1.077 -0.6732 -0.8432 -2.2517
  592SOL     OW 1774   1.423   0.545   1.090  0.0129  0.1787  0.1780
  592SOL    HW1 1775   1.382   0.472   1.146 -0.6528  0.1950 -0.5819
  592SOL    HW2 1776   1.352   0.588   1.027 -0.4474 -0.1473  1.1336
  593SOL     OW 1777   0.873   1.855   1.334 -0.3195  0.1632 -0.3249
  593SOL    HW1 1778   0.906   1.783   1.398 -0.2587 -1.0539 -1.9930
  593SOL    HW2 1779   0.943   1.933   1.320  4.1539  0.9671 -1.0699
  594SOL     OW 1780   0.921   2.100   0.319 -0.2531 -0.1179  0.6036
  594SOL    HW1 1781   0.981   2.048   0.256 -0.3484  0.4994  1.8427
  594SOL    HW2 1782   0.826   2.067   0.330  0.9793 -0.3543 -1.5572
  595SOL     OW 1783   1.621   0.845   1.428 -0.0169 -0.4052  0.5093
  595SOL    HW1 1784   1.591   0.781   1.507  0.6841 -1.4146  4.1795
  595SOL    HW2 1785   1.567   0.816   1.345  0.8496  0.3475 -0.9340
  596SOL     OW 1786   2.926   0.854   1.639 -0.2496  0.1962 -0.3533
  596SOL    HW1 1787   2.991   0.839   1.718  4.9481  0.7873  0.1031
  596SOL    HW2 1788   2.960   0.913   1.562 -3.3823  0.8758  0.5634
  597SOL     OW 1789   0.839   2.650   2.485 -0.3352 -0.1920  0.2520
  597SOL    HW1 1790   0.865   2.559   2.521  1.8665 -0.6634  0.5740
  597SOL    HW2 1791   0.861   2.653   2.386  2.6409  0.8048 -2.2491
  598SOL     OW 1792   2.450   1.566   1.724 -0.1423 -0.0769  0.4177
  598SOL    HW1 1793   2.391   1.601   1.801 -3.5787  2.9940  1.3627
  598SOL    HW2 1794   2.426   1.470   1.699  0.6363  1.3780  1.4627
  599SOL     OW 1795   0.808   2.813   0.099 -0.1475 -0.0234 -0.3852
  599SOL    HW1 1796   0.708   2.823   0.080  0.5956 -1.3810 -1.0929
  599SOL    HW2 1797   0.863   2.887   0.058  3.6215 -1.3091 -3.2382
  600SOL     OW 1798   0.016   2.104   2.985 -0.4975  0.1783 -0.1333
  600SOL    HW1 1799   3.057   2.015   2.962 -3.4381 -0.8782  2.5440
  600SOL    HW2 1800   0.016   2.154   2.899 -2.2952 -1.3074 -0.3540
  601SOL     OW 1801   0.514   0.768   1.254 -0.3555  0.2624  0.0394
  601SOL    HW1 1802   0.432   0.789   1.199  2.2183 -0.6310 -0.4090
  601SOL    HW2 1803   0.507   0.801   1.351  1.8628  1.9792 -0.4205
  602SOL     OW 1804   0.471   0.284   0.741 -0.3884  0.3231  0.5971
  602SOL    HW1 1805   0.556   0.308   0.790  0.3934  0.5669  0.3474
  602SOL    HW2 1806   0.434   0.368   0.690 -0.4029 -1.5649 -0.4766
  603SOL     OW 1807   0.306   0.194   2.537 -0.4044  0.5546  0.6552
  603SOL    HW1 1808   0.219   0.143   2.518 -1.0741  2.1540 -0.2045
  603SOL    HW2 1809   0.363   0.137   2.600 -0.4143  0.3099  0.5185
  604SOL     OW 1810   0.852   2.804   1.409 -0.5167  0.2709 -0.3640
  604SOL    HW1 1811   0.765   2.824   1.452  0.6086  1.1913  1.3115
  604SOL    HW2 1812   0.859   2.701   1.409 -2.3829  0.5593  0.0834
  605SOL     OW 1813   1.376   1.192   2.290  0.0078  0.2736 -0.3852
  605SOL    HW1 1814   1.293   1.131   2.269 -0.3016 -1.1129 -2.5828
  605SOL    HW2 1815   1.420   1.220   2.203  1.1295 -0.1114  0.0265
  606SOL     OW 1816   2.034   2.702   2.834  0.4521  0.4374  0.2366
  606SOL    HW1 1817   1.990   2.774   2.783 -0.2265 -3.4651  0.7688
  606SOL    HW2 1818   2.132   2.720   2.838 -0.4905 -0.2379  0.4835
  607SOL     OW 1819   0.881   0.218   1.382  0.5132  0.3096  0.0363
  607SOL    HW1 1820   0.951   0.200   1.454  0.6468  1.2229 -2.8380
  607SOL    HW2 1821   0.839   0.129   1.352 -0.1515  0.1050  0.0147
  608SOL     OW 1822   0.220   1.697   2.344 -0.2044  0.3126  0.1551
  608SOL    HW1 1823   0.259   1.755   2.271  0.2307  2.0536  0.0650
  608SOL    HW2 1824   0.294   1.685   2.419  1.4213  0.4019  0.0844
  609SOL     OW 1825   1.099   1.243   0.320  0.0130  0.7388  0.2894
  609SOL    HW1 1826   1.200   1.255   0.313 -0.5016  1.9934 -2.3392
  609SOL    HW2 1827   1.065   1.183   0.242 -0.9850  2.6269 -0.1945
  610SOL     OW 1828   0.239   0.174   0.809 -0.0755  0.4206 -0.3398
  610SOL    HW1 1829   0.335   0.201   0.780  0.5245  0.5528 -0.7546
  610SOL    HW2 1830   0.243   0.077   0.854 -0.5199  0.3889  0.3817
  611SOL     OW 1831   1.220   1.062   0.614  0.0909  0.1550  0.0394
  611SOL    HW1 1832   1.184   1.139   0.559  0.4242  1.3371  1.3452
  611SOL    HW2 1833   1.271   1.002   0.555  1.0111 -1.9712  2.8608
  612SOL     OW 1834   2.046   1.565   0.200 -0.0928 -0.0420  0.1435
  612SOL    HW1 1835   1.954   1.581   0.245 -0.2571 -1.0973  0.8767
  612SOL    HW2 1836   2.071   1.467   0.203  0.5355  2.4898 -2.3360
  613SOL     OW 1837   1.750   1.057   0.155  0.1811 -0.1631  0.1619
  613SOL    HW1 1838   1.746   0.992   0.235 -1.4566 -2.9972 -0.0293
  613SOL    HW2 1839   1.742   1.151   0.188  1.3079  0.0483  0.3197
  614SOL     OW 1840   2.667   0.282   2.460  0.0921  0.1788 -0.0085
  614SOL    HW1 1841   2.718   0.195   2.455  0.5165  2.2775  0.2991
  614SOL    HW2 1842   2.577   0.259   2.415 -0.9119  1.4254 -0.3549
  615SOL     OW 1843   0.697   2.012   0.739 -0.0048  0.1461  0.0036
  615SOL    HW1 1844   0.688   1.933   0.669 -0.9261 -0.5442 -3.0037
  615SOL    HW2 1845   0.612   2.054   0.781  2.9126  0.8706  0.7762
  616SOL     OW 1846   1.572   0.918   2.685 -0.2991  0.9919 -0.0315
  616SOL    HW1 1847   1.596   1.015   2.699 -0.0309 -1.8770  1.6038
  616SOL    HW2 1848   1.597   0.896   2.589 -1.3187 -0.3086  1.3529
  617SOL     OW 1849   1.288   0.228   0.142  0.3382  0.3499  0.1155
  617SOL    HW1 1850   1.275   0.273   0.232 -2.6759  1.7851  0.5830
  617SOL    HW2 1851   1.279   0.128   0.159 -2.6226  2.4845 -1.2133
  618SOL     OW 1852   2.605   1.856   2.420  0.1782 -0.6116 -0.2598
  618SOL    HW1 1853   2.599   1.927   2.348  3.7485 -2.8864  1.7413
  618SOL    HW2 1854   2.639   1.891   2.507  3.5896 -2.6385 -0.8319
  619SOL     OW 1855   2.322   1.859   0.994  0.5696  0.1139  0.5884
  619SOL    HW1 1856   2.355   1.895   1.080  0.0161 -1.9859 -0.1326
  619SOL    HW2 1857   2.387   1.877   0.917 -1.7964 -1.3400  2.5992
  620SOL     OW 1858   2.452   3.014   1.597  0.0456  0.1467  0.3378
  620SOL    HW1 1859   2.432   2.920   1.569 -1.6991  0.3997 -1.5486
  620SOL    HW2 1860   2.456   3.028   1.698 -0.6424 -2.8720 -1.3263
  621SOL     OW 1861   3.001   1.921   1.011 -0.1120  0.1266 -0.3717
  621SOL    HW1 1862   3.041   1.827   1.029 -1.4510  1.4887  0.4436
  621SOL    HW2 1863   3.070   1.992   0.987 -2.7515  0.1416  1.2184
  622SOL     OW 1864   0.756   1.881   2.534  0.3107  0.1282 -0.0461
  622SOL    HW1 1865   0.712   1.860   2.625 -1.8279  0.4756 -1.5466
  622SOL    HW2 1866   0.857   1.890   2.537  0.3145  0.1651  1.3730
  623SOL     OW 1867   2.709   2.712   2.545  0.2799 -0.1271  0.4843
  623SOL    HW1 1868   2.807   2.716   2.566 -0.9667  0.3251 -1.2223
  623SOL    HW2 1869   2.682   2.618   2.518 -2.3406 -0.0316 -1.7805
  624SOL     OW 1870   0.687   2.017   0.336 -0.0028  0.3327 -0.6174
  624SOL    HW1 1871   0.699   1.919   0.363  0.1096 -0.0212 -0.8934
  624SOL    HW2 1872   0.589   2.040   0.319 -2.4900  0.3012  1.2471
  625SOL     OW 1873   0.539   1.910   2.128 -0.1099  0.4452  0.6150
  625SOL    HW1 1874   0.624   1.855   2.144  1.0496 -0.1946 -0.5807
  625SOL    HW2 1875   0.557   1.993   2.075 -1.6326 -0.0092 -0.0760
  626SOL     OW 1876   0.449   2.549   0.132 -0.3233  0.4620 -0.1208
  626SOL    HW1 1877   0.407   2.470   0.079  0.8372 -1.3444 -2.9086
  626SOL    HW2 1878   0.451   2.523   0.227  4.4221 -1.1770 -0.7214
  627SOL     OW 1879   1.124   1.351   3.040 -0.1996 -0.4610 -0.9292
  627SOL    HW1 1880   1.183   1.366   2.962 -1.9584 -0.3236 -0.1953
  627SOL    HW2 1881   1.066   1.267   3.027 -0.0056  0.2444 -0.9786
  628SOL     OW 1882   1.487   2.090   0.732  0.0406 -0.1061 -0.3782
  628SOL    HW1 1883   1.415   2.053   0.792  2.5693 -1.0360 -0.1867
  628SOL    HW2 1884   1.564   2.024   0.714  2.4532  1.3345 -2.1181
  629SOL     OW 1885   0.651   0.326   1.463 -0.0085  0.2044  0.5012
  629SOL    HW1 1886   0.588   0.256   1.499 -4.3292 -1.1476 -1.3431
  629SOL    HW2 1887   0.741   0.296   1.432 -0.9524  1.2230  1.4779
  630SOL     OW 1888   2.521   0.368   1.622  0.4123 -0.6020 -0.3589
  630SOL    HW1 1889   2.450   0.298   1.631  0.7221  2.2094 -1.0913
  630SOL    HW2 1890   2.482   0.420   1.541  0.9633  0.0958 -2.2761
  631SOL     OW 1891   1.379   0.215   1.019  0.4819 -0.1401  0.2167
  631SOL    HW1 1892   1.327   0.179   0.942  2.4069  2.0796 -0.4485
  631SOL    HW2 1893   1.330   0.243   1.102 -1.4378 -0.6082 -1.3870
  632SOL     OW 1894   2.694   0.765   1.898  0.2627  0.4814 -0.3059
  632SOL    HW1 1895   2.796   0.781   1.896  0.7575 -1.0360  0.2267
  632SOL    HW2 1896   2.673   0.666   1.877 -0.2985 -1.8246 -0.4913
  633SOL     OW 1897   1.335   1.150   2.986 -0.3541 -0.0508 -0.0788
  633SOL    HW1 1898   1.366   1.227   3.049  4.1390 -0.1082 -3.2848
  633SOL    HW2 1899   1.357   1.168   2.888  3.0131 -1.3871  0.4519
  634SOL     OW 1900   0.448   2.252   0.053 -0.2474 -0.1667  0.2471
  634SOL    HW1 1901   0.547   2.290   0.073  2.5565  2.2327  1.2375
  634SOL    HW2 1902   0.433   2.233   3.038 -0.6010 -0.3261  2.8709
  635SOL     OW 1903   2.999   1.493   2.016  0.7389  0.0883  0.1067
  635SOL    HW1 1904   2.901   1.532   2.023 -3.3124 -0.4965 -0.8045
  635SOL    HW2 1905   3.053   1.492   2.104 -0.0611  1.8762  0.5451
  636SOL     OW 1906   0.020   1.650   0.181  0.3886 -0.8237  0.4895
  636SOL    HW1 1907   0.064   1.616   0.091  1.5698 -0.8650 -1.3899
  636SOL    HW2 1908   0.089   1.697   0.241 -1.9232  0.4366 -3.7355
  637SOL     OW 1909   2.839   2.414   0.468  0.1586  1.0304 -0.3720
  637SOL    HW1 1910   2.913   2.441   0.410 -1.9711  2.7167  0.9065
  637SOL    HW2 1911   2.858   2.431   0.565 -2.1759 -0.0483  0.7293
  638SOL     OW 1912   2.569   2.833   0.069  0.8117 -0.7446  0.5536
  638SOL    HW1 1913   2.523   2.741   0.046 -1.3904 -2.8383 -0.0021
  638SOL    HW2 1914   2.667   2.839   0.048 -0.8859  0.9380  0.5616
  639SOL     OW 1915   1.333   0.465   3.032 -0.2134  0.1513 -0.2102
  639SOL    HW1 1916   1.286   0.555   3.028 -0.2403  1.8179  0.2130
  639SOL    HW2 1917   1.314   0.423   0.037  1.8862 -1.2746 -1.5808
  640SOL     OW 1918   2.389   1.971   1.698  0.3764 -0.5206  0.1270
  640SOL    HW1 1919   2.441   2.008   1.776 -0.6571  1.8219  1.3949
  640SOL    HW2 1920   2.321   2.037   1.660  3.0967  0.0930 -1.2234
  641SOL     OW 1921   2.849   3.043   1.263 -0.1332  0.8834  0.2366
  641SOL    HW1 1922   2.799   2.984   1.198  1.5652  0.3306 -1.3679
  641SOL    HW2 1923   2.946   3.043   1.233 -0.5489 -0.7063  0.4365
  642SOL     OW 1924   1.593   1.132   1.441  0.2146 -0.2169  0.0345
  642SOL    HW1 1925   1.595   1.033   1.422 -0.3317  0.4595 -1.5260
  642SOL    HW2 1926   1.496   1.160   1.465  0.5150  1.9508  2.3235
  643SOL     OW 1927   1.046   1.690   2.195 -0.3231 -0.1192 -0.6590
  643SOL    HW1 1928   1.053   1.709   2.296  2.2043  2.0519 -2.4087
  643SOL    HW2 1929   1.111   1.744   2.141 -1.2843 -1.9989  0.9309
  644SOL     OW 1930   1.851   0.283   1.968  0.0370  0.3702 -0.7624
  644SOL    HW1 1931   1.799   0.236   2.040 -0.7995 -1.7133 -1.0375
  644SOL    HW2 1932   1.796   0.369   1.940 -0.3298  0.2326  0.0381
  645SOL     OW 1933   1.455   1.337   1.726  0.2407  0.4993 -0.3718
  645SOL    HW1 1934   1.398   1.264   1.675 -0.6821  1.2111 -3.2345
  645SOL    HW2 1935   1.549   1.308   1.736 -1.6939  2.4713 -0.8501
  646SOL     OW 1936   1.149   2.481   0.039 -0.0151 -0.5405 -0.7313
  646SOL    HW1 1937   1.149   2.458   3.024  1.4151  0.8778 -1.6700
  646SOL    HW2 1938   1.230   2.446   0.088 -3.1361  0.5882 -0.9441
  647SOL     OW 1939   1.409   2.270   1.092  0.5050  0.1319 -0.4865
  647SOL    HW1 1940   1.424   2.363   1.047 -0.7686  1.5384 -0.5204
  647SOL    HW2 1941   1.396   2.205   1.018  0.1241 -1.1823  1.6497
  648SOL     OW 1942   3.060   2.350   1.515  0.1743  0.2821 -0.3811
  648SOL    HW1 1943   3.026   2.349   1.422 -1.1056  1.4782  3.3601
  648SOL    HW2 1944   0.069   2.301   1.514 -1.6279  0.0720 -0.6142
  649SOL     OW 1945   1.160   2.415   2.492  0.2187 -0.4105  0.0667
  649SOL    HW1 1946   1.226   2.339   2.515 -1.1042  0.7118 -2.6035
  649SOL    HW2 1947   1.063   2.391   2.513  1.3589 -0.0877  1.9572
  650SOL     OW 1948   2.971   1.865   2.913 -0.0606  0.2708 -0.2491
  650SOL    HW1 1949   2.953   1.863   3.012 -0.5751  3.6342 -0.7020
  650SOL    HW2 1950   3.048   1.799   2.892 -0.5137 -1.0844  2.6867
  651SOL     OW 1951   2.409   2.235   2.181 -0.0701  0.5942 -0.0048
  651SOL    HW1 1952   2.346   2.153   2.166 -4.0264 -3.3558  1.5155
  651SOL    HW2 1953   2.428   2.279   2.093  1.2266 -0.3067  2.4941
  652SOL     OW 1954   2.153   2.755   0.833  0.0774  0.3821 -0.3404
  652SOL    HW1 1955   2.243   2.791   0.795 -0.7938  0.6057  1.4282
  652SOL    HW2 1956   2.083   2.762   0.758  0.5380 -0.6429  1.3277
  653SOL     OW 1957   3.017   1.214   1.407  0.2085  0.0234  0.3980
  653SOL    HW1 1958   2.943   1.224   1.479  0.4527  0.3872  2.0774
  653SOL    HW2 1959   2.984   1.232   1.307  0.7078 -1.0261 -3.6510
  654SOL     OW 1960   0.964   0.501   2.788 -0.3257 -0.0231  0.2311
  654SOL    HW1 1961   0.931   0.581   2.734 -3.1167  0.7572 -1.2963
  654SOL    HW2 1962   0.925   0.503   2.881 -1.1773  2.0499 -0.8127
  655SOL     OW 1963   1.209   0.877   1.059  0.0132  0.1216  0.1095
  655SOL    HW1 1964   1.124   0.834   1.086  2.1612  0.0525 -0.4551
  655SOL    HW2 1965   1.249   0.919   1.142 -1.8089 -2.9186 -0.9443
  656SOL     OW 1966   0.946   2.679   2.058 -0.0870  0.0944  0.1151
  656SOL    HW1 1967   0.865   2.613   2.058 -2.4209 -0.2287 -0.0843
  656SOL    HW2 1968   1.028   2.639   2.100 -0.7706 -1.3145  0.7654
  657SOL     OW 1969   2.156   1.305   0.236 -0.2466 -0.2153 -0.2282
  657SOL    HW1 1970   2.115   1.236   0.172 -0.8322  1.0453  0.4789
  657SOL    HW2 1971   2.259   1.307   0.226 -0.2751 -1.3377  1.3653
  658SOL     OW 1972   1.488   2.345   1.789 -0.0621 -0.5448 -0.6245
  658SOL    HW1 1973   1.466   2.444   1.805 -1.2168  0.0837  0.7890
  658SOL    HW2 1974   1.572   2.316   1.840  1.0579  0.8114  1.8560
  659SOL     OW 1975   2.952   1.852   0.097 -0.0660  0.1635 -0.1597
  659SOL    HW1 1976   2.867   1.800   0.104  1.9124 -0.7073 -0.7324
  659SOL    HW2 1977   3.026   1.793   0.142  2.7494  0.7769 -1.9467
  660SOL     OW 1978   0.945   0.146   0.699 -0.1859  0.3232  0.2069
  660SOL    HW1 1979   0.960   0.046   0.679  3.6293 -1.2348 -0.9396
  660SOL    HW2 1980   1.031   0.196   0.697 -1.9139 -1.3502  1.7760
  661SOL     OW 1981   1.723   0.260   0.328  0.0872 -0.1616  0.2273
  661SOL    HW1 1982   1.664   0.233   0.247  1.3798  1.0277 -0.5753
  661SOL    HW2 1983   1.747   0.359   0.330 -0.6401  0.1311  0.8216
  662SOL     OW 1984   0.419   0.498   0.564 -0.3222  0.5016  0.5331
  662SOL    HW1 1985   0.406   0.452   0.475  1.1521  1.6895  0.6686
  662SOL    HW2 1986   0.387   0.595   0.560 -0.2183  0.6133  1.5835
  663SOL     OW 1987   1.647   2.962   2.277 -0.1646  0.4161 -0.3903
  663SOL    HW1 1988   1.557   3.012   2.257  0.7109 -2.7207  0.2998
  663SOL    HW2 1989   1.674   2.903   2.197  3.3267  0.4364  0.5918
  664SOL     OW 1990   0.845   2.602   1.631 -0.7046 -0.0157  0.3203
  664SOL    HW1 1991   0.751   2.559   1.635  0.9403  2.2156 -0.6211
  664SOL    HW2 1992   0.892   2.562   1.544 -0.1531  0.2912 -0.4833
  665SOL     OW 1993   1.215   2.301   1.735 -0.2425 -0.0899 -0.5733
  665SOL    HW1 1994   1.152   2.382   1.742 -2.1878  0.6510 -0.2567
  665SOL    HW2 1995   1.312   2.317   1.764  1.4502  1.1853 -0.9262
  666SOL     OW 1996   1.037   0.020   2.451  0.0157  0.3657 -0.1564
  666SOL    HW1 1997   1.023   3.070   2.547 -0.5641  1.2520  1.8243
  666SOL    HW2 1998   0.959   0.083   2.426 -0.1644  2.2539 -0.5953
  667SOL     OW 1999   2.651   0.879   1.550  0.3590  0.0889 -0.2823
  667SOL    HW1 2000   2.645   0.973   1.514  0.0762 -2.5004 -0.0100
  667SOL    HW2 2001   2.733   0.877   1.608 -2.9637  1.0825 -2.3235
  668SOL     OW 2002   1.685   3.044   1.340 -0.2295 -0.1557 -0.4929
  668SOL    HW1 2003   1.608   2.988   1.363  2.2869  1.1240 -0.3852
  668SOL    HW2 2004   1.713   0.030   1.415  1.7645  1.4176 -0.6259
  669SOL     OW 2005   2.832   2.467   1.258 -0.2480  0.5969 -0.4570
  669SOL    HW1 2006   2.787   2.379   1.267  2.3625  1.2342  0.6616
  669SOL    HW2 2007   2.775   2.523   1.198  1.4431 -1.2636  1.5186
  670SOL     OW 2008   1.267   2.197   2.787  0.2119 -0.2895 -0.5062
  670SOL    HW1 2009   1.337   2.230   2.853 -2.4761 -0.8428  2.8140
  670SOL    HW2 2010   1.308   2.194   2.693 -3.8041 -0.5700  0.2527
  671SOL     OW 2011   0.562   1.221   0.372  0.8109  0.2272  0.8195
  671SOL    HW1 2012   0.491   1.224   0.301  1.2056  0.6901  1.2869
  671SOL    HW2 2013   0.526   1.267   0.458  1.1527  1.0012  0.1479
  672SOL     OW 2014   2.550   1.132   0.053  0.5469 -0.1443  0.2206
  672SOL    HW1 2015   2.615   1.081   0.110  1.4058  0.4857 -2.9415
  672SOL    HW2 2016   2.511   1.209   0.111  1.1261 -1.4912  2.7682
  673SOL     OW 2017   0.169   1.829   1.696 -0.6967 -0.8942 -0.1297
  673SOL    HW1 2018   0.099   1.771   1.736  2.9332  1.0522  1.0020
  673SOL    HW2 2019   0.257   1.781   1.674 -2.4098 -1.4542  0.8502
  674SOL     OW 2020   1.020   2.145   1.882 -0.1360  0.2084  0.1183
  674SOL    HW1 2021   0.984   2.090   1.806 -2.3815  2.1579  1.9866
  674SOL    HW2 2022   1.099   2.204   1.854 -1.2590 -0.1925 -1.5732
  675SOL     OW 2023   1.307   0.985   1.274  0.1409  0.1300  0.2386
  675SOL    HW1 2024   1.294   0.948   1.366  0.4880  3.4014  0.6398
  675SOL    HW2 2025   1.237   1.060   1.248  1.7020 -0.4494 -1.0714
  676SOL     OW 2026   2.128   0.472   1.106  0.0849 -0.6566 -0.4128
  676SOL    HW1 2027   2.104   0.570   1.084  0.0357 -1.8285 -1.0136
  676SOL    HW2 2028   2.149   0.424   1.021  2.4139  0.4058 -0.4517
  677SOL     OW 2029   2.538   0.631   0.133 -0.4676  0.3190 -0.5368
  677SOL    HW1 2030   2.469   0.679   0.194 -2.6974 -0.2859 -1.1155
  677SOL    HW2 2031   2.595   0.576   0.200  0.4517  2.1860 -1.1831
  678SOL     OW 2032   2.433   1.492   1.245  0.8972  0.6857  0.3178
  678SOL    HW1 2033   2.461   1.480   1.145  0.4005 -0.5844 -1.2435
  678SOL    HW2 2034   2.342   1.544   1.252 -2.7415  1.3967  1.9357
  679SOL     OW 2035   2.550   0.664   2.807  0.1319 -0.5414  0.2199
  679SOL    HW1 2036   2.547   0.715   2.720  2.6023 -1.4967  0.1696
  679SOL    HW2 2037   2.583   0.724   2.884 -1.5742  0.1649 -0.5720
  680SOL     OW 2038   0.451   1.125   2.136  0.0140 -0.7814  0.0890
  680SOL    HW1 2039   0.466   1.031   2.173  2.1109 -0.5155 -1.2898
  680SOL    HW2 2040   0.363   1.161   2.173 -0.7309  1.7867 -1.3846
  681SOL     OW 2041   2.728   1.915   1.718  0.1521 -0.1780  0.2917
  681SOL    HW1 2042   2.700   1.821   1.750 -1.8513 -0.7065  2.1947
  681SOL    HW2 2043   2.765   1.909   1.623  0.0273  0.7242  2.5843
  682SOL     OW 2044   0.334   1.877   2.882 -0.1839  0.0862 -0.3622
  682SOL    HW1 2045   0.352   1.974   2.869 -0.1044 -3.9100  0.7577
  682SOL    HW2 2046   0.420   1.828   2.859  3.0172  3.4096 -0.1868
  683SOL     OW 2047   2.644   2.166   0.962  0.2630 -0.3376 -0.2064
  683SOL    HW1 2048   2.672   2.083   0.910 -1.0773 -0.0327  0.3283
  683SOL    HW2 2049   2.668   2.154   1.058 -1.4783 -1.7288 -4.2724
  684SOL     OW 2050   2.547   0.961   2.004  0.1319  0.2377 -0.2090
  684SOL    HW1 2051   2.595   0.881   1.963  0.3956  1.6979 -0.9169
  684SOL    HW2 2052   2.610   1.003   2.076 -0.3553  2.3901 -0.9421
  685SOL     OW 2053   1.250   0.656   0.924  0.6430 -0.2531  0.1498
  685SOL    HW1 2054   1.158   0.623   0.904 -1.2408  1.5038  0.1214
  685SOL    HW2 2055   1.239   0.747   0.974 -1.0682 -1.1922  1.8047
  686SOL     OW 2056   0.539   0.248   0.028  0.1504  0.1991 -0.2305
  686SOL    HW1 2057   0.518   0.163   0.070 -0.3559  1.4743  0.9316
  686SOL    HW2 2058   0.582   0.301   0.103  1.5009 -1.9328 -2.4438
  687SOL     OW 2059   0.233   2.383   2.508 -0.5422  0.2967 -0.4224
  687SOL    HW1 2060   0.182   2.373   2.421  0.0486 -0.8799 -0.5048
  687SOL    HW2 2061   0.240   2.287   2.553 -0.9355 -4.1422  2.7748
  688SOL     OW 2062   2.133   0.506   1.520  0.7530 -0.5845 -0.4980
  688SOL    HW1 2063   2.153   0.607   1.514 -1.4674  0.7230 -3.5223
  688SOL    HW2 2064   2.186   0.464   1.439  1.8057 -1.8938  0.5014
  689SOL     OW 2065   1.821   0.915   0.802 -0.0158 -0.3071  0.0873
  689SOL    HW1 2066   1.895   0.981   0.833  2.5235  1.3683 -0.9968
  689SOL    HW2 2067   1.741   0.929   0.863  1.2008  1.1212  1.1712
  690SOL     OW 2068   3.064   0.929   1.387  0.6525  0.4682  0.4922
  690SOL    HW1 2069   0.016   1.024   1.369  2.5354  3.3542 -0.5849
  690SOL    HW2 2070   3.075   0.869   1.306 -1.2532 -0.2624 -0.0234
  691SOL     OW 2071   3.051   1.056   1.857  0.2733 -0.3218 -0.0702
  691SOL    HW1 2072   0.065   1.073   1.821  1.1664 -1.3694 -1.0782
  691SOL    HW2 2073   2.987   1.135   1.830 -2.5849  1.5265 -1.5460
  692SOL     OW 2074   0.932   0.673   1.838  0.1763 -0.1613  0.1459
  692SOL    HW1 2075   0.972   0.604   1.898  0.1530 -0.8106 -1.2205
  692SOL    HW2 2076   0.926   0.643   1.741 -2.6917 -1.5567  2.3151
  693SOL     OW 2077   0.495   1.288   2.496  0.7632 -0.4940 -0.2301
  693SOL    HW1 2078   0.534   1.372   2.451 -0.0318  0.8045  3.9998
  693SOL    HW2 2079   0.394   1.295   2.505 -1.0809  0.4015  0.9063
  694SOL     OW 2080   1.329   1.581   0.464 -0.2737  0.6900  0.5021
  694SOL    HW1 2081   1.414   1.626   0.497 -1.4086  2.3342  1.8349
  694SOL    HW2 2082   1.278   1.546   0.547 -1.3416 -1.7440  1.3521
  695SOL     OW 2083   0.618   1.141   1.255  0.0964 -0.7705 -0.2764
  695SOL    HW1 2084   0.625   1.222   1.195  2.0196 -2.8720 -0.9813
  695SOL    HW2 2085   0.523   1.142   1.297  1.2844 -1.7914  0.9757
  696SOL     OW 2086   0.332   2.719   0.413  0.4900  0.4224  0.2460
  696SOL    HW1 2087   0.347   2.780   0.493 -1.0957  3.2469  1.3780
  696SOL    HW2 2088   0.352   2.622   0.436 -0.5529  2.1475  0.2121
  697SOL     OW 2089   1.628   0.499   1.309  0.2141 -0.3667  0.6953
  697SOL    HW1 2090   1.604   0.570   1.242 -0.4411  0.3412 -0.2364
  697SOL    HW2 2091   1.725   0.483   1.322 -0.6433  0.6795  1.7236
  698SOL     OW 2092   1.429   1.600   1.689 -0.0759  0.1511 -0.1428
  698SOL    HW1 2093   1.497   1.657   1.742  0.9173  0.6118 -1.9414
  698SOL    HW2 2094   1.445   1.496   1.692  0.9289 -0.8143  1.8099
  699SOL     OW 2095   0.019   0.372   2.444  0.5450 -0.2409  0.2175
  699SOL    HW1 2096   0.012   0.470   2.412 -0.4333  1.0374 -0.0075
  699SOL    HW2 2097   0.071   0.313   2.376  0.1196 -3.2027  1.2961
  700SOL     OW 2098   1.547   2.693   0.889 -0.4468  0.2116 -0.3068
  700SOL    HW1 2099   1.521   2.769   0.945 -2.4004 -1.3145  2.2240
  700SOL    HW2 2100   1.623   2.719   0.825 -2.4615 -1.4124 -2.6991
  701SOL     OW 2101   0.042   1.461   2.612  0.9236  0.3103 -0.1915
  701SOL    HW1 2102   0.075   1.551   2.590  2.7025 -1.1928  0.8380
  701SOL    HW2 2103   0.027   1.454   2.708 -0.4914 -0.5240 -1.1563
  702SOL     OW 2104   0.457   0.379   2.874  0.1042 -0.2509  0.5809
  702SOL    HW1 2105   0.359   0.351   2.850 -2.3909 -2.0069 -2.0909
  702SOL    HW2 2106   0.480   0.344   2.966 -0.9914  0.4476 -2.0120
  703SOL     OW 2107   1.760   3.030   2.529  0.0456 -0.2744  0.2077
  703SOL    HW1 2108   1.751   0.049   2.508 -1.7630 -0.1781 -0.2532
  703SOL    HW2 2109   1.702   2.979   2.458  0.3157 -2.1891  1.0527
  704SOL     OW 2110   2.769   1.749   0.331 -0.0039 -0.2777  0.7040
  704SOL    HW1 2111   2.718   1.747   0.419  0.5861 -0.3912  1.0011
  704SOL    HW2 2112   2.854   1.812   0.341  0.7908  0.3861 -0.6572
  705SOL     OW 2113   2.755   1.890   2.087 -0.0098  0.1995 -0.1587
  705SOL    HW1 2114   2.786   1.794   2.089  0.3764  0.7963 -1.2683
  705SOL    HW2 2115   2.720   1.919   2.178 -0.2404  0.4844 -1.4289
  706SOL     OW 2116   2.823   2.682   0.863 -0.4585 -0.5113  0.7139
  706SOL    HW1 2117   2.891   2.705   0.934  1.5737 -0.1549 -1.6351
  706SOL    HW2 2118   2.841   2.738   0.777  1.2168 -0.6027 -1.8476
  707SOL     OW 2119   0.843   2.877   0.352 -0.3971  0.2120 -0.4235
  707SOL    HW1 2120   0.940   2.858   0.384  2.6596  0.2461  1.6253
  707SOL    HW2 2121   0.829   2.850   0.254 -0.1539 -1.0470 -1.5668
  708SOL     OW 2122   0.607   2.181   1.535 -0.3637 -0.1779  0.2801
  708SOL    HW1 2123   0.545   2.188   1.453 -2.4182  0.7716 -0.5166
  708SOL    HW2 2124   0.703   2.161   1.498  0.2667 -0.4699  1.0386
  709SOL     OW 2125   1.710   0.116   2.153 -0.3833 -0.1400  0.6351
  709SOL    HW1 2126   1.647   0.191   2.186 -1.9872  0.0757  0.3432
  709SOL    HW2 2127   1.697   0.037   2.219 -0.8700  0.0848  1.3949
  710SOL     OW 2128   1.466   2.821   2.589 -0.3859 -0.6071  0.5569
  710SOL    HW1 2129   1.527   2.811   2.507 -0.7920  0.0458 -2.1181
  710SOL    HW2 2130   1.374   2.805   2.557  0.2269 -3.0142  0.1888
  711SOL     OW 2131   1.133   2.433   2.849 -0.6150 -0.3895 -0.3040
  711SOL    HW1 2132   1.030   2.420   2.852 -0.0565 -1.2427  0.3256
  711SOL    HW2 2133   1.191   2.352   2.833 -0.1537  1.6341 -1.3604
  712SOL     OW 2134   1.028   2.025   2.806  0.0401  0.7623 -0.1181
  712SOL    HW1 2135   1.103   2.090   2.800 -0.9777  0.1067 -0.2725
  712SOL    HW2 2136   1.028   1.982   2.711 -1.1171 -2.6551  0.3352
  713SOL     OW 2137   1.333   1.174   1.552  0.1320  0.6582 -0.5039
  713SOL    HW1 2138   1.278   1.233   1.488  2.0341 -0.4526 -2.4029
  713SOL    HW2 2139   1.274   1.095   1.574  2.8886  0.1035  1.6889
  714SOL     OW 2140   1.437   1.486   1.171  0.1097 -0.3258  0.0637
  714SOL    HW1 2141   1.471   1.491   1.266 -0.8071 -3.1258 -2.0191
  714SOL    HW2 2142   1.435   1.578   1.126 -0.3802  2.0152 -1.6034
  715SOL     OW 2143   2.575   0.017   0.778 -0.8071 -0.3862  0.0686
  715SOL    HW1 2144   2.564   3.029   0.847  0.0959 -0.4837 -3.0899
  715SOL    HW2 2145   2.597   0.110   0.814 -1.7128  1.9112  2.3900
  716SOL     OW 2146   0.551   2.827   0.675 -0.5097 -0.6857  0.4552
  716SOL    HW1 2147   0.598   2.778   0.598 -1.9868 -0.4788  2.5689
  716SOL    HW2 2148   0.615   2.902   0.716  0.5690  2.1496  1.7544
  717SOL     OW 2149   0.049   0.343   0.027 -0.3511  0.6553  0.0230
  717SOL    HW1 2150   3.030   0.339   0.024  1.9300 -2.3783 -1.2000
  717SOL    HW2 2151   0.078   0.253   0.074  1.1091  0.1021  0.7157
  718SOL     OW 2152   1.702   1.736   1.236 -0.3372 -0.4635  0.3273
  718SOL    HW1 2153   1.723   1.800   1.313  1.5265 -0.1375  0.6022
  718SOL    HW2 2154   1.657   1.655   1.274  0.4916 -0.2095 -0.3994
  719SOL     OW 2155   2.706   2.608   0.275  0.2101 -0.0843 -0.4393
  719SOL    HW1 2156   2.756   2.561   0.203  1.2992  0.9814  2.9904
  719SOL    HW2 2157   2.730   2.571   0.368  0.4830  0.1541  0.7997
  720SOL     OW 2158   1.063   1.004   0.839 -0.1382  0.0699 -0.1731
  720SOL    HW1 2159   1.119   0.950   0.908  1.6674  1.1644 -1.7478
  720SOL    HW2 2160   1.127   1.029   0.761  0.3419  0.8750  0.3803
  721SOL     OW 2161   1.629   0.179   1.121 -0.0411  0.5334 -0.0776
  721SOL    HW1 2162   1.535   0.195   1.079 -1.6293  3.6745 -0.0480
  721SOL    HW2 2163   1.625   0.114   1.198 -0.8605  0.8080  0.5184
  722SOL     OW 2164   1.052   1.444   2.071 -0.8195 -0.2706  0.1734
  722SOL    HW1 2165   1.129   1.419   2.012  0.6309  1.9599 -1.3371
  722SOL    HW2 2166   1.056   1.541   2.104 -0.2846  2.6023  0.8705
  723SOL     OW 2167   0.944   0.010   1.614 -0.2767  0.3919  0.0692
  723SOL    HW1 2168   1.030   0.057   1.587 -0.2057  1.1301 -1.1842
  723SOL    HW2 2169   0.957   3.002   1.658  1.0729  3.4590 -1.3292
  724SOL     OW 2170   2.081   1.985   1.936  0.1445  0.7883  0.4426
  724SOL    HW1 2171   2.031   2.051   1.876 -1.4468  1.6319 -3.1746
  724SOL    HW2 2172   2.030   1.898   1.939  2.2878  0.8328 -1.6378
  725SOL     OW 2173   1.209   2.531   1.381 -0.1297  0.2976  0.0401
  725SOL    HW1 2174   1.240   2.602   1.311 -0.3424  0.8666 -1.7868
  725SOL    HW2 2175   1.256   2.542   1.468  0.5124  0.6281 -1.9097
  726SOL     OW 2176   1.657   2.674   3.002  0.2971 -0.2645 -0.4471
  726SOL    HW1 2177   1.638   2.746   2.934 -0.9329 -1.1031 -1.4633
  726SOL    HW2 2178   1.759   2.669   3.020  2.9754  1.3493 -1.3392
  727SOL     OW 2179   1.350   1.776   0.811  0.0755  0.3677  0.0240
  727SOL    HW1 2180   1.256   1.794   0.786  0.8985 -3.3195  0.4183
  727SOL    HW2 2181   1.388   1.726   0.730  3.1140  1.0362  1.4424
  728SOL     OW 2182   2.032   2.846   2.376 -0.1906 -0.2682  0.0211
  728SOL    HW1 2183   2.020   2.929   2.432  2.9070  0.0601  0.6083
  728SOL    HW2 2184   2.101   2.786   2.418 -1.5577 -0.1880  0.0695
  729SOL     OW 2185   2.427   1.854   1.443  0.8982 -0.0954  0.5543
  729SOL    HW1 2186   2.449   1.890   1.538  2.9535  4.8772  2.5943
  729SOL    HW2 2187   2.327   1.838   1.436 -2.1044  0.3611 -0.1649
  730SOL     OW 2188   1.866   0.595   2.372 -0.2715 -0.1110 -0.0269
  730SOL    HW1 2189   1.882   0.493   2.364 -0.0863 -1.0099  0.2089
  730SOL    HW2 2190   1.889   0.627   2.468 -0.5728 -0.3266  0.7675
  731SOL     OW 2191   0.471   0.124   1.177 -0.2347 -0.2227  0.2463
  731SOL    HW1 2192   0.432   0.133   1.271 -1.7547  0.2311 -3.3962
  731SOL    HW2 2193   0.492   0.212   1.136 -1.1065  1.5891  0.9786
  732SOL     OW 2194   1.823   3.039   0.930 -0.1983 -0.1779  0.4167
  732SOL    HW1 2195   1.891   0.033   0.930 -0.3372 -3.2136 -0.6624
  732SOL    HW2 2196   1.832   2.977   1.012 -0.4338 -0.7775  2.5350
  733SOL     OW 2197   0.878   1.427   1.261  0.1100  0.4211  0.3913
  733SOL    HW1 2198   0.913   1.437   1.164  3.6427  3.7123 -2.0380
  733SOL    HW2 2199   0.945   1.459   1.328  0.8197 -0.3739  1.5836
  734SOL     OW 2200   2.338   1.982   0.271  0.0651  0.3012 -0.0614
  734SOL    HW1 2201   2.300   1.895   0.310 -0.7274 -1.9564 -0.7675
  734SOL    HW2 2202   2.425   1.966   0.218 -1.4652  0.1655  1.7813
  735SOL     OW 2203   0.573   0.833   0.280 -0.6492  0.3680  0.0268
  735SOL    HW1 2204   0.610   0.750   0.238 -0.4131  3.3754  0.4371
  735SOL    HW2 2205   0.606   0.834   0.377  0.0072 -0.1402  1.7516
  736SOL     OW 2206   1.821   2.398   2.584  0.0381 -0.1130 -0.9103
  736SOL    HW1 2207   1.881   2.423   2.505  1.3095 -2.9732  0.8622
  736SOL    HW2 2208   1.868   2.421   2.671  2.8365 -0.9687  0.2957
  737SOL     OW 2209   1.084   1.995   1.246  0.3613  0.6112  0.1503
  737SOL    HW1 2210   1.066   2.020   1.149  2.6098  0.6333 -1.7560
  737SOL    HW2 2211   1.124   2.070   1.300  0.7583 -3.7486 -2.1565
  738SOL     OW 2212   1.891   2.663   2.200 -0.3532  0.6049  0.2026
  738SOL    HW1 2213   1.788   2.658   2.210  1.2978 -0.3797  0.0679
  738SOL    HW2 2214   1.929   2.746   2.242 -0.2877 -0.3181  2.5333
  739SOL     OW 2215   1.363   2.027   2.149 -0.3574 -0.3832 -0.1041
  739SOL    HW1 2216   1.397   2.109   2.202  1.6337  0.4887 -0.7558
  739SOL    HW2 2217   1.386   1.940   2.195 -0.4668  0.1596 -0.3675
  740SOL     OW 2218   2.200   2.398   1.792  0.1766 -0.8521 -0.4606
  740SOL    HW1 2219   2.175   2.342   1.867  1.0394  0.1540 -4.3453
  740SOL    HW2 2220   2.114   2.444   1.768  0.1322 -1.0964 -0.0544
  741SOL     OW 2221   2.084   1.890   2.960  0.2340  0.8003  0.4012
  741SOL    HW1 2222   1.987   1.858   2.980 -4.9359 -0.0662 -0.5619
  741SOL    HW2 2223   2.125   1.834   2.883 -0.7305  0.1438 -1.8314
  742SOL     OW 2224   0.554   1.063   2.935  0.1635 -0.0516 -0.2010
  742SOL    HW1 2225   0.484   1.133   2.912  0.8545  1.1931 -0.0580
  742SOL    HW2 2226   0.571   1.005   2.854 -0.5814  2.6554 -0.8315
  743SOL     OW 2227   1.868   0.817   2.799 -0.4034  0.0462  0.7302
  743SOL    HW1 2228   1.973   0.809   2.801  4.1635  1.2527 -0.4235
  743SOL    HW2 2229   1.824   0.865   2.880 -1.5375  0.7207  1.6327
  744SOL     OW 2230   2.095   2.979   1.375  0.0809 -0.1639  0.2785
  744SOL    HW1 2231   2.169   2.938   1.431  1.7335  1.2831  0.6287
  744SOL    HW2 2232   2.091   3.077   1.397  0.1891 -0.1286 -2.7304
  745SOL     OW 2233   2.576   1.432   1.033  0.2883  0.0552 -0.2992
  745SOL    HW1 2234   2.677   1.427   1.025  0.6959 -0.2935  0.5206
  745SOL    HW2 2235   2.532   1.383   0.951 -0.5729 -1.4349  0.0714
  746SOL     OW 2236   2.763   1.944   0.859 -0.4188  0.0868  0.2827
  746SOL    HW1 2237   2.702   1.863   0.874 -0.0406 -0.1414 -1.6884
  746SOL    HW2 2238   2.852   1.935   0.914 -0.2380  0.0281  1.9704
  747SOL     OW 2239   2.074   2.866   0.189  0.0829 -0.2252  0.0930
  747SOL    HW1 2240   2.164   2.838   0.164 -2.1991  0.8350 -0.8771
  747SOL    HW2 2241   2.067   2.872   0.290  0.3067 -0.1314 -0.3517
  748SOL     OW 2242   0.847   2.097   3.008  0.2502 -0.7060  0.3006
  748SOL    HW1 2243   0.910   2.069   2.933 -0.6762 -1.6544 -1.0499
  748SOL    HW2 2244   0.772   2.032   3.020 -1.2598  1.2416 -1.3224
  749SOL     OW 2245   2.749   0.499   2.296 -0.2831  0.1537  0.0586
  749SOL    HW1 2246   2.715   0.442   2.371 -1.2427  1.2660 -1.1122
  749SOL    HW2 2247   2.851   0.501   2.298 -1.6474  1.3521 -0.9625
  750SOL     OW 2248   1.098   0.418   1.664 -0.1351 -0.1413 -0.1572
  750SOL    HW1 2249   1.096   0.424   1.763  0.4788 -0.2146  2.0717
  750SOL    HW2 2250   1.031   0.488   1.634  1.2432  0.5424  1.6139
  751SOL     OW 2251   2.425   2.374   1.938  0.1766 -0.3401 -0.2592
  751SOL    HW1 2252   2.345   2.370   1.876  1.2127  0.2129 -1.5100
  751SOL    HW2 2253   2.480   2.458   1.915 -1.1603  0.6954 -0.0461
  752SOL     OW 2254   1.917   1.535   1.280 -0.6120 -0.3797 -0.3436
  752SOL    HW1 2255   1.856   1.605   1.239 -1.9578  1.0206  1.6180
  752SOL    HW2 2256   1.874   1.443   1.280  1.2448  0.0547 -0.7706
  753SOL     OW 2257   1.493   0.939   2.351  0.1767 -0.4388 -0.5050
  753SOL    HW1 2258   1.477   1.040   2.359 -3.6187 -0.4613  2.5483
  753SOL    HW2 2259   1.405   0.889   2.349 -0.1951 -0.7043 -1.8275
  754SOL     OW 2260   0.153   2.358   0.985 -0.3424  0.2057 -0.1411
  754SOL    HW1 2261   0.233   2.419   0.994 -0.6764 -1.8069 -1.2430
  754SOL    HW2 2262   0.091   2.356   1.063  1.3584  1.8447 -0.8191
  755SOL     OW 2263   2.631   2.832   1.428 -0.5492 -0.0950  0.0154
  755SOL    HW1 2264   2.608   2.907   1.490 -1.5354 -2.4685 -0.3189
  755SOL    HW2 2265   2.712   2.776   1.457 -0.3312  2.5833  0.6555
  756SOL     OW 2266   1.549   1.202   2.551  0.1645  0.3460  0.2935
  756SOL    HW1 2267   1.587   1.290   2.585 -0.7680 -1.3057  0.2072
  756SOL    HW2 2268   1.471   1.228   2.492  1.4034 -0.4916  0.2882
  757SOL     OW 2269   2.847   2.818   1.921 -0.2860 -0.1382 -0.1449
  757SOL    HW1 2270   2.862   2.824   2.021  0.1534 -0.2913 -1.8832
  757SOL    HW2 2271   2.796   2.900   1.887 -0.0610  1.3280 -2.8524
  758SOL     OW 2272   0.553   2.775   1.434  0.0432  0.3053 -0.3066
  758SOL    HW1 2273   0.515   2.826   1.355  0.5070 -0.1901  1.8207
  758SOL    HW2 2274   0.504   2.688   1.444  0.6565  1.5925 -0.6995
  759SOL     OW 2275   2.206   1.235   0.952  0.0595 -0.6895  0.4581
  759SOL    HW1 2276   2.205   1.235   1.054 -0.6498  0.2692  0.3075
  759SOL    HW2 2277   2.261   1.307   0.911 -0.8669 -1.3278  2.0600
  760SOL     OW 2278   1.758   0.242   1.519  0.3546 -0.0030 -0.4565
  760SOL    HW1 2279   1.816   0.168   1.559  1.0989  0.5461 -1.0149
  760SOL    HW2 2280   1.813   0.287   1.444  0.9542  0.3468  0.0614
  761SOL     OW 2281   2.107   0.452   0.573  0.4158  0.1952  0.2010
  761SOL    HW1 2282   2.094   0.380   0.497 -1.9168  1.5348 -1.0997
  761SOL    HW2 2283   2.165   0.526   0.538 -3.7997 -0.9006 -1.5037
  762SOL     OW 2284   2.219   2.612   0.241  0.2472 -0.7360  0.3747
  762SOL    HW1 2285   2.294   2.602   0.306 -1.5357 -0.1938  1.6330
  762SOL    HW2 2286   2.123   2.580   0.268 -0.3092 -0.6915 -2.5276
  763SOL     OW 2287   1.049   0.636   1.294 -0.0707  0.1714 -0.2736
  763SOL    HW1 2288   0.979   0.562   1.269  1.5636 -0.5304 -2.4514
  763SOL    HW2 2289   1.016   0.731   1.262  1.6571 -0.3143 -2.3960
  764SOL     OW 2290   2.395   2.564   2.695  0.5558  0.8865 -0.0235
  764SOL    HW1 2291   2.480   2.514   2.670 -0.3069 -0.3309 -2.8983
  764SOL    HW2 2292   2.313   2.502   2.698 -1.8346  0.4719  2.5954
  765SOL     OW 2293   3.069   1.028   2.654  0.6933 -0.4802  0.0651
  765SOL    HW1 2294   3.061   0.925   2.653 -0.2535 -0.9423  0.9126
  765SOL    HW2 2295   0.083   1.054   2.657 -1.7397 -1.7005 -0.3464
  766SOL     OW 2296   2.678   1.439   2.672  0.2977 -0.3407 -0.5263
  766SOL    HW1 2297   2.627   1.492   2.605 -0.0277 -0.8442  0.7252
  766SOL    HW2 2298   2.753   1.389   2.623  2.6791  0.5753  1.5193
  767SOL     OW 2299   0.319   2.072   1.766 -0.1147 -0.0813  0.1343
  767SOL    HW1 2300   0.261   1.991   1.786  1.7692  4.5198 -0.6524
  767SOL    HW2 2301   0.271   2.163   1.778  2.9627  6.0949  1.6889
  768SOL     OW 2302   1.075   0.875   2.697 -0.1026 -0.1185  0.3889
  768SOL    HW1 2303   0.989   0.817   2.684 -0.7260  0.2174 -1.3248
  768SOL    HW2 2304   1.070   0.918   2.791 -2.9389  0.5722 -0.9505
  769SOL     OW 2305   1.677   2.884   2.781 -0.1840  0.3335  0.3360
  769SOL    HW1 2306   1.773   2.882   2.742 -1.5407  1.6287  0.5832
  769SOL    HW2 2307   1.611   2.859   2.705 -0.2574 -1.0768  2.4847
  770SOL     OW 2308   0.850   0.201   2.385  0.3840 -0.3084 -0.4309
  770SOL    HW1 2309   0.789   0.178   2.305 -1.8024  0.3864 -1.0861
  770SOL    HW2 2310   0.815   0.281   2.436 -0.4018 -0.5734 -1.1956
  771SOL     OW 2311   0.759   2.544   0.811  0.0567 -0.5896 -0.3398
  771SOL    HW1 2312   0.768   2.571   0.711 -1.7209  0.6644  2.5080
  771SOL    HW2 2313   0.801   2.448   0.826  1.0081 -2.3443  2.1236
  772SOL     OW 2314   2.943   0.797   0.305  0.4770 -0.7642 -0.1707
  772SOL    HW1 2315   2.933   0.705   0.263 -0.2544  2.6238  2.7394
  772SOL    HW2 2316   2.867   0.812   0.375  2.5243  1.4464 -1.0615
  773SOL     OW 2317   1.571   1.051   1.930 -0.2248 -0.0561 -0.0148
  773SOL    HW1 2318   1.641   0.993   1.978 -1.2916 -2.0477 -1.0287
  773SOL    HW2 2319   1.586   1.058   1.829 -0.5248 -1.7560  3.4448
  774SOL     OW 2320   0.639   0.758   0.542  0.1637  0.0188  0.3941
  774SOL    HW1 2321   0.699   0.829   0.577  0.7198 -3.5065 -1.2336
  774SOL    HW2 2322   0.685   0.674   0.565  0.0379  3.2471 -0.5381
  775SOL     OW 2323   1.725   3.065   0.126  0.3917  0.9734  0.0154
  775SOL    HW1 2324   1.671   3.016   0.198  0.3573 -0.0397 -0.5191
  775SOL    HW2 2325   1.684   0.074   0.111  1.6852  0.8242 -2.8133
  776SOL     OW 2326   2.270   0.266   2.364  0.2367 -0.3698 -0.4719
  776SOL    HW1 2327   2.279   0.340   2.438 -0.0121  1.1593  0.3678
  776SOL    HW2 2328   2.279   0.300   2.270  1.5668  0.9367  3.4426
  777SOL     OW 2329   0.916   1.536   0.029 -0.1741 -0.6094 -0.4099
  777SOL    HW1 2330   1.003   1.491   3.079  1.1017 -1.0314  1.1824
  777SOL    HW2 2331   0.858   1.466   0.075 -2.3662 -1.3854  2.0904
  778SOL     OW 2332   0.010   2.583   0.274 -0.2327  0.3842 -0.2158
  778SOL    HW1 2333   0.077   2.506   0.282  0.1350  0.1809  0.4447
  778SOL    HW2 2334   0.051   2.668   0.240 -0.0510 -1.7121  0.9885
  779SOL     OW 2335   0.379   1.232   0.162 -0.4126  0.1793  0.0297
  779SOL    HW1 2336   0.288   1.254   0.200  3.0139 -0.5927  1.0775
  779SOL    HW2 2337   0.395   1.134   0.151 -1.6316  0.4116  2.1924
  780SOL     OW 2338   2.049   0.209   2.118  0.2641 -0.2212 -0.6589
  780SOL    HW1 2339   2.128   0.269   2.120 -0.8775 -1.2685  0.2530
  780SOL    HW2 2340   1.988   0.239   2.041  1.7790  0.7940 -0.2364
  781SOL     OW 2341   1.689   1.001   1.685 -0.8095  0.3538 -0.0905
  781SOL    HW1 2342   1.679   1.043   1.591 -2.0433 -1.5630  0.3137
  781SOL    HW2 2343   1.753   0.922   1.686 -0.2169  1.1298  0.9738
  782SOL     OW 2344   1.924   1.882   2.246  0.2158  0.2835  0.2812
  782SOL    HW1 2345   1.892   1.938   2.325 -0.4133  1.0577  1.5062
  782SOL    HW2 2346   1.978   1.803   2.281 -0.3473 -1.0263  1.0547
  783SOL     OW 2347   1.420   0.180   1.834  0.5978  0.8573 -0.1507
  783SOL    HW1 2348   1.330   0.136   1.861  1.3032 -2.2167 -1.9069
  783SOL    HW2 2349   1.500   0.125   1.860  1.7644 -0.7341 -0.8259
  784SOL     OW 2350   1.878   0.914   2.536 -0.0761 -0.0037 -0.1682
  784SOL    HW1 2351   1.856   0.858   2.614  1.2413  1.7845 -2.7722
  784SOL    HW2 2352   1.966   0.886   2.497 -1.3235 -0.0027  2.1904
  785SOL     OW 2353   1.774   0.539   0.329 -0.0762  0.1388 -0.8171
  785SOL    HW1 2354   1.728   0.537   0.238 -0.4004  0.1351  0.0298
  785SOL    HW2 2355   1.853   0.601   0.340  0.6863  3.1048 -2.2626
  786SOL     OW 2356   0.024   1.789   0.618 -0.3381 -0.4855 -0.2246
  786SOL    HW1 2357   3.045   1.871   0.605 -0.3528  2.0685 -1.0487
  786SOL    HW2 2358   3.054   1.702   0.635  1.4479 -0.8285 -0.9772
  787SOL     OW 2359   1.639   2.230   0.444  0.0032  0.0390  0.1404
  787SOL    HW1 2360   1.539   2.225   0.439  0.3390  0.3302 -1.0950
  787SOL    HW2 2361   1.677   2.212   0.536 -2.5064 -1.8776  0.0022
  788SOL     OW 2362   2.044   1.679   1.668  0.4722 -0.3458  0.1400
  788SOL    HW1 2363   2.096   1.743   1.608  0.5936  0.4370  0.4524
  788SOL    HW2 2364   1.949   1.650   1.641 -0.2158 -0.9579  2.3463
  789SOL     OW 2365   2.883   1.290   2.566 -0.1765  0.0216  0.1875
  789SOL    HW1 2366   2.964   1.336   2.605  1.2296  3.3438  2.2920
  789SOL    HW2 2367   2.912   1.199   2.533 -2.0514  3.4033  0.9342
  790SOL     OW 2368   0.532   3.072   2.776 -0.0533 -0.1681 -0.4386
  790SOL    HW1 2369   0.557   0.086   2.737 -1.4260 -0.4602  0.7573
  790SOL    HW2 2370   0.433   3.076   2.816  1.5140  0.0835 -0.2103
  791SOL     OW 2371   0.998   2.993   2.687  0.3575  0.2096 -0.2655
  791SOL    HW1 2372   0.914   2.952   2.730 -1.9676 -0.5630  1.6648
  791SOL    HW2 2373   1.067   3.013   2.758  1.3554 -0.3249 -2.0529
  792SOL     OW 2374   1.688   0.516   1.964 -0.6026  0.8576  0.5580
  792SOL    HW1 2375   1.644   0.547   2.049  1.9350  0.0579 -0.6421
  792SOL    HW2 2376   1.650   0.556   1.882  0.1615 -2.4842  2.9253
  793SOL     OW 2377   2.603   0.153   2.102 -0.2355 -0.1442 -0.3559
  793SOL    HW1 2378   2.698   0.113   2.106  0.1240 -1.2721  1.2490
  793SOL    HW2 2379   2.596   0.255   2.110  0.1118  0.2724  0.4159
  794SOL     OW 2380   0.555   0.562   1.800  0.4194 -0.3824  0.1938
  794SOL    HW1 2381   0.578   0.622   1.881  0.2636 -1.3358 -4.0278
  794SOL    HW2 2382   0.462   0.567   1.763  0.5660  1.0049 -0.3387
  795SOL     OW 2383   2.949   1.513   0.372  0.2803  0.0821 -0.1637
  795SOL    HW1 2384   2.929   1.421   0.323 -3.5146 -3.3042 -3.3390
  795SOL    HW2 2385   3.000   1.584   0.316 -0.9236 -1.8236 -1.6664
  796SOL     OW 2386   2.791   2.409   2.947 -0.1648 -0.1633 -0.1947
  796SOL    HW1 2387   2.806   2.430   3.045 -0.5853 -0.1930  1.4513
  796SOL    HW2 2388   2.734   2.321   2.933 -2.0203 -2.8477 -1.5577
  797SOL     OW 2389   2.301   2.410   0.499 -0.1721  0.0433 -0.2526
  797SOL    HW1 2390   2.341   2.330   0.446 -2.2717 -2.2719 -0.6838
  797SOL    HW2 2391   2.343   2.498   0.475 -0.8965  0.4434  0.9653
  798SOL     OW 2392   0.403   0.903   1.459 -0.0089 -0.2312 -0.5916
  798SOL    HW1 2393   0.328   0.845   1.504 -0.1655 -1.2093 -0.4445
  798SOL    HW2 2394   0.370   0.993   1.424  1.9048  1.5827 -0.5026
  799SOL     OW 2395   3.031   0.598   2.300  0.4765  0.3995 -0.0316
  799SOL    HW1 2396   2.980   0.684   2.320  0.8215  1.3081  0.4116
  799SOL    HW2 2397   0.002   0.604   2.211  1.6377 -1.7176 -0.9744
  800SOL     OW 2398   2.673   2.201   0.411 -0.8125  0.0492  0.0736
  800SOL    HW1 2399   2.739   2.124   0.396  1.4262 -0.4457 -1.5724
  800SOL    HW2 2400   2.721   2.288   0.414  2.4086 -0.6305 -0.0708
  801SOL     OW 2401   1.400   1.143   0.803  0.2990 -0.2835  0.0172
  801SOL    HW1 2402   1.315   1.118   0.757  0.0277  1.7344  0.9892
  801SOL    HW2 2403   1.385   1.190   0.887  1.0814  0.8800 -1.8375
  802SOL     OW 2404   1.439   1.727   1.078  0.5627  0.1256  0.7962
  802SOL    HW1 2405   1.522   1.784   1.100  2.6845 -0.1016 -3.3080
  802SOL    HW2 2406   1.423   1.724   0.974  1.3190 -0.6217 -4.1043
  803SOL     OW 2407   2.882   2.025   0.440 -0.4415  0.2926 -0.0201
  803SOL    HW1 2408   2.903   2.029   0.539  1.0407  1.3279 -2.3324
  803SOL    HW2 2409   2.972   2.032   0.387  0.9331  3.3768 -0.3264
  804SOL     OW 2410   1.399   2.491   0.953 -0.0031 -0.3875  0.5563
  804SOL    HW1 2411   1.309   2.490   0.902 -0.6005  1.7761  0.0414
  804SOL    HW2 2412   1.453   2.579   0.929 -0.1375  1.6196 -3.3709
  805SOL     OW 2413   1.483   1.641   2.829  0.5511 -0.1930 -0.0526
  805SOL    HW1 2414   1.536   1.658   2.919 -2.1057 -0.5909  4.7708
  805SOL    HW2 2415   1.465   1.540   2.812  2.0842  2.9885  0.8262
  806SOL     OW 2416   1.590   2.838   1.588 -0.3297 -0.1870 -0.0153
  806SOL    HW1 2417   1.522   2.891   1.636  2.0353 -0.0453 -1.1902
  806SOL    HW2 2418   1.545   2.807   1.501 -3.0436 -1.3873  0.4779
  807SOL     OW 2419   1.938   2.925   2.694 -0.3670 -0.2905 -0.2432
  807SOL    HW1 2420   1.875   2.969   2.623 -0.7358 -0.3046 -1.1479
  807SOL    HW2 2421   2.006   2.995   2.722 -1.1515  2.4597 -1.4324
  808SOL     OW 2422   0.130   1.304   0.224 -0.1888 -0.0521 -0.0133
  808SOL    HW1 2423   0.049   1.250   0.242  1.1092  0.5616 -2.5021
  808SOL    HW2 2424   0.148   1.368   0.306 -0.1254 -1.3719 -1.0422
  809SOL     OW 2425   2.336   0.911   2.292  0.0914  0.6227  0.2146
  809SOL    HW1 2426   2.285   0.995   2.265 -1.2128 -0.0122  0.3805
  809SOL    HW2 2427   2.425   0.945   2.330 -1.9244  0.1208 -2.1605
  810SOL     OW 2428   2.919   0.086   2.202 -0.0270 -0.3274 -0.3401
  810SOL    HW1 2429   3.012   0.107   2.232 -0.4483  0.9110 -0.7524
  810SOL    HW2 2430   2.895   0.156   2.133 -0.1016  0.7292  2.6212
  811SOL     OW 2431   2.263   2.240   1.584  0.2544 -0.1037  0.5678
  811SOL    HW1 2432   2.252   2.305   1.663 -0.9901 -0.7166 -3.1520
  811SOL    HW2 2433   2.362   2.214   1.560  4.3647 -0.9223 -0.4756
  812SOL     OW 2434   1.613   0.425   2.976 -0.8186  0.4903  0.1199
  812SOL    HW1 2435   1.517   0.445   2.950  1.1017 -1.5058  1.5234
  812SOL    HW2 2436   1.643   0.472   3.064  1.3824  1.4304  2.3801
  813SOL     OW 2437   1.957   0.586   1.945 -0.2536 -0.2715 -0.0290
  813SOL    HW1 2438   1.858   0.571   1.965  0.3474 -0.1402  0.7176
  813SOL    HW2 2439   2.013   0.498   1.932  1.8865  1.4152 -2.9920
  814SOL     OW 2440   1.942   1.331   1.555  0.2921  0.1219  0.1725
  814SOL    HW1 2441   2.016   1.333   1.624 -2.6421  1.2232 -0.4284
  814SOL    HW2 2442   1.918   1.424   1.527  4.9064 -2.3384  1.9089
  815SOL     OW 2443   0.777   1.029   0.375 -0.2237  0.1100  0.1085
  815SOL    HW1 2444   0.692   1.082   0.395  1.3181  0.6775  0.6335
  815SOL    HW2 2445   0.774   1.001   0.279  2.7477  0.1301  0.2105
  816SOL     OW 2446   1.458   1.903   2.705 -0.0132  0.0880  0.0891
  816SOL    HW1 2447   1.464   1.806   2.729 -2.0814 -1.0176  0.7966
  816SOL    HW2 2448   1.546   1.949   2.726  0.5554 -1.9531  1.3513
  817SOL     OW 2449   0.116   2.781   0.806  0.0103  0.1066 -0.3884
  817SOL    HW1 2450   0.069   2.800   0.718  2.9037  2.1023 -1.2305
  817SOL    HW2 2451   0.215   2.772   0.797 -0.0329  2.3766 -2.4280
  818SOL     OW 2452   1.316   0.316   2.798 -0.5557  0.3299  0.7649
  818SOL    HW1 2453   1.296   0.370   2.882  1.3607 -1.6447 -1.6049
  818SOL    HW2 2454   1.233   0.260   2.767 -2.4661 -1.3350  0.3956
  819SOL     OW 2455   0.804   0.903   0.817  0.0253 -0.2018  0.1573
  819SOL    HW1 2456   0.879   0.970   0.827 -0.5835 -2.0698  0.8073
  819SOL    HW2 2457   0.751   0.894   0.907 -0.9889 -1.1654  0.8535
  820SOL     OW 2458   2.228   0.867   1.204 -0.3234  0.1056 -0.1647
  820SOL    HW1 2459   2.161   0.819   1.141  1.1135  0.1773 -0.7630
  820SOL    HW2 2460   2.217   0.836   1.301  1.0362  1.1551  0.6068
  821SOL     OW 2461   2.302   0.184   0.473  0.0420 -0.0508 -0.1738
  821SOL    HW1 2462   2.313   0.086   0.461  1.3698  1.6751  0.1768
  821SOL    HW2 2463   2.208   0.213   0.451  1.4625 -0.3197 -0.0927
  822SOL     OW 2464   0.776   2.917   2.428 -0.0962  0.5174 -0.5663
  822SOL    HW1 2465   0.815   2.999   2.475  0.1242  0.9634  2.9614
  822SOL    HW2 2466   0.784   2.830   2.480  1.1341 -2.2275  0.1897
  823SOL     OW 2467   3.061   1.648   1.796 -0.6900  0.1130 -0.2624
  823SOL    HW1 2468   3.042   1.599   1.884 -1.7802 -0.0692  0.2050
  823SOL    HW2 2469   2.992   1.619   1.726 -0.6559 -1.9591 -0.2252
  824SOL     OW 2470   0.843   2.933   2.143 -0.2313 -0.4294  0.2168
  824SOL    HW1 2471   0.806   2.942   2.234  2.3382 -2.1476 -1.9685
  824SOL    HW2 2472   0.858   2.832   2.127  0.1720 -0.4288 -1.3482
  825SOL     OW 2473   1.112   1.959   0.191 -0.4027 -0.1209 -0.1927
  825SOL    HW1 2474   1.143   1.959   0.091 -1.7408  0.9929 -0.7991
  825SOL    HW2 2475   1.182   1.910   0.248  2.7485  1.8526  1.0824
  826SOL     OW 2476   1.107   2.684   2.750  0.4438  0.2618 -0.0976
  826SOL    HW1 2477   1.052   2.703   2.829 -0.6974  0.4247  1.0914
  826SOL    HW2 2478   1.128   2.585   2.746 -0.4958  0.8346  1.5053
  827SOL     OW 2479   0.349   1.627   1.746  0.1965 -0.1228 -0.1979
  827SOL    HW1 2480   0.312   1.611   1.841 -2.0909 -1.3015  0.2730
  827SOL    HW2 2481   0.304   1.572   1.678 -0.8132  0.2013  1.9165
  828SOL     OW 2482   2.899   1.645   1.192  0.9951  0.0725 -0.0774
  828SOL    HW1 2483   2.970   1.641   1.263  0.7921 -0.4807  1.8647
  828SOL    HW2 2484   2.825   1.718   1.204  0.3446  1.8278  3.1453
  829SOL     OW 2485   2.910   2.486   0.123  0.0066 -0.5175  0.3418
  829SOL    HW1 2486   2.978   2.526   0.188  1.6715  0.6752 -1.0451
  829SOL    HW2 2487   2.930   2.387   0.107 -1.4360 -2.8899  0.7407
  830SOL     OW 2488   1.089   0.515   0.721  0.6333  0.1999  0.1768
  830SOL    HW1 2489   1.187   0.507   0.718  0.1108 -2.5415  0.5017
  830SOL    HW2 2490   1.050   0.428   0.685  1.3954 -0.2494  0.0545
  831SOL     OW 2491   2.934   2.201   0.113  0.0629 -0.6209  0.5708
  831SOL    HW1 2492   2.995   2.170   0.193 -1.4050  1.5123 -0.6822
  831SOL    HW2 2493   2.986   2.182   0.028 -1.8651  0.0212  2.2374
  832SOL     OW 2494   1.334   2.293   0.414 -0.0915  0.1527  0.2352
  832SOL    HW1 2495   1.248   2.241   0.425 -0.4179 -1.5855 -2.6191
  832SOL    HW2 2496   1.362   2.354   0.492 -1.3985 -2.7791 -3.0648
  833SOL     OW 2497   0.657   0.617   2.491  0.4155 -1.1931  0.0886
  833SOL    HW1 2498   0.701   0.599   2.400  1.5007 -0.5153 -1.6129
  833SOL    HW2 2499   0.585   0.693   2.484 -1.9217  0.7563 -0.5122
  834SOL     OW 2500   2.783   0.763   0.718  0.2994  0.3436 -0.4228
  834SOL    HW1 2501   2.691   0.708   0.725  0.5427 -1.3431  0.7355
  834SOL    HW2 2502   2.771   0.851   0.762 -0.3579  0.7671  1.5152
  835SOL     OW 2503   2.395   0.672   2.100 -0.0184  0.5852  0.0012
  835SOL    HW1 2504   2.401   0.695   1.999  1.4310  1.1739 -1.4306
  835SOL    HW2 2505   2.344   0.738   2.157  0.6921 -2.7827  0.7025
  836SOL     OW 2506   0.483   2.119   0.863  0.0420  0.0837 -0.4812
  836SOL    HW1 2507   0.406   2.123   0.796  1.4895  0.0778  1.5704
  836SOL    HW2 2508   0.463   2.182   0.938  0.0170 -0.2739 -0.3125
  837SOL     OW 2509   2.479   1.663   2.109 -0.0617 -0.2771  0.1846
  837SOL    HW1 2510   2.405   1.707   2.165 -0.9505  1.7656  0.0769
  837SOL    HW2 2511   2.441   1.651   2.016 -0.1046  1.8407 -1.4080
  838SOL     OW 2512   0.052   1.031   2.143 -0.0564 -0.1775  0.0438
  838SOL    HW1 2513   0.119   0.966   2.107 -0.6682  0.8847  1.5571
  838SOL    HW2 2514   3.062   1.037   2.073 -2.1854 -2.0671  0.7134
  839SOL     OW 2515   0.270   3.001   0.065 -0.2367 -0.6763 -0.8840
  839SOL    HW1 2516   0.299   2.950   3.062  0.1345 -1.9042  2.5726
  839SOL    HW2 2517   0.354   3.028   0.119  1.7129 -0.3809 -3.2612
  840SOL     OW 2518   2.902   0.813   2.375 -0.1843 -0.1671  0.0030
  840SOL    HW1 2519   2.807   0.783   2.404  0.6625 -2.4744 -3.9320
  840SOL    HW2 2520   2.915   0.916   2.377  0.3945  0.1983 -0.0029
  841SOL     OW 2521   0.575   2.138   2.418 -0.1078 -0.4809  0.0374
  841SOL    HW1 2522   0.557   2.062   2.483  2.7160 -0.0644  0.8772
  841SOL    HW2 2523   0.513   2.143   2.340  0.3265  2.5392  1.9752
  842SOL     OW 2524   0.830   0.164   1.076  0.6205  0.5102  0.1039
  842SOL    HW1 2525   0.772   0.101   1.135 -3.2171 -4.0592  3.9669
  842SOL    HW2 2526   0.849   0.246   1.130 -1.8607  3.1555 -0.5257
  843SOL     OW 2527   0.417   1.671   2.517 -0.1447  0.5539  0.1052
  843SOL    HW1 2528   0.492   1.640   2.461 -1.3777  1.2022  2.7213
  843SOL    HW2 2529   0.408   1.603   2.588 -0.8544 -0.2615  0.5946
  844SOL     OW 2530   1.453   1.823   2.332  0.1999 -0.1767 -0.0497
  844SOL    HW1 2531   1.414   1.739   2.290  1.5089  4.2060 -0.7770
  844SOL    HW2 2532   1.557   1.818   2.347 -0.0444 -0.7009 -2.4741
  845SOL     OW 2533   2.305   2.761   2.852 -0.0764 -0.0803  0.1452
  845SOL    HW1 2534   2.380   2.822   2.867 -1.7644 -0.4502  0.1370
  845SOL    HW2 2535   2.335   2.689   2.788  0.9619  0.0113  1.7605
  846SOL     OW 2536   1.971   1.593   3.006  0.0542  0.4698  0.4423
  846SOL    HW1 2537   1.905   1.673   2.988 -1.2601  0.8233  0.9970
  846SOL    HW2 2538   1.992   1.578   0.019 -0.9495 -4.2300  0.7535
  847SOL     OW 2539   2.394   0.314   2.803 -0.4814 -0.0012 -0.6323
  847SOL    HW1 2540   2.491   0.282   2.791 -3.4445 -0.0795  1.7135
  847SOL    HW2 2541   2.387   0.358   2.892 -0.3007 -0.7934 -0.9400
  848SOL     OW 2542   2.826   0.657   3.028 -0.1098 -0.5005 -0.5050
  848SOL    HW1 2543   2.754   0.724   3.052  0.4107 -1.3598 -3.6992
  848SOL    HW2 2544   2.799   0.597   2.946  2.3672 -0.4294 -2.1233
  849SOL     OW 2545   1.313   0.246   2.421  0.5416  0.8407  0.1352
  849SOL    HW1 2546   1.299   0.172   2.493  2.0509 -0.9820 -1.8098
  849SOL    HW2 2547   1.316   0.341   2.458  3.0913 -1.5528 -1.9772
  850SOL     OW 2548   2.722   0.910   0.483  0.0309  0.1474  0.0217
  850SOL    HW1 2549   2.755   0.858   0.567  0.0125  0.2717  1.0769
  850SOL    HW2 2550   2.743   1.012   0.497  0.5671  4.7852 -0.0022
  851SOL     OW 2551   0.443   1.006   0.955  0.1415 -0.1991  0.6295
  851SOL    HW1 2552   0.388   0.926   0.972  0.4259  2.0064  0.6149
  851SOL    HW2 2553   0.400   1.087   1.001 -0.3205 -0.5503  1.5118
  852SOL     OW 2554   1.133   0.855   1.820  0.1598  0.2215  0.0571
  852SOL    HW1 2555   1.123   0.945   1.872  1.3231  1.4005  3.8575
  852SOL    HW2 2556   1.060   0.793   1.850  0.0341  2.3935  0.2829
  853SOL     OW 2557   1.621   1.170   2.860 -0.3532  0.6569  0.4454
  853SOL    HW1 2558   1.710   1.173   2.800 -0.1912 -0.3040 -0.7216
  853SOL    HW2 2559   1.630   1.086   2.919 -0.5812  1.4644  1.8486
  854SOL     OW 2560   1.482   1.264   2.049  0.1137 -0.0393 -0.5289
  854SOL    HW1 2561   1.509   1.180   1.999  1.1232  1.2559  2.1463
  854SOL    HW2 2562   1.400   1.313   2.011  0.2853  1.1026  1.0961
  855SOL     OW 2563   0.363   2.341   2.074 -0.6587 -0.0442  0.2737
  855SOL    HW1 2564   0.283   2.321   2.135  0.5614 -0.7240 -1.8589
  855SOL    HW2 2565   0.422   2.422   2.099 -0.6462  0.7761 -0.4697
  856SOL     OW 2566   1.178   1.027   2.193  0.2383  0.3126  0.2489
  856SOL    HW1 2567   1.099   1.043   2.253 -0.7046 -0.9946 -2.0259
  856SOL    HW2 2568   1.166   1.070   2.102  0.9489 -1.4069  0.3445
  857SOL     OW 2569   1.023   0.931   2.407 -0.2922  0.0722  0.0613
  857SOL    HW1 2570   0.935   0.923   2.356 -1.8852  0.4921 -3.1250
  857SOL    HW2 2571   1.010   0.890   2.496  0.1545  0.1502  0.9911
  858SOL     OW 2572   0.055   0.523   1.743 -0.0509  0.5206  0.3547
  858SOL    HW1 2573   3.040   0.555   1.740 -1.8622 -0.9632 -0.7447
  858SOL    HW2 2574   0.084   0.519   1.843  1.6361  0.3438  3.0405
  859SOL     OW 2575   2.522   2.949   0.988  0.3695  1.0444 -0.0238
  859SOL    HW1 2576   2.443   2.981   1.042 -3.3800  1.7345 -0.2878
  859SOL    HW2 2577   2.602   2.925   1.050  2.0901  0.7308  1.9015
  860SOL     OW 2578   1.439   0.507   1.531  0.4081 -0.4829 -0.7022
  860SOL    HW1 2579   1.429   0.432   1.598 -1.2097  1.0745 -3.4315
  860SOL    HW2 2580   1.503   0.485   1.456  1.0170  0.8515 -1.2556
  861SOL     OW 2581   1.810   0.789   1.203  0.2647  0.0909 -0.3485
  861SOL    HW1 2582   1.786   0.776   1.299 -1.4531 -1.4824  0.6577
  861SOL    HW2 2583   1.742   0.749   1.139  1.6026 -0.7909 -2.3139
  862SOL     OW 2584   1.203   2.924   2.342 -0.1171  0.0392 -0.1087
  862SOL    HW1 2585   1.215   2.834   2.391 -0.4647  1.3566  1.9651
  862SOL    HW2 2586   1.140   2.985   2.396  0.0188  0.5332  0.2791
  863SOL     OW 2587   2.811   0.287   1.631 -0.0562 -0.2219  0.6783
  863SOL    HW1 2588   2.710   0.291   1.609  0.9673 -0.9320 -0.6631
  863SOL    HW2 2589   2.849   0.379   1.630 -2.3824  0.6307 -0.6773
  864SOL     OW 2590   2.929   2.881   2.174 -0.4274  0.0956 -0.4352
  864SOL    HW1 2591   2.836   2.847   2.211 -0.9538 -1.3922  1.5488
  864SOL    HW2 2592   2.928   2.979   2.151 -0.6654  2.3880  1.7928
  865SOL     OW 2593   0.816   1.234   2.731 -0.4085  0.4157  0.0983
  865SOL    HW1 2594   0.885   1.212   2.657  0.6411 -2.2561  0.4478
  865SOL    HW2 2595   0.765   1.319   2.707 -1.3168  1.6649 -2.0755
  866SOL     OW 2596   2.696   2.833   1.161 -0.0186  0.1102 -0.0881
  866SOL    HW1 2597   2.670   2.845   1.259 -1.6185  0.5558 -0.3793
  866SOL    HW2 2598   2.686   2.738   1.127 -0.9799  2.7090  0.1359
  867SOL     OW 2599   3.064   2.749   1.038 -0.2107 -0.4643 -0.2208
  867SOL    HW1 2600   0.026   2.769   0.947  0.1004  0.3095 -1.2664
  867SOL    HW2 2601   0.045   2.689   1.084  0.1320  0.8570  1.2146
  868SOL     OW 2602   2.858   1.591   1.590 -0.2088 -0.1485 -0.0218
  868SOL    HW1 2603   2.934   1.607   1.516  1.3947 -2.1859 -3.4752
  868SOL    HW2 2604   2.771   1.614   1.543 -0.5946  0.0696  0.7506
  869SOL     OW 2605   1.844   1.975   2.471  0.0443 -0.8122 -0.4124
  869SOL    HW1 2606   1.770   2.049   2.465 -0.4717 -0.1983 -1.2096
  869SOL    HW2 2607   1.929   2.024   2.504 -0.7372 -1.1992  0.6256
  870SOL     OW 2608   1.453   0.754   0.757  0.1906  0.1320 -0.1828
  870SOL    HW1 2609   1.488   0.831   0.803 -0.9958 -3.8457 -1.9182
  870SOL    HW2 2610   1.374   0.712   0.812 -0.1143 -2.0206  0.0605
  871SOL     OW 2611   2.744   1.600   2.059 -0.0136 -0.6441 -0.2060
  871SOL    HW1 2612   2.659   1.603   2.122 -1.9986 -0.1960  4.7556
  871SOL    HW2 2613   2.716   1.623   1.962  0.9094  0.4161 -0.1702
  872SOL     OW 2614   0.813   1.615   2.874 -0.1817 -0.6790  0.4090
  872SOL    HW1 2615   0.760   1.705   2.862 -1.5632  2.5256 -1.0248
  872SOL    HW2 2616   0.849   1.609   2.969 -2.9269  1.6048 -3.8402
  873SOL     OW 2617   0.829   1.194   1.743  0.3075 -0.0589  0.2216
  873SOL    HW1 2618   0.853   1.097   1.761  0.0142  3.7137  2.6098
  873SOL    HW2 2619   0.837   1.218   1.646 -0.8317 -1.4335  1.7976
  874SOL     OW 2620   1.491   0.769   1.225 -0.5564 -0.0555  0.1988
  874SOL    HW1 2621   1.442   0.681   1.211  1.1948  1.5945 -1.7505
  874SOL    HW2 2622   1.424   0.850   1.229 -3.2131  2.4288 -1.5958
  875SOL     OW 2623   2.598   2.880   2.761 -0.3092 -0.5049 -0.7449
  875SOL    HW1 2624   2.552   2.963   2.724  0.2233 -0.4349 -0.9375
  875SOL    HW2 2625   2.595   2.804   2.690 -0.1136 -0.7484  0.0972
  876SOL     OW 2626   0.937   1.207   0.527  0.0435  0.1239 -0.2386
  876SOL    HW1 2627   0.869   1.133   0.508 -1.0977 -2.3261  0.3233
  876SOL    HW2 2628   0.999   1.217   0.447  0.8867 -1.1224 -0.3895
  877SOL     OW 2629   2.045   2.943   0.443  0.5275 -0.3717 -0.0039
  877SOL    HW1 2630   1.975   3.017   0.450 -0.4894 -0.4281 -0.8170
  877SOL    HW2 2631   2.135   2.972   0.468 -1.8772 -0.1723 -0.8738
  878SOL     OW 2632   2.078   2.237   0.144 -0.0093  0.4607  0.2933
  878SOL    HW1 2633   2.130   2.169   0.090 -1.2755  0.2828  1.1463
  878SOL    HW2 2634   2.077   2.211   0.242 -1.9995  1.4954 -2.7757
  879SOL     OW 2635   0.592   2.449   1.560  0.1855 -0.0544 -0.2383
  879SOL    HW1 2636   0.538   2.470   1.476 -1.2327 -0.7202 -0.8785
  879SOL    HW2 2637   0.586   2.352   1.584  1.8621  0.1091 -0.7193
  880SOL     OW 2638   0.045   1.651   0.916 -0.0440  0.4436 -0.1791
  880SOL    HW1 2639   0.092   1.741   0.919  2.2032 -1.2177  0.3278
  880SOL    HW2 2640   0.023   1.622   0.820  1.0836  1.3451  0.8508
  881SOL     OW 2641   1.401   0.031   2.267 -0.5941 -0.5984  0.4124
  881SOL    HW1 2642   1.315   3.059   2.286 -1.1109  0.4849 -0.5399
  881SOL    HW2 2643   1.382   0.128   2.297  0.2332  0.0791 -0.5282
  882SOL     OW 2644   2.578   1.290   0.503  0.4282 -0.0819 -0.2036
  882SOL    HW1 2645   2.517   1.219   0.540  0.5968 -3.2506  0.3713
  882SOL    HW2 2646   2.676   1.261   0.519  2.3110 -1.4475  2.8052
  883SOL     OW 2647   1.282   0.631   2.103  0.2509 -0.4941 -0.5466
  883SOL    HW1 2648   1.288   0.695   2.185  2.4284  0.5245  1.3620
  883SOL    HW2 2649   1.297   0.682   2.015 -0.5291  3.8066 -0.8572
  884SOL     OW 2650   0.167   0.126   1.707  0.2267  0.1366  0.2389
  884SOL    HW1 2651   0.089   0.126   1.639 -0.2367 -0.3075 -1.2179
  884SOL    HW2 2652   0.238   0.195   1.680 -1.3966  3.2316 -0.8524
  885SOL     OW 2653   1.848   1.150   2.715 -0.3780 -0.1027 -0.3316
  885SOL    HW1 2654   1.902   1.230   2.677 -0.6642  2.6370  2.2939
  885SOL    HW2 2655   1.885   1.060   2.681  1.3089 -0.9831  1.1782
  886SOL     OW 2656   1.938   0.337   2.846 -0.2829 -0.4590 -0.3885
  886SOL    HW1 2657   1.991   0.358   2.759 -1.8277  1.2749  0.8522
  886SOL    HW2 2658   1.850   0.296   2.829  3.8836  1.3138  2.4765
  887SOL     OW 2659   1.131   2.868   1.442 -0.1265 -0.1852 -0.0486
  887SOL    HW1 2660   1.143   2.778   1.486 -0.3460  1.6560 -0.0304
  887SOL    HW2 2661   1.032   2.874   1.409  0.2372  2.3294  0.1894
  888SOL     OW 2662   2.134   1.440   1.730 -0.4309 -0.7741 -0.7979
  888SOL    HW1 2663   2.110   1.534   1.702 -0.8115  1.2781  2.5425
  888SOL    HW2 2664   2.232   1.425   1.721 -1.1051 -1.9755  0.5875
  889SOL     OW 2665   2.046   2.414   1.300  0.2641 -0.5212 -0.7792
  889SOL    HW1 2666   2.119   2.473   1.262  0.0461 -3.1720 -1.1720
  889SOL    HW2 2667   2.079   2.347   1.373 -1.2304 -2.0339 -1.9230
  890SOL     OW 2668   0.879   2.288   0.822  0.3707  0.6492 -0.1614
  890SOL    HW1 2669   0.895   2.198   0.778 -0.2882  1.0617 -1.0624
  890SOL    HW2 2670   0.969   2.325   0.850 -3.0564  1.9671  0.9219
  891SOL     OW 2671   2.824   1.292   0.233  0.2814  0.2744  0.1967
  891SOL    HW1 2672   2.815   1.301   0.133 -1.3439 -0.7196  0.8894
  891SOL    HW2 2673   2.883   1.211   0.264  0.5631  0.1054 -0.8336
  892SOL     OW 2674   2.404   1.626   2.733 -0.4102  0.2445  0.1082
  892SOL    HW1 2675   2.417   1.594   2.637  0.6213  0.1259  3.1896
  892SOL    HW2 2676   2.433   1.555   2.798  0.5234 -0.0918 -0.9863
  893SOL     OW 2677   2.428   2.739   1.278  0.4759 -0.2079  0.2447
  893SOL    HW1 2678   2.386   2.827   1.239 -2.0238 -1.3148 -0.3824
  893SOL    HW2 2679   2.506   2.768   1.332  0.8086  0.0410 -1.2479
  894SOL     OW 2680   2.882   0.452   0.601 -0.7057  0.2361  0.1815
  894SOL    HW1 2681   2.803   0.516   0.594 -0.5345  0.6290 -1.6784
  894SOL    HW2 2682   2.853   0.351   0.591 -1.9924 -1.7467  0.6081
  895SOL     OW 2683   2.586   2.399   2.580  0.0094  0.2532 -0.0840
  895SOL    HW1 2684   2.661   2.389   2.515  0.8268  0.5817 -1.5883
  895SOL    HW2 2685   2.581   2.321   2.649  0.4642 -2.0459 -1.7863
  896SOL     OW 2686   2.216   2.656   2.479  0.0380  0.3586 -0.6935
  896SOL    HW1 2687   2.250   2.614   2.566  1.8639 -3.2331  1.9495
  896SOL    HW2 2688   2.273   2.736   2.448 -0.9744 -1.0423  1.8221
  897SOL     OW 2689   0.263   1.604   2.030 -0.2078 -0.8410 -0.5699
  897SOL    HW1 2690   0.204   1.556   2.099  1.1446  1.1636  0.0733
  897SOL    HW2 2691   0.256   1.703   2.048  0.1137 -1.8610 -2.5358
  898SOL     OW 2692   0.033   2.006   2.123 -0.0723  0.1107 -0.4094
  898SOL    HW1 2693   3.061   1.928   2.159 -0.0493  0.2481  0.7026
  898SOL    HW2 2694   3.078   2.045   2.034  1.5671  1.3089 -1.3183
  899SOL     OW 2695   1.895   2.903   1.225 -0.3060  0.0859  0.5438
  899SOL    HW1 2696   1.827   2.973   1.253  0.7531 -0.6200 -1.8745
  899SOL    HW2 2697   1.982   2.910   1.281 -0.8098 -0.4135 -1.7297
  900SOL     OW 2698   1.340   0.962   0.396 -0.0210 -0.0167 -0.2428
  900SOL    HW1 2699   1.400   0.881   0.368  0.7185  1.6976  0.9164
  900SOL    HW2 2700   1.333   1.012   0.310 -1.5948 -1.8961  2.5827
  901SOL     OW 2701   0.999   1.180   2.521  0.4496 -0.2607  0.4917
  901SOL    HW1 2702   1.024   1.091   2.482 -0.3876 -0.0865  0.0699
  901SOL    HW2 2703   0.976   1.249   2.444 -0.8427  0.5336 -1.7060
  902SOL     OW 2704   2.867   2.428   0.761 -0.1245 -0.3012  0.4630
  902SOL    HW1 2705   2.837   2.518   0.804  0.6011  2.3926  0.3048
  902SOL    HW2 2706   2.819   2.349   0.800  0.1145 -0.1049 -2.2996
  903SOL     OW 2707   2.861   1.280   1.869 -0.2768  0.2322 -0.4403
  903SOL    HW1 2708   2.927   1.349   1.903 -0.1227  1.6284 -0.7308
  903SOL    HW2 2709   2.788   1.266   1.943 -0.8415 -1.5899  1.1411
  904SOL     OW 2710   1.362   1.305   0.380  0.3827  0.1017 -0.2028
  904SOL    HW1 2711   1.344   1.400   0.412  2.1589 -2.2917 -0.9851
  904SOL    HW2 2712   1.417   1.246   0.447  3.3543 -0.5127 -0.5693
  905SOL     OW 2713   2.572   2.331   1.508  0.0532  0.1582 -0.0428
  905SOL    HW1 2714   2.543   2.429   1.519 -0.2062 -1.4475  2.0768
  905SOL    HW2 2715   2.623   2.302   1.590  0.9150 -0.2732 -1.3383
  906SOL     OW 2716   1.621   2.437   2.899 -0.1387  0.0245 -0.4910
  906SOL    HW1 2717   1.659   2.356   2.947 -0.7873 -1.4596 -2.2338
  906SOL    HW2 2718   1.635   2.528   2.945 -1.0305 -0.3351  0.6855
  907SOL     OW 2719   0.367   2.641   0.761 -0.4891  0.1749  0.1937
  907SOL    HW1 2720   0.406   2.548   0.740 -0.5328 -0.9641 -0.7447
  907SOL    HW2 2721   0.442   2.706   0.755 -1.6096 -1.3098 -1.5473
  908SOL     OW 2722   0.570   0.295   1.841 -0.4760  0.7525 -0.0124
  908SOL    HW1 2723   0.659   0.257   1.865  1.7665  3.7302 -1.3790
  908SOL    HW2 2724   0.572   0.398   1.829  0.3930  1.8863 -0.8565
  909SOL     OW 2725   1.942   0.374   1.361  0.2315  0.2802 -0.0828
  909SOL    HW1 2726   2.003   0.448   1.395 -0.6877  2.5039  1.2124
  909SOL    HW2 2727   1.945   0.371   1.256  1.6430  1.2172 -0.3003
  910SOL     OW 2728   1.016   0.622   0.226 -0.1446 -0.2980 -0.1657
  910SOL    HW1 2729   1.054   0.655   0.138  1.2290  4.3004  1.8813
  910SOL    HW2 2730   1.004   0.703   0.289 -1.0660 -0.5179 -1.3630
  911SOL     OW 2731   0.203   0.279   2.861  0.2657  0.0804 -0.1442
  911SOL    HW1 2732   0.148   0.300   2.944 -2.4545  2.2821 -0.6277
  911SOL    HW2 2733   0.151   0.279   2.774 -0.5925 -0.1179  2.7471
  912SOL     OW 2734   2.902   2.424   2.677 -0.1972 -0.1256  0.8955
  912SOL    HW1 2735   2.909   2.520   2.651 -0.4548 -1.5137  1.2892
  912SOL    HW2 2736   2.852   2.413   2.766 -1.2393 -0.2603  0.4078
  913SOL     OW 2737   2.489   2.362   0.090 -0.1904  0.8424 -0.1830
  913SOL    HW1 2738   2.470   2.328   0.187 -1.8624 -1.4187 -0.2837
  913SOL    HW2 2739   2.489   2.464   0.089  0.4501 -1.4016 -0.8412
  914SOL     OW 2740   1.618   1.768   1.819  0.6764 -0.4698 -0.0251
  914SOL    HW1 2741   1.629   1.720   1.910  0.4871 -3.1882  0.9198
  914SOL    HW2 2742   1.600   1.868   1.837  0.2880  2.2257 -1.8568
  915SOL     OW 2743   3.028   2.485   2.171 -0.3604 -0.1299  0.1511
  915SOL    HW1 2744   3.069   2.516   2.081  1.3457 -1.1737 -2.0052
  915SOL    HW2 2745   3.029   2.559   2.239 -1.2395  0.2247  0.2334
  916SOL     OW 2746   2.972   0.808   1.932 -0.0993 -0.0471  0.4799
  916SOL    HW1 2747   3.004   0.909   1.928 -1.5887 -0.7296  0.3386
  916SOL    HW2 2748   3.002   0.767   2.018 -2.3052  0.9416 -1.9382
  917SOL     OW 2749   2.033   0.059   2.890 -0.4690  0.6189  0.2275
  917SOL    HW1 2750   2.005   0.015   2.984 -2.8935 -2.0999  1.3317
  917SOL    HW2 2751   2.010   0.158   2.901 -0.1802  4.3355  1.6914
  918SOL     OW 2752   1.999   2.433   2.164  0.2763  0.0081  0.2080
  918SOL    HW1 2753   2.052   2.415   2.250 -0.6320  0.0983  1.4349
  918SOL    HW2 2754   1.959   2.529   2.166  1.3871  0.8143  0.6094
  919SOL     OW 2755   2.143   2.255   2.014  0.7585  0.3699  0.1309
  919SOL    HW1 2756   2.085   2.325   2.064 -0.4715  0.1893 -1.0341
  919SOL    HW2 2757   2.108   2.159   2.016 -0.2290  0.6015  1.3475
  920SOL     OW 2758   0.353   0.952   0.138  0.4784 -0.6568  0.0791
  920SOL    HW1 2759   0.425   0.898   0.188  2.6443 -1.6335 -0.1443
  920SOL    HW2 2760   0.259   0.926   0.172 -0.9034 -1.1855  0.4200
  921SOL     OW 2761   2.643   1.133   2.648 -0.2936 -0.3386 -0.3825
  921SOL    HW1 2762   2.579   1.132   2.725 -0.5921  0.5153  1.3963
  921SOL    HW2 2763   2.683   1.227   2.644 -1.6920  0.4115  1.8231
  922SOL     OW 2764   0.427   1.817   0.082 -0.3466  0.5126  0.3142
  922SOL    HW1 2765   0.363   1.790   0.010 -0.7831  0.1091 -0.7338
  922SOL    HW2 2766   0.400   1.769   0.170 -3.8470 -0.7350  0.2333
  923SOL     OW 2767   0.461   0.838   2.143  0.6438 -0.8226 -0.2295
  923SOL    HW1 2768   0.449   0.780   2.227  0.5163 -0.9363  1.2908
  923SOL    HW2 2769   0.529   0.799   2.083  1.5787  3.1907  2.6763
  924SOL     OW 2770   0.678   2.713   2.690  0.9393 -0.2839  0.3355
  924SOL    HW1 2771   0.757   2.686   2.627  1.2326  0.2599  0.6033
  924SOL    HW2 2772   0.717   2.781   2.761  0.1389 -0.6305  0.2789
  925SOL     OW 2773   1.687   1.480   0.587 -0.1435 -0.1557 -0.1711
  925SOL    HW1 2774   1.631   1.394   0.588  0.2166 -0.9392  0.3444
  925SOL    HW2 2775   1.722   1.499   0.681 -1.4433  0.5996  0.4264
  926SOL     OW 2776   1.541   0.580   2.159  0.5760  0.0310  0.2723
  926SOL    HW1 2777   1.441   0.594   2.137 -1.5025 -1.1378 -1.6901
  926SOL    HW2 2778   1.581   0.661   2.203 -2.6222  1.8825  1.8146
  927SOL     OW 2779   2.927   2.399   1.747  0.2718  0.0294  0.3893
  927SOL    HW1 2780   2.990   2.388   1.664  1.1512  0.4464 -0.9212
  927SOL    HW2 2781   2.881   2.490   1.749 -3.7271  2.4307  1.2590
  928SOL     OW 2782   0.245   1.072   2.716  0.2051  0.7982  0.3705
  928SOL    HW1 2783   0.242   1.094   2.813 -0.8445 -0.2495 -1.5949
  928SOL    HW2 2784   0.263   0.972   2.707 -0.0555 -0.2678 -0.8315
  929SOL     OW 2785   3.055   0.099   0.765 -0.2618  0.1636 -0.0092
  929SOL    HW1 2786   3.075   0.002   0.730  0.7530  0.5856  0.4366
  929SOL    HW2 2787   0.062   0.146   0.786 -0.2452  2.3833  1.3557
  930SOL     OW 2788   2.294   0.221   1.891  0.2858  0.0245 -0.3703
  930SOL    HW1 2789   2.238   0.145   1.928 -1.2508  0.6447  2.1255
  930SOL    HW2 2790   2.329   0.207   1.796 -1.1090  3.5103  2.1672
  931SOL     OW 2791   2.169   1.149   0.005  0.2857 -0.4174  0.1331
  931SOL    HW1 2792   2.246   1.100   3.046  0.4976 -1.6470  0.8526
  931SOL    HW2 2793   2.114   1.203   3.020 -0.5830 -0.5216 -1.9660
  932SOL     OW 2794   2.380   1.311   1.680 -0.7689  0.1804 -0.1026
  932SOL    HW1 2795   2.376   1.313   1.576 -2.3628 -0.9926  1.8552
  932SOL    HW2 2796   2.407   1.214   1.706  2.6696 -1.6235  0.9563
  933SOL     OW 2797   0.097   2.671   1.470  0.2171 -0.0598  0.2037
  933SOL    HW1 2798   0.117   2.613   1.548 -0.2812 -0.4296 -1.9117
  933SOL    HW2 2799   0.074   2.763   1.512  2.3379  0.7565  1.2502
  934SOL     OW 2800   0.842   2.789   0.944 -0.0279  0.7623 -0.5459
  934SOL    HW1 2801   0.939   2.796   0.970  1.6271 -2.3657 -0.6262
  934SOL    HW2 2802   0.824   2.691   0.914 -0.3859  1.0579  3.7123
  935SOL     OW 2803   2.452   1.308   1.989  0.2984  0.3081  0.4683
  935SOL    HW1 2804   2.517   1.294   2.069  1.7619 -1.5057 -0.5764
  935SOL    HW2 2805   2.477   1.258   1.907  1.3230 -1.2039 -0.3366
  936SOL     OW 2806   2.128   1.162   1.806 -0.1864  0.2420  0.2777
  936SOL    HW1 2807   2.168   1.242   1.758 -2.1509 -1.2342  0.9858
  936SOL    HW2 2808   2.193   1.093   1.850 -2.1123 -2.0014  1.2194
  937SOL     OW 2809   1.931   1.012   2.217 -0.1537 -0.2244 -0.2352
  937SOL    HW1 2810   1.873   1.051   2.292  1.7869 -1.8333  1.1048
  937SOL    HW2 2811   1.884   0.935   2.167 -1.7671 -2.2888 -0.4508
  938SOL     OW 2812   0.764   2.522   3.060 -0.2299 -0.0126 -0.3896
  938SOL    HW1 2813   0.730   2.455   0.046  0.6800 -0.5297  3.6200
  938SOL    HW2 2814   0.814   2.604   0.018  2.2730  2.8427 -3.4453
  939SOL     OW 2815   2.595   0.806   3.025 -0.4151  0.1402 -0.2092
  939SOL    HW1 2816   2.567   0.902   3.040  0.4511 -2.0086 -1.5761
  939SOL    HW2 2817   2.561   0.741   0.014  1.0500  0.4537 -1.6984
  940SOL     OW 2818   1.077   2.066   0.976 -0.1095 -0.1032 -0.1987
  940SOL    HW1 2819   1.028   2.031   0.895  2.2992  2.2631  0.8320
  940SOL    HW2 2820   1.178   2.050   0.980 -0.2116 -0.9822  0.6597
  941SOL     OW 2821   0.904   2.036   1.643  0.2675  0.2231 -0.6649
  941SOL    HW1 2822   0.918   2.092   1.557  0.5537  1.5203 -2.0784
  941SOL    HW2 2823   0.807   2.034   1.674 -0.9014 -0.7530 -0.2499
  942SOL     OW 2824   0.289   2.146   2.631  0.2379 -0.4597  0.0919
  942SOL    HW1 2825   0.194   2.095   2.630 -1.8695 -5.9106 -2.0304
  942SOL    HW2 2826   0.364   2.082   2.604 -1.7067  1.3508  0.3385
  943SOL     OW 2827   1.858   2.962   1.750  0.2835 -0.8024 -0.2307
  943SOL    HW1 2828   1.917   2.915   1.817 -1.1041 -0.3715 -0.4697
  943SOL    HW2 2829   1.839   2.890   1.682  1.5846  0.6301  0.2260
  944SOL     OW 2830   1.232   1.940   3.008  0.4632 -0.5877  0.5730
  944SOL    HW1 2831   1.335   1.953   3.007  1.9271 -1.0074  2.9542
  944SOL    HW2 2832   1.178   1.989   2.936  1.8378  4.3548  0.7416
  945SOL     OW 2833   2.680   2.587   1.061 -0.5556 -0.0390  0.4825
  945SOL    HW1 2834   2.742   2.613   0.983  1.1299  1.1530  0.7362
  945SOL    HW2 2835   2.592   2.539   1.033 -2.6504 -2.2515 -0.9193
  946SOL     OW 2836   0.697   1.469   2.680 -0.1018  0.8583 -0.1815
  946SOL    HW1 2837   0.754   1.486   2.595  3.0569  0.4640 -0.3071
  946SOL    HW2 2838   0.736   1.502   2.769  0.2729  1.3215  2.3448
  947SOL     OW 2839   0.075   0.661   2.083  0.1808 -0.4502 -0.9817
  947SOL    HW1 2840   0.128   0.741   2.045 -2.2538 -2.5178 -0.8285
  947SOL    HW2 2841   0.108   0.566   2.056  1.1804 -2.2259 -0.0830
  948SOL     OW 2842   0.161   1.341   0.752 -0.2314 -0.2471  0.2224
  948SOL    HW1 2843   0.257   1.381   0.760  1.0898  0.5494  0.3297
  948SOL    HW2 2844   0.145   1.287   0.837  0.9317 -2.1140  2.4285
  949SOL     OW 2845   0.640   0.705   2.013 -0.2069  0.2865 -0.1901
  949SOL    HW1 2846   0.682   0.611   2.033  1.4682 -0.8139  4.1651
  949SOL    HW2 2847   0.712   0.776   2.024  1.7439  3.7840  0.8108
  950SOL     OW 2848   0.158   0.576   1.337  0.3437 -0.0805  0.0682
  950SOL    HW1 2849   0.208   0.548   1.252 -2.1540  0.5599  0.2822
  950SOL    HW2 2850   0.089   0.509   1.364  2.9791  1.3696  1.0489
  951SOL     OW 2851   0.715   0.990   2.700  0.0212  0.6561  0.4835
  951SOL    HW1 2852   0.735   1.084   2.724 -0.5192 -2.1579 -2.3670
  951SOL    HW2 2853   0.697   0.987   2.597  0.7282 -1.6067 -1.2817
  952SOL     OW 2854   1.817   2.032   0.753  0.0725  0.4660 -0.2940
  952SOL    HW1 2855   1.853   2.125   0.729  0.5363 -0.4451  0.0627
  952SOL    HW2 2856   1.879   1.975   0.813  0.6619  0.8766  0.4120
  953SOL     OW 2857   0.656   0.379   0.245 -0.4302 -0.5018  0.7056
  953SOL    HW1 2858   0.716   0.333   0.315 -2.1587 -1.9434  0.8332
  953SOL    HW2 2859   0.565   0.407   0.280 -2.1698  2.1180  0.2241
  954SOL     OW 2860   2.479   0.729   1.082 -0.3498 -0.0179  0.4793
  954SOL    HW1 2861   2.391   0.769   1.118 -2.5475  0.1101 -1.8044
  954SOL    HW2 2862   2.554   0.742   1.151 -1.9407 -1.5448 -1.1419
  955SOL     OW 2863   1.658   1.371   0.023 -0.2247 -0.1949  0.1427
  955SOL    HW1 2864   1.667   1.293   3.043  0.1643  2.6982 -2.4954
  955SOL    HW2 2865   1.558   1.391   0.050 -0.2182  0.4967 -0.0650
  956SOL     OW 2866   1.057   0.609   2.426 -0.3963  0.3847  0.0516
  956SOL    HW1 2867   1.141   0.661   2.399 -1.7160  0.4129 -0.9837
  956SOL    HW2 2868   1.074   0.511   2.395  0.5256  0.5162  0.5738
  957SOL     OW 2869   1.502   0.222   1.576  0.3789  0.1270  0.5465
  957SOL    HW1 2870   1.465   0.202   1.670 -1.9137  0.9223  0.1722
  957SOL    HW2 2871   1.605   0.238   1.573  1.4214 -1.4215  0.0697
  958SOL     OW 2872   0.419   2.032   0.501 -0.2891 -0.3181 -0.2855
  958SOL    HW1 2873   0.417   2.045   0.403  0.4926  0.6911 -1.7610
  958SOL    HW2 2874   0.375   1.942   0.518  3.4920  0.7142 -1.8151
  959SOL     OW 2875   2.039   0.950   1.642 -0.4243 -0.6046 -0.0663
  959SOL    HW1 2876   2.078   1.024   1.700  1.9753  3.2757  1.8111
  959SOL    HW2 2877   1.971   0.888   1.685 -2.3079 -0.5879  2.7578
  960SOL     OW 2878   0.106   1.722   2.897  0.2924 -0.1028 -0.4637
  960SOL    HW1 2879   0.182   1.789   2.892 -1.4292  0.3752  1.1305
  960SOL    HW2 2880   0.134   1.634   2.943  0.7099 -1.0749  1.9714
  961SOL     OW 2881   0.724   2.185   1.057 -0.2955  0.3784  0.0803
  961SOL    HW1 2882   0.712   2.102   1.109  0.5129  1.3616 -0.3603
  961SOL    HW2 2883   0.736   2.166   0.956 -0.4129  0.7501 -1.2896
  962SOL     OW 2884   0.347   1.459   1.107 -0.5094 -0.2675 -0.6150
  962SOL    HW1 2885   0.242   1.461   1.120 -0.6919 -1.0617  4.1076
  962SOL    HW2 2886   0.393   1.542   1.153  4.0703 -1.3752 -2.9833
  963SOL     OW 2887   1.713   1.745   2.339 -0.1089  0.5516 -0.5130
  963SOL    HW1 2888   1.743   1.679   2.408  0.8528  0.6013 -0.8971
  963SOL    HW2 2889   1.791   1.808   2.314  0.0514  1.9840 -2.0586
  964SOL     OW 2890   0.198   3.000   2.104  0.4399  0.3574 -0.3812
  964SOL    HW1 2891   0.145   2.946   2.039  0.6395  1.4823 -0.8342
  964SOL    HW2 2892   0.263   2.947   2.161 -0.8905  2.2758 -1.6118
  965SOL     OW 2893   3.078   2.258   2.763 -0.5453  0.1176 -0.3449
  965SOL    HW1 2894   3.022   2.329   2.715  1.0208 -1.3597  1.0107
  965SOL    HW2 2895   0.029   2.179   2.702  1.1378  0.4090  0.6961
  966SOL     OW 2896   2.704   1.732   0.019 -0.5639 -0.4810 -0.0600
  966SOL    HW1 2897   2.659   1.703   3.014 -1.0009  1.8046  0.4797
  966SOL    HW2 2898   2.699   1.652   0.085 -1.3361 -0.4428  0.5975
  967SOL     OW 2899   1.967   0.009   0.061  0.6234  0.5421  0.0138
  967SOL    HW1 2900   1.999   3.005   0.104  0.8367  4.1664 -4.7797
  967SOL    HW2 2901   1.866   0.034   0.067  0.4646 -2.7424 -1.0403
  968SOL     OW 2902   2.637   0.042   0.509  0.0866 -0.0607  0.2692
  968SOL    HW1 2903   2.641   3.044   0.444 -1.7591 -0.9653  3.0931
  968SOL    HW2 2904   2.608   0.006   0.600 -0.7845  0.8022  1.3971
  969SOL     OW 2905   0.333   0.840   1.770 -0.0842 -0.3289 -0.0075
  969SOL    HW1 2906   0.398   0.915   1.789  1.3911  0.6727  1.0434
  969SOL    HW2 2907   0.281   0.864   1.685  1.6132  0.4657  1.0919
  970SOL     OW 2908   1.607   1.638   3.078  0.1390  0.5345  0.3021
  970SOL    HW1 2909   1.630   1.540   0.019  1.1939 -0.8110 -0.5673
  970SOL    HW2 2910   1.601   1.694   0.081 -0.3554 -0.5283 -4.2729
  971SOL     OW 2911   2.324   0.181   1.619 -0.1430 -0.1195  0.2504
  971SOL    HW1 2912   2.252   0.192   1.548 -1.3266 -1.3105  0.5113
  971SOL    HW2 2913   2.371   0.091   1.604 -0.3286 -0.0481 -0.9955
  972SOL     OW 2914   2.881   0.270   0.909 -0.3992  0.5312 -0.3654
  972SOL    HW1 2915   2.910   0.364   0.909  0.8488 -1.3037  0.6266
  972SOL    HW2 2916   2.958   0.204   0.879  0.9887  0.0093 -2.1679
  973SOL     OW 2917   0.373   0.472   2.486  0.2360  0.2625  0.5858
  973SOL    HW1 2918   0.467   0.499   2.479 -4.0075 -0.7307 -3.2630
  973SOL    HW2 2919   0.362   0.373   2.512 -1.2650 -1.3159  0.2431
  974SOL     OW 2920   2.463   1.065   1.741 -0.0277  0.0689 -0.1673
  974SOL    HW1 2921   2.522   1.001   1.691  0.4806  1.5408  2.2288
  974SOL    HW2 2922   2.440   1.023   1.832  0.9500 -1.4663 -0.9131
  975SOL     OW 2923   1.159   0.100   1.908 -0.0404 -0.0322 -0.1046
  975SOL    HW1 2924   1.077   0.159   1.896  2.3615 -2.1939  0.6925
  975SOL    HW2 2925   1.144   0.021   1.973 -0.5511 -2.4696 -2.0245
  976SOL     OW 2926   1.611   1.519   1.397 -0.0533 -0.5446 -0.3642
  976SOL    HW1 2927   1.644   1.543   1.490  2.6366  2.1067  0.7049
  976SOL    HW2 2928   1.674   1.452   1.365 -2.3510  1.8212  0.9950
  977SOL     OW 2929   0.554   3.067   0.144 -0.2093  0.4604  0.0576
  977SOL    HW1 2930   0.623   0.009   0.216  2.5912 -0.7743  1.8051
  977SOL    HW2 2931   0.546   2.964   0.131  0.9319  2.0061 -1.3687
  978SOL     OW 2932   2.176   1.136   2.214  0.2177  0.2526  0.8911
  978SOL    HW1 2933   2.205   1.155   2.120 -1.4662  0.8407  1.0227
  978SOL    HW2 2934   2.094   1.076   2.209 -2.2828  0.3831 -0.2234
  979SOL     OW 2935   1.389   0.787   1.895 -0.0766 -0.6577 -0.3234
  979SOL    HW1 2936   1.298   0.818   1.853 -2.6409  1.2414 -0.2202
  979SOL    HW2 2937   1.447   0.866   1.910  0.4276 -2.1511  1.7132
  980SOL     OW 2938   1.748   1.555   2.535 -0.6136  0.7790  0.1000
  980SOL    HW1 2939   1.790   1.490   2.464 -2.9047 -2.0769  1.4044
  980SOL    HW2 2940   1.647   1.548   2.526  1.1506  0.2848  1.4904
  981SOL     OW 2941   1.571   0.659   1.724  0.3316 -0.2130 -0.1935
  981SOL    HW1 2942   1.519   0.621   1.642 -0.5888 -2.5227 -1.1326
  981SOL    HW2 2943   1.501   0.693   1.788 -0.7300  1.1737 -1.4184
  982SOL     OW 2944   0.690   0.631   0.140  0.0450  0.5585  0.8370
  982SOL    HW1 2945   0.708   0.535   0.170  0.0205  0.7342 -0.4852
  982SOL    HW2 2946   0.672   0.637   0.034  0.5409 -0.9719 -1.2384
  983SOL     OW 2947   2.311   0.778   0.199  0.1776  0.4998 -0.0115
  983SOL    HW1 2948   2.343   0.856   0.254  0.8904  0.9608  0.2632
  983SOL    HW2 2949   2.277   0.807   0.109  0.7702 -1.4669  1.4818
  984SOL     OW 2950   0.786   0.388   2.565  0.0998  0.2577  0.8226
  984SOL    HW1 2951   0.852   0.387   2.637 -1.4399 -0.5366 -2.4433
  984SOL    HW2 2952   0.733   0.477   2.571  0.2676  0.5511  1.6474
  985SOL     OW 2953   1.514   2.025   1.928 -0.2023  0.6785 -0.5198
  985SOL    HW1 2954   1.606   2.024   1.967  0.9663 -0.7516  1.6883
  985SOL    HW2 2955   1.445   2.014   2.004 -1.0250 -3.2673 -1.8750
  986SOL     OW 2956   2.585   2.591   1.857 -0.1383  0.2366  0.8644
  986SOL    HW1 2957   2.685   2.602   1.842  0.3885  0.5973 -0.2034
  986SOL    HW2 2958   2.558   2.626   1.947  1.9572  0.9411 -1.8507
  987SOL     OW 2959   1.699   1.384   1.037 -0.3040  0.2925 -0.0688
  987SOL    HW1 2960   1.735   1.430   0.950  1.7458 -0.6897 -2.4179
  987SOL    HW2 2961   1.600   1.389   1.045  1.7969  0.9648 -0.6397
  988SOL     OW 2962   2.489   1.411   2.284  0.6489  0.1716  0.2439
  988SOL    HW1 2963   2.589   1.389   2.272 -0.0597 -4.3309 -3.0385
  988SOL    HW2 2964   2.458   1.465   2.203 -0.0305  1.9027  2.8761
  989SOL     OW 2965   1.369   2.387   0.156 -0.5954  0.2369  0.1357
  989SOL    HW1 2966   1.357   2.324   0.235 -1.6327  1.6424  1.9752
  989SOL    HW2 2967   1.471   2.409   0.143  0.8829 -1.0756 -0.9295
  990SOL     OW 2968   1.874   0.603   2.661 -0.4433 -0.4516  0.4473
  990SOL    HW1 2969   1.866   0.676   2.732 -0.1201  1.4653 -1.0724
  990SOL    HW2 2970   1.951   0.538   2.674 -2.5007 -1.8027  1.2103
  991SOL     OW 2971   0.974   0.566   0.987  0.2714  0.1677 -0.0371
  991SOL    HW1 2972   0.928   0.520   1.066  0.4314 -1.9858  0.9155
  991SOL    HW2 2973   0.958   0.519   0.897  0.7394  0.4229 -0.5918
  992SOL     OW 2974   2.814   0.949   0.984  0.1761  0.0439 -0.2857
  992SOL    HW1 2975   2.773   0.981   1.072  1.4008  3.9938 -0.9235
  992SOL    HW2 2976   2.870   0.870   1.012  1.9491 -0.3313  1.7660
  993SOL     OW 2977   2.244   0.726   1.842  0.1477 -0.3630 -0.3637
  993SOL    HW1 2978   2.189   0.641   1.838  1.4854 -0.5031  0.8362
  993SOL    HW2 2979   2.315   0.725   1.769  2.0986 -0.7189  1.3589
  994SOL     OW 2980   0.838   1.519   2.466 -0.5258  0.0498 -0.3264
  994SOL    HW1 2981   0.858   1.445   2.399 -1.3892 -0.3314  1.7672
  994SOL    HW2 2982   0.917   1.577   2.481 -2.0703 -2.0225  0.1590
  995SOL     OW 2983   2.116   1.362   2.895  0.4477 -0.2493  0.1045
  995SOL    HW1 2984   2.105   1.344   2.795  0.5529  0.2722  1.0053
  995SOL    HW2 2985   2.038   1.413   2.938  1.1114 -0.5184  4.2177
  996SOL     OW 2986   2.171   2.120   0.741 -0.3577  0.1087  0.6737
  996SOL    HW1 2987   2.123   2.082   0.820 -1.3533 -0.6415  0.7702
  996SOL    HW2 2988   2.133   2.088   0.653 -0.2991  2.3908  1.7231
  997SOL     OW 2989   2.136   0.448   1.797 -0.6439 -0.1558 -0.2892
  997SOL    HW1 2990   2.192   0.370   1.827 -1.6215  0.5594  1.0729
  997SOL    HW2 2991   2.141   0.451   1.692 -1.8606 -1.2069 -0.7487
  998SOL     OW 2992   2.351   1.103   0.608  0.0494 -0.0944 -0.3168
  998SOL    HW1 2993   2.291   1.184   0.627  0.7438 -2.5454 -3.1787
  998SOL    HW2 2994   2.302   1.023   0.655 -0.2267 -4.8678  1.4275
  999SOL     OW 2995   2.692   1.532   0.181  0.7723  0.4548  0.3281
  999SOL    HW1 2996   2.721   1.600   0.254 -1.5744  3.8741 -0.3252
  999SOL    HW2 2997   2.755   1.451   0.190  1.1208 -0.6373  0.5452
 1000SOL     OW 2998   0.834   0.904   1.741  0.3316 -0.9731 -0.1252
 1000SOL    HW1 2999   0.892   0.828   1.773 -1.9420  0.1525 -0.1922
 1000SOL    HW2 3000   0.799   0.892   1.645 -0.5992 -1.1854  0.4297
   3.08154   3.08154   3.08154
