1000 SPC/Fw water molecules t= 114.00000 step= 114000
 3000
    1SOL     OW    1   2.108   2.311   0.530  0.2046 -0.3365 -0.3099
    1SOL    HW1    2   2.073   2.302   0.435  1.6802 -0.6144  0.1133
    1SOL    HW2    3   2.208   2.285   0.541 -1.3665 -0.4965 -0.3211
    2SOL     OW    4   1.411   1.557   2.204 -0.2418  0.4756  0.1380
    2SOL    HW1    5   1.368   1.647   2.214 -0.1259 -1.6231  0.3709
    2SOL    HW2    6   1.351   1.505   2.138 -2.5951 -0.6078 -0.8085
    3SOL     OW    7   1.314   2.499   2.167 -0.2036 -0.1430 -0.2584
    3SOL    HW1    8   1.337   2.524   2.070  2.0394 -4.4374 -0.0524
    3SOL    HW2    9   1.296   2.399   2.176  1.5673  0.1507 -0.8720
    4SOL     OW   10   1.085   2.048   1.899  0.1489  0.9512 -0.4654
    4SOL    HW1   11   1.059   2.077   1.990  2.1965 -0.1017 -1.4157
    4SOL    HW2   12   1.049   2.111   1.825 -0.7919 -1.0649 -1.3182
    5SOL     OW   13   0.484   0.883   1.758  0.0544 -0.4851 -0.2140
    5SOL    HW1   14   0.568   0.937   1.777 -0.9190 -1.4005  0.9560
    5SOL    HW2   15   0.472   0.810   1.829  2.5074  0.4288 -0.7669
    6SOL     OW   16   2.323   0.698   3.017  0.8753 -0.0515  0.0243
    6SOL    HW1   17   2.277   0.719   2.925 -0.8516 -0.0588 -1.9329
    6SOL    HW2   18   2.423   0.710   3.003 -0.6556  1.3065  1.6633
    7SOL     OW   19   0.884   0.465   1.541  0.2204  0.3905 -0.2462
    7SOL    HW1   20   0.974   0.437   1.583  1.5275 -0.6881  0.4429
    7SOL    HW2   21   0.901   0.498   1.447  0.0611  2.0701  3.5113
    8SOL     OW   22   1.538   0.096   1.891  0.2638  0.7344 -0.1104
    8SOL    HW1   23   1.599   0.143   1.826 -2.2799  1.0733  2.2611
    8SOL    HW2   24   1.595   0.040   1.957  0.6404 -1.3703  4.3333
    9SOL     OW   25   0.492   0.734   0.555 -0.4572  0.3130  0.2601
    9SOL    HW1   26   0.547   0.706   0.635 -2.1487  0.4389 -1.0234
    9SOL    HW2   27   0.472   0.837   0.563 -2.2357  0.4840  1.2112
   10SOL     OW   28   0.751   2.384   2.417 -0.1621  0.2676  0.2101
   10SOL    HW1   29   0.693   2.305   2.405  0.8254  1.5445 -1.3953
   10SOL    HW2   30   0.695   2.464   2.392  0.4674  0.3966 -0.2908
   11SOL     OW   31   0.695   1.987   3.082  0.4120  0.1472  0.7175
   11SOL    HW1   32   0.764   2.058   0.011 -1.5300 -0.9367 -0.7730
   11SOL    HW2   33   0.659   1.933   0.054 -0.5414 -2.6040  1.3228
   12SOL     OW   34   0.380   2.927   1.352 -0.7117  0.0345  0.0159
   12SOL    HW1   35   0.380   3.008   1.413  0.8838 -1.9896  0.6431
   12SOL    HW2   36   0.311   2.854   1.375 -1.4174 -1.0891 -1.7760
   13SOL     OW   37   0.946   2.617   0.144 -0.1355 -0.2450  0.3206
   13SOL    HW1   38   0.989   2.577   0.063  1.6268 -3.6998  1.4928
   13SOL    HW2   39   0.901   2.702   0.119  2.0546 -1.7350 -2.5503
   14SOL     OW   40   1.727   1.845   0.750 -0.3264  0.1844 -0.1689
   14SOL    HW1   41   1.694   1.818   0.841 -2.5482  1.3084 -3.3857
   14SOL    HW2   42   1.827   1.832   0.742  1.2171 -0.4614  1.9893
   15SOL     OW   43   2.956   1.446   2.229 -0.5897 -0.1398  0.4750
   15SOL    HW1   44   3.033   1.433   2.291 -2.4046  1.3740 -1.5457
   15SOL    HW2   45   2.865   1.440   2.272  1.5359 -0.6684  1.9110
   16SOL     OW   46   1.274   0.017   2.952  0.0122  0.5911  0.0790
   16SOL    HW1   47   1.192   3.077   2.995  1.1873 -1.9735 -0.8294
   16SOL    HW2   48   1.293   3.093   2.857  1.1234  0.8654  1.6754
   17SOL     OW   49   0.499   2.280   2.037  0.2433 -0.5398 -0.4287
   17SOL    HW1   50   0.555   2.215   1.983 -0.3918  1.8307 -0.3402
   17SOL    HW2   51   0.399   2.254   2.040 -4.2630  1.0320 -1.2878
   18SOL     OW   52   1.717   0.699   0.503  0.1089  0.8558 -0.4490
   18SOL    HW1   53   1.751   0.793   0.476 -0.0580 -0.2377  2.5330
   18SOL    HW2   54   1.626   0.678   0.455 -4.7596 -1.8663 -1.7060
   19SOL     OW   55   2.356   1.779   2.507  0.1610  0.4021 -0.0047
   19SOL    HW1   56   2.281   1.779   2.580  0.6395 -1.7814 -0.4308
   19SOL    HW2   57   2.444   1.815   2.548  0.4505 -1.5430 -0.4419
   20SOL     OW   58   2.434   2.062   2.260  0.4096 -0.8104  0.2620
   20SOL    HW1   59   2.343   2.067   2.305 -1.3793 -2.3211 -2.4762
   20SOL    HW2   60   2.487   2.151   2.265  0.1977  0.4375  0.0894
   21SOL     OW   61   0.608   2.088   0.355  0.0768  0.2776  0.4101
   21SOL    HW1   62   0.527   2.096   0.294  1.6617 -1.5327 -1.9113
   21SOL    HW2   63   0.623   1.992   0.375 -1.4807  0.5951 -0.9950
   22SOL     OW   64   2.234   2.627   1.405 -0.1631  0.0631  0.5061
   22SOL    HW1   65   2.314   2.566   1.382  1.2940 -2.1249  2.3411
   22SOL    HW2   66   2.147   2.576   1.419  0.3226  1.5856 -0.0961
   23SOL     OW   67   0.245   0.996   1.761  0.1508  0.3974  0.1765
   23SOL    HW1   68   0.265   1.091   1.744  0.3156 -4.1445 -0.2201
   23SOL    HW2   69   0.333   0.944   1.758  2.1466  0.5622  1.8954
   24SOL     OW   70   2.164   2.047   1.892 -0.0735 -0.1452  0.1665
   24SOL    HW1   71   2.137   2.133   1.939 -0.9379  0.8087 -2.4860
   24SOL    HW2   72   2.212   1.980   1.953  0.4128 -0.1494 -1.2823
   25SOL     OW   73   1.840   0.208   2.317 -0.4742 -0.1357  0.3773
   25SOL    HW1   74   1.917   0.279   2.319 -2.0093  1.7738 -0.2864
   25SOL    HW2   75   1.770   0.231   2.251  2.3926  0.6611  1.2556
   26SOL     OW   76   1.240   0.042   0.789  0.0938 -0.2127  0.3043
   26SOL    HW1   77   1.302   3.105   0.717 -2.1267  1.1135 -2.0855
   26SOL    HW2   78   1.292   0.119   0.830 -1.2435  1.1447  0.1050
   27SOL     OW   79   1.148   1.612   0.126 -0.0805 -0.9132 -0.0104
   27SOL    HW1   80   1.173   1.692   0.185 -0.9749  3.2182 -0.5374
   27SOL    HW2   81   1.048   1.628   0.108 -0.7137  1.6718 -1.6870
   28SOL     OW   82   2.844   1.864   1.242 -0.1782 -0.1876 -0.4512
   28SOL    HW1   83   2.751   1.881   1.291 -2.3860 -2.4211  2.0561
   28SOL    HW2   84   2.915   1.852   1.317  2.2701 -0.4327  1.9584
   29SOL     OW   85   2.025   2.731   1.803  0.3942 -0.3473  0.2414
   29SOL    HW1   86   2.028   2.792   1.882 -0.9087  0.2189 -0.8701
   29SOL    HW2   87   2.120   2.700   1.791  0.4004 -1.0671 -1.4658
   30SOL     OW   88   0.941   2.621   1.030 -0.2064 -1.0895  0.1945
   30SOL    HW1   89   1.033   2.621   0.986 -0.2915  0.7523  1.2774
   30SOL    HW2   90   0.876   2.646   0.958  1.1664  0.6248  1.0091
   31SOL     OW   91   2.879   2.295   1.877 -0.0982  0.4088 -0.0355
   31SOL    HW1   92   2.936   2.240   1.944 -1.1990 -0.8756 -0.6020
   31SOL    HW2   93   2.798   2.339   1.921  0.7150  1.2249 -1.0034
   32SOL     OW   94   1.528   1.272   2.019 -0.0590  0.3113 -0.3138
   32SOL    HW1   95   1.434   1.277   2.060  0.3955  2.5761  1.1109
   32SOL    HW2   96   1.533   1.223   1.932  2.3822 -0.0046  0.8312
   33SOL     OW   97   0.278   0.084   2.748 -0.1844  0.0925 -0.6059
   33SOL    HW1   98   0.371   0.120   2.732  1.1319 -0.6801  1.6395
   33SOL    HW2   99   0.251   0.023   2.671 -1.3945  0.1422  0.5385
   34SOL     OW  100   1.907   0.358   1.574 -0.2543 -0.3982 -0.0228
   34SOL    HW1  101   1.925   0.432   1.646  0.5532  1.8971  0.2398
   34SOL    HW2  102   1.977   0.282   1.585 -1.4765  2.6910 -0.7742
   35SOL     OW  103   2.436   0.547   1.611  0.1856  0.3660 -0.3553
   35SOL    HW1  104   2.493   0.465   1.627 -2.0397 -1.8340  0.3205
   35SOL    HW2  105   2.487   0.636   1.600  0.4805  1.6137 -0.9653
   36SOL     OW  106   2.476   3.088   2.586  0.9625 -0.2007  0.4696
   36SOL    HW1  107   2.390   3.035   2.596  1.6695  1.0272 -0.2219
   36SOL    HW2  108   2.554   3.030   2.569 -2.2997  3.4273 -0.3552
   37SOL     OW  109   1.082   2.284   3.028  0.0436  0.0209  0.5812
   37SOL    HW1  110   1.094   2.385   3.032  0.3122  0.5947 -1.8672
   37SOL    HW2  111   1.167   2.233   3.050 -1.5152 -3.2395 -0.3675
   38SOL     OW  112   2.938   0.960   2.901 -0.0013 -0.2225  0.5824
   38SOL    HW1  113   3.008   0.989   2.974  1.9247  2.8440 -0.8844
   38SOL    HW2  114   2.845   0.942   2.941  0.1394  0.7264  2.7496
   39SOL     OW  115   1.883   2.183   2.214 -0.3802  0.2651  0.3973
   39SOL    HW1  116   1.876   2.104   2.152 -1.1481  1.0917 -0.4724
   39SOL    HW2  117   1.939   2.169   2.297  0.3954 -2.5319 -0.4725
   40SOL     OW  118   0.643   0.280   2.923 -0.0093 -0.0884 -0.5103
   40SOL    HW1  119   0.622   0.187   2.967 -2.6193 -1.9984  1.1968
   40SOL    HW2  120   0.743   0.297   2.918 -0.1036 -3.5417  1.6665
   41SOL     OW  121   1.493   0.997   1.494 -0.0477 -0.3502 -0.2921
   41SOL    HW1  122   1.591   1.001   1.528  0.9317 -1.9045  0.8087
   41SOL    HW2  123   1.423   0.964   1.561  0.8452 -0.3651  0.6442
   42SOL     OW  124   0.228   0.276   1.970 -0.0989 -0.2109 -0.2793
   42SOL    HW1  125   0.131   0.300   1.957  1.1357 -0.1204 -0.3037
   42SOL    HW2  126   0.286   0.358   1.996  1.8217  1.6113  1.1996
   43SOL     OW  127   1.765   1.329   2.138  0.4436  0.2531 -0.6049
   43SOL    HW1  128   1.761   1.322   2.241  0.5231 -2.6190  2.4624
   43SOL    HW2  129   1.682   1.295   2.088  0.5269 -0.3619 -0.4229
   44SOL     OW  130   3.034   3.047   2.938 -0.2521  0.1150 -0.0917
   44SOL    HW1  131   3.087   0.012   2.995  1.6414  0.5985  2.1850
   44SOL    HW2  132   3.026   2.957   2.987  1.2557  0.1134 -0.7572
   45SOL     OW  133   0.903   2.026   1.187  0.1204 -0.4858  0.5451
   45SOL    HW1  134   0.933   2.065   1.094 -0.5263  2.0283 -0.4336
   45SOL    HW2  135   0.808   1.978   1.177 -3.2651 -1.9452 -0.5921
   46SOL     OW  136   2.510   2.700   1.899 -0.0038  0.4815  0.3977
   46SOL    HW1  137   2.582   2.699   1.826  1.9678  0.5243  2.1466
   46SOL    HW2  138   2.418   2.683   1.853 -2.5728 -0.6706 -0.3168
   47SOL     OW  139   1.254   1.657   1.228 -0.7603 -0.0162 -0.0069
   47SOL    HW1  140   1.208   1.743   1.234  1.7145 -0.5440  0.5463
   47SOL    HW2  141   1.196   1.589   1.179  3.1816  3.0599  1.8111
   48SOL     OW  142   0.332   2.138   0.437 -0.1502  0.4116 -0.4200
   48SOL    HW1  143   0.254   2.192   0.468  3.0252 -0.7705 -0.3692
   48SOL    HW2  144   0.354   2.073   0.513 -2.6072 -0.6451  1.1132
   49SOL     OW  145   3.046   1.300   2.013 -0.8955 -0.1199  0.2499
   49SOL    HW1  146   0.004   1.378   1.972  0.8137  1.6019 -0.2539
   49SOL    HW2  147   3.013   1.314   2.108 -0.3430 -0.2519 -1.0756
   50SOL     OW  148   2.196   0.875   0.885  0.3781 -0.2636 -0.6475
   50SOL    HW1  149   2.295   0.897   0.885  2.0534 -0.9188  1.2231
   50SOL    HW2  150   2.154   0.922   0.808  0.9856  0.3470  2.5553
   51SOL     OW  151   1.025   0.745   0.743  0.0324  0.5402 -0.4716
   51SOL    HW1  152   0.973   0.805   0.676  0.7833 -0.6955  1.8988
   51SOL    HW2  153   0.991   0.774   0.832  1.7924 -0.6791 -0.0404
   52SOL     OW  154   1.419   1.135   0.079 -0.8851  0.0349 -0.1792
   52SOL    HW1  155   1.419   1.038   0.061  2.3054  0.1097 -1.3558
   52SOL    HW2  156   1.446   1.153   0.179  1.7301 -3.3435  3.0579
   53SOL     OW  157   1.002   2.231   2.768  0.2248  0.9218 -0.2070
   53SOL    HW1  158   1.016   2.128   2.774 -2.0081 -1.3191 -0.3300
   53SOL    HW2  159   1.021   2.271   2.860  0.9346  0.6699  0.9857
   54SOL     OW  160   1.457   0.643   1.588  0.8095  0.5177 -0.9561
   54SOL    HW1  161   1.386   0.715   1.567 -1.9815 -1.5222 -2.4733
   54SOL    HW2  162   1.484   0.600   1.502  0.2268 -0.3375 -0.3870
   55SOL     OW  163   2.444   3.057   0.532  0.1092 -0.1481 -0.2051
   55SOL    HW1  164   2.348   3.075   0.550 -0.2125 -2.9447 -1.0393
   55SOL    HW2  165   2.448   2.990   0.455 -1.3325  3.8702  1.5502
   56SOL     OW  166   0.717   2.556   1.577  0.3655 -0.0979 -0.2349
   56SOL    HW1  167   0.710   2.572   1.678  0.4962 -3.2864 -0.2610
   56SOL    HW2  168   0.624   2.539   1.533 -1.8801 -0.4525  0.8606
   57SOL     OW  169   1.997   0.518   2.880 -0.0125  0.2512  0.3149
   57SOL    HW1  170   1.951   0.455   2.814 -1.7536  0.0959  1.6634
   57SOL    HW2  171   2.079   0.475   2.924  1.4757  2.1150  3.9991
   58SOL     OW  172   2.941   1.284   1.737 -0.3938 -0.2375 -0.2579
   58SOL    HW1  173   2.961   1.317   1.829  1.2045  0.9672 -0.1257
   58SOL    HW2  174   2.856   1.324   1.698  0.5859 -2.4172  0.0694
   59SOL     OW  175   0.475   2.841   2.246 -0.3094 -0.1844  0.0996
   59SOL    HW1  176   0.539   2.762   2.232 -3.5688 -1.6329 -1.8234
   59SOL    HW2  177   0.384   2.822   2.206 -0.7871  2.4912  3.5046
   60SOL     OW  178   2.820   2.187   0.810 -0.3563 -0.3091 -0.3011
   60SOL    HW1  179   2.818   2.126   0.729 -0.0232 -0.9598 -0.6352
   60SOL    HW2  180   2.745   2.168   0.879  1.3997 -3.5030 -0.1945
   61SOL     OW  181   0.872   2.208   0.314  0.1821  0.1763 -0.2793
   61SOL    HW1  182   0.904   2.269   0.385  0.1769 -1.2809 -0.4935
   61SOL    HW2  183   0.782   2.173   0.338  0.3534  2.0939  0.0141
   62SOL     OW  184   2.141   2.703   2.765  1.0391  0.0893 -0.1379
   62SOL    HW1  185   2.238   2.678   2.747 -1.9648  0.5547 -3.0356
   62SOL    HW2  186   2.082   2.708   2.680 -1.9494  0.7944 -1.1856
   63SOL     OW  187   1.862   0.237   2.967 -0.1288  0.0012 -0.1103
   63SOL    HW1  188   1.815   0.272   2.882  0.0773 -1.3083 -1.2391
   63SOL    HW2  189   1.925   0.162   2.945  0.2891 -1.0852 -1.7581
   64SOL     OW  190   0.781   1.115   2.521 -0.5210  0.0779  0.1429
   64SOL    HW1  191   0.836   1.161   2.589 -2.5497 -1.4943 -3.4068
   64SOL    HW2  192   0.735   1.045   2.576  0.0822 -1.0256 -1.0865
   65SOL     OW  193   1.408   3.025   0.620 -0.0647 -0.6602  0.6083
   65SOL    HW1  194   1.438   2.935   0.662 -0.4033  2.5439 -0.2433
   65SOL    HW2  195   1.362   3.012   0.527 -2.6580 -0.8314 -2.6694
   66SOL     OW  196   0.284   1.258   1.723  0.3953 -0.8341 -0.0620
   66SOL    HW1  197   0.280   1.278   1.820 -1.0955 -2.3473  0.1827
   66SOL    HW2  198   0.361   1.301   1.671 -0.7390  2.8067 -2.3780
   67SOL     OW  199   2.215   3.084   2.176 -0.5149 -0.2984 -0.1111
   67SOL    HW1  200   2.231   3.015   2.107  0.7058  1.9560 -0.8985
   67SOL    HW2  201   2.297   3.102   2.226 -1.4651 -2.1709 -0.2628
   68SOL     OW  202   0.786   0.695   1.810  0.2357 -0.0849 -0.7327
   68SOL    HW1  203   0.698   0.659   1.766 -0.5060 -1.8189 -0.6697
   68SOL    HW2  204   0.772   0.785   1.857  0.2437  1.6004 -2.4214
   69SOL     OW  205   2.146   3.017   0.468  0.3199  0.5082  0.0507
   69SOL    HW1  206   2.142   2.926   0.501 -0.5447  3.9372  1.5844
   69SOL    HW2  207   2.089   3.033   0.383 -1.2989  2.2127 -0.8879
   70SOL     OW  208   2.582   0.736   2.934 -0.3116 -0.0091 -0.1612
   70SOL    HW1  209   2.598   0.733   2.836 -0.9816  2.0027  0.7812
   70SOL    HW2  210   2.641   0.671   2.981  1.5805  1.0990 -0.7869
   71SOL     OW  211   2.815   2.037   0.067  0.3125 -0.1939 -0.2317
   71SOL    HW1  212   2.845   1.952   0.018  2.0575  2.4273  0.4573
   71SOL    HW2  213   2.882   2.114   0.050 -2.6595  0.9022  0.2166
   72SOL     OW  214   3.103   1.941   0.350  0.2272  0.2815 -0.2742
   72SOL    HW1  215   3.031   2.009   0.326  1.0772 -2.0400  1.1447
   72SOL    HW2  216   3.092   1.921   0.449 -0.2799 -0.0077 -0.9790
   73SOL     OW  217   0.822   0.894   0.622 -0.1457  0.0548 -0.3819
   73SOL    HW1  218   0.780   0.952   0.695  0.0586  1.8421 -1.9636
   73SOL    HW2  219   0.860   0.955   0.547  0.8452 -1.3374  0.1123
   74SOL     OW  220   3.083   2.087   1.961  0.4879  0.2620 -0.5129
   74SOL    HW1  221   0.050   2.114   1.895 -0.5226 -1.8951  2.4110
   74SOL    HW2  222   0.003   1.995   1.998 -1.1857 -0.5833  0.8707
   75SOL     OW  223   1.902   1.411   1.388 -0.6480 -0.2026  0.3154
   75SOL    HW1  224   1.837   1.349   1.343 -0.2178  1.0244  2.0223
   75SOL    HW2  225   1.871   1.425   1.481  0.0363  1.5380 -0.3596
   76SOL     OW  226   1.969   2.372   1.003 -0.3733  0.0864 -0.2230
   76SOL    HW1  227   1.958   2.344   0.905  0.2896  2.5113 -0.8355
   76SOL    HW2  228   2.035   2.450   1.008 -1.7715 -0.2061 -1.0534
   77SOL     OW  229   2.630   1.726   1.639  0.0956  0.2634  0.1813
   77SOL    HW1  230   2.564   1.778   1.694 -0.1152  0.7638 -0.5521
   77SOL    HW2  231   2.711   1.708   1.697 -0.5133  1.6546  2.1509
   78SOL     OW  232   1.389   0.722   0.480  0.0010 -0.3757  0.1713
   78SOL    HW1  233   1.398   0.823   0.479 -0.6944  1.6648  1.1807
   78SOL    HW2  234   1.371   0.687   0.576 -0.3139 -1.0351  0.7414
   79SOL     OW  235   2.263   1.631   1.550 -0.1551  0.2761 -0.1140
   79SOL    HW1  236   2.209   1.602   1.630 -1.1486  1.3979 -2.6295
   79SOL    HW2  237   2.350   1.577   1.544 -0.5883 -2.3868 -3.1883
   80SOL     OW  238   0.629   0.540   1.626  0.2094 -0.2001 -0.2598
   80SOL    HW1  239   0.729   0.519   1.612 -0.0995 -1.2276 -1.3530
   80SOL    HW2  240   0.584   0.566   1.537 -0.2826 -0.0988 -0.1779
   81SOL     OW  241   0.574   2.587   0.801  0.4391 -0.0339  0.3056
   81SOL    HW1  242   0.527   2.654   0.747  2.9972 -2.0571  1.4612
   81SOL    HW2  243   0.677   2.598   0.793 -0.3498  0.1967 -0.0103
   82SOL     OW  244   1.269   0.034   1.930 -0.1269  0.0770 -0.0785
   82SOL    HW1  245   1.370   0.068   1.920  1.5506  0.6219  0.4473
   82SOL    HW2  246   1.224   0.058   2.018 -0.5731 -1.7872 -0.2757
   83SOL     OW  247   1.024   1.719   0.469  0.6416 -0.1458 -0.0917
   83SOL    HW1  248   1.010   1.777   0.388 -0.6159  1.2349  0.5992
   83SOL    HW2  249   0.951   1.647   0.478 -0.5042 -1.1845 -0.0102
   84SOL     OW  250   3.069   1.442   3.031  0.4192 -0.1848  0.3217
   84SOL    HW1  251   3.009   1.376   3.079  0.8287  1.7801 -1.7155
   84SOL    HW2  252   3.063   1.539   3.069 -2.3775  4.6185 -1.6528
   85SOL     OW  253   0.106   2.484   0.859  0.4464  0.6494 -0.6979
   85SOL    HW1  254   0.037   2.411   0.872  0.1479  1.1736 -2.2329
   85SOL    HW2  255   0.197   2.446   0.886  0.7056  1.7167  0.7837
   86SOL     OW  256   2.185   2.916   1.438  0.2420  0.1285  0.3682
   86SOL    HW1  257   2.174   2.970   1.351 -1.4649 -0.3306  2.9036
   86SOL    HW2  258   2.206   2.817   1.430 -0.4209  1.8941  1.6329
   87SOL     OW  259   0.024   1.912   0.620  0.5208 -0.0636 -0.0852
   87SOL    HW1  260   0.060   1.998   0.656 -1.3042 -2.0756 -2.2461
   87SOL    HW2  261   0.006   1.847   0.699  1.2660 -2.2244 -0.5460
   88SOL     OW  262   0.936   0.519   1.280  0.2293  0.0787 -0.0774
   88SOL    HW1  263   0.876   0.508   1.197  0.2951  1.7821 -0.0855
   88SOL    HW2  264   1.023   0.474   1.259  0.1625  1.2278  2.2879
   89SOL     OW  265   1.022   2.874   1.723 -0.0913  0.0188 -0.3935
   89SOL    HW1  266   1.061   2.964   1.699  0.6847 -0.2816 -0.4239
   89SOL    HW2  267   0.959   2.833   1.650 -0.3777 -1.0457 -3.2684
   90SOL     OW  268   0.269   1.963   1.328  0.3697  0.2208 -0.0763
   90SOL    HW1  269   0.243   1.875   1.281 -1.6846  0.8834 -0.4711
   90SOL    HW2  270   0.361   1.960   1.368 -1.9047  1.4626 -0.7424
   91SOL     OW  271   1.282   2.125   1.248 -0.1070  0.0655  0.1417
   91SOL    HW1  272   1.211   2.196   1.228 -3.2196  0.2755  2.6016
   91SOL    HW2  273   1.308   2.127   1.348  1.3298 -1.9834  0.6536
   92SOL     OW  274   2.843   3.098   1.436  0.0990  0.3582 -0.4058
   92SOL    HW1  275   2.836   3.077   1.338  1.7925 -0.3173  1.7101
   92SOL    HW2  276   2.939   0.022   1.455  0.0070  0.3412 -1.2076
   93SOL     OW  277   2.953   1.238   0.063 -0.5736 -0.0879  0.2035
   93SOL    HW1  278   3.018   1.171   0.028  0.3509 -2.6330 -0.9491
   93SOL    HW2  279   2.943   1.232   0.163 -0.2232  0.7113  0.6524
   94SOL     OW  280   2.802   2.593   2.148  0.2439 -0.3242 -0.1565
   94SOL    HW1  281   2.843   2.651   2.073 -2.0958  1.0673 -4.7310
   94SOL    HW2  282   2.802   2.650   2.233  1.9171 -2.4958 -2.6868
   95SOL     OW  283   1.496   0.627   2.051  0.0892 -0.2066 -0.0600
   95SOL    HW1  284   1.580   0.637   2.109 -0.0107  0.2087 -0.0039
   95SOL    HW2  285   1.428   0.703   2.070 -0.5813  1.7448  0.0944
   96SOL     OW  286   2.615   0.467   1.931 -0.0633 -0.8254 -0.4949
   96SOL    HW1  287   2.633   0.403   1.852  0.2672 -1.8844 -1.8099
   96SOL    HW2  288   2.703   0.521   1.947  0.5067  0.7026  1.1025
   97SOL     OW  289   2.400   0.048   1.529 -0.4144 -0.5957 -0.1077
   97SOL    HW1  290   2.359   0.124   1.583  2.0885 -2.5246 -1.7968
   97SOL    HW2  291   2.491   0.027   1.567  1.2860  0.1815  0.1594
   98SOL     OW  292   2.474   3.042   1.296  0.0486 -0.8631  0.3739
   98SOL    HW1  293   2.434   3.089   1.379 -1.0882  3.1136  1.1463
   98SOL    HW2  294   2.522   2.955   1.324  2.1469  0.2263  0.5153
   99SOL     OW  295   2.791   0.337   2.218 -0.9082 -0.2024 -0.0880
   99SOL    HW1  296   2.859   0.308   2.288  0.4590 -3.2615  1.2394
   99SOL    HW2  297   2.810   0.429   2.170  0.1369  2.6012  0.1086
  100SOL     OW  298   2.142   1.519   1.798 -0.3482 -0.4192  0.3142
  100SOL    HW1  299   2.061   1.472   1.759  1.4355  0.0235  0.3842
  100SOL    HW2  300   2.104   1.569   1.877 -1.1462 -0.6149  0.9352
  101SOL     OW  301   1.799   3.092   0.738 -0.1715  0.1662  0.1193
  101SOL    HW1  302   1.761   0.009   0.830  0.0773  1.0361  0.2644
  101SOL    HW2  303   1.731   0.007   0.664  0.8259  0.3069  0.7243
  102SOL     OW  304   0.387   0.761   1.534  0.0008  0.4523 -0.3769
  102SOL    HW1  305   0.440   0.698   1.475 -0.9764  0.7793  2.4100
  102SOL    HW2  306   0.444   0.807   1.609  1.9969  1.4078  3.2129
  103SOL     OW  307   2.755   0.545   3.078  0.6006 -0.1994 -0.3115
  103SOL    HW1  308   2.747   0.487   2.997  0.4622 -1.0364 -0.1022
  103SOL    HW2  309   2.671   0.526   0.024  4.1197  2.4402 -1.3511
  104SOL     OW  310   2.817   3.035   2.062 -0.0972  0.6040 -0.5667
  104SOL    HW1  311   2.895   3.053   1.998  2.4357 -2.4307 -1.6762
  104SOL    HW2  312   2.755   0.005   2.075  1.6663 -1.4695  2.4162
  105SOL     OW  313   1.753   0.860   2.103  0.1349 -0.5543  0.1089
  105SOL    HW1  314   1.711   0.780   2.147 -1.4026  1.4411  1.7638
  105SOL    HW2  315   1.848   0.861   2.126 -2.1362 -0.0050  0.1279
  106SOL     OW  316   1.654   0.079   0.958  0.3501  0.3368  0.4096
  106SOL    HW1  317   1.708   0.125   1.027 -0.8072 -0.1329 -0.1867
  106SOL    HW2  318   1.591   0.014   1.006  2.7143  0.3496 -1.0477
  107SOL     OW  319   0.674   1.023   0.813  0.0071  0.3474 -0.0091
  107SOL    HW1  320   0.584   0.995   0.851  0.5556  1.6069  0.8024
  107SOL    HW2  321   0.702   1.118   0.844  2.4488 -1.6593  1.1279
  108SOL     OW  322   2.868   0.626   2.583  0.2582 -0.0486  0.1891
  108SOL    HW1  323   2.950   0.567   2.571 -0.2920 -1.9275 -1.2138
  108SOL    HW2  324   2.786   0.568   2.611 -0.8995  1.2601  1.3059
  109SOL     OW  325   1.969   0.178   0.128  0.2723  0.2358 -0.2746
  109SOL    HW1  326   1.942   0.225   0.042  0.1039  1.1758 -0.8823
  109SOL    HW2  327   1.950   0.234   0.212  3.0876  0.4269 -0.8059
  110SOL     OW  328   0.011   2.120   2.745 -0.2999  0.2646  0.4751
  110SOL    HW1  329   3.068   2.182   2.808 -1.1163  1.5366 -0.6668
  110SOL    HW2  330   0.050   2.043   2.798 -0.4955  3.2756  0.8227
  111SOL     OW  331   2.130   0.266   2.254  0.3215  0.2971  0.2043
  111SOL    HW1  332   2.148   0.168   2.239  0.3656  1.0270 -0.5678
  111SOL    HW2  333   2.164   0.299   2.347 -1.7682 -3.1005  0.9897
  112SOL     OW  334   2.519   2.991   0.994  0.1306 -0.1750  0.8370
  112SOL    HW1  335   2.575   2.990   0.908  0.2638  1.5915  0.2267
  112SOL    HW2  336   2.421   3.006   0.966 -1.2387 -0.9611  0.3031
  113SOL     OW  337   2.270   2.653   1.740  0.2630 -0.1655 -0.4868
  113SOL    HW1  338   2.304   2.716   1.665  0.5911 -0.5431 -1.6024
  113SOL    HW2  339   2.284   2.558   1.715 -0.9627 -0.2217  0.4971
  114SOL     OW  340   2.966   0.142   0.672 -0.1272 -0.2898  0.2190
  114SOL    HW1  341   3.046   0.110   0.724  0.4013  0.1719  0.4727
  114SOL    HW2  342   2.883   0.081   0.679  2.1333  1.0940  0.5576
  115SOL     OW  343   2.863   1.818   3.021  0.8034 -0.1653 -0.4217
  115SOL    HW1  344   2.955   1.780   3.041  0.2351  0.9643  2.3246
  115SOL    HW2  345   2.797   1.742   3.022 -0.1641 -0.6989  0.2568
  116SOL     OW  346   0.068   1.505   1.899 -0.2823  0.5456 -0.1122
  116SOL    HW1  347   3.089   1.552   1.930 -1.8428 -1.8258 -1.0754
  116SOL    HW2  348   0.113   1.543   1.815  2.5802 -0.8676 -0.7146
  117SOL     OW  349   2.566   2.893   0.711 -0.2330 -0.1425 -0.5199
  117SOL    HW1  350   2.530   2.800   0.724  1.0709  1.8180 -1.1291
  117SOL    HW2  351   2.515   2.944   0.641  1.4481  1.0140  1.2771
  118SOL     OW  352   0.420   2.391   1.696  0.1838 -0.1614  0.1995
  118SOL    HW1  353   0.338   2.349   1.655  3.3196  1.2164 -2.6327
  118SOL    HW2  354   0.499   2.337   1.668  0.1187  1.7279  2.9274
  119SOL     OW  355   1.583   2.194   0.899 -0.0500 -0.3397  0.2670
  119SOL    HW1  356   1.650   2.184   0.823  0.1806 -0.2599  1.7148
  119SOL    HW2  357   1.622   2.249   0.971 -1.6725 -0.3196 -2.3220
  120SOL     OW  358   0.572   1.987   2.046  0.4893 -0.0383 -0.6481
  120SOL    HW1  359   0.483   1.970   2.094  0.3498 -1.2265  1.8079
  120SOL    HW2  360   0.653   1.987   2.107 -0.5548  0.9439 -0.5007
  121SOL     OW  361   2.446   1.680   0.884  0.2683  0.2357 -0.2027
  121SOL    HW1  362   2.442   1.775   0.843 -0.7249  2.1201  1.3405
  121SOL    HW2  363   2.425   1.681   0.983  0.0079  3.3420 -0.6281
  122SOL     OW  364   1.840   1.709   2.344  0.0638  0.0237 -0.1306
  122SOL    HW1  365   1.784   1.654   2.283  0.9275  2.1612 -1.0297
  122SOL    HW2  366   1.924   1.729   2.296  0.3248 -0.7884  0.8422
  123SOL     OW  367   2.805   3.028   0.725 -0.2942  0.4547 -0.2889
  123SOL    HW1  368   2.894   2.975   0.751  1.2058 -1.9069  0.4505
  123SOL    HW2  369   2.738   2.959   0.697  3.3846 -0.1668 -0.9490
  124SOL     OW  370   1.372   1.151   2.768  0.0164  0.0438  0.1731
  124SOL    HW1  371   1.331   1.172   2.859 -0.3432  1.9156 -0.2950
  124SOL    HW2  372   1.450   1.217   2.757 -0.6967 -0.9483 -1.0032
  125SOL     OW  373   0.354   1.478   2.571  0.1885  0.2328  0.0430
  125SOL    HW1  374   0.354   1.472   2.469  0.0500  2.3331  1.0741
  125SOL    HW2  375   0.300   1.402   2.616 -0.8292  1.0185  2.1963
  126SOL     OW  376   2.877   2.105   0.318  0.4530 -0.0679 -0.2562
  126SOL    HW1  377   2.875   2.204   0.313 -3.8324 -1.2095 -0.5253
  126SOL    HW2  378   2.838   2.069   0.229 -0.0771  0.4570 -0.1785
  127SOL     OW  379   0.490   1.771   1.005  0.1162  0.3197 -0.2211
  127SOL    HW1  380   0.462   1.712   1.084  0.7172 -0.6085  1.6365
  127SOL    HW2  381   0.424   1.844   0.973  0.7404 -0.3669  0.0888
  128SOL     OW  382   1.409   0.867   0.015  0.4168 -0.3927  0.5298
  128SOL    HW1  383   1.451   0.810   0.088  0.9226  0.3021 -2.6792
  128SOL    HW2  384   1.402   0.820   3.031  0.6030  1.9174  1.1788
  129SOL     OW  385   2.321   1.815   1.343 -0.2077 -0.3750  0.5910
  129SOL    HW1  386   2.271   1.903   1.324  0.2537  3.8485 -0.9288
  129SOL    HW2  387   2.294   1.767   1.429  0.1175 -0.1879 -0.8590
  130SOL     OW  388   1.941   1.304   0.545 -0.0619  0.4463  0.3625
  130SOL    HW1  389   2.024   1.256   0.520  1.2797  0.2923 -0.1834
  130SOL    HW2  390   1.953   1.347   0.636 -0.8675  0.8546 -1.0873
  131SOL     OW  391   2.927   1.149   2.705 -0.4290 -0.6365 -0.1319
  131SOL    HW1  392   2.937   1.072   2.772  0.6679  0.3131 -1.8474
  131SOL    HW2  393   2.935   1.240   2.752  1.6371 -2.5265 -0.2828
  132SOL     OW  394   1.805   1.734   1.586  0.1095 -0.0930  0.1124
  132SOL    HW1  395   1.890   1.706   1.533 -0.1534 -2.5781 -0.7778
  132SOL    HW2  396   1.779   1.670   1.658  0.9853  3.6017 -2.6306
  133SOL     OW  397   0.225   1.296   0.090 -0.1215  0.0997  0.0978
  133SOL    HW1  398   0.164   1.325   0.012  0.8822  1.3475  1.0551
  133SOL    HW2  399   0.165   1.303   0.174 -0.3507  2.7148 -0.8185
  134SOL     OW  400   2.549   1.449   0.244 -0.2153  0.7005 -0.2755
  134SOL    HW1  401   2.589   1.406   0.158  1.6149 -1.3557 -1.9847
  134SOL    HW2  402   2.607   1.524   0.280 -1.6347  1.4623  1.7669
  135SOL     OW  403   2.474   1.104   0.505 -0.0204  0.4593 -1.2454
  135SOL    HW1  404   2.401   1.074   0.439 -2.2757 -1.6760  1.2099
  135SOL    HW2  405   2.458   1.203   0.527  2.0173 -0.7253  1.7838
  136SOL     OW  406   2.025   1.651   1.435  0.5088  0.2400 -0.1360
  136SOL    HW1  407   2.122   1.648   1.471  1.6997 -2.3488 -0.9983
  136SOL    HW2  408   1.993   1.558   1.410 -1.8702  0.6436  3.1458
  137SOL     OW  409   2.529   2.116   0.401 -0.1299 -0.0005 -1.0949
  137SOL    HW1  410   2.573   2.024   0.397  0.3378 -1.5076 -2.4269
  137SOL    HW2  411   2.585   2.193   0.360  1.4209 -1.6908 -2.6180
  138SOL     OW  412   1.847   0.114   1.848  0.1376  0.2177 -0.2692
  138SOL    HW1  413   1.832   0.053   1.926  0.8072  1.0488  0.9670
  138SOL    HW2  414   1.840   0.217   1.866 -2.4447  0.8313 -0.8868
  139SOL     OW  415   2.509   0.210   0.216  0.0388 -0.6350  0.3860
  139SOL    HW1  416   2.457   0.194   0.302  0.4049 -0.5399  1.4183
  139SOL    HW2  417   2.521   0.120   0.167  0.5449 -1.7392 -3.9337
  140SOL     OW  418   1.396   1.997   2.691 -0.3116 -0.6497 -1.0543
  140SOL    HW1  419   1.415   1.916   2.631 -1.8298  1.7038 -3.7352
  140SOL    HW2  420   1.322   1.976   2.757  1.6484  1.2855 -0.7792
  141SOL     OW  421   0.857   0.872   2.089  0.4933 -0.1710 -0.1663
  141SOL    HW1  422   0.839   0.959   2.143  1.2575  1.5095  0.1691
  141SOL    HW2  423   0.956   0.840   2.090  1.2726 -3.6245  2.3974
  142SOL     OW  424   2.051   2.550   2.976 -0.2299 -0.4500  0.4302
  142SOL    HW1  425   2.066   2.612   2.894  2.6050  0.1479 -3.7218
  142SOL    HW2  426   2.122   2.477   2.975  3.0943  1.2158  1.1470
  143SOL     OW  427   0.895   2.153   0.055  0.4288  0.7760 -0.2725
  143SOL    HW1  428   0.947   2.213   3.096 -2.0908  0.4877 -0.6828
  143SOL    HW2  429   0.901   2.184   0.154  1.2397 -1.4676  1.1816
  144SOL     OW  430   1.401   2.474   0.162 -0.3141 -0.2977 -0.6482
  144SOL    HW1  431   1.365   2.499   0.070 -1.1702  1.0414 -0.2302
  144SOL    HW2  432   1.330   2.429   0.219 -0.5247 -0.2871 -1.9302
  145SOL     OW  433   2.157   1.815   2.695  0.1746  0.2403 -0.3229
  145SOL    HW1  434   2.202   1.840   2.783  1.8319 -2.0767  0.7025
  145SOL    HW2  435   2.062   1.852   2.686 -1.5686 -1.7509 -0.5678
  146SOL     OW  436   2.431   2.706   2.748  0.1496 -0.2436  1.1973
  146SOL    HW1  437   2.478   2.796   2.760  0.4480  0.1880  4.5016
  146SOL    HW2  438   2.478   2.629   2.798  0.4213 -0.2571 -2.2760
  147SOL     OW  439   2.789   1.594   1.134  0.4856 -0.1405 -0.3858
  147SOL    HW1  440   2.811   1.687   1.160  0.0857 -1.4473 -0.4630
  147SOL    HW2  441   2.723   1.563   1.203 -1.5531 -3.1251  3.8253
  148SOL     OW  442   1.875   3.042   2.998  0.1909 -0.1709 -0.1794
  148SOL    HW1  443   1.842   3.000   2.910  0.7300 -0.1050 -0.0571
  148SOL    HW2  444   1.794   3.069   3.052  2.0786 -0.0073  0.9738
  149SOL     OW  445   0.774   1.482   2.794 -0.3529 -0.3382  0.7712
  149SOL    HW1  446   0.729   1.404   2.839  2.5309 -0.6075  0.8715
  149SOL    HW2  447   0.708   1.530   2.733 -0.0194  1.9606  2.0705
  150SOL     OW  448   0.618   2.232   0.575 -0.5731  0.1899  0.0497
  150SOL    HW1  449   0.557   2.204   0.653 -1.4621 -0.1953  0.1694
  150SOL    HW2  450   0.606   2.171   0.495  0.0396  1.9752  0.1598
  151SOL     OW  451   0.598   1.752   0.080  0.5533  0.7979  0.3324
  151SOL    HW1  452   0.533   1.719   0.155 -1.3572  2.3958  0.9070
  151SOL    HW2  453   0.558   1.745   3.094  1.2299 -0.4954 -0.1557
  152SOL     OW  454   2.684   1.500   0.635 -0.1920 -0.0037  0.3081
  152SOL    HW1  455   2.657   1.481   0.731  0.2606  0.5707  0.7975
  152SOL    HW2  456   2.746   1.431   0.596  1.4235  3.6008  1.1698
  153SOL     OW  457   2.052   2.342   0.243 -0.0874 -0.3374  0.3300
  153SOL    HW1  458   1.971   2.281   0.231  2.4656 -0.9168  0.9336
  153SOL    HW2  459   2.030   2.443   0.234  2.0616  0.0015  2.0163
  154SOL     OW  460   0.818   2.816   0.531  0.1672 -0.0778  0.2676
  154SOL    HW1  461   0.814   2.916   0.563  0.6348  2.3524 -0.6622
  154SOL    HW2  462   0.727   2.805   0.484 -4.0866  3.2986  0.6804
  155SOL     OW  463   0.340   1.991   0.878  0.8837  0.1486  0.0624
  155SOL    HW1  464   0.381   2.049   0.950  1.8098  0.1432 -0.5352
  155SOL    HW2  465   0.258   2.035   0.839  0.9316 -1.1374  2.4206
  156SOL     OW  466   2.274   2.367   2.979 -0.3049 -0.3493  0.3118
  156SOL    HW1  467   2.352   2.418   2.930 -0.4951 -1.4781 -2.7167
  156SOL    HW2  468   2.296   2.351   3.076 -0.3039 -2.8780 -1.5927
  157SOL     OW  469   0.969   1.649   1.470 -0.2465  0.6894  0.6668
  157SOL    HW1  470   0.986   1.751   1.475  1.9414  0.9487 -1.1912
  157SOL    HW2  471   0.944   1.625   1.376  0.0520 -0.5772  1.1111
  158SOL     OW  472   1.597   0.511   0.100 -0.2990 -0.1508 -0.0551
  158SOL    HW1  473   1.653   0.569   0.039 -2.7808  3.2857  1.3611
  158SOL    HW2  474   1.639   0.418   0.087 -1.2434  3.6489 -1.4876
  159SOL     OW  475   1.144   0.544   0.078 -0.7051  0.0441 -0.0886
  159SOL    HW1  476   1.239   0.520   0.045 -2.3206 -0.6739 -0.6283
  159SOL    HW2  477   1.144   0.583   0.175  1.9922  0.7410  0.8574
  160SOL     OW  478   1.172   1.415   0.417  0.2691  0.2050  0.5454
  160SOL    HW1  479   1.219   1.463   0.344 -1.7167 -0.1501 -0.5867
  160SOL    HW2  480   1.241   1.392   0.493  0.9899 -1.3198  0.8367
  161SOL     OW  481   0.072   2.347   2.546  0.2640 -0.1338  0.5117
  161SOL    HW1  482   3.078   2.365   2.513 -1.8298 -1.1944 -2.6616
  161SOL    HW2  483   0.066   2.277   2.622 -0.8693  0.3651  1.9462
  162SOL     OW  484   0.374   2.364   0.886  0.0324 -0.1284 -0.0310
  162SOL    HW1  485   0.424   2.440   0.844  0.2054 -0.9112 -0.5961
  162SOL    HW2  486   0.423   2.326   0.971  0.0392 -1.0111  2.6957
  163SOL     OW  487   0.050   0.664   3.077 -0.0961  0.3142  0.2248
  163SOL    HW1  488   0.149   0.688   3.062 -0.8978 -1.3402 -0.8451
  163SOL    HW2  489   0.005   0.721   0.050  0.1875  2.4299  2.2562
  164SOL     OW  490   0.526   0.208   2.667 -0.1044 -0.2828  0.6357
  164SOL    HW1  491   0.575   0.221   2.752 -0.2668  1.8209 -1.9252
  164SOL    HW2  492   0.565   0.134   2.606  1.7195 -0.6761 -0.5191
  165SOL     OW  493   2.256   0.499   1.804 -0.0537 -0.0334  0.7311
  165SOL    HW1  494   2.314   0.511   1.889 -0.8045  1.7547  0.6072
  165SOL    HW2  495   2.320   0.524   1.731 -0.6274  1.6805  0.1535
  166SOL     OW  496   1.927   2.899   1.575 -0.0469  0.1687  0.9911
  166SOL    HW1  497   1.897   2.876   1.670  0.4210 -0.2834 -0.4029
  166SOL    HW2  498   2.026   2.912   1.570  0.1893  0.3142  1.2227
  167SOL     OW  499   1.026   0.488   2.167 -0.3329 -0.2994 -0.2682
  167SOL    HW1  500   0.996   0.551   2.239 -0.6624  0.4570  3.9233
  167SOL    HW2  501   1.112   0.447   2.193 -1.9750 -0.0623  0.8884
  168SOL     OW  502   2.602   0.148   2.054 -0.2733 -0.2404 -0.2259
  168SOL    HW1  503   2.606   0.246   2.074 -0.6239  0.5832  2.1898
  168SOL    HW2  504   2.562   0.097   2.138  2.8235 -0.0577  2.4111
  169SOL     OW  505   0.090   1.351   0.308  0.4419 -0.0232 -0.0077
  169SOL    HW1  506   0.058   1.434   0.361  0.6606 -0.9503  0.7712
  169SOL    HW2  507   0.025   1.273   0.304  1.1856 -0.9004 -0.1066
  170SOL     OW  508   0.119   1.609   1.653  0.0049  0.4958  0.0433
  170SOL    HW1  509   0.081   1.697   1.637  1.5570 -2.4021  1.0621
  170SOL    HW2  510   0.068   1.539   1.603  4.0476 -2.4872 -1.7566
  171SOL     OW  511   0.942   2.300   2.096  0.4152 -0.2897  0.7553
  171SOL    HW1  512   0.915   2.363   2.171 -0.2688  0.4397 -2.6049
  171SOL    HW2  513   1.027   2.332   2.046 -0.8438  1.4328  2.3681
  172SOL     OW  514   0.715   2.617   1.843 -0.1661 -0.3205 -0.0813
  172SOL    HW1  515   0.764   2.661   1.925  2.0294  3.1558 -0.6958
  172SOL    HW2  516   0.614   2.615   1.861  3.0017 -1.8249  1.6170
  173SOL     OW  517   1.373   2.372   0.840  0.1611  0.0337  0.1924
  173SOL    HW1  518   1.414   2.426   0.919  2.2869 -1.5543 -0.1311
  173SOL    HW2  519   1.429   2.291   0.825 -2.2651 -2.2485  1.2068
  174SOL     OW  520   1.684   0.317   0.514 -0.4525  0.5417 -0.4821
  174SOL    HW1  521   1.658   0.368   0.596  2.6733 -1.7997 -1.4577
  174SOL    HW2  522   1.685   0.216   0.529  0.9582  0.7744  1.3139
  175SOL     OW  523   1.463   1.218   0.359  0.2916  0.3457  0.4510
  175SOL    HW1  524   1.454   1.319   0.346 -1.3351 -3.1601  0.5785
  175SOL    HW2  525   1.371   1.181   0.381  3.5876  3.0785  0.2129
  176SOL     OW  526   1.486   0.937   0.633  1.0226  0.1249  0.1136
  176SOL    HW1  527   1.556   1.000   0.592  1.7524  1.0180 -1.0289
  176SOL    HW2  528   1.523   0.877   0.705 -0.9693 -0.5965 -1.0660
  177SOL     OW  529   1.244   0.745   1.185  0.1276 -0.2664  0.2251
  177SOL    HW1  530   1.179   0.782   1.255  2.0031 -0.8891 -1.5886
  177SOL    HW2  531   1.322   0.807   1.174 -0.3919 -1.4998 -2.6369
  178SOL     OW  532   2.678   1.611   3.078 -0.1433  0.0048 -0.7832
  178SOL    HW1  533   2.685   1.514   0.005 -0.5274 -0.7787 -3.1648
  178SOL    HW2  534   2.630   1.611   2.990  1.6319 -0.4019 -0.7600
  179SOL     OW  535   0.449   2.451   0.072  0.0196 -0.7512 -0.3590
  179SOL    HW1  536   0.452   2.522   0.142  0.2314 -1.9298  1.0818
  179SOL    HW2  537   0.545   2.425   0.044 -0.2905 -1.5526  0.1243
  180SOL     OW  538   1.799   1.583   1.806  0.1599  0.4167  0.6690
  180SOL    HW1  539   1.861   1.617   1.881 -1.9218 -1.3964 -2.7711
  180SOL    HW2  540   1.706   1.577   1.842  4.3176  0.2053 -3.2054
  181SOL     OW  541   1.054   1.233   2.189 -0.1979  0.3146 -0.0173
  181SOL    HW1  542   1.071   1.213   2.090 -1.5701 -1.5676  1.6427
  181SOL    HW2  543   1.120   1.182   2.251  0.8809 -0.0437 -0.2204
  182SOL     OW  544   3.103   1.174   2.487  0.0502 -0.3618  0.5566
  182SOL    HW1  545   0.017   1.265   2.452  1.1550 -1.4591 -0.5249
  182SOL    HW2  546   3.041   1.178   2.566  1.2451 -0.6034  0.4374
  183SOL     OW  547   1.709   0.619   2.226  0.3608 -0.3352  0.5125
  183SOL    HW1  548   1.805   0.632   2.204 -1.1115  3.4913 -0.6227
  183SOL    HW2  549   1.679   0.665   2.312 -0.9748 -0.1403  2.1745
  184SOL     OW  550   0.195   0.399   1.696 -0.1963 -0.3849  0.1699
  184SOL    HW1  551   0.290   0.391   1.728 -1.9579  1.7196 -2.2743
  184SOL    HW2  552   0.177   0.500   1.681  2.7470 -0.0265  0.1097
  185SOL     OW  553   2.343   1.829   0.535  0.0710  0.4795 -0.2210
  185SOL    HW1  554   2.267   1.885   0.492 -2.9025 -1.5215 -1.2017
  185SOL    HW2  555   2.423   1.831   0.473 -0.8091  1.4393  2.2098
  186SOL     OW  556   0.535   1.844   2.710  0.0110 -0.1516 -0.2453
  186SOL    HW1  557   0.608   1.910   2.739 -0.1682  0.5424  0.8339
  186SOL    HW2  558   0.447   1.886   2.678  2.4236 -0.4347  1.8983
  187SOL     OW  559   2.318   1.909   2.895  0.0876  0.0660 -0.2352
  187SOL    HW1  560   2.333   1.849   2.977  2.9375 -3.5228  1.2913
  187SOL    HW2  561   2.408   1.947   2.866  1.5920 -1.3497  0.7685
  188SOL     OW  562   0.825   2.399   0.517 -0.3398 -0.3997 -0.1749
  188SOL    HW1  563   0.751   2.348   0.568 -2.7082  1.7234  1.4867
  188SOL    HW2  564   0.795   2.450   0.433 -0.0305 -0.6722  1.7187
  189SOL     OW  565   2.181   0.740   2.787 -0.5860 -0.0057 -0.3761
  189SOL    HW1  566   2.105   0.679   2.804  0.3593  1.0794 -1.2407
  189SOL    HW2  567   2.148   0.828   2.753  1.0810 -1.6891 -1.0952
  190SOL     OW  568   1.068   2.001   2.167  0.6182 -0.1163  0.4132
  190SOL    HW1  569   1.099   2.078   2.229 -1.0526  0.2066 -0.8700
  190SOL    HW2  570   1.021   1.933   2.226  0.0912  1.0688  1.3034
  191SOL     OW  571   2.579   0.772   1.546  0.2023  0.2514 -1.0385
  191SOL    HW1  572   2.683   0.790   1.545  1.4295  0.9947  0.4682
  191SOL    HW2  573   2.544   0.777   1.449 -1.2865 -1.2772 -0.3281
  192SOL     OW  574   2.104   0.422   2.035 -0.3940 -0.0992  0.2203
  192SOL    HW1  575   2.189   0.433   1.972  1.3299  1.3702 -1.1157
  192SOL    HW2  576   2.118   0.347   2.105  1.5712  0.0989  3.5395
  193SOL     OW  577   0.269   0.253   0.900  0.1581  0.1265  0.0961
  193SOL    HW1  578   0.236   0.257   0.996 -3.7516  1.5650 -1.8230
  193SOL    HW2  579   0.236   0.338   0.852  0.2237 -1.7718 -1.1123
  194SOL     OW  580   1.171   2.498   1.519  0.0471 -0.5509 -0.0307
  194SOL    HW1  581   1.187   2.585   1.467  1.6924  1.8097 -2.2654
  194SOL    HW2  582   1.262   2.450   1.532  0.7187  0.6294  1.7707
  195SOL     OW  583   2.626   0.643   0.740  0.2020 -0.0687  0.2661
  195SOL    HW1  584   2.596   0.550   0.770 -4.2273  1.7426  1.5823
  195SOL    HW2  585   2.595   0.718   0.798  0.0956 -1.2533 -0.3626
  196SOL     OW  586   1.277   1.799   1.598  0.3915  0.2514  0.3023
  196SOL    HW1  587   1.188   1.797   1.552  0.3389 -0.6083  1.4450
  196SOL    HW2  588   1.341   1.728   1.553  1.3345 -1.0423 -2.3588
  197SOL     OW  589   0.403   0.393   2.508  0.1704  0.2894  0.3257
  197SOL    HW1  590   0.450   0.322   2.564 -0.4104 -0.3311  0.5671
  197SOL    HW2  591   0.386   0.476   2.563  1.6992 -0.0414 -0.5380
  198SOL     OW  592   1.239   1.028   0.690 -0.1877  0.1311 -0.1783
  198SOL    HW1  593   1.340   1.022   0.673 -0.5933 -0.9910 -1.1142
  198SOL    HW2  594   1.196   1.038   0.598 -1.5941  1.6220 -3.6134
  199SOL     OW  595   2.381   0.544   2.036  0.0830 -0.4514  0.4264
  199SOL    HW1  596   2.383   0.554   2.136 -2.0985  1.6162 -3.4671
  199SOL    HW2  597   2.474   0.522   1.998 -0.8019  1.2942  0.3158
  200SOL     OW  598   2.362   2.517   2.130 -0.2626  0.2188  0.1111
  200SOL    HW1  599   2.407   2.515   2.220 -2.3575  1.6637 -1.8928
  200SOL    HW2  600   2.427   2.555   2.061  1.6759  0.1320 -0.4460
  201SOL     OW  601   2.283   0.227   1.720  0.2535 -0.3710 -0.3107
  201SOL    HW1  602   2.276   0.329   1.747  1.9537 -1.5943 -0.6813
  201SOL    HW2  603   2.194   0.182   1.711 -1.0512  0.5192  2.6255
  202SOL     OW  604   2.219   2.865   0.101 -0.0551 -0.3937 -0.3604
  202SOL    HW1  605   2.162   2.931   0.165 -0.6904  2.6207  2.0229
  202SOL    HW2  606   2.173   2.861   0.012 -0.4505 -1.8242  1.5758
  203SOL     OW  607   0.782   2.020   2.235 -0.0959  0.3254  0.3512
  203SOL    HW1  608   0.851   1.953   2.275  0.6200  0.7951  0.6835
  203SOL    HW2  609   0.824   2.082   2.163 -0.7056  1.4931  1.5604
  204SOL     OW  610   0.945   1.264   2.720  0.1837 -0.3057 -0.0520
  204SOL    HW1  611   0.903   1.354   2.735 -0.0734  1.8429  1.1428
  204SOL    HW2  612   0.909   1.194   2.788 -2.0088  1.8623  1.7109
  205SOL     OW  613   0.981   0.949   1.208 -0.6006  0.0765  0.1167
  205SOL    HW1  614   0.989   0.878   1.276 -3.1167  2.1676 -1.8539
  205SOL    HW2  615   1.071   0.991   1.186 -0.5518  0.6264 -0.4953
  206SOL     OW  616   0.681   0.578   2.806 -0.2768 -0.1183  0.4302
  206SOL    HW1  617   0.710   0.595   2.710 -0.4422  0.8535 -0.0689
  206SOL    HW2  618   0.587   0.545   2.795  0.4613  1.0091  0.0184
  207SOL     OW  619   1.622   2.792   1.919 -0.5579 -0.5436 -0.2338
  207SOL    HW1  620   1.686   2.802   2.000  1.3368 -1.3810 -1.0647
  207SOL    HW2  621   1.652   2.844   1.833  0.1035  0.5951  0.1031
  208SOL     OW  622   0.855   2.372   1.165  0.1861 -0.7087 -0.8842
  208SOL    HW1  623   0.868   2.466   1.119 -1.0064  1.9530 -1.6183
  208SOL    HW2  624   0.822   2.303   1.098 -2.9232  2.7232  1.0461
  209SOL     OW  625   1.436   1.458   2.648  0.4830  0.0725 -0.1742
  209SOL    HW1  626   1.498   1.417   2.719 -1.0845  0.4570 -1.0171
  209SOL    HW2  627   1.445   1.390   2.569  1.0237 -0.7222  1.5704
  210SOL     OW  628   2.013   0.795   1.090  0.0361 -0.1817 -0.3746
  210SOL    HW1  629   2.056   0.752   1.169  0.8318  0.5215 -3.7915
  210SOL    HW2  630   2.085   0.809   1.015  0.1287 -0.1830 -0.1887
  211SOL     OW  631   1.041   2.519   0.589  0.2810 -0.3039  0.4064
  211SOL    HW1  632   1.041   2.601   0.528  2.3831  2.5077 -1.8996
  211SOL    HW2  633   0.947   2.473   0.576 -0.3564  0.4727 -1.2922
  212SOL     OW  634   2.068   1.896   0.203 -0.1957 -0.0970 -0.2931
  212SOL    HW1  635   2.012   1.921   0.123 -1.7485 -3.3099 -1.5475
  212SOL    HW2  636   2.159   1.941   0.196  1.3290 -3.8590 -2.0657
  213SOL     OW  637   1.721   0.365   2.752  0.1643 -0.0020  0.5456
  213SOL    HW1  638   1.712   0.281   2.697 -0.9355  3.1289  1.1279
  213SOL    HW2  639   1.670   0.446   2.719 -0.2661  0.3448 -1.2605
  214SOL     OW  640   1.194   1.677   1.873  0.5808 -0.1444  0.1510
  214SOL    HW1  641   1.093   1.706   1.849 -2.5669  2.3912  0.2650
  214SOL    HW2  642   1.255   1.700   1.794 -0.4056  0.9039 -1.7599
  215SOL     OW  643   0.657   1.827   0.366 -0.0142  0.0212 -0.1323
  215SOL    HW1  644   0.737   1.829   0.310 -1.9161 -2.1559  1.9652
  215SOL    HW2  645   0.590   1.759   0.337 -1.9347 -0.5777 -0.7607
  216SOL     OW  646   0.225   3.012   2.559  0.5291  0.1552  0.0171
  216SOL    HW1  647   0.293   2.937   2.573 -0.1462  2.2101 -0.4961
  216SOL    HW2  648   0.194   3.014   2.461 -0.1012  0.2908  2.0894
  217SOL     OW  649   2.579   0.634   1.112 -0.1013  0.3390 -0.1624
  217SOL    HW1  650   2.543   0.535   1.104  2.1836  1.3348 -0.1575
  217SOL    HW2  651   2.681   0.646   1.105 -1.5858 -2.5974  1.4066
  218SOL     OW  652   1.593   1.864   2.153 -0.3579 -0.4579  0.0598
  218SOL    HW1  653   1.615   1.768   2.124  0.6900 -0.1534 -0.5583
  218SOL    HW2  654   1.513   1.865   2.218  0.8660 -1.2342  1.8981
  219SOL     OW  655   2.189   1.531   3.035 -0.0356  0.2567  0.2052
  219SOL    HW1  656   2.216   1.529   2.937 -0.1041 -1.1629 -0.1964
  219SOL    HW2  657   2.112   1.598   3.050 -0.7560  0.6296 -0.9121
  220SOL     OW  658   1.767   1.052   0.728 -0.3217  0.1181 -0.2535
  220SOL    HW1  659   1.813   0.961   0.725  1.2296 -0.2073 -1.4931
  220SOL    HW2  660   1.742   1.085   0.635  2.0943 -0.5200  1.6225
  221SOL     OW  661   0.336   0.672   3.096 -0.6550 -0.0621 -0.1696
  221SOL    HW1  662   0.312   0.663   0.092 -0.8714  0.8975  2.0049
  221SOL    HW2  663   0.378   0.582   3.063  1.2550  0.7881  1.5741
  222SOL     OW  664   1.403   1.464   0.283 -0.3088  0.1005  0.0194
  222SOL    HW1  665   1.498   1.506   0.295  3.3345 -1.8402 -0.3854
  222SOL    HW2  666   1.367   1.487   0.188 -0.6848  1.1122  1.7993
  223SOL     OW  667   1.301   0.199   0.192  0.2745  0.0378 -0.7660
  223SOL    HW1  668   1.218   0.241   0.143 -2.6056 -1.3795 -1.0162
  223SOL    HW2  669   1.323   0.268   0.265  0.9418  2.2659  2.3482
  224SOL     OW  670   1.912   0.005   1.402  0.0949 -0.0609 -0.4738
  224SOL    HW1  671   1.839   0.004   1.331 -3.5627  0.2536 -0.9137
  224SOL    HW2  672   1.893   3.030   1.461  1.3557 -1.2674 -0.1019
  225SOL     OW  673   0.473   2.283   1.367 -0.8384 -0.6162  0.3580
  225SOL    HW1  674   0.526   2.232   1.434 -0.9425  0.8385  2.2288
  225SOL    HW2  675   0.526   2.359   1.329 -0.4880 -1.8709 -0.8756
  226SOL     OW  676   1.020   1.379   0.012  0.1288  0.2525 -0.6070
  226SOL    HW1  677   0.977   1.442   3.056  0.6328 -0.8825 -2.1469
  226SOL    HW2  678   1.085   1.425   0.074 -2.1149 -0.7192 -3.3897
  227SOL     OW  679   1.124   1.458   0.805 -0.1152 -0.4101  0.4391
  227SOL    HW1  680   1.110   1.555   0.778 -0.8638  2.5812  0.0675
  227SOL    HW2  681   1.113   1.442   0.902  1.0483 -3.3493 -3.7766
  228SOL     OW  682   0.247   1.762   0.465 -0.7688 -0.1610 -0.1141
  228SOL    HW1  683   0.270   1.714   0.550  1.6366 -1.8556 -0.5713
  228SOL    HW2  684   0.159   1.814   0.471 -2.6660 -1.6699 -1.6060
  229SOL     OW  685   1.538   0.096   2.808  0.1249  0.0822  0.3723
  229SOL    HW1  686   1.601   0.133   2.739 -0.2223  0.4087 -0.3772
  229SOL    HW2  687   1.475   0.169   2.838  0.4875  2.1683  1.9985
  230SOL     OW  688   1.492   0.931   2.671 -0.6505  0.5536  0.1159
  230SOL    HW1  689   1.506   0.936   2.573  1.7779 -0.3584 -1.2946
  230SOL    HW2  690   1.458   1.018   2.713  0.3215  0.8295 -0.9810
  231SOL     OW  691   1.048   1.728   2.591 -0.0716  0.2628 -0.0077
  231SOL    HW1  692   1.119   1.685   2.645 -3.0004 -1.9785  1.0735
  231SOL    HW2  693   0.970   1.664   2.580 -1.7335  0.5763 -1.5553
  232SOL     OW  694   2.291   2.299   0.138 -0.3704  0.6760 -0.7077
  232SOL    HW1  695   2.200   2.325   0.180 -1.4211 -0.4884  4.2100
  232SOL    HW2  696   2.311   2.196   0.138  0.5592  0.3559 -2.2219
  233SOL     OW  697   2.428   2.531   0.244 -0.3272  0.4260  0.3910
  233SOL    HW1  698   2.410   2.617   0.192  0.8380  0.7216  0.1959
  233SOL    HW2  699   2.378   2.448   0.207  1.6182 -0.1958 -0.3934
  234SOL     OW  700   0.726   0.784   2.972  0.4747  0.0016 -0.5188
  234SOL    HW1  701   0.708   0.700   2.920 -2.1073  0.6516 -0.6476
  234SOL    HW2  702   0.820   0.772   3.015 -1.6618  1.3377  3.6442
  235SOL     OW  703   2.801   0.397   2.848  0.3552  0.0861 -0.2405
  235SOL    HW1  704   2.834   0.301   2.843 -0.6457  0.2955 -1.0147
  235SOL    HW2  705   2.724   0.410   2.785  1.8831  1.6290  2.9112
  236SOL     OW  706   2.011   2.480   1.411 -0.6055 -0.1073  0.2843
  236SOL    HW1  707   1.971   2.391   1.373 -0.2045 -1.8367 -1.1273
  236SOL    HW2  708   1.978   2.492   1.508  0.1793 -0.5662  1.6844
  237SOL     OW  709   0.905   1.598   1.846  0.4666 -0.3378  0.2010
  237SOL    HW1  710   0.882   1.697   1.830 -1.5996 -1.4661 -0.9030
  237SOL    HW2  711   0.874   1.564   1.933  2.3718  0.5442  0.4243
  238SOL     OW  712   1.556   0.564   2.651 -0.3039  0.0485 -0.0673
  238SOL    HW1  713   1.522   0.629   2.723 -1.8590  2.4050  0.6663
  238SOL    HW2  714   1.472   0.522   2.610  0.8114  1.1236  4.4884
  239SOL     OW  715   0.189   2.091   1.795  0.4045 -0.1709  0.1094
  239SOL    HW1  716   0.198   2.163   1.723 -2.1944  1.7602  0.2986
  239SOL    HW2  717   0.239   2.120   1.876 -3.3846 -0.4749 -3.2786
  240SOL     OW  718   2.318   2.614   0.498  0.3535  0.5119  0.3151
  240SOL    HW1  719   2.225   2.657   0.476 -2.4017  2.5375 -0.1991
  240SOL    HW2  720   2.357   2.566   0.420  1.1006  0.5516 -0.2236
  241SOL     OW  721   2.620   0.844   0.911 -0.3472 -0.5336  0.5482
  241SOL    HW1  722   2.597   0.810   1.000  1.1854 -1.5210  0.3811
  241SOL    HW2  723   2.548   0.893   0.864  3.1666 -1.0734  2.2740
  242SOL     OW  724   2.114   2.611   2.163 -0.6056 -0.3244  0.0750
  242SOL    HW1  725   2.061   2.537   2.118  4.0457  4.6293 -0.1138
  242SOL    HW2  726   2.215   2.593   2.153  1.8996  2.5244 -0.7467
  243SOL     OW  727   0.810   2.237   1.400  0.1626 -0.6282 -0.2112
  243SOL    HW1  728   0.829   2.317   1.339  1.8581  0.5387  2.0703
  243SOL    HW2  729   0.830   2.154   1.350 -2.5112  4.2561  0.7990
  244SOL     OW  730   1.714   0.163   2.574  0.2110 -0.2373 -0.0626
  244SOL    HW1  731   1.747   0.199   2.482  2.9056 -0.2248 -2.7864
  244SOL    HW2  732   1.702   0.060   2.565  1.7973 -1.1087  0.1807
  245SOL     OW  733   1.376   0.078   1.342  0.7159  0.0995  0.2912
  245SOL    HW1  734   1.452   0.042   1.288 -0.3137  1.4273 -1.3144
  245SOL    HW2  735   1.291   0.030   1.319  0.4046  1.5224  2.0194
  246SOL     OW  736   1.842   2.675   0.292 -0.1128 -0.4963  0.5450
  246SOL    HW1  737   1.889   2.639   0.208 -0.3890 -0.3271 -0.4587
  246SOL    HW2  738   1.861   2.611   0.369  0.1496 -0.4601 -1.1515
  247SOL     OW  739   1.283   0.710   2.424  0.5494  0.5790 -0.0140
  247SOL    HW1  740   1.209   0.739   2.489  1.9794 -0.2204  0.3949
  247SOL    HW2  741   1.301   0.611   2.415  0.4726 -1.1352 -0.2293
  248SOL     OW  742   0.770   1.864   1.583 -0.0520  0.4593  0.0136
  248SOL    HW1  743   0.859   1.903   1.561 -0.5847 -1.8837 -0.1544
  248SOL    HW2  744   0.720   1.921   1.651  0.4645 -2.4491 -1.5412
  249SOL     OW  745   2.304   0.350   0.559 -0.0493 -0.5078  0.3217
  249SOL    HW1  746   2.266   0.432   0.514 -0.6230  2.1670 -0.4549
  249SOL    HW2  747   2.277   0.345   0.657  2.2567 -0.6126 -0.2985
  250SOL     OW  748   0.003   0.625   0.350 -0.3428  0.7365  0.5087
  250SOL    HW1  749   0.011   0.571   0.437  2.2392  0.6182  0.8460
  250SOL    HW2  750   3.025   0.610   0.299 -0.9743 -0.6908  0.7631
  251SOL     OW  751   1.375   0.484   3.051 -0.1970 -0.3800 -0.3029
  251SOL    HW1  752   1.467   0.518   3.094  0.7790  2.8450 -0.1703
  251SOL    HW2  753   1.349   0.542   2.972 -0.5343  1.4221 -0.0270
  252SOL     OW  754   1.554   1.819   1.813  0.1416  0.2238  0.4013
  252SOL    HW1  755   1.484   1.875   1.768  0.6745  1.2668  0.1926
  252SOL    HW2  756   1.518   1.722   1.816  0.6244 -0.5391 -1.8048
  253SOL     OW  757   2.489   2.486   1.410  0.0129 -0.0124 -0.1453
  253SOL    HW1  758   2.486   2.415   1.483  3.2643 -0.7148 -1.3983
  253SOL    HW2  759   2.580   2.539   1.420  1.1162 -0.8318  2.0154
  254SOL     OW  760   2.844   1.191   1.113  0.3706 -0.0455 -0.2567
  254SOL    HW1  761   2.903   1.264   1.150 -1.8573 -0.8567 -0.8046
  254SOL    HW2  762   2.849   1.188   1.017  0.2746  0.8231  2.2009
  255SOL     OW  763   1.211   0.270   0.947 -0.7768 -0.1054  0.0364
  255SOL    HW1  764   1.115   0.237   0.946  0.4776  0.7615 -0.5984
  255SOL    HW2  765   1.222   0.341   1.014  1.6930 -4.3710 -0.9662
  256SOL     OW  766   1.713   2.368   1.076 -0.2030 -0.3415  0.5460
  256SOL    HW1  767   1.696   2.305   1.152  0.0520 -0.3370 -1.7550
  256SOL    HW2  768   1.812   2.377   1.062  0.2987  0.6288 -1.6799
  257SOL     OW  769   0.644   0.013   2.533 -0.4777 -0.2869 -0.2508
  257SOL    HW1  770   0.650   3.033   2.585  1.8013  1.0584 -0.4302
  257SOL    HW2  771   0.597   3.101   2.442 -0.1186  0.9646  0.5296
  258SOL     OW  772   0.993   2.157   0.605  0.2803  0.1324  0.2101
  258SOL    HW1  773   0.921   2.220   0.643  0.4345 -0.8413 -0.1259
  258SOL    HW2  774   0.947   2.068   0.588  0.0154 -0.7853  0.0494
  259SOL     OW  775   1.244   3.061   2.683 -0.3020 -0.4663  0.0050
  259SOL    HW1  776   1.150   3.030   2.703 -0.4973  1.9587 -0.1046
  259SOL    HW2  777   1.282   3.008   2.601 -0.4270  1.8193 -2.8510
  260SOL     OW  778   2.239   0.608   1.413  0.2076 -0.2986  0.0177
  260SOL    HW1  779   2.142   0.624   1.439  1.0562 -0.6855  1.9103
  260SOL    HW2  780   2.298   0.610   1.497 -0.7909  0.0077 -0.7275
  261SOL     OW  781   0.680   0.626   2.537  0.4575  0.5462  0.2076
  261SOL    HW1  782   0.587   0.583   2.540  1.1555 -1.2107 -0.6832
  261SOL    HW2  783   0.686   0.691   2.461 -2.2362 -0.7776  0.4598
  262SOL     OW  784   0.245   2.215   2.056 -0.2468  0.1998 -0.4197
  262SOL    HW1  785   0.227   2.173   2.146 -0.1970 -0.3028  1.1025
  262SOL    HW2  786   0.192   2.300   2.038  0.1949 -2.0185  0.6924
  263SOL     OW  787   0.062   1.708   2.417  0.2505 -0.1470 -0.5348
  263SOL    HW1  788   3.089   1.763   2.458  1.4052  1.9788  0.7926
  263SOL    HW2  789   0.142   1.768   2.384  2.2123  1.2213 -1.5636
  264SOL     OW  790   1.116   1.047   0.949  0.0974 -0.3118  0.1334
  264SOL    HW1  791   1.034   0.987   0.925 -0.3554 -1.2908 -1.5739
  264SOL    HW2  792   1.185   1.048   0.871 -0.7486  0.4850 -0.7763
  265SOL     OW  793   1.480   2.784   0.750  0.2812  0.3609 -0.2026
  265SOL    HW1  794   1.413   2.706   0.750 -0.8493  1.0409  0.7013
  265SOL    HW2  795   1.543   2.786   0.833 -0.7559  2.7755 -0.9904
  266SOL     OW  796   1.759   0.995   1.549 -0.5355  0.6732 -0.2480
  266SOL    HW1  797   1.823   0.958   1.481  0.1690  0.8183  0.4212
  266SOL    HW2  798   1.805   1.042   1.625  0.2957  0.8148 -0.4822
  267SOL     OW  799   2.451   1.164   2.844  0.5288 -0.1996 -0.3028
  267SOL    HW1  800   2.509   1.184   2.766 -0.8239  3.1934  3.4091
  267SOL    HW2  801   2.355   1.198   2.828 -0.4804 -0.3354  1.3194
  268SOL     OW  802   1.478   0.403   0.323 -0.8051  0.2375 -0.3920
  268SOL    HW1  803   1.562   0.398   0.387  1.3387  1.0997  1.4714
  268SOL    HW2  804   1.510   0.439   0.234 -0.6497  0.9663  0.8166
  269SOL     OW  805   3.046   0.766   2.734  0.0281  0.5110  0.7123
  269SOL    HW1  806   2.979   0.710   2.681  2.2674  0.2581 -0.2825
  269SOL    HW2  807   2.999   0.824   2.804 -0.7354  0.1212  0.8766
  270SOL     OW  808   0.189   1.408   2.864  0.1171 -0.1871 -0.1520
  270SOL    HW1  809   0.102   1.405   2.916  4.5972 -0.8527 -1.7090
  270SOL    HW2  810   0.190   1.337   2.787  1.7489 -4.3995  0.0129
  271SOL     OW  811   2.649   0.861   0.150  0.2889  0.6278 -0.3461
  271SOL    HW1  812   2.642   0.899   0.053 -0.3235  1.4437  0.8070
  271SOL    HW2  813   2.741   0.815   0.156 -1.7460  1.0616  1.0291
  272SOL     OW  814   2.615   2.248   2.292 -0.0358 -0.0554  0.4081
  272SOL    HW1  815   2.674   2.201   2.361 -2.9914 -2.5939  0.5690
  272SOL    HW2  816   2.592   2.340   2.329  0.5213 -0.0691 -1.5526
  273SOL     OW  817   0.046   0.092   0.034  0.0161  0.0108  0.0196
  273SOL    HW1  818   3.098   0.179   0.043 -0.1699  1.5127  2.9011
  273SOL    HW2  819   0.059   0.048   0.124 -0.5757  0.9103 -0.9629
  274SOL     OW  820   0.780   1.915   0.843  0.7949 -0.1897  0.3347
  274SOL    HW1  821   0.703   1.853   0.829 -2.2822  0.0608 -0.7918
  274SOL    HW2  822   0.828   1.938   0.756 -0.3881  0.5300 -1.6361
  275SOL     OW  823   2.154   0.652   0.696  0.4735 -0.2796  0.6145
  275SOL    HW1  824   2.223   0.691   0.631 -2.2689 -0.6809 -2.0503
  275SOL    HW2  825   2.175   0.674   0.789 -2.9768  0.8101 -2.3297
  276SOL     OW  826   2.565   1.495   1.279  0.2393  0.6823 -0.3519
  276SOL    HW1  827   2.499   1.555   1.224 -1.9541  3.2510 -1.7572
  276SOL    HW2  828   2.523   1.487   1.365  1.0216  1.0474 -0.9848
  277SOL     OW  829   2.223   3.053   1.202  0.2145  0.3501 -0.0224
  277SOL    HW1  830   2.322   3.037   1.218 -0.4686 -0.1353  1.4505
  277SOL    HW2  831   2.202   0.042   1.225 -0.9151  0.9091 -0.1925
  278SOL     OW  832   1.504   2.637   2.330  0.1374  0.3406  0.4879
  278SOL    HW1  833   1.424   2.591   2.282 -0.3435 -1.9558 -0.8656
  278SOL    HW2  834   1.485   2.641   2.431 -2.2388 -3.4653  2.0737
  279SOL     OW  835   1.429   2.009   1.057  0.0185 -0.2602 -0.7706
  279SOL    HW1  836   1.376   2.061   1.128  1.7632 -1.0669 -1.8286
  279SOL    HW2  837   1.495   2.073   1.008 -0.0733  0.0563  0.2603
  280SOL     OW  838   0.505   1.094   1.185  0.0897 -0.5225  0.2147
  280SOL    HW1  839   0.441   1.073   1.265 -0.3254 -0.8336  1.6303
  280SOL    HW2  840   0.599   1.087   1.210  0.2406  1.4782 -0.9242
  281SOL     OW  841   2.649   1.366   2.818 -0.2834  0.1115 -0.2635
  281SOL    HW1  842   2.600   1.454   2.810  2.0800  0.7573 -3.0117
  281SOL    HW2  843   2.731   1.366   2.759 -0.7331 -1.2861  0.0394
  282SOL     OW  844   0.433   1.649   0.302  0.2517  0.2049  0.1359
  282SOL    HW1  845   0.367   1.688   0.370  1.7832  2.3393 -1.4131
  282SOL    HW2  846   0.417   1.553   0.274  1.5040 -1.4790 -0.5028
  283SOL     OW  847   1.793   2.493   3.009  0.0083  0.2211  0.5442
  283SOL    HW1  848   1.889   2.528   3.015 -0.7393 -2.3032 -2.8574
  283SOL    HW2  849   1.789   2.410   2.953  2.0396  2.1886  1.9281
  284SOL     OW  850   1.011   0.026   0.659  0.3682 -0.2201  0.3362
  284SOL    HW1  851   1.095   0.022   0.719  0.1923  2.3401 -2.4501
  284SOL    HW2  852   1.011   0.109   0.603  0.3694 -2.8203 -2.0885
  285SOL     OW  853   2.171   1.202   2.770 -0.4259 -0.3659  0.0852
  285SOL    HW1  854   2.154   1.263   2.691 -0.3677 -0.5363  0.6554
  285SOL    HW2  855   2.111   1.234   2.850 -1.9101  2.7124 -0.4554
  286SOL     OW  856   1.808   2.604   0.800 -0.1212 -0.2109 -0.2159
  286SOL    HW1  857   1.816   2.517   0.853  1.0694 -0.9620  1.6451
  286SOL    HW2  858   1.815   2.696   0.852  0.1749  2.4800  0.3970
  287SOL     OW  859   1.330   0.394   0.726  0.0649  0.0383 -0.3058
  287SOL    HW1  860   1.273   0.331   0.783  1.2493 -0.4875  2.8952
  287SOL    HW2  861   1.314   0.491   0.759  0.5034  1.1507  1.1359
  288SOL     OW  862   0.787   2.705   2.833  0.3903 -0.1002  0.2321
  288SOL    HW1  863   0.872   2.715   2.889 -0.3135  2.2825 -0.8743
  288SOL    HW2  864   0.711   2.749   2.887  1.1361  1.3120  0.7118
  289SOL     OW  865   0.123   1.653   0.932 -0.0235 -0.3767  0.2425
  289SOL    HW1  866   0.140   1.555   0.956  2.9639  0.4590 -1.7493
  289SOL    HW2  867   0.031   1.666   0.882 -1.1761  2.4895 -2.3314
  290SOL     OW  868   1.206   1.872   0.912 -0.1693  0.4405  0.7706
  290SOL    HW1  869   1.201   1.942   0.836 -0.2800 -0.9830 -2.1996
  290SOL    HW2  870   1.267   1.904   0.987 -0.7218  2.2975  2.1847
  291SOL     OW  871   1.580   2.878   0.022  0.6087 -0.3930 -0.4961
  291SOL    HW1  872   1.550   2.833   0.110 -0.5830 -0.3358  2.1729
  291SOL    HW2  873   1.540   2.970   0.026 -0.6352 -0.4110 -0.1869
  292SOL     OW  874   0.463   0.451   2.147  0.4640 -0.2349  0.0526
  292SOL    HW1  875   0.413   0.478   2.230  0.1635 -0.2080 -0.5269
  292SOL    HW2  876   0.547   0.510   2.124  2.7183 -1.1455  1.8478
  293SOL     OW  877   2.594   2.095   0.921 -0.4996 -0.4141  0.1235
  293SOL    HW1  878   2.509   2.091   0.862 -3.8044 -1.5231  0.4388
  293SOL    HW2  879   2.573   2.126   1.016  2.9718 -1.2209 -0.6396
  294SOL     OW  880   0.635   0.261   2.258 -0.3985  0.7413 -0.0507
  294SOL    HW1  881   0.558   0.326   2.237 -1.0870 -1.3654 -1.0865
  294SOL    HW2  882   0.606   0.163   2.262 -1.6467  1.7736  1.6566
  295SOL     OW  883   1.458   1.732   1.104  0.5650  0.0899  0.3718
  295SOL    HW1  884   1.384   1.692   1.158  0.1573  1.6529  0.4789
  295SOL    HW2  885   1.443   1.834   1.087 -2.1148  1.7767  1.5379
  296SOL     OW  886   2.355   2.033   0.130 -0.2469 -0.1680  0.1892
  296SOL    HW1  887   2.355   1.936   0.102 -0.6349  1.0738 -1.6851
  296SOL    HW2  888   2.440   2.078   0.091  0.8500 -0.0642 -1.0037
  297SOL     OW  889   2.270   0.155   0.371  0.2862  0.2307 -0.5666
  297SOL    HW1  890   2.187   0.100   0.380 -3.4603 -2.1704 -0.5371
  297SOL    HW2  891   2.277   0.224   0.442 -2.0403 -1.9108  0.5009
  298SOL     OW  892   0.952   0.166   2.924  0.6081  0.1097  0.1227
  298SOL    HW1  893   0.985   0.120   2.839  1.7714 -0.4924  1.8025
  298SOL    HW2  894   0.944   0.263   2.902 -2.3860 -0.0821 -2.2812
  299SOL     OW  895   0.451   2.494   2.224  0.6407 -0.1825 -0.3722
  299SOL    HW1  896   0.475   2.409   2.172 -0.0524 -1.4750 -1.2934
  299SOL    HW2  897   0.385   2.481   2.304  1.1406  0.6084  1.2133
  300SOL     OW  898   2.858   0.009   2.505  0.2291  0.2034  0.3216
  300SOL    HW1  899   2.866   0.107   2.475 -0.3699 -0.4836  2.7557
  300SOL    HW2  900   2.935   3.077   2.559 -0.2365  0.2227  0.0908
  301SOL     OW  901   1.192   0.509   1.586  0.1320 -0.1221  0.1823
  301SOL    HW1  902   1.292   0.510   1.617 -1.3779 -0.9933  1.2240
  301SOL    HW2  903   1.175   0.421   1.539  2.4425 -1.3319 -1.2061
  302SOL     OW  904   3.001   2.341   2.877 -0.1280  0.1603  0.0507
  302SOL    HW1  905   3.075   2.408   2.869  0.1996  0.1667 -0.2920
  302SOL    HW2  906   2.921   2.367   2.820  0.2030 -0.8348 -0.2167
  303SOL     OW  907   2.167   2.202   1.494 -0.2854  0.0479  0.2117
  303SOL    HW1  908   2.071   2.220   1.463  0.2707 -0.5176  0.5801
  303SOL    HW2  909   2.200   2.270   1.557 -0.7531 -2.3683 -0.6726
  304SOL     OW  910   2.821   0.855   1.507 -0.2262 -0.0751  1.1689
  304SOL    HW1  911   2.846   0.875   1.412 -0.9367 -0.7130 -1.5654
  304SOL    HW2  912   2.890   0.897   1.570  0.8501  0.4551  0.2231
  305SOL     OW  913   0.701   1.628   0.835 -0.2605  0.6308  0.4508
  305SOL    HW1  914   0.774   1.620   0.906 -0.9801 -0.8537  0.1336
  305SOL    HW2  915   0.621   1.687   0.866  2.8334 -0.6834 -0.2521
  306SOL     OW  916   0.440   1.440   2.314 -0.5094  0.3681  0.6721
  306SOL    HW1  917   0.477   1.533   2.293 -1.1394 -0.9198 -2.6303
  306SOL    HW2  918   0.513   1.384   2.366  1.3677  1.0543 -0.5377
  307SOL     OW  919   1.129   0.252   1.508 -0.0075 -0.2287 -0.1164
  307SOL    HW1  920   1.130   0.166   1.562 -0.5069  0.4128 -0.6083
  307SOL    HW2  921   1.101   0.233   1.413 -0.5832  0.3528 -0.4635
  308SOL     OW  922   0.044   0.987   1.246  0.1126  0.7103 -0.8726
  308SOL    HW1  923   3.046   0.965   1.263  0.1826  0.2693  0.2295
  308SOL    HW2  924   0.059   0.994   1.143 -0.8365  1.5687  0.2212
  309SOL     OW  925   2.589   1.250   1.186  0.0631  0.3445 -0.4571
  309SOL    HW1  926   2.593   1.341   1.233 -0.0579 -1.5596  2.3334
  309SOL    HW2  927   2.681   1.226   1.140 -2.3027 -1.0934  0.3675
  310SOL     OW  928   0.244   1.914   2.384 -0.0468  0.0571  0.2902
  310SOL    HW1  929   0.344   1.926   2.369  2.5538  0.6444  2.1380
  310SOL    HW2  930   0.198   1.995   2.343  1.4705  1.4041 -1.6479
  311SOL     OW  931   2.597   2.730   2.410 -0.6430 -0.1641 -0.5514
  311SOL    HW1  932   2.594   2.776   2.319 -0.9938  3.5659 -3.6513
  311SOL    HW2  933   2.640   2.794   2.482 -0.2276  2.3199 -1.9906
  312SOL     OW  934   1.916   2.135   2.973  0.4479  0.4473 -1.2393
  312SOL    HW1  935   1.832   2.175   2.932  0.7754 -0.0538  1.1397
  312SOL    HW2  936   1.992   2.146   2.914 -4.1023  1.3154  2.8056
  313SOL     OW  937   0.004   2.979   0.779  0.1526 -0.2781  0.0225
  313SOL    HW1  938   3.100   2.901   0.707  0.3264 -1.5993 -0.7176
  313SOL    HW2  939   0.077   3.045   0.754 -0.1149 -1.5749 -1.3307
  314SOL     OW  940   1.830   0.999   3.013 -0.2181  0.1570  0.1192
  314SOL    HW1  941   1.838   0.922   3.077  1.1682  0.3958  2.6802
  314SOL    HW2  942   1.916   1.053   2.998  1.0976 -0.9358  1.8389
  315SOL     OW  943   1.622   3.019   2.488 -0.0944  0.0854 -0.0192
  315SOL    HW1  944   1.553   3.056   2.424  2.8987 -0.9499  0.2403
  315SOL    HW2  945   1.589   2.966   2.570 -1.3635 -1.0508  2.7493
  316SOL     OW  946   2.790   1.263   0.552  0.6452  0.2107 -0.5221
  316SOL    HW1  947   2.882   1.261   0.502  2.4316 -0.8881 -0.3400
  316SOL    HW2  948   2.728   1.208   0.495  1.5180  0.1231 -2.5638
  317SOL     OW  949   0.569   2.819   2.965  0.3448 -0.6321  0.7743
  317SOL    HW1  950   0.476   2.809   3.006  1.3872  1.4491 -2.4837
  317SOL    HW2  951   0.640   2.841   3.036 -0.2193 -1.7194 -1.6584
  318SOL     OW  952   2.805   2.395   1.073 -0.2039  0.0524  0.6672
  318SOL    HW1  953   2.882   2.340   1.036 -0.2793 -1.0475 -1.0406
  318SOL    HW2  954   2.719   2.376   1.031 -0.5814  1.1374  0.1372
  319SOL     OW  955   1.215   1.915   2.902 -0.2578  0.3854  0.1950
  319SOL    HW1  956   1.119   1.906   2.876 -2.4662 -1.1224 -0.7661
  319SOL    HW2  957   1.258   1.825   2.918 -1.3817  1.6203 -0.7003
  320SOL     OW  958   0.616   1.948   1.166  0.3920  0.0916  0.6410
  320SOL    HW1  959   0.574   1.882   1.103  3.0223 -0.1406  0.6963
  320SOL    HW2  960   0.566   1.945   1.256  1.2261 -2.7828 -3.0489
  321SOL     OW  961   1.148   2.805   2.301  0.1698  0.3436  0.0345
  321SOL    HW1  962   1.066   2.856   2.331 -1.1240  0.6904 -2.0666
  321SOL    HW2  963   1.125   2.707   2.287  0.7076  0.9598  1.6096
  322SOL     OW  964   2.465   1.847   1.793  0.2587 -0.1223 -0.3004
  322SOL    HW1  965   2.457   1.875   1.895  0.3262  0.3763  2.5186
  322SOL    HW2  966   2.417   1.909   1.727  1.4296 -1.9489  1.6014
  323SOL     OW  967   2.970   0.599   0.884 -0.3168  0.4358  0.1441
  323SOL    HW1  968   2.937   0.626   0.792  1.5009 -0.9751  4.8382
  323SOL    HW2  969   3.053   0.646   0.909 -1.7525  0.6598  0.4190
  324SOL     OW  970   2.687   2.901   2.597  0.0716 -0.2412 -0.0910
  324SOL    HW1  971   2.675   2.896   2.699  0.9318  0.7501  1.2779
  324SOL    HW2  972   2.728   2.991   2.574 -0.7391  1.1787 -4.9272
  325SOL     OW  973   1.024   0.416   2.641 -0.0444 -0.0351  0.0664
  325SOL    HW1  974   1.101   0.351   2.630 -0.8357 -0.6692  1.4122
  325SOL    HW2  975   0.964   0.394   2.562 -0.6440 -0.2544 -0.4444
  326SOL     OW  976   1.893   2.519   1.660  0.1386 -0.1657 -0.8264
  326SOL    HW1  977   1.792   2.508   1.670  0.7200 -0.8640  0.0845
  326SOL    HW2  978   1.929   2.604   1.693  0.1665 -1.0543  0.1677
  327SOL     OW  979   2.173   0.056   2.888 -0.1302 -0.1293  0.1568
  327SOL    HW1  980   2.198   0.115   2.967  2.3864 -1.5196  0.5259
  327SOL    HW2  981   2.136   3.076   2.915  0.8616  2.9062 -1.5306
  328SOL     OW  982   0.269   1.336   2.010  0.2532 -0.3446 -0.0738
  328SOL    HW1  983   0.237   1.314   2.105 -0.2999 -0.0261  1.5312
  328SOL    HW2  984   0.206   1.406   1.976 -0.2958 -2.7734  1.2794
  329SOL     OW  985   1.996   0.562   1.710  0.1138 -0.1554  0.0547
  329SOL    HW1  986   1.968   0.627   1.785  2.7728  2.9086  2.0971
  329SOL    HW2  987   2.094   0.544   1.711 -0.5629  1.5793 -0.5331
  330SOL     OW  988   0.012   1.220   0.861  0.1797 -0.0747  0.3343
  330SOL    HW1  989   3.093   1.131   0.902 -1.4523  1.1360 -0.9006
  330SOL    HW2  990   0.059   1.282   0.928 -1.8875  2.3230  3.0360
  331SOL     OW  991   0.061   1.853   2.051 -0.5653 -0.4854 -0.1482
  331SOL    HW1  992   0.004   1.776   2.070  0.4995  4.9255 -1.0825
  331SOL    HW2  993   0.161   1.827   2.081 -1.1072  0.4642 -0.1075
  332SOL     OW  994   0.031   2.593   1.569 -0.4103  0.1572 -0.3358
  332SOL    HW1  995   3.070   2.630   1.496  0.5115 -1.3162 -2.0826
  332SOL    HW2  996   3.100   2.507   1.612  0.4512  1.9909 -2.0968
  333SOL     OW  997   2.623   0.160   1.137  0.2837  0.4677  0.0609
  333SOL    HW1  998   2.561   0.083   1.168 -2.1500 -0.3409 -0.7982
  333SOL    HW2  999   2.698   0.133   1.070 -1.3157 -1.8833 -0.7469
  334SOL     OW 1000   0.254   1.621   0.695  0.3235 -0.1726  0.5847
  334SOL    HW1 1001   0.318   1.542   0.711  0.6819  0.5429 -0.0296
  334SOL    HW2 1002   0.223   1.665   0.783 -3.0585  0.2998  1.7937
  335SOL     OW 1003   0.150   2.646   2.947  0.1265  0.4366  0.0855
  335SOL    HW1 1004   0.097   2.632   2.865  0.9703 -0.8729  2.6342
  335SOL    HW2 1005   0.182   2.553   2.980 -2.7006  0.0023  0.0530
  336SOL     OW 1006   2.982   2.741   2.375  0.2209  0.8422  0.0237
  336SOL    HW1 1007   2.978   2.830   2.329  0.7868 -2.6655  0.1402
  336SOL    HW2 1008   3.073   2.690   2.364 -1.4957  0.0646 -0.4153
  337SOL     OW 1009   1.738   2.501   1.949 -0.1219 -0.0872 -0.7696
  337SOL    HW1 1010   1.698   2.592   1.932  0.7308  3.2250 -0.3882
  337SOL    HW2 1011   1.661   2.429   1.944 -1.3013  0.0649  2.3122
  338SOL     OW 1012   0.780   2.842   0.035 -0.6654  0.2696 -0.4399
  338SOL    HW1 1013   0.718   2.894   0.100 -0.4515 -0.2939 -0.3328
  338SOL    HW2 1014   0.852   2.907   3.104 -1.5475 -3.3549 -1.2495
  339SOL     OW 1015   0.556   1.199   2.138  0.2276 -0.1413  0.7019
  339SOL    HW1 1016   0.529   1.296   2.146  1.8491 -0.9415 -2.8834
  339SOL    HW2 1017   0.599   1.187   2.048 -1.8058  0.7563  1.8692
  340SOL     OW 1018   1.895   2.826   0.610 -0.2126 -0.1622 -0.5965
  340SOL    HW1 1019   1.874   2.764   0.687  2.7084  0.7166 -0.6011
  340SOL    HW2 1020   1.853   2.917   0.614  1.7678  1.4460  0.8039
  341SOL     OW 1021   2.154   1.136   1.084 -0.1666  0.0482 -0.3879
  341SOL    HW1 1022   2.086   1.058   1.071 -2.1616 -1.0960 -1.8370
  341SOL    HW2 1023   2.134   1.208   1.156  2.0187  0.7737  0.9911
  342SOL     OW 1024   2.495   3.059   0.117  0.3916 -0.3450 -0.1783
  342SOL    HW1 1025   2.395   3.054   0.141 -0.3374  0.8376  0.2556
  342SOL    HW2 1026   2.549   2.975   0.150  1.4857 -0.9160 -2.2500
  343SOL     OW 1027   1.069   2.159   1.623 -0.1649  0.5553 -0.2782
  343SOL    HW1 1028   1.002   2.219   1.576  3.3368 -0.5792 -0.5738
  343SOL    HW2 1029   1.156   2.162   1.570 -0.2524  0.6360  0.3950
  344SOL     OW 1030   2.587   2.809   1.388 -0.0642  0.0194  0.7851
  344SOL    HW1 1031   2.522   2.791   1.462  3.1706 -1.1915 -0.5101
  344SOL    HW2 1032   2.679   2.836   1.430  1.8977  1.9915  1.8590
  345SOL     OW 1033   2.538   2.079   2.859  0.1826  0.2808  0.6233
  345SOL    HW1 1034   2.624   2.039   2.824  1.7863  0.0313 -2.2162
  345SOL    HW2 1035   2.542   2.087   2.960  2.0103 -1.1647 -1.1426
  346SOL     OW 1036   2.360   2.229   0.567  0.6467 -0.3391  0.5986
  346SOL    HW1 1037   2.446   2.211   0.520  0.9421  0.3151  0.6334
  346SOL    HW2 1038   2.361   2.202   0.663  0.1608  0.3889 -3.4809
  347SOL     OW 1039   1.632   2.109   1.445 -0.2936 -0.0690  0.3312
  347SOL    HW1 1040   1.659   2.139   1.541 -1.7332  0.1069  1.0733
  347SOL    HW2 1041   1.582   2.019   1.446  0.4698 -2.5792 -0.0064
  348SOL     OW 1042   0.527   1.711   2.309  0.4266  0.3587 -0.4814
  348SOL    HW1 1043   0.620   1.713   2.276 -3.8435 -0.3931 -0.5114
  348SOL    HW2 1044   0.515   1.786   2.375  1.7692  1.8427 -2.2999
  349SOL     OW 1045   2.175   1.626   0.660 -0.0610  0.1864  0.1344
  349SOL    HW1 1046   2.216   1.546   0.716  2.3919 -1.6290  1.5469
  349SOL    HW2 1047   2.257   1.678   0.629 -1.1825  0.0398  0.6337
  350SOL     OW 1048   2.932   2.393   0.657 -0.0643  0.8072  0.0354
  350SOL    HW1 1049   2.884   2.475   0.699  1.0651 -0.4532  1.4531
  350SOL    HW2 1050   2.891   2.307   0.698 -0.5653 -0.7803  0.3452
  351SOL     OW 1051   0.577   2.907   1.687 -0.2144 -0.3059  0.0219
  351SOL    HW1 1052   0.539   2.811   1.662 -2.8205  0.3116 -0.5489
  351SOL    HW2 1053   0.579   2.977   1.615 -0.2191 -3.8693 -1.4341
  352SOL     OW 1054   0.730   1.369   1.121 -0.1302  0.2327 -0.0353
  352SOL    HW1 1055   0.630   1.380   1.120  0.6102  3.7239 -0.2488
  352SOL    HW2 1056   0.761   1.312   1.044  1.0844  2.0458 -0.5198
  353SOL     OW 1057   1.142   1.106   2.627 -0.0925 -0.0618 -0.8199
  353SOL    HW1 1058   1.079   1.179   2.670  0.8364  1.2539 -1.4080
  353SOL    HW2 1059   1.239   1.125   2.670  3.0690 -1.9190  4.5641
  354SOL     OW 1060   1.516   0.058   1.554  0.7879  0.1146 -0.2852
  354SOL    HW1 1061   1.447   0.071   1.479  0.2384  0.2851 -0.8693
  354SOL    HW2 1062   1.547   0.151   1.582  0.9115  1.6125 -0.5386
  355SOL     OW 1063   2.297   1.373   0.786 -0.3668  0.1151  0.3005
  355SOL    HW1 1064   2.344   1.323   0.862 -0.9548 -0.5675 -0.7613
  355SOL    HW2 1065   2.361   1.384   0.705 -1.6962  3.2073 -0.3293
  356SOL     OW 1066   2.608   1.654   1.961  0.1428 -0.1145  0.4320
  356SOL    HW1 1067   2.534   1.694   1.906  1.0655  1.8751  3.9366
  356SOL    HW2 1068   2.682   1.722   1.984 -2.7573  0.0256 -0.6635
  357SOL     OW 1069   0.581   2.857   1.202  0.3323  0.2219  0.0592
  357SOL    HW1 1070   0.500   2.873   1.266 -1.7318 -2.1113  0.6701
  357SOL    HW2 1071   0.570   2.789   1.128 -1.4671  0.7925  0.2362
  358SOL     OW 1072   2.700   1.411   1.874 -0.2782  0.8850 -0.5934
  358SOL    HW1 1073   2.673   1.504   1.911  2.0692 -0.3247  0.9980
  358SOL    HW2 1074   2.625   1.369   1.817 -0.8887 -0.0061 -0.6244
  359SOL     OW 1075   2.234   2.966   2.531  0.6479  0.5917 -0.3788
  359SOL    HW1 1076   2.267   2.880   2.490  1.2362  0.6585  2.1426
  359SOL    HW2 1077   2.165   3.014   2.472  0.2829 -2.1372 -2.5151
  360SOL     OW 1078   0.766   0.336   0.858 -0.0778 -0.2273  0.2912
  360SOL    HW1 1079   0.759   0.363   0.761  3.2787  1.5446  1.2939
  360SOL    HW2 1080   0.682   0.284   0.890  0.3466 -1.3038 -1.9254
  361SOL     OW 1081   1.838   0.199   1.151 -0.5399  0.2879  1.2901
  361SOL    HW1 1082   1.908   0.246   1.094  1.0380 -0.6946 -2.3552
  361SOL    HW2 1083   1.806   0.256   1.226  0.8659 -1.1261 -2.1997
  362SOL     OW 1084   1.577   1.042   0.955 -0.2904  0.4215 -0.1532
  362SOL    HW1 1085   1.631   1.047   0.871 -1.5471  1.1583  1.8664
  362SOL    HW2 1086   1.569   1.135   0.989 -1.1135 -3.3139 -1.3143
  363SOL     OW 1087   2.268   1.428   2.344 -0.0283 -0.5295  0.2999
  363SOL    HW1 1088   2.360   1.417   2.385 -0.4545  0.3034 -0.4648
  363SOL    HW2 1089   2.267   1.375   2.257 -1.4014  1.5032  2.2269
  364SOL     OW 1090   0.289   3.087   1.119  0.7055 -0.4576 -0.3661
  364SOL    HW1 1091   0.332   3.048   1.203 -0.5458  0.0379  0.7492
  364SOL    HW2 1092   0.194   3.046   1.116 -2.8524  0.0977  1.5581
  365SOL     OW 1093   0.274   0.012   3.027 -0.1281 -0.0971  0.0185
  365SOL    HW1 1094   0.282   0.019   2.926  1.0732  0.7355  2.7080
  365SOL    HW2 1095   0.186   0.053   3.064 -0.2865 -0.0364  1.8442
  366SOL     OW 1096   2.177   2.132   2.860  0.3967  0.0864 -0.0287
  366SOL    HW1 1097   2.232   2.044   2.879 -0.1544 -5.8263 -0.7638
  366SOL    HW2 1098   2.183   2.201   2.934 -0.2120  0.1450  0.9470
  367SOL     OW 1099   2.522   2.464   2.861  0.0206  0.0803  0.1663
  367SOL    HW1 1100   2.515   2.387   2.790 -0.6394 -0.2680 -2.4127
  367SOL    HW2 1101   2.614   2.467   2.911  3.5356 -0.9228 -2.3545
  368SOL     OW 1102   0.132   1.396   1.038  0.2371 -0.2829 -0.1769
  368SOL    HW1 1103   0.042   1.423   1.076 -3.4930  1.4193  0.4566
  368SOL    HW2 1104   0.194   1.365   1.115  1.2438 -0.5251  1.7820
  369SOL     OW 1105   0.579   2.892   2.676  0.4168  0.4171 -0.3329
  369SOL    HW1 1106   0.656   2.852   2.621  0.0241  0.6920 -0.2472
  369SOL    HW2 1107   0.578   2.868   2.776 -1.8663  1.9700 -0.7363
  370SOL     OW 1108   3.008   0.871   0.610 -0.5962 -0.4108 -0.1650
  370SOL    HW1 1109   2.956   0.937   0.664 -0.5174 -1.3296  1.0498
  370SOL    HW2 1110   2.956   0.782   0.619 -1.3901  1.2129 -0.7497
  371SOL     OW 1111   1.927   2.326   0.741  0.2727  0.0140 -0.2995
  371SOL    HW1 1112   1.997   2.326   0.665 -0.9391 -2.3673  0.1300
  371SOL    HW2 1113   1.875   2.241   0.732  1.0951 -0.1169  2.6301
  372SOL     OW 1114   0.020   1.053   3.088  0.9687  0.2371  0.2847
  372SOL    HW1 1115   3.103   0.986   0.059 -0.5140  1.3524 -0.9931
  372SOL    HW2 1116   0.118   1.058   3.070 -2.9245  0.6446  1.2316
  373SOL     OW 1117   3.048   1.914   1.051  0.1129 -0.3377 -0.5836
  373SOL    HW1 1118   0.026   1.854   1.066 -1.2848  2.5228 -1.2951
  373SOL    HW2 1119   2.986   1.895   1.132 -2.5740  0.9048  1.3521
  374SOL     OW 1120   0.455   2.757   0.163  0.2027  0.1445 -0.0044
  374SOL    HW1 1121   0.401   2.761   0.075 -0.5386 -0.0069  1.5602
  374SOL    HW2 1122   0.520   2.834   0.172 -1.2013 -0.8737 -0.6578
  375SOL     OW 1123   0.328   0.275   0.085 -0.3117 -0.1490 -0.2824
  375SOL    HW1 1124   0.290   0.246   3.098 -0.7889 -1.7092  1.5215
  375SOL    HW2 1125   0.260   0.287   0.157  1.5945  2.7399  0.0704
  376SOL     OW 1126   0.194   2.292   1.570 -0.1700  0.0969  0.1625
  376SOL    HW1 1127   0.106   2.328   1.600  1.0097 -2.6894 -1.6213
  376SOL    HW2 1128   0.189   2.260   1.474  1.6238  1.4571 -0.4449
  377SOL     OW 1129   1.658   2.469   2.630 -0.1109  0.2809  0.4400
  377SOL    HW1 1130   1.729   2.497   2.561  0.8726 -0.7848  1.7467
  377SOL    HW2 1131   1.607   2.386   2.600  1.0504 -1.0699 -0.5069
  378SOL     OW 1132   0.751   0.170   0.147  0.4922  0.7070 -0.3006
  378SOL    HW1 1133   0.773   0.269   0.136 -1.9092  1.1201 -4.2576
  378SOL    HW2 1134   0.783   0.141   0.243 -2.0637  0.0181 -1.5871
  379SOL     OW 1135   0.418   1.388   0.700  0.3714 -0.2835 -0.7416
  379SOL    HW1 1136   0.393   1.372   0.602  2.3836  0.4917  0.4552
  379SOL    HW2 1137   0.519   1.385   0.713  0.3635 -2.5060 -0.6307
  380SOL     OW 1138   3.067   1.914   1.695 -0.0370  0.1461  0.1827
  380SOL    HW1 1139   2.989   1.964   1.741 -0.3317  1.2326  1.2486
  380SOL    HW2 1140   0.055   1.957   1.717  1.4414  1.4159  1.9825
  381SOL     OW 1141   0.637   1.278   1.897  0.1415  0.1824  0.3572
  381SOL    HW1 1142   0.712   1.244   1.838  1.7054  0.1265 -0.4089
  381SOL    HW2 1143   0.586   1.344   1.843  0.9212 -0.9881  2.2199
  382SOL     OW 1144   2.231   2.049   0.395  0.6836  0.1468  0.1488
  382SOL    HW1 1145   2.269   2.114   0.460 -1.0657 -2.5959 -4.6197
  382SOL    HW2 1146   2.290   2.045   0.312  2.2053 -0.9047 -0.9478
  383SOL     OW 1147   2.776   1.981   2.779 -0.6685 -0.1885  0.2286
  383SOL    HW1 1148   2.807   1.932   2.860 -0.2001  0.6328  0.9401
  383SOL    HW2 1149   2.855   2.017   2.724  1.7786  1.4363 -0.1139
  384SOL     OW 1150   0.516   2.007   2.338  0.1169  0.1925 -0.4721
  384SOL    HW1 1151   0.506   2.086   2.400 -0.7670 -0.3549  0.8569
  384SOL    HW2 1152   0.610   1.994   2.301  0.3653 -3.5659 -0.9433
  385SOL     OW 1153   2.706   1.821   0.905 -0.0497 -0.1208  0.5200
  385SOL    HW1 1154   2.687   1.920   0.884 -1.7221 -1.4584 -0.8118
  385SOL    HW2 1155   2.648   1.783   0.978  2.3867  0.4925  0.3644
  386SOL     OW 1156   2.141   1.337   1.284  0.2369  0.9411  0.2099
  386SOL    HW1 1157   2.051   1.331   1.330 -0.4050 -1.0084  3.5262
  386SOL    HW2 1158   2.137   1.416   1.219  1.7426  2.1824 -2.1071
  387SOL     OW 1159   3.025   1.042   2.053  0.4126 -0.4322  0.1982
  387SOL    HW1 1160   2.927   1.021   2.033  1.3053 -0.2947  1.7572
  387SOL    HW2 1161   3.038   1.139   2.029 -2.5434  0.7523 -1.7170
  388SOL     OW 1162   2.657   1.360   2.281  0.2569 -0.2261 -0.4260
  388SOL    HW1 1163   2.608   1.295   2.343 -1.2451  1.4922  1.2833
  388SOL    HW2 1164   2.592   1.437   2.250 -2.4161  3.8390 -1.7677
  389SOL     OW 1165   1.998   1.345   2.008 -0.5027  0.5464  0.5473
  389SOL    HW1 1166   1.909   1.341   2.056 -2.5272  0.9275 -1.6466
  389SOL    HW2 1167   1.977   1.359   1.909 -0.9477 -1.4524 -1.4073
  390SOL     OW 1168   2.081   2.726   0.450  0.0746  0.0826 -0.0431
  390SOL    HW1 1169   2.016   2.771   0.515  0.4855  0.5117 -0.9578
  390SOL    HW2 1170   2.033   2.701   0.367 -2.8658  1.3431  2.7832
  391SOL     OW 1171   2.332   2.183   0.853  0.0859 -0.1169 -0.4521
  391SOL    HW1 1172   2.269   2.180   0.935 -0.6694 -1.4380  2.5986
  391SOL    HW2 1173   2.382   2.270   0.851 -0.6851 -0.1705  2.4962
  392SOL     OW 1174   2.997   2.668   1.371  0.0193  0.4603 -0.2881
  392SOL    HW1 1175   2.929   2.597   1.348 -2.0039  3.6686 -1.8875
  392SOL    HW2 1176   3.054   2.684   1.289  0.8518 -0.9030 -0.1572
  393SOL     OW 1177   1.910   1.921   2.684  0.2245  0.2708 -0.3412
  393SOL    HW1 1178   1.890   1.887   2.778 -2.0851 -2.2305 -1.0187
  393SOL    HW2 1179   1.832   1.919   2.619 -0.3077  2.6114 -1.0537
  394SOL     OW 1180   0.407   0.590   2.695  0.3127 -0.0824  0.6509
  394SOL    HW1 1181   0.395   0.576   2.791 -0.1532  2.1591  0.9585
  394SOL    HW2 1182   0.366   0.680   2.659 -0.6297  1.9011  0.7253
  395SOL     OW 1183   0.681   0.707   0.747 -0.1112  0.4100  0.4214
  395SOL    HW1 1184   0.728   0.691   0.836  1.4566  1.0374 -0.6604
  395SOL    HW2 1185   0.734   0.764   0.686 -0.4660  0.2972 -0.4919
  396SOL     OW 1186   1.165   1.112   0.433 -0.1524  0.1450 -0.1019
  396SOL    HW1 1187   1.137   1.214   0.436  2.1194  0.5113 -2.2362
  396SOL    HW2 1188   1.090   1.055   0.399  1.3856  1.1389 -2.1154
  397SOL     OW 1189   0.345   1.012   2.195  0.0036  0.0313  0.2297
  397SOL    HW1 1190   0.428   1.064   2.176 -1.6929  1.0266  0.7496
  397SOL    HW2 1191   0.284   1.003   2.113  2.4002  0.6017 -0.7622
  398SOL     OW 1192   0.855   0.047   0.363 -0.2841 -0.2506 -0.0596
  398SOL    HW1 1193   0.909   0.110   0.419  4.5145 -1.4813  0.8530
  398SOL    HW2 1194   0.916   0.011   0.288  0.4802 -1.5653  0.0247
  399SOL     OW 1195   2.032   0.124   1.657  0.2563 -0.0129 -0.0012
  399SOL    HW1 1196   1.959   0.139   1.726  0.6175 -2.5561 -0.7658
  399SOL    HW2 1197   1.998   0.054   1.591  0.8520  0.0268  1.4234
  400SOL     OW 1198   0.696   1.598   1.638 -0.1247 -0.9464  0.1495
  400SOL    HW1 1199   0.742   1.575   1.724 -2.8095  2.2721 -0.0865
  400SOL    HW2 1200   0.742   1.679   1.601 -3.5350 -0.3333 -0.1242
  401SOL     OW 1201   0.636   1.025   2.722  0.3975 -0.0505  0.7025
  401SOL    HW1 1202   0.686   0.956   2.783  0.3121  1.8226 -0.4598
  401SOL    HW2 1203   0.536   1.006   2.723  1.4804 -1.3607  2.0015
  402SOL     OW 1204   2.956   2.257   1.437 -0.0495  0.1909  0.5164
  402SOL    HW1 1205   2.872   2.197   1.457 -2.4965 -0.3984 -3.9632
  402SOL    HW2 1206   3.007   2.208   1.361  0.8003 -1.2702 -1.4897
  403SOL     OW 1207   0.167   0.923   2.010 -0.1541 -0.0435 -0.5174
  403SOL    HW1 1208   0.072   0.950   2.037 -1.9840 -1.2519 -2.0197
  403SOL    HW2 1209   0.189   0.964   1.918 -0.1143 -0.2121 -2.8690
  404SOL     OW 1210   0.005   2.755   1.790  0.9314  1.0386 -0.3288
  404SOL    HW1 1211   0.085   2.732   1.847 -0.6727 -1.0779 -1.1623
  404SOL    HW2 1212   0.009   2.696   1.703 -0.6542 -2.3289  0.2675
  405SOL     OW 1213   0.578   0.200   1.878 -0.5044  0.0723 -0.2718
  405SOL    HW1 1214   0.679   0.213   1.857  2.0955  1.1786 -0.2291
  405SOL    HW2 1215   0.554   0.100   1.889 -0.2013 -3.0807 -0.5107
  406SOL     OW 1216   1.633   2.128   2.390 -0.5338  0.0646  0.3634
  406SOL    HW1 1217   1.701   2.153   2.318  0.5787 -0.5595  3.1039
  406SOL    HW2 1218   1.631   2.031   2.422 -0.1453  1.8260  0.6263
  407SOL     OW 1219   1.435   1.344   2.401  0.2025  0.4071  0.4570
  407SOL    HW1 1220   1.414   1.415   2.330  1.7366  0.7966 -3.3301
  407SOL    HW2 1221   1.373   1.264   2.387 -1.2117 -1.5655 -0.4029
  408SOL     OW 1222   0.835   0.380   2.454 -0.3939 -0.2070 -0.7550
  408SOL    HW1 1223   0.772   0.342   2.383 -0.0427  0.5888 -0.7573
  408SOL    HW2 1224   0.797   0.472   2.480 -0.9091 -0.6223 -0.7614
  409SOL     OW 1225   0.251   1.813   0.016 -0.2073 -0.3623 -0.1714
  409SOL    HW1 1226   0.340   1.815   3.066 -0.3699  0.2630  1.4220
  409SOL    HW2 1227   0.269   1.876   0.091  2.6885 -2.8890  1.3720
  410SOL     OW 1228   2.742   1.662   0.234  0.2428 -0.4507  0.1127
  410SOL    HW1 1229   2.838   1.672   0.256 -0.8250 -1.6071  0.5262
  410SOL    HW2 1230   2.731   1.645   0.133  0.3543 -1.9715  1.5923
  411SOL     OW 1231   2.828   0.365   0.937 -0.2041 -0.1940  0.0708
  411SOL    HW1 1232   2.883   0.441   0.909 -1.7409 -2.0882 -1.1472
  411SOL    HW2 1233   2.733   0.371   0.911  0.8108  1.2396  0.0058
  412SOL     OW 1234   1.456   0.960   1.225  0.3102 -0.5616 -0.0899
  412SOL    HW1 1235   1.538   0.966   1.167 -1.9894 -1.0571  3.0465
  412SOL    HW2 1236   1.485   0.952   1.324 -0.8880 -0.9941  1.9292
  413SOL     OW 1237   0.609   2.476   1.233 -0.4746  0.0597  0.1759
  413SOL    HW1 1238   0.701   2.505   1.268  2.0600  1.7065  3.0062
  413SOL    HW2 1239   0.557   2.540   1.180  3.5106 -1.3859  1.2314
  414SOL     OW 1240   2.933   1.416   2.789  0.0739 -0.2592 -0.2843
  414SOL    HW1 1241   2.923   1.508   2.750 -0.3071 -2.5774 -0.9752
  414SOL    HW2 1242   2.992   1.425   2.869 -0.8852 -1.8851 -0.3797
  415SOL     OW 1243   0.346   2.158   2.914 -0.0559  0.3445  0.8101
  415SOL    HW1 1244   0.311   2.102   2.834 -1.2349 -2.4136 -2.3867
  415SOL    HW2 1245   0.270   2.178   2.974  2.1063  1.8255 -0.3537
  416SOL     OW 1246   1.719   0.041   0.273 -0.2952 -0.1453  0.1401
  416SOL    HW1 1247   1.731   3.051   0.232  0.4812 -2.3371  0.9169
  416SOL    HW2 1248   1.712   0.110   0.197 -0.8380  0.4066 -2.4578
  417SOL     OW 1249   0.509   0.717   0.937  0.2473  0.9312  0.2273
  417SOL    HW1 1250   0.502   0.818   0.964 -1.6491  0.4915 -1.1745
  417SOL    HW2 1251   0.544   0.698   0.842 -1.5625  3.0266  3.1095
  418SOL     OW 1252   2.420   1.047   1.975 -0.2186  0.5165 -0.5756
  418SOL    HW1 1253   2.431   0.967   1.920 -1.6186 -0.4990 -0.1314
  418SOL    HW2 1254   2.500   1.103   1.987 -3.3822  1.0937 -0.1075
  419SOL     OW 1255   0.137   0.096   0.722  0.5146 -0.4232 -0.0968
  419SOL    HW1 1256   0.203   0.083   0.648 -0.7066  0.2673  4.0106
  419SOL    HW2 1257   0.175   0.151   0.794 -2.2063 -2.0313 -2.1290
  420SOL     OW 1258   0.364   1.321   1.224  0.1601 -0.4312  0.5864
  420SOL    HW1 1259   0.285   1.325   1.286  0.0853 -0.2815 -0.9053
  420SOL    HW2 1260   0.390   1.225   1.216 -1.9531  2.1927 -0.1491
  421SOL     OW 1261   1.255   2.588   0.754  0.0565 -0.5975  0.0031
  421SOL    HW1 1262   1.176   2.561   0.694 -1.1732  1.0746  2.4680
  421SOL    HW2 1263   1.303   2.503   0.782  0.1424  1.9631 -1.9943
  422SOL     OW 1264   0.153   0.672   1.584  0.3728  0.3797  0.4735
  422SOL    HW1 1265   0.110   0.683   1.490  0.2067 -0.6024 -3.3503
  422SOL    HW2 1266   0.248   0.697   1.584  0.0708 -2.6962 -1.3156
  423SOL     OW 1267   1.235   1.120   1.159  0.2886  0.0064 -1.0180
  423SOL    HW1 1268   1.327   1.074   1.168 -1.0021 -3.1275  0.7827
  423SOL    HW2 1269   1.181   1.104   1.072 -2.0420  2.3754 -1.1367
  424SOL     OW 1270   1.956   1.265   2.945 -0.1781 -0.3277  0.1482
  424SOL    HW1 1271   1.984   1.280   3.040 -0.8681 -0.0124 -0.1620
  424SOL    HW2 1272   1.905   1.342   2.901  1.6665 -1.6567  0.2579
  425SOL     OW 1273   0.008   0.528   2.034 -0.1412  0.4073 -0.3082
  425SOL    HW1 1274   0.086   0.585   2.054 -3.5271  0.4566 -1.3398
  425SOL    HW2 1275   3.020   0.568   2.045 -1.4732 -1.1717 -0.8425
  426SOL     OW 1276   3.005   2.759   3.065  0.2789  0.1346 -0.2121
  426SOL    HW1 1277   3.089   2.735   3.012  0.6064  1.1780 -3.3483
  426SOL    HW2 1278   3.011   2.739   0.058  0.2224  0.5011  0.5067
  427SOL     OW 1279   1.063   0.822   2.577  0.3802  0.3132 -0.0722
  427SOL    HW1 1280   1.062   0.921   2.596  1.8493 -1.4227 -1.0698
  427SOL    HW2 1281   1.041   0.768   2.659  0.7934  0.4294 -1.0257
  428SOL     OW 1282   2.526   1.302   1.727  0.6424  0.6005  0.2201
  428SOL    HW1 1283   2.552   1.243   1.644  0.7363 -3.9210 -0.9661
  428SOL    HW2 1284   2.434   1.279   1.765  1.6012  0.5393  1.3808
  429SOL     OW 1285   2.459   2.626   0.718 -0.4260  0.2946 -0.3926
  429SOL    HW1 1286   2.416   2.610   0.625  0.9852  0.2860 -2.6430
  429SOL    HW2 1287   2.386   2.656   0.784 -3.1078  2.2000  0.5294
  430SOL     OW 1288   1.299   1.858   2.398  0.1027 -0.1280  0.3635
  430SOL    HW1 1289   1.216   1.880   2.452 -1.3883 -1.6492 -0.5808
  430SOL    HW2 1290   1.276   1.868   2.297  2.7355 -1.2357  0.7870
  431SOL     OW 1291   2.983   1.555   1.498 -0.5868  0.1687 -0.1953
  431SOL    HW1 1292   2.907   1.489   1.496  0.9648  1.9294  0.7427
  431SOL    HW2 1293   2.958   1.632   1.562 -2.7471 -1.3434 -0.8288
  432SOL     OW 1294   1.331   2.843   2.501 -0.4668  0.6567  0.2155
  432SOL    HW1 1295   1.265   2.836   2.420 -1.3145 -0.0033 -0.3712
  432SOL    HW2 1296   1.378   2.752   2.520 -1.2619 -0.1469 -0.1232
  433SOL     OW 1297   1.671   0.352   2.128 -0.0756 -0.3683 -0.0654
  433SOL    HW1 1298   1.731   0.365   2.048 -1.3620 -0.8841  0.6753
  433SOL    HW2 1299   1.647   0.443   2.167 -0.8384 -0.8648  0.9780
  434SOL     OW 1300   0.233   2.772   2.169 -0.6751  0.2010  0.3758
  434SOL    HW1 1301   0.213   2.688   2.225 -0.5785  1.3983 -1.4855
  434SOL    HW2 1302   0.247   2.741   2.070 -1.7031  1.2827 -0.0239
  435SOL     OW 1303   3.048   2.432   0.244  0.5568 -0.0411 -0.2544
  435SOL    HW1 1304   0.031   2.423   0.298  2.0787 -1.9653  0.6197
  435SOL    HW2 1305   3.056   2.524   0.207  3.0064 -2.3231  0.7547
  436SOL     OW 1306   0.654   0.650   2.065  0.4943  0.1337  0.0319
  436SOL    HW1 1307   0.580   0.662   1.998  1.0850 -1.7615  1.8809
  436SOL    HW2 1308   0.746   0.651   2.025 -0.4203  2.0116 -0.4212
  437SOL     OW 1309   0.427   2.755   2.500 -0.5334  0.1887 -0.0326
  437SOL    HW1 1310   0.443   2.790   2.412 -0.5103  1.5472 -0.7315
  437SOL    HW2 1311   0.486   2.791   2.576 -2.7173 -0.6885  2.9542
  438SOL     OW 1312   0.507   1.416   1.672 -0.5548 -0.1662  0.0057
  438SOL    HW1 1313   0.498   1.372   1.582  0.4355  0.9142  0.3398
  438SOL    HW2 1314   0.565   1.501   1.661 -0.1386  0.3207 -1.5175
  439SOL     OW 1315   2.112   0.978   2.636  0.0790 -0.0564  0.3288
  439SOL    HW1 1316   2.191   0.958   2.569  0.3338 -1.3143 -2.2437
  439SOL    HW2 1317   2.136   1.063   2.688 -1.0599 -2.0311  0.1637
  440SOL     OW 1318   0.245   0.664   0.228  0.3456  0.3020  0.1654
  440SOL    HW1 1319   0.302   0.591   0.264 -1.4489  1.4777  0.4240
  440SOL    HW2 1320   0.147   0.658   0.264 -0.0106  0.3748 -0.1463
  441SOL     OW 1321   1.112   2.335   1.172 -0.0738 -0.4084  0.3950
  441SOL    HW1 1322   1.178   2.413   1.193 -0.4875 -0.8046  0.8748
  441SOL    HW2 1323   1.018   2.369   1.175  0.8530 -0.8093  0.6813
  442SOL     OW 1324   2.618   1.461   0.916 -0.2445  0.3907  0.1553
  442SOL    HW1 1325   2.668   1.500   0.997 -0.4923 -0.5270 -0.6938
  442SOL    HW2 1326   2.551   1.526   0.884  0.7201 -1.1473  1.5257
  443SOL     OW 1327   2.653   1.886   2.258  0.0272 -0.9926  0.3876
  443SOL    HW1 1328   2.576   1.943   2.227  1.1487  0.2687  1.1578
  443SOL    HW2 1329   2.630   1.795   2.293 -0.6933 -1.2129 -0.2154
  444SOL     OW 1330   1.654   1.207   3.076  0.3428  0.3912 -0.1836
  444SOL    HW1 1331   1.726   1.140   3.076 -3.1928  2.1850 -1.2160
  444SOL    HW2 1332   1.566   1.178   0.022 -3.5644 -0.4895  1.9183
  445SOL     OW 1333   2.581   2.873   2.182 -0.5397  0.2050  0.2178
  445SOL    HW1 1334   2.536   2.828   2.103 -0.7904  1.1133  0.5876
  445SOL    HW2 1335   2.654   2.939   2.157 -1.5853  0.9959  0.2380
  446SOL     OW 1336   0.323   1.022   1.359  0.2454 -0.3406 -0.0228
  446SOL    HW1 1337   0.330   0.953   1.437 -1.3599 -2.3221  2.2087
  446SOL    HW2 1338   0.229   1.008   1.319 -0.9825 -0.8168 -1.6752
  447SOL     OW 1339   1.158   1.710   0.700  0.1315 -0.6107 -0.3407
  447SOL    HW1 1340   1.154   1.786   0.768 -0.2233  0.0045  1.5743
  447SOL    HW2 1341   1.099   1.730   0.618  0.7032 -1.0692  1.0741
  448SOL     OW 1342   1.292   0.852   1.632  0.0874  0.1361 -0.0723
  448SOL    HW1 1343   1.327   0.915   1.707  0.8897  1.3610 -0.9535
  448SOL    HW2 1344   1.193   0.820   1.645 -1.8076 -1.9209 -1.7845
  449SOL     OW 1345   2.973   2.177   2.192 -0.3755  0.2718 -0.0468
  449SOL    HW1 1346   3.006   2.269   2.216 -1.4014 -0.7497 -1.9308
  449SOL    HW2 1347   3.023   2.139   2.114 -1.5096 -0.2331  2.9161
  450SOL     OW 1348   2.816   2.039   1.765  0.0850 -0.4000 -0.1423
  450SOL    HW1 1349   2.790   2.043   1.662  0.6586  0.9036 -0.3914
  450SOL    HW2 1350   2.811   2.133   1.807  2.3614  2.4165 -0.1988
  451SOL     OW 1351   2.464   0.758   1.314 -0.2548 -0.1273  0.0423
  451SOL    HW1 1352   2.366   0.741   1.319  0.2413  0.3329 -0.3615
  451SOL    HW2 1353   2.506   0.714   1.232  0.9259 -0.7086 -1.2064
  452SOL     OW 1354   0.811   1.260   0.870 -0.1493 -0.3758 -0.2699
  452SOL    HW1 1355   0.901   1.226   0.843 -0.6846  1.2676  3.6776
  452SOL    HW2 1356   0.779   1.315   0.791  0.3839  1.7311 -1.4177
  453SOL     OW 1357   0.965   1.767   0.983 -0.1172 -0.0396 -1.0520
  453SOL    HW1 1358   0.914   1.830   0.924 -0.2190 -0.1136  3.1109
  453SOL    HW2 1359   1.067   1.787   0.978  1.1337  0.2909 -2.2277
  454SOL     OW 1360   0.452   1.708   2.925 -0.1751 -0.5534  0.3893
  454SOL    HW1 1361   0.480   1.768   2.842  1.2829  1.7107 -1.1913
  454SOL    HW2 1362   0.429   1.612   2.898  0.1666  0.9304  0.6677
  455SOL     OW 1363   1.896   0.817   0.703  0.3007  0.2647  0.0058
  455SOL    HW1 1364   1.990   0.773   0.711 -0.7106  0.9269  1.8007
  455SOL    HW2 1365   1.824   0.764   0.654  2.4205 -0.0611 -0.1226
  456SOL     OW 1366   2.180   2.570   1.011 -0.0950  0.0419 -0.4592
  456SOL    HW1 1367   2.192   2.617   0.917 -2.1522  1.7440  0.8274
  456SOL    HW2 1368   2.270   2.551   1.056  1.2258  0.6424  3.8107
  457SOL     OW 1369   1.818   2.935   2.759  0.2304 -0.9255  0.5181
  457SOL    HW1 1370   1.719   2.910   2.738  0.9809  0.1086 -0.9870
  457SOL    HW2 1371   1.879   2.895   2.689  2.2577 -2.4014  3.3128
  458SOL     OW 1372   2.171   0.562   0.416 -0.9366 -0.3227  0.4951
  458SOL    HW1 1373   2.223   0.650   0.434  1.8061  1.5896  2.9471
  458SOL    HW2 1374   2.083   0.584   0.368 -0.0554 -0.1614 -1.8933
  459SOL     OW 1375   0.000   0.967   2.323 -0.1378  0.2106  0.1729
  459SOL    HW1 1376   0.010   1.043   2.389  0.6507 -1.6031 -2.0345
  459SOL    HW2 1377   3.099   1.004   2.224  0.4369  0.5981 -2.2230
  460SOL     OW 1378   0.510   0.889   3.088 -0.1872 -0.0148  0.1530
  460SOL    HW1 1379   0.605   0.866   3.052  0.6677 -0.1926  1.4673
  460SOL    HW2 1380   0.444   0.814   3.068 -1.7206  2.4791 -0.2045
  461SOL     OW 1381   2.796   2.626   0.744  0.0282 -0.0863 -0.1651
  461SOL    HW1 1382   2.813   2.666   0.839 -0.5837  2.3268  1.4906
  461SOL    HW2 1383   2.697   2.633   0.715  0.2521  1.8129 -1.9031
  462SOL     OW 1384   0.337   0.114   1.468  0.3087  0.6440 -0.2263
  462SOL    HW1 1385   0.251   0.168   1.450  1.3512  1.1042 -0.3117
  462SOL    HW2 1386   0.416   0.173   1.445  2.4433  0.4905  1.4593
  463SOL     OW 1387   1.977   2.399   2.058  0.2640 -0.3304 -0.2999
  463SOL    HW1 1388   1.939   2.333   2.124  0.9878 -0.9043  0.5378
  463SOL    HW2 1389   1.900   2.454   2.018  0.0099 -0.1978 -0.4656
  464SOL     OW 1390   0.813   0.212   1.403  0.6271 -0.3067 -0.2010
  464SOL    HW1 1391   0.897   0.218   1.346 -0.7290  0.7047  1.9609
  464SOL    HW2 1392   0.823   0.284   1.474  1.6236 -2.9348  1.8290
  465SOL     OW 1393   0.683   3.045   1.450  0.0931  0.0383 -0.5347
  465SOL    HW1 1394   0.630   3.014   1.371 -0.3020  0.6913  0.2623
  465SOL    HW2 1395   0.723   0.035   1.429 -2.1047  1.9259  1.4953
  466SOL     OW 1396   1.323   2.001   1.775  0.1529  0.0587  0.1655
  466SOL    HW1 1397   1.227   2.014   1.815 -1.9797  3.2038 -2.1479
  466SOL    HW2 1398   1.314   1.924   1.704 -0.9080  1.5763 -3.4554
  467SOL     OW 1399   0.206   1.752   1.172  0.1215 -0.2341  0.0011
  467SOL    HW1 1400   0.187   1.676   1.237 -0.4886 -0.4275 -1.1330
  467SOL    HW2 1401   0.198   1.725   1.078  1.3816  1.1749  1.9087
  468SOL     OW 1402   2.577   1.916   2.577  0.2273 -0.6495 -0.2497
  468SOL    HW1 1403   2.669   1.921   2.631  5.4670  0.8287  1.4985
  468SOL    HW2 1404   2.551   1.994   2.522  1.5315  0.4603 -0.3244
  469SOL     OW 1405   1.224   2.046   0.707 -0.1406  0.5933 -0.4523
  469SOL    HW1 1406   1.307   2.034   0.652  1.7088  1.2203 -1.3921
  469SOL    HW2 1407   1.157   2.108   0.669  0.8554 -3.4541  0.3224
  470SOL     OW 1408   2.391   1.646   1.149  0.7401 -0.1561 -0.2778
  470SOL    HW1 1409   2.376   1.727   1.216 -0.7615  2.4809  2.7788
  470SOL    HW2 1410   2.304   1.618   1.102 -1.3840 -1.8767 -0.5237
  471SOL     OW 1411   0.206   2.415   3.064 -0.0284 -0.5678 -0.6227
  471SOL    HW1 1412   0.184   2.318   3.087  0.7480  2.0019  1.3708
  471SOL    HW2 1413   0.297   2.433   3.105  1.6966  0.3031 -2.7837
  472SOL     OW 1414   2.803   1.836   2.032  0.3721 -0.3038  0.2862
  472SOL    HW1 1415   2.807   1.898   1.950  1.1852  0.7216 -0.8973
  472SOL    HW2 1416   2.762   1.877   2.116  0.4888  1.9664 -1.0655
  473SOL     OW 1417   0.854   2.657   0.771  0.5462  0.4903 -0.2021
  473SOL    HW1 1418   0.929   2.587   0.751  1.5928 -0.5675 -0.4543
  473SOL    HW2 1419   0.838   2.729   0.696 -0.4114  0.6799  0.4782
  474SOL     OW 1420   3.036   0.133   1.234  0.1894 -0.5688 -0.2385
  474SOL    HW1 1421   2.965   0.204   1.225  2.0494 -1.2746 -0.7264
  474SOL    HW2 1422   3.055   0.107   1.328 -0.7194  1.9651 -2.6153
  475SOL     OW 1423   1.708   3.000   1.717 -0.5718 -0.1433 -0.2539
  475SOL    HW1 1424   1.774   3.076   1.731 -1.3709  0.0010 -1.8647
  475SOL    HW2 1425   1.625   3.031   1.666 -2.5005  0.2017  0.3865
  476SOL     OW 1426   0.314   0.622   1.090  0.2288  0.1035 -0.5343
  476SOL    HW1 1427   0.392   0.670   1.045 -0.8507 -0.7431  1.0348
  476SOL    HW2 1428   0.345   0.545   1.145 -1.3318 -0.1069 -0.5407
  477SOL     OW 1429   0.789   2.184   0.950  0.2023  0.2008  0.4869
  477SOL    HW1 1430   0.778   2.097   0.898 -0.1153  0.8597  0.7296
  477SOL    HW2 1431   0.888   2.206   0.947 -0.0741 -0.1016  0.6792
  478SOL     OW 1432   0.500   2.230   2.473  0.0233 -0.4895  0.3932
  478SOL    HW1 1433   0.551   2.241   2.563 -3.0219 -2.4558  2.0509
  478SOL    HW2 1434   0.419   2.294   2.456 -0.1234 -0.0900  1.0400
  479SOL     OW 1435   0.415   0.673   1.911 -0.1512  0.3409 -0.2493
  479SOL    HW1 1436   0.340   0.677   1.980 -2.7155  2.1263  0.2405
  479SOL    HW2 1437   0.432   0.580   1.875 -0.1024 -0.3710  0.0523
  480SOL     OW 1438   2.997   2.238   0.046 -0.1362 -0.1560  0.0913
  480SOL    HW1 1439   2.999   2.278   3.056  0.7497  1.5801 -0.1921
  480SOL    HW2 1440   3.013   2.313   0.116 -0.2810 -1.6282  0.5892
  481SOL     OW 1441   1.470   2.100   1.983 -0.4065 -0.2048 -0.0625
  481SOL    HW1 1442   1.510   2.024   2.041  0.1591 -0.2757 -0.2048
  481SOL    HW2 1443   1.414   2.063   1.903 -0.5037  1.9541  2.5726
  482SOL     OW 1444   1.516   2.233   2.630 -0.0127 -0.1864 -0.6014
  482SOL    HW1 1445   1.463   2.147   2.657  3.9146  1.0878 -0.8459
  482SOL    HW2 1446   1.569   2.215   2.544 -2.5874  2.8605 -0.9673
  483SOL     OW 1447   0.779   2.432   2.836 -0.1667 -0.1189  0.0266
  483SOL    HW1 1448   0.781   2.532   2.803 -0.2577  1.7585  0.6354
  483SOL    HW2 1449   0.852   2.377   2.788  2.1984 -1.9646  0.9695
  484SOL     OW 1450   0.198   0.239   1.155  0.4587 -0.6661  0.2675
  484SOL    HW1 1451   0.098   0.224   1.178 -1.5952 -0.0379 -2.2974
  484SOL    HW2 1452   0.247   0.151   1.136  1.2121  1.7991 -0.3090
  485SOL     OW 1453   2.021   0.422   0.654  0.3471 -0.5464  0.5655
  485SOL    HW1 1454   1.939   0.462   0.704 -1.9658  0.6491  0.2546
  485SOL    HW2 1455   2.070   0.505   0.622  0.7287  1.3643 -0.8486
  486SOL     OW 1456   1.789   2.804   2.123  0.3055  0.0859  0.0548
  486SOL    HW1 1457   1.882   2.810   2.073 -1.0332  5.0752 -0.1928
  486SOL    HW2 1458   1.795   2.812   2.224 -1.7216  0.4613  0.9044
  487SOL     OW 1459   1.755   2.121   0.695  0.0910 -0.5046 -0.0549
  487SOL    HW1 1460   1.736   2.019   0.704 -0.0967 -3.0094  0.1386
  487SOL    HW2 1461   1.717   2.167   0.609  2.2216  0.1842 -1.8879
  488SOL     OW 1462   2.268   1.033   0.270  0.1184  0.0238  0.9549
  488SOL    HW1 1463   2.224   1.001   0.182  2.1821  1.9503  0.9317
  488SOL    HW2 1464   2.342   1.100   0.240 -0.8266  0.1285 -0.1662
  489SOL     OW 1465   2.534   0.200   0.603  0.4820 -0.4451  0.1754
  489SOL    HW1 1466   2.443   0.243   0.585 -0.8480  0.7799 -1.6040
  489SOL    HW2 1467   2.524   0.102   0.588  0.2967  1.7283 -0.5951
  490SOL     OW 1468   1.520   2.709   2.912 -0.2288  0.1257  0.2210
  490SOL    HW1 1469   1.570   2.767   2.983  1.3142  1.1987 -0.7279
  490SOL    HW2 1470   1.587   2.638   2.878  0.6060 -0.1652  0.9042
  491SOL     OW 1471   0.868   0.536   1.021  0.2523  0.0021  0.1475
  491SOL    HW1 1472   0.966   0.540   0.992  1.7775 -0.1399 -0.9914
  491SOL    HW2 1473   0.822   0.456   0.976  0.3764  1.1541  1.3520
  492SOL     OW 1474   1.666   0.246   0.060 -0.0133 -0.3699  0.2621
  492SOL    HW1 1475   1.594   0.170   0.057 -3.3330  0.0401  2.8892
  492SOL    HW2 1476   1.730   0.241   3.084  2.9695 -0.6019  1.3623
  493SOL     OW 1477   1.721   2.276   2.864  0.5192  0.3112  0.9252
  493SOL    HW1 1478   1.663   2.193   2.864  2.9603  0.4726 -4.4317
  493SOL    HW2 1479   1.679   2.346   2.807  0.8967  1.0738  2.4225
  494SOL     OW 1480   0.293   1.131   0.747 -0.3293  0.1324  0.4659
  494SOL    HW1 1481   0.333   1.218   0.777  2.4130  1.1615  0.6247
  494SOL    HW2 1482   0.193   1.155   0.738  2.9064  1.5805 -0.9466
  495SOL     OW 1483   3.088   0.055   1.497  0.2169  0.2032  0.3528
  495SOL    HW1 1484   0.047   0.132   1.487  2.2715  1.0373  0.1420
  495SOL    HW2 1485   0.004   3.103   1.580  0.5383 -0.1541  0.0117
  496SOL     OW 1486   2.669   0.035   1.661  0.4891  0.8529 -0.1827
  496SOL    HW1 1487   2.770   0.040   1.631  3.6327  1.6351  0.4211
  496SOL    HW2 1488   2.655   3.086   1.745  0.2683 -1.9399  0.8474
  497SOL     OW 1489   1.448   1.742   2.579  0.0479 -0.3627 -0.1840
  497SOL    HW1 1490   1.442   1.648   2.611  2.3056  1.0303  1.3510
  497SOL    HW2 1491   1.380   1.755   2.505 -1.1324 -0.3373 -2.6685
  498SOL     OW 1492   0.406   1.961   0.626  0.2146 -0.3784  0.1133
  498SOL    HW1 1493   0.422   1.874   0.580  0.0371  0.0999 -0.6078
  498SOL    HW2 1494   0.385   1.953   0.723  2.3282 -0.3686 -2.8405
  499SOL     OW 1495   0.103   1.558   1.345 -0.3630 -0.3069 -0.0275
  499SOL    HW1 1496   0.101   1.459   1.327 -1.4945  0.8942  2.1921
  499SOL    HW2 1497   0.010   1.582   1.376  0.1648  0.5694 -1.0641
  500SOL     OW 1498   1.169   2.374   0.375 -0.6448 -0.5085 -0.3740
  500SOL    HW1 1499   1.234   2.295   0.382  0.3745  0.9869 -0.1389
  500SOL    HW2 1500   1.125   2.403   0.467 -1.3009  1.4291  0.4201
  501SOL     OW 1501   2.436   2.559   1.122 -0.1463  0.1302 -0.3744
  501SOL    HW1 1502   2.481   2.648   1.105  3.3065 -0.5156 -0.0142
  501SOL    HW2 1503   2.440   2.541   1.221 -0.9733  0.3161 -1.2415
  502SOL     OW 1504   0.023   0.857   1.741  0.1200 -0.4126 -0.4067
  502SOL    HW1 1505   0.105   0.918   1.741 -0.3742  1.1242  0.4518
  502SOL    HW2 1506   0.044   0.775   1.683  0.4554 -3.5997 -1.9873
  503SOL     OW 1507   2.442   0.043   1.867  0.5276 -0.1201 -0.7122
  503SOL    HW1 1508   2.514   0.088   1.925  0.6133  1.8382 -0.1597
  503SOL    HW2 1509   2.390   0.102   1.799 -1.2911 -1.1243  0.3053
  504SOL     OW 1510   1.725   0.597   1.846  0.0556  0.3811  0.0322
  504SOL    HW1 1511   1.638   0.537   1.855 -2.5102  1.1430 -0.7300
  504SOL    HW2 1512   1.702   0.686   1.802 -0.0517 -0.7258 -1.2490
  505SOL     OW 1513   1.253   0.241   2.616  0.1149  0.0826  0.2868
  505SOL    HW1 1514   1.243   0.141   2.607 -0.1238  1.6144 -0.1078
  505SOL    HW2 1515   1.278   0.268   2.710  3.4728  1.4376 -1.1758
  506SOL     OW 1516   0.451   0.419   1.781 -0.2616  0.1189 -0.1666
  506SOL    HW1 1517   0.507   0.468   1.710 -0.0615  2.6326  1.4590
  506SOL    HW2 1518   0.500   0.338   1.828  1.2244 -0.3882  0.1454
  507SOL     OW 1519   1.544   2.929   2.732  0.3306 -0.0111  0.3207
  507SOL    HW1 1520   1.524   3.023   2.768  0.0565 -0.1222  0.0961
  507SOL    HW2 1521   1.492   2.858   2.782  1.0140 -0.0347 -0.0760
  508SOL     OW 1522   2.408   0.436   2.803 -0.2405  0.3037 -0.3256
  508SOL    HW1 1523   2.353   0.471   2.879  0.0703  1.2224 -0.7011
  508SOL    HW2 1524   2.417   0.333   2.800 -1.3223 -2.4667 -0.2931
  509SOL     OW 1525   1.036   1.357   1.747  0.0869  0.1673  0.3532
  509SOL    HW1 1526   0.990   1.441   1.780 -0.4368  0.0266 -0.9191
  509SOL    HW2 1527   1.084   1.372   1.657 -0.4629 -1.8746 -1.2290
  510SOL     OW 1528   0.001   0.982   0.973 -0.2017  0.5081  0.4506
  510SOL    HW1 1529   0.051   0.892   0.967 -3.7687  3.0940  1.7435
  510SOL    HW2 1530   3.014   0.966   0.936 -0.4184  0.8513  1.2880
  511SOL     OW 1531   1.706   1.656   1.040 -0.6124  0.2466  0.3775
  511SOL    HW1 1532   1.624   1.694   1.083  3.8151 -0.9384  0.9185
  511SOL    HW2 1533   1.690   1.565   1.005  2.7754  1.3298  0.5901
  512SOL     OW 1534   0.756   1.482   0.231  0.5380  0.1521  0.4223
  512SOL    HW1 1535   0.666   1.436   0.216  0.5956 -0.9789 -2.1319
  512SOL    HW2 1536   0.762   1.565   0.170 -0.6210  0.5817  1.3999
  513SOL     OW 1537   0.166   2.501   0.364  0.2017 -0.1299  0.2148
  513SOL    HW1 1538   0.128   2.587   0.400 -1.2987 -1.7505 -0.1179
  513SOL    HW2 1539   0.264   2.496   0.379 -1.3675  1.1624  0.8705
  514SOL     OW 1540   0.146   1.912   2.872  0.0228 -0.4600  0.2881
  514SOL    HW1 1541   0.180   1.928   2.965  0.6947 -0.2229  0.2758
  514SOL    HW2 1542   0.134   1.811   2.853 -1.1147  1.3806 -1.4269
  515SOL     OW 1543   2.577   0.675   0.482  0.1017  0.7867 -0.7022
  515SOL    HW1 1544   2.518   0.751   0.462  1.5177 -1.3524  1.3363
  515SOL    HW2 1545   2.596   0.669   0.582  0.0262  2.5416 -1.5292
  516SOL     OW 1546   2.634   2.799   1.119  0.3057 -0.6952  0.5109
  516SOL    HW1 1547   2.616   2.791   1.217  1.9558 -0.1000 -2.2743
  516SOL    HW2 1548   2.586   2.877   1.073 -0.4743 -0.0425  2.1399
  517SOL     OW 1549   1.328   1.665   3.006  0.4555  0.0876  0.4841
  517SOL    HW1 1550   1.423   1.650   3.038  0.6386  0.8585  1.8817
  517SOL    HW2 1551   1.263   1.647   3.083  0.8836  1.9917  2.3930
  518SOL     OW 1552   1.044   0.719   1.689 -0.2282  0.0035 -0.4946
  518SOL    HW1 1553   0.948   0.709   1.729 -0.7017 -1.1948  2.4454
  518SOL    HW2 1554   1.076   0.625   1.659  1.0992 -2.6544 -0.7842
  519SOL     OW 1555   2.741   1.758   0.624  0.1228  0.6378  0.1241
  519SOL    HW1 1556   2.713   1.786   0.712  0.7997 -0.1123 -4.1879
  519SOL    HW2 1557   2.754   1.657   0.625  0.7674 -0.3142 -2.9710
  520SOL     OW 1558   2.089   2.341   1.764 -0.6266 -0.1925  0.5485
  520SOL    HW1 1559   2.042   2.250   1.748  1.9926 -0.9853 -0.3462
  520SOL    HW2 1560   2.024   2.417   1.744 -0.7001 -0.0872 -0.5462
  521SOL     OW 1561   0.979   2.998   2.681 -0.4069  0.4259 -0.4852
  521SOL    HW1 1562   0.935   3.089   2.668 -3.2688 -1.2356  1.9717
  521SOL    HW2 1563   0.968   2.942   2.596  0.0078 -0.6055  0.1317
  522SOL     OW 1564   2.637   0.478   2.643  0.3961 -0.0882  0.3920
  522SOL    HW1 1565   2.621   0.433   2.550 -0.4001 -0.3444 -2.2033
  522SOL    HW2 1566   2.563   0.435   2.700 -0.6980 -0.2479 -0.1279
  523SOL     OW 1567   1.433   2.417   1.600 -0.1406 -0.0785 -0.0039
  523SOL    HW1 1568   1.490   2.496   1.572 -1.3198 -0.6111 -0.6824
  523SOL    HW2 1569   1.475   2.379   1.684 -0.0893 -2.3715 -1.6846
  524SOL     OW 1570   1.572   2.042   2.899 -0.4505  0.0768  0.2008
  524SOL    HW1 1571   1.492   2.062   2.837 -1.9488  1.4910  1.3695
  524SOL    HW2 1572   1.605   1.944   2.889  1.7123 -0.4950 -1.4559
  525SOL     OW 1573   0.041   0.966   0.390  0.1511  0.0042 -0.5658
  525SOL    HW1 1574   3.104   0.967   0.484  2.1994  3.1210  0.0028
  525SOL    HW2 1575   0.120   0.910   0.385 -2.5907  3.3037 -1.3524
  526SOL     OW 1576   0.790   3.003   0.721 -0.3850  0.4932 -0.4688
  526SOL    HW1 1577   0.866   3.058   0.680  0.1528 -1.3961  0.3632
  526SOL    HW2 1578   0.698   3.052   0.720 -3.7888  0.7538 -2.4693
  527SOL     OW 1579   2.595   1.850   0.397  0.3173 -0.3223  0.0310
  527SOL    HW1 1580   2.625   1.854   0.494 -0.7573 -3.3056 -1.0223
  527SOL    HW2 1581   2.663   1.800   0.341  1.6867  0.3801 -1.5613
  528SOL     OW 1582   0.720   1.039   2.278 -0.3176  0.3939  0.4096
  528SOL    HW1 1583   0.755   1.052   2.374  1.4236 -3.5042  3.0251
  528SOL    HW2 1584   0.657   1.109   2.241  2.9010 -0.1071 -0.1741
  529SOL     OW 1585   1.222   1.585   2.761 -0.0452 -0.1241  0.0947
  529SOL    HW1 1586   1.272   1.628   2.839 -0.7459 -0.0695 -1.8747
  529SOL    HW2 1587   1.274   1.513   2.715 -0.4001 -0.1860 -1.2006
  530SOL     OW 1588   1.721   1.308   2.420 -0.3292 -0.4628 -0.4994
  530SOL    HW1 1589   1.623   1.323   2.419  0.0643  1.0410 -1.0237
  530SOL    HW2 1590   1.747   1.227   2.477  0.8096  0.3493  0.8487
  531SOL     OW 1591   0.556   2.250   2.761 -0.1102 -0.9203 -0.6667
  531SOL    HW1 1592   0.475   2.220   2.813  2.3842  2.6210  0.0514
  531SOL    HW2 1593   0.602   2.324   2.812  1.4979 -2.1333 -0.1676
  532SOL     OW 1594   2.286   0.802   0.484 -0.0210 -0.0605 -0.0334
  532SOL    HW1 1595   2.234   0.891   0.489  0.6753  2.8749  0.3894
  532SOL    HW2 1596   2.336   0.803   0.395 -0.0142  0.0804 -0.9178
  533SOL     OW 1597   3.052   0.345   1.825  0.3695  0.5344  0.3286
  533SOL    HW1 1598   0.013   0.331   1.745  1.2189 -0.6156 -0.1780
  533SOL    HW2 1599   3.082   0.411   1.892 -1.8156 -3.5646 -0.2973
  534SOL     OW 1600   1.488   0.043   0.035  0.0192 -0.3091  0.3329
  534SOL    HW1 1601   1.429   0.079   0.107 -0.7018 -1.6023 -0.0808
  534SOL    HW2 1602   1.427   0.035   3.058 -3.4629  0.3562 -1.5023
  535SOL     OW 1603   0.567   0.076   3.081 -0.2581  0.0644 -0.5458
  535SOL    HW1 1604   0.484   0.133   3.085 -0.5002 -2.1480  1.2359
  535SOL    HW2 1605   0.641   0.110   0.039  1.0817 -0.8688 -0.7980
  536SOL     OW 1606   0.349   1.628   1.485 -0.0776 -0.3622 -0.1172
  536SOL    HW1 1607   0.253   1.590   1.468 -1.2359 -0.4054 -2.0540
  536SOL    HW2 1608   0.371   1.659   1.582  3.1071  2.3562  1.1340
  537SOL     OW 1609   0.462   2.531   1.911  0.3281 -0.5845  0.0090
  537SOL    HW1 1610   0.456   2.494   1.816  1.4939  0.5115  2.3020
  537SOL    HW2 1611   0.497   2.454   1.970  1.4907 -4.6836  2.1393
  538SOL     OW 1612   3.098   1.700   0.011 -0.2894 -0.0392 -0.5890
  538SOL    HW1 1613   0.095   1.737   0.002  3.1783 -1.2012 -0.6230
  538SOL    HW2 1614   3.074   1.697   0.113  0.5348 -0.7010 -0.5330
  539SOL     OW 1615   2.671   0.781   2.690  0.2673 -0.1362 -0.6183
  539SOL    HW1 1616   2.739   0.723   2.639  0.6653 -1.8923 -0.6040
  539SOL    HW2 1617   2.680   0.871   2.648 -0.7954  0.9509 -0.7209
  540SOL     OW 1618   1.744   0.690   2.515 -0.3021  0.3468 -0.1972
  540SOL    HW1 1619   1.655   0.667   2.557  2.9353 -2.2624 -3.4870
  540SOL    HW2 1620   1.808   0.613   2.527  1.5078 -1.1027 -0.6649
  541SOL     OW 1621   0.856   0.134   1.862 -0.0296 -0.3266 -0.2673
  541SOL    HW1 1622   0.826   0.038   1.879 -1.2541  1.3589 -2.8083
  541SOL    HW2 1623   0.855   0.190   1.946  0.3509  1.1541 -1.3226
  542SOL     OW 1624   2.003   2.713   2.531 -0.4403 -0.4019 -0.1133
  542SOL    HW1 1625   1.920   2.763   2.497  2.5561 -2.0585  1.7708
  542SOL    HW2 1626   1.993   2.610   2.510 -1.5366 -1.9560  0.1896
  543SOL     OW 1627   0.522   3.099   0.715  0.4609 -0.0045  0.3264
  543SOL    HW1 1628   0.468   3.054   0.786  2.2463  1.0642 -0.4376
  543SOL    HW2 1629   0.482   0.079   0.683 -1.1863 -0.1179 -1.3444
  544SOL     OW 1630   2.479   1.493   2.138  0.0662 -0.2360  0.0412
  544SOL    HW1 1631   2.523   1.555   2.072 -1.0581 -0.5352  1.6222
  544SOL    HW2 1632   2.406   1.439   2.098 -1.3385  3.6809  0.0513
  545SOL     OW 1633   1.942   1.739   1.162  0.3452 -0.3109 -0.4334
  545SOL    HW1 1634   1.856   1.708   1.115  1.3642 -0.8496  2.2491
  545SOL    HW2 1635   1.940   1.725   1.259  1.9837 -0.0076 -6.1252
  546SOL     OW 1636   0.303   0.112   2.162 -0.1298  0.0359 -0.4061
  546SOL    HW1 1637   0.272   0.174   2.092  2.3617  1.0539 -0.6987
  546SOL    HW2 1638   0.241   0.034   2.175  0.4414  0.0781  2.8633
  547SOL     OW 1639   1.141   0.565   1.012 -0.2427  0.2385 -0.0191
  547SOL    HW1 1640   1.183   0.610   1.093 -0.3482 -1.1222  0.0249
  547SOL    HW2 1641   1.199   0.584   0.932 -0.2768  0.4807  0.7331
  548SOL     OW 1642   1.325   2.299   2.827  0.0989  0.3079 -0.2789
  548SOL    HW1 1643   1.231   2.306   2.789 -1.6576 -0.6266 -1.7670
  548SOL    HW2 1644   1.392   2.294   2.751  0.2808 -1.4905 -2.8217
  549SOL     OW 1645   2.224   0.234   0.071  0.2531 -0.3621 -0.2822
  549SOL    HW1 1646   2.136   0.195   0.106  1.2874  2.8525  0.8685
  549SOL    HW2 1647   2.294   0.237   0.148  0.8784 -0.6288 -2.1458
  550SOL     OW 1648   2.809   2.056   0.583  0.1228  1.0806 -0.0992
  550SOL    HW1 1649   2.805   1.952   0.599  0.2854 -1.5498 -0.3575
  550SOL    HW2 1650   2.848   2.081   0.497 -3.0173 -0.7042  3.2033
  551SOL     OW 1651   1.025   2.844   2.015 -0.2527 -0.3430  0.2216
  551SOL    HW1 1652   1.079   2.882   1.931  0.5025  1.2675 -1.1362
  551SOL    HW2 1653   1.024   2.912   2.092 -0.6141  0.3134  2.6868
  552SOL     OW 1654   2.911   2.297   2.482  0.2380  0.0808  0.7804
  552SOL    HW1 1655   2.908   2.199   2.446  1.5668 -0.1893 -1.9080
  552SOL    HW2 1656   2.850   2.306   2.560 -1.0120 -2.5294  1.7882
  553SOL     OW 1657   0.231   2.716   1.009 -0.2149 -0.5965 -0.5971
  553SOL    HW1 1658   0.154   2.728   1.067  1.3023  0.0686 -0.8233
  553SOL    HW2 1659   0.215   2.645   0.943 -2.0380  3.6335 -0.2001
  554SOL     OW 1660   2.270   1.968   1.652 -0.3886 -0.0819 -0.1369
  554SOL    HW1 1661   2.246   1.986   1.751 -0.0053  0.7771 -2.7764
  554SOL    HW2 1662   2.212   2.030   1.600  2.3090  0.2719  1.3859
  555SOL     OW 1663   1.545   2.345   1.849 -0.2239  0.0566  0.0574
  555SOL    HW1 1664   1.514   2.263   1.895  0.5946  1.7338 -4.3317
  555SOL    HW2 1665   1.486   2.425   1.861  0.1666 -2.1873 -0.7382
  556SOL     OW 1666   1.569   1.444   0.782  0.4928  0.2365 -0.3926
  556SOL    HW1 1667   1.654   1.477   0.742 -0.5181 -1.4014  0.1958
  556SOL    HW2 1668   1.509   1.529   0.802  0.7233  0.4086  2.2468
  557SOL     OW 1669   1.370   2.910   1.592  0.1877 -0.4145  0.0122
  557SOL    HW1 1670   1.352   2.891   1.692  2.1300  0.4633 -3.9735
  557SOL    HW2 1671   1.398   3.007   1.594  1.0211 -0.0371 -0.3611
  558SOL     OW 1672   0.274   0.070   1.779  0.0830  0.7080 -0.2620
  558SOL    HW1 1673   0.259   0.139   1.858 -1.2511 -0.5201  2.5755
  558SOL    HW2 1674   0.307   0.112   1.695  1.3064 -1.1598  1.3868
  559SOL     OW 1675   2.246   2.981   0.930  0.4084  0.5277  0.0488
  559SOL    HW1 1676   2.210   2.990   1.027 -1.6691  1.5517 -1.7256
  559SOL    HW2 1677   2.178   3.021   0.864 -2.4147 -2.1002 -1.7143
  560SOL     OW 1678   1.609   2.509   0.582  0.0612  0.2546  0.5762
  560SOL    HW1 1679   1.549   2.579   0.549  1.8805 -2.8554  3.6044
  560SOL    HW2 1680   1.647   2.547   0.661 -2.2555 -1.4525  0.2610
  561SOL     OW 1681   0.988   0.252   0.477  0.0226  0.2202 -0.5380
  561SOL    HW1 1682   1.084   0.294   0.485 -0.4789  0.0078  0.0367
  561SOL    HW2 1683   0.910   0.311   0.505  1.4192  1.2164  1.6866
  562SOL     OW 1684   0.599   1.288   2.466  0.2621  0.0953 -0.2935
  562SOL    HW1 1685   0.564   1.304   2.562  0.0901  1.1252  1.9875
  562SOL    HW2 1686   0.666   1.211   2.468 -3.1791 -0.4574  1.1197
  563SOL     OW 1687   1.394   2.198   2.243  0.2453  0.1999  0.1839
  563SOL    HW1 1688   1.399   2.164   2.146 -0.3895 -1.1387 -1.8687
  563SOL    HW2 1689   1.480   2.170   2.293 -1.7664  0.6646 -0.4922
  564SOL     OW 1690   2.864   0.986   0.872 -0.1458 -0.3850  0.0065
  564SOL    HW1 1691   2.842   1.086   0.859 -1.8814  0.3820 -0.4142
  564SOL    HW2 1692   2.780   0.935   0.897  1.0005  2.2997 -2.6419
  565SOL     OW 1693   0.541   1.079   0.164 -0.1047  0.4511  0.0087
  565SOL    HW1 1694   0.547   1.009   0.091  1.0226  0.9262  1.7784
  565SOL    HW2 1695   0.633   1.096   0.201 -3.4502  0.1554  1.6247
  566SOL     OW 1696   2.557   0.010   2.956 -0.2396  0.3773 -0.3644
  566SOL    HW1 1697   2.544   3.102   3.053  0.7201  0.9648 -1.8660
  566SOL    HW2 1698   2.510   0.097   2.922 -0.8016  2.4428  0.2573
  567SOL     OW 1699   1.543   0.775   0.896  0.0600 -0.2025 -0.7028
  567SOL    HW1 1700   1.631   0.741   0.941  1.3968 -0.0003  0.5221
  567SOL    HW2 1701   1.527   0.871   0.925  0.6239 -0.8702 -1.6647
  568SOL     OW 1702   1.659   1.782   2.867 -0.5934  0.5841 -0.7392
  568SOL    HW1 1703   1.642   1.737   2.955  3.9037  1.5502 -4.1537
  568SOL    HW2 1704   1.661   1.710   2.797 -1.7035 -0.0606  1.4642
  569SOL     OW 1705   2.054   1.334   0.091  0.1272  0.1540  0.3947
  569SOL    HW1 1706   2.012   1.380   0.173 -1.9772  0.5687 -0.4636
  569SOL    HW2 1707   2.111   1.396   0.031  0.1822 -1.3177 -1.7514
  570SOL     OW 1708   0.101   2.440   1.949 -0.3136  0.6526 -0.4133
  570SOL    HW1 1709   0.148   2.526   1.930 -2.2256 -2.2661 -0.5338
  570SOL    HW2 1710   0.051   2.416   1.866 -0.6065  1.6655  1.4993
  571SOL     OW 1711   2.877   1.681   1.745  0.6442  0.3401 -0.4491
  571SOL    HW1 1712   2.947   1.750   1.762 -0.1675  1.1431  0.0264
  571SOL    HW2 1713   2.871   1.610   1.820  0.1945  0.6134 -0.0143
  572SOL     OW 1714   1.719   1.852   0.445  0.2391 -0.2642 -0.3642
  572SOL    HW1 1715   1.708   1.821   0.545 -0.1658 -1.0291  1.0248
  572SOL    HW2 1716   1.767   1.942   0.434 -0.3953  1.8160 -0.0485
  573SOL     OW 1717   1.808   2.120   0.381 -0.2112 -0.2792 -0.0802
  573SOL    HW1 1718   1.831   2.145   0.279  1.4947  2.2252 -4.3887
  573SOL    HW2 1719   1.730   2.170   0.422 -1.7861  0.6993 -0.4507
  574SOL     OW 1720   1.038   0.185   1.255 -0.1836 -0.2530 -0.2403
  574SOL    HW1 1721   1.079   0.092   1.262 -1.5997  1.0207  1.0951
  574SOL    HW2 1722   1.020   0.213   1.159 -1.1924 -0.6832  1.0128
  575SOL     OW 1723   0.727   0.980   1.839 -0.3434 -0.3897 -0.0822
  575SOL    HW1 1724   0.780   1.055   1.788  0.0051  3.3297 -1.8000
  575SOL    HW2 1725   0.748   0.977   1.941 -1.5242  1.9685 -1.2000
  576SOL     OW 1726   2.652   0.335   1.697 -0.4535 -0.4961  0.6033
  576SOL    HW1 1727   2.720   0.388   1.644 -0.4595  2.1344  2.0653
  576SOL    HW2 1728   2.661   0.238   1.671 -1.1724  1.3927  0.7813
  577SOL     OW 1729   1.272   1.141   2.370 -0.3420  0.4594  0.1662
  577SOL    HW1 1730   1.201   1.126   2.445  2.3105 -1.0373  0.7223
  577SOL    HW2 1731   1.326   1.058   2.343 -0.6589  0.4263 -2.4549
  578SOL     OW 1732   2.132   1.388   2.587  0.2369 -0.3392  0.6618
  578SOL    HW1 1733   2.044   1.441   2.585  1.5655  0.7840 -2.4847
  578SOL    HW2 1734   2.190   1.401   2.507 -1.3510 -0.4914 -1.6125
  579SOL     OW 1735   1.324   2.164   1.521  0.0798 -0.5123  0.1338
  579SOL    HW1 1736   1.379   2.125   1.596 -0.1347  1.0295  0.6002
  579SOL    HW2 1737   1.336   2.268   1.510  1.7453  0.1307 -0.0281
  580SOL     OW 1738   1.397   2.167   0.349  0.3331 -0.8594  0.4588
  580SOL    HW1 1739   1.412   2.084   0.408 -0.4932 -0.4765  1.8689
  580SOL    HW2 1740   1.385   2.142   0.256  3.2853 -0.8659  0.7867
  581SOL     OW 1741   1.332   0.850   2.037 -0.2388  0.0326 -0.2456
  581SOL    HW1 1742   1.240   0.805   2.024 -0.6354 -1.2503  2.1275
  581SOL    HW2 1743   1.345   0.892   2.128  1.0220 -2.2325  3.2276
  582SOL     OW 1744   0.815   1.207   1.727 -0.0913  0.7559  0.5768
  582SOL    HW1 1745   0.894   1.267   1.733 -2.1089 -0.3096 -0.4694
  582SOL    HW2 1746   0.787   1.181   1.627 -2.2736 -2.0264 -3.3674
  583SOL     OW 1747   1.146   1.202   1.931 -0.2335 -0.8061 -0.1078
  583SOL    HW1 1748   1.188   1.126   1.876 -0.2013 -0.5074  2.5636
  583SOL    HW2 1749   1.088   1.261   1.869  0.0695 -1.3164 -0.8911
  584SOL     OW 1750   2.508   2.397   0.912 -0.4470  0.0490 -0.0542
  584SOL    HW1 1751   2.523   2.472   0.842  0.5923  0.2533 -0.2317
  584SOL    HW2 1752   2.516   2.427   1.010 -1.7736 -1.0207 -0.1119
  585SOL     OW 1753   2.034   0.161   2.626  0.6690  0.1011 -0.1352
  585SOL    HW1 1754   1.957   0.109   2.599  2.6144  1.8234  2.7158
  585SOL    HW2 1755   2.073   0.128   2.712 -0.8450  0.0888  0.1112
  586SOL     OW 1756   0.100   2.331   0.579  0.3013  0.0475 -0.2389
  586SOL    HW1 1757   0.002   2.344   0.598 -1.1514 -0.2000 -2.2155
  586SOL    HW2 1758   0.139   2.418   0.543  1.1726  0.1654  1.1091
  587SOL     OW 1759   1.575   1.651   3.086 -0.0478 -0.8831 -0.4162
  587SOL    HW1 1760   1.554   1.713   0.061 -2.4388  0.7411  1.1515
  587SOL    HW2 1761   1.645   1.581   0.005 -1.0730  0.9065  1.2097
  588SOL     OW 1762   0.393   0.408   1.234 -0.1826 -0.2002 -0.8735
  588SOL    HW1 1763   0.472   0.344   1.252  1.5964 -1.8749  1.4071
  588SOL    HW2 1764   0.306   0.354   1.211 -2.7313  0.8114 -2.1500
  589SOL     OW 1765   1.307   0.640   0.805 -0.2614  0.0558  0.2569
  589SOL    HW1 1766   1.397   0.684   0.830 -1.0759  2.9766 -2.5515
  589SOL    HW2 1767   1.237   0.707   0.769  0.5059 -0.6835  1.6645
  590SOL     OW 1768   1.243   1.214   3.005 -0.6307  0.2238  0.5112
  590SOL    HW1 1769   1.317   1.206   3.076  0.1718  0.7752  0.3376
  590SOL    HW2 1770   1.173   1.282   3.021  0.2904 -2.8204 -0.6678
  591SOL     OW 1771   2.515   2.482   2.378 -0.5178 -0.2345  0.0306
  591SOL    HW1 1772   2.438   2.480   2.451 -2.6327  1.4065  4.3477
  591SOL    HW2 1773   2.553   2.578   2.379  1.6801 -1.3553  0.4797
  592SOL     OW 1774   1.902   2.232   1.371  0.4973  0.1078 -0.0008
  592SOL    HW1 1775   1.893   2.174   1.289  1.8625  0.5449  0.2288
  592SOL    HW2 1776   1.823   2.221   1.431  0.7024  2.3628  1.0971
  593SOL     OW 1777   0.565   0.191   0.961 -0.1162  0.5128 -0.7116
  593SOL    HW1 1778   0.595   0.106   1.021 -1.6127 -2.2567  2.9732
  593SOL    HW2 1779   0.465   0.198   0.961  2.6012 -1.1223 -0.6642
  594SOL     OW 1780   2.739   1.025   2.558 -0.0744 -0.1152  0.4300
  594SOL    HW1 1781   2.801   1.066   2.628 -0.0212 -2.0190 -1.3441
  594SOL    HW2 1782   2.789   0.964   2.488 -0.8182 -0.8499  1.0338
  595SOL     OW 1783   0.322   2.943   0.881  0.2001  0.5549  0.3573
  595SOL    HW1 1784   0.323   2.858   0.941 -0.5155 -1.1338  3.1811
  595SOL    HW2 1785   0.309   3.019   0.946 -0.0909 -1.0948 -0.0473
  596SOL     OW 1786   0.121   1.286   1.335 -0.2904 -0.2330  0.3496
  596SOL    HW1 1787   0.069   1.280   1.421  3.4849  1.9829 -4.0402
  596SOL    HW2 1788   0.119   1.192   1.292 -1.5949  0.2517 -0.9112
  597SOL     OW 1789   1.887   1.459   0.325 -0.5157  0.1984 -0.3452
  597SOL    HW1 1790   1.918   1.401   0.404 -1.9718 -1.6280  3.1759
  597SOL    HW2 1791   1.933   1.551   0.323  1.1873  0.3959 -0.1046
  598SOL     OW 1792   0.382   2.942   1.894 -0.7200 -0.5437 -0.4836
  598SOL    HW1 1793   0.470   2.944   1.846  0.3902 -1.8198  0.0537
  598SOL    HW2 1794   0.324   3.021   1.867  0.3497 -0.7627  0.9966
  599SOL     OW 1795   2.522   1.607   2.818  0.3203  0.3198  0.0199
  599SOL    HW1 1796   2.422   1.578   2.806  2.4070 -1.5929 -0.3987
  599SOL    HW2 1797   2.572   1.634   2.732  0.1403 -0.2337  1.0702
  600SOL     OW 1798   0.779   1.163   0.258 -0.4987  0.7089  0.4152
  600SOL    HW1 1799   0.811   1.249   0.216 -2.0533 -0.9010 -0.0217
  600SOL    HW2 1800   0.775   1.170   0.360 -1.8020  1.7162 -3.5425
  601SOL     OW 1801   0.455   0.967   0.952 -0.0150  0.0970 -0.1339
  601SOL    HW1 1802   0.389   1.001   0.881 -1.6206 -2.6257  2.3113
  601SOL    HW2 1803   0.450   1.014   1.046 -2.7995 -4.1542 -0.9321
  602SOL     OW 1804   1.638   2.775   0.440  0.1675 -0.4336 -0.5240
  602SOL    HW1 1805   1.716   2.740   0.391  3.0594  1.8390  1.5825
  602SOL    HW2 1806   1.663   2.853   0.503 -1.5539  2.2161 -1.1042
  603SOL     OW 1807   0.668   2.633   2.294  0.2117 -0.0141 -0.2512
  603SOL    HW1 1808   0.728   2.650   2.211 -3.3672  0.7101 -1.5094
  603SOL    HW2 1809   0.583   2.593   2.260  4.5730  2.8557  0.3001
  604SOL     OW 1810   0.150   0.255   2.442  0.2086  0.7897  0.5044
  604SOL    HW1 1811   0.154   0.168   2.385 -0.8391 -1.8204 -1.3881
  604SOL    HW2 1812   0.245   0.284   2.464  0.7046  1.4999  0.5288
  605SOL     OW 1813   2.762   1.395   1.510  0.6720  0.1511 -0.4107
  605SOL    HW1 1814   2.733   1.300   1.518 -0.0987  2.5230 -0.2488
  605SOL    HW2 1815   2.681   1.455   1.503  1.1468  0.8226  0.1764
  606SOL     OW 1816   0.824   1.569   2.494  0.8269 -0.6058 -0.1250
  606SOL    HW1 1817   0.735   1.588   2.542 -0.8222  0.7965  1.4185
  606SOL    HW2 1818   0.816   1.526   2.402  1.9066 -0.8466  1.3655
  607SOL     OW 1819   0.264   0.058   0.470  0.1762 -0.0486  0.1109
  607SOL    HW1 1820   0.281   0.144   0.424 -0.1874  0.7548 -0.0770
  607SOL    HW2 1821   0.188   0.000   0.431 -0.1221 -0.9258  0.9286
  608SOL     OW 1822   1.982   1.696   2.038  0.1115  0.3115 -0.0703
  608SOL    HW1 1823   1.942   1.789   2.055 -1.4063 -0.0820  0.8684
  608SOL    HW2 1824   2.066   1.696   2.096 -2.2983  0.3934  0.2400
  609SOL     OW 1825   2.870   0.382   1.217  0.0231 -0.0260 -0.2866
  609SOL    HW1 1826   2.849   0.361   1.121 -0.7578  3.3265 -0.2071
  609SOL    HW2 1827   2.806   0.346   1.289  2.4013 -1.6518  2.1680
  610SOL     OW 1828   0.428   2.768   0.682  0.3484  0.5885  0.4986
  610SOL    HW1 1829   0.384   2.827   0.752 -1.4625 -0.2338 -1.4340
  610SOL    HW2 1830   0.404   2.799   0.590 -1.8578 -2.6907 -0.5215
  611SOL     OW 1831   1.687   0.792   2.813 -0.6165  0.0708 -0.4774
  611SOL    HW1 1832   1.776   0.840   2.836  0.7946 -0.5000 -0.4482
  611SOL    HW2 1833   1.629   0.854   2.757 -2.7660  4.4429 -1.2377
  612SOL     OW 1834   0.820   2.260   1.868  0.1750 -0.2829 -0.3292
  612SOL    HW1 1835   0.855   2.283   1.963 -2.8306 -3.4824 -0.1797
  612SOL    HW2 1836   0.857   2.326   1.800 -1.6251  1.4017  1.9922
  613SOL     OW 1837   0.444   2.476   0.470 -0.1741 -0.6821  0.2645
  613SOL    HW1 1838   0.491   2.392   0.501 -0.4180  0.5490 -1.9344
  613SOL    HW2 1839   0.509   2.548   0.440  0.2688  2.4103 -0.8103
  614SOL     OW 1840   2.398   2.835   1.587 -0.1652 -0.7071  0.4177
  614SOL    HW1 1841   2.418   2.899   1.664 -0.9106 -1.1653  0.8962
  614SOL    HW2 1842   2.338   2.884   1.518 -0.1428  1.4878 -2.6820
  615SOL     OW 1843   1.805   0.937   0.408  0.1350 -0.0662  0.5473
  615SOL    HW1 1844   1.765   1.034   0.425 -0.0701  3.6931  0.5902
  615SOL    HW2 1845   1.883   0.947   0.346 -1.5098  0.8224 -1.2089
  616SOL     OW 1846   1.915   0.595   0.309  0.4415 -0.0302 -0.0869
  616SOL    HW1 1847   1.856   0.636   0.384  1.1049 -0.1154 -0.6097
  616SOL    HW2 1848   1.917   0.494   0.324  0.3372 -0.5555 -0.1697
  617SOL     OW 1849   0.962   0.751   3.096 -0.2120  0.2880  0.1337
  617SOL    HW1 1850   1.004   0.842   3.093  0.6191 -3.0793 -1.4003
  617SOL    HW2 1851   0.986   0.706   0.083  1.7421 -0.6353  3.3960
  618SOL     OW 1852   0.776   2.966   1.869  0.7157 -0.2087 -0.2475
  618SOL    HW1 1853   0.864   2.927   1.846 -0.8892  1.6276  2.5252
  618SOL    HW2 1854   0.703   2.945   1.798  1.0156  0.7191 -0.3139
  619SOL     OW 1855   2.999   1.428   1.146  0.1465  0.0135  0.5164
  619SOL    HW1 1856   3.023   1.439   1.245 -1.0606  0.1020 -0.2778
  619SOL    HW2 1857   2.931   1.500   1.122  1.9602 -1.3308  0.6450
  620SOL     OW 1858   2.644   0.973   3.000 -0.0787  0.3454 -0.3296
  620SOL    HW1 1859   2.591   1.042   2.945 -1.0376  1.7820 -2.2906
  620SOL    HW2 1860   2.616   0.878   2.969 -0.9003 -1.8110 -0.1716
  621SOL     OW 1861   2.358   2.388   1.736  0.0303 -0.3114  0.5335
  621SOL    HW1 1862   2.264   2.373   1.762  1.1941  3.0465  0.6310
  621SOL    HW2 1863   2.422   2.322   1.780  0.3118  0.4861 -0.6634
  622SOL     OW 1864   0.947   0.693   2.357  0.4705  0.3153 -0.2732
  622SOL    HW1 1865   0.856   0.736   2.354 -0.8763 -1.9808  0.3877
  622SOL    HW2 1866   1.005   0.734   2.435 -0.4982  0.7523  2.2706
  623SOL     OW 1867   1.043   0.671   2.816  0.1069  0.0503  0.3046
  623SOL    HW1 1868   1.057   0.572   2.818  3.1226  0.7302 -1.4989
  623SOL    HW2 1869   1.015   0.707   2.906  0.4794 -1.8101  3.4048
  624SOL     OW 1870   2.401   0.769   0.230 -0.1631  0.0873 -0.2617
  624SOL    HW1 1871   2.342   0.833   0.177 -0.5626  0.2184  0.3080
  624SOL    HW2 1872   2.500   0.783   0.213  0.6993  0.4852  2.2072
  625SOL     OW 1873   1.024   1.246   0.705  0.0789  0.2104  0.3171
  625SOL    HW1 1874   1.093   1.175   0.697  1.3508  2.1972  0.4475
  625SOL    HW2 1875   1.061   1.340   0.729 -0.1470  0.0716 -1.6310
  626SOL     OW 1876   1.745   1.153   2.640 -0.1739  0.0286  0.1352
  626SOL    HW1 1877   1.788   1.065   2.610 -0.2080 -2.8303 -1.4867
  626SOL    HW2 1878   1.741   1.148   2.741 -0.3060 -2.4099 -0.8080
  627SOL     OW 1879   1.005   2.851   2.900 -0.3559 -0.0443  0.3720
  627SOL    HW1 1880   0.976   2.883   2.804 -0.1987  0.5469 -4.0572
  627SOL    HW2 1881   1.012   2.929   2.964  2.1833 -0.3712  2.3525
  628SOL     OW 1882   2.193   0.351   2.503  0.0979 -0.3744 -0.4954
  628SOL    HW1 1883   2.146   0.285   2.567  2.4542  1.3260 -1.4801
  628SOL    HW2 1884   2.281   0.380   2.549 -2.2531 -0.5824 -3.5095
  629SOL     OW 1885   0.928   0.430   2.916  0.2526 -0.5154 -0.1047
  629SOL    HW1 1886   0.928   0.434   2.811  0.7535 -0.7574  0.7610
  629SOL    HW2 1887   0.900   0.521   2.955  0.9931  1.5761 -1.3235
  630SOL     OW 1888   1.104   0.085   2.360  0.1052  0.5809  0.4237
  630SOL    HW1 1889   1.089   0.143   2.276  1.2639  3.4855  1.6592
  630SOL    HW2 1890   1.077   0.131   2.444  0.9698  1.9975 -1.1681
  631SOL     OW 1891   2.432   1.007   0.800  0.3797  0.0741  0.3030
  631SOL    HW1 1892   2.415   1.084   0.867  1.9745  1.8762  1.4160
  631SOL    HW2 1893   2.442   1.049   0.706  0.2585 -0.0768  1.8993
  632SOL     OW 1894   1.983   0.884   1.416 -0.0728  0.1601 -0.0419
  632SOL    HW1 1895   2.062   0.911   1.462 -3.1751  1.5413  0.3059
  632SOL    HW2 1896   1.969   0.782   1.432 -1.8603 -1.6234 -0.7519
  633SOL     OW 1897   0.902   1.483   0.474  0.4185  0.4733 -0.0051
  633SOL    HW1 1898   0.870   1.456   0.382  0.8784 -1.3873 -0.0667
  633SOL    HW2 1899   1.008   1.469   0.483  4.9992  0.5121 -0.7126
  634SOL     OW 1900   2.152   0.158   1.380 -0.1233 -0.4492 -0.5183
  634SOL    HW1 1901   2.057   0.124   1.390  0.3898  2.3202  1.8907
  634SOL    HW2 1902   2.210   0.125   1.458  2.3340 -2.7445  0.1415
  635SOL     OW 1903   1.735   0.618   1.248 -0.9905 -0.7094 -0.3022
  635SOL    HW1 1904   1.639   0.630   1.278 -0.1345  1.9911  1.5643
  635SOL    HW2 1905   1.740   0.634   1.148  1.6664  0.8958  1.8635
  636SOL     OW 1906   0.809   1.202   0.529  0.0392  0.1163 -0.2528
  636SOL    HW1 1907   0.727   1.215   0.590 -2.1155 -0.9935  2.3469
  636SOL    HW2 1908   0.893   1.236   0.576 -1.4940 -0.0092 -0.8216
  637SOL     OW 1909   2.531   2.258   2.675 -0.3386 -0.2209 -0.4421
  637SOL    HW1 1910   2.549   2.179   2.731  1.0154  4.6831 -4.4102
  637SOL    HW2 1911   2.432   2.259   2.650 -0.3073  2.1379  1.6187
  638SOL     OW 1912   1.424   2.580   2.575 -0.3537  0.1984  0.1455
  638SOL    HW1 1913   1.512   2.540   2.612  1.6030 -0.1326 -0.7946
  638SOL    HW2 1914   1.341   2.534   2.605  3.0436  0.8365  0.4854
  639SOL     OW 1915   1.130   1.890   1.247 -0.7098 -0.2161 -0.1167
  639SOL    HW1 1916   1.038   1.917   1.212 -0.8718 -2.3848 -0.4081
  639SOL    HW2 1917   1.192   1.971   1.249  0.6049  1.4607  0.8252
  640SOL     OW 1918   2.449   2.854   0.363 -0.1987  0.0093 -0.0789
  640SOL    HW1 1919   2.523   2.838   0.295 -1.4657 -1.3738 -2.3029
  640SOL    HW2 1920   2.427   2.763   0.407  0.7619 -0.5473 -0.4537
  641SOL     OW 1921   0.060   3.055   0.264  0.3319 -0.6409 -0.4933
  641SOL    HW1 1922   0.099   2.964   0.234  1.4879  0.2901  1.1121
  641SOL    HW2 1923   3.076   3.042   0.314  2.1506 -1.4110  1.9877
  642SOL     OW 1924   2.878   0.941   1.246 -0.0930  0.3093 -0.0771
  642SOL    HW1 1925   2.852   0.864   1.181 -0.9218 -0.9918  1.6886
  642SOL    HW2 1926   2.859   1.035   1.208 -0.8485  0.1160 -0.1518
  643SOL     OW 1927   0.871   1.878   1.908 -0.2238 -0.0284 -0.2183
  643SOL    HW1 1928   0.810   1.929   1.847  2.3345  1.2755  0.6357
  643SOL    HW2 1929   0.965   1.920   1.920  2.5701 -1.8448  1.9058
  644SOL     OW 1930   1.893   2.501   0.477 -0.1612  0.4703 -0.1608
  644SOL    HW1 1931   1.977   2.450   0.500 -2.3072  0.8896 -0.3753
  644SOL    HW2 1932   1.826   2.497   0.553 -2.0780 -0.4525  3.3998
  645SOL     OW 1933   2.137   2.157   1.054 -0.4031  0.6492  0.1023
  645SOL    HW1 1934   2.080   2.080   1.031  4.6139 -0.0957 -2.5239
  645SOL    HW2 1935   2.095   2.249   1.048  0.5801 -1.1427  2.7631
  646SOL     OW 1936   1.080   2.572   2.999  0.0734  0.3339  0.5790
  646SOL    HW1 1937   1.181   2.571   2.999  0.6961 -0.6820  0.0124
  646SOL    HW2 1938   1.046   2.661   2.969 -0.8231  0.2657 -2.2313
  647SOL     OW 1939   0.246   2.686   1.917 -0.2012  0.0561 -0.2138
  647SOL    HW1 1940   0.290   2.775   1.900 -1.8276  0.9703  3.9353
  647SOL    HW2 1941   0.324   2.617   1.906  2.5931 -0.2672  2.0491
  648SOL     OW 1942   1.793   0.677   0.986  0.0448  0.2509 -0.1752
  648SOL    HW1 1943   1.820   0.600   0.925 -1.8663  0.3155  0.2190
  648SOL    HW2 1944   1.872   0.726   1.025  0.5892  0.3586 -1.3349
  649SOL     OW 1945   1.537   2.111   0.046 -0.6515 -0.5358  0.0221
  649SOL    HW1 1946   1.569   2.208   0.062  2.0491  2.1002  0.6526
  649SOL    HW2 1947   1.560   2.082   3.052 -1.3179 -0.2898 -0.2037
  650SOL     OW 1948   2.270   1.337   2.084 -0.1644  0.0544 -0.3600
  650SOL    HW1 1949   2.287   1.239   2.093 -0.8013  0.8526  0.2231
  650SOL    HW2 1950   2.178   1.345   2.036 -0.7650 -0.0164  1.3734
  651SOL     OW 1951   1.641   2.365   0.097  0.1619 -0.3143  0.5998
  651SOL    HW1 1952   1.547   2.395   0.123  0.1145  0.5424  1.5419
  651SOL    HW2 1953   1.682   2.421   0.022 -1.5721 -3.3871  0.0040
  652SOL     OW 1954   0.443   2.190   0.093 -0.1511 -0.1252  0.8756
  652SOL    HW1 1955   0.463   2.155   3.104 -2.1408  0.5347 -1.8140
  652SOL    HW2 1956   0.425   2.291   0.088 -1.2075  0.1067 -0.7096
  653SOL     OW 1957   2.554   2.186   1.185  0.4150  0.3347  0.1699
  653SOL    HW1 1958   2.581   2.240   1.270 -0.4955  1.0546 -0.2459
  653SOL    HW2 1959   2.462   2.139   1.205 -3.8930 -0.5985  2.9854
  654SOL     OW 1960   2.834   2.842   1.527  0.1538  0.2840 -0.2433
  654SOL    HW1 1961   2.836   2.945   1.509 -0.1454  1.3728 -0.1740
  654SOL    HW2 1962   2.897   2.790   1.466  0.9417  0.6035  1.3638
  655SOL     OW 1963   0.043   2.126   1.283  0.3492 -0.3388  0.2121
  655SOL    HW1 1964   0.125   2.071   1.290  0.2285  2.7577  1.4510
  655SOL    HW2 1965   0.071   2.208   1.227  0.5347  1.0044  0.4808
  656SOL     OW 1966   2.866   2.706   2.630  0.0464 -0.2984 -0.8837
  656SOL    HW1 1967   2.916   2.733   2.544  1.7832  1.4837  0.3449
  656SOL    HW2 1968   2.782   2.761   2.642  1.5557 -2.2085  2.7196
  657SOL     OW 1969   3.046   0.878   0.151 -0.1995  0.4974 -0.3025
  657SOL    HW1 1970   2.974   0.807   0.145  0.4821  1.2697  1.4248
  657SOL    HW2 1971   3.094   0.863   0.240  2.0524 -1.9952 -0.2249
  658SOL     OW 1972   1.992   1.927   0.986  0.5397  0.1928  0.1928
  658SOL    HW1 1973   1.995   1.876   0.900  0.2683  0.9585  0.0369
  658SOL    HW2 1974   1.961   1.876   1.070  2.7468 -0.6991 -1.1453
  659SOL     OW 1975   1.448   0.613   1.296 -0.2326  0.4974  0.0181
  659SOL    HW1 1976   1.388   0.647   1.223  0.9949 -2.5107  0.5638
  659SOL    HW2 1977   1.443   0.512   1.306 -0.9542 -2.8354  0.9853
  660SOL     OW 1978   1.786   1.458   0.035 -0.6511  0.3534  0.2090
  660SOL    HW1 1979   1.827   1.458   0.128 -0.3114  0.9229  1.4449
  660SOL    HW2 1980   1.749   1.364   0.013 -0.3750  2.0578 -0.4262
  661SOL     OW 1981   0.242   1.992   0.220  0.1013 -0.3188  0.0770
  661SOL    HW1 1982   0.299   2.058   0.272  3.4556  1.7752 -1.3081
  661SOL    HW2 1983   0.159   1.962   0.271  0.6888  0.6903  0.1885
  662SOL     OW 1984   0.219   0.686   2.097  0.0883  0.3139 -0.0904
  662SOL    HW1 1985   0.230   0.701   2.199  2.0998  0.0729 -0.6326
  662SOL    HW2 1986   0.203   0.780   2.059 -2.9603  0.5200  1.0148
  663SOL     OW 1987   2.040   1.365   0.802  0.3202 -0.2085 -0.1156
  663SOL    HW1 1988   1.988   1.295   0.858  4.7663  3.5721 -1.2817
  663SOL    HW2 1989   2.139   1.352   0.796 -0.0879 -0.1152  1.1255
  664SOL     OW 1990   0.686   0.704   1.161 -0.0756  0.2775  0.0069
  664SOL    HW1 1991   0.758   0.629   1.155 -2.7163 -2.9118 -1.3431
  664SOL    HW2 1992   0.629   0.707   1.076 -1.5344  0.4381 -0.9986
  665SOL     OW 1993   1.098   3.086   0.235 -0.4928  0.4419 -0.0544
  665SOL    HW1 1994   1.131   3.021   0.308 -3.8352  0.6175  0.9540
  665SOL    HW2 1995   1.169   0.052   0.209  0.0888 -1.1119 -0.1246
  666SOL     OW 1996   3.080   0.388   2.618 -0.6021  0.1379  1.0026
  666SOL    HW1 1997   0.057   0.358   2.561  1.9893 -2.5432  0.9803
  666SOL    HW2 1998   3.093   0.399   2.717  0.1786 -3.9904 -3.8084
  667SOL     OW 1999   2.377   1.882   2.057 -0.1426  0.3755 -0.0231
  667SOL    HW1 2000   2.398   1.952   2.128  2.0912 -0.4371 -0.9620
  667SOL    HW2 2001   2.328   1.808   2.112 -1.3816 -1.1140 -1.2713
  668SOL     OW 2002   0.586   1.592   2.625 -0.5191 -0.5813  0.2746
  668SOL    HW1 2003   0.572   1.692   2.652  2.4344  1.6809  4.7105
  668SOL    HW2 2004   0.500   1.534   2.627 -1.7494 -1.4806 -1.5486
  669SOL     OW 2005   2.224   2.725   2.380 -0.8723 -0.4380 -0.3898
  669SOL    HW1 2006   2.206   2.662   2.301 -2.1694  0.2152 -1.0635
  669SOL    HW2 2007   2.133   2.736   2.424 -1.4748  1.2448  4.1251
  670SOL     OW 2008   2.485   1.108   2.518  0.4634  0.0506 -0.0597
  670SOL    HW1 2009   2.405   1.043   2.506  0.1770 -0.9304 -0.0530
  670SOL    HW2 2010   2.572   1.053   2.532 -0.1227 -3.4082 -0.3683
  671SOL     OW 2011   2.464   1.187   0.170 -0.2573 -0.2025 -0.8618
  671SOL    HW1 2012   2.487   1.195   0.069 -0.7959  0.6836 -1.6757
  671SOL    HW2 2013   2.506   1.265   0.223  0.6293  0.6037 -0.2108
  672SOL     OW 2014   2.486   1.372   2.517  0.0909 -0.1342 -0.4830
  672SOL    HW1 2015   2.557   1.422   2.569 -2.3684  2.4716 -0.1929
  672SOL    HW2 2016   2.498   1.272   2.526 -0.5341 -0.6980  0.2305
  673SOL     OW 2017   2.634   1.129   1.546 -0.3864 -0.0021 -0.4340
  673SOL    HW1 2018   2.571   1.096   1.471  1.3319  0.9039 -1.3020
  673SOL    HW2 2019   2.695   1.055   1.577  0.2244  0.6411  0.3322
  674SOL     OW 2020   1.789   1.946   1.809  0.2038 -0.6658 -0.0600
  674SOL    HW1 2021   1.853   1.905   1.743  2.7887 -1.8559 -1.7164
  674SOL    HW2 2022   1.698   1.901   1.815  1.6262 -1.2169 -1.9906
  675SOL     OW 2023   0.117   0.759   0.921 -0.0179 -0.2262 -0.1022
  675SOL    HW1 2024   0.144   0.786   0.826  1.4782  1.7926 -0.7528
  675SOL    HW2 2025   0.193   0.708   0.958  0.5667  1.7616 -1.1461
  676SOL     OW 2026   1.868   1.017   1.104 -0.6544  0.2457  0.2195
  676SOL    HW1 2027   1.851   1.023   1.202 -0.8702 -1.5220 -0.0547
  676SOL    HW2 2028   1.919   0.932   1.082 -1.3318  0.1799  1.5615
  677SOL     OW 2029   1.675   1.607   2.128  0.3855  0.1917  0.4298
  677SOL    HW1 2030   1.716   1.513   2.117  0.0399 -2.2381  1.4524
  677SOL    HW2 2031   1.571   1.591   2.147 -0.3783 -0.7663  0.1916
  678SOL     OW 2032   2.980   1.705   0.767  0.0154  0.0686 -0.2354
  678SOL    HW1 2033   2.928   1.737   0.850 -1.6810  1.7729 -1.4150
  678SOL    HW2 2034   2.930   1.722   0.685 -0.5125 -1.7086  0.2456
  679SOL     OW 2035   2.889   2.828   0.394 -0.2029 -0.4056 -0.4114
  679SOL    HW1 2036   2.862   2.927   0.379  1.3783 -0.6076 -1.7231
  679SOL    HW2 2037   2.941   2.816   0.481 -1.4975  1.3147 -1.7203
  680SOL     OW 2038   0.238   2.418   1.314 -0.2513  0.0642  0.1401
  680SOL    HW1 2039   0.196   2.393   1.223 -1.1866  0.4613 -0.8319
  680SOL    HW2 2040   0.328   2.374   1.328  0.2482 -1.3464  0.1183
  681SOL     OW 2041   0.729   0.964   1.263 -0.3368  0.3134  0.0233
  681SOL    HW1 2042   0.831   0.967   1.240  1.0238  1.5466  1.2457
  681SOL    HW2 2043   0.693   0.868   1.225 -1.3316 -3.1454 -2.2051
  682SOL     OW 2044   1.608   2.804   0.980 -0.5163  0.6162 -0.2214
  682SOL    HW1 2045   1.559   2.869   1.037  0.3095 -1.3125 -3.5413
  682SOL    HW2 2046   1.710   2.809   0.994  1.4597 -2.4583  2.4619
  683SOL     OW 2047   2.280   1.201   1.464 -0.9236 -0.4781 -0.3028
  683SOL    HW1 2048   2.223   1.243   1.392 -1.4675  0.6555  0.1195
  683SOL    HW2 2049   2.356   1.146   1.434  2.5856  1.3336  0.6732
  684SOL     OW 2050   0.687   2.056   1.792  0.0603  0.6263  0.8036
  684SOL    HW1 2051   0.729   2.147   1.812  0.7242 -0.2782  1.7294
  684SOL    HW2 2052   0.633   2.022   1.870 -0.5099  2.3964  0.2105
  685SOL     OW 2053   2.426   1.763   0.019 -0.1935 -0.7094 -0.1566
  685SOL    HW1 2054   2.522   1.732   0.007 -1.7096  2.2130 -2.2064
  685SOL    HW2 2055   2.366   1.682   0.030  0.7954  1.8597  2.4551
  686SOL     OW 2056   3.098   0.479   0.594  0.1841 -0.2402 -0.0453
  686SOL    HW1 2057   3.094   0.393   0.538 -1.5825 -0.7921  0.3768
  686SOL    HW2 2058   3.012   0.499   0.643  2.4703  0.6143 -0.5861
  687SOL     OW 2059   1.236   2.904   0.397 -0.5140  0.6968  0.1120
  687SOL    HW1 2060   1.149   2.854   0.412  0.0978  1.8767 -0.3303
  687SOL    HW2 2061   1.301   2.840   0.349  1.4705 -1.2528  0.1853
  688SOL     OW 2062   1.845   1.944   2.079  0.2632  0.5633 -0.6818
  688SOL    HW1 2063   1.834   1.957   1.981 -1.0381  0.5716  1.9561
  688SOL    HW2 2064   1.755   1.913   2.125  2.5262  0.2532  1.0113
  689SOL     OW 2065   2.666   1.203   2.045 -0.2741 -0.9764 -0.7259
  689SOL    HW1 2066   2.651   1.250   2.134 -2.0902  0.0400 -1.2974
  689SOL    HW2 2067   2.677   1.278   1.974 -1.3064  1.6355 -0.3555
  690SOL     OW 2068   1.858   1.210   0.918 -0.2748 -0.0738  0.4569
  690SOL    HW1 2069   1.876   1.147   0.997 -0.2192 -0.5001 -1.4154
  690SOL    HW2 2070   1.806   1.151   0.846  0.1596 -1.7546  1.2467
  691SOL     OW 2071   1.077   1.280   1.289  0.0443  0.3342 -0.4787
  691SOL    HW1 2072   1.139   1.215   1.238  2.1230 -0.0520 -1.0286
  691SOL    HW2 2073   0.990   1.235   1.317  0.1663  0.6102  0.4790
  692SOL     OW 2074   1.461   0.275   2.278  0.1316 -0.2599 -0.1192
  692SOL    HW1 2075   1.423   0.183   2.307  0.2691  0.7139  1.6221
  692SOL    HW2 2076   1.555   0.266   2.229  2.5381  0.8613 -1.4813
  693SOL     OW 2077   0.307   1.088   3.037 -0.2003 -0.3756 -0.5200
  693SOL    HW1 2078   0.311   1.166   0.003  1.9243  0.1275  0.4333
  693SOL    HW2 2079   0.382   1.020   3.049 -1.3805  1.4647 -0.9048
  694SOL     OW 2080   2.242   2.744   0.808 -0.3031 -0.9576 -0.1635
  694SOL    HW1 2081   2.247   2.840   0.841 -1.3184  0.7188  4.1848
  694SOL    HW2 2082   2.203   2.730   0.716  0.8540 -1.2558 -0.8512
  695SOL     OW 2083   1.583   1.329   2.838  0.0210  0.5721  0.7392
  695SOL    HW1 2084   1.595   1.303   2.933 -2.1249 -1.5266  1.4644
  695SOL    HW2 2085   1.668   1.372   2.804  3.2722  0.3227 -1.0681
  696SOL     OW 2086   1.642   0.263   1.677 -0.1844  0.0484  0.4694
  696SOL    HW1 2087   1.590   0.335   1.723  1.1561 -5.1353 -1.3426
  696SOL    HW2 2088   1.727   0.303   1.636 -1.1003  0.2342 -0.5273
  697SOL     OW 2089   1.301   0.394   2.120  0.0392  0.0752 -0.1112
  697SOL    HW1 2090   1.370   0.347   2.182 -0.4426  0.5780  2.4089
  697SOL    HW2 2091   1.339   0.487   2.099 -0.4396 -0.0901 -0.9677
  698SOL     OW 2092   1.883   1.491   2.539 -0.2463 -0.3584 -0.5823
  698SOL    HW1 2093   1.887   1.554   2.460 -1.5981 -0.5506  1.5992
  698SOL    HW2 2094   1.834   1.404   2.513  0.7671  1.9596  0.4623
  699SOL     OW 2095   1.628   1.313   1.019 -0.1978 -0.0690 -0.5068
  699SOL    HW1 2096   1.572   1.373   0.955 -0.6463 -0.5207 -2.6681
  699SOL    HW2 2097   1.722   1.303   0.981  2.4668 -0.5784  0.9012
  700SOL     OW 2098   1.806   2.916   0.180  0.3370 -0.1181 -0.2678
  700SOL    HW1 2099   1.815   2.830   0.234  0.6417  0.3461 -2.4093
  700SOL    HW2 2100   1.757   2.899   0.095 -1.8006  1.5124 -1.0059
  701SOL     OW 2101   0.564   0.218   1.313 -0.2186 -0.0749 -0.0487
  701SOL    HW1 2102   0.574   0.157   1.238 -3.4414  0.4924  2.3150
  701SOL    HW2 2103   0.653   0.226   1.368 -1.3471  0.1712  0.3018
  702SOL     OW 2104   1.614   2.975   1.348 -0.5286  0.2531 -0.1136
  702SOL    HW1 2105   1.683   2.899   1.361  0.0656 -0.5043 -4.4642
  702SOL    HW2 2106   1.592   3.020   1.433 -1.1126 -0.9222 -2.5004
  703SOL     OW 2107   2.488   0.024   2.295 -0.6639  0.0643 -0.2334
  703SOL    HW1 2108   2.481   0.066   2.386  0.0304  1.3415 -2.1363
  703SOL    HW2 2109   2.493   3.026   2.307  2.0400 -2.0848  1.9324
  704SOL     OW 2110   1.422   1.652   0.839  0.0646  0.0533  0.4444
  704SOL    HW1 2111   1.336   1.688   0.798  0.9064 -2.9292  2.0123
  704SOL    HW2 2112   1.428   1.677   0.936 -0.4494 -2.3822 -1.5728
  705SOL     OW 2113   2.965   1.614   2.015  0.3173  0.7822  0.4165
  705SOL    HW1 2114   2.900   1.695   2.007  0.9083  0.9918  2.0352
  705SOL    HW2 2115   2.946   1.564   2.099  0.7178  1.2985  0.7965
  706SOL     OW 2116   1.631   0.047   0.535  0.3240  0.4357  0.0284
  706SOL    HW1 2117   1.538   0.017   0.555  0.7374 -0.5647  1.0700
  706SOL    HW2 2118   1.646   0.047   0.432  1.0253 -0.8200  1.9362
  707SOL     OW 2119   1.058   2.531   2.279  0.5354  0.3312 -0.1951
  707SOL    HW1 2120   1.059   2.470   2.364  2.2979  1.7135  2.9236
  707SOL    HW2 2121   1.143   2.516   2.222  0.6094 -2.3339  0.4441
  708SOL     OW 2122   0.612   2.233   1.591 -0.1835  0.1911 -0.5378
  708SOL    HW1 2123   0.630   2.152   1.649 -0.0029  0.4936  1.1772
  708SOL    HW2 2124   0.687   2.238   1.520 -1.9252  1.8131 -1.6516
  709SOL     OW 2125   2.426   0.917   2.226 -0.2982 -0.3328  0.1724
  709SOL    HW1 2126   2.518   0.876   2.209 -1.1983  0.4444 -0.2225
  709SOL    HW2 2127   2.400   0.986   2.154  1.3638  0.4070 -0.1243
  710SOL     OW 2128   2.886   0.467   1.586 -0.0205 -0.1841  0.3956
  710SOL    HW1 2129   2.948   0.500   1.512  1.4758 -1.7056  1.3378
  710SOL    HW2 2130   2.944   0.446   1.668 -0.4796 -0.4577 -0.8958
  711SOL     OW 2131   2.821   2.367   0.387 -0.2167 -0.2912 -0.2821
  711SOL    HW1 2132   2.821   2.385   0.490 -0.7550 -1.4253  1.0425
  711SOL    HW2 2133   2.902   2.414   0.340 -0.4789  0.6477  0.0028
  712SOL     OW 2134   0.320   2.493   2.495  0.2366  0.1581 -0.2383
  712SOL    HW1 2135   0.352   2.586   2.520  0.3056 -0.9058  2.7074
  712SOL    HW2 2136   0.267   2.454   2.574  1.5496 -0.8469  2.1406
  713SOL     OW 2137   1.896   0.778   0.084  0.1066 -0.2386  0.2376
  713SOL    HW1 2138   1.903   0.726   0.168  0.7098 -0.3999 -1.1441
  713SOL    HW2 2139   1.849   0.715   0.022  1.4614  1.3580  0.0421
  714SOL     OW 2140   1.399   1.968   0.516 -0.1109  0.2798  0.9041
  714SOL    HW1 2141   1.337   1.886   0.513  2.2908 -0.5705  0.2859
  714SOL    HW2 2142   1.494   1.932   0.522  0.2347 -1.1935  1.0224
  715SOL     OW 2143   0.172   0.348   0.316 -0.1437  0.1888 -0.1416
  715SOL    HW1 2144   0.093   0.310   0.374 -2.2710 -0.8194 -0.0907
  715SOL    HW2 2145   0.250   0.385   0.372  2.6942 -0.3085  0.4574
  716SOL     OW 2146   0.780   2.981   2.161  0.2305  0.4524  0.3656
  716SOL    HW1 2147   0.704   3.024   2.206  1.4728 -0.2759  0.1379
  716SOL    HW2 2148   0.762   2.978   2.057 -0.9898  0.6300 -4.3460
  717SOL     OW 2149   0.441   0.450   2.936  0.8099 -0.3177  0.6020
  717SOL    HW1 2150   0.523   0.389   2.925  1.7827 -1.5469  3.3537
  717SOL    HW2 2151   0.356   0.387   2.928 -2.4436 -0.5573  0.2242
  718SOL     OW 2152   1.013   0.557   0.526 -0.4198  0.3758 -0.2567
  718SOL    HW1 2153   1.021   0.602   0.619  0.6336 -0.7562  2.3869
  718SOL    HW2 2154   1.090   0.490   0.516  2.4426 -2.6921  3.4775
  719SOL     OW 2155   2.267   2.265   2.599 -0.2116 -0.9324  0.2960
  719SOL    HW1 2156   2.227   2.359   2.581 -1.8133  2.6253 -0.0683
  719SOL    HW2 2157   2.226   2.229   2.689 -1.1606  1.6979  0.2092
  720SOL     OW 2158   1.682   1.013   1.886  0.4437 -0.0418 -0.3382
  720SOL    HW1 2159   1.648   0.933   1.828 -0.2443  0.6878  0.9911
  720SOL    HW2 2160   1.701   0.971   1.976  1.8738  1.9771 -1.5433
  721SOL     OW 2161   2.821   0.084   0.979  0.4319  0.0019  0.3597
  721SOL    HW1 2162   2.834   0.183   0.955 -0.1779 -1.3109 -1.0634
  721SOL    HW2 2163   2.802   0.032   0.893 -0.9563  2.4126 -0.5650
  722SOL     OW 2164   1.147   2.165   2.351  0.5101 -0.3909 -0.5309
  722SOL    HW1 2165   1.233   2.191   2.308 -0.0479  0.5198 -3.6423
  722SOL    HW2 2166   1.108   2.236   2.409 -0.4859  1.3442  0.0513
  723SOL     OW 2167   1.238   0.428   0.485  0.1011 -0.3165 -0.1307
  723SOL    HW1 2168   1.282   0.393   0.571  0.9900 -1.6875  0.5344
  723SOL    HW2 2169   1.310   0.438   0.413 -1.5979  0.6535  0.2096
  724SOL     OW 2170   0.939   1.840   2.346 -0.5083 -0.2314  0.0183
  724SOL    HW1 2171   0.949   1.792   2.434  3.6246 -1.1795  0.6245
  724SOL    HW2 2172   0.873   1.789   2.284 -3.0134  0.7631 -5.1699
  725SOL     OW 2173   0.109   0.719   1.281  0.4129 -0.1309  0.8806
  725SOL    HW1 2174   0.112   0.821   1.294  1.5861  0.8320 -0.5019
  725SOL    HW2 2175   0.180   0.692   1.212 -1.3180  1.4403 -1.1046
  726SOL     OW 2176   2.072   3.098   0.739  0.2839  0.2345 -0.3715
  726SOL    HW1 2177   2.093   3.074   0.638  0.2523 -0.6360 -1.8972
  726SOL    HW2 2178   1.969   0.020   0.750 -2.3663 -0.8383  1.2155
  727SOL     OW 2179   2.051   1.157   2.192 -0.3246 -0.0207  0.3142
  727SOL    HW1 2180   2.031   1.222   2.115 -1.0626 -0.2819  0.5394
  727SOL    HW2 2181   2.097   1.201   2.272  0.6384 -0.3625 -1.5079
  728SOL     OW 2182   1.582   2.626   1.508  0.6297  0.0743 -0.0271
  728SOL    HW1 2183   1.518   2.700   1.482 -0.2996 -0.4968  0.7768
  728SOL    HW2 2184   1.672   2.649   1.472 -0.7712  3.1033 -0.1100
  729SOL     OW 2185   1.870   0.369   1.934  0.5009  0.4017 -0.5026
  729SOL    HW1 2186   1.964   0.390   1.975  0.7388 -0.3463  1.8259
  729SOL    HW2 2187   1.817   0.452   1.907  1.0959  0.2871 -0.2703
  730SOL     OW 2188   0.660   1.386   1.389  0.0927  0.1205  0.2173
  730SOL    HW1 2189   0.658   1.459   1.456 -2.7180  1.9421  0.9298
  730SOL    HW2 2190   0.714   1.427   1.312 -1.9945 -1.7957  0.3917
  731SOL     OW 2191   0.590   2.983   0.168  0.4069 -0.3967  0.2480
  731SOL    HW1 2192   0.587   3.014   0.268 -0.9065 -1.9746  1.4003
  731SOL    HW2 2193   0.565   3.055   0.099  0.2462  1.7348 -1.8362
  732SOL     OW 2194   0.661   0.818   0.370 -0.3118  0.0291 -0.0858
  732SOL    HW1 2195   0.588   0.800   0.438  0.1303  0.1775 -0.8415
  732SOL    HW2 2196   0.627   0.841   0.279 -0.6023 -1.1345  3.0080
  733SOL     OW 2197   1.477   1.550   1.832 -0.4904 -0.2881 -0.2043
  733SOL    HW1 2198   1.425   1.517   1.916 -0.9414 -0.8939  1.2645
  733SOL    HW2 2199   1.470   1.480   1.755  1.8051 -0.7325  1.7290
  734SOL     OW 2200   3.031   2.451   2.169 -0.4725 -0.4567 -0.4501
  734SOL    HW1 2201   3.080   2.456   2.082 -1.9238  1.9084  0.3007
  734SOL    HW2 2202   2.940   2.492   2.151  2.5289  0.8057  1.3473
  735SOL     OW 2203   1.266   2.975   1.018 -0.6129  0.5602 -0.2751
  735SOL    HW1 2204   1.250   2.876   1.011 -1.0026 -0.5186 -1.6072
  735SOL    HW2 2205   1.228   3.018   0.934 -0.6571  0.6007  1.4934
  736SOL     OW 2206   1.127   0.976   3.074  0.1769  0.5752 -0.1971
  736SOL    HW1 2207   1.215   0.928   3.098  0.1245  1.4085 -1.1381
  736SOL    HW2 2208   1.152   1.070   3.039 -1.7086  1.1782 -2.4290
  737SOL     OW 2209   0.200   0.796   0.659 -0.1010 -0.4234  0.8553
  737SOL    HW1 2210   0.279   0.829   0.605 -0.6191  0.3286  0.7481
  737SOL    HW2 2211   0.111   0.820   0.612 -5.6045  1.0184 -2.1869
  738SOL     OW 2212   0.461   2.659   1.625 -0.4310 -0.4540 -0.5827
  738SOL    HW1 2213   0.378   2.694   1.573 -0.5804 -1.3148 -0.5896
  738SOL    HW2 2214   0.446   2.565   1.665 -1.1984  0.8559  1.2508
  739SOL     OW 2215   1.435   2.761   0.258  0.0247 -0.3326  0.0284
  739SOL    HW1 2216   1.504   2.756   0.335  1.3944 -2.2547  2.1132
  739SOL    HW2 2217   1.425   2.668   0.217 -0.1702  1.1059 -0.0587
  740SOL     OW 2218   1.799   2.782   1.363 -0.0789  0.2068 -0.1942
  740SOL    HW1 2219   1.846   2.788   1.451  0.2906  0.9253 -4.3004
  740SOL    HW2 2220   1.859   2.726   1.303  0.4102 -0.7080 -0.0564
  741SOL     OW 2221   2.153   0.241   0.807  0.3876 -0.3413  0.3991
  741SOL    HW1 2222   2.093   0.307   0.754  0.5039 -1.5447  0.4623
  741SOL    HW2 2223   2.124   0.145   0.788 -0.7201 -1.7045 -0.6259
  742SOL     OW 2224   1.016   2.342   2.498 -0.3188  0.0642 -0.0957
  742SOL    HW1 2225   0.920   2.356   2.465 -2.2288 -0.4663 -0.2604
  742SOL    HW2 2226   1.008   2.303   2.592  0.8594  0.1338  0.0386
  743SOL     OW 2227   2.223   0.802   1.915 -0.1882 -0.2334  0.0852
  743SOL    HW1 2228   2.301   0.815   1.851 -1.2288  0.2959 -0.6642
  743SOL    HW2 2229   2.243   0.715   1.967 -0.4889 -3.1653  1.1963
  744SOL     OW 2230   2.039   0.325   1.030 -0.2436  0.3692 -0.3783
  744SOL    HW1 2231   2.104   0.336   1.106  0.4389  0.0416 -1.1252
  744SOL    HW2 2232   2.091   0.283   0.951  1.0144  0.7663  0.1726
  745SOL     OW 2233   2.132   1.105   1.834  0.0587  0.6242  0.0662
  745SOL    HW1 2234   2.197   1.180   1.799 -1.8468  1.7209  0.4361
  745SOL    HW2 2235   2.166   1.047   1.913 -0.5926 -2.1820  0.7707
  746SOL     OW 2236   1.340   1.702   0.484  0.0365 -0.0108 -0.0388
  746SOL    HW1 2237   1.394   1.635   0.539 -0.7296 -0.7427  0.4879
  746SOL    HW2 2238   1.240   1.689   0.498  0.6415 -0.7771 -0.6007
  747SOL     OW 2239   2.091   1.542   1.102 -0.3475 -0.3706 -0.3804
  747SOL    HW1 2240   2.077   1.509   1.007  0.7338 -2.2965 -0.4504
  747SOL    HW2 2241   2.033   1.625   1.123 -2.4621  2.0139 -1.2635
  748SOL     OW 2242   0.198   2.820   0.244  0.7542 -0.3287  0.0310
  748SOL    HW1 2243   0.249   2.846   0.329 -2.4972  0.5423  1.2307
  748SOL    HW2 2244   0.266   2.804   0.174 -1.5894 -1.0139 -1.0714
  749SOL     OW 2245   0.236   0.807   2.361 -0.5667  0.2034  0.2839
  749SOL    HW1 2246   0.314   0.865   2.332 -2.3236  1.4673 -2.9203
  749SOL    HW2 2247   0.146   0.851   2.351  3.0728 -1.1007  0.7524
  750SOL     OW 2248   1.343   2.896   1.868  0.2764 -0.1650 -0.4010
  750SOL    HW1 2249   1.327   2.991   1.902  3.4185 -0.5633  1.2061
  750SOL    HW2 2250   1.427   2.857   1.910 -1.4663 -0.1319 -2.3863
  751SOL     OW 2251   2.800   0.551   0.397 -0.2807  0.2376 -0.2553
  751SOL    HW1 2252   2.703   0.583   0.407 -1.8513  0.4317  1.8255
  751SOL    HW2 2253   2.811   0.462   0.448  0.4944  2.8857  0.5682
  752SOL     OW 2254   0.131   2.129   0.765 -0.3490 -0.2474  0.0407
  752SOL    HW1 2255   0.052   2.123   0.832  1.8259 -0.5883 -1.0534
  752SOL    HW2 2256   0.132   2.214   0.700  0.6485  0.8275  0.4348
  753SOL     OW 2257   0.942   0.181   0.997  0.3133 -0.1423  0.1386
  753SOL    HW1 2258   0.918   0.080   0.993  1.0078 -1.9441  0.1095
  753SOL    HW2 2259   0.876   0.230   0.934  1.4215 -2.3243 -2.4368
  754SOL     OW 2260   0.514   0.010   2.281  0.0093 -0.1923  0.1294
  754SOL    HW1 2261   0.443   0.060   2.234  0.3081 -3.0537  1.6148
  754SOL    HW2 2262   0.507   3.014   2.266  0.2714 -0.5523  0.9136
  755SOL     OW 2263   2.165   0.875   0.079 -0.4238 -0.3101  0.2034
  755SOL    HW1 2264   2.085   0.820   0.107  3.1972 -1.2970 -0.8910
  755SOL    HW2 2265   2.232   0.817   0.024  0.8265 -2.6316  0.3814
  756SOL     OW 2266   2.218   2.056   2.453  0.1114  0.2952 -0.4763
  756SOL    HW1 2267   2.210   1.975   2.517 -0.0550  3.8820  1.2661
  756SOL    HW2 2268   2.244   2.140   2.498  0.8163 -0.6550 -0.9320
  757SOL     OW 2269   1.606   0.299   0.792 -0.1986 -0.3597 -0.2311
  757SOL    HW1 2270   1.511   0.323   0.774 -0.4328  2.5135  0.0921
  757SOL    HW2 2271   1.616   0.208   0.834  0.2633  0.2183 -1.6090
  758SOL     OW 2272   1.509   3.024   1.113  0.2369  0.3312 -0.1923
  758SOL    HW1 2273   1.410   3.010   1.090 -3.3846 -0.6331  0.4817
  758SOL    HW2 2274   1.546   2.972   1.195  0.7233  2.4749 -2.5311
  759SOL     OW 2275   2.852   0.678   1.133  0.1946  0.0171 -0.3507
  759SOL    HW1 2276   2.861   0.638   1.224 -0.7847  0.3731 -2.6467
  759SOL    HW2 2277   2.901   0.627   1.059  0.6223  2.9438  0.4808
  760SOL     OW 2278   2.454   1.049   1.337  0.0576 -0.1934 -0.5911
  760SOL    HW1 2279   2.503   1.109   1.268  0.1774  0.7156  1.7680
  760SOL    HW2 2280   2.462   0.954   1.306  0.2831  0.8498  0.5923
  761SOL     OW 2281   0.406   0.459   0.456 -0.0932 -0.1786  0.3335
  761SOL    HW1 2282   0.455   0.457   0.368 -2.6092  0.0581  1.2868
  761SOL    HW2 2283   0.417   0.551   0.498  1.4723  4.0752  0.0608
  762SOL     OW 2284   1.712   2.104   1.193  0.0448 -0.3587  0.1532
  762SOL    HW1 2285   1.704   2.016   1.147 -2.3311  0.6539 -0.1154
  762SOL    HW2 2286   1.679   2.107   1.291  1.2196 -1.7808 -1.7708
  763SOL     OW 2287   1.289   1.434   2.001 -0.1891  0.5240  0.3365
  763SOL    HW1 2288   1.249   1.526   1.971 -2.0834 -0.9718  1.6151
  763SOL    HW2 2289   1.252   1.350   1.958  1.0880  1.2475 -0.7004
  764SOL     OW 2290   2.999   1.920   2.532 -0.5809  0.3102  0.1340
  764SOL    HW1 2291   2.924   1.977   2.492  1.5807 -0.2395  1.0464
  764SOL    HW2 2292   3.078   1.976   2.557  2.1984  1.5891  1.1396
  765SOL     OW 2293   1.513   2.537   1.018  0.3310 -0.0707 -0.1996
  765SOL    HW1 2294   1.593   2.480   1.040  0.4606 -0.0125  0.0558
  765SOL    HW2 2295   1.534   2.635   0.992 -0.2511  2.7144  0.3464
  766SOL     OW 2296   3.084   2.575   2.734 -0.2142  0.1730  0.7266
  766SOL    HW1 2297   3.011   2.645   2.717 -1.8268  2.1493  0.9307
  766SOL    HW2 2298   0.021   2.549   2.645 -0.1166 -2.5021 -1.1770
  767SOL     OW 2299   1.414   0.920   2.278 -0.3663  0.4815 -0.1904
  767SOL    HW1 2300   1.516   0.937   2.289 -0.6766 -0.2935 -2.2647
  767SOL    HW2 2301   1.386   0.840   2.334 -0.9166  0.2037 -2.3586
  768SOL     OW 2302   1.275   2.083   0.001  0.3846  0.2406  0.0070
  768SOL    HW1 2303   1.371   2.107   0.014 -0.6681  0.3258 -0.8992
  768SOL    HW2 2304   1.257   2.007   3.044 -0.8757  0.8505  0.2814
  769SOL     OW 2305   0.448   2.185   1.092  0.2091  0.6212  0.0399
  769SOL    HW1 2306   0.539   2.147   1.062  0.6112 -1.5678 -0.0266
  769SOL    HW2 2307   0.449   2.214   1.189  1.0960  1.6512  0.0643
  770SOL     OW 2308   1.756   0.609   3.002  0.1428  0.4917  0.1120
  770SOL    HW1 2309   1.846   0.566   2.979  2.6051  1.1147  0.4483
  770SOL    HW2 2310   1.715   0.667   2.929  2.4164 -2.1374 -0.2554
  771SOL     OW 2311   0.127   3.006   2.237  0.0427 -0.1849 -0.1370
  771SOL    HW1 2312   0.030   3.020   2.259  1.4903  1.4099 -1.2727
  771SOL    HW2 2313   0.149   2.910   2.204 -0.4490 -1.7064  1.3860
  772SOL     OW 2314   2.039   2.830   2.056  0.1475 -0.4455  0.0440
  772SOL    HW1 2315   2.065   2.743   2.111 -0.2844 -2.6633  1.6340
  772SOL    HW2 2316   2.111   2.900   2.053  0.5482 -2.7636  0.1463
  773SOL     OW 2317   1.030   1.913   1.495 -0.1586 -0.2596 -0.3475
  773SOL    HW1 2318   1.063   1.912   1.399 -1.0743  1.3389 -0.3464
  773SOL    HW2 2319   1.052   2.001   1.543 -0.0038  0.6669  0.3899
  774SOL     OW 2320   0.953   2.977   2.364 -0.7987  0.5536  0.0088
  774SOL    HW1 2321   1.005   3.068   2.351  3.1268  1.3474 -1.1841
  774SOL    HW2 2322   0.877   2.974   2.298  1.5344  0.0252 -0.8737
  775SOL     OW 2323   2.098   2.869   2.979 -0.5002  0.1200  0.1389
  775SOL    HW1 2324   2.113   2.815   2.894 -1.7227  0.5025 -0.6077
  775SOL    HW2 2325   2.006   2.908   2.977 -1.1387  0.1479 -1.1153
  776SOL     OW 2326   2.665   0.810   2.188 -0.2445  0.2585  0.5007
  776SOL    HW1 2327   2.739   0.804   2.258  0.6982 -1.3945 -0.6585
  776SOL    HW2 2328   2.697   0.867   2.109  1.5231 -0.6844  1.2990
  777SOL     OW 2329   2.231   2.280   2.032 -0.2375  0.0038 -0.1598
  777SOL    HW1 2330   2.145   2.335   2.037  1.2708  0.8559 -2.5813
  777SOL    HW2 2331   2.298   2.327   2.094  1.2809  0.0647  1.4764
  778SOL     OW 2332   1.858   0.927   2.579 -0.1389 -0.4479  0.1872
  778SOL    HW1 2333   1.962   0.922   2.583  0.2197 -2.1932 -1.1258
  778SOL    HW2 2334   1.818   0.828   2.575  0.1704 -0.7339 -0.1555
  779SOL     OW 2335   3.077   0.260   0.456  0.1110 -0.5350  0.3807
  779SOL    HW1 2336   3.040   0.213   0.539 -2.6395 -0.4100 -2.4191
  779SOL    HW2 2337   3.014   0.240   0.381  1.1145  1.3244 -1.8497
  780SOL     OW 2338   2.503   0.504   0.121 -0.7635  0.8844  0.3583
  780SOL    HW1 2339   2.513   0.403   0.141 -2.0920 -1.6673  0.5828
  780SOL    HW2 2340   2.423   0.544   0.169 -2.0164 -0.7114  0.8328
  781SOL     OW 2341   0.251   2.690   1.430  0.3905  0.3744  0.0876
  781SOL    HW1 2342   0.259   2.599   1.381 -0.8737  0.1006 -0.6357
  781SOL    HW2 2343   0.156   2.694   1.469 -0.6652 -0.5861 -1.2095
  782SOL     OW 2344   2.086   2.602   0.159  0.1259 -0.2631  0.3492
  782SOL    HW1 2345   2.149   2.676   0.173 -0.7822 -1.3044 -0.0724
  782SOL    HW2 2346   2.075   2.578   0.059  0.3791 -0.0873  1.1850
  783SOL     OW 2347   0.809   1.151   1.429 -0.2552 -0.6287 -0.0517
  783SOL    HW1 2348   0.760   1.236   1.408  2.7141 -0.2844 -2.0180
  783SOL    HW2 2349   0.754   1.080   1.380  0.5133  0.6096 -0.8414
  784SOL     OW 2350   1.348   0.699   2.835  0.3794 -0.4976  0.4613
  784SOL    HW1 2351   1.256   0.671   2.791 -0.2902 -1.9943  2.0333
  784SOL    HW2 2352   1.384   0.784   2.797  0.2998 -1.4784  0.2292
  785SOL     OW 2353   2.473   0.395   1.106  0.1259  0.0606 -0.2409
  785SOL    HW1 2354   2.539   0.319   1.119 -0.6666  2.6098  0.8571
  785SOL    HW2 2355   2.383   0.371   1.150  0.2080 -1.1611  2.9192
  786SOL     OW 2356   1.153   2.389   1.934 -0.4227  0.6661 -0.3816
  786SOL    HW1 2357   1.174   2.479   1.895  1.1354 -3.1965  1.7975
  786SOL    HW2 2358   1.159   2.312   1.871 -0.4694  0.2655  1.6444
  787SOL     OW 2359   1.735   0.347   1.361  0.1799  0.4026  0.2682
  787SOL    HW1 2360   1.742   0.445   1.330 -1.8485 -0.1463 -3.9592
  787SOL    HW2 2361   1.795   0.326   1.442 -0.4402 -0.6333  2.1555
  788SOL     OW 2362   0.433   0.989   0.565 -0.0430  0.5325  0.1850
  788SOL    HW1 2363   0.380   1.054   0.620  0.0738 -1.2800  0.0865
  788SOL    HW2 2364   0.413   0.988   0.467  2.9393 -2.2061  0.2080
  789SOL     OW 2365   0.528   1.856   1.397 -0.1745  0.2671 -0.6093
  789SOL    HW1 2366   0.465   1.792   1.443 -1.7111 -3.4244 -2.3270
  789SOL    HW2 2367   0.630   1.827   1.408 -0.0042  2.8136 -0.8835
  790SOL     OW 2368   0.667   0.778   2.328 -0.4492 -0.2597 -0.3082
  790SOL    HW1 2369   0.668   0.883   2.320  1.1491  2.2490  0.2961
  790SOL    HW2 2370   0.663   0.731   2.237 -2.7754 -0.9530  1.6278
  791SOL     OW 2371   1.835   0.434   0.860 -0.2783  0.4059  0.0966
  791SOL    HW1 2372   1.748   0.392   0.838 -0.5179  0.5991  0.8249
  791SOL    HW2 2373   1.889   0.384   0.924 -1.6949  1.4752 -0.8959
  792SOL     OW 2374   0.879   2.633   2.117 -0.1864 -0.6898 -0.0519
  792SOL    HW1 2375   0.942   2.714   2.090  3.1462  1.2319  0.0109
  792SOL    HW2 2376   0.934   2.570   2.177  2.2190 -1.7022  0.0660
  793SOL     OW 2377   0.621   3.048   0.455  0.9171  0.1100 -0.4173
  793SOL    HW1 2378   0.709   3.093   0.424  2.1277  1.3963  2.6973
  793SOL    HW2 2379   0.610   3.063   0.557  0.4749  1.3160  0.7876
  794SOL     OW 2380   0.409   1.545   1.925  0.5101 -0.3262 -0.0380
  794SOL    HW1 2381   0.364   1.464   1.960 -0.0082  1.3733 -1.2720
  794SOL    HW2 2382   0.449   1.525   1.836 -0.2676  0.3569  1.0059
  795SOL     OW 2383   0.120   2.176   2.310 -0.5823  0.6154  0.1568
  795SOL    HW1 2384   0.126   2.232   2.394 -0.5989 -0.0798  0.1358
  795SOL    HW2 2385   0.024   2.148   2.290  0.0490  0.3428 -0.1901
  796SOL     OW 2386   2.423   0.634   2.290 -0.0185  0.0242 -0.6786
  796SOL    HW1 2387   2.414   0.646   2.392  2.2296  0.7925  1.9595
  796SOL    HW2 2388   2.438   0.725   2.251  0.1350 -2.4459 -0.9954
  797SOL     OW 2389   2.796   2.401   2.719 -0.2157  0.6864  0.2318
  797SOL    HW1 2390   2.786   2.499   2.687  1.8424  1.1063 -1.7285
  797SOL    HW2 2391   2.707   2.353   2.724 -0.6302 -1.1162 -1.3739
  798SOL     OW 2392   2.965   3.007   2.273  1.3447 -0.0798  0.5281
  798SOL    HW1 2393   2.920   3.057   2.354 -1.4214  0.6260  0.0836
  798SOL    HW2 2394   2.903   3.020   2.196  4.0462  0.7598  0.2942
  799SOL     OW 2395   0.134   2.565   2.301 -0.0802 -0.3852 -0.0463
  799SOL    HW1 2396   0.183   2.521   2.373 -1.0247  0.5458 -0.9903
  799SOL    HW2 2397   0.061   2.506   2.262 -0.0890  4.0264  2.0302
  800SOL     OW 2398   0.146   2.132   0.014 -0.7966 -0.1261 -0.1070
  800SOL    HW1 2399   0.050   2.146   0.041  1.4790 -1.2184 -0.4888
  800SOL    HW2 2400   0.199   2.091   0.090 -1.2983  1.2044  0.7481
  801SOL     OW 2401   1.682   1.231   1.283 -0.0954  0.1455  0.1859
  801SOL    HW1 2402   1.677   1.250   1.183 -2.1215 -0.5018  1.0846
  801SOL    HW2 2403   1.591   1.229   1.318 -0.7418  1.9514 -1.6537
  802SOL     OW 2404   3.037   1.410   0.670 -0.2425 -0.2372 -1.0245
  802SOL    HW1 2405   3.007   1.484   0.732 -2.6590 -0.5637 -4.2957
  802SOL    HW2 2406   3.069   1.329   0.723  1.4776  0.0995  3.2591
  803SOL     OW 2407   1.265   1.842   2.129  0.0082  0.3267  0.4139
  803SOL    HW1 2408   1.268   1.816   2.032 -1.4315 -0.5451  0.8189
  803SOL    HW2 2409   1.188   1.904   2.136  1.0452 -4.9278 -0.5540
  804SOL     OW 2410   1.820   1.517   0.712  0.3190  0.0050  0.4608
  804SOL    HW1 2411   1.858   1.612   0.700  1.4036 -0.6344  2.0133
  804SOL    HW2 2412   1.901   1.464   0.739 -0.7448  2.3701 -0.0790
  805SOL     OW 2413   2.673   1.343   0.008 -0.1147  0.1901 -0.5328
  805SOL    HW1 2414   2.641   1.332   3.018  0.2380 -2.4679  1.2050
  805SOL    HW2 2415   2.753   1.279   0.027  0.8860 -0.2183 -0.0598
  806SOL     OW 2416   0.613   2.690   0.376  0.1457 -0.2213 -0.1855
  806SOL    HW1 2417   0.674   2.620   0.337 -0.8862  2.2752  0.5765
  806SOL    HW2 2418   0.540   2.724   0.315 -0.5595 -0.4765  0.1678
  807SOL     OW 2419   2.269   1.555   2.766 -0.7623  0.1834  0.1467
  807SOL    HW1 2420   2.234   1.643   2.743  0.1634 -3.5680  0.2202
  807SOL    HW2 2421   2.247   1.490   2.691  1.5379 -0.6057 -0.7991
  808SOL     OW 2422   1.071   1.468   1.082 -0.2818 -0.1620  0.4908
  808SOL    HW1 2423   1.089   1.394   1.150 -1.7400 -1.5771  0.8073
  808SOL    HW2 2424   0.983   1.517   1.098 -0.5449 -1.3640 -1.9501
  809SOL     OW 2425   2.874   0.647   0.638  0.5652 -0.4649  0.1545
  809SOL    HW1 2426   2.780   0.650   0.685 -2.3770 -0.7831 -0.8972
  809SOL    HW2 2427   2.856   0.611   0.549 -1.9065  1.0082  3.3138
  810SOL     OW 2428   0.698   1.412   0.680 -0.1586 -0.6516  0.0836
  810SOL    HW1 2429   0.685   1.498   0.734  0.2933 -0.7375  1.5481
  810SOL    HW2 2430   0.762   1.435   0.602  1.4132 -1.5507 -0.7627
  811SOL     OW 2431   2.007   2.675   1.200  0.3447 -0.3766  0.3451
  811SOL    HW1 2432   2.071   2.654   1.127 -3.2214 -0.3864  0.4174
  811SOL    HW2 2433   2.012   2.606   1.275 -1.8325  1.4430  1.0759
  812SOL     OW 2434   1.255   2.727   1.411  0.1561  0.0942 -0.2226
  812SOL    HW1 2435   1.290   2.799   1.474  0.9112  1.7996  1.2105
  812SOL    HW2 2436   1.183   2.772   1.349  0.2545  1.5828  0.5944
  813SOL     OW 2437   0.853   2.786   1.488  0.1841 -0.2099  0.0610
  813SOL    HW1 2438   0.820   2.691   1.509  2.7961 -1.4654  0.4545
  813SOL    HW2 2439   0.776   2.853   1.476  2.4704 -3.4985  0.2965
  814SOL     OW 2440   0.754   2.783   2.493  0.2639  0.1872  0.4766
  814SOL    HW1 2441   0.698   2.738   2.419  1.5643 -0.9889 -1.1103
  814SOL    HW2 2442   0.835   2.734   2.509 -2.4844  1.0477  0.5027
  815SOL     OW 2443   0.895   0.121   2.559  1.0666  0.0459  0.3642
  815SOL    HW1 2444   0.806   0.070   2.545  0.5778 -0.4433 -1.0494
  815SOL    HW2 2445   0.882   0.219   2.536 -2.6747  1.0167 -2.2469
  816SOL     OW 2446   2.239   0.436   3.015  0.3010 -0.4138  0.4941
  816SOL    HW1 2447   2.279   0.518   3.062 -1.3413  0.8182 -1.4797
  816SOL    HW2 2448   2.224   0.356   3.077  0.6068 -0.0555  2.2853
  817SOL     OW 2449   2.288   2.941   1.975 -0.2341 -0.3568 -0.0480
  817SOL    HW1 2450   2.341   3.024   1.947  0.4368  2.3768  2.3898
  817SOL    HW2 2451   2.319   2.857   1.926  2.6589  0.3113  1.8848
  818SOL     OW 2452   1.075   0.717   0.311 -0.1339 -0.2538 -0.2008
  818SOL    HW1 2453   1.064   0.819   0.311  1.6029  1.5881 -0.9613
  818SOL    HW2 2454   1.070   0.682   0.407  0.7344  1.1719 -2.4533
  819SOL     OW 2455   1.660   1.883   2.471  0.0734  0.3617  0.3848
  819SOL    HW1 2456   1.574   1.841   2.498 -0.0074  1.4258 -0.1121
  819SOL    HW2 2457   1.723   1.816   2.436  0.0969 -0.4411  2.0739
  820SOL     OW 2458   0.109   1.637   2.752  0.1036 -0.8043 -0.1629
  820SOL    HW1 2459   0.157   1.609   2.664  2.1713 -2.4435  0.7601
  820SOL    HW2 2460   0.134   1.558   2.819  2.1081 -1.4964  1.4667
  821SOL     OW 2461   0.140   2.652   0.659  0.1719  0.0731 -0.0020
  821SOL    HW1 2462   0.243   2.653   0.653  2.1829 -4.1623  2.5882
  821SOL    HW2 2463   0.112   2.603   0.747  0.6308  0.0500  1.8829
  822SOL     OW 2464   2.328   2.547   2.553  0.0495 -0.4606 -0.1670
  822SOL    HW1 2465   2.293   2.612   2.481  1.9999 -0.1942 -1.6676
  822SOL    HW2 2466   2.359   2.602   2.633 -0.4598  1.0451 -0.4540
  823SOL     OW 2467   1.410   0.004   2.353  0.0871 -0.7847  0.1912
  823SOL    HW1 2468   1.430   3.027   2.295 -1.3297 -1.1760  2.4259
  823SOL    HW2 2469   1.307   0.020   2.361  0.5475  0.7584 -1.6956
  824SOL     OW 2470   2.679   2.360   2.053 -0.2208  0.3548 -0.1198
  824SOL    HW1 2471   2.706   2.452   2.090  0.8259  0.2477  1.3780
  824SOL    HW2 2472   2.661   2.295   2.133 -0.1584  0.4350  0.7700
  825SOL     OW 2473   2.812   2.052   2.364 -0.4020  0.2547 -0.1055
  825SOL    HW1 2474   2.743   1.980   2.340 -1.3884  1.0793  1.4834
  825SOL    HW2 2475   2.855   2.083   2.277 -0.8623 -3.3432  0.6198
  826SOL     OW 2476   2.398   0.650   2.569 -0.0454  0.1182  0.3287
  826SOL    HW1 2477   2.485   0.627   2.610 -4.4355 -3.0142 -0.2131
  826SOL    HW2 2478   2.326   0.655   2.641 -1.8844 -1.4499 -0.2591
  827SOL     OW 2479   2.761   2.077   1.510 -0.0376 -0.2814 -0.2155
  827SOL    HW1 2480   2.671   2.101   1.548  3.2253  1.4384 -1.4674
  827SOL    HW2 2481   2.760   1.979   1.484  2.5547  0.2600 -1.5124
  828SOL     OW 2482   2.991   0.062   1.874 -0.5439  0.1616  0.3494
  828SOL    HW1 2483   3.059   0.014   1.815  0.0025 -0.0863  1.3111
  828SOL    HW2 2484   3.001   0.163   1.885 -0.6855  2.4748 -0.3851
  829SOL     OW 2485   0.970   1.935   2.755  0.5639 -0.5532 -0.0686
  829SOL    HW1 2486   0.995   1.865   2.686  0.3687 -0.1185 -0.4283
  829SOL    HW2 2487   0.870   1.953   2.763 -0.6466  1.6312 -0.1368
  830SOL     OW 2488   0.866   0.867   0.933 -0.2444  0.1011  0.0833
  830SOL    HW1 2489   0.875   0.855   1.036  0.7238  1.3565 -0.1951
  830SOL    HW2 2490   0.779   0.915   0.904  0.4857  0.9616  0.8309
  831SOL     OW 2491   2.947   1.706   2.691 -0.2159  0.1904  0.2586
  831SOL    HW1 2492   2.965   1.793   2.643  0.0381 -0.7923 -0.0102
  831SOL    HW2 2493   3.029   1.655   2.720 -1.8519  0.8015 -0.8198
  832SOL     OW 2494   1.742   2.554   2.278  0.4245  0.5588 -0.2590
  832SOL    HW1 2495   1.772   2.578   2.185  0.2449  2.6584  3.2314
  832SOL    HW2 2496   1.653   2.595   2.304  0.3801  1.2218  3.1897
  833SOL     OW 2497   0.862   0.280   2.110 -0.7599 -0.1568 -0.5238
  833SOL    HW1 2498   0.910   0.371   2.128 -1.3850  1.0476 -0.5251
  833SOL    HW2 2499   0.771   0.273   2.150  2.5244 -2.8024 -1.7460
  834SOL     OW 2500   0.112   0.291   1.476 -0.8360 -0.4467 -0.1816
  834SOL    HW1 2501   0.056   0.356   1.421 -3.2044  1.2948  3.0065
  834SOL    HW2 2502   0.142   0.339   1.561  0.3711  0.2624  2.0785
  835SOL     OW 2503   2.858   0.681   0.177 -0.3533 -0.2906  0.0825
  835SOL    HW1 2504   2.846   0.616   0.252  1.9431  2.5191 -3.0381
  835SOL    HW2 2505   2.830   0.629   0.091  2.0306 -1.4287  1.0438
  836SOL     OW 2506   1.648   1.864   0.160 -0.7414 -0.0227 -0.7131
  836SOL    HW1 2507   1.619   1.949   0.111 -0.8444 -0.2759 -2.4406
  836SOL    HW2 2508   1.645   1.874   0.262 -0.1830 -2.4565  2.2482
  837SOL     OW 2509   1.986   1.804   0.715  0.6315 -0.0105  0.3926
  837SOL    HW1 2510   2.051   1.730   0.700 -3.4218  1.9987  3.7127
  837SOL    HW2 2511   1.994   1.877   0.645  1.5535  0.1537 -0.0499
  838SOL     OW 2512   1.674   0.957   2.348 -0.4253 -0.5413  0.4347
  838SOL    HW1 2513   1.740   0.952   2.271  0.2618 -0.0479 -1.9188
  838SOL    HW2 2514   1.717   0.948   2.439 -1.0350  1.7918 -0.5841
  839SOL     OW 2515   0.767   1.454   2.043  0.1513 -0.3155  0.2175
  839SOL    HW1 2516   0.732   1.376   1.992  1.1965  2.2367 -0.5231
  839SOL    HW2 2517   0.789   1.432   2.142 -1.6780 -1.2170 -1.3130
  840SOL     OW 2518   1.217   1.835   0.253  0.4126  0.3145 -0.0050
  840SOL    HW1 2519   1.166   1.924   0.262 -1.0734 -1.3725  1.4897
  840SOL    HW2 2520   1.279   1.817   0.332 -0.5420 -0.3116  3.1045
  841SOL     OW 2521   1.609   2.248   0.496 -0.5701  0.1600 -0.0236
  841SOL    HW1 2522   1.617   2.345   0.529 -2.1229 -1.5571  0.9678
  841SOL    HW2 2523   1.529   2.239   0.435  0.3718 -0.5083 -1.1174
  842SOL     OW 2524   0.499   0.471   0.204  0.2811  0.4863  0.2968
  842SOL    HW1 2525   0.595   0.451   0.179 -0.9038  0.5429  0.3726
  842SOL    HW2 2526   0.435   0.413   0.152 -1.0692  0.6079  1.4897
  843SOL     OW 2527   0.742   0.369   0.594  0.1047  0.5222 -0.0274
  843SOL    HW1 2528   0.647   0.328   0.608 -2.2403  1.9042  0.4583
  843SOL    HW2 2529   0.744   0.446   0.531  2.8007 -0.0454  1.2724
  844SOL     OW 2530   2.811   0.125   2.891  0.0318  0.3306 -0.4057
  844SOL    HW1 2531   2.723   0.081   2.912  1.0757 -1.2326  1.3508
  844SOL    HW2 2532   2.885   0.055   2.882 -1.7036  0.6109 -1.5580
  845SOL     OW 2533   3.042   2.374   1.673  0.0318  0.1863  0.1660
  845SOL    HW1 2534   2.988   2.337   1.751 -0.1206  1.5773  1.5575
  845SOL    HW2 2535   3.022   2.333   1.579 -1.3911 -1.3473 -1.0864
  846SOL     OW 2536   2.547   1.647   2.367  0.4026  0.1186  0.5944
  846SOL    HW1 2537   2.466   1.686   2.412  2.8158 -0.6081  0.0493
  846SOL    HW2 2538   2.517   1.592   2.285 -0.4462 -1.8116 -0.7331
  847SOL     OW 2539   1.085   0.722   1.973 -0.0893  0.2296 -0.2634
  847SOL    HW1 2540   1.072   0.635   2.020 -0.6700  0.3859  0.6776
  847SOL    HW2 2541   1.093   0.717   1.871  0.9016 -0.5234  0.9978
  848SOL     OW 2542   2.623   2.880   2.855  0.3581  0.0025 -0.0579
  848SOL    HW1 2543   2.663   2.823   2.929 -1.5892  2.0145  0.6899
  848SOL    HW2 2544   2.612   2.976   2.889  0.6408 -0.3298 -0.2904
  849SOL     OW 2545   0.307   2.845   3.058 -0.6876 -0.2715 -0.7117
  849SOL    HW1 2546   0.302   2.949   3.046 -0.3848  2.3115 -0.1200
  849SOL    HW2 2547   0.241   2.794   3.003 -1.1212  3.7623  2.2761
  850SOL     OW 2548   1.213   2.710   0.990 -0.5848  0.1141 -0.1431
  850SOL    HW1 2549   1.245   2.652   1.068 -0.0148 -1.8820 -0.7847
  850SOL    HW2 2550   1.224   2.657   0.907 -0.4478  2.7258  0.6033
  851SOL     OW 2551   2.583   0.390   2.388 -0.5664  0.0027 -0.1536
  851SOL    HW1 2552   2.510   0.452   2.352 -0.3895  1.0702  1.0738
  851SOL    HW2 2553   2.640   0.356   2.312 -0.5144 -1.5914  5.2128
  852SOL     OW 2554   1.369   0.438   2.492 -0.2945  0.0707  0.2260
  852SOL    HW1 2555   1.422   0.398   2.415 -0.9212 -1.2084  0.4926
  852SOL    HW2 2556   1.324   0.366   2.545  1.4106 -1.8835 -0.1343
  853SOL     OW 2557   3.057   2.695   0.205 -0.2328 -0.3193 -0.2523
  853SOL    HW1 2558   2.991   2.743   0.263 -0.6708  0.6749  0.7544
  853SOL    HW2 2559   0.044   2.734   0.221 -0.2414  3.0650  1.6928
  854SOL     OW 2560   2.307   0.914   2.470 -0.0356 -0.3221 -0.0526
  854SOL    HW1 2561   2.331   0.902   2.373 -3.4511 -0.0084 -0.2915
  854SOL    HW2 2562   2.317   0.828   2.528 -0.0755 -0.4917  0.1891
  855SOL     OW 2563   0.731   2.488   0.261 -0.1200 -0.3041 -0.0537
  855SOL    HW1 2564   0.688   2.434   0.187 -1.4085 -0.0425  0.9631
  855SOL    HW2 2565   0.815   2.528   0.225 -0.4393  0.3653  1.0046
  856SOL     OW 2566   3.041   3.020   2.666  0.2402  0.0061  0.1112
  856SOL    HW1 2567   0.030   3.005   2.638 -3.0977  1.9566  0.7316
  856SOL    HW2 2568   3.025   3.035   2.765 -1.4565  1.3230  1.1733
  857SOL     OW 2569   1.021   2.808   1.270 -0.1878  0.0746 -0.2989
  857SOL    HW1 2570   0.959   2.810   1.348  2.4697  1.4909  2.6701
  857SOL    HW2 2571   0.980   2.749   1.199  0.4121  1.7630 -0.4747
  858SOL     OW 2572   2.533   2.136   1.640 -0.2773 -0.1089  0.1047
  858SOL    HW1 2573   2.515   2.164   1.736  1.8318 -1.3097 -0.8330
  858SOL    HW2 2574   2.449   2.099   1.594 -1.4844 -0.3669  1.8624
  859SOL     OW 2575   1.714   2.179   1.684 -0.3161  0.4022  0.0339
  859SOL    HW1 2576   1.760   2.099   1.729 -1.5793  4.3461  0.8884
  859SOL    HW2 2577   1.670   2.234   1.760 -0.7935  1.3449 -2.4603
  860SOL     OW 2578   2.032   3.034   0.219 -1.1172  0.0852 -0.4014
  860SOL    HW1 2579   2.027   0.016   0.170  3.7983 -3.0854 -0.2694
  860SOL    HW2 2580   1.948   2.981   0.207  2.6952  0.6945  1.3040
  861SOL     OW 2581   2.789   0.342   0.582 -0.0743  0.2449  0.0915
  861SOL    HW1 2582   2.850   0.319   0.658  0.2676 -0.6932  0.9821
  861SOL    HW2 2583   2.706   0.284   0.575  3.4400  1.5044  0.3186
  862SOL     OW 2584   1.190   2.505   2.656  0.0967 -0.2598  0.1612
  862SOL    HW1 2585   1.131   2.581   2.698  0.7113 -2.2531  1.6959
  862SOL    HW2 2586   1.148   2.463   2.573 -1.4581 -2.1104 -3.3959
  863SOL     OW 2587   0.525   0.615   1.359 -0.4130 -0.3577 -0.5269
  863SOL    HW1 2588   0.591   0.649   1.288  1.9483 -0.9904 -3.0479
  863SOL    HW2 2589   0.463   0.548   1.313  0.6541  2.1288 -1.2776
  864SOL     OW 2590   0.053   3.027   1.722  0.2982 -0.1670 -0.1618
  864SOL    HW1 2591   0.133   3.069   1.767 -0.0695 -0.5594 -0.8500
  864SOL    HW2 2592   0.040   2.935   1.760  0.1796 -0.3414 -1.5502
  865SOL     OW 2593   0.519   1.358   0.167 -0.1273  0.2857 -0.0902
  865SOL    HW1 2594   0.542   1.254   0.174 -0.7598 -0.8826  1.3637
  865SOL    HW2 2595   0.432   1.379   0.121  0.1671  1.4509 -0.9717
  866SOL     OW 2596   3.048   0.358   0.048  0.8178 -1.0227  0.1389
  866SOL    HW1 2597   3.031   0.371   3.052  0.2845 -0.1692 -0.6557
  866SOL    HW2 2598   3.091   0.442   0.092  0.6174  2.1134 -1.0353
  867SOL     OW 2599   2.749   2.739   3.039  0.2249  0.0891  0.2373
  867SOL    HW1 2600   2.849   2.767   3.042 -2.4830  0.1470  1.2815
  867SOL    HW2 2601   2.733   2.634   3.035  0.9690 -3.2777  0.8722
  868SOL     OW 2602   1.456   0.708   0.219 -0.5721 -0.3810  0.9590
  868SOL    HW1 2603   1.513   0.629   0.184  1.3062 -2.8929 -0.6161
  868SOL    HW2 2604   1.421   0.694   0.317 -0.2703 -0.9433  2.9870
  869SOL     OW 2605   2.431   1.382   0.552  1.1285 -0.2626 -0.2177
  869SOL    HW1 2606   2.387   1.394   0.459 -1.1084  1.6820 -1.4602
  869SOL    HW2 2607   2.509   1.447   0.564 -3.1465  4.9234 -0.5288
  870SOL     OW 2608   2.276   1.425   0.333  0.0457 -0.7676 -0.2088
  870SOL    HW1 2609   2.352   1.452   0.268  2.8447 -0.2948  0.0620
  870SOL    HW2 2610   2.208   1.498   0.344  0.3680 -0.4880  0.2965
  871SOL     OW 2611   1.338   1.394   0.637  0.1032  0.1042  0.9455
  871SOL    HW1 2612   1.266   1.388   0.710 -0.3319  0.4346 -0.3238
  871SOL    HW2 2613   1.434   1.377   0.678  0.4724 -0.1808  0.9063
  872SOL     OW 2614   1.415   1.581   1.430  0.1394 -0.0432 -0.0424
  872SOL    HW1 2615   1.457   1.491   1.406 -0.6768  1.1144 -0.6248
  872SOL    HW2 2616   1.340   1.602   1.364 -2.0451  0.9892 -2.1878
  873SOL     OW 2617   0.776   1.706   2.165  0.2797  0.3577 -0.0433
  873SOL    HW1 2618   0.774   1.776   2.092 -0.3241 -1.5141 -2.7946
  873SOL    HW2 2619   0.766   1.611   2.130  0.2641  1.5631 -0.9489
  874SOL     OW 2620   0.855   1.609   1.206 -0.2680  0.4984  0.3159
  874SOL    HW1 2621   0.878   1.685   1.144 -1.5511 -0.1346 -0.2680
  874SOL    HW2 2622   0.802   1.536   1.160  2.0933 -0.7480 -1.4624
  875SOL     OW 2623   2.230   0.379   1.249 -0.0209  0.0449 -0.5513
  875SOL    HW1 2624   2.209   0.296   1.300 -0.8293  4.4092  0.9324
  875SOL    HW2 2625   2.195   0.463   1.298 -1.3798 -0.3179  1.5114
  876SOL     OW 2626   0.808   0.430   0.170 -0.8982 -0.1668 -0.2386
  876SOL    HW1 2627   0.792   0.491   0.252  1.4243  1.4009  0.0414
  876SOL    HW2 2628   0.898   0.453   0.130 -2.2533  0.6570 -0.9350
  877SOL     OW 2629   3.068   0.494   1.360 -0.2934 -0.6293  0.3949
  877SOL    HW1 2630   2.981   0.465   1.315 -0.6228  1.3707 -0.7905
  877SOL    HW2 2631   0.008   0.567   1.299 -0.7238 -0.4428  0.5942
  878SOL     OW 2632   1.856   2.197   0.121 -0.2080 -0.1104 -0.8499
  878SOL    HW1 2633   1.783   2.270   0.123 -0.5050 -0.0571  1.3960
  878SOL    HW2 2634   1.889   2.173   0.028 -1.9239 -1.6094  2.0391
  879SOL     OW 2635   2.609   1.859   1.399 -0.1018 -0.1444  0.3326
  879SOL    HW1 2636   2.518   1.885   1.373  1.7055 -2.1524 -0.4723
  879SOL    HW2 2637   2.594   1.800   1.484 -0.9979 -0.6212  0.1428
  880SOL     OW 2638   1.158   3.035   1.260  0.3238 -0.0878  0.6280
  880SOL    HW1 2639   1.079   2.972   1.285 -3.2588 -3.7556  1.1847
  880SOL    HW2 2640   1.194   3.010   1.162 -1.0444  0.5078 -0.1744
  881SOL     OW 2641   1.128   2.084   0.244 -0.2847 -0.8127  0.2523
  881SOL    HW1 2642   1.079   2.161   0.289 -1.0463  2.4943  0.8131
  881SOL    HW2 2643   1.146   2.100   0.146 -2.5187 -1.1116  0.7287
  882SOL     OW 2644   2.023   0.887   2.099 -0.1080 -0.0978 -0.2993
  882SOL    HW1 2645   2.042   0.969   2.157  0.5787 -1.4276 -1.8952
  882SOL    HW2 2646   2.097   0.866   2.031  1.0226 -1.4364 -3.2694
  883SOL     OW 2647   1.128   0.193   2.113  0.4993  0.4915  0.0794
  883SOL    HW1 2648   1.198   0.266   2.101  1.4620 -3.5841 -3.1273
  883SOL    HW2 2649   1.034   0.225   2.079 -1.2005  2.5966 -0.5109
  884SOL     OW 2650   2.876   0.231   0.246  0.7129  0.3748  0.2162
  884SOL    HW1 2651   2.780   0.256   0.227 -0.8515 -0.0128  1.9790
  884SOL    HW2 2652   2.937   0.263   0.166 -0.5844  1.1866 -2.5018
  885SOL     OW 2653   0.883   1.718   0.040  0.1286  0.1319  0.4397
  885SOL    HW1 2654   0.922   1.672   3.060  1.2464 -0.4720 -1.4545
  885SOL    HW2 2655   0.785   1.752   0.019 -2.0121  2.5974  0.0147
  886SOL     OW 2656   1.823   1.489   2.795  0.0199 -0.3737 -0.2339
  886SOL    HW1 2657   1.837   1.488   2.691  0.2787 -2.2584 -0.8416
  886SOL    HW2 2658   1.878   1.562   2.842  0.7189  2.7054  0.3348
  887SOL     OW 2659   1.508   0.455   1.797 -0.8322  0.1589 -0.8263
  887SOL    HW1 2660   1.465   0.539   1.762 -1.6765 -1.8318  0.9546
  887SOL    HW2 2661   1.468   0.423   1.887 -0.5386  1.9763  3.1797
  888SOL     OW 2662   2.935   0.661   1.843  0.0442  0.1407  0.0730
  888SOL    HW1 2663   3.010   0.728   1.837 -0.7833 -2.8246 -0.8003
  888SOL    HW2 2664   2.907   0.638   1.748  0.5283 -1.5625  2.0383
  889SOL     OW 2665   2.998   2.785   0.633 -0.1275 -0.4800 -0.1979
  889SOL    HW1 2666   2.928   2.725   0.675 -1.3558  0.7732 -0.3066
  889SOL    HW2 2667   3.088   2.739   0.623 -1.0427  1.5247 -0.4614
  890SOL     OW 2668   2.732   2.463   3.037  0.4657  0.1109 -0.0658
  890SOL    HW1 2669   2.721   2.447   0.030  1.1994 -0.5015  1.1967
  890SOL    HW2 2670   2.818   2.422   2.996  1.0282  0.2233 -1.9939
  891SOL     OW 2671   0.978   1.583   2.926  0.2167 -0.3210 -0.2560
  891SOL    HW1 2672   0.893   1.582   2.865 -1.8063 -0.3604 -1.5799
  891SOL    HW2 2673   1.055   1.564   2.865  1.6115  0.5118 -0.0982
  892SOL     OW 2674   0.062   3.002   1.045  0.7240  0.3236  0.7744
  892SOL    HW1 2675   0.040   2.984   0.945  0.9570 -0.8533 -3.5271
  892SOL    HW2 2676   3.090   3.055   1.084 -1.5166  1.6135 -2.4260
  893SOL     OW 2677   0.880   3.005   0.977  0.4013 -0.1396  0.6899
  893SOL    HW1 2678   0.949   2.941   1.019  3.1656 -0.1136 -1.1078
  893SOL    HW2 2679   0.869   2.981   0.873 -1.6155 -0.9244 -1.4906
  894SOL     OW 2680   2.785   1.274   0.850  0.6824  0.0826 -0.3698
  894SOL    HW1 2681   2.715   1.345   0.872  2.9457 -0.8708  1.8724
  894SOL    HW2 2682   2.807   1.283   0.751  0.7348  1.0648  1.0706
  895SOL     OW 2683   2.723   2.722   1.746 -0.3272 -0.4584 -0.3671
  895SOL    HW1 2684   2.787   2.731   1.825 -4.4269  1.2784 -0.3816
  895SOL    HW2 2685   2.767   2.745   1.655 -4.0512 -2.1563  1.1491
  896SOL     OW 2686   1.103   0.039   1.702 -0.1323 -0.5010  0.2108
  896SOL    HW1 2687   1.017   0.071   1.755 -1.2417  1.4140 -1.8659
  896SOL    HW2 2688   1.176   0.022   1.768  0.0020  0.3379 -0.2829
  897SOL     OW 2689   1.152   1.455   1.538 -0.3517 -0.4493 -0.3981
  897SOL    HW1 2690   1.198   1.403   1.464  0.1043  3.1880 -1.0838
  897SOL    HW2 2691   1.087   1.526   1.506  1.3554 -3.6924  0.3545
  898SOL     OW 2692   1.196   2.630   1.762 -0.2699 -0.4374 -0.6009
  898SOL    HW1 2693   1.136   2.712   1.770 -0.7382 -1.9582 -0.4314
  898SOL    HW2 2694   1.163   2.568   1.688  2.8029 -0.9275 -0.3148
  899SOL     OW 2695   0.763   0.565   0.402 -0.1048 -0.2716 -0.0007
  899SOL    HW1 2696   0.705   0.646   0.401 -1.3048 -0.5594  0.4324
  899SOL    HW2 2697   0.850   0.585   0.451 -1.5158 -0.4486  2.6910
  900SOL     OW 2698   1.430   2.586   1.899 -0.0193 -0.0565 -0.3264
  900SOL    HW1 2699   1.353   2.610   1.841  2.4674  2.3349  1.5398
  900SOL    HW2 2700   1.490   2.667   1.912 -0.3073  1.2903 -2.0277
  901SOL     OW 2701   0.697   2.375   0.015  0.6686 -0.3614  0.0820
  901SOL    HW1 2702   0.725   2.276   0.027 -2.8127  1.3970 -2.1794
  901SOL    HW2 2703   0.747   2.420   3.040 -1.3897  1.8488 -0.7337
  902SOL     OW 2704   1.982   1.086   0.200  0.8348 -0.3517 -0.3904
  902SOL    HW1 2705   2.025   1.012   0.151 -1.0796 -0.6165  3.9074
  902SOL    HW2 2706   2.030   1.177   0.174  1.1557  1.4263 -1.0067
  903SOL     OW 2707   2.114   1.006   0.603 -0.0864 -0.2184 -0.3580
  903SOL    HW1 2708   2.016   0.978   0.593 -2.3261 -0.1628  1.1897
  903SOL    HW2 2709   2.134   1.100   0.583 -0.6067 -1.1016 -0.5130
  904SOL     OW 2710   0.907   1.133   3.011  0.1547 -0.1127 -0.0707
  904SOL    HW1 2711   0.941   1.216   3.064 -4.2626  2.0833 -0.2183
  904SOL    HW2 2712   0.981   1.063   2.997  2.9164 -1.0926 -2.0078
  905SOL     OW 2713   1.949   3.045   1.066 -0.2882  0.0310 -0.6014
  905SOL    HW1 2714   2.033   3.040   1.119 -1.1746 -1.9942 -1.5722
  905SOL    HW2 2715   1.899   0.028   1.086 -2.0950  1.5902  2.2261
  906SOL     OW 2716   0.112   2.303   1.083  0.0351 -0.0706 -0.0079
  906SOL    HW1 2717   0.038   2.255   1.027 -0.9870 -0.1677 -1.7430
  906SOL    HW2 2718   0.204   2.283   1.046  1.0474 -0.1108 -0.2364
  907SOL     OW 2719   0.953   0.963   0.334 -0.2804 -0.3119 -0.0250
  907SOL    HW1 2720   0.907   1.042   0.287  1.0767  1.3174 -1.4434
  907SOL    HW2 2721   0.889   0.886   0.344  0.4341  2.2247  0.0915
  908SOL     OW 2722   1.858   2.805   1.020 -0.4234 -0.1074  0.2309
  908SOL    HW1 2723   1.896   2.754   1.100 -1.8475 -0.8973 -0.2869
  908SOL    HW2 2724   1.887   2.905   1.031 -2.7159  0.7123  0.6879
  909SOL     OW 2725   2.261   1.305   1.725 -0.1000  0.3130  1.1115
  909SOL    HW1 2726   2.235   1.394   1.758 -0.2061 -1.8729  2.3050
  909SOL    HW2 2727   2.236   1.287   1.623 -1.1279  1.7956 -5.5741
  910SOL     OW 2728   1.406   2.875   2.195 -0.2791 -0.2456  0.4026
  910SOL    HW1 2729   1.455   2.802   2.245 -1.3299  0.3574  1.0132
  910SOL    HW2 2730   1.314   2.840   2.182  0.0758  0.2582  0.8196
  911SOL     OW 2731   2.865   0.845   2.402 -0.2171 -0.2222  0.2394
  911SOL    HW1 2732   2.961   0.871   2.373  3.3276 -0.2415  1.7936
  911SOL    HW2 2733   2.863   0.768   2.461 -2.5210  2.7365 -0.8139
  912SOL     OW 2734   0.049   1.277   1.585 -0.1067  0.3620  0.8944
  912SOL    HW1 2735   3.080   1.277   1.657  0.6626 -0.3304  0.2628
  912SOL    HW2 2736   0.139   1.267   1.633 -0.6418 -0.6756  1.4289
  913SOL     OW 2737   2.811   2.476   1.335  0.0896 -0.2115 -0.6670
  913SOL    HW1 2738   2.862   2.399   1.385  0.7389 -0.8911 -0.9700
  913SOL    HW2 2739   2.796   2.455   1.238  1.4975 -0.9695  0.2915
  914SOL     OW 2740   1.628   0.803   1.715 -0.1833  0.1315 -0.1106
  914SOL    HW1 2741   1.577   0.729   1.668 -2.9217 -0.8340 -0.8532
  914SOL    HW2 2742   1.674   0.859   1.647  1.1461 -0.7193 -1.1492
  915SOL     OW 2743   1.945   0.623   1.431  0.1553  0.7010  0.3047
  915SOL    HW1 2744   1.930   0.558   1.505 -3.5962 -1.3396 -0.8572
  915SOL    HW2 2745   1.863   0.623   1.373 -0.3096  0.3123 -0.1257
  916SOL     OW 2746   2.853   2.678   1.002 -0.5480  0.5540  0.0962
  916SOL    HW1 2747   2.785   2.732   1.055  0.2566 -0.8447  2.9511
  916SOL    HW2 2748   2.841   2.582   1.037  0.1383  1.1403  0.0635
  917SOL     OW 2749   1.876   1.896   0.015 -0.5320 -0.3244 -0.0704
  917SOL    HW1 2750   1.795   1.889   0.074  0.9237 -2.0157 -0.7428
  917SOL    HW2 2751   1.868   1.987   3.075 -1.5353 -1.7676  2.4476
  918SOL     OW 2752   1.821   2.861   2.388 -0.5307  0.1836 -0.0581
  918SOL    HW1 2753   1.892   2.933   2.376 -0.9435  1.3431  0.1466
  918SOL    HW2 2754   1.731   2.904   2.411  2.7259 -0.7843 -0.1259
  919SOL     OW 2755   1.293   2.542   1.210  0.9592  0.1816 -0.0292
  919SOL    HW1 2756   1.382   2.532   1.166 -0.8357  0.9979  2.1427
  919SOL    HW2 2757   1.303   2.604   1.292 -1.3576  0.9497  0.3974
  920SOL     OW 2758   2.982   0.245   2.421  0.7200  0.2390 -0.4526
  920SOL    HW1 2759   2.984   0.311   2.496 -1.8887 -2.2203 -0.5957
  920SOL    HW2 2760   3.070   0.243   2.372 -0.6085 -4.8871  1.1202
  921SOL     OW 2761   2.897   1.017   1.725 -0.3575 -0.1880 -0.3422
  921SOL    HW1 2762   2.913   1.117   1.748 -0.5929  0.0252  1.4066
  921SOL    HW2 2763   2.985   0.971   1.736 -0.7080  3.4189  0.6058
  922SOL     OW 2764   2.013   1.943   0.491 -0.4136  0.2900  0.0900
  922SOL    HW1 2765   2.099   1.971   0.438  0.1414 -0.8857  4.8516
  922SOL    HW2 2766   1.945   2.015   0.474  1.4354  1.7265  0.0133
  923SOL     OW 2767   0.912   1.869   0.260  0.4112 -0.1964 -0.0381
  923SOL    HW1 2768   0.917   1.812   0.178 -0.9934  0.8206  4.7575
  923SOL    HW2 2769   0.965   1.954   0.252  2.6002 -0.7975  1.9677
  924SOL     OW 2770   1.075   0.291   0.083 -0.1997 -0.0859 -0.1568
  924SOL    HW1 2771   0.991   0.272   0.025 -0.0565  0.8402 -3.9374
  924SOL    HW2 2772   1.100   0.389   0.068 -1.2545  2.5690  0.0310
  925SOL     OW 2773   2.569   0.349   0.847  0.0168 -0.4032  0.0591
  925SOL    HW1 2774   2.536   0.290   0.771  2.6807 -0.4843 -3.4900
  925SOL    HW2 2775   2.505   0.334   0.930 -0.6101 -0.0061  1.9897
  926SOL     OW 2776   0.666   3.091   1.118  0.0536 -0.1897  0.0532
  926SOL    HW1 2777   0.635   3.003   1.161 -0.5633 -0.0222  0.0944
  926SOL    HW2 2778   0.758   3.079   1.073  0.1708 -1.6773  1.0152
  927SOL     OW 2779   0.061   1.421   2.410  0.2863  0.0876  0.1714
  927SOL    HW1 2780   0.064   1.524   2.405 -0.3877 -2.3039  1.2176
  927SOL    HW2 2781   0.138   1.384   2.359  1.1987  0.1039 -0.2707
  928SOL     OW 2782   3.071   0.456   2.890  0.6024  0.0393  0.3334
  928SOL    HW1 2783   3.101   0.531   2.951 -1.9508 -4.6020  2.8682
  928SOL    HW2 2784   2.973   0.464   2.862 -1.9217  0.1048  0.4766
  929SOL     OW 2785   2.718   0.238   1.386 -0.6743  0.3824 -0.0002
  929SOL    HW1 2786   2.761   0.152   1.422  1.6434 -0.6236  0.5299
  929SOL    HW2 2787   2.661   0.216   1.305 -0.3551 -0.6795  0.0762
  930SOL     OW 2788   1.861   1.136   1.755  0.1862  0.0773 -0.1330
  930SOL    HW1 2789   1.798   1.095   1.827 -1.9895  1.1367  1.2836
  930SOL    HW2 2790   1.958   1.117   1.787  0.4385 -0.2651  1.4121
  931SOL     OW 2791   2.180   1.221   0.469  0.0713 -0.1488 -0.1527
  931SOL    HW1 2792   2.221   1.306   0.430 -0.9606  2.6108  1.5091
  931SOL    HW2 2793   2.186   1.142   0.404  3.2062 -0.9894  0.1145
  932SOL     OW 2794   2.390   1.202   0.981  0.0533 -0.1548 -0.2375
  932SOL    HW1 2795   2.461   1.219   1.049  0.3783  0.8241  0.9203
  932SOL    HW2 2796   2.306   1.154   1.015  2.4482  0.1715 -0.5738
  933SOL     OW 2797   2.430   1.944   0.758  0.5765 -0.3074 -0.3109
  933SOL    HW1 2798   2.375   1.890   0.687  0.8219  0.6614 -2.9582
  933SOL    HW2 2799   2.376   2.019   0.801  0.3837 -0.6220  0.3355
  934SOL     OW 2800   1.949   0.484   2.425 -0.0277  0.1064  0.9872
  934SOL    HW1 2801   1.977   0.514   2.331 -0.2820  0.7769 -0.5451
  934SOL    HW2 2802   2.031   0.439   2.471  1.3817 -1.1060 -0.1548
  935SOL     OW 2803   0.015   1.569   0.468  0.0035 -0.5710  0.0086
  935SOL    HW1 2804   3.085   1.502   0.540 -0.3348  1.4807  0.6448
  935SOL    HW2 2805   0.091   1.622   0.509 -0.4763  1.9245  1.1523
  936SOL     OW 2806   0.227   0.477   0.748 -0.0962 -0.0081  0.7073
  936SOL    HW1 2807   0.143   0.468   0.691 -0.5570  1.1426  1.0277
  936SOL    HW2 2808   0.268   0.568   0.743  0.4527 -0.1421 -0.8439
  937SOL     OW 2809   2.802   3.014   1.188  0.1931 -0.2808  0.3117
  937SOL    HW1 2810   2.759   2.928   1.153 -2.8079 -1.9340 -2.4339
  937SOL    HW2 2811   2.826   3.076   1.110  0.4962 -0.9371 -2.6884
  938SOL     OW 2812   2.634   2.383   0.196 -0.3666 -0.0958  0.3223
  938SOL    HW1 2813   2.703   2.387   0.274 -1.7262 -1.3427  0.5233
  938SOL    HW2 2814   2.557   2.446   0.210  2.3329 -1.0104  2.0442
  939SOL     OW 2815   0.855   1.913   0.580 -0.2449 -0.0846 -0.5274
  939SOL    HW1 2816   0.776   1.884   0.524  2.7595  1.0802  0.4935
  939SOL    HW2 2817   0.934   1.857   0.547  0.7418  2.0216  0.9803
  940SOL     OW 2818   0.221   0.278   2.922 -0.2259 -0.1205 -0.3112
  940SOL    HW1 2819   0.140   0.335   2.896  2.7548 -0.2978  1.1694
  940SOL    HW2 2820   0.242   0.194   2.863  3.2213 -1.5275 -0.8220
  941SOL     OW 2821   1.329   0.262   2.866  0.2702 -0.2125 -0.0153
  941SOL    HW1 2822   1.345   0.334   2.932 -2.6876 -0.7782 -1.3066
  941SOL    HW2 2823   1.299   0.180   2.919 -1.3792  0.6357  1.2737
  942SOL     OW 2824   1.045   0.767   1.397 -0.0778  0.3633 -0.4591
  942SOL    HW1 2825   1.021   0.666   1.389 -0.5257  0.7485 -0.4575
  942SOL    HW2 2826   1.068   0.789   1.493  1.6494 -1.2105 -0.6450
  943SOL     OW 2827   1.386   0.998   1.823 -0.1182  0.5466 -0.1066
  943SOL    HW1 2828   1.479   0.971   1.801 -1.0476  1.2460 -0.5526
  943SOL    HW2 2829   1.357   0.953   1.910  1.3480 -0.2534  0.2755
  944SOL     OW 2830   2.184   0.971   1.588 -0.6908 -0.3946 -0.0460
  944SOL    HW1 2831   2.161   0.998   1.687 -0.0785  1.8173  2.0120
  944SOL    HW2 2832   2.185   1.051   1.529 -1.2714  0.4894 -0.2124
  945SOL     OW 2833   2.926   3.098   0.395  0.0096  0.2109 -0.2699
  945SOL    HW1 2834   2.960   0.027   0.481  0.4926 -2.0274 -2.1738
  945SOL    HW2 2835   2.906   0.072   0.328  3.4110 -0.9937  2.4415
  946SOL     OW 2836   2.745   0.962   1.988 -0.5682  0.4553  0.4288
  946SOL    HW1 2837   2.775   0.957   1.891 -0.3000 -0.6690 -0.6122
  946SOL    HW2 2838   2.718   1.062   2.009 -0.1182  0.0106  2.0435
  947SOL     OW 2839   1.022   2.740   0.398 -0.1898 -0.0054  1.0117
  947SOL    HW1 2840   0.935   2.784   0.434 -2.9906  1.7468 -0.0364
  947SOL    HW2 2841   1.004   2.684   0.319  0.9589 -0.4577  0.2465
  948SOL     OW 2842   2.507   1.510   1.558  0.6647  0.7251  0.3850
  948SOL    HW1 2843   2.558   1.596   1.566 -2.5853 -0.0189  0.6626
  948SOL    HW2 2844   2.524   1.447   1.637 -1.6910 -1.2876  0.0517
  949SOL     OW 2845   0.457   1.431   2.883  0.6316  0.8633 -0.1976
  949SOL    HW1 2846   0.355   1.418   2.877  1.7741 -0.1334 -1.8728
  949SOL    HW2 2847   0.509   1.341   2.890  3.2748 -2.3023  2.6991
  950SOL     OW 2848   0.498   2.637   1.048  0.2482 -0.0529 -0.1127
  950SOL    HW1 2849   0.399   2.651   1.052  1.4682  0.6649 -1.9916
  950SOL    HW2 2850   0.532   2.622   0.951 -3.4932  0.0877  2.5895
  951SOL     OW 2851   0.846   1.381   2.274  0.4473  0.0920  0.1325
  951SOL    HW1 2852   0.934   1.355   2.230  1.3619 -0.8186  1.0161
  951SOL    HW2 2853   0.805   1.302   2.318  1.1426 -3.0097  0.1561
  952SOL     OW 2854   0.343   1.345   0.418 -0.1362  0.4899  0.3263
  952SOL    HW1 2855   0.405   1.319   0.340  0.2072  0.6053 -1.0246
  952SOL    HW2 2856   0.247   1.343   0.391  1.0687  0.0079 -1.6885
  953SOL     OW 2857   2.418   0.162   2.794 -0.3092  0.0671 -0.3754
  953SOL    HW1 2858   2.332   0.124   2.825 -1.7691  0.8176 -0.9681
  953SOL    HW2 2859   2.466   0.111   2.719  0.7936  2.2895  0.7042
  954SOL     OW 2860   1.674   1.177   0.499 -0.6619 -0.3681  0.2252
  954SOL    HW1 2861   1.593   1.200   0.437 -0.5806 -1.0170  1.2618
  954SOL    HW2 2862   1.738   1.254   0.512  0.9265 -2.0892 -3.1167
  955SOL     OW 2863   0.708   2.026   2.802 -0.3576 -0.4630  0.1739
  955SOL    HW1 2864   0.722   2.006   2.904 -1.5143 -1.1565  3.6778
  955SOL    HW2 2865   0.659   2.115   2.786 -2.3982  0.5177 -1.6393
  956SOL     OW 2866   1.969   0.610   2.180  0.0761  0.5842  0.6704
  956SOL    HW1 2867   2.002   0.536   2.114  1.2794 -1.7329  1.5484
  956SOL    HW2 2868   2.004   0.701   2.151 -0.7916 -2.2239 -2.0932
  957SOL     OW 2869   1.977   2.189   2.507 -0.3279  0.5382  0.5149
  957SOL    HW1 2870   1.905   2.123   2.490 -0.2840  2.9941 -0.4128
  957SOL    HW2 2871   2.068   2.145   2.505  1.7889  0.5344 -1.6906
  958SOL     OW 2872   1.411   1.243   1.397  0.4349 -0.3688  0.4415
  958SOL    HW1 2873   1.434   1.148   1.424 -0.4415  0.1804 -0.2204
  958SOL    HW2 2874   1.342   1.243   1.324 -1.6395  0.5936 -2.0683
  959SOL     OW 2875   1.928   2.450   2.450  0.8611 -0.2675  0.1370
  959SOL    HW1 2876   1.856   2.467   2.378 -0.1762  0.0591  2.9026
  959SOL    HW2 2877   1.931   2.350   2.479 -2.7736 -3.3664 -1.2127
  960SOL     OW 2878   0.211   0.788   2.654 -0.8056  0.4175  0.5044
  960SOL    HW1 2879   0.217   0.777   2.553 -1.8756 -0.6743 -0.3576
  960SOL    HW2 2880   0.121   0.768   2.696 -0.6431 -0.7063 -0.0899
  961SOL     OW 2881   0.320   1.014   2.766 -0.5024 -0.7705  0.1550
  961SOL    HW1 2882   0.287   0.923   2.736  3.9415 -0.8929 -0.3437
  961SOL    HW2 2883   0.298   1.040   2.865  0.2666  0.5408 -0.8352
  962SOL     OW 2884   0.670   1.251   2.906  0.0408 -0.0086 -0.0356
  962SOL    HW1 2885   0.737   1.214   2.969 -1.2787 -0.5437  0.5324
  962SOL    HW2 2886   0.635   1.182   2.845 -1.7348 -0.2548 -0.7966
  963SOL     OW 2887   2.579   2.147   0.030 -0.0511  0.5229 -0.0524
  963SOL    HW1 2888   2.576   2.241   0.071 -2.2672  1.9511  1.8044
  963SOL    HW2 2889   2.671   2.107   0.051 -2.8891 -0.6189  1.9225
  964SOL     OW 2890   0.946   2.420   1.649  0.2108 -0.0609 -0.1253
  964SOL    HW1 2891   1.022   2.419   1.582  2.8822 -0.5214 -0.4801
  964SOL    HW2 2892   0.866   2.479   1.616 -2.2379 -1.2752 -1.5867
  965SOL     OW 2893   1.635   1.583   0.339  0.2459  0.0532  0.0929
  965SOL    HW1 2894   1.725   1.540   0.334 -3.5641  0.9417  2.0354
  965SOL    HW2 2895   1.641   1.685   0.368 -0.1580 -0.1899  2.8995
  966SOL     OW 2896   3.002   1.707   0.268  0.2598 -0.3224 -0.0898
  966SOL    HW1 2897   3.042   1.639   0.334 -1.1174  0.8836 -0.5179
  966SOL    HW2 2898   3.054   1.793   0.280 -2.8751 -0.5905 -0.8781
  967SOL     OW 2899   1.757   3.071   2.056 -0.1632 -0.0300 -0.1643
  967SOL    HW1 2900   1.791   0.030   2.126  2.1015  0.5070  1.4438
  967SOL    HW2 2901   1.757   2.972   2.080 -0.6714 -1.5722 -1.2300
  968SOL     OW 2902   1.945   0.302   0.384  0.1702  0.4716 -0.4911
  968SOL    HW1 2903   1.847   0.270   0.398  0.8712 -0.3427 -2.2410
  968SOL    HW2 2904   1.978   0.343   0.470  0.2223  0.0150 -2.1367
  969SOL     OW 2905   0.240   1.258   2.281  0.2932 -0.1808  0.1783
  969SOL    HW1 2906   0.341   1.287   2.275 -0.7961  2.1667  0.1114
  969SOL    HW2 2907   0.228   1.161   2.272  2.6739  3.3400  1.5855
  970SOL     OW 2908   2.307   2.090   1.294  0.4839 -0.2412  0.3828
  970SOL    HW1 2909   2.234   2.100   1.224 -0.6176 -2.8919  2.8320
  970SOL    HW2 2910   2.268   2.122   1.381  2.1199 -0.2397 -0.9536
  971SOL     OW 2911   3.094   2.758   1.123 -0.4744 -0.0532  0.2817
  971SOL    HW1 2912   3.008   2.729   1.080 -0.7247 -2.3474 -1.9147
  971SOL    HW2 2913   0.015   2.851   1.084 -0.9099 -2.2661 -2.2509
  972SOL     OW 2914   0.226   1.245   2.646 -0.6832 -0.3052 -0.5003
  972SOL    HW1 2915   0.289   1.174   2.691  4.9577 -1.7865  4.1720
  972SOL    HW2 2916   0.154   1.198   2.593  1.6714 -0.0087 -1.2051
  973SOL     OW 2917   0.437   0.241   0.655 -0.0783 -0.6679 -0.3499
  973SOL    HW1 2918   0.397   0.248   0.752 -1.2973 -1.5824  2.9274
  973SOL    HW2 2919   0.427   0.327   0.601  1.7655 -0.5736 -2.3204
  974SOL     OW 2920   2.399   0.879   1.729 -0.0402  0.0197  0.0941
  974SOL    HW1 2921   2.325   0.920   1.669 -1.3583  0.5078 -1.2016
  974SOL    HW2 2922   2.480   0.847   1.674 -0.1003  0.0557  1.7916
  975SOL     OW 2923   2.677   2.834   0.209 -0.1949  0.2120 -0.1694
  975SOL    HW1 2924   2.754   2.799   0.263  2.0027 -1.9261  0.5515
  975SOL    HW2 2925   2.658   2.781   0.122 -2.3844 -1.0624 -0.9716
  976SOL     OW 2926   0.451   1.580   1.223  0.1380  0.2452 -0.2565
  976SOL    HW1 2927   0.431   1.480   1.209  1.9225 -0.0454 -0.9508
  976SOL    HW2 2928   0.416   1.613   1.313  0.7478  0.8282  1.3583
  977SOL     OW 2929   1.067   2.224   0.927  0.4294 -0.0454  0.1342
  977SOL    HW1 2930   1.149   2.227   0.866 -1.9198  0.2160  1.8270
  977SOL    HW2 2931   1.094   2.272   1.012 -1.0394 -0.6997 -1.8339
  978SOL     OW 2932   0.359   0.924   0.290 -0.5371  0.2163  0.2960
  978SOL    HW1 2933   0.418   0.998   0.244  1.9558  0.7780  1.5732
  978SOL    HW2 2934   0.358   0.839   0.239  1.8627  1.8627  0.0183
  979SOL     OW 2935   2.059   1.654   0.340 -0.0015 -0.4379  0.1268
  979SOL    HW1 2936   2.063   1.709   0.428 -2.5817  2.3751 -0.7677
  979SOL    HW2 2937   2.056   1.734   0.272  0.9121 -0.2298  0.5468
  980SOL     OW 2938   0.284   1.709   2.098 -0.0736  0.0603 -0.1451
  980SOL    HW1 2939   0.328   1.664   2.022 -0.7479  1.1739  1.7311
  980SOL    HW2 2940   0.320   1.677   2.190  0.5583 -0.1402  0.6878
  981SOL     OW 2941   2.720   1.048   0.381 -0.4892  0.2144 -0.2313
  981SOL    HW1 2942   2.644   1.062   0.442  0.3497 -0.5947 -1.8739
  981SOL    HW2 2943   2.688   0.992   0.306 -0.4351 -2.3290 -3.2129
  982SOL     OW 2944   2.883   2.783   1.953  0.4257  0.1099 -0.2543
  982SOL    HW1 2945   2.861   2.874   1.989  0.5073 -2.4335  0.5828
  982SOL    HW2 2946   2.973   2.779   1.902 -2.8179 -0.5947  1.5701
  983SOL     OW 2947   1.469   0.351   1.336  0.0151  0.3496  0.1483
  983SOL    HW1 2948   1.426   0.261   1.363  0.1934  0.8601  0.8598
  983SOL    HW2 2949   1.572   0.342   1.346 -0.7072 -3.0192  3.2342
  984SOL     OW 2950   1.340   2.543   3.014 -0.2578  0.4515  0.6515
  984SOL    HW1 2951   1.356   2.448   2.976 -1.1535 -4.7086  0.9575
  984SOL    HW2 2952   1.392   2.610   2.961  0.4664 -3.7074  0.1341
  985SOL     OW 2953   1.563   1.823   1.443 -0.1128 -0.4736 -0.3086
  985SOL    HW1 2954   1.508   1.737   1.434  1.6407  1.5694  0.1355
  985SOL    HW2 2955   1.656   1.808   1.488  2.6139  1.1250  0.2552
  986SOL     OW 2956   1.999   3.055   2.345 -0.1798  0.0287  0.2164
  986SOL    HW1 2957   2.075   3.058   2.269  3.9625  0.8076 -0.7954
  986SOL    HW2 2958   1.952   0.042   2.341  0.5686  2.5863  1.3395
  987SOL     OW 2959   2.684   1.601   2.600 -0.4618 -0.5947 -0.5575
  987SOL    HW1 2960   2.773   1.657   2.615 -1.1721  1.0094 -0.7441
  987SOL    HW2 2961   2.657   1.602   2.498  1.8081  2.0907 -1.2564
  988SOL     OW 2962   2.817   0.617   2.076  0.4236  0.7712 -0.0547
  988SOL    HW1 2963   2.854   0.662   1.994 -0.4626  2.3581 -1.4889
  988SOL    HW2 2964   2.747   0.670   2.124  0.4861 -1.7233  2.5187
  989SOL     OW 2965   1.936   1.385   1.697  1.7376 -0.0119  0.0389
  989SOL    HW1 2966   1.871   1.441   1.752  0.5446  0.1607  1.0145
  989SOL    HW2 2967   1.901   1.288   1.695  0.2768 -0.8282 -1.2647
  990SOL     OW 2968   2.971   1.168   0.326  0.1429  0.0993 -0.3022
  990SOL    HW1 2969   2.879   1.125   0.339  2.3762 -1.2335 -1.4960
  990SOL    HW2 2970   3.037   1.090   0.332  0.4354  2.9065 -2.0093
  991SOL     OW 2971   0.308   1.948   2.647 -0.2671  0.0738 -0.5611
  991SOL    HW1 2972   0.253   1.909   2.723 -0.5309  1.6890 -0.7589
  991SOL    HW2 2973   0.265   1.934   2.555  0.1373 -0.8811 -1.8938
  992SOL     OW 2974   2.467   2.206   1.904  0.0443  0.0211  0.2851
  992SOL    HW1 2975   2.375   2.237   1.931  2.0317 -0.5060 -1.8471
  992SOL    HW2 2976   2.537   2.259   1.956  2.9534  1.2729  1.3573
  993SOL     OW 2977   0.378   2.914   0.435 -0.4121 -0.4418  0.0355
  993SOL    HW1 2978   0.326   3.002   0.443 -0.1253  0.0110  0.2931
  993SOL    HW2 2979   0.482   2.937   0.439  6.1158 -1.8685  0.3830
  994SOL     OW 2980   3.020   1.886   1.440 -0.0842 -0.6466  0.5220
  994SOL    HW1 2981   3.037   1.885   1.541  1.2670 -1.1013  2.5228
  994SOL    HW2 2982   3.056   1.971   1.395  0.0712  1.0694  0.0356
  995SOL     OW 2983   2.219   1.696   2.246 -0.2130  0.7887 -0.6050
  995SOL    HW1 2984   2.221   1.718   2.344 -0.1297  0.4738  2.5987
  995SOL    HW2 2985   2.259   1.599   2.240  1.9287  2.3660 -0.6232
  996SOL     OW 2986   1.953   1.645   3.027 -0.3000  0.0670  0.7435
  996SOL    HW1 2987   1.888   1.579   3.057  1.2824 -0.4567 -1.7080
  996SOL    HW2 2988   1.930   1.735   3.050  0.4451 -5.7021  0.2830
  997SOL     OW 2989   1.364   1.335   1.685  0.0495 -0.2482  0.3313
  997SOL    HW1 2990   1.270   1.378   1.682 -2.6239 -0.2906  0.8767
  997SOL    HW2 2991   1.391   1.304   1.591 -0.2928 -0.9525  1.2151
  998SOL     OW 2992   3.037   2.161   0.958 -0.1874  0.7025 -0.2394
  998SOL    HW1 2993   2.957   2.155   0.898 -1.4180 -0.6721  0.2814
  998SOL    HW2 2994   3.034   2.077   1.021 -2.0394 -0.9445 -0.1894
  999SOL     OW 2995   2.447   2.743   0.078 -0.3722  0.3336  0.4562
  999SOL    HW1 2996   2.364   2.803   0.082 -0.9893 -0.7469  1.1622
  999SOL    HW2 2997   2.490   2.753   3.091  0.9559 -1.2211 -1.8004
 1000SOL     OW 2998   1.019   3.038   3.072  0.0813  0.1045  0.6446
 1000SOL    HW1 2999   1.053   3.062   0.057 -0.8481 -2.0862 -3.5208
 1000SOL    HW2 3000   0.990   0.015   3.020  1.1289 -0.8928 -0.1375
   3.10507   3.10507   3.10507
