1000 SPC/Fw water molecules t= 198.00000 step= 198000
 3000
    1SOL     OW    1   2.874   0.002   0.967 -0.8850  0.2746  0.0740
    1SOL    HW1    2   2.781   0.004   0.932  1.5598  2.5092 -0.9068
    1SOL    HW2    3   2.942   0.056   0.913  0.7098  1.5859  0.0631
    2SOL     OW    4   1.910   1.655   1.972  0.0612  0.4441 -0.3906
    2SOL    HW1    5   1.919   1.594   2.055 -1.9877 -1.4635  0.7708
    2SOL    HW2    6   1.820   1.637   1.928  0.0549 -0.5447 -0.4611
    3SOL     OW    7   2.040   2.455   2.095 -0.0830  0.0885  0.0461
    3SOL    HW1    8   1.968   2.525   2.075  4.7852  0.9249  0.3186
    3SOL    HW2    9   2.003   2.391   2.170 -0.8028  1.8888 -2.0911
    4SOL     OW   10   1.920   2.018   2.252 -0.0996 -0.2727  0.1700
    4SOL    HW1   11   1.996   1.971   2.207  2.2628  1.7255 -1.8394
    4SOL    HW2   12   1.833   2.011   2.199  1.6344 -0.9673  0.8569
    5SOL     OW   13   1.283   0.667   1.721  0.1125  0.0722  0.0780
    5SOL    HW1   14   1.188   0.695   1.691  0.5969 -0.8871  3.3991
    5SOL    HW2   15   1.345   0.700   1.652 -1.2853 -1.4523  4.3386
    6SOL     OW   16   2.744   0.682   2.911  0.1408 -0.8572 -0.3846
    6SOL    HW1   17   2.807   0.621   2.965 -2.2951 -0.8749 -0.0896
    6SOL    HW2   18   2.646   0.671   2.940  0.2280  0.5959  1.3791
    7SOL     OW   19   0.982   1.006   1.294  0.3294 -0.6664 -0.5804
    7SOL    HW1   20   1.082   1.018   1.297 -3.0164  0.3690  0.1775
    7SOL    HW2   21   0.942   1.093   1.259 -2.3837 -1.1927  1.8480
    8SOL     OW   22   1.280   0.571   0.657 -0.1244 -0.1862  0.4580
    8SOL    HW1   23   1.335   0.542   0.735 -1.0567 -0.4569 -0.3627
    8SOL    HW2   24   1.333   0.643   0.598  4.0490 -0.5052 -0.4554
    9SOL     OW   25   1.023   0.780   2.660  0.1084 -0.8317  0.3671
    9SOL    HW1   26   0.993   0.877   2.672  3.8432 -1.5029  0.7345
    9SOL    HW2   27   1.113   0.776   2.612  1.5600  2.2189 -2.8772
   10SOL     OW   28   0.211   2.574   0.301 -0.1520  0.2458 -0.1256
   10SOL    HW1   29   0.270   2.492   0.293 -1.8105 -1.9790  0.9550
   10SOL    HW2   30   0.220   2.631   0.221 -1.0006 -0.6841 -0.4372
   11SOL     OW   31   0.433   1.546   0.107  0.3460  1.2098 -0.6383
   11SOL    HW1   32   0.470   1.584   0.018  0.1721  1.5568 -2.2058
   11SOL    HW2   33   0.330   1.548   0.103 -1.7546 -0.6267 -0.0585
   12SOL     OW   34   0.428   0.163   1.340 -0.6582  0.0579  0.4243
   12SOL    HW1   35   0.385   0.082   1.306 -0.6450  2.6812  1.0187
   12SOL    HW2   36   0.470   0.145   1.436  0.2763  0.0776  0.4154
   13SOL     OW   37   0.969   2.983   0.366  0.1803  0.1232 -0.5871
   13SOL    HW1   38   1.016   0.008   0.333 -0.6138 -1.3024 -0.7800
   13SOL    HW2   39   1.033   2.904   0.357  1.3741 -1.2604 -0.9652
   14SOL     OW   40   1.241   2.222   1.271  0.0452 -0.0258 -0.3033
   14SOL    HW1   41   1.174   2.280   1.213  0.4584  0.7046  0.3235
   14SOL    HW2   42   1.184   2.166   1.338 -1.7714 -3.1015  0.1422
   15SOL     OW   43   2.542   0.656   2.019  0.4719  0.2175  0.3790
   15SOL    HW1   44   2.615   0.688   1.963 -1.9040  0.9630  3.3722
   15SOL    HW2   45   2.517   0.558   1.993 -0.3391 -0.6675 -0.1184
   16SOL     OW   46   1.165   2.735   3.036  0.0457 -0.1277 -0.5882
   16SOL    HW1   47   1.124   2.814   0.028 -0.2852  2.1386 -2.6239
   16SOL    HW2   48   1.100   2.653   3.044  0.7953 -2.3227 -1.7377
   17SOL     OW   49   0.907   0.167   1.340 -0.7151 -0.1954 -0.0427
   17SOL    HW1   50   0.869   0.176   1.435 -0.3705  1.3714  2.6463
   17SOL    HW2   51   0.943   0.257   1.298 -0.6531  1.4745 -0.9952
   18SOL     OW   52   1.170   0.904   0.197 -0.6796 -0.1812  0.2312
   18SOL    HW1   53   1.188   0.910   0.093  0.8556 -4.1626  0.5151
   18SOL    HW2   54   1.241   0.950   0.251  0.7999  1.4508 -2.4228
   19SOL     OW   55   1.902   1.466   0.035  0.2015  0.0898 -0.0163
   19SOL    HW1   56   1.966   1.539   0.013 -0.5221 -2.9502  3.9704
   19SOL    HW2   57   1.939   1.374   0.015 -0.8741 -0.2063  0.0163
   20SOL     OW   58   1.817   1.592   1.580 -0.6332  0.0937  0.1292
   20SOL    HW1   59   1.763   1.649   1.646  1.0900  1.3668 -0.5286
   20SOL    HW2   60   1.756   1.543   1.520  0.0497  0.2715  0.8035
   21SOL     OW   61   0.582   1.358   0.239  0.0136 -0.0865 -0.0426
   21SOL    HW1   62   0.670   1.404   0.254 -0.5335 -1.1975  0.8996
   21SOL    HW2   63   0.523   1.418   0.182 -0.9452  2.4141  0.5252
   22SOL     OW   64   2.337   0.078   1.307  0.2445  0.0072 -0.4268
   22SOL    HW1   65   2.330   0.077   1.409 -0.7662 -0.2343  0.7258
   22SOL    HW2   66   2.246   0.085   1.262  1.2099  4.0866 -2.4039
   23SOL     OW   67   0.046   1.002   1.635  0.1476  0.0418 -0.4300
   23SOL    HW1   68   0.054   0.917   1.585  0.7966  1.3283 -2.9584
   23SOL    HW2   69   0.019   1.076   1.570 -2.4027 -0.6505  2.6425
   24SOL     OW   70   2.405   2.453   1.224  0.3542 -0.3351  0.6349
   24SOL    HW1   71   2.400   2.444   1.121 -0.2151 -0.7016 -3.5475
   24SOL    HW2   72   2.504   2.438   1.252  0.2505  0.7364  0.2256
   25SOL     OW   73   2.010   2.534   2.521  0.7040  0.1579  0.3021
   25SOL    HW1   74   2.098   2.509   2.466 -1.8150 -1.6326 -0.9181
   25SOL    HW2   75   1.934   2.563   2.457  0.3706  0.3040 -0.4056
   26SOL     OW   76   1.015   2.494   3.010  0.1463 -0.2349 -0.1941
   26SOL    HW1   77   1.030   2.417   2.951 -0.6361  1.3793  1.4655
   26SOL    HW2   78   1.014   2.465   0.050  1.7152  1.9311 -0.1431
   27SOL     OW   79   0.367   1.961   2.565  0.7500  0.3316  0.5098
   27SOL    HW1   80   0.412   1.872   2.588 -1.3581  1.0163 -0.6380
   27SOL    HW2   81   0.282   1.944   2.502 -2.2715 -1.5672 -1.1931
   28SOL     OW   82   0.037   1.415   1.655  0.2150  0.3713  0.7136
   28SOL    HW1   83   3.003   1.458   1.640 -1.2382 -1.1564  1.0706
   28SOL    HW2   84   0.104   1.487   1.697  0.3696  2.9508  0.9271
   29SOL     OW   85   2.674   2.127   2.054 -0.4572  0.2645 -0.0609
   29SOL    HW1   86   2.632   2.071   2.128 -1.0158 -0.9780 -1.4594
   29SOL    HW2   87   2.772   2.093   2.033 -0.1381 -1.4439 -0.5497
   30SOL     OW   88   1.297   2.904   0.645 -0.4867 -0.3469  0.3186
   30SOL    HW1   89   1.261   2.813   0.681 -0.9229 -3.5512 -1.6439
   30SOL    HW2   90   1.252   2.976   0.699  1.1743 -3.4516  0.1729
   31SOL     OW   91   3.009   2.265   1.820 -0.3025 -0.6036  0.1794
   31SOL    HW1   92   0.003   2.354   1.835 -2.4494  0.9690 -1.6451
   31SOL    HW2   93   2.982   2.263   1.720 -0.4011  1.1392  0.5938
   32SOL     OW   94   1.039   1.129   1.592  0.2862 -0.1278  0.0504
   32SOL    HW1   95   1.124   1.072   1.604 -1.7473  2.5800 -0.0813
   32SOL    HW2   96   0.956   1.079   1.614 -1.4401  0.4073 -2.1107
   33SOL     OW   97   0.250   2.641   2.459  0.1860 -0.4671 -0.3703
   33SOL    HW1   98   0.206   2.551   2.468  2.9577  0.2182  0.0436
   33SOL    HW2   99   0.322   2.629   2.386  1.5819 -2.7549 -0.1016
   34SOL     OW  100   1.908   0.138   0.884 -0.2233  0.1697  0.7525
   34SOL    HW1  101   1.964   0.224   0.875  1.9064  0.1766 -0.2334
   34SOL    HW2  102   1.963   0.055   0.898  3.0798 -0.3169 -1.6150
   35SOL     OW  103   2.486   0.293   0.787 -0.3052 -0.0209 -0.0349
   35SOL    HW1  104   2.478   0.270   0.687 -1.9688 -0.4008 -0.4172
   35SOL    HW2  105   2.534   0.389   0.798  0.7248  3.5718  1.6282
   36SOL     OW  106   2.197   2.728   2.134  0.4312  0.0679  0.1006
   36SOL    HW1  107   2.218   2.638   2.179  0.7185 -0.9233  0.7425
   36SOL    HW2  108   2.128   2.723   2.056  0.2537  0.6766 -2.0881
   37SOL     OW  109   1.126   2.537   2.163  0.3146  0.1096  0.0326
   37SOL    HW1  110   1.122   2.567   2.067 -2.3165 -1.2451 -1.4112
   37SOL    HW2  111   1.191   2.595   2.216  2.7229 -0.0623 -0.1843
   38SOL     OW  112   2.642   0.285   2.831 -0.1842 -0.4008 -0.1163
   38SOL    HW1  113   2.691   0.204   2.871 -2.0414  2.8083 -0.6078
   38SOL    HW2  114   2.644   0.365   2.895  0.4292 -2.4610  1.3474
   39SOL     OW  115   2.164   1.643   1.828 -0.4437 -0.5235 -0.2343
   39SOL    HW1  116   2.100   1.664   1.907 -3.0830  1.9573  0.0285
   39SOL    HW2  117   2.189   1.728   1.779 -1.7601 -1.1902 -1.6631
   40SOL     OW  118   0.195   3.020   2.794 -0.1847  0.5399 -0.6233
   40SOL    HW1  119   0.097   3.037   2.769  1.5691  1.2434 -0.1948
   40SOL    HW2  120   0.245   2.951   2.730 -1.0355 -1.9863 -2.5525
   41SOL     OW  121   1.978   0.435   1.107 -0.2335  0.0253  0.1206
   41SOL    HW1  122   1.969   0.534   1.142  0.0470  2.2051  1.8155
   41SOL    HW2  123   2.015   0.432   1.007  3.6431 -1.7206 -0.1080
   42SOL     OW  124   0.624   0.364   1.293  0.0878 -0.0492 -0.7848
   42SOL    HW1  125   0.712   0.346   1.344 -1.8421 -0.7833 -2.1838
   42SOL    HW2  126   0.560   0.287   1.317 -3.7714  2.1117 -0.6244
   43SOL     OW  127   2.505   1.056   2.228  0.0967  0.6431  0.2349
   43SOL    HW1  128   2.417   1.072   2.180 -2.1670 -0.5846 -1.8833
   43SOL    HW2  129   2.546   0.967   2.209  2.2178  1.3902 -0.0855
   44SOL     OW  130   2.971   2.897   0.341 -0.0230  0.3410 -0.0775
   44SOL    HW1  131   2.910   2.976   0.321  1.5404 -0.3174 -2.4896
   44SOL    HW2  132   3.020   2.909   0.426 -2.2023  0.6151 -2.1591
   45SOL     OW  133   0.006   2.562   1.715 -0.1405  0.4558 -0.3323
   45SOL    HW1  134   2.965   2.566   1.737 -2.1259 -0.7963  0.0911
   45SOL    HW2  135   0.020   2.596   1.618 -2.1184 -1.4798 -2.4945
   46SOL     OW  136   2.231   2.279   1.965 -0.1704  0.3461  0.1651
   46SOL    HW1  137   2.149   2.338   1.993 -1.7642  0.4025  2.9920
   46SOL    HW2  138   2.313   2.338   1.964  0.3161  4.5904  0.4435
   47SOL     OW  139   1.712   2.373   1.338  0.3229  0.3498  0.0849
   47SOL    HW1  140   1.626   2.365   1.286  1.8926  4.6882  0.3183
   47SOL    HW2  141   1.793   2.315   1.304  2.4040  2.5610 -1.4092
   48SOL     OW  142   0.537   1.672   0.540 -0.2246 -0.0168 -0.5003
   48SOL    HW1  143   0.588   1.649   0.452  0.5013  0.0413  0.0428
   48SOL    HW2  144   0.600   1.716   0.605  3.0671  0.2251 -1.6868
   49SOL     OW  145   2.657   0.364   2.573  0.0396  0.6865  0.2515
   49SOL    HW1  146   2.655   0.309   2.657  0.2777  2.4534 -0.6914
   49SOL    HW2  147   2.578   0.429   2.576  1.4990 -0.6115  0.1529
   50SOL     OW  148   2.182   0.723   0.331 -0.1636 -0.6562 -0.3769
   50SOL    HW1  149   2.266   0.708   0.393  2.2606 -4.9108  3.7008
   50SOL    HW2  150   2.212   0.711   0.232 -1.8807 -3.0638  0.5619
   51SOL     OW  151   1.698   0.373   1.173 -0.4381 -0.1067  0.7055
   51SOL    HW1  152   1.660   0.285   1.202  0.5069  0.1461  2.7669
   51SOL    HW2  153   1.794   0.365   1.147 -0.7764 -1.0892  0.9388
   52SOL     OW  154   1.089   1.426   2.947 -0.3771 -0.1950  0.2495
   52SOL    HW1  155   1.044   1.386   3.031 -0.7161 -0.4980  0.3067
   52SOL    HW2  156   1.138   1.354   2.894  0.0037  2.5443  1.3543
   53SOL     OW  157   0.796   1.436   2.441 -0.4575 -0.0404 -0.4195
   53SOL    HW1  158   0.779   1.517   2.505  0.8987 -0.8546  1.0322
   53SOL    HW2  159   0.760   1.440   2.347  1.0804 -2.2147 -1.8242
   54SOL     OW  160   2.098   0.198   1.183 -0.4708 -0.2249 -0.3487
   54SOL    HW1  161   2.032   0.122   1.193 -1.7829 -0.3872  0.2476
   54SOL    HW2  162   2.051   0.281   1.153 -0.3189 -1.1928 -1.0338
   55SOL     OW  163   2.672   2.899   0.715 -0.1828 -0.0815  0.0636
   55SOL    HW1  164   2.763   2.865   0.690 -1.0601  0.2808  2.3712
   55SOL    HW2  165   2.612   2.906   0.632 -1.1016 -2.1646  0.4623
   56SOL     OW  166   0.746   2.868   1.600  0.2220  0.1946 -0.0867
   56SOL    HW1  167   0.786   2.902   1.514 -2.9627 -0.5192  2.4922
   56SOL    HW2  168   0.801   2.888   1.687  2.0355 -1.9788  1.6647
   57SOL     OW  169   1.568   1.280   0.459  0.3522  0.4458 -0.2289
   57SOL    HW1  170   1.496   1.262   0.531 -0.8205 -0.9045 -1.0597
   57SOL    HW2  171   1.563   1.374   0.425 -1.0241 -2.3919  0.0888
   58SOL     OW  172   2.992   0.670   2.423 -0.4433 -0.3138  0.2054
   58SOL    HW1  173   2.957   0.736   2.347  0.2039  3.1036 -0.1631
   58SOL    HW2  174   2.925   0.659   2.496  2.3208 -1.2171  0.2147
   59SOL     OW  175   0.974   2.671   2.381 -0.3198  0.0627  0.0924
   59SOL    HW1  176   1.069   2.635   2.380 -1.1147 -0.4684  0.7719
   59SOL    HW2  177   0.923   2.613   2.445 -0.8372 -0.8158  0.5026
   60SOL     OW  178   2.398   2.750   0.733 -0.1311 -0.1997  0.4136
   60SOL    HW1  179   2.418   2.835   0.671 -0.7712  2.3291 -0.0944
   60SOL    HW2  180   2.477   2.725   0.792 -2.2776 -1.0729 -2.0713
   61SOL     OW  181   1.144   2.374   0.666  0.2224 -0.7756 -0.6014
   61SOL    HW1  182   1.081   2.400   0.594  0.3850 -2.5554  2.8241
   61SOL    HW2  183   1.109   2.420   0.751 -1.6208 -1.0056 -1.6917
   62SOL     OW  184   2.362   2.160   2.615 -0.5190 -0.0223  0.1297
   62SOL    HW1  185   2.321   2.081   2.561 -1.6739 -1.2711 -0.7517
   62SOL    HW2  186   2.336   2.146   2.715  1.2243 -1.1015 -3.2764
   63SOL     OW  187   2.107   0.897   2.776 -0.2248  0.3023 -0.9150
   63SOL    HW1  188   2.111   0.827   2.704  0.8074 -2.9703  4.2188
   63SOL    HW2  189   2.007   0.909   2.791 -1.3852  1.2882 -0.0911
   64SOL     OW  190   0.956   0.762   0.016 -0.6288 -0.0197  0.0873
   64SOL    HW1  191   0.975   0.666   3.042 -2.2457 -3.6348 -0.9666
   64SOL    HW2  192   0.981   0.771   0.115 -1.8878  0.7387 -0.0911
   65SOL     OW  193   0.974   1.982   0.582 -0.2868  0.7849 -0.2406
   65SOL    HW1  194   1.031   1.983   0.667 -1.5719 -0.9399  0.3901
   65SOL    HW2  195   1.037   1.992   0.499  2.9137  1.3278 -1.2059
   66SOL     OW  196   0.334   1.224   1.900 -0.1009 -0.4002 -0.0126
   66SOL    HW1  197   0.309   1.310   1.944  0.8684 -2.2436 -1.3117
   66SOL    HW2  198   0.428   1.191   1.928  1.6017 -0.3389  0.5836
   67SOL     OW  199   2.241   2.771   2.438  0.0145 -0.0901 -0.2573
   67SOL    HW1  200   2.213   2.838   2.509 -0.7369 -1.1059  0.8665
   67SOL    HW2  201   2.181   2.795   2.356 -2.1179 -4.3211 -0.0403
   68SOL     OW  202   0.565   1.771   1.359 -0.2616  0.1116 -0.0429
   68SOL    HW1  203   0.589   1.671   1.364 -1.1222 -0.1006  2.2547
   68SOL    HW2  204   0.642   1.826   1.330 -0.3483  0.3204  0.2386
   69SOL     OW  205   1.000   2.397   0.215  0.0961  0.4928  0.0878
   69SOL    HW1  206   0.937   2.463   0.257  2.0212 -1.8920  1.4339
   69SOL    HW2  207   1.090   2.426   0.244 -3.8016  0.6844 -0.1136
   70SOL     OW  208   2.965   1.093   2.867 -0.4078  0.3449  0.0019
   70SOL    HW1  209   3.027   1.140   2.929 -2.4152  0.6593 -0.1410
   70SOL    HW2  210   3.021   1.049   2.791  1.4744 -1.9026 -1.1529
   71SOL     OW  211   2.881   1.352   2.775 -0.4589  0.2806 -0.1848
   71SOL    HW1  212   2.903   1.253   2.791 -1.0134 -0.3102 -0.2269
   71SOL    HW2  213   2.818   1.360   2.695 -1.4511  0.3090 -1.6837
   72SOL     OW  214   2.807   2.146   0.243  0.0273  0.5318  0.2389
   72SOL    HW1  215   2.817   2.119   0.337 -1.6506  2.0716 -2.6111
   72SOL    HW2  216   2.891   2.119   0.190 -1.5822 -0.9294  1.0910
   73SOL     OW  217   0.849   1.546   0.189  0.0580  0.4623 -0.3785
   73SOL    HW1  218   0.900   1.461   0.158  1.5925 -1.7065 -2.1323
   73SOL    HW2  219   0.907   1.630   0.180 -1.0792 -1.4140 -1.7114
   74SOL     OW  220   0.103   0.775   0.005 -0.0286 -0.0017 -0.2637
   74SOL    HW1  221   0.036   0.740   0.074 -1.3984 -0.2016  1.9380
   74SOL    HW2  222   0.063   0.749   2.966 -2.7698 -1.2559 -2.2368
   75SOL     OW  223   1.971   1.383   1.715 -0.1885  0.6114  0.6475
   75SOL    HW1  224   2.039   1.460   1.700  1.0138  1.0659  0.4583
   75SOL    HW2  225   1.876   1.420   1.687  1.0650  0.1795  1.4369
   76SOL     OW  226   2.079   2.501   1.562 -0.1379  0.5858 -0.1506
   76SOL    HW1  227   2.069   2.450   1.649 -1.7129 -0.7743 -0.7758
   76SOL    HW2  228   1.998   2.559   1.539 -2.2892  0.0101  2.2945
   77SOL     OW  229   2.577   0.425   1.072 -0.7753 -0.2288 -0.3438
   77SOL    HW1  230   2.606   0.439   1.170 -2.2813  0.0157  1.3226
   77SOL    HW2  231   2.504   0.351   1.068  0.6125  2.8678  1.5681
   78SOL     OW  232   1.550   1.075   0.112 -0.1684  0.2438 -0.3547
   78SOL    HW1  233   1.553   1.176   0.131  1.6744  0.0721  0.3848
   78SOL    HW2  234   1.645   1.031   0.092  3.9525  0.2791  1.1837
   79SOL     OW  235   0.538   1.826   1.801  0.4268  0.6423  0.0663
   79SOL    HW1  236   0.633   1.830   1.770 -2.3558 -1.7044  0.6481
   79SOL    HW2  237   0.473   1.799   1.727  3.3049  0.5938  0.9941
   80SOL     OW  238   1.566   1.034   1.277  0.5305  0.1994  0.2960
   80SOL    HW1  239   1.517   0.989   1.354  2.0123 -0.8174  0.3972
   80SOL    HW2  240   1.528   1.003   1.186  1.0263  0.9289 -0.7771
   81SOL     OW  241   0.690   3.013   1.005  0.6435 -0.1498  0.2048
   81SOL    HW1  242   0.641   2.959   0.933  0.9061 -0.8294 -0.9022
   81SOL    HW2  243   0.670   0.054   0.988  0.7676  2.5681 -2.3382
   82SOL     OW  244   1.811   2.682   1.720  0.3409  0.1463  0.4969
   82SOL    HW1  245   1.747   2.761   1.734  0.8609 -1.2802 -1.6513
   82SOL    HW2  246   1.766   2.589   1.737 -2.9342 -2.3036  0.4982
   83SOL     OW  247   0.692   2.612   1.160  0.7577 -0.3514 -0.2179
   83SOL    HW1  248   0.589   2.589   1.149 -1.3918 -1.5043  0.2993
   83SOL    HW2  249   0.740   2.518   1.172  0.3159 -0.5836 -0.8127
   84SOL     OW  250   0.435   1.150   2.580  0.2271 -0.4498  0.6079
   84SOL    HW1  251   0.437   1.253   2.572 -0.6561  2.9467 -0.3602
   84SOL    HW2  252   0.438   1.105   2.487 -1.9399 -2.0577  1.7395
   85SOL     OW  253   3.037   2.236   1.173 -0.4801  0.3469 -0.6357
   85SOL    HW1  254   0.041   2.295   1.227  1.3707 -0.0007  1.2460
   85SOL    HW2  255   0.031   2.169   1.113 -0.7976  2.5966 -1.8092
   86SOL     OW  256   2.708   2.218   1.581 -0.3643 -0.3299 -0.0866
   86SOL    HW1  257   2.675   2.314   1.587 -2.1110  0.2319  1.4728
   86SOL    HW2  258   2.649   2.170   1.514  1.3228  1.7914  0.2471
   87SOL     OW  259   2.649   2.085   2.844 -0.0279  0.0387 -0.1501
   87SOL    HW1  260   2.599   2.164   2.807 -1.3557 -2.2234  2.0732
   87SOL    HW2  261   2.644   2.081   2.949 -0.5251  0.3210 -1.4513
   88SOL     OW  262   0.345   1.793   1.197 -0.5447  0.4651 -0.1473
   88SOL    HW1  263   0.273   1.859   1.227  2.6134  1.3539 -0.7720
   88SOL    HW2  264   0.419   1.783   1.263 -0.9959  0.1895 -2.3607
   89SOL     OW  265   1.042   0.034   1.718 -0.4698  0.3021 -0.0938
   89SOL    HW1  266   1.082   0.130   1.692 -0.5294  1.2405  0.5433
   89SOL    HW2  267   1.099   3.057   1.795 -0.6226 -1.6276 -1.4850
   90SOL     OW  268   3.026   1.816   1.585 -0.1685  0.6032  0.3510
   90SOL    HW1  269   2.927   1.838   1.581  0.3114 -2.0405 -0.3049
   90SOL    HW2  270   0.024   1.898   1.561 -0.1336 -1.6470 -2.4247
   91SOL     OW  271   1.044   1.692   0.677  0.5418  0.2702  0.0547
   91SOL    HW1  272   1.030   1.673   0.577  0.6312  0.1682  1.0478
   91SOL    HW2  273   1.056   1.793   0.691  0.4637  1.1525  0.2482
   92SOL     OW  274   2.458   3.018   1.073 -0.3508 -0.2753 -0.1787
   92SOL    HW1  275   2.416   0.017   1.147  1.3126 -1.3694  0.1053
   92SOL    HW2  276   2.515   0.027   1.015  1.1928  0.3110 -0.0397
   93SOL     OW  277   2.599   1.332   2.963 -0.2323 -0.3493  0.5799
   93SOL    HW1  278   2.660   1.288   3.031  1.1255  1.1867 -2.1903
   93SOL    HW2  279   2.568   1.272   2.884 -2.0801 -1.7510 -0.3956
   94SOL     OW  280   2.617   2.500   2.509 -0.6229 -0.9738 -0.6072
   94SOL    HW1  281   2.590   2.404   2.507  0.7800  1.5756 -3.4853
   94SOL    HW2  282   2.558   2.555   2.574 -0.2675 -1.1411 -1.6200
   95SOL     OW  283   1.805   0.389   1.662  0.0774 -0.0829  0.2470
   95SOL    HW1  284   1.817   0.435   1.572 -1.0845  0.6449  0.5572
   95SOL    HW2  285   1.802   0.286   1.645 -1.5152 -1.6099 -0.6753
   96SOL     OW  286   2.886   2.983   1.578  0.1807 -0.7050 -0.1232
   96SOL    HW1  287   2.896   2.885   1.549 -2.3669 -0.2529  2.7498
   96SOL    HW2  288   2.956   3.013   1.643  2.2946  0.9871 -1.4787
   97SOL     OW  289   2.337   0.007   1.573  0.5423 -0.1334  0.4369
   97SOL    HW1  290   2.416   3.032   1.618  1.4808 -2.5649  1.2083
   97SOL    HW2  291   2.301   0.085   1.622 -0.2001 -0.3627 -0.0559
   98SOL     OW  292   1.366   2.311   1.508  0.2927 -0.0152 -0.1340
   98SOL    HW1  293   1.446   2.375   1.516  1.7113 -1.5260 -2.7528
   98SOL    HW2  294   1.331   2.304   1.417  0.4810 -0.8085  3.1269
   99SOL     OW  295   0.189   2.868   1.744 -0.2532  0.0711 -0.1326
   99SOL    HW1  296   0.218   2.818   1.830  1.2819 -1.3339  2.4272
   99SOL    HW2  297   0.107   2.924   1.763 -1.0659 -1.5811  0.9844
  100SOL     OW  298   0.149   1.044   2.406  0.5313  0.1723 -0.0053
  100SOL    HW1  299   0.123   1.017   2.312  0.4127 -0.6814 -1.3315
  100SOL    HW2  300   0.246   1.050   2.415 -2.1651  1.7848  0.3744
  101SOL     OW  301   1.957   0.666   0.519  0.2917 -0.3479 -0.7467
  101SOL    HW1  302   2.049   0.695   0.477  3.3141  0.3887 -4.2685
  101SOL    HW2  303   1.909   0.737   0.575 -1.8019  1.0727 -0.4402
  102SOL     OW  304   0.265   0.646   1.087 -0.0331 -0.2275  0.1878
  102SOL    HW1  305   0.287   0.604   0.994 -1.9973 -1.1417 -3.0348
  102SOL    HW2  306   0.219   0.739   1.076  1.1727  1.4836 -2.3117
  103SOL     OW  307   2.428   0.776   2.598 -0.4347  0.4323  0.1092
  103SOL    HW1  308   2.440   0.797   2.697 -0.4925  2.0681  0.9130
  103SOL    HW2  309   2.375   0.848   2.548 -0.1329  0.7079  1.2038
  104SOL     OW  310   0.299   0.306   2.511  0.3303 -0.0863 -0.3743
  104SOL    HW1  311   0.375   0.244   2.491 -1.7219  1.8359  0.7233
  104SOL    HW2  312   0.318   0.364   2.594  0.9305 -1.6175 -2.7463
  105SOL     OW  313   2.033   0.869   1.648  0.4144 -0.0205 -0.3263
  105SOL    HW1  314   2.089   0.844   1.564 -1.5809  1.3169 -0.1891
  105SOL    HW2  315   1.990   0.959   1.647  2.7054  0.6388 -0.2206
  106SOL     OW  316   1.149   2.774   0.392 -0.1741  0.2685 -0.2444
  106SOL    HW1  317   1.222   2.830   0.436  2.6379 -0.8629  2.3308
  106SOL    HW2  318   1.187   2.688   0.357 -1.6985  2.1330 -0.3421
  107SOL     OW  319   0.391   1.794   1.554  0.5958 -0.3496 -0.3266
  107SOL    HW1  320   0.300   1.776   1.517 -1.7441  0.5191 -0.0029
  107SOL    HW2  321   0.463   1.766   1.481  2.0538  1.0316 -3.7695
  108SOL     OW  322   0.293   0.010   2.388  0.1241  0.2858 -0.1567
  108SOL    HW1  323   0.314   3.005   2.463 -1.0565  0.7664  0.5218
  108SOL    HW2  324   0.365   0.080   2.387 -0.2801  1.0701  0.6779
  109SOL     OW  325   2.088   0.167   0.437 -0.9618  0.5350 -0.8085
  109SOL    HW1  326   2.038   0.201   0.354 -1.7736  1.0960 -1.5907
  109SOL    HW2  327   2.134   0.244   0.485  0.6788 -1.1222 -0.7614
  110SOL     OW  328   0.295   2.202   2.307 -0.1104 -0.1955  0.3076
  110SOL    HW1  329   0.295   2.279   2.238 -1.6598 -0.6509  0.6892
  110SOL    HW2  330   0.333   2.234   2.395 -0.2380  0.7349  2.2396
  111SOL     OW  331   1.692   2.889   2.125  0.2068  0.2737  0.0679
  111SOL    HW1  332   1.614   2.945   2.090  1.1862 -0.3368 -0.1441
  111SOL    HW2  333   1.783   2.936   2.119 -1.7124 -1.7547  2.2146
  112SOL     OW  334   1.950   2.080   2.535 -0.4198  0.0575 -0.2255
  112SOL    HW1  335   1.940   2.006   2.606  0.5198 -0.1083 -2.2968
  112SOL    HW2  336   1.951   2.051   2.436 -0.7914 -0.7773 -0.6824
  113SOL     OW  337   2.456   2.468   1.950 -0.7244 -0.2289 -0.4104
  113SOL    HW1  338   2.512   2.517   2.018 -1.5326  1.1077 -0.5454
  113SOL    HW2  339   2.510   2.396   1.899 -0.1263  0.4858 -1.7204
  114SOL     OW  340   2.566   0.860   0.874 -0.2746 -0.4287  0.3353
  114SOL    HW1  341   2.653   0.824   0.831 -2.4434 -0.3887  3.1245
  114SOL    HW2  342   2.562   0.958   0.847  1.3031 -3.0376 -0.7700
  115SOL     OW  343   0.323   1.672   2.796 -0.4948 -0.3872 -0.3893
  115SOL    HW1  344   0.324   1.762   2.839  2.3066 -0.6121  1.7925
  115SOL    HW2  345   0.236   1.665   2.741  1.4041  1.7601 -0.4265
  116SOL     OW  346   0.291   1.472   2.006 -0.3368  0.5457  0.2873
  116SOL    HW1  347   0.323   1.568   2.003 -1.4861  0.1486 -1.4818
  116SOL    HW2  348   0.196   1.467   2.047 -0.5263  1.4681 -0.4892
  117SOL     OW  349   2.785   0.269   0.714 -0.1383 -0.5531 -0.6168
  117SOL    HW1  350   2.791   0.303   0.811  1.8985 -2.1511 -1.1893
  117SOL    HW2  351   2.696   0.228   0.696  2.6502  2.4471 -1.7341
  118SOL     OW  352   1.180   1.947   1.845 -0.4212 -0.1954 -0.5285
  118SOL    HW1  353   1.134   2.028   1.797 -0.4304  1.5147 -2.3527
  118SOL    HW2  354   1.251   1.982   1.913  3.8857  1.6963  0.7550
  119SOL     OW  355   1.233   2.116   3.038  0.1207 -0.0137 -0.0270
  119SOL    HW1  356   1.216   2.060   2.954 -1.7149 -1.6661 -1.8638
  119SOL    HW2  357   1.162   2.101   0.050 -3.8910 -1.8179 -0.4890
  120SOL     OW  358   0.425   1.454   2.432 -0.3774  0.3005  0.5053
  120SOL    HW1  359   0.355   1.527   2.421 -0.6423 -0.0181 -0.8859
  120SOL    HW2  360   0.423   1.395   2.349 -0.5149  1.5013 -2.3773
  121SOL     OW  361   1.960   2.559   0.948  0.7915  0.5173  0.7802
  121SOL    HW1  362   2.029   2.587   0.878  2.2012  0.7615  0.3487
  121SOL    HW2  363   1.866   2.544   0.905 -2.0007 -0.1809 -1.7947
  122SOL     OW  364   2.178   2.015   1.952 -0.2803 -0.1555 -0.5266
  122SOL    HW1  365   2.256   1.963   1.909  0.1520 -2.0492  2.4257
  122SOL    HW2  366   2.199   2.115   1.957 -2.6215 -1.0231 -1.1802
  123SOL     OW  367   3.034   0.105   0.768  0.2450 -0.2670  0.2089
  123SOL    HW1  368   2.963   0.166   0.726 -0.2227 -1.4110  1.3659
  123SOL    HW2  369   0.016   0.041   0.701  1.1073 -0.7161  1.5497
  124SOL     OW  370   1.864   0.649   2.478 -0.3983  0.2010 -0.4514
  124SOL    HW1  371   1.827   0.593   2.551 -0.3875  0.6586 -0.2996
  124SOL    HW2  372   1.856   0.602   2.387  1.3717 -0.1586 -0.7991
  125SOL     OW  373   0.460   1.454   0.742 -0.1081  0.2968 -0.2566
  125SOL    HW1  374   0.525   1.509   0.800 -0.0167  2.6188  2.5025
  125SOL    HW2  375   0.463   1.488   0.648 -1.9260  1.7985 -0.7459
  126SOL     OW  376   2.480   1.640   0.483 -0.2299  0.1500 -0.2756
  126SOL    HW1  377   2.560   1.688   0.442  0.6836  1.0171  0.5661
  126SOL    HW2  378   2.461   1.695   0.571 -0.7924  0.0315 -0.7184
  127SOL     OW  379   0.160   1.697   1.427 -0.0011  0.0579 -0.2175
  127SOL    HW1  380   0.073   1.732   1.474 -0.7625 -0.4224  0.8512
  127SOL    HW2  381   0.162   1.718   1.326 -0.1070  0.1316 -1.8817
  128SOL     OW  382   0.838   0.585   2.740  0.2107  0.1298 -0.3034
  128SOL    HW1  383   0.865   0.551   2.833  0.5137 -0.7892  3.1444
  128SOL    HW2  384   0.915   0.633   2.694 -0.4128 -1.8037  1.5502
  129SOL     OW  385   2.112   1.475   1.013  0.0847  0.2308  0.2406
  129SOL    HW1  386   2.182   1.408   1.039 -1.4932 -0.7782 -1.6465
  129SOL    HW2  387   2.044   1.482   1.089  1.7541 -0.1981 -0.0151
  130SOL     OW  388   2.140   1.530   1.354 -0.1545 -0.2698 -0.0923
  130SOL    HW1  389   2.062   1.471   1.325 -2.1291  1.8751 -1.2484
  130SOL    HW2  390   2.215   1.474   1.391 -1.2688  1.4904 -1.0721
  131SOL     OW  391   2.738   0.946   2.854 -0.0979  0.2191 -0.0315
  131SOL    HW1  392   2.827   0.989   2.867 -0.1189  2.5057  0.5200
  131SOL    HW2  393   2.743   0.843   2.855  1.5433  0.3678 -1.4489
  132SOL     OW  394   2.571   2.218   1.827 -0.1384 -0.1966  0.2933
  132SOL    HW1  395   2.618   2.204   1.735 -1.3281  0.8946 -2.4896
  132SOL    HW2  396   2.632   2.200   1.911  1.2721 -1.6455  1.0787
  133SOL     OW  397   0.648   0.970   1.010 -0.1979  0.0225 -0.3469
  133SOL    HW1  398   0.707   1.048   0.972  2.6855 -0.3293  1.5403
  133SOL    HW2  399   0.706   0.894   1.045  1.6419 -1.0617 -1.1293
  134SOL     OW  400   0.201   0.943   0.300 -0.4581  0.2180  0.1204
  134SOL    HW1  401   0.206   0.880   0.383  0.2240 -1.1708  3.4110
  134SOL    HW2  402   0.147   0.900   0.222 -3.4406 -1.3157 -3.7402
  135SOL     OW  403   1.930   1.431   1.211 -0.0497 -0.4444 -0.0702
  135SOL    HW1  404   1.925   1.328   1.222 -1.4724 -0.3956  2.6814
  135SOL    HW2  405   1.850   1.473   1.166  0.4899  1.0474 -2.7305
  136SOL     OW  406   2.118   0.973   0.741  0.4066 -0.2245  0.2502
  136SOL    HW1  407   2.194   0.905   0.746 -1.4587 -1.8430  0.6391
  136SOL    HW2  408   2.084   0.978   0.647 -0.8765  1.8228  0.0338
  137SOL     OW  409   2.421   1.778   0.710 -0.4266 -0.5169 -0.2015
  137SOL    HW1  410   2.330   1.753   0.752 -0.9858  1.3043  0.8266
  137SOL    HW2  411   2.496   1.762   0.781  1.6521 -0.6397 -1.2685
  138SOL     OW  412   1.708   0.643   1.949  0.1373  0.2460 -0.2680
  138SOL    HW1  413   1.609   0.672   1.947  0.1237  0.8471 -3.1112
  138SOL    HW2  414   1.747   0.664   1.857 -0.0869 -0.2973 -2.4134
  139SOL     OW  415   2.373   2.815   2.897  0.1071  0.1135  0.3416
  139SOL    HW1  416   2.441   2.762   2.953 -0.6575  1.1869  1.0813
  139SOL    HW2  417   2.282   2.766   2.897 -0.3561  0.3333 -0.0733
  140SOL     OW  418   1.642   2.037   2.166 -0.0334 -0.3421 -0.2466
  140SOL    HW1  419   1.661   2.106   2.239  0.6528  2.3970 -0.8161
  140SOL    HW2  420   1.593   1.952   2.201  0.4064 -3.3639  0.1167
  141SOL     OW  421   1.750   1.808   1.321  0.2864  0.1120 -0.1142
  141SOL    HW1  422   1.839   1.791   1.372 -0.9876  2.6733 -0.5990
  141SOL    HW2  423   1.678   1.756   1.367 -0.1889 -1.0758 -1.2229
  142SOL     OW  424   0.152   0.259   0.047  0.0868  0.4432  0.1403
  142SOL    HW1  425   0.113   0.189   0.112  0.9323  0.4821 -2.0049
  142SOL    HW2  426   0.085   0.287   3.035  1.8735  0.6255  0.5050
  143SOL     OW  427   0.184   2.105   2.788 -0.0569 -0.0150  0.2045
  143SOL    HW1  428   0.233   2.032   2.836 -0.9574 -0.8630 -1.5654
  143SOL    HW2  429   0.249   2.149   2.724 -0.6324 -0.9005 -0.4038
  144SOL     OW  430   0.837   2.799   1.886  0.0510  0.1719  0.7159
  144SOL    HW1  431   0.905   2.801   1.958 -1.0205 -2.4157 -1.2610
  144SOL    HW2  432   0.853   2.717   1.833 -0.7949  2.0794 -0.6185
  145SOL     OW  433   2.030   1.225   0.354 -0.0706  0.1309  0.4957
  145SOL    HW1  434   2.014   1.296   0.427 -1.3679  5.4295  0.3294
  145SOL    HW2  435   2.118   1.243   0.303  3.9162  2.5036  3.4156
  146SOL     OW  436   2.766   2.699   2.900 -0.3360 -0.1162  0.1178
  146SOL    HW1  437   2.730   2.769   2.833 -1.5524  0.7014 -1.2510
  146SOL    HW2  438   2.828   2.741   2.970  1.3342 -1.1023 -0.1995
  147SOL     OW  439   2.844   2.224   0.954 -0.1584 -0.0373  0.2634
  147SOL    HW1  440   2.893   2.203   1.042 -2.4527 -3.6627 -1.0661
  147SOL    HW2  441   2.746   2.260   0.967 -1.7855 -1.9905 -0.8681
  148SOL     OW  442   2.118   3.036   2.883 -0.9861 -0.0755 -0.3622
  148SOL    HW1  443   2.189   3.039   2.959  1.4502  0.5243  0.8811
  148SOL    HW2  444   2.099   2.941   2.856 -0.1834  1.4721  0.5765
  149SOL     OW  445   1.127   0.327   2.666  0.0925  0.2346 -0.1830
  149SOL    HW1  446   1.143   0.427   2.697 -2.9144  2.8013 -2.3251
  149SOL    HW2  447   1.042   0.328   2.606 -0.5896 -1.0436 -0.6764
  150SOL     OW  448   0.907   2.438   0.527 -0.4642  0.4906  0.7165
  150SOL    HW1  449   0.872   2.350   0.494  0.1420  1.9978 -0.2594
  150SOL    HW2  450   0.842   2.499   0.572  1.8070 -2.2982 -0.9628
  151SOL     OW  451   2.749   1.770   0.052 -0.3511 -0.3515  0.6590
  151SOL    HW1  452   2.764   1.697   3.039 -1.4290  1.1405 -0.3769
  151SOL    HW2  453   2.834   1.825   0.066 -1.4763  0.6905  0.8168
  152SOL     OW  454   0.132   1.119   0.919  0.5067 -0.3482 -0.1324
  152SOL    HW1  455   0.220   1.152   0.889 -2.1757 -0.1654  1.3003
  152SOL    HW2  456   0.094   1.164   1.003  1.6941 -0.7824 -0.3594
  153SOL     OW  457   2.352   2.773   0.347 -0.1498  0.4126 -0.1056
  153SOL    HW1  458   2.424   2.712   0.392  0.3119  0.6968  3.3530
  153SOL    HW2  459   2.314   2.836   0.419 -0.2939 -1.0501 -1.9795
  154SOL     OW  460   0.757   0.612   1.477 -0.3736  0.0496 -0.1200
  154SOL    HW1  461   0.748   0.563   1.565 -0.0009  1.4406 -0.9127
  154SOL    HW2  462   0.672   0.666   1.455  0.1791  1.7812  1.1930
  155SOL     OW  463   2.977   1.768   1.198  0.0884 -0.4193 -0.3079
  155SOL    HW1  464   2.914   1.692   1.235 -0.2431 -0.4437  1.9152
  155SOL    HW2  465   2.972   1.861   1.247 -0.7411  1.8669 -0.0522
  156SOL     OW  466   1.891   2.044   3.002 -0.4264 -0.0709  0.0343
  156SOL    HW1  467   1.946   1.980   3.059 -0.2877 -0.2165 -0.8936
  156SOL    HW2  468   1.946   2.131   2.983  1.6632 -0.7063  1.1059
  157SOL     OW  469   0.848   2.669   0.909 -0.7334  0.1498  0.0462
  157SOL    HW1  470   0.788   2.647   0.986  0.6648 -1.0788 -0.1798
  157SOL    HW2  471   0.893   2.759   0.921 -0.4744  0.9514 -1.5958
  158SOL     OW  472   2.431   0.513   2.596 -0.2773  0.6528 -0.5529
  158SOL    HW1  473   2.375   0.483   2.672  2.6523  2.0577 -2.9910
  158SOL    HW2  474   2.430   0.614   2.598  2.7493 -0.7349 -1.1624
  159SOL     OW  475   0.560   0.177   2.886  0.3671  0.2383  0.5183
  159SOL    HW1  476   0.581   0.274   2.886 -0.6802  0.6749  0.4347
  159SOL    HW2  477   0.465   0.156   2.927 -1.7049  3.5116 -0.7815
  160SOL     OW  478   0.812   2.042   0.021  0.4955 -0.5778  0.3765
  160SOL    HW1  479   0.764   2.130   3.057 -1.8380 -1.9177 -1.2488
  160SOL    HW2  480   0.817   1.983   2.998  1.4573  1.8756  0.7334
  161SOL     OW  481   3.014   2.098   2.987  0.0777 -0.6935  0.6518
  161SOL    HW1  482   0.026   2.074   2.922 -0.8244  1.0834  1.4262
  161SOL    HW2  483   2.963   2.179   2.958 -0.1483 -0.4336  1.5183
  162SOL     OW  484   0.429   2.534   1.136  0.0493  0.0661 -0.0661
  162SOL    HW1  485   0.416   2.474   1.051 -2.0943 -1.4456 -2.1064
  162SOL    HW2  486   0.365   2.616   1.140  0.7842 -0.3655  0.1780
  163SOL     OW  487   2.463   0.767   2.894 -0.2265  0.4269 -0.0333
  163SOL    HW1  488   2.412   0.853   2.907  1.1917  2.0661  1.0219
  163SOL    HW2  489   2.412   0.679   2.898  1.4827  1.4311 -1.1975
  164SOL     OW  490   2.924   2.071   0.749 -0.1625  0.0629  0.3642
  164SOL    HW1  491   2.885   1.979   0.761 -0.5492  1.9843  1.1480
  164SOL    HW2  492   2.883   2.132   0.822  0.3160  0.9675  0.3579
  165SOL     OW  493   2.743   0.100   1.396 -0.6701 -0.3223 -0.2347
  165SOL    HW1  494   2.793   0.057   1.476  0.5363  0.1664 -2.8749
  165SOL    HW2  495   2.743   0.032   1.320  0.2259 -2.0587  2.1804
  166SOL     OW  496   2.223   0.344   0.622  0.0556 -0.2282 -0.1494
  166SOL    HW1  497   2.265   0.410   0.553  0.9880  2.8602 -0.1959
  166SOL    HW2  498   2.225   0.381   0.716  2.1948  2.6166  0.9581
  167SOL     OW  499   0.432   0.255   1.067 -0.3888 -0.1289  0.0676
  167SOL    HW1  500   0.412   0.219   1.157  1.7199 -0.7318 -0.5483
  167SOL    HW2  501   0.535   0.255   1.048 -0.1234  0.3893  0.4425
  168SOL     OW  502   2.501   2.787   2.335  0.2905  0.2873  0.1575
  168SOL    HW1  503   2.558   2.753   2.411  1.4466 -1.6752  0.3158
  168SOL    HW2  504   2.403   2.773   2.351 -1.3005  0.1556 -0.6721
  169SOL     OW  505   3.019   1.501   0.711  0.1384  0.8929 -0.6508
  169SOL    HW1  506   3.045   1.472   0.621 -0.3496  1.3455  1.8497
  169SOL    HW2  507   0.024   1.577   0.737  1.9414 -0.5083 -0.5349
  170SOL     OW  508   2.628   0.880   1.306  0.1087  0.2524  0.2328
  170SOL    HW1  509   2.589   0.806   1.244  0.8381  1.0596 -0.4530
  170SOL    HW2  510   2.565   0.884   1.384 -0.4457 -0.6551 -1.7574
  171SOL     OW  511   1.095   2.387   1.579 -0.4541  0.1296  0.6978
  171SOL    HW1  512   1.189   2.357   1.561 -1.6976  1.4159 -1.1070
  171SOL    HW2  513   1.082   2.477   1.535  1.0196 -1.0812 -3.0144
  172SOL     OW  514   0.483   2.366   1.328  0.6435 -0.2107  0.1451
  172SOL    HW1  515   0.452   2.269   1.309 -0.6333 -0.6572 -0.3081
  172SOL    HW2  516   0.463   2.423   1.247 -4.1251  1.4364 -2.8351
  173SOL     OW  517   1.373   2.970   0.202 -0.1224  0.4902 -0.0253
  173SOL    HW1  518   1.439   2.914   0.147  1.4015  0.0881 -0.2057
  173SOL    HW2  519   1.416   3.056   0.232 -1.8162 -0.1489  0.3108
  174SOL     OW  520   1.296   2.671   2.630 -0.1786  0.2821  0.6243
  174SOL    HW1  521   1.208   2.705   2.671  1.1509 -1.9817 -0.2494
  174SOL    HW2  522   1.339   2.596   2.688  3.7329  1.3828  0.6651
  175SOL     OW  523   1.944   0.218   0.224  0.8188  0.3259  0.1683
  175SOL    HW1  524   1.899   0.265   0.148  2.9172  1.0452 -0.4748
  175SOL    HW2  525   1.883   0.156   0.276  0.4220 -1.1565 -1.7265
  176SOL     OW  526   1.606   0.202   0.025  0.5621 -0.2512  0.1180
  176SOL    HW1  527   1.600   0.140   3.005 -0.3614  0.6416  1.2816
  176SOL    HW2  528   1.581   0.152   0.109 -0.9892  0.4754 -2.3780
  177SOL     OW  529   0.819   1.547   0.541 -0.1243  0.4893  0.6112
  177SOL    HW1  530   0.826   1.581   0.635 -1.0217 -1.9185 -1.2362
  177SOL    HW2  531   0.880   1.603   0.477 -0.1954 -0.0081 -4.1718
  178SOL     OW  532   2.337   1.705   2.187  0.0358  0.1920  0.3691
  178SOL    HW1  533   2.386   1.643   2.119  0.1951 -1.9711 -1.5312
  178SOL    HW2  534   2.318   1.648   2.275  2.6814 -0.5029  2.0619
  179SOL     OW  535   0.446   2.534   2.730  0.4051 -0.2484 -0.1846
  179SOL    HW1  536   0.467   2.634   2.747 -0.7784  0.4759  2.0332
  179SOL    HW2  537   0.499   2.496   2.653 -2.1977  1.9638 -0.4594
  180SOL     OW  538   1.776   2.010   1.720  0.5861 -0.1038  0.7944
  180SOL    HW1  539   1.855   1.970   1.769  0.8468  0.8022 -1.9247
  180SOL    HW2  540   1.712   2.067   1.775  0.3006  0.3062 -2.3116
  181SOL     OW  541   1.235   1.122   2.505 -0.3862  0.1268 -0.1173
  181SOL    HW1  542   1.203   1.209   2.548  0.0573  0.5468  2.5201
  181SOL    HW2  543   1.166   1.084   2.445  1.1123 -0.6602 -1.2514
  182SOL     OW  544   3.038   0.425   2.678 -0.2841 -0.0817 -0.2404
  182SOL    HW1  545   3.040   0.358   2.602 -0.6136  0.3233 -0.7367
  182SOL    HW2  546   0.029   0.512   2.652  0.8766  0.0007  1.4071
  183SOL     OW  547   1.077   0.279   2.943 -0.5576 -0.3407  0.1738
  183SOL    HW1  548   1.033   0.186   2.942 -0.3798  0.9972  0.8976
  183SOL    HW2  549   1.128   0.300   2.860  0.2053  0.1366  0.6361
  184SOL     OW  550   1.258   1.063   1.308 -0.5089 -0.4020 -0.4634
  184SOL    HW1  551   1.301   1.147   1.336 -1.9798 -0.6413  1.9890
  184SOL    HW2  552   1.308   1.028   1.224  1.7474 -1.3289 -0.5108
  185SOL     OW  553   3.035   1.215   1.472  0.0994 -0.1050 -0.1905
  185SOL    HW1  554   0.011   1.302   1.509 -1.7706 -1.9477 -0.6743
  185SOL    HW2  555   2.943   1.230   1.436 -0.2242  0.6188  1.6150
  186SOL     OW  556   0.485   1.733   2.597 -0.0038 -0.1608  0.0965
  186SOL    HW1  557   0.568   1.684   2.573 -0.4061 -0.5681 -1.5005
  186SOL    HW2  558   0.448   1.697   2.686  1.0422 -0.5163 -0.3027
  187SOL     OW  559   2.646   1.353   0.298 -0.1254  0.0362  0.5814
  187SOL    HW1  560   2.700   1.301   0.223  0.0628 -2.1883 -4.1797
  187SOL    HW2  561   2.704   1.419   0.351 -0.8650 -1.4488 -1.5359
  188SOL     OW  562   0.100   2.151   0.619  0.0847  0.1293 -0.5487
  188SOL    HW1  563   0.103   2.125   0.520  1.4705  0.1941 -1.2098
  188SOL    HW2  564   0.013   2.135   0.668 -0.2454  2.6103 -0.1848
  189SOL     OW  565   2.663   0.935   0.082 -0.3973 -0.0540 -0.3848
  189SOL    HW1  566   2.678   0.939   3.042 -0.6206 -0.3879  2.5456
  189SOL    HW2  567   2.705   0.852   0.118  1.2443  1.2841  2.1896
  190SOL     OW  568   1.226   1.322   2.225 -0.0039 -0.5262  0.0985
  190SOL    HW1  569   1.157   1.269   2.174  1.3664 -0.2664 -0.0554
  190SOL    HW2  570   1.187   1.405   2.270 -0.1624 -0.9400 -3.0967
  191SOL     OW  571   2.464   0.399   1.926 -0.0705 -0.0812  0.0729
  191SOL    HW1  572   2.506   0.352   1.843  0.8794 -1.1144 -2.1100
  191SOL    HW2  573   2.443   0.328   1.998 -0.9712  0.8726 -0.3675
  192SOL     OW  574   2.168   0.256   1.658  0.2471 -0.3103  0.7090
  192SOL    HW1  575   2.162   0.207   1.743 -1.7384  1.7962 -1.8932
  192SOL    HW2  576   2.184   0.353   1.679 -0.1265 -2.2509 -2.4748
  193SOL     OW  577   0.976   0.419   0.372 -0.1074 -0.0877  0.3474
  193SOL    HW1  578   0.969   0.423   0.472 -0.9626 -1.3854  0.9468
  193SOL    HW2  579   0.893   0.465   0.332  0.6148  3.2896 -0.1330
  194SOL     OW  580   1.203   2.981   1.158  0.2681 -0.3697 -0.0909
  194SOL    HW1  581   1.256   3.040   1.088 -0.5928  3.5022 -0.1258
  194SOL    HW2  582   1.118   2.938   1.119 -0.5222  0.5312  0.1314
  195SOL     OW  583   2.431   0.680   0.526 -0.6139  0.3264 -1.1251
  195SOL    HW1  584   2.490   0.756   0.483 -1.5522  0.4745 -2.3469
  195SOL    HW2  585   2.376   0.715   0.603  1.2948 -0.7477  0.9982
  196SOL     OW  586   1.512   1.796   1.951  0.2440  0.7950  0.4203
  196SOL    HW1  587   1.537   1.791   1.852  1.6490  0.7525 -2.1787
  196SOL    HW2  588   1.465   1.880   1.976 -1.7440 -3.4313  1.2514
  197SOL     OW  589   0.075   2.997   0.589  0.8310  0.2074 -0.2921
  197SOL    HW1  590   0.152   0.006   0.583  1.8934 -1.7332 -0.3563
  197SOL    HW2  591   0.106   2.898   0.589 -0.2027 -0.6583  1.6881
  198SOL     OW  592   0.875   1.306   0.397  0.0613  0.3441  0.4923
  198SOL    HW1  593   0.841   1.392   0.446 -0.1378  2.0719  1.4588
  198SOL    HW2  594   0.835   1.218   0.431  0.4244  0.8577 -0.2894
  199SOL     OW  595   2.776   0.707   1.868 -0.2407  0.2792  0.1085
  199SOL    HW1  596   2.850   0.684   1.937  1.8342 -0.1045  0.3974
  199SOL    HW2  597   2.813   0.776   1.802 -3.6529 -0.8821  3.4173
  200SOL     OW  598   2.210   1.828   2.684 -0.4930  0.0809 -0.0495
  200SOL    HW1  599   2.242   1.868   2.594  0.4021 -0.1448  0.5545
  200SOL    HW2  600   2.292   1.841   2.749  0.0223  0.5363 -0.5623
  201SOL     OW  601   2.278   0.068   0.699 -0.3037 -0.0356  0.1631
  201SOL    HW1  602   2.249   0.026   0.785 -0.1888 -0.3435  0.8148
  201SOL    HW2  603   2.287   0.166   0.713  2.0906 -1.1702  2.2919
  202SOL     OW  604   2.488   0.615   0.171  0.0270  0.4266  0.4391
  202SOL    HW1  605   2.529   0.549   0.100 -0.7500 -2.8216  0.7184
  202SOL    HW2  606   2.564   0.647   0.232  3.3467  0.6609 -0.2549
  203SOL     OW  607   1.585   1.769   2.217  0.7468 -0.2529  0.3663
  203SOL    HW1  608   1.531   1.770   2.127 -1.8293 -1.2978 -1.7281
  203SOL    HW2  609   1.553   1.692   2.273 -0.7945  2.0255  0.2412
  204SOL     OW  610   0.962   1.881   2.255 -0.1911  0.0503 -0.1108
  204SOL    HW1  611   0.961   1.944   2.176  1.9667 -0.7760 -1.5358
  204SOL    HW2  612   1.055   1.876   2.301  1.3310  0.7197  2.1131
  205SOL     OW  613   1.246   1.815   1.563 -0.0059 -0.3790  0.0886
  205SOL    HW1  614   1.343   1.842   1.547  0.4443  0.6729  2.2528
  205SOL    HW2  615   1.240   1.769   1.650 -0.2291 -2.6061 -5.4808
  206SOL     OW  616   0.007   0.733   2.817 -0.1013  0.2199  0.4070
  206SOL    HW1  617   3.003   0.670   2.764 -3.2889 -1.8439 -1.2393
  206SOL    HW2  618   0.022   0.821   2.767 -4.0376 -1.5339  0.6617
  207SOL     OW  619   1.799   2.612   2.348  0.4233  0.2210  1.3474
  207SOL    HW1  620   1.708   2.630   2.392 -0.9708 -0.4188 -1.8979
  207SOL    HW2  621   1.789   2.635   2.250 -1.2782 -1.2094 -2.5410
  208SOL     OW  622   0.520   2.256   1.759 -0.1214  0.3203  0.0229
  208SOL    HW1  623   0.480   2.178   1.700 -0.4763  0.4432  0.2581
  208SOL    HW2  624   0.486   2.349   1.736  1.8109 -1.0824 -0.1169
  209SOL     OW  625   1.421   0.677   2.679  0.0162  0.4649  0.2080
  209SOL    HW1  626   1.462   0.762   2.722 -2.3797  0.9571  1.7710
  209SOL    HW2  627   1.476   0.623   2.613  1.2965 -0.7772  1.8183
  210SOL     OW  628   2.328   0.787   0.762 -0.0903 -0.3609 -0.3466
  210SOL    HW1  629   2.290   0.715   0.824 -0.4320  0.5988 -1.1003
  210SOL    HW2  630   2.424   0.801   0.795 -0.8433  2.2097  2.0862
  211SOL     OW  631   1.011   0.625   0.621  0.2758  0.1771  0.7343
  211SOL    HW1  632   0.951   0.644   0.701 -1.1551 -2.2863  0.3205
  211SOL    HW2  633   1.106   0.602   0.651  0.3841  0.4612  1.3825
  212SOL     OW  634   1.230   1.550   0.271  0.2796 -0.1523  0.0998
  212SOL    HW1  635   1.204   1.459   0.306 -0.2164  0.8527 -1.0113
  212SOL    HW2  636   1.201   1.556   0.172 -0.1999  0.3659  0.3824
  213SOL     OW  637   1.531   0.134   2.294  0.7059 -0.1840  0.4124
  213SOL    HW1  638   1.457   0.181   2.345  0.3724  1.4587  0.0122
  213SOL    HW2  639   1.626   0.159   2.320  1.3319  1.9964 -1.7374
  214SOL     OW  640   1.687   1.138   2.476 -0.0563  0.1690 -0.2581
  214SOL    HW1  641   1.721   1.227   2.513 -0.5330 -0.7621 -0.9241
  214SOL    HW2  642   1.602   1.157   2.423  1.7429  0.1133  0.0115
  215SOL     OW  643   0.642   1.541   0.956 -0.0256 -0.4393  0.3924
  215SOL    HW1  644   0.703   1.540   1.034  2.3852  1.3428 -2.4456
  215SOL    HW2  645   0.545   1.541   0.992 -3.0885  0.1876  2.9876
  216SOL     OW  646   0.681   2.844   2.170  0.8950  0.1754 -0.4307
  216SOL    HW1  647   0.691   2.875   2.072 -1.2399 -3.1095 -1.9226
  216SOL    HW2  648   0.685   2.924   2.234 -0.7222 -0.3241  0.7239
  217SOL     OW  649   2.286   0.757   0.058 -0.0832 -0.1538  0.1390
  217SOL    HW1  650   2.353   0.684   0.077  0.2029 -1.1137 -0.0687
  217SOL    HW2  651   2.328   0.845   0.066  1.8268 -1.5878 -0.8909
  218SOL     OW  652   2.174   1.898   2.195  0.8267 -0.2329  0.5375
  218SOL    HW1  653   2.230   1.811   2.191 -0.0995 -1.3323  1.5500
  218SOL    HW2  654   2.171   1.944   2.102  1.4072 -2.4701  0.8702
  219SOL     OW  655   1.683   1.552   0.178  0.0464  0.5248 -0.4086
  219SOL    HW1  656   1.694   1.653   0.157  0.3164  1.7349 -2.7537
  219SOL    HW2  657   1.769   1.509   0.143 -0.8824  0.4762 -1.2856
  220SOL     OW  658   1.398   1.751   1.024  0.5298  0.0388  0.6289
  220SOL    HW1  659   1.371   1.842   1.065  0.0751  0.8406 -0.1751
  220SOL    HW2  660   1.370   1.738   0.924 -0.7618  1.1121  0.2120
  221SOL     OW  661   0.337   0.790   2.666 -0.5636 -0.6864  0.4826
  221SOL    HW1  662   0.286   0.878   2.687 -4.3910  1.7725  0.8838
  221SOL    HW2  663   0.437   0.810   2.682  0.3053  0.7863  0.9714
  222SOL     OW  664   1.125   2.086   1.478 -0.1109  0.0750  0.1488
  222SOL    HW1  665   1.091   2.114   1.569  0.0892  0.6660 -0.4900
  222SOL    HW2  666   1.184   2.004   1.480 -0.4251  0.1761 -1.8767
  223SOL     OW  667   1.379   2.877   2.447 -0.6833 -0.1386 -0.3506
  223SOL    HW1  668   1.420   2.949   2.514 -0.7752  0.0533  2.1333
  223SOL    HW2  669   1.339   2.804   2.501  0.0814  0.0386  0.4579
  224SOL     OW  670   2.768   1.126   0.858 -0.7896  0.0319 -0.0413
  224SOL    HW1  671   2.802   1.215   0.878  0.9454 -2.8513  1.8268
  224SOL    HW2  672   2.670   1.122   0.817 -1.3336  1.1268  0.1499
  225SOL     OW  673   1.289   1.023   1.602 -0.1072 -0.0625 -0.1165
  225SOL    HW1  674   1.326   1.112   1.591 -0.7916 -1.5517 -1.4282
  225SOL    HW2  675   1.344   0.959   1.542  1.7523 -2.3097  0.2803
  226SOL     OW  676   1.353   2.282   2.533  0.3930  0.4659 -0.1641
  226SOL    HW1  677   1.362   2.341   2.614  1.6071  2.7962 -1.0996
  226SOL    HW2  678   1.438   2.228   2.516  1.1275 -0.6563 -0.8887
  227SOL     OW  679   1.136   1.909   1.090 -0.0164 -0.3000  0.1741
  227SOL    HW1  680   1.231   1.943   1.105 -0.7155 -0.2652  2.2281
  227SOL    HW2  681   1.063   1.971   1.135 -1.3541 -0.4682 -0.9642
  228SOL     OW  682   0.522   1.982   1.097  0.2539 -0.3908  0.0304
  228SOL    HW1  683   0.441   1.915   1.092 -1.5308 -0.8041  0.7420
  228SOL    HW2  684   0.607   1.945   1.129 -4.6507  2.9260 -1.5779
  229SOL     OW  685   2.022   0.741   0.011  0.1720  0.2854 -0.3678
  229SOL    HW1  686   2.007   0.651   3.013 -0.0215 -2.7103 -2.3437
  229SOL    HW2  687   2.117   0.745   0.051 -0.7171  0.7421 -2.7549
  230SOL     OW  688   1.006   0.916   2.129 -0.4251 -0.6492 -0.4339
  230SOL    HW1  689   1.103   0.890   2.105  5.2793 -2.1135  1.2309
  230SOL    HW2  690   1.002   0.963   2.223 -0.7324  0.0930  1.8883
  231SOL     OW  691   1.232   1.778   2.080  0.5655 -0.2501 -0.6607
  231SOL    HW1  692   1.145   1.737   2.043 -0.1040 -0.6071 -2.6006
  231SOL    HW2  693   1.306   1.709   2.068  0.7996  0.2894  0.0174
  232SOL     OW  694   2.053   2.050   1.024  0.4153  0.1308  0.1480
  232SOL    HW1  695   2.007   2.023   0.937 -0.2627  0.5332  1.7328
  232SOL    HW2  696   2.067   2.149   1.033 -0.3142 -1.0093  1.1561
  233SOL     OW  697   1.888   2.333   2.668  0.2493 -0.4119 -0.4931
  233SOL    HW1  698   1.924   2.247   2.629  3.6500 -0.9954  1.0767
  233SOL    HW2  699   1.916   2.411   2.610 -1.4831  0.3351 -1.9091
  234SOL     OW  700   1.092   2.778   2.754 -0.0867  0.0896 -0.1850
  234SOL    HW1  701   1.116   2.761   2.848 -1.7893  1.1452 -1.2473
  234SOL    HW2  702   1.111   2.875   2.740 -0.5275  1.2657  0.8779
  235SOL     OW  703   2.481   2.899   0.149 -0.1533  0.0838  0.1312
  235SOL    HW1  704   2.418   2.832   0.195 -0.6046 -0.1300 -0.6063
  235SOL    HW2  705   2.554   2.845   0.104  3.5209 -2.4247 -1.0641
  236SOL     OW  706   2.531   2.351   2.200  0.1037  0.1848 -0.2530
  236SOL    HW1  707   2.584   2.317   2.121 -1.7427  3.0161  3.2083
  236SOL    HW2  708   2.572   2.321   2.287 -0.1334  0.7133 -1.1580
  237SOL     OW  709   1.346   1.305   1.667 -0.4386  0.7939 -0.4767
  237SOL    HW1  710   1.446   1.321   1.687 -1.8169 -2.3667 -2.4142
  237SOL    HW2  711   1.322   1.348   1.577  1.9562 -1.5774 -0.0792
  238SOL     OW  712   2.216   0.339   2.476 -0.3574  0.0533 -0.4178
  238SOL    HW1  713   2.233   0.412   2.407  0.2372  0.9915  2.2626
  238SOL    HW2  714   2.192   0.376   2.569  0.1228 -0.7128  0.2459
  239SOL     OW  715   0.390   1.778   2.221 -0.2188 -0.3966  0.1955
  239SOL    HW1  716   0.492   1.781   2.231  0.8059  0.5163 -1.9528
  239SOL    HW2  717   0.359   1.807   2.131 -1.2702  0.3330  4.2896
  240SOL     OW  718   2.640   2.659   0.895 -0.0983  0.5189 -0.4281
  240SOL    HW1  719   2.715   2.585   0.881 -0.3320 -1.7368  0.9013
  240SOL    HW2  720   2.685   2.752   0.877  0.0676  0.2000 -1.1927
  241SOL     OW  721   1.797   2.191   0.577  0.1069  0.0929  0.0291
  241SOL    HW1  722   1.816   2.123   0.652  1.9659 -1.2566  0.6290
  241SOL    HW2  723   1.841   2.153   0.496  0.9849 -0.5542 -0.3433
  242SOL     OW  724   1.280   1.544   2.500 -0.4413 -0.3470  0.0913
  242SOL    HW1  725   1.301   1.614   2.570  0.3416  1.4360 -0.1402
  242SOL    HW2  726   1.194   1.564   2.451  0.7243  2.3042  1.0153
  243SOL     OW  727   0.752   2.587   2.189 -0.0961  0.2543  0.2540
  243SOL    HW1  728   0.744   2.690   2.180  1.7866 -1.5077  2.7964
  243SOL    HW2  729   0.833   2.558   2.246  0.6169 -0.2312  2.1885
  244SOL     OW  730   2.205   2.972   2.619  0.0116 -0.0832  0.8955
  244SOL    HW1  731   2.271   3.032   2.569  0.9858 -1.1104 -0.5557
  244SOL    HW2  732   2.170   3.021   2.696 -0.5812 -2.2180  0.5963
  245SOL     OW  733   1.237   2.523   0.306  0.1077 -0.0760  0.4205
  245SOL    HW1  734   1.245   2.438   0.357  2.1968 -0.0066 -1.2568
  245SOL    HW2  735   1.317   2.533   0.249 -0.7190  0.0124  1.0046
  246SOL     OW  736   0.981   3.056   2.939 -0.1050  0.1997  0.2526
  246SOL    HW1  737   0.884   3.038   2.963  0.3154  1.6361  0.7655
  246SOL    HW2  738   1.032   3.039   3.026  0.3943  0.9138 -2.7602
  247SOL     OW  739   0.325   0.819   2.016  0.2716  1.3193  0.0085
  247SOL    HW1  740   0.344   0.799   1.918  0.1277  2.0081  0.3449
  247SOL    HW2  741   0.385   0.762   2.079  0.7638 -2.0524 -0.1199
  248SOL     OW  742   1.027   1.199   2.064 -0.6392  0.0572 -0.0475
  248SOL    HW1  743   0.947   1.175   2.125 -0.2931 -0.7034 -0.3027
  248SOL    HW2  744   1.047   1.116   2.005 -0.6770 -0.0335 -2.4933
  249SOL     OW  745   2.178   0.372   0.194  0.7121 -0.1971  0.3124
  249SOL    HW1  746   2.232   0.329   0.117 -0.5796 -1.2620 -0.8601
  249SOL    HW2  747   2.078   0.353   0.196 -0.9360 -1.3361  0.3491
  250SOL     OW  748   0.784   3.007   0.664 -0.0892  0.0394  0.1045
  250SOL    HW1  749   0.709   2.981   0.729 -1.6196 -0.4698  1.4425
  250SOL    HW2  750   0.761   2.973   0.568 -1.0924  0.6383 -2.4197
  251SOL     OW  751   1.791   2.994   2.684 -0.2511 -0.8147 -0.1379
  251SOL    HW1  752   1.835   3.043   2.607 -2.6302  0.2154 -1.2733
  251SOL    HW2  753   1.830   2.901   2.695 -1.2134 -0.6682 -0.1680
  252SOL     OW  754   1.598   1.373   2.096  0.3978 -0.0490 -0.3278
  252SOL    HW1  755   1.543   1.345   2.174  1.9415 -2.3807 -2.1640
  252SOL    HW2  756   1.691   1.328   2.109  2.3149 -2.1791 -0.7211
  253SOL     OW  757   2.426   2.759   1.962  0.2316 -0.3925 -0.2728
  253SOL    HW1  758   2.521   2.756   2.000  0.8171 -0.6437  0.5144
  253SOL    HW2  759   2.364   2.729   2.034  0.1089  0.4131  0.2108
  254SOL     OW  760   0.803   1.593   1.198 -0.4692  0.2947 -0.0089
  254SOL    HW1  761   0.900   1.568   1.208 -0.2969  0.0693 -2.2738
  254SOL    HW2  762   0.744   1.550   1.271 -1.6616 -0.6135  0.1901
  255SOL     OW  763   1.177   0.848   0.962  0.0267 -0.3229 -0.0970
  255SOL    HW1  764   1.099   0.898   0.911 -2.6127  1.7124  0.6979
  255SOL    HW2  765   1.139   0.770   1.010  0.3786  3.2239  0.0501
  256SOL     OW  766   1.890   2.246   1.924 -0.6476 -0.0179 -0.2133
  256SOL    HW1  767   1.933   2.235   2.013 -0.0710 -0.3666 -3.8615
  256SOL    HW2  768   1.954   2.263   1.849 -0.7245 -0.4004  2.8168
  257SOL     OW  769   0.066   2.793   2.915  0.1221  0.1358 -0.3596
  257SOL    HW1  770   0.108   2.873   2.859  1.5970  2.8156 -1.3500
  257SOL    HW2  771   0.112   2.701   2.889 -0.1908 -2.5812  0.4830
  258SOL     OW  772   0.716   3.039   1.886 -0.5389 -1.0458 -0.1594
  258SOL    HW1  773   0.755   0.043   1.960  0.1919  1.2074 -0.9506
  258SOL    HW2  774   0.770   2.951   1.890  1.2015  1.2548  1.9195
  259SOL     OW  775   0.823   0.120   2.089 -0.5905 -0.3561  0.1344
  259SOL    HW1  776   0.926   0.126   2.105 -0.3605  1.3972  1.4958
  259SOL    HW2  777   0.777   0.073   2.165 -1.1010 -0.3593  0.4503
  260SOL     OW  778   1.602   0.553   0.677  0.0295 -0.0981 -0.1788
  260SOL    HW1  779   1.545   0.526   0.759  2.4852  2.1529 -1.7539
  260SOL    HW2  780   1.660   0.473   0.655 -1.7680 -3.3511  0.9451
  261SOL     OW  781   0.348   0.524   2.684  0.3868  0.1028  0.1158
  261SOL    HW1  782   0.399   0.505   2.770 -0.2616  0.3526  0.0151
  261SOL    HW2  783   0.312   0.619   2.686 -0.3262 -1.4873 -1.0679
  262SOL     OW  784   2.789   2.394   1.980 -0.0872 -0.5345 -0.8756
  262SOL    HW1  785   2.845   2.312   1.949 -0.6423  0.7115  0.6060
  262SOL    HW2  786   2.786   2.463   1.902  0.9933 -0.2779 -1.3887
  263SOL     OW  787   2.720   1.674   2.147  0.1942 -0.3994  0.6720
  263SOL    HW1  788   2.820   1.675   2.135 -0.2385  0.1424 -0.9067
  263SOL    HW2  789   2.687   1.754   2.198 -1.8015 -1.1229  2.7458
  264SOL     OW  790   0.868   1.182   0.967  0.8104  0.2582  0.8870
  264SOL    HW1  791   0.872   1.268   0.906 -1.6681  2.0747 -0.5696
  264SOL    HW2  792   0.888   1.191   1.067  0.9951  2.3879 -1.2394
  265SOL     OW  793   0.320   2.025   0.082 -0.2835  0.3985  0.8108
  265SOL    HW1  794   0.384   2.021   0.159  0.2797  0.0230 -1.4248
  265SOL    HW2  795   0.323   2.117   0.034 -0.5974 -0.8893 -3.0344
  266SOL     OW  796   1.230   1.103   0.463 -0.0803  0.3866  0.0304
  266SOL    HW1  797   1.294   1.038   0.414  1.6524 -0.0103 -0.4970
  266SOL    HW2  798   1.170   1.041   0.514 -0.0720  1.3280  1.2113
  267SOL     OW  799   3.039   1.157   0.159  0.2723 -0.4523  0.3808
  267SOL    HW1  800   0.015   1.215   0.237  1.6998  0.1473  3.1003
  267SOL    HW2  801   0.030   1.177   0.075 -1.2991 -1.4336  2.8731
  268SOL     OW  802   2.291   0.265   3.036 -0.0706  0.3735  0.2040
  268SOL    HW1  803   2.298   0.276   2.936 -0.1642 -0.2484  2.9719
  268SOL    HW2  804   2.251   0.178   0.006  2.0165 -0.6906 -0.0643
  269SOL     OW  805   1.642   0.478   2.628  0.0314 -0.0241  0.6320
  269SOL    HW1  806   1.614   0.382   2.639 -0.2372  0.4300 -0.2491
  269SOL    HW2  807   1.612   0.510   2.537  0.0379 -1.0782 -1.2398
  270SOL     OW  808   0.722   0.916   3.017  0.2823  0.4944  0.7118
  270SOL    HW1  809   0.697   0.985   0.028 -0.4610 -2.6431  0.1018
  270SOL    HW2  810   0.810   0.875   3.042 -1.9683 -0.4476 -1.6473
  271SOL     OW  811   2.964   0.935   0.321 -0.4170 -0.0962 -0.7673
  271SOL    HW1  812   2.951   0.846   0.275  1.7111 -1.0685  0.8274
  271SOL    HW2  813   3.013   1.005   0.266  1.7462 -0.1670 -1.4572
  272SOL     OW  814   0.074   1.486   2.818 -0.2376  0.2119  0.0399
  272SOL    HW1  815   3.053   1.423   2.811  1.3622 -0.8701  1.4491
  272SOL    HW2  816   0.075   1.558   2.741 -3.2904 -1.5558  1.1464
  273SOL     OW  817   2.439   2.957   0.560  0.1825 -0.0333 -0.0739
  273SOL    HW1  818   2.360   3.007   0.599 -0.6420  0.9590 -2.4364
  273SOL    HW2  819   2.477   2.997   0.471  0.2317  2.5174 -0.4366
  274SOL     OW  820   0.403   2.362   0.928 -0.8332  0.3193 -0.5411
  274SOL    HW1  821   0.486   2.309   0.962 -0.6878  0.3038  1.6678
  274SOL    HW2  822   0.414   2.396   0.836 -0.3386  1.4381  1.4343
  275SOL     OW  823   2.400   1.297   0.443  0.2587 -0.5485 -0.3562
  275SOL    HW1  824   2.490   1.333   0.414 -1.3321 -0.6326 -2.7448
  275SOL    HW2  825   2.404   1.206   0.489 -0.6597  1.4530  1.1033
  276SOL     OW  826   3.031   1.272   2.325  0.3739 -0.0184 -0.5116
  276SOL    HW1  827   0.037   1.196   2.347 -0.7321  0.8215 -0.1043
  276SOL    HW2  828   2.938   1.258   2.369 -1.9740  2.3996 -0.7213
  277SOL     OW  829   1.994   2.657   1.186 -0.1550 -0.7259  0.0992
  277SOL    HW1  830   2.091   2.651   1.219 -3.7322  3.5557  0.9615
  277SOL    HW2  831   1.979   2.621   1.092  0.5754 -0.1103  3.4281
  278SOL     OW  832   1.104   0.151   2.096  0.7099 -0.7420 -0.8706
  278SOL    HW1  833   1.144   0.072   2.052  1.8133  0.6496 -1.4582
  278SOL    HW2  834   1.173   0.230   2.106  1.5872  1.1899  2.5456
  279SOL     OW  835   1.590   1.875   0.381  0.0324 -0.0300  0.0314
  279SOL    HW1  836   1.640   1.838   0.463  1.2584 -1.1645 -0.0504
  279SOL    HW2  837   1.651   1.876   0.297  2.4628  1.0680 -1.0241
  280SOL     OW  838   3.047   1.786   0.944 -0.5439 -0.0611  0.4791
  280SOL    HW1  839   0.067   1.722   0.933  1.1658 -0.6778  1.5567
  280SOL    HW2  840   3.008   1.772   1.036  2.3528  2.3986  1.5563
  281SOL     OW  841   2.844   0.303   2.380  0.1227  0.0084 -0.0740
  281SOL    HW1  842   2.935   0.288   2.422  0.1172  3.0626 -1.5937
  281SOL    HW2  843   2.772   0.339   2.450 -1.5886  1.4883  0.9606
  282SOL     OW  844   0.716   0.830   0.668 -0.5508  0.4589 -0.5319
  282SOL    HW1  845   0.673   0.759   0.606 -0.4287 -0.0715 -0.5302
  282SOL    HW2  846   0.643   0.901   0.687 -0.8843 -2.4738  0.4578
  283SOL     OW  847   1.540   1.833   2.873 -0.3990  0.5633  0.2874
  283SOL    HW1  848   1.542   1.937   2.896  0.4503 -0.2146 -1.1735
  283SOL    HW2  849   1.618   1.809   2.808 -1.3652 -0.9508 -0.1292
  284SOL     OW  850   1.400   0.964   0.328 -0.0444  0.1969 -0.1273
  284SOL    HW1  851   1.463   0.996   0.255 -0.6078  0.4169  0.6777
  284SOL    HW2  852   1.405   0.861   0.348 -0.9043  0.1835  0.5622
  285SOL     OW  853   1.821   0.863   2.814  0.0076 -0.2512  0.2924
  285SOL    HW1  854   1.777   0.871   2.723  0.4753  3.4565  1.2032
  285SOL    HW2  855   1.832   0.769   2.851  4.9156  1.4710 -0.3535
  286SOL     OW  856   1.461   2.660   1.554  0.8150  0.6222 -0.0151
  286SOL    HW1  857   1.512   2.578   1.575  0.3675  2.4296 -0.8164
  286SOL    HW2  858   1.504   2.702   1.474 -0.1866 -3.2430  0.4652
  287SOL     OW  859   0.990   0.982   0.830 -0.1533 -0.1879 -0.1187
  287SOL    HW1  860   0.942   1.054   0.884 -0.6099  1.4181 -0.2875
  287SOL    HW2  861   0.932   0.952   0.751 -2.1352 -1.0204 -3.2949
  288SOL     OW  862   0.911   2.635   0.324 -0.4648 -0.2455  0.4049
  288SOL    HW1  863   0.968   2.715   0.355 -0.2388 -0.3430 -1.0944
  288SOL    HW2  864   0.915   2.573   0.402 -0.1711  0.4371 -1.2440
  289SOL     OW  865   0.471   1.472   1.693  0.1216 -0.8960  0.5706
  289SOL    HW1  866   0.563   1.510   1.724  1.1482  1.7826  0.2507
  289SOL    HW2  867   0.407   1.490   1.771 -1.1375  1.3194  1.4935
  290SOL     OW  868   1.639   2.277   0.995 -0.7390  0.1726 -0.1164
  290SOL    HW1  869   1.681   2.186   1.008 -0.0621  1.7595 -0.5934
  290SOL    HW2  870   1.596   2.301   1.085 -1.1228  0.8931 -1.3200
  291SOL     OW  871   1.801   2.718   2.999  0.2564  0.1604 -0.3967
  291SOL    HW1  872   1.813   2.790   2.926  1.5110  0.7648 -1.6369
  291SOL    HW2  873   1.767   2.638   2.947  0.0033 -0.4544 -0.6459
  292SOL     OW  874   1.141   0.502   1.889 -0.0193  0.6000  0.1927
  292SOL    HW1  875   1.215   0.562   1.847  0.2723 -2.1114  1.5785
  292SOL    HW2  876   1.063   0.554   1.929  0.3016  2.1484 -1.2801
  293SOL     OW  877   1.833   2.453   0.637 -0.3310 -0.5565 -0.1238
  293SOL    HW1  878   1.819   2.356   0.620  1.2958  2.1092  1.1602
  293SOL    HW2  879   1.795   2.482   0.725  2.0657 -1.9290 -4.1961
  294SOL     OW  880   0.530   0.685   2.422 -0.2201 -0.4826 -0.3463
  294SOL    HW1  881   0.432   0.705   2.425 -1.1710 -1.4006  1.3791
  294SOL    HW2  882   0.552   0.605   2.486  0.8552 -2.8286  1.7140
  295SOL     OW  883   1.377   1.690   0.760  0.1050 -0.3901 -0.0165
  295SOL    HW1  884   1.360   1.601   0.720 -0.5166  3.0441  2.7957
  295SOL    HW2  885   1.403   1.764   0.691  2.3553  1.9906 -1.6323
  296SOL     OW  886   2.051   1.852   0.074 -0.1647 -0.7073  0.0747
  296SOL    HW1  887   2.141   1.902   0.058  0.6462  1.8527  0.5163
  296SOL    HW2  888   2.059   1.767   0.128 -1.1342 -1.5115  0.2096
  297SOL     OW  889   2.272   0.009   0.066  0.3812 -0.0931 -0.1828
  297SOL    HW1  890   2.183   3.031   0.104  0.1885  0.3058 -0.6285
  297SOL    HW2  891   2.358   3.013   0.085  2.9798 -0.3166 -0.0734
  298SOL     OW  892   1.231   2.602   2.397  0.0147 -0.3043  0.3339
  298SOL    HW1  893   1.268   2.633   2.490 -1.8662 -3.2844  0.0609
  298SOL    HW2  894   1.244   2.502   2.375 -0.5819 -3.2403  0.8493
  299SOL     OW  895   1.293   2.848   2.183 -0.3519  0.3707 -0.3017
  299SOL    HW1  896   1.192   2.855   2.183  1.4462 -1.0224  0.5861
  299SOL    HW2  897   1.335   2.851   2.277  0.4667  1.0091 -0.4252
  300SOL     OW  898   2.358   0.259   2.756  0.0677  0.3687 -0.3412
  300SOL    HW1  899   2.350   0.185   2.684 -1.4171 -3.4474  0.3946
  300SOL    HW2  900   2.457   0.276   2.769  0.2243  0.8423  0.3613
  301SOL     OW  901   1.643   0.736   2.286  0.0864  0.3278 -0.0651
  301SOL    HW1  902   1.619   0.829   2.249 -1.5344 -0.8725  1.7461
  301SOL    HW2  903   1.722   0.696   2.238  0.4150  2.6872 -0.8249
  302SOL     OW  904   2.399   2.292   0.194 -0.1198  0.4073 -0.0474
  302SOL    HW1  905   2.456   2.242   0.270 -0.0792 -2.2759  0.6209
  302SOL    HW2  906   2.435   2.278   0.097 -0.5431  0.3206 -1.5198
  303SOL     OW  907   2.797   2.594   2.345 -0.0444 -0.8372 -0.0050
  303SOL    HW1  908   2.847   2.554   2.263  1.2992  0.3491  2.4178
  303SOL    HW2  909   2.732   2.527   2.390  0.0772 -1.4061  0.1036
  304SOL     OW  910   2.656   0.572   1.651 -0.2886 -0.5040  0.2741
  304SOL    HW1  911   2.692   0.633   1.723 -2.5572 -0.4944 -0.9457
  304SOL    HW2  912   2.703   0.483   1.654  1.2182  0.7997 -0.5384
  305SOL     OW  913   0.764   2.171   1.653  0.3516  0.0620 -0.4946
  305SOL    HW1  914   0.741   2.212   1.561 -0.9227 -0.4617  0.2545
  305SOL    HW2  915   0.692   2.207   1.719 -2.2056  2.7194  2.0465
  306SOL     OW  916   2.859   0.962   1.770 -0.1801 -0.6371  0.0253
  306SOL    HW1  917   2.821   1.028   1.708  2.7611 -0.4066  1.1598
  306SOL    HW2  918   2.962   0.954   1.760 -0.4579 -1.5907 -0.5952
  307SOL     OW  919   1.443   0.727   1.940  0.7812 -0.3341 -0.1693
  307SOL    HW1  920   1.404   0.730   2.036  0.6730 -1.1519  2.5991
  307SOL    HW2  921   1.367   0.717   1.875 -0.3581 -0.0901 -0.3062
  308SOL     OW  922   2.717   1.377   1.120  0.5811  0.2518  0.1057
  308SOL    HW1  923   2.766   1.394   1.032 -1.8196  1.1901 -1.0020
  308SOL    HW2  924   2.623   1.418   1.108 -0.1632  0.3224 -1.5602
  309SOL     OW  925   2.398   1.331   0.853 -0.5073  0.7267  0.3011
  309SOL    HW1  926   2.298   1.322   0.833 -1.5804 -0.7514 -2.0080
  309SOL    HW2  927   2.417   1.363   0.948  0.6656 -0.7093  2.1539
  310SOL     OW  928   2.717   1.642   2.710 -0.2211 -0.5769  0.3655
  310SOL    HW1  929   2.731   1.745   2.706 -1.1475  2.8534  0.4632
  310SOL    HW2  930   2.716   1.604   2.805 -2.9959 -1.6245 -0.1582
  311SOL     OW  931   3.045   2.597   2.642 -0.9417 -0.2090 -0.2082
  311SOL    HW1  932   2.955   2.564   2.677  2.2600  0.8514 -0.1357
  311SOL    HW2  933   0.065   2.593   2.712  1.2823 -1.3458  0.8067
  312SOL     OW  934   1.977   1.750   0.705 -0.4975 -0.2843  0.1674
  312SOL    HW1  935   1.961   1.751   0.601 -0.4826  0.4610 -2.4793
  312SOL    HW2  936   1.889   1.714   0.749 -0.2365  0.7293  3.9857
  313SOL     OW  937   2.618   0.047   0.863  0.0704  0.3703  0.2320
  313SOL    HW1  938   2.636   3.029   0.796 -2.7574 -1.2227 -1.7771
  313SOL    HW2  939   2.550   0.113   0.829  0.2402 -0.2774 -0.1639
  314SOL     OW  940   1.250   1.247   0.158  0.1243 -0.3478 -0.6078
  314SOL    HW1  941   1.244   1.257   0.256  0.9933 -1.9375 -2.5966
  314SOL    HW2  942   1.337   1.292   0.127  0.0840  0.4110  0.0951
  315SOL     OW  943   1.453   2.677   2.020 -0.0735 -0.5073  0.6124
  315SOL    HW1  944   1.381   2.705   2.081  3.8865  1.7825 -2.1225
  315SOL    HW2  945   1.417   2.684   1.926  1.8827 -0.9302 -0.3868
  316SOL     OW  946   3.026   0.813   0.554 -0.5284  0.1454  0.5190
  316SOL    HW1  947   3.001   0.855   0.463  0.2190 -2.1268 -2.7190
  316SOL    HW2  948   2.984   0.865   0.634 -2.0403  1.9553  2.0197
  317SOL     OW  949   0.446   3.048   0.388 -0.2782 -0.6123  0.1154
  317SOL    HW1  950   0.410   0.043   0.470  0.3110 -0.1320  1.4739
  317SOL    HW2  951   0.550   3.035   0.392  1.7894  2.2521  0.3085
  318SOL     OW  952   2.230   2.340   0.401 -0.6084 -0.2558  0.7855
  318SOL    HW1  953   2.223   2.237   0.407 -1.1237 -1.3054 -0.9762
  318SOL    HW2  954   2.281   2.366   0.317 -0.7065  2.0284  0.6454
  319SOL     OW  955   0.871   1.329   2.678 -0.1483 -0.4637  0.8339
  319SOL    HW1  956   0.802   1.345   2.752 -0.0132  0.4871 -0.0355
  319SOL    HW2  957   0.836   1.371   2.586  0.0644  0.7302 -1.1363
  320SOL     OW  958   0.129   2.544   1.961 -0.1820  0.2085  0.0237
  320SOL    HW1  959   0.192   2.622   1.974 -0.1564  0.9653 -1.9739
  320SOL    HW2  960   0.089   2.543   1.867  1.7375 -0.3077  0.5331
  321SOL     OW  961   1.595   2.616   2.690 -0.1503  0.2934 -0.0012
  321SOL    HW1  962   1.685   2.608   2.742  5.0826  0.2983  2.7081
  321SOL    HW2  963   1.543   2.537   2.721  0.0477  1.8950  2.1724
  322SOL     OW  964   0.010   1.423   2.094  0.3586 -0.4013 -0.2478
  322SOL    HW1  965   0.035   1.363   2.172 -0.4441 -0.0334  1.2713
  322SOL    HW2  966   3.017   1.367   2.025  0.0414 -0.7826 -1.1497
  323SOL     OW  967   2.387   1.046   0.542 -0.1131 -0.4579  0.2650
  323SOL    HW1  968   2.293   1.004   0.528  0.5072 -2.5655 -0.0546
  323SOL    HW2  969   2.458   0.980   0.501  0.8873 -1.4407 -1.1424
  324SOL     OW  970   2.783   0.071   2.947 -0.7919 -0.0631  0.5172
  324SOL    HW1  971   2.689   0.035   2.932 -0.6173 -0.9508 -0.4467
  324SOL    HW2  972   2.841   3.056   2.992  1.4274 -0.6865 -1.0794
  325SOL     OW  973   1.352   0.218   2.551 -0.2711  0.1705  0.3083
  325SOL    HW1  974   1.405   0.139   2.590  2.0969 -1.5868 -0.4944
  325SOL    HW2  975   1.278   0.253   2.613 -1.2139 -0.7664 -0.3795
  326SOL     OW  976   2.334   2.792   1.493  0.2163 -0.1797  0.7125
  326SOL    HW1  977   2.328   2.893   1.519  2.8528  2.0770  0.4414
  326SOL    HW2  978   2.327   2.729   1.576  0.6220 -2.7965  1.5670
  327SOL     OW  979   1.984   0.221   2.909 -0.0431  0.3457 -0.0976
  327SOL    HW1  980   2.019   0.123   2.907  2.3059 -0.0720  2.3932
  327SOL    HW2  981   1.954   0.253   3.001  2.5876  0.6652  0.4539
  328SOL     OW  982   2.948   0.873   2.242 -0.3250 -0.3001  0.1498
  328SOL    HW1  983   3.008   0.941   2.191  0.2437  1.2800  1.6001
  328SOL    HW2  984   2.885   0.923   2.301  1.5209  3.0767 -0.5966
  329SOL     OW  985   1.753   0.073   1.841  0.2448 -0.1864  0.2717
  329SOL    HW1  986   1.766   0.113   1.748 -1.2987 -0.3271  0.3489
  329SOL    HW2  987   1.818   0.120   1.904 -2.0248 -1.1782  0.0976
  330SOL     OW  988   2.793   1.593   1.300  0.5346  0.5446 -0.1131
  330SOL    HW1  989   2.775   1.503   1.248  2.4288  0.9308 -1.6307
  330SOL    HW2  990   2.808   1.582   1.399 -0.8690  1.3233 -1.6742
  331SOL     OW  991   0.677   1.714   2.191 -0.1904  0.0576 -0.2304
  331SOL    HW1  992   0.769   1.750   2.188  2.3962 -2.1919  0.0745
  331SOL    HW2  993   0.678   1.608   2.210  0.2787 -2.0512  0.1993
  332SOL     OW  994   0.132   2.781   1.476 -0.2085 -0.2781  0.1519
  332SOL    HW1  995   0.163   2.793   1.573  1.5086  0.9848  0.2568
  332SOL    HW2  996   0.100   2.870   1.436 -1.7782  0.1053 -2.6832
  333SOL     OW  997   2.256   2.692   1.243  0.2734 -0.2445  0.1587
  333SOL    HW1  998   2.275   2.747   1.328  1.0008  2.7670 -1.9506
  333SOL    HW2  999   2.339   2.640   1.219 -1.9811  2.2427  1.6918
  334SOL     OW 1000   0.752   1.854   1.151 -0.0539 -0.3642 -0.3044
  334SOL    HW1 1001   0.774   1.752   1.158  0.8756  1.1588  0.7074
  334SOL    HW2 1002   0.777   1.889   1.064 -1.0998 -2.9370  0.6740
  335SOL     OW 1003   0.116   2.335   2.945  0.0076  0.1721 -0.4801
  335SOL    HW1 1004   0.128   2.243   2.908  0.5480 -1.3799 -1.8870
  335SOL    HW2 1005   0.016   2.362   2.944  0.4099 -4.3403 -0.3894
  336SOL     OW 1006   0.239   2.896   2.183 -0.1090 -0.1426  0.1440
  336SOL    HW1 1007   0.276   2.967   2.242 -1.0175 -3.5596 -0.5182
  336SOL    HW2 1008   0.174   2.835   2.235 -1.0403 -1.4762  0.0778
  337SOL     OW 1009   2.463   1.844   2.830  0.6317  0.0484  0.1407
  337SOL    HW1 1010   2.411   1.805   2.913 -1.0532  0.7744  5.1464
  337SOL    HW2 1011   2.509   1.932   2.834  0.0182  1.8327 -0.2813
  338SOL     OW 1012   1.117   1.639   1.099  0.1091 -0.2383  0.0560
  338SOL    HW1 1013   1.151   1.735   1.086 -0.4824 -1.1711 -0.7628
  338SOL    HW2 1014   1.121   1.584   1.013 -0.4147  0.0245 -0.3623
  339SOL     OW 1015   3.032   0.553   1.712  0.1061  0.5117  0.3191
  339SOL    HW1 1016   2.956   0.501   1.755 -1.3639 -1.7201 -0.1930
  339SOL    HW2 1017   0.055   0.576   1.775  1.3209  1.8320  4.7563
  340SOL     OW 1018   1.402   2.613   0.066  0.1370 -0.5149 -0.4448
  340SOL    HW1 1019   1.422   2.529   0.012  0.7919  0.4520 -3.0915
  340SOL    HW2 1020   1.316   2.665   0.031  1.5378 -0.6380 -3.2479
  341SOL     OW 1021   1.738   1.628   1.104 -0.0507 -0.1378  0.0510
  341SOL    HW1 1022   1.764   1.712   1.158 -3.6581 -0.2924 -1.4746
  341SOL    HW2 1023   1.665   1.577   1.149 -1.2564  1.4017 -1.8895
  342SOL     OW 1024   2.856   2.476   0.553 -0.0817 -0.3732 -0.0716
  342SOL    HW1 1025   2.767   2.421   0.546  0.4339 -1.0254 -2.2212
  342SOL    HW2 1026   2.926   2.448   0.482 -1.2277  0.1536 -1.4127
  343SOL     OW 1027   1.482   2.393   1.199  0.4892  0.9147  0.4436
  343SOL    HW1 1028   1.448   2.489   1.202 -2.7348 -0.5768  0.0355
  343SOL    HW2 1029   1.403   2.327   1.216 -0.7134  0.7918  1.9155
  344SOL     OW 1030   2.146   2.644   0.766  0.1073 -0.0775 -0.6631
  344SOL    HW1 1031   2.084   2.693   0.699 -0.1701 -1.0096  0.6897
  344SOL    HW2 1032   2.239   2.686   0.768 -1.9572  1.8557  1.5937
  345SOL     OW 1033   2.815   1.895   2.706 -0.0131 -0.5375 -0.1520
  345SOL    HW1 1034   2.764   1.943   2.785 -1.6079 -1.0346  4.0518
  345SOL    HW2 1035   2.911   1.927   2.704 -1.2525  1.2956  1.4161
  346SOL     OW 1036   2.617   1.696   0.892  0.4638  0.4541 -0.2374
  346SOL    HW1 1037   2.579   1.715   0.987 -1.2733  2.0844 -0.8556
  346SOL    HW2 1038   2.698   1.635   0.895 -0.7577 -0.9285 -1.6057
  347SOL     OW 1039   2.167   2.397   1.327 -0.1291  0.6368 -0.1949
  347SOL    HW1 1040   2.138   2.456   1.402 -0.3643  0.7268 -3.0353
  347SOL    HW2 1041   2.266   2.428   1.305  3.3840  0.9769  0.6640
  348SOL     OW 1042   0.746   1.637   2.591  0.2878 -0.5098 -0.1611
  348SOL    HW1 1043   0.779   1.714   2.531 -1.3135 -1.1835  2.1583
  348SOL    HW2 1044   0.789   1.643   2.684  0.9719  0.4600  1.4533
  349SOL     OW 1045   2.180   1.269   1.889 -0.1748 -0.2306  0.1815
  349SOL    HW1 1046   2.096   1.316   1.856  1.6045 -1.7869  2.1400
  349SOL    HW2 1047   2.260   1.318   1.846  0.8954  1.4898 -3.3905
  350SOL     OW 1048   0.124   2.343   0.897  0.0388  0.2618 -0.0179
  350SOL    HW1 1049   0.212   2.344   0.944  2.2563 -0.0369 -3.3222
  350SOL    HW2 1050   0.081   2.249   0.901  0.2686 -0.0209 -0.1681
  351SOL     OW 1051   0.318   0.495   2.300  0.3798 -0.8474 -0.3788
  351SOL    HW1 1052   0.252   0.564   2.337 -0.0723  1.3811  1.8183
  351SOL    HW2 1053   0.317   0.413   2.359 -1.8936 -0.9681  0.5940
  352SOL     OW 1054   0.733   2.307   1.406 -0.0885  0.2590 -0.3373
  352SOL    HW1 1055   0.777   2.387   1.447 -0.0248  1.3374 -1.2410
  352SOL    HW2 1056   0.639   2.323   1.382  2.4040  1.2343 -0.8717
  353SOL     OW 1057   1.459   1.273   2.360  0.4544 -0.1623 -0.6596
  353SOL    HW1 1058   1.374   1.288   2.305 -0.2960  0.0678  0.5101
  353SOL    HW2 1059   1.447   1.302   2.457 -0.5859 -0.8364  1.0746
  354SOL     OW 1060   1.545   0.807   0.628  0.0814  0.3189  0.0101
  354SOL    HW1 1061   1.577   0.711   0.624 -1.9421  0.0403 -1.5272
  354SOL    HW2 1062   1.489   0.829   0.544 -0.0316  0.3917 -1.3258
  355SOL     OW 1063   2.586   0.880   0.436 -0.6654 -0.1209 -0.2218
  355SOL    HW1 1064   2.644   0.806   0.398 -1.6536  0.2647 -1.6230
  355SOL    HW2 1065   2.638   0.966   0.416  2.0333 -2.8349 -1.8079
  356SOL     OW 1066   2.550   1.124   2.776 -0.0703 -0.1992 -0.0186
  356SOL    HW1 1067   2.626   1.055   2.778 -1.0840  0.6921  2.1806
  356SOL    HW2 1068   2.462   1.084   2.805  3.3283 -1.2399 -2.8584
  357SOL     OW 1069   0.836   2.564   1.476 -0.4720  0.2275 -0.3350
  357SOL    HW1 1070   0.774   2.640   1.455 -0.6675 -3.4580  1.4478
  357SOL    HW2 1071   0.857   2.573   1.575  1.9120  2.1953 -1.6049
  358SOL     OW 1072   2.244   1.112   2.081  0.6709 -0.4901  0.1282
  358SOL    HW1 1073   2.190   1.176   2.014 -0.3704  1.3080 -1.5416
  358SOL    HW2 1074   2.217   1.013   2.073 -0.0286  1.3995  0.5240
  359SOL     OW 1075   2.052   2.251   2.948 -0.0206 -0.6378 -0.6385
  359SOL    HW1 1076   2.074   2.314   3.027 -0.8335  0.2915 -0.2327
  359SOL    HW2 1077   2.068   2.299   2.859  0.1346 -1.8981 -1.6390
  360SOL     OW 1078   2.119   0.412   0.860 -0.0660  0.3771 -0.5879
  360SOL    HW1 1079   2.139   0.500   0.903  1.8554  0.6286 -1.2976
  360SOL    HW2 1080   2.057   0.430   0.786  0.8586 -2.7954  0.6041
  361SOL     OW 1081   2.000   2.949   0.920 -0.2006 -0.1708  0.1419
  361SOL    HW1 1082   2.091   2.908   0.957  2.0921 -2.5054  0.2921
  361SOL    HW2 1083   1.945   2.874   0.874 -1.3167  0.6188 -1.7144
  362SOL     OW 1084   1.431   1.156   0.664  0.4190  0.4443  0.2493
  362SOL    HW1 1085   1.362   1.138   0.589 -1.2640 -1.0640 -1.5433
  362SOL    HW2 1086   1.374   1.170   0.747 -1.3997  0.8966  1.2853
  363SOL     OW 1087   2.276   1.565   2.409 -0.3621  0.3866 -0.6086
  363SOL    HW1 1088   2.349   1.573   2.479 -0.3170 -3.6564  0.2767
  363SOL    HW2 1089   2.197   1.506   2.443  0.5746 -1.2334  0.1458
  364SOL     OW 1090   1.405   0.690   1.292  0.2130 -0.0985  0.0335
  364SOL    HW1 1091   1.459   0.695   1.208 -1.4873  3.0449  0.0311
  364SOL    HW2 1092   1.399   0.596   1.332 -2.1483  0.3952 -1.2127
  365SOL     OW 1093   0.179   2.927   0.985 -0.2061 -0.3659  0.0898
  365SOL    HW1 1094   0.213   2.849   1.046 -0.9689 -3.3388  0.3182
  365SOL    HW2 1095   0.099   2.893   0.934 -1.6144  2.9970  0.8187
  366SOL     OW 1096   2.775   1.489   0.482  0.0914  0.3529  0.1740
  366SOL    HW1 1097   2.730   1.483   0.572 -2.2247 -2.7776  0.2698
  366SOL    HW2 1098   2.754   1.581   0.437 -0.7837 -2.1803 -0.6850
  367SOL     OW 1099   2.927   2.388   2.933  0.1034 -0.3325  0.2510
  367SOL    HW1 1100   2.883   2.434   2.855  0.7184 -0.7942  2.0265
  367SOL    HW2 1101   2.860   2.370   3.004 -1.0166  0.3358 -3.9465
  368SOL     OW 1102   0.121   2.038   0.987 -0.0328  0.0575 -0.2551
  368SOL    HW1 1103   0.196   2.045   0.922 -1.4885 -1.3200  3.1518
  368SOL    HW2 1104   0.058   1.964   0.959  1.2727 -0.1841 -0.0806
  369SOL     OW 1105   0.460   0.236   0.249  0.2619  0.1225 -0.0011
  369SOL    HW1 1106   0.424   0.149   0.287 -0.7610 -1.3105  0.6610
  369SOL    HW2 1107   0.561   0.225   0.243 -2.1151 -0.7163 -0.1107
  370SOL     OW 1108   0.263   1.008   1.358  0.2645 -0.6281 -0.4440
  370SOL    HW1 1109   0.225   0.923   1.399  1.2011  0.3556 -0.0725
  370SOL    HW2 1110   0.248   1.086   1.423  0.3470 -1.3100 -2.1858
  371SOL     OW 1111   1.999   2.470   0.407  0.2450  0.7732  0.5165
  371SOL    HW1 1112   2.082   2.411   0.392  0.0994  0.7181 -2.4841
  371SOL    HW2 1113   1.940   2.447   0.485  1.6913  2.1558  2.1070
  372SOL     OW 1114   0.293   1.034   2.799 -0.3147  0.0311 -0.5721
  372SOL    HW1 1115   0.351   1.090   2.737  0.8256 -1.4804 -0.4155
  372SOL    HW2 1116   0.307   1.058   2.900  2.8416 -0.1644  2.5524
  373SOL     OW 1117   2.592   1.459   0.680  0.4012 -0.7122  0.1914
  373SOL    HW1 1118   2.550   1.509   0.596  1.2958  2.1102 -2.6559
  373SOL    HW2 1119   2.530   1.390   0.725 -0.3208  0.0971 -0.3708
  374SOL     OW 1120   0.388   2.346   0.285  0.2952  0.1145  0.5910
  374SOL    HW1 1121   0.425   2.266   0.339  0.7144 -0.7989 -0.0500
  374SOL    HW2 1122   0.369   2.314   0.189  1.4930 -0.8846 -1.8912
  375SOL     OW 1123   0.737   0.217   0.218  0.3471 -0.0974  0.3710
  375SOL    HW1 1124   0.824   0.196   0.268  0.1441 -1.7737  0.9651
  375SOL    HW2 1125   0.742   0.321   0.198  1.8335  0.6988  0.3079
  376SOL     OW 1126   0.304   2.753   1.975 -0.1525  0.2870  0.2871
  376SOL    HW1 1127   0.395   2.791   1.938  1.4311 -0.2944 -2.2550
  376SOL    HW2 1128   0.280   2.808   2.059 -2.6182  2.3217 -1.9993
  377SOL     OW 1129   0.952   2.353   2.287 -0.2634  0.1542  0.2823
  377SOL    HW1 1130   0.996   2.277   2.334 -1.5668 -0.9080 -3.2082
  377SOL    HW2 1131   1.019   2.415   2.243 -2.2673 -2.2988 -0.0188
  378SOL     OW 1132   1.047   0.902   0.538 -0.0769 -0.1612  0.1485
  378SOL    HW1 1133   0.966   0.924   0.483  3.0579  1.0688 -0.0403
  378SOL    HW2 1134   1.060   0.800   0.550 -0.0055 -0.0600  0.5472
  379SOL     OW 1135   0.856   1.921   2.849 -0.2482  0.2785 -0.8127
  379SOL    HW1 1136   0.897   1.828   2.866  1.9569  0.9010 -1.4862
  379SOL    HW2 1137   0.909   1.972   2.777  0.0460  0.4519 -1.4595
  380SOL     OW 1138   2.765   1.937   1.768  0.0886 -0.1298 -0.6596
  380SOL    HW1 1139   2.699   1.872   1.807  1.4107 -3.8478 -1.8902
  380SOL    HW2 1140   2.818   1.979   1.845 -1.4331 -0.3707 -0.2600
  381SOL     OW 1141   0.095   1.099   1.888 -0.4929  0.0405  0.0461
  381SOL    HW1 1142   0.191   1.139   1.890 -0.7971 -0.0334  1.2469
  381SOL    HW2 1143   0.074   1.058   1.796  2.3661  0.6134 -1.1624
  382SOL     OW 1144   2.506   2.296   3.010 -0.0879 -0.5163 -0.1350
  382SOL    HW1 1145   2.464   2.373   2.959  0.4757 -1.2737 -1.7429
  382SOL    HW2 1146   2.595   2.326   3.051  0.0564  0.3479 -1.1755
  383SOL     OW 1147   2.434   1.939   2.005 -0.2432  0.1159  0.0680
  383SOL    HW1 1148   2.385   1.910   2.087  0.7363  2.6983  1.5669
  383SOL    HW2 1149   2.469   2.027   2.014 -0.1272 -3.1036 -0.8390
  384SOL     OW 1150   0.857   2.295   2.054 -0.5698  0.3961  0.0936
  384SOL    HW1 1151   0.893   2.324   2.145 -1.5772 -1.9417 -2.2327
  384SOL    HW2 1152   0.797   2.367   2.017 -0.4648  2.3059 -0.0991
  385SOL     OW 1153   2.500   2.000   1.122  0.2382 -0.4498  0.6680
  385SOL    HW1 1154   2.401   1.987   1.104  0.9066 -0.6142 -0.0361
  385SOL    HW2 1155   2.545   1.913   1.144  0.8375 -0.2747  0.5782
  386SOL     OW 1156   1.795   0.611   0.128  0.3578 -0.1593  0.2833
  386SOL    HW1 1157   1.882   0.661   0.104  2.4995 -0.9250 -1.4932
  386SOL    HW2 1158   1.765   0.622   0.227  0.9999  0.2009  3.0969
  387SOL     OW 1159   0.644   0.781   1.881  0.4309 -0.0589  0.0037
  387SOL    HW1 1160   0.568   0.754   1.821 -2.2990  1.6564 -1.1103
  387SOL    HW2 1161   0.639   0.747   1.975  1.1850  0.7205 -1.8034
  388SOL     OW 1162   2.707   1.012   2.001  0.1968  0.1055  0.0778
  388SOL    HW1 1163   2.767   0.969   1.933 -1.2146 -0.8192 -0.8575
  388SOL    HW2 1164   2.693   0.949   2.080  0.4041 -0.4767 -2.7498
  389SOL     OW 1165   1.500   0.585   2.437 -0.2086  0.0049  0.7114
  389SOL    HW1 1166   1.549   0.643   2.363 -0.5275 -2.6631  2.0017
  389SOL    HW2 1167   1.424   0.520   2.399 -1.8948 -1.5273 -2.1205
  390SOL     OW 1168   1.732   2.363   0.047  0.0068  0.1876  0.1842
  390SOL    HW1 1169   1.737   2.264   0.067 -0.4765 -0.7968 -2.3295
  390SOL    HW2 1170   1.732   2.420   0.132 -1.4947  0.1380  2.0404
  391SOL     OW 1171   1.819   2.627   1.389 -0.1014  0.4819 -0.5214
  391SOL    HW1 1172   1.767   2.538   1.390 -0.9097  1.5736  0.8612
  391SOL    HW2 1173   1.884   2.632   1.308 -1.9967  3.3026  1.2441
  392SOL     OW 1174   2.662   2.444   1.265 -0.0870  0.2118 -0.0601
  392SOL    HW1 1175   2.740   2.506   1.252 -0.2248 -0.4552 -1.9813
  392SOL    HW2 1176   2.661   2.373   1.187 -1.0958 -2.3985  1.2599
  393SOL     OW 1177   1.737   1.728   2.702 -0.1856  0.5159 -0.1200
  393SOL    HW1 1178   1.826   1.776   2.680  2.1251  1.8458  0.2379
  393SOL    HW2 1179   1.767   1.642   2.751  0.7552 -1.4921 -0.9753
  394SOL     OW 1180   0.261   2.740   0.055 -0.0376 -0.2330 -0.7135
  394SOL    HW1 1181   0.187   2.754   3.045  1.2583 -2.4464  1.5421
  394SOL    HW2 1182   0.281   2.833   0.099  0.5506  0.8066  1.8014
  395SOL     OW 1183   1.390   1.303   1.252 -0.4221  0.0611 -0.0949
  395SOL    HW1 1184   1.480   1.267   1.219  0.9505  1.0219  0.3831
  395SOL    HW2 1185   1.322   1.305   1.174 -2.7021  0.6514  2.7818
  396SOL     OW 1186   1.701   0.593   2.860 -0.0603 -0.0383 -0.2758
  396SOL    HW1 1187   1.652   0.562   2.775  0.4341 -2.8001 -0.2277
  396SOL    HW2 1188   1.640   0.625   2.930 -0.0384  1.2032 -0.6217
  397SOL     OW 1189   0.059   0.986   2.678 -0.4891 -0.0766  0.0544
  397SOL    HW1 1190   0.067   1.003   2.577 -1.5228 -1.6569 -4.0884
  397SOL    HW2 1191   0.150   1.018   2.715  0.6975  0.2089  0.6638
  398SOL     OW 1192   1.237   0.237   0.099  0.5239 -0.0562 -0.1132
  398SOL    HW1 1193   1.321   0.294   0.099  0.0245 -0.1722  1.4652
  398SOL    HW2 1194   1.194   0.238   0.007  1.7796 -0.9565  1.8011
  399SOL     OW 1195   2.258   2.952   1.855  0.2671 -0.2689 -0.4691
  399SOL    HW1 1196   2.325   2.889   1.907 -1.6785 -0.2016  0.5577
  399SOL    HW2 1197   2.203   2.892   1.790  1.8346  0.3025  0.8785
  400SOL     OW 1198   3.027   1.606   2.306  0.0291 -0.3419 -0.0687
  400SOL    HW1 1199   3.019   1.527   2.245  2.1142  0.8282  2.7927
  400SOL    HW2 1200   2.956   1.585   2.383 -0.7324 -1.2198  0.5253
  401SOL     OW 1201   0.726   0.042   3.056  0.0994 -0.1606 -0.2110
  401SOL    HW1 1202   0.751   0.092   0.087  1.5189 -0.2648 -4.2972
  401SOL    HW2 1203   0.653   0.088   3.006  1.8453  0.9090  2.6451
  402SOL     OW 1204   0.288   2.369   1.531 -0.3162  0.5745 -0.1640
  402SOL    HW1 1205   0.354   2.371   1.451  0.8279 -1.3684 -2.0099
  402SOL    HW2 1206   0.330   2.398   1.617  3.3596 -1.4896  1.5724
  403SOL     OW 1207   0.656   1.511   1.379  0.1065 -0.6997  0.5428
  403SOL    HW1 1208   0.625   1.413   1.396  2.8065 -0.0759  0.6833
  403SOL    HW2 1209   0.670   1.553   1.474 -0.2498 -1.3131 -1.4063
  404SOL     OW 1210   2.775   2.578   1.791  0.2951  0.0839 -0.1803
  404SOL    HW1 1211   2.716   2.517   1.732  0.4399  0.8032  2.2539
  404SOL    HW2 1212   2.763   2.676   1.764 -0.1829  0.3885 -0.6572
  405SOL     OW 1213   2.838   0.436   2.118 -0.6630  0.5069  0.5484
  405SOL    HW1 1214   2.746   0.465   2.149 -0.9959  0.0090  0.4571
  405SOL    HW2 1215   2.860   0.347   2.160 -1.5277  1.7547 -3.5435
  406SOL     OW 1216   1.767   2.483   2.860 -0.1812  0.0441  0.3160
  406SOL    HW1 1217   1.754   2.430   2.950 -1.7930 -2.3965  2.0566
  406SOL    HW2 1218   1.838   2.436   2.806 -0.5502  1.3379  0.3001
  407SOL     OW 1219   1.877   2.003   0.799  0.0899 -0.5612  0.5769
  407SOL    HW1 1220   1.947   1.943   0.753 -1.6127  2.1153 -0.8010
  407SOL    HW2 1221   1.784   1.962   0.788  3.5279  0.2168 -0.9539
  408SOL     OW 1222   0.603   0.413   1.942 -0.2713 -0.8676 -0.0835
  408SOL    HW1 1223   0.560   0.497   1.976  1.2578 -0.4360  0.4906
  408SOL    HW2 1224   0.693   0.402   1.981 -1.5098 -1.0735 -2.0601
  409SOL     OW 1225   2.522   2.147   0.382 -0.0452 -1.0834 -0.1060
  409SOL    HW1 1226   2.470   2.105   0.462 -0.5379  0.9857  1.8387
  409SOL    HW2 1227   2.624   2.130   0.386  0.7859  0.0594  0.7864
  410SOL     OW 1228   2.236   1.502   0.452  0.1118  0.3600  0.4360
  410SOL    HW1 1229   2.288   1.415   0.441  2.2963 -1.9729  1.4166
  410SOL    HW2 1230   2.295   1.571   0.495  0.5304 -1.6183  1.9003
  411SOL     OW 1231   0.220   0.756   0.495  0.5016  0.0153 -0.0274
  411SOL    HW1 1232   0.279   0.732   0.575 -0.5104  0.7633  1.0014
  411SOL    HW2 1233   0.123   0.762   0.531  0.7410 -0.2166  0.9302
  412SOL     OW 1234   1.677   0.621   0.409  0.2940  0.0853  0.1625
  412SOL    HW1 1235   1.639   0.525   0.425 -0.4538 -1.7073  2.2996
  412SOL    HW2 1236   1.771   0.631   0.434 -2.1644  0.0653 -1.0653
  413SOL     OW 1237   0.948   0.754   1.319  0.2856  0.4247 -0.4744
  413SOL    HW1 1238   0.891   0.719   1.401 -2.6452 -0.9747 -0.1585
  413SOL    HW2 1239   0.948   0.856   1.308  0.7282 -1.1384 -2.1556
  414SOL     OW 1240   0.156   1.578   0.010 -0.4432  0.3644 -0.2810
  414SOL    HW1 1241   0.072   1.533   0.050 -2.4158 -0.6464 -2.7913
  414SOL    HW2 1242   0.139   1.581   2.969  0.1411  2.7598  0.4932
  415SOL     OW 1243   0.138   1.816   0.143 -0.4301  0.4990 -0.1302
  415SOL    HW1 1244   0.209   1.887   0.113  0.7777 -0.0575 -1.3282
  415SOL    HW2 1245   0.155   1.726   0.093  0.6158 -3.4286  0.7391
  416SOL     OW 1246   1.746   0.881   0.315  0.8821  0.5565 -0.0439
  416SOL    HW1 1247   1.751   0.971   0.363 -0.7839 -0.3132 -1.3104
  416SOL    HW2 1248   1.710   0.810   0.377 -1.1161 -0.9876  1.1140
  417SOL     OW 1249   0.423   0.879   0.889 -0.2265 -0.6909 -0.0618
  417SOL    HW1 1250   0.337   0.899   0.947 -0.8689  2.4609  2.7203
  417SOL    HW2 1251   0.509   0.903   0.940 -1.0265 -1.2452  0.2479
  418SOL     OW 1252   2.247   1.175   2.636  0.1543  0.2059  0.1683
  418SOL    HW1 1253   2.153   1.179   2.601 -0.3677  1.2415  1.3574
  418SOL    HW2 1254   2.252   1.139   2.732  0.4020 -1.2530 -1.3679
  419SOL     OW 1255   0.382   0.429   0.419 -0.4235 -0.0860  0.0229
  419SOL    HW1 1256   0.460   0.494   0.408  0.1072  0.8513  1.0506
  419SOL    HW2 1257   0.380   0.357   0.350 -0.6760  0.3221  1.7409
  420SOL     OW 1258   0.152   1.598   0.894 -0.0722  0.6947  0.3975
  420SOL    HW1 1259   0.186   1.509   0.930  0.2049 -1.9925  0.1951
  420SOL    HW2 1260   0.238   1.648   0.875  4.2134 -0.7658  0.7190
  421SOL     OW 1261   0.461   2.089   0.375 -0.3621 -0.4842 -0.1933
  421SOL    HW1 1262   0.467   2.108   0.475  1.6248  0.4786 -0.4343
  421SOL    HW2 1263   0.537   2.032   0.345 -0.9909  0.5957  0.8554
  422SOL     OW 1264   2.659   0.489   1.322 -0.0247 -0.3688 -0.3581
  422SOL    HW1 1265   2.751   0.524   1.346  1.8637  0.2722  0.1577
  422SOL    HW2 1266   2.587   0.501   1.385  0.6122 -0.1354 -2.1682
  423SOL     OW 1267   1.748   1.646   0.847 -0.3557 -0.0582 -0.0104
  423SOL    HW1 1268   1.749   1.659   0.945 -1.6877  1.5513 -1.4987
  423SOL    HW2 1269   1.698   1.559   0.831 -0.2558  2.6916  0.8338
  424SOL     OW 1270   1.796   1.093   0.455  0.2891  0.1229  0.6567
  424SOL    HW1 1271   1.876   1.145   0.421  0.3300  1.5300  2.4877
  424SOL    HW2 1272   1.714   1.155   0.464  0.5697 -0.4201 -2.2928
  425SOL     OW 1273   3.051   3.027   1.800 -0.3520 -0.5554 -0.1312
  425SOL    HW1 1274   0.045   0.034   1.850 -0.6776  0.7721 -0.9833
  425SOL    HW2 1275   2.961   3.003   1.844 -1.6445 -0.4332 -0.4784
  426SOL     OW 1276   2.544   2.657   3.037 -0.4368 -0.1580 -0.2102
  426SOL    HW1 1277   2.570   2.627   0.075 -1.2104 -2.1982  1.4044
  426SOL    HW2 1278   2.628   2.670   2.982 -1.4747 -2.9118  2.0386
  427SOL     OW 1279   0.775   0.773   2.182  0.1515 -0.1601  0.0180
  427SOL    HW1 1280   0.795   0.708   2.258  0.0158  1.5032 -0.9437
  427SOL    HW2 1281   0.848   0.842   2.172 -1.9707  0.4160 -0.1995
  428SOL     OW 1282   2.112   0.743   2.562  0.4401  0.2783 -0.2306
  428SOL    HW1 1283   2.182   0.774   2.498 -0.6395 -0.1403  3.1670
  428SOL    HW2 1284   2.026   0.712   2.510 -2.8493 -1.0366 -3.4383
  429SOL     OW 1285   2.533   0.250   0.519  0.3549  0.5496  0.3182
  429SOL    HW1 1286   2.520   0.157   0.482 -2.6005 -0.2843 -1.5210
  429SOL    HW2 1287   2.473   0.312   0.461  0.6320 -0.7581 -0.8985
  430SOL     OW 1288   1.831   1.208   2.094 -0.2341 -0.0988  0.1592
  430SOL    HW1 1289   1.875   1.130   2.143 -3.0403  1.0056 -2.2826
  430SOL    HW2 1290   1.829   1.188   1.992  0.4586 -0.7596 -0.9089
  431SOL     OW 1291   2.982   1.985   1.345  0.0548 -0.0294  0.1496
  431SOL    HW1 1292   2.980   2.084   1.315 -1.9470  0.7154 -2.7038
  431SOL    HW2 1293   2.894   1.958   1.396 -0.8126 -0.8960 -0.4698
  432SOL     OW 1294   1.760   2.931   2.386  0.3152 -0.4907  0.1240
  432SOL    HW1 1295   1.738   2.913   2.287  1.3078 -0.0986  2.0050
  432SOL    HW2 1296   1.691   2.889   2.447 -0.5030 -1.1622 -1.6679
  433SOL     OW 1297   1.553   2.977   1.518 -0.7884  0.1434 -0.2763
  433SOL    HW1 1298   1.563   2.906   1.445  1.4944  0.3222 -0.6530
  433SOL    HW2 1299   1.599   2.950   1.607 -2.2546  0.6172 -0.1649
  434SOL     OW 1300   2.959   2.574   2.108  0.3292  0.2279  0.0163
  434SOL    HW1 1301   3.056   2.590   2.080 -0.8273  0.5735 -0.2862
  434SOL    HW2 1302   2.914   2.507   2.044 -0.8965  1.8930  0.3546
  435SOL     OW 1303   0.087   1.775   0.416  0.2607 -0.0925  0.3634
  435SOL    HW1 1304   0.155   1.709   0.457 -0.2124  1.0625  1.6811
  435SOL    HW2 1305   0.095   1.772   0.312  1.1853  1.3376 -1.4255
  436SOL     OW 1306   0.902   1.357   1.562  0.6513 -0.1537  0.3709
  436SOL    HW1 1307   0.907   1.390   1.464  0.3769  0.9790  0.1426
  436SOL    HW2 1308   0.976   1.292   1.576  1.0803  1.1121  0.3001
  437SOL     OW 1309   0.491   0.462   2.894 -0.5394  0.0862 -0.1033
  437SOL    HW1 1310   0.536   0.544   2.941  1.5998  2.0921  5.0850
  437SOL    HW2 1311   0.449   0.406   2.966 -0.1435 -2.2689 -0.7067
  438SOL     OW 1312   0.797   1.883   1.689  0.5198  0.1786  0.1160
  438SOL    HW1 1313   0.799   1.982   1.669 -0.0555  0.8942  0.8045
  438SOL    HW2 1314   0.836   1.833   1.606  2.9546  1.5860 -0.7630
  439SOL     OW 1315   1.773   1.131   2.900 -0.7167 -0.7491 -0.0198
  439SOL    HW1 1316   1.869   1.166   2.916  1.7311 -0.3511  1.1810
  439SOL    HW2 1317   1.783   1.030   2.883  1.7568 -0.3156 -0.4329
  440SOL     OW 1318   1.020   0.716   0.291 -0.4063  0.7713 -0.4565
  440SOL    HW1 1319   1.066   0.804   0.277 -0.5405 -2.6664  2.6226
  440SOL    HW2 1320   1.094   0.647   0.307 -0.7965  0.8219  0.2951
  441SOL     OW 1321   0.482   2.883   1.634 -0.0681  0.3319 -0.4951
  441SOL    HW1 1322   0.585   2.873   1.628  0.8612  0.2728 -0.6753
  441SOL    HW2 1323   0.464   2.935   1.717 -0.8394 -0.9238 -4.7116
  442SOL     OW 1324   2.142   2.374   0.816 -0.0252 -0.0970 -0.3003
  442SOL    HW1 1325   2.132   2.347   0.915  0.4437 -1.5821  1.9683
  442SOL    HW2 1326   2.132   2.474   0.799 -0.0385 -0.4918  0.1468
  443SOL     OW 1327   2.671   1.283   2.595 -0.0054 -0.3032 -0.0207
  443SOL    HW1 1328   2.615   1.215   2.650  0.9691  1.1123  1.6526
  443SOL    HW2 1329   2.638   1.295   2.500  1.9871  0.8365  2.1659
  444SOL     OW 1330   1.228   0.773   2.509 -0.2446  0.1058  0.3001
  444SOL    HW1 1331   1.303   0.741   2.572 -3.1092  0.0015 -2.1064
  444SOL    HW2 1332   1.266   0.820   2.428 -0.5896 -2.1088 -1.5804
  445SOL     OW 1333   2.321   2.659   1.740  0.4311 -0.0241 -0.0793
  445SOL    HW1 1334   2.353   2.701   1.827 -1.2892 -0.0267 -0.5552
  445SOL    HW2 1335   2.344   2.561   1.731 -2.0847 -0.2007 -1.8864
  446SOL     OW 1336   2.708   1.721   0.348 -0.5334 -0.7381  0.4303
  446SOL    HW1 1337   2.710   1.726   0.246  1.4698  0.6406  1.1002
  446SOL    HW2 1338   2.792   1.772   0.384  1.2090 -0.3809  1.2801
  447SOL     OW 1339   1.191   2.647   1.506  0.0036  0.2990  0.4484
  447SOL    HW1 1340   1.290   2.646   1.541  0.8594  1.7862 -0.8120
  447SOL    HW2 1341   1.132   2.726   1.539 -2.6215  0.6658 -0.4438
  448SOL     OW 1342   1.641   1.557   1.904 -0.2186 -0.5243  0.1659
  448SOL    HW1 1343   1.597   1.645   1.935 -0.4692 -0.4480 -1.3925
  448SOL    HW2 1344   1.630   1.483   1.971  3.8091  2.3861 -0.8988
  449SOL     OW 1345   0.187   1.920   2.346 -0.3593 -0.2146 -0.3137
  449SOL    HW1 1346   0.194   2.025   2.335  0.9287  2.0941  0.1864
  449SOL    HW2 1347   0.274   1.876   2.315 -1.0004  2.3047 -1.9408
  450SOL     OW 1348   2.815   1.529   2.481  0.4924  0.2028  0.1714
  450SOL    HW1 1349   2.743   1.482   2.426  2.4773  0.4910  1.6351
  450SOL    HW2 1350   2.770   1.571   2.561  1.0927  0.4283 -1.1917
  451SOL     OW 1351   2.333   0.676   1.240 -0.1846  0.7714  0.3197
  451SOL    HW1 1352   2.339   0.596   1.301  2.0364 -0.1954  0.3868
  451SOL    HW2 1353   2.422   0.701   1.191  1.0482 -0.4450 -1.6474
  452SOL     OW 1354   0.963   2.062   1.241  0.3464 -0.0217  0.0402
  452SOL    HW1 1355   1.021   2.093   1.316 -0.6635 -0.5429 -3.3224
  452SOL    HW2 1356   0.893   1.993   1.268  1.9582 -0.8096 -0.6272
  453SOL     OW 1357   1.286   2.146   0.730 -0.1710  0.0457  0.1860
  453SOL    HW1 1358   1.381   2.177   0.746  1.4220  2.3626 -0.3646
  453SOL    HW2 1359   1.226   2.227   0.704  0.4292  1.1061  1.0035
  454SOL     OW 1360   0.060   1.207   0.652  0.0054 -0.6804 -0.2703
  454SOL    HW1 1361   0.072   1.280   0.726 -0.2262 -0.6235  0.7101
  454SOL    HW2 1362   3.023   1.170   0.640  1.4761  2.3902 -1.9181
  455SOL     OW 1363   0.771   1.019   0.447  0.0807 -0.8847  0.2116
  455SOL    HW1 1364   0.738   1.034   0.356  1.1307 -1.3613  1.0223
  455SOL    HW2 1365   0.720   0.946   0.488  0.9032 -2.7726  0.5958
  456SOL     OW 1366   2.057   2.329   1.080 -0.2630  0.0824  0.1286
  456SOL    HW1 1367   2.101   2.358   1.170 -0.4803  1.0265 -0.3915
  456SOL    HW2 1368   1.986   2.392   1.053 -1.0958 -2.9815 -1.5641
  457SOL     OW 1369   1.456   2.837   2.836  0.0015 -0.0520  0.0758
  457SOL    HW1 1370   1.497   2.776   2.761 -1.3590 -2.1992  0.3359
  457SOL    HW2 1371   1.376   2.792   2.881 -0.6710 -1.4390  0.7438
  458SOL     OW 1372   2.500   0.001   2.885  0.2973 -0.2014 -0.0100
  458SOL    HW1 1373   2.461   2.965   2.883  0.9396  0.8731 -0.9000
  458SOL    HW2 1374   2.420   0.065   2.868 -0.0985  3.0026  1.7069
  459SOL     OW 1375   2.395   0.174   2.095  0.3582 -0.6130  0.0261
  459SOL    HW1 1376   2.322   0.225   2.146 -0.0079  1.0302 -0.7858
  459SOL    HW2 1377   2.439   0.105   2.157 -0.9840  0.6407  2.3332
  460SOL     OW 1378   2.832   0.603   2.630 -0.1748  0.2543  0.0516
  460SOL    HW1 1379   2.852   0.505   2.623 -0.7668  2.6443 -0.9035
  460SOL    HW2 1380   2.792   0.630   2.717  0.6356 -0.3948 -0.4211
  461SOL     OW 1381   2.841   1.815   0.780  0.8507 -0.5962  0.4421
  461SOL    HW1 1382   2.927   1.801   0.834 -0.9401  1.4590 -1.7891
  461SOL    HW2 1383   2.755   1.793   0.836 -2.6168 -1.2980  1.4702
  462SOL     OW 1384   0.128   0.288   0.879  0.0269  0.2391  0.0483
  462SOL    HW1 1385   0.069   0.208   0.855 -1.7732  1.6705  0.0680
  462SOL    HW2 1386   0.067   0.368   0.887 -2.7911 -0.9576  1.7989
  463SOL     OW 1387   2.255   1.236   0.223  0.8103  0.1733 -0.2685
  463SOL    HW1 1388   2.302   1.269   0.310 -1.4613  0.4477  1.1475
  463SOL    HW2 1389   2.284   1.297   0.143  1.5579  1.5744 -0.7314
  464SOL     OW 1390   0.872   2.958   1.366  0.1410  0.0608  0.6076
  464SOL    HW1 1391   0.891   3.051   1.334 -2.3743 -1.8945 -1.3470
  464SOL    HW2 1392   0.780   2.926   1.328  1.0909 -1.3037  3.6363
  465SOL     OW 1393   1.358   0.425   1.355  0.7221 -0.2025 -0.1112
  465SOL    HW1 1394   1.392   0.333   1.377  1.4787  0.2964 -3.4393
  465SOL    HW2 1395   1.269   0.443   1.402 -1.8325  0.6141  0.9666
  466SOL     OW 1396   1.813   2.639   2.055  0.2523 -0.3549 -0.2206
  466SOL    HW1 1397   1.879   2.701   2.005 -1.6853  1.0444  1.9840
  466SOL    HW2 1398   1.727   2.688   2.079  1.8724 -3.1956  0.4971
  467SOL     OW 1399   0.428   2.658   1.518  0.4523 -0.1872  0.1739
  467SOL    HW1 1400   0.427   2.680   1.420  0.4718  1.3180 -1.5260
  467SOL    HW2 1401   0.432   2.743   1.576  0.5489  1.8866 -0.4535
  468SOL     OW 1402   2.976   1.650   1.954  0.2927  0.2874 -0.4590
  468SOL    HW1 1403   3.014   1.568   2.005 -0.3743 -1.8107  2.2540
  468SOL    HW2 1404   2.993   1.737   2.006  0.3873 -1.3930 -1.8630
  469SOL     OW 1405   0.797   1.951   0.869  0.1390 -0.1596  0.7488
  469SOL    HW1 1406   0.784   2.053   0.847  1.0168  3.3414  2.9725
  469SOL    HW2 1407   0.884   1.933   0.825 -2.4367 -0.5211  2.7810
  470SOL     OW 1408   2.006   1.047   2.219  0.3474  0.8709 -0.1011
  470SOL    HW1 1409   2.007   0.997   2.308  0.5162  0.4087 -1.6323
  470SOL    HW2 1410   2.098   1.091   2.198 -1.6771  2.4903 -0.0905
  471SOL     OW 1411   0.339   2.281   0.022  0.0241 -0.3205 -0.8173
  471SOL    HW1 1412   0.249   2.311   3.044  0.3265 -0.6224  1.1337
  471SOL    HW2 1413   0.414   2.345   3.051 -2.6896 -1.7637  0.1637
  472SOL     OW 1414   0.050   2.766   2.331  0.6199  0.0904  0.2818
  472SOL    HW1 1415   0.115   2.748   2.408 -0.7451 -1.0228 -4.8745
  472SOL    HW2 1416   0.009   2.676   2.306  0.3703 -3.1517  1.0453
  473SOL     OW 1417   0.626   2.705   0.003 -0.7489 -0.5061  0.3537
  473SOL    HW1 1418   0.590   2.786   3.019 -0.3847 -4.1143  0.3100
  473SOL    HW2 1419   0.716   2.692   3.017 -0.1384 -0.2936  0.8391
  474SOL     OW 1420   1.635   0.011   0.825  0.4038 -0.7359 -0.0163
  474SOL    HW1 1421   1.660   3.024   0.738  1.1322 -0.1826 -0.9590
  474SOL    HW2 1422   1.717   0.062   0.870 -0.0012  1.9447 -0.5370
  475SOL     OW 1423   1.398   0.124   1.372 -0.2686 -0.2563  0.4235
  475SOL    HW1 1424   1.294   0.133   1.385  0.0419 -0.4133 -1.9537
  475SOL    HW2 1425   1.435   0.086   1.458  0.0042  0.9730 -1.1030
  476SOL     OW 1426   0.443   1.137   1.178  0.4404  0.2653  0.2102
  476SOL    HW1 1427   0.387   1.062   1.222 -1.1294 -0.5113  0.7662
  476SOL    HW2 1428   0.492   1.089   1.099  0.8297 -1.1163  0.7309
  477SOL     OW 1429   0.364   1.775   0.832 -0.3925  0.1242  0.8430
  477SOL    HW1 1430   0.464   1.769   0.818 -1.2708  1.1269  4.4776
  477SOL    HW2 1431   0.328   1.865   0.804 -1.0681  3.6131  1.7044
  478SOL     OW 1432   0.095   2.413   2.479  0.0021  0.3683 -0.0560
  478SOL    HW1 1433   0.028   2.465   2.536 -0.3433  1.5032  1.0121
  478SOL    HW2 1434   0.049   2.368   2.400  1.8406 -0.0468  0.9568
  479SOL     OW 1435   2.928   0.502   1.411 -0.9068  0.0115 -0.5395
  479SOL    HW1 1436   2.933   0.598   1.384 -0.9071  0.2746  3.0080
  479SOL    HW2 1437   3.023   0.464   1.440  0.2523 -4.0608  1.5345
  480SOL     OW 1438   2.735   2.352   0.073  0.5540  0.1729  0.3552
  480SOL    HW1 1439   2.767   2.270   0.125  2.2754  2.6999  0.9621
  480SOL    HW2 1440   2.702   2.422   0.136  0.5396  1.3856 -0.3088
  481SOL     OW 1441   2.290   1.840   1.697  0.6097  0.1502 -0.5210
  481SOL    HW1 1442   2.351   1.775   1.644  1.1339  2.6057  0.5967
  481SOL    HW2 1443   2.339   1.932   1.709  2.3748 -0.4209 -0.0361
  482SOL     OW 1444   1.873   1.696   2.357 -0.1687  0.0088 -0.1949
  482SOL    HW1 1445   1.844   1.627   2.286 -2.4222 -0.1801  2.2304
  482SOL    HW2 1446   1.833   1.789   2.346 -0.5425  0.3533 -1.5628
  483SOL     OW 1447   0.926   1.403   1.914 -0.1485  0.4884  0.4480
  483SOL    HW1 1448   0.979   1.416   1.829  1.5863 -2.7364  0.5234
  483SOL    HW2 1449   0.948   1.309   1.951 -1.6619 -0.5065  2.8149
  484SOL     OW 1450   0.261   0.580   1.349  0.2313  0.0905 -0.3449
  484SOL    HW1 1451   0.201   0.496   1.372  4.0255  1.2336 -0.4314
  484SOL    HW2 1452   0.244   0.614   1.255 -0.1097 -1.2013  0.3480
  485SOL     OW 1453   2.375   1.024   0.084 -0.1085 -0.6724 -0.3641
  485SOL    HW1 1454   2.472   1.016   0.117  1.2416 -0.6706 -0.8271
  485SOL    HW2 1455   2.332   1.093   0.145 -0.5454 -1.7979 -0.2210
  486SOL     OW 1456   1.494   0.255   1.970  0.1654  0.2781 -0.4603
  486SOL    HW1 1457   1.523   0.313   1.889  0.6435  2.5646 -0.6757
  486SOL    HW2 1458   1.538   0.161   1.975  0.6688  1.9321  1.9448
  487SOL     OW 1459   1.036   2.166   1.732 -0.0703  0.3142 -0.3354
  487SOL    HW1 1460   0.936   2.175   1.713  1.0109 -0.0570  1.3709
  487SOL    HW2 1461   1.082   2.250   1.701  0.7066 -3.2442 -0.0232
  488SOL     OW 1462   2.320   1.341   3.044 -0.2391 -0.0410  0.2035
  488SOL    HW1 1463   2.411   1.356   3.002 -0.3013  1.2430  0.0262
  488SOL    HW2 1464   2.260   1.419   3.022 -0.2822 -2.3097  1.4872
  489SOL     OW 1465   2.019   2.769   0.538 -0.3564  1.0100  0.7863
  489SOL    HW1 1466   2.037   2.684   0.484  4.5534 -0.6870 -1.0998
  489SOL    HW2 1467   2.073   2.843   0.494  1.0604  0.7365 -2.5000
  490SOL     OW 1468   0.682   2.235   2.940 -0.0459  0.5102 -0.2882
  490SOL    HW1 1469   0.620   2.178   2.879 -0.4528  2.5584 -1.3352
  490SOL    HW2 1470   0.635   2.323   2.967  2.1901  1.3648 -0.3534
  491SOL     OW 1471   1.036   1.471   1.306 -0.0785  0.0900  0.2929
  491SOL    HW1 1472   1.082   1.498   1.219 -0.2296  0.6351  2.9497
  491SOL    HW2 1473   1.107   1.470   1.378  1.4495 -2.2733  1.0152
  492SOL     OW 1474   1.021   0.635   2.106  0.8905  0.5996 -0.4022
  492SOL    HW1 1475   1.050   0.597   2.200  1.4088 -1.0639  0.2938
  492SOL    HW2 1476   0.979   0.728   2.121 -1.5859  3.1647 -1.5375
  493SOL     OW 1477   1.920   2.004   0.404  0.4685  0.2572 -0.1366
  493SOL    HW1 1478   1.874   1.912   0.424  1.6931 -0.8898 -1.1138
  493SOL    HW2 1479   1.865   2.052   0.325 -0.9767 -1.0788 -0.8190
  494SOL     OW 1480   0.823   1.403   0.821  0.1313 -0.2577 -0.5716
  494SOL    HW1 1481   0.785   1.359   0.736  0.2495 -1.0615 -1.3292
  494SOL    HW2 1482   0.741   1.450   0.871 -0.8717  1.6104  1.0995
  495SOL     OW 1483   2.386   2.408   0.631  0.0901  0.1107  0.4272
  495SOL    HW1 1484   2.345   2.396   0.536  1.1939 -1.4923 -0.2989
  495SOL    HW2 1485   2.316   2.383   0.697 -1.1658 -0.0849  0.1720
  496SOL     OW 1486   2.514   0.242   1.407  0.3334  0.7625 -0.1347
  496SOL    HW1 1487   2.455   0.209   1.334  1.7861 -0.8737  1.1299
  496SOL    HW2 1488   2.588   0.170   1.414 -0.6610 -0.1916  0.5715
  497SOL     OW 1489   2.375   0.996   2.476  0.2333 -0.1119  0.3425
  497SOL    HW1 1490   2.421   1.038   2.396 -0.9593 -2.0636 -1.9260
  497SOL    HW2 1491   2.336   1.061   2.546  1.3868  0.5576 -1.5136
  498SOL     OW 1492   0.407   2.110   1.319 -0.0762  0.4415 -0.3405
  498SOL    HW1 1493   0.318   2.062   1.319  3.4378 -0.9605  0.1649
  498SOL    HW2 1494   0.480   2.055   1.273 -1.2135 -1.4526 -0.8892
  499SOL     OW 1495   1.333   2.747   1.784  0.5336  0.3661 -0.1299
  499SOL    HW1 1496   1.269   2.826   1.768 -1.2084 -2.6159 -0.1831
  499SOL    HW2 1497   1.404   2.731   1.716  0.9362 -0.1649 -0.3059
  500SOL     OW 1498   0.662   1.958   0.249 -0.5410  0.0368  0.2462
  500SOL    HW1 1499   0.706   1.973   0.159 -0.4833 -1.5661  0.0969
  500SOL    HW2 1500   0.647   1.859   0.259  1.9404 -0.9494 -1.4317
  501SOL     OW 1501   1.967   3.018   1.192  0.5144 -0.0132  0.4569
  501SOL    HW1 1502   1.992   3.004   1.095 -3.2652  0.5901 -0.4678
  501SOL    HW2 1503   1.911   2.944   1.229  1.6893 -0.5801 -1.0661
  502SOL     OW 1504   2.770   0.348   1.625  0.2758  0.3640 -0.6524
  502SOL    HW1 1505   2.793   0.337   1.524 -0.5846 -2.3985 -2.0432
  502SOL    HW2 1506   2.843   0.316   1.686 -2.6209  0.6049 -2.5537
  503SOL     OW 1507   2.493   1.156   1.928  0.3196  0.3438 -1.0386
  503SOL    HW1 1508   2.420   1.163   1.998 -0.1989 -2.3792  1.6355
  503SOL    HW2 1509   2.558   1.084   1.964  3.2081 -0.9071  1.1596
  504SOL     OW 1510   1.556   0.955   1.830 -0.4589  0.2663  0.0445
  504SOL    HW1 1511   1.521   0.860   1.850 -0.3411 -3.4838  1.8162
  504SOL    HW2 1512   1.482   1.021   1.849 -1.1696  0.5437  0.2402
  505SOL     OW 1513   0.805   0.208   1.594 -0.2327 -0.1318  0.0698
  505SOL    HW1 1514   0.713   0.171   1.580  0.7082  3.8416 -2.1423
  505SOL    HW2 1515   0.870   0.145   1.645 -1.1334 -0.5218  3.2237
  506SOL     OW 1516   0.162   0.362   0.570 -0.2621  0.5132  0.1365
  506SOL    HW1 1517   0.252   0.391   0.524  0.6705 -1.3806  1.7252
  506SOL    HW2 1518   0.157   0.392   0.669  0.3674 -0.2348  0.0505
  507SOL     OW 1519   2.549   0.448   3.040 -0.7593  0.0045  0.7761
  507SOL    HW1 1520   2.535   0.357   0.027  0.8229 -3.2916  2.7118
  507SOL    HW2 1521   2.473   0.459   2.977  2.2378  0.7471  1.9839
  508SOL     OW 1522   1.706   0.395   2.057  0.0210 -0.0677 -0.0902
  508SOL    HW1 1523   1.622   0.339   2.031  0.3773  2.1239 -2.1323
  508SOL    HW2 1524   1.704   0.488   2.008  1.3046  1.0895 -2.0210
  509SOL     OW 1525   1.553   1.684   1.433  0.3229  0.2844  0.3963
  509SOL    HW1 1526   1.566   1.584   1.444  0.3974  2.4352  0.4132
  509SOL    HW2 1527   1.466   1.703   1.383  0.5236 -0.6666 -0.3389
  510SOL     OW 1528   2.556   1.234   1.331  0.7566 -0.0128  0.1566
  510SOL    HW1 1529   2.463   1.216   1.290  1.0281 -1.7263 -1.2403
  510SOL    HW2 1530   2.618   1.221   1.243  3.4766 -0.4145 -3.7223
  511SOL     OW 1531   1.661   2.033   1.169  0.5425 -1.0843 -0.0849
  511SOL    HW1 1532   1.669   1.952   1.229 -0.2805  2.2930  0.6659
  511SOL    HW2 1533   1.740   2.098   1.190  3.4900  0.2431  0.6106
  512SOL     OW 1534   0.160   1.427   0.497  0.0643  0.1067 -0.9030
  512SOL    HW1 1535   0.242   1.364   0.494  3.7996 -0.6318 -0.3043
  512SOL    HW2 1536   0.199   1.519   0.519  0.5994 -2.2674 -0.5649
  513SOL     OW 1537   2.952   1.927   0.111  0.1077 -0.0944  0.0596
  513SOL    HW1 1538   2.974   2.005   0.054 -0.4215 -1.5240  2.8009
  513SOL    HW2 1539   3.036   1.883   0.142  0.4061  0.6657  0.7771
  514SOL     OW 1540   2.579   1.895   2.261  0.5154  0.3774  0.3098
  514SOL    HW1 1541   2.595   1.923   2.355  1.7130 -0.8569 -1.0453
  514SOL    HW2 1542   2.494   1.838   2.255 -0.2991 -0.6875  1.4017
  515SOL     OW 1543   1.917   1.078   0.879  0.4626 -0.5854  0.1157
  515SOL    HW1 1544   1.821   1.123   0.860 -3.5380  1.2914  1.5758
  515SOL    HW2 1545   1.972   1.059   0.798  0.6570 -1.7533 -0.6420
  516SOL     OW 1546   1.918   2.727   0.206  0.2174 -0.0895  0.0402
  516SOL    HW1 1547   1.879   2.691   0.118 -0.8384  0.2498  1.2600
  516SOL    HW2 1548   1.871   2.683   0.285  1.8616 -0.4703 -3.3153
  517SOL     OW 1549   0.794   1.905   2.472 -0.0644  0.6752  0.1409
  517SOL    HW1 1550   0.858   1.885   2.393  0.5897  2.9284  0.7236
  517SOL    HW2 1551   0.704   1.929   2.439  3.0863  0.4886 -1.5879
  518SOL     OW 1552   0.414   0.184   1.992  0.4704  0.1733  0.3473
  518SOL    HW1 1553   0.324   0.224   1.994  0.4975 -2.7901  1.5574
  518SOL    HW2 1554   0.490   0.256   1.978 -0.8420 -1.0899 -2.0285
  519SOL     OW 1555   0.294   1.128   0.478  0.4654  0.2757 -0.4610
  519SOL    HW1 1556   0.259   1.063   0.405  0.4962 -1.3149 -1.1130
  519SOL    HW2 1557   0.225   1.152   0.551  1.5180 -0.8507 -0.2652
  520SOL     OW 1558   2.503   1.699   1.554  0.1847  0.1611  0.2548
  520SOL    HW1 1559   2.544   1.647   1.629 -1.5360  0.9788 -0.5975
  520SOL    HW2 1560   2.575   1.758   1.510  1.5920 -1.0789  0.8444
  521SOL     OW 1561   0.572   2.465   2.492  0.1848  0.3392  0.2595
  521SOL    HW1 1562   0.606   2.370   2.464 -0.2073  2.2324 -2.5644
  521SOL    HW2 1563   0.519   2.512   2.412 -2.3600  1.5615 -1.0550
  522SOL     OW 1564   1.899   0.203   2.018  0.1707  0.0937  0.1163
  522SOL    HW1 1565   1.985   0.237   1.976 -1.5467  2.3752  0.1095
  522SOL    HW2 1566   1.834   0.281   2.034  0.2214  0.7940 -0.2547
  523SOL     OW 1567   1.955   1.903   1.877  0.1749 -0.5997  0.0362
  523SOL    HW1 1568   2.036   1.941   1.920 -2.0147 -0.5677 -1.4341
  523SOL    HW2 1569   1.932   1.809   1.905 -3.3937  0.5806  1.3508
  524SOL     OW 1570   0.709   2.956   0.405  0.1187 -0.0123  0.2799
  524SOL    HW1 1571   0.677   2.880   0.342  0.8356  0.1691 -2.4055
  524SOL    HW2 1572   0.807   2.977   0.382 -0.7977 -0.7132 -0.5043
  525SOL     OW 1573   0.089   0.589   0.319  0.1260  0.0948  0.0530
  525SOL    HW1 1574   0.179   0.630   0.340 -1.6818 -0.9432  0.2906
  525SOL    HW2 1575   0.081   0.496   0.358  0.9091 -2.0444 -1.9676
  526SOL     OW 1576   0.763   2.620   0.645 -0.3733  0.7420 -0.3365
  526SOL    HW1 1577   0.810   2.640   0.735 -0.1064 -1.8350  0.0794
  526SOL    HW2 1578   0.673   2.665   0.637 -0.9037 -0.5113 -0.4420
  527SOL     OW 1579   2.190   1.701   0.844  0.1885 -0.0093 -0.1250
  527SOL    HW1 1580   2.109   1.727   0.784 -0.8469 -0.3043  0.8534
  527SOL    HW2 1581   2.174   1.606   0.880  2.1362  0.4332 -1.3054
  528SOL     OW 1582   2.882   2.806   2.509 -0.6084  0.1594 -0.2589
  528SOL    HW1 1583   2.856   2.738   2.436 -0.9846  1.8088  0.7970
  528SOL    HW2 1584   2.955   2.764   2.567 -3.3336  1.5341  1.3078
  529SOL     OW 1585   1.063   1.554   2.357 -0.1123  0.1983  0.5240
  529SOL    HW1 1586   1.046   1.612   2.273  1.1896 -2.2475 -3.0331
  529SOL    HW2 1587   0.998   1.481   2.368 -1.0339  1.1254 -0.7939
  530SOL     OW 1588   1.551   1.305   2.898  0.2178  0.0089  0.2248
  530SOL    HW1 1589   1.498   1.265   2.821  1.2343  0.2527 -1.7317
  530SOL    HW2 1590   1.629   1.245   2.925  0.2216  0.9129 -0.4882
  531SOL     OW 1591   0.645   1.491   2.894  0.2023  0.3382  0.0555
  531SOL    HW1 1592   0.571   1.487   2.822  0.7809 -0.7144  0.2084
  531SOL    HW2 1593   0.666   1.405   2.949 -0.1404 -0.9489  1.5305
  532SOL     OW 1594   1.498   1.544   0.375 -0.3920  0.0250  0.9207
  532SOL    HW1 1595   1.426   1.544   0.305 -0.9031  1.1578 -2.0789
  532SOL    HW2 1596   1.592   1.545   0.329  0.1023  1.6308  0.5754
  533SOL     OW 1597   0.528   0.151   2.459  0.1866  0.2320  0.3500
  533SOL    HW1 1598   0.567   0.234   2.407  2.3301  0.7469 -2.1047
  533SOL    HW2 1599   0.576   0.132   2.551  3.5052 -0.2452  1.2151
  534SOL     OW 1600   0.539   2.463   2.971 -0.0201  0.1438 -0.3393
  534SOL    HW1 1601   0.507   2.484   2.875  0.9580  0.3244  0.1110
  534SOL    HW2 1602   0.562   2.553   3.018 -0.0489  0.6069  2.0977
  535SOL     OW 1603   0.299   0.110   0.602  0.0903 -0.5413  0.4355
  535SOL    HW1 1604   0.314   0.086   0.700 -1.1700 -0.5968  1.2711
  535SOL    HW2 1605   0.264   0.205   0.582  4.2913  1.7124  0.7502
  536SOL     OW 1606   0.122   0.987   2.136 -0.2418 -1.0939 -0.1236
  536SOL    HW1 1607   0.096   1.037   2.051  0.6035 -1.5007 -1.2448
  536SOL    HW2 1608   0.199   0.928   2.108  0.0578 -1.5875 -2.2634
  537SOL     OW 1609   1.149   0.048   1.400  0.2708  0.5895 -0.4673
  537SOL    HW1 1610   1.053   0.081   1.374 -2.0090 -1.3632 -1.3789
  537SOL    HW2 1611   1.179   3.035   1.332 -1.2708  1.8028 -2.5139
  538SOL     OW 1612   2.901   1.809   0.504  0.0426 -0.3181 -0.2190
  538SOL    HW1 1613   2.993   1.781   0.473  0.0231  2.9089  4.1728
  538SOL    HW2 1614   2.896   1.788   0.601  4.8662  0.3473 -0.8678
  539SOL     OW 1615   2.639   0.820   2.210 -0.0757 -0.4129  0.4128
  539SOL    HW1 1616   2.651   0.789   2.311  2.1010  2.6816  1.5539
  539SOL    HW2 1617   2.592   0.745   2.158 -0.9093  0.2398  1.6694
  540SOL     OW 1618   1.647   1.012   2.234 -0.1769  0.1626 -0.0582
  540SOL    HW1 1619   1.709   1.046   2.306 -1.7079  2.7694  2.3619
  540SOL    HW2 1620   1.671   1.047   2.140 -0.5485 -0.3186  0.2901
  541SOL     OW 1621   0.790   1.009   1.924  0.5007  0.1489  0.1921
  541SOL    HW1 1622   0.871   0.988   1.983  1.1050  1.3031 -2.1407
  541SOL    HW2 1623   0.737   0.918   1.907 -2.3896 -1.1294  1.2571
  542SOL     OW 1624   2.051   0.143   2.347 -0.1834 -0.5812 -0.3762
  542SOL    HW1 1625   2.119   0.223   2.347 -1.3050  0.8442 -1.2768
  542SOL    HW2 1626   2.095   0.056   2.356  0.4098  2.1307  0.0136
  543SOL     OW 1627   1.030   0.187   0.266 -0.1134 -0.2268  0.1188
  543SOL    HW1 1628   1.009   0.279   0.298  0.1343  1.9578  0.4143
  543SOL    HW2 1629   1.097   0.187   0.189 -1.7921 -3.4023  4.0880
  544SOL     OW 1630   2.632   1.559   1.761 -0.1973  0.0430  0.1488
  544SOL    HW1 1631   2.650   1.469   1.802 -1.0923  0.5564  0.5583
  544SOL    HW2 1632   2.652   1.642   1.817 -0.5340 -1.3491 -4.2119
  545SOL     OW 1633   2.091   2.294   1.731 -0.3745  0.8522  0.0586
  545SOL    HW1 1634   2.179   2.269   1.784  1.7616 -1.2267  1.9495
  545SOL    HW2 1635   2.083   2.230   1.648 -0.9941 -1.7982 -1.0071
  546SOL     OW 1636   0.327   0.110   2.976  0.0021 -0.0101 -0.0081
  546SOL    HW1 1637   0.263   0.054   2.916  3.4780  1.0278 -0.0360
  546SOL    HW2 1638   0.282   0.197   3.013  0.0125  0.7477 -1.6718
  547SOL     OW 1639   1.818   0.859   0.617 -0.6509 -0.0054  0.1478
  547SOL    HW1 1640   1.719   0.859   0.640  1.3797 -1.0126 -2.1808
  547SOL    HW2 1641   1.843   0.941   0.553 -0.2715  2.8674  1.9406
  548SOL     OW 1642   1.895   1.468   2.203  0.5258 -0.1178 -0.0104
  548SOL    HW1 1643   1.887   1.379   2.146 -0.3840 -3.1470 -1.7380
  548SOL    HW2 1644   1.944   1.450   2.295  2.8078  3.1959  2.6009
  549SOL     OW 1645   1.896   0.045   0.600 -0.1092 -0.2826  0.3557
  549SOL    HW1 1646   1.988   0.074   0.564  0.3064 -3.0064 -1.3295
  549SOL    HW2 1647   1.902   0.024   0.698  0.6573  2.4246  0.1415
  550SOL     OW 1648   2.232   2.107   0.793  0.4236  0.0251  0.0931
  550SOL    HW1 1649   2.249   2.083   0.890 -1.7692 -1.6939 -0.9888
  550SOL    HW2 1650   2.163   2.178   0.782 -1.9048  2.3396 -0.9209
  551SOL     OW 1651   1.023   2.864   1.579  0.4649 -0.1252 -0.1512
  551SOL    HW1 1652   0.991   2.898   1.483 -2.2582  1.1501 -1.9604
  551SOL    HW2 1653   1.022   2.945   1.642  0.4592  1.1436  3.0182
  552SOL     OW 1654   2.725   2.017   2.486 -0.3148 -0.0634 -0.1809
  552SOL    HW1 1655   2.743   1.960   2.567  1.3345  1.0254  0.2964
  552SOL    HW2 1656   2.814   2.041   2.443  0.7844 -0.7835  0.3276
  553SOL     OW 1657   0.358   0.047   0.861 -0.4758  0.2146 -0.4107
  553SOL    HW1 1658   0.419   0.114   0.910 -0.0785  0.8261  1.5440
  553SOL    HW2 1659   0.299   0.002   0.932 -2.1646 -0.6712  1.1795
  554SOL     OW 1660   2.357   2.105   1.705 -0.1526  0.7337 -0.1951
  554SOL    HW1 1661   2.334   2.161   1.626  1.2535 -2.1709  0.9083
  554SOL    HW2 1662   2.449   2.133   1.747  1.9251  3.4762  0.3969
  555SOL     OW 1663   1.237   2.328   1.950  0.1523 -0.0903 -0.3102
  555SOL    HW1 1664   1.290   2.291   1.875 -0.9807  0.0740  1.2053
  555SOL    HW2 1665   1.213   2.426   1.931  0.7337  0.6471  0.3025
  556SOL     OW 1666   1.267   1.696   1.819  0.2530  0.2971  0.1189
  556SOL    HW1 1667   1.236   1.788   1.844 -0.0728 -2.7205 -2.0228
  556SOL    HW2 1668   1.334   1.666   1.888 -0.2058  0.6257 -0.0805
  557SOL     OW 1669   2.013   2.272   2.280 -0.3217 -0.2052  0.2465
  557SOL    HW1 1670   1.967   2.178   2.274  1.2239 -2.6377  0.4907
  557SOL    HW2 1671   2.081   2.276   2.355 -0.6235  2.1243  0.0118
  558SOL     OW 1672   0.402   2.515   1.743 -0.7030 -0.3248  0.5384
  558SOL    HW1 1673   0.331   2.554   1.797  1.8198  0.1238 -0.2135
  558SOL    HW2 1674   0.423   2.580   1.665 -1.9656  1.9833 -0.5225
  559SOL     OW 1675   2.229   2.878   1.038  0.3210  0.5944 -0.4436
  559SOL    HW1 1676   2.314   2.938   1.040  1.2537  0.0851 -0.1749
  559SOL    HW2 1677   2.218   2.819   1.121 -2.8726 -0.5103  0.1217
  560SOL     OW 1678   1.288   2.295   0.412  0.4869  0.1782  0.8977
  560SOL    HW1 1679   1.222   2.218   0.432  1.3513  0.6895 -1.1151
  560SOL    HW2 1680   1.380   2.265   0.392 -1.6571  2.5891 -0.1472
  561SOL     OW 1681   0.927   0.497   2.992  0.3992  0.2127 -0.5056
  561SOL    HW1 1682   0.989   0.413   2.983  1.9341 -0.5508  0.0772
  561SOL    HW2 1683   0.853   0.481   0.004  0.6137  0.0888  1.2966
  562SOL     OW 1684   0.701   0.064   2.673  0.1599  0.1325  0.7765
  562SOL    HW1 1685   0.667   0.096   2.762  0.7690  1.1828  0.8787
  562SOL    HW2 1686   0.715   3.025   2.667 -1.8764 -0.5464 -1.0034
  563SOL     OW 1687   1.360   1.779   2.649 -0.1782 -0.5343  0.6639
  563SOL    HW1 1688   1.454   1.769   2.682 -1.8198 -1.4734 -3.1621
  563SOL    HW2 1689   1.364   1.832   2.562  1.6416  0.1331  3.0773
  564SOL     OW 1690   2.322   1.004   1.001  0.0917 -0.2518 -0.1470
  564SOL    HW1 1691   2.418   1.022   1.034  1.1499  1.0958  0.5066
  564SOL    HW2 1692   2.321   0.989   0.900  0.3287 -1.2699  0.2698
  565SOL     OW 1693   1.076   0.017   2.676 -0.2697  0.1187  0.0497
  565SOL    HW1 1694   1.045   3.044   2.769  0.4934 -3.2068  2.2339
  565SOL    HW2 1695   1.102   0.114   2.693 -2.8259 -2.4316  1.3035
  566SOL     OW 1696   1.786   0.133   2.436  0.4785 -0.1409  0.1306
  566SOL    HW1 1697   1.881   0.149   2.402 -0.8774  2.0864  0.6526
  566SOL    HW2 1698   1.765   0.032   2.427 -1.0352 -0.8526  0.7080
  567SOL     OW 1699   2.014   1.397   0.563  0.0479  0.1216  0.1465
  567SOL    HW1 1700   2.036   1.343   0.649  1.9251  3.0226  1.5261
  567SOL    HW2 1701   2.085   1.468   0.545 -0.2288  2.2151 -4.2112
  568SOL     OW 1702   1.749   1.812   0.149  0.0706  0.8686 -0.3590
  568SOL    HW1 1703   1.851   1.797   0.151 -0.2542 -0.3040  1.6957
  568SOL    HW2 1704   1.720   1.868   0.070 -1.7121 -1.6866  3.1342
  569SOL     OW 1705   1.998   1.198   3.027  0.1328 -0.1267  0.0577
  569SOL    HW1 1706   1.961   1.118   0.017 -3.1973 -2.7281 -2.0400
  569SOL    HW2 1707   2.097   1.204   3.053  2.8915 -1.8530 -0.4066
  570SOL     OW 1708   0.084   2.516   1.438  0.2730  0.5390  0.3911
  570SOL    HW1 1709   0.105   2.615   1.430 -2.8386  0.7862  1.7578
  570SOL    HW2 1710   0.166   2.465   1.473  1.3429  1.5145  1.1470
  571SOL     OW 1711   0.137   0.637   1.905 -0.0819 -0.4639 -0.2581
  571SOL    HW1 1712   0.213   0.703   1.915 -0.7784 -0.5267 -2.6003
  571SOL    HW2 1713   0.058   0.657   1.969 -1.5941 -0.2384 -0.5357
  572SOL     OW 1714   1.109   1.500   0.867  0.0419 -0.3746  0.0784
  572SOL    HW1 1715   1.042   1.428   0.848 -0.2148 -1.1227  0.2822
  572SOL    HW2 1716   1.099   1.573   0.795  0.4040 -3.3878  1.0573
  573SOL     OW 1717   1.191   2.019   2.788  0.0915  0.2170 -0.5121
  573SOL    HW1 1718   1.111   2.043   2.726  0.0585  0.5392  1.7754
  573SOL    HW2 1719   1.251   1.943   2.750  0.2238 -1.2398  0.8058
  574SOL     OW 1720   1.054   3.051   0.727  0.1228 -0.1521 -0.4360
  574SOL    HW1 1721   0.967   3.019   0.688 -0.4184 -1.5195  2.4904
  574SOL    HW2 1722   1.043   0.088   0.755  1.7527  2.6462 -0.5631
  575SOL     OW 1723   0.369   1.026   1.696 -0.6318  0.0232  0.2053
  575SOL    HW1 1724   0.316   1.090   1.637 -3.5920 -1.8100 -3.3052
  575SOL    HW2 1725   0.415   1.062   1.781  2.2390  1.0326  0.4074
  576SOL     OW 1726   2.023   0.035   1.474  0.1335 -0.2398  0.0127
  576SOL    HW1 1727   2.116   0.014   1.519  0.3902 -0.3710 -0.4962
  576SOL    HW2 1728   2.021   0.000   1.379  1.8072 -2.0022 -1.6982
  577SOL     OW 1729   0.615   1.208   1.967 -0.0762  0.4713 -0.0622
  577SOL    HW1 1730   0.626   1.247   1.873 -3.6032 -1.4383 -3.3542
  577SOL    HW2 1731   0.683   1.130   1.970 -0.3379 -1.1800 -1.3545
  578SOL     OW 1732   2.131   0.486   2.672  0.7451  0.1264 -0.6243
  578SOL    HW1 1733   2.058   0.489   2.745 -0.3212  0.6080  0.9460
  578SOL    HW2 1734   2.135   0.578   2.627  1.1265  2.3864 -1.8906
  579SOL     OW 1735   2.340   2.415   1.594 -0.5110 -0.1098 -0.0840
  579SOL    HW1 1736   2.335   2.328   1.539 -0.8463  0.7076  0.2195
  579SOL    HW2 1737   2.246   2.455   1.601  1.6312 -1.2915  1.3234
  580SOL     OW 1738   1.978   1.170   2.571  0.0200  0.2553 -0.1611
  580SOL    HW1 1739   1.960   1.267   2.545  0.7468  0.6425 -0.3990
  580SOL    HW2 1740   1.902   1.124   2.620  2.6726  0.9277 -0.7017
  581SOL     OW 1741   1.199   1.171   2.966  0.2868  0.0766  0.4009
  581SOL    HW1 1742   1.217   1.191   0.006  2.6123 -0.1974 -0.4791
  581SOL    HW2 1743   1.169   1.073   2.966 -1.7996 -0.7024 -0.4449
  582SOL     OW 1744   1.118   1.484   1.742 -0.0916 -0.0923 -0.4184
  582SOL    HW1 1745   1.176   1.442   1.670  0.9192 -0.8949 -2.5865
  582SOL    HW2 1746   1.172   1.559   1.788 -2.2351 -1.4970  1.1509
  583SOL     OW 1747   1.754   1.188   1.360 -0.1443  0.2711 -0.5809
  583SOL    HW1 1748   1.688   1.113   1.336  0.2942  0.0767  1.3508
  583SOL    HW2 1749   1.819   1.201   1.281 -0.2587  0.4890 -0.8185
  584SOL     OW 1750   1.593   2.573   0.520  0.0351 -0.4159 -0.5826
  584SOL    HW1 1751   1.501   2.558   0.563  0.4248  1.3023  0.3138
  584SOL    HW2 1752   1.666   2.549   0.588  0.5634  0.2443  2.2924
  585SOL     OW 1753   1.914   2.762   2.729  0.3007  0.1776 -0.4376
  585SOL    HW1 1754   1.917   2.702   2.650  0.2733 -1.4193 -2.1643
  585SOL    HW2 1755   1.979   2.728   2.798 -0.0708  2.5979 -3.6574
  586SOL     OW 1756   2.588   2.257   1.069  0.3273 -0.1181 -0.3235
  586SOL    HW1 1757   2.534   2.330   1.018 -1.0698  1.5052 -0.5114
  586SOL    HW2 1758   2.547   2.167   1.076  1.2056 -0.1954  0.7943
  587SOL     OW 1759   0.973   1.789   0.152  0.3257  0.3356  0.1929
  587SOL    HW1 1760   0.954   1.883   0.119 -0.2090 -0.8776 -0.1612
  587SOL    HW2 1761   1.058   1.754   0.110 -1.6717 -0.2695 -1.1408
  588SOL     OW 1762   0.689   0.230   0.951  0.8413 -0.1941  0.5903
  588SOL    HW1 1763   0.751   0.302   0.990 -0.7096 -0.1318 -1.6630
  588SOL    HW2 1764   0.726   0.214   0.858 -0.5099 -0.8264  0.7470
  589SOL     OW 1765   1.227   0.510   0.290  0.3692  0.4923 -0.5999
  589SOL    HW1 1766   1.145   0.455   0.311 -0.7493  1.9529 -0.8304
  589SOL    HW2 1767   1.294   0.457   0.235  1.7791  2.3843  0.4355
  590SOL     OW 1768   1.476   3.048   2.641 -0.0817 -0.4906  0.4966
  590SOL    HW1 1769   1.572   0.029   2.644 -0.9932  0.4224 -2.6364
  590SOL    HW2 1770   1.464   2.977   2.714  0.6334  0.7555  1.1874
  591SOL     OW 1771   3.025   2.347   2.261 -0.1180  0.2992 -0.3758
  591SOL    HW1 1772   0.028   2.291   2.201  0.9549 -1.5839 -0.7494
  591SOL    HW2 1773   2.974   2.415   2.201 -1.0095  0.7047 -0.1374
  592SOL     OW 1774   2.539   1.480   2.162  0.4321  1.3220 -0.3091
  592SOL    HW1 1775   2.559   1.402   2.100  0.3276  1.8594 -0.2086
  592SOL    HW2 1776   2.601   1.556   2.157  0.6743 -3.0087 -0.2744
  593SOL     OW 1777   1.630   1.425   1.460 -0.4662 -0.5576  0.3956
  593SOL    HW1 1778   1.655   1.344   1.410  1.4872  2.4169  2.5100
  593SOL    HW2 1779   1.626   1.407   1.564  0.6526 -0.7649  2.5534
  594SOL     OW 1780   2.771   1.203   0.108 -0.9341 -0.0130 -0.1471
  594SOL    HW1 1781   2.871   1.189   0.128 -0.3729 -0.0644 -2.8362
  594SOL    HW2 1782   2.716   1.116   0.093 -1.3211 -0.7201  1.0200
  595SOL     OW 1783   0.755   0.621   0.329 -0.1047  0.3170 -0.0642
  595SOL    HW1 1784   0.688   0.666   0.392  0.0256  0.1142  3.6580
  595SOL    HW2 1785   0.849   0.656   0.346 -1.7664 -1.0632  1.2938
  596SOL     OW 1786   0.246   1.222   1.567 -0.4244 -0.0727 -0.0617
  596SOL    HW1 1787   0.166   1.222   1.632 -0.2891  1.4784  2.9464
  596SOL    HW2 1788   0.273   1.318   1.537 -0.6608  0.1503  1.2544
  597SOL     OW 1789   1.117   1.949   0.817  0.4061  0.4858  0.2060
  597SOL    HW1 1790   1.130   1.923   0.915 -0.7628 -1.7116  1.9298
  597SOL    HW2 1791   1.187   2.018   0.796  1.6227 -3.0399  0.4615
  598SOL     OW 1792   0.270   0.025   1.580  0.0665  0.6477  0.2038
  598SOL    HW1 1793   0.253   3.012   1.647  0.1501  1.4592 -0.0724
  598SOL    HW2 1794   0.208   0.010   1.501  1.5301  1.5322  1.1057
  599SOL     OW 1795   0.466   1.459   2.709  0.0725  0.5053  0.5715
  599SOL    HW1 1796   0.391   1.512   2.751  1.9699 -0.3741  2.9028
  599SOL    HW2 1797   0.477   1.475   2.610 -2.2571  2.0447 -0.4764
  600SOL     OW 1798   0.624   0.804   2.669 -0.0725  0.3201  0.1256
  600SOL    HW1 1799   0.606   0.771   2.571 -0.8133 -0.4339 -1.4411
  600SOL    HW2 1800   0.671   0.730   2.720  0.8848 -0.8146  0.4100
  601SOL     OW 1801   0.592   0.981   1.514  0.2298  0.3564  0.6251
  601SOL    HW1 1802   0.557   0.906   1.453 -0.3012  1.6606  1.7841
  601SOL    HW2 1803   0.521   1.023   1.577 -1.4509  1.0244 -0.0089
  602SOL     OW 1804   0.516   2.937   2.981 -0.3542 -0.1637  0.3838
  602SOL    HW1 1805   0.608   2.972   3.018  2.7898 -2.1302  0.3417
  602SOL    HW2 1806   0.443   3.006   2.969  1.2350  0.9121  0.3468
  603SOL     OW 1807   1.537   2.659   2.410  0.4030  0.1444  0.0069
  603SOL    HW1 1808   1.526   2.650   2.513  1.0786  0.7300 -0.5498
  603SOL    HW2 1809   1.478   2.728   2.373  2.7540  0.1957 -0.7480
  604SOL     OW 1810   0.195   2.552   2.808  0.0238 -0.8216  0.1265
  604SOL    HW1 1811   0.168   2.474   2.866  0.9153 -1.7425 -2.6629
  604SOL    HW2 1812   0.289   2.534   2.765  0.8669  1.1191 -1.8249
  605SOL     OW 1813   2.267   1.116   1.627 -0.1069  0.4712 -0.0919
  605SOL    HW1 1814   2.346   1.177   1.622 -1.9456  2.2003 -0.8773
  605SOL    HW2 1815   2.228   1.128   1.721  0.1437  1.1817  0.8437
  606SOL     OW 1816   0.878   1.048   2.639 -0.3438 -0.4281 -0.7061
  606SOL    HW1 1817   0.891   1.150   2.640 -0.2105  0.9079  1.6852
  606SOL    HW2 1818   0.806   1.031   2.711  2.5769  1.7423 -1.6783
  607SOL     OW 1819   0.852   0.443   1.016 -0.5122  0.6225  0.0611
  607SOL    HW1 1820   0.830   0.520   0.952  0.5945  1.5208  1.4255
  607SOL    HW2 1821   0.950   0.440   1.032  0.5266 -0.4201 -0.6440
  608SOL     OW 1822   2.799   1.483   1.559  0.1104 -0.2454 -0.4660
  608SOL    HW1 1823   2.727   1.517   1.625 -3.7031 -0.8221  1.9741
  608SOL    HW2 1824   2.801   1.379   1.549  1.2987 -3.7936 -1.1081
  609SOL     OW 1825   2.366   0.426   0.392  0.4229  0.3036 -1.4009
  609SOL    HW1 1826   2.317   0.417   0.306  1.4188 -2.6466 -0.3749
  609SOL    HW2 1827   2.404   0.519   0.395 -2.2772 -1.7882 -2.7296
  610SOL     OW 1828   0.231   2.714   1.159  0.0683 -0.3398 -0.8055
  610SOL    HW1 1829   0.206   2.757   1.251  1.9643 -1.8683 -3.2193
  610SOL    HW2 1830   0.156   2.668   1.110  2.5777  0.0298  0.9936
  611SOL     OW 1831   1.476   2.083   0.098  0.3863  0.3015 -0.2409
  611SOL    HW1 1832   1.532   2.101   0.010  1.6239  1.1987  2.1012
  611SOL    HW2 1833   1.381   2.087   0.067  0.0821  0.2001 -0.4210
  612SOL     OW 1834   0.453   3.004   1.886  0.8472 -0.0747  0.0239
  612SOL    HW1 1835   0.551   3.012   1.875 -3.0944  0.3241 -2.4983
  612SOL    HW2 1836   0.427   0.022   1.949 -3.0678 -0.5824 -1.4230
  613SOL     OW 1837   0.291   2.029   0.761  0.1635  0.5300  0.1011
  613SOL    HW1 1838   0.217   2.079   0.714 -1.3295 -0.9622  0.1469
  613SOL    HW2 1839   0.380   2.070   0.727  1.0218 -2.3608  0.9724
  614SOL     OW 1840   2.191   0.136   1.906  0.5764 -0.4225 -0.2243
  614SOL    HW1 1841   2.257   0.177   1.971 -0.1550  2.4163  2.8950
  614SOL    HW2 1842   2.224   0.040   1.880  2.4358 -0.9193  0.8050
  615SOL     OW 1843   1.365   1.467   0.597  0.4888 -0.2277 -0.4876
  615SOL    HW1 1844   1.398   1.499   0.507 -0.1363  1.4297 -2.0946
  615SOL    HW2 1845   1.267   1.432   0.589 -1.6171  1.5624 -0.0382
  616SOL     OW 1846   1.766   1.529   0.556  0.2650 -0.3564 -0.2405
  616SOL    HW1 1847   1.861   1.493   0.556 -3.9560  1.0757  0.5726
  616SOL    HW2 1848   1.713   1.479   0.625  2.5474 -0.8572  1.4533
  617SOL     OW 1849   1.541   0.641   0.030  0.2600  0.0593 -0.8176
  617SOL    HW1 1850   1.499   0.731   0.004 -1.2560  1.8458  0.6126
  617SOL    HW2 1851   1.627   0.647   0.079  1.9663 -0.4853 -0.2479
  618SOL     OW 1852   0.896   0.638   1.826 -0.2038  0.3767  0.2447
  618SOL    HW1 1853   0.839   0.568   1.779  3.0983 -0.7392 -0.1034
  618SOL    HW2 1854   0.842   0.717   1.860 -0.5303 -1.0445 -0.6154
  619SOL     OW 1855   0.335   1.472   1.458 -0.0042 -0.1395  0.1277
  619SOL    HW1 1856   0.269   1.548   1.469  2.2397 -1.3703  1.6181
  619SOL    HW2 1857   0.408   1.489   1.531 -0.6276  0.7809  0.3923
  620SOL     OW 1858   2.673   2.854   2.692 -0.0800  0.8773 -0.3628
  620SOL    HW1 1859   2.742   2.810   2.633  0.7666 -2.9072  2.6777
  620SOL    HW2 1860   2.666   2.952   2.656  2.5690  0.6566  1.0209
  621SOL     OW 1861   2.365   1.713   3.047  0.3586  0.1055  0.0992
  621SOL    HW1 1862   2.407   1.663   0.064 -0.9808  2.1210  3.5071
  621SOL    HW2 1863   2.359   1.814   0.020  1.4747  2.3495 -1.8956
  622SOL     OW 1864   1.204   0.557   2.792  0.1024  0.3987  0.4969
  622SOL    HW1 1865   1.164   0.650   2.803 -0.9286  0.9554 -3.0936
  622SOL    HW2 1866   1.300   0.582   2.757  1.6834 -0.4220 -1.4335
  623SOL     OW 1867   0.724   1.567   1.631  0.0870 -0.2357  0.0902
  623SOL    HW1 1868   0.790   1.488   1.630  0.3357 -1.7311 -0.2742
  623SOL    HW2 1869   0.708   1.605   1.723  1.1616  0.6049  2.0798
  624SOL     OW 1870   2.843   0.061   0.288  0.0812  0.0538 -0.5146
  624SOL    HW1 1871   2.905   0.072   0.210  0.0476 -1.7617 -0.5165
  624SOL    HW2 1872   2.858   0.129   0.365  1.0969  0.3103  3.0515
  625SOL     OW 1873   0.780   2.222   0.791 -0.7345 -0.0683 -0.1389
  625SOL    HW1 1874   0.831   2.279   0.860 -0.1438 -0.5786  0.5042
  625SOL    HW2 1875   0.826   2.233   0.704 -0.9415 -1.8577  1.6837
  626SOL     OW 1876   2.642   0.719   2.452 -0.1363 -0.7856  0.3420
  626SOL    HW1 1877   2.697   0.654   2.504 -0.0274 -1.2494 -0.0946
  626SOL    HW2 1878   2.569   0.759   2.509 -0.1315 -0.4197 -2.0949
  627SOL     OW 1879   0.987   2.027   2.619  0.4809  0.3018 -0.3294
  627SOL    HW1 1880   1.043   2.087   2.557 -1.6296 -2.2570  0.5747
  627SOL    HW2 1881   0.906   1.988   2.567 -0.9148 -2.4939 -0.6955
  628SOL     OW 1882   2.775   2.493   2.719 -0.1574 -0.2335  0.5649
  628SOL    HW1 1883   2.726   2.503   2.631  1.7127  0.2538  1.7177
  628SOL    HW2 1884   2.745   2.560   2.792 -0.5581  1.4412  1.7225
  629SOL     OW 1885   0.760   2.833   2.617  0.4724 -0.1212  0.0007
  629SOL    HW1 1886   0.780   2.735   2.616  1.0526  0.1965  0.5387
  629SOL    HW2 1887   0.831   2.878   2.568 -0.9507 -0.8046  1.4011
  630SOL     OW 1888   0.842   0.429   2.105 -0.3809  0.2552  0.6997
  630SOL    HW1 1889   0.909   0.511   2.101  1.9417  2.4694  1.1712
  630SOL    HW2 1890   0.890   0.346   2.077 -0.7421  2.1310  0.4297
  631SOL     OW 1891   2.111   0.964   0.471  0.3524  0.2214  0.4671
  631SOL    HW1 1892   2.145   0.886   0.419  1.0024  0.5443  0.9124
  631SOL    HW2 1893   2.068   1.038   0.414 -2.0153  0.4929 -0.6536
  632SOL     OW 1894   2.546   0.244   1.704  0.0816 -0.0051 -0.1879
  632SOL    HW1 1895   2.470   0.240   1.639  2.8633 -1.1388  2.4105
  632SOL    HW2 1896   2.631   0.282   1.665 -2.8557  1.4656 -1.5167
  633SOL     OW 1897   1.138   1.343   0.432 -0.0634  0.0012 -0.2979
  633SOL    HW1 1898   1.036   1.337   0.413 -0.3035  1.0447 -3.4360
  633SOL    HW2 1899   1.182   1.250   0.440 -0.2811  0.4661  0.9797
  634SOL     OW 1900   2.668   2.767   2.108 -0.5684  0.6871 -0.2299
  634SOL    HW1 1901   2.757   2.724   2.135 -0.0835 -2.8041  0.7464
  634SOL    HW2 1902   2.605   2.786   2.186  0.0026 -1.8717  1.5137
  635SOL     OW 1903   1.551   0.375   0.398 -0.0635  0.2997  0.1309
  635SOL    HW1 1904   1.509   0.302   0.339 -2.2718 -2.0811  0.3677
  635SOL    HW2 1905   1.611   0.329   0.471  1.4214 -1.1996  2.6410
  636SOL     OW 1906   0.703   1.276   0.627  0.0533  0.0741  0.2868
  636SOL    HW1 1907   0.617   1.324   0.596 -2.3211 -1.1481  0.3234
  636SOL    HW2 1908   0.675   1.177   0.638 -0.4502  0.2279  1.7151
  637SOL     OW 1909   2.327   1.955   0.118 -0.3283  0.4063  0.5798
  637SOL    HW1 1910   2.414   2.001   0.085 -1.6745 -1.2274 -1.4013
  637SOL    HW2 1911   2.300   1.979   0.213  0.2800 -1.3684 -0.2925
  638SOL     OW 1912   1.515   2.486   2.210  0.5592 -0.4478 -0.3115
  638SOL    HW1 1913   1.533   2.545   2.128 -3.0801  0.7801  0.5761
  638SOL    HW2 1914   1.513   2.548   2.293 -1.7629 -0.3741 -0.7093
  639SOL     OW 1915   1.393   1.931   0.600  0.0657 -0.6664  0.0547
  639SOL    HW1 1916   1.340   1.925   0.513  0.2740 -0.7787 -1.7248
  639SOL    HW2 1917   1.360   2.007   0.656  2.9025  0.6689 -0.7065
  640SOL     OW 1918   2.169   2.970   0.427 -0.0629 -0.4434  0.0267
  640SOL    HW1 1919   2.125   2.944   0.341  0.6848  0.0138 -0.2863
  640SOL    HW2 1920   2.174   0.011   0.442  1.1317 -0.2745 -0.4606
  641SOL     OW 1921   2.854   0.495   3.047 -0.0073 -0.2077  0.0680
  641SOL    HW1 1922   2.812   0.461   0.073  1.9240  0.6917 -1.9327
  641SOL    HW2 1923   2.932   0.428   3.031 -1.0275 -0.7426  0.4207
  642SOL     OW 1924   0.543   0.585   1.151  0.4283 -0.0563 -0.1445
  642SOL    HW1 1925   0.447   0.574   1.108 -3.3331  1.6178 -2.8669
  642SOL    HW2 1926   0.580   0.499   1.185 -1.4125  2.1946 -0.8440
  643SOL     OW 1927   0.817   1.184   2.249 -0.0915  0.2250 -0.2899
  643SOL    HW1 1928   0.741   1.126   2.293 -0.7713 -0.9074 -2.0223
  643SOL    HW2 1929   0.802   1.285   2.249  0.5343  1.4921  1.3179
  644SOL     OW 1930   1.484   2.113   0.367 -0.4761  0.0431 -0.4498
  644SOL    HW1 1931   1.483   2.106   0.265 -2.5862 -1.3216 -0.7052
  644SOL    HW2 1932   1.502   2.022   0.407 -0.0732  0.8184  0.5164
  645SOL     OW 1933   1.166   2.052   0.392 -0.1331 -0.3072 -0.1993
  645SOL    HW1 1934   1.110   2.071   0.308  1.5741 -1.7393 -1.1944
  645SOL    HW2 1935   1.216   1.970   0.368 -1.8715 -1.4882 -0.7382
  646SOL     OW 1936   0.111   1.702   2.649  0.3768 -0.2569  0.2469
  646SOL    HW1 1937   0.167   1.685   2.563 -2.1866  1.0204 -1.5991
  646SOL    HW2 1938   0.067   1.797   2.644 -0.3712  1.6938 -0.6289
  647SOL     OW 1939   1.141   0.427   0.969  0.2326 -0.3950  0.2894
  647SOL    HW1 1940   1.212   0.378   1.023  0.8251  0.7807  1.8760
  647SOL    HW2 1941   1.137   0.521   1.005  2.2418 -1.3824 -1.2329
  648SOL     OW 1942   1.461   0.458   0.869 -0.1491 -0.1367 -0.2074
  648SOL    HW1 1943   1.428   0.453   0.967 -0.5688 -0.7479 -1.0819
  648SOL    HW2 1944   1.437   0.371   0.818 -1.1490  0.0062  1.0772
  649SOL     OW 1945   1.034   1.680   0.418  0.0942  0.0368 -0.1728
  649SOL    HW1 1946   1.003   1.744   0.344  1.6371 -0.5530 -0.5431
  649SOL    HW2 1947   1.117   1.628   0.389 -0.6058  0.1515  1.1711
  650SOL     OW 1948   2.337   1.463   1.703  0.2864 -0.2003  0.3458
  650SOL    HW1 1949   2.427   1.500   1.730 -0.8109 -2.4316 -2.6551
  650SOL    HW2 1950   2.266   1.529   1.745 -1.5837  0.1648  0.6333
  651SOL     OW 1951   1.596   2.255   2.717  0.1969  0.0464  0.5189
  651SOL    HW1 1952   1.689   2.299   2.716  1.6252  1.9493 -2.4538
  651SOL    HW2 1953   1.587   2.207   2.630  2.6669  0.3580 -3.1839
  652SOL     OW 1954   2.469   1.567   0.200 -0.2146  0.1234 -0.3165
  652SOL    HW1 1955   2.526   1.485   0.211  2.3188  0.0505  3.4645
  652SOL    HW2 1956   2.425   1.593   0.290  0.0538  2.1905  2.9380
  653SOL     OW 1957   0.364   0.449   0.901  0.1519  0.4486  0.2355
  653SOL    HW1 1958   0.427   0.408   0.973  1.0856  1.4221  1.1135
  653SOL    HW2 1959   0.306   0.373   0.866  1.4913 -0.1812  1.6840
  654SOL     OW 1960   2.969   0.062   2.174  0.1109 -0.4181 -0.5607
  654SOL    HW1 1961   2.918   3.053   2.123 -1.2567 -0.5734 -0.1018
  654SOL    HW2 1962   3.007   0.032   2.263 -0.1360  0.7875 -1.4939
  655SOL     OW 1963   0.405   2.442   0.650  1.1593  0.1643 -0.5364
  655SOL    HW1 1964   0.447   2.485   0.568 -1.1938 -0.9689 -1.2557
  655SOL    HW2 1965   0.302   2.445   0.652 -3.2131 -0.2610  1.2304
  656SOL     OW 1966   2.993   3.043   2.734 -0.2850 -0.1071 -0.0152
  656SOL    HW1 1967   3.004   3.049   2.633 -0.2282 -0.0077  1.9618
  656SOL    HW2 1968   2.896   3.035   2.762  1.1177 -0.8020  0.2488
  657SOL     OW 1969   0.137   1.234   2.988  0.5731 -0.2728 -0.6460
  657SOL    HW1 1970   0.132   1.331   2.955  2.0048  0.7446 -1.1871
  657SOL    HW2 1971   0.237   1.225   3.009 -3.0426  1.4363 -2.4022
  658SOL     OW 1972   2.347   1.693   1.208  0.3603  0.1034  0.0026
  658SOL    HW1 1973   2.308   1.767   1.153  1.7514  0.7000 -2.1194
  658SOL    HW2 1974   2.277   1.649   1.263  2.2336 -0.1286 -1.5620
  659SOL     OW 1975   1.598   2.776   0.105 -0.2474  0.6161  0.1061
  659SOL    HW1 1976   1.525   2.698   0.109  0.4888  0.1951 -1.2445
  659SOL    HW2 1977   1.676   2.756   0.037  0.4986  0.3381 -0.9918
  660SOL     OW 1978   1.522   0.892   2.778  0.0410  0.1579 -0.2533
  660SOL    HW1 1979   1.590   0.904   2.704 -0.8362  1.5449 -3.3735
  660SOL    HW2 1980   1.483   0.985   2.798 -0.2133  1.9017 -2.1853
  661SOL     OW 1981   0.175   1.993   1.255  0.1711  0.0792 -0.7879
  661SOL    HW1 1982   0.160   2.023   1.159 -2.7144 -0.6251 -2.1732
  661SOL    HW2 1983   0.087   1.970   1.301 -1.2196  2.2295 -1.0003
  662SOL     OW 1984   0.332   0.690   0.086  0.5051 -0.0338  0.9176
  662SOL    HW1 1985   0.237   0.714   0.049  3.2064  0.6995 -1.3672
  662SOL    HW2 1986   0.363   0.592   0.082 -0.4854 -1.4869  4.1246
  663SOL     OW 1987   2.216   1.947   1.457  0.1405  0.2308 -0.2288
  663SOL    HW1 1988   2.130   1.894   1.438  3.9378  0.3744 -1.3295
  663SOL    HW2 1989   2.249   1.929   1.553 -3.2750  0.6320  0.4557
  664SOL     OW 1990   0.872   1.254   1.217 -0.2369  0.0143 -0.2842
  664SOL    HW1 1991   0.787   1.246   1.264  2.0732  0.7346 -2.1462
  664SOL    HW2 1992   0.930   1.335   1.235 -1.1776  1.4734 -1.4664
  665SOL     OW 1993   1.998   2.793   1.969  0.1251 -0.7120 -0.0737
  665SOL    HW1 1994   1.956   2.876   2.025  0.6500 -0.1146  0.8213
  665SOL    HW2 1995   2.017   2.835   1.876  0.3560  2.2524 -0.6419
  666SOL     OW 1996   2.893   2.673   0.243  0.3895 -0.0923 -0.3971
  666SOL    HW1 1997   2.950   2.593   0.270 -0.0985 -1.9052  0.9265
  666SOL    HW2 1998   2.921   2.766   0.281 -1.6371  2.8430  1.0678
  667SOL     OW 1999   2.571   1.127   1.666 -0.1769  0.1922 -0.0170
  667SOL    HW1 2000   2.526   1.055   1.608 -2.3793 -0.3207  0.1480
  667SOL    HW2 2001   2.527   1.132   1.759 -1.0610  0.9098 -0.2496
  668SOL     OW 2002   0.203   0.703   2.419  0.2993 -0.6084 -0.5374
  668SOL    HW1 2003   0.246   0.737   2.507  1.2949  1.0916  2.1808
  668SOL    HW2 2004   0.100   0.693   2.431 -0.7413 -0.2985 -2.1815
  669SOL     OW 2005   2.317   1.919   2.449 -0.2675  0.0443  0.4368
  669SOL    HW1 2006   2.384   1.841   2.462  3.5768 -2.6734 -0.9281
  669SOL    HW2 2007   2.253   1.915   2.364 -0.5645  1.3939 -2.6136
  670SOL     OW 2008   2.697   1.326   1.843  0.5434 -0.5752 -0.1691
  670SOL    HW1 2009   2.637   1.245   1.866 -0.3064  2.8699  0.4031
  670SOL    HW2 2010   2.786   1.307   1.886 -0.1015  2.1795 -0.2377
  671SOL     OW 2011   2.813   1.408   0.860 -0.0398 -0.5190  0.1935
  671SOL    HW1 2012   2.895   1.454   0.823  1.0543  0.4299  1.4071
  671SOL    HW2 2013   2.730   1.423   0.805 -0.4829  2.4422 -0.6852
  672SOL     OW 2014   2.344   0.563   2.174  0.5784 -0.1839  0.2218
  672SOL    HW1 2015   2.283   0.623   2.237  0.0847  1.5992  1.5250
  672SOL    HW2 2016   2.375   0.607   2.090 -1.7612 -0.1794  0.1324
  673SOL     OW 2017   2.491   0.004   2.274  0.6661  0.0342  0.1307
  673SOL    HW1 2018   2.584   0.035   2.243 -3.4869 -1.2456 -1.2206
  673SOL    HW2 2019   2.488   2.964   2.278 -0.5856  1.9941 -0.0037
  674SOL     OW 2020   1.613   2.428   1.579 -0.0327  0.0846 -0.7043
  674SOL    HW1 2021   1.651   2.393   1.670  1.3216 -1.1703 -0.3889
  674SOL    HW2 2022   1.669   2.403   1.499  0.8771  0.2143  3.2766
  675SOL     OW 2023   0.835   0.683   0.858 -0.2965  0.2239  1.0220
  675SOL    HW1 2024   0.807   0.703   0.953 -0.6523  1.7253  1.7350
  675SOL    HW2 2025   0.803   0.750   0.788 -1.7472 -1.5289 -0.1822
  676SOL     OW 2026   1.604   0.896   0.896  0.2245  0.0201  0.1018
  676SOL    HW1 2027   1.632   0.990   0.871  1.0037 -0.7316 -1.4401
  676SOL    HW2 2028   1.556   0.855   0.818  0.1617 -2.6678  1.1705
  677SOL     OW 2029   2.577   1.284   2.348  0.4792  0.1583  0.3330
  677SOL    HW1 2030   2.551   1.190   2.308  1.3100  0.4615 -0.4068
  677SOL    HW2 2031   2.543   1.365   2.291 -2.5228  2.1214  2.2198
  678SOL     OW 2032   2.608   1.753   1.180 -0.0994 -0.4581 -0.5614
  678SOL    HW1 2033   2.679   1.700   1.229  1.3281 -0.9597 -0.8686
  678SOL    HW2 2034   2.514   1.723   1.198 -2.5859  2.2796  1.6652
  679SOL     OW 2035   2.173   2.656   0.148 -0.4278  0.4987 -0.4966
  679SOL    HW1 2036   2.251   2.680   0.205 -0.4821  1.3477 -0.9160
  679SOL    HW2 2037   2.080   2.679   0.189 -1.3062  1.6827 -0.8015
  680SOL     OW 2038   0.089   2.191   2.088 -0.0645  0.4669 -0.9144
  680SOL    HW1 2039   0.176   2.189   2.146  3.5012 -1.6269 -0.8673
  680SOL    HW2 2040   0.100   2.144   1.997 -0.3916  1.5389 -2.0465
  681SOL     OW 2041   0.654   1.264   1.690  0.2014 -0.0195 -0.0142
  681SOL    HW1 2042   0.741   1.297   1.643 -0.2540 -0.6750 -0.7063
  681SOL    HW2 2043   0.575   1.326   1.680 -1.2815 -0.2359  1.3737
  682SOL     OW 2044   1.277   2.683   0.811 -0.1834  0.3721  0.1623
  682SOL    HW1 2045   1.331   2.604   0.762  4.7655 -3.3206 -2.3560
  682SOL    HW2 2046   1.208   2.647   0.876 -0.2821 -0.9085  1.0011
  683SOL     OW 2047   2.127   1.298   0.813  0.4720  0.2551  0.2836
  683SOL    HW1 2048   2.081   1.374   0.860  0.0309 -0.7358  0.7274
  683SOL    HW2 2049   2.083   1.209   0.833 -0.9258 -0.4281 -1.5972
  684SOL     OW 2050   0.447   2.218   2.006 -0.2641  0.6526 -0.3377
  684SOL    HW1 2051   0.502   2.140   2.044  1.5444 -2.2960  0.1028
  684SOL    HW2 2052   0.467   2.230   1.908  0.2249 -1.9997 -2.2059
  685SOL     OW 2053   1.432   1.668   3.030 -0.0260  0.2300  0.5926
  685SOL    HW1 2054   1.470   1.728   2.956 -1.8140  0.2178 -2.5548
  685SOL    HW2 2055   1.503   1.632   0.027  1.3195  1.6290 -2.5446
  686SOL     OW 2056   3.012   0.750   1.264  0.0782  0.0089  0.0627
  686SOL    HW1 2057   2.967   0.841   1.251 -0.8322 -1.4451  0.7024
  686SOL    HW2 2058   0.013   0.755   1.345 -2.7577  1.3104  0.2031
  687SOL     OW 2059   0.839   2.296   2.711  0.0234 -0.4476  1.6351
  687SOL    HW1 2060   0.777   2.261   2.785 -1.3805 -0.8511  1.3166
  687SOL    HW2 2061   0.790   2.285   2.623 -1.9092 -0.2835 -0.5318
  688SOL     OW 2062   2.622   1.772   1.920 -0.3793 -0.6500  0.4705
  688SOL    HW1 2063   2.553   1.839   1.949 -0.7727  0.7860 -1.8950
  688SOL    HW2 2064   2.662   1.719   2.002  1.5807  0.1277  1.8370
  689SOL     OW 2065   2.007   0.664   2.038 -0.1317  0.2242  0.4176
  689SOL    HW1 2066   2.013   0.585   1.971 -0.6365 -0.1226 -4.6128
  689SOL    HW2 2067   1.913   0.703   2.035 -2.2742  1.8189 -0.9978
  690SOL     OW 2068   2.065   0.879   1.025 -0.1319 -0.0552  0.5543
  690SOL    HW1 2069   2.140   0.939   1.058  0.2950  0.3819 -0.9088
  690SOL    HW2 2070   2.026   0.910   0.936  1.3667  0.8944 -2.9237
  691SOL     OW 2071   0.846   1.832   1.945  0.5329 -0.4765 -0.5158
  691SOL    HW1 2072   0.896   1.916   1.979 -3.5768  1.3326  0.3452
  691SOL    HW2 2073   0.817   1.851   1.847 -1.0216  1.9513 -0.5588
  692SOL     OW 2074   2.107   0.357   1.402 -0.2576  0.9823 -0.5565
  692SOL    HW1 2075   2.102   0.300   1.489 -0.5104 -1.6670  1.7195
  692SOL    HW2 2076   2.111   0.300   1.320  1.0045  0.2702 -0.8168
  693SOL     OW 2077   0.500   1.248   2.199 -1.1295  0.5360 -0.4953
  693SOL    HW1 2078   0.462   1.169   2.244 -0.6943  1.1592 -0.8413
  693SOL    HW2 2079   0.555   1.223   2.116  0.3291  1.0916 -2.2780
  694SOL     OW 2080   1.604   2.778   1.324  0.1165 -0.1395 -0.3665
  694SOL    HW1 2081   1.609   2.819   1.229  1.3870 -0.0301  1.4964
  694SOL    HW2 2082   1.695   2.732   1.341  1.3801  1.7863  1.3581
  695SOL     OW 2083   1.367   1.164   1.896 -0.5532  0.6488  0.3278
  695SOL    HW1 2084   1.329   1.199   1.806 -0.2166  1.0017  0.0462
  695SOL    HW2 2085   1.373   1.235   1.970 -0.5252  0.3692 -0.7690
  696SOL     OW 2086   1.361   0.064   0.478  0.5251 -0.6344 -0.1600
  696SOL    HW1 2087   1.305   0.150   0.491  2.4726  1.2362 -0.2175
  696SOL    HW2 2088   1.332   3.046   0.537  2.3991  0.2438  0.2270
  697SOL     OW 2089   1.262   0.325   0.541  0.3406  0.2231  0.0140
  697SOL    HW1 2090   1.274   0.411   0.591 -2.8844 -1.1573  0.4064
  697SOL    HW2 2091   1.270   0.339   0.440  2.7941  0.0602  1.5173
  698SOL     OW 2092   1.380   1.120   2.758 -0.3644  0.2830  0.0625
  698SOL    HW1 2093   1.329   1.125   2.668 -2.1639 -2.8514 -0.7215
  698SOL    HW2 2094   1.319   1.150   2.836 -1.2177 -0.0146  0.4457
  699SOL     OW 2095   1.483   1.495   1.026  0.7476 -0.5288 -0.4152
  699SOL    HW1 2096   1.464   1.595   1.013  1.2662 -1.0126  2.3243
  699SOL    HW2 2097   1.393   1.442   1.022  0.7341  1.0481 -0.0255
  700SOL     OW 2098   1.544   0.104   0.284  0.1924 -0.2088 -0.2082
  700SOL    HW1 2099   1.470   0.102   0.358 -3.8722 -3.1883  2.4433
  700SOL    HW2 2100   1.631   0.065   0.317  1.1406 -0.9339  1.8385
  701SOL     OW 2101   0.096   0.170   1.980 -0.2872  0.0675  0.2274
  701SOL    HW1 2102   0.132   0.258   2.014 -2.6509 -1.1294  1.7029
  701SOL    HW2 2103   0.046   0.119   2.053  1.5257 -0.3931  1.7236
  702SOL     OW 2104   1.114   2.983   0.117 -0.2562  0.0966 -0.4125
  702SOL    HW1 2105   1.215   2.979   0.147  0.0928 -1.5512 -0.5528
  702SOL    HW2 2106   1.047   2.982   0.195 -1.8681  0.7641  0.8710
  703SOL     OW 2107   2.439   2.673   2.629 -0.1426 -0.2967  0.3497
  703SOL    HW1 2108   2.368   2.696   2.557 -0.2502  0.8523 -0.1854
  703SOL    HW2 2109   2.485   2.756   2.659 -2.0442 -2.1195 -0.0856
  704SOL     OW 2110   0.616   2.212   1.015 -0.2442  0.1509  0.1154
  704SOL    HW1 2111   0.657   2.195   0.923  0.1665 -1.0106 -1.5175
  704SOL    HW2 2112   0.566   2.131   1.043 -0.3316  4.3011 -1.2622
  705SOL     OW 2113   2.926   0.354   1.875 -0.2598  0.1997  0.4333
  705SOL    HW1 2114   2.982   0.274   1.907 -0.3401  0.3213 -1.7287
  705SOL    HW2 2115   2.884   0.400   1.954  1.1418 -0.6135 -0.9714
  706SOL     OW 2116   1.783   3.049   0.363  0.0151  0.3126 -0.0238
  706SOL    HW1 2117   1.755   2.950   0.361 -1.2516 -1.0125  0.8121
  706SOL    HW2 2118   1.821   0.012   0.452  0.1870  0.7035 -0.9901
  707SOL     OW 2119   1.398   2.039   1.983 -0.4222 -0.1446  0.1794
  707SOL    HW1 2120   1.429   2.087   2.068  0.4405 -2.4536 -1.9453
  707SOL    HW2 2121   1.432   2.087   1.897  2.1479 -0.2877  1.9953
  708SOL     OW 2122   3.020   2.268   1.516 -0.5552 -0.0338 -0.0781
  708SOL    HW1 2123   2.918   2.244   1.509 -1.1256  0.0710  0.3221
  708SOL    HW2 2124   3.050   2.363   1.495 -1.0737 -0.9602 -3.0531
  709SOL     OW 2125   1.996   0.441   1.890 -0.4492 -0.0528  0.2849
  709SOL    HW1 2126   2.080   0.458   1.832 -1.3030 -1.6021 -3.6085
  709SOL    HW2 2127   1.916   0.422   1.827  0.3203 -0.6751  0.6626
  710SOL     OW 2128   2.346   0.461   1.427  0.1539  0.5297 -0.2599
  710SOL    HW1 2129   2.255   0.434   1.392  0.9551  2.1396 -0.8630
  710SOL    HW2 2130   2.406   0.375   1.425  0.0522 -1.9073 -2.3877
  711SOL     OW 2131   0.149   2.033   0.368 -0.2026 -0.1060 -0.0159
  711SOL    HW1 2132   0.247   2.036   0.340  1.2812  3.1625  0.2685
  711SOL    HW2 2133   0.113   1.938   0.387 -1.1782 -1.0032  1.4172
  712SOL     OW 2134   0.463   2.574   2.282 -0.4815  0.0305 -0.0508
  712SOL    HW1 2135   0.422   2.504   2.219  0.6961 -1.9121  0.0855
  712SOL    HW2 2136   0.551   2.619   2.249  0.9463  3.7515 -1.0318
  713SOL     OW 2137   1.931   0.972   0.104 -0.4042 -0.2519 -0.2073
  713SOL    HW1 2138   1.976   0.887   0.061  0.3738  0.1077  0.9763
  713SOL    HW2 2139   1.874   0.938   0.179  1.9699 -0.4429 -2.5512
  714SOL     OW 2140   0.646   1.755   0.796 -0.0230  0.1008  0.8835
  714SOL    HW1 2141   0.709   1.835   0.811 -0.8062  0.0867 -2.6332
  714SOL    HW2 2142   0.655   1.682   0.867  0.2346 -0.6634  0.3837
  715SOL     OW 2143   2.050   2.981   0.177  0.1891  0.4395  0.2112
  715SOL    HW1 2144   1.993   2.898   0.181  2.2464 -0.6282  0.4762
  715SOL    HW2 2145   1.996   0.007   0.166 -2.2662  0.3000 -0.1915
  716SOL     OW 2146   0.399   0.448   1.578 -0.2659  0.4936 -0.0909
  716SOL    HW1 2147   0.311   0.408   1.609 -2.8426 -2.8770 -0.4717
  716SOL    HW2 2148   0.390   0.469   1.479 -0.8959 -0.2290 -0.8621
  717SOL     OW 2149   2.963   0.698   0.182  0.1428  0.1179  0.2114
  717SOL    HW1 2150   2.937   0.642   0.099 -0.1723 -0.6637  1.7332
  717SOL    HW2 2151   3.032   0.647   0.236 -0.7212  1.8314 -1.8972
  718SOL     OW 2152   1.166   0.908   2.977 -0.3462  0.3847  0.4127
  718SOL    HW1 2153   1.085   0.856   3.005 -1.5678 -0.8682  2.1937
  718SOL    HW2 2154   1.254   0.863   2.996 -0.8193  0.4632 -0.3825
  719SOL     OW 2155   2.801   1.527   2.962 -0.1986 -0.9826  0.1710
  719SOL    HW1 2156   2.717   1.470   2.957  2.5573 -0.0155 -0.2807
  719SOL    HW2 2157   2.869   1.482   2.897  1.7796 -0.8916  1.8773
  720SOL     OW 2158   1.393   0.976   1.046  0.1485 -0.0712  0.5820
  720SOL    HW1 2159   1.474   0.928   1.008  0.6738  1.2767  0.9239
  720SOL    HW2 2160   1.303   0.932   1.015  2.9147  0.6847  0.8706
  721SOL     OW 2161   2.713   0.662   0.317 -0.5594 -0.3305  0.0911
  721SOL    HW1 2162   2.797   0.665   0.258 -1.6023  0.9340 -1.5938
  721SOL    HW2 2163   2.713   0.576   0.377 -0.3969 -1.0495 -0.5937
  722SOL     OW 2164   0.687   1.243   2.962  0.4405 -0.2231  0.5321
  722SOL    HW1 2165   0.727   1.187   3.036  0.7328  0.9567 -0.9451
  722SOL    HW2 2166   0.654   1.175   2.891 -0.4419 -0.7935 -0.2113
  723SOL     OW 2167   0.509   1.027   0.678 -0.1061 -0.1863  0.1650
  723SOL    HW1 2168   0.467   1.007   0.770  0.0240 -0.1036  0.5390
  723SOL    HW2 2169   0.440   1.080   0.626  0.5395  1.6532  0.6873
  724SOL     OW 2170   1.150   2.582   1.906  0.2777 -0.1783 -0.2491
  724SOL    HW1 2171   1.060   2.561   1.862  0.0327  0.3764  3.3266
  724SOL    HW2 2172   1.207   2.651   1.851  0.4384 -0.2935 -0.8179
  725SOL     OW 2173   2.432   0.932   1.534 -0.0791 -0.5550  0.2047
  725SOL    HW1 2174   2.348   0.988   1.545  0.7442 -0.7307 -0.1832
  725SOL    HW2 2175   2.422   0.835   1.568 -2.9567 -0.3180  0.9008
  726SOL     OW 2176   1.648   2.792   0.369  0.1066  0.6137 -0.1586
  726SOL    HW1 2177   1.615   2.700   0.398 -0.1564 -0.4333  0.5554
  726SOL    HW2 2178   1.652   2.802   0.266  0.3127  0.1200 -1.7809
  727SOL     OW 2179   1.398   0.943   2.362 -0.2847  0.1350 -0.2432
  727SOL    HW1 2180   1.368   1.017   2.423  0.5535  0.9605  0.5983
  727SOL    HW2 2181   1.478   0.978   2.312  0.1092 -0.7182 -0.5000
  728SOL     OW 2182   1.374   2.627   1.250  0.0053  0.3705 -0.6789
  728SOL    HW1 2183   1.277   2.650   1.268  2.6494  1.2268 -1.8558
  728SOL    HW2 2184   1.428   2.697   1.299  1.8914 -0.7735 -0.5509
  729SOL     OW 2185   1.706   0.698   1.307 -0.6892  0.0431 -0.0015
  729SOL    HW1 2186   1.636   0.667   1.233 -0.5268 -2.0142 -3.6784
  729SOL    HW2 2187   1.662   0.688   1.400  0.2993 -0.6995  1.6771
  730SOL     OW 2188   0.645   2.047   2.108 -0.0030 -0.8085  0.1761
  730SOL    HW1 2189   0.702   2.131   2.106  1.8448 -0.1419  1.5485
  730SOL    HW2 2190   0.704   1.967   2.087  2.3217 -0.1699 -2.5554
  731SOL     OW 2191   0.735   0.480   0.616  0.0200  0.5599  0.0860
  731SOL    HW1 2192   0.735   0.385   0.656 -1.1281  2.7796 -2.9926
  731SOL    HW2 2193   0.825   0.509   0.604 -3.7605 -0.5518 -0.5255
  732SOL     OW 2194   0.594   0.672   3.011  0.0617 -0.1004 -0.2340
  732SOL    HW1 2195   0.657   0.744   2.978 -1.5670  0.3474  1.0839
  732SOL    HW2 2196   0.519   0.725   3.059 -1.1715  3.1394  1.2974
  733SOL     OW 2197   1.079   2.410   1.129  0.1706 -0.0742 -0.1171
  733SOL    HW1 2198   0.989   2.364   1.145  0.2012  1.8324  0.5751
  733SOL    HW2 2199   1.082   2.497   1.188  0.4608  1.2417  0.8143
  734SOL     OW 2200   3.058   1.956   2.640  0.1397  0.0715 -0.4994
  734SOL    HW1 2201   3.023   2.003   2.557 -1.1728  2.2597 -0.2717
  734SOL    HW2 2202   0.072   2.013   2.678 -0.3819  0.2667 -1.5047
  735SOL     OW 2203   0.958   2.896   0.985  0.0173 -0.1183  0.2635
  735SOL    HW1 2204   0.877   2.950   1.007  1.6180 -0.2980  0.8135
  735SOL    HW2 2205   1.007   2.955   0.914 -2.3359  0.4237  0.6200
  736SOL     OW 2206   1.834   0.371   0.026 -0.6922  0.1138 -0.0120
  736SOL    HW1 2207   1.759   0.320   3.036 -3.1311 -0.6275 -0.8684
  736SOL    HW2 2208   1.805   0.461   0.066  2.0278  0.0571  0.1837
  737SOL     OW 2209   2.970   0.267   0.489 -0.1941 -0.4235  0.1843
  737SOL    HW1 2210   0.002   0.301   0.519 -0.8487 -0.5183  0.0511
  737SOL    HW2 2211   2.897   0.295   0.551 -0.2473 -0.1306 -0.7897
  738SOL     OW 2212   2.584   2.785   1.131  0.2799  0.0131  0.2333
  738SOL    HW1 2213   2.534   2.869   1.105 -0.6914  0.7382  0.0746
  738SOL    HW2 2214   2.596   2.724   1.053  0.7583  1.4496  3.3227
  739SOL     OW 2215   1.444   2.352   3.031  0.2089  0.0360  0.0023
  739SOL    HW1 2216   1.543   2.353   3.059 -3.5575 -0.1190  1.5234
  739SOL    HW2 2217   1.409   2.257   3.045  1.1203 -0.4745 -0.3376
  740SOL     OW 2218   1.651   2.888   1.084  0.9666  0.2165 -0.3159
  740SOL    HW1 2219   1.562   2.833   1.067  0.5500  0.1751 -2.2384
  740SOL    HW2 2220   1.691   2.924   1.000  1.7735 -1.5464 -0.2600
  741SOL     OW 2221   1.893   0.479   0.695  0.0704  0.1351 -0.4178
  741SOL    HW1 2222   1.921   0.516   0.603  2.0204  0.4682  0.6873
  741SOL    HW2 2223   1.864   0.557   0.757  0.8171  0.0426  0.2709
  742SOL     OW 2224   1.374   2.261   2.176  0.0182 -0.3699  0.1129
  742SOL    HW1 2225   1.425   2.349   2.184 -1.6876 -1.1216 -0.6734
  742SOL    HW2 2226   1.308   2.278   2.096  1.2523  1.7040  0.0903
  743SOL     OW 2227   2.234   0.495   1.771 -0.0696 -0.3071  0.2144
  743SOL    HW1 2228   2.266   0.574   1.712 -2.1417 -1.8167  0.2306
  743SOL    HW2 2229   2.309   0.467   1.837 -2.4064  0.8599  1.1327
  744SOL     OW 2230   2.321   0.226   1.041 -0.3494 -0.0074  0.6508
  744SOL    HW1 2231   2.313   0.242   0.943 -1.4128 -1.8004  2.0717
  744SOL    HW2 2232   2.228   0.230   1.089 -1.6407 -1.5145 -0.5984
  745SOL     OW 2233   1.922   1.119   1.614 -0.1647 -0.0019  0.2404
  745SOL    HW1 2234   1.977   1.202   1.632  1.6250  0.6681 -1.1038
  745SOL    HW2 2235   1.871   1.127   1.527  0.9229  1.0875 -0.6521
  746SOL     OW 2236   1.251   1.352   1.041 -0.2072 -0.0993 -0.6422
  746SOL    HW1 2237   1.204   1.427   0.985 -0.5727 -0.4352  1.3374
  746SOL    HW2 2238   1.246   1.263   0.991 -0.0947 -1.9352  0.6201
  747SOL     OW 2239   1.949   1.173   1.194 -0.1880 -0.2086 -0.1724
  747SOL    HW1 2240   2.015   1.130   1.259 -0.7060  2.0029  1.5157
  747SOL    HW2 2241   1.938   1.121   1.108  3.5939  2.8669 -0.5114
  748SOL     OW 2242   0.138   2.436   0.638 -0.5566 -0.6500  0.0412
  748SOL    HW1 2243   0.115   2.418   0.739 -2.9117  0.7602  0.9404
  748SOL    HW2 2244   0.129   2.345   0.596  1.5725  1.5423  1.6036
  749SOL     OW 2245   0.009   3.028   2.424 -0.0698 -0.2550  0.1327
  749SOL    HW1 2246   3.021   2.943   2.397  2.3554  2.0155  1.5561
  749SOL    HW2 2247   0.111   3.028   2.413 -1.4506  0.8014  0.5473
  750SOL     OW 2248   2.186   0.645   0.967  0.4066 -0.2696 -0.0065
  750SOL    HW1 2249   2.121   0.721   0.987 -0.1147  3.9585  0.8896
  750SOL    HW2 2250   2.265   0.652   1.035  0.9078  0.1256 -0.0109
  751SOL     OW 2251   2.908   0.556   0.627  0.1157  0.1846  0.2863
  751SOL    HW1 2252   2.966   0.513   0.700  0.5611 -1.0314  0.1081
  751SOL    HW2 2253   2.956   0.633   0.578 -0.5809  1.6123  0.7673
  752SOL     OW 2254   0.036   2.612   0.989  0.1127  0.9792 -0.4148
  752SOL    HW1 2255   3.054   2.689   0.939  1.6538  1.5461 -0.3745
  752SOL    HW2 2256   0.053   2.529   0.926  0.8515 -1.7326 -1.9560
  753SOL     OW 2257   1.264   0.350   2.076  0.0618  0.0628 -0.1107
  753SOL    HW1 2258   1.230   0.422   2.008  0.4791 -2.3998 -2.0534
  753SOL    HW2 2259   1.346   0.307   2.037 -1.7485  4.5714 -0.8510
  754SOL     OW 2260   1.722   2.449   1.851  0.2283 -0.4461  0.6355
  754SOL    HW1 2261   1.778   2.375   1.880 -0.1754  3.0124 -1.7025
  754SOL    HW2 2262   1.726   2.518   1.925 -0.7639 -0.5390  1.6263
  755SOL     OW 2263   2.755   1.105   0.422  0.4688 -0.1968 -0.1321
  755SOL    HW1 2264   2.737   1.191   0.364  0.5781  3.2397 -2.9452
  755SOL    HW2 2265   2.835   1.051   0.391 -1.6487  0.4617  3.0245
  756SOL     OW 2266   1.544   1.585   2.410 -0.0483 -0.4176  0.3591
  756SOL    HW1 2267   1.614   1.540   2.466 -1.7178  1.3268 -2.4189
  756SOL    HW2 2268   1.455   1.576   2.453 -0.5162  2.2022 -3.5974
  757SOL     OW 2269   1.613   2.935   0.580  0.0504 -0.0540  0.2671
  757SOL    HW1 2270   1.513   2.959   0.568 -1.5538 -0.7889 -3.3712
  757SOL    HW2 2271   1.633   2.865   0.507  1.8018  3.2182  2.0897
  758SOL     OW 2272   0.640   2.874   1.237  0.4505 -0.0800  0.2352
  758SOL    HW1 2273   0.653   2.774   1.212 -2.1937 -1.7997 -1.1135
  758SOL    HW2 2274   0.653   2.930   1.152 -1.2878 -0.4769  2.9518
  759SOL     OW 2275   0.209   0.912   1.055  0.5144 -0.3291  0.3462
  759SOL    HW1 2276   0.226   0.957   1.146  0.6720  1.3674 -0.7560
  759SOL    HW2 2277   0.162   0.983   0.999  0.1414  1.4489 -4.3536
  760SOL     OW 2278   2.310   1.218   1.173 -0.1166 -0.1374  0.2855
  760SOL    HW1 2279   2.250   1.188   1.251  1.8740 -1.2417  2.1624
  760SOL    HW2 2280   2.303   1.156   1.090  1.0039 -0.5418 -1.4100
  761SOL     OW 2281   1.247   1.137   0.879  0.1907 -0.2253  0.3088
  761SOL    HW1 2282   1.306   1.083   0.942 -0.9946 -2.0277  2.5610
  761SOL    HW2 2283   1.164   1.088   0.843 -1.1930 -2.0361 -0.4281
  762SOL     OW 2284   2.294   2.190   1.444 -0.5729 -0.3532  0.4946
  762SOL    HW1 2285   2.258   2.092   1.426 -1.1648 -1.7383  0.1557
  762SOL    HW2 2286   2.241   2.252   1.381 -3.3722 -0.4447  0.1583
  763SOL     OW 2287   1.358   1.523   2.055 -0.6943 -0.0765 -0.2339
  763SOL    HW1 2288   1.302   1.483   2.130 -0.2913 -0.2607  0.2929
  763SOL    HW2 2289   1.458   1.488   2.062  2.6473 -1.2253  1.0456
  764SOL     OW 2290   3.059   1.837   2.177 -0.1740  0.4550 -0.5187
  764SOL    HW1 2291   0.089   1.876   2.219  1.6614  3.5740  3.5987
  764SOL    HW2 2292   3.032   1.756   2.236 -0.3394 -0.8371 -0.5896
  765SOL     OW 2293   1.084   2.648   1.254 -0.4491 -0.7418  0.5984
  765SOL    HW1 2294   1.106   2.623   1.349 -0.1918 -0.8895 -0.9546
  765SOL    HW2 2295   0.996   2.692   1.235  2.3329 -3.2375  0.6822
  766SOL     OW 2296   0.730   2.257   2.454  0.5845  0.0417 -0.5535
  766SOL    HW1 2297   0.809   2.278   2.391 -1.0718 -0.0822  0.8091
  766SOL    HW2 2298   0.679   2.174   2.423 -1.5959  0.0923  0.0319
  767SOL     OW 2299   1.670   0.195   2.690  0.1804  0.0918  0.0546
  767SOL    HW1 2300   1.721   0.170   2.601  0.1729 -2.1590 -2.5171
  767SOL    HW2 2301   1.728   0.186   2.777  0.8274 -1.8291  4.4250
  768SOL     OW 2302   1.367   2.463   2.790 -0.0908 -0.3423 -0.2162
  768SOL    HW1 2303   1.276   2.417   2.785 -0.8864  2.4704 -1.9300
  768SOL    HW2 2304   1.409   2.428   2.877 -1.1114 -2.4492 -0.2285
  769SOL     OW 2305   2.952   2.583   1.248 -0.3723  0.5692 -0.5673
  769SOL    HW1 2306   3.018   2.547   1.315 -2.7641 -1.0170  0.7338
  769SOL    HW2 2307   3.002   2.608   1.164 -0.9303 -1.7798  1.9564
  770SOL     OW 2308   0.505   2.786   2.754  0.0543 -0.0546 -0.0039
  770SOL    HW1 2309   0.504   2.842   2.840  2.1521  1.6744 -1.7385
  770SOL    HW2 2310   0.603   2.788   2.715  3.0207 -0.5177 -1.0582
  771SOL     OW 2311   0.799   2.563   2.587 -0.0930 -0.1600  0.0387
  771SOL    HW1 2312   0.833   2.505   2.659  0.8476  1.4171 -1.8038
  771SOL    HW2 2313   0.715   2.522   2.550  2.0199  0.2921 -0.9316
  772SOL     OW 2314   2.680   0.107   1.909 -0.2118 -0.4170  0.0166
  772SOL    HW1 2315   2.660   0.175   1.983 -2.3727  0.8149  1.3651
  772SOL    HW2 2316   2.618   0.136   1.833  0.2155  0.1252  0.9392
  773SOL     OW 2317   0.922   2.542   1.770  0.4640  0.2396 -0.1794
  773SOL    HW1 2318   0.960   2.466   1.711 -0.4699  2.8151 -0.1407
  773SOL    HW2 2319   0.841   2.513   1.832 -2.8976  0.6490 -1.5073
  774SOL     OW 2320   1.310   0.397   2.336 -0.2983  0.3291  0.6836
  774SOL    HW1 2321   1.323   0.323   2.408  0.6227 -3.0808 -0.4053
  774SOL    HW2 2322   1.298   0.343   2.246 -2.3401 -0.5568 -2.1247
  775SOL     OW 2323   2.111   2.689   2.927  0.0624  0.2990 -0.1889
  775SOL    HW1 2324   2.120   2.672   3.026 -0.3177  1.2790 -1.4419
  775SOL    HW2 2325   2.131   2.605   2.880 -1.1370  2.2433 -0.3083
  776SOL     OW 2326   2.204   0.848   2.039  0.0617  0.1507  0.0439
  776SOL    HW1 2327   2.114   0.801   2.038  1.8453  0.9705  0.4412
  776SOL    HW2 2328   2.267   0.811   1.965 -1.5419  0.1234  1.0951
  777SOL     OW 2329   2.786   1.054   2.376 -0.0666 -0.4295 -0.1137
  777SOL    HW1 2330   2.746   1.095   2.457 -1.3718  1.4731  1.9705
  777SOL    HW2 2331   2.739   1.085   2.289 -1.5183  2.7721 -4.1172
  778SOL     OW 2332   2.175   0.354   2.157  0.5203  0.5157  0.0442
  778SOL    HW1 2333   2.233   0.433   2.148  0.1000  1.0478 -0.6181
  778SOL    HW2 2334   2.078   0.376   2.132  1.6346  3.3597  0.5118
  779SOL     OW 2335   0.033   0.040   0.144 -0.0926  0.0047 -0.3450
  779SOL    HW1 2336   3.034   3.026   0.127  0.4658  3.2970  2.2838
  779SOL    HW2 2337   0.127   0.008   0.164 -0.7671  0.3021 -0.9177
  780SOL     OW 2338   2.360   0.098   2.492 -0.3825  0.0795 -0.0660
  780SOL    HW1 2339   2.309   0.186   2.486 -0.9651  0.2949 -0.2886
  780SOL    HW2 2340   2.409   0.076   2.405  1.0685  0.6266 -0.5421
  781SOL     OW 2341   0.519   0.198   1.626  0.3748  0.6100  0.2540
  781SOL    HW1 2342   0.532   0.159   1.718 -0.3913 -1.8370 -0.1326
  781SOL    HW2 2343   0.482   0.292   1.627 -1.0198  1.6523 -0.2031
  782SOL     OW 2344   1.614   2.104   2.955 -0.8137  0.0386  0.1765
  782SOL    HW1 2345   1.712   2.089   2.991  1.0968  2.6149 -0.0469
  782SOL    HW2 2346   1.619   2.150   2.866  2.3533 -0.3742  0.5708
  783SOL     OW 2347   0.980   1.782   1.477 -0.0209 -0.1449  0.1344
  783SOL    HW1 2348   1.074   1.800   1.509 -0.0185  0.8153  2.2752
  783SOL    HW2 2349   0.966   1.681   1.462 -2.4208 -1.5838  0.3907
  784SOL     OW 2350   1.863   0.546   2.235 -0.5747 -0.3863 -0.1514
  784SOL    HW1 2351   1.803   0.492   2.175  0.6563 -0.9747  1.8987
  784SOL    HW2 2352   1.946   0.579   2.188  0.9110  1.7385  0.4863
  785SOL     OW 2353   3.008   0.480   0.868 -0.0326 -0.1169 -0.1533
  785SOL    HW1 2354   3.012   0.580   0.898  1.6970  0.9811  1.3619
  785SOL    HW2 2355   2.929   0.431   0.916 -1.3501  1.2053  2.2855
  786SOL     OW 2356   1.822   2.816   0.721  0.0947 -0.3957 -0.4921
  786SOL    HW1 2357   1.743   2.865   0.679 -2.9004 -0.4497 -1.8359
  786SOL    HW2 2358   1.899   2.802   0.654 -0.2100  1.0201  1.3990
  787SOL     OW 2359   1.076   0.280   0.749 -0.0946  0.2565  0.1028
  787SOL    HW1 2360   1.151   0.284   0.679  1.7776 -0.1831  0.0598
  787SOL    HW2 2361   1.105   0.336   0.825 -2.0060 -1.5714 -3.2286
  788SOL     OW 2362   0.074   1.284   1.138  0.1995  0.1611 -0.5089
  788SOL    HW1 2363   0.015   1.261   1.218  0.6185  0.5307 -0.0421
  788SOL    HW2 2364   0.161   1.342   1.158  1.6449 -0.1850  0.4698
  789SOL     OW 2365   2.980   0.659   2.062  0.2542  0.4981  0.8605
  789SOL    HW1 2366   2.932   0.577   2.100 -1.4005  0.6026 -1.3928
  789SOL    HW2 2367   2.995   0.731   2.129 -0.6112 -2.6141 -1.4516
  790SOL     OW 2368   0.606   0.500   2.610  0.1415  0.3889 -0.1319
  790SOL    HW1 2369   0.688   0.510   2.664 -1.6037  2.0886 -1.0157
  790SOL    HW2 2370   0.520   0.475   2.665  1.7188  1.9172  0.0679
  791SOL     OW 2371   2.483   0.193   0.151  0.4348 -0.7330  0.3523
  791SOL    HW1 2372   2.399   0.204   0.094 -1.0125 -1.9348  1.4425
  791SOL    HW2 2373   2.473   0.131   0.227  0.6368  0.0003  1.1174
  792SOL     OW 2374   1.559   0.616   1.085  0.2968  0.6892 -0.0310
  792SOL    HW1 2375   1.551   0.622   0.983 -1.6862 -1.3900 -0.9324
  792SOL    HW2 2376   1.603   0.530   1.106  1.5997  1.2992 -0.9964
  793SOL     OW 2377   0.146   3.055   1.335 -0.0913 -0.0680 -0.0952
  793SOL    HW1 2378   0.223   2.992   1.310  2.8491 -0.4844 -1.2234
  793SOL    HW2 2379   0.136   0.070   1.270 -1.5418 -1.9694  2.3147
  794SOL     OW 2380   0.228   0.403   2.026  0.3384 -0.4995 -0.1874
  794SOL    HW1 2381   0.197   0.494   1.986 -0.6342  0.9595  0.4941
  794SOL    HW2 2382   0.255   0.413   2.119  0.3415 -1.9525 -1.6554
  795SOL     OW 2383   0.310   2.298   2.582  0.0147 -0.1903 -0.1902
  795SOL    HW1 2384   0.347   2.391   2.608 -4.5695  0.1814 -1.6899
  795SOL    HW2 2385   0.223   2.314   2.530  1.2597  1.1491 -0.6385
  796SOL     OW 2386   1.958   0.537   2.890 -0.7722 -0.2056 -0.6190
  796SOL    HW1 2387   1.858   0.557   2.883  0.8691  2.9248  1.8868
  796SOL    HW2 2388   1.963   0.441   2.926  1.1327  3.1306  0.3878
  797SOL     OW 2389   2.314   2.158   2.872  0.5492 -0.2631  0.2570
  797SOL    HW1 2390   2.388   2.197   2.921 -3.0795 -2.3866 -0.9302
  797SOL    HW2 2391   2.223   2.168   2.926 -2.4174  0.6881  1.1107
  798SOL     OW 2392   0.090   0.724   1.508  0.5905  0.2441 -0.5466
  798SOL    HW1 2393   0.155   0.655   1.470  1.3666 -0.2609 -0.5661
  798SOL    HW2 2394   0.037   0.672   1.578 -0.2337 -0.0206 -0.3707
  799SOL     OW 2395   0.733   0.455   1.706  0.1814 -0.1431 -0.3515
  799SOL    HW1 2396   0.667   0.443   1.783 -3.8591 -2.2139 -1.8227
  799SOL    HW2 2397   0.761   0.366   1.663 -1.8016 -0.5717 -1.0520
  800SOL     OW 2398   3.028   2.442   0.325  0.0540  0.2083 -0.0269
  800SOL    HW1 2399   3.042   2.357   0.271  2.0637  2.3265 -0.1847
  800SOL    HW2 2400   0.053   2.498   0.339  1.2881 -4.5506  2.5407
  801SOL     OW 2401   1.671   1.850   0.684 -0.1743 -0.6429 -0.2724
  801SOL    HW1 2402   1.688   1.780   0.757  0.9887 -1.7599 -0.9824
  801SOL    HW2 2403   1.574   1.878   0.669  1.2499 -0.6644 -1.7156
  802SOL     OW 2404   0.708   0.467   0.122  0.1907  0.2261  0.0843
  802SOL    HW1 2405   0.725   0.529   0.207  0.7249 -1.4593  0.9436
  802SOL    HW2 2406   0.650   0.518   0.052 -1.4192  2.3990 -0.4728
  803SOL     OW 2407   1.166   0.984   1.915 -0.0286 -0.0539  1.0609
  803SOL    HW1 2408   1.166   0.921   1.835  1.4946  0.2118  0.2190
  803SOL    HW2 2409   1.247   1.044   1.905  0.7071 -0.8087 -1.8811
  804SOL     OW 2410   1.882   2.193   1.264 -0.7195 -0.3694  0.4035
  804SOL    HW1 2411   1.911   2.146   1.350 -1.5920 -0.1994 -1.8118
  804SOL    HW2 2412   1.957   2.185   1.195  0.9063  0.5902  0.6453
  805SOL     OW 2413   2.992   2.079   2.377  0.3207 -0.3972 -0.0856
  805SOL    HW1 2414   3.022   2.019   2.301  0.6573  3.4751  2.5209
  805SOL    HW2 2415   3.004   2.176   2.345  1.7604  0.9630  2.4925
  806SOL     OW 2416   0.545   2.527   0.414  0.6307 -0.3743 -0.0456
  806SOL    HW1 2417   0.612   2.588   0.357 -0.4784  0.3402  0.0360
  806SOL    HW2 2418   0.489   2.477   0.344  2.6163 -1.7482 -0.2312
  807SOL     OW 2419   2.322   1.039   2.867  0.8016 -0.0192  0.5153
  807SOL    HW1 2420   2.320   1.043   2.969 -0.4759  2.1075  1.4175
  807SOL    HW2 2421   2.240   0.994   2.829  0.3782  0.1042  0.0253
  808SOL     OW 2422   1.546   2.243   0.738 -0.4087  0.3766  0.1823
  808SOL    HW1 2423   1.609   2.208   0.670 -2.7313  1.5507  0.2949
  808SOL    HW2 2424   1.590   2.286   0.821 -2.3299  0.9832  2.0102
  809SOL     OW 2425   0.364   0.676   0.706  0.8244 -0.6706  0.1892
  809SOL    HW1 2426   0.405   0.744   0.767  1.7152  1.4661  1.5749
  809SOL    HW2 2427   0.355   0.587   0.754 -2.0462 -0.6385  2.3878
  810SOL     OW 2428   1.165   1.649   0.022 -0.5302  0.6346  0.4219
  810SOL    HW1 2429   1.142   1.574   3.008  0.5608 -1.1978 -4.6219
  810SOL    HW2 2430   1.260   1.686   0.005 -0.0662 -1.6799 -0.5945
  811SOL     OW 2431   1.320   3.012   1.633  0.3154 -0.0118  0.2847
  811SOL    HW1 2432   1.399   2.985   1.574  0.4249  0.9855  2.9016
  811SOL    HW2 2433   1.241   3.058   1.584 -2.5858 -0.7525 -0.3653
  812SOL     OW 2434   1.447   0.206   0.747  0.2375  0.6790  0.1275
  812SOL    HW1 2435   1.443   0.222   0.645 -1.5320 -2.1341 -1.8940
  812SOL    HW2 2436   1.499   0.121   0.774  1.5621 -0.1272  2.3158
  813SOL     OW 2437   1.474   3.037   2.078 -0.0363 -0.0603  0.0122
  813SOL    HW1 2438   1.408   2.962   2.102 -0.0704  0.6556  1.3973
  813SOL    HW2 2439   1.481   0.042   2.162  0.1975  1.5418  0.2214
  814SOL     OW 2440   1.274   0.013   1.892  0.0126  0.2649  0.2631
  814SOL    HW1 2441   1.343   0.013   1.965  0.8915  1.2516  0.3510
  814SOL    HW2 2442   1.324   3.057   1.803  2.0361 -1.0061 -1.6807
  815SOL     OW 2443   0.303   3.040   0.161 -0.0917 -0.2283 -0.2719
  815SOL    HW1 2444   0.357   3.036   0.248  1.3018 -2.0939 -1.4404
  815SOL    HW2 2445   0.359   0.037   0.094  3.3917  1.9170 -1.3987
  816SOL     OW 2446   2.389   1.408   2.651 -0.9183  0.0944 -0.2324
  816SOL    HW1 2447   2.345   1.318   2.638  1.1798 -2.2874 -1.0337
  816SOL    HW2 2448   2.489   1.393   2.661  0.1525  0.6608 -0.7847
  817SOL     OW 2449   2.571   2.227   2.449 -0.3034 -0.4013 -0.0414
  817SOL    HW1 2450   2.495   2.209   2.514 -2.1437 -0.4119  2.7565
  817SOL    HW2 2451   2.631   2.147   2.462 -0.1513 -0.9682 -3.1648
  818SOL     OW 2452   0.944   1.290   0.126 -0.1731 -0.2652 -0.1554
  818SOL    HW1 2453   0.898   1.288   0.214 -0.1804  1.2636 -4.2221
  818SOL    HW2 2454   1.009   1.216   0.104 -0.5997  0.5187 -2.4009
  819SOL     OW 2455   1.523   1.350   0.114  0.3073  0.0961  0.6268
  819SOL    HW1 2456   1.536   1.349   0.010 -0.3482  0.6266  2.3656
  819SOL    HW2 2457   1.574   1.423   0.159 -0.8136 -2.7454  0.7697
  820SOL     OW 2458   0.377   1.225   0.881 -0.4696 -0.5450  0.1525
  820SOL    HW1 2459   0.434   1.230   0.964 -0.0281 -0.0806 -0.1723
  820SOL    HW2 2460   0.403   1.299   0.810  1.8501 -0.0813  0.3428
  821SOL     OW 2461   0.393   2.913   1.352  0.3576 -0.3236 -0.1833
  821SOL    HW1 2462   0.488   2.892   1.318  1.0464 -0.9359  0.7335
  821SOL    HW2 2463   0.400   2.932   1.451 -0.4432  0.8977  0.4007
  822SOL     OW 2464   1.948   1.901   2.735 -0.1148  0.5342  0.4246
  822SOL    HW1 2465   1.925   1.923   2.828 -0.3366  1.1092 -2.1544
  822SOL    HW2 2466   2.048   1.868   2.725 -1.0651 -1.1264 -0.1665
  823SOL     OW 2467   0.658   0.350   2.297 -0.6749 -0.3384 -0.3325
  823SOL    HW1 2468   0.722   0.391   2.231 -3.6683  0.3910  0.5804
  823SOL    HW2 2469   0.624   0.425   2.356  2.7286 -0.7555  0.0065
  824SOL     OW 2470   2.604   2.778   1.396 -0.3567 -0.2790 -0.1946
  824SOL    HW1 2471   2.520   2.811   1.435  1.9905 -1.8688 -2.6095
  824SOL    HW2 2472   2.605   2.761   1.293  1.2761  0.2838 -2.2894
  825SOL     OW 2473   0.223   1.628   2.390  0.6921 -0.3967 -0.4406
  825SOL    HW1 2474   0.280   1.685   2.331 -0.3952 -0.1632  1.7706
  825SOL    HW2 2475   0.131   1.612   2.348  0.4041 -0.0385  0.4184
  826SOL     OW 2476   1.644   3.055   2.910  0.3253  0.0759 -0.0020
  826SOL    HW1 2477   1.707   3.040   2.826  0.9632 -1.0108 -1.6491
  826SOL    HW2 2478   1.567   2.988   2.910  0.8588  2.2402  2.3055
  827SOL     OW 2479   0.197   2.010   1.880 -0.3143  0.0112 -0.4033
  827SOL    HW1 2480   0.178   2.010   1.780  1.8605 -0.1082 -0.3036
  827SOL    HW2 2481   0.262   1.937   1.903  0.2056  0.5845  2.9262
  828SOL     OW 2482   0.132   0.217   1.169 -0.3149 -0.0377  0.2202
  828SOL    HW1 2483   0.165   0.256   1.081  1.7850 -2.1768  0.5339
  828SOL    HW2 2484   0.042   0.254   1.197 -3.4993 -1.2882  0.8437
  829SOL     OW 2485   0.984   1.624   2.076  0.0089 -0.5606 -0.0437
  829SOL    HW1 2486   0.987   1.546   2.013 -0.1588  0.2575 -0.7732
  829SOL    HW2 2487   0.924   1.691   2.030 -0.8603 -1.5026 -3.3230
  830SOL     OW 2488   0.831   0.954   1.652  0.2922 -0.2887  0.2842
  830SOL    HW1 2489   0.760   0.965   1.578  0.3362  1.2597 -0.4468
  830SOL    HW2 2490   0.806   1.013   1.728 -0.9104 -2.6397 -0.7639
  831SOL     OW 2491   2.601   2.001   0.065  0.3636  0.3275 -0.7926
  831SOL    HW1 2492   2.636   1.905   0.066  0.6869  0.1878 -0.3821
  831SOL    HW2 2493   2.666   2.065   0.102 -1.0631 -0.6577  1.4027
  832SOL     OW 2494   1.116   2.311   2.780 -0.7390  0.1715  0.2729
  832SOL    HW1 2495   1.115   2.234   2.846  1.5575  0.8524  1.3361
  832SOL    HW2 2496   1.033   2.310   2.718 -2.9281  0.9346  1.1492
  833SOL     OW 2497   0.113   0.364   1.433  0.1444 -0.1408 -0.1211
  833SOL    HW1 2498   0.118   0.312   1.519 -0.3130  0.1315  1.1592
  833SOL    HW2 2499   0.156   0.304   1.363 -0.2456 -2.0925  0.3002
  834SOL     OW 2500   2.965   0.713   0.986  0.3093 -0.7563 -0.0062
  834SOL    HW1 2501   2.977   0.710   1.087  1.0586 -2.3939  1.5471
  834SOL    HW2 2502   3.005   0.803   0.947 -0.5273 -1.9396 -1.9017
  835SOL     OW 2503   2.730   0.455   0.467  0.5759 -0.4019  0.0702
  835SOL    HW1 2504   2.805   0.491   0.529  2.0310 -2.4297  1.4002
  835SOL    HW2 2505   2.697   0.367   0.503  0.0136 -1.3383 -2.6918
  836SOL     OW 2506   0.560   2.139   2.724 -0.0282  0.2661  0.0871
  836SOL    HW1 2507   0.628   2.070   2.693  2.6931 -0.0446  0.2857
  836SOL    HW2 2508   0.486   2.151   2.655 -0.1614  0.0740 -1.2208
  837SOL     OW 2509   1.311   1.829   0.349 -0.3899 -0.3277  0.0229
  837SOL    HW1 2510   1.413   1.837   0.344 -1.7516  1.0400  0.4695
  837SOL    HW2 2511   1.286   1.729   0.343 -1.5120 -0.3230  0.7330
  838SOL     OW 2512   2.228   0.809   2.311 -0.2414 -0.0961 -0.0720
  838SOL    HW1 2513   2.296   0.877   2.349 -0.8658  2.9702 -1.3715
  838SOL    HW2 2514   2.210   0.837   2.215  4.1861  0.3547  1.4887
  839SOL     OW 2515   1.008   1.039   2.370 -0.4484 -0.0989 -0.2251
  839SOL    HW1 2516   0.983   1.019   2.470 -0.7433 -1.4145  2.6898
  839SOL    HW2 2517   0.949   1.110   2.333  2.0481  0.6826 -0.3970
  840SOL     OW 2518   0.681   1.082   0.199 -0.0564  0.3748  0.0758
  840SOL    HW1 2519   0.600   1.021   0.189 -0.6802 -0.3492  0.1728
  840SOL    HW2 2520   0.651   1.182   0.209 -3.5354 -0.1811 -0.9856
  841SOL     OW 2521   1.034   2.100   0.163  0.1630  0.3542  0.3394
  841SOL    HW1 2522   1.037   2.199   0.180  0.0472 -2.1291 -1.2607
  841SOL    HW2 2523   0.949   2.075   0.119  3.0911 -1.4348  2.1081
  842SOL     OW 2524   0.548   0.658   0.510  1.0996 -0.2222 -0.2254
  842SOL    HW1 2525   0.473   0.699   0.562  1.4873  2.0104 -2.9546
  842SOL    HW2 2526   0.588   0.580   0.560  0.2287  1.6100 -0.3161
  843SOL     OW 2527   0.511   0.744   1.368  0.0313 -0.7467  0.1068
  843SOL    HW1 2528   0.415   0.718   1.400 -2.4647  1.7765  1.7704
  843SOL    HW2 2529   0.534   0.693   1.280  0.3161  1.6554 -0.6500
  844SOL     OW 2530   2.156   2.450   2.775  0.4948 -0.0774 -0.1095
  844SOL    HW1 2531   2.253   2.431   2.789  0.8532 -0.6960  1.6626
  844SOL    HW2 2532   2.121   2.456   2.675 -0.7628 -1.7033 -3.3902
  845SOL     OW 2533   2.575   2.962   1.668 -0.1745  0.5044  0.2110
  845SOL    HW1 2534   2.640   2.987   1.744  0.3373 -2.1977  1.0725
  845SOL    HW2 2535   2.631   2.956   1.586  0.2752 -0.3760 -0.2664
  846SOL     OW 2536   1.700   0.871   2.576  0.5142 -0.0231  0.3760
  846SOL    HW1 2537   1.725   0.792   2.514  1.3824  0.4087  1.0641
  846SOL    HW2 2538   1.710   0.961   2.527 -1.7585 -0.6436  1.1387
  847SOL     OW 2539   0.195   0.259   1.668 -0.1636  0.1226 -0.2399
  847SOL    HW1 2540   0.155   0.251   1.760 -0.8772 -0.1122 -0.1476
  847SOL    HW2 2541   0.232   0.167   1.640  1.5318 -2.3311  0.3043
  848SOL     OW 2542   2.641   2.592   0.212 -0.9904 -0.1706 -0.4198
  848SOL    HW1 2543   2.739   2.619   0.228 -3.3106  0.3149  0.9978
  848SOL    HW2 2544   2.591   2.612   0.297  0.4369  2.8510  0.0310
  849SOL     OW 2545   0.558   2.930   0.806  0.3877  0.0792  0.1771
  849SOL    HW1 2546   0.543   2.864   0.728 -2.9157 -3.7597 -1.9222
  849SOL    HW2 2547   0.478   2.994   0.811  0.7790  0.7007 -0.2805
  850SOL     OW 2548   0.496   2.170   0.627  0.0066 -0.6094 -0.0933
  850SOL    HW1 2549   0.472   2.269   0.631  0.7205 -0.9347  1.4445
  850SOL    HW2 2550   0.588   2.163   0.670  0.2111  1.2203  1.1019
  851SOL     OW 2551   2.280   0.571   2.891 -0.0957 -0.6466  0.1598
  851SOL    HW1 2552   2.231   0.524   2.812  3.3125  2.0935 -1.8666
  851SOL    HW2 2553   2.229   0.649   2.930 -1.3522 -1.2988  0.3374
  852SOL     OW 2554   1.589   2.133   2.468  0.4567 -0.4182 -0.2746
  852SOL    HW1 2555   1.651   2.056   2.458  0.4170  2.9415 -0.2659
  852SOL    HW2 2556   1.635   2.213   2.423 -1.4306 -0.3791 -1.6015
  853SOL     OW 2557   0.028   2.200   0.207 -0.4727  0.2805  0.1707
  853SOL    HW1 2558   0.082   2.226   0.124  0.7760  1.2459  0.4116
  853SOL    HW2 2559   0.082   2.129   0.262  3.0530 -1.6295 -0.1529
  854SOL     OW 2560   1.325   0.742   2.190  0.2657  0.5279  0.0562
  854SOL    HW1 2561   1.325   0.648   2.232 -0.0761 -2.0233  0.0607
  854SOL    HW2 2562   1.364   0.816   2.247  3.3597  1.9443  0.7220
  855SOL     OW 2563   0.127   2.714   0.529  0.1625 -0.5781  0.3949
  855SOL    HW1 2564   0.112   2.633   0.590 -1.5551 -3.5902 -0.8298
  855SOL    HW2 2565   0.176   2.683   0.449 -0.6169 -1.1877 -0.2878
  856SOL     OW 2566   0.320   2.875   2.591  0.6656 -0.2581  0.2995
  856SOL    HW1 2567   0.291   2.799   2.531  1.6860  0.0035  0.8524
  856SOL    HW2 2568   0.394   2.845   2.650 -2.4357  1.3310 -1.9793
  857SOL     OW 2569   1.114   0.290   1.662  0.0907  0.6959  0.3161
  857SOL    HW1 2570   1.108   0.335   1.752 -0.7097 -1.8562 -2.7594
  857SOL    HW2 2571   1.122   0.356   1.587  1.9743  1.6839  0.9226
  858SOL     OW 2572   0.143   2.029   1.589  0.8322  0.5464 -0.1770
  858SOL    HW1 2573   0.085   2.111   1.580 -0.5782 -0.1700 -0.6252
  858SOL    HW2 2574   0.240   2.056   1.572  2.5405  2.7398  1.4326
  859SOL     OW 2575   2.050   2.804   1.678  0.0359  0.0140  0.4285
  859SOL    HW1 2576   2.123   2.734   1.673  0.1819  2.8709  2.2566
  859SOL    HW2 2577   1.956   2.762   1.667 -1.7279 -0.9229 -2.2077
  860SOL     OW 2578   1.744   0.297   0.604 -0.1354  0.0215  0.3283
  860SOL    HW1 2579   1.777   0.203   0.612 -0.9113  2.3380  1.3491
  860SOL    HW2 2580   1.812   0.346   0.660  1.9554  0.5458  0.8799
  861SOL     OW 2581   2.762   0.706   0.800  0.0799 -0.2519  0.0463
  861SOL    HW1 2582   2.814   0.707   0.889 -0.9170  0.5128  1.2829
  861SOL    HW2 2583   2.811   0.649   0.727  0.4008 -2.3899  0.8546
  862SOL     OW 2584   1.867   0.660   1.727  0.1513  0.2844 -0.0212
  862SOL    HW1 2585   1.891   0.591   1.654  0.3625  0.3585  2.3152
  862SOL    HW2 2586   1.927   0.743   1.720  1.6584 -0.1590 -0.9888
  863SOL     OW 2587   0.776   0.742   1.111 -0.0063 -0.3762  0.4169
  863SOL    HW1 2588   0.688   0.688   1.134 -1.4455 -2.1828  0.1995
  863SOL    HW2 2589   0.836   0.749   1.196  1.8054 -1.2445  1.2909
  864SOL     OW 2590   2.823   2.967   1.962  0.0456  0.8112 -0.0893
  864SOL    HW1 2591   2.782   2.893   2.019 -2.1054  0.5630 -0.5702
  864SOL    HW2 2592   2.759   3.040   1.934  0.8296 -1.6389 -1.9665
  865SOL     OW 2593   1.096   0.566   2.355  0.0035 -0.1909 -0.2517
  865SOL    HW1 2594   1.137   0.650   2.402 -2.0428 -3.7964 -0.4910
  865SOL    HW2 2595   1.159   0.489   2.366 -0.6998  0.2034 -1.4170
  866SOL     OW 2596   2.563   2.609   0.501 -0.2157 -0.3216  0.2303
  866SOL    HW1 2597   2.620   2.530   0.529 -1.5483 -2.2902 -2.3456
  866SOL    HW2 2598   2.487   2.617   0.571 -2.1258 -1.3145 -1.8661
  867SOL     OW 2599   2.918   2.750   0.607  0.2778 -0.0860 -0.0169
  867SOL    HW1 2600   2.876   2.659   0.584 -2.3020 -1.5105 -0.3044
  867SOL    HW2 2601   2.996   2.765   0.554 -4.8384  1.0736  0.6247
  868SOL     OW 2602   1.406   0.866   3.040  0.0432 -0.0700 -0.1444
  868SOL    HW1 2603   1.449   0.864   2.948 -1.5098 -0.4129 -0.5998
  868SOL    HW2 2604   1.433   0.948   0.038 -1.3428  5.0671 -2.0279
  869SOL     OW 2605   2.629   2.359   0.565 -0.5979  0.3421 -0.6144
  869SOL    HW1 2606   2.537   2.370   0.611 -0.4483  1.2699 -2.4510
  869SOL    HW2 2607   2.636   2.274   0.512 -0.1611  1.1489 -3.1954
  870SOL     OW 2608   2.210   2.036   0.370  0.0889  0.0744 -0.2913
  870SOL    HW1 2609   2.113   2.003   0.374 -3.6349  0.0252  0.6490
  870SOL    HW2 2610   2.257   2.023   0.460 -0.0500  2.1704 -0.9784
  871SOL     OW 2611   0.632   1.233   1.352  0.3163 -0.0297  0.2508
  871SOL    HW1 2612   0.561   1.210   1.281  2.6110  2.9501  3.1259
  871SOL    HW2 2613   0.635   1.155   1.417 -0.2642 -0.6189 -0.9291
  872SOL     OW 2614   1.238   2.008   2.237 -0.1582 -0.4147  0.0813
  872SOL    HW1 2615   1.295   2.082   2.198 -0.4766  1.8805 -1.3414
  872SOL    HW2 2616   1.244   1.929   2.176  2.3251  3.4933  0.5440
  873SOL     OW 2617   0.712   2.500   1.929 -0.7155 -0.0664 -0.1748
  873SOL    HW1 2618   0.724   2.565   2.003 -2.5873 -1.4844 -0.0622
  873SOL    HW2 2619   0.615   2.491   1.899 -1.9457 -1.2157  0.3420
  874SOL     OW 2620   0.893   0.432   1.297  0.1497 -0.4668  0.3493
  874SOL    HW1 2621   0.877   0.437   1.195 -1.6191  1.5721 -0.6300
  874SOL    HW2 2622   0.834   0.499   1.349 -1.4065 -2.5278  0.5088
  875SOL     OW 2623   2.906   0.277   1.251 -0.4872  0.2646 -0.6371
  875SOL    HW1 2624   2.887   0.370   1.281  1.5466 -0.6841  1.5633
  875SOL    HW2 2625   2.860   0.213   1.317 -1.9484 -0.8588 -0.6269
  876SOL     OW 2626   0.434   0.952   0.150  0.0737 -0.1763 -0.6688
  876SOL    HW1 2627   0.436   0.865   0.093  0.0011 -0.2016 -0.5827
  876SOL    HW2 2628   0.346   0.951   0.203 -2.0172 -0.4156  2.3241
  877SOL     OW 2629   1.049   0.749   1.637  0.5040  0.3222  0.0523
  877SOL    HW1 2630   1.001   0.826   1.590  0.0221  2.5225  0.1111
  877SOL    HW2 2631   0.997   0.725   1.721 -2.5755  0.4784  1.2427
  878SOL     OW 2632   1.743   2.497   0.292  0.3851  0.2110  0.4411
  878SOL    HW1 2633   1.676   2.494   0.369 -1.8690  0.3510  1.8120
  878SOL    HW2 2634   1.833   2.479   0.333 -0.5045  1.9240 -1.2634
  879SOL     OW 2635   2.757   1.204   1.496 -0.5031 -0.2196 -0.1554
  879SOL    HW1 2636   2.685   1.225   1.421 -0.4542  0.1478 -1.9641
  879SOL    HW2 2637   2.702   1.173   1.578 -1.6001 -0.4678  1.2033
  880SOL     OW 2638   1.400   2.482   0.666 -0.1099 -0.4389  0.1429
  880SOL    HW1 2639   1.444   2.405   0.716 -0.1718 -0.1835  0.2854
  880SOL    HW2 2640   1.309   2.451   0.629  0.7961 -1.8952  1.1621
  881SOL     OW 2641   0.828   2.180   0.473  0.2564  0.1245 -0.0375
  881SOL    HW1 2642   0.881   2.111   0.527 -1.2454  0.8732  0.8829
  881SOL    HW2 2643   0.757   2.140   0.412 -0.5803  0.8002  0.8877
  882SOL     OW 2644   1.957   0.701   1.198 -0.1137  0.0173  0.1466
  882SOL    HW1 2645   1.971   0.774   1.128 -1.5237  0.7561  2.2451
  882SOL    HW2 2646   1.867   0.705   1.240  2.0932  0.9328 -0.3095
  883SOL     OW 2647   1.643   0.775   1.640  0.6981  0.6260 -0.0298
  883SOL    HW1 2648   1.735   0.744   1.671  0.1789  2.3069 -0.3061
  883SOL    HW2 2649   1.615   0.855   1.697  0.1278  0.3689  2.1541
  884SOL     OW 2650   2.743   0.321   0.193 -0.0959 -0.1077  0.1031
  884SOL    HW1 2651   2.729   0.321   0.294  2.3177 -0.8165  0.5879
  884SOL    HW2 2652   2.666   0.262   0.156  1.2761  0.0976  4.6161
  885SOL     OW 2653   1.154   1.346   2.637 -0.0475  0.2106 -0.1601
  885SOL    HW1 2654   1.186   1.428   2.588 -0.7052 -3.3492  1.9117
  885SOL    HW2 2655   1.054   1.348   2.654  0.5921  1.7673  0.5222
  886SOL     OW 2656   1.412   1.928   2.421  0.2209 -0.2871 -0.3961
  886SOL    HW1 2657   1.336   1.953   2.355  0.0499  1.1098  1.4798
  886SOL    HW2 2658   1.451   2.019   2.450 -0.7174  1.9058  0.9780
  887SOL     OW 2659   1.386   0.343   1.101  0.1562 -0.2403 -0.3271
  887SOL    HW1 2660   1.426   0.250   1.105 -0.8819 -1.0571 -0.3764
  887SOL    HW2 2661   1.380   0.388   1.195  1.0503  1.8309  3.3228
  888SOL     OW 2662   2.419   0.668   1.571  0.7410 -0.0498  0.0773
  888SOL    HW1 2663   2.510   0.635   1.597  1.0188  2.3917 -2.3005
  888SOL    HW2 2664   2.374   0.593   1.518 -0.4325 -1.6894  0.5843
  889SOL     OW 2665   2.842   2.486   0.842 -0.6090 -0.6662  0.0263
  889SOL    HW1 2666   2.841   2.488   0.739 -1.9658 -0.8888  1.5267
  889SOL    HW2 2667   2.870   2.395   0.880 -2.4464 -1.7903 -0.6919
  890SOL     OW 2668   1.749   2.160   0.254  0.3229  0.5498  0.0644
  890SOL    HW1 2669   1.756   2.254   0.307 -0.3552  5.4708  5.4766
  890SOL    HW2 2670   1.652   2.139   0.239  0.2668 -0.5790 -1.0609
  891SOL     OW 2671   0.620   1.068   2.777 -0.1382  0.2862 -0.2521
  891SOL    HW1 2672   0.549   1.105   2.712 -3.9119 -0.9746 -0.7856
  891SOL    HW2 2673   0.615   0.966   2.774  0.4552 -0.2309  0.5597
  892SOL     OW 2674   2.846   2.703   1.478 -0.4521 -0.5231  0.0187
  892SOL    HW1 2675   2.898   2.660   1.404  1.2645 -1.3696 -0.9826
  892SOL    HW2 2676   2.756   2.743   1.451  3.8953  0.2177 -1.3483
  893SOL     OW 2677   1.350   0.063   0.981  0.3422  0.1932  0.2966
  893SOL    HW1 2678   1.452   0.039   1.003  0.5840 -1.1850  0.7920
  893SOL    HW2 2679   1.355   0.119   0.893 -0.0969 -1.0009 -1.3223
  894SOL     OW 2680   2.556   0.542   0.749 -0.6097 -0.0546 -0.6270
  894SOL    HW1 2681   2.626   0.609   0.784 -0.0775  3.1852  4.3030
  894SOL    HW2 2682   2.542   0.543   0.651  1.3945 -0.1200  1.1547
  895SOL     OW 2683   1.753   1.407   2.540 -0.5868  0.0497  0.5794
  895SOL    HW1 2684   1.764   1.445   2.637  0.1251  0.2836  0.9728
  895SOL    HW2 2685   1.825   1.437   2.477  0.5457  0.9888  0.1629
  896SOL     OW 2686   1.566   0.424   1.768  0.1122 -0.4164 -0.2470
  896SOL    HW1 2687   1.527   0.510   1.736  0.1107  0.7959 -1.2961
  896SOL    HW2 2688   1.666   0.413   1.737 -0.0437  0.3150  2.0119
  897SOL     OW 2689   0.712   1.554   1.883 -0.6404 -0.8076  0.4054
  897SOL    HW1 2690   0.803   1.511   1.899  3.0828  1.4082  0.6711
  897SOL    HW2 2691   0.707   1.637   1.941 -0.8458 -0.2227  1.1307
  898SOL     OW 2692   2.272   2.490   2.221 -0.1704 -0.5250  0.1265
  898SOL    HW1 2693   2.189   2.448   2.177 -0.8992  3.3982  0.4140
  898SOL    HW2 2694   2.357   2.449   2.187 -2.6927  0.9677  0.6731
  899SOL     OW 2695   1.277   1.476   1.453 -0.0531 -0.2017 -0.1110
  899SOL    HW1 2696   1.326   1.407   1.398 -1.3700  0.7711  1.5296
  899SOL    HW2 2697   1.302   1.571   1.433 -0.7429 -2.1580  0.3130
  900SOL     OW 2698   1.125   2.184   2.436  0.1301  0.0366 -0.1556
  900SOL    HW1 2699   1.213   2.216   2.473 -2.9682  2.9089 -1.7888
  900SOL    HW2 2700   1.139   2.127   2.353 -0.6980 -0.5188  2.7191
  901SOL     OW 2701   0.566   2.001   2.366 -0.3270  0.3664  0.1424
  901SOL    HW1 2702   0.531   2.026   2.274 -1.5231  1.1428 -0.8607
  901SOL    HW2 2703   0.483   1.975   2.425  0.3300 -0.8941 -0.3132
  902SOL     OW 2704   2.048   1.624   0.251 -0.7617  0.3513 -0.2962
  902SOL    HW1 2705   2.039   1.554   0.181  1.1203  6.2516  2.7459
  902SOL    HW2 2706   2.123   1.596   0.321 -1.2807 -0.2710  1.5473
  903SOL     OW 2707   1.878   1.741   0.426  0.3941 -0.0852 -0.0176
  903SOL    HW1 2708   1.812   1.673   0.461  1.0043 -0.1446  1.7235
  903SOL    HW2 2709   1.941   1.698   0.353  1.5342  0.9372 -0.0022
  904SOL     OW 2710   0.816   0.604   2.384 -0.9215  0.7279 -0.4805
  904SOL    HW1 2711   0.911   0.569   2.392 -3.7399 -1.6667 -1.1087
  904SOL    HW2 2712   0.768   0.603   2.475 -1.5455  0.4746  2.7803
  905SOL     OW 2713   2.818   0.337   0.991  0.0564  0.4311 -0.5998
  905SOL    HW1 2714   2.723   0.369   1.018 -1.4054  1.5796 -2.0167
  905SOL    HW2 2715   2.871   0.312   1.078 -0.6009 -0.9286  2.1544
  906SOL     OW 2716   2.781   2.095   0.500 -0.2012  0.0773 -0.3093
  906SOL    HW1 2717   2.793   1.990   0.498  1.2994 -1.8015 -0.3503
  906SOL    HW2 2718   2.848   2.142   0.564 -0.0797 -2.8880  1.5046
  907SOL     OW 2719   1.407   0.695   0.403  0.1528  0.1045  0.0599
  907SOL    HW1 2720   1.509   0.670   0.410 -0.4460  1.7154  0.6071
  907SOL    HW2 2721   1.359   0.606   0.375  0.9118 -2.7682  2.1484
  908SOL     OW 2722   1.802   0.132   1.568  0.2294 -0.4451 -0.0639
  908SOL    HW1 2723   1.884   0.075   1.544 -2.1973  0.4368  0.7633
  908SOL    HW2 2724   1.723   0.098   1.512 -0.9276  3.7455 -1.2331
  909SOL     OW 2725   2.566   0.703   1.107 -0.0525  0.0054  0.0767
  909SOL    HW1 2726   2.579   0.611   1.067  0.7291  0.4492  0.6493
  909SOL    HW2 2727   2.562   0.770   1.030  3.4316 -0.3570 -0.6674
  910SOL     OW 2728   1.012   2.833   2.167  0.1423 -0.3357 -0.1363
  910SOL    HW1 2729   0.991   2.760   2.240  1.0453 -0.2500  0.3269
  910SOL    HW2 2730   0.997   2.927   2.199  4.3195 -2.6017  1.4994
  911SOL     OW 2731   2.307   0.784   1.812  0.2866 -0.1200  0.6333
  911SOL    HW1 2732   2.379   0.731   1.769 -1.3070  0.2791  1.1305
  911SOL    HW2 2733   2.229   0.802   1.748 -2.0533  0.1059  0.9651
  912SOL     OW 2734   2.726   1.913   1.498  0.0964 -0.3450 -0.2750
  912SOL    HW1 2735   2.651   1.971   1.458  1.4963 -1.4789  0.9495
  912SOL    HW2 2736   2.733   1.930   1.597 -2.9906 -0.4333 -1.3184
  913SOL     OW 2737   2.544   2.109   1.403 -0.0057  0.2330  0.0168
  913SOL    HW1 2738   2.453   2.140   1.419  0.3559 -0.6760 -0.1158
  913SOL    HW2 2739   2.550   2.082   1.303  1.1359 -1.0763 -1.0350
  914SOL     OW 2740   2.007   1.751   1.446 -0.2682 -0.5517  1.1185
  914SOL    HW1 2741   2.052   1.688   1.380 -1.1028 -1.6660  0.9413
  914SOL    HW2 2742   1.957   1.700   1.516  1.8100  3.0861  0.3905
  915SOL     OW 2743   1.333   1.720   1.297 -0.2888  0.6009  0.5229
  915SOL    HW1 2744   1.255   1.783   1.317  0.4051  0.6259  0.1279
  915SOL    HW2 2745   1.350   1.707   1.197  0.2216 -1.3036 -2.0273
  916SOL     OW 2746   2.627   2.485   1.587  0.9262 -0.2520 -0.1968
  916SOL    HW1 2747   2.652   2.551   1.513  0.8616  2.2316 -0.1233
  916SOL    HW2 2748   2.523   2.468   1.595  0.5282  1.2434 -0.9332
  917SOL     OW 2749   2.484   1.735   2.590  0.0785 -0.0019 -0.2287
  917SOL    HW1 2750   2.577   1.686   2.600  0.4948  2.2845 -0.1367
  917SOL    HW2 2751   2.469   1.796   2.676 -1.9883 -0.6586 -0.0110
  918SOL     OW 2752   1.707   2.308   2.275  0.7780 -0.6155 -0.0536
  918SOL    HW1 2753   1.619   2.363   2.258 -1.2759  1.5294  0.2687
  918SOL    HW2 2754   1.785   2.366   2.297 -3.5693 -1.1908 -0.8504
  919SOL     OW 2755   1.417   2.208   1.759 -0.1632 -0.5666 -0.2064
  919SOL    HW1 2756   1.509   2.219   1.802  0.0365 -0.7658 -0.4392
  919SOL    HW2 2757   1.411   2.240   1.665  0.2311  0.4227  3.2050
  920SOL     OW 2758   3.004   0.291   2.925 -0.4080  0.6484 -0.1966
  920SOL    HW1 2759   2.999   0.346   2.842  1.0740  0.9018  1.6020
  920SOL    HW2 2760   2.969   0.197   2.905 -2.6220 -0.3517 -1.8646
  921SOL     OW 2761   2.628   0.040   2.581  0.2740  0.1389 -0.3695
  921SOL    HW1 2762   2.524   0.050   2.565  0.0791 -0.5141 -1.2886
  921SOL    HW2 2763   2.675   0.129   2.569 -0.6315 -1.2195  1.1861
  922SOL     OW 2764   2.368   2.020   0.585  0.0544  0.0936 -0.0896
  922SOL    HW1 2765   2.324   2.068   0.662  1.4785  1.5198 -3.8091
  922SOL    HW2 2766   2.397   1.928   0.617 -1.2037 -1.1823 -2.4700
  923SOL     OW 2767   0.274   1.669   0.586  0.1090 -0.1257  0.2011
  923SOL    HW1 2768   0.369   1.663   0.551  0.1007  1.3420 -0.3588
  923SOL    HW2 2769   0.285   1.701   0.681  0.8424 -3.9686 -1.6161
  924SOL     OW 2770   1.443   0.397   0.108  0.7904 -0.7970  0.3330
  924SOL    HW1 2771   1.455   0.497   0.086  2.8597 -1.8836 -0.6872
  924SOL    HW2 2772   1.522   0.348   0.066  1.1468  1.2268 -0.2112
  925SOL     OW 2773   2.520   1.097   0.774  0.4290 -0.4973 -0.3178
  925SOL    HW1 2774   2.480   1.172   0.824  2.2569 -1.9536 -1.0897
  925SOL    HW2 2775   2.471   1.075   0.690  0.1859 -2.3624  0.0010
  926SOL     OW 2776   2.593   1.071   1.091  0.6085 -0.4241  0.2609
  926SOL    HW1 2777   2.616   1.010   1.167  0.5932  1.2408 -1.5841
  926SOL    HW2 2778   2.675   1.089   1.033  1.3502 -1.5107 -1.5104
  927SOL     OW 2779   0.424   1.342   0.453 -0.3681 -0.0525  0.0920
  927SOL    HW1 2780   0.393   1.247   0.455  1.0929 -0.4636  2.3983
  927SOL    HW2 2781   0.494   1.354   0.375  3.3867  1.9501 -3.4420
  928SOL     OW 2782   0.031   0.240   2.477 -0.2062 -0.0387 -0.1940
  928SOL    HW1 2783   0.028   0.146   2.444  2.3798 -0.2210  2.3310
  928SOL    HW2 2784   0.136   0.253   2.486  5.4248 -0.5504 -1.8703
  929SOL     OW 2785   2.777   2.971   1.204  0.3844  0.1304  0.7318
  929SOL    HW1 2786   2.829   3.007   1.123  1.7622 -1.1006 -2.0441
  929SOL    HW2 2787   2.727   2.886   1.173  0.8393  0.0096 -0.5608
  930SOL     OW 2788   1.954   2.089   1.521  0.4246 -0.0832  0.1222
  930SOL    HW1 2789   1.871   2.075   1.581 -2.0325 -0.1429  4.2962
  930SOL    HW2 2790   1.990   1.995   1.496 -1.0733  0.0104  1.7302
  931SOL     OW 2791   1.594   1.440   0.784 -0.2176  0.6853 -0.3008
  931SOL    HW1 2792   1.551   1.445   0.876  0.7040 -2.0962  1.1878
  931SOL    HW2 2793   1.524   1.452   0.712 -1.5762  1.8271  2.1220
  932SOL     OW 2794   2.873   0.964   1.249 -0.1803  0.2001  0.2031
  932SOL    HW1 2795   2.774   0.941   1.275  0.8418  0.7136  2.1952
  932SOL    HW2 2796   2.898   1.054   1.291  0.7751  1.9925  0.1853
  933SOL     OW 2797   2.361   1.380   1.447  0.0501  0.6630  0.1056
  933SOL    HW1 2798   2.366   1.426   1.541  1.1361  4.0870 -0.3965
  933SOL    HW2 2799   2.438   1.318   1.426 -1.3901 -0.3131 -0.5390
  934SOL     OW 2800   1.584   0.096   1.181  0.0134 -0.2672  0.0697
  934SOL    HW1 2801   1.496   0.078   1.232 -0.4191 -0.5013  2.5201
  934SOL    HW2 2802   1.638   0.011   1.163 -3.4831  2.6473  0.7592
  935SOL     OW 2803   0.395   1.578   1.052 -0.3939 -0.0054  1.1444
  935SOL    HW1 2804   0.345   1.497   1.081 -2.9826  3.5811 -2.1571
  935SOL    HW2 2805   0.368   1.668   1.094 -0.4320  1.4142 -4.0394
  936SOL     OW 2806   2.980   0.974   0.802  0.2235  0.1191  0.5240
  936SOL    HW1 2807   2.895   1.029   0.812 -0.1909 -0.6856 -1.6105
  936SOL    HW2 2808   0.010   1.021   0.834  0.3418  1.7870 -0.5123
  937SOL     OW 2809   1.693   2.596   0.822 -0.1543  0.3196 -0.0131
  937SOL    HW1 2810   1.607   2.603   0.872 -1.4243  0.7822 -0.6063
  937SOL    HW2 2811   1.731   2.685   0.790 -1.7111  2.2714  2.4145
  938SOL     OW 2812   2.442   2.448   0.937  0.1240 -0.3970 -0.1863
  938SOL    HW1 2813   2.511   2.519   0.940 -1.3023 -0.6369  0.2472
  938SOL    HW2 2814   2.362   2.479   0.878  1.3554 -2.1975 -1.9333
  939SOL     OW 2815   0.340   1.908   2.911  0.5940 -0.2107 -0.1726
  939SOL    HW1 2816   0.436   1.897   2.879 -1.4711  0.3167  1.5747
  939SOL    HW2 2817   0.329   1.953   3.002  3.2832 -1.5417 -1.5065
  940SOL     OW 2818   2.916   2.885   0.010  0.0983 -0.0394 -0.2230
  940SOL    HW1 2819   2.897   2.824   0.093 -0.3788  2.4636  1.4047
  940SOL    HW2 2820   2.988   2.856   3.003 -0.4568 -1.4546 -1.2655
  941SOL     OW 2821   0.872   2.708   2.946  0.1813 -0.1089  0.4544
  941SOL    HW1 2822   0.920   2.617   2.960 -0.4513 -0.1514 -2.2270
  941SOL    HW2 2823   0.909   2.763   2.864  2.6925  1.7780 -0.8623
  942SOL     OW 2824   1.574   1.828   1.665 -0.1247 -0.3808 -0.0480
  942SOL    HW1 2825   1.648   1.897   1.676  1.5148 -1.5322 -0.4828
  942SOL    HW2 2826   1.584   1.790   1.572  3.9399  1.9874  0.9411
  943SOL     OW 2827   2.146   1.092   1.376  0.3997 -0.2609 -0.0928
  943SOL    HW1 2828   2.169   1.142   1.465  1.2240  1.6824  1.5499
  943SOL    HW2 2829   2.160   0.994   1.393 -1.2255  0.6684  3.8487
  944SOL     OW 2830   2.147   0.802   1.399 -0.4824  0.5509 -0.0199
  944SOL    HW1 2831   2.091   0.739   1.347 -0.1081 -0.7308 -0.4371
  944SOL    HW2 2832   2.247   0.791   1.371  0.0166 -0.8859  0.3248
  945SOL     OW 2833   2.975   2.812   0.862 -0.8919 -0.1876 -0.0822
  945SOL    HW1 2834   2.954   2.778   0.767 -1.2652 -3.2582 -1.3213
  945SOL    HW2 2835   2.948   2.910   0.883 -2.4111  0.6263 -2.8937
  946SOL     OW 2836   0.391   0.704   1.757 -0.1349  0.9473  0.1522
  946SOL    HW1 2837   0.401   0.772   1.685 -1.1849 -1.4076 -1.6717
  946SOL    HW2 2838   0.391   0.613   1.711  2.9665  1.4237  1.9889
  947SOL     OW 2839   0.529   2.766   0.568  0.0500  0.4835 -0.2071
  947SOL    HW1 2840   0.572   2.832   0.505 -1.5540  0.9975 -0.5218
  947SOL    HW2 2841   0.480   2.695   0.515 -1.1097  3.2471 -1.3237
  948SOL     OW 2842   2.963   1.277   1.887  0.2280  0.6846  0.2609
  948SOL    HW1 2843   3.007   1.318   1.806 -2.8149  0.4885  3.7932
  948SOL    HW2 2844   3.001   1.185   1.904  1.6733  1.8507 -2.3825
  949SOL     OW 2845   0.442   1.027   2.327  0.2771 -0.2967 -0.2395
  949SOL    HW1 2846   0.522   0.973   2.355  0.0893  0.6275 -2.1041
  949SOL    HW2 2847   0.384   0.974   2.268 -0.2459  2.0960 -0.2388
  950SOL     OW 2848   1.148   0.648   1.148 -0.4401  0.4774  0.1410
  950SOL    HW1 2849   1.074   0.678   1.212 -0.0554 -1.6412 -1.1690
  950SOL    HW2 2850   1.233   0.675   1.196  1.4275  0.3692 -1.1374
  951SOL     OW 2851   0.970   2.053   2.025  0.6802 -0.4430 -0.1627
  951SOL    HW1 2852   1.051   2.048   1.965 -0.5522  0.3316 -0.4668
  951SOL    HW2 2853   0.932   2.150   2.023 -0.9238  2.7799 -0.7886
  952SOL     OW 2854   0.602   1.855   2.829  0.5574 -0.0506  0.4685
  952SOL    HW1 2855   0.694   1.897   2.835 -1.8818 -1.7081 -0.2384
  952SOL    HW2 2856   0.605   1.787   2.751 -1.4705  0.3250 -0.0240
  953SOL     OW 2857   1.926   3.017   2.122  0.3238  0.5149  0.1754
  953SOL    HW1 2858   1.972   3.009   2.214  2.7046 -1.2691 -0.6515
  953SOL    HW2 2859   1.917   0.055   2.093  0.4541 -0.0068 -0.0569
  954SOL     OW 2860   1.673   1.169   0.778  0.0258 -0.6779 -0.2080
  954SOL    HW1 2861   1.588   1.149   0.726  1.1156  0.3980 -2.0301
  954SOL    HW2 2862   1.686   1.270   0.774  0.4500  1.2633  0.3215
  955SOL     OW 2863   0.298   2.405   2.142 -0.0498  0.0913 -0.1741
  955SOL    HW1 2864   0.355   2.340   2.086 -1.4260 -1.1714  1.4585
  955SOL    HW2 2865   0.260   2.472   2.079  1.1875 -2.7406  3.0665
  956SOL     OW 2866   1.463   0.878   1.472 -0.0567 -0.3210  0.5836
  956SOL    HW1 2867   1.418   0.806   1.407 -0.9750  0.9538 -2.2748
  956SOL    HW2 2868   1.525   0.838   1.541  0.7219  1.6903 -0.5337
  957SOL     OW 2869   2.008   1.486   2.475  0.2893 -0.0847  0.8285
  957SOL    HW1 2870   2.062   1.489   2.563  2.7414  2.7460  0.7492
  957SOL    HW2 2871   2.003   1.580   2.437 -2.5587 -0.3677  0.9493
  958SOL     OW 2872   1.057   2.497   0.875  0.1977 -0.1284 -0.0868
  958SOL    HW1 2873   0.976   2.557   0.878  0.9012 -0.4834  2.0204
  958SOL    HW2 2874   1.075   2.467   0.970 -1.9727  0.4871  0.1782
  959SOL     OW 2875   1.708   1.896   2.478 -0.0706  0.7354  0.4820
  959SOL    HW1 2876   1.650   1.846   2.410 -1.2540 -0.8099  0.3155
  959SOL    HW2 2877   1.703   1.850   2.569 -0.4142  1.4339 -0.1845
  960SOL     OW 2878   0.361   0.416   0.063 -0.0528 -0.1232  0.3946
  960SOL    HW1 2879   0.279   0.358   0.054 -1.4462 -0.2107  1.8758
  960SOL    HW2 2880   0.412   0.374   0.142 -0.1211  0.6953 -0.6060
  961SOL     OW 2881   0.529   0.684   2.127  0.0728 -0.2651 -0.6239
  961SOL    HW1 2882   0.626   0.704   2.156 -1.6810  1.2285  0.6608
  961SOL    HW2 2883   0.478   0.634   2.202  0.0211  0.8960  0.0367
  962SOL     OW 2884   0.874   1.626   2.833 -0.1081  0.0079 -0.7460
  962SOL    HW1 2885   0.953   1.567   2.858 -1.3046  2.1332  1.7690
  962SOL    HW2 2886   0.785   1.587   2.869 -2.8571  1.4167 -0.5253
  963SOL     OW 2887   2.152   1.554   2.976  0.2821  0.2566 -0.3982
  963SOL    HW1 2888   2.165   1.546   2.878 -0.7942 -0.1155  1.7238
  963SOL    HW2 2889   2.207   1.633   3.015  0.8608  0.3378 -1.7920
  964SOL     OW 2890   1.474   2.699   0.995  0.5538 -0.1520 -0.2377
  964SOL    HW1 2891   1.395   2.716   0.928 -0.4277 -3.4024  1.9852
  964SOL    HW2 2892   1.439   2.670   1.086 -0.7624  0.7340 -0.4069
  965SOL     OW 2893   0.788   2.360   1.159 -0.1025 -0.0473  0.2516
  965SOL    HW1 2894   0.766   2.351   1.253  0.3571  1.5650 -3.1149
  965SOL    HW2 2895   0.732   2.291   1.101  1.4310  0.1933 -0.1452
  966SOL     OW 2896   2.983   1.503   0.113 -0.6764 -0.0368  0.6587
  966SOL    HW1 2897   2.893   1.509   0.067 -1.2755  0.6548  0.1773
  966SOL    HW2 2898   2.984   1.449   0.200 -0.5996  1.0244 -1.0285
  967SOL     OW 2899   1.636   2.884   1.767  0.3554  0.2495 -0.1484
  967SOL    HW1 2900   1.578   2.846   1.843 -1.1752 -2.1604  2.4074
  967SOL    HW2 2901   1.700   2.961   1.792  2.6313  0.3096 -1.2989
  968SOL     OW 2902   1.827   0.709   0.840 -0.5618  0.4133  0.3043
  968SOL    HW1 2903   1.829   0.770   0.758  3.6211 -0.9502  4.2679
  968SOL    HW2 2904   1.744   0.732   0.889  0.6684 -0.5085 -0.7179
  969SOL     OW 2905   0.330   1.749   1.948 -0.1115  0.0790 -0.2158
  969SOL    HW1 2906   0.413   1.786   1.897  0.3666 -1.3953 -0.5697
  969SOL    HW2 2907   0.250   1.728   1.882 -0.5260 -0.6111  0.0746
  970SOL     OW 2908   2.453   1.465   1.118  0.5866 -0.2923  0.3270
  970SOL    HW1 2909   2.408   1.395   1.174  0.9813 -2.0023  1.2293
  970SOL    HW2 2910   2.424   1.559   1.151  0.5514 -0.6981 -1.1354
  971SOL     OW 2911   1.108   0.480   1.459  0.1093  0.1515  0.2258
  971SOL    HW1 2912   1.040   0.463   1.385 -1.2184 -2.2805  1.8772
  971SOL    HW2 2913   1.080   0.550   1.522  1.8918 -2.5499 -2.2706
  972SOL     OW 2914   0.908   0.303   2.490 -0.0020  0.0630 -0.1680
  972SOL    HW1 2915   0.862   0.214   2.499  1.0822  1.8085 -0.8562
  972SOL    HW2 2916   0.861   0.363   2.425 -2.9795  0.7818  0.2090
  973SOL     OW 2917   0.315   1.381   1.208 -0.3104  0.2456 -0.1131
  973SOL    HW1 2918   0.314   1.414   1.302  0.2370 -0.2844 -5.4810
  973SOL    HW2 2919   0.368   1.292   1.211  1.9346 -0.1925 -1.8008
  974SOL     OW 2920   1.759   1.147   1.820  0.0713  0.1101 -0.0679
  974SOL    HW1 2921   1.809   1.126   1.734  1.7778  1.2087 -1.7903
  974SOL    HW2 2922   1.679   1.088   1.832 -0.9032  1.7589  1.3765
  975SOL     OW 2923   2.588   3.056   0.352  0.3120  0.1658 -0.0337
  975SOL    HW1 2924   2.545   2.989   0.285 -0.6424 -1.9315 -0.1922
  975SOL    HW2 2925   2.674   0.033   0.317  1.2814  0.9100 -0.5931
  976SOL     OW 2926   0.110   1.662   1.787 -0.2235 -0.5141 -0.3408
  976SOL    HW1 2927   0.030   1.658   1.852 -1.0712 -0.0925 -0.1625
  976SOL    HW2 2928   0.087   1.725   1.711  0.6756 -1.3828 -1.3063
  977SOL     OW 2929   0.668   2.734   0.272 -0.1809 -0.2263  0.3258
  977SOL    HW1 2930   0.636   2.728   0.173 -1.0133  0.2159 -0.4470
  977SOL    HW2 2931   0.766   2.693   0.283  0.9419 -0.0929  2.2827
  978SOL     OW 2932   0.617   1.677   0.270 -0.6322  0.0930 -0.4059
  978SOL    HW1 2933   0.539   1.647   0.213 -0.5542 -2.1489  1.3994
  978SOL    HW2 2934   0.706   1.633   0.244  0.7319 -0.1817  0.1114
  979SOL     OW 2935   1.377   2.018   1.121  0.1779 -0.0275 -0.2264
  979SOL    HW1 2936   1.326   2.090   1.163  2.3665  1.0356  0.0557
  979SOL    HW2 2937   1.478   2.026   1.133  0.0470 -1.6532  0.3684
  980SOL     OW 2938   0.709   1.442   2.178 -0.0601 -0.0232  0.1049
  980SOL    HW1 2939   0.740   1.399   2.089 -0.6984 -0.0659  3.8182
  980SOL    HW2 2940   0.613   1.407   2.195 -0.0893  0.3136 -0.9516
  981SOL     OW 2941   2.983   1.359   0.341 -0.3542  0.4563 -0.0692
  981SOL    HW1 2942   0.011   1.389   0.380  0.5493  0.8208  0.5323
  981SOL    HW2 2943   2.905   1.385   0.398  1.3913 -0.1267  0.9781
  982SOL     OW 2944   2.406   2.504   2.856 -0.9327 -0.0319  0.1736
  982SOL    HW1 2945   2.415   2.540   2.759  0.4505 -2.8640  0.5834
  982SOL    HW2 2946   2.447   2.565   2.934 -0.1595  0.0084  1.1809
  983SOL     OW 2947   1.901   0.547   1.462 -0.0287 -0.1747 -0.4353
  983SOL    HW1 2948   1.869   0.613   1.392  3.2962  2.1120 -0.6159
  983SOL    HW2 2949   1.977   0.490   1.422  3.1286  3.0378 -3.4889
  984SOL     OW 2950   0.944   2.979   2.460 -0.1016  0.4847  0.5291
  984SOL    HW1 2951   0.978   3.031   2.539 -0.4409 -0.7444  0.5423
  984SOL    HW2 2952   0.982   2.887   2.456 -0.8045  2.1088 -0.1479
  985SOL     OW 2953   1.644   2.161   1.930 -0.5304  0.1358 -0.0494
  985SOL    HW1 2954   1.632   2.103   2.016  2.7393 -2.5895 -0.7538
  985SOL    HW2 2955   1.739   2.201   1.935  2.4771  1.9489  2.6843
  986SOL     OW 2956   2.203   2.980   2.227 -0.2963  0.2842  0.6397
  986SOL    HW1 2957   2.204   2.880   2.197  0.0951 -0.5027 -1.2952
  986SOL    HW2 2958   2.249   3.044   2.161  2.1339  0.5567  2.7252
  987SOL     OW 2959   2.688   0.195   2.188 -0.8266  0.2948  0.5655
  987SOL    HW1 2960   2.750   0.221   2.262  0.9014 -0.6841 -1.2274
  987SOL    HW2 2961   2.612   0.261   2.188  0.2056 -0.4036 -1.6013
  988SOL     OW 2962   2.556   0.406   2.276 -0.8086 -0.4394  0.1160
  988SOL    HW1 2963   2.578   0.423   2.371  1.9404  1.1493  0.0581
  988SOL    HW2 2964   2.474   0.453   2.236  0.3191  2.1229 -2.7982
  989SOL     OW 2965   2.200   2.367   2.484  0.0303  0.4970 -0.0704
  989SOL    HW1 2966   2.252   2.386   2.400  0.2923 -0.5619  1.5754
  989SOL    HW2 2967   2.268   2.314   2.539  0.6888 -0.8118 -2.0722
  990SOL     OW 2968   0.401   1.198   3.055  0.6619 -0.5823 -0.0883
  990SOL    HW1 2969   0.442   1.140   0.074  2.5241 -0.0828 -1.0212
  990SOL    HW2 2970   0.470   1.268   3.027 -0.3078  0.4799 -0.5618
  991SOL     OW 2971   0.719   0.976   2.392 -0.2649 -0.0228  0.0526
  991SOL    HW1 2972   0.762   0.887   2.357 -1.9639 -2.1242  2.1893
  991SOL    HW2 2973   0.755   0.994   2.486  0.3918  0.6280 -1.2169
  992SOL     OW 2974   2.921   2.023   1.965  0.8268  0.3686  0.3275
  992SOL    HW1 2975   2.967   2.077   1.889 -0.1643  0.4179 -1.1253
  992SOL    HW2 2976   2.991   1.981   2.028 -0.3425  0.0057  1.2337
  993SOL     OW 2977   0.807   0.221   0.715  0.6976  0.2851  0.1591
  993SOL    HW1 2978   0.902   0.255   0.706  0.0085 -0.4860  2.0426
  993SOL    HW2 2979   0.802   0.120   0.706 -0.2039  0.4976  0.8977
  994SOL     OW 2980   0.418   2.061   1.580 -0.1802 -0.3287 -0.2272
  994SOL    HW1 2981   0.422   1.963   1.593 -0.9128  2.0282 -0.2103
  994SOL    HW2 2982   0.409   2.081   1.481 -0.1370 -0.7421 -2.8591
  995SOL     OW 2983   2.154   1.550   2.713  0.5020 -0.1316  0.2262
  995SOL    HW1 2984   2.239   1.502   2.696 -3.9682  0.5036  1.6654
  995SOL    HW2 2985   2.163   1.653   2.711 -1.8303  2.1070  0.0532
  996SOL     OW 2986   1.758   1.471   2.800 -0.5097  0.1890 -0.3453
  996SOL    HW1 2987   1.834   1.453   2.871 -0.3727 -0.8875 -1.8293
  996SOL    HW2 2988   1.668   1.447   2.843  0.9820 -4.5341  0.5077
  997SOL     OW 2989   1.617   1.358   1.721 -0.3372  0.2694 -0.5177
  997SOL    HW1 2990   1.665   1.277   1.763  1.8260  0.9865 -0.3074
  997SOL    HW2 2991   1.614   1.436   1.788 -0.6966 -0.7433 -0.2441
  998SOL     OW 2992   2.266   1.870   1.040  0.5289  0.2183 -0.1908
  998SOL    HW1 2993   2.189   1.928   1.072 -1.8689  0.3000 -0.0249
  998SOL    HW2 2994   2.239   1.825   0.950  3.1613  1.9698  1.3071
  999SOL     OW 2995   2.165   2.392   0.095 -0.1375 -0.3383 -0.6371
  999SOL    HW1 2996   2.170   2.489   0.115 -0.3659 -4.1345  1.2005
  999SOL    HW2 2997   2.239   2.345   0.147  4.2491  0.3057  0.8748
 1000SOL     OW 2998   0.738   0.006   2.308 -0.0885 -0.1957 -0.1547
 1000SOL    HW1 2999   0.670   0.066   2.355 -1.1087  0.6349 -0.3055
 1000SOL    HW2 3000   0.815   3.034   2.369  2.5249 -1.6564 -1.3720
   3.05902   3.05902   3.05902
