1000 SPC/Fw water molecules t= 323.00000 step= 323000
 3000
    1SOL     OW    1   2.383   0.070   1.162  0.3366  0.1465 -0.2874
    1SOL    HW1    2   2.290   0.031   1.184  0.6310 -0.6847  2.0840
    1SOL    HW2    3   2.427   0.022   1.083 -0.1463  0.2136  1.2710
    2SOL     OW    4   2.714   2.359   0.928 -0.3450 -0.1940 -0.1847
    2SOL    HW1    5   2.684   2.315   1.015  1.6016 -0.9402  2.7932
    2SOL    HW2    6   2.760   2.289   0.872 -1.0027 -1.9337 -0.1741
    3SOL     OW    7   0.948   3.028   2.783  0.0745  0.6421 -0.8286
    3SOL    HW1    8   0.928   2.979   2.875 -2.5121 -1.2898  0.5799
    3SOL    HW2    9   0.867   3.076   2.752 -2.2588 -0.6607 -1.5714
    4SOL     OW   10   1.965   2.430   1.997 -0.5345 -1.2549  0.1353
    4SOL    HW1   11   2.022   2.468   1.924  2.4056  1.1659 -2.1177
    4SOL    HW2   12   1.972   2.329   2.012 -1.4534  1.8243 -1.5408
    5SOL     OW   13   1.892   0.815   1.645  0.0644 -0.0989  0.0400
    5SOL    HW1   14   1.806   0.836   1.591 -0.2698  1.3982 -1.1282
    5SOL    HW2   15   1.964   0.886   1.633  3.0464  1.5298  3.1259
    6SOL     OW   16   2.132   2.596   0.772 -0.3926 -0.4323 -0.2580
    6SOL    HW1   17   2.129   2.497   0.785  0.2588  1.5985 -1.0777
    6SOL    HW2   18   2.074   2.642   0.845 -3.6377  2.6990 -0.2250
    7SOL     OW   19   2.442   1.512   1.051  0.3554 -0.2592  0.2925
    7SOL    HW1   20   2.523   1.527   1.109 -0.4518 -0.0460 -1.2004
    7SOL    HW2   21   2.386   1.436   1.090 -1.0403 -1.2499 -0.9741
    8SOL     OW   22   1.007   1.907   1.365 -0.7060  0.2221  0.1805
    8SOL    HW1   23   0.911   1.877   1.376 -0.0225  2.3503  1.5849
    8SOL    HW2   24   1.006   2.009   1.378 -0.2273 -1.2370 -1.2022
    9SOL     OW   25   1.329   2.727   2.349 -0.0702 -0.1359 -0.1282
    9SOL    HW1   26   1.240   2.732   2.395  0.7485 -2.3992 -1.9091
    9SOL    HW2   27   1.331   2.790   2.270 -2.0799  1.6570  0.2752
   10SOL     OW   28   0.591   1.985   0.986  0.1410 -0.4694 -0.2898
   10SOL    HW1   29   0.681   2.029   0.990  0.8126  0.4398 -1.1746
   10SOL    HW2   30   0.540   1.990   1.073 -1.1548  0.3349 -0.5860
   11SOL     OW   31   1.793   1.718   1.081  0.3982  0.1923 -0.7878
   11SOL    HW1   32   1.879   1.676   1.087 -4.2465  0.6342  0.7327
   11SOL    HW2   33   1.755   1.741   1.172  1.3602  0.3417 -0.4968
   12SOL     OW   34   2.574   2.665   1.882 -0.1107  0.7918 -0.2215
   12SOL    HW1   35   2.570   2.571   1.918 -0.9216 -2.2368  2.4615
   12SOL    HW2   36   2.670   2.706   1.891 -1.3704 -0.0543  0.7669
   13SOL     OW   37   2.454   2.989   0.422 -0.3450 -0.0729  0.1404
   13SOL    HW1   38   2.360   2.962   0.445  2.7438 -0.4399 -0.9504
   13SOL    HW2   39   2.518   2.976   0.498  3.0225  2.0707  3.3079
   14SOL     OW   40   1.533   2.178   0.194 -0.1636 -0.3915 -0.2015
   14SOL    HW1   41   1.476   2.175   0.282 -3.7964 -1.0251  1.7584
   14SOL    HW2   42   1.633   2.197   0.201  1.4864 -0.8876 -3.1578
   15SOL     OW   43   2.887   2.402   1.514  0.1906 -0.0555  0.9770
   15SOL    HW1   44   2.874   2.382   1.612 -0.2197 -0.3742 -0.7397
   15SOL    HW2   45   2.883   2.503   1.486  0.4965  3.9626  0.4403
   16SOL     OW   46   2.452   0.154   0.328  0.5375  0.0870  0.2104
   16SOL    HW1   47   2.451   0.072   0.387  1.4154 -2.0892 -0.8097
   16SOL    HW2   48   2.546   0.169   0.284 -0.9320 -2.3374  0.4869
   17SOL     OW   49   0.249   0.383   1.356 -0.3707  0.3394  0.1195
   17SOL    HW1   50   0.301   0.470   1.346 -0.8257 -1.5525 -1.4941
   17SOL    HW2   51   0.294   0.325   1.427  2.4062 -0.7011 -0.9804
   18SOL     OW   52   2.039   0.922   0.328 -0.5030  0.3147 -0.6323
   18SOL    HW1   53   2.073   0.855   0.258 -0.3319 -2.1009  1.0333
   18SOL    HW2   54   2.060   0.891   0.419 -1.7304  0.6645 -2.4628
   19SOL     OW   55   1.636   1.900   0.474  0.0814  0.0885  0.7770
   19SOL    HW1   56   1.669   1.816   0.431 -1.7865 -0.3372  1.3885
   19SOL    HW2   57   1.701   1.977   0.470 -3.5184 -0.5957 -1.0657
   20SOL     OW   58   2.390   2.068   2.195  0.2189  0.0098 -0.3475
   20SOL    HW1   59   2.379   2.116   2.288  0.9015  4.1322 -0.8019
   20SOL    HW2   60   2.355   2.132   2.127  1.0417 -1.0725  1.1368
   21SOL     OW   61   1.631   0.313   0.748 -0.4092  0.2724  0.7271
   21SOL    HW1   62   1.640   0.210   0.769  1.7968 -1.4241  2.1836
   21SOL    HW2   63   1.547   0.351   0.780  2.0107 -0.7259  0.1875
   22SOL     OW   64   2.531   0.031   1.683  0.0907 -0.4129  0.1361
   22SOL    HW1   65   2.488   0.115   1.645  1.8364 -0.7146 -0.0777
   22SOL    HW2   66   2.468   3.061   1.666  0.4616  0.1293  0.1574
   23SOL     OW   67   3.101   0.568   1.941 -0.2700  0.2245  0.1372
   23SOL    HW1   68   3.067   0.480   1.983 -0.5160 -0.9218 -1.0649
   23SOL    HW2   69   3.030   0.638   1.918 -0.0860 -0.3780  2.8168
   24SOL     OW   70   2.605   2.780   0.253 -0.2403  0.3835 -0.4744
   24SOL    HW1   71   2.623   2.698   0.316  1.4482  0.0059  1.7327
   24SOL    HW2   72   2.575   2.858   0.311  2.0914 -0.6723 -2.3166
   25SOL     OW   73   1.348   3.107   2.595  0.0145 -0.1719  0.0064
   25SOL    HW1   74   1.394   3.016   2.605 -0.9914  2.8321  0.7052
   25SOL    HW2   75   1.302   0.022   2.684 -1.4437  0.7667 -2.1531
   26SOL     OW   76   1.429   2.459   0.512 -0.2578  0.2757  0.4908
   26SOL    HW1   77   1.453   2.373   0.469  1.2116  0.1124  3.2075
   26SOL    HW2   78   1.395   2.524   0.445  0.0515 -0.0097 -0.1986
   27SOL     OW   79   2.364   1.253   2.861 -0.0201 -0.2308  0.8335
   27SOL    HW1   80   2.415   1.336   2.896 -1.7999  0.1050  0.0336
   27SOL    HW2   81   2.412   1.203   2.783 -0.3289 -1.0616 -0.8719
   28SOL     OW   82   1.276   1.347   1.221  0.6854 -0.1738 -0.4907
   28SOL    HW1   83   1.357   1.314   1.275  2.5027 -0.2739  0.1279
   28SOL    HW2   84   1.205   1.273   1.231  1.0206 -1.8550 -0.9586
   29SOL     OW   85   2.832   2.336   1.783  0.0003  0.6413  0.2533
   29SOL    HW1   86   2.851   2.421   1.827  0.2877 -1.0018  2.7978
   29SOL    HW2   87   2.852   2.260   1.844 -0.0602  3.9586 -3.6147
   30SOL     OW   88   1.369   0.255   1.109 -0.2493  0.0967 -0.5724
   30SOL    HW1   89   1.278   0.240   1.076  1.7105 -0.7688  0.5731
   30SOL    HW2   90   1.409   0.328   1.058 -0.9932  0.3042  0.1203
   31SOL     OW   91   2.238   2.986   1.925  0.0829 -0.1627  0.0028
   31SOL    HW1   92   2.222   3.090   1.939 -0.3103  2.1655  0.7339
   31SOL    HW2   93   2.148   2.936   1.936  1.2877 -2.1492  0.3156
   32SOL     OW   94   1.006   1.714   0.420 -0.0977 -0.2488 -0.1962
   32SOL    HW1   95   1.011   1.612   0.424 -0.1034 -0.1673 -0.7059
   32SOL    HW2   96   0.980   1.747   0.518  0.1165  4.0101  0.3829
   33SOL     OW   97   0.354   0.820   2.277 -0.0547  0.0051 -0.3492
   33SOL    HW1   98   0.412   0.775   2.351  0.1997 -0.5861  1.9355
   33SOL    HW2   99   0.327   0.760   2.204 -0.6611  0.9155  0.9670
   34SOL     OW  100   2.197   2.967   0.497 -0.2759  0.7701  0.0454
   34SOL    HW1  101   2.190   3.021   0.584  2.3676  0.5993  3.4746
   34SOL    HW2  102   2.168   3.020   0.414  0.1206  3.2365  1.9107
   35SOL     OW  103   1.984   2.668   1.563  0.2557  0.1612  0.0366
   35SOL    HW1  104   1.959   2.702   1.655  0.1994 -1.7254  0.9579
   35SOL    HW2  105   1.908   2.602   1.540  0.9111  0.2954 -1.2099
   36SOL     OW  106   1.822   2.435   0.027  0.3094 -0.0282 -0.1848
   36SOL    HW1  107   1.810   2.437   3.033  1.2379  0.7874 -1.2703
   36SOL    HW2  108   1.877   2.355   0.043  0.7603  2.9232 -2.1814
   37SOL     OW  109   1.319   0.592   2.056 -0.0208  0.1130  0.0076
   37SOL    HW1  110   1.315   0.656   2.134 -1.8298  1.8784 -1.8715
   37SOL    HW2  111   1.286   0.499   2.088  1.3516 -3.6768  1.1887
   38SOL     OW  112   0.188   0.270   2.582  0.1089 -0.1846 -0.2341
   38SOL    HW1  113   0.206   0.352   2.526 -1.3808  0.0858  2.7156
   38SOL    HW2  114   0.259   0.198   2.561 -3.1846  0.2531  0.7561
   39SOL     OW  115   2.496   1.368   1.796 -0.2135  0.7412 -0.1601
   39SOL    HW1  116   2.587   1.395   1.840  0.5456  0.8821  0.6655
   39SOL    HW2  117   2.502   1.390   1.693  2.3742 -0.4499  1.1742
   40SOL     OW  118   1.331   2.959   0.480  0.0753 -0.3520 -0.4898
   40SOL    HW1  119   1.265   3.022   0.530  0.9732  0.2789  3.1044
   40SOL    HW2  120   1.307   2.859   0.496  0.0429 -1.4042  0.0368
   41SOL     OW  121   2.390   1.383   0.819  0.4781 -0.4145  0.0084
   41SOL    HW1  122   2.397   1.427   0.908  0.3684 -3.3109 -3.3319
   41SOL    HW2  123   2.362   1.455   0.751 -0.5737  2.2414 -2.0030
   42SOL     OW  124   0.625   0.405   1.332 -0.0682 -0.1539  0.4053
   42SOL    HW1  125   0.542   0.452   1.370 -2.7698 -1.0383 -0.5987
   42SOL    HW2  126   0.640   0.312   1.369 -3.4389  2.2464 -0.7427
   43SOL     OW  127   0.105   1.569   2.640  0.5958  0.2774 -0.1723
   43SOL    HW1  128   0.043   1.499   2.598  0.2859 -1.1446  1.0923
   43SOL    HW2  129   0.201   1.530   2.655  2.8596 -2.1015  0.3369
   44SOL     OW  130   2.332   2.973   1.657  0.4953  0.5204  0.1050
   44SOL    HW1  131   2.312   2.968   1.758  0.0492 -0.2732 -2.7730
   44SOL    HW2  132   2.249   2.994   1.602  0.7963  0.0522  1.0452
   45SOL     OW  133   1.397   0.124   2.318  0.1754 -0.0638  0.0854
   45SOL    HW1  134   1.492   0.146   2.301 -3.8305  0.8093  1.7916
   45SOL    HW2  135   1.381   0.082   2.407  1.3776  0.5543  0.1613
   46SOL     OW  136   1.176   2.836   2.685 -0.0120  0.0129 -0.7384
   46SOL    HW1  137   1.139   2.863   2.775  0.8710 -1.6514 -2.2535
   46SOL    HW2  138   1.279   2.839   2.691  1.1824  0.0855  2.6421
   47SOL     OW  139   1.826   1.524   0.591  0.3799  0.7345  0.0820
   47SOL    HW1  140   1.874   1.606   0.627  0.9238 -0.1727  2.8050
   47SOL    HW2  141   1.882   1.440   0.575 -0.5797  0.3967 -0.4606
   48SOL     OW  142   1.009   2.277   0.662 -0.5488 -0.2394 -0.4398
   48SOL    HW1  143   1.047   2.265   0.570 -0.4091 -0.4970  0.3983
   48SOL    HW2  144   0.972   2.187   0.688 -0.7060 -1.0201 -1.0713
   49SOL     OW  145   2.019   3.072   2.840 -0.6634  0.0810  0.0497
   49SOL    HW1  146   2.035   2.996   2.772  0.2549 -0.4213  1.1118
   49SOL    HW2  147   2.111   3.101   2.880  3.0267  1.4934 -1.0097
   50SOL     OW  148   1.688   2.941   0.098 -0.3745 -0.4567 -0.2945
   50SOL    HW1  149   1.738   2.939   0.007  0.0347  1.5793  0.5867
   50SOL    HW2  150   1.760   2.966   0.167  2.4898  1.1145 -0.2767
   51SOL     OW  151   2.085   0.726   1.340 -0.0851  0.0546 -0.4585
   51SOL    HW1  152   2.184   0.722   1.375 -0.3661  0.0185  0.7622
   51SOL    HW2  153   2.069   0.820   1.298  4.1588  0.3293  1.6111
   52SOL     OW  154   1.080   1.612   0.907 -0.0479 -0.1189 -0.2719
   52SOL    HW1  155   1.157   1.544   0.928  3.5308 -1.6895  2.4621
   52SOL    HW2  156   1.054   1.661   0.992 -0.8943 -0.0759 -1.1991
   53SOL     OW  157   0.597   1.624   2.494  0.3728  0.7095  0.2340
   53SOL    HW1  158   0.523   1.616   2.569 -0.2071  0.8276  2.5700
   53SOL    HW2  159   0.643   1.535   2.483 -1.3530 -1.1144 -1.1923
   54SOL     OW  160   2.832   1.267   1.743 -0.9576  0.1325  0.2376
   54SOL    HW1  161   2.873   1.177   1.765 -0.3620 -1.9270 -0.5006
   54SOL    HW2  162   2.794   1.310   1.825  0.0516 -0.8443  0.3702
   55SOL     OW  163   2.553   1.722   0.574 -0.4652  0.1299  0.2774
   55SOL    HW1  164   2.644   1.675   0.597  3.5957 -1.3069 -0.1640
   55SOL    HW2  165   2.567   1.817   0.544 -1.1969 -2.7837  0.5091
   56SOL     OW  166   1.498   0.084   1.657  0.1355 -0.4837 -0.5564
   56SOL    HW1  167   1.529   0.003   1.710  0.6382 -1.9903 -1.0210
   56SOL    HW2  168   1.479   0.160   1.717  0.2888 -0.0575 -1.8538
   57SOL     OW  169   1.446   1.549   2.802  0.0080 -0.1846 -0.0874
   57SOL    HW1  170   1.513   1.603   2.855  2.6662 -2.3665 -1.7424
   57SOL    HW2  171   1.436   1.583   2.704 -0.2214 -1.9698 -0.4252
   58SOL     OW  172   0.081   0.726   1.622  0.2610 -0.0646 -0.1316
   58SOL    HW1  173   0.170   0.702   1.657 -3.4685  2.6767 -0.8898
   58SOL    HW2  174   0.047   0.819   1.647 -0.9410  1.4234  0.9066
   59SOL     OW  175   1.837   2.810   0.384 -0.5588 -0.8143  0.5251
   59SOL    HW1  176   1.805   2.717   0.359  0.7750 -1.6612  1.4643
   59SOL    HW2  177   1.892   2.850   0.302  0.4588 -0.3611 -1.8377
   60SOL     OW  178   3.071   1.777   0.083  0.1565 -0.5551 -0.1884
   60SOL    HW1  179   3.017   1.857   0.103  0.1395 -0.7913 -3.9481
   60SOL    HW2  180   3.086   1.759   3.092 -0.4163 -0.8399 -0.5707
   61SOL     OW  181   0.839   2.680   0.776 -0.3426 -0.3875  0.1738
   61SOL    HW1  182   0.767   2.678   0.851 -1.6795 -0.5122 -0.8280
   61SOL    HW2  183   0.803   2.645   0.686  2.4244 -0.6779  2.6008
   62SOL     OW  184   1.982   1.671   2.746 -0.2517  0.2334 -0.3315
   62SOL    HW1  185   1.975   1.704   2.651  0.8569  0.1692 -2.2099
   62SOL    HW2  186   2.009   1.754   2.804  0.6949 -0.3540  2.2810
   63SOL     OW  187   2.147   2.304   0.755 -0.1126  0.1087  0.6363
   63SOL    HW1  188   2.224   2.269   0.696 -0.1108 -2.6508 -2.8726
   63SOL    HW2  189   2.074   2.234   0.769 -0.3433 -2.4463  2.3529
   64SOL     OW  190   1.541   1.114   3.016 -0.1822 -0.3124  0.0396
   64SOL    HW1  191   1.483   1.031   3.021  0.0370 -0.9571 -1.2309
   64SOL    HW2  192   1.646   1.091   3.019  5.2352  0.7298  2.0449
   65SOL     OW  193   1.965   1.865   2.522 -0.2713  0.3648  0.1020
   65SOL    HW1  194   2.050   1.895   2.569  0.3741  0.5037 -3.1514
   65SOL    HW2  195   1.992   1.874   2.427 -0.0863  1.1845  0.8965
   66SOL     OW  196   0.272   1.025   1.400 -0.3627  0.4954  0.0318
   66SOL    HW1  197   0.276   1.070   1.315 -0.7347 -2.0642  2.6418
   66SOL    HW2  198   0.232   1.092   1.468 -0.3799 -2.7848 -1.2345
   67SOL     OW  199   2.233   2.811   2.633 -0.0627  0.0203 -0.3464
   67SOL    HW1  200   2.270   2.751   2.563  2.3929  0.9439  0.5769
   67SOL    HW2  201   2.312   2.867   2.672  1.7485  0.6900 -1.1745
   68SOL     OW  202   1.097   2.527   1.338  0.3447 -0.4518  0.5363
   68SOL    HW1  203   1.072   2.624   1.359 -2.8825 -2.7769  1.7472
   68SOL    HW2  204   1.110   2.517   1.237 -0.2359 -0.6209  3.7297
   69SOL     OW  205   0.541   2.589   0.091  0.3547 -0.1219  0.3446
   69SOL    HW1  206   0.571   2.626   0.180  0.4854 -0.4100 -0.9412
   69SOL    HW2  207   0.542   2.488   0.096  1.6455  1.2591  0.1297
   70SOL     OW  208   2.842   0.304   2.495  0.4585  0.0874 -0.1921
   70SOL    HW1  209   2.797   0.214   2.485  2.1472  0.1984 -0.4401
   70SOL    HW2  210   2.918   0.321   2.425  1.9899  1.9258 -0.4184
   71SOL     OW  211   0.440   1.293   2.588 -0.2976  0.3256 -0.3671
   71SOL    HW1  212   0.349   1.258   2.618  2.5356  0.2046  0.8303
   71SOL    HW2  213   0.478   1.349   2.663 -2.2392 -1.5690 -0.2352
   72SOL     OW  214   0.187   1.808   2.691 -0.0405  0.2469  0.1448
   72SOL    HW1  215   0.132   1.723   2.666 -1.6003 -0.7756 -0.1228
   72SOL    HW2  216   0.242   1.844   2.612  1.3891 -1.4847  2.2814
   73SOL     OW  217   1.470   1.512   0.208  0.3290  0.4232 -0.4453
   73SOL    HW1  218   1.542   1.527   0.277  1.6960 -0.8234  1.6794
   73SOL    HW2  219   1.388   1.575   0.224 -0.3455  0.2379 -0.7947
   74SOL     OW  220   2.114   2.627   2.850 -0.4049  0.1729 -0.2089
   74SOL    HW1  221   2.165   2.681   2.780  0.1752  0.7635 -1.9029
   74SOL    HW2  222   2.068   2.687   2.926 -0.4386 -2.3948 -0.3063
   75SOL     OW  223   2.003   1.904   1.203 -0.3848 -0.3580 -0.1102
   75SOL    HW1  224   2.052   1.944   1.124  2.3363 -0.8433 -0.8319
   75SOL    HW2  225   2.013   1.805   1.202 -1.3338  4.3097 -2.0482
   76SOL     OW  226   2.286   2.346   2.055 -0.1036 -0.2224 -0.2634
   76SOL    HW1  227   2.242   2.343   1.965  1.0843 -0.2828  2.7167
   76SOL    HW2  228   2.222   2.356   2.134  1.3330 -0.5460  1.9309
   77SOL     OW  229   2.539   3.034   2.236  0.0415  0.6265 -0.4353
   77SOL    HW1  230   2.525   0.015   2.189 -1.3772  1.8601  0.2807
   77SOL    HW2  231   2.481   2.962   2.184 -1.6011  2.1642 -2.9567
   78SOL     OW  232   1.846   1.127   3.009  0.3845 -0.2749 -0.0402
   78SOL    HW1  233   1.926   1.166   3.060  1.8958  1.6282  1.6836
   78SOL    HW2  234   1.861   1.028   2.984 -0.6640  0.1382 -0.9444
   79SOL     OW  235   2.665   1.508   2.559  0.2722 -0.5584  0.1943
   79SOL    HW1  236   2.689   1.602   2.540 -0.7222  1.3394  2.5454
   79SOL    HW2  237   2.634   1.455   2.478 -0.3917 -0.2623  1.4865
   80SOL     OW  238   1.859   1.651   1.540  0.0257  0.9478 -0.0474
   80SOL    HW1  239   1.798   1.687   1.611  1.3612  1.3418 -3.5451
   80SOL    HW2  240   1.887   1.558   1.565 -1.0903  1.0436  2.8684
   81SOL     OW  241   1.996   0.573   1.715 -0.0493  0.3134 -0.4253
   81SOL    HW1  242   2.080   0.584   1.771 -1.1901  0.9767  0.8459
   81SOL    HW2  243   1.956   0.662   1.689 -0.1665 -1.4345  2.3863
   82SOL     OW  244   2.114   2.341   1.460 -0.5968  0.0483  1.1569
   82SOL    HW1  245   2.163   2.381   1.540  0.5892  0.4507 -0.4447
   82SOL    HW2  246   2.158   2.254   1.432 -1.4456  1.8845  0.1236
   83SOL     OW  247   2.879   0.050   0.134  0.3893  0.1006  0.2723
   83SOL    HW1  248   2.928   0.075   0.217 -2.0205 -3.2023 -0.4063
   83SOL    HW2  249   2.900   0.119   0.061  1.9251 -0.6782 -0.1086
   84SOL     OW  250   0.540   1.219   0.072 -0.2360 -0.3347  0.5763
   84SOL    HW1  251   0.529   1.128   0.023  0.1408 -0.7330 -0.7765
   84SOL    HW2  252   0.635   1.229   0.109 -0.8493  1.6008  1.1806
   85SOL     OW  253   2.722   1.974   1.520  0.1900  0.3182 -0.3365
   85SOL    HW1  254   2.672   1.936   1.599 -1.4043  0.2441 -1.2195
   85SOL    HW2  255   2.695   1.934   1.429 -0.1866 -0.9243  0.9377
   86SOL     OW  256   0.335   2.666   1.452 -0.4219  0.0151 -0.1933
   86SOL    HW1  257   0.428   2.645   1.415  1.3118 -1.2064 -0.0467
   86SOL    HW2  258   0.343   2.729   1.534 -0.9823 -0.3045  1.2213
   87SOL     OW  259   0.627   2.521   2.206 -0.1672  0.3121 -0.0461
   87SOL    HW1  260   0.704   2.469   2.174  1.0335  0.6043 -0.6448
   87SOL    HW2  261   0.576   2.472   2.275  2.8053 -1.3571  0.3540
   88SOL     OW  262   0.132   2.119   0.644  0.2025 -0.0753  0.5020
   88SOL    HW1  263   0.153   2.178   0.725  0.1539 -3.2920  0.7236
   88SOL    HW2  264   0.215   2.100   0.593 -0.7888 -3.3777  1.4123
   89SOL     OW  265   0.788   0.641   1.388  0.3864 -0.3613 -0.5739
   89SOL    HW1  266   0.870   0.668   1.336 -0.9186 -0.8891 -0.1331
   89SOL    HW2  267   0.751   0.554   1.349 -0.2600  3.1118 -1.0793
   90SOL     OW  268   0.200   1.205   1.630  0.1700  0.2423 -0.3756
   90SOL    HW1  269   0.161   1.293   1.604 -1.1333 -0.5794  0.0447
   90SOL    HW2  270   0.303   1.210   1.632 -1.5480 -0.1056  0.1254
   91SOL     OW  271   1.153   0.801   1.032  0.1617  0.3016  0.1462
   91SOL    HW1  272   1.230   0.854   1.069 -1.9057 -0.7074  0.1700
   91SOL    HW2  273   1.187   0.705   1.015  0.4589 -1.1933 -1.7752
   92SOL     OW  274   2.083   1.017   0.758  0.2542 -0.0776  0.5456
   92SOL    HW1  275   2.130   1.107   0.780  2.2962  1.1304  0.3193
   92SOL    HW2  276   1.988   1.031   0.712 -2.0542 -0.6389 -3.2513
   93SOL     OW  277   2.487   0.732   2.494  0.2584  0.0500 -0.3079
   93SOL    HW1  278   2.545   0.663   2.450  0.1904  0.4130  2.1532
   93SOL    HW2  279   2.393   0.720   2.455 -0.7619 -1.5573 -2.0087
   94SOL     OW  280   2.200   1.898   2.651  0.6337 -0.1983  0.2027
   94SOL    HW1  281   2.166   1.973   2.712 -1.4650  1.5332  0.6271
   94SOL    HW2  282   2.254   1.829   2.701 -0.5621 -0.7446  0.5336
   95SOL     OW  283   2.618   0.699   1.132  0.5011  0.0604 -0.3241
   95SOL    HW1  284   2.636   0.713   1.030  2.1491  0.0849 -1.3623
   95SOL    HW2  285   2.555   0.619   1.143  2.5236 -1.9730  0.5403
   96SOL     OW  286   2.429   2.708   1.656 -0.3110 -0.7524 -0.9501
   96SOL    HW1  287   2.404   2.805   1.669 -0.6580 -4.4053 -2.0048
   96SOL    HW2  288   2.468   2.677   1.748  1.2909  0.3679 -0.0335
   97SOL     OW  289   2.619   1.123   1.322  0.2947  0.1917  0.4866
   97SOL    HW1  290   2.678   1.190   1.273 -0.4465  1.5304 -1.0822
   97SOL    HW2  291   2.646   1.128   1.418 -0.7899 -0.3482 -1.7799
   98SOL     OW  292   1.602   2.090   1.845  0.3687  0.2834  0.1929
   98SOL    HW1  293   1.585   2.000   1.889 -2.1496 -0.1399 -1.0673
   98SOL    HW2  294   1.535   2.111   1.771  2.1188 -1.0050 -0.4979
   99SOL     OW  295   0.369   2.331   1.420  0.5066  0.0114  0.2573
   99SOL    HW1  296   0.349   2.396   1.340 -0.3535  2.3071 -0.3753
   99SOL    HW2  297   0.465   2.301   1.411  3.0605 -2.9483  1.0674
  100SOL     OW  298   1.120   0.560   2.843  0.6695  0.3317 -0.2297
  100SOL    HW1  299   1.129   0.656   2.880  0.0158  1.4883  2.0160
  100SOL    HW2  300   1.208   0.533   2.805  0.7246  1.1923  1.8433
  101SOL     OW  301   2.438   0.102   2.715  0.0308  0.3482  0.0040
  101SOL    HW1  302   2.424   0.123   2.616 -0.8989  0.8317 -1.2634
  101SOL    HW2  303   2.482   0.177   2.761 -2.2910 -3.3774 -1.5581
  102SOL     OW  304   0.456   0.864   1.537  0.2405  0.0942 -0.4370
  102SOL    HW1  305   0.405   0.937   1.487  1.0147  0.4159  0.9499
  102SOL    HW2  306   0.554   0.894   1.556  1.8226  2.0067  0.2671
  103SOL     OW  307   0.168   0.678   2.531  0.2972  0.6274  0.2392
  103SOL    HW1  308   0.090   0.731   2.568 -0.8435 -0.5834 -0.3942
  103SOL    HW2  309   0.253   0.687   2.588 -0.0491 -0.3833 -0.0351
  104SOL     OW  310   0.861   0.565   2.545  0.0840  0.1231  0.2190
  104SOL    HW1  311   0.823   0.572   2.446 -0.4213 -0.0234 -2.6221
  104SOL    HW2  312   0.845   0.473   2.587  0.0942  2.7341  0.9579
  105SOL     OW  313   2.089   1.966   1.817 -0.3005 -0.0995  0.2127
  105SOL    HW1  314   2.091   1.876   1.866  1.2134 -0.0947  0.4232
  105SOL    HW2  315   2.177   1.980   1.764  3.1442 -1.1246 -0.3343
  106SOL     OW  316   1.911   0.173   0.606 -0.3404 -0.7418  0.1990
  106SOL    HW1  317   1.846   0.107   0.563 -0.6671  0.0661  1.6702
  106SOL    HW2  318   1.946   0.249   0.547 -0.9579 -2.1308 -0.9220
  107SOL     OW  319   2.789   2.021   1.111  0.5939  0.0334  0.2362
  107SOL    HW1  320   2.761   2.118   1.137  1.6391  1.2100  1.6226
  107SOL    HW2  321   2.721   1.978   1.048  0.8764 -0.4310  0.8830
  108SOL     OW  322   2.893   2.685   1.469 -0.0176  0.1155 -0.3442
  108SOL    HW1  323   2.832   2.759   1.438  1.3649 -2.8320  0.4701
  108SOL    HW2  324   2.994   2.710   1.470  0.0703  0.0527 -2.3157
  109SOL     OW  325   1.977   2.723   0.954  0.2834 -0.7218 -0.3423
  109SOL    HW1  326   1.993   2.687   1.047  2.1572 -2.0856 -0.8455
  109SOL    HW2  327   2.005   2.820   0.941 -0.1803 -0.2509 -1.1696
  110SOL     OW  328   0.771   1.836   2.512  0.3973 -0.1164 -0.5438
  110SOL    HW1  329   0.704   1.765   2.494  1.4839  0.5549  0.5676
  110SOL    HW2  330   0.838   1.814   2.585  3.8808 -1.6740 -1.3932
  111SOL     OW  331   1.646   2.507   2.249  0.4379 -0.2656  0.0550
  111SOL    HW1  332   1.731   2.555   2.216 -1.9532  0.8557 -1.1018
  111SOL    HW2  333   1.579   2.531   2.176  0.2423 -2.5345  1.3323
  112SOL     OW  334   2.015   1.731   3.075 -0.0187 -0.0239  0.3371
  112SOL    HW1  335   2.030   1.632   3.080 -1.5463 -1.0823 -0.6444
  112SOL    HW2  336   2.094   1.771   3.028 -0.5263  0.6193 -0.1312
  113SOL     OW  337   1.758   2.137   1.502  0.3424 -0.2648  0.6590
  113SOL    HW1  338   1.819   2.059   1.491 -2.2123  1.7486  2.1229
  113SOL    HW2  339   1.780   2.179   1.589 -2.1067 -0.5157 -3.4575
  114SOL     OW  340   3.043   0.897   0.845 -0.1011  0.1169 -1.0564
  114SOL    HW1  341   2.954   0.874   0.803 -1.5812 -1.6222  0.5434
  114SOL    HW2  342   3.043   0.876   0.946  0.0084  1.4000  1.0310
  115SOL     OW  343   0.702   0.646   0.101 -0.1588  0.1461  0.4246
  115SOL    HW1  344   0.614   0.671   0.058  1.3023  0.1608  0.1771
  115SOL    HW2  345   0.714   0.545   0.106 -0.6300  0.1151 -2.8819
  116SOL     OW  346   2.811   1.775   2.471  0.1429  0.6488  0.1410
  116SOL    HW1  347   2.738   1.831   2.423  0.3493  2.8132 -1.0316
  116SOL    HW2  348   2.869   1.839   2.527  2.6968  0.7853 -1.3887
  117SOL     OW  349   2.855   2.844   0.552 -0.5406 -0.0419  0.5581
  117SOL    HW1  350   2.937   2.897   0.586 -0.5269 -0.4956  0.6454
  117SOL    HW2  351   2.893   2.767   0.502  0.9101 -0.7268  1.8511
  118SOL     OW  352   0.895   1.490   2.942 -0.1009 -0.3632  0.3752
  118SOL    HW1  353   0.829   1.533   2.876 -2.1388  0.9519  1.1294
  118SOL    HW2  354   0.960   1.564   2.980  1.8140 -0.0520  2.5380
  119SOL     OW  355   0.446   2.017   0.070  0.0457  0.4448 -0.5163
  119SOL    HW1  356   0.353   1.982   0.094 -0.1964  1.5122 -1.0626
  119SOL    HW2  357   0.519   1.949   0.072 -2.8366  0.4523 -0.7032
  120SOL     OW  358   1.232   0.685   0.198  0.7980  0.4601 -0.4320
  120SOL    HW1  359   1.159   0.757   0.210  0.6186  0.7030  0.6392
  120SOL    HW2  360   1.323   0.724   0.170  2.0355 -0.0118  3.6260
  121SOL     OW  361   1.204   2.721   0.530  0.5412 -0.5320 -0.4418
  121SOL    HW1  362   1.242   2.702   0.623  1.4965  0.1368  0.7332
  121SOL    HW2  363   1.233   2.661   0.451 -1.0821  1.6601 -2.2781
  122SOL     OW  364   2.410   2.315   1.309 -0.0379  0.7364 -0.3002
  122SOL    HW1  365   2.381   2.399   1.262 -2.6488  1.5608  1.6078
  122SOL    HW2  366   2.491   2.335   1.369 -0.0361 -0.1227  0.4637
  123SOL     OW  367   0.700   1.961   0.480 -0.0239 -0.1486 -0.2141
  123SOL    HW1  368   0.735   1.982   0.386 -3.1373  0.1125 -2.7400
  123SOL    HW2  369   0.642   2.041   0.506 -0.6972 -1.9311  0.3200
  124SOL     OW  370   2.903   0.755   0.321  0.0157 -0.1221  0.3771
  124SOL    HW1  371   3.000   0.788   0.340  2.6846  1.4640 -0.4879
  124SOL    HW2  372   2.846   0.829   0.282  0.8567  0.5495  2.5723
  125SOL     OW  373   0.320   0.739   0.262 -0.5283 -0.0953  0.1109
  125SOL    HW1  374   0.367   0.741   0.175  1.4877  0.1025 -0.5335
  125SOL    HW2  375   0.325   0.829   0.305  1.1943 -0.9735  0.2082
  126SOL     OW  376   0.072   1.843   0.746 -0.0344 -0.0503  0.0495
  126SOL    HW1  377   0.139   1.829   0.820 -1.0051 -0.1135 -0.0161
  126SOL    HW2  378   0.106   1.916   0.681  0.7056 -3.0317 -2.8271
  127SOL     OW  379   1.442   1.832   1.948 -0.4685 -0.1525 -0.3510
  127SOL    HW1  380   1.488   1.824   2.038 -1.6050  0.8568  1.5693
  127SOL    HW2  381   1.355   1.883   1.961 -1.4922 -1.1250  0.8033
  128SOL     OW  382   1.272   1.341   0.378  0.1949  0.1064 -0.2448
  128SOL    HW1  383   1.302   1.319   0.285  0.6899 -1.3495  1.3318
  128SOL    HW2  384   1.325   1.281   0.438 -1.3840  2.5239 -1.4035
  129SOL     OW  385   2.034   1.160   1.066 -0.4256  0.8685 -0.2710
  129SOL    HW1  386   1.956   1.116   1.016 -0.7742 -2.2559  1.2224
  129SOL    HW2  387   2.007   1.238   1.123  0.1121 -1.1517 -1.9145
  130SOL     OW  388   2.437   1.480   1.494 -0.6145  0.1517 -0.4262
  130SOL    HW1  389   2.373   1.558   1.482 -1.2438 -0.7012 -0.4740
  130SOL    HW2  390   2.513   1.509   1.561  0.0402  1.2946 -0.3902
  131SOL     OW  391   2.992   2.601   2.769  0.2464 -0.4018 -0.4973
  131SOL    HW1  392   2.911   2.620   2.829  0.9209 -1.4649  0.2740
  131SOL    HW2  393   3.001   2.674   2.702  0.8405 -0.4950  0.3653
  132SOL     OW  394   0.036   1.544   0.424  0.4480 -0.0932  0.2907
  132SOL    HW1  395   3.097   1.519   0.335 -1.5132  1.4204 -1.8212
  132SOL    HW2  396   0.019   1.482   0.501 -2.1900  1.2474 -0.7391
  133SOL     OW  397   0.477   0.448   1.692  0.0555  0.2386 -0.0574
  133SOL    HW1  398   0.566   0.459   1.737  3.5297  0.4174  0.8677
  133SOL    HW2  399   0.401   0.463   1.760 -2.1622  0.3963 -0.1357
  134SOL     OW  400   0.378   1.781   2.883 -0.1291 -0.6074 -0.9538
  134SOL    HW1  401   0.311   1.794   2.811 -0.5795  0.7357  0.0275
  134SOL    HW2  402   0.442   1.857   2.892 -1.7006  0.4814 -0.5828
  135SOL     OW  403   1.553   0.579   1.893  0.3283  0.4471 -0.4870
  135SOL    HW1  404   1.587   0.675   1.878  3.0691  1.5220 -0.4931
  135SOL    HW2  405   1.462   0.581   1.947 -1.4602  1.5702  0.5531
  136SOL     OW  406   2.992   1.129   0.223  0.4897  0.7434  0.0344
  136SOL    HW1  407   3.051   1.059   0.177 -2.5038 -0.7533  2.1007
  136SOL    HW2  408   2.991   1.214   0.172  1.4826  0.2697  0.3687
  137SOL     OW  409   0.243   1.452   0.976  0.6730  0.0448  0.0976
  137SOL    HW1  410   0.158   1.407   0.941 -0.5187 -1.6175 -1.0923
  137SOL    HW2  411   0.294   1.506   0.903 -0.0620  0.2648 -0.1732
  138SOL     OW  412   2.334   0.745   1.442 -0.5675 -0.3246  0.0884
  138SOL    HW1  413   2.384   0.809   1.373 -2.3743  0.4771 -1.4617
  138SOL    HW2  414   2.386   0.659   1.447 -0.3944 -1.3654 -0.5533
  139SOL     OW  415   1.333   2.609   0.306  0.5986 -0.0523  0.1282
  139SOL    HW1  416   1.408   2.637   0.245  0.3216  0.0994  0.1952
  139SOL    HW2  417   1.240   2.602   0.262 -0.7050 -1.4427  2.2083
  140SOL     OW  418   1.374   1.642   1.265 -0.1108  0.2869 -0.4516
  140SOL    HW1  419   1.312   1.570   1.235 -0.3792  0.8510  0.3672
  140SOL    HW2  420   1.450   1.653   1.200 -1.4094 -0.8084 -2.8539
  141SOL     OW  421   1.378   2.180   0.420 -0.1113 -0.0662  0.2146
  141SOL    HW1  422   1.287   2.214   0.391  2.0881  0.2117 -2.1731
  141SOL    HW2  423   1.385   2.159   0.519 -1.1858  2.2111  1.1885
  142SOL     OW  424   1.026   0.447   0.589  0.5214  0.0511  0.4943
  142SOL    HW1  425   1.010   0.360   0.535 -0.4603 -3.7637 -2.9181
  142SOL    HW2  426   0.975   0.521   0.541 -1.0856 -1.9927 -1.5603
  143SOL     OW  427   0.771   1.873   2.897  0.7529  0.1879 -0.7661
  143SOL    HW1  428   0.854   1.931   2.890  0.6322 -1.1849 -0.5994
  143SOL    HW2  429   0.690   1.936   2.893 -1.0124  1.1596 -0.3931
  144SOL     OW  430   1.520   2.675   0.979 -0.7693 -0.4862 -0.0919
  144SOL    HW1  431   1.491   2.764   1.021  2.8310  0.1241 -1.5255
  144SOL    HW2  432   1.587   2.692   0.905  0.9913  0.9316  0.5585
  145SOL     OW  433   1.895   0.490   2.737  0.3526 -0.5778  0.3541
  145SOL    HW1  434   1.948   0.496   2.650 -0.9751 -1.4150 -2.2088
  145SOL    HW2  435   1.849   0.400   2.722  1.8771 -1.1544  1.6517
  146SOL     OW  436   0.107   2.798   0.707  0.1001  0.0126 -0.3633
  146SOL    HW1  437   0.047   2.872   0.677  1.1215 -1.3361 -0.2871
  146SOL    HW2  438   0.171   2.779   0.630 -2.0275  1.6348  1.7443
  147SOL     OW  439   2.216   0.156   1.924 -0.4128 -0.2224  0.2703
  147SOL    HW1  440   2.208   0.158   1.824 -1.3392 -1.3405  1.0297
  147SOL    HW2  441   2.118   0.153   1.959 -1.2691  0.4017 -1.1102
  148SOL     OW  442   1.181   0.204   1.980  0.3193  0.2684  0.4480
  148SOL    HW1  443   1.124   0.278   1.928 -2.6239  3.2013 -0.5314
  148SOL    HW2  444   1.124   0.182   2.065  0.0060 -0.0161 -1.0585
  149SOL     OW  445   1.575   0.429   2.149 -0.4617 -0.0099 -0.1004
  149SOL    HW1  446   1.510   0.354   2.128  2.4923 -0.6040  1.0527
  149SOL    HW2  447   1.584   0.483   2.061 -0.8292 -0.9753 -1.0150
  150SOL     OW  448   2.965   0.266   3.077 -0.9044  0.0870  0.0655
  150SOL    HW1  449   2.897   0.338   3.099 -1.1042  2.5515  0.7960
  150SOL    HW2  450   2.942   0.230   2.985 -1.4080  0.1549  1.7647
  151SOL     OW  451   0.769   1.648   0.285  0.0504  0.0373 -0.4248
  151SOL    HW1  452   0.734   1.710   0.209 -1.2403 -0.8049 -1.1739
  151SOL    HW2  453   0.850   1.687   0.334  0.1638 -2.1218 -0.1467
  152SOL     OW  454   2.971   0.358   0.581  0.3461  0.2129  0.2387
  152SOL    HW1  455   2.898   0.406   0.628  1.9293  3.2970 -1.3387
  152SOL    HW2  456   3.038   0.419   0.534 -0.3364 -0.7699 -2.0515
  153SOL     OW  457   2.543   0.557   1.569  0.8320 -0.1181 -0.1499
  153SOL    HW1  458   2.474   0.493   1.605  0.9447  2.0705  0.9366
  153SOL    HW2  459   2.574   0.611   1.648 -0.2494  0.3623 -0.8391
  154SOL     OW  460   1.675   0.116   2.068  0.1374 -0.1025 -0.3000
  154SOL    HW1  461   1.650   0.015   2.064 -0.4081  2.0388 -0.5552
  154SOL    HW2  462   1.613   0.168   2.004  2.1120  0.8993  0.5178
  155SOL     OW  463   0.278   1.869   0.926  0.5020 -0.1212 -0.0204
  155SOL    HW1  464   0.330   1.956   0.915 -0.5714 -2.0319  1.6067
  155SOL    HW2  465   0.312   1.811   1.001  0.0575 -1.5531  0.6310
  156SOL     OW  466   2.079   2.174   3.088 -0.4134  0.0130 -0.4502
  156SOL    HW1  467   2.093   2.199   2.990 -0.2114 -0.0442  1.4266
  156SOL    HW2  468   1.985   2.138   3.108 -0.8880 -0.7990 -2.8810
  157SOL     OW  469   1.032   0.484   0.231  0.1049 -0.4604  0.2654
  157SOL    HW1  470   0.990   0.550   0.294 -0.0144  2.1465  2.8797
  157SOL    HW2  471   1.129   0.504   0.212  2.5181 -1.9781  0.2153
  158SOL     OW  472   2.199   0.312   2.408  0.4463 -0.1487 -0.2928
  158SOL    HW1  473   2.279   0.307   2.342  2.6908 -1.0386  0.0343
  158SOL    HW2  474   2.160   0.218   2.415  1.3603 -2.3924 -1.9118
  159SOL     OW  475   3.006   0.182   0.377 -0.5363  0.2820 -0.4403
  159SOL    HW1  476   2.995   0.204   0.472  2.3371 -2.2431 -2.2593
  159SOL    HW2  477   0.003   0.176   0.362 -1.1374 -1.6336 -2.5080
  160SOL     OW  478   1.697   1.889   2.494  0.3276 -0.1729  0.3456
  160SOL    HW1  479   1.660   1.822   2.430 -0.0906  1.0990 -0.2431
  160SOL    HW2  480   1.795   1.870   2.500 -2.7754 -1.7521 -1.9565
  161SOL     OW  481   2.659   0.868   2.658 -0.1231 -0.0577 -1.0664
  161SOL    HW1  482   2.749   0.822   2.646  0.1891  0.2857  1.7297
  161SOL    HW2  483   2.579   0.822   2.613 -1.4920  2.5605  1.9563
  162SOL     OW  484   0.574   2.596   1.363 -0.0820  0.0428  0.1671
  162SOL    HW1  485   0.626   2.517   1.395  1.1277 -0.5958  4.1389
  162SOL    HW2  486   0.638   2.667   1.323  0.7416 -1.3853  1.9551
  163SOL     OW  487   2.345   0.435   2.622  0.8998  0.0129 -0.0840
  163SOL    HW1  488   2.308   0.395   2.708 -0.2179 -0.4565 -1.1762
  163SOL    HW2  489   2.289   0.407   2.543  3.2935 -0.8327  3.3064
  164SOL     OW  490   2.004   2.030   0.259  0.0672 -0.2018 -0.1523
  164SOL    HW1  491   2.075   2.035   0.189 -0.5298 -1.4930  0.1133
  164SOL    HW2  492   2.021   1.958   0.329 -2.1528 -0.7629 -2.9921
  165SOL     OW  493   2.767   0.252   1.481  0.4129  0.4222 -0.4108
  165SOL    HW1  494   2.752   0.290   1.575 -0.9220 -1.1734  2.8793
  165SOL    HW2  495   2.842   0.310   1.439 -2.5780  0.7894  2.0896
  166SOL     OW  496   2.360   1.084   0.026  0.4977 -0.1167  0.2890
  166SOL    HW1  497   2.337   1.141   3.051 -1.1559  1.0520 -2.2098
  166SOL    HW2  498   2.303   1.111   0.107  1.4662 -0.1920 -2.3012
  167SOL     OW  499   2.725   0.632   2.971  0.3134 -0.0777 -0.1701
  167SOL    HW1  500   2.695   0.587   2.885  1.0980  0.5951  0.2006
  167SOL    HW2  501   2.756   0.567   3.044  2.4123  0.8001  0.1881
  168SOL     OW  502   1.661   2.971   2.761 -0.2022  0.3567 -0.2461
  168SOL    HW1  503   1.730   2.948   2.829  0.0789 -0.8826  1.8182
  168SOL    HW2  504   1.645   3.076   2.763 -1.1187  5.0553  0.2573
  169SOL     OW  505   0.014   1.337   0.620  0.1394  0.0637  0.5164
  169SOL    HW1  506   0.048   1.411   0.685  0.9733  0.6875  2.0581
  169SOL    HW2  507   3.043   1.297   0.666  0.5578  2.1794 -0.6793
  170SOL     OW  508   2.954   0.433   1.393 -0.2546 -0.3647 -0.5422
  170SOL    HW1  509   3.043   0.477   1.374  1.8323  0.0868  1.4618
  170SOL    HW2  510   2.879   0.501   1.380  0.4238  0.3558  1.6831
  171SOL     OW  511   1.926   2.199   2.338 -0.6113  0.1781 -0.0130
  171SOL    HW1  512   1.911   2.109   2.292 -0.8138  1.0326 -0.0672
  171SOL    HW2  513   1.834   2.241   2.355 -1.3926 -0.2196 -1.3661
  172SOL     OW  514   0.059   2.727   1.332 -0.1603  0.4102  0.1036
  172SOL    HW1  515   0.063   2.826   1.359  0.3423  4.1908  1.9693
  172SOL    HW2  516   0.143   2.676   1.357  0.7731  1.9795 -0.0979
  173SOL     OW  517   1.046   0.877   0.174  0.0020 -0.8551 -0.6422
  173SOL    HW1  518   1.078   0.940   0.101  1.3757 -1.1021  0.2242
  173SOL    HW2  519   1.015   0.923   0.261 -0.3742 -0.8814  0.6583
  174SOL     OW  520   1.207   0.020   2.840 -0.3666  0.0714 -0.3438
  174SOL    HW1  521   1.259   3.055   2.886  0.7520 -1.7217 -0.5488
  174SOL    HW2  522   1.107   0.008   2.838  2.0393 -0.1205  0.4785
  175SOL     OW  523   1.892   1.765   0.665 -0.6243  0.2262  0.6061
  175SOL    HW1  524   1.824   1.806   0.724  0.3182  0.0830  0.2046
  175SOL    HW2  525   1.977   1.743   0.715  1.6445 -0.0551 -0.0426
  176SOL     OW  526   1.347   0.410   0.287 -0.4851  0.2132  0.3248
  176SOL    HW1  527   1.350   0.514   0.285  1.1684  0.9000  1.9648
  176SOL    HW2  528   1.376   0.364   0.203  0.5296  0.6895  2.2567
  177SOL     OW  529   0.869   1.414   0.217 -0.6266 -0.4578  0.3113
  177SOL    HW1  530   0.810   1.495   0.254 -3.2461  4.4997  1.9697
  177SOL    HW2  531   0.975   1.431   0.220 -2.2880 -1.0372  2.2304
  178SOL     OW  532   2.720   2.237   2.769  0.0803  0.4660  0.0582
  178SOL    HW1  533   2.713   2.170   2.850 -0.4818  0.5342  2.1670
  178SOL    HW2  534   2.675   2.194   2.691  4.7121  0.8303  2.5503
  179SOL     OW  535   2.685   0.012   2.908 -0.0574  0.1830  0.1526
  179SOL    HW1  536   2.623   3.037   2.894 -0.3413 -1.3352 -1.7170
  179SOL    HW2  537   2.638   0.098   2.910  0.9340 -2.7172  0.7926
  180SOL     OW  538   1.407   1.548   0.543  0.3624  0.0657 -0.0906
  180SOL    HW1  539   1.345   1.493   0.485 -0.0253 -2.1186  1.5983
  180SOL    HW2  540   1.359   1.624   0.587  2.1819 -4.3210  1.1516
  181SOL     OW  541   1.715   1.060   2.496 -0.3254  0.1291 -0.1002
  181SOL    HW1  542   1.719   0.963   2.515 -2.3345  3.5416 -0.5388
  181SOL    HW2  543   1.787   1.107   2.547 -0.7313  1.1957  2.8934
  182SOL     OW  544   2.498   2.930   2.739 -0.9895  0.5583  0.8907
  182SOL    HW1  545   2.495   3.033   2.726  0.8700  2.2518 -0.8435
  182SOL    HW2  546   2.528   2.884   2.653 -2.0296  0.6393 -0.2191
  183SOL     OW  547   2.004   0.496   2.481  0.0158  0.1088 -0.5390
  183SOL    HW1  548   1.944   0.485   2.404  1.2540  0.6502  2.6952
  183SOL    HW2  549   2.067   0.415   2.484  1.0261 -3.2949  0.1104
  184SOL     OW  550   0.101   1.459   1.558 -0.0517 -0.0586  0.2888
  184SOL    HW1  551   0.023   1.456   1.495  0.6950 -2.2696  0.1135
  184SOL    HW2  552   0.089   1.543   1.614  4.0549  0.3740  0.6123
  185SOL     OW  553   1.749   0.584   0.743 -0.4158 -0.1443  0.1205
  185SOL    HW1  554   1.850   0.588   0.730 -2.5214  0.0785  1.0184
  185SOL    HW2  555   1.716   0.489   0.750  1.8773  1.2545 -0.3250
  186SOL     OW  556   0.259   2.443   3.020 -0.2702 -0.3362  0.0063
  186SOL    HW1  557   0.193   2.519   3.012  4.2298 -0.6994  1.6276
  186SOL    HW2  558   0.230   2.358   2.969  3.9906  1.4241 -1.2178
  187SOL     OW  559   2.758   0.979   0.233 -0.1359  0.1331 -0.7932
  187SOL    HW1  560   2.837   1.043   0.237  1.0187 -2.2829 -3.3593
  187SOL    HW2  561   2.696   1.014   0.155  0.2028  2.4716 -4.3885
  188SOL     OW  562   2.810   1.575   1.427  0.4336  0.4059 -0.3977
  188SOL    HW1  563   2.852   1.486   1.447 -0.4045  0.9057 -0.0685
  188SOL    HW2  564   2.877   1.653   1.416  0.2732  1.7358 -1.7385
  189SOL     OW  565   2.528   0.556   2.760  0.1129 -0.0882 -0.3084
  189SOL    HW1  566   2.465   0.489   2.715 -0.0754 -0.0563 -1.9269
  189SOL    HW2  567   2.573   0.601   2.682  0.5225 -2.6393  1.7872
  190SOL     OW  568   1.577   1.426   2.185 -0.4281  0.1387 -0.3583
  190SOL    HW1  569   1.566   1.389   2.090  1.6161  0.2706 -2.4389
  190SOL    HW2  570   1.488   1.458   2.219  1.6622 -0.1779 -0.0334
  191SOL     OW  571   0.741   0.326   1.838 -0.1593 -0.1872 -0.4594
  191SOL    HW1  572   0.789   0.324   1.746  2.0865  0.5501 -2.8188
  191SOL    HW2  573   0.740   0.231   1.873  1.3065  0.0926  0.2936
  192SOL     OW  574   2.024   1.472   0.908  0.8162 -0.3766 -0.1874
  192SOL    HW1  575   1.991   1.389   0.852 -0.1382 -0.6721  2.2661
  192SOL    HW2  576   1.993   1.464   1.001  0.6477 -1.4815 -1.1044
  193SOL     OW  577   1.807   0.596   1.014  0.4113  0.5874  0.1539
  193SOL    HW1  578   1.793   0.690   1.052 -0.4876 -0.5044  0.6878
  193SOL    HW2  579   1.774   0.592   0.917 -1.0596  1.1203  1.3416
  194SOL     OW  580   0.579   2.066   1.448 -0.1810 -0.7203 -0.1762
  194SOL    HW1  581   0.609   2.162   1.439  0.1034 -0.5262 -0.4307
  194SOL    HW2  582   0.660   2.006   1.425 -0.4004  1.6371  0.6693
  195SOL     OW  583   1.879   0.143   3.073 -0.0211 -0.3141  0.0931
  195SOL    HW1  584   1.966   0.177   0.005  1.7466 -0.2252  0.6588
  195SOL    HW2  585   1.907   0.084   2.994  0.7049  0.0067  1.4200
  196SOL     OW  586   0.684   1.523   1.438  0.2098  0.3342  0.6114
  196SOL    HW1  587   0.711   1.585   1.512  0.3512 -3.2213  2.2186
  196SOL    HW2  588   0.724   1.430   1.451 -1.6716  0.0487  2.3626
  197SOL     OW  589   1.058   0.076   1.402  0.0384  0.3394  0.3636
  197SOL    HW1  590   1.129   0.033   1.340 -0.2404  0.2873 -0.1031
  197SOL    HW2  591   1.093   0.160   1.444  1.1511 -0.4371  1.5587
  198SOL     OW  592   0.569   1.060   1.214  0.2095 -0.5319  0.6998
  198SOL    HW1  593   0.594   1.096   1.299 -4.3478 -2.5407 -2.1874
  198SOL    HW2  594   0.645   1.060   1.144 -0.5962 -0.2713 -0.0852
  199SOL     OW  595   0.139   2.489   1.535  0.1827 -0.3872 -0.2553
  199SOL    HW1  596   0.167   2.396   1.512  0.8089 -1.1632  2.5943
  199SOL    HW2  597   0.187   2.557   1.476 -1.6410  1.4642  0.4577
  200SOL     OW  598   1.804   1.759   1.953 -0.7878  0.1242  0.7062
  200SOL    HW1  599   1.858   1.676   1.929 -1.3407 -2.8722 -2.1683
  200SOL    HW2  600   1.780   1.814   1.872  0.9731  0.4542 -0.5373
  201SOL     OW  601   0.418   1.697   2.265 -0.0502 -0.0341  0.4183
  201SOL    HW1  602   0.334   1.715   2.314 -1.7888 -0.1643 -1.0553
  201SOL    HW2  603   0.497   1.678   2.324  1.8542 -1.1002  2.1813
  202SOL     OW  604   1.697   0.574   0.072  0.0975  0.0093 -0.4641
  202SOL    HW1  605   1.728   0.504   0.002 -2.1953 -1.8574  0.5797
  202SOL    HW2  606   1.728   0.554   0.163 -1.7560  0.3615  0.1074
  203SOL     OW  607   1.284   2.730   1.889  0.3030  0.1591 -0.0369
  203SOL    HW1  608   1.227   2.670   1.943 -1.5295  2.1932  0.0962
  203SOL    HW2  609   1.267   2.724   1.788  0.3113 -1.8166 -1.6849
  204SOL     OW  610   0.664   2.060   1.913 -0.0672 -0.5573  0.0889
  204SOL    HW1  611   0.727   2.129   1.874  1.2570 -1.3809 -1.1798
  204SOL    HW2  612   0.601   2.032   1.839 -0.1335  0.8763 -0.1086
  205SOL     OW  613   1.621   1.853   2.159 -0.6082 -0.5471 -0.5450
  205SOL    HW1  614   1.675   1.813   2.083 -0.8205 -1.5036 -1.4318
  205SOL    HW2  615   1.608   1.780   2.231 -1.1790 -1.9971  0.9712
  206SOL     OW  616   3.107   1.045   2.373 -0.1209  0.0823  0.2977
  206SOL    HW1  617   3.085   0.986   2.289  0.7898 -0.4466  1.5890
  206SOL    HW2  618   0.095   1.066   2.374 -2.2887  0.9621  1.2086
  207SOL     OW  619   0.813   2.890   1.934  0.6644 -0.1058 -0.2033
  207SOL    HW1  620   0.719   2.870   1.901  1.6836  1.7148 -1.6308
  207SOL    HW2  621   0.844   2.818   1.995 -1.0842 -1.7164 -1.2756
  208SOL     OW  622   0.543   2.739   1.870 -0.1882  0.2961  0.6149
  208SOL    HW1  623   0.551   2.644   1.898 -0.9781  2.4164  0.1198
  208SOL    HW2  624   0.514   2.740   1.773 -0.6746  2.5012 -1.4152
  209SOL     OW  625   1.565   0.214   0.314  0.4201 -0.2046 -0.2019
  209SOL    HW1  626   1.553   0.137   0.381  1.6292 -2.6538 -0.2160
  209SOL    HW2  627   1.605   0.296   0.366  1.5377  1.5113  0.5786
  210SOL     OW  628   2.709   0.715   0.868 -0.7830  0.0078 -0.2178
  210SOL    HW1  629   2.801   0.674   0.859 -0.2932 -0.1417 -1.4911
  210SOL    HW2  630   2.644   0.656   0.819 -0.3651  1.5987 -1.9853
  211SOL     OW  631   0.435   0.604   1.449 -0.5571 -0.0196  0.4287
  211SOL    HW1  632   0.440   0.704   1.466  0.0911 -0.0102 -1.5879
  211SOL    HW2  633   0.455   0.547   1.535 -0.9438 -1.3859  0.4349
  212SOL     OW  634   1.685   1.710   1.328 -0.8188  0.4738 -0.4442
  212SOL    HW1  635   1.748   1.698   1.410 -1.0550 -1.1313  0.6007
  212SOL    HW2  636   1.641   1.799   1.321  1.9824 -0.0161  0.0769
  213SOL     OW  637   2.668   0.291   1.942  0.0605  0.0497 -0.8052
  213SOL    HW1  638   2.753   0.318   1.893  1.0472  1.2078  0.7692
  213SOL    HW2  639   2.699   0.243   2.030  0.6410 -0.7827  1.1452
  214SOL     OW  640   0.839   2.419   2.069 -0.3066  0.2993 -0.0395
  214SOL    HW1  641   0.864   2.518   2.077 -0.7210  3.1534 -1.6399
  214SOL    HW2  642   0.907   2.360   2.118  1.6097  1.7109 -0.1218
  215SOL     OW  643   2.654   1.570   1.634  0.6207 -0.1028 -0.0760
  215SOL    HW1  644   2.679   1.641   1.701  0.9708  1.3187  1.8799
  215SOL    HW2  645   2.708   1.582   1.549  0.1280 -0.7039 -0.4895
  216SOL     OW  646   0.599   0.719   1.893 -0.1649  1.0005 -0.5964
  216SOL    HW1  647   0.648   0.802   1.927 -1.0098  0.4848 -2.3668
  216SOL    HW2  648   0.513   0.740   1.844  0.5653  1.2226 -1.3450
  217SOL     OW  649   2.715   0.376   0.756 -0.1111 -0.0169 -0.1685
  217SOL    HW1  650   2.773   0.341   0.832  0.7910 -0.2761 -1.1341
  217SOL    HW2  651   2.650   0.453   0.778  2.8653  0.5062  3.1002
  218SOL     OW  652   1.578   1.947   1.261  0.2975 -0.5917  0.0596
  218SOL    HW1  653   1.565   1.995   1.174 -0.8952 -0.2605 -2.5701
  218SOL    HW2  654   1.490   1.937   1.308  2.3754 -0.1150  0.8681
  219SOL     OW  655   1.796   3.022   0.540 -0.0320 -0.4384 -0.2502
  219SOL    HW1  656   1.792   3.010   0.643  0.7330  0.5465 -1.5052
  219SOL    HW2  657   1.810   2.934   0.496  0.0090  1.8540 -0.6464
  220SOL     OW  658   1.847   2.401   0.540  0.4385  0.3516  0.3599
  220SOL    HW1  659   1.933   2.394   0.485 -3.5013  1.5264 -1.2029
  220SOL    HW2  660   1.838   2.495   0.578  0.3826 -0.7892 -1.4933
  221SOL     OW  661   2.835   1.452   0.402  0.0858  0.1619 -0.2618
  221SOL    HW1  662   2.764   1.396   0.352  2.1661 -0.2462 -1.4943
  221SOL    HW2  663   2.914   1.471   0.343 -2.6363  0.6181 -0.3112
  222SOL     OW  664   0.641   2.298   0.956 -0.1517 -0.0468 -0.2798
  222SOL    HW1  665   0.674   2.319   0.861 -1.6505  1.4562 -0.9061
  222SOL    HW2  666   0.719   2.297   1.021 -1.6960 -0.6671 -0.1013
  223SOL     OW  667   1.279   0.154   0.370  0.0307 -0.0454 -0.1535
  223SOL    HW1  668   1.309   0.084   0.303  0.4378 -0.7995 -2.3434
  223SOL    HW2  669   1.315   0.249   0.348  2.1808  0.4197  0.8986
  224SOL     OW  670   2.978   1.177   0.816  0.1210  0.1880  0.1682
  224SOL    HW1  671   2.881   1.200   0.806  1.9161  0.6591  2.2290
  224SOL    HW2  672   2.995   1.077   0.824 -0.1271  1.1067 -0.0096
  225SOL     OW  673   0.355   1.401   1.407 -0.2683 -0.5148 -0.1589
  225SOL    HW1  674   0.404   1.341   1.474 -3.4144 -1.5017 -2.3427
  225SOL    HW2  675   0.273   1.448   1.439  0.2449  0.2544 -3.1984
  226SOL     OW  676   0.394   2.956   0.791 -0.1546  0.3760  0.2089
  226SOL    HW1  677   0.307   2.910   0.821 -4.4488 -0.0968  2.3811
  226SOL    HW2  678   0.450   2.988   0.869  0.0856 -2.3640 -1.2567
  227SOL     OW  679   1.369   1.583   1.773  0.0159 -0.0866 -0.1110
  227SOL    HW1  680   1.383   1.602   1.673 -1.6657 -2.5793 -2.5098
  227SOL    HW2  681   1.398   1.661   1.833  2.6985  0.6679 -2.2980
  228SOL     OW  682   0.807   0.098   1.639  0.4572  0.3935  0.0471
  228SOL    HW1  683   0.837   0.191   1.606  2.1717  0.1097  1.3244
  228SOL    HW2  684   0.880   0.034   1.644 -1.8895  0.0852 -0.2547
  229SOL     OW  685   2.884   0.716   2.581  0.1543  0.4251  0.3105
  229SOL    HW1  686   2.897   0.672   2.491 -0.1884  0.8476 -1.1771
  229SOL    HW2  687   2.939   0.672   2.654  0.9665 -2.6468 -1.6098
  230SOL     OW  688   0.259   0.786   1.003 -0.7394  0.1469 -0.5007
  230SOL    HW1  689   0.265   0.871   0.948  2.0773  1.7572  1.6659
  230SOL    HW2  690   0.230   0.809   1.100 -0.5886  1.0609  1.3503
  231SOL     OW  691   1.201   3.059   1.864 -0.5171  0.1636  0.3664
  231SOL    HW1  692   1.194   0.040   1.910  1.5702 -1.8915  0.4559
  231SOL    HW2  693   1.275   3.002   1.903  1.6492  0.5748  1.3087
  232SOL     OW  694   2.924   1.994   0.125  0.3420  0.2525 -0.4791
  232SOL    HW1  695   2.917   1.984   0.229 -0.8666 -2.5448  1.8665
  232SOL    HW2  696   2.838   2.031   0.088  1.8179 -1.5457  0.8201
  233SOL     OW  697   1.292   2.544   2.923 -0.1948  0.2421  0.0734
  233SOL    HW1  698   1.304   2.522   2.825  2.4647  0.6672  0.2402
  233SOL    HW2  699   1.380   2.586   2.952  2.7240  1.6725 -1.5319
  234SOL     OW  700   0.466   1.232   1.588 -0.1152  0.3535  0.5892
  234SOL    HW1  701   0.532   1.240   1.511 -2.5741  0.8272  1.5787
  234SOL    HW2  702   0.523   1.203   1.669 -1.1440  2.2387 -0.8219
  235SOL     OW  703   0.000   2.289   2.330  0.0486  0.2017 -0.3567
  235SOL    HW1  704   0.099   2.264   2.329 -1.0674  1.6394 -3.0238
  235SOL    HW2  705   3.084   2.333   2.418 -1.2154 -2.1798  0.8654
  236SOL     OW  706   1.690   2.003   2.790 -0.2187 -0.1655  0.2151
  236SOL    HW1  707   1.685   1.948   2.707  0.2972  1.8845 -1.1711
  236SOL    HW2  708   1.674   2.099   2.765 -0.1187 -2.2970  1.1370
  237SOL     OW  709   1.555   0.836   0.960 -0.4446 -0.1359  0.3920
  237SOL    HW1  710   1.547   0.759   0.889 -0.2996 -1.1262 -2.7351
  237SOL    HW2  711   1.490   0.917   0.949  0.5480 -0.5126  1.0681
  238SOL     OW  712   1.309   2.890   2.125  0.2132 -0.1215  0.6412
  238SOL    HW1  713   1.296   2.833   2.039  1.5340  0.3494  1.4652
  238SOL    HW2  714   1.222   2.939   2.148  1.2557  2.3898  0.2517
  239SOL     OW  715   1.138   2.566   2.030  0.8641  0.2666  0.2130
  239SOL    HW1  716   1.192   2.523   2.102 -2.2773 -1.1866 -0.4395
  239SOL    HW2  717   1.130   2.503   1.949  2.6152  1.2158  1.4841
  240SOL     OW  718   2.164   0.047   0.683  0.1428  0.0831  0.0071
  240SOL    HW1  719   2.079   0.096   0.655  1.8857  0.9410  0.9179
  240SOL    HW2  720   2.243   0.112   0.690  1.9972  0.5970  0.6489
  241SOL     OW  721   1.165   1.493   2.795 -0.1186  0.4062  0.0197
  241SOL    HW1  722   1.134   1.472   2.885  0.1926 -1.4788  1.4502
  241SOL    HW2  723   1.260   1.523   2.811 -0.5972  0.5313  0.7834
  242SOL     OW  724   2.679   0.891   2.940 -0.3597 -0.1417 -0.1976
  242SOL    HW1  725   2.700   0.792   2.952 -0.8161  0.3187  0.4874
  242SOL    HW2  726   2.658   0.902   2.841 -0.7954 -1.1221  1.3136
  243SOL     OW  727   0.889   0.381   1.607  0.5254  0.2273 -0.6717
  243SOL    HW1  728   0.853   0.476   1.628  0.0028  0.7415  0.2349
  243SOL    HW2  729   0.962   0.388   1.543 -1.1416  1.0759  1.1208
  244SOL     OW  730   1.321   2.915   2.970  0.1431 -0.3534  0.5079
  244SOL    HW1  731   1.274   2.851   3.032 -1.1457  4.0188  1.1139
  244SOL    HW2  732   1.375   2.982   3.025  0.2207 -1.0187  1.2846
  245SOL     OW  733   1.551   2.727   0.171  0.1794  0.0809  0.6444
  245SOL    HW1  734   1.607   2.648   0.192  1.0118 -0.6847 -0.9841
  245SOL    HW2  735   1.610   2.809   0.165 -0.9594  1.6466 -3.9841
  246SOL     OW  736   0.812   0.966   1.817  0.1636  0.2796  0.3508
  246SOL    HW1  737   0.756   1.044   1.846 -2.5022 -0.6278 -0.5599
  246SOL    HW2  738   0.899   0.973   1.871  1.6045  0.7809  1.5331
  247SOL     OW  739   3.058   0.330   2.320 -0.2521  0.4723 -0.4066
  247SOL    HW1  740   3.077   0.321   2.220  1.0832 -3.3448  0.6631
  247SOL    HW2  741   0.037   0.356   2.366 -0.6034 -0.3467  1.8185
  248SOL     OW  742   3.089   1.359   2.069 -0.1389  0.1268 -0.0876
  248SOL    HW1  743   2.998   1.336   2.040 -1.2392  0.1900  0.5125
  248SOL    HW2  744   3.092   1.362   2.172 -0.7777 -0.4090  1.1549
  249SOL     OW  745   0.001   0.405   0.245  0.3230  0.2783 -0.0671
  249SOL    HW1  746   0.069   0.343   0.200  0.9405 -1.1183  0.5944
  249SOL    HW2  747   3.061   0.355   0.320  3.7308 -1.0366  0.9470
  250SOL     OW  748   2.736   0.419   0.044 -0.1037  0.4067  0.0300
  250SOL    HW1  749   2.741   0.447   0.143  1.0799  1.8339 -1.8064
  250SOL    HW2  750   2.652   0.370   0.024  5.2352  0.4432  0.9216
  251SOL     OW  751   0.984   1.760   1.913 -0.3842 -0.3092 -0.3077
  251SOL    HW1  752   0.886   1.784   1.940 -0.5784 -0.3451 -0.0261
  251SOL    HW2  753   1.025   1.842   1.862  1.1038  0.1692 -1.1722
  252SOL     OW  754   2.048   1.646   1.171  0.5763  0.0005 -0.1603
  252SOL    HW1  755   2.120   1.626   1.106 -0.2458 -0.0602  0.4535
  252SOL    HW2  756   2.038   1.584   1.250 -1.8962  2.7423 -0.5133
  253SOL     OW  757   1.684   2.287   2.388  0.3116  0.4132 -0.4654
  253SOL    HW1  758   1.671   2.376   2.344 -0.1994 -0.8919  0.0645
  253SOL    HW2  759   1.644   2.213   2.330  2.8252  0.6154  2.9723
  254SOL     OW  760   0.511   2.271   2.033  0.0863  0.0683  0.0508
  254SOL    HW1  761   0.553   2.199   1.974  0.0314 -3.8138 -0.8516
  254SOL    HW2  762   0.546   2.364   2.013 -1.2575  0.7713  1.7628
  255SOL     OW  763   1.109   0.227   1.008  0.7960  0.3516  0.7572
  255SOL    HW1  764   1.055   0.308   0.975 -0.3101  0.0627  1.2582
  255SOL    HW2  765   1.047   0.147   0.990 -1.3632 -1.6967  2.8759
  256SOL     OW  766   2.174   2.061   1.442 -0.1201 -0.2441 -0.6693
  256SOL    HW1  767   2.199   2.025   1.351 -0.9759  4.8002 -0.6382
  256SOL    HW2  768   2.092   2.009   1.477 -4.0995 -3.7266  0.4316
  257SOL     OW  769   0.593   2.292   2.777 -0.1950  0.7066 -0.7114
  257SOL    HW1  770   0.598   2.384   2.816  2.8744 -0.0164 -1.3744
  257SOL    HW2  771   0.671   2.238   2.820  0.0086 -0.9594  0.7733
  258SOL     OW  772   0.497   1.036   2.217  0.2406 -0.2052  0.2898
  258SOL    HW1  773   0.449   0.955   2.242  2.6431  3.0860 -1.3821
  258SOL    HW2  774   0.537   1.079   2.298 -0.9280 -2.1345 -2.6963
  259SOL     OW  775   0.657   1.317   2.035 -0.5406 -0.5352 -0.1552
  259SOL    HW1  776   0.622   1.359   2.120  0.0963 -0.5123 -0.3062
  259SOL    HW2  777   0.705   1.393   1.978 -0.9238 -0.5019 -1.9931
  260SOL     OW  778   2.061   0.813   0.906 -0.6254  0.1051 -0.3468
  260SOL    HW1  779   2.135   0.809   0.980  0.5259 -1.9862  1.1987
  260SOL    HW2  780   2.072   0.897   0.848  2.2066  1.9795  0.2541
  261SOL     OW  781   0.884   0.080   0.879 -0.4946  0.1764 -0.3514
  261SOL    HW1  782   0.839   0.156   0.835 -0.6057 -2.2651 -0.3771
  261SOL    HW2  783   0.915   0.019   0.804 -0.1884 -0.5222 -0.8068
  262SOL     OW  784   1.977   2.642   2.410  0.2139 -0.8323  0.0565
  262SOL    HW1  785   1.942   2.598   2.494 -0.9005 -2.9938  0.9030
  262SOL    HW2  786   2.073   2.668   2.418 -1.8334 -2.0192  1.6155
  263SOL     OW  787   0.451   1.651   0.004 -0.0333 -0.2888  0.1675
  263SOL    HW1  788   0.444   1.697   3.021  1.7412 -2.8455  1.7540
  263SOL    HW2  789   0.416   1.558   3.101 -0.5465  1.0322 -0.3342
  264SOL     OW  790   0.337   1.702   1.344 -0.1557 -0.6851  0.5964
  264SOL    HW1  791   0.424   1.692   1.294  0.1040 -0.4458  2.5721
  264SOL    HW2  792   0.286   1.779   1.294 -2.1707  1.9072 -2.2115
  265SOL     OW  793   0.865   0.863   0.626 -0.2386 -0.2078  0.4330
  265SOL    HW1  794   0.764   0.848   0.631  0.0296  0.0135  1.9702
  265SOL    HW2  795   0.897   0.848   0.720  0.2917  1.7771 -4.7639
  266SOL     OW  796   1.374   1.930   0.057  0.2849 -0.4769 -0.3141
  266SOL    HW1  797   1.423   2.006   0.107 -0.8049  1.2715  2.3330
  266SOL    HW2  798   1.412   1.910   3.074  0.7007 -1.0317  3.7085
  267SOL     OW  799   0.429   0.584   2.633  0.0373  0.2419  0.3631
  267SOL    HW1  800   0.386   0.547   2.717  1.1003 -0.3433 -0.4928
  267SOL    HW2  801   0.454   0.497   2.575  2.4734 -1.7224  0.7849
  268SOL     OW  802   0.779   0.677   2.785  0.3715 -0.2361 -0.2629
  268SOL    HW1  803   0.831   0.632   2.710 -2.3675 -0.5549 -0.9999
  268SOL    HW2  804   0.835   0.730   2.850 -0.2617 -1.7635 -0.9856
  269SOL     OW  805   1.759   2.968   2.474 -0.0890 -0.2207  0.0406
  269SOL    HW1  806   1.731   3.059   2.436  0.5397 -0.8107 -0.5701
  269SOL    HW2  807   1.756   2.972   2.573  0.1872  0.0186 -0.6451
  270SOL     OW  808   0.728   0.975   2.651  0.1060 -0.3511 -0.3405
  270SOL    HW1  809   0.805   0.917   2.622 -1.0278  0.2647  0.2122
  270SOL    HW2  810   0.655   0.928   2.701  0.3051 -0.9435  0.2069
  271SOL     OW  811   0.079   0.656   0.175 -0.3641  0.1762  0.1971
  271SOL    HW1  812   0.159   0.671   0.234  1.3785  0.6979 -0.5210
  271SOL    HW2  813   0.026   0.569   0.206 -0.9409 -1.8265  1.3968
  272SOL     OW  814   2.213   1.133   2.420  0.0277 -0.6116 -0.3733
  272SOL    HW1  815   2.139   1.095   2.365 -0.6902  2.5085  2.1348
  272SOL    HW2  816   2.290   1.071   2.427 -0.1945  2.1156  2.1012
  273SOL     OW  817   0.007   0.299   2.046  0.3014 -0.0338  0.1373
  273SOL    HW1  818   0.096   0.287   1.999 -1.2351  0.4498 -1.5403
  273SOL    HW2  819   3.051   0.220   2.034  0.6861 -1.4211  0.3431
  274SOL     OW  820   2.943   0.095   1.980 -0.1822 -0.5862 -0.0429
  274SOL    HW1  821   3.011   0.106   1.901  0.8052 -0.0988 -0.9299
  274SOL    HW2  822   2.866   0.038   1.945 -0.1411 -2.0069  0.2473
  275SOL     OW  823   1.871   1.126   0.401 -0.1662  0.1181  0.3897
  275SOL    HW1  824   1.946   1.068   0.358  1.7505 -0.9444 -0.5596
  275SOL    HW2  825   1.832   1.194   0.334 -1.1595  0.5907  1.1023
  276SOL     OW  826   0.284   1.043   2.882 -0.6765 -0.3654  0.1797
  276SOL    HW1  827   0.384   1.038   2.910 -0.1923 -0.0645  0.2551
  276SOL    HW2  828   0.266   1.006   2.788 -2.0075  0.6673  0.5112
  277SOL     OW  829   1.799   2.887   2.231 -0.2909  0.5764  0.5692
  277SOL    HW1  830   1.793   2.784   2.214 -1.0282 -1.9897  0.6846
  277SOL    HW2  831   1.776   2.901   2.327  0.0668 -0.1732 -3.3473
  278SOL     OW  832   1.752   0.174   1.534  0.6341  0.0266  0.0239
  278SOL    HW1  833   1.811   0.162   1.618  3.9307 -0.7199  2.9184
  278SOL    HW2  834   1.656   0.143   1.549  0.5704 -0.9732 -3.1430
  279SOL     OW  835   1.407   1.350   2.973 -0.1039  0.4938  0.8523
  279SOL    HW1  836   1.453   1.406   2.901 -1.2876  0.1474  0.4645
  279SOL    HW2  837   1.435   1.250   2.968 -0.0901 -0.4948  0.4932
  280SOL     OW  838   0.771   1.156   0.278  0.3646 -0.3281 -0.1399
  280SOL    HW1  839   0.794   1.252   0.288 -0.2167  0.7302  1.6825
  280SOL    HW2  840   0.849   1.102   0.311 -0.1350 -1.1196  0.7558
  281SOL     OW  841   0.220   3.107   1.515 -0.4172 -0.3362 -0.1735
  281SOL    HW1  842   0.230   3.062   1.606  0.1115 -0.7414 -0.4669
  281SOL    HW2  843   0.250   0.094   1.515 -0.1725 -1.1917 -3.0641
  282SOL     OW  844   3.063   2.340   0.811  0.1779  0.3268 -0.6107
  282SOL    HW1  845   3.053   2.437   0.783 -1.4928 -0.6983 -0.9154
  282SOL    HW2  846   0.050   2.308   0.837  2.2986 -0.2543  2.2153
  283SOL     OW  847   1.377   2.199   2.166  0.5823  0.1618  0.7229
  283SOL    HW1  848   1.341   2.290   2.201  0.6322  2.8918 -0.0239
  283SOL    HW2  849   1.479   2.201   2.159 -0.3972 -2.0158 -2.8706
  284SOL     OW  850   2.366   0.710   0.562 -0.2929 -0.2729  0.7327
  284SOL    HW1  851   2.362   0.618   0.519 -0.0800 -1.3666 -1.5401
  284SOL    HW2  852   2.397   0.780   0.493 -0.0874 -1.8450 -2.1484
  285SOL     OW  853   2.984   2.751   2.537 -0.3238  0.4064  0.2174
  285SOL    HW1  854   2.994   2.704   2.447 -0.7077  0.9940 -1.8906
  285SOL    HW2  855   3.029   2.845   2.533 -2.4939  1.0087 -0.4481
  286SOL     OW  856   2.044   2.590   1.179 -0.0465 -0.3746  0.4701
  286SOL    HW1  857   2.146   2.579   1.170  2.9688  1.8102  1.0701
  286SOL    HW2  858   1.994   2.513   1.224 -1.4742  2.2399 -0.4427
  287SOL     OW  859   0.726   1.359   1.070 -0.2681  0.2252 -0.1692
  287SOL    HW1  860   0.744   1.397   0.977 -0.3908  1.9476 -2.0192
  287SOL    HW2  861   0.626   1.375   1.091 -3.8116  0.6281 -1.1111
  288SOL     OW  862   1.771   2.560   0.251 -0.3142 -0.4557 -0.1178
  288SOL    HW1  863   1.787   2.489   0.321 -2.3360  0.7344 -1.0249
  288SOL    HW2  864   1.787   2.523   0.159  0.0281  0.4020  3.6937
  289SOL     OW  865   0.425   1.950   2.519 -0.2218 -0.3419 -0.7728
  289SOL    HW1  866   0.408   2.040   2.564 -0.7718 -0.7333 -0.3002
  289SOL    HW2  867   0.504   1.956   2.452 -0.2551  0.8398 -1.3535
  290SOL     OW  868   1.586   2.072   0.941  0.2868 -0.1895  0.1719
  290SOL    HW1  869   1.627   2.156   0.984  1.1272  1.1551 -0.6988
  290SOL    HW2  870   1.486   2.085   0.943  2.6617  0.4218  0.2140
  291SOL     OW  871   1.761   1.814   3.104 -0.2957 -0.4593  0.7428
  291SOL    HW1  872   1.858   1.789   3.078  1.7025 -0.9544 -0.1087
  291SOL    HW2  873   1.703   1.733   3.085  1.7834  0.9309  1.0102
  292SOL     OW  874   1.516   1.653   1.023 -0.1138 -0.5544  0.8603
  292SOL    HW1  875   1.465   1.704   0.948 -1.5965  0.5173  1.4480
  292SOL    HW2  876   1.618   1.663   1.009 -0.5956  2.8102  0.7437
  293SOL     OW  877   1.787   2.972   0.806 -0.3297  0.0623 -0.1162
  293SOL    HW1  878   1.883   2.999   0.834 -0.5699 -0.0869  1.0740
  293SOL    HW2  879   1.777   2.871   0.812  0.1182 -0.4192  1.0839
  294SOL     OW  880   3.009   1.343   2.605  0.1901  0.2408  0.2407
  294SOL    HW1  881   2.963   1.352   2.696 -0.3527 -2.6779 -0.0068
  294SOL    HW2  882   2.959   1.269   2.548  0.1299 -0.6701 -2.1293
  295SOL     OW  883   1.366   2.226   2.802 -0.0825 -0.3404 -0.3783
  295SOL    HW1  884   1.382   2.307   2.741  1.7506  1.1038  0.2386
  295SOL    HW2  885   1.396   2.236   2.896  0.2715  0.5569 -4.4612
  296SOL     OW  886   1.836   1.470   2.186 -0.0926  0.8493 -0.0623
  296SOL    HW1  887   1.887   1.392   2.142  1.4813  0.4490  1.1347
  296SOL    HW2  888   1.738   1.446   2.207  0.3163 -0.6884 -1.5458
  297SOL     OW  889   2.961   0.578   2.340  0.3843  0.0380 -0.2579
  297SOL    HW1  890   3.002   0.487   2.327  0.3428 -2.3444 -2.6972
  297SOL    HW2  891   2.901   0.611   2.261 -0.9930  1.2861 -2.1293
  298SOL     OW  892   1.277   2.428   2.250  0.0395 -0.2819 -0.7243
  298SOL    HW1  893   1.284   2.531   2.256  1.2767 -0.1182 -1.8415
  298SOL    HW2  894   1.233   2.386   2.333 -0.1397 -0.5467 -0.6580
  299SOL     OW  895   0.831   2.728   2.924  0.2818  0.0247  0.0847
  299SOL    HW1  896   0.765   2.783   2.876  1.3277 -1.7231  4.2661
  299SOL    HW2  897   0.885   2.784   2.986 -1.2783  0.5721  0.4293
  300SOL     OW  898   3.056   0.609   2.823 -0.3565  0.6290 -0.0230
  300SOL    HW1  899   3.087   0.567   2.910  1.2087 -0.6749  0.6126
  300SOL    HW2  900   3.067   0.711   2.824  2.5751  1.4501 -1.1587
  301SOL     OW  901   1.789   1.184   1.614 -0.0542 -0.1830  0.5132
  301SOL    HW1  902   1.737   1.123   1.553  0.8553 -0.7836 -0.4745
  301SOL    HW2  903   1.755   1.172   1.711 -0.2102  1.6144 -0.4422
  302SOL     OW  904   2.523   1.942   2.675 -0.4467  0.2963 -0.1301
  302SOL    HW1  905   2.544   1.949   2.575 -1.5973 -2.4434 -0.6112
  302SOL    HW2  906   2.456   1.864   2.690 -3.0624 -1.5353  1.4679
  303SOL     OW  907   0.177   0.050   2.259 -0.1538 -0.0491 -0.4060
  303SOL    HW1  908   0.268   0.080   2.300  4.2054  1.2385  0.0239
  303SOL    HW2  909   0.113   0.125   2.253  0.2675  2.7346  0.4871
  304SOL     OW  910   2.743   0.611   1.408  0.0485 -0.0249  0.0452
  304SOL    HW1  911   2.704   0.660   1.330 -0.5129 -1.0820  0.1720
  304SOL    HW2  912   2.678   0.584   1.481  1.4675  1.0315  1.1020
  305SOL     OW  913   0.050   0.032   1.768 -0.0990  0.6061 -0.4892
  305SOL    HW1  914   0.047   3.040   1.794  3.1210  0.2288  1.3404
  305SOL    HW2  915   3.083   0.041   1.703  1.5981  1.6106  0.0871
  306SOL     OW  916   2.941   1.360   1.519 -0.0400  0.0680  0.2082
  306SOL    HW1  917   2.916   1.332   1.615  1.4221  0.8332  2.4992
  306SOL    HW2  918   2.974   1.277   1.465  1.9076 -1.8617 -0.8492
  307SOL     OW  919   2.122   0.383   1.340 -0.1163 -0.0628 -0.3219
  307SOL    HW1  920   2.107   0.441   1.423  1.4326  0.7099 -0.9435
  307SOL    HW2  921   2.098   0.432   1.253 -0.8380  0.0690  0.4274
  308SOL     OW  922   0.166   1.933   1.259 -0.1055  0.7428  0.1378
  308SOL    HW1  923   0.084   1.938   1.199 -0.3574  0.3687 -0.3365
  308SOL    HW2  924   0.141   1.992   1.339  0.2505  2.0680 -0.7414
  309SOL     OW  925   2.291   1.753   1.507 -0.0885  0.3960  0.7946
  309SOL    HW1  926   2.327   1.796   1.422  0.5123 -0.6019 -0.4071
  309SOL    HW2  927   2.279   1.814   1.590 -0.9312  0.0733  1.8730
  310SOL     OW  928   2.755   1.725   0.261  0.0669  0.4777  0.2204
  310SOL    HW1  929   2.784   1.815   0.291 -0.4658 -0.1093 -0.0131
  310SOL    HW2  930   2.810   1.656   0.311  2.0444  0.2260 -0.9189
  311SOL     OW  931   2.193   1.400   2.513 -0.0632 -0.3393  0.0107
  311SOL    HW1  932   2.197   1.307   2.475  1.4620  1.7880  1.9012
  311SOL    HW2  933   2.175   1.402   2.614 -2.0353 -0.7815  1.7882
  312SOL     OW  934   1.826   2.151   1.223 -0.7106 -0.2099  0.1792
  312SOL    HW1  935   1.780   2.131   1.309 -0.6576  2.0946 -0.7080
  312SOL    HW2  936   1.895   2.080   1.199  0.8687 -2.0079 -0.0757
  313SOL     OW  937   0.244   2.449   1.163 -0.3689 -0.4977 -0.8258
  313SOL    HW1  938   0.306   2.387   1.113 -2.4768 -0.6176 -0.6129
  313SOL    HW2  939   0.147   2.441   1.135 -0.9348 -1.4206  1.0919
  314SOL     OW  940   1.174   1.822   1.585 -0.5554  0.0651  0.0163
  314SOL    HW1  941   1.098   1.827   1.518  1.1649 -1.6162  0.1295
  314SOL    HW2  942   1.161   1.886   1.665 -0.3548 -0.1598 -1.9369
  315SOL     OW  943   0.424   2.957   2.345  0.7508 -0.4711  0.0556
  315SOL    HW1  944   0.490   2.881   2.349  3.5679  2.2544  0.1666
  315SOL    HW2  945   0.366   2.956   2.259  0.0438  0.6072  0.8078
  316SOL     OW  946   2.910   1.891   0.738  0.3629 -0.1549  0.0903
  316SOL    HW1  947   3.006   1.866   0.732 -0.5326 -0.4428  0.5419
  316SOL    HW2  948   2.860   1.818   0.793  0.6457 -1.3525  0.7812
  317SOL     OW  949   2.029   0.480   0.200  0.7802  0.4008 -0.7207
  317SOL    HW1  950   1.943   0.489   0.257 -1.4251  0.0590  0.4787
  317SOL    HW2  951   2.081   0.566   0.190  0.1626  1.0760  2.1899
  318SOL     OW  952   2.881   2.462   0.206 -0.2276  0.2888  0.2164
  318SOL    HW1  953   2.862   2.558   0.182 -0.1295 -1.5269 -1.1985
  318SOL    HW2  954   2.884   2.446   0.307  0.9310  0.3528  1.0322
  319SOL     OW  955   1.295   1.728   0.220  0.0202 -0.1707  0.0338
  319SOL    HW1  956   1.335   1.789   0.151 -0.4629  0.8338 -0.1002
  319SOL    HW2  957   1.306   1.770   0.311  1.1463 -1.5375  0.9432
  320SOL     OW  958   0.603   2.729   2.698  0.2761  0.1378 -0.4314
  320SOL    HW1  959   0.623   2.658   2.769 -1.2710  1.2438 -0.9107
  320SOL    HW2  960   0.677   2.727   2.626 -0.2853 -2.7166  0.1772
  321SOL     OW  961   1.019   0.026   0.114 -0.3280 -0.2902  0.4262
  321SOL    HW1  962   0.961   0.065   0.190  1.4658 -0.6652 -1.9329
  321SOL    HW2  963   1.105   3.084   0.155 -1.1407 -2.4677  2.6041
  322SOL     OW  964   2.249   1.101   2.064 -0.0140 -0.1822  0.8312
  322SOL    HW1  965   2.162   1.087   2.013  0.2328 -0.7869 -0.6328
  322SOL    HW2  966   2.286   1.011   2.092 -0.6072 -0.2747  1.4201
  323SOL     OW  967   2.804   0.820   0.578  0.1120 -0.1321  0.0898
  323SOL    HW1  968   2.846   0.755   0.645  0.5241 -0.1840 -0.0798
  323SOL    HW2  969   2.842   0.800   0.489  1.5377  2.1438  0.8843
  324SOL     OW  970   0.198   0.455   2.390 -0.4205  0.1697 -0.1338
  324SOL    HW1  971   0.165   0.533   2.446 -0.9824 -1.6662 -1.7617
  324SOL    HW2  972   0.262   0.495   2.318 -0.3800 -0.1449 -0.1027
  325SOL     OW  973   1.088   3.033   2.208 -0.0090 -0.3228  0.4650
  325SOL    HW1  974   1.050   0.016   2.174 -0.0467  2.2955  0.1396
  325SOL    HW2  975   1.110   3.036   2.309  1.0795  1.0748  2.6796
  326SOL     OW  976   2.383   2.849   1.224  0.4449  0.2261 -0.6280
  326SOL    HW1  977   2.348   2.872   1.133  1.6391  3.2676  1.9257
  326SOL    HW2  978   2.316   2.870   1.298  0.3190 -0.2807 -0.1665
  327SOL     OW  979   1.884   0.812   0.022 -0.2625  0.2240  0.4715
  327SOL    HW1  980   1.903   0.808   3.029 -0.8200  0.5125 -0.3805
  327SOL    HW2  981   1.821   0.738   0.054 -0.0445 -0.1682  0.2816
  328SOL     OW  982   2.833   1.635   2.066 -0.6881  0.4587  0.2670
  328SOL    HW1  983   2.928   1.665   2.042 -0.6533 -0.0241 -1.1384
  328SOL    HW2  984   2.841   1.606   2.162  1.6554 -0.7921  1.3757
  329SOL     OW  985   1.854   2.770   1.777 -0.3913 -0.4623  0.5107
  329SOL    HW1  986   1.813   2.679   1.802 -1.1555 -1.2034 -0.2957
  329SOL    HW2  987   1.777   2.834   1.778 -0.5502  0.9822  0.8632
  330SOL     OW  988   2.428   1.766   1.979 -0.1692  0.2033 -0.4856
  330SOL    HW1  989   2.449   1.698   2.049 -0.7956 -0.5451  0.6180
  330SOL    HW2  990   2.479   1.850   2.007 -1.4191  2.0192 -0.3432
  331SOL     OW  991   2.849   2.167   0.763 -0.2186  0.5104  0.1443
  331SOL    HW1  992   2.875   2.067   0.757  0.1518 -0.9554 -1.0900
  331SOL    HW2  993   2.922   2.224   0.802 -0.5636 -3.8162 -0.5636
  332SOL     OW  994   0.531   0.212   0.393  0.4320 -0.3644 -0.8396
  332SOL    HW1  995   0.548   0.226   0.292  1.1284  0.5536  2.4456
  332SOL    HW2  996   0.430   0.194   0.405 -1.5738 -0.4468  0.6813
  333SOL     OW  997   2.046   0.079   2.331  0.2155  0.6388  0.7724
  333SOL    HW1  998   1.978   0.151   2.360  0.4824  0.7195 -0.1961
  333SOL    HW2  999   2.004   0.000   2.284  2.1375  1.5065  3.4138
  334SOL     OW 1000   0.840   1.498   0.840 -0.4411 -0.0722 -0.1832
  334SOL    HW1 1001   0.842   1.445   0.753 -1.2313 -1.7715 -1.6034
  334SOL    HW2 1002   0.927   1.545   0.859 -3.3925  1.1193  3.4268
  335SOL     OW 1003   3.069   2.667   2.256 -0.5772  0.7195  0.0598
  335SOL    HW1 1004   0.007   2.582   2.225  0.0196  1.6859  2.2608
  335SOL    HW2 1005   3.018   2.713   2.185  1.7432 -2.3326  3.4742
  336SOL     OW 1006   2.800   2.830   1.900  0.6549  0.4636 -0.2652
  336SOL    HW1 1007   2.833   2.831   1.999 -0.2327 -1.3268 -1.1506
  336SOL    HW2 1008   2.766   2.922   1.873  2.4821 -4.4206  0.3423
  337SOL     OW 1009   2.045   1.335   0.493  0.0286 -0.3826  0.1896
  337SOL    HW1 1010   2.103   1.297   0.568  0.0781 -0.2004 -1.0999
  337SOL    HW2 1011   1.991   1.267   0.443 -1.0676  0.2381  1.5740
  338SOL     OW 1012   0.979   1.748   1.109 -0.0754 -0.1737  0.2582
  338SOL    HW1 1013   0.926   1.671   1.146 -0.9543  0.6198  1.8264
  338SOL    HW2 1014   1.010   1.813   1.181 -1.0403 -0.2907  0.6167
  339SOL     OW 1015   3.016   0.860   1.123  0.6977  0.1598 -0.0504
  339SOL    HW1 1016   3.093   0.867   1.190  0.8514 -0.0111 -2.4992
  339SOL    HW2 1017   2.928   0.899   1.159  1.3810 -0.3611  2.5542
  340SOL     OW 1018   1.598   2.958   2.062 -0.2541  0.7323 -0.2632
  340SOL    HW1 1019   1.510   2.964   2.113  0.2571  2.4081 -0.4763
  340SOL    HW2 1020   1.679   2.932   2.120  0.3315  0.7042 -0.6381
  341SOL     OW 1021   2.209   1.237   0.662  0.2722 -0.2100  0.0908
  341SOL    HW1 1022   2.258   1.298   0.727  0.4313 -1.0277  0.4475
  341SOL    HW2 1023   2.275   1.165   0.626  2.2974  3.4410 -1.9157
  342SOL     OW 1024   3.099   1.577   0.784 -0.5302 -0.1345  0.0719
  342SOL    HW1 1025   3.066   1.584   0.879  1.1843 -1.5600 -1.7003
  342SOL    HW2 1026   0.027   1.663   0.739  1.7964 -1.7173  0.1714
  343SOL     OW 1027   2.662   1.144   1.581  0.2402 -0.2847 -0.5121
  343SOL    HW1 1028   2.607   1.073   1.629 -0.9741 -0.1966 -1.5431
  343SOL    HW2 1029   2.715   1.200   1.653  0.8399 -0.7058  3.9783
  344SOL     OW 1030   2.066   0.546   1.124 -0.3173  0.4892  0.1573
  344SOL    HW1 1031   1.972   0.550   1.088 -1.0134  2.9856 -1.4525
  344SOL    HW2 1032   2.084   0.611   1.195 -0.5662  0.9695 -0.0337
  345SOL     OW 1033   0.098   2.906   2.132 -0.0871 -0.5725 -0.4645
  345SOL    HW1 1034   0.058   2.852   2.206  1.2483  2.6784 -2.3494
  345SOL    HW2 1035   0.130   2.996   2.165  2.0430  1.8993  1.1264
  346SOL     OW 1036   2.997   1.528   0.190 -0.0432  0.0940  0.4183
  346SOL    HW1 1037   3.046   1.611   0.159  2.7079  1.2414 -0.5088
  346SOL    HW2 1038   2.998   1.460   0.116 -3.1850  0.1634  0.5494
  347SOL     OW 1039   1.493   2.446   1.727 -0.2703 -0.1931  0.1904
  347SOL    HW1 1040   1.479   2.428   1.629  1.1478  0.9408  0.4982
  347SOL    HW2 1041   1.409   2.489   1.762  0.1644  0.6465 -2.2169
  348SOL     OW 1042   1.208   1.169   1.803 -0.4965  0.0363  0.2666
  348SOL    HW1 1043   1.215   1.238   1.732 -1.0504  0.5992  0.8094
  348SOL    HW2 1044   1.210   1.211   1.895  1.4171 -0.4556  1.2198
  349SOL     OW 1045   2.396   1.501   2.355  0.0902 -0.4058  0.2043
  349SOL    HW1 1046   2.327   1.455   2.415 -0.2338 -0.9948 -1.9965
  349SOL    HW2 1047   2.367   1.600   2.356  0.8496 -0.6386  1.3582
  350SOL     OW 1048   2.639   2.250   0.449 -0.2774 -0.8131 -0.2574
  350SOL    HW1 1049   2.621   2.261   0.352 -1.4666  0.3500 -0.5687
  350SOL    HW2 1050   2.615   2.333   0.502 -2.0351  2.2210 -0.7112
  351SOL     OW 1051   0.255   0.458   1.844 -0.5603  0.1023 -0.0451
  351SOL    HW1 1052   0.233   0.359   1.840 -0.6530 -0.2588 -1.0059
  351SOL    HW2 1053   0.181   0.510   1.887 -0.9239  0.2767 -2.2180
  352SOL     OW 1054   1.106   2.407   1.817 -0.4561 -0.2479  0.3060
  352SOL    HW1 1055   1.081   2.484   1.757 -1.9538 -2.4211  0.6759
  352SOL    HW2 1056   1.165   2.337   1.771  0.9703  0.7413  0.5033
  353SOL     OW 1057   1.028   1.110   2.669  0.2692  0.0305  0.2589
  353SOL    HW1 1058   0.947   1.164   2.701  1.5674 -1.5059  2.0228
  353SOL    HW2 1059   1.010   1.014   2.643  0.7659 -3.3212  0.0315
  354SOL     OW 1060   1.224   1.760   0.611  0.3374  0.0833 -0.5312
  354SOL    HW1 1061   1.241   1.814   0.530  2.2771 -1.3820  0.4133
  354SOL    HW2 1062   1.123   1.745   0.631 -0.8767 -1.0447 -0.5225
  355SOL     OW 1063   1.961   0.315   0.832 -0.3345 -0.1262 -0.5922
  355SOL    HW1 1064   1.885   0.297   0.896  0.9490  1.2068 -0.2384
  355SOL    HW2 1065   1.945   0.279   0.737  1.3788 -0.9196  0.0477
  356SOL     OW 1066   3.020   1.322   0.021  0.1813  0.3171 -0.3539
  356SOL    HW1 1067   3.095   1.258   3.098  1.9970 -1.1393  2.8055
  356SOL    HW2 1068   2.941   1.301   3.071  0.7655 -0.3666  2.0511
  357SOL     OW 1069   0.328   3.015   1.745  0.0106  0.2378 -0.0201
  357SOL    HW1 1070   0.346   3.084   1.818 -3.1981 -1.1015 -2.9448
  357SOL    HW2 1071   0.262   2.949   1.780  1.6560 -0.3222  2.2322
  358SOL     OW 1072   0.371   1.412   2.987  0.7804 -0.4651 -0.0864
  358SOL    HW1 1073   0.285   1.442   3.033 -2.2604  1.5292  1.5714
  358SOL    HW2 1074   0.421   1.351   3.049 -0.6876  1.7372 -0.8435
  359SOL     OW 1075   2.708   2.670   2.555  0.1150  0.1036  0.2818
  359SOL    HW1 1076   2.691   2.617   2.640  0.8336 -2.0881 -2.3173
  359SOL    HW2 1077   2.805   2.695   2.536  1.8133 -1.7260 -0.5094
  360SOL     OW 1078   1.619   1.308   1.017 -0.4671  0.0179 -0.4421
  360SOL    HW1 1079   1.607   1.355   0.928  0.5871 -1.1557 -0.1906
  360SOL    HW2 1080   1.653   1.381   1.084 -2.3198  2.6351  0.9812
  361SOL     OW 1081   1.915   2.397   1.295  0.0520 -0.1939  0.0298
  361SOL    HW1 1082   1.876   2.313   1.247 -1.9495  2.0929 -0.8229
  361SOL    HW2 1083   1.997   2.373   1.349  1.6942  0.7206 -0.5965
  362SOL     OW 1084   1.614   1.434   0.769  0.0998 -0.2223 -0.0035
  362SOL    HW1 1085   1.685   1.481   0.710  2.3180  0.1244  0.2082
  362SOL    HW2 1086   1.517   1.441   0.735 -2.8042 -0.1196  0.6922
  363SOL     OW 1087   2.377   2.183   0.589 -0.4377 -0.1070  0.2852
  363SOL    HW1 1088   2.446   2.126   0.644  2.9039 -2.1421  0.1321
  363SOL    HW2 1089   2.408   2.277   0.591 -2.4334 -0.8383  0.2026
  364SOL     OW 1090   2.768   0.067   1.271  0.0700 -0.2094 -0.3095
  364SOL    HW1 1091   2.755   0.122   1.358 -0.8495 -1.2069  1.2590
  364SOL    HW2 1092   2.862   0.043   1.250 -0.8008  0.0171  0.6807
  365SOL     OW 1093   0.471   2.688   0.781 -0.0110 -0.1226 -0.1577
  365SOL    HW1 1094   0.477   2.791   0.766  0.3518  2.7075  1.3120
  365SOL    HW2 1095   0.547   2.663   0.845  0.2902 -1.4977 -0.6154
  366SOL     OW 1096   0.578   1.467   0.589  0.6771  0.1609  0.6269
  366SOL    HW1 1097   0.538   1.496   0.496  0.3977  3.6585 -2.6017
  366SOL    HW2 1098   0.518   1.404   0.645  0.1975  2.8243  0.6160
  367SOL     OW 1099   2.642   2.528   2.803  0.7059 -0.3007 -0.1992
  367SOL    HW1 1100   2.548   2.556   2.831 -2.6018  0.4842  1.9587
  367SOL    HW2 1101   2.658   2.426   2.804 -1.6872 -0.1347  1.0920
  368SOL     OW 1102   2.606   1.881   0.970  0.2202 -0.5124  0.1984
  368SOL    HW1 1103   2.515   1.835   0.989  1.1468  0.1195 -1.5652
  368SOL    HW2 1104   2.665   1.814   0.928  1.3828  1.1517  2.9248
  369SOL     OW 1105   0.959   1.005   0.433  0.1132 -0.2069  0.0303
  369SOL    HW1 1106   0.928   0.970   0.525 -0.3303  1.3650  2.7624
  369SOL    HW2 1107   1.062   0.997   0.424  0.3737  0.8161  0.2053
  370SOL     OW 1108   0.180   2.895   0.962  0.2488 -0.4496  0.5188
  370SOL    HW1 1109   0.138   2.849   0.879 -1.7565 -2.1459  0.9352
  370SOL    HW2 1110   0.214   2.831   1.032  2.5715  1.3206 -2.0011
  371SOL     OW 1111   2.734   1.311   2.725 -0.0886  0.0348 -0.4777
  371SOL    HW1 1112   2.699   1.391   2.670 -0.2050 -0.7264 -0.8113
  371SOL    HW2 1113   2.696   1.231   2.672 -0.5875 -1.8724 -1.8315
  372SOL     OW 1114   0.771   0.509   2.283  0.3420  0.2974  0.0774
  372SOL    HW1 1115   0.720   0.523   2.198 -2.8529 -2.3595 -0.6210
  372SOL    HW2 1116   0.751   0.410   2.312 -0.3805 -1.2389 -0.5805
  373SOL     OW 1117   0.669   0.455   2.944  0.0121  0.3237  0.5318
  373SOL    HW1 1118   0.673   0.556   2.932  0.9097 -2.0583 -0.2573
  373SOL    HW2 1119   0.761   0.413   2.953 -0.9744 -0.5136  0.6336
  374SOL     OW 1120   0.979   2.306   0.165 -0.1593 -0.2717 -0.2262
  374SOL    HW1 1121   1.049   2.298   0.089  2.1021 -0.3750 -0.9809
  374SOL    HW2 1122   0.891   2.280   0.125 -1.3675  3.0229  0.1480
  375SOL     OW 1123   0.756   3.016   1.061  0.1129  0.2530 -0.3781
  375SOL    HW1 1124   0.807   3.065   0.988  0.9313  0.2834 -1.3529
  375SOL    HW2 1125   0.660   3.045   1.054 -0.5721  2.0437 -0.6426
  376SOL     OW 1126   0.259   2.282   1.949 -0.0923  0.3169 -0.2121
  376SOL    HW1 1127   0.199   2.359   1.976  0.3367 -0.2999  0.4278
  376SOL    HW2 1128   0.357   2.292   1.983  0.4004 -1.5583  4.1560
  377SOL     OW 1129   2.361   2.071   3.039  0.2012 -0.5398  0.5324
  377SOL    HW1 1130   2.272   2.121   3.054 -1.9111  0.3311 -2.3929
  377SOL    HW2 1131   2.420   2.113   2.966  1.1759 -1.5586 -0.7706
  378SOL     OW 1132   2.193   0.435   0.610  0.1671  0.3157 -0.1123
  378SOL    HW1 1133   2.120   0.474   0.672 -1.7554  0.8735  2.7970
  378SOL    HW2 1134   2.254   0.368   0.663  1.1973 -2.3031  2.6061
  379SOL     OW 1135   1.235   0.534   0.978  0.3583 -0.1753  0.6130
  379SOL    HW1 1136   1.148   0.497   0.943  0.4605 -0.3017 -0.9338
  379SOL    HW2 1137   1.311   0.495   0.925  2.5114  0.2821  1.0417
  380SOL     OW 1138   2.572   2.259   1.776 -0.4076 -0.2111  0.0236
  380SOL    HW1 1139   2.578   2.168   1.734  2.2340  1.4874  0.1483
  380SOL    HW2 1140   2.662   2.308   1.763  0.4532 -0.0585  3.0724
  381SOL     OW 1141   2.717   1.406   1.975 -0.0872  0.3293 -0.7346
  381SOL    HW1 1142   2.726   1.507   1.990  1.8242 -1.1539  0.5746
  381SOL    HW2 1143   2.669   1.361   2.059 -2.1510 -3.8240  2.3980
  382SOL     OW 1144   3.056   2.205   2.737  0.1125 -0.1378 -0.5357
  382SOL    HW1 1145   3.062   2.271   2.661 -0.0116  0.6136  3.1107
  382SOL    HW2 1146   2.983   2.227   2.800  2.4563  2.7137 -2.4029
  383SOL     OW 1147   1.330   0.773   2.292 -0.0956 -0.3367 -0.6191
  383SOL    HW1 1148   1.252   0.837   2.308  2.2545 -0.2290 -0.8028
  383SOL    HW2 1149   1.363   0.751   2.386  0.6624  2.9432  0.2449
  384SOL     OW 1150   1.210   2.042   2.449  0.1569 -0.1114 -0.0449
  384SOL    HW1 1151   1.312   2.038   2.467 -0.6657 -0.3389 -2.4113
  384SOL    HW2 1152   1.188   2.007   2.355  1.7634 -0.3144 -0.1206
  385SOL     OW 1153   2.400   2.719   0.069  0.0713 -0.1706 -0.1794
  385SOL    HW1 1154   2.409   2.617   0.062  2.8104 -1.5804  0.7045
  385SOL    HW2 1155   2.469   2.749   0.140 -0.7645 -3.5006  1.3735
  386SOL     OW 1156   1.369   1.178   0.576  0.1491 -0.3032  0.3381
  386SOL    HW1 1157   1.325   1.222   0.655  2.6599  0.8451 -2.1637
  386SOL    HW2 1158   1.443   1.110   0.600  0.7713 -0.6149 -0.1236
  387SOL     OW 1159   0.072   1.683   1.738  0.0143 -0.2755  0.0179
  387SOL    HW1 1160   0.060   1.648   1.834 -0.7283 -0.1507 -1.5938
  387SOL    HW2 1161   0.169   1.675   1.710 -1.9568 -1.9772  0.2220
  388SOL     OW 1162   0.695   1.156   1.447 -0.3560  1.0189  0.5389
  388SOL    HW1 1163   0.758   1.227   1.486  0.0557  0.2817 -2.4137
  388SOL    HW2 1164   0.725   1.065   1.485 -0.5479  0.2655 -0.5101
  389SOL     OW 1165   1.970   0.866   2.427 -0.3462 -0.1221  0.5335
  389SOL    HW1 1166   2.063   0.849   2.471  2.0090 -1.3725 -0.1277
  389SOL    HW2 1167   1.963   0.961   2.382  0.5889  1.1738 -2.5863
  390SOL     OW 1168   1.022   1.938   0.257  0.0428 -0.2191 -0.1067
  390SOL    HW1 1169   0.925   1.968   0.255  1.4843  3.2102 -1.6834
  390SOL    HW2 1170   1.024   1.848   0.303  0.2206  0.4484 -4.5424
  391SOL     OW 1171   0.895   2.024   0.670 -0.7413  0.0199 -0.4164
  391SOL    HW1 1172   0.911   1.987   0.762  0.9304 -1.4404 -2.2532
  391SOL    HW2 1173   0.816   1.987   0.614 -1.4524  0.7835 -2.0708
  392SOL     OW 1174   2.720   2.537   2.183 -0.4577  0.6575  0.8436
  392SOL    HW1 1175   2.673   2.494   2.101 -1.5007 -0.3376  1.9884
  392SOL    HW2 1176   2.816   2.505   2.194 -2.1069 -0.5183 -1.5603
  393SOL     OW 1177   1.503   2.286   3.033  0.1047  0.3169  0.1665
  393SOL    HW1 1178   1.502   2.268   0.028 -0.4705 -2.3977  1.3986
  393SOL    HW2 1179   1.571   2.358   3.013  3.4370  0.3450  1.2298
  394SOL     OW 1180   0.482   0.126   2.265  0.0631  0.1796  0.5999
  394SOL    HW1 1181   0.458   0.120   2.167  0.1221  0.2818  0.6075
  394SOL    HW2 1182   0.471   0.032   2.313 -0.4521 -2.6878  3.9554
  395SOL     OW 1183   0.084   1.264   1.298 -0.0523 -0.2552 -0.1334
  395SOL    HW1 1184   0.076   1.357   1.330  0.4734 -2.0620  0.8858
  395SOL    HW2 1185   0.175   1.245   1.262  0.5898 -1.6520 -2.0844
  396SOL     OW 1186   2.092   1.420   2.806 -0.3155  0.5136  0.0059
  396SOL    HW1 1187   2.127   1.417   2.906  2.0304 -0.1738  0.4347
  396SOL    HW2 1188   2.048   1.507   2.780  0.8604  0.9390  0.3146
  397SOL     OW 1189   0.530   0.977   2.982 -0.2907 -0.0588 -0.1040
  397SOL    HW1 1190   0.521   0.908   2.910 -1.4084  3.7555 -1.3431
  397SOL    HW2 1191   0.631   1.001   2.997  0.7648  2.1260  1.2307
  398SOL     OW 1192   0.965   2.752   0.424 -0.0084 -0.0517 -0.3395
  398SOL    HW1 1193   1.054   2.764   0.471  0.6121 -0.4918 -1.3236
  398SOL    HW2 1194   0.906   2.838   0.421  0.4226  0.0137 -1.6501
  399SOL     OW 1195   1.877   2.644   2.158 -0.4162  0.8843 -0.4799
  399SOL    HW1 1196   1.944   2.662   2.233  1.6920  0.5952  0.4247
  399SOL    HW2 1197   1.912   2.572   2.093  1.0356 -3.3843 -3.8417
  400SOL     OW 1198   0.211   1.225   1.920  0.1169  0.2792  0.2721
  400SOL    HW1 1199   0.149   1.276   1.983  0.7465  0.6044  0.7318
  400SOL    HW2 1200   0.195   1.254   1.823  0.3799  2.3700 -1.1773
  401SOL     OW 1201   0.632   0.754   0.620  0.1689  0.0162 -0.1929
  401SOL    HW1 1202   0.588   0.786   0.533  2.9234  0.5323  1.0176
  401SOL    HW2 1203   0.606   0.663   0.644  1.1346 -0.6005 -1.7512
  402SOL     OW 1204   0.941   0.149   2.469 -0.0112  0.2652 -0.3955
  402SOL    HW1 1205   0.929   0.200   2.553 -0.4176  0.7002 -1.9548
  402SOL    HW2 1206   1.009   0.071   2.485 -2.5132  0.7295  1.2362
  403SOL     OW 1207   2.595   1.974   1.760 -0.2345 -0.2682 -0.4096
  403SOL    HW1 1208   2.607   2.010   1.855  0.0164 -3.1001  0.7569
  403SOL    HW2 1209   2.638   1.880   1.773 -0.6471 -0.8751 -0.0801
  404SOL     OW 1210   2.670   2.266   1.471  0.6485  0.2305  0.3171
  404SOL    HW1 1211   2.759   2.317   1.468 -1.8576 -1.7561  0.9527
  404SOL    HW2 1212   2.690   2.172   1.497  0.2698  0.4126 -1.6969
  405SOL     OW 1213   1.739   0.282   2.735 -0.1978 -0.3593  0.4542
  405SOL    HW1 1214   1.703   0.188   2.757  0.3330 -1.8649 -2.3713
  405SOL    HW2 1215   1.678   0.324   2.665  1.1354 -0.9524 -2.4151
  406SOL     OW 1216   1.112   2.038   0.040  0.2284  0.3770 -0.0943
  406SOL    HW1 1217   1.212   2.004   0.027 -0.7538  0.8795 -1.0748
  406SOL    HW2 1218   1.073   2.008   0.134 -0.5141  1.2856 -1.7267
  407SOL     OW 1219   1.632   1.619   0.407 -0.2713  0.5104 -0.4049
  407SOL    HW1 1220   1.557   1.596   0.463 -0.0157  3.2789 -2.5668
  407SOL    HW2 1221   1.722   1.604   0.460 -0.1256 -2.9861  2.0745
  408SOL     OW 1222   0.045   0.586   1.392 -0.3021 -0.2413 -0.1238
  408SOL    HW1 1223   0.061   0.640   1.478  1.5536 -2.9769 -0.0115
  408SOL    HW2 1224   0.125   0.525   1.373 -0.7021  1.2390 -1.2672
  409SOL     OW 1225   2.687   1.565   0.058 -0.1657  0.3072  0.2829
  409SOL    HW1 1226   2.674   1.482   0.116  2.5991  0.6716  0.3152
  409SOL    HW2 1227   2.717   1.644   0.114 -1.0868  0.0472 -0.5855
  410SOL     OW 1228   2.522   2.427   0.656  0.6673  0.4624 -0.2183
  410SOL    HW1 1229   2.481   2.515   0.676  2.2659  0.3149 -0.6941
  410SOL    HW2 1230   2.589   2.401   0.724 -1.6051 -0.5087 -0.0324
  411SOL     OW 1231   0.385   0.181   3.060  0.4005  0.2244  0.5778
  411SOL    HW1 1232   0.472   0.197   3.104 -2.8576 -0.3852 -0.3952
  411SOL    HW2 1233   0.389   0.182   2.958 -0.2395  0.6634 -1.1521
  412SOL     OW 1234   1.554   0.019   0.507 -1.2812  0.5735  0.0606
  412SOL    HW1 1235   1.472   3.066   0.486 -0.7103 -0.1782 -0.2176
  412SOL    HW2 1236   1.644   3.077   0.511 -1.6955 -0.4561 -1.4481
  413SOL     OW 1237   1.817   0.485   2.265  0.5955 -0.0303  0.4091
  413SOL    HW1 1238   1.830   0.580   2.244 -0.5725 -1.3757  1.2472
  413SOL    HW2 1239   1.742   0.454   2.206  1.3023  1.7576 -0.4640
  414SOL     OW 1240   0.051   0.576   0.578  0.3708  0.5043 -0.2665
  414SOL    HW1 1241   0.058   0.653   0.513 -0.2404 -2.3712  2.5790
  414SOL    HW2 1242   0.137   0.562   0.627 -1.7788  2.7757  0.3426
  415SOL     OW 1243   2.976   1.037   0.486 -0.3391  0.0175 -0.1082
  415SOL    HW1 1244   2.981   1.085   0.399 -0.3117 -1.1868  0.0349
  415SOL    HW2 1245   2.927   1.089   0.559 -0.2877 -0.5235  1.0674
  416SOL     OW 1246   2.847   0.387   2.759  0.4573 -0.2102  0.6612
  416SOL    HW1 1247   2.849   0.350   2.659 -1.4372 -0.4710 -1.4075
  416SOL    HW2 1248   2.924   0.452   2.775 -0.7151  0.6219 -1.1834
  417SOL     OW 1249   2.362   0.235   0.701  0.4288  0.1216 -0.5584
  417SOL    HW1 1250   2.408   0.254   0.792  0.0522  0.3883 -3.4043
  417SOL    HW2 1251   2.431   0.188   0.645 -2.7130  5.0236 -2.0841
  418SOL     OW 1252   0.673   2.991   2.879 -0.2679 -0.1282 -0.1826
  418SOL    HW1 1253   0.684   3.018   2.975  1.6440 -0.2408  1.0299
  418SOL    HW2 1254   0.589   2.946   2.853  1.2952 -0.7887  1.3957
  419SOL     OW 1255   0.168   0.544   0.967 -0.1501 -0.1966  0.3681
  419SOL    HW1 1256   0.219   0.631   0.980 -0.5504  1.2396 -0.2609
  419SOL    HW2 1257   0.236   0.470   0.969 -0.4605  1.7154  2.1903
  420SOL     OW 1258   2.998   1.102   1.423  0.1084 -0.2140 -0.9635
  420SOL    HW1 1259   3.054   1.147   1.352 -0.8279 -1.3566 -2.5102
  420SOL    HW2 1260   2.928   1.043   1.381  1.7736  0.7734 -0.0358
  421SOL     OW 1261   1.011   2.008   2.907 -0.1430 -0.2292 -0.5875
  421SOL    HW1 1262   1.041   2.021   3.007 -0.4519  1.2777 -2.0055
  421SOL    HW2 1263   1.093   2.002   2.855 -2.2829 -0.8000  0.6385
  422SOL     OW 1264   2.433   0.333   2.257 -0.2340 -0.4531  0.0305
  422SOL    HW1 1265   2.458   0.259   2.194  0.6285 -0.4003 -1.1438
  422SOL    HW2 1266   2.401   0.416   2.208  0.0297 -1.5631  1.0874
  423SOL     OW 1267   1.848   1.607   0.225 -0.3754  0.3316  0.0836
  423SOL    HW1 1268   1.879   1.631   0.130  0.3306 -1.9265 -1.6734
  423SOL    HW2 1269   1.755   1.650   0.240  0.6411 -1.1397  1.4853
  424SOL     OW 1270   1.240   1.276   2.054  0.0189  0.2613  0.0104
  424SOL    HW1 1271   1.189   1.327   2.126 -3.9100 -1.3657  0.4881
  424SOL    HW2 1272   1.271   1.186   2.088  0.1120  4.9175 -0.2415
  425SOL     OW 1273   0.115   2.500   2.020  0.8885 -0.0245 -0.1914
  425SOL    HW1 1274   0.190   2.566   2.037  0.5195 -1.0054  0.0870
  425SOL    HW2 1275   0.077   2.524   1.929 -1.5496  2.8483 -1.8023
  426SOL     OW 1276   2.369   2.669   0.670 -0.4037 -0.0160  0.5227
  426SOL    HW1 1277   2.417   2.714   0.753 -0.0535  0.1195  0.4519
  426SOL    HW2 1278   2.280   2.633   0.705 -1.7969  0.3040  0.2915
  427SOL     OW 1279   0.540   0.798   2.785  0.3199 -0.5014 -0.1504
  427SOL    HW1 1280   0.488   0.750   2.713  0.8276 -0.1107 -0.9408
  427SOL    HW2 1281   0.635   0.758   2.791  1.3504  0.2522  0.7349
  428SOL     OW 1282   2.773   1.560   2.882  0.1911 -0.1734  0.0967
  428SOL    HW1 1283   2.752   1.547   2.982 -1.6053  0.1756 -2.3474
  428SOL    HW2 1284   2.768   1.473   2.826 -0.5305 -3.5733 -0.0809
  429SOL     OW 1285   2.467   0.577   0.212  0.1976  0.2150  0.0564
  429SOL    HW1 1286   2.407   0.539   0.284 -2.3229 -1.3056 -0.6190
  429SOL    HW2 1287   2.442   0.671   0.187  2.7109 -0.2350 -1.6682
  430SOL     OW 1288   1.467   2.035   2.531  0.3752  0.2951 -0.7092
  430SOL    HW1 1289   1.558   1.992   2.526  2.6374 -2.3427 -1.0157
  430SOL    HW2 1290   1.481   2.131   2.543  0.4637  0.9322  2.2444
  431SOL     OW 1291   0.267   2.122   1.722 -0.1158 -0.6088  0.8515
  431SOL    HW1 1292   0.187   2.112   1.654 -1.8522  1.0509  0.0433
  431SOL    HW2 1293   0.252   2.187   1.799  1.9391  2.0079 -1.4787
  432SOL     OW 1294   1.724   2.535   1.886  0.3886  0.2692  0.3671
  432SOL    HW1 1295   1.794   2.467   1.912  0.1752  1.3765  0.2815
  432SOL    HW2 1296   1.666   2.496   1.815  1.8794  3.9200  1.8403
  433SOL     OW 1297   1.104   2.201   0.380 -0.1969  0.0688  0.0986
  433SOL    HW1 1298   1.046   2.247   0.308 -1.3518  1.6640  0.1354
  433SOL    HW2 1299   1.086   2.098   0.381 -1.5571 -1.2876 -4.0875
  434SOL     OW 1300   0.361   2.188   2.669 -0.1187 -0.4590 -0.1024
  434SOL    HW1 1301   0.453   2.210   2.697  0.9547  1.9186 -1.5011
  434SOL    HW2 1302   0.297   2.193   2.751 -2.0750 -0.5072  2.4877
  435SOL     OW 1303   0.053   0.832   0.459  0.2344 -0.6388  0.0284
  435SOL    HW1 1304   3.088   0.901   0.475 -0.3904 -0.4656 -0.3905
  435SOL    HW2 1305   0.144   0.869   0.425  1.0117 -0.6946 -0.5258
  436SOL     OW 1306   0.486   2.828   1.597 -0.6008  0.4285  0.0799
  436SOL    HW1 1307   0.431   2.890   1.657  0.0648 -0.4720  0.5994
  436SOL    HW2 1308   0.569   2.873   1.558 -2.4586 -0.0798  1.1974
  437SOL     OW 1309   0.768   0.352   0.757  0.0211  0.1959 -0.0070
  437SOL    HW1 1310   0.862   0.391   0.773  0.5131  1.0068 -2.0765
  437SOL    HW2 1311   0.774   0.291   0.676 -0.0411  1.2084  0.7652
  438SOL     OW 1312   0.543   2.101   0.709  0.2091  0.2285 -0.0775
  438SOL    HW1 1313   0.552   2.199   0.705 -1.7767 -1.1525  1.3829
  438SOL    HW2 1314   0.568   2.071   0.803 -1.2850  0.1189  0.5891
  439SOL     OW 1315   0.811   2.631   1.663 -0.5616 -0.3771  0.0745
  439SOL    HW1 1316   0.755   2.570   1.726  1.4819 -0.6044 -0.0894
  439SOL    HW2 1317   0.756   2.702   1.615  1.5643 -2.9691  0.9935
  440SOL     OW 1318   1.987   2.894   1.983  0.1779  0.4746 -0.2879
  440SOL    HW1 1319   1.950   2.843   1.902 -3.4222 -0.6062 -0.5519
  440SOL    HW2 1320   1.938   2.868   2.066  1.7028  1.0511  0.8325
  441SOL     OW 1321   2.853   0.398   1.769 -0.0264  0.0266  0.0087
  441SOL    HW1 1322   2.948   0.361   1.763  3.1996 -1.0978 -1.1289
  441SOL    HW2 1323   2.848   0.492   1.727  0.4185  2.0193 -0.1771
  442SOL     OW 1324   1.640   2.311   1.083 -0.0961 -0.0257  0.6553
  442SOL    HW1 1325   1.663   2.348   0.988 -0.6287  2.7980 -2.8954
  442SOL    HW2 1326   1.726   2.269   1.117 -0.7335 -0.3815 -1.7699
  443SOL     OW 1327   2.742   0.669   2.198  0.1349 -0.9043 -0.3624
  443SOL    HW1 1328   2.705   0.599   2.263  2.0180 -0.8317  1.8454
  443SOL    HW2 1329   2.673   0.702   2.136 -1.8634 -1.4272 -0.9563
  444SOL     OW 1330   2.057   1.102   1.872  0.1871 -0.1908 -1.0691
  444SOL    HW1 1331   1.995   1.026   1.842 -1.3741 -1.8582  2.2044
  444SOL    HW2 1332   2.100   1.158   1.801  1.1064  0.3843  1.9432
  445SOL     OW 1333   3.077   2.416   1.073 -0.1627 -0.1328  0.3679
  445SOL    HW1 1334   3.029   2.490   1.121  1.7895 -1.4814  0.1754
  445SOL    HW2 1335   3.038   2.396   0.982 -0.5414 -0.0100  1.2408
  446SOL     OW 1336   2.969   1.612   1.016  0.0409  0.5934  0.7620
  446SOL    HW1 1337   3.008   1.685   1.071  0.1333 -1.3027 -0.0948
  446SOL    HW2 1338   2.983   1.519   1.062  0.7201 -2.0193  3.2457
  447SOL     OW 1339   0.603   0.967   0.856  0.2909 -0.7402 -0.0878
  447SOL    HW1 1340   0.582   0.866   0.860 -3.3781 -3.9273 -0.0247
  447SOL    HW2 1341   0.668   0.993   0.932  1.3623  1.0158  0.7112
  448SOL     OW 1342   1.499   1.344   1.894  0.4072  0.3749 -0.2713
  448SOL    HW1 1343   1.443   1.419   1.852  0.1023  1.4731 -0.6777
  448SOL    HW2 1344   1.436   1.268   1.916 -1.1832 -0.5076  0.1887
  449SOL     OW 1345   1.274   1.279   0.097 -0.5486 -0.0605  0.3376
  449SOL    HW1 1346   1.337   1.306   0.021  2.2501  3.1230 -1.1158
  449SOL    HW2 1347   1.201   1.217   0.063 -0.7800 -1.5306  0.5916
  450SOL     OW 1348   2.831   2.176   2.037 -0.3292  0.4008  0.5126
  450SOL    HW1 1349   2.861   2.260   2.084  0.0945 -0.9803 -2.5285
  450SOL    HW2 1350   2.909   2.112   2.023  0.0738 -0.0667  1.4822
  451SOL     OW 1351   1.986   2.905   2.630 -0.0672  0.6614  0.2813
  451SOL    HW1 1352   2.085   2.874   2.618  2.0995 -1.0960  2.9648
  451SOL    HW2 1353   1.935   2.910   2.544  1.0521  0.0837  0.2083
  452SOL     OW 1354   1.575   0.002   1.252 -0.2834 -0.3165 -0.6778
  452SOL    HW1 1355   1.655   3.092   1.307 -2.9343  0.3846 -0.8003
  452SOL    HW2 1356   1.537   0.094   1.270 -0.3516 -0.8768  1.8748
  453SOL     OW 1357   1.823   0.879   1.011  0.3649  0.0221  0.6180
  453SOL    HW1 1358   1.906   0.846   0.960 -1.3690 -1.5713  2.2678
  453SOL    HW2 1359   1.737   0.883   0.953  2.4480  5.1048 -1.5701
  454SOL     OW 1360   0.227   1.175   0.510 -0.1900 -0.3412  0.1295
  454SOL    HW1 1361   0.291   1.211   0.585 -0.7926  1.7960  0.2858
  454SOL    HW2 1362   0.140   1.229   0.514  0.9052 -1.9475  1.7857
  455SOL     OW 1363   2.727   0.248   0.369 -0.2613  0.0230  0.8172
  455SOL    HW1 1364   2.825   0.222   0.360  2.0048 -1.5901  2.3228
  455SOL    HW2 1365   2.720   0.349   0.350 -0.7159  0.4646 -1.4414
  456SOL     OW 1366   2.958   2.625   1.193  0.8382 -0.1326 -0.0462
  456SOL    HW1 1367   3.035   2.634   1.263  1.8623  0.3691  0.5951
  456SOL    HW2 1368   2.922   2.716   1.166  2.8184 -1.1627 -0.2082
  457SOL     OW 1369   1.192   0.081   0.613  0.4953  0.9508 -0.2985
  457SOL    HW1 1370   1.232   0.124   0.526 -0.8243 -0.9169 -1.8424
  457SOL    HW2 1371   1.256   0.088   0.693 -1.7949  0.2778  4.0100
  458SOL     OW 1372   2.362   0.410   0.403  0.2278  0.1702  0.7058
  458SOL    HW1 1373   2.388   0.315   0.368  1.4007 -0.3528  0.6044
  458SOL    HW2 1374   2.302   0.407   0.486  0.4297 -1.2207  0.0791
  459SOL     OW 1375   2.178   0.705   2.507 -0.2915 -0.7749 -0.2207
  459SOL    HW1 1376   2.112   0.638   2.479  0.0627 -0.1528  1.8023
  459SOL    HW2 1377   2.226   0.681   2.592  1.8466  3.4328  0.8836
  460SOL     OW 1378   2.904   2.981   2.904  0.1491 -0.1691 -0.1300
  460SOL    HW1 1379   2.822   3.043   2.925  1.2942  0.2394  1.0334
  460SOL    HW2 1380   2.878   2.884   2.902 -1.9368  0.7188  0.8586
  461SOL     OW 1381   0.966   1.725   0.687  0.0662  0.4982  0.0192
  461SOL    HW1 1382   1.008   1.680   0.770  0.1482  0.5057  0.2491
  461SOL    HW2 1383   0.862   1.719   0.686 -2.1595  0.4318 -0.6745
  462SOL     OW 1384   2.312   2.564   1.194  0.0431 -0.6592 -0.7861
  462SOL    HW1 1385   2.365   2.539   1.110  1.4396  0.9370  1.2397
  462SOL    HW2 1386   2.336   2.660   1.222  0.1830  0.9008 -0.1746
  463SOL     OW 1387   2.390   1.054   0.610 -0.2546 -0.1151  0.2349
  463SOL    HW1 1388   2.485   1.036   0.569  0.1425  0.9296 -2.9185
  463SOL    HW2 1389   2.348   0.973   0.657  1.5522  0.8719 -0.9664
  464SOL     OW 1390   0.308   2.720   1.131  0.0172 -0.3603  0.6655
  464SOL    HW1 1391   0.270   2.631   1.160 -1.6914 -0.4498  1.6091
  464SOL    HW2 1392   0.389   2.730   1.196  0.2660 -0.2593  2.8291
  465SOL     OW 1393   0.145   1.509   3.104 -0.1940 -0.0359  0.7893
  465SOL    HW1 1394   0.070   1.443   3.086 -0.5469 -0.5155 -1.0779
  465SOL    HW2 1395   0.170   1.520   0.095 -0.2332 -1.6554  3.6169
  466SOL     OW 1396   1.563   0.100   2.810  0.1578  0.0409 -0.4421
  466SOL    HW1 1397   1.475   0.086   2.766  2.9907 -1.7538 -0.4570
  466SOL    HW2 1398   1.559   0.125   2.910 -1.4508  0.8520 -1.2302
  467SOL     OW 1399   1.090   0.967   1.916 -0.1478  0.5710 -0.1223
  467SOL    HW1 1400   1.125   0.886   1.863  0.1854  0.5725  2.1805
  467SOL    HW2 1401   1.123   1.051   1.873 -0.6812  2.0462 -0.4619
  468SOL     OW 1402   0.626   1.132   2.471 -0.3244 -0.7892  0.2025
  468SOL    HW1 1403   0.676   1.077   2.540  0.6308 -0.7528 -2.2166
  468SOL    HW2 1404   0.550   1.186   2.515  0.0796 -0.8481 -3.2299
  469SOL     OW 1405   0.030   2.113   3.087  0.2693 -0.1941  0.4849
  469SOL    HW1 1406   0.027   2.210   0.020  0.8558  2.7752 -0.3945
  469SOL    HW2 1407   3.058   2.052   3.105  1.2030 -1.7446  0.4744
  470SOL     OW 1408   2.369   1.725   2.775 -0.0460 -0.3179  0.2598
  470SOL    HW1 1409   2.383   1.627   2.756 -0.6161  1.7986 -3.0615
  470SOL    HW2 1410   2.342   1.738   2.871  0.7522  2.0640  1.5957
  471SOL     OW 1411   2.349   0.851   2.186  0.0149 -0.2107  0.3414
  471SOL    HW1 1412   2.388   0.893   2.271  1.0782 -0.1394  0.8543
  471SOL    HW2 1413   2.422   0.807   2.136  0.4411  0.0525  1.5017
  472SOL     OW 1414   0.342   2.461   0.699  0.0786  0.1478 -0.4694
  472SOL    HW1 1415   0.299   2.482   0.608 -3.0990 -1.1772 -2.5669
  472SOL    HW2 1416   0.380   2.542   0.745  2.5077 -1.4987  2.0325
  473SOL     OW 1417   0.640   0.109   2.701 -0.0483 -0.5758  0.3963
  473SOL    HW1 1418   0.662   0.028   2.761 -0.3435  1.5748  0.0262
  473SOL    HW2 1419   0.579   0.179   2.747  0.4253  0.0675  2.3756
  474SOL     OW 1420   1.691   0.109   2.362 -0.3888 -0.1958  0.0476
  474SOL    HW1 1421   1.679   0.195   2.415  2.1829  1.6946  1.5375
  474SOL    HW2 1422   1.704   0.125   2.262  0.6893 -0.5218 -1.3773
  475SOL     OW 1423   1.748   2.701   0.839  0.1946 -0.7433  0.0196
  475SOL    HW1 1424   1.832   2.701   0.901  0.2638  0.4474  2.3512
  475SOL    HW2 1425   1.780   2.700   0.741  0.5291  0.5845 -1.7112
  476SOL     OW 1426   3.028   0.611   1.028  0.0362  0.5354  0.2060
  476SOL    HW1 1427   3.026   0.706   1.067 -0.8578 -1.6662  0.8606
  476SOL    HW2 1428   0.014   0.571   1.030 -1.2648 -1.3752  1.6305
  477SOL     OW 1429   1.263   2.383   0.718  0.0865 -0.4514 -0.0840
  477SOL    HW1 1430   1.322   2.403   0.640  1.8094 -0.3321 -0.8072
  477SOL    HW2 1431   1.172   2.350   0.697  1.1410  0.6567 -1.5264
  478SOL     OW 1432   0.241   2.233   2.418 -0.1468  0.1633 -0.0326
  478SOL    HW1 1433   0.242   2.208   2.516  1.9053  2.9069  1.8887
  478SOL    HW2 1434   0.330   2.209   2.372 -0.7445  0.1772 -1.6638
  479SOL     OW 1435   2.321   0.533   0.996 -0.2570  0.3982 -0.0482
  479SOL    HW1 1436   2.234   0.530   1.051 -1.4969 -0.9574  2.8009
  479SOL    HW2 1437   2.378   0.454   1.021 -2.6071  1.0596 -0.3792
  480SOL     OW 1438   3.030   2.900   0.136 -0.1510  0.3247  0.0716
  480SOL    HW1 1439   2.970   2.976   0.106  0.3509  0.1501  1.9853
  480SOL    HW2 1440   3.101   2.880   0.072 -1.6451 -0.8218  2.4372
  481SOL     OW 1441   2.733   2.487   1.273  0.8341  0.7725 -0.1445
  481SOL    HW1 1442   2.655   2.541   1.312  0.7599 -1.1849  0.6155
  481SOL    HW2 1443   2.819   2.540   1.266 -2.4074  2.8998 -1.8213
  482SOL     OW 1444   0.974   2.487   2.841  0.0687 -0.4635 -0.1860
  482SOL    HW1 1445   1.049   2.505   2.901 -0.7547 -2.0587 -0.0076
  482SOL    HW2 1446   0.908   2.562   2.851 -1.0464 -1.1690 -1.5358
  483SOL     OW 1447   0.716   2.332   2.480  0.7407 -0.9641  0.4468
  483SOL    HW1 1448   0.632   2.358   2.533 -3.3144  1.9482  1.0193
  483SOL    HW2 1449   0.712   2.235   2.450  1.1090 -0.9766  1.5760
  484SOL     OW 1450   1.053   0.925   1.468 -0.3012 -0.5019 -0.3867
  484SOL    HW1 1451   1.059   0.832   1.430  1.7993 -0.0671 -0.4742
  484SOL    HW2 1452   1.139   0.945   1.516 -0.4184 -2.4254  1.6043
  485SOL     OW 1453   2.376   0.823   0.086  0.2456  0.0807  0.1978
  485SOL    HW1 1454   2.372   0.760   0.007 -1.5437 -2.1727  1.6275
  485SOL    HW2 1455   2.374   0.923   0.059  0.9320  1.4260  3.0052
  486SOL     OW 1456   2.129   0.019   1.255 -0.1839  0.2651  0.1395
  486SOL    HW1 1457   2.110   3.028   1.240 -0.3703  3.4798 -1.1486
  486SOL    HW2 1458   2.040   0.065   1.279 -0.5328 -0.6048  2.0086
  487SOL     OW 1459   0.442   2.017   1.219 -0.4057 -0.2633  0.0653
  487SOL    HW1 1460   0.508   2.020   1.298  0.6299  2.4508 -2.4802
  487SOL    HW2 1461   0.352   1.979   1.241  3.8160 -3.2589 -1.3205
  488SOL     OW 1462   2.636   1.093   0.026 -0.0013 -0.8216 -0.0998
  488SOL    HW1 1463   2.532   1.093   0.051 -1.5162 -1.3159  0.2098
  488SOL    HW2 1464   2.651   1.021   3.063 -0.8383  1.2445  1.2609
  489SOL     OW 1465   1.768   0.192   1.037 -0.2595  0.0464  0.0600
  489SOL    HW1 1466   1.830   0.157   1.109 -2.7154  1.2946 -1.3849
  489SOL    HW2 1467   1.706   0.258   1.081  2.4966 -0.7520 -1.0360
  490SOL     OW 1468   0.919   0.643   0.435  0.2439 -0.2539 -0.6008
  490SOL    HW1 1469   0.825   0.601   0.433  0.9918 -0.5190  0.3915
  490SOL    HW2 1470   0.910   0.732   0.481 -1.9405  0.2377  1.3770
  491SOL     OW 1471   0.625   2.384   0.656  0.2237 -0.1601 -0.7262
  491SOL    HW1 1472   0.685   2.440   0.597  0.9026 -0.1224 -1.3457
  491SOL    HW2 1473   0.531   2.424   0.652  1.1637  1.6854  0.3670
  492SOL     OW 1474   1.597   1.656   2.336  0.0495  0.1101  0.9272
  492SOL    HW1 1475   1.614   1.607   2.419 -1.1554 -0.9633 -2.9467
  492SOL    HW2 1476   1.610   1.593   2.259  0.8638  1.5686 -0.0033
  493SOL     OW 1477   3.021   2.611   0.726  0.2178  0.5116  0.0229
  493SOL    HW1 1478   2.935   2.661   0.729 -0.8328 -1.3386 -0.9449
  493SOL    HW2 1479   3.096   2.676   0.740  0.1890 -0.4640 -1.6802
  494SOL     OW 1480   2.699   2.067   0.017 -0.2144 -0.0815  0.3200
  494SOL    HW1 1481   2.635   2.051   0.092  0.4966  0.2883 -1.5090
  494SOL    HW2 1482   2.683   2.004   3.050 -0.7679 -0.0578  0.4287
  495SOL     OW 1483   2.721   1.980   2.870 -0.1818 -0.3357  0.2204
  495SOL    HW1 1484   2.643   1.951   2.811  1.8366  3.2941 -0.3775
  495SOL    HW2 1485   2.789   1.906   2.886 -0.3448 -0.2762 -0.7049
  496SOL     OW 1486   2.739   2.970   1.534  0.0224 -0.3798 -0.2372
  496SOL    HW1 1487   2.676   3.016   1.606 -3.4928  1.3080  0.3213
  496SOL    HW2 1488   2.695   2.948   1.443  1.2297 -0.3472  2.1393
  497SOL     OW 1489   2.834   1.211   2.978  0.0548  0.0069 -0.0347
  497SOL    HW1 1490   2.809   1.249   2.888  0.9668  0.5490  0.0865
  497SOL    HW2 1491   2.749   1.174   3.025  0.5458 -0.4704  1.1099
  498SOL     OW 1492   3.069   1.885   2.234 -0.2090 -0.4728  0.2332
  498SOL    HW1 1493   3.107   1.958   2.176  1.2152  0.3125 -0.0114
  498SOL    HW2 1494   3.016   1.920   2.314  0.7598 -0.9012  1.7912
  499SOL     OW 1495   0.853   2.242   2.895  0.4006  0.2375  0.0689
  499SOL    HW1 1496   0.918   2.160   2.884  0.3149  1.2806  0.4198
  499SOL    HW2 1497   0.906   2.328   2.877  0.1174 -2.5829  2.0365
  500SOL     OW 1498   1.611   0.200   0.028  0.6107  0.0159 -0.4684
  500SOL    HW1 1499   1.594   0.201   0.129 -0.7644  1.0450  2.0251
  500SOL    HW2 1500   1.705   0.164   0.006  0.8367  1.0859  1.5076
  501SOL     OW 1501   1.370   3.008   1.495 -0.2745 -0.2505  0.2577
  501SOL    HW1 1502   1.342   3.056   1.408  0.1489  1.4864 -1.5039
  501SOL    HW2 1503   1.424   3.067   1.555 -0.5200 -2.0285  3.5876
  502SOL     OW 1504   2.564   0.781   2.028  0.0234  0.1707 -0.8327
  502SOL    HW1 1505   2.612   0.872   2.031  1.4880  1.2658  1.0729
  502SOL    HW2 1506   2.573   0.735   1.938 -0.6598  1.4917  2.0270
  503SOL     OW 1507   2.329   2.241   2.386  0.3392  0.0517 -0.5667
  503SOL    HW1 1508   2.355   2.286   2.471 -2.2029 -1.4413 -2.6265
  503SOL    HW2 1509   2.246   2.286   2.349 -0.4204  1.3870 -1.5128
  504SOL     OW 1510   1.454   0.771   1.495  0.2593 -0.0982  0.2056
  504SOL    HW1 1511   1.443   0.747   1.397 -0.9530  1.3338  2.2985
  504SOL    HW2 1512   1.509   0.693   1.535  1.6994 -2.9957 -0.3573
  505SOL     OW 1513   0.770   0.613   1.658 -0.3479 -0.1027 -0.3706
  505SOL    HW1 1514   0.718   0.670   1.728  0.5104 -1.7432  0.1753
  505SOL    HW2 1515   0.763   0.647   1.566  1.1027 -3.8210  2.2842
  506SOL     OW 1516   0.473   0.376   2.445  0.1284 -0.1686  0.1437
  506SOL    HW1 1517   0.558   0.323   2.430  0.0473 -0.5941 -1.8647
  506SOL    HW2 1518   0.402   0.364   2.373  3.2291  0.0804 -0.0134
  507SOL     OW 1519   0.137   2.866   3.068  0.5502  0.2550  0.5993
  507SOL    HW1 1520   0.224   2.838   0.004  1.2905 -0.3405  1.2339
  507SOL    HW2 1521   0.157   2.901   2.973 -1.4095  1.3957  1.3508
  508SOL     OW 1522   1.408   1.142   1.413 -0.0018  0.2590  0.3192
  508SOL    HW1 1523   1.361   1.087   1.484 -1.2922  0.5774 -0.2117
  508SOL    HW2 1524   1.454   1.221   1.456 -0.9853  0.0811 -0.5999
  509SOL     OW 1525   1.481   2.128   1.571 -0.0443  0.4193  0.5784
  509SOL    HW1 1526   1.438   2.177   1.498 -0.5518 -0.5829  1.7141
  509SOL    HW2 1527   1.582   2.139   1.555 -2.2675  0.3510 -1.3660
  510SOL     OW 1528   2.257   1.354   2.163 -0.1770  0.2250  0.3496
  510SOL    HW1 1529   2.323   1.416   2.213 -0.0451  0.6514 -0.3254
  510SOL    HW2 1530   2.288   1.258   2.148 -0.6363 -0.1611  0.5319
  511SOL     OW 1531   0.729   1.841   1.390  0.0487 -0.3277  0.1862
  511SOL    HW1 1532   0.688   1.780   1.320  0.8248  0.6249  2.6390
  511SOL    HW2 1533   0.745   1.795   1.478 -0.3435 -1.5225 -0.7593
  512SOL     OW 1534   2.650   1.989   0.532  0.4469  0.0880 -0.3374
  512SOL    HW1 1535   2.666   2.091   0.513  2.2736  1.1528 -1.9474
  512SOL    HW2 1536   2.622   1.980   0.632 -1.0089 -1.4314  2.3339
  513SOL     OW 1537   0.062   1.725   2.929 -0.0227  0.6066  0.1310
  513SOL    HW1 1538   0.109   1.758   2.845 -0.4658 -0.0944 -3.1178
  513SOL    HW2 1539   0.099   1.639   2.966  0.0100  2.0060 -2.2304
  514SOL     OW 1540   2.959   2.380   2.144  0.5114  0.2862  0.1983
  514SOL    HW1 1541   3.007   2.326   2.220 -2.0870 -0.9120  1.2186
  514SOL    HW2 1542   3.024   2.442   2.095 -0.9961 -0.7774  1.3816
  515SOL     OW 1543   2.296   1.290   1.127 -0.1942 -0.7389 -0.1972
  515SOL    HW1 1544   2.235   1.232   1.073  0.3154  0.5356  0.9898
  515SOL    HW2 1545   2.299   1.249   1.220  1.5614  0.0967  1.6574
  516SOL     OW 1546   2.211   2.291   0.203  0.2685 -0.2292  0.2726
  516SOL    HW1 1547   2.246   2.212   0.255  1.8287 -1.6398 -0.3390
  516SOL    HW2 1548   2.164   2.255   0.124  0.4445  0.3326  3.1360
  517SOL     OW 1549   1.094   1.117   3.101  0.8711 -0.0107 -0.2680
  517SOL    HW1 1550   1.136   1.141   3.012 -0.6801  0.3816 -1.2517
  517SOL    HW2 1551   1.006   1.170   0.008  1.4738 -1.2047 -0.7990
  518SOL     OW 1552   0.058   2.867   1.832 -0.4291  0.7519 -0.1179
  518SOL    HW1 1553   0.068   2.852   1.931  1.2680 -0.6456 -0.2015
  518SOL    HW2 1554   0.067   2.781   1.778 -1.1112  1.5049 -0.0582
  519SOL     OW 1555   1.696   1.512   2.560  0.1046  0.3330 -0.1174
  519SOL    HW1 1556   1.789   1.519   2.514  0.9360 -2.8667 -2.0168
  519SOL    HW2 1557   1.695   1.564   2.643 -0.3157 -2.4929 -4.1703
  520SOL     OW 1558   2.604   2.907   2.484 -0.2695  0.2186  0.5671
  520SOL    HW1 1559   2.612   2.914   2.383 -1.7553 -0.4447 -1.2186
  520SOL    HW2 1560   2.633   2.815   2.520  1.1022  0.2837  0.7313
  521SOL     OW 1561   0.307   1.887   1.890  0.0245 -0.2625 -0.3350
  521SOL    HW1 1562   0.266   1.935   1.974  0.9440  0.7944 -0.0088
  521SOL    HW2 1563   0.292   1.947   1.810 -1.3444 -1.6097  0.3604
  522SOL     OW 1564   1.094   2.661   1.688 -0.1830  0.1845  0.0388
  522SOL    HW1 1565   1.000   2.679   1.718 -1.6904  2.7992 -0.5918
  522SOL    HW2 1566   1.121   2.736   1.623  0.5241 -0.4845 -0.8989
  523SOL     OW 1567   0.163   2.136   1.431  0.3100  0.4218 -0.3972
  523SOL    HW1 1568   0.244   2.192   1.427 -1.0192 -3.5403 -1.1648
  523SOL    HW2 1569   0.083   2.185   1.381 -2.0280 -0.3137  0.5404
  524SOL     OW 1570   1.296   2.640   0.830  0.1732  0.1358 -0.6949
  524SOL    HW1 1571   1.385   2.659   0.877 -0.4697  1.8674 -0.4854
  524SOL    HW2 1572   1.295   2.541   0.798 -1.1921 -2.1265  4.0731
  525SOL     OW 1573   2.514   1.191   0.955  0.1876 -0.2062  0.2695
  525SOL    HW1 1574   2.478   1.222   1.043  0.7941  1.0031  1.6980
  525SOL    HW2 1575   2.476   1.246   0.875 -0.0522 -0.7459 -1.4401
  526SOL     OW 1576   0.963   2.447   0.877 -0.2935  0.1212 -0.4133
  526SOL    HW1 1577   0.921   2.531   0.846  0.4910 -2.4121  1.8280
  526SOL    HW2 1578   0.958   2.381   0.800 -0.2171  0.4901 -0.0167
  527SOL     OW 1579   2.565   2.090   0.797 -0.1791 -0.0742  0.4839
  527SOL    HW1 1580   2.648   2.135   0.749  2.1018 -0.0563 -1.7393
  527SOL    HW2 1581   2.592   2.025   0.868 -1.3040 -1.2105  0.0323
  528SOL     OW 1582   2.203   0.340   2.815 -0.6615  0.7178  1.0545
  528SOL    HW1 1583   2.129   0.303   2.753 -1.7630  0.0226 -1.9141
  528SOL    HW2 1584   2.174   0.337   2.911  1.5039  0.1657  0.4818
  529SOL     OW 1585   1.122   1.349   2.279  0.4218 -0.0723 -0.2091
  529SOL    HW1 1586   1.145   1.282   2.355  1.4845 -1.7405  1.2378
  529SOL    HW2 1587   1.189   1.428   2.270 -0.3982  1.5014  0.9223
  530SOL     OW 1588   2.436   0.988   2.388  0.1298  0.6480  0.0862
  530SOL    HW1 1589   2.504   1.054   2.357  0.9338 -0.6207 -0.4890
  530SOL    HW2 1590   2.481   0.907   2.433  1.2329 -0.5410  0.8510
  531SOL     OW 1591   0.903   0.743   3.030  0.1534 -0.2542 -0.2819
  531SOL    HW1 1592   0.994   0.707   3.068  2.4257 -1.6478  0.4304
  531SOL    HW2 1593   0.820   0.703   3.085 -1.7262 -0.5933  2.5087
  532SOL     OW 1594   1.538   0.952   0.623  0.2722 -0.2052 -0.6359
  532SOL    HW1 1595   1.516   0.885   0.696  1.5007  1.7816 -2.2094
  532SOL    HW2 1596   1.514   0.920   0.530  0.1259  0.3531 -0.4205
  533SOL     OW 1597   0.380   0.515   2.176 -0.3654 -0.7401  0.0602
  533SOL    HW1 1598   0.313   0.537   2.104  0.1029 -1.1854  0.7352
  533SOL    HW2 1599   0.473   0.491   2.137  0.7832 -0.3680 -0.5931
  534SOL     OW 1600   1.669   0.372   2.467  0.0683 -0.0716 -0.2761
  534SOL    HW1 1601   1.746   0.402   2.406 -1.8462 -0.3748 -0.3595
  534SOL    HW2 1602   1.588   0.413   2.418 -3.2622  0.1712 -1.7469
  535SOL     OW 1603   0.759   0.226   0.524 -0.1077 -0.3169 -0.1418
  535SOL    HW1 1604   0.851   0.214   0.482 -0.0688  2.3707  0.0406
  535SOL    HW2 1605   0.687   0.204   0.456  2.0812 -0.7085  0.7670
  536SOL     OW 1606   1.014   0.458   0.876 -0.0064 -0.1681 -0.0728
  536SOL    HW1 1607   0.940   0.526   0.904 -1.3267  2.9361 -2.0831
  536SOL    HW2 1608   1.049   0.479   0.785 -0.5120 -0.2740  2.3766
  537SOL     OW 1609   1.528   2.991   1.807  0.0042 -0.0075 -0.2486
  537SOL    HW1 1610   1.565   2.970   1.901  0.8079 -2.0576  1.4347
  537SOL    HW2 1611   1.489   2.916   1.750  0.8351  0.1826 -1.1770
  538SOL     OW 1612   0.388   2.793   0.022  0.5236  0.4127  0.4510
  538SOL    HW1 1613   0.443   2.708   0.048  1.7278  1.5342 -2.3884
  538SOL    HW2 1614   0.391   2.803   3.024 -1.0678  1.5522  0.4814
  539SOL     OW 1615   2.753   1.762   1.801 -0.0181  0.3919  0.1210
  539SOL    HW1 1616   2.850   1.787   1.783  0.4500  0.5809  0.4101
  539SOL    HW2 1617   2.755   1.712   1.890  0.3218 -1.2573  0.2119
  540SOL     OW 1618   2.539   2.403   1.994 -0.8301 -0.5836 -0.4609
  540SOL    HW1 1619   2.557   2.326   1.931  0.5050 -0.5742 -1.9797
  540SOL    HW2 1620   2.442   2.388   2.027 -1.0805  0.4859  0.4134
  541SOL     OW 1621   0.441   3.096   1.341  0.2860  0.3845  0.5886
  541SOL    HW1 1622   0.361   3.090   1.403 -0.0248  0.8909  3.6833
  541SOL    HW2 1623   0.413   3.099   1.244 -0.6756 -0.6738  1.8642
  542SOL     OW 1624   2.764   0.125   2.167  0.1981 -0.1027 -0.6178
  542SOL    HW1 1625   2.727   0.060   2.236  3.0419  1.4390 -0.5487
  542SOL    HW2 1626   2.848   0.096   2.107 -0.0554 -0.2824 -1.3155
  543SOL     OW 1627   0.789   0.592   1.009 -0.2446 -0.1338  0.0867
  543SOL    HW1 1628   0.698   0.640   1.028 -0.6727 -1.1439  0.1473
  543SOL    HW2 1629   0.805   0.504   1.070  1.6393 -0.4760  1.4686
  544SOL     OW 1630   2.330   2.075   1.186 -0.4497 -0.1522 -0.3755
  544SOL    HW1 1631   2.330   2.095   1.088  0.9979 -2.5511  0.6787
  544SOL    HW2 1632   2.342   2.162   1.240 -0.7299  1.4837 -1.5882
  545SOL     OW 1633   1.322   1.474   0.985  0.4603  0.2210  0.4792
  545SOL    HW1 1634   1.402   1.538   1.000  1.1226 -0.0946  0.9319
  545SOL    HW2 1635   1.326   1.400   1.057  1.9234 -0.5104 -1.6056
  546SOL     OW 1636   2.739   0.011   2.584  0.0089 -0.1124  0.5284
  546SOL    HW1 1637   2.656   3.074   2.548 -0.4546  0.3303 -0.3160
  546SOL    HW2 1638   2.746   3.104   2.683  0.3987 -2.3357  1.4743
  547SOL     OW 1639   2.610   0.287   2.889 -0.0823  0.5271  0.8656
  547SOL    HW1 1640   2.557   0.356   2.941  1.0237 -0.6708 -0.4460
  547SOL    HW2 1641   2.686   0.330   2.835  1.2337 -0.3783 -0.8124
  548SOL     OW 1642   2.411   2.166   2.783 -0.6069  0.1950  0.5149
  548SOL    HW1 1643   2.452   2.088   2.731  1.4117 -1.9371  0.4505
  548SOL    HW2 1644   2.422   2.252   2.734  1.6269 -0.0962  2.2469
  549SOL     OW 1645   2.016   0.583   0.783 -0.1747 -0.2019  0.2403
  549SOL    HW1 1646   2.005   0.506   0.849 -2.4110 -0.4900  0.2086
  549SOL    HW2 1647   2.044   0.665   0.836  0.5410 -2.3212 -1.0720
  550SOL     OW 1648   2.647   1.291   0.235 -0.1069  0.4309  0.4122
  550SOL    HW1 1649   2.567   1.271   0.299  0.4477  4.1514  1.1386
  550SOL    HW2 1650   2.646   1.229   0.153 -2.8852 -1.1450 -0.3910
  551SOL     OW 1651   1.340   2.361   1.420  0.0242 -0.1396 -0.3246
  551SOL    HW1 1652   1.266   2.429   1.416  3.0010 -1.1772  2.7816
  551SOL    HW2 1653   1.388   2.359   1.331 -0.7932  3.3562 -0.7241
  552SOL     OW 1654   2.653   2.358   2.500  0.0140  0.1546  0.3905
  552SOL    HW1 1655   2.659   2.276   2.439 -1.6463  1.3241 -1.5004
  552SOL    HW2 1656   2.659   2.448   2.451 -1.7169  0.6898  0.2924
  553SOL     OW 1657   0.576   3.039   0.597 -0.5320  0.0689 -0.0183
  553SOL    HW1 1658   0.563   0.029   0.568 -1.1394 -1.0405  0.7824
  553SOL    HW2 1659   0.501   3.026   0.666  1.4436  0.0966 -0.8665
  554SOL     OW 1660   1.839   2.194   1.737 -0.6925 -0.4339  0.0897
  554SOL    HW1 1661   1.748   2.162   1.773 -1.1227  1.4230 -0.6792
  554SOL    HW2 1662   1.912   2.160   1.799 -0.7414  0.8919  1.5662
  555SOL     OW 1663   1.494   2.626   2.028  0.1103  0.0242 -0.2440
  555SOL    HW1 1664   1.584   2.600   1.983  3.4442 -2.6916  2.9751
  555SOL    HW2 1665   1.433   2.669   1.954  2.2444  1.8400 -2.2141
  556SOL     OW 1666   1.502   0.689   0.730  0.5792 -0.1533 -0.1866
  556SOL    HW1 1667   1.596   0.660   0.723 -1.0553  0.0156  2.2636
  556SOL    HW2 1668   1.426   0.625   0.724 -2.8711 -0.4752 -1.7772
  557SOL     OW 1669   1.225   2.202   1.659 -0.3890 -0.1666  0.0814
  557SOL    HW1 1670   1.325   2.196   1.657  0.8287 -1.7994  2.9347
  557SOL    HW2 1671   1.179   2.163   1.580  2.9687  0.5350  0.7281
  558SOL     OW 1672   2.877   1.128   2.491 -0.2328  0.7647 -0.4129
  558SOL    HW1 1673   2.788   1.114   2.449 -0.8624 -2.1699  0.9193
  558SOL    HW2 1674   2.950   1.077   2.438  1.7100 -0.4089 -1.6050
  559SOL     OW 1675   2.484   2.637   2.200 -0.0625 -0.5965  0.0738
  559SOL    HW1 1676   2.577   2.593   2.200  1.8525 -2.7011  0.2490
  559SOL    HW2 1677   2.468   2.682   2.112  0.1024  0.5095  0.0848
  560SOL     OW 1678   0.400   0.042   2.550 -1.2961  0.1018  0.1901
  560SOL    HW1 1679   0.390   3.055   2.511 -0.9915 -0.8321 -0.0608
  560SOL    HW2 1680   0.500   0.067   2.562  0.6565  2.6557  0.2142
  561SOL     OW 1681   1.315   0.506   0.572  0.0570 -0.3680  0.4929
  561SOL    HW1 1682   1.278   0.599   0.564  1.6537 -4.2748  1.3291
  561SOL    HW2 1683   1.268   0.447   0.505 -0.3208 -1.7284 -1.9294
  562SOL     OW 1684   0.840   1.492   1.942  0.2742  0.0772 -0.2624
  562SOL    HW1 1685   0.851   1.482   2.042 -0.1412  0.2192 -1.9433
  562SOL    HW2 1686   0.855   1.589   1.921 -2.4197 -1.0692  0.7609
  563SOL     OW 1687   1.811   2.211   0.240 -0.1009 -0.6562 -0.5865
  563SOL    HW1 1688   1.799   2.155   0.156  0.6903  1.7201  2.2075
  563SOL    HW2 1689   1.905   2.188   0.278 -1.3741  2.4677 -0.4732
  564SOL     OW 1690   3.041   2.168   0.446  0.4873  0.1463  0.7284
  564SOL    HW1 1691   2.964   2.102   0.448 -2.7497 -0.8181  1.1508
  564SOL    HW2 1692   0.000   2.150   0.520  0.4707 -0.5180 -0.3989
  565SOL     OW 1693   0.417   2.862   2.869 -0.3912  0.1468  0.2873
  565SOL    HW1 1694   0.384   2.955   2.841  0.5084  0.6662 -1.0717
  565SOL    HW2 1695   0.446   2.810   2.785  0.4574  0.2167 -3.0924
  566SOL     OW 1696   1.509   2.698   2.968 -0.6006 -0.0475 -0.0430
  566SOL    HW1 1697   1.534   2.706   3.072  2.7650 -0.1383  1.6763
  566SOL    HW2 1698   1.475   2.790   2.938 -0.5350  2.9931  0.3867
  567SOL     OW 1699   2.456   1.859   1.305 -0.1129 -0.1542 -0.1752
  567SOL    HW1 1700   2.556   1.838   1.294 -0.9652 -1.4089  2.5746
  567SOL    HW2 1701   2.431   1.953   1.278  1.1792 -1.9336 -0.3233
  568SOL     OW 1702   1.709   0.874   2.841 -0.0797  0.2159  0.0324
  568SOL    HW1 1703   1.808   0.891   2.858  0.4331  1.2515 -2.0047
  568SOL    HW2 1704   1.693   0.828   2.750  1.3116  0.0890 -0.8116
  569SOL     OW 1705   2.193   1.861   2.178  0.9419  0.0065  0.2243
  569SOL    HW1 1706   2.192   1.795   2.102 -2.0457 -0.5737  0.3540
  569SOL    HW2 1707   2.267   1.926   2.158 -0.1140  0.0297  1.9182
  570SOL     OW 1708   2.890   2.629   1.735  0.3282  0.0315 -0.2677
  570SOL    HW1 1709   2.848   2.702   1.796 -2.6043 -0.9359  1.2130
  570SOL    HW2 1710   2.875   2.652   1.636 -0.4583  2.3143  0.2661
  571SOL     OW 1711   0.168   0.820   1.268 -0.1379 -0.2397  0.3002
  571SOL    HW1 1712   0.202   0.889   1.333  1.7693  2.2486  1.4547
  571SOL    HW2 1713   0.099   0.755   1.308 -1.8008 -1.1254 -1.0899
  572SOL     OW 1714   0.436   1.274   0.715 -0.2455 -0.1723  0.0393
  572SOL    HW1 1715   0.385   1.272   0.801  3.8236 -2.3458 -0.0019
  572SOL    HW2 1716   0.521   1.223   0.725  0.1989 -1.3205  0.1483
  573SOL     OW 1717   0.741   0.838   0.274 -0.0983  0.5270 -0.1947
  573SOL    HW1 1718   0.730   0.763   0.208 -1.3179  2.3027  1.2986
  573SOL    HW2 1719   0.837   0.845   0.298 -0.7856 -0.3542  3.6507
  574SOL     OW 1720   0.193   0.227   0.143 -0.6110  0.1407 -0.3143
  574SOL    HW1 1721   0.247   0.222   0.060 -0.9178  3.2977  0.5422
  574SOL    HW2 1722   0.215   0.148   0.204  1.2573  1.3003  0.1930
  575SOL     OW 1723   0.832   2.345   1.161 -0.7210  0.6972 -0.5272
  575SOL    HW1 1724   0.847   2.405   1.080 -2.5170 -1.5300  1.8873
  575SOL    HW2 1725   0.913   2.288   1.193  3.7184 -1.4288  1.8016
  576SOL     OW 1726   2.948   0.018   1.593 -0.4573 -0.6523 -0.2644
  576SOL    HW1 1727   2.917   0.106   1.556  2.0989  0.9031  0.4803
  576SOL    HW2 1728   2.882   3.051   1.566  2.2338 -1.3280  0.8112
  577SOL     OW 1729   2.610   1.978   2.039 -0.1582  0.2830 -0.2720
  577SOL    HW1 1730   2.546   2.021   2.109 -2.6986  3.2450 -0.2279
  577SOL    HW2 1731   2.700   2.028   2.027  0.1374 -0.8751 -0.1235
  578SOL     OW 1732   1.098   3.026   2.478  0.0904  0.0262 -0.1399
  578SOL    HW1 1733   1.189   3.056   2.515 -1.5794 -2.2511 -1.3443
  578SOL    HW2 1734   1.053   2.967   2.552  0.1851  0.3970  0.4597
  579SOL     OW 1735   1.920   1.935   2.235 -0.3317 -0.0987 -0.4867
  579SOL    HW1 1736   2.011   1.899   2.203  1.0065  1.5096  0.4900
  579SOL    HW2 1737   1.842   1.865   2.248  0.6014  1.0206  1.0742
  580SOL     OW 1738   1.766   0.975   2.069 -0.2397  0.0460 -0.3037
  580SOL    HW1 1739   1.807   0.894   2.118  0.3583 -2.5678  1.5017
  580SOL    HW2 1740   1.746   1.053   2.132 -0.5885 -0.5500 -2.1511
  581SOL     OW 1741   1.213   1.180   2.462 -0.4953 -0.2527  0.2369
  581SOL    HW1 1742   1.302   1.193   2.511  0.6761 -1.4603 -1.5981
  581SOL    HW2 1743   1.141   1.152   2.528 -0.3543 -1.5599 -0.2014
  582SOL     OW 1744   0.054   2.613   1.757  0.5352 -0.8182  0.2376
  582SOL    HW1 1745   0.085   2.581   1.665  1.2707 -0.7318 -2.8378
  582SOL    HW2 1746   3.060   2.625   1.755 -1.1289 -0.0654 -1.2017
  583SOL     OW 1747   1.675   1.016   1.216  0.0502  0.2405 -0.5594
  583SOL    HW1 1748   1.705   0.947   1.153 -2.5653  3.1462  2.7359
  583SOL    HW2 1749   1.683   1.111   1.189 -1.5785 -0.4951  3.9866
  584SOL     OW 1750   1.228   1.998   2.761  0.1326  0.2303  0.0650
  584SOL    HW1 1751   1.274   2.087   2.787  1.8244  1.3778  0.6776
  584SOL    HW2 1752   1.218   1.989   2.662 -0.1642 -0.3482  3.6939
  585SOL     OW 1753   0.163   2.293   0.286  0.1806 -0.5044  0.0550
  585SOL    HW1 1754   0.125   2.339   0.206 -2.9222  1.3974  0.4232
  585SOL    HW2 1755   0.103   2.220   0.323 -1.4692 -1.1793 -1.4685
  586SOL     OW 1756   2.087   1.589   0.357 -0.6947 -0.1757 -0.5507
  586SOL    HW1 1757   1.989   1.580   0.326 -1.1734  2.0029  0.0660
  586SOL    HW2 1758   2.103   1.515   0.427 -1.1638  1.7343 -0.2948
  587SOL     OW 1759   2.885   1.940   0.392 -0.2811  0.3214 -0.3400
  587SOL    HW1 1760   2.968   1.885   0.413 -0.3505 -0.5215  2.9155
  587SOL    HW2 1761   2.812   1.932   0.464 -0.7421 -1.2858  2.9096
  588SOL     OW 1762   2.470   0.291   0.991 -0.4428  0.4059  0.5329
  588SOL    HW1 1763   2.560   0.239   0.981  0.1814 -1.7061 -1.9302
  588SOL    HW2 1764   2.418   0.246   1.069 -0.3157 -1.8265  1.5003
  589SOL     OW 1765   0.911   0.816   0.904  0.8511  0.4608  0.3937
  589SOL    HW1 1766   1.010   0.800   0.916 -1.2613  0.6286 -3.4331
  589SOL    HW2 1767   0.856   0.743   0.950 -2.8624  1.8986  1.9512
  590SOL     OW 1768   2.400   2.423   0.030 -0.3335  0.1579  0.6129
  590SOL    HW1 1769   2.353   2.376   0.106  1.7933 -1.0201 -2.1617
  590SOL    HW2 1770   2.496   2.393   0.014 -0.9664  2.7827 -2.3728
  591SOL     OW 1771   0.667   2.464   1.816 -0.1783  0.0177  0.2694
  591SOL    HW1 1772   0.749   2.398   1.835  1.3728 -0.8599  1.8583
  591SOL    HW2 1773   0.586   2.415   1.782 -1.3487  0.5934 -0.3343
  592SOL     OW 1774   0.879   1.346   1.536  0.1161  0.1520 -0.0122
  592SOL    HW1 1775   0.909   1.415   1.603  0.0295  0.3695 -2.5094
  592SOL    HW2 1776   0.947   1.303   1.472  1.1145 -2.1420  0.2144
  593SOL     OW 1777   1.316   1.909   1.287 -0.1953  0.2131 -0.0383
  593SOL    HW1 1778   1.334   1.808   1.279 -0.9702 -1.3664  0.3087
  593SOL    HW2 1779   1.247   1.926   1.360 -0.2867 -1.8562 -0.0848
  594SOL     OW 1780   0.795   1.250   2.797 -0.1093 -0.1299 -0.4870
  594SOL    HW1 1781   0.739   1.172   2.767 -1.8300 -0.4296 -0.2204
  594SOL    HW2 1782   0.796   1.266   2.898 -2.7259 -0.3213 -1.5841
  595SOL     OW 1783   1.657   0.404   1.138 -0.8479 -0.2638  0.2425
  595SOL    HW1 1784   1.576   0.405   1.194 -0.2689 -2.0834 -1.5540
  595SOL    HW2 1785   1.691   0.496   1.121  2.3574  0.1691 -0.1069
  596SOL     OW 1786   0.322   1.036   0.912  0.1768 -0.2126 -0.1394
  596SOL    HW1 1787   0.425   1.029   0.907  0.5588  0.7468  0.6577
  596SOL    HW2 1788   0.272   1.006   0.822 -2.1609 -3.9116 -1.9715
  597SOL     OW 1789   0.191   2.203   2.873 -0.1831 -0.2315 -0.2140
  597SOL    HW1 1790   0.113   2.183   2.810 -0.4741  1.5309  0.3440
  597SOL    HW2 1791   0.165   2.173   2.966 -1.4306  0.6274  5.2584
  598SOL     OW 1792   2.133   2.168   2.805  0.1785 -0.2695 -0.1126
  598SOL    HW1 1793   2.084   2.199   2.719 -1.5291 -0.6178 -1.9979
  598SOL    HW2 1794   2.236   2.176   2.793 -0.2028 -0.1010  0.4516
  599SOL     OW 1795   1.788   0.541   0.306 -0.0935 -0.2578  0.4374
  599SOL    HW1 1796   1.718   0.494   0.362  1.3618  0.2555 -2.1308
  599SOL    HW2 1797   1.847   0.604   0.366  1.2530 -0.4531  2.2290
  600SOL     OW 1798   1.004   0.262   0.402  0.4445  0.5299  0.1369
  600SOL    HW1 1799   1.090   0.204   0.408  0.4298 -3.1339 -1.0360
  600SOL    HW2 1800   1.017   0.323   0.320  3.8071 -1.4020  0.2679
  601SOL     OW 1801   0.381   0.236   1.542 -0.0170  0.0334  0.1691
  601SOL    HW1 1802   0.407   0.283   1.627 -0.1695  0.0398 -1.1554
  601SOL    HW2 1803   0.469   0.203   1.504 -1.2876  1.4288 -1.4801
  602SOL     OW 1804   3.050   3.010   0.618  0.5943 -0.5994  0.0241
  602SOL    HW1 1805   3.023   3.095   0.671 -0.6617  0.3669  2.7666
  602SOL    HW2 1806   3.089   3.037   0.527  3.5180  0.7161 -1.3257
  603SOL     OW 1807   0.660   2.797   2.248 -0.4954  0.3519  0.0482
  603SOL    HW1 1808   0.750   2.820   2.289 -0.8312 -1.8922 -0.3182
  603SOL    HW2 1809   0.667   2.696   2.236 -2.3662 -4.1998  1.4307
  604SOL     OW 1810   1.173   2.707   3.105  0.3934 -0.4734 -0.3142
  604SOL    HW1 1811   1.127   2.657   0.074 -2.8714  1.6059  2.3146
  604SOL    HW2 1812   1.197   2.647   3.032  0.4636  0.0649  4.5508
  605SOL     OW 1813   1.290   0.985   1.599  0.1587  0.1193  0.0864
  605SOL    HW1 1814   1.339   0.899   1.598 -0.8052  3.0686 -2.9270
  605SOL    HW2 1815   1.285   1.030   1.691  0.3455  2.8888 -0.1582
  606SOL     OW 1816   1.131   0.396   2.549 -0.6947 -0.5994  0.0062
  606SOL    HW1 1817   1.039   0.385   2.578  2.5262  1.3987  1.9006
  606SOL    HW2 1818   1.184   0.418   2.634 -0.3657 -1.6500  0.0620
  607SOL     OW 1819   0.294   1.158   1.169 -0.6307  0.5182 -0.1245
  607SOL    HW1 1820   0.390   1.148   1.193 -1.3268 -0.1119 -1.1470
  607SOL    HW2 1821   0.280   1.112   1.085  1.1220  1.4686 -0.3263
  608SOL     OW 1822   2.720   2.154   2.345  0.1484  0.2408  0.6366
  608SOL    HW1 1823   2.732   2.200   2.256 -1.5978 -0.7575 -1.6423
  608SOL    HW2 1824   2.800   2.099   2.373  1.2206  0.4150 -0.0144
  609SOL     OW 1825   2.110   0.300   3.096  0.2169 -0.2328 -0.6755
  609SOL    HW1 1826   2.185   0.246   0.032 -1.7056  1.4014  1.1029
  609SOL    HW2 1827   2.073   0.378   0.040  2.7399  0.7448  0.1034
  610SOL     OW 1828   0.749   2.775   1.207  0.2096  0.2958  0.0289
  610SOL    HW1 1829   0.737   2.866   1.163 -1.6721  1.8440 -3.0629
  610SOL    HW2 1830   0.846   2.760   1.233 -3.0181 -1.0149 -0.5029
  611SOL     OW 1831   0.832   1.325   0.623  0.3554 -0.3920  0.2666
  611SOL    HW1 1832   0.746   1.382   0.608 -0.1567  1.6719  0.4900
  611SOL    HW2 1833   0.802   1.233   0.637  1.7195  3.1218 -1.9781
  612SOL     OW 1834   0.989   0.170   2.180 -0.0779 -0.0864  0.6481
  612SOL    HW1 1835   0.959   0.169   2.278 -0.1593 -1.3791  0.3778
  612SOL    HW2 1836   0.970   0.263   2.140  1.9443 -2.6804  2.0229
  613SOL     OW 1837   2.426   1.248   0.394  0.0617 -0.2743 -0.2975
  613SOL    HW1 1838   2.436   1.341   0.434  1.3976  3.4237 -0.2659
  613SOL    HW2 1839   2.424   1.180   0.470  0.7044  1.2624 -1.0072
  614SOL     OW 1840   1.779   0.439   1.775 -0.5846  0.6212 -0.1339
  614SOL    HW1 1841   1.701   0.496   1.810 -0.1877  0.0947 -1.1801
  614SOL    HW2 1842   1.861   0.497   1.773 -0.2517 -1.5910 -0.1018
  615SOL     OW 1843   0.924   1.943   0.929  0.0601  0.3112 -0.0093
  615SOL    HW1 1844   0.910   1.847   0.956  1.1364 -0.4081  0.3501
  615SOL    HW2 1845   1.015   1.973   0.973  0.7642 -0.0980 -0.1034
  616SOL     OW 1846   1.457   1.248   2.598  0.4170 -0.5282  0.5001
  616SOL    HW1 1847   1.526   1.321   2.591 -2.0960 -1.2795 -1.6526
  616SOL    HW2 1848   1.493   1.166   2.647  0.3418 -0.4928 -0.3481
  617SOL     OW 1849   1.908   2.672   0.618  0.1602 -0.0827  0.6928
  617SOL    HW1 1850   1.929   2.723   0.530  1.3360  0.2966  0.1451
  617SOL    HW2 1851   1.995   2.635   0.663  0.4817 -0.7228 -0.8222
  618SOL     OW 1852   0.793   0.998   3.033  0.2130  0.2996 -0.7914
  618SOL    HW1 1853   0.828   1.063   3.100  1.8886 -0.8635  0.8635
  618SOL    HW2 1854   0.850   0.915   3.040 -0.7211  1.6399  0.6182
  619SOL     OW 1855   2.763   1.515   0.652  0.0576 -0.0434 -0.2299
  619SOL    HW1 1856   2.841   1.508   0.579  3.0208 -1.6125  0.5237
  619SOL    HW2 1857   2.730   1.425   0.685 -0.5076 -1.0606  1.1693
  620SOL     OW 1858   2.420   2.950   3.005 -0.0893  0.0008 -0.0036
  620SOL    HW1 1859   2.417   2.867   3.068  1.4753 -1.4254 -3.1923
  620SOL    HW2 1860   2.461   2.933   2.915  0.8126  0.8952  0.0984
  621SOL     OW 1861   2.037   1.232   0.089 -1.0642 -0.4867 -0.4120
  621SOL    HW1 1862   2.107   1.181   0.141 -1.7095 -0.3743 -0.6445
  621SOL    HW2 1863   1.976   1.276   0.157  0.1927 -0.0789  1.8529
  622SOL     OW 1864   1.178   2.311   2.505  0.8761  0.0014 -0.1797
  622SOL    HW1 1865   1.091   2.363   2.519  0.0413 -0.0464 -1.8587
  622SOL    HW2 1866   1.160   2.210   2.503  0.8817  3.4059  1.7025
  623SOL     OW 1867   0.682   1.793   0.044 -0.5339 -0.1100 -0.6496
  623SOL    HW1 1868   0.724   1.792   3.061 -0.7122  0.0521  1.1677
  623SOL    HW2 1869   0.603   1.731   0.048  0.2846 -1.6215 -2.0175
  624SOL     OW 1870   0.291   3.078   2.810 -0.2341  0.4135  0.2086
  624SOL    HW1 1871   0.309   0.004   2.718 -0.9415  2.1469  2.5070
  624SOL    HW2 1872   0.199   0.005   2.844 -4.6292  2.2411  1.1521
  625SOL     OW 1873   0.752   1.978   0.229  0.4072  0.3291 -0.1542
  625SOL    HW1 1874   0.730   2.062   0.179  0.2053 -3.0314  1.8028
  625SOL    HW2 1875   0.749   1.900   0.166  1.6176  1.2536  1.7754
  626SOL     OW 1876   2.440   0.393   0.009 -0.5029 -0.5435  0.0135
  626SOL    HW1 1877   2.398   0.308   0.041  0.1572 -0.1933 -0.6935
  626SOL    HW2 1878   2.453   0.463   0.082 -1.0425  2.8098  1.0878
  627SOL     OW 1879   1.415   1.005   2.743  0.1459  0.7269  0.3972
  627SOL    HW1 1880   1.357   1.079   2.782  2.3234 -0.6378 -2.0836
  627SOL    HW2 1881   1.448   0.940   2.813  0.5709  0.8449 -0.0361
  628SOL     OW 1882   0.956   0.845   2.539 -0.4124 -0.5922 -0.3917
  628SOL    HW1 1883   1.014   0.876   2.459  0.4395  0.9907  0.2868
  628SOL    HW2 1884   0.944   0.744   2.533  1.6825  0.5592 -1.5644
  629SOL     OW 1885   0.454   0.051   1.983  0.3060 -0.8852 -0.0169
  629SOL    HW1 1886   0.468   3.064   2.024  0.3191 -0.9907 -1.8610
  629SOL    HW2 1887   0.535   0.090   1.935  1.0014  0.2391 -1.3548
  630SOL     OW 1888   2.503   0.985   1.755 -0.6790  0.7080  0.0907
  630SOL    HW1 1889   2.482   1.045   1.836 -2.8844  2.2861  0.5729
  630SOL    HW2 1890   2.420   0.947   1.718  4.6477 -0.5683 -0.6231
  631SOL     OW 1891   2.217   1.114   0.251  0.8373  0.0060 -1.1152
  631SOL    HW1 1892   2.170   1.043   0.309 -1.4791 -0.5628 -1.6836
  631SOL    HW2 1893   2.287   1.163   0.307 -1.9351  0.3792 -1.4763
  632SOL     OW 1894   2.459   0.446   1.847 -0.3859 -0.2871 -0.8524
  632SOL    HW1 1895   2.543   0.422   1.905  0.7423  2.6468  1.3443
  632SOL    HW2 1896   2.460   0.395   1.761 -0.2863 -0.3457 -1.6238
  633SOL     OW 1897   0.726   3.086   0.252  0.5010 -0.3094  0.0099
  633SOL    HW1 1898   0.641   3.039   0.221 -2.6028  0.7198  2.1105
  633SOL    HW2 1899   0.767   3.030   0.331  1.2254 -2.8460  3.4461
  634SOL     OW 1900   1.466   3.069   0.006  0.4845  0.2359  0.1061
  634SOL    HW1 1901   1.499   0.056   0.014 -0.3491  0.4796  2.1572
  634SOL    HW2 1902   1.536   2.999   0.041  0.8294 -1.6767 -0.4266
  635SOL     OW 1903   2.717   0.532   0.293 -0.7612  0.0566 -0.1040
  635SOL    HW1 1904   2.783   0.610   0.296 -0.5571  0.0129 -1.7288
  635SOL    HW2 1905   2.623   0.563   0.267  1.9115 -1.9396 -0.7656
  636SOL     OW 1906   0.657   1.646   0.939  0.5653  0.3694  0.1088
  636SOL    HW1 1907   0.643   1.725   0.872  0.9934  3.2994 -0.6455
  636SOL    HW2 1908   0.731   1.587   0.899 -0.5024  0.8608  1.0026
  637SOL     OW 1909   0.195   2.767   0.451 -0.8509  0.1894  0.1978
  637SOL    HW1 1910   0.281   2.789   0.405 -0.3036 -1.8710  1.6281
  637SOL    HW2 1911   0.155   2.672   0.436 -2.2764  1.0312 -2.5587
  638SOL     OW 1912   0.046   2.974   0.374 -0.3562 -0.4477 -0.2695
  638SOL    HW1 1913   3.106   2.940   0.288  0.6419  0.4483  1.3515
  638SOL    HW2 1914   0.096   2.894   0.419  2.2367  1.5297 -0.2913
  639SOL     OW 1915   1.119   1.506   0.189 -0.0577  0.0630 -0.5548
  639SOL    HW1 1916   1.191   1.435   0.180  1.4223  1.1558  1.5974
  639SOL    HW2 1917   1.164   1.602   0.201  0.3448  0.9103  0.9573
  640SOL     OW 1918   1.174   2.463   1.089 -0.1655 -0.0385 -0.6111
  640SOL    HW1 1919   1.273   2.484   1.113  3.8724  2.2381  0.9847
  640SOL    HW2 1920   1.162   2.445   0.993 -2.5643 -0.1692  1.8690
  641SOL     OW 1921   2.748   2.627   0.911 -0.3572 -0.2225 -0.1156
  641SOL    HW1 1922   2.753   2.522   0.925  2.3821 -0.3529 -1.8971
  641SOL    HW2 1923   2.774   2.671   1.001 -0.8013  1.0580 -0.4624
  642SOL     OW 1924   0.963   2.996   1.740  0.7884 -0.1023 -0.4982
  642SOL    HW1 1925   0.904   2.955   1.814 -0.3229  2.1949  1.7639
  642SOL    HW2 1926   1.053   3.026   1.783  0.5159 -0.2809 -2.5560
  643SOL     OW 1927   1.012   2.252   2.177  0.3987 -0.2482  0.5164
  643SOL    HW1 1928   0.958   2.173   2.202  0.9184  2.8103  0.0799
  643SOL    HW2 1929   1.071   2.236   2.096  0.0926  1.8627  1.8715
  644SOL     OW 1930   0.815   2.972   0.471  0.0003 -0.2824  0.5361
  644SOL    HW1 1931   0.892   2.977   0.538 -0.6293  2.0002 -1.1301
  644SOL    HW2 1932   0.726   2.984   0.519  0.3590 -0.8120 -1.0193
  645SOL     OW 1933   1.332   1.529   2.232 -0.0467 -0.0679  0.4002
  645SOL    HW1 1934   1.277   1.562   2.150  0.4234 -1.5162  1.9433
  645SOL    HW2 1935   1.322   1.601   2.301  0.4887 -2.0510 -1.0775
  646SOL     OW 1936   0.579   1.011   0.388  0.4750  0.2886 -0.0915
  646SOL    HW1 1937   0.630   0.941   0.330 -0.2307  0.3130 -3.4315
  646SOL    HW2 1938   0.616   1.100   0.355 -0.1632 -0.0921 -2.1928
  647SOL     OW 1939   1.351   0.101   0.829  0.2582  0.7012 -0.0544
  647SOL    HW1 1940   1.293   0.024   0.861 -1.4855  0.9640 -0.2302
  647SOL    HW2 1941   1.441   0.101   0.871 -0.6838 -1.2030  1.2952
  648SOL     OW 1942   2.550   2.653   1.403 -0.1443  0.4482 -0.1042
  648SOL    HW1 1943   2.516   2.643   1.496  1.3109  1.4332  1.1609
  648SOL    HW2 1944   2.500   2.729   1.368 -0.8890  0.1175 -1.5950
  649SOL     OW 1945   0.722   2.216   0.052  0.0112  0.7857 -0.0153
  649SOL    HW1 1946   0.636   2.277   0.035 -1.4174  1.7598  0.3425
  649SOL    HW2 1947   0.775   2.213   3.073  2.7947  0.1016  1.3403
  650SOL     OW 1948   2.983   1.983   1.432 -0.0479 -0.5114  0.0726
  650SOL    HW1 1949   3.024   2.057   1.373  1.7293 -0.8610 -2.8578
  650SOL    HW2 1950   2.889   2.006   1.469  2.3150  1.3329  0.9876
  651SOL     OW 1951   0.029   0.046   2.892 -0.6123  0.0820 -0.4898
  651SOL    HW1 1952   3.056   3.099   2.871  5.5331  1.4127  2.6404
  651SOL    HW2 1953   0.012   0.123   2.952 -0.5088 -0.7240 -1.8109
  652SOL     OW 1954   2.484   2.056   0.177  0.2468  0.7044  0.4190
  652SOL    HW1 1955   2.432   2.073   0.087 -0.9024 -0.2347 -0.6862
  652SOL    HW2 1956   2.419   2.056   0.255 -0.5249  0.7486 -1.1794
  653SOL     OW 1957   0.352   0.353   0.953 -0.5900 -0.2683  0.1301
  653SOL    HW1 1958   0.449   0.334   0.924  0.6887 -1.9512  1.6399
  653SOL    HW2 1959   0.323   0.297   1.031 -0.5240  1.3962 -2.7252
  654SOL     OW 1960   1.285   3.031   0.204  0.7314  0.1299 -0.0135
  654SOL    HW1 1961   1.323   2.974   0.272 -1.0447 -0.7384 -1.1273
  654SOL    HW2 1962   1.353   3.047   0.131 -0.0582  1.0238  1.4133
  655SOL     OW 1963   0.657   2.598   1.006  0.5235  0.2923  0.0609
  655SOL    HW1 1964   0.653   2.496   1.017  2.7216 -1.4060 -1.0500
  655SOL    HW2 1965   0.681   2.641   1.093  0.8207  1.8341 -2.2063
  656SOL     OW 1966   0.498   2.927   2.077  0.1176 -0.1702  0.0814
  656SOL    HW1 1967   0.519   2.860   2.004  0.4149 -0.0094  0.3834
  656SOL    HW2 1968   0.561   2.904   2.154 -2.0291  1.0151  3.5481
  657SOL     OW 1969   1.786   0.725   2.586 -0.1279 -0.5592  0.1605
  657SOL    HW1 1970   1.864   0.779   2.564  0.9161 -1.5074  2.6043
  657SOL    HW2 1971   1.820   0.645   2.641  0.0529  0.1028 -0.0616
  658SOL     OW 1972   2.364   1.775   1.043  0.1070 -0.2890 -0.3756
  658SOL    HW1 1973   2.386   1.815   1.134 -0.9512  1.2466  1.0622
  658SOL    HW2 1974   2.378   1.678   1.035  2.4300  0.4532 -2.3681
  659SOL     OW 1975   2.830   2.706   0.130 -0.3532 -0.4734  0.0172
  659SOL    HW1 1976   2.904   2.780   0.141 -2.1116  1.1212 -1.7539
  659SOL    HW2 1977   2.738   2.735   0.170 -3.0533 -1.6619  0.6333
  660SOL     OW 1978   1.188   0.835   2.923 -0.4251 -0.6226  0.1818
  660SOL    HW1 1979   1.283   0.864   2.933 -1.7100 -1.9062 -0.6414
  660SOL    HW2 1980   1.131   0.919   2.943 -3.5759 -1.6070  2.2606
  661SOL     OW 1981   2.450   2.517   0.969  0.4903 -0.0790 -0.0532
  661SOL    HW1 1982   2.495   2.594   0.924 -0.2308 -1.9701 -0.0572
  661SOL    HW2 1983   2.516   2.442   0.980 -0.8885 -1.9515 -0.6620
  662SOL     OW 1984   0.682   0.495   0.403  0.6473 -0.0863  0.1074
  662SOL    HW1 1985   0.667   0.403   0.440 -0.9502 -0.2545  3.7920
  662SOL    HW2 1986   0.590   0.536   0.380 -3.0413 -1.0995 -0.2880
  663SOL     OW 1987   1.368   2.463   2.657 -0.2134  0.2122 -0.5703
  663SOL    HW1 1988   1.430   2.517   2.598 -0.0769 -0.2643  3.2943
  663SOL    HW2 1989   1.292   2.421   2.606 -1.6153  1.8822  0.5312
  664SOL     OW 1990   0.697   2.339   1.397 -0.0686 -0.6280 -0.3476
  664SOL    HW1 1991   0.771   2.343   1.468  0.4604 -2.1210  2.1733
  664SOL    HW2 1992   0.727   2.347   1.300 -1.2570 -0.1597 -0.6178
  665SOL     OW 1993   1.649   1.694   1.683 -0.4524 -0.0034 -0.2062
  665SOL    HW1 1994   1.625   1.644   1.771 -2.2617  0.5606 -0.3077
  665SOL    HW2 1995   1.567   1.711   1.620 -1.0359  0.3127 -0.7436
  666SOL     OW 1996   0.468   2.312   0.073  0.3472 -0.5271  0.2129
  666SOL    HW1 1997   0.398   2.365   0.022 -3.7188 -1.5175  1.6409
  666SOL    HW2 1998   0.432   2.215   0.088 -0.7823  0.4039  0.0202
  667SOL     OW 1999   1.923   1.367   1.192  0.1549  0.3411 -0.4288
  667SOL    HW1 2000   1.988   1.397   1.266 -0.7960 -0.7742  0.9928
  667SOL    HW2 2001   1.824   1.399   1.215 -3.0047  2.3152  0.8866
  668SOL     OW 2002   0.211   0.205   1.882  0.2208  0.8634  0.4098
  668SOL    HW1 2003   0.282   0.141   1.923 -0.0674 -1.1832  3.7211
  668SOL    HW2 2004   0.134   0.149   1.836 -0.5209  0.7689  0.7777
  669SOL     OW 2005   2.092   2.392   2.267 -0.4337  0.5321 -0.0707
  669SOL    HW1 2006   2.017   2.328   2.287  2.3917  1.5037 -2.0056
  669SOL    HW2 2007   2.067   2.493   2.279  3.4957  1.0318  3.5112
  670SOL     OW 2008   2.276   2.073   0.366 -0.0577 -0.3758  0.9577
  670SOL    HW1 2009   2.220   1.992   0.390 -2.6654 -0.0287  0.3214
  670SOL    HW2 2010   2.311   2.114   0.455  0.2272  1.6160 -1.2570
  671SOL     OW 2011   1.068   1.205   1.380 -0.0578  0.2169  0.1017
  671SOL    HW1 2012   1.029   1.209   1.283  0.9157  0.5050 -0.1033
  671SOL    HW2 2013   1.051   1.117   1.418  2.5182  1.9358 -2.3959
  672SOL     OW 2014   2.636   1.410   2.269 -0.4997 -0.7792 -0.7035
  672SOL    HW1 2015   2.712   1.479   2.271  0.8455  1.2389 -1.2625
  672SOL    HW2 2016   2.545   1.453   2.270  0.3071 -3.2888  0.3065
  673SOL     OW 2017   2.884   1.552   2.331  0.2624 -0.4333  0.1788
  673SOL    HW1 2018   2.874   1.622   2.405 -2.5937 -1.6528 -2.0495
  673SOL    HW2 2019   2.974   1.508   2.346  1.0618 -0.9142  1.8452
  674SOL     OW 2020   0.929   2.822   2.300  0.0821 -0.2693 -0.0709
  674SOL    HW1 2021   0.983   2.901   2.274  1.7051 -0.7633 -0.9633
  674SOL    HW2 2022   0.983   2.765   2.364  1.3274  0.4118 -0.6448
  675SOL     OW 2023   0.766   0.931   1.560  0.0041  0.5069  0.1809
  675SOL    HW1 2024   0.837   0.870   1.518  1.4880 -3.0180  2.6159
  675SOL    HW2 2025   0.789   0.944   1.660 -0.1647  1.0209  0.6743
  676SOL     OW 2026   1.894   0.695   0.492  0.3110  0.3335 -0.1345
  676SOL    HW1 2027   1.844   0.694   0.580 -0.9627  0.9357 -0.0097
  676SOL    HW2 2028   1.980   0.749   0.507 -0.5815 -1.1240 -0.8741
  677SOL     OW 2029   2.902   1.787   2.864 -0.3436 -0.9322  0.1571
  677SOL    HW1 2030   2.847   1.701   2.882  1.0145  1.1979  0.7618
  677SOL    HW2 2031   2.997   1.778   2.900 -0.7714  2.6711 -1.4523
  678SOL     OW 2032   3.034   0.024   1.177  0.5356  0.1042 -0.0478
  678SOL    HW1 2033   3.107   0.094   1.179  0.3034 -2.3423  0.8104
  678SOL    HW2 2034   3.059   3.050   1.234  1.1568 -1.5727 -2.5969
  679SOL     OW 2035   2.148   0.045   0.309  0.1192  0.1492  0.3403
  679SOL    HW1 2036   2.233   0.074   0.260  1.6994  1.0109  4.0775
  679SOL    HW2 2037   2.124   0.115   0.380  0.6973  3.4606 -1.3240
  680SOL     OW 2038   0.450   2.164   2.299  0.4830  0.0743 -0.2247
  680SOL    HW1 2039   0.525   2.109   2.335 -0.3285  2.6535  1.4417
  680SOL    HW2 2040   0.483   2.206   2.213  1.3797  0.0966  0.9563
  681SOL     OW 2041   0.140   1.556   1.229  0.6337  0.1019 -0.2441
  681SOL    HW1 2042   0.161   1.517   1.141 -1.3931 -0.8143  0.4408
  681SOL    HW2 2043   0.220   1.609   1.267  0.5982 -0.0842 -0.1549
  682SOL     OW 2044   0.440   2.361   1.693  0.8929 -0.0758 -0.0627
  682SOL    HW1 2045   0.373   2.291   1.722  2.4603  0.7272 -1.0052
  682SOL    HW2 2046   0.415   2.392   1.599  0.0727 -0.3177  1.6695
  683SOL     OW 2047   2.993   1.867   1.709  0.1987  0.2206 -0.2430
  683SOL    HW1 2048   2.997   1.911   1.617  0.0773 -0.3905 -1.6672
  683SOL    HW2 2049   3.075   1.804   1.713 -1.6080  2.2612 -1.2311
  684SOL     OW 2050   2.447   1.487   2.964  0.5807 -0.1545 -0.6154
  684SOL    HW1 2051   2.370   1.515   3.025 -0.2855  0.0430 -1.4137
  684SOL    HW2 2052   2.535   1.536   2.984  1.3060  2.6353  1.4316
  685SOL     OW 2053   1.449   1.016   0.243  0.0320 -0.0027  0.3679
  685SOL    HW1 2054   1.534   0.972   0.276 -1.0104 -0.0586 -1.8416
  685SOL    HW2 2055   1.481   1.097   0.187 -0.4282 -0.2390  0.7343
  686SOL     OW 2056   0.328   0.071   0.632 -0.1079 -0.4955 -0.2772
  686SOL    HW1 2057   0.343   3.105   0.701 -0.9814 -0.7146 -0.6241
  686SOL    HW2 2058   0.258   0.133   0.677  0.7336  1.2432 -0.0320
  687SOL     OW 2059   0.935   1.443   2.639  0.4043 -0.0902 -0.4246
  687SOL    HW1 2060   1.006   1.479   2.699  0.4463  1.3878  0.0182
  687SOL    HW2 2061   0.877   1.385   2.696  0.2278 -0.7837 -0.8076
  688SOL     OW 2062   1.436   1.704   1.523  0.1555  0.0970 -0.1242
  688SOL    HW1 2063   1.419   1.678   1.426 -0.2372  0.6501  0.7682
  688SOL    HW2 2064   1.356   1.758   1.551 -0.5543 -0.2732 -0.1859
  689SOL     OW 2065   2.342   0.274   1.361 -0.7997 -0.4122  1.0460
  689SOL    HW1 2066   2.350   0.192   1.299  1.8476  1.2899  2.9064
  689SOL    HW2 2067   2.252   0.325   1.358 -0.0378  3.1380  0.2444
  690SOL     OW 2068   3.024   1.337   1.063  0.0726 -0.1134  0.0554
  690SOL    HW1 2069   3.080   1.302   1.141  0.6233 -0.4879  2.4077
  690SOL    HW2 2070   3.014   1.271   0.986 -0.1394 -0.0187  2.7255
  691SOL     OW 2071   0.389   2.222   1.063  0.6963  0.2612  0.0340
  691SOL    HW1 2072   0.487   2.247   1.041 -0.4340  0.7594 -0.7780
  691SOL    HW2 2073   0.381   2.137   1.122 -0.5131  1.1936 -0.9449
  692SOL     OW 2074   2.401   0.306   1.614  0.4717  0.2431  0.4540
  692SOL    HW1 2075   2.402   0.299   1.508 -0.7154  0.3917  0.2564
  692SOL    HW2 2076   2.317   0.251   1.651 -2.0517 -0.1228  1.4697
  693SOL     OW 2077   0.138   1.721   2.361 -0.5975 -0.0819 -0.6718
  693SOL    HW1 2078   0.126   1.688   2.456 -1.2938 -0.3599  0.2965
  693SOL    HW2 2079   0.063   1.779   2.324 -0.4490 -2.5626 -1.4787
  694SOL     OW 2080   1.947   1.412   1.606 -0.3314  0.3306 -0.1822
  694SOL    HW1 2081   1.878   1.338   1.598  1.6772  0.5351 -0.7358
  694SOL    HW2 2082   2.031   1.371   1.648  3.7948 -2.2507  0.1868
  695SOL     OW 2083   0.590   0.795   1.234  0.4139  0.8895  0.3770
  695SOL    HW1 2084   0.572   0.894   1.242  0.8642  0.4644 -1.0207
  695SOL    HW2 2085   0.649   0.761   1.313 -0.4551  1.2216  3.4253
  696SOL     OW 2086   1.618   0.052   0.887  0.2337 -0.1410  0.7207
  696SOL    HW1 2087   1.674   0.110   0.947  1.0340  1.6465 -2.0919
  696SOL    HW2 2088   1.669   3.083   0.849  1.5337 -0.1879  1.3067
  697SOL     OW 2089   1.067   0.382   1.245 -0.2764  0.1380 -0.2780
  697SOL    HW1 2090   1.081   0.347   1.341 -0.7033  0.4771  1.0778
  697SOL    HW2 2091   1.119   0.327   1.173  1.2675  1.4024 -0.3421
  698SOL     OW 2092   1.425   1.020   2.147 -0.2570 -0.4578  0.3085
  698SOL    HW1 2093   1.413   0.929   2.191  0.9747  0.8796 -0.3764
  698SOL    HW2 2094   1.492   1.072   2.205  1.6342 -1.5879  1.5825
  699SOL     OW 2095   1.823   0.671   1.364  0.2908 -0.6283 -0.0428
  699SOL    HW1 2096   1.782   0.761   1.380 -1.0642  0.3133  0.1016
  699SOL    HW2 2097   1.923   0.675   1.368  1.1972 -0.9269 -1.0239
  700SOL     OW 2098   1.072   2.588   0.214  0.3253 -0.1670  0.1566
  700SOL    HW1 2099   1.011   2.641   0.280 -0.0856 -1.5456  1.2784
  700SOL    HW2 2100   1.040   2.489   0.201 -0.1313 -1.3085 -0.9190
  701SOL     OW 2101   2.372   2.521   2.875 -0.0163 -0.1068  0.6218
  701SOL    HW1 2102   2.275   2.549   2.860 -1.0457  3.1049  3.0087
  701SOL    HW2 2103   2.380   2.485   2.973 -0.8797  1.8359  1.8576
  702SOL     OW 2104   0.621   0.278   0.951 -0.0302 -0.1402  0.3427
  702SOL    HW1 2105   0.676   0.294   1.034 -0.4759  1.6306 -0.9734
  702SOL    HW2 2106   0.675   0.308   0.867  1.2482  1.1081  1.6343
  703SOL     OW 2107   2.419   0.087   2.437  0.2207  0.1484  0.4478
  703SOL    HW1 2108   2.473   0.020   2.383 -0.6269  1.2990 -0.1936
  703SOL    HW2 2109   2.408   0.180   2.399 -0.5860  3.3520 -1.0575
  704SOL     OW 2110   2.855   2.431   0.490 -0.1408  0.2766  0.1610
  704SOL    HW1 2111   2.842   2.466   0.586  0.6334  0.9474 -0.0021
  704SOL    HW2 2112   2.906   2.344   0.492  0.0831 -0.7805  0.6243
  705SOL     OW 2113   2.830   2.793   2.169  0.1324  0.4137  0.7696
  705SOL    HW1 2114   2.779   2.707   2.191 -1.2419  0.2534  1.1113
  705SOL    HW2 2115   2.834   2.861   2.246 -0.4419 -1.5044 -1.2858
  706SOL     OW 2116   2.031   2.877   1.245 -0.4251  0.3029 -0.3741
  706SOL    HW1 2117   1.940   2.860   1.213  1.7727 -1.7286  1.5534
  706SOL    HW2 2118   2.063   2.788   1.283 -2.6115  1.8064  1.1724
  707SOL     OW 2119   0.888   2.673   2.074  0.2564 -0.2856 -0.2213
  707SOL    HW1 2120   0.982   2.644   2.040  0.7599 -3.2363  1.5077
  707SOL    HW2 2121   0.897   2.720   2.168 -0.4662 -1.9057  3.6165
  708SOL     OW 2122   0.232   2.033   2.104  0.0545  0.5116 -0.6443
  708SOL    HW1 2123   0.306   2.027   2.168  1.5823  0.0149  1.4523
  708SOL    HW2 2124   0.236   2.127   2.064 -1.4403 -0.4331  0.3136
  709SOL     OW 2125   1.920   0.200   1.752 -0.3287 -0.0075 -0.7261
  709SOL    HW1 2126   1.848   0.273   1.763 -0.9988 -0.3389 -2.1888
  709SOL    HW2 2127   1.938   0.146   1.838  0.0770  2.1111  1.6032
  710SOL     OW 2128   1.345   0.448   2.766 -0.3792  0.0604  0.1409
  710SOL    HW1 2129   1.378   0.402   2.848 -0.8481  2.8527 -3.3974
  710SOL    HW2 2130   1.420   0.508   2.732  0.4269  0.4578  1.8699
  711SOL     OW 2131   1.014   1.776   2.668 -0.0712  0.1404  0.6669
  711SOL    HW1 2132   1.008   1.832   2.751  0.7017  0.1815 -1.0125
  711SOL    HW2 2133   1.104   1.782   2.622  1.0752  0.3927  0.9273
  712SOL     OW 2134   0.945   2.453   2.566  0.3115 -0.1407 -0.7558
  712SOL    HW1 2135   0.946   2.454   2.669 -2.6512 -0.8674 -1.3152
  712SOL    HW2 2136   0.858   2.416   2.536  2.3372  0.9113  0.6722
  713SOL     OW 2137   1.877   1.270   2.595 -0.3047 -0.5277 -0.3368
  713SOL    HW1 2138   1.965   1.247   2.637 -1.4547 -1.2939 -0.5901
  713SOL    HW2 2139   1.869   1.371   2.574 -0.3426 -0.0283  1.4845
  714SOL     OW 2140   1.165   1.598   2.019 -0.4132  0.0695 -0.2668
  714SOL    HW1 2141   1.109   1.659   1.965  2.1792 -1.9419  0.9673
  714SOL    HW2 2142   1.210   1.526   1.961 -0.0382  0.0482 -0.6997
  715SOL     OW 2143   2.018   0.185   2.663  0.1415 -0.7165 -0.2851
  715SOL    HW1 2144   2.034   0.088   2.694  2.1195  0.0525 -0.3761
  715SOL    HW2 2145   1.926   0.224   2.689 -0.0504  1.8196 -1.4396
  716SOL     OW 2146   3.049   2.246   1.300  0.7471 -0.3550 -0.0651
  716SOL    HW1 2147   3.017   2.312   1.373  2.5356  1.2816  0.4301
  716SOL    HW2 2148   3.059   2.291   1.213 -1.2892  0.3093  0.5316
  717SOL     OW 2149   2.698   1.252   0.744 -0.4417  0.0578 -0.5700
  717SOL    HW1 2150   2.662   1.229   0.835 -2.2349  1.6116 -0.0952
  717SOL    HW2 2151   2.657   1.200   0.672 -1.3603 -0.3029  0.5706
  718SOL     OW 2152   1.209   2.025   2.076  0.3066  0.1360 -0.2473
  718SOL    HW1 2153   1.282   2.088   2.107  0.5117 -2.7643  0.1227
  718SOL    HW2 2154   1.178   1.960   2.150 -1.6720  1.1615 -1.0212
  719SOL     OW 2155   2.093   0.660   2.802 -0.1324  0.1903  0.2440
  719SOL    HW1 2156   2.023   0.588   2.803 -0.7536 -3.3774 -3.1158
  719SOL    HW2 2157   2.180   0.631   2.843  0.2743  0.3400  0.1846
  720SOL     OW 2158   0.812   0.372   1.141 -0.3151  0.2972 -0.0712
  720SOL    HW1 2159   0.742   0.370   1.219 -1.3504 -2.2526  2.0078
  720SOL    HW2 2160   0.911   0.364   1.177  3.9014 -0.5953 -1.0788
  721SOL     OW 2161   2.663   1.053   0.516 -0.7370  0.3034  0.4621
  721SOL    HW1 2162   2.682   1.052   0.416 -2.3043  1.8274  1.2353
  721SOL    HW2 2163   2.715   0.980   0.563 -4.1238  0.1361  0.9770
  722SOL     OW 2164   3.073   0.130   2.585  0.1252  0.1976 -0.0617
  722SOL    HW1 2165   2.988   0.177   2.548  3.0940 -0.0833 -1.8389
  722SOL    HW2 2166   0.037   0.198   2.608  0.3999  0.4172  1.1568
  723SOL     OW 2167   1.620   0.433   0.474  0.0632 -0.2218 -0.0638
  723SOL    HW1 2168   1.647   0.403   0.565 -0.5754 -0.0963  1.7736
  723SOL    HW2 2169   1.518   0.436   0.470  0.0690 -2.3572 -4.1943
  724SOL     OW 2170   0.856   1.779   2.251 -0.0145  0.2101 -1.2920
  724SOL    HW1 2171   0.867   1.680   2.227  0.4047  0.8941 -0.0033
  724SOL    HW2 2172   0.840   1.785   2.353 -0.9135 -1.7946  2.3784
  725SOL     OW 2173   1.501   2.961   1.036 -0.2764  0.5436 -0.7144
  725SOL    HW1 2174   1.494   3.014   1.127  0.1900  0.9352  2.8488
  725SOL    HW2 2175   1.545   3.022   0.974 -0.7037 -2.6502  0.1866
  726SOL     OW 2176   2.170   2.753   0.181  0.0029  0.4598 -0.1267
  726SOL    HW1 2177   2.190   2.732   0.281  3.0353  1.0450  3.0015
  726SOL    HW2 2178   2.251   2.739   0.125  0.2101  1.4102  0.8813
  727SOL     OW 2179   1.322   1.764   0.862  0.0551  0.4731 -0.0644
  727SOL    HW1 2180   1.229   1.767   0.899  0.3221  2.2610 -3.8283
  727SOL    HW2 2181   1.315   1.767   0.760 -0.7314  0.1101  2.0845
  728SOL     OW 2182   2.138   2.542   1.822  0.2821 -0.1625 -0.0726
  728SOL    HW1 2183   2.148   2.637   1.791  2.1660 -2.1598 -0.9319
  728SOL    HW2 2184   2.176   2.479   1.752  0.3417 -1.9255 -0.2603
  729SOL     OW 2185   1.897   1.917   1.465 -0.5973 -0.3146  0.2203
  729SOL    HW1 2186   1.908   1.818   1.493  4.0457 -0.4668 -1.0050
  729SOL    HW2 2187   1.933   1.925   1.373  0.8053 -2.0012  1.5260
  730SOL     OW 2188   1.482   0.742   0.113 -0.1641  0.2800 -0.3976
  730SOL    HW1 2189   1.522   0.803   0.179 -2.8476 -0.5385  0.6268
  730SOL    HW2 2190   1.552   0.669   0.084  2.9892 -3.1224 -0.8989
  731SOL     OW 2191   0.508   0.021   0.969  0.2356 -0.0840  0.3881
  731SOL    HW1 2192   0.413   0.029   1.007 -2.8613  0.8418  1.8925
  731SOL    HW2 2193   0.550   0.111   0.948 -0.7556 -0.9881  1.5666
  732SOL     OW 2194   1.378   0.388   0.810  0.1443 -0.0664 -0.4632
  732SOL    HW1 2195   1.365   0.426   0.719 -0.0653  1.4900  3.4492
  732SOL    HW2 2196   1.349   0.286   0.816 -0.1347 -2.4986  2.9113
  733SOL     OW 2197   0.905   1.518   1.240 -0.2028  0.4009  0.5083
  733SOL    HW1 2198   0.841   1.518   1.319 -0.2449 -0.3474  0.4677
  733SOL    HW2 2199   0.877   1.454   1.165  1.0668 -0.7526 -0.7322
  734SOL     OW 2200   2.804   2.697   2.939  0.8596 -0.2297 -0.3394
  734SOL    HW1 2201   2.807   2.679   3.037  2.5418 -0.0697 -0.4193
  734SOL    HW2 2202   2.725   2.642   2.895 -0.4240 -4.6049 -0.0024
  735SOL     OW 2203   1.027   2.757   1.212  0.6427 -0.3897  0.7802
  735SOL    HW1 2204   1.042   2.845   1.260 -1.7952 -2.4964  2.1692
  735SOL    HW2 2205   1.049   2.757   1.112 -0.6808  3.1001  0.3165
  736SOL     OW 2206   1.766   2.152   0.502 -0.0144  0.0209 -0.2122
  736SOL    HW1 2207   1.784   2.249   0.531  2.4699  4.0770  1.6081
  736SOL    HW2 2208   1.766   2.160   0.399 -0.3714 -1.4881  0.0703
  737SOL     OW 2209   3.042   1.715   1.364 -0.1781  0.3387 -0.1575
  737SOL    HW1 2210   0.008   1.673   1.304  2.9210 -1.7319 -2.6540
  737SOL    HW2 2211   3.053   1.814   1.395 -0.4786  1.5854  3.0743
  738SOL     OW 2212   1.985   2.257   2.591 -0.5527  0.1717  0.2863
  738SOL    HW1 2213   1.971   2.358   2.587  2.7617 -0.6763 -1.6319
  738SOL    HW2 2214   1.967   2.230   2.493 -2.1471  2.5667  0.5351
  739SOL     OW 2215   1.408   1.768   2.626  0.2291 -0.5400 -0.7491
  739SOL    HW1 2216   1.393   1.780   2.724 -1.6999 -0.8080 -1.4827
  739SOL    HW2 2217   1.422   1.855   2.576  0.8261 -3.5135  1.3130
  740SOL     OW 2218   1.225   2.999   0.961 -0.7259 -0.3575 -0.2679
  740SOL    HW1 2219   1.308   2.950   0.993  1.3450 -1.4524  3.9886
  740SOL    HW2 2220   1.152   2.944   0.913 -0.1387  1.8642 -0.1483
  741SOL     OW 2221   0.321   0.944   0.442  0.1263 -0.5036 -0.2172
  741SOL    HW1 2222   0.284   1.029   0.485 -0.4202  2.2047  2.3418
  741SOL    HW2 2223   0.421   0.952   0.432 -2.0419 -1.8120  0.5610
  742SOL     OW 2224   1.210   1.671   2.474 -0.5094 -0.4584  0.0711
  742SOL    HW1 2225   1.173   1.578   2.496  0.7791 -0.7032 -0.2538
  742SOL    HW2 2226   1.287   1.691   2.537 -0.1048  2.6667 -2.2762
  743SOL     OW 2227   1.123   0.934   2.274 -0.2239 -0.1961  0.0436
  743SOL    HW1 2228   1.153   1.024   2.306 -4.2908  2.6664 -0.0780
  743SOL    HW2 2229   1.109   0.924   2.176 -1.6329  1.8083  3.6504
  744SOL     OW 2230   2.112   3.016   1.521 -0.0075  0.7694 -0.0111
  744SOL    HW1 2231   2.052   2.933   1.526  1.7117  0.1095 -1.4476
  744SOL    HW2 2232   2.106   3.057   1.427  2.6121  1.2944 -2.1334
  745SOL     OW 2233   2.117   1.460   1.366  0.0320 -0.2060  0.1818
  745SOL    HW1 2234   2.093   1.492   1.460  0.3249 -1.0572 -0.5680
  745SOL    HW2 2235   2.215   1.455   1.347  0.0712  0.8094  0.9072
  746SOL     OW 2236   1.825   1.040   0.659  0.4803  0.7154 -0.0138
  746SOL    HW1 2237   1.843   1.093   0.573 -1.5839 -1.7455  0.8612
  746SOL    HW2 2238   1.735   0.990   0.657 -0.2164  0.4697  0.6306
  747SOL     OW 2239   2.318   1.584   0.649  0.1123  0.1840 -0.1187
  747SOL    HW1 2240   2.389   1.651   0.612 -0.4787  0.3572 -4.6291
  747SOL    HW2 2241   2.249   1.635   0.698  1.6913 -0.1961  1.1994
  748SOL     OW 2242   0.355   1.841   0.397 -0.3223  0.2441 -0.0860
  748SOL    HW1 2243   0.291   1.832   0.317 -3.4170  1.7037  0.2639
  748SOL    HW2 2244   0.422   1.758   0.392 -0.0665 -0.8383  0.0028
  749SOL     OW 2245   2.975   2.389   2.577  0.4488 -0.6054  0.1232
  749SOL    HW1 2246   2.876   2.364   2.568 -1.3632 -0.8784  0.4592
  749SOL    HW2 2247   2.985   2.467   2.649  1.5612  0.0713 -0.3035
  750SOL     OW 2248   2.135   0.837   0.558  0.5390  0.1430 -0.1801
  750SOL    HW1 2249   2.204   0.769   0.589 -1.5093 -1.6529  0.9758
  750SOL    HW2 2250   2.112   0.905   0.636 -0.3292 -0.3082  0.9740
  751SOL     OW 2251   2.613   0.139   0.073  0.0636  0.6240  0.3154
  751SOL    HW1 2252   2.636   0.099   3.087 -1.6211 -0.0030 -2.1676
  751SOL    HW2 2253   2.686   0.111   0.136  2.2289 -2.5897  1.2955
  752SOL     OW 2254   2.559   2.789   0.838 -0.5316 -0.8536  0.0466
  752SOL    HW1 2255   2.583   2.860   0.765 -3.0688  0.7447 -0.6846
  752SOL    HW2 2256   2.642   2.737   0.864 -0.7828 -0.5284  1.2065
  753SOL     OW 2257   1.670   1.168   2.253 -0.1141  0.3621  0.1331
  753SOL    HW1 2258   1.687   1.128   2.346  1.3228  1.2966  2.9043
  753SOL    HW2 2259   1.658   1.268   2.268 -0.5212  3.0672  0.0332
  754SOL     OW 2260   2.045   2.156   2.007 -0.2397 -0.9653  0.1527
  754SOL    HW1 2261   2.071   2.088   1.936 -2.1047 -1.6041 -0.3562
  754SOL    HW2 2262   2.081   2.140   2.100 -2.3704  1.6463 -0.9589
  755SOL     OW 2263   2.490   0.893   0.856  0.6276 -0.2091  0.4785
  755SOL    HW1 2264   2.574   0.836   0.837  2.5399 -0.8817  3.8432
  755SOL    HW2 2265   2.512   0.986   0.882 -1.1355 -1.8105 -1.7897
  756SOL     OW 2266   0.844   1.286   3.098  0.2533  0.0696 -0.1842
  756SOL    HW1 2267   0.847   1.314   0.090 -1.5438 -0.2544  0.1889
  756SOL    HW2 2268   0.859   1.367   3.042  0.0478 -1.7619  1.3962
  757SOL     OW 2269   1.741   2.590   1.240  0.1619  0.4055 -0.6418
  757SOL    HW1 2270   1.812   2.519   1.244  1.1097  0.3904 -0.4284
  757SOL    HW2 2271   1.675   2.569   1.167  0.2161 -2.0979 -1.8284
  758SOL     OW 2272   1.013   2.163   1.441  0.2866 -0.3643  0.0989
  758SOL    HW1 2273   1.052   2.207   1.357  1.5358  0.8732  0.5954
  758SOL    HW2 2274   0.963   2.234   1.494  1.2548 -3.0810 -0.2619
  759SOL     OW 2275   2.796   1.303   1.220 -0.4109 -0.2323 -0.3070
  759SOL    HW1 2276   2.729   1.380   1.217  1.1272 -0.0756 -0.0062
  759SOL    HW2 2277   2.873   1.330   1.160  0.7611 -1.0482  1.3356
  760SOL     OW 2278   2.047   1.017   1.569  0.0517 -0.1178 -0.9526
  760SOL    HW1 2279   2.073   0.994   1.470 -0.8696 -0.5308 -1.2392
  760SOL    HW2 2280   1.961   1.067   1.569 -0.2601  0.0474 -2.0377
  761SOL     OW 2281   1.982   2.945   0.192  0.1904 -0.2302  0.5160
  761SOL    HW1 2282   2.021   3.037   0.215  3.2282 -0.1418 -0.9007
  761SOL    HW2 2283   2.058   2.883   0.177 -2.5757  0.6984  2.0477
  762SOL     OW 2284   1.994   1.938   2.850  0.1648 -0.1173 -0.4585
  762SOL    HW1 2285   1.893   1.948   2.852  1.8306 -0.1270 -1.5603
  762SOL    HW2 2286   2.038   2.027   2.825  0.4766  1.4566 -2.3713
  763SOL     OW 2287   0.780   1.713   1.639  0.5266 -0.2335 -0.1647
  763SOL    HW1 2288   0.879   1.726   1.657  0.0313 -0.3577 -1.8167
  763SOL    HW2 2289   0.722   1.742   1.723 -1.0943  0.1282  2.3083
  764SOL     OW 2290   0.005   2.407   0.098  0.3743  0.0426 -0.1145
  764SOL    HW1 2291   3.028   2.419   0.155  0.7250 -0.1046 -0.0407
  764SOL    HW2 2292   0.018   2.478   0.029  1.9450 -1.3657  1.5092
  765SOL     OW 2293   0.642   0.158   1.436 -0.3961 -0.1519  0.2826
  765SOL    HW1 2294   0.701   0.136   1.523  0.3307 -0.8845  1.6095
  765SOL    HW2 2295   0.602   0.074   1.394  0.5172 -1.1580 -1.0350
  766SOL     OW 2296   3.058   2.028   1.973  0.0461 -0.5413 -0.2711
  766SOL    HW1 2297   0.047   2.023   1.997 -2.3175  1.4045  3.9600
  766SOL    HW2 2298   3.035   1.985   1.883 -1.5051 -0.1174 -3.1160
  767SOL     OW 2299   2.703   1.019   2.040 -0.3887  0.0666 -0.2591
  767SOL    HW1 2300   2.632   1.095   2.022 -3.3371 -2.4464 -0.3668
  767SOL    HW2 2301   2.780   1.034   1.977 -1.1740  2.5907  3.4752
  768SOL     OW 2302   0.827   0.312   2.643  0.6421 -0.2734  0.6670
  768SOL    HW1 2303   0.757   0.235   2.649 -1.1181  1.9248 -1.0279
  768SOL    HW2 2304   0.857   0.344   2.738 -1.1855  0.5674 -0.3169
  769SOL     OW 2305   2.320   2.901   0.945  0.4699  0.2548  0.0881
  769SOL    HW1 2306   2.395   2.861   0.889 -1.1857 -0.1289 -0.2870
  769SOL    HW2 2307   2.242   2.941   0.886 -0.7576 -1.0121 -2.8565
  770SOL     OW 2308   0.002   2.987   2.497 -0.3575 -0.0926 -0.1152
  770SOL    HW1 2309   3.098   3.083   2.529  0.3324  1.5405  0.1284
  770SOL    HW2 2310   0.102   2.958   2.480  3.6140 -0.2936 -1.0861
  771SOL     OW 2311   1.665   2.125   2.177 -0.8133 -0.5198  0.1693
  771SOL    HW1 2312   1.712   2.161   2.093  2.6989 -1.7779  0.7225
  771SOL    HW2 2313   1.662   2.024   2.174  0.0691  3.6371  1.5955
  772SOL     OW 2314   1.328   0.253   0.052 -0.0425  0.2406  0.1429
  772SOL    HW1 2315   1.231   0.254   0.024  1.1542 -0.5730  1.1031
  772SOL    HW2 2316   1.377   0.301   3.089 -0.5685 -1.4773  0.6233
  773SOL     OW 2317   2.651   0.736   1.765 -0.0245  0.2988 -0.1442
  773SOL    HW1 2318   2.739   0.719   1.720 -1.5320  2.2331 -2.0161
  773SOL    HW2 2319   2.632   0.837   1.771  2.6076 -0.3214  2.2942
  774SOL     OW 2320   1.103   1.142   1.075 -0.2896 -0.5456  0.4427
  774SOL    HW1 2321   1.142   1.051   1.060 -0.3702  0.2998  1.0733
  774SOL    HW2 2322   1.132   1.202   1.000 -0.1647  0.1256  1.1723
  775SOL     OW 2323   2.266   0.024   2.911  0.0024  0.1797  0.2315
  775SOL    HW1 2324   2.323   0.086   2.849  5.3036 -1.3043 -2.3084
  775SOL    HW2 2325   2.307   3.050   2.956  1.3216  2.5781 -1.3795
  776SOL     OW 2326   2.475   1.156   1.956  0.5081 -0.2018  0.0787
  776SOL    HW1 2327   2.383   1.153   2.007 -0.0269  0.2800  1.7520
  776SOL    HW2 2328   2.478   1.243   1.902 -1.9811 -0.0660  2.3416
  777SOL     OW 2329   0.250   1.143   2.339  0.1976 -0.1094  0.3168
  777SOL    HW1 2330   0.280   1.079   2.268  0.6224  1.4546 -1.6518
  777SOL    HW2 2331   0.279   1.240   2.318  1.3727 -0.2337 -1.3529
  778SOL     OW 2332   0.444   0.706   0.011  0.2481 -0.3318 -0.1438
  778SOL    HW1 2333   0.425   0.620   3.063  0.1659 -0.3733  0.8505
  778SOL    HW2 2334   0.433   0.791   3.065 -3.1586 -0.2184  1.8622
  779SOL     OW 2335   0.720   0.249   2.337 -0.5365  0.2748 -1.0236
  779SOL    HW1 2336   0.801   0.210   2.389 -0.9119  2.1974 -1.3237
  779SOL    HW2 2337   0.640   0.185   2.322 -0.7799 -0.4002 -1.1429
  780SOL     OW 2338   2.136   1.075   2.712  0.3235  0.3576 -0.1644
  780SOL    HW1 2339   2.192   1.151   2.752  2.4197 -0.5102  0.4993
  780SOL    HW2 2340   2.148   1.075   2.612 -2.1899 -0.7518  4.2322
  781SOL     OW 2341   2.935   1.016   1.855 -0.3076 -0.0235 -0.1498
  781SOL    HW1 2342   3.007   1.000   1.787 -0.5773 -0.7533 -0.1305
  781SOL    HW2 2343   2.937   0.939   1.922 -1.2272 -0.3388 -0.0983
  782SOL     OW 2344   0.533   1.444   2.770  0.5761  0.3146  0.4597
  782SOL    HW1 2345   0.479   1.447   2.854 -0.5250  2.5409 -1.0168
  782SOL    HW2 2346   0.601   1.514   2.768 -3.6420 -1.8737 -2.6477
  783SOL     OW 2347   1.067   2.223   1.189  0.1389  0.6499 -0.2338
  783SOL    HW1 2348   1.113   2.307   1.150  1.5334  0.8482  0.1779
  783SOL    HW2 2349   1.095   2.146   1.131 -3.6247 -2.7300 -1.1255
  784SOL     OW 2350   1.523   0.395   2.979 -0.4157  0.3513  0.1764
  784SOL    HW1 2351   1.583   0.339   3.035 -2.2406  1.2686  0.3659
  784SOL    HW2 2352   1.570   0.478   2.943 -0.3854  2.0959  0.3780
  785SOL     OW 2353   0.716   0.053   1.881  0.3552  0.2407 -0.1920
  785SOL    HW1 2354   0.748   3.074   1.928  1.1942 -1.5457  1.8556
  785SOL    HW2 2355   0.749   0.062   1.787 -0.1419 -2.6128  1.8308
  786SOL     OW 2356   0.385   2.086   0.498  0.0260 -0.0841 -0.3532
  786SOL    HW1 2357   0.394   1.994   0.453  1.7368 -1.3086  0.4567
  786SOL    HW2 2358   0.432   2.089   0.587 -1.0192  1.1898  1.8534
  787SOL     OW 2359   1.171   0.742   0.515 -0.1441 -0.1932 -0.0578
  787SOL    HW1 2360   1.185   0.819   0.452 -0.6532 -2.0804  1.4567
  787SOL    HW2 2361   1.082   0.697   0.501  0.3251 -1.9096  1.4566
  788SOL     OW 2362   2.613   1.527   1.262  0.1931  0.5187 -0.1739
  788SOL    HW1 2363   2.682   1.572   1.325  2.4946  1.2612  1.7718
  788SOL    HW2 2364   2.532   1.514   1.321 -0.2376  0.2116 -1.8610
  789SOL     OW 2365   2.635   1.155   2.305 -0.1714  0.2891  0.1788
  789SOL    HW1 2366   2.679   1.121   2.220  1.0395 -2.0833 -2.6492
  789SOL    HW2 2367   2.640   1.255   2.304  0.8546 -1.2831 -0.0003
  790SOL     OW 2368   0.622   0.188   0.119  0.6601  0.0570  0.3011
  790SOL    HW1 2369   0.673   0.103   0.152 -2.3381  0.9161 -0.0238
  790SOL    HW2 2370   0.684   0.267   0.135  0.6981 -1.6328  3.3852
  791SOL     OW 2371   0.066   0.488   3.032  0.4514  0.8458  0.4202
  791SOL    HW1 2372   3.108   0.423   3.078 -3.3991 -1.5856  0.7172
  791SOL    HW2 2373   0.132   0.524   3.098 -0.9793 -1.8812  1.2587
  792SOL     OW 2374   1.541   0.602   2.659  0.0262  0.1983 -0.1434
  792SOL    HW1 2375   1.489   0.689   2.638 -0.4382  2.7429 -0.4612
  792SOL    HW2 2376   1.636   0.611   2.627 -0.3771 -1.3854 -2.7053
  793SOL     OW 2377   2.951   0.163   0.776  0.3798 -0.1350  0.3942
  793SOL    HW1 2378   2.949   0.227   0.694 -0.6354 -1.4908 -1.7459
  793SOL    HW2 2379   2.951   0.214   0.866  0.6483  0.5513  0.5809
  794SOL     OW 2380   0.206   0.732   2.047  0.3234  0.0209  0.0054
  794SOL    HW1 2381   0.227   0.772   1.954 -1.0020  2.3308 -0.8966
  794SOL    HW2 2382   0.121   0.678   2.026 -0.8812  0.5795 -2.4030
  795SOL     OW 2383   0.261   1.217   0.229  0.5269 -0.8018 -0.1466
  795SOL    HW1 2384   0.336   1.159   0.196 -0.5298  2.4683 -2.0429
  795SOL    HW2 2385   0.228   1.200   0.325 -1.9975 -1.8641 -1.0906
  796SOL     OW 2386   0.013   0.904   0.077 -0.3794 -0.0317  0.6544
  796SOL    HW1 2387   0.015   0.812   0.124  1.8265  1.3027 -0.6312
  796SOL    HW2 2388   0.088   0.915   0.003  1.7047 -3.7521  1.3437
  797SOL     OW 2389   1.694   2.641   2.704  0.2516 -0.5250  0.0865
  797SOL    HW1 2390   1.685   2.722   2.764  0.0927 -2.8389 -1.6381
  797SOL    HW2 2391   1.635   2.646   2.620 -0.0067 -0.5142 -0.4190
  798SOL     OW 2392   0.115   0.263   1.142 -0.1932 -0.2885 -0.0270
  798SOL    HW1 2393   0.025   0.305   1.156  1.3275 -0.6461 -1.7405
  798SOL    HW2 2394   0.180   0.316   1.202 -0.1905 -2.8568  0.5888
  799SOL     OW 2395   2.130   0.798   2.050 -0.2844 -0.0367 -0.2010
  799SOL    HW1 2396   2.217   0.817   2.108  3.5419  0.1455  1.8520
  799SOL    HW2 2397   2.153   0.741   1.973 -4.7760  1.8746  1.0326
  800SOL     OW 2398   3.107   1.798   0.405 -0.2485  0.1830 -0.4478
  800SOL    HW1 2399   0.090   1.838   0.429  0.0004  0.1237 -0.3577
  800SOL    HW2 2400   3.103   1.698   0.419  1.5581  1.2303  0.7132
  801SOL     OW 2401   1.494   2.031   0.689  1.0596  0.0765  0.4530
  801SOL    HW1 2402   1.550   1.983   0.618 -0.5701  3.3889  1.5962
  801SOL    HW2 2403   1.545   2.043   0.771 -0.4002 -1.2193 -0.5238
  802SOL     OW 2404   1.601   1.609   3.091  0.1838 -0.5166 -0.0595
  802SOL    HW1 2405   1.531   1.594   0.056 -0.4870  0.4455 -4.0354
  802SOL    HW2 2406   1.604   1.524   3.032  0.0508 -0.4986  3.2344
  803SOL     OW 2407   0.539   1.932   1.698 -0.2513  0.1075 -0.4803
  803SOL    HW1 2408   0.551   2.003   1.628  1.4690 -1.1410 -0.0712
  803SOL    HW2 2409   0.463   1.872   1.680  2.6542  0.6953  3.6148
  804SOL     OW 2410   1.444   2.470   1.162 -0.1863  0.6226  0.3648
  804SOL    HW1 2411   1.523   2.407   1.151 -2.0050  0.4806 -0.6559
  804SOL    HW2 2412   1.464   2.550   1.099  0.3079 -1.0484 -1.6166
  805SOL     OW 2413   2.419   2.384   2.638  0.0889 -0.0544  0.6059
  805SOL    HW1 2414   2.513   2.390   2.595 -0.4085  1.2185  0.5893
  805SOL    HW2 2415   2.401   2.447   2.720 -1.5163  2.1258 -0.2956
  806SOL     OW 2416   2.629   2.965   0.637 -0.6726 -1.6008 -0.7335
  806SOL    HW1 2417   2.641   3.068   0.653  0.3648 -1.4195 -0.2530
  806SOL    HW2 2418   2.711   2.930   0.589 -1.4119 -0.0381 -1.9547
  807SOL     OW 2419   0.267   0.978   2.612  1.2025 -0.2222  0.3871
  807SOL    HW1 2420   0.317   0.996   2.528  1.3430 -0.6303  1.3245
  807SOL    HW2 2421   0.167   0.966   2.599  1.2967  2.1408  0.9392
  808SOL     OW 2422   0.705   1.717   0.669 -0.1957  0.3799 -0.2961
  808SOL    HW1 2423   0.659   1.628   0.652  1.8026  0.2196  1.2992
  808SOL    HW2 2424   0.677   1.787   0.603 -0.8005 -2.8870 -1.3363
  809SOL     OW 2425   2.700   3.080   1.891 -0.1978  0.3195  0.0093
  809SOL    HW1 2426   2.653   0.014   1.812  0.6995  0.0116 -3.3155
  809SOL    HW2 2427   2.642   3.086   1.975  0.0461 -1.0304 -0.0401
  810SOL     OW 2428   1.479   0.744   1.210 -0.2942  0.6381  0.4658
  810SOL    HW1 2429   1.518   0.711   1.125 -0.0655  0.4780 -1.2330
  810SOL    HW2 2430   1.460   0.841   1.196 -1.5271 -0.1156  0.5336
  811SOL     OW 2431   1.929   0.043   1.972  0.6339  0.2851 -0.5670
  811SOL    HW1 2432   1.948   3.055   1.996 -0.1599  2.0372 -2.5146
  811SOL    HW2 2433   1.839   0.082   2.004 -0.9625 -0.6368 -0.8938
  812SOL     OW 2434   1.930   2.102   0.733 -0.0939  0.6583  0.2090
  812SOL    HW1 2435   1.877   2.118   0.649 -0.3553 -0.4783  2.9609
  812SOL    HW2 2436   1.905   2.013   0.774  1.1257 -1.8145  1.7464
  813SOL     OW 2437   1.174   0.463   1.712  0.6705  0.3662  0.0101
  813SOL    HW1 2438   1.103   0.431   1.776 -0.1638 -0.1792  0.7208
  813SOL    HW2 2439   1.198   0.552   1.746  0.8991  3.1607  0.6977
  814SOL     OW 2440   0.274   0.063   1.060  0.2309  0.3008  0.2987
  814SOL    HW1 2441   0.222   3.085   1.032 -0.8541 -0.7048 -0.4742
  814SOL    HW2 2442   0.214   0.142   1.094 -3.0241 -0.2073 -1.1154
  815SOL     OW 2443   0.219   0.077   0.386 -0.4086  0.0324  0.0874
  815SOL    HW1 2444   0.163   3.104   0.368 -0.9454  0.6030  0.3592
  815SOL    HW2 2445   0.281   0.065   0.466  0.4639  0.8940 -1.9089
  816SOL     OW 2446   2.309   1.772   2.430  0.0230  0.6620  0.5150
  816SOL    HW1 2447   2.262   1.788   2.341  0.1164  0.7327 -1.5290
  816SOL    HW2 2448   2.264   1.810   2.512 -1.7120  0.2171  0.3131
  817SOL     OW 2449   0.978   3.029   0.679  0.0661 -0.4744 -0.2503
  817SOL    HW1 2450   1.043   3.097   0.642 -0.9765 -0.3835  1.6377
  817SOL    HW2 2451   1.029   2.953   0.727  0.2137 -2.6749 -0.1162
  818SOL     OW 2452   1.822   0.394   3.012  0.3006 -0.3631 -0.9253
  818SOL    HW1 2453   1.833   0.295   3.032 -1.6595  0.4477  0.4686
  818SOL    HW2 2454   1.863   0.428   2.925 -2.4175 -2.1970 -1.0972
  819SOL     OW 2455   2.314   0.137   0.066 -0.2378 -0.5078  0.5820
  819SOL    HW1 2456   2.404   0.119   0.109 -0.3616 -0.6011 -3.6330
  819SOL    HW2 2457   2.306   0.090   3.086  1.2154 -1.3132  1.9177
  820SOL     OW 2458   1.969   0.894   2.873  0.0277 -0.2122 -0.0224
  820SOL    HW1 2459   2.014   0.802   2.852  2.6594 -1.1759 -0.4109
  820SOL    HW2 2460   2.024   0.959   2.820  0.2563 -0.0678 -0.7443
  821SOL     OW 2461   2.953   0.344   0.983 -0.5613 -0.0736  0.0208
  821SOL    HW1 2462   2.866   0.323   1.031 -0.2534  1.6484 -3.4942
  821SOL    HW2 2463   2.979   0.440   0.986 -1.6020 -1.2506 -3.0920
  822SOL     OW 2464   1.083   2.688   2.487 -0.2630  0.2122  0.2051
  822SOL    HW1 2465   1.036   2.606   2.522 -1.5377 -0.4651  1.1366
  822SOL    HW2 2466   1.132   2.746   2.557  0.8450  0.2158 -0.7471
  823SOL     OW 2467   0.387   1.489   1.823 -0.2341  0.5302 -0.4533
  823SOL    HW1 2468   0.401   1.389   1.847  0.6484 -1.9952 -2.2552
  823SOL    HW2 2469   0.397   1.542   1.909 -1.0889 -1.7969  1.7688
  824SOL     OW 2470   1.543   2.616   2.486 -0.0879  0.4708 -1.2689
  824SOL    HW1 2471   1.602   2.558   2.428 -0.2972  2.1497  0.3963
  824SOL    HW2 2472   1.471   2.649   2.430  2.1960 -0.4866  0.2884
  825SOL     OW 2473   1.675   0.899   0.293  0.0510  0.5074  0.1594
  825SOL    HW1 2474   1.694   0.812   0.340 -0.6839 -1.5460  0.1342
  825SOL    HW2 2475   1.762   0.935   0.255 -3.0707 -2.1318 -0.8640
  826SOL     OW 2476   2.127   0.736   0.143  0.0454  0.2579 -0.1488
  826SOL    HW1 2477   2.057   0.766   0.075 -0.3293  0.3974  0.9798
  826SOL    HW2 2478   2.224   0.775   0.133  1.3199  0.0998 -0.9033
  827SOL     OW 2479   0.754   1.640   2.773 -0.4919 -0.0500  0.1848
  827SOL    HW1 2480   0.755   1.731   2.818 -0.1142  0.3185  2.2843
  827SOL    HW2 2481   0.840   1.623   2.721 -1.6661 -3.0095 -1.6481
  828SOL     OW 2482   2.369   1.239   1.407  0.4201 -0.2589  0.1442
  828SOL    HW1 2483   2.392   1.327   1.454 -1.5540 -4.8416 -1.2081
  828SOL    HW2 2484   2.442   1.168   1.389  2.5057  0.7361 -0.3030
  829SOL     OW 2485   0.375   1.597   0.804 -0.1988  0.0025 -0.2779
  829SOL    HW1 2486   0.407   1.656   0.727 -1.4345  1.0285  2.9181
  829SOL    HW2 2487   0.453   1.551   0.858 -0.9374 -3.3476 -0.8102
  830SOL     OW 2488   1.342   0.994   1.178 -0.1134  0.1450 -0.5385
  830SOL    HW1 2489   1.383   1.049   1.104 -0.4880 -1.7022 -1.8056
  830SOL    HW2 2490   1.361   1.027   1.273 -2.2455  1.1297 -0.3908
  831SOL     OW 2491   0.239   1.826   0.148 -0.3715  0.3049 -0.1796
  831SOL    HW1 2492   0.140   1.816   0.133  0.1676 -0.9504 -1.7560
  831SOL    HW2 2493   0.293   1.767   0.083  0.4158 -1.6774  0.4485
  832SOL     OW 2494   0.785   0.397   0.168  0.1452  0.3627  0.6500
  832SOL    HW1 2495   0.736   0.424   0.256 -0.3861 -1.3873 -1.3697
  832SOL    HW2 2496   0.886   0.419   0.170  1.6528  2.3001  0.0793
  833SOL     OW 2497   0.645   0.504   2.047 -0.1657  0.8272  0.3459
  833SOL    HW1 2498   0.622   0.586   1.989 -2.6687 -2.1693  3.1063
  833SOL    HW2 2499   0.703   0.440   1.993 -1.8800 -1.9903 -0.2802
  834SOL     OW 2500   0.162   0.234   0.778  0.4043  0.3321 -0.4314
  834SOL    HW1 2501   0.065   0.261   0.792 -0.7574 -0.6130 -0.1976
  834SOL    HW2 2502   0.220   0.266   0.854  0.0693  1.0182 -1.0389
  835SOL     OW 2503   2.587   3.079   0.992 -0.4275 -0.1927 -0.3981
  835SOL    HW1 2504   2.564   2.981   1.000  0.6185  0.4275 -1.7339
  835SOL    HW2 2505   2.691   3.091   1.003  0.9531 -0.4953  1.4671
  836SOL     OW 2506   0.525   2.016   2.929 -0.4417  0.6433 -0.0819
  836SOL    HW1 2507   0.547   2.107   2.887  1.0752  0.2226 -0.9864
  836SOL    HW2 2508   0.476   2.028   3.017 -2.2977  2.0720 -0.5800
  837SOL     OW 2509   1.718   1.623   2.801  0.1038 -0.6019  0.1182
  837SOL    HW1 2510   1.815   1.642   2.779 -0.0175 -0.3071 -1.5497
  837SOL    HW2 2511   1.714   1.540   2.863  1.3540 -3.3509 -0.6442
  838SOL     OW 2512   0.016   0.983   1.641 -0.3671  0.1600  0.2551
  838SOL    HW1 2513   3.081   1.038   1.561 -0.7225  1.8341 -0.9784
  838SOL    HW2 2514   0.106   1.026   1.670 -1.5547  1.0881 -0.4008
  839SOL     OW 2515   0.780   0.994   1.056 -0.3083  0.3466 -0.2344
  839SOL    HW1 2516   0.840   1.076   1.059  0.8541  4.0771 -0.6653
  839SOL    HW2 2517   0.833   0.915   1.026 -0.3174  0.1352 -0.0000
  840SOL     OW 2518   1.475   2.773   1.638  0.2444  0.3333  0.3417
  840SOL    HW1 2519   1.522   2.709   1.581 -2.7585  1.0807 -0.9561
  840SOL    HW2 2520   1.424   2.840   1.584 -3.0138 -0.0160  0.8056
  841SOL     OW 2521   0.521   2.591   0.382 -0.1901  0.0767  0.0204
  841SOL    HW1 2522   0.456   2.669   0.396  1.1964 -0.9419  3.0562
  841SOL    HW2 2523   0.481   2.495   0.395 -0.2623 -1.4551 -0.5609
  842SOL     OW 2524   0.556   0.553   0.784 -0.4115  0.3683 -0.4942
  842SOL    HW1 2525   0.557   0.624   0.854 -0.0874 -1.5686 -0.3926
  842SOL    HW2 2526   0.644   0.497   0.781 -1.3440  0.7824 -0.0721
  843SOL     OW 2527   0.899   1.494   2.217  0.1864 -0.3843  0.5980
  843SOL    HW1 2528   0.821   1.464   2.283 -2.9936 -0.8705  0.2257
  843SOL    HW2 2529   0.989   1.449   2.244 -0.9907 -0.0117  1.2330
  844SOL     OW 2530   1.144   2.341   3.059  0.5205  0.6167  0.0471
  844SOL    HW1 2531   1.180   2.247   3.037  0.3676 -3.3588 -0.8206
  844SOL    HW2 2532   1.208   2.414   3.023  1.2254  0.4621  1.3395
  845SOL     OW 2533   2.260   2.627   2.418 -0.1822 -0.4726 -0.0453
  845SOL    HW1 2534   2.302   2.665   2.335 -3.6664 -3.2806  0.7454
  845SOL    HW2 2535   2.307   2.544   2.442  2.9016  0.3217 -1.2416
  846SOL     OW 2536   1.787   2.063   0.008 -0.0938  0.6062 -0.7174
  846SOL    HW1 2537   1.728   2.100   3.044  0.5256  2.0913 -1.0457
  846SOL    HW2 2538   1.782   1.959   0.010  1.2171 -1.1587  0.2399
  847SOL     OW 2539   1.830   2.897   2.974 -0.1193 -0.2921 -0.0104
  847SOL    HW1 2540   1.902   2.959   2.928  1.9587  1.2979  1.1132
  847SOL    HW2 2541   1.873   2.822   3.025 -1.6379 -0.2016 -2.3037
  848SOL     OW 2542   0.317   0.485   0.659 -0.0584 -0.3306 -0.3281
  848SOL    HW1 2543   0.397   0.521   0.715  0.0205  0.1310  1.4852
  848SOL    HW2 2544   0.297   0.390   0.678 -1.2514 -2.1240  0.7291
  849SOL     OW 2545   1.113   2.876   1.509 -0.6010  0.0519  0.1277
  849SOL    HW1 2546   1.027   2.921   1.538  2.4646 -1.0372 -1.8741
  849SOL    HW2 2547   1.197   2.933   1.510  1.6140  1.2351  0.2926
  850SOL     OW 2548   0.507   1.606   0.342  0.0181 -0.3980  0.5218
  850SOL    HW1 2549   0.489   1.575   0.239  0.6063 -0.7986 -4.2300
  850SOL    HW2 2550   0.608   1.618   0.351  0.8497  2.1525  2.8399
  851SOL     OW 2551   0.167   0.951   0.714 -0.3276  0.1475  0.0642
  851SOL    HW1 2552   0.168   0.899   0.629  0.0564  2.4979  0.1633
  851SOL    HW2 2553   0.085   0.927   0.774 -0.5795 -0.6982  1.1721
  852SOL     OW 2554   1.816   2.448   1.607 -0.5644 -0.0218 -0.1218
  852SOL    HW1 2555   1.824   2.362   1.664 -0.4154 -0.8033 -0.7632
  852SOL    HW2 2556   1.875   2.432   1.522  1.4031 -1.4796 -2.1695
  853SOL     OW 2557   0.235   1.511   0.245  0.1420 -0.2826 -0.0900
  853SOL    HW1 2558   0.191   1.548   0.329  1.2669  0.5297 -1.5618
  853SOL    HW2 2559   0.232   1.408   0.246 -2.2629  3.3190  1.4814
  854SOL     OW 2560   1.705   1.160   1.853 -0.0214 -0.0742 -0.3559
  854SOL    HW1 2561   1.700   1.087   1.923  2.7932  0.0804 -0.9611
  854SOL    HW2 2562   1.632   1.234   1.858  1.5374  0.6730 -2.3150
  855SOL     OW 2563   0.585   2.537   2.923  0.1775  0.1452  0.1734
  855SOL    HW1 2564   0.485   2.506   2.924 -3.3284  0.4400 -1.2417
  855SOL    HW2 2565   0.610   2.575   3.010 -0.0180 -0.4832  0.0293
  856SOL     OW 2566   2.874   0.675   1.639 -0.3382  0.2230  0.2378
  856SOL    HW1 2567   2.971   0.700   1.629  0.2722  0.8728  0.7139
  856SOL    HW2 2568   2.834   0.665   1.547 -1.4126 -1.2659  0.8838
  857SOL     OW 2569   0.582   1.166   1.823  0.2637  0.1733  0.9872
  857SOL    HW1 2570   0.526   1.096   1.870  1.7816  1.4600 -0.5135
  857SOL    HW2 2571   0.624   1.229   1.893 -3.4193  1.6595  1.2544
  858SOL     OW 2572   0.316   1.427   2.349 -0.4593 -0.0804  0.0936
  858SOL    HW1 2573   0.371   1.409   2.433  1.5723 -1.8267  0.1541
  858SOL    HW2 2574   0.356   1.507   2.300  0.6115  1.0029 -0.2413
  859SOL     OW 2575   2.641   0.143   0.618  0.3852 -0.3426  0.2095
  859SOL    HW1 2576   2.656   0.231   0.668 -1.0973  0.7041 -0.2942
  859SOL    HW2 2577   2.681   0.158   0.525 -2.0730  0.5382  1.0822
  860SOL     OW 2578   1.964   2.701   3.098 -0.0279  0.1435 -0.2197
  860SOL    HW1 2579   1.915   2.616   0.004  0.6257  1.4461 -1.5822
  860SOL    HW2 2580   2.027   2.719   0.065  0.1098  2.8617  0.3051
  861SOL     OW 2581   0.406   0.526   0.405  0.6081  0.0648  0.1403
  861SOL    HW1 2582   0.363   0.579   0.334  0.5837 -1.5136 -1.2304
  861SOL    HW2 2583   0.351   0.520   0.488 -0.1507 -1.5376 -2.0468
  862SOL     OW 2584   1.471   0.233   1.954  0.2173 -0.1151  0.5166
  862SOL    HW1 2585   1.469   0.281   1.859  1.3048  2.5017 -3.0957
  862SOL    HW2 2586   1.373   0.217   1.988  1.6772  1.8802 -0.2768
  863SOL     OW 2587   2.648   2.257   1.168  0.2236 -0.1954 -0.3662
  863SOL    HW1 2588   2.571   2.230   1.228 -1.7752 -0.7725  1.6762
  863SOL    HW2 2589   2.691   2.336   1.216 -1.1660  1.6983  1.6559
  864SOL     OW 2590   2.445   2.871   2.035 -0.7428  0.4710 -0.1134
  864SOL    HW1 2591   2.363   2.915   1.990 -0.0152  0.3745 -2.0613
  864SOL    HW2 2592   2.488   2.812   1.965 -1.3029  0.3148 -2.3599
  865SOL     OW 2593   1.165   0.330   1.484 -0.4121 -0.6544 -0.4885
  865SOL    HW1 2594   1.253   0.272   1.467  2.4324 -2.0425  0.2980
  865SOL    HW2 2595   1.183   0.385   1.572  0.9773  0.5190  1.6498
  866SOL     OW 2596   2.050   3.005   0.919  0.7525  0.6454  0.3808
  866SOL    HW1 2597   2.094   3.070   0.856 -2.4172  1.9373  1.8633
  866SOL    HW2 2598   2.044   3.048   1.011  0.9399  0.7476  0.4447
  867SOL     OW 2599   2.621   2.562   0.400 -0.4309  0.2382 -0.5200
  867SOL    HW1 2600   2.711   2.515   0.413 -0.9596  1.9838 -2.2769
  867SOL    HW2 2601   2.551   2.523   0.466  0.2247 -0.7454  0.4003
  868SOL     OW 2602   1.152   1.981   1.824 -0.0612  0.5377 -0.9518
  868SOL    HW1 2603   1.183   2.076   1.789  0.3136  0.4604  0.9706
  868SOL    HW2 2604   1.148   1.993   1.928 -0.3087 -0.3833  0.1503
  869SOL     OW 2605   2.087   2.441   0.403 -0.2174  0.1218  0.2414
  869SOL    HW1 2606   2.117   2.395   0.316  1.7357  0.5349 -0.6837
  869SOL    HW2 2607   2.142   2.522   0.430 -0.6366 -2.5742  1.5318
  870SOL     OW 2608   2.341   2.165   0.927 -0.0111  0.5195 -0.2595
  870SOL    HW1 2609   2.293   2.235   0.872 -0.7446  0.7873  1.3539
  870SOL    HW2 2610   2.431   2.140   0.891  1.9106  0.6348 -0.4182
  871SOL     OW 2611   0.325   1.730   1.617  0.0998  0.0075  0.2085
  871SOL    HW1 2612   0.316   1.708   1.516 -0.8953  0.9521 -0.7284
  871SOL    HW2 2613   0.368   1.651   1.659  2.7500 -1.4345 -1.6772
  872SOL     OW 2614   0.747   1.386   2.421 -0.3061 -0.4306 -0.3360
  872SOL    HW1 2615   0.835   1.390   2.467 -0.3112 -0.6652 -2.7219
  872SOL    HW2 2616   0.704   1.295   2.428  2.8293  2.1819  3.3161
  873SOL     OW 2617   0.933   2.411   1.543 -0.2262  0.1888  0.0872
  873SOL    HW1 2618   0.883   2.490   1.592  0.6963 -0.4151  2.1730
  873SOL    HW2 2619   1.009   2.447   1.485 -0.8802 -0.1197  1.3364
  874SOL     OW 2620   1.446   0.948   1.872  0.7810 -0.0575 -0.3923
  874SOL    HW1 2621   1.450   0.973   1.971  0.6838  5.2955 -3.3284
  874SOL    HW2 2622   1.532   0.907   1.838 -2.5877  2.1539 -1.0097
  875SOL     OW 2623   2.813   2.824   1.088 -0.5008 -0.0246 -0.5639
  875SOL    HW1 2624   2.766   2.875   1.163  1.4059 -0.3906 -0.6562
  875SOL    HW2 2625   2.877   2.878   1.025  2.7391 -0.5216 -1.5535
  876SOL     OW 2626   1.095   1.363   0.594 -0.1776  0.4879  0.2192
  876SOL    HW1 2627   1.142   1.334   0.508  1.9288  1.4459  1.1388
  876SOL    HW2 2628   0.998   1.365   0.582 -2.1077  0.6982 -0.8981
  877SOL     OW 2629   2.723   0.271   1.092 -0.2372 -0.3135  0.0199
  877SOL    HW1 2630   2.664   0.347   1.126  0.0827  4.3311 -1.0788
  877SOL    HW2 2631   2.723   0.196   1.160 -0.4915  2.4534 -0.2528
  878SOL     OW 2632   2.276   1.589   0.144 -0.0809 -0.2593 -0.0831
  878SOL    HW1 2633   2.368   1.558   0.178 -1.5446 -0.3355  2.7144
  878SOL    HW2 2634   2.214   1.616   0.221 -0.4480 -0.2437 -0.0951
  879SOL     OW 2635   2.715   1.818   1.291  0.0556 -0.0972  0.0883
  879SOL    HW1 2636   2.787   1.762   1.332 -0.1279 -0.7642 -1.7459
  879SOL    HW2 2637   2.759   1.884   1.225  0.7976  1.3346 -1.0412
  880SOL     OW 2638   0.212   2.274   0.860  0.1444 -0.2278  0.3094
  880SOL    HW1 2639   0.259   2.240   0.947  1.0806  0.4344  4.5008
  880SOL    HW2 2640   0.267   2.351   0.822 -1.5620  2.1053  2.8078
  881SOL     OW 2641   1.443   1.093   0.938  0.2041 -0.0354 -0.4998
  881SOL    HW1 2642   1.520   1.159   0.952  0.3820 -0.5495 -0.1244
  881SOL    HW2 2643   1.379   1.124   0.868  1.2944 -1.6685 -0.0690
  882SOL     OW 2644   2.487   1.096   2.663  0.2210 -0.1565 -0.4671
  882SOL    HW1 2645   2.456   1.104   2.567 -1.1606 -1.2811  1.2992
  882SOL    HW2 2646   2.538   1.007   2.672 -1.9022  1.0103  2.8059
  883SOL     OW 2647   1.260   0.020   1.223 -0.3885  0.4266  0.0748
  883SOL    HW1 2648   1.260   3.086   1.128 -1.1538 -0.2523 -1.2611
  883SOL    HW2 2649   1.305   0.109   1.210  0.5688 -1.4752  0.3560
  884SOL     OW 2650   2.851   3.105   0.975  0.7437  0.4470 -0.0232
  884SOL    HW1 2651   2.929   0.032   1.034  0.4362  1.5680 -3.1322
  884SOL    HW2 2652   2.859   0.039   0.885 -3.2480 -0.0546 -0.3583
  885SOL     OW 2653   1.702   0.921   1.481  0.4795 -0.4996  0.3924
  885SOL    HW1 2654   1.680   0.958   1.388  0.9502  2.1493  0.3411
  885SOL    HW2 2655   1.621   0.865   1.514 -1.0419 -1.8080 -1.2309
  886SOL     OW 2656   1.462   0.851   2.978 -0.3473  0.2955  0.2076
  886SOL    HW1 2657   1.557   0.846   2.945  2.6273 -0.9336  1.0139
  886SOL    HW2 2658   1.453   0.802   3.066  0.5822 -1.2839  0.3594
  887SOL     OW 2659   1.461   0.454   1.344 -0.7029 -0.2363 -0.2239
  887SOL    HW1 2660   1.515   0.495   1.423  1.6936  0.8097  3.4169
  887SOL    HW2 2661   1.402   0.525   1.302 -0.4069  1.6969  0.4828
  888SOL     OW 2662   2.003   1.304   2.050 -0.0746 -0.2110 -0.3979
  888SOL    HW1 2663   2.088   1.329   2.100 -3.0623 -0.0770  3.2504
  888SOL    HW2 2664   2.010   1.235   1.979 -3.9060  0.9210  2.1131
  889SOL     OW 2665   2.145   1.925   0.958  0.5522 -0.1061  0.0283
  889SOL    HW1 2666   2.237   1.880   0.964  0.7181  2.1766  0.5349
  889SOL    HW2 2667   2.154   2.021   0.921  1.1349  2.0454 -1.1372
  890SOL     OW 2668   1.155   2.003   1.035  0.1801 -0.8506  0.0161
  890SOL    HW1 2669   1.221   2.066   0.991  0.6629  1.4360  2.2861
  890SOL    HW2 2670   1.208   1.961   1.109 -1.6769  0.8391 -3.0447
  891SOL     OW 2671   2.625   0.503   2.383  0.5357  0.0359 -0.4789
  891SOL    HW1 2672   2.698   0.445   2.426  1.1303 -3.2119  0.0260
  891SOL    HW2 2673   2.544   0.448   2.347 -0.6486  2.9544  1.8175
  892SOL     OW 2674   1.006   0.448   2.172 -0.0753 -0.4202  0.2284
  892SOL    HW1 2675   1.090   0.455   2.231 -1.4127  0.5582 -2.2448
  892SOL    HW2 2676   0.921   0.482   2.216 -0.6319 -2.1391 -0.0836
  893SOL     OW 2677   1.402   0.203   1.413  0.4314 -0.5089  0.0801
  893SOL    HW1 2678   1.428   0.189   1.508 -0.7992 -1.4889  1.4260
  893SOL    HW2 2679   1.443   0.294   1.375  1.0690  0.4185 -1.9801
  894SOL     OW 2680   2.493   0.574   0.767  0.3723 -0.4331 -0.0617
  894SOL    HW1 2681   2.409   0.548   0.819 -0.2182  0.7532 -1.5789
  894SOL    HW2 2682   2.465   0.626   0.686  1.0423 -4.7757  1.4881
  895SOL     OW 2683   1.939   2.524   2.646  0.0675  0.1346 -0.4237
  895SOL    HW1 2684   2.011   2.535   2.718  1.7415 -3.2139 -0.8680
  895SOL    HW2 2685   1.854   2.566   2.683  0.0610  1.5232  0.4257
  896SOL     OW 2686   1.693   2.927   1.457 -0.4910  0.1585  0.0365
  896SOL    HW1 2687   1.632   2.875   1.527  0.1312 -0.1831 -0.0213
  896SOL    HW2 2688   1.766   2.869   1.410 -1.2986 -0.3573 -3.3820
  897SOL     OW 2689   0.707   1.768   1.891 -0.1952  0.2620 -0.2802
  897SOL    HW1 2690   0.631   1.702   1.925 -1.2441 -2.2811  3.1757
  897SOL    HW2 2691   0.672   1.862   1.869 -1.5509  3.1159 -2.8734
  898SOL     OW 2692   2.164   1.713   1.914 -0.2058 -0.1848  0.3457
  898SOL    HW1 2693   2.105   1.660   1.852  0.5606  3.4106  0.2688
  898SOL    HW2 2694   2.264   1.705   1.910 -1.7259 -0.2494 -0.6933
  899SOL     OW 2695   1.714   2.333   0.832 -0.5971 -0.0830  0.2338
  899SOL    HW1 2696   1.639   2.328   0.764 -0.4662 -0.4533 -1.7050
  899SOL    HW2 2697   1.796   2.275   0.809  1.8058  0.0356  0.8217
  900SOL     OW 2698   1.091   0.185   3.022  0.3449 -0.0576  0.8868
  900SOL    HW1 2699   1.147   0.144   2.950 -1.9192 -1.7126  2.2154
  900SOL    HW2 2700   1.064   0.122   3.100 -0.1378  0.4682 -1.1353
  901SOL     OW 2701   1.120   1.844   2.274 -0.4176 -0.3537  0.2721
  901SOL    HW1 2702   1.020   1.835   2.251 -3.3004  0.7924 -1.4325
  901SOL    HW2 2703   1.152   1.783   2.349  0.4494 -0.0065  0.6212
  902SOL     OW 2704   2.349   0.629   2.993  0.5671  0.0489  0.1009
  902SOL    HW1 2705   2.423   0.630   2.930 -1.7924  0.4096  1.6926
  902SOL    HW2 2706   2.358   0.539   3.038  0.2211  0.1432  2.7981
  903SOL     OW 2707   1.882   0.744   2.177  0.0850 -0.5714  0.1761
  903SOL    HW1 2708   1.976   0.729   2.137 -1.5259  1.3650  3.6078
  903SOL    HW2 2709   1.899   0.777   2.272 -0.1506 -2.5519 -0.8160
  904SOL     OW 2710   1.685   0.812   1.840  0.4227 -0.0896  0.4692
  904SOL    HW1 2711   1.778   0.807   1.788 -0.1898 -1.6068 -1.1735
  904SOL    HW2 2712   1.703   0.864   1.929 -0.9803 -0.0908 -1.8236
  905SOL     OW 2713   2.168   0.166   1.647 -0.3797  0.1090 -0.0140
  905SOL    HW1 2714   2.165   0.073   1.595  2.2134 -2.3936 -4.4947
  905SOL    HW2 2715   2.077   0.194   1.682  0.0152  0.0467 -1.7503
  906SOL     OW 2716   2.096   1.853   0.427 -0.0628  0.2004 -0.1785
  906SOL    HW1 2717   2.069   1.851   0.524 -0.2457  0.7814  1.4954
  906SOL    HW2 2718   2.105   1.757   0.406  0.0633  2.5983 -0.8775
  907SOL     OW 2719   1.082   2.800   0.798 -0.0632  0.1931 -0.7038
  907SOL    HW1 2720   1.169   2.745   0.797  2.3463  0.3381 -1.0545
  907SOL    HW2 2721   0.993   2.751   0.800 -0.1924  2.2605 -0.5681
  908SOL     OW 2722   1.698   2.262   2.643  0.2378 -0.9052 -0.0091
  908SOL    HW1 2723   1.797   2.253   2.671  1.6127 -0.7156 -0.0874
  908SOL    HW2 2724   1.693   2.287   2.544  1.5044  1.3023 -2.4559
  909SOL     OW 2725   2.331   0.527   2.088  0.1366 -0.2259 -0.6961
  909SOL    HW1 2726   2.356   0.624   2.109 -2.2618  2.9337  0.5108
  909SOL    HW2 2727   2.346   0.497   1.995 -1.5277  2.9574  2.6765
  910SOL     OW 2728   1.349   0.778   2.579 -0.1808 -0.4685  0.2428
  910SOL    HW1 2729   1.278   0.725   2.633 -0.0923 -0.6762  0.5599
  910SOL    HW2 2730   1.350   0.877   2.599  0.1358  0.7970 -0.9354
  911SOL     OW 2731   2.998   0.870   2.901 -0.2343  0.0509  0.1086
  911SOL    HW1 2732   3.038   0.862   2.996 -1.2201  0.6234 -2.1402
  911SOL    HW2 2733   2.902   0.905   2.899  0.9771 -1.7501 -1.9448
  912SOL     OW 2734   0.102   2.518   0.514  0.6020 -0.0354 -0.0912
  912SOL    HW1 2735   0.133   2.445   0.454 -1.0170  1.4425 -0.5373
  912SOL    HW2 2736   0.020   2.493   0.569 -1.2924  0.7161 -0.2469
  913SOL     OW 2737   2.594   1.921   2.379 -0.1891  0.2313  0.1439
  913SOL    HW1 2738   2.515   1.900   2.316  0.3200 -2.2142  0.0871
  913SOL    HW2 2739   2.619   2.017   2.363 -1.9748  2.9093  1.1455
  914SOL     OW 2740   1.858   1.261   0.835 -0.7996 -0.4711  0.0478
  914SOL    HW1 2741   1.847   1.174   0.783  0.8865  2.2779  0.8589
  914SOL    HW2 2742   1.774   1.296   0.885  0.6835 -1.6433  0.8063
  915SOL     OW 2743   0.278   2.703   2.021  0.9054  0.1711  0.0531
  915SOL    HW1 2744   0.365   2.688   2.066 -2.4234 -0.4892  1.4371
  915SOL    HW2 2745   0.243   2.795   2.025 -1.1265 -2.0067  1.2602
  916SOL     OW 2746   0.859   3.024   1.300  0.1717 -0.0221  0.7744
  916SOL    HW1 2747   0.815   3.043   1.206  0.7601  0.4139 -1.8348
  916SOL    HW2 2748   0.919   3.106   1.317  1.1374 -1.3682 -0.2420
  917SOL     OW 2749   2.471   0.859   0.342 -0.2719  0.5914  0.3447
  917SOL    HW1 2750   2.568   0.852   0.313 -2.3023 -0.9569 -0.0879
  917SOL    HW2 2751   2.407   0.855   0.263 -3.5889  1.3891 -0.0469
  918SOL     OW 2752   1.685   2.417   2.871  0.4267  0.0013  0.0543
  918SOL    HW1 2753   1.648   2.506   2.849  0.8743 -2.6254  0.5535
  918SOL    HW2 2754   1.673   2.353   2.789 -1.0372 -0.1673 -2.2484
  919SOL     OW 2755   1.764   2.869   1.181  0.2033 -0.1434 -0.2892
  919SOL    HW1 2756   1.683   2.932   1.178  1.7775  0.6070 -1.2466
  919SOL    HW2 2757   1.740   2.773   1.196  1.5272  1.8320  1.7038
  920SOL     OW 2758   1.253   0.397   2.276 -0.0816  0.0799  0.1568
  920SOL    HW1 2759   1.223   0.428   2.371 -0.9740 -1.5336  0.9641
  920SOL    HW2 2760   1.290   0.306   2.277 -2.3154  1.1173  0.6301
  921SOL     OW 2761   3.103   0.882   2.643  0.3289  0.1637 -0.2157
  921SOL    HW1 2762   3.017   0.900   2.591 -0.6072  1.2639  1.6275
  921SOL    HW2 2763   3.085   0.891   2.741  0.4635 -1.5300 -1.0003
  922SOL     OW 2764   3.061   1.928   1.097 -0.7407  0.4689 -0.5302
  922SOL    HW1 2765   2.970   1.973   1.095  1.5417 -2.0635  0.3184
  922SOL    HW2 2766   3.107   1.933   1.006  4.4199  0.6306 -1.5842
  923SOL     OW 2767   0.455   1.681   1.996  0.1278 -0.1756 -0.0898
  923SOL    HW1 2768   0.438   1.696   2.097  0.5528 -0.3224  1.0143
  923SOL    HW2 2769   0.410   1.761   1.940 -0.4689  1.7111  2.1136
  924SOL     OW 2770   1.444   2.842   2.672 -0.0162 -0.5907  0.0245
  924SOL    HW1 2771   1.473   2.792   2.586  0.7939 -1.7295  0.3867
  924SOL    HW2 2772   1.525   2.885   2.713 -0.3329 -2.3868  0.2953
  925SOL     OW 2773   2.761   1.692   0.873 -0.1657 -0.1412 -0.3251
  925SOL    HW1 2774   2.724   1.620   0.806 -0.3475 -1.5909 -2.8862
  925SOL    HW2 2775   2.815   1.643   0.943 -0.3722 -2.0770 -0.5135
  926SOL     OW 2776   2.322   0.806   1.040  0.1365 -0.2755  0.1676
  926SOL    HW1 2777   2.330   0.706   1.005  2.1793 -0.4865 -1.5774
  926SOL    HW2 2778   2.378   0.859   0.976  0.1642  0.6990 -0.2770
  927SOL     OW 2779   1.914   0.169   1.320 -0.2877  0.1554  0.3873
  927SOL    HW1 2780   1.969   0.254   1.318 -0.2974 -0.2559  3.8957
  927SOL    HW2 2781   1.849   0.180   1.398  1.7287  2.0872 -2.3364
  928SOL     OW 2782   0.001   0.826   2.195  0.2427 -0.2633 -0.2384
  928SOL    HW1 2783   3.087   0.794   2.292  0.2702  1.6774 -2.1550
  928SOL    HW2 2784   0.087   0.788   2.155 -1.3563 -2.0274  0.9989
  929SOL     OW 2785   2.404   0.927   1.253  0.0986 -0.4905  0.6131
  929SOL    HW1 2786   2.363   0.886   1.167  0.4961  0.5700 -2.3240
  929SOL    HW2 2787   2.497   0.966   1.234  1.3100  2.8925  0.1593
  930SOL     OW 2788   2.313   2.382   1.695 -0.3241 -0.3283 -0.0960
  930SOL    HW1 2789   2.391   2.372   1.760 -2.3434  1.0002  0.0378
  930SOL    HW2 2790   2.345   2.362   1.602 -1.3131 -0.0690 -0.3592
  931SOL     OW 2791   2.109   1.000   1.299  0.1920  0.3830 -0.2140
  931SOL    HW1 2792   2.210   0.991   1.283  0.5440  1.6205  0.1638
  931SOL    HW2 2793   2.077   1.055   1.219  2.4939  2.5196  0.0209
  932SOL     OW 2794   0.349   0.825   1.795  0.2236  0.1479  0.3014
  932SOL    HW1 2795   0.405   0.827   1.707 -0.9744  2.6879  0.8305
  932SOL    HW2 2796   0.345   0.913   1.849  1.2202 -3.2993  3.5483
  933SOL     OW 2797   2.310   1.992   1.660 -0.0790  0.3858 -0.4516
  933SOL    HW1 2798   2.286   2.050   1.579  0.7377 -1.8832  0.2583
  933SOL    HW2 2799   2.413   1.996   1.672  3.2770 -1.9861  3.0889
  934SOL     OW 2800   0.852   2.268   1.848  0.6846 -0.4318 -0.2577
  934SOL    HW1 2801   0.934   2.301   1.793  2.5486 -1.9314  0.4323
  934SOL    HW2 2802   0.853   2.317   1.939 -3.0059 -0.1761  2.4429
  935SOL     OW 2803   0.019   1.611   1.994  0.3545 -0.2279  0.6000
  935SOL    HW1 2804   0.006   1.514   2.009 -2.2771 -0.8276 -1.1748
  935SOL    HW2 2805   0.075   1.651   2.063 -1.7714 -0.4533  1.8049
  936SOL     OW 2806   2.789   0.909   1.249 -0.1001 -0.3181  0.2392
  936SOL    HW1 2807   2.733   0.986   1.285  0.1138  2.2589  0.4768
  936SOL    HW2 2808   2.728   0.838   1.198  0.1014 -1.6346 -0.8593
  937SOL     OW 2809   1.620   0.572   1.538  0.1441 -0.2810 -0.2231
  937SOL    HW1 2810   1.658   0.599   1.446 -1.3835 -0.8630  1.2445
  937SOL    HW2 2811   1.675   0.511   1.595 -2.5759 -0.1512 -2.9934
  938SOL     OW 2812   0.437   2.856   0.391 -0.0899 -0.8426  0.0295
  938SOL    HW1 2813   0.433   2.914   0.303  1.5749  0.6355 -3.0230
  938SOL    HW2 2814   0.473   2.905   0.477 -3.1995  0.9633  0.7246
  939SOL     OW 2815   2.967   1.951   2.662  0.1193 -0.6855  0.9055
  939SOL    HW1 2816   2.936   1.881   2.730 -1.9467 -0.7812 -0.3261
  939SOL    HW2 2817   3.014   2.029   2.705 -0.3230 -2.0193 -1.4993
  940SOL     OW 2818   1.362   1.892   0.426 -0.2622 -0.4978 -0.5930
  940SOL    HW1 2819   1.459   1.867   0.453 -1.0361 -0.4402 -0.3775
  940SOL    HW2 2820   1.365   1.992   0.400  0.6250  0.5548 -0.1301
  941SOL     OW 2821   2.232   2.708   0.431 -0.2995  0.4165 -0.5807
  941SOL    HW1 2822   2.215   2.805   0.455 -0.5140 -2.7791 -0.4736
  941SOL    HW2 2823   2.311   2.675   0.487 -0.7104  2.0942 -0.3477
  942SOL     OW 2824   1.763   1.900   0.871 -0.0602  0.7035  0.3534
  942SOL    HW1 2825   1.704   1.972   0.917 -1.7305  0.4149 -1.1162
  942SOL    HW2 2826   1.758   1.810   0.922  0.1287  3.1328  2.7854
  943SOL     OW 2827   2.267   0.879   1.670 -0.1738  0.0993  0.2913
  943SOL    HW1 2828   2.296   0.825   1.591 -1.1974  1.4863  0.2873
  943SOL    HW2 2829   2.179   0.926   1.654 -0.3826 -0.1585  0.2432
  944SOL     OW 2830   1.258   0.756   1.846  0.4275 -0.5465  0.3656
  944SOL    HW1 2831   1.267   0.687   1.920 -0.6121  2.7359  1.7873
  944SOL    HW2 2832   1.333   0.823   1.850  0.6014 -1.5742 -0.0271
  945SOL     OW 2833   2.232   2.755   1.449 -0.2680  0.1418 -0.3823
  945SOL    HW1 2834   2.292   2.716   1.521 -0.7347 -3.1155  0.7314
  945SOL    HW2 2835   2.138   2.709   1.465 -1.9438 -0.4694  1.5734
  946SOL     OW 2836   0.679   1.101   0.644 -0.2443  0.1382  0.2450
  946SOL    HW1 2837   0.655   1.051   0.734 -2.0149  1.2955 -0.2758
  946SOL    HW2 2838   0.636   1.062   0.562 -0.8495 -0.4973 -1.1936
  947SOL     OW 2839   1.325   2.144   0.883  0.4355  0.4858 -0.1263
  947SOL    HW1 2840   1.318   2.230   0.829  0.7114  2.7395 -1.2722
  947SOL    HW2 2841   1.344   2.060   0.826 -0.8363 -1.0641  0.6729
  948SOL     OW 2842   0.471   1.403   1.152 -0.2777  0.1597  0.1989
  948SOL    HW1 2843   0.457   1.400   1.251 -2.6824 -1.8777 -1.5923
  948SOL    HW2 2844   0.379   1.424   1.109 -2.3685  0.2127  1.3227
  949SOL     OW 2845   1.203   1.382   1.563  0.2182 -0.2582 -0.3117
  949SOL    HW1 2846   1.117   1.417   1.602 -0.9815 -1.7888 -0.1423
  949SOL    HW2 2847   1.178   1.310   1.495 -1.9291 -0.8366  1.5431
  950SOL     OW 2848   0.534   0.730   0.991 -0.0348  0.0845 -0.5575
  950SOL    HW1 2849   0.546   0.751   1.088 -0.4074  0.4135  1.0390
  950SOL    HW2 2850   0.431   0.731   0.982  0.6799 -0.9290  0.7229
  951SOL     OW 2851   0.793   2.013   2.145 -0.0777 -0.5936  0.2266
  951SOL    HW1 2852   0.808   1.913   2.159  1.4660 -0.0440  1.1617
  951SOL    HW2 2853   0.756   2.041   2.052 -0.1443  0.3354  1.1089
  952SOL     OW 2854   1.021   1.683   3.104 -0.0396 -0.0861  0.2617
  952SOL    HW1 2855   1.041   1.775   0.025 -0.0368 -1.3296  2.1710
  952SOL    HW2 2856   1.034   1.617   0.076  1.0710 -2.2937  0.9884
  953SOL     OW 2857   0.988   2.908   3.043  0.0203 -0.5318 -0.3359
  953SOL    HW1 2858   0.985   2.984   0.003  0.3211  0.0330 -1.2996
  953SOL    HW2 2859   1.054   2.838   3.067 -3.7398  2.7826 -2.3974
  954SOL     OW 2860   1.577   1.276   0.150  0.4197  0.0130 -0.3211
  954SOL    HW1 2861   1.551   1.255   0.054  0.2593 -0.3348 -1.1747
  954SOL    HW2 2862   1.536   1.369   0.169  0.1751 -1.5506  0.5328
  955SOL     OW 2863   0.040   2.626   3.007  0.5477 -0.4482 -0.2080
  955SOL    HW1 2864   0.056   2.727   3.030  1.0834  1.3827  1.5386
  955SOL    HW2 2865   0.015   2.622   2.914 -2.4777 -2.0767  2.4385
  956SOL     OW 2866   1.025   0.687   1.259  0.1156  0.4938  0.8779
  956SOL    HW1 2867   1.066   0.754   1.193  1.6670 -0.5957  2.2959
  956SOL    HW2 2868   1.084   0.604   1.251  0.7105  0.4715  1.0584
  957SOL     OW 2869   1.468   1.406   1.483 -0.6906 -0.1657 -0.3474
  957SOL    HW1 2870   1.377   1.392   1.525  0.2037  0.9422 -1.2344
  957SOL    HW2 2871   1.483   1.509   1.487 -1.0785  1.1552 -0.7667
  958SOL     OW 2872   0.565   1.670   1.235 -0.1167  0.0867 -0.1313
  958SOL    HW1 2873   0.606   1.606   1.304 -0.1959  2.8876 -1.0094
  958SOL    HW2 2874   0.589   1.648   1.138  0.0789  0.4555 -0.2124
  959SOL     OW 2875   1.677   1.456   1.248 -0.2445  0.3019  0.1290
  959SOL    HW1 2876   1.692   1.552   1.268 -0.3507 -0.9972  1.9345
  959SOL    HW2 2877   1.615   1.417   1.321  2.4038 -1.7351  0.8132
  960SOL     OW 2878   0.165   1.193   3.081  0.1285 -0.4476  0.3498
  960SOL    HW1 2879   0.216   1.199   0.062 -0.5006 -1.4754  0.4003
  960SOL    HW2 2880   0.216   1.144   3.006 -0.1837 -0.0908  0.6533
  961SOL     OW 2881   1.005   1.487   1.723  0.1836 -0.1343  0.6020
  961SOL    HW1 2882   0.942   1.480   1.806  0.5201  0.9622 -0.6835
  961SOL    HW2 2883   1.072   1.565   1.741  0.2396  2.4765  0.9958
  962SOL     OW 2884   1.247   1.271   0.817 -0.5921  0.3099  0.1923
  962SOL    HW1 2885   1.262   1.361   0.864 -0.2004 -2.2550  0.6662
  962SOL    HW2 2886   1.174   1.290   0.753  1.2397  1.9028  2.0916
  963SOL     OW 2887   1.491   1.840   2.931 -0.4244  0.0851 -0.0120
  963SOL    HW1 2888   1.544   1.910   2.883  0.5768  1.2367 -2.0850
  963SOL    HW2 2889   1.552   1.777   2.988  1.9928 -0.1378  0.7670
  964SOL     OW 2890   0.481   3.016   0.135 -0.3682 -0.3483  0.5005
  964SOL    HW1 2891   0.466   0.001   0.092 -0.6509  1.8910 -1.7240
  964SOL    HW2 2892   0.421   2.947   0.089 -1.6918 -0.7402 -5.1316
  965SOL     OW 2893   0.381   2.368   0.431 -0.1607  0.5971 -0.1528
  965SOL    HW1 2894   0.393   2.277   0.476  1.0590  0.1318  0.8133
  965SOL    HW2 2895   0.326   2.355   0.342  0.7446  0.3332 -0.9633
  966SOL     OW 2896   0.168   1.279   2.683  0.0954 -0.0442 -0.3910
  966SOL    HW1 2897   0.071   1.305   2.667 -2.2731 -1.3869  0.9690
  966SOL    HW2 2898   0.170   1.224   2.771  1.8087 -1.5634  2.7018
  967SOL     OW 2899   2.864   3.005   2.359 -0.5482 -0.0278 -0.4303
  967SOL    HW1 2900   2.813   3.037   2.440 -1.8263  1.3878  0.0983
  967SOL    HW2 2901   2.958   2.974   2.389 -0.8967 -1.0178 -0.6719
  968SOL     OW 2902   2.073   0.305   0.422  0.2292  0.2958  0.2807
  968SOL    HW1 2903   2.044   0.350   0.337  0.1361  1.8977  2.3678
  968SOL    HW2 2904   2.112   0.381   0.482 -0.5772  0.6657 -0.2544
  969SOL     OW 2905   0.407   1.048   1.970 -0.3155 -0.3871  0.1399
  969SOL    HW1 2906   0.334   1.118   1.954  0.2971  0.1566 -0.7082
  969SOL    HW2 2907   0.443   1.036   2.069 -0.1819 -0.2022  2.3470
  970SOL     OW 2908   2.119   1.710   0.800 -0.5954 -0.0191  0.1816
  970SOL    HW1 2909   2.112   1.782   0.874 -0.0235  0.5850  3.4330
  970SOL    HW2 2910   2.093   1.616   0.838 -1.2328  3.6337 -0.1806
  971SOL     OW 2911   2.621   2.942   1.283 -0.0627 -0.3159 -0.3220
  971SOL    HW1 2912   2.522   2.912   1.263 -0.5596 -0.3737 -0.7110
  971SOL    HW2 2913   2.641   3.030   1.241 -1.7616 -0.3372  1.3999
  972SOL     OW 2914   0.756   2.891   1.514  0.1995  0.7055  0.5513
  972SOL    HW1 2915   0.814   2.916   1.592 -2.0335 -1.1521 -2.0323
  972SOL    HW2 2916   0.787   2.931   1.426 -0.8257 -0.8432  2.7286
  973SOL     OW 2917   0.487   0.279   2.824  0.2079 -0.0716 -0.0898
  973SOL    HW1 2918   0.555   0.333   2.881  1.9839  2.6227  3.1324
  973SOL    HW2 2919   0.396   0.322   2.831  2.4326  2.9874 -0.0177
  974SOL     OW 2920   1.934   1.516   2.438  0.4075  0.3535  0.3872
  974SOL    HW1 2921   1.925   1.529   2.336 -1.8664  2.3093 -0.7745
  974SOL    HW2 2922   2.018   1.482   2.476 -2.2594 -0.6386 -0.6131
  975SOL     OW 2923   0.019   2.986   1.404  0.1319  0.7200  0.3804
  975SOL    HW1 2924   0.106   3.029   1.442 -1.6613  2.3692 -1.3879
  975SOL    HW2 2925   3.050   3.032   1.452  2.1789 -1.7953  0.0581
  976SOL     OW 2926   0.699   2.062   2.393  0.0301  0.3967 -0.7699
  976SOL    HW1 2927   0.739   2.058   2.296 -0.4553 -0.0045 -1.2031
  976SOL    HW2 2928   0.729   1.979   2.446  0.3683 -1.1448  0.9710
  977SOL     OW 2929   0.762   2.585   0.530 -0.3767 -0.0419  0.5145
  977SOL    HW1 2930   0.677   2.580   0.470 -2.9218 -3.0057 -2.0580
  977SOL    HW2 2931   0.832   2.640   0.484 -1.1357 -1.8519  2.5757
  978SOL     OW 2932   0.032   1.412   2.340  0.1619  0.2973  0.1211
  978SOL    HW1 2933   0.136   1.416   2.344 -0.2451  1.9582  1.8645
  978SOL    HW2 2934   0.010   1.353   2.420  3.1605 -1.4480 -0.5990
  979SOL     OW 2935   1.626   2.604   1.508 -0.1071  0.3118  0.6398
  979SOL    HW1 2936   1.665   2.602   1.413 -3.2505 -0.2328 -0.0411
  979SOL    HW2 2937   1.681   2.552   1.575 -1.0087  0.5518 -0.2973
  980SOL     OW 2938   1.204   1.184   2.852 -0.1563  0.1073  0.5809
  980SOL    HW1 2939   1.251   1.275   2.836  2.4317  0.2667  1.9418
  980SOL    HW2 2940   1.122   1.169   2.790 -1.1167  0.4826 -2.3005
  981SOL     OW 2941   2.460   0.135   2.043 -0.4665  0.5162 -0.5669
  981SOL    HW1 2942   2.365   0.142   2.012 -0.6679  0.9501  1.1576
  981SOL    HW2 2943   2.525   0.191   1.988  1.6434 -1.4145 -0.6529
  982SOL     OW 2944   0.259   0.431   2.809  0.2104  0.0738  0.2651
  982SOL    HW1 2945   0.193   0.457   2.880  3.2626 -0.4264 -1.1078
  982SOL    HW2 2946   0.213   0.377   2.738  2.6737 -1.4188 -0.2249
  983SOL     OW 2947   1.993   1.094   2.236 -0.1555  0.1953 -0.6250
  983SOL    HW1 2948   1.960   1.186   2.217  1.9153 -1.9133 -0.1063
  983SOL    HW2 2949   1.986   1.037   2.151  0.2496  4.0891  0.0745
  984SOL     OW 2950   1.442   0.357   1.695  0.1881  0.3592  0.2161
  984SOL    HW1 2951   1.351   0.386   1.721  0.7707  0.8106 -1.1182
  984SOL    HW2 2952   1.516   0.428   1.697 -1.0406  3.5164 -0.0844
  985SOL     OW 2953   1.922   1.509   1.876 -0.5903 -0.5727 -0.1535
  985SOL    HW1 2954   1.912   1.467   1.789 -1.0536 -1.3900 -1.7418
  985SOL    HW2 2955   1.939   1.442   1.951  0.8949  1.0714 -0.0463
  986SOL     OW 2956   2.250   0.646   1.827  0.4369  0.2881  0.0264
  986SOL    HW1 2957   2.329   0.589   1.804  0.9189  0.2562 -1.2680
  986SOL    HW2 2958   2.255   0.740   1.789 -0.6284  2.2614  1.3258
  987SOL     OW 2959   2.557   0.422   1.255  0.4677  0.2682  0.3455
  987SOL    HW1 2960   2.605   0.482   1.319 -2.2741  1.9615 -0.5836
  987SOL    HW2 2961   2.487   0.357   1.298 -0.3943 -3.6474  0.4714
  988SOL     OW 2962   2.935   0.780   1.993  0.6479  0.5188  0.2724
  988SOL    HW1 2963   2.853   0.737   2.037  1.1384 -0.0747  1.1778
  988SOL    HW2 2964   3.011   0.800   2.059 -0.5354 -2.6097 -1.0323
  989SOL     OW 2965   2.278   1.775   3.017  0.5359 -0.2572  0.4019
  989SOL    HW1 2966   2.322   1.869   3.043  0.0375  2.1326 -1.0554
  989SOL    HW2 2967   2.255   1.726   3.101  0.7743  1.1386 -1.9443
  990SOL     OW 2968   0.935   0.374   2.885  0.0274  0.6250 -0.2282
  990SOL    HW1 2969   0.990   0.459   2.863 -1.3836  0.9785  0.2897
  990SOL    HW2 2970   0.989   0.306   2.940 -0.7987  1.0689  2.1142
  991SOL     OW 2971   1.218   0.994   0.396 -0.8772 -0.2769  0.4215
  991SOL    HW1 2972   1.294   0.984   0.330 -2.9178 -0.4326  1.9429
  991SOL    HW2 2973   1.231   1.073   0.451  0.6743 -3.7483 -2.4902
  992SOL     OW 2974   1.835   1.340   0.226  0.0850 -0.1779 -0.4790
  992SOL    HW1 2975   1.846   1.443   0.225 -1.7901 -1.0926 -0.8851
  992SOL    HW2 2976   1.740   1.318   0.197  0.7276  1.4830 -1.1451
  993SOL     OW 2977   2.957   0.619   0.776 -0.0444 -0.5651  0.0891
  993SOL    HW1 2978   3.027   0.604   0.704  0.3590  1.1204  4.1493
  993SOL    HW2 2979   3.002   0.615   0.865 -0.3779  0.6029 -1.9457
  994SOL     OW 2980   2.956   2.042   2.418  0.2505 -0.1008  0.1446
  994SOL    HW1 2981   2.966   2.008   2.514  0.7916  0.5365  0.6430
  994SOL    HW2 2982   3.017   2.121   2.401  1.0788  0.4599 -2.3927
  995SOL     OW 2983   1.764   1.381   2.938 -0.4130 -0.4643  0.2771
  995SOL    HW1 2984   1.854   1.419   2.972  1.4691 -2.5386 -1.4219
  995SOL    HW2 2985   1.772   1.280   2.931 -0.0262  0.6795  1.3320
  996SOL     OW 2986   2.074   1.478   0.001 -0.1038 -0.2119  0.0205
  996SOL    HW1 2987   2.153   1.510   0.054 -0.4841 -0.6467 -1.4159
  996SOL    HW2 2988   2.043   1.386   0.026 -1.1221 -0.0368 -2.5099
  997SOL     OW 2989   2.170   1.286   1.676 -0.0283  0.4890  0.3420
  997SOL    HW1 2990   2.185   1.241   1.584  0.7528 -0.7375  0.5991
  997SOL    HW2 2991   2.261   1.314   1.710  2.5256 -3.2599 -0.2338
  998SOL     OW 2992   2.507   1.579   0.339  0.2238 -0.1045  0.0433
  998SOL    HW1 2993   2.584   1.627   0.299 -2.3185  1.6417 -1.4702
  998SOL    HW2 2994   2.520   1.580   0.437  0.4677  0.7643  0.0213
  999SOL     OW 2995   2.668   2.340   0.089 -0.3837 -0.1647  0.3638
  999SOL    HW1 2996   2.699   2.251   0.050 -1.6008  2.7736  0.4848
  999SOL    HW2 2997   2.752   2.395   0.117  0.9463 -0.8015  0.9045
 1000SOL     OW 2998   1.001   0.407   1.915  0.5848  0.2713 -0.0072
 1000SOL    HW1 2999   1.012   0.435   2.012 -2.6311 -1.9767 -1.7269
 1000SOL    HW2 3000   0.903   0.403   1.886  1.5355  0.9325  2.2086
   3.10787   3.10787   3.10787
