1000 SPC/Fw water molecules t=  83.00000 step= 83000
 3000
    1SOL     OW    1   1.961   2.587   0.678  0.0391  0.9172 -0.3361
    1SOL    HW1    2   1.895   2.506   0.661  0.4585 -2.6288 -1.5737
    1SOL    HW2    3   1.902   2.668   0.656 -1.1022 -0.9756  0.5750
    2SOL     OW    4   0.704   1.126   2.145 -0.5941 -0.5621  0.4320
    2SOL    HW1    5   0.729   1.108   2.246 -1.2688 -1.8073  3.3727
    2SOL    HW2    6   0.678   1.229   2.142  0.4804  0.3725 -0.1380
    3SOL     OW    7   1.419   2.809   2.575  0.0503 -0.1438 -0.2980
    3SOL    HW1    8   1.352   2.880   2.591  2.8552 -0.2261 -2.1229
    3SOL    HW2    9   1.375   2.727   2.533 -0.6731 -0.3485 -0.3861
    4SOL     OW   10   1.155   1.884   2.817  0.3203 -0.5751 -0.1003
    4SOL    HW1   11   1.204   1.867   2.730 -0.5525 -1.0896 -3.0684
    4SOL    HW2   12   1.183   1.821   2.889 -0.3959 -0.5134  0.5183
    5SOL     OW   13   0.430   0.926   1.829 -0.1116  0.1473  0.1433
    5SOL    HW1   14   0.394   0.937   1.733 -1.7502  1.3168 -1.6748
    5SOL    HW2   15   0.509   0.988   1.848 -1.2617 -0.1542  0.7067
    6SOL     OW   16   1.884   0.475   2.709 -0.1743 -0.8585 -0.3733
    6SOL    HW1   17   1.862   0.535   2.625 -0.8215  1.6347 -2.5710
    6SOL    HW2   18   1.813   0.501   2.784 -2.1816 -1.5839 -1.9602
    7SOL     OW   19   0.245   0.215   1.572 -0.0091  0.2606 -0.1933
    7SOL    HW1   20   0.244   0.315   1.575  0.1411 -0.4772 -2.2230
    7SOL    HW2   21   0.257   0.176   1.664  1.9454 -0.6726  0.8784
    8SOL     OW   22   1.741   0.299   1.820  0.9237  0.2694  0.2382
    8SOL    HW1   23   1.692   0.368   1.885 -2.5266  1.7618 -0.2039
    8SOL    HW2   24   1.835   0.328   1.795  1.9488  3.3644  2.1876
    9SOL     OW   25   0.386   0.011   0.647 -0.5963  0.1224 -0.3167
    9SOL    HW1   26   0.430   0.071   0.715 -0.1650 -2.5882 -5.2737
    9SOL    HW2   27   0.297   3.076   0.671  1.7372  4.4125 -1.2666
   10SOL     OW   28   0.480   2.286   2.320 -0.0838 -0.1083 -0.7598
   10SOL    HW1   29   0.576   2.246   2.335  1.4852  3.8563  2.4101
   10SOL    HW2   30   0.471   2.308   2.226  0.2783 -0.4649  1.4820
   11SOL     OW   31   0.596   1.423   0.147 -0.0802  0.1469  0.2285
   11SOL    HW1   32   0.621   1.387   0.053  2.6568 -1.1929  1.8672
   11SOL    HW2   33   0.637   1.364   0.217 -3.2348 -1.9574 -4.6574
   12SOL     OW   34   2.908   2.859   1.317 -0.2298  0.2762  0.3914
   12SOL    HW1   35   2.870   2.937   1.266  0.0867 -2.0841 -0.1462
   12SOL    HW2   36   2.979   2.809   1.266  0.3760  1.4980  2.0184
   13SOL     OW   37   0.926   2.810   0.551  0.8093  0.6116  0.3229
   13SOL    HW1   38   0.896   2.767   0.459 -0.3160  1.1591 -0.8242
   13SOL    HW2   39   0.909   2.907   0.552 -0.3653 -0.3403 -0.5637
   14SOL     OW   40   1.710   1.599   1.171  0.3867  0.2643 -0.1215
   14SOL    HW1   41   1.635   1.665   1.199  0.4188  0.4764  0.0610
   14SOL    HW2   42   1.705   1.510   1.225 -1.0136 -0.0003  0.2520
   15SOL     OW   43   0.046   1.714   2.422 -0.0354 -0.3281 -0.4101
   15SOL    HW1   44   3.055   1.682   2.401  0.7898 -1.5836  0.7882
   15SOL    HW2   45   0.039   1.797   2.479  0.9638 -1.9372 -0.9291
   16SOL     OW   46   1.604   0.569   2.621  0.0398  0.1984 -0.0580
   16SOL    HW1   47   1.610   0.565   2.726  1.3566  0.3193  0.0469
   16SOL    HW2   48   1.612   0.664   2.588 -2.9835  1.9761 -2.4584
   17SOL     OW   49   0.113   2.368   2.383  0.1761 -0.0146  0.3402
   17SOL    HW1   50   0.188   2.388   2.449  0.8362  1.5307  0.0064
   17SOL    HW2   51   0.112   2.269   2.365  1.1356  1.9042 -0.5616
   18SOL     OW   52   1.069   1.298   0.651  0.0338  0.3209 -0.1634
   18SOL    HW1   53   1.094   1.374   0.712  1.0194 -3.0702  0.5313
   18SOL    HW2   54   1.130   1.219   0.678 -0.3559  2.0080  2.3849
   19SOL     OW   55   2.863   1.694   2.455 -0.3694 -0.3277  0.1592
   19SOL    HW1   56   2.860   1.631   2.535  0.7391  0.8885  0.2272
   19SOL    HW2   57   2.809   1.775   2.467  0.6616 -0.0387  0.7418
   20SOL     OW   58   2.467   2.316   2.381 -0.0687 -0.3375 -0.0199
   20SOL    HW1   59   2.530   2.296   2.458  2.7457 -0.6505  1.1638
   20SOL    HW2   60   2.402   2.382   2.409  1.9828 -2.1302 -1.3407
   21SOL     OW   61   1.432   1.912   0.242 -0.4495  0.8609 -0.4413
   21SOL    HW1   62   1.351   1.849   0.225 -1.8104 -0.8375 -1.4766
   21SOL    HW2   63   1.472   1.895   0.337  0.3575 -0.2100 -2.1305
   22SOL     OW   64   2.242   2.521   1.398  0.3799  0.2138  0.3866
   22SOL    HW1   65   2.279   2.505   1.491 -0.6587  0.0549  1.8036
   22SOL    HW2   66   2.144   2.499   1.383  0.5991 -0.3013 -2.0434
   23SOL     OW   67   0.140   1.155   1.286 -0.0814  0.1871  0.8259
   23SOL    HW1   68   0.180   1.070   1.240  1.0990 -1.8870 -2.2471
   23SOL    HW2   69   0.156   1.158   1.387  3.5228 -1.4093  0.5023
   24SOL     OW   70   2.356   1.749   2.312  0.0599  0.1223  0.2694
   24SOL    HW1   71   2.379   1.745   2.411 -1.2900  2.3386 -1.8457
   24SOL    HW2   72   2.377   1.843   2.267  2.0858  1.5386 -3.0404
   25SOL     OW   73   1.895   0.370   2.226 -0.1551 -0.0634  0.7259
   25SOL    HW1   74   1.997   0.356   2.235 -1.1945 -1.4670 -0.2532
   25SOL    HW2   75   1.873   0.409   2.129  0.6567 -0.9492 -2.7325
   26SOL     OW   76   1.152   0.177   0.366 -0.2158  0.2269  0.1083
   26SOL    HW1   77   1.202   0.220   0.285 -2.6803  3.4779 -1.1611
   26SOL    HW2   78   1.200   0.198   0.453  0.6829 -1.6609 -0.6456
   27SOL     OW   79   0.740   1.522   0.428 -0.3280  0.1195 -0.6168
   27SOL    HW1   80   0.688   1.611   0.412 -2.2051  3.0056  1.1303
   27SOL    HW2   81   0.681   1.462   0.484  0.6156  0.6590  0.3695
   28SOL     OW   82   2.409   2.039   0.886  0.0663  0.8820 -0.5861
   28SOL    HW1   83   2.508   2.050   0.916  2.4351 -1.5872  0.3683
   28SOL    HW2   84   2.350   2.066   0.960  2.6462 -1.6651 -0.6209
   29SOL     OW   85   2.294   2.956   1.603  0.2246 -0.6137 -0.4232
   29SOL    HW1   86   2.230   2.882   1.643 -2.6956 -1.3575  0.0550
   29SOL    HW2   87   2.339   3.007   1.680 -0.4217 -1.3382  1.2300
   30SOL     OW   88   1.031   3.084   1.278  0.3841 -0.3998  0.3881
   30SOL    HW1   89   1.127   3.077   1.254 -1.3061  3.4355  1.9621
   30SOL    HW2   90   0.971   3.020   1.225  0.7446  1.1422  1.0361
   31SOL     OW   91   0.107   2.077   1.680  0.0035  0.1317 -0.4858
   31SOL    HW1   92   0.153   1.992   1.655 -0.3555 -0.8928 -0.8323
   31SOL    HW2   93   0.088   2.089   1.779 -1.9579  1.7728 -0.0196
   32SOL     OW   94   1.401   1.553   1.828 -0.4354 -0.5353 -0.2564
   32SOL    HW1   95   1.317   1.587   1.777  1.9878 -3.1360 -1.2399
   32SOL    HW2   96   1.464   1.626   1.871  2.8438  1.9332 -1.6142
   33SOL     OW   97   0.308   0.308   3.016 -0.0365  0.3182 -0.4615
   33SOL    HW1   98   0.403   0.339   3.002 -0.8089 -0.4091  0.8328
   33SOL    HW2   99   0.287   0.242   2.938 -2.0906 -1.9784 -1.7388
   34SOL     OW  100   2.358   3.058   0.622  0.7322 -0.8909  0.1939
   34SOL    HW1  101   2.293   0.014   0.683 -1.3747  0.6445 -0.1297
   34SOL    HW2  102   2.326   2.963   0.599 -0.2180  1.8653 -0.3308
   35SOL     OW  103   2.653   0.113   1.452 -0.2226 -0.1317 -0.6045
   35SOL    HW1  104   2.657   0.155   1.546 -0.1365  0.5330  2.5433
   35SOL    HW2  105   2.580   0.038   1.447  0.5025 -0.1621  0.8405
   36SOL     OW  106   2.843   2.687   2.745 -0.3869 -0.1489 -0.1991
   36SOL    HW1  107   2.791   2.770   2.774 -0.9321 -1.2432  0.8941
   36SOL    HW2  108   2.918   2.701   2.674  0.4061 -0.1167 -0.3790
   37SOL     OW  109   1.610   2.563   2.888 -0.2030  0.0564  0.5557
   37SOL    HW1  110   1.602   2.658   2.920 -1.1731  1.1373 -1.9683
   37SOL    HW2  111   1.520   2.518   2.893  2.6818 -1.8112 -2.1648
   38SOL     OW  112   2.892   0.853   2.902  0.2915  0.2573  0.1924
   38SOL    HW1  113   2.828   0.884   2.975  1.4349  1.0909  0.9198
   38SOL    HW2  114   2.961   0.924   2.882 -2.5771 -3.0523 -1.1662
   39SOL     OW  115   1.748   1.843   2.041 -0.0005 -0.3555  0.3794
   39SOL    HW1  116   1.730   1.938   2.067 -2.1507  0.2245  1.2414
   39SOL    HW2  117   1.840   1.805   2.063 -3.1314  0.6685  1.0898
   40SOL     OW  118   0.409   0.211   2.617 -0.1898  1.0424 -0.4466
   40SOL    HW1  119   0.337   0.162   2.674 -2.5652 -0.8449  0.2711
   40SOL    HW2  120   0.501   0.214   2.661  0.7506  0.2056  1.1034
   41SOL     OW  121   1.843   1.447   1.737 -0.4311  0.3694 -0.3938
   41SOL    HW1  122   1.890   1.372   1.681  1.7621 -1.0324  1.5138
   41SOL    HW2  123   1.775   1.403   1.792  1.8824  2.7565 -0.0139
   42SOL     OW  124   0.127   0.093   1.797 -0.0721  0.2865  0.2238
   42SOL    HW1  125   0.130   0.097   1.896 -0.4543 -0.5350 -0.5021
   42SOL    HW2  126   0.186   0.016   1.767 -1.4973  1.5322 -1.3515
   43SOL     OW  127   1.327   1.378   1.997 -0.1708 -0.0879 -0.5141
   43SOL    HW1  128   1.363   1.282   1.990 -0.4715  0.0665 -0.7600
   43SOL    HW2  129   1.372   1.434   1.926 -0.0360 -2.8608 -2.0116
   44SOL     OW  130   3.041   0.124   3.067  0.0368 -0.8396 -0.5968
   44SOL    HW1  131   3.023   0.095   2.972  0.1860  0.6949  1.6914
   44SOL    HW2  132   2.965   0.082   0.026  1.8338  1.8098  0.7668
   45SOL     OW  133   0.410   2.124   1.196 -0.1383  0.0351 -0.4774
   45SOL    HW1  134   0.467   2.079   1.267 -2.2820 -1.2155 -1.7384
   45SOL    HW2  135   0.346   2.058   1.151 -0.9751  4.5646  2.1128
   46SOL     OW  136   2.429   2.628   1.830 -0.0584 -0.4114 -0.1197
   46SOL    HW1  137   2.477   2.603   1.915 -2.4150  0.9102 -0.3475
   46SOL    HW2  138   2.491   2.640   1.744  1.1874  0.0744 -1.3045
   47SOL     OW  139   0.734   1.725   1.241  0.1909  0.7449  0.4714
   47SOL    HW1  140   0.730   1.629   1.197 -0.0091 -0.7682  2.3817
   47SOL    HW2  141   0.673   1.782   1.183 -1.3255 -2.6247  1.7468
   48SOL     OW  142   0.564   2.639   0.344  0.0691 -0.2092 -0.4416
   48SOL    HW1  143   0.538   2.664   0.439  0.6987  1.5343  1.2294
   48SOL    HW2  144   0.513   2.688   0.271  2.1019  2.0150 -1.2995
   49SOL     OW  145   2.851   1.626   1.980  0.1515  0.8097 -0.2563
   49SOL    HW1  146   2.811   1.597   2.070  0.0060 -1.8482  1.3462
   49SOL    HW2  147   2.783   1.623   1.903  3.2077 -0.9802  0.8161
   50SOL     OW  148   1.661   0.961   0.690 -0.1503  0.7026 -0.3033
   50SOL    HW1  149   1.727   0.885   0.666 -0.3120  0.9486  0.6470
   50SOL    HW2  150   1.639   0.951   0.789  0.0754 -0.1733 -1.3171
   51SOL     OW  151   1.087   0.750   1.053 -0.0698  0.1494  0.0229
   51SOL    HW1  152   1.145   0.797   1.120  0.8282 -0.5551 -1.3626
   51SOL    HW2  153   1.042   0.667   1.083  0.7368  0.5436 -0.4612
   52SOL     OW  154   0.955   1.443   0.256  0.3784 -0.0484 -0.4752
   52SOL    HW1  155   1.042   1.423   0.304 -0.5443 -1.3850  1.9315
   52SOL    HW2  156   0.880   1.450   0.325 -0.8954 -1.4450  1.2265
   53SOL     OW  157   1.331   0.037   2.603 -0.1356 -1.1681  0.0264
   53SOL    HW1  158   1.354   0.046   2.704  0.5318 -1.5204 -0.5751
   53SOL    HW2  159   1.306   0.132   2.565 -0.8782  0.8923 -1.0014
   54SOL     OW  160   1.791   1.092   1.697 -0.7010 -0.3096  0.6029
   54SOL    HW1  161   1.700   1.097   1.654 -0.8479  1.3686  0.7790
   54SOL    HW2  162   1.861   1.033   1.658 -2.3248  0.2092  2.2444
   55SOL     OW  163   2.767   2.549   0.358  0.0311  0.5637  0.2370
   55SOL    HW1  164   2.827   2.560   0.440 -2.4676 -0.0389  2.1321
   55SOL    HW2  165   2.688   2.613   0.358 -0.5480 -3.1881 -2.6735
   56SOL     OW  166   0.868   2.567   1.930 -0.0350 -0.3754  0.0015
   56SOL    HW1  167   0.772   2.550   1.959  2.4472 -0.5174 -1.1083
   56SOL    HW2  168   0.877   2.647   1.863  1.1041  2.5222  0.5272
   57SOL     OW  169   1.866   0.973   2.679 -0.0687  0.5066 -0.0301
   57SOL    HW1  170   1.848   0.897   2.746  0.0708 -0.9851  1.1065
   57SOL    HW2  171   1.803   0.954   2.601 -0.8433  0.2313  2.7913
   58SOL     OW  172   0.328   1.262   1.954 -0.3188 -0.0603  0.1577
   58SOL    HW1  173   0.260   1.210   1.910  1.4072  0.9471  3.2908
   58SOL    HW2  174   0.407   1.277   1.895 -2.0234 -1.1841 -0.9587
   59SOL     OW  175   0.614   2.761   2.296  0.1213  0.2185 -0.4414
   59SOL    HW1  176   0.674   2.755   2.216  0.0798 -2.1470  0.4972
   59SOL    HW2  177   0.636   2.689   2.365 -0.9033  1.7563  0.5736
   60SOL     OW  178   2.695   2.335   0.221 -0.3169 -0.0746 -0.6021
   60SOL    HW1  179   2.727   2.423   0.262  0.7057 -1.5703 -1.7488
   60SOL    HW2  180   2.641   2.354   0.138  0.9145  0.5966  0.7403
   61SOL     OW  181   0.962   2.555   0.669  0.2461 -0.0569  0.4015
   61SOL    HW1  182   1.000   2.483   0.599  1.3302 -4.6758 -1.9510
   61SOL    HW2  183   0.981   2.649   0.626  1.1689 -0.8463 -0.3247
   62SOL     OW  184   1.797   2.440   2.695  1.2621  0.3760  0.1102
   62SOL    HW1  185   1.795   2.409   2.598  2.4196  0.6200 -1.7890
   62SOL    HW2  186   1.699   2.462   2.732 -1.7962  2.3702 -2.3813
   63SOL     OW  187   2.173   0.536   0.067 -0.0989 -0.0661  0.4508
   63SOL    HW1  188   2.173   0.533   3.063 -1.1613 -2.2984  0.6951
   63SOL    HW2  189   2.250   0.596   0.097  2.0085 -1.9504 -3.1254
   64SOL     OW  190   0.765   1.547   2.652  0.0721  0.3680 -0.5246
   64SOL    HW1  191   0.702   1.467   2.660  2.1389  3.0109  0.5655
   64SOL    HW2  192   0.766   1.593   2.744 -1.0292  0.1457 -1.3005
   65SOL     OW  193   1.267   3.050   1.118  0.6994  0.0521 -0.2425
   65SOL    HW1  194   1.356   3.095   1.123  2.2891 -2.5485  3.3062
   65SOL    HW2  195   1.253   3.016   1.022  0.4649 -0.3426 -0.3316
   66SOL     OW  196   0.517   1.707   1.647 -0.1463 -0.8906 -0.4383
   66SOL    HW1  197   0.598   1.702   1.583  0.6734  0.3380 -3.2984
   66SOL    HW2  198   0.520   1.797   1.691 -1.3968 -1.2632 -0.3286
   67SOL     OW  199   2.262   2.836   2.144  0.4132  0.6088  0.0981
   67SOL    HW1  200   2.330   2.787   2.205  1.8356  0.9685  1.3355
   67SOL    HW2  201   2.289   2.935   2.136 -1.1190  0.8840 -0.1668
   68SOL     OW  202   0.821   0.973   1.771 -1.0106 -0.8997 -0.2825
   68SOL    HW1  203   0.741   1.025   1.822 -2.4288  1.9209 -0.0977
   68SOL    HW2  204   0.777   0.934   1.688 -1.4527  2.0674 -0.0266
   69SOL     OW  205   2.377   2.288   3.073  0.0636 -0.0155 -0.0691
   69SOL    HW1  206   2.347   2.333   0.056  2.0249 -0.6122 -2.6713
   69SOL    HW2  207   2.321   2.202   3.061  1.8950  0.4316  1.0023
   70SOL     OW  208   2.286   0.701   2.760 -0.1946  0.1875  0.7783
   70SOL    HW1  209   2.387   0.708   2.762  1.7490  2.5255  1.9724
   70SOL    HW2  210   2.238   0.786   2.744  1.4588 -2.0200 -3.4072
   71SOL     OW  211   0.015   2.198   0.426 -0.1405 -0.5402  0.1715
   71SOL    HW1  212   3.027   2.151   0.456 -0.3755  1.7328  0.2847
   71SOL    HW2  213   0.091   2.131   0.418 -1.0936  2.4238  0.9082
   72SOL     OW  214   2.844   1.772   0.495  0.8739 -0.2624  0.1578
   72SOL    HW1  215   2.899   1.851   0.528 -1.2867  0.7687 -1.5165
   72SOL    HW2  216   2.881   1.690   0.536 -0.0108  1.5307 -1.3624
   73SOL     OW  217   1.118   0.659   0.714  0.0855 -0.1583 -0.0844
   73SOL    HW1  218   1.195   0.685   0.656  3.1263  0.1186  2.0386
   73SOL    HW2  219   1.065   0.740   0.749  0.0578 -0.3175  0.8262
   74SOL     OW  220   0.100   2.079   1.965  0.0333 -0.0757 -0.0077
   74SOL    HW1  221   0.123   2.009   2.035 -1.7181 -0.6706 -1.7740
   74SOL    HW2  222   0.163   2.162   1.963 -2.0925 -1.9370  1.9393
   75SOL     OW  223   1.825   1.678   1.605 -0.0956  0.4834 -0.1469
   75SOL    HW1  224   1.822   1.578   1.628 -1.2539  1.7793  0.3517
   75SOL    HW2  225   1.729   1.710   1.578 -2.3553 -0.3190  0.3344
   76SOL     OW  226   1.498   2.070   1.265  0.4875  0.1539  0.3941
   76SOL    HW1  227   1.536   2.089   1.171  1.3408 -1.3878 -0.3636
   76SOL    HW2  228   1.416   2.131   1.283  1.4707 -1.1481 -0.4082
   77SOL     OW  229   2.493   1.573   2.161 -0.4060 -0.0948  0.3539
   77SOL    HW1  230   2.592   1.593   2.190 -0.2495  3.3858 -0.0727
   77SOL    HW2  231   2.425   1.631   2.216 -1.8855  3.1651  0.9428
   78SOL     OW  232   1.387   0.514   0.806 -0.4402  0.2777  0.2946
   78SOL    HW1  233   1.391   0.592   0.865  1.4865 -2.5340 -0.2871
   78SOL    HW2  234   1.312   0.448   0.831 -2.2898 -1.7074  1.9990
   79SOL     OW  235   2.083   1.575   1.863  0.4170  0.2275 -0.2550
   79SOL    HW1  236   2.127   1.487   1.899  1.9940 -1.2397  3.9210
   79SOL    HW2  237   2.000   1.555   1.808 -1.7851  0.3366  2.5768
   80SOL     OW  238   1.267   0.376   1.343 -0.7910 -0.6956  0.3099
   80SOL    HW1  239   1.345   0.312   1.355 -1.4053 -1.0179  1.0108
   80SOL    HW2  240   1.206   0.384   1.424 -0.8826  0.7601 -0.7488
   81SOL     OW  241   0.710   2.352   0.617 -0.5779 -0.2032  0.5016
   81SOL    HW1  242   0.746   2.427   0.672 -3.6573 -2.5448 -1.0558
   81SOL    HW2  243   0.717   2.257   0.660 -0.5786 -1.3703 -0.8221
   82SOL     OW  244   1.501   0.518   1.533 -0.5001  0.0364 -0.0048
   82SOL    HW1  245   1.480   0.598   1.469  0.2199  4.5680 -2.7734
   82SOL    HW2  246   1.448   0.435   1.517 -0.7298  1.8021 -0.8446
   83SOL     OW  247   0.566   1.894   0.650 -0.3270  0.2057  0.1354
   83SOL    HW1  248   0.618   1.976   0.638  2.1352 -1.4989 -1.2137
   83SOL    HW2  249   0.565   1.840   0.564 -1.5968  2.3113 -0.3245
   84SOL     OW  250   2.573   1.397   3.084  0.0921  0.4188 -0.2004
   84SOL    HW1  251   2.582   1.394   2.982  1.1723 -1.7665 -0.9357
   84SOL    HW2  252   2.504   1.467   0.009 -0.5658 -0.8934  2.1209
   85SOL     OW  253   0.143   2.613   1.486 -0.4331 -0.3312 -0.0238
   85SOL    HW1  254   0.099   2.702   1.494  1.5864 -2.1947  1.8435
   85SOL    HW2  255   0.070   2.542   1.466  1.2590 -1.3571 -1.1308
   86SOL     OW  256   1.598   2.908   1.068  0.0642 -0.1691 -0.2316
   86SOL    HW1  257   1.649   2.847   1.125 -0.5891  1.3105  0.1472
   86SOL    HW2  258   1.581   2.871   0.977  1.6008  0.9113  2.6716
   87SOL     OW  259   2.801   1.302   0.674  0.4954 -0.5257  0.1409
   87SOL    HW1  260   2.698   1.305   0.657 -0.1291 -2.1226 -2.4654
   87SOL    HW2  261   2.818   1.280   0.774  0.7493 -1.1421  2.2279
   88SOL     OW  262   0.947   0.577   1.237  0.0819 -0.1945 -0.1025
   88SOL    HW1  263   0.970   0.582   1.339 -1.6656  0.6517  2.2776
   88SOL    HW2  264   0.861   0.520   1.225 -1.4668 -0.9507  0.0887
   89SOL     OW  265   0.931   2.809   1.840 -0.1574  0.1311 -0.3397
   89SOL    HW1  266   0.936   2.887   1.770 -1.0902 -1.4751 -1.6132
   89SOL    HW2  267   1.027   2.778   1.859  1.3818  1.9896 -0.1701
   90SOL     OW  268   2.956   1.751   1.159  0.0326  0.0144 -0.2277
   90SOL    HW1  269   2.864   1.737   1.125  1.7650  0.1044 -0.2110
   90SOL    HW2  270   2.956   1.770   1.261  0.3527  0.3343  1.4375
   91SOL     OW  271   1.187   1.908   1.279 -0.0798  0.1743 -0.2493
   91SOL    HW1  272   1.273   1.869   1.320  1.8455 -0.9206  1.1312
   91SOL    HW2  273   1.141   1.832   1.227  0.0247 -2.4261 -1.3603
   92SOL     OW  274   2.775   2.772   1.823  0.4564 -0.4613 -0.1003
   92SOL    HW1  275   2.699   2.710   1.784 -2.0074  1.6187 -0.6863
   92SOL    HW2  276   2.731   2.858   1.856 -0.4857 -0.9044  1.3566
   93SOL     OW  277   2.836   1.220   3.006  0.7341 -0.9048  0.6075
   93SOL    HW1  278   2.816   1.206   2.906  0.8072  0.3572 -1.9273
   93SOL    HW2  279   2.760   1.190   3.067  3.1492 -3.8560  1.6704
   94SOL     OW  280   2.440   3.083   1.786  0.3040  0.4012  0.3477
   94SOL    HW1  281   2.394   0.001   1.876  0.5421  0.4491  0.4390
   94SOL    HW2  282   2.539   3.068   1.805  0.8994 -0.0431  0.4449
   95SOL     OW  283   1.605   0.775   1.821 -0.5161  0.4442  0.3571
   95SOL    HW1  284   1.600   0.832   1.736  0.0968  2.6261 -0.3078
   95SOL    HW2  285   1.519   0.723   1.838 -1.9695  1.5385  0.8074
   96SOL     OW  286   2.472   0.798   1.569 -0.2000 -0.3817 -0.6599
   96SOL    HW1  287   2.548   0.812   1.638 -0.9605 -2.6331 -1.5638
   96SOL    HW2  288   2.510   0.802   1.476  3.0291  0.4431  1.8110
   97SOL     OW  289   2.469   3.025   1.404 -0.0180 -0.7847  0.4874
   97SOL    HW1  290   2.513   2.941   1.371 -2.6561  3.0734 -0.2381
   97SOL    HW2  291   2.411   3.004   1.487 -1.7911 -2.5814 -1.0152
   98SOL     OW  292   1.964   2.752   1.291  0.2080  1.0021  0.3475
   98SOL    HW1  293   2.060   2.777   1.268  0.8243  2.1352 -0.3564
   98SOL    HW2  294   1.943   2.752   1.394 -0.2919  0.1759  0.0674
   99SOL     OW  295   2.738   0.216   1.678  0.6279 -0.6981 -0.8668
   99SOL    HW1  296   2.708   0.245   1.772  0.7896  1.2107  0.0829
   99SOL    HW2  297   2.823   0.159   1.677 -2.1909  2.3081  4.9679
  100SOL     OW  298   2.087   1.679   2.319  0.4136  0.1673  0.2065
  100SOL    HW1  299   2.189   1.702   2.313  0.2769  0.8653 -1.6896
  100SOL    HW2  300   2.077   1.579   2.345 -0.9331 -0.1632 -0.6761
  101SOL     OW  301   2.124   0.074   0.227 -0.9919  0.7496  0.1527
  101SOL    HW1  302   2.216   0.086   0.259 -1.4420  1.6346 -1.1013
  101SOL    HW2  303   2.086   0.168   0.199  0.9220  0.6448 -2.1462
  102SOL     OW  304   0.517   0.527   1.536 -0.4485 -0.1730 -0.3325
  102SOL    HW1  305   0.419   0.549   1.563 -1.3630  1.4012  1.2946
  102SOL    HW2  306   0.530   0.470   1.451  0.5527  1.3849  1.7510
  103SOL     OW  307   2.464   0.056   2.662  0.3409  0.0564  0.6461
  103SOL    HW1  308   2.536   0.052   2.733 -0.7947  3.0680  0.2044
  103SOL    HW2  309   2.389   0.114   2.698  3.6816 -1.7549  0.0024
  104SOL     OW  310   3.061   2.822   1.804 -0.5720 -0.4317 -0.1202
  104SOL    HW1  311   0.021   2.754   1.859  1.2811 -1.9172 -1.7243
  104SOL    HW2  312   2.970   2.785   1.797  0.3567 -1.3076 -1.0689
  105SOL     OW  313   1.409   0.977   2.129 -0.3628 -0.1321  0.2732
  105SOL    HW1  314   1.341   1.025   2.189  1.5354 -3.0820  1.1323
  105SOL    HW2  315   1.363   0.899   2.072 -1.4929 -0.4539 -0.9631
  106SOL     OW  316   1.827   0.545   0.770 -0.4135  0.5930  0.0995
  106SOL    HW1  317   1.828   0.524   0.870 -0.2469  0.5857 -0.9691
  106SOL    HW2  318   1.905   0.502   0.716  4.4459  1.0881  0.6080
  107SOL     OW  319   0.563   1.096   1.238  0.2637 -0.1875  0.9254
  107SOL    HW1  320   0.509   1.013   1.215  1.9440  1.0830  1.6977
  107SOL    HW2  321   0.665   1.079   1.229  1.8987  1.3812 -2.3288
  108SOL     OW  322   2.953   0.384   2.304 -0.2034 -0.5929 -0.0888
  108SOL    HW1  323   2.970   0.337   2.216  0.0558 -2.1243 -1.1673
  108SOL    HW2  324   3.000   0.333   2.375 -0.3668  1.1604 -4.0473
  109SOL     OW  325   2.132   0.031   3.044  0.3643 -0.7759  0.4870
  109SOL    HW1  326   2.135   0.040   0.047  0.6567 -1.7641 -2.7647
  109SOL    HW2  327   2.034   0.029   3.011 -0.1480 -1.4184  0.1154
  110SOL     OW  328   0.087   1.841   2.984  0.0990  0.0466  0.4376
  110SOL    HW1  329   0.146   1.871   3.066  3.6438 -0.0111  1.2770
  110SOL    HW2  330   0.066   1.743   2.986  2.1244  1.3192  0.6004
  111SOL     OW  331   2.550   0.203   2.425  0.7592 -0.4999 -0.1049
  111SOL    HW1  332   2.477   0.263   2.462  2.0552 -1.8229 -1.6458
  111SOL    HW2  333   2.554   0.128   2.494  0.2938  0.1465  1.7080
  112SOL     OW  334   2.638   2.785   1.061  0.1195 -0.6700  0.2331
  112SOL    HW1  335   2.739   2.783   1.060  1.7321  3.0132 -2.2896
  112SOL    HW2  336   2.607   2.876   1.024 -0.6028  0.9955  1.4072
  113SOL     OW  337   2.307   2.190   1.996 -0.2531  0.4486  0.1597
  113SOL    HW1  338   2.344   2.159   1.906  2.3910 -0.2093 -3.2587
  113SOL    HW2  339   2.205   2.221   1.993 -3.9266  0.7878  0.0841
  114SOL     OW  340   2.623   0.000   0.591  0.3801  0.1537 -0.6541
  114SOL    HW1  341   2.532   3.067   0.624 -1.4294 -0.7860  0.1489
  114SOL    HW2  342   2.686   3.093   0.669 -1.9696 -0.1940 -0.0323
  115SOL     OW  343   2.814   1.774   0.221  0.8346 -0.5959  0.0690
  115SOL    HW1  344   2.822   1.799   0.319  0.6153 -0.7321  1.5116
  115SOL    HW2  345   2.780   1.674   0.214 -1.9861 -0.6021 -1.4089
  116SOL     OW  346   0.017   1.363   2.066 -0.6235  0.0085  0.0818
  116SOL    HW1  347   3.074   1.390   1.974 -1.4928  1.4174 -0.9573
  116SOL    HW2  348   0.109   1.316   2.059 -1.3671  1.5522 -0.7145
  117SOL     OW  349   2.207   0.066   0.809  0.3626  0.4065  0.1174
  117SOL    HW1  350   2.209   3.074   0.847  2.1025  1.3026 -0.7451
  117SOL    HW2  351   2.219   0.134   0.883  1.3133 -1.3817 -0.3683
  118SOL     OW  352   0.341   2.233   1.635  0.0214 -0.1409 -0.0851
  118SOL    HW1  353   0.242   2.203   1.647 -4.4645 -2.1467  0.5176
  118SOL    HW2  354   0.396   2.149   1.664  2.1754 -1.8187  0.5705
  119SOL     OW  355   1.161   2.111   1.549  0.3687 -0.0539  0.1968
  119SOL    HW1  356   1.195   2.120   1.452  2.7487 -0.6835 -0.6749
  119SOL    HW2  357   1.060   2.089   1.541 -1.8378 -1.0187  0.4568
  120SOL     OW  358   0.205   1.893   1.363  0.1581  0.0231  0.5357
  120SOL    HW1  359   0.142   1.840   1.418 -0.2177  0.7574 -1.9293
  120SOL    HW2  360   0.298   1.852   1.371  0.5999 -0.6238 -1.6188
  121SOL     OW  361   2.185   1.215   0.977 -0.4530 -0.0882 -0.5101
  121SOL    HW1  362   2.151   1.166   1.062  2.0313 -0.5985 -1.0620
  121SOL    HW2  363   2.182   1.312   0.995  0.5489 -1.5411  0.9384
  122SOL     OW  364   2.303   1.923   2.777  0.5480 -0.6238  0.4848
  122SOL    HW1  365   2.234   1.850   2.747  0.7107 -0.5995 -2.7651
  122SOL    HW2  366   2.306   2.007   2.715 -0.6229 -1.6937 -1.2636
  123SOL     OW  367   2.938   2.863   0.631  0.0614 -0.0095  0.1097
  123SOL    HW1  368   2.955   2.874   0.733 -0.3894  0.1731 -0.1904
  123SOL    HW2  369   2.960   2.772   0.597 -1.3715 -1.6323  0.7105
  124SOL     OW  370   1.179   1.125   0.139  0.4150  0.1145 -0.2331
  124SOL    HW1  371   1.084   1.134   0.183  1.7500 -0.5162 -1.5390
  124SOL    HW2  372   1.172   1.046   0.078 -1.3527  1.1079  0.4094
  125SOL     OW  373   0.130   1.524   2.633  0.8700 -0.1802  0.2302
  125SOL    HW1  374   0.106   1.588   2.556  0.0174  0.2498 -1.7095
  125SOL    HW2  375   0.163   1.439   2.598 -3.9125  1.5726 -0.1228
  126SOL     OW  376   0.089   2.457   0.395 -0.1560  0.2809 -0.3186
  126SOL    HW1  377   0.114   2.482   0.300 -2.5589 -1.1442  0.2746
  126SOL    HW2  378   0.063   2.356   0.407  1.6681 -1.6305  1.3441
  127SOL     OW  379   2.905   1.529   0.566  0.2545 -0.0865 -0.2001
  127SOL    HW1  380   2.862   1.445   0.610  0.6599 -2.5637  0.6669
  127SOL    HW2  381   2.938   1.507   0.474 -0.7607 -1.2797  0.3642
  128SOL     OW  382   1.161   1.351   0.404  0.1037  0.4424 -0.1296
  128SOL    HW1  383   1.131   1.350   0.504  0.3483 -0.9406  0.4562
  128SOL    HW2  384   1.157   1.256   0.364 -0.7461 -1.9498 -1.1652
  129SOL     OW  385   2.028   2.226   1.442  0.0028 -0.8230  0.0790
  129SOL    HW1  386   2.091   2.233   1.363  0.0056  0.2369 -1.2071
  129SOL    HW2  387   1.987   2.135   1.438  0.3497 -1.7911  1.6069
  130SOL     OW  388   1.987   0.967   0.583  0.5880  0.1348 -0.6719
  130SOL    HW1  389   1.933   0.882   0.596  2.0441 -0.8198  2.8663
  130SOL    HW2  390   1.972   1.038   0.659  3.3117  2.7219  2.2567
  131SOL     OW  391   2.839   0.864   2.640  0.4290 -0.0242  0.3280
  131SOL    HW1  392   2.873   0.873   2.734  1.9110 -0.6913  0.0708
  131SOL    HW2  393   2.753   0.920   2.629 -1.4133  1.3383  0.0702
  132SOL     OW  394   1.797   1.405   2.129 -0.5299  0.7061  0.1961
  132SOL    HW1  395   1.806   1.346   2.043  0.3105  0.2013 -1.6537
  132SOL    HW2  396   1.832   1.501   2.115  1.3899 -1.2011  1.9386
  133SOL     OW  397   3.093   1.209   0.034  0.2256  0.2966 -0.5203
  133SOL    HW1  398   3.006   1.227   3.085 -1.9018  1.6466 -1.3240
  133SOL    HW2  399   3.070   1.204   0.132 -2.0061 -0.9718 -1.5279
  134SOL     OW  400   2.786   0.858   0.595 -0.7142 -0.7759  0.0243
  134SOL    HW1  401   2.703   0.870   0.539  0.8772 -0.6065  0.4989
  134SOL    HW2  402   2.854   0.790   0.557 -0.6421  0.8357  0.9466
  135SOL     OW  403   2.024   0.804   2.963 -0.1116 -0.4943 -0.5221
  135SOL    HW1  404   2.127   0.808   2.947  0.0922 -0.5786 -0.4810
  135SOL    HW2  405   2.006   0.811   3.068 -3.1456  2.3591  3.4034
  136SOL     OW  406   1.864   1.875   1.801  0.2237  0.1041 -0.1330
  136SOL    HW1  407   1.839   1.806   1.724 -0.6188 -1.2678 -1.9884
  136SOL    HW2  408   1.802   1.854   1.881  0.0372  1.6037  1.4374
  137SOL     OW  409   2.175   2.568   0.487 -0.5926 -0.0990 -0.1561
  137SOL    HW1  410   2.236   2.481   0.501 -0.1999  0.0366 -0.2816
  137SOL    HW2  411   2.103   2.564   0.560  0.9478 -1.3864 -3.1337
  138SOL     OW  412   2.295   0.378   1.453 -0.3150  0.4560 -0.1662
  138SOL    HW1  413   2.190   0.369   1.462  1.8107  1.6001  0.6557
  138SOL    HW2  414   2.329   0.435   1.529  0.6911 -0.5546 -0.3398
  139SOL     OW  415   2.611   0.038   2.878  0.2258 -0.2462  0.3454
  139SOL    HW1  416   2.554   0.003   2.955  1.4365  1.7831  0.4928
  139SOL    HW2  417   2.647   0.131   2.894 -1.6730 -1.4884 -1.0900
  140SOL     OW  418   1.061   1.378   2.374 -0.3337  0.2084  0.1681
  140SOL    HW1  419   1.021   1.309   2.438  1.6804  0.6563 -0.3538
  140SOL    HW2  420   1.131   1.437   2.413 -1.5099  0.0380  1.2621
  141SOL     OW  421   0.703   0.486   2.285  0.6344  0.6872 -0.1302
  141SOL    HW1  422   0.641   0.565   2.272 -0.8927 -1.3124 -1.7510
  141SOL    HW2  423   0.701   0.421   2.208  1.8300  0.0776  1.4548
  142SOL     OW  424   2.706   2.456   2.816 -0.2147 -0.3351 -0.3249
  142SOL    HW1  425   2.754   2.447   2.903 -1.6528  1.8441 -3.5303
  142SOL    HW2  426   2.740   2.539   2.774  1.1932 -1.3802  2.4195
  143SOL     OW  427   0.839   1.937   0.332 -0.0588 -0.3564 -0.1186
  143SOL    HW1  428   0.806   2.034   0.353  0.1838 -1.6442  4.9308
  143SOL    HW2  429   0.941   1.925   0.344  0.5992  2.2445 -3.5702
  144SOL     OW  430   1.358   2.499   2.964  0.1065 -0.3513  0.1009
  144SOL    HW1  431   1.266   2.492   2.925 -0.9030 -0.8915 -1.6530
  144SOL    HW2  432   1.356   2.477   3.063 -0.0337 -1.0492 -1.2661
  145SOL     OW  433   1.507   1.862   2.575 -0.4054  0.1461 -0.2194
  145SOL    HW1  434   1.525   1.954   2.606 -0.4816  1.2990 -0.0953
  145SOL    HW2  435   1.563   1.834   2.493 -0.8744  0.6616  1.0753
  146SOL     OW  436   2.786   2.931   2.967 -0.2833 -0.3783  0.0159
  146SOL    HW1  437   2.739   2.910   3.050  1.4334  1.9142 -2.4098
  146SOL    HW2  438   2.739   3.016   2.935 -0.4817  0.2171  2.2886
  147SOL     OW  439   2.892   1.438   1.115  0.1654  0.8025  0.3167
  147SOL    HW1  440   2.991   1.461   1.091  0.4192  1.6023  1.1102
  147SOL    HW2  441   2.828   1.516   1.097  1.2879  0.6880 -0.0442
  148SOL     OW  442   1.986   2.814   0.147  0.4014 -0.3105 -0.3650
  148SOL    HW1  443   1.888   2.772   0.161 -2.7274 -0.7572  1.4420
  148SOL    HW2  444   2.005   2.832   0.050 -1.5626  0.0365  1.9931
  149SOL     OW  445   0.595   2.030   2.635  0.1593  0.0079 -0.3825
  149SOL    HW1  446   0.685   2.003   2.678 -0.9059  0.1474 -1.1132
  149SOL    HW2  447   0.537   2.086   2.702 -2.6879  0.8236  0.7080
  150SOL     OW  448   0.426   2.269   0.274 -0.1735 -0.0840  0.5194
  150SOL    HW1  449   0.370   2.278   0.192  0.9861 -0.8877  1.2562
  150SOL    HW2  450   0.506   2.333   0.270 -2.5578 -1.8089  1.6664
  151SOL     OW  451   0.450   1.080   0.302 -0.4354  0.3598 -0.0589
  151SOL    HW1  452   0.407   0.999   0.260  0.8565 -0.0996 -0.3430
  151SOL    HW2  453   0.378   1.140   0.335  2.1628 -2.2597 -1.3210
  152SOL     OW  454   2.598   1.809   0.618 -0.3930  0.1656  0.4772
  152SOL    HW1  455   2.691   1.799   0.577 -1.6994  0.7008 -2.1310
  152SOL    HW2  456   2.533   1.861   0.555 -1.3075  0.0381 -2.3906
  153SOL     OW  457   1.661   2.147   0.676  0.3835  0.4740  0.1494
  153SOL    HW1  458   1.740   2.213   0.661  0.8111  4.5276  0.3049
  153SOL    HW2  459   1.567   2.186   0.667 -0.1751 -0.6453  0.6738
  154SOL     OW  460   0.899   2.539   0.940  0.1132  0.0922 -0.9516
  154SOL    HW1  461   0.918   2.544   0.841  0.8213  2.1503 -0.1859
  154SOL    HW2  462   0.799   2.556   0.958 -1.6468 -0.3861 -0.6242
  155SOL     OW  463   2.720   1.763   0.858 -1.2474 -0.8222  0.7218
  155SOL    HW1  464   2.677   1.781   0.763 -0.2635 -0.6286 -2.2395
  155SOL    HW2  465   2.825   1.752   0.843  5.7092 -0.9225  0.9979
  156SOL     OW  466   2.521   2.118   0.280 -0.6121  0.1833  0.2273
  156SOL    HW1  467   2.576   2.072   0.206 -1.9217  0.2541  1.1215
  156SOL    HW2  468   2.586   2.197   0.315  0.9728  1.2617  0.7004
  157SOL     OW  469   0.556   2.031   1.409 -0.5673  0.0455  0.3202
  157SOL    HW1  470   0.652   2.056   1.416 -0.0163 -1.1523  0.5356
  157SOL    HW2  471   0.515   2.041   1.503  1.4157 -1.7091  0.4446
  158SOL     OW  472   1.530   0.785   0.178  0.2152  0.1912  0.5487
  158SOL    HW1  473   1.457   0.743   0.234 -0.6424  0.3686 -0.2953
  158SOL    HW2  474   1.600   0.717   0.157 -2.8171 -0.3099  1.5445
  159SOL     OW  475   1.295   0.685   0.287  0.2883  0.0551 -0.3740
  159SOL    HW1  476   1.297   0.682   0.390 -0.5884 -2.8914  1.5942
  159SOL    HW2  477   1.228   0.618   0.243  1.4584  1.1769 -0.4946
  160SOL     OW  478   0.803   1.226   0.594 -0.0549  0.0365 -0.0236
  160SOL    HW1  479   0.732   1.280   0.651 -1.7266 -1.2668  3.1891
  160SOL    HW2  480   0.896   1.258   0.624 -2.8318 -0.4915 -0.2764
  161SOL     OW  481   0.181   2.458   2.697  0.4323  0.6583  0.1779
  161SOL    HW1  482   0.133   2.373   2.736  1.3270 -0.3290 -1.0895
  161SOL    HW2  483   0.280   2.453   2.687  0.2192  1.4212 -2.6769
  162SOL     OW  484   0.185   2.531   0.955 -0.6855  0.1517  0.4243
  162SOL    HW1  485   0.157   2.482   1.042  0.8472 -1.8274 -1.2290
  162SOL    HW2  486   0.228   2.468   0.890  2.7743  0.7152  0.7772
  163SOL     OW  487   2.897   0.438   2.738  0.3644  0.1318  0.0677
  163SOL    HW1  488   2.924   0.492   2.656 -0.7988 -1.2981 -0.5432
  163SOL    HW2  489   2.971   0.440   2.806 -1.3291  3.9373  0.6098
  164SOL     OW  490   0.574   3.065   2.864 -0.0310  0.1546 -0.8758
  164SOL    HW1  491   0.483   3.034   2.893 -1.0858 -3.7446 -3.9484
  164SOL    HW2  492   0.581   3.051   2.763 -0.7911  1.4913 -2.6739
  165SOL     OW  493   2.333   0.553   1.645  0.1012  0.0161 -0.4577
  165SOL    HW1  494   2.249   0.589   1.690 -1.2530 -1.0221 -2.0361
  165SOL    HW2  495   2.383   0.636   1.612  1.2959  2.4763 -1.9273
  166SOL     OW  496   1.893   2.406   1.561  0.0224  0.2549  0.4903
  166SOL    HW1  497   1.904   2.393   1.665  0.0102 -3.6570  1.2401
  166SOL    HW2  498   1.952   2.334   1.520 -1.0237 -0.1550  0.5703
  167SOL     OW  499   0.733   1.041   2.419  0.0038  0.0774  0.1465
  167SOL    HW1  500   0.642   1.070   2.462 -2.4509  1.7944  1.8501
  167SOL    HW2  501   0.718   0.951   2.381  0.8114 -0.0974 -2.6674
  168SOL     OW  502   2.352   0.032   2.110  0.3696 -0.1318  0.0138
  168SOL    HW1  503   2.296   0.051   2.190  0.9217  0.0055 -0.7728
  168SOL    HW2  504   2.447   0.065   2.123 -0.2275  4.0726  0.6046
  169SOL     OW  505   0.349   0.859   0.196  0.0634 -0.5909 -0.1933
  169SOL    HW1  506   0.430   0.815   0.158 -0.8665 -1.9322 -0.0966
  169SOL    HW2  507   0.275   0.854   0.133  2.6135  1.2520  3.7817
  170SOL     OW  508   3.011   1.439   1.850 -0.3719 -0.2393 -0.6478
  170SOL    HW1  509   2.975   1.392   1.769 -1.8326 -1.1768 -3.2524
  170SOL    HW2  510   2.961   1.523   1.880 -1.8292  0.4829 -1.5455
  171SOL     OW  511   1.141   2.295   2.209 -0.0275 -0.2623  0.0001
  171SOL    HW1  512   1.083   2.379   2.204 -0.9716 -0.2411  0.5555
  171SOL    HW2  513   1.241   2.315   2.187  2.0546  0.0597  1.2408
  172SOL     OW  514   1.042   2.605   2.201 -0.6717 -0.3342 -0.1270
  172SOL    HW1  515   1.003   2.594   2.108 -0.2377  1.7612  0.5220
  172SOL    HW2  516   1.115   2.670   2.213 -0.6493 -1.9135 -1.0551
  173SOL     OW  517   1.394   2.394   0.825  0.4249 -0.0172 -0.1291
  173SOL    HW1  518   1.363   2.302   0.860  1.5571 -2.0258  0.3849
  173SOL    HW2  519   1.331   2.479   0.838 -2.1242  3.8054 -0.3648
  174SOL     OW  520   2.357   0.080   0.364  0.0377 -0.2798 -0.1398
  174SOL    HW1  521   2.357   0.035   0.455  1.1438  0.8492  0.6230
  174SOL    HW2  522   2.393   0.176   0.372 -1.7192  3.0710  1.7374
  175SOL     OW  523   0.987   1.687   0.541  0.2529 -0.0504 -0.1357
  175SOL    HW1  524   1.033   1.751   0.477 -1.6119 -0.2657 -0.0582
  175SOL    HW2  525   0.902   1.646   0.499 -0.7234  0.8681 -2.1614
  176SOL     OW  526   0.554   1.407   0.586  0.2116 -0.3704 -0.4320
  176SOL    HW1  527   0.518   1.496   0.619 -0.8735 -0.0982  0.7315
  176SOL    HW2  528   0.489   1.370   0.517 -0.4900  1.4744 -0.1338
  177SOL     OW  529   1.211   1.247   1.528 -0.1685  0.0490  0.0045
  177SOL    HW1  530   1.118   1.260   1.569  2.6444  0.1007  2.5316
  177SOL    HW2  531   1.268   1.189   1.588  2.0703 -0.2572  2.9818
  178SOL     OW  532   2.441   1.583   0.538  0.0591 -0.1691  0.0222
  178SOL    HW1  533   2.481   1.673   0.557  0.7920 -3.1145 -0.3088
  178SOL    HW2  534   2.442   1.563   0.437 -0.6988  0.5629 -0.7333
  179SOL     OW  535   1.070   2.435   2.941  0.2388  0.0323 -0.7398
  179SOL    HW1  536   1.066   2.378   3.025  1.0411 -0.1083 -2.4494
  179SOL    HW2  537   1.097   2.394   2.854  1.1436  1.1648  0.7604
  180SOL     OW  538   1.947   1.649   2.090  0.4962 -0.0892 -0.0317
  180SOL    HW1  539   2.020   1.675   2.158 -1.6119  0.4908  0.8069
  180SOL    HW2  540   1.988   1.636   1.998 -2.4343 -0.9687  1.8215
  181SOL     OW  541   0.663   0.818   2.234  0.6383  0.8934  0.0715
  181SOL    HW1  542   0.573   0.840   2.187 -0.2626  2.0651  2.4881
  181SOL    HW2  543   0.738   0.806   2.169  1.2549 -0.9035  0.2292
  182SOL     OW  544   2.793   0.850   2.212 -0.2968 -0.1716  0.2522
  182SOL    HW1  545   2.721   0.864   2.282  1.9244  1.9445 -0.3617
  182SOL    HW2  546   2.860   0.776   2.242  0.3339 -0.8028 -0.8808
  183SOL     OW  547   1.621   0.839   2.233  0.3731  0.0553 -0.5595
  183SOL    HW1  548   1.573   0.751   2.251 -1.5490 -1.0875  2.7707
  183SOL    HW2  549   1.551   0.908   2.198 -2.4119 -0.8767 -0.3629
  184SOL     OW  550   0.339   0.658   1.818  0.0541 -0.2885  0.0664
  184SOL    HW1  551   0.338   0.571   1.873 -2.2115 -2.7939  1.6764
  184SOL    HW2  552   0.419   0.722   1.839 -1.1805  0.9709  0.1590
  185SOL     OW  553   2.024   1.896   0.866  0.8037  0.0064  0.3699
  185SOL    HW1  554   2.070   1.874   0.777  1.4367 -0.3334 -1.5899
  185SOL    HW2  555   2.068   1.843   0.944 -0.2772 -1.1573  1.8170
  186SOL     OW  556   0.381   1.819   0.273  0.0861 -0.3143 -0.1081
  186SOL    HW1  557   0.421   1.759   0.199 -1.7779  1.5949  0.1540
  186SOL    HW2  558   0.282   1.794   0.286 -0.6903  1.2260  0.2903
  187SOL     OW  559   2.081   1.867   0.150 -0.0813 -0.2248  0.3133
  187SOL    HW1  560   2.181   1.885   0.179  0.6257  0.5145  0.9772
  187SOL    HW2  561   2.070   1.841   0.052 -0.1439  1.6672  1.8316
  188SOL     OW  562   0.907   2.273   1.083  0.3903  1.0098 -0.3906
  188SOL    HW1  563   1.000   2.221   1.078  0.6769 -0.5324  1.6095
  188SOL    HW2  564   0.911   2.357   1.023 -2.3984  0.0917  2.0821
  189SOL     OW  565   1.886   1.244   2.684  0.1994 -0.1294  0.6489
  189SOL    HW1  566   1.884   1.149   2.713 -0.7062  1.8388  1.4277
  189SOL    HW2  567   1.884   1.255   2.582  0.3787  0.5685 -0.9617
  190SOL     OW  568   0.961   2.112   2.363 -0.1829 -0.2594  0.1645
  190SOL    HW1  569   0.992   2.039   2.429 -0.9118  1.1326 -1.4745
  190SOL    HW2  570   1.036   2.162   2.316 -1.7855  1.6378  1.4529
  191SOL     OW  571   2.267   0.676   1.281 -0.0634  0.6789 -0.2849
  191SOL    HW1  572   2.211   0.710   1.361  3.0623  0.7264 -1.3456
  191SOL    HW2  573   2.348   0.629   1.323  1.7540 -0.6485  0.3369
  192SOL     OW  574   2.457   0.500   1.885 -0.6709 -0.0772 -0.2357
  192SOL    HW1  575   2.424   0.523   1.789  0.0620 -0.7225  0.2168
  192SOL    HW2  576   2.495   0.587   1.925  1.0502  0.5304  1.1550
  193SOL     OW  577   0.748   0.100   0.751  0.4174 -0.1595  0.4213
  193SOL    HW1  578   0.756   0.032   0.670  2.2020 -0.7066  0.7391
  193SOL    HW2  579   0.837   0.105   0.802 -0.2752 -0.3083 -3.3483
  194SOL     OW  580   1.307   2.329   1.666  0.3887 -0.3580  0.5216
  194SOL    HW1  581   1.249   2.254   1.616 -0.8323  2.1226  0.6652
  194SOL    HW2  582   1.248   2.406   1.697 -0.3122  1.4082 -2.0440
  195SOL     OW  583   2.779   0.878   0.865 -0.1306  0.4373 -0.2138
  195SOL    HW1  584   2.716   0.947   0.902  3.0864 -0.6648 -0.3806
  195SOL    HW2  585   2.780   0.874   0.762  2.0009 -0.8057 -1.4008
  196SOL     OW  586   0.892   1.754   1.749  0.0852 -0.3418 -0.2271
  196SOL    HW1  587   0.906   1.854   1.713 -0.8231  1.4281 -0.8389
  196SOL    HW2  588   0.843   1.760   1.837 -1.3330  2.5171  0.3530
  197SOL     OW  589   0.271   0.803   2.446  0.1003 -0.1785  0.0623
  197SOL    HW1  590   0.238   0.878   2.384 -0.6064  1.4331  0.4184
  197SOL    HW2  591   0.266   0.709   2.404  0.0404 -1.7526 -0.5737
  198SOL     OW  592   1.593   1.049   0.242  0.0098 -0.3716  0.2257
  198SOL    HW1  593   1.574   0.946   0.225  0.7096  2.3419 -0.9824
  198SOL    HW2  594   1.526   1.082   0.308  2.9250  1.6527  0.5352
  199SOL     OW  595   2.761   0.554   2.078 -0.2441  0.3254  0.1900
  199SOL    HW1  596   2.743   0.562   2.176  2.4089  2.0464 -1.5748
  199SOL    HW2  597   2.687   0.596   2.020  0.5916 -0.4287 -0.9367
  200SOL     OW  598   2.251   2.494   2.505 -0.7506 -0.3530 -0.0113
  200SOL    HW1  599   2.291   2.588   2.494  1.2499  1.3957  1.1719
  200SOL    HW2  600   2.213   2.475   2.599  2.8407  1.4074  0.2160
  201SOL     OW  601   2.303   0.142   1.312  0.6315 -0.4186  0.7517
  201SOL    HW1  602   2.298   0.215   1.383 -0.9140 -0.1366  4.3106
  201SOL    HW2  603   2.360   0.062   1.337 -2.9034  2.6387 -2.5360
  202SOL     OW  604   2.940   2.606   0.141 -0.4313  0.3647 -0.0317
  202SOL    HW1  605   2.926   2.709   0.149  4.0985  1.6751  1.0976
  202SOL    HW2  606   2.891   2.557   0.215 -0.9109  0.0171 -1.4612
  203SOL     OW  607   1.048   2.152   2.801  0.3827 -0.2973 -0.1063
  203SOL    HW1  608   0.949   2.171   2.772 -2.1158  1.1159 -1.4138
  203SOL    HW2  609   1.065   2.059   2.766 -1.7347 -2.7833 -0.1122
  204SOL     OW  610   0.556   1.812   2.431 -0.1340  0.3391  0.8303
  204SOL    HW1  611   0.633   1.749   2.409  1.1848  0.9726  1.8395
  204SOL    HW2  612   0.588   1.894   2.483  3.0211  1.8582  0.0366
  205SOL     OW  613   0.897   1.056   1.261  0.3800 -0.3494  0.1912
  205SOL    HW1  614   0.850   0.963   1.252 -1.5069 -0.7840  1.5447
  205SOL    HW2  615   0.985   1.039   1.313 -0.0018 -2.5987  1.5879
  206SOL     OW  616   0.051   0.460   2.560 -0.1898  0.4878  0.1475
  206SOL    HW1  617   3.093   0.538   2.557 -0.3491 -2.6589  1.4052
  206SOL    HW2  618   0.121   0.466   2.488 -1.1050 -1.0407  1.3729
  207SOL     OW  619   1.822   2.359   1.981 -0.3115  0.0884  0.2236
  207SOL    HW1  620   1.915   2.379   2.017  1.1970 -1.9598  0.2413
  207SOL    HW2  621   1.824   2.289   1.910  0.3884 -0.7091  1.9404
  208SOL     OW  622   1.117   2.698   1.501 -0.2255  0.0853  0.0695
  208SOL    HW1  623   1.034   2.686   1.443 -0.9969  0.6821 -0.8672
  208SOL    HW2  624   1.179   2.762   1.454 -1.6239 -1.6543  1.1561
  209SOL     OW  625   1.201   1.499   3.003 -0.1890  0.4698  0.0930
  209SOL    HW1  626   1.256   1.423   3.038  0.0693 -2.5218  1.1158
  209SOL    HW2  627   1.163   1.469   2.916  3.7252  1.9131  1.8230
  210SOL     OW  628   2.209   0.719   0.844  0.5576  0.0255 -0.1910
  210SOL    HW1  629   2.307   0.745   0.826 -0.4797  1.6946  0.9208
  210SOL    HW2  630   2.160   0.711   0.754 -2.6065 -2.2363  0.7313
  211SOL     OW  631   1.293   2.614   0.407  0.2769 -0.7546 -0.4959
  211SOL    HW1  632   1.301   2.524   0.458  1.6383  0.5440  3.7534
  211SOL    HW2  633   1.206   2.667   0.430 -3.5354  0.9464  0.6787
  212SOL     OW  634   2.021   2.202   0.924 -0.1863  0.0431 -0.2224
  212SOL    HW1  635   2.095   2.269   0.903 -2.4064 -1.1233  0.4092
  212SOL    HW2  636   2.055   2.111   0.888  0.1378 -2.1867  0.2600
  213SOL     OW  637   1.689   0.563   2.893 -0.1822 -0.7575  0.0400
  213SOL    HW1  638   1.643   0.524   2.977 -2.2446 -0.1098 -1.0299
  213SOL    HW2  639   1.701   0.667   2.903  3.0590  2.3990  0.8392
  214SOL     OW  640   0.799   1.788   2.007 -0.2447 -0.6873 -0.3323
  214SOL    HW1  641   0.728   1.728   2.042 -0.5111  0.8394 -2.9628
  214SOL    HW2  642   0.783   1.882   2.033 -1.9814 -1.0587 -1.7457
  215SOL     OW  643   0.319   1.389   0.443 -0.0594  0.3926 -0.3536
  215SOL    HW1  644   0.313   1.407   0.341  1.3280 -1.2062 -3.3328
  215SOL    HW2  645   0.252   1.447   0.495 -2.5635  0.8735 -0.4680
  216SOL     OW  646   0.165   2.935   2.496  0.2444  0.1708 -0.2398
  216SOL    HW1  647   0.257   2.899   2.470 -0.8141  0.3350 -0.4376
  216SOL    HW2  648   0.131   2.897   2.584 -0.3072 -0.7484 -0.5645
  217SOL     OW  649   2.589   1.008   1.193 -0.3109  0.3376  0.2346
  217SOL    HW1  650   2.540   0.914   1.203 -0.8115 -1.1784  0.3009
  217SOL    HW2  651   2.663   1.014   1.265  2.5540 -3.2227  2.9785
  218SOL     OW  652   1.411   1.692   2.181 -0.1852  0.0926 -0.3397
  218SOL    HW1  653   1.441   1.725   2.089  0.3311 -2.3846  1.7264
  218SOL    HW2  654   1.330   1.626   2.180 -1.9573 -2.7137  0.2873
  219SOL     OW  655   2.171   1.491   0.223  0.0352  0.3302  0.1346
  219SOL    HW1  656   2.220   1.404   0.248 -0.1371  0.9536 -0.3922
  219SOL    HW2  657   2.093   1.461   0.164  5.4496 -0.4354 -0.6446
  220SOL     OW  658   2.162   0.951   0.227  0.2456 -0.4264  0.4097
  220SOL    HW1  659   2.222   0.920   0.151  1.1066  0.8922  3.1511
  220SOL    HW2  660   2.066   0.968   0.199  0.4888  2.6065  2.3182
  221SOL     OW  661   0.099   0.328   0.078 -0.0222  0.0199  0.2095
  221SOL    HW1  662   0.162   0.336   0.001 -0.1255  2.6435 -1.7185
  221SOL    HW2  663   0.036   0.251   0.062 -0.6740 -1.1494  0.8527
  222SOL     OW  664   1.290   1.756   0.591  0.0096 -0.0677 -0.3007
  222SOL    HW1  665   1.217   1.686   0.618 -0.7316 -2.5405  0.9907
  222SOL    HW2  666   1.266   1.852   0.626  2.6555  1.3423  2.0900
  223SOL     OW  667   0.780   0.319   3.060 -0.1628  0.5207  0.6701
  223SOL    HW1  668   0.820   0.227   3.083  0.6477 -0.4965 -1.4178
  223SOL    HW2  669   0.736   0.325   2.970  0.3795  2.5982  1.4220
  224SOL     OW  670   1.788   0.249   1.159 -0.4319 -0.3363 -0.2502
  224SOL    HW1  671   1.774   0.242   1.259 -0.5158  1.2619 -1.8025
  224SOL    HW2  672   1.774   0.160   1.117 -0.0744 -0.0613 -0.5492
  225SOL     OW  673   0.644   2.539   1.250 -0.0709  0.5516  0.4972
  225SOL    HW1  674   0.653   2.500   1.154  1.2830  0.1562 -1.6728
  225SOL    HW2  675   0.548   2.564   1.273 -0.7050 -0.2427  1.8807
  226SOL     OW  676   0.987   1.614   0.035 -0.1118 -0.3582  0.0845
  226SOL    HW1  677   0.979   1.575   0.130 -0.5741 -1.0454  1.9414
  226SOL    HW2  678   1.071   1.576   3.095  0.9473  1.7350  1.3152
  227SOL     OW  679   0.733   1.613   0.889 -0.5640 -0.1624  0.3440
  227SOL    HW1  680   0.646   1.596   0.836 -1.2300  0.7754  1.1132
  227SOL    HW2  681   0.735   1.548   0.968 -2.2656 -2.4160 -2.0112
  228SOL     OW  682   0.117   1.516   0.574 -0.6702 -0.0630 -0.3868
  228SOL    HW1  683   0.102   1.617   0.559  1.8825  1.6260 -0.4428
  228SOL    HW2  684   0.094   1.491   0.672 -2.0784 -1.2492  0.9958
  229SOL     OW  685   2.293   0.343   2.590  0.0540  0.1191 -0.1013
  229SOL    HW1  686   2.198   0.305   2.602 -1.4589 -0.5633 -0.5682
  229SOL    HW2  687   2.340   0.364   2.680  1.4618  1.6665 -1.1568
  230SOL     OW  688   1.937   1.299   0.360 -0.0545 -0.2603  0.1195
  230SOL    HW1  689   1.932   1.336   0.454  1.6313  0.7307 -0.6895
  230SOL    HW2  690   1.883   1.210   0.354 -1.8712 -2.9852 -0.3140
  231SOL     OW  691   1.222   1.540   2.504 -0.4770  0.1342 -0.2106
  231SOL    HW1  692   1.253   1.635   2.495 -0.7379  1.6035  0.0634
  231SOL    HW2  693   1.302   1.476   2.527 -0.2142 -1.0946 -0.4821
  232SOL     OW  694   2.415   2.169   0.652 -0.1597 -0.3174  0.2590
  232SOL    HW1  695   2.402   2.136   0.748 -1.5555 -0.1568 -0.4569
  232SOL    HW2  696   2.406   2.086   0.592  0.0333 -0.0711  0.0734
  233SOL     OW  697   0.454   2.374   0.531  0.0382 -0.1818 -0.4403
  233SOL    HW1  698   0.551   2.370   0.560 -2.2839 -1.0276  2.2549
  233SOL    HW2  699   0.445   2.349   0.433  1.1601 -0.2132  0.7282
  234SOL     OW  700   0.668   0.730   2.662  0.1760 -0.0549  0.3704
  234SOL    HW1  701   0.618   0.705   2.578 -2.1404 -0.9637 -0.4093
  234SOL    HW2  702   0.601   0.749   2.738 -0.2218 -0.0366 -0.5881
  235SOL     OW  703   2.704   0.434   2.363 -0.1464  0.4957  0.0673
  235SOL    HW1  704   2.653   0.358   2.409 -1.4777 -4.1501  2.4965
  235SOL    HW2  705   2.798   0.408   2.332 -0.9241  1.7887 -1.6877
  236SOL     OW  706   1.709   2.691   1.213 -0.5267  0.1616  0.1192
  236SOL    HW1  707   1.801   2.715   1.248  0.1178 -0.1303  1.3131
  236SOL    HW2  708   1.709   2.598   1.168 -2.0981  2.0858 -1.7072
  237SOL     OW  709   0.803   1.732   2.332 -0.1234 -0.1245  0.4447
  237SOL    HW1  710   0.860   1.803   2.380 -0.4900  0.2659  1.0314
  237SOL    HW2  711   0.802   1.641   2.372  0.1391  3.2347  0.7200
  238SOL     OW  712   1.018   0.413   2.190 -0.0483  0.2547 -0.3287
  238SOL    HW1  713   1.113   0.383   2.217  0.2528  0.9823  1.5896
  238SOL    HW2  714   1.011   0.506   2.217 -1.0028 -2.8824  1.6845
  239SOL     OW  715   0.270   2.275   1.902  0.4201 -0.8609 -0.0861
  239SOL    HW1  716   0.335   2.287   1.973 -2.0448  2.0344 -1.1099
  239SOL    HW2  717   0.296   2.333   1.826 -0.1158  1.6483 -0.2567
  240SOL     OW  718   2.562   2.719   0.377 -0.2872  0.0220  0.7275
  240SOL    HW1  719   2.463   2.704   0.362  3.2461  0.6897  2.7575
  240SOL    HW2  720   2.589   2.820   0.367  1.9566 -1.3895  1.4076
  241SOL     OW  721   2.592   1.072   0.939  0.7247  0.0195 -0.3557
  241SOL    HW1  722   2.593   1.034   1.030  0.4613  1.0013  0.1262
  241SOL    HW2  723   2.497   1.078   0.907 -0.0738  0.3511 -0.5391
  242SOL     OW  724   2.070   2.402   2.039 -0.0614  0.6786  0.5522
  242SOL    HW1  725   2.086   2.364   2.134 -0.2428  1.0736  4.6078
  242SOL    HW2  726   2.127   2.487   2.020 -0.2611 -1.3327  0.8821
  243SOL     OW  727   0.730   2.789   1.613  0.5333 -0.2952 -0.2932
  243SOL    HW1  728   0.790   2.715   1.567  2.0456 -0.2527 -3.8373
  243SOL    HW2  729   0.784   2.873   1.633 -0.4804  0.7466 -1.3718
  244SOL     OW  730   2.141   0.475   2.849  0.3159  0.5303 -0.6482
  244SOL    HW1  731   2.049   0.485   2.807  2.0116 -0.7971 -0.6146
  244SOL    HW2  732   2.194   0.557   2.829  0.5490 -2.0940 -2.1073
  245SOL     OW  733   1.449   0.475   1.161  0.3566  0.4910  0.2574
  245SOL    HW1  734   1.402   0.536   1.092 -1.2750  0.0200 -2.7284
  245SOL    HW2  735   1.383   0.440   1.228  1.3983  2.0243  1.5117
  246SOL     OW  736   1.813   2.414   3.008  0.2073  0.1590 -0.0016
  246SOL    HW1  737   1.912   2.410   2.980  1.2130  1.1895 -0.6767
  246SOL    HW2  738   1.766   2.493   2.962  0.5713 -1.2747  0.5997
  247SOL     OW  739   0.983   0.854   2.599  0.7498  0.1193  0.2025
  247SOL    HW1  740   0.885   0.820   2.606 -1.6823  0.0988  0.5119
  247SOL    HW2  741   1.016   0.899   2.685  0.5986 -0.2475  0.7599
  248SOL     OW  742   0.427   1.907   1.887 -0.0262  0.4789 -0.2412
  248SOL    HW1  743   0.418   1.950   1.978  0.4599  0.0165  0.1862
  248SOL    HW2  744   0.339   1.877   1.853  0.9416 -0.8453  1.6190
  249SOL     OW  745   2.593   0.294   0.532 -0.2913 -0.3624  0.2232
  249SOL    HW1  746   2.542   0.317   0.447  1.6376  0.0422  2.8614
  249SOL    HW2  747   2.614   0.195   0.538 -0.0527 -0.8647 -0.1368
  250SOL     OW  748   2.725   0.266   2.871 -0.1485 -0.0076 -0.3209
  250SOL    HW1  749   2.749   0.307   2.961  1.6473 -0.8476 -2.3264
  250SOL    HW2  750   2.784   0.309   2.802 -2.0089 -0.8003  0.9870
  251SOL     OW  751   1.392   0.705   3.049 -0.0909  0.3134  0.0220
  251SOL    HW1  752   1.405   0.602   3.035 -0.2244  0.8365  1.2170
  251SOL    HW2  753   1.446   0.736   0.031  0.5144  1.0207  1.0214
  252SOL     OW  754   1.457   1.962   1.777 -0.1015 -0.6083  0.3233
  252SOL    HW1  755   1.354   1.973   1.782 -0.6344  3.6236 -0.8237
  252SOL    HW2  756   1.500   2.055   1.765  1.5338 -1.4148  0.5052
  253SOL     OW  757   2.313   2.521   0.955  0.2684  0.4719  0.0714
  253SOL    HW1  758   2.387   2.563   0.903  0.1132 -2.0555 -1.0520
  253SOL    HW2  759   2.342   2.484   1.047  1.0850 -1.7985 -2.9793
  254SOL     OW  760   2.269   1.218   0.585 -0.3343  0.4618 -0.0219
  254SOL    HW1  761   2.238   1.231   0.488 -1.8847  1.1041 -1.9327
  254SOL    HW2  762   2.275   1.119   0.606 -2.6063  1.3138 -1.9542
  255SOL     OW  763   1.487   0.204   1.346  0.4319 -0.0300 -0.7667
  255SOL    HW1  764   1.503   0.136   1.423 -1.6741  1.5314  1.5391
  255SOL    HW2  765   1.479   0.145   1.260 -1.1841 -0.3229 -0.8037
  256SOL     OW  766   1.493   2.426   1.452 -0.1009  0.3574 -0.1061
  256SOL    HW1  767   1.561   2.355   1.424 -3.0740 -2.5962  0.5378
  256SOL    HW2  768   1.413   2.386   1.502 -3.2314 -0.2800 -0.2286
  257SOL     OW  769   0.624   2.995   2.599 -0.5947 -0.3788  0.3574
  257SOL    HW1  770   0.692   3.059   2.557  2.4419  0.6525  1.2824
  257SOL    HW2  771   0.681   2.914   2.633  1.8262 -1.3023  1.9408
  258SOL     OW  772   1.041   2.365   0.491  0.4172  0.2841  0.1072
  258SOL    HW1  773   1.002   2.291   0.430  0.5318 -1.7366  1.2040
  258SOL    HW2  774   1.140   2.354   0.515  4.7250 -2.7864  0.7804
  259SOL     OW  775   1.485   0.270   2.856 -0.0706  0.1340 -0.2448
  259SOL    HW1  776   1.554   0.225   2.912  0.2033  0.9390  0.0246
  259SOL    HW2  777   1.511   0.267   2.759 -0.4741  0.1624  0.8247
  260SOL     OW  778   2.539   0.473   1.317  0.2199 -0.2727  0.9425
  260SOL    HW1  779   2.612   0.460   1.385  1.4072 -1.5669 -1.1545
  260SOL    HW2  780   2.461   0.412   1.345 -0.5865 -0.2515 -0.0120
  261SOL     OW  781   0.805   0.533   2.533  0.3302  0.0419 -0.2602
  261SOL    HW1  782   0.769   0.607   2.594 -0.7708  0.4745  0.2142
  261SOL    HW2  783   0.746   0.525   2.451  0.6183 -1.5761  1.9578
  262SOL     OW  784   0.826   2.488   2.308 -0.7445  0.4245 -0.2021
  262SOL    HW1  785   0.769   2.495   2.392  0.0992  1.6577 -0.4423
  262SOL    HW2  786   0.904   2.556   2.312 -0.1622  0.1136 -0.1661
  263SOL     OW  787   0.369   1.775   2.699  0.4381  0.1409 -0.4308
  263SOL    HW1  788   0.286   1.834   2.711  0.7323  0.5771 -1.3207
  263SOL    HW2  789   0.442   1.813   2.645 -0.2394 -1.4035 -0.7120
  264SOL     OW  790   1.116   1.524   0.773  0.7303  0.2599 -0.2353
  264SOL    HW1  791   1.085   1.510   0.870  1.8874 -1.6544  4.3139
  264SOL    HW2  792   1.048   1.586   0.730  1.3940  0.9966  1.3788
  265SOL     OW  793   1.303   2.376   0.568  0.2493  0.2454  0.5259
  265SOL    HW1  794   1.351   2.298   0.526 -0.1259  1.6299 -0.3052
  265SOL    HW2  795   1.344   2.404   0.655 -1.8645 -1.8919  0.4868
  266SOL     OW  796   1.811   0.785   1.148  0.0678 -0.0542  1.0000
  266SOL    HW1  797   1.760   0.700   1.172 -0.0746 -0.9610  0.8815
  266SOL    HW2  798   1.904   0.763   1.106 -0.7566 -0.9986 -1.7357
  267SOL     OW  799   2.754   1.201   2.715  0.7264 -0.3895  0.2121
  267SOL    HW1  800   2.773   1.247   2.624  1.0152 -1.1623 -0.6708
  267SOL    HW2  801   2.689   1.120   2.705 -1.3063 -3.8038  1.7098
  268SOL     OW  802   1.434   0.115   0.063  0.3521 -0.4291  0.2097
  268SOL    HW1  803   1.453   0.043   0.131 -1.4306 -1.8784  0.1982
  268SOL    HW2  804   1.382   0.193   0.106 -1.8261  1.4063 -4.3667
  269SOL     OW  805   2.568   0.630   2.479  0.0123  0.2413  0.1944
  269SOL    HW1  806   2.597   0.637   2.577 -0.2504  2.9826 -1.3397
  269SOL    HW2  807   2.629   0.565   2.425  0.7071 -1.2578  0.8164
  270SOL     OW  808   3.001   1.486   0.328  0.0445 -0.3282  0.2275
  270SOL    HW1  809   3.039   1.390   0.323  1.5826  0.0516 -0.0688
  270SOL    HW2  810   3.076   1.556   0.325 -1.0666  1.3233 -1.4577
  271SOL     OW  811   2.564   0.998   2.719  0.2746 -0.5986 -0.2224
  271SOL    HW1  812   2.497   1.008   2.640  2.3132 -2.2149 -1.0347
  271SOL    HW2  813   2.525   0.942   2.792  0.8708 -0.5804 -0.6500
  272SOL     OW  814   2.960   2.446   2.410 -0.2875 -0.1960 -0.3560
  272SOL    HW1  815   3.048   2.396   2.398  2.5683 -2.9594 -0.6938
  272SOL    HW2  816   2.890   2.396   2.470 -1.2503 -0.5460  2.8880
  273SOL     OW  817   0.478   2.695   0.597 -0.3832  0.1247  0.4687
  273SOL    HW1  818   0.540   2.752   0.650  0.7833 -1.5592 -0.6496
  273SOL    HW2  819   0.462   2.605   0.644 -1.0651 -0.9491  0.0813
  274SOL     OW  820   0.740   2.124   0.731  0.3839 -0.0721  0.2811
  274SOL    HW1  821   0.830   2.097   0.701  0.5311  0.1771  3.2383
  274SOL    HW2  822   0.731   2.099   0.830  2.5236  0.1913  1.7654
  275SOL     OW  823   2.525   1.140   0.324 -0.0698 -0.4775  0.1680
  275SOL    HW1  824   2.463   1.168   0.399 -1.2968  2.4817  0.9992
  275SOL    HW2  825   2.476   1.164   0.239 -2.6266 -1.1894 -1.7033
  276SOL     OW  826   2.479   1.704   1.354 -0.4757  0.7060  0.1081
  276SOL    HW1  827   2.539   1.641   1.406  1.5817 -1.8760 -0.0691
  276SOL    HW2  828   2.428   1.645   1.281 -0.5269 -0.9629 -1.8599
  277SOL     OW  829   2.761   3.097   0.844  0.3986 -0.3281  0.5545
  277SOL    HW1  830   2.684   3.074   0.899  1.6926  0.3737 -0.3793
  277SOL    HW2  831   2.851   3.099   0.894  1.8090  1.9075  0.9453
  278SOL     OW  832   1.511   0.329   2.255 -0.2367  0.3353  0.0808
  278SOL    HW1  833   1.409   0.320   2.275 -0.6240  1.1191 -0.4605
  278SOL    HW2  834   1.573   0.275   2.317  0.9813 -1.9726  0.2759
  279SOL     OW  835   1.500   2.765   0.851  0.0582  0.1313 -0.2457
  279SOL    HW1  836   1.484   2.860   0.811  3.4400  2.0081 -1.4831
  279SOL    HW2  837   1.418   2.703   0.842 -1.3251 -2.1919 -1.4943
  280SOL     OW  838   0.728   0.986   0.873 -0.8641  0.0721  0.1023
  280SOL    HW1  839   0.771   1.073   0.901 -0.5619 -1.0930  1.7273
  280SOL    HW2  840   0.636   1.007   0.830 -0.2651  0.2446 -0.2226
  281SOL     OW  841   2.580   1.409   2.809 -0.0210  0.1135  0.4263
  281SOL    HW1  842   2.644   1.330   2.809 -0.6514 -0.1342  1.2610
  281SOL    HW2  843   2.572   1.446   2.714  2.0449 -1.1753 -1.3158
  282SOL     OW  844   0.011   1.224   0.354  0.3388 -0.3411 -0.3500
  282SOL    HW1  845   3.041   1.175   0.416  0.1932 -0.0725  0.0249
  282SOL    HW2  846   0.097   1.251   0.407 -0.3375 -0.9300 -3.1591
  283SOL     OW  847   1.947   2.657   2.742  0.3091  0.6951 -0.2603
  283SOL    HW1  848   1.961   2.733   2.679 -1.2090 -1.1968 -0.3279
  283SOL    HW2  849   1.870   2.594   2.713 -2.0382  0.0965 -1.6523
  284SOL     OW  850   0.939   0.086   0.081 -0.0498  0.6817  0.1938
  284SOL    HW1  851   0.927   3.084   0.096  2.2572 -0.6758 -0.0688
  284SOL    HW2  852   0.918   0.126   0.170  2.0430  1.9860 -1.9730
  285SOL     OW  853   2.582   1.534   2.562 -0.0460 -0.5917 -0.3297
  285SOL    HW1  854   2.631   1.522   2.477 -0.1740  1.2194  3.1611
  285SOL    HW2  855   2.525   1.619   2.553  1.4989  0.9251 -0.0747
  286SOL     OW  856   1.327   2.148   0.867 -0.2572  0.1156  0.1645
  286SOL    HW1  857   1.277   2.094   0.793  0.5516  0.2428  0.4821
  286SOL    HW2  858   1.407   2.096   0.906 -1.3679  3.2165 -1.3750
  287SOL     OW  859   1.624   0.371   0.747  0.3204  0.4214 -1.0967
  287SOL    HW1  860   1.531   0.414   0.766 -2.1084  1.4763  0.1714
  287SOL    HW2  861   1.707   0.435   0.756  0.2920  1.1080  0.8736
  288SOL     OW  862   0.938   2.927   2.254  0.4010  0.7269  0.0460
  288SOL    HW1  863   0.977   2.848   2.310  2.9464 -1.5521  0.1497
  288SOL    HW2  864   0.872   2.890   2.185  1.2119 -0.8911 -1.2221
  289SOL     OW  865   0.079   1.387   0.793 -0.2661  0.4833  0.5422
  289SOL    HW1  866   0.072   1.419   0.888 -0.9901 -2.0135  0.0118
  289SOL    HW2  867   0.052   1.290   0.781  0.4401 -0.5718 -2.4350
  290SOL     OW  868   1.128   2.113   1.055  0.7225  0.2103 -0.1874
  290SOL    HW1  869   1.203   2.119   0.987  2.7907  1.0099  0.9558
  290SOL    HW2  870   1.142   2.033   1.121  1.9427  1.3009  0.2016
  291SOL     OW  871   1.543   2.752   0.360 -0.3933  0.2694 -0.0854
  291SOL    HW1  872   1.595   2.706   0.436  0.3365 -1.7730 -0.1169
  291SOL    HW2  873   1.451   2.700   0.348  1.0901  0.2738  0.9537
  292SOL     OW  874   0.591   0.154   2.275  0.2876 -0.4144 -0.1219
  292SOL    HW1  875   0.676   0.210   2.290  0.7541  0.6920  0.0952
  292SOL    HW2  876   0.514   0.194   2.324  1.6758  2.4581 -1.7504
  293SOL     OW  877   2.409   1.774   0.820 -0.2450  0.5462 -0.0455
  293SOL    HW1  878   2.483   1.780   0.751 -1.2127 -2.1782 -1.1881
  293SOL    HW2  879   2.395   1.870   0.853 -0.7797 -1.4219  1.0520
  294SOL     OW  880   0.774   0.067   2.075 -0.9041 -0.6384  0.2384
  294SOL    HW1  881   0.828   0.044   2.154 -3.5872  2.1771  0.9509
  294SOL    HW2  882   0.690   0.009   2.061  2.8711  1.3247 -0.6018
  295SOL     OW  883   1.091   1.746   1.107 -0.1058 -0.2319 -0.0923
  295SOL    HW1  884   1.077   1.645   1.116 -1.1663 -1.5337 -0.3551
  295SOL    HW2  885   1.037   1.785   1.031  0.2000 -3.1811  1.9057
  296SOL     OW  886   2.185   1.858   0.637  0.5976 -1.1009 -0.1636
  296SOL    HW1  887   2.199   1.811   0.544 -1.4651 -1.7273 -1.3276
  296SOL    HW2  888   2.253   1.816   0.704 -1.8909 -1.5741  1.0546
  297SOL     OW  889   2.501   2.987   3.080 -0.1021  0.8406  0.4345
  297SOL    HW1  890   2.430   2.939   3.025  0.6184 -1.4272 -2.3615
  297SOL    HW2  891   2.500   2.958   0.076  0.1573  0.8025 -4.2217
  298SOL     OW  892   1.278   0.316   2.555  0.5731 -0.4722 -0.4221
  298SOL    HW1  893   1.211   0.387   2.590  0.4537  1.4961  0.9428
  298SOL    HW2  894   1.371   0.326   2.595  0.4283 -0.5799  0.8574
  299SOL     OW  895   1.185   2.768   1.945 -0.4365  0.3474 -0.4341
  299SOL    HW1  896   1.237   2.837   1.895 -2.0234  0.2916 -0.5064
  299SOL    HW2  897   1.200   2.771   2.046  0.1483 -1.0002  0.5292
  300SOL     OW  898   2.694   3.014   1.939 -0.0391 -0.0826 -0.2630
  300SOL    HW1  899   2.650   2.999   2.026  0.5762 -0.0432 -0.3497
  300SOL    HW2  900   2.787   3.059   1.948  0.5086  0.1144 -1.4518
  301SOL     OW  901   2.004   0.402   1.763  0.1282 -0.0062 -0.4292
  301SOL    HW1  902   2.071   0.347   1.812 -1.7037  1.7191  0.2102
  301SOL    HW2  903   2.013   0.385   1.660 -1.3729 -1.4385  0.7588
  302SOL     OW  904   0.281   2.301   0.039 -0.3188 -0.0129 -0.3979
  302SOL    HW1  905   0.248   2.237   3.068 -1.1821 -1.8438  2.8059
  302SOL    HW2  906   0.208   2.371   0.058 -0.4971 -0.8987 -0.2041
  303SOL     OW  907   1.707   2.263   1.405 -0.4775 -0.0218  0.0609
  303SOL    HW1  908   1.707   2.171   1.443  2.4156  0.7081  4.2884
  303SOL    HW2  909   1.763   2.331   1.462  3.1845 -1.4773 -3.7285
  304SOL     OW  910   2.857   0.790   1.337 -0.6735 -0.1636 -0.0463
  304SOL    HW1  911   2.860   0.758   1.238 -0.8820 -0.0742  1.3771
  304SOL    HW2  912   2.858   0.890   1.339 -0.7013 -4.8729  1.5463
  305SOL     OW  913   0.525   1.074   0.687  0.3437 -0.2052 -0.9067
  305SOL    HW1  914   0.442   1.115   0.733  1.1764 -1.6974  0.4923
  305SOL    HW2  915   0.569   1.154   0.637  0.1910  1.7208  0.5925
  306SOL     OW  916   0.235   1.189   2.784  0.3888  0.3814  0.1453
  306SOL    HW1  917   0.260   1.092   2.762  0.1261 -0.2895 -0.4363
  306SOL    HW2  918   0.236   1.240   2.693 -1.9442 -0.3981  2.3216
  307SOL     OW  919   1.162   0.305   1.588  0.6664 -0.1727 -0.3859
  307SOL    HW1  920   1.194   0.291   1.685 -0.9232  1.3824 -1.4911
  307SOL    HW2  921   1.092   0.232   1.559 -4.2637 -0.4943 -1.3041
  308SOL     OW  922   0.386   0.905   1.020  0.4789  0.0638  0.3012
  308SOL    HW1  923   0.312   0.877   1.084  2.2254 -0.4799 -0.6266
  308SOL    HW2  924   0.451   0.833   1.000 -2.2354  1.6433 -0.4140
  309SOL     OW  925   2.342   1.013   0.870  0.0789  0.2700 -0.6104
  309SOL    HW1  926   2.317   0.981   0.770 -1.7077 -3.5647 -3.7003
  309SOL    HW2  927   2.274   1.086   0.904 -0.9978 -0.1062  2.3279
  310SOL     OW  928   0.804   1.651   2.895 -0.4183 -0.2173 -0.7481
  310SOL    HW1  929   0.863   1.617   2.970  0.2156 -3.4046 -1.2808
  310SOL    HW2  930   0.713   1.686   2.931  2.5582  0.4691  0.0632
  311SOL     OW  931   2.354   2.750   2.418  0.5783 -0.3785 -0.2267
  311SOL    HW1  932   2.440   2.731   2.368  1.3970  1.2234 -2.6782
  311SOL    HW2  933   2.358   2.807   2.503 -1.1047 -0.4054  1.1524
  312SOL     OW  934   1.955   2.048   2.961 -0.3564 -0.1823  0.0273
  312SOL    HW1  935   1.913   1.958   2.994  0.8881 -1.8126 -0.2796
  312SOL    HW2  936   2.046   2.064   3.003 -0.1288  0.5125 -1.5822
  313SOL     OW  937   0.498   3.060   0.202 -0.6993  1.1448 -0.1847
  313SOL    HW1  938   0.436   0.042   0.208  2.5835 -1.2550 -1.7784
  313SOL    HW2  939   0.547   3.045   0.289  1.9043  3.5753  0.0667
  314SOL     OW  940   2.293   1.390   2.791 -0.2678 -0.0964 -0.2170
  314SOL    HW1  941   2.236   1.448   2.856  0.8869  1.5245  0.0278
  314SOL    HW2  942   2.395   1.402   2.815  2.5672 -0.5679  0.8467
  315SOL     OW  943   1.558   0.298   2.601 -0.0438 -0.1413  0.2095
  315SOL    HW1  944   1.610   0.249   2.525  2.5851  1.1956 -0.7830
  315SOL    HW2  945   1.591   0.394   2.612 -0.6348  0.4289  1.3324
  316SOL     OW  946   0.033   1.113   0.742 -0.4879 -0.0108  0.3072
  316SOL    HW1  947   0.001   1.081   0.835 -0.4727  1.5399  0.4408
  316SOL    HW2  948   3.063   1.091   0.670 -0.0658 -2.2071  0.0514
  317SOL     OW  949   0.453   2.590   2.916  0.3205  0.2657  0.0172
  317SOL    HW1  950   0.416   2.638   2.835 -0.5221 -0.0678  1.5262
  317SOL    HW2  951   0.544   2.629   2.945 -1.5663  0.3837 -0.2662
  318SOL     OW  952   2.525   2.665   0.843  0.1261 -0.1469 -0.3562
  318SOL    HW1  953   2.465   2.741   0.880  0.3308  1.3283  0.8250
  318SOL    HW2  954   2.618   2.662   0.893  2.4517 -2.3774  3.7707
  319SOL     OW  955   1.062   1.470   2.735 -0.0308 -0.2663  0.1006
  319SOL    HW1  956   0.960   1.482   2.724 -1.0427 -1.6072 -1.1892
  319SOL    HW2  957   1.117   1.522   2.668 -1.1812 -1.6458  2.6864
  320SOL     OW  958   0.556   1.876   1.072 -0.0421 -0.2944 -0.1167
  320SOL    HW1  959   0.462   1.859   1.032 -0.5322 -0.4000 -3.8741
  320SOL    HW2  960   0.586   1.977   1.064  0.6231  1.3538  1.3004
  321SOL     OW  961   1.576   2.904   1.922  0.3340 -0.0934 -0.4069
  321SOL    HW1  962   1.482   2.919   1.886 -3.5844  0.2867  1.4892
  321SOL    HW2  963   1.588   2.951   2.014  1.6762  1.4467  2.0281
  322SOL     OW  964   2.424   2.014   2.217 -0.2776 -0.2305 -0.2071
  322SOL    HW1  965   2.354   2.068   2.265 -1.6351 -2.5953 -0.5455
  322SOL    HW2  966   2.401   2.010   2.119 -0.7833 -0.5117  1.2044
  323SOL     OW  967   2.847   0.248   0.764  0.8975  0.4359 -0.2806
  323SOL    HW1  968   2.833   0.147   0.779 -3.5566  1.0263  3.8729
  323SOL    HW2  969   2.763   0.291   0.803 -2.8636  1.6407 -0.3615
  324SOL     OW  970   2.976   2.720   2.514  0.0174 -0.2199 -0.5841
  324SOL    HW1  971   3.062   2.729   2.569 -0.3609 -0.0655 -0.0116
  324SOL    HW2  972   2.975   2.635   2.464 -2.2642  1.1337  0.8524
  325SOL     OW  973   1.247   0.635   2.525 -0.1643 -0.0415  0.1206
  325SOL    HW1  974   1.257   0.660   2.428 -1.0925 -1.2847 -0.1080
  325SOL    HW2  975   1.153   0.653   2.560  0.8305  0.0624 -1.3287
  326SOL     OW  976   2.242   2.503   1.674  0.0300  0.4166 -0.0996
  326SOL    HW1  977   2.325   2.502   1.727 -1.2842 -1.2507 -6.1270
  326SOL    HW2  978   2.201   2.599   1.675 -2.2340  0.3223  0.4497
  327SOL     OW  979   2.472   2.957   0.246 -0.0884  0.3570 -0.4395
  327SOL    HW1  980   2.440   3.049   0.267  0.5400 -1.8276 -4.4307
  327SOL    HW2  981   2.390   2.896   0.238  0.2881 -1.4527 -1.5384
  328SOL     OW  982   0.134   1.187   1.562 -0.1569  0.1078  0.0110
  328SOL    HW1  983   0.152   1.167   1.659 -2.5482  1.8006 -2.5640
  328SOL    HW2  984   0.128   1.288   1.557 -1.1374 -1.3119 -0.7738
  329SOL     OW  985   2.076   0.760   1.469  0.9583 -0.2235 -0.6297
  329SOL    HW1  986   2.111   0.726   1.558  0.8450 -1.8181 -1.4220
  329SOL    HW2  987   1.989   0.716   1.444  2.0024  0.5346 -0.4923
  330SOL     OW  988   0.109   0.894   1.140 -0.4722 -0.8990  0.2283
  330SOL    HW1  989   0.055   0.964   1.089  1.6600 -0.0445  1.0591
  330SOL    HW2  990   0.075   0.800   1.117  0.2193 -0.9584  3.5715
  331SOL     OW  991   0.596   1.378   1.874  0.1468  0.2265 -0.0513
  331SOL    HW1  992   0.686   1.417   1.904  1.2120  0.3594 -0.6009
  331SOL    HW2  993   0.524   1.457   1.880  0.2940 -0.6968  2.4946
  332SOL     OW  994   0.380   2.574   1.331  0.5226  0.2850 -0.0297
  332SOL    HW1  995   0.299   2.607   1.390 -0.9606  0.8095  0.7640
  332SOL    HW2  996   0.384   2.471   1.339 -3.5320 -3.5178 -1.0923
  333SOL     OW  997   3.018   3.064   0.939 -0.2302  0.0621 -0.2430
  333SOL    HW1  998   3.071   0.049   0.943 -1.8302 -1.8096 -0.7949
  333SOL    HW2  999   3.076   2.981   0.934  0.4809 -0.5801 -0.0308
  334SOL     OW 1000   0.223   1.156   0.544 -0.3304 -0.0997 -0.1038
  334SOL    HW1 1001   0.262   1.249   0.506  1.9213  3.1213  0.2611
  334SOL    HW2 1002   0.176   1.164   0.636  1.0034 -0.0087  1.4582
  335SOL     OW 1003   0.495   2.337   2.962  0.4334 -0.1724 -0.7639
  335SOL    HW1 1004   0.433   2.302   3.037 -2.2975  0.2014  0.3492
  335SOL    HW2 1005   0.476   2.436   2.939  0.4464 -1.1070 -1.4167
  336SOL     OW 1006   3.016   2.621   2.218  0.2880  0.0238 -0.7316
  336SOL    HW1 1007   2.975   2.560   2.290  0.6828  0.5008  1.0765
  336SOL    HW2 1008   2.976   2.599   2.129 -0.9143 -1.7768 -1.9466
  337SOL     OW 1009   1.793   2.175   1.793  0.6571  0.2508  0.2140
  337SOL    HW1 1010   1.693   2.203   1.784 -1.1147 -0.2611 -0.3326
  337SOL    HW2 1011   1.822   2.098   1.734 -1.4468  1.9431 -1.1728
  338SOL     OW 1012   1.026   0.417   2.674 -0.4081 -0.6503 -0.0418
  338SOL    HW1 1013   0.970   0.449   2.594 -0.0133  1.1808  2.4831
  338SOL    HW2 1014   1.007   0.321   2.691  1.3009  1.4891  0.2022
  339SOL     OW 1015   0.305   1.209   2.221  0.2506 -0.5137 -0.5994
  339SOL    HW1 1016   0.321   1.221   2.122  0.8641 -2.1895  1.9039
  339SOL    HW2 1017   0.334   1.286   2.282 -0.2077  1.9115  0.1707
  340SOL     OW 1018   1.956   0.129   0.796  0.1691 -0.0556 -0.3847
  340SOL    HW1 1019   2.043   0.073   0.792  0.0338 -2.1123  1.6986
  340SOL    HW2 1020   1.910   0.111   0.882 -0.3677 -2.4831 -2.5221
  341SOL     OW 1021   1.971   1.178   0.762  0.5885 -0.5557  0.0331
  341SOL    HW1 1022   2.059   1.195   0.803  2.4671 -0.1074  1.1189
  341SOL    HW2 1023   1.947   1.259   0.705 -1.3857 -0.4276  2.3271
  342SOL     OW 1024   2.256   2.655   3.007  0.1222  0.0943  0.4113
  342SOL    HW1 1025   2.323   2.606   2.948  4.4328  0.7831  1.1316
  342SOL    HW2 1026   2.178   2.587   3.012  0.2081  0.7408  0.0258
  343SOL     OW 1027   0.718   2.213   1.680  0.2891  0.0228  0.1084
  343SOL    HW1 1028   0.776   2.252   1.758  0.5936  1.4985  2.6103
  343SOL    HW2 1029   0.703   2.277   1.598 -1.0887  1.8513 -1.0375
  344SOL     OW 1030   2.250   2.767   1.304 -0.4059 -0.1776 -0.1997
  344SOL    HW1 1031   2.250   2.669   1.338  0.9511 -2.3108 -0.0239
  344SOL    HW2 1032   2.350   2.791   1.292  1.3173  0.4692  0.0975
  345SOL     OW 1033   2.654   1.935   0.079  0.3561 -0.0164  0.0306
  345SOL    HW1 1034   2.599   1.890   0.003 -0.7914  1.2968  0.8554
  345SOL    HW2 1035   2.707   1.879   0.142 -3.2190  0.4574  0.1757
  346SOL     OW 1036   1.728   2.403   1.173 -0.0379  0.1402  0.0306
  346SOL    HW1 1037   1.724   2.352   1.083 -2.2182 -1.1714  0.2538
  346SOL    HW2 1038   1.720   2.348   1.256  3.2638 -1.5426  0.6557
  347SOL     OW 1039   1.211   1.675   1.687 -0.4167 -0.1162  0.1963
  347SOL    HW1 1040   1.189   1.765   1.718 -0.4627 -2.4036 -2.1583
  347SOL    HW2 1041   1.130   1.622   1.652  0.0644  1.6123  0.4628
  348SOL     OW 1042   0.483   1.947   2.158  0.0209 -0.0842  0.0860
  348SOL    HW1 1043   0.512   1.911   2.252 -0.9574 -0.6355  2.1903
  348SOL    HW2 1044   0.567   1.977   2.110 -1.0122  0.5031 -1.3311
  349SOL     OW 1045   1.955   1.643   1.290  0.4245 -0.1422 -0.1853
  349SOL    HW1 1046   1.855   1.633   1.270  1.4379 -1.0350 -0.6448
  349SOL    HW2 1047   1.982   1.595   1.373 -0.2659  0.4470 -0.4517
  350SOL     OW 1048   2.360   2.378   0.491  0.3030  0.4335 -0.0539
  350SOL    HW1 1049   2.435   2.438   0.516 -5.0782 -4.1863 -1.7828
  350SOL    HW2 1050   2.369   2.290   0.538 -1.0511  5.5522  1.2592
  351SOL     OW 1051   0.999   0.114   1.505 -0.4856 -0.3638 -0.0311
  351SOL    HW1 1052   0.912   0.165   1.515  2.2443  1.7451 -1.3222
  351SOL    HW2 1053   1.015   0.081   1.407 -0.8992  0.8638  0.8582
  352SOL     OW 1054   0.046   1.531   1.047  0.7466 -0.6068  0.5029
  352SOL    HW1 1055   0.123   1.481   1.095  0.8915 -2.7565 -1.3964
  352SOL    HW2 1056   0.044   1.634   1.070 -0.1899  1.7341 -0.4284
  353SOL     OW 1057   1.194   1.519   2.174 -0.6349  0.1606 -0.2138
  353SOL    HW1 1058   1.249   1.461   2.111 -1.5330  0.8285 -1.3614
  353SOL    HW2 1059   1.124   1.467   2.231  4.7673  2.0075  1.2170
  354SOL     OW 1060   1.717   3.038   1.709  0.0350  0.5198  0.2294
  354SOL    HW1 1061   1.808   3.009   1.680 -1.1216  0.5242 -0.3590
  354SOL    HW2 1062   1.693   3.006   1.802 -0.7779  1.4164  0.3466
  355SOL     OW 1063   2.426   1.188   0.076  0.5649 -0.0969 -0.0617
  355SOL    HW1 1064   2.330   1.207   0.062 -0.5067  0.9623  0.5846
  355SOL    HW2 1065   2.488   1.260   0.047 -2.5390  1.5740  1.2802
  356SOL     OW 1066   2.866   1.752   1.434 -0.3597  0.2354 -0.1762
  356SOL    HW1 1067   2.836   1.847   1.434  1.5932 -0.3271 -2.8088
  356SOL    HW2 1068   2.788   1.698   1.476 -0.9843 -1.5534  0.1619
  357SOL     OW 1069   0.375   2.835   1.317 -0.0138  0.0160 -0.2201
  357SOL    HW1 1070   0.399   2.739   1.288  0.0801 -2.0180 -0.1299
  357SOL    HW2 1071   0.284   2.855   1.282  0.0815 -0.5179 -0.1218
  358SOL     OW 1072   2.681   1.634   1.775  0.0083  0.2693  0.0761
  358SOL    HW1 1073   2.585   1.625   1.804  1.5129 -0.2653  1.6512
  358SOL    HW2 1074   2.691   1.612   1.675 -1.1203 -0.7950 -1.2300
  359SOL     OW 1075   2.276   2.927   2.926 -0.1714  0.4744 -0.7638
  359SOL    HW1 1076   2.247   2.836   2.957 -1.4285  0.3176  0.4751
  359SOL    HW2 1077   2.223   3.000   2.973 -2.1197  1.3532 -0.9948
  360SOL     OW 1078   0.997   0.098   0.879  0.3041  0.1631 -0.5797
  360SOL    HW1 1079   1.035   0.190   0.882 -0.9961 -0.1940 -0.1518
  360SOL    HW2 1080   1.061   0.018   0.888  1.9256 -1.0030 -0.1547
  361SOL     OW 1081   2.179   0.440   0.432  0.2257  0.0607  0.0060
  361SOL    HW1 1082   2.092   0.424   0.485 -1.6143 -0.7520 -1.3448
  361SOL    HW2 1083   2.191   0.536   0.404 -1.0269 -0.5378 -0.1651
  362SOL     OW 1084   1.787   1.192   1.006 -0.2909  0.2624  0.9061
  362SOL    HW1 1085   1.837   1.165   0.920 -0.3893 -0.8054 -0.3787
  362SOL    HW2 1086   1.712   1.257   0.987  2.8998  1.2655 -1.3772
  363SOL     OW 1087   2.259   0.976   2.280  0.3297 -0.0097  0.4320
  363SOL    HW1 1088   2.167   0.995   2.316  2.4062 -0.7517 -0.0688
  363SOL    HW2 1089   2.274   1.003   2.184 -0.7561  0.3307  2.5308
  364SOL     OW 1090   0.309   0.427   1.178  0.0599 -0.0926 -0.2050
  364SOL    HW1 1091   0.233   0.461   1.232  1.2115 -1.1218 -2.7484
  364SOL    HW2 1092   0.286   0.327   1.159 -0.8423 -1.3782 -1.7465
  365SOL     OW 1093   0.660   0.208   2.745 -0.3953  0.0798 -0.2043
  365SOL    HW1 1094   0.649   0.124   2.799 -0.1284  1.5874  0.1167
  365SOL    HW2 1095   0.754   0.200   2.700  0.5458  0.4740  0.0461
  366SOL     OW 1096   2.059   2.470   2.932  0.8551  0.1511 -0.4219
  366SOL    HW1 1097   2.023   2.538   2.864  1.0375 -0.5995 -1.0189
  366SOL    HW2 1098   2.112   2.398   2.882  1.5970  0.7006 -1.5428
  367SOL     OW 1099   2.952   2.255   0.171  0.4769 -0.1126  0.4085
  367SOL    HW1 1100   2.854   2.288   0.169  0.2754  2.7286  0.2658
  367SOL    HW2 1101   2.981   2.250   0.270 -2.5190  0.0909  1.4770
  368SOL     OW 1102   2.994   1.265   1.337 -0.3601 -0.0383  0.3341
  368SOL    HW1 1103   2.950   1.332   1.275 -0.5972 -1.1425  0.4854
  368SOL    HW2 1104   3.080   1.229   1.295  0.2326  1.4918 -0.8554
  369SOL     OW 1105   0.928   0.155   2.676  0.1852  0.5316 -0.0903
  369SOL    HW1 1106   0.943   0.110   2.589 -0.0297 -2.0125  1.7245
  369SOL    HW2 1107   0.984   0.118   2.749 -1.6308 -2.4609 -1.8739
  370SOL     OW 1108   2.780   0.457   0.404 -0.1031  0.1142  0.7278
  370SOL    HW1 1109   2.719   0.416   0.472  1.2293  3.0351  0.7377
  370SOL    HW2 1110   2.843   0.390   0.366 -2.0458  0.0177  1.0236
  371SOL     OW 1111   1.548   2.078   0.987  0.2307  0.2637  0.3056
  371SOL    HW1 1112   1.612   1.998   0.983 -1.5724 -1.3031 -1.6796
  371SOL    HW2 1113   1.597   2.165   0.968 -0.8664  0.9909 -0.2796
  372SOL     OW 1114   2.949   0.639   2.554 -0.2273  0.2707  0.1272
  372SOL    HW1 1115   2.943   0.641   2.450 -0.5014  1.3878 -0.5905
  372SOL    HW2 1116   2.916   0.727   2.592  0.9866 -3.4050 -0.1568
  373SOL     OW 1117   2.698   1.626   1.089  0.1021  1.0783  0.4223
  373SOL    HW1 1118   2.666   1.660   1.000 -0.5630 -1.0441  1.3282
  373SOL    HW2 1119   2.620   1.580   1.132  0.3455  0.1100 -0.5721
  374SOL     OW 1120   0.681   2.725   3.008 -0.0070  0.6095 -0.4295
  374SOL    HW1 1121   0.638   2.809   3.040  1.6879 -2.7930  1.2116
  374SOL    HW2 1122   0.768   2.748   2.961 -0.6666 -1.8184  0.8522
  375SOL     OW 1123   0.116   3.021   0.013 -0.1201 -0.9003 -0.3160
  375SOL    HW1 1124   0.133   3.016   0.114 -1.3342 -1.4251  3.7976
  375SOL    HW2 1125   0.055   0.002   3.095 -1.6889  0.2764 -0.8772
  376SOL     OW 1126   3.036   2.162   1.442 -0.0411 -0.2018  0.3431
  376SOL    HW1 1127   3.098   2.151   1.521  0.9115 -0.7370  0.5245
  376SOL    HW2 1128   3.070   2.141   1.354 -1.7784  1.2267  0.5699
  377SOL     OW 1129   1.614   2.241   2.406  0.2351 -1.0535  0.1433
  377SOL    HW1 1130   1.610   2.205   2.507 -0.6647 -0.6732  2.9108
  377SOL    HW2 1131   1.575   2.173   2.338 -0.6579 -0.0020 -0.6945
  378SOL     OW 1132   0.545   0.400   2.893 -0.0720 -0.0839 -0.1044
  378SOL    HW1 1133   0.571   0.500   2.896  0.2978  3.1496  0.3536
  378SOL    HW2 1134   0.592   0.354   2.817  0.3431 -0.9709  1.4383
  379SOL     OW 1135   0.667   0.726   0.329 -0.1349  0.1963  0.1238
  379SOL    HW1 1136   0.754   0.780   0.335 -2.3920 -0.6089  0.7990
  379SOL    HW2 1137   0.601   0.750   0.402 -0.1931  0.0288 -0.2471
  380SOL     OW 1138   3.061   1.786   1.821  0.4502 -0.1796  0.5579
  380SOL    HW1 1139   2.986   1.748   1.877  1.1488  1.4964 -0.0515
  380SOL    HW2 1140   0.053   1.751   1.852 -0.1584  0.6333  1.5743
  381SOL     OW 1141   0.170   1.071   1.821  0.1587  0.5074 -0.0874
  381SOL    HW1 1142   0.208   0.977   1.791  0.9046 -0.3913  0.0521
  381SOL    HW2 1143   0.069   1.083   1.799 -2.9929 -1.5143 -1.5111
  382SOL     OW 1144   2.241   1.773   0.387  0.2091 -0.0841  0.4347
  382SOL    HW1 1145   2.280   1.696   0.340 -1.7796 -1.5691  1.1020
  382SOL    HW2 1146   2.155   1.742   0.426  0.7368  1.5949 -2.3586
  383SOL     OW 1147   2.975   2.004   2.879 -0.3175 -0.6265  0.4892
  383SOL    HW1 1148   3.042   1.953   2.935  0.1740  0.4978  0.5734
  383SOL    HW2 1149   2.950   2.097   2.915 -1.3793 -0.7046 -2.8405
  384SOL     OW 1150   0.830   2.276   2.662 -0.1155 -0.3043 -0.0476
  384SOL    HW1 1151   0.769   2.316   2.733  0.9900  1.4079 -2.1190
  384SOL    HW2 1152   0.778   2.246   2.579 -0.3825 -1.2690  0.0979
  385SOL     OW 1153   2.815   1.226   0.939 -0.0736  0.7071  0.4227
  385SOL    HW1 1154   2.816   1.302   1.009 -2.0576 -0.7997  1.4695
  385SOL    HW2 1155   2.721   1.181   0.936  0.3447 -1.5606 -0.5275
  386SOL     OW 1156   2.203   1.511   1.490 -0.7408 -0.1180 -0.1030
  386SOL    HW1 1157   2.176   1.466   1.398  0.3786  2.2962  0.5901
  386SOL    HW2 1158   2.193   1.610   1.481  0.4018  0.4271 -0.1103
  387SOL     OW 1159   2.635   1.207   1.959  0.2715 -0.5453 -0.4283
  387SOL    HW1 1160   2.587   1.226   1.869  1.2465  2.2026  0.5334
  387SOL    HW2 1161   2.576   1.246   2.033 -0.5384 -1.5528  0.3688
  388SOL     OW 1162   2.869   1.293   2.195 -0.4708 -0.2828  0.5969
  388SOL    HW1 1163   2.799   1.247   2.137 -1.7912 -1.1123 -1.0659
  388SOL    HW2 1164   2.958   1.316   2.152  1.1905  0.5902 -0.8605
  389SOL     OW 1165   2.040   1.143   2.029  0.5427  0.0339 -0.0826
  389SOL    HW1 1166   2.041   1.121   2.130 -1.8548  1.9219  0.1564
  389SOL    HW2 1167   2.111   1.212   2.010 -1.5776  0.2419  1.6415
  390SOL     OW 1168   1.767   3.084   0.659 -0.9336  0.4553  0.0020
  390SOL    HW1 1169   1.840   0.022   0.710 -0.8820  0.7466 -0.5375
  390SOL    HW2 1170   1.720   0.048   0.591  1.4992  2.5919 -0.5096
  391SOL     OW 1171   2.131   1.779   1.087  0.1545 -0.1287  0.0621
  391SOL    HW1 1172   2.183   1.863   1.119 -1.6994  1.2557  3.3390
  391SOL    HW2 1173   2.068   1.750   1.164  2.1905 -0.4811  1.3393
  392SOL     OW 1174   2.549   2.537   0.591 -0.1891 -0.4539  0.1725
  392SOL    HW1 1175   2.564   2.598   0.512 -1.1232 -0.5792 -0.2341
  392SOL    HW2 1176   2.560   2.573   0.689 -0.4410 -0.5801  1.9876
  393SOL     OW 1177   1.564   1.766   2.827  0.2134 -0.4848  1.1302
  393SOL    HW1 1178   1.617   1.680   2.812 -0.2577  0.2977  1.7068
  393SOL    HW2 1179   1.541   1.803   2.732 -1.5605 -1.2064 -0.4117
  394SOL     OW 1180   0.223   0.083   2.788  0.7475 -1.1332 -0.7519
  394SOL    HW1 1181   0.131   0.119   2.827 -0.3492  2.9286 -1.1636
  394SOL    HW2 1182   0.250   3.097   2.843 -1.1407  0.8056 -0.9843
  395SOL     OW 1183   0.606   0.744   1.035 -0.4033  0.0544 -0.1547
  395SOL    HW1 1184   0.642   0.653   1.028 -0.0211  4.5431  1.7834
  395SOL    HW2 1185   0.656   0.807   0.977 -0.7933  1.5729 -0.6232
  396SOL     OW 1186   1.171   1.067   0.752 -0.1966 -0.3130  0.0754
  396SOL    HW1 1187   1.107   0.988   0.770 -0.8008 -0.5646  0.1089
  396SOL    HW2 1188   1.256   1.044   0.709 -1.1948  0.3717  2.5103
  397SOL     OW 1189   0.480   0.600   2.132 -0.3853 -0.2202  0.1531
  397SOL    HW1 1190   0.418   0.527   2.110  2.1122  1.1766  1.0815
  397SOL    HW2 1191   0.437   0.689   2.141  1.0570 -1.6730 -2.8888
  398SOL     OW 1192   0.897   0.201   0.346 -0.0075  0.3507  0.2157
  398SOL    HW1 1193   0.853   0.290   0.370  1.5216 -2.6514 -1.6128
  398SOL    HW2 1194   0.996   0.206   0.368  0.2900 -0.1436  1.4134
  399SOL     OW 1195   2.116   2.779   1.684  0.4736  0.0663  0.3648
  399SOL    HW1 1196   2.100   2.774   1.785  0.8800  2.1313 -0.2775
  399SOL    HW2 1197   2.036   2.754   1.626 -0.7098  1.6530 -1.2164
  400SOL     OW 1198   1.064   1.737   2.236 -0.4036  0.6461  0.4815
  400SOL    HW1 1199   0.964   1.718   2.250 -2.4046  0.7686  0.7023
  400SOL    HW2 1200   1.108   1.649   2.198 -0.4252 -4.5715  0.0502
  401SOL     OW 1201   0.530   1.089   2.647 -0.1578  0.1930  0.2906
  401SOL    HW1 1202   0.582   1.082   2.736  0.4861  2.1806 -0.4503
  401SOL    HW2 1203   0.438   1.041   2.644 -0.3787  1.7377  0.3929
  402SOL     OW 1204   2.658   2.008   0.990 -0.4297  0.1948 -0.1317
  402SOL    HW1 1205   2.681   1.917   0.950  0.7783  0.0184  0.2464
  402SOL    HW2 1206   2.656   2.004   1.095  2.1404 -0.4194  3.4717
  403SOL     OW 1207   0.172   0.969   2.232 -0.3698 -0.3521  0.2152
  403SOL    HW1 1208   0.075   1.002   2.235 -0.2361 -0.8377 -0.1046
  403SOL    HW2 1209   0.240   1.053   2.227  0.8333  1.2193  0.1853
  404SOL     OW 1210   0.296   2.556   1.710  0.3693  0.5907 -0.3763
  404SOL    HW1 1211   0.244   2.583   1.624 -0.7386  1.3434  0.6010
  404SOL    HW2 1212   0.395   2.554   1.691 -2.7579 -0.5229 -0.5643
  405SOL     OW 1213   0.431   0.208   2.056  0.2540 -0.3966 -0.5217
  405SOL    HW1 1214   0.486   0.175   2.137  1.2900 -0.2598  4.3543
  405SOL    HW2 1215   0.332   0.186   2.073  0.4399  0.5583 -1.5561
  406SOL     OW 1216   1.613   1.728   2.355 -0.0408 -0.0277  0.4751
  406SOL    HW1 1217   1.705   1.757   2.319  0.8861 -0.0602 -0.7634
  406SOL    HW2 1218   1.546   1.713   2.279 -0.5796 -2.4619 -2.0639
  407SOL     OW 1219   1.239   1.015   2.525  0.8126 -0.1104  0.5192
  407SOL    HW1 1220   1.246   1.070   2.439  1.3478  1.7498 -0.9458
  407SOL    HW2 1221   1.144   1.007   2.554  3.6462 -2.4531  2.1327
  408SOL     OW 1222   0.878   3.100   2.442 -0.0406  0.0130 -0.2723
  408SOL    HW1 1223   0.896   0.095   2.400  2.8865  2.7918  0.7130
  408SOL    HW2 1224   0.895   3.026   2.371 -0.8089 -1.2875 -0.3106
  409SOL     OW 1225   0.304   1.977   0.715  0.1318  0.2504 -0.1657
  409SOL    HW1 1226   0.401   2.005   0.700  0.1620 -0.8532 -0.2048
  409SOL    HW2 1227   0.285   1.916   0.638  0.3653 -0.0299 -1.4717
  410SOL     OW 1228   2.782   1.087   0.155 -0.0107 -0.2200  0.3401
  410SOL    HW1 1229   2.849   1.034   0.205 -2.3026 -0.5141 -1.6733
  410SOL    HW2 1230   2.716   1.129   0.217  0.8433 -2.8036 -1.2021
  411SOL     OW 1231   0.221   0.169   1.205  1.1748 -0.1444 -0.3645
  411SOL    HW1 1232   0.148   0.176   1.272  1.2495 -0.6937  1.7052
  411SOL    HW2 1233   0.288   0.101   1.238  1.2660  0.0139  2.2265
  412SOL     OW 1234   1.547   0.887   1.576 -0.5081  0.0550 -0.2439
  412SOL    HW1 1235   1.601   0.941   1.506 -0.6422  0.0536 -2.0999
  412SOL    HW2 1236   1.479   0.836   1.525 -0.6955  0.4840 -0.5051
  413SOL     OW 1237   0.884   3.016   1.651  0.3888 -0.2080  0.0671
  413SOL    HW1 1238   0.860   3.093   1.708 -1.0949 -1.8236  0.4065
  413SOL    HW2 1239   0.943   3.048   1.578  2.5979 -0.2375  0.0078
  414SOL     OW 1240   2.938   1.498   2.648  0.0330 -0.1280 -0.3519
  414SOL    HW1 1241   2.917   1.499   2.746  0.4195  1.6571  1.7686
  414SOL    HW2 1242   3.037   1.518   2.648 -1.3581  0.2938 -0.0246
  415SOL     OW 1243   0.844   2.499   0.010 -0.1574 -0.2288  0.4327
  415SOL    HW1 1244   0.873   2.428   3.039 -0.5998 -0.0932 -0.0646
  415SOL    HW2 1245   0.802   2.580   3.068  1.0024  2.3828 -0.0753
  416SOL     OW 1246   2.000   2.970   0.357  0.1757  0.0364  0.0713
  416SOL    HW1 1247   1.993   2.912   0.277 -1.1947  0.8852  2.6686
  416SOL    HW2 1248   2.058   3.044   0.323 -1.2165 -2.5412 -0.1303
  417SOL     OW 1249   0.265   0.634   0.692 -0.6463  0.2277  0.2231
  417SOL    HW1 1250   0.325   0.722   0.688  0.5819  0.9322 -1.3782
  417SOL    HW2 1251   0.281   0.577   0.605  1.5418 -1.6106  0.5093
  418SOL     OW 1252   2.509   0.185   0.997  0.2061  0.7112 -0.4397
  418SOL    HW1 1253   2.409   0.179   1.019  0.1008  0.4981 -0.4542
  418SOL    HW2 1254   2.542   0.275   0.959  0.3760  0.0688 -2.2890
  419SOL     OW 1255   0.155   2.979   0.736  0.0580  0.4375 -0.2483
  419SOL    HW1 1256   0.093   3.000   0.655 -2.0285 -2.3684 -2.3293
  419SOL    HW2 1257   0.145   2.880   0.753  1.4689 -0.4229 -0.5136
  420SOL     OW 1258   0.087   1.466   1.577  0.3063  0.0398 -0.1357
  420SOL    HW1 1259   0.184   1.457   1.607 -2.8264 -0.6356 -0.9921
  420SOL    HW2 1260   0.073   1.560   1.538 -0.3574  0.0007 -0.3897
  421SOL     OW 1261   1.196   2.989   0.386  0.4802  0.3113 -0.1125
  421SOL    HW1 1262   1.171   3.082   0.355 -0.7176  1.1090 -2.2561
  421SOL    HW2 1263   1.166   2.922   0.311 -1.8433 -0.0069 -0.7849
  422SOL     OW 1264   0.242   0.533   1.606 -0.2114  0.3595  0.0349
  422SOL    HW1 1265   0.255   0.573   1.699  0.5968 -0.7538  1.3705
  422SOL    HW2 1266   0.150   0.491   1.588  0.5245  1.0789  0.4050
  423SOL     OW 1267   0.961   1.194   1.668  0.7698 -0.4240 -0.6196
  423SOL    HW1 1268   0.974   1.260   1.746 -0.4454 -0.3876  1.0050
  423SOL    HW2 1269   0.908   1.112   1.699 -0.9333  0.1906 -1.7956
  424SOL     OW 1270   2.171   1.503   3.010  0.0497 -0.0020  0.1279
  424SOL    HW1 1271   2.185   1.418   3.064  0.1459  1.2338  0.0315
  424SOL    HW2 1272   2.088   1.497   2.947 -2.8645  0.9200 -0.4508
  425SOL     OW 1273   0.162   0.168   2.089 -0.3160  0.0208  0.4814
  425SOL    HW1 1274   0.076   0.206   2.054  1.6355  2.0509 -1.1251
  425SOL    HW2 1275   0.157   0.155   2.189 -0.7587 -3.2402 -2.8991
  426SOL     OW 1276   0.297   2.949   2.915 -0.1125  0.1711  0.3323
  426SOL    HW1 1277   0.256   2.925   3.006  0.3646  0.8426 -1.2724
  426SOL    HW2 1278   0.303   2.870   2.852 -0.0325 -0.1413 -0.0966
  427SOL     OW 1279   1.040   0.978   2.831 -0.1594 -0.1486 -0.5153
  427SOL    HW1 1280   1.012   1.076   2.861 -0.5695 -0.6041  0.9530
  427SOL    HW2 1281   1.115   0.947   2.893  0.7353 -1.1675  2.1437
  428SOL     OW 1282   2.558   1.373   1.352 -1.1699 -0.3091 -0.1874
  428SOL    HW1 1283   2.540   1.279   1.379  2.4946  2.2969 -1.8583
  428SOL    HW2 1284   2.494   1.408   1.281 -2.0275  1.3197 -0.6536
  429SOL     OW 1285   2.284   2.851   0.876 -0.0871 -0.0499 -0.6111
  429SOL    HW1 1286   2.264   2.838   0.778 -0.7508 -0.3765  0.3836
  429SOL    HW2 1287   2.205   2.810   0.924  0.7748 -0.0019 -1.3197
  430SOL     OW 1288   0.647   1.440   2.216 -0.9392 -0.0317 -0.3374
  430SOL    HW1 1289   0.559   1.414   2.261  0.7466  1.8686 -0.6385
  430SOL    HW2 1290   0.720   1.449   2.286 -1.0068 -0.8558  1.9196
  431SOL     OW 1291   2.708   1.539   1.498  0.5569 -0.1462 -0.0005
  431SOL    HW1 1292   2.798   1.491   1.513 -0.7518 -2.0750  0.9996
  431SOL    HW2 1293   2.661   1.494   1.419  1.2301  0.7063  0.2486
  432SOL     OW 1294   1.244   2.777   2.222  0.0878 -0.6802  0.4642
  432SOL    HW1 1295   1.295   2.865   2.229  0.4776  0.5140 -0.5789
  432SOL    HW2 1296   1.266   2.708   2.293  1.1887 -0.6713 -2.6759
  433SOL     OW 1297   1.749   0.116   2.037 -0.1519  0.2659  0.3826
  433SOL    HW1 1298   1.835   0.057   2.044  3.8477 -2.1713  0.8085
  433SOL    HW2 1299   1.733   0.164   1.944  0.6790 -1.0055 -0.0437
  434SOL     OW 1300   0.662   2.584   2.500 -0.3822  0.1677 -0.2446
  434SOL    HW1 1301   0.574   2.530   2.517 -0.6096 -2.0946  3.6889
  434SOL    HW2 1302   0.692   2.629   2.586 -1.2363  0.9343 -2.5578
  435SOL     OW 1303   0.421   2.805   0.204 -0.2347  0.4322  0.5210
  435SOL    HW1 1304   0.351   2.813   0.279  1.3634 -2.5932  1.2442
  435SOL    HW2 1305   0.456   2.899   0.180  3.1578 -0.9931  0.7325
  436SOL     OW 1306   0.728   0.590   1.965  0.4746 -0.2197  0.4744
  436SOL    HW1 1307   0.642   0.613   2.016 -0.3170  0.3765  1.7463
  436SOL    HW2 1308   0.753   0.490   1.973  1.2748  1.6806  0.2520
  437SOL     OW 1309   0.444   2.403   2.558 -0.2786 -0.5110 -0.1431
  437SOL    HW1 1310   0.423   2.379   2.462 -1.3915 -0.6123  2.1421
  437SOL    HW2 1311   0.445   2.326   2.624  1.7727 -4.4810  1.0701
  438SOL     OW 1312   0.773   1.370   1.485 -0.2591 -0.4347  0.3987
  438SOL    HW1 1313   0.775   1.475   1.494 -0.0058  1.7544 -0.1222
  438SOL    HW2 1314   0.823   1.322   1.561  0.0875 -0.6565  3.1493
  439SOL     OW 1315   2.349   0.712   2.208 -0.3414 -0.2506  0.0112
  439SOL    HW1 1316   2.332   0.638   2.274  1.1097  0.2508 -0.4182
  439SOL    HW2 1317   2.307   0.795   2.244  1.9208 -1.9567  2.7261
  440SOL     OW 1318   0.544   0.702   0.094  0.3889  0.1008 -0.1386
  440SOL    HW1 1319   0.487   0.628   0.138  1.6757 -0.3091  1.6524
  440SOL    HW2 1320   0.614   0.726   0.162  1.9218 -1.0492 -0.1114
  441SOL     OW 1321   1.108   2.454   1.439 -0.0218  0.3873 -0.1995
  441SOL    HW1 1322   1.137   2.544   1.478  0.2505  2.3644  1.0570
  441SOL    HW2 1323   1.037   2.413   1.501  1.2928 -0.5315  0.3601
  442SOL     OW 1324   2.225   1.500   0.669  0.0039  0.4642 -0.2430
  442SOL    HW1 1325   2.305   1.543   0.620 -1.8540 -0.8261 -1.6064
  442SOL    HW2 1326   2.231   1.394   0.649  1.1449 -1.1437  3.1220
  443SOL     OW 1327   2.586   2.063   2.594  0.7139  0.1362  0.5573
  443SOL    HW1 1328   2.611   2.163   2.610  1.0608  0.9679  1.2060
  443SOL    HW2 1329   2.617   2.030   2.497  1.3469 -1.5820 -0.7084
  444SOL     OW 1330   1.708   1.509   2.913 -0.1323  0.4453  0.0204
  444SOL    HW1 1331   1.683   1.499   3.013  0.1252 -2.0900  1.6740
  444SOL    HW2 1332   1.677   1.426   2.860 -0.3025 -3.3781 -1.3971
  445SOL     OW 1333   2.571   2.729   2.269  0.2728 -0.1579  0.0236
  445SOL    HW1 1334   2.595   2.683   2.180  0.9491  2.1397  0.0328
  445SOL    HW2 1335   2.573   2.832   2.262 -1.6402 -1.5986  2.4148
  446SOL     OW 1336   0.404   1.012   1.558 -0.0953  0.0136  0.3355
  446SOL    HW1 1337   0.432   0.949   1.490 -1.3337  0.3527 -0.1206
  446SOL    HW2 1338   0.431   1.112   1.536 -1.8651 -2.0922  1.8880
  447SOL     OW 1339   0.830   1.242   0.914  0.6279 -0.1213 -0.0571
  447SOL    HW1 1340   0.900   1.298   0.957  0.2565  0.5749 -0.5588
  447SOL    HW2 1341   0.742   1.296   0.904 -0.9021  2.4080  0.3722
  448SOL     OW 1342   0.988   1.033   2.198  0.9210  0.3648 -0.3647
  448SOL    HW1 1343   0.953   0.935   2.191  0.0815 -2.8369 -3.0801
  448SOL    HW2 1344   0.918   1.102   2.196 -0.7073 -0.4032  1.1175
  449SOL     OW 1345   0.108   2.099   2.359  0.2895  0.3641 -0.3179
  449SOL    HW1 1346   0.072   2.050   2.280  0.4348  2.1090 -1.1125
  449SOL    HW2 1347   0.201   2.069   2.376 -0.5090  0.6936  0.9866
  450SOL     OW 1348   2.655   1.987   1.964 -0.4717 -0.2926 -0.3965
  450SOL    HW1 1349   2.689   2.088   1.958 -0.1648  1.8600  1.6785
  450SOL    HW2 1350   2.680   1.947   2.051  0.3133  0.1429 -4.2491
  451SOL     OW 1351   2.364   1.153   1.278 -0.1828 -0.1525 -0.5121
  451SOL    HW1 1352   2.285   1.096   1.244  1.1798  1.1854  1.1428
  451SOL    HW2 1353   2.452   1.119   1.248 -1.4903  0.3170  1.7632
  452SOL     OW 1354   0.336   1.402   1.615  0.4118  0.1050 -0.1180
  452SOL    HW1 1355   0.376   1.426   1.707 -0.1696  0.6035  0.5181
  452SOL    HW2 1356   0.394   1.334   1.566 -1.3055  0.0118 -2.4933
  453SOL     OW 1357   0.244   1.319   1.109 -0.1054 -0.3814 -0.6819
  453SOL    HW1 1358   0.249   1.258   1.028 -0.7903  1.6853  0.9228
  453SOL    HW2 1359   0.209   1.267   1.190 -0.7101 -0.0837  2.6682
  454SOL     OW 1360   0.323   1.408   0.169  0.0432  0.3119 -0.5465
  454SOL    HW1 1361   0.419   1.420   0.150  1.9910 -1.9429  2.0410
  454SOL    HW2 1362   0.267   1.372   0.090 -3.3152 -0.6121  1.6678
  455SOL     OW 1363   1.667   0.955   0.964  0.3041 -0.0421  0.1790
  455SOL    HW1 1364   1.710   1.045   0.979 -0.2477  1.7072 -1.5438
  455SOL    HW2 1365   1.714   0.874   1.012  0.7721 -4.8585  4.6740
  456SOL     OW 1366   1.637   2.496   0.789 -0.3933 -0.0510  0.3634
  456SOL    HW1 1367   1.611   2.593   0.810 -2.1015 -0.3803  4.0446
  456SOL    HW2 1368   1.565   2.436   0.822  2.2448  1.3685 -0.0795
  457SOL     OW 1369   1.911   3.093   2.673  0.0647 -0.1212 -0.0672
  457SOL    HW1 1370   1.973   3.016   2.645 -0.1798 -0.6281 -3.5410
  457SOL    HW2 1371   1.820   3.095   2.617 -1.1665  0.4184 -1.9599
  458SOL     OW 1372   2.521   0.407   0.107 -0.2450  0.0471 -0.1402
  458SOL    HW1 1373   2.464   0.323   0.074  1.4822 -0.6711  0.5352
  458SOL    HW2 1374   2.616   0.402   0.070  0.9300 -3.5946 -0.8258
  459SOL     OW 1375   3.014   1.026   2.218 -0.9786 -0.0801  0.7106
  459SOL    HW1 1376   2.939   0.971   2.197  2.8533  3.9653  1.9772
  459SOL    HW2 1377   2.989   1.121   2.195  1.1825  1.0036  1.4355
  460SOL     OW 1378   0.332   0.728   2.886  0.5779  0.0360 -0.2781
  460SOL    HW1 1379   0.286   0.639   2.863  0.3466 -1.1802 -0.6409
  460SOL    HW2 1380   0.427   0.719   2.923 -0.8484  0.6279 -0.0883
  461SOL     OW 1381   0.038   2.407   0.691 -0.0902 -0.1533  0.0287
  461SOL    HW1 1382   0.082   2.315   0.706  0.2943 -0.6057  1.5931
  461SOL    HW2 1383   0.095   2.473   0.635  3.4491  0.1664 -0.9517
  462SOL     OW 1384   3.091   2.826   1.526 -0.2668  0.6690 -0.0426
  462SOL    HW1 1385   0.006   2.831   1.628  0.2688 -0.9283  1.0496
  462SOL    HW2 1386   2.993   2.822   1.502  0.9197 -1.0399 -1.9646
  463SOL     OW 1387   2.043   2.054   1.889  0.2135  0.1951  0.2054
  463SOL    HW1 1388   1.982   1.991   1.847  0.7670  2.0221  0.5553
  463SOL    HW2 1389   2.040   2.149   1.849  0.0148  2.6521  0.1929
  464SOL     OW 1390   0.141   2.944   1.201 -0.4604  0.5492  0.4800
  464SOL    HW1 1391   0.135   3.008   1.277 -1.4920 -0.0890 -1.4221
  464SOL    HW2 1392   0.202   2.970   1.119  1.1838  0.7515 -4.3703
  465SOL     OW 1393   0.558   0.164   1.484 -0.0509 -0.1055 -0.0093
  465SOL    HW1 1394   0.643   0.201   1.531 -2.3308 -1.4743  1.0278
  465SOL    HW2 1395   0.483   0.170   1.551  0.8778 -0.1849 -2.1454
  466SOL     OW 1396   1.260   1.919   2.296 -0.0846  0.2821 -0.3817
  466SOL    HW1 1397   1.323   1.856   2.260 -2.2810  1.1836 -1.4618
  466SOL    HW2 1398   1.168   1.877   2.280 -0.4287 -1.4362 -0.7244
  467SOL     OW 1399   2.965   1.651   0.798  0.3485  0.1361  0.3707
  467SOL    HW1 1400   3.016   1.610   0.875  0.1319  2.3047  1.5432
  467SOL    HW2 1401   2.951   1.584   0.722 -0.1356  0.0122  0.5692
  468SOL     OW 1402   2.317   2.118   2.593 -0.3506 -0.6091 -0.2474
  468SOL    HW1 1403   2.417   2.092   2.568 -0.6905 -0.0550 -0.3905
  468SOL    HW2 1404   2.259   2.100   2.511 -0.9737  2.1936 -0.4721
  469SOL     OW 1405   1.202   2.109   0.408  0.1216 -0.2509 -0.2844
  469SOL    HW1 1406   1.184   2.181   0.337 -0.7899 -3.2167  1.9396
  469SOL    HW2 1407   1.295   2.116   0.439 -4.9415 -2.0661 -1.5287
  470SOL     OW 1408   2.086   1.783   1.533  0.2979  0.0234 -0.1891
  470SOL    HW1 1409   2.133   1.865   1.564  1.2384 -0.3443  1.9449
  470SOL    HW2 1410   2.016   1.755   1.602 -0.2111  1.5309 -0.8065
  471SOL     OW 1411   0.660   2.430   0.226  0.2524 -0.9797  0.0544
  471SOL    HW1 1412   0.631   2.516   0.276 -1.2758  2.3259  1.0430
  471SOL    HW2 1413   0.713   2.449   0.139 -1.3799 -0.6999  0.0983
  472SOL     OW 1414   2.652   1.956   2.349 -0.1462 -0.2941  0.5175
  472SOL    HW1 1415   2.558   1.981   2.311 -1.7101  1.6557 -2.0292
  472SOL    HW2 1416   2.708   1.907   2.270  1.7584 -1.3137 -0.9394
  473SOL     OW 1417   1.244   2.660   0.790  0.9108  0.1903  0.0397
  473SOL    HW1 1418   1.147   2.661   0.816  1.5655  0.6545 -2.8138
  473SOL    HW2 1419   1.260   2.727   0.709 -0.8452 -2.2322 -1.8892
  474SOL     OW 1420   2.902   0.039   1.445 -0.3207  1.2411 -0.1789
  474SOL    HW1 1421   2.931   3.045   1.414  2.8643 -0.6570 -0.2403
  474SOL    HW2 1422   2.798   0.052   1.447 -1.5244 -2.2460  1.3601
  475SOL     OW 1423   1.682   2.764   1.690 -0.1429  0.2472  0.3749
  475SOL    HW1 1424   1.606   2.696   1.692  0.6992  0.8637 -0.5950
  475SOL    HW2 1425   1.647   2.860   1.709 -0.0888 -0.0630  1.6706
  476SOL     OW 1426   0.378   0.472   0.916  0.3218 -0.2018  0.1514
  476SOL    HW1 1427   0.339   0.474   1.012  1.1890  0.9270  1.2343
  476SOL    HW2 1428   0.359   0.561   0.866 -1.0196  1.0642 -0.0006
  477SOL     OW 1429   0.691   2.119   1.017  0.0571 -0.4697  0.0758
  477SOL    HW1 1430   0.614   2.190   1.016 -4.9465 -1.6017  0.6025
  477SOL    HW2 1431   0.780   2.154   1.050  1.0927 -2.9609  0.8423
  478SOL     OW 1432   0.782   2.786   2.677 -0.1072  0.2773  0.2197
  478SOL    HW1 1433   0.831   2.762   2.595 -0.2444 -1.1235 -0.1417
  478SOL    HW2 1434   0.846   2.782   2.758  2.6198  2.8955  1.9455
  479SOL     OW 1435   0.294   0.449   1.981  0.4234  0.1293 -0.4500
  479SOL    HW1 1436   0.201   0.439   1.950  2.6312  1.5072  1.1998
  479SOL    HW2 1437   0.344   0.363   1.994 -1.4117 -3.2156 -1.7179
  480SOL     OW 1438   0.265   2.068   2.910  0.8032  0.2715 -0.6333
  480SOL    HW1 1439   0.223   2.037   2.998  1.8025 -1.6819 -2.2768
  480SOL    HW2 1440   0.205   2.134   2.863  0.8630  0.0145  0.5890
  481SOL     OW 1441   1.591   3.006   2.173  0.0905  0.1241 -0.2300
  481SOL    HW1 1442   1.631   2.942   2.245  0.0080 -0.3015 -0.3531
  481SOL    HW2 1443   1.651   3.089   2.155  1.1281  1.9641 -1.4498
  482SOL     OW 1444   1.779   1.820   3.010  0.0741  0.5129  0.2047
  482SOL    HW1 1445   1.752   1.832   0.006 -1.3309  1.4469 -1.3732
  482SOL    HW2 1446   1.702   1.794   2.949 -1.2994  2.1827  0.1412
  483SOL     OW 1447   1.001   2.750   2.465  0.1397 -0.2065  0.1848
  483SOL    HW1 1448   1.057   2.672   2.486 -4.8451  0.2850 -1.0386
  483SOL    HW2 1449   1.048   2.838   2.487  0.9444 -1.5299 -0.8717
  484SOL     OW 1450   0.643   2.888   0.985 -0.0618 -0.0515 -0.3250
  484SOL    HW1 1451   0.620   2.983   1.017 -1.1075  1.5521  2.0898
  484SOL    HW2 1452   0.576   2.822   1.026 -1.0635  2.7350 -0.2619
  485SOL     OW 1453   2.095   0.685   0.597 -0.0878  0.2760 -0.8467
  485SOL    HW1 1454   2.005   0.654   0.555 -0.4327 -0.2842  1.6617
  485SOL    HW2 1455   2.164   0.699   0.524 -0.4924 -0.5311 -0.2888
  486SOL     OW 1456   1.905   2.785   1.905 -0.1338  0.3917 -0.7803
  486SOL    HW1 1457   1.890   2.706   1.971 -1.2122  2.8444 -0.7156
  486SOL    HW2 1458   1.840   2.773   1.832  1.7858 -1.5296  2.4507
  487SOL     OW 1459   1.192   1.983   0.674 -0.0983  0.5263  0.9757
  487SOL    HW1 1460   1.203   2.072   0.621  0.6122  1.8536  0.4372
  487SOL    HW2 1461   1.090   1.960   0.683 -4.1774 -1.2152 -0.0226
  488SOL     OW 1462   2.052   0.334   0.188 -0.5146  0.5323 -0.3738
  488SOL    HW1 1463   2.087   0.329   0.281  0.5022 -0.8089 -0.7695
  488SOL    HW2 1464   2.096   0.412   0.139 -1.5346 -2.8165  0.8535
  489SOL     OW 1465   1.914   2.855   0.584  0.5466 -0.0296 -0.0632
  489SOL    HW1 1466   1.879   2.947   0.609  0.6958  1.0833 -1.2290
  489SOL    HW2 1467   1.934   2.856   0.485  2.2820 -0.3697  0.9443
  490SOL     OW 1468   1.678   2.803   3.017  0.0458  0.3457 -0.2071
  490SOL    HW1 1469   1.780   2.803   3.001  0.5822  1.5381  2.0214
  490SOL    HW2 1470   1.664   2.762   0.013  1.8973  0.1299  0.5936
  491SOL     OW 1471   0.774   0.388   1.202 -0.0504 -0.1390  0.4666
  491SOL    HW1 1472   0.818   0.293   1.180  1.0769 -5.4282  0.6079
  491SOL    HW2 1473   0.691   0.382   1.264  1.1979 -0.6734  1.3414
  492SOL     OW 1474   1.689   0.068   0.366 -0.3177 -0.3196 -0.6199
  492SOL    HW1 1475   1.603   0.016   0.372  0.5726  2.5263 -3.7912
  492SOL    HW2 1476   1.775   0.013   0.357 -0.8468  0.6907  0.9008
  493SOL     OW 1477   1.835   2.163   2.740  0.0107 -0.2930 -0.4664
  493SOL    HW1 1478   1.832   2.264   2.741 -0.3835 -1.5992  1.8133
  493SOL    HW2 1479   1.891   2.129   2.816  1.0852  0.3102 -3.5484
  494SOL     OW 1480   0.260   1.128   0.884  0.1362 -0.0250 -0.1863
  494SOL    HW1 1481   0.319   1.050   0.911  0.1884  1.9588  0.4644
  494SOL    HW2 1482   0.185   1.093   0.821 -0.5398 -1.7680 -2.6835
  495SOL     OW 1483   2.974   0.091   1.706 -0.0308 -0.5158 -0.2358
  495SOL    HW1 1484   3.069   0.099   1.733 -3.1729  1.4113 -1.5274
  495SOL    HW2 1485   2.970   0.085   1.603  1.6341  0.7598 -0.1047
  496SOL     OW 1486   2.598   2.563   2.067  0.2142 -0.3882 -0.0357
  496SOL    HW1 1487   2.700   2.554   2.053  1.5914  2.3787  1.1984
  496SOL    HW2 1488   2.555   2.478   2.097 -0.3429  1.8164 -2.6752
  497SOL     OW 1489   1.585   1.167   2.450  0.4800 -0.3702 -0.3014
  497SOL    HW1 1490   1.564   1.186   2.351 -0.7464  4.4778 -1.8798
  497SOL    HW2 1491   1.621   1.072   2.458 -0.4494 -2.8088 -0.4920
  498SOL     OW 1492   0.494   1.644   0.779  0.3870 -0.1068 -0.2063
  498SOL    HW1 1493   0.428   1.666   0.853 -1.8375 -0.8609  0.5326
  498SOL    HW2 1494   0.543   1.727   0.736  2.7716 -0.2897  0.8189
  499SOL     OW 1495   0.096   1.809   1.068 -0.0009 -0.5798  0.1744
  499SOL    HW1 1496   3.093   1.809   1.086  0.5887 -0.6209  0.7237
  499SOL    HW2 1497   0.144   1.793   1.155 -0.9239  0.6154 -1.2530
  500SOL     OW 1498   1.362   2.473   0.173  0.2459  0.0971 -0.0996
  500SOL    HW1 1499   1.465   2.476   0.158 -1.1721  0.4878  0.9253
  500SOL    HW2 1500   1.334   2.526   0.254 -2.6405 -0.2853 -2.2759
  501SOL     OW 1501   2.085   2.688   0.928 -0.3171  0.0889 -0.6077
  501SOL    HW1 1502   2.162   2.628   0.959 -0.6932  1.7515 -2.8339
  501SOL    HW2 1503   2.015   2.644   0.874  2.3024 -0.1270  2.8110
  502SOL     OW 1504   0.139   0.811   1.700 -0.2618 -0.2236 -0.7409
  502SOL    HW1 1505   0.139   0.799   1.601  1.4711  0.8397 -2.1815
  502SOL    HW2 1506   0.218   0.760   1.745 -0.6054 -0.3296 -0.4636
  503SOL     OW 1507   2.085   0.019   1.677 -0.3284  0.1480 -0.4861
  503SOL    HW1 1508   2.007   0.026   1.612 -1.1773  0.9302  0.8439
  503SOL    HW2 1509   2.158   3.054   1.646  0.0510 -0.8113  1.7502
  504SOL     OW 1510   2.019   0.875   1.922  0.4767  0.0773 -0.5719
  504SOL    HW1 1511   1.929   0.845   1.956  0.1262  1.7350 -1.5065
  504SOL    HW2 1512   2.036   0.978   1.932  2.5901  4.2903 -0.8684
  505SOL     OW 1513   1.130   0.003   2.217  0.3081  0.3250  0.0640
  505SOL    HW1 1514   1.206   3.088   2.280 -0.4172  0.4441 -0.3525
  505SOL    HW2 1515   1.055   3.031   2.228 -0.5696 -0.6857 -2.0766
  506SOL     OW 1516   0.497   0.113   1.787  0.4152  0.0840 -0.1355
  506SOL    HW1 1517   0.502   0.146   1.884  1.7751 -0.3262  2.1974
  506SOL    HW2 1518   0.468   0.016   1.782  1.3804  0.9032 -0.5757
  507SOL     OW 1519   1.657   0.148   3.023  0.0080  0.3305  0.1375
  507SOL    HW1 1520   1.721   0.215   3.066  2.2264  1.3419  0.2978
  507SOL    HW2 1521   1.575   0.132   3.087 -2.1623  0.6480 -1.1960
  508SOL     OW 1522   2.282   0.576   2.436 -0.1103 -0.0898 -0.4909
  508SOL    HW1 1523   2.276   0.483   2.479  0.0499 -1.6146 -2.4424
  508SOL    HW2 1524   2.372   0.615   2.443 -1.4618  0.5480  2.4626
  509SOL     OW 1525   0.818   1.470   2.020 -0.1925  0.2358  0.0609
  509SOL    HW1 1526   0.740   1.459   2.087 -3.9723 -0.9001 -0.9173
  509SOL    HW2 1527   0.841   1.566   2.019 -0.5442  0.0201  1.6169
  510SOL     OW 1528   2.994   0.434   0.881 -0.4307  0.3039 -0.0755
  510SOL    HW1 1529   3.029   0.529   0.854 -0.2162  2.9797  0.5442
  510SOL    HW2 1530   2.949   0.376   0.805 -0.4938 -1.1954 -1.2010
  511SOL     OW 1531   1.610   1.388   0.974 -0.2332 -0.5814 -0.1810
  511SOL    HW1 1532   1.546   1.417   0.900  0.6570 -1.9170  0.6337
  511SOL    HW2 1533   1.645   1.476   1.013 -2.8708 -0.3705 -1.4239
  512SOL     OW 1534   0.668   1.244   0.353  0.0267  0.3296 -0.1741
  512SOL    HW1 1535   0.591   1.175   0.343  0.9666 -2.8146  0.6186
  512SOL    HW2 1536   0.725   1.230   0.436  0.8885  0.3563 -0.4294
  513SOL     OW 1537   0.326   2.329   0.788  0.2787  0.3021  0.0197
  513SOL    HW1 1538   0.252   2.263   0.784  1.3020 -0.5711  1.5767
  513SOL    HW2 1539   0.367   2.348   0.693  3.7432 -1.8583 -1.0470
  514SOL     OW 1540   0.156   2.037   0.059  0.3709 -0.1301 -0.0253
  514SOL    HW1 1541   0.061   2.014   0.087  0.8771  1.3433  0.6634
  514SOL    HW2 1542   0.190   2.080   0.144  0.2203 -0.3727 -0.2890
  515SOL     OW 1543   2.844   0.086   0.162  0.3370  0.1821  0.0490
  515SOL    HW1 1544   2.814   0.001   0.207 -2.2826  2.3004  0.1493
  515SOL    HW2 1545   2.896   0.147   0.224  0.3203  1.5344  1.5954
  516SOL     OW 1546   2.050   2.972   1.028  0.6726 -0.2967  0.2596
  516SOL    HW1 1547   2.099   2.990   1.113  2.6104 -0.9700 -1.4698
  516SOL    HW2 1548   2.023   2.875   1.028 -0.6417 -0.9769 -0.3700
  517SOL     OW 1549   1.274   1.680   0.207  0.2779 -0.2271  0.3472
  517SOL    HW1 1550   1.314   1.604   0.260 -3.3563  1.4253  0.7379
  517SOL    HW2 1551   1.287   1.664   0.109  1.5995 -0.5384 -1.2472
  518SOL     OW 1552   1.357   0.741   1.458 -0.3184 -0.1057 -0.3341
  518SOL    HW1 1553   1.311   0.770   1.377  1.5756 -0.9300 -1.2674
  518SOL    HW2 1554   1.298   0.738   1.544 -0.8391 -1.0572  3.4874
  519SOL     OW 1555   2.881   2.106   0.500  0.5059 -0.0150  0.8792
  519SOL    HW1 1556   2.924   2.061   0.583 -0.7680  0.7044 -1.0671
  519SOL    HW2 1557   2.800   2.171   0.520 -1.7248  0.7973  1.6444
  520SOL     OW 1558   2.080   2.312   1.775 -0.3757  0.3012  0.0251
  520SOL    HW1 1559   2.137   2.386   1.735  0.3793 -1.0817  0.1290
  520SOL    HW2 1560   2.031   2.346   1.859 -1.1143 -2.5656 -1.9935
  521SOL     OW 1561   1.374   3.043   2.329 -0.9048  0.2071  0.3947
  521SOL    HW1 1562   1.388   3.051   2.428 -1.4341  0.6724 -1.3074
  521SOL    HW2 1563   1.457   3.030   2.268 -0.1000  0.3030  0.0747
  522SOL     OW 1564   2.922   0.045   1.956 -0.1116 -0.6259  0.0854
  522SOL    HW1 1565   3.005   3.092   1.987  4.0204  0.4289 -0.8969
  522SOL    HW2 1566   2.919   0.053   1.857 -1.8912 -0.2740  2.2782
  523SOL     OW 1567   1.182   1.940   1.759 -0.5728 -0.7329 -0.7450
  523SOL    HW1 1568   1.119   1.974   1.831 -0.9531 -0.4110  1.7766
  523SOL    HW2 1569   1.177   2.007   1.684 -0.3613 -0.8629  2.4482
  524SOL     OW 1570   2.003   2.263   0.282  0.0897 -0.5348 -0.5657
  524SOL    HW1 1571   2.092   2.216   0.273  0.1213 -1.5135  0.8330
  524SOL    HW2 1572   2.011   2.358   0.247 -0.6656  0.1706  2.2045
  525SOL     OW 1573   2.933   0.889   0.285 -0.7863  0.7075  0.2682
  525SOL    HW1 1574   3.008   0.830   0.237  0.5397 -0.4510 -0.1225
  525SOL    HW2 1575   2.850   0.833   0.301 -0.6049 -2.3751  0.8136
  526SOL     OW 1576   1.166   2.964   0.879 -0.1550  0.3473 -0.3122
  526SOL    HW1 1577   1.195   2.938   0.783 -1.6603  1.0461  1.3207
  526SOL    HW2 1578   1.117   2.889   0.918  3.0889  0.8413 -0.1581
  527SOL     OW 1579   2.531   1.374   0.696 -0.1054  0.2128 -0.4671
  527SOL    HW1 1580   2.462   1.303   0.677 -1.6812 -0.2122 -0.2239
  527SOL    HW2 1581   2.514   1.456   0.634  0.2029 -0.5405 -3.2990
  528SOL     OW 1582   0.530   0.725   2.447  0.1882  0.4006  0.1705
  528SOL    HW1 1583   0.563   0.748   2.352 -1.8413 -0.2889 -3.8477
  528SOL    HW2 1584   0.431   0.754   2.466 -1.4067  4.2544  0.7513
  529SOL     OW 1585   0.646   1.370   2.975  0.2246 -0.0804  0.2858
  529SOL    HW1 1586   0.586   1.413   2.905  0.1059  1.5693 -0.6842
  529SOL    HW2 1587   0.635   1.268   2.966 -0.6981  1.4843 -0.2444
  530SOL     OW 1588   1.498   1.168   1.937 -0.1603 -0.2673 -0.6465
  530SOL    HW1 1589   1.599   1.183   1.937 -1.7284  4.0357  0.4304
  530SOL    HW2 1590   1.463   1.088   1.999 -1.9442 -1.3968  3.0951
  531SOL     OW 1591   1.248   2.315   2.743 -0.3382  0.5490 -0.0869
  531SOL    HW1 1592   1.169   2.255   2.762  2.3749 -0.2692 -2.3098
  531SOL    HW2 1593   1.332   2.289   2.800  0.9937 -2.5235  1.3271
  532SOL     OW 1594   2.426   0.648   0.121 -0.7143  0.7081  0.0275
  532SOL    HW1 1595   2.519   0.693   0.136  1.0151 -0.5097  4.0088
  532SOL    HW2 1596   2.444   0.550   0.097 -1.7530  1.6562  1.2769
  533SOL     OW 1597   0.044   0.411   1.854 -0.8145 -0.1314  0.5563
  533SOL    HW1 1598   0.040   0.382   1.756  0.4158 -1.6994  1.2124
  533SOL    HW2 1599   3.088   0.494   1.869  2.4159 -1.8791  0.6584
  534SOL     OW 1600   1.779   0.296   0.125  0.2980 -0.3275  0.0343
  534SOL    HW1 1601   1.749   0.324   0.215  0.7528 -1.2745 -0.5667
  534SOL    HW2 1602   1.883   0.282   0.120  1.9794 -1.2309  0.8560
  535SOL     OW 1603   0.573   0.296   0.168  0.3155  0.2841 -0.2838
  535SOL    HW1 1604   0.654   0.315   0.104  0.3748 -2.7804 -1.4161
  535SOL    HW2 1605   0.602   0.264   0.257 -3.0416  0.2841 -1.1148
  536SOL     OW 1606   0.397   1.568   1.849  0.5161 -0.2750  0.0662
  536SOL    HW1 1607   0.426   1.633   1.926  0.3382 -0.8296  2.4136
  536SOL    HW2 1608   0.413   1.609   1.754  2.2532 -2.6740  1.5349
  537SOL     OW 1609   0.566   2.610   1.927 -0.8080  0.5126  0.2906
  537SOL    HW1 1610   0.543   2.630   1.833 -2.3691 -3.4372  1.5693
  537SOL    HW2 1611   0.532   2.683   1.993  1.5776  0.9345  0.9717
  538SOL     OW 1612   0.071   1.780   0.266  0.4587 -0.0550  0.0628
  538SOL    HW1 1613   0.089   1.695   0.207  1.5864  0.6774 -0.8077
  538SOL    HW2 1614   3.094   1.839   0.228  2.2034  0.5524  1.0390
  539SOL     OW 1615   2.596   0.611   2.749 -0.1793 -0.5484 -0.2132
  539SOL    HW1 1616   2.529   0.535   2.779 -3.0014 -2.2215  2.6874
  539SOL    HW2 1617   2.674   0.618   2.812 -1.8685 -1.0254 -1.9987
  540SOL     OW 1618   1.737   1.034   3.053 -0.2195 -0.3972  0.0697
  540SOL    HW1 1619   1.720   1.112   2.994  0.9895 -0.6237 -2.8736
  540SOL    HW2 1620   1.674   1.043   0.032  2.0095  0.9815  1.8661
  541SOL     OW 1621   0.753   0.533   1.671  0.6582 -0.2820 -0.3186
  541SOL    HW1 1622   0.756   0.567   1.764  1.2009  1.3969  0.6037
  541SOL    HW2 1623   0.660   0.541   1.622 -2.1148 -0.8059 -2.4656
  542SOL     OW 1624   1.825   2.397   2.332 -0.2329  0.0132 -0.2876
  542SOL    HW1 1625   1.765   2.322   2.360  0.0182 -1.5099  1.3635
  542SOL    HW2 1626   1.923   2.373   2.334 -1.0564  2.1268 -2.5561
  543SOL     OW 1627   0.871   2.894   1.171 -0.0450 -0.1026 -0.1910
  543SOL    HW1 1628   0.785   2.901   1.120  4.4173 -0.0673 -0.0317
  543SOL    HW2 1629   0.935   2.820   1.138  2.5095 -1.8800 -1.8541
  544SOL     OW 1630   2.757   1.545   2.238  0.4857 -0.0518  0.2734
  544SOL    HW1 1631   2.791   1.450   2.219  2.5095 -0.1794  1.7396
  544SOL    HW2 1632   2.798   1.594   2.320 -1.2092 -0.8116  1.6346
  545SOL     OW 1633   1.661   1.990   1.461  0.2526 -0.3021  0.4395
  545SOL    HW1 1634   1.593   2.006   1.384  2.3901  0.7270 -1.8256
  545SOL    HW2 1635   1.632   1.913   1.517  0.1041  0.4536  2.9280
  546SOL     OW 1636   0.353   0.293   2.375 -0.2481 -0.3335  0.0570
  546SOL    HW1 1637   0.268   0.243   2.345 -1.2833 -3.9064  1.5483
  546SOL    HW2 1638   0.361   0.273   2.477  0.2666 -1.4952  2.8125
  547SOL     OW 1639   1.328   0.253   0.553  0.9381 -0.0228  0.1481
  547SOL    HW1 1640   1.266   0.278   0.630 -0.3528  1.0512  0.9625
  547SOL    HW2 1641   1.399   0.194   0.588 -3.1989 -0.4393  2.4348
  548SOL     OW 1642   1.434   2.174   2.901 -0.1867  0.1845  0.0437
  548SOL    HW1 1643   1.373   2.124   2.960  1.5980 -2.2170 -1.2469
  548SOL    HW2 1644   1.527   2.188   2.945  2.0475  3.1296  0.3785
  549SOL     OW 1645   1.920   0.949   0.135  0.3390  0.3618  0.1753
  549SOL    HW1 1646   1.854   0.975   0.058  0.2300 -0.2785  1.7619
  549SOL    HW2 1647   1.896   1.002   0.215  0.7035  2.3318 -1.9685
  550SOL     OW 1648   2.427   1.937   0.467  0.7180 -0.2582  0.0267
  550SOL    HW1 1649   2.353   1.881   0.423 -0.5149 -0.7087 -1.3127
  550SOL    HW2 1650   2.454   2.008   0.392 -0.7003  0.7705 -2.8012
  551SOL     OW 1651   1.479   0.207   1.752  0.3352  0.5352  0.4290
  551SOL    HW1 1652   1.568   0.240   1.779  0.6309  2.6705  0.5685
  551SOL    HW2 1653   1.484   0.139   1.671  0.5605  0.4003 -1.5648
  552SOL     OW 1654   0.078   2.246   2.812 -0.1206 -0.3921 -0.3426
  552SOL    HW1 1655   0.029   2.191   2.741  2.7757  0.9711  2.4901
  552SOL    HW2 1656   0.012   2.261   2.890 -3.3511  3.5767  2.4476
  553SOL     OW 1657   2.899   2.446   0.839  0.1388 -0.3001  0.0472
  553SOL    HW1 1658   2.981   2.424   0.781 -1.1994 -1.5987  1.4223
  553SOL    HW2 1659   2.858   2.364   0.882 -0.1136 -1.4027 -2.6126
  554SOL     OW 1660   2.235   1.833   1.874  0.4501  0.1154  0.3028
  554SOL    HW1 1661   2.193   1.928   1.873 -0.9717  0.1245  1.0859
  554SOL    HW2 1662   2.163   1.759   1.853 -2.4693 -1.0331 -0.7356
  555SOL     OW 1663   1.472   2.090   2.195  0.1894 -0.0204 -0.1084
  555SOL    HW1 1664   1.404   2.023   2.234  1.1913  0.7100 -1.2280
  555SOL    HW2 1665   1.426   2.181   2.185 -2.0005  0.5074  0.2185
  556SOL     OW 1666   1.369   1.681   1.457 -0.0512  0.1079  0.0363
  556SOL    HW1 1667   1.314   1.696   1.539 -2.9807 -0.7347 -2.8841
  556SOL    HW2 1668   1.354   1.588   1.416 -1.8048  1.3735  1.7369
  557SOL     OW 1669   1.489   0.015   1.551  0.0186 -0.2373  0.3509
  557SOL    HW1 1670   1.544   3.060   1.619 -3.2958 -1.9424 -0.0422
  557SOL    HW2 1671   1.387   0.003   1.554 -0.3911  0.5617  0.0730
  558SOL     OW 1672   0.550   3.033   2.069 -0.0197 -0.0920  0.0618
  558SOL    HW1 1673   0.456   3.007   2.036  0.3116  3.4284 -1.8703
  558SOL    HW2 1674   0.543   3.090   2.154 -1.0630 -0.0277  0.5383
  559SOL     OW 1675   2.085   2.562   0.237  0.1708  0.5529 -0.6159
  559SOL    HW1 1676   2.051   2.643   0.188  0.8594  0.7621 -0.3549
  559SOL    HW2 1677   2.119   2.587   0.337  1.1726 -0.8924  2.0152
  560SOL     OW 1678   1.453   2.169   0.463 -0.4522  0.3774 -0.6860
  560SOL    HW1 1679   1.486   2.079   0.493  1.7379  1.6673 -0.8587
  560SOL    HW2 1680   1.496   2.197   0.376  1.2401 -0.2172 -2.8894
  561SOL     OW 1681   1.216   0.292   2.934  0.1212 -0.2719 -0.2482
  561SOL    HW1 1682   1.180   0.387   2.926  1.0923  0.1649  0.0928
  561SOL    HW2 1683   1.309   0.276   2.897  0.7576  0.5280  0.3867
  562SOL     OW 1684   0.523   1.677   2.083  0.0141 -0.4842 -0.1441
  562SOL    HW1 1685   0.499   1.598   2.143  1.3456 -0.6943  2.2330
  562SOL    HW2 1686   0.489   1.772   2.109  0.3227  1.6006 -0.1131
  563SOL     OW 1687   1.241   1.837   2.556 -0.5908  0.0114  0.0266
  563SOL    HW1 1688   1.343   1.839   2.586 -1.0229  0.3815  0.4188
  563SOL    HW2 1689   1.239   1.878   2.462 -0.8713  1.0358 -1.5762
  564SOL     OW 1690   3.008   1.028   0.959 -0.3759 -0.4379  0.3209
  564SOL    HW1 1691   2.967   0.941   0.927  2.4848  2.6732  1.1873
  564SOL    HW2 1692   2.939   1.107   0.954 -2.5624 -1.4040 -0.0330
  565SOL     OW 1693   0.472   1.153   0.022 -0.5119  0.0779 -0.0557
  565SOL    HW1 1694   0.426   1.244   0.013 -4.4547  0.0506 -1.6211
  565SOL    HW2 1695   0.482   1.128   0.119 -0.1700  1.7369 -3.0404
  566SOL     OW 1696   2.348   2.908   2.640 -0.1315 -0.2676 -0.2351
  566SOL    HW1 1697   2.397   2.995   2.621  0.5900 -0.5873 -0.9582
  566SOL    HW2 1698   2.331   2.902   2.741 -0.0527  1.5118 -0.0990
  567SOL     OW 1699   1.409   1.268   1.171 -0.2728  0.0706  0.5559
  567SOL    HW1 1700   1.480   1.295   1.096  3.3307 -0.2616 -3.0890
  567SOL    HW2 1701   1.455   1.219   1.251 -1.2498 -0.3192  0.4982
  568SOL     OW 1702   1.435   1.371   2.531 -0.5621 -0.0454 -0.3012
  568SOL    HW1 1703   1.432   1.324   2.624  3.9461 -0.9297 -3.7112
  568SOL    HW2 1704   1.478   1.304   2.470  0.0679  1.0174  1.3367
  569SOL     OW 1705   2.401   1.651   0.015 -0.1203 -0.0711  0.5161
  569SOL    HW1 1706   2.451   1.705   3.048 -0.5139 -0.5974  4.3669
  569SOL    HW2 1707   2.302   1.648   0.009  0.8099 -3.9410 -2.4614
  570SOL     OW 1708   3.056   2.393   1.758  0.1085 -0.1900  0.4555
  570SOL    HW1 1709   0.020   2.469   1.784 -0.1891  1.1046 -2.6262
  570SOL    HW2 1710   3.086   2.305   1.800 -0.7347  1.0509  0.6719
  571SOL     OW 1711   2.808   1.952   1.721  0.0562 -0.0303  0.5018
  571SOL    HW1 1712   2.893   1.900   1.736  1.6906 -1.3962 -1.6857
  571SOL    HW2 1713   2.735   1.933   1.792 -1.7176  2.7619 -0.0379
  572SOL     OW 1714   1.734   2.276   0.340 -0.0988  0.0044 -0.0683
  572SOL    HW1 1715   1.668   2.220   0.287 -1.5347  2.2644  0.8015
  572SOL    HW2 1716   1.832   2.261   0.311  0.1345 -2.0721  1.4101
  573SOL     OW 1717   1.517   1.887   0.487 -0.2371  0.0655  0.1657
  573SOL    HW1 1718   1.602   1.842   0.519  0.0663 -1.9275 -1.0665
  573SOL    HW2 1719   1.440   1.830   0.525 -1.2968 -0.5977  0.2027
  574SOL     OW 1720   1.763   0.223   1.421 -0.3518  0.2680  0.1187
  574SOL    HW1 1721   1.779   0.133   1.463  2.5224 -1.2927  0.7217
  574SOL    HW2 1722   1.662   0.248   1.412 -0.8902 -0.5525  0.6704
  575SOL     OW 1723   0.513   1.262   1.483 -0.7785 -0.5780 -0.5214
  575SOL    HW1 1724   0.596   1.318   1.468 -4.1592 -1.1985 -1.0676
  575SOL    HW2 1725   0.482   1.228   1.396 -0.4943  1.9590  1.6171
  576SOL     OW 1726   2.597   0.766   1.320 -0.1580  0.1365  0.4538
  576SOL    HW1 1727   2.569   0.674   1.312  0.1214  4.2504 -0.8874
  576SOL    HW2 1728   2.695   0.771   1.341  1.2553  2.2060  0.4667
  577SOL     OW 1729   1.671   0.888   2.496  0.1202 -0.3016  0.5455
  577SOL    HW1 1730   1.581   0.864   2.536  0.1130 -0.4364 -0.9269
  577SOL    HW2 1731   1.666   0.877   2.390 -2.4807  0.4665  0.2236
  578SOL     OW 1732   2.249   1.270   2.544 -0.0894 -0.3269  0.1798
  578SOL    HW1 1733   2.268   1.324   2.631 -1.8276 -0.3368  1.2222
  578SOL    HW2 1734   2.175   1.320   2.490 -0.3266 -2.6350 -1.2432
  579SOL     OW 1735   0.889   1.986   1.607 -0.1367  0.0218 -0.1153
  579SOL    HW1 1736   0.817   2.037   1.658  3.1369  1.7226  0.5846
  579SOL    HW2 1737   0.871   1.958   1.511  0.0750  2.6636  0.6664
  580SOL     OW 1738   1.578   2.141   0.185  0.7805  0.1015  0.2667
  580SOL    HW1 1739   1.601   2.154   0.085  0.6042 -0.9769  0.1682
  580SOL    HW2 1740   1.542   2.048   0.191 -0.6135  4.3252 -0.1374
  581SOL     OW 1741   0.900   0.749   2.111 -0.0710  0.8673  0.1768
  581SOL    HW1 1742   0.842   0.687   2.052 -0.4362  0.6985  0.5202
  581SOL    HW2 1743   0.932   0.706   2.197 -1.4331  1.7313 -0.8504
  582SOL     OW 1744   0.913   1.333   1.246 -0.1409 -0.2673  0.9824
  582SOL    HW1 1745   0.919   1.231   1.228 -0.6494 -3.4266  0.1109
  582SOL    HW2 1746   0.891   1.352   1.344 -0.1229 -0.9418  0.1715
  583SOL     OW 1747   0.619   1.107   1.885  0.5133 -0.1865  0.3913
  583SOL    HW1 1748   0.604   1.202   1.853 -0.8167 -1.7053  0.1466
  583SOL    HW2 1749   0.661   1.109   1.974 -0.2600 -0.3292  0.4404
  584SOL     OW 1750   1.850   2.317   0.604  0.3829 -0.0382 -0.1266
  584SOL    HW1 1751   1.947   2.314   0.625 -0.4061 -1.2878 -2.7539
  584SOL    HW2 1752   1.830   2.282   0.513 -0.6322  0.8710  1.4507
  585SOL     OW 1753   1.869   3.070   2.931 -0.6044 -0.2422  0.2148
  585SOL    HW1 1754   1.793   0.029   2.959 -0.8955 -1.2100 -2.4686
  585SOL    HW2 1755   1.891   3.088   2.834 -3.1628  3.7271 -0.2483
  586SOL     OW 1756   2.997   1.917   0.697 -0.1944 -0.0476  0.1160
  586SOL    HW1 1757   2.983   1.828   0.749  0.7492 -1.8530 -0.2120
  586SOL    HW2 1758   3.053   1.981   0.754 -0.6756  2.0243  0.1030
  587SOL     OW 1759   1.888   1.859   0.368 -0.3461  0.4734  0.7123
  587SOL    HW1 1760   1.924   1.766   0.392  2.3032 -1.8903 -0.5379
  587SOL    HW2 1761   1.940   1.900   0.290  1.2386  1.5001 -0.1502
  588SOL     OW 1762   0.134   0.328   0.728  0.9055  0.2264  0.0291
  588SOL    HW1 1763   0.127   0.254   0.795 -1.1815  1.9280 -0.9279
  588SOL    HW2 1764   0.189   0.404   0.761  0.9731 -1.1745 -1.7296
  589SOL     OW 1765   1.183   1.270   0.980  0.2888  0.0031 -0.4775
  589SOL    HW1 1766   1.161   1.181   0.934  0.6043  2.2520 -0.9754
  589SOL    HW2 1767   1.265   1.260   1.036 -1.7816 -1.0381 -3.0061
  590SOL     OW 1768   1.354   1.276   3.072  0.2269  0.2436 -0.1236
  590SOL    HW1 1769   1.453   1.279   0.005  0.4537 -3.4405 -0.0592
  590SOL    HW2 1770   1.308   1.208   0.028  0.8510  0.0628  1.0609
  591SOL     OW 1771   2.673   2.579   2.463 -0.4553 -0.3305  0.1406
  591SOL    HW1 1772   2.718   2.644   2.529  0.0955  1.7575  2.3774
  591SOL    HW2 1773   2.641   2.639   2.383 -0.7008  0.0155 -2.1223
  592SOL     OW 1774   1.944   1.966   1.360 -0.5747 -0.0029  0.3873
  592SOL    HW1 1775   1.995   1.885   1.381 -3.2897 -1.5128 -1.1075
  592SOL    HW2 1776   1.852   1.957   1.403 -0.8404 -0.7379  1.5319
  593SOL     OW 1777   0.870   0.151   1.118  0.1527  0.0807 -0.1788
  593SOL    HW1 1778   0.926   0.090   1.179 -4.0828  0.5235 -0.5063
  593SOL    HW2 1779   0.879   0.123   1.017 -0.4115 -1.1588  0.1450
  594SOL     OW 1780   2.981   0.670   2.282 -0.2603  0.2484  0.1907
  594SOL    HW1 1781   3.076   0.689   2.243  0.5374  1.8769 -0.8374
  594SOL    HW2 1782   2.965   0.571   2.276  2.1552  0.4110  1.8171
  595SOL     OW 1783   0.861   2.704   1.374  0.5482  0.3282  0.3718
  595SOL    HW1 1784   0.868   2.790   1.318  0.6064  1.2548 -1.1823
  595SOL    HW2 1785   0.791   2.637   1.336 -0.3805 -3.3566 -0.0446
  596SOL     OW 1786   0.095   0.770   1.413 -0.3066  0.1703 -0.6925
  596SOL    HW1 1787   0.083   0.683   1.363 -0.8362  2.2820 -2.6334
  596SOL    HW2 1788   0.064   0.844   1.350  3.4932 -1.8511 -0.2017
  597SOL     OW 1789   1.680   1.798   0.158  0.3553 -0.0356 -0.0342
  597SOL    HW1 1790   1.575   1.804   0.174  0.8346  1.2900  1.3637
  597SOL    HW2 1791   1.733   1.841   0.232 -0.0361  0.3108  0.7649
  598SOL     OW 1792   0.464   2.890   1.590  0.0109 -0.4110  0.6233
  598SOL    HW1 1793   0.422   2.873   1.502 -0.5278  0.2369  1.6565
  598SOL    HW2 1794   0.560   2.862   1.602 -0.4216  0.1642 -1.5233
  599SOL     OW 1795   2.510   1.815   2.939  0.3038  0.4432  0.1418
  599SOL    HW1 1796   2.435   1.846   2.876  1.0500  0.4155 -1.1979
  599SOL    HW2 1797   2.600   1.829   2.889 -0.9463 -0.8321 -0.6801
  600SOL     OW 1798   0.854   0.921   0.313  0.0426  0.3671  0.2004
  600SOL    HW1 1799   0.858   0.924   0.417 -0.5957 -1.0166  0.0399
  600SOL    HW2 1800   0.878   1.008   0.268 -2.3203 -0.7312 -1.9180
  601SOL     OW 1801   0.630   0.552   0.691 -0.6047  0.1526 -0.2525
  601SOL    HW1 1802   0.584   0.638   0.663  0.5956 -0.6982 -0.4770
  601SOL    HW2 1803   0.658   0.555   0.789 -1.6114  0.5775  1.1670
  602SOL     OW 1804   1.273   2.912   0.633 -0.3227  0.0588 -0.2584
  602SOL    HW1 1805   1.362   2.956   0.665  0.4693 -1.6660  0.0424
  602SOL    HW2 1806   1.248   2.935   0.538  2.4537 -0.6259  3.0031
  603SOL     OW 1807   0.755   2.845   2.069  0.4283  0.2598  0.3834
  603SOL    HW1 1808   0.691   2.923   2.065 -3.9787 -1.4618  0.3015
  603SOL    HW2 1809   0.810   2.834   1.981 -0.3473 -0.2637 -2.4854
  604SOL     OW 1810   2.876   2.992   2.453 -0.0883  0.1645  0.2206
  604SOL    HW1 1811   2.956   3.024   2.398  1.7144 -1.5062 -1.7948
  604SOL    HW2 1812   2.896   2.893   2.482  0.1198 -2.4207 -0.8414
  605SOL     OW 1813   2.632   2.045   1.247  0.1033 -0.1378  0.2722
  605SOL    HW1 1814   2.692   2.007   1.322 -0.0190 -0.1412  2.3505
  605SOL    HW2 1815   2.531   2.026   1.268 -0.4544 -2.2666  0.9259
  606SOL     OW 1816   0.403   1.501   2.817  0.0651 -0.3725  0.4944
  606SOL    HW1 1817   0.396   1.591   2.776  0.1465  0.2080  1.1188
  606SOL    HW2 1818   0.328   1.490   2.886  2.4202 -0.7117  0.3741
  607SOL     OW 1819   0.802   3.082   0.506  0.8298  0.5413 -0.4432
  607SOL    HW1 1820   0.712   3.044   0.478  0.3081 -2.7044  0.0392
  607SOL    HW2 1821   0.848   0.038   0.431  1.5814  1.2925  1.4550
  608SOL     OW 1822   1.841   1.254   2.372  0.3528 -0.3054  0.3399
  608SOL    HW1 1823   1.750   1.259   2.423 -0.1852 -1.4593  0.6355
  608SOL    HW2 1824   1.834   1.313   2.290 -0.9187  0.4645 -1.1209
  609SOL     OW 1825   0.088   0.192   0.972 -1.0947 -0.2348  0.0996
  609SOL    HW1 1826   0.131   0.216   1.065  0.8944  3.2301 -0.3524
  609SOL    HW2 1827   0.012   0.259   0.943  0.8522 -0.0923 -2.2219
  610SOL     OW 1828   0.684   2.837   0.713 -0.0056  0.0755  0.2134
  610SOL    HW1 1829   0.779   2.823   0.680  0.9222 -0.4237 -3.1158
  610SOL    HW2 1830   0.674   2.860   0.810 -0.7684  0.0539  2.0975
  611SOL     OW 1831   1.750   0.818   2.888  0.1768  0.3873  0.0071
  611SOL    HW1 1832   1.846   0.792   2.909  0.5914 -0.0031  2.0155
  611SOL    HW2 1833   1.736   0.901   2.947 -0.9154  1.5344 -1.3628
  612SOL     OW 1834   0.744   2.311   2.100 -0.4219 -0.9363  0.4293
  612SOL    HW1 1835   0.806   2.314   2.019  3.1774 -0.1511 -0.0886
  612SOL    HW2 1836   0.775   2.373   2.178 -0.0666  1.5968 -1.2680
  613SOL     OW 1837   1.023   2.559   0.196  0.7052 -0.1123 -0.1508
  613SOL    HW1 1838   1.070   2.475   0.229  0.0887  0.0180 -0.2652
  613SOL    HW2 1839   0.960   2.538   0.116 -1.0942  0.3164 -1.6537
  614SOL     OW 1840   2.723   2.688   1.422 -0.4722 -0.1859 -0.0644
  614SOL    HW1 1841   2.776   2.769   1.387  1.2997  0.1751 -0.1542
  614SOL    HW2 1842   2.742   2.603   1.359 -0.6333 -1.9254 -4.3495
  615SOL     OW 1843   2.181   1.253   0.014 -0.8843  0.1550 -0.4037
  615SOL    HW1 1844   2.095   1.242   0.066 -1.5868  3.2947  1.6028
  615SOL    HW2 1845   2.183   1.193   3.030  1.2423  0.8136 -1.4667
  616SOL     OW 1846   1.742   0.324   0.420  0.2059 -0.0016 -0.0419
  616SOL    HW1 1847   1.722   0.223   0.408  1.4976  0.7016  0.0455
  616SOL    HW2 1848   1.655   0.375   0.431 -2.6055 -2.0206 -0.0676
  617SOL     OW 1849   1.172   0.902   3.089  0.6473 -0.6333  0.3452
  617SOL    HW1 1850   1.241   0.829   3.069 -0.6921 -2.0205  2.2277
  617SOL    HW2 1851   1.096   0.863   0.042  2.3751  1.6311  3.1985
  618SOL     OW 1852   0.833   0.125   1.819  0.4058  0.1250  0.3466
  618SOL    HW1 1853   0.893   0.094   1.895  0.4055 -2.6050 -1.2364
  618SOL    HW2 1854   0.737   0.092   1.854 -4.5342 -0.4848  1.7185
  619SOL     OW 1855   2.834   1.059   1.356 -0.2034  0.4621  0.4925
  619SOL    HW1 1856   2.899   1.141   1.343  2.1105  0.2361  0.8548
  619SOL    HW2 1857   2.796   1.058   1.450  0.4195 -0.2863  0.3221
  620SOL     OW 1858   2.143   0.958   2.712 -0.5586 -0.5721  0.1600
  620SOL    HW1 1859   2.188   0.987   2.626  3.2966 -0.5106 -0.3808
  620SOL    HW2 1860   2.041   0.951   2.701  0.6343  1.8254  0.3735
  621SOL     OW 1861   2.512   2.796   1.294  0.3533 -0.7603  0.8872
  621SOL    HW1 1862   2.545   2.800   1.199  0.8470 -0.1196  3.8713
  621SOL    HW2 1863   2.564   2.721   1.340 -1.9854 -0.2517  1.3801
  622SOL     OW 1864   1.425   0.836   2.563  0.1417 -0.0507 -0.5910
  622SOL    HW1 1865   1.361   0.753   2.558  0.3588 -0.8545  1.5828
  622SOL    HW2 1866   1.370   0.922   2.539  0.1889  0.6822  2.0543
  623SOL     OW 1867   1.150   0.549   2.915  0.0123 -0.2670 -0.0663
  623SOL    HW1 1868   1.099   0.515   2.836  0.2229 -0.8280  1.7715
  623SOL    HW2 1869   1.220   0.618   2.890  1.1723 -2.0724  1.5472
  624SOL     OW 1870   1.949   0.678   0.142 -0.0563  0.2308 -0.3455
  624SOL    HW1 1871   1.961   0.778   0.146 -0.9910 -0.7528 -0.3493
  624SOL    HW2 1872   2.028   0.618   0.115 -1.0977  1.8024 -0.4643
  625SOL     OW 1873   1.019   1.467   1.034  0.8416  0.3440 -0.0213
  625SOL    HW1 1874   1.090   1.397   1.007  2.0122  0.3682 -1.5475
  625SOL    HW2 1875   0.972   1.439   1.124 -0.6654  0.2485  0.5551
  626SOL     OW 1876   1.654   1.244   2.840  0.0121  0.1551  0.8205
  626SOL    HW1 1877   1.729   1.239   2.766  0.3918  3.0126 -0.5912
  626SOL    HW2 1878   1.553   1.224   2.810 -1.6704  1.4046 -1.7217
  627SOL     OW 1879   1.231   0.281   2.280 -0.3511 -0.0094  0.0252
  627SOL    HW1 1880   1.191   0.192   2.251  0.7881  1.6784  0.8864
  627SOL    HW2 1881   1.239   0.283   2.385  0.9452  0.4414  3.8335
  628SOL     OW 1882   2.585   0.138   2.163 -0.0510  0.1578 -0.4232
  628SOL    HW1 1883   2.633   0.202   2.094  0.5626 -0.0281 -1.2858
  628SOL    HW2 1884   2.584   0.184   2.256 -0.3484  2.9842  2.5607
  629SOL     OW 1885   0.802   0.878   2.950 -0.5655 -0.2789 -0.2922
  629SOL    HW1 1886   0.878   0.901   2.888 -0.3496  2.6567  1.8805
  629SOL    HW2 1887   0.848   0.853   3.040 -0.1462  0.6386 -0.0216
  630SOL     OW 1888   1.256   0.279   1.868  0.2402 -0.2681 -0.2862
  630SOL    HW1 1889   1.274   0.355   1.933  0.1049 -0.0016  0.1259
  630SOL    HW2 1890   1.346   0.254   1.821  2.1875 -0.7687  2.3755
  631SOL     OW 1891   2.957   0.662   0.535  0.5718 -0.1524 -0.1851
  631SOL    HW1 1892   2.891   0.592   0.498 -0.5900  0.8880  0.7651
  631SOL    HW2 1893   3.040   0.663   0.481 -1.8125  0.0717 -0.7245
  632SOL     OW 1894   2.137   1.014   1.201 -0.4172 -0.4629 -0.7321
  632SOL    HW1 1895   2.064   1.041   1.270 -2.2485 -1.4937  1.6688
  632SOL    HW2 1896   2.104   0.936   1.142  0.1419 -1.0699  0.2959
  633SOL     OW 1897   1.350   0.695   0.998 -0.1046  0.5878 -0.2054
  633SOL    HW1 1898   1.249   0.694   0.989  1.4444 -0.8992  5.3600
  633SOL    HW2 1899   1.378   0.779   1.042 -0.8195 -0.4606 -0.6581
  634SOL     OW 1900   1.812   3.099   0.993 -0.1765  0.2840  0.2272
  634SOL    HW1 1901   1.904   3.058   1.010 -1.2584  0.3218 -2.5145
  634SOL    HW2 1902   1.740   3.034   1.026 -0.1397 -3.3562 -0.2202
  635SOL     OW 1903   1.439   0.951   1.117  0.1913 -0.0061 -0.7320
  635SOL    HW1 1904   1.525   0.940   1.062 -0.7192 -0.2519  1.3100
  635SOL    HW2 1905   1.421   1.050   1.134 -0.2410  0.3046  2.7354
  636SOL     OW 1906   0.965   0.865   0.834 -0.7065 -0.2376 -0.1188
  636SOL    HW1 1907   1.000   0.824   0.922  0.7455 -0.7798  2.2675
  636SOL    HW2 1908   0.873   0.902   0.849 -1.5268 -3.6482  1.0647
  637SOL     OW 1909   2.342   1.957   0.143  0.7270 -0.3745  0.5027
  637SOL    HW1 1910   2.401   2.031   0.192  2.8437  0.5119 -2.8342
  637SOL    HW2 1911   2.393   1.871   0.142  1.8368  0.0201 -0.8911
  638SOL     OW 1912   1.591   2.913   2.769  0.5734  0.4127 -0.1963
  638SOL    HW1 1913   1.546   2.831   2.727  1.0109 -0.0345  1.1604
  638SOL    HW2 1914   1.608   2.892   2.867 -1.1018 -1.3826 -2.5522
  639SOL     OW 1915   0.894   2.209   1.370 -0.0253  0.1197  0.0973
  639SOL    HW1 1916   0.899   2.263   1.285  1.6260  0.1522  2.8067
  639SOL    HW2 1917   0.891   2.106   1.347  0.6553 -1.9771 -0.8351
  640SOL     OW 1918   2.931   2.569   0.573 -0.1348 -0.2110  0.0866
  640SOL    HW1 1919   2.895   2.586   0.667 -1.4008  0.0778  0.0492
  640SOL    HW2 1920   3.001   2.499   0.573 -0.4448  1.4123 -2.4649
  641SOL     OW 1921   0.385   0.500   0.176  0.6401 -0.3585  0.7560
  641SOL    HW1 1922   0.450   0.425   0.182  1.1812  2.7249 -1.4353
  641SOL    HW2 1923   0.298   0.473   0.124 -4.8081 -1.1945 -5.0683
  642SOL     OW 1924   2.829   0.739   1.090 -0.2591  0.1645 -0.3318
  642SOL    HW1 1925   2.747   0.678   1.079  3.4467  0.4770 -0.2314
  642SOL    HW2 1926   2.829   0.805   1.009  0.2361  1.6998 -0.4241
  643SOL     OW 1927   0.748   2.039   2.123 -0.1840 -0.1066  0.1902
  643SOL    HW1 1928   0.737   2.143   2.118  0.1839 -1.1503 -1.7533
  643SOL    HW2 1929   0.805   2.019   2.202 -1.2505  1.0073 -1.2031
  644SOL     OW 1930   1.621   2.499   0.499  0.0239 -0.2875 -0.7470
  644SOL    HW1 1931   1.644   2.495   0.601 -0.4096  1.4899 -0.0429
  644SOL    HW2 1932   1.608   2.405   0.463  0.2516  0.2065 -0.0520
  645SOL     OW 1933   1.748   2.262   0.944 -0.3070  0.1170  0.3754
  645SOL    HW1 1934   1.843   2.229   0.946 -0.6667 -0.2037 -0.4044
  645SOL    HW2 1935   1.738   2.312   0.851  3.4064  1.5047 -1.3729
  646SOL     OW 1936   1.124   2.815   0.196  0.8544  0.2056  0.0223
  646SOL    HW1 1937   1.101   2.716   0.178 -1.2875  1.8275  3.1829
  646SOL    HW2 1938   1.050   2.876   0.152  0.2953  0.4802 -0.8846
  647SOL     OW 1939   0.293   2.987   1.756  0.1556 -0.0444 -0.4343
  647SOL    HW1 1940   0.309   2.956   1.853  0.0223 -1.3801  0.0966
  647SOL    HW2 1941   0.356   2.936   1.698  2.7537 -0.4318 -1.5093
  648SOL     OW 1942   1.743   0.958   1.338  0.2356 -0.1358 -0.3756
  648SOL    HW1 1943   1.831   0.967   1.390  2.9201 -1.7571 -0.0512
  648SOL    HW2 1944   1.752   0.890   1.263 -0.9848  0.2856 -1.7893
  649SOL     OW 1945   1.593   2.136   2.661 -0.5359 -0.4597 -0.6611
  649SOL    HW1 1946   1.696   2.127   2.684  1.5992  1.3266 -0.3123
  649SOL    HW2 1947   1.535   2.155   2.743 -2.7287 -3.6205 -0.2946
  650SOL     OW 1948   2.433   1.645   1.873  0.1072 -0.3990  0.1760
  650SOL    HW1 1949   2.461   1.629   1.969  3.7662  1.4916 -4.7711
  650SOL    HW2 1950   2.355   1.714   1.877  0.0312  0.9149  0.0699
  651SOL     OW 1951   1.368   1.759   3.006  0.2593 -0.1005  0.2955
  651SOL    HW1 1952   1.305   1.678   2.994 -3.7299  3.6623  0.5582
  651SOL    HW2 1953   1.446   1.757   2.939  0.6161  0.8872 -1.1866
  652SOL     OW 1954   0.931   2.703   2.892 -0.2476 -0.2803 -0.6760
  652SOL    HW1 1955   0.971   2.617   2.932 -0.3405 -1.5617  0.9332
  652SOL    HW2 1956   1.006   2.773   2.871  0.5055  0.8721 -1.6056
  653SOL     OW 1957   2.258   2.027   1.133 -0.0479 -0.5704  0.0918
  653SOL    HW1 1958   2.216   2.116   1.158 -1.9965  1.0809  0.3779
  653SOL    HW2 1959   2.308   1.996   1.217  1.0998 -1.5386 -0.1803
  654SOL     OW 1960   2.856   2.574   1.997 -0.0229  0.1803 -0.2361
  654SOL    HW1 1961   2.831   2.670   1.966 -3.0027  3.6097 -0.8694
  654SOL    HW2 1962   2.906   2.521   1.921  1.5179 -1.8839 -1.2103
  655SOL     OW 1963   2.790   2.224   0.954  0.5074 -0.3015  0.5572
  655SOL    HW1 1964   2.743   2.133   0.951 -0.6690  2.0029 -2.6596
  655SOL    HW2 1965   2.745   2.275   1.032 -3.0192 -1.1521 -0.0512
  656SOL     OW 1966   0.362   2.719   2.696 -0.2407 -0.4065  0.7148
  656SOL    HW1 1967   0.405   2.750   2.610 -1.3015 -1.5090  0.3249
  656SOL    HW2 1968   0.260   2.714   2.685 -0.3823  0.5666  0.4971
  657SOL     OW 1969   0.011   0.725   0.156  0.7442 -0.0503 -0.4119
  657SOL    HW1 1970   0.054   0.679   0.239  0.0966 -0.9036  1.7403
  657SOL    HW2 1971   0.081   0.764   0.092  0.1212 -1.7226  1.1235
  658SOL     OW 1972   1.516   1.798   1.243 -0.2952  0.6728 -0.7533
  658SOL    HW1 1973   1.468   1.755   1.320  1.9839 -1.3884 -0.4854
  658SOL    HW2 1974   1.513   1.902   1.256 -1.8771 -0.0651  1.9948
  659SOL     OW 1975   1.694   0.535   1.231 -0.4387  0.4015  0.2092
  659SOL    HW1 1976   1.754   0.459   1.194  0.5566 -0.4754  1.6562
  659SOL    HW2 1977   1.597   0.522   1.211  1.6651  1.0195 -0.1281
  660SOL     OW 1978   1.393   1.485   0.359 -0.1293 -0.3530  0.6071
  660SOL    HW1 1979   1.309   1.432   0.386  0.2319  1.7552  3.1558
  660SOL    HW2 1980   1.453   1.490   0.443  3.7285 -1.5282 -0.3725
  661SOL     OW 1981   0.110   1.780   0.543 -0.4727 -0.3243  0.5403
  661SOL    HW1 1982   0.109   1.794   0.443 -1.1254 -0.3862 -0.3613
  661SOL    HW2 1983   0.048   1.838   0.588  1.3095 -2.8558 -1.0127
  662SOL     OW 1984   0.110   0.691   2.120  0.0504 -0.7238  0.4672
  662SOL    HW1 1985   0.046   0.684   2.044  0.6560 -0.5958  2.3299
  662SOL    HW2 1986   0.133   0.788   2.146  2.7479  0.9111  1.2027
  663SOL     OW 1987   1.940   1.251   1.219 -0.0260  0.4186 -0.3970
  663SOL    HW1 1988   1.893   1.239   1.128  0.2561  1.5511 -0.2989
  663SOL    HW2 1989   1.888   1.318   1.279  1.1002  0.5308  2.9182
  664SOL     OW 1990   0.683   0.486   0.956  0.7493  0.2214 -0.0496
  664SOL    HW1 1991   0.607   0.434   0.916  0.1462  0.2275 -1.9256
  664SOL    HW2 1992   0.730   0.447   1.042  0.0265 -2.0040  0.6741
  665SOL     OW 1993   1.113   2.900   2.869 -0.5105  0.4083  0.0531
  665SOL    HW1 1994   1.212   2.913   2.901  2.1065 -0.9641  2.0713
  665SOL    HW2 1995   1.061   2.983   2.890  2.7418  1.6027  0.7378
  666SOL     OW 1996   0.212   0.535   2.335  0.1954 -0.3966 -0.5541
  666SOL    HW1 1997   0.277   0.459   2.345  1.5481  0.6887  0.7618
  666SOL    HW2 1998   0.172   0.550   2.239 -1.9254 -1.1020  1.0361
  667SOL     OW 1999   2.033   1.448   2.430 -0.2670 -0.1037  0.3997
  667SOL    HW1 2000   1.993   1.523   2.487 -1.8898 -0.6132 -0.4905
  667SOL    HW2 2001   1.967   1.373   2.414 -0.9928 -0.0140 -0.9637
  668SOL     OW 2002   0.110   1.579   2.921  0.7111 -0.0873  0.0282
  668SOL    HW1 2003   0.141   1.584   2.823 -1.3767 -0.3435  2.6816
  668SOL    HW2 2004   0.023   1.523   2.922  0.5842  0.4316  2.5657
  669SOL     OW 2005   2.073   2.879   2.605  0.1633 -0.4896  0.0975
  669SOL    HW1 2006   2.059   2.858   2.505 -2.2967 -0.3851 -1.3417
  669SOL    HW2 2007   2.177   2.866   2.628  2.6377 -1.8037  0.7141
  670SOL     OW 2008   2.565   0.882   2.387 -0.3023  0.5120 -0.6959
  670SOL    HW1 2009   2.543   0.780   2.403 -1.9804 -0.2011  0.8083
  670SOL    HW2 2010   2.506   0.932   2.451 -1.2695 -0.8377  0.1176
  671SOL     OW 2011   2.477   1.596   0.269 -0.3203  0.0381  0.5402
  671SOL    HW1 2012   2.574   1.570   0.259 -0.2886 -0.6478 -0.2442
  671SOL    HW2 2013   2.431   1.622   0.177 -2.0544 -0.4219 -1.8288
  672SOL     OW 2014   2.589   1.142   2.293 -0.1146  0.0069  0.2640
  672SOL    HW1 2015   2.567   1.044   2.310  0.2090 -1.2425  0.5022
  672SOL    HW2 2016   2.656   1.170   2.367  2.2839 -0.0146  2.5351
  673SOL     OW 2017   2.935   1.398   1.558  0.0329 -0.5881  0.7292
  673SOL    HW1 2018   3.031   1.416   1.585 -1.1943 -2.3503  1.5803
  673SOL    HW2 2019   2.939   1.341   1.474 -0.3455  0.3429  0.1333
  674SOL     OW 2020   1.502   1.801   1.970 -0.7602  0.2202 -0.9031
  674SOL    HW1 2021   1.494   1.856   1.882 -0.9987 -2.0051  0.9380
  674SOL    HW2 2022   1.592   1.823   2.015  0.3478  0.1927 -1.7902
  675SOL     OW 2023   2.931   0.300   1.121  0.0856  0.4611  0.1785
  675SOL    HW1 2024   2.933   0.355   1.036 -0.3164 -0.5357 -1.8684
  675SOL    HW2 2025   2.840   0.279   1.160  1.1966  0.4483  0.3276
  676SOL     OW 2026   2.284   0.947   0.584 -0.6930 -0.6233 -0.7521
  676SOL    HW1 2027   2.339   0.865   0.598  0.3691 -0.7586 -1.9666
  676SOL    HW2 2028   2.190   0.931   0.564  3.7664 -0.3404  2.9101
  677SOL     OW 2029   1.560   1.263   2.209  0.0862 -0.6009  0.5620
  677SOL    HW1 2030   1.484   1.290   2.145  0.0470  1.0043 -0.6640
  677SOL    HW2 2031   1.646   1.320   2.190  0.4895  2.8012 -1.2352
  678SOL     OW 2032   2.373   1.539   1.176 -0.3339 -0.3620 -0.2583
  678SOL    HW1 2033   2.392   1.546   1.074  0.1948  1.8603  1.1619
  678SOL    HW2 2034   2.292   1.478   1.192  0.8282  2.0661  0.6016
  679SOL     OW 2035   0.410   2.702   0.917 -0.0610  0.2063  0.0484
  679SOL    HW1 2036   0.343   2.625   0.934  2.6501  0.1646 -1.2380
  679SOL    HW2 2037   0.371   2.795   0.930  0.0523 -4.7318 -1.4273
  680SOL     OW 2038   3.037   2.120   0.952 -0.3544 -0.4155  0.1109
  680SOL    HW1 2039   3.078   2.115   1.045  0.8796  2.0695 -0.2414
  680SOL    HW2 2040   2.947   2.165   0.952 -1.3603 -1.2769 -1.3571
  681SOL     OW 2041   0.765   0.808   1.253 -0.0770 -0.5945 -0.0460
  681SOL    HW1 2042   0.845   0.753   1.242 -2.8325  0.8026  1.7867
  681SOL    HW2 2043   0.689   0.782   1.187 -0.2832  0.5098  1.3165
  682SOL     OW 2044   1.495   3.024   0.737  0.1410  0.5562  0.3780
  682SOL    HW1 2045   1.486   0.006   0.803  1.7462  2.1932  3.3782
  682SOL    HW2 2046   1.587   3.025   0.695  3.1951  0.5242 -1.3792
  683SOL     OW 2047   2.353   1.436   1.705  0.1549 -0.0738 -0.6006
  683SOL    HW1 2048   2.368   1.515   1.764 -1.2749 -0.8820 -0.0688
  683SOL    HW2 2049   2.303   1.467   1.619 -1.2527 -0.3669 -0.1214
  684SOL     OW 2050   0.019   1.765   1.523 -0.5059  0.4142 -0.2825
  684SOL    HW1 2051   3.026   1.754   1.479 -0.5664 -0.1775  0.4348
  684SOL    HW2 2052   0.010   1.794   1.624 -0.3652  1.4974  2.2840
  685SOL     OW 2053   2.021   1.627   0.408  0.1690  0.0786 -0.0268
  685SOL    HW1 2054   2.009   1.541   0.461  2.8435  1.5516  0.0581
  685SOL    HW2 2055   2.055   1.609   0.314 -1.1402 -0.9569 -0.9255
  686SOL     OW 2056   3.008   0.262   0.558 -0.1141  0.1436 -0.3273
  686SOL    HW1 2057   3.089   0.272   0.614 -1.9679  1.1972  0.1555
  686SOL    HW2 2058   2.935   0.259   0.631  1.8425 -0.0847 -1.4676
  687SOL     OW 2059   1.393   3.073   2.878 -0.1644 -0.2703  0.5810
  687SOL    HW1 2060   1.437   0.036   2.949  1.7395 -1.5054  3.4551
  687SOL    HW2 2061   1.467   3.019   2.837 -0.6853  1.3176  1.9002
  688SOL     OW 2062   1.886   1.839   2.368 -0.1488  0.1173 -0.2420
  688SOL    HW1 2063   1.959   1.765   2.351  1.8600 -1.0210  0.7984
  688SOL    HW2 2064   1.915   1.919   2.426  2.9498  1.1459 -0.2502
  689SOL     OW 2065   2.706   0.930   1.974  0.4123  0.7157  0.4290
  689SOL    HW1 2066   2.688   1.031   1.976 -1.5187 -0.2462 -0.1955
  689SOL    HW2 2067   2.738   0.896   2.063  0.1768  1.6998 -2.5488
  690SOL     OW 2068   1.880   1.532   0.945  0.6829  0.1461  0.3368
  690SOL    HW1 2069   1.976   1.498   0.952 -0.1368 -1.8899  0.1010
  690SOL    HW2 2070   1.849   1.574   1.042  0.0829  2.5413  4.5976
  691SOL     OW 2071   0.714   1.488   1.121  1.0325 -0.0581  0.3009
  691SOL    HW1 2072   0.779   1.438   1.175 -0.0437  1.8976 -0.3323
  691SOL    HW2 2073   0.625   1.440   1.116 -2.6712  1.8241  0.3124
  692SOL     OW 2074   1.954   3.053   2.182  0.0996 -0.3598 -0.0844
  692SOL    HW1 2075   2.003   0.034   2.222  0.5493  1.7971  0.4887
  692SOL    HW2 2076   1.978   3.042   2.081  1.9873 -2.9860 -2.9684
  693SOL     OW 2077   2.847   1.305   2.479 -0.4020 -0.0925  0.3339
  693SOL    HW1 2078   2.899   1.384   2.518  0.4436  0.2596  0.7505
  693SOL    HW2 2079   2.870   1.297   2.377 -1.1699 -0.1033 -3.2432
  694SOL     OW 2080   2.245   0.208   1.053 -0.0693  0.0187  0.4319
  694SOL    HW1 2081   2.219   0.182   1.147 -0.2714  4.4822  0.5662
  694SOL    HW2 2082   2.236   0.313   1.035  1.7868  2.2089  1.9177
  695SOL     OW 2083   1.019   1.246   2.891 -0.1333 -0.3020 -0.6500
  695SOL    HW1 2084   0.981   1.264   2.981  0.7259 -1.1804 -2.0633
  695SOL    HW2 2085   1.047   1.342   2.856  0.6974  0.7910 -0.6402
  696SOL     OW 2086   2.003   0.381   1.434 -0.6552  0.1614  0.1908
  696SOL    HW1 2087   1.951   0.467   1.400  0.5820  1.5138 -0.7816
  696SOL    HW2 2088   1.953   0.299   1.427  1.0534  2.8255  0.5474
  697SOL     OW 2089   1.516   0.590   2.345 -0.5400  0.0249 -0.2017
  697SOL    HW1 2090   1.479   0.586   2.439  0.5849  0.9086  1.6455
  697SOL    HW2 2091   1.525   0.496   2.310 -0.9046  1.1806  0.1375
  698SOL     OW 2092   1.925   1.648   2.579  0.1576 -0.3274 -0.1158
  698SOL    HW1 2093   1.869   1.705   2.512 -1.3876 -1.8644  0.4932
  698SOL    HW2 2094   1.859   1.630   2.659  1.1846 -0.5579  1.6990
  699SOL     OW 2095   1.527   1.199   0.478  0.2950 -0.0259 -0.3375
  699SOL    HW1 2096   1.555   1.294   0.496  2.8968 -1.8002 -1.0923
  699SOL    HW2 2097   1.546   1.137   0.558  0.1148 -2.9259  1.5429
  700SOL     OW 2098   1.741   2.713   0.187  0.5967 -0.0340 -0.3464
  700SOL    HW1 2099   1.672   2.740   0.254 -1.0692  1.5549 -3.4494
  700SOL    HW2 2100   1.743   2.614   0.186  1.9418  1.0488 -1.3460
  701SOL     OW 2101   0.091   0.522   1.285 -0.4460 -0.0471 -0.1320
  701SOL    HW1 2102   0.056   0.568   1.200  1.8131 -0.9022 -3.5212
  701SOL    HW2 2103   0.027   0.452   1.328 -0.4155  1.0886 -2.7457
  702SOL     OW 2104   1.910   3.078   1.467 -0.1216  0.6199 -0.5466
  702SOL    HW1 2105   1.978   3.053   1.401 -5.1531  2.2937  1.0479
  702SOL    HW2 2106   1.821   3.042   1.426  2.5987 -1.2665 -3.0948
  703SOL     OW 2107   2.748   0.430   1.489  0.2334 -0.3353 -0.4345
  703SOL    HW1 2108   2.740   0.356   1.559 -0.5929  0.6431 -0.7975
  703SOL    HW2 2109   2.814   0.505   1.517  2.2924  0.4296  1.6149
  704SOL     OW 2110   1.239   2.227   1.312 -0.0126 -0.1581 -0.6618
  704SOL    HW1 2111   1.190   2.304   1.355  2.0252 -4.2419  1.0044
  704SOL    HW2 2112   1.212   2.211   1.216 -1.6787 -1.1693  4.8601
  705SOL     OW 2113   0.186   1.907   2.160 -0.1378 -0.1118 -0.0096
  705SOL    HW1 2114   0.286   1.934   2.172  0.6553 -0.5714  0.0964
  705SOL    HW2 2115   0.172   1.811   2.184 -1.7178 -0.5146  0.1714
  706SOL     OW 2116   2.482   0.386   2.843  0.0062  0.7873 -0.1753
  706SOL    HW1 2117   2.413   0.319   2.876  1.5726  1.7428  1.7192
  706SOL    HW2 2118   2.576   0.343   2.848 -1.0332  1.1564  1.8202
  707SOL     OW 2119   1.614   2.840   2.390  0.1728 -0.1497  0.2880
  707SOL    HW1 2120   1.678   2.768   2.359 -0.0730 -0.7111  0.9171
  707SOL    HW2 2121   1.540   2.803   2.449  0.0119  2.4560 -0.6251
  708SOL     OW 2122   0.679   2.368   1.460 -0.6320  0.3274 -0.1366
  708SOL    HW1 2123   0.659   2.433   1.385  1.4392 -2.0953  0.5386
  708SOL    HW2 2124   0.762   2.306   1.443  4.0782 -1.0775 -0.5569
  709SOL     OW 2125   2.691   0.820   1.724 -0.4073 -0.5973 -0.0518
  709SOL    HW1 2126   2.680   0.856   1.820  2.6958  3.4500  0.1112
  709SOL    HW2 2127   2.765   0.753   1.718 -1.1894  2.6344 -2.4403
  710SOL     OW 2128   3.072   0.430   1.580 -0.7574  0.1607 -0.3422
  710SOL    HW1 2129   3.067   0.348   1.519  2.4868 -0.1917 -2.0892
  710SOL    HW2 2130   3.013   0.506   1.543 -2.1737 -1.3080  0.9117
  711SOL     OW 2131   0.049   2.729   0.823 -0.1452  0.5985  0.6391
  711SOL    HW1 2132   0.079   2.659   0.890 -0.1852  2.6320 -2.9407
  711SOL    HW2 2133   0.056   2.689   0.727 -0.3825  0.7392 -0.6939
  712SOL     OW 2134   0.430   2.852   2.485 -0.0623  0.2069  0.0316
  712SOL    HW1 2135   0.480   2.927   2.531 -1.5917  1.1052  0.6656
  712SOL    HW2 2136   0.477   2.821   2.402 -0.2020 -0.4874 -1.9923
  713SOL     OW 2137   2.414   0.344   0.344 -0.6234  0.5614 -0.6756
  713SOL    HW1 2138   2.334   0.395   0.388 -1.1455  1.6592  1.9339
  713SOL    HW2 2139   2.434   0.377   0.253 -3.3937 -3.6869 -0.1711
  714SOL     OW 2140   1.719   1.529   0.090 -0.0056  0.7363  0.4513
  714SOL    HW1 2141   1.712   1.630   0.104  0.4772 -0.1336 -0.9721
  714SOL    HW2 2142   1.644   1.473   0.135 -2.1853 -2.2289  1.5629
  715SOL     OW 2143   0.317   0.513   0.447 -0.5740  0.0500  0.1521
  715SOL    HW1 2144   0.366   0.527   0.358  0.8720 -1.8815 -0.1881
  715SOL    HW2 2145   0.319   0.417   0.476  0.2625 -1.3219 -0.6325
  716SOL     OW 2146   1.104   0.058   1.937  0.4330  0.4805 -0.0748
  716SOL    HW1 2147   1.147   0.150   1.927  0.3295 -1.3828  0.6865
  716SOL    HW2 2148   1.126   0.020   2.032 -1.6508 -0.6306  1.8343
  717SOL     OW 2149   0.233   0.489   2.766 -0.6353 -0.3882 -0.2002
  717SOL    HW1 2150   0.300   0.412   2.754 -2.5358  2.4372  0.7011
  717SOL    HW2 2151   0.176   0.495   2.685  0.7442  2.4473  1.5298
  718SOL     OW 2152   1.479   0.465   0.421 -0.4633  0.2239  0.0987
  718SOL    HW1 2153   1.441   0.558   0.437 -0.4356 -0.2923  1.2965
  718SOL    HW2 2154   1.422   0.400   0.470 -1.9242  0.6243  0.2955
  719SOL     OW 2155   2.241   2.063   3.023  0.3963 -0.7154 -0.2542
  719SOL    HW1 2156   2.261   1.998   2.941  0.0943 -1.2788 -2.6060
  719SOL    HW2 2157   2.282   2.028   0.008 -0.3028  1.6776 -2.0141
  720SOL     OW 2158   1.105   0.991   1.454  0.4258  0.4569 -0.0521
  720SOL    HW1 2159   1.134   1.088   1.475  1.3836  0.2332  0.5140
  720SOL    HW2 2160   1.124   0.930   1.532 -0.3869  0.8047  0.7172
  721SOL     OW 2161   0.004   2.715   1.185  0.1775 -0.2803  0.4889
  721SOL    HW1 2162   0.067   2.637   1.195 -1.2145  2.1655 -0.0270
  721SOL    HW2 2163   0.065   2.800   1.168  0.9568  3.3860 -0.4024
  722SOL     OW 2164   0.811   1.921   2.788 -0.2729 -0.2331 -0.3260
  722SOL    HW1 2165   0.790   1.980   2.868 -2.2685 -1.5653  1.6793
  722SOL    HW2 2166   0.821   1.825   2.819  0.9226 -0.3557 -2.4467
  723SOL     OW 2167   1.954   0.344   0.571  0.0456 -0.6214  0.5474
  723SOL    HW1 2168   1.865   0.336   0.516 -3.2836  0.7158 -1.0759
  723SOL    HW2 2169   1.949   0.284   0.655 -2.1135  1.6653  0.6114
  724SOL     OW 2170   0.752   2.277   2.928  0.2180  0.2069  0.4572
  724SOL    HW1 2171   0.779   2.199   2.984 -1.0495  2.9865  0.1258
  724SOL    HW2 2172   0.654   2.299   2.940 -1.0507 -2.5597  0.7983
  725SOL     OW 2173   0.007   0.662   1.070  0.3225  0.1662  0.4739
  725SOL    HW1 2174   3.008   0.679   1.088 -0.6687 -3.3160  1.3048
  725SOL    HW2 2175   0.019   0.665   0.970 -1.0703 -2.7314  0.1013
  726SOL     OW 2176   2.443   0.477   0.642  0.3031 -0.2777  0.2842
  726SOL    HW1 2177   2.513   0.417   0.604 -0.6152  1.0025  5.1806
  726SOL    HW2 2178   2.355   0.457   0.605  3.3216  1.5783 -0.2290
  727SOL     OW 2179   2.009   1.041   2.320 -0.1552  0.6682  0.3572
  727SOL    HW1 2180   1.932   1.106   2.335 -0.1390 -2.2559 -1.1232
  727SOL    HW2 2181   1.983   0.945   2.359 -1.1185 -1.7555  0.9755
  728SOL     OW 2182   1.690   2.998   1.357  0.1408 -0.5558 -0.5328
  728SOL    HW1 2183   1.624   3.058   1.409 -2.1079 -0.0353  0.6870
  728SOL    HW2 2184   1.659   2.904   1.339  0.7692  0.0961 -0.2628
  729SOL     OW 2185   2.171   0.380   2.198  0.2030  0.4758  0.3514
  729SOL    HW1 2186   2.153   0.340   2.107  1.5174  0.2854  0.9519
  729SOL    HW2 2187   2.200   0.475   2.187 -0.1415  0.6908  1.9553
  730SOL     OW 2188   0.703   0.818   1.529  0.2211 -0.1307 -0.5261
  730SOL    HW1 2189   0.657   0.728   1.542 -0.9292  1.1868  1.1890
  730SOL    HW2 2190   0.732   0.842   1.433  0.3758  3.8135  2.8554
  731SOL     OW 2191   0.316   0.139   0.225  0.5916  0.2153 -0.3678
  731SOL    HW1 2192   0.329   0.197   0.309 -2.3777 -0.5935  0.7753
  731SOL    HW2 2193   0.287   0.196   0.145 -1.1107 -1.8457 -0.5492
  732SOL     OW 2194   0.763   0.440   0.374 -0.3245 -0.0842 -0.1492
  732SOL    HW1 2195   0.723   0.420   0.467  1.4704  0.4781  2.3677
  732SOL    HW2 2196   0.736   0.536   0.346  0.3943  3.9749 -0.2069
  733SOL     OW 2197   1.651   1.533   2.534  0.0012  0.1617  0.2602
  733SOL    HW1 2198   1.637   1.601   2.455  1.6268 -1.9157  1.7002
  733SOL    HW2 2199   1.566   1.480   2.541  1.3263  1.5571 -1.1737
  734SOL     OW 2200   2.938   2.081   2.064  0.3635 -0.6386  0.1053
  734SOL    HW1 2201   3.034   2.070   2.035 -1.4632 -1.1106  0.2506
  734SOL    HW2 2202   2.894   2.163   2.026  2.2076 -3.1822  1.3304
  735SOL     OW 2203   1.915   0.435   0.999 -0.1694 -0.1183  0.1601
  735SOL    HW1 2204   2.011   0.450   1.027  2.3127 -0.5964 -1.7709
  735SOL    HW2 2205   1.883   0.345   1.033  0.5280  1.0586 -1.0480
  736SOL     OW 2206   0.887   1.332   0.005  0.2803 -0.0863  0.2469
  736SOL    HW1 2207   0.802   1.361   3.058 -1.2305  2.4424  0.7731
  736SOL    HW2 2208   0.902   1.382   0.096  0.8674  0.9884  3.2968
  737SOL     OW 2209   2.981   0.276   0.289 -0.5345 -0.2393 -0.3366
  737SOL    HW1 2210   3.057   0.311   0.230 -1.2213  0.1064 -1.1567
  737SOL    HW2 2211   3.009   0.269   0.390  3.2726 -1.5930  3.7255
  738SOL     OW 2212   0.562   2.567   1.638 -0.1752  0.0919  0.3140
  738SOL    HW1 2213   0.604   2.657   1.638 -1.5441 -3.6724  0.4423
  738SOL    HW2 2214   0.618   2.504   1.583 -1.1658  2.4621  0.5295
  739SOL     OW 2215   1.161   2.924   2.605  0.2148 -0.0243  0.7445
  739SOL    HW1 2216   1.139   2.900   2.698  1.6796  2.1927 -3.4170
  739SOL    HW2 2217   1.197   3.019   2.610  1.1061  0.1907 -1.8751
  740SOL     OW 2218   1.890   2.664   1.543 -0.6175 -0.2669  0.3271
  740SOL    HW1 2219   1.805   2.700   1.588  0.8732 -0.5558  0.8470
  740SOL    HW2 2220   1.898   2.561   1.532 -2.1814  0.2472 -0.3033
  741SOL     OW 2221   2.258   0.700   0.362  0.4440  0.4438 -0.6672
  741SOL    HW1 2222   2.344   0.702   0.304  1.9596  0.7410 -2.1253
  741SOL    HW2 2223   2.201   0.779   0.337  3.0491 -2.0640  0.1572
  742SOL     OW 2224   1.299   2.607   2.415  0.2999  0.0212  0.2767
  742SOL    HW1 2225   1.386   2.555   2.397 -0.9958 -0.6011 -0.2120
  742SOL    HW2 2226   1.227   2.547   2.454  1.5094  1.4225 -1.7275
  743SOL     OW 2227   2.381   0.989   1.743  0.2131 -0.0662  0.2495
  743SOL    HW1 2228   2.346   0.962   1.834 -2.0687 -1.9196  0.7223
  743SOL    HW2 2229   2.374   0.913   1.668 -0.3175 -1.1507 -0.1191
  744SOL     OW 2230   2.607   0.415   0.859  0.0382  0.3136  0.4007
  744SOL    HW1 2231   2.541   0.445   0.794 -0.3926  0.0124  1.6732
  744SOL    HW2 2232   2.607   0.474   0.940 -2.0536  2.3544 -1.2738
  745SOL     OW 2233   2.518   1.217   1.710  0.1640 -0.2875  0.5525
  745SOL    HW1 2234   2.464   1.307   1.696 -0.4665  6.6026 -1.2670
  745SOL    HW2 2235   2.464   1.131   1.707  0.9553 -1.0508 -0.4439
  746SOL     OW 2236   1.395   1.476   0.825 -0.1723 -0.2982 -1.0326
  746SOL    HW1 2237   1.410   1.571   0.862 -0.4138  1.4051 -1.0583
  746SOL    HW2 2238   1.302   1.473   0.792 -1.3589  0.2876  0.1238
  747SOL     OW 2239   1.573   1.778   1.618 -0.3569  0.2159  0.0672
  747SOL    HW1 2240   1.517   1.839   1.677  1.1681 -0.9606 -1.7677
  747SOL    HW2 2241   1.509   1.719   1.572  0.7725 -0.2070  0.9443
  748SOL     OW 2242   0.262   2.718   0.001 -0.1933 -0.2539 -0.0021
  748SOL    HW1 2243   0.320   2.753   0.079 -2.2818  1.6122 -0.1962
  748SOL    HW2 2244   0.321   2.662   3.042 -0.4981  1.0446  1.4181
  749SOL     OW 2245   0.211   1.286   2.532  0.2696  0.4648  0.0753
  749SOL    HW1 2246   0.293   1.286   2.479 -0.7473 -1.1263 -1.7571
  749SOL    HW2 2247   0.148   1.213   2.496 -2.7924  1.9644  0.9183
  750SOL     OW 2248   1.604   0.434   2.018 -1.1566 -0.1877  0.1451
  750SOL    HW1 2249   1.560   0.380   2.091 -2.5909  0.9809  0.0093
  750SOL    HW2 2250   1.687   0.480   2.057  2.1780 -0.4603  2.3719
  751SOL     OW 2251   2.717   0.664   0.227 -0.3792  0.0040  0.1333
  751SOL    HW1 2252   2.794   0.624   0.167  1.9695  0.4792  0.4684
  751SOL    HW2 2253   2.716   0.602   0.311 -2.4143  0.8092 -1.0901
  752SOL     OW 2254   0.111   2.164   0.766 -0.6676 -0.3386  0.0677
  752SOL    HW1 2255   0.169   2.082   0.748  0.9505 -1.6992  0.3082
  752SOL    HW2 2256   0.049   2.150   0.848 -0.2004  0.1426  0.4722
  753SOL     OW 2257   1.069   2.737   1.011 -0.3595 -0.8469 -0.7460
  753SOL    HW1 2258   1.146   2.703   1.069 -3.1846  0.2992 -2.4411
  753SOL    HW2 2259   1.003   2.666   0.994 -0.2772 -1.3984  1.6700
  754SOL     OW 2260   0.300   2.965   2.020 -0.0583 -0.0064  0.1703
  754SOL    HW1 2261   0.326   2.872   2.061  1.3247 -0.3372  1.1269
  754SOL    HW2 2262   0.203   2.988   2.041 -0.6291 -1.8182 -0.5614
  755SOL     OW 2263   1.825   1.058   0.361 -0.0931  0.7829  0.0915
  755SOL    HW1 2264   1.724   1.046   0.343 -0.5369  0.2589 -0.7826
  755SOL    HW2 2265   1.854   1.008   0.448 -2.3376  1.6862  0.6769
  756SOL     OW 2266   2.204   2.301   2.785  0.1384 -0.0607 -0.3124
  756SOL    HW1 2267   2.231   2.227   2.720  1.2290 -1.7052  0.4865
  756SOL    HW2 2268   2.290   2.339   2.834  4.1167  1.3520  0.9258
  757SOL     OW 2269   1.883   0.589   0.395  0.4248  0.2192 -0.4402
  757SOL    HW1 2270   1.915   0.614   0.299  1.3591  0.6320 -1.6041
  757SOL    HW2 2271   1.837   0.500   0.388  1.9088  3.3354 -2.2314
  758SOL     OW 2272   2.206   0.485   1.073  0.2978  0.4052 -0.1221
  758SOL    HW1 2273   2.216   0.550   1.153  0.2274  6.1657  2.2301
  758SOL    HW2 2274   2.239   0.537   0.991 -1.8219 -0.2723 -1.2438
  759SOL     OW 2275   2.610   0.585   1.072  0.0033 -0.4550 -0.0671
  759SOL    HW1 2276   2.582   0.532   1.153 -0.1174  1.1919 -2.7147
  759SOL    HW2 2277   2.555   0.669   1.063  0.1307  3.7689  0.4681
  760SOL     OW 2278   2.172   1.358   1.267  0.2088  0.1584 -0.5727
  760SOL    HW1 2279   2.077   1.315   1.254 -0.6557  1.0204 -1.8331
  760SOL    HW2 2280   2.239   1.281   1.272  0.3737 -0.8038 -0.6064
  761SOL     OW 2281   0.384   0.244   0.490 -0.2473  0.0883 -0.0806
  761SOL    HW1 2282   0.479   0.273   0.511 -0.6165 -0.0153  0.5076
  761SOL    HW2 2283   0.366   0.157   0.534 -0.2038  0.8892  0.7378
  762SOL     OW 2284   0.894   1.950   1.349 -0.4589 -0.4934 -0.4610
  762SOL    HW1 2285   0.993   1.947   1.319  3.2548  3.8920  1.0851
  762SOL    HW2 2286   0.838   1.878   1.299 -1.2192  0.3926  3.2035
  763SOL     OW 2287   1.346   1.074   1.692 -0.3180 -0.1960 -0.1599
  763SOL    HW1 2288   1.377   1.111   1.782 -1.6668  0.1047 -0.9199
  763SOL    HW2 2289   1.404   0.997   1.661 -0.1646 -2.1859 -1.4295
  764SOL     OW 2290   0.090   1.875   2.682  0.7206  0.5742 -0.3286
  764SOL    HW1 2291   0.069   1.833   2.774 -0.5051  2.9527  0.6392
  764SOL    HW2 2292   0.046   1.965   2.675  2.9023 -2.0065 -0.7678
  765SOL     OW 2293   1.199   2.604   1.216  0.0540 -0.2202  0.1795
  765SOL    HW1 2294   1.173   2.528   1.278  0.8365  1.6997 -0.9291
  765SOL    HW2 2295   1.295   2.626   1.246  1.1196  2.4116  0.7682
  766SOL     OW 2296   2.672   2.328   2.576 -0.1095 -0.3833 -0.2292
  766SOL    HW1 2297   2.646   2.363   2.669 -1.0470  2.4651  1.0242
  766SOL    HW2 2298   2.660   2.407   2.510  3.2531  0.0408 -0.4322
  767SOL     OW 2299   0.966   1.185   2.538 -0.3545 -0.4056  0.0101
  767SOL    HW1 2300   0.973   1.210   2.632 -0.3283 -0.4840 -0.7277
  767SOL    HW2 2301   0.881   1.138   2.512  2.9759  3.3485 -0.5319
  768SOL     OW 2302   1.296   2.006   0.024 -0.2337  0.1682  0.0640
  768SOL    HW1 2303   1.297   1.923   3.068 -2.6688  0.7585  0.4131
  768SOL    HW2 2304   1.334   1.996   0.120 -0.6129 -0.9241  1.7038
  769SOL     OW 2305   0.502   2.307   0.977 -0.2548  0.1242  0.1979
  769SOL    HW1 2306   0.451   2.258   1.049 -1.1087  1.1258 -0.6713
  769SOL    HW2 2307   0.445   2.311   0.889 -0.1514 -1.1978 -0.8680
  770SOL     OW 2308   1.423   1.175   2.747 -0.3144 -0.4952  0.2179
  770SOL    HW1 2309   1.333   1.189   2.788  2.5933  2.1210  1.7032
  770SOL    HW2 2310   1.432   1.081   2.710  1.6992  2.2105  0.5154
  771SOL     OW 2311   0.003   2.890   2.294  0.6778 -0.1023 -0.0200
  771SOL    HW1 2312   0.053   2.906   2.382  0.5744 -1.1180  1.7467
  771SOL    HW2 2313   3.086   2.790   2.275 -0.2790 -0.8909 -0.7173
  772SOL     OW 2314   2.215   2.631   1.975 -0.6396 -0.0967 -0.0457
  772SOL    HW1 2315   2.200   2.710   2.030 -0.3649 -1.5216  0.3161
  772SOL    HW2 2316   2.306   2.626   1.929  0.3180  0.1752  0.4350
  773SOL     OW 2317   0.527   2.020   1.680  0.0205 -0.2103  0.6108
  773SOL    HW1 2318   0.610   2.080   1.688 -0.3767  0.2712  1.9487
  773SOL    HW2 2319   0.492   1.978   1.767 -0.4153 -0.7147  0.4269
  774SOL     OW 2320   1.406   0.550   1.867  0.2178 -0.5869  0.3764
  774SOL    HW1 2321   1.403   0.493   1.781 -0.6365 -2.1954  3.4394
  774SOL    HW2 2322   1.479   0.519   1.933 -0.6278  3.4389  2.7063
  775SOL     OW 2323   1.970   2.820   2.958 -0.1480  0.1049 -0.2874
  775SOL    HW1 2324   1.940   2.921   2.962  0.0801 -1.7997  1.0989
  775SOL    HW2 2325   1.992   2.792   2.861 -0.1139 -1.6797  0.4977
  776SOL     OW 2326   2.985   0.296   2.043  0.0484 -0.7676  0.4473
  776SOL    HW1 2327   3.033   0.331   1.958 -0.2815  1.2506 -0.8767
  776SOL    HW2 2328   2.938   0.212   2.016  1.2542  0.8971 -0.8346
  777SOL     OW 2329   2.518   2.316   2.136  0.1011  0.3843  0.0495
  777SOL    HW1 2330   2.499   2.306   2.239 -2.3116 -2.2956  0.6613
  777SOL    HW2 2331   2.453   2.261   2.079 -0.9098 -0.4800  1.1506
  778SOL     OW 2332   1.772   0.814   2.022  0.0351 -0.0378  0.0340
  778SOL    HW1 2333   1.724   0.828   2.115 -1.7685  1.9470  2.5094
  778SOL    HW2 2334   1.713   0.838   1.940 -1.3092 -1.8497  0.3964
  779SOL     OW 2335   2.454   0.745   0.693 -0.0317  0.2065 -0.2214
  779SOL    HW1 2336   2.449   0.644   0.678 -1.8703  0.9490  0.8209
  779SOL    HW2 2337   2.547   0.781   0.670 -1.4320  1.9375  0.0466
  780SOL     OW 2338   2.377   0.192   0.026 -0.2946  0.1099  0.1749
  780SOL    HW1 2339   2.321   0.233   3.051 -0.7093 -4.3194 -3.0499
  780SOL    HW2 2340   2.374   0.091   0.023 -2.0873  1.8859 -0.3323
  781SOL     OW 2341   0.339   2.316   1.368  0.4319 -0.7643  0.1358
  781SOL    HW1 2342   0.383   2.237   1.322  2.0705  1.3931 -0.6255
  781SOL    HW2 2343   0.347   2.313   1.471 -0.4135  1.5907  4.0165
  782SOL     OW 2344   2.431   2.469   2.875  0.6105  0.2081 -0.3018
  782SOL    HW1 2345   2.532   2.486   2.858  2.4573 -2.8637 -0.1094
  782SOL    HW2 2346   2.425   2.394   2.950 -2.0573 -2.1741  1.4822
  783SOL     OW 2347   0.428   1.749   1.383  0.1152 -0.2681  0.5737
  783SOL    HW1 2348   0.517   1.750   1.332  3.2397  0.2960 -1.3708
  783SOL    HW2 2349   0.445   1.721   1.481  0.7035 -3.5108 -0.3604
  784SOL     OW 2350   1.430   0.442   3.076 -0.1164  0.1342 -0.7384
  784SOL    HW1 2351   1.442   0.365   3.012  1.6781  0.4843 -2.6279
  784SOL    HW2 2352   1.345   0.428   0.028  2.2525  0.1717  0.6982
  785SOL     OW 2353   2.501   2.989   0.952  0.5870 -0.2034 -0.0794
  785SOL    HW1 2354   2.413   2.951   0.921  3.6006  0.6962  0.4203
  785SOL    HW2 2355   2.496   3.089   0.968 -0.2362  1.4261  0.6121
  786SOL     OW 2356   1.147   2.094   2.017  0.6444 -0.0844 -0.4238
  786SOL    HW1 2357   1.230   2.038   2.017 -0.5555  1.1508  0.0012
  786SOL    HW2 2358   1.139   2.148   2.104 -0.2378 -0.6896  0.4434
  787SOL     OW 2359   1.217   0.846   1.259 -0.0846 -0.3901  0.1156
  787SOL    HW1 2360   1.164   0.904   1.319  0.8987  1.3087 -1.2897
  787SOL    HW2 2361   1.304   0.892   1.224  2.1898  0.7012 -3.5821
  788SOL     OW 2362   0.099   0.664   0.425 -0.2551 -0.6462  0.6412
  788SOL    HW1 2363   0.122   0.759   0.466 -1.0331  1.4978 -0.1935
  788SOL    HW2 2364   0.180   0.604   0.434  3.4078  1.6193  0.7119
  789SOL     OW 2365   0.091   2.091   1.239  0.6387  0.5647  0.1011
  789SOL    HW1 2366   0.150   2.155   1.198 -0.8636 -2.0216 -2.6455
  789SOL    HW2 2367   0.134   2.015   1.301  0.2243  0.7226  3.4488
  790SOL     OW 2368   0.971   0.676   2.364 -0.0987  0.1537  0.1731
  790SOL    HW1 2369   1.017   0.753   2.404  1.9021 -0.0467  0.7182
  790SOL    HW2 2370   0.904   0.640   2.432  1.6576  3.6173 -1.6435
  791SOL     OW 2371   1.810   0.749   0.610 -0.3809  0.4911 -0.1110
  791SOL    HW1 2372   1.815   0.698   0.524  1.6409 -0.2745  0.3305
  791SOL    HW2 2373   1.826   0.683   0.689  3.9632  0.0780 -0.1760
  792SOL     OW 2374   1.545   2.437   1.946  0.1396  0.1157 -0.1324
  792SOL    HW1 2375   1.642   2.421   1.957 -2.1991  0.0616 -1.8661
  792SOL    HW2 2376   1.530   2.503   1.874  1.5318 -1.3834  2.3672
  793SOL     OW 2377   1.351   0.708   0.563  0.4713  0.4523  0.1318
  793SOL    HW1 2378   1.375   0.807   0.578  2.6079  0.8089  0.4873
  793SOL    HW2 2379   1.391   0.653   0.637 -2.5192  3.1842  0.0896
  794SOL     OW 2380   0.425   0.859   2.093  0.3477  0.0763  0.3329
  794SOL    HW1 2381   0.340   0.907   2.132 -0.3339 -0.4321  1.3788
  794SOL    HW2 2382   0.438   0.884   1.994  0.4550  0.9576  1.3794
  795SOL     OW 2383   0.369   2.106   2.476 -0.1913 -0.1453  0.8525
  795SOL    HW1 2384   0.411   2.182   2.422 -1.7058 -4.0003 -1.2634
  795SOL    HW2 2385   0.435   2.062   2.541  1.8563  1.3461 -0.8207
  796SOL     OW 2386   2.549   0.714   2.015  0.3729 -0.1158 -0.0639
  796SOL    HW1 2387   2.494   0.702   2.104 -0.4026  0.9662  4.5777
  796SOL    HW2 2388   2.590   0.804   2.006 -0.0419 -0.3986 -3.5286
  797SOL     OW 2389   2.997   2.262   3.007  0.4203  0.3961  0.2743
  797SOL    HW1 2390   2.975   2.353   2.973 -0.8525 -1.5682  0.4895
  797SOL    HW2 2391   2.987   2.261   0.012 -3.3775 -0.2767  3.0431
  798SOL     OW 2392   0.207   2.510   2.151  0.1960  0.2622 -0.0245
  798SOL    HW1 2393   0.237   2.418   2.113 -1.2068  0.0547 -1.0236
  798SOL    HW2 2394   0.139   2.498   2.226 -1.4371 -2.2826  2.4908
  799SOL     OW 2395   0.425   2.199   2.756 -0.7148 -0.5437 -0.1108
  799SOL    HW1 2396   0.469   2.263   2.826 -0.4877  0.2053 -0.7896
  799SOL    HW2 2397   0.355   2.145   2.809  0.5713 -1.6643  1.2325
  800SOL     OW 2398   0.861   2.034   3.059  0.1832  0.2624 -0.0562
  800SOL    HW1 2399   0.828   1.941   3.094 -0.8062 -2.8213  1.5670
  800SOL    HW2 2400   0.927   2.076   0.023  0.8848 -0.7390  0.0331
  801SOL     OW 2401   1.725   1.385   1.423 -0.0358 -0.3127 -0.1628
  801SOL    HW1 2402   1.809   1.362   1.482  0.9460 -3.4571  1.3052
  801SOL    HW2 2403   1.648   1.403   1.484 -1.4877 -0.1700 -0.1359
  802SOL     OW 2404   2.936   1.111   0.538 -0.8993  0.5062  0.3650
  802SOL    HW1 2405   2.886   1.188   0.584 -1.5802 -1.1577 -0.2016
  802SOL    HW2 2406   2.872   1.043   0.500 -1.2711 -0.2296  0.3142
  803SOL     OW 2407   0.978   1.857   2.513 -0.0869 -0.2288  0.0075
  803SOL    HW1 2408   0.942   1.872   2.607 -2.5629 -1.1244  0.9054
  803SOL    HW2 2409   1.079   1.825   2.513  1.7899 -1.1765  0.4588
  804SOL     OW 2410   1.551   1.330   0.187 -0.1017 -0.0521  0.0473
  804SOL    HW1 2411   1.480   1.393   0.230 -1.4671  0.6395  1.0873
  804SOL    HW2 2412   1.566   1.248   0.246 -2.1230  2.5795 -2.2871
  805SOL     OW 2413   2.741   1.640   2.867 -0.0304 -0.5577  0.0724
  805SOL    HW1 2414   2.676   1.567   2.834  0.4152  0.8377  1.7318
  805SOL    HW2 2415   2.739   1.729   2.815 -0.0321  0.3557 -1.4534
  806SOL     OW 2416   0.563   2.986   0.481  0.0253 -0.4916  0.1292
  806SOL    HW1 2417   0.503   3.039   0.543 -0.3531  1.0373  1.0523
  806SOL    HW2 2418   0.597   2.905   0.532  0.3277 -0.8944 -0.9088
  807SOL     OW 2419   2.128   1.732   2.729 -0.3084  0.4287  0.1770
  807SOL    HW1 2420   2.118   1.739   2.831  0.0070 -2.1819  0.1679
  807SOL    HW2 2421   2.043   1.693   2.690  0.1599 -0.6272  1.0233
  808SOL     OW 2422   0.601   1.364   0.860  0.0965  0.0975  0.0956
  808SOL    HW1 2423   0.557   1.372   0.768 -1.4546  0.5691  0.9190
  808SOL    HW2 2424   0.532   1.356   0.940 -0.0755  0.5228  1.3312
  809SOL     OW 2425   2.594   0.876   0.427 -0.1133  0.0324  0.0147
  809SOL    HW1 2426   2.570   0.974   0.399 -2.2981  1.8039 -0.2207
  809SOL    HW2 2427   2.587   0.822   0.345  0.1373  1.0400  2.1999
  810SOL     OW 2428   0.876   0.962   0.591 -0.2557  0.0890 -0.2023
  810SOL    HW1 2429   0.842   1.055   0.619 -0.3371  2.9228  0.0939
  810SOL    HW2 2430   0.912   0.903   0.670  1.2544 -0.0617  0.2272
  811SOL     OW 2431   1.478   2.671   1.353 -0.1486  0.1132 -0.0899
  811SOL    HW1 2432   1.547   2.697   1.283 -0.0183 -1.3571 -1.7304
  811SOL    HW2 2433   1.504   2.583   1.402 -1.8838 -4.4549  3.2775
  812SOL     OW 2434   1.248   2.614   1.717 -0.6063 -0.6922 -1.0065
  812SOL    HW1 2435   1.223   2.655   1.808  1.0172  1.8162 -1.3845
  812SOL    HW2 2436   1.199   2.661   1.638  0.5811 -1.2967  0.0134
  813SOL     OW 2437   1.318   2.985   1.821  0.3076 -0.2072  0.1610
  813SOL    HW1 2438   1.286   3.054   1.891 -0.5132  2.1334 -1.0598
  813SOL    HW2 2439   1.276   3.005   1.729  0.4855  0.1381  1.8026
  814SOL     OW 2440   1.134   2.433   2.525 -0.1117 -0.1264 -0.1282
  814SOL    HW1 2441   1.069   2.366   2.492 -0.5935  0.4592 -0.1451
  814SOL    HW2 2442   1.185   2.390   2.605 -0.9890 -1.5743  0.1608
  815SOL     OW 2443   0.863   0.251   2.359  0.5590 -0.2958  0.0554
  815SOL    HW1 2444   0.914   0.293   2.280  1.9984  0.4973  0.2005
  815SOL    HW2 2445   0.820   0.323   2.417 -0.1223 -0.7539  0.9320
  816SOL     OW 2446   2.258   0.192   2.853  0.0930 -0.1811  0.0093
  816SOL    HW1 2447   2.206   0.278   2.838  0.5572 -0.1814 -1.2726
  816SOL    HW2 2448   2.201   0.122   2.901 -0.1543 -1.6597 -1.1844
  817SOL     OW 2449   2.178   0.137   2.318 -0.2356  0.8579  0.1740
  817SOL    HW1 2450   2.152   0.154   2.412 -1.7190  0.4706  2.2848
  817SOL    HW2 2451   2.195   0.221   2.267  1.0414 -0.2692  2.2421
  818SOL     OW 2452   1.700   0.585   0.098 -0.2897 -0.0736 -0.0337
  818SOL    HW1 2453   1.797   0.612   0.108 -0.0419  4.6306 -0.3244
  818SOL    HW2 2454   1.697   0.496   0.046  2.1661  1.3886 -1.3120
  819SOL     OW 2455   2.407   1.746   2.580 -0.7591 -0.5164 -0.4762
  819SOL    HW1 2456   2.438   1.837   2.622 -0.7734  3.8964 -0.7783
  819SOL    HW2 2457   2.338   1.692   2.636  0.2830  0.0442 -0.1914
  820SOL     OW 2458   0.136   1.601   0.094  0.4021 -0.0614  0.3286
  820SOL    HW1 2459   0.168   1.609   3.096  1.5267  1.1874  0.1270
  820SOL    HW2 2460   0.206   1.549   0.142 -0.0823  5.3589  0.2034
  821SOL     OW 2461   0.321   2.990   0.978 -0.2994  0.2501  0.1208
  821SOL    HW1 2462   0.398   3.055   0.980 -1.4696  1.2088 -0.1443
  821SOL    HW2 2463   0.249   3.028   0.910 -0.4985  2.4449  3.1767
  822SOL     OW 2464   2.917   2.516   2.983  0.3277 -0.0341 -0.1627
  822SOL    HW1 2465   2.914   2.559   3.076  0.8701  0.6917 -0.3153
  822SOL    HW2 2466   2.945   2.581   2.909  2.2254  3.1993 -1.4954
  823SOL     OW 2467   1.294   0.699   2.261 -0.0799 -0.4958 -0.0097
  823SOL    HW1 2468   1.272   0.697   2.164  1.3630 -1.1619  1.1964
  823SOL    HW2 2469   1.395   0.680   2.275 -0.1683 -0.3332  1.5404
  824SOL     OW 2470   2.767   2.267   1.981  0.3245 -0.0711 -0.4409
  824SOL    HW1 2471   2.714   2.309   2.061 -0.1923  0.5502  3.2837
  824SOL    HW2 2472   2.755   2.312   1.887 -2.5966 -2.6544 -1.2747
  825SOL     OW 2473   3.067   2.138   2.587 -0.4286  0.3813  0.0578
  825SOL    HW1 2474   2.968   2.138   2.561 -1.4552  1.0677  0.2763
  825SOL    HW2 2475   0.030   2.113   2.507  1.2925 -1.1621  1.0721
  826SOL     OW 2476   2.351   1.012   2.537  0.7904 -0.6664  0.5882
  826SOL    HW1 2477   2.321   0.977   2.441 -1.0436 -0.7724  0.2957
  826SOL    HW2 2478   2.317   1.110   2.548 -1.8984  3.0129  0.9665
  827SOL     OW 2479   2.365   2.402   1.196  0.5529 -0.8749  0.3290
  827SOL    HW1 2480   2.290   2.341   1.167  1.3267  2.4706  0.6193
  827SOL    HW2 2481   2.344   2.451   1.284  1.4004  1.1665  0.5001
  828SOL     OW 2482   0.145   3.065   1.427 -0.2956  0.0994 -0.3787
  828SOL    HW1 2483   0.097   3.005   1.495 -0.5719 -2.6962 -0.0168
  828SOL    HW2 2484   0.183   0.049   1.476 -0.1897 -0.5396  1.3676
  829SOL     OW 2485   1.533   2.493   2.344  0.2533 -0.6647 -0.2172
  829SOL    HW1 2486   1.567   2.421   2.408  0.0521  0.8862  1.6258
  829SOL    HW2 2487   1.603   2.520   2.276  2.0746 -1.6644  0.6159
  830SOL     OW 2488   1.021   0.409   0.693 -0.5258 -0.1611  0.5030
  830SOL    HW1 2489   0.920   0.396   0.707  1.6852 -2.5990  2.8911
  830SOL    HW2 2490   1.052   0.509   0.677  0.9110  0.6590 -1.8516
  831SOL     OW 2491   2.931   1.472   2.930 -0.1561  0.5414 -0.2116
  831SOL    HW1 2492   2.866   1.552   2.941 -1.7891  1.1842 -0.5778
  831SOL    HW2 2493   2.890   1.380   2.941  2.0681  3.2040 -1.7177
  832SOL     OW 2494   1.720   2.101   2.102  0.2348  0.0634 -0.1074
  832SOL    HW1 2495   1.622   2.104   2.134 -1.5781  2.2184 -2.3224
  832SOL    HW2 2496   1.740   2.182   2.044  0.0293  1.7636  1.0877
  833SOL     OW 2497   0.798   0.344   2.059 -0.6282  0.7171 -0.3373
  833SOL    HW1 2498   0.901   0.356   2.076  1.5203 -1.3213  2.7582
  833SOL    HW2 2499   0.777   0.243   2.045 -0.5988 -1.7988 -2.2924
  834SOL     OW 2500   0.397   0.825   1.355  0.8103 -0.1762 -0.2139
  834SOL    HW1 2501   0.406   0.727   1.337  1.9080  2.2412  0.1422
  834SOL    HW2 2502   0.309   0.844   1.401  1.8229 -1.0483  0.0902
  835SOL     OW 2503   2.707   0.855   0.018 -0.2329  0.4473  0.6817
  835SOL    HW1 2504   2.708   0.782   0.089 -1.8985  0.0993  0.3574
  835SOL    HW2 2505   2.737   0.941   0.055 -1.5480 -0.9365  1.5557
  836SOL     OW 2506   1.089   1.878   0.368 -0.3281  0.0282  0.7075
  836SOL    HW1 2507   1.135   1.966   0.396  0.7808 -0.2962  0.5853
  836SOL    HW2 2508   1.157   1.811   0.324  0.0499 -1.1357 -0.0083
  837SOL     OW 2509   1.494   1.718   0.976 -0.0001 -0.3106 -0.3931
  837SOL    HW1 2510   1.581   1.742   0.941 -3.2162 -0.7132 -0.7610
  837SOL    HW2 2511   1.475   1.761   1.068 -0.1155  0.9117 -0.0355
  838SOL     OW 2512   1.212   1.141   2.285  0.1051 -0.0593 -0.4376
  838SOL    HW1 2513   1.126   1.101   2.247  0.3129  0.7903 -0.7350
  838SOL    HW2 2514   1.189   1.241   2.299  1.5816  4.4210 -0.5694
  839SOL     OW 2515   0.691   2.123   2.403 -0.3143  0.7518  0.6622
  839SOL    HW1 2516   0.792   2.139   2.400 -1.8684 -0.9440  0.9361
  839SOL    HW2 2517   0.648   2.093   2.493 -0.9322  0.1189  1.4007
  840SOL     OW 2518   0.775   2.199   0.362 -0.1956 -0.3238 -0.4466
  840SOL    HW1 2519   0.738   2.259   0.286  0.8876 -0.1565 -1.2304
  840SOL    HW2 2520   0.785   2.254   0.444 -0.1981 -1.4615 -0.4040
  841SOL     OW 2521   1.655   2.433   0.136  0.4806  0.7128 -0.2390
  841SOL    HW1 2522   1.686   2.379   0.220  2.8895 -2.4613  0.1901
  841SOL    HW2 2523   1.695   2.398   0.048  2.1007 -2.5810  1.0256
  842SOL     OW 2524   0.586   0.680   2.930  0.1959 -0.2868 -0.1716
  842SOL    HW1 2525   0.560   0.675   3.029  1.3733 -0.1642  0.2118
  842SOL    HW2 2526   0.663   0.741   2.916 -2.6376 -1.7047  0.1089
  843SOL     OW 2527   1.204   0.325   0.858 -0.1636  0.1934  0.4033
  843SOL    HW1 2528   1.134   0.359   0.793  1.1347  3.7713 -0.1798
  843SOL    HW2 2529   1.179   0.333   0.956  0.1400  0.8881 -1.3459
  844SOL     OW 2530   2.814   0.071   2.663 -0.1712  0.0634 -0.0435
  844SOL    HW1 2531   2.756   0.051   2.739  0.3673  1.3366 -2.1592
  844SOL    HW2 2532   2.819   0.000   2.593 -1.5676  0.9803  1.6217
  845SOL     OW 2533   2.621   2.318   1.202  0.1838 -0.1985  0.8437
  845SOL    HW1 2534   2.518   2.323   1.207  2.2024 -2.1715 -0.0411
  845SOL    HW2 2535   2.639   2.222   1.213 -2.5891 -0.9352 -4.2791
  846SOL     OW 2536   2.794   1.863   2.159  0.3479  0.2968 -0.4710
  846SOL    HW1 2537   2.833   1.953   2.127 -2.0763 -0.6094  0.2888
  846SOL    HW2 2538   2.834   1.788   2.102 -0.6034 -1.2009  0.8583
  847SOL     OW 2539   1.158   0.765   1.648 -0.4117  0.6737  0.0996
  847SOL    HW1 2540   1.131   0.803   1.742  0.4093  0.7819  3.0367
  847SOL    HW2 2541   1.103   0.683   1.618 -1.0744 -0.7630 -1.3248
  848SOL     OW 2542   2.922   2.894   0.186 -0.3012 -0.1349  0.1391
  848SOL    HW1 2543   2.849   2.942   0.243 -1.1046  0.9091  0.2530
  848SOL    HW2 2544   3.017   2.901   0.226  0.7412 -1.1123  0.3251
  849SOL     OW 2545   0.658   2.978   0.016  0.6462  0.2319 -0.2974
  849SOL    HW1 2546   0.641   3.020   3.026  0.2093  1.8511  2.0989
  849SOL    HW2 2547   0.587   3.014   0.080 -2.4101  0.2012  0.8114
  850SOL     OW 2548   1.521   0.059   1.085 -0.8204  0.3865  0.6414
  850SOL    HW1 2549   1.523   0.120   1.003  0.5844  0.4742 -0.0972
  850SOL    HW2 2550   1.545   3.060   1.059  1.8636 -0.9815 -0.1766
  851SOL     OW 2551   2.665   0.305   1.936  0.1949 -0.2051 -0.1489
  851SOL    HW1 2552   2.739   0.353   1.995 -0.4953 -0.1973 -0.1217
  851SOL    HW2 2553   2.595   0.374   1.908  1.8098  0.2458 -0.9833
  852SOL     OW 2554   1.809   0.586   2.395 -0.3745  0.6586 -0.0093
  852SOL    HW1 2555   1.709   0.604   2.386  0.5176 -1.8737 -1.5835
  852SOL    HW2 2556   1.843   0.508   2.340  0.4407  0.2229 -2.0812
  853SOL     OW 2557   3.069   3.095   0.551 -0.1302  0.9587  0.0232
  853SOL    HW1 2558   3.022   0.088   0.565  0.2836  2.1202 -0.6384
  853SOL    HW2 2559   3.003   3.016   0.570  0.3148  0.6758  2.0339
  854SOL     OW 2560   2.441   1.287   2.125  0.3903  0.5613  0.1974
  854SOL    HW1 2561   2.459   1.383   2.137  0.2291 -2.3471  0.5532
  854SOL    HW2 2562   2.486   1.230   2.195  2.0548  0.5260 -0.7959
  855SOL     OW 2563   0.820   2.708   0.340  0.7223  0.1995  0.2111
  855SOL    HW1 2564   0.722   2.681   0.328 -0.9429 -2.0157 -1.3634
  855SOL    HW2 2565   0.885   2.630   0.324  1.0160  1.4678 -0.6816
  856SOL     OW 2566   3.042   0.035   2.796 -0.4382  0.0635  0.1420
  856SOL    HW1 2567   2.950   0.046   2.750 -0.2441 -1.0423 -1.9933
  856SOL    HW2 2568   0.005   3.078   2.737  0.0824  1.1637 -3.2310
  857SOL     OW 2569   1.207   3.054   1.566 -0.7204  0.2147  0.2015
  857SOL    HW1 2570   1.220   2.995   1.484 -2.3433  1.5957 -1.4744
  857SOL    HW2 2571   1.141   0.030   1.550  1.5786 -1.8923 -0.9756
  858SOL     OW 2572   2.784   2.362   1.715 -0.9812  0.2947 -0.3932
  858SOL    HW1 2573   2.767   2.262   1.703 -1.8663 -2.3155  3.0075
  858SOL    HW2 2574   2.886   2.386   1.713  0.2771  0.7986 -0.8236
  859SOL     OW 2575   1.538   2.226   1.778  0.0759  0.0854 -0.1226
  859SOL    HW1 2576   1.464   2.261   1.716 -0.0646  1.7204 -1.8300
  859SOL    HW2 2577   1.543   2.289   1.856  0.8917 -1.1374  0.3501
  860SOL     OW 2578   2.278   2.789   0.155  0.3873 -0.0094 -0.4127
  860SOL    HW1 2579   2.279   2.740   0.069 -2.6424  0.5509  2.3990
  860SOL    HW2 2580   2.184   2.835   0.160 -2.5074  0.8268  0.6766
  861SOL     OW 2581   2.229   2.816   0.595 -0.0909 -0.1090 -0.0054
  861SOL    HW1 2582   2.138   2.860   0.603 -2.3320 -1.2593 -0.5672
  861SOL    HW2 2583   2.223   2.724   0.551 -1.9136  5.5557  0.4055
  862SOL     OW 2584   1.727   0.214   2.395  0.2754  0.0273  0.0740
  862SOL    HW1 2585   1.742   0.112   2.406  1.0502 -2.2565 -1.9627
  862SOL    HW2 2586   1.787   0.253   2.326 -2.1936 -0.8123 -0.1505
  863SOL     OW 2587   0.000   0.676   0.784 -0.8816  0.0489 -0.7954
  863SOL    HW1 2588   0.102   0.669   0.757  1.5408 -2.3956 -1.1236
  863SOL    HW2 2589   3.042   0.665   0.701 -0.3138  0.7192 -0.8281
  864SOL     OW 2590   0.391   2.724   2.117 -0.4348 -0.3817 -0.3784
  864SOL    HW1 2591   0.458   2.749   2.192 -2.0072  1.0495  2.4996
  864SOL    HW2 2592   0.353   2.631   2.126 -1.1586  0.4746  1.0066
  865SOL     OW 2593   0.635   1.094   2.930 -0.1515  0.3009 -0.6154
  865SOL    HW1 2594   0.685   1.004   2.935 -0.6886  0.9007  0.5994
  865SOL    HW2 2595   0.563   1.094   3.005 -0.4733 -0.7109  1.1415
  866SOL     OW 2596   2.900   0.540   0.087 -0.1686 -0.1066  0.2743
  866SOL    HW1 2597   2.990   0.573   0.118  0.3268 -2.0765 -0.5679
  866SOL    HW2 2598   2.889   0.567   3.088  0.5256  0.8847 -2.6035
  867SOL     OW 2599   3.095   2.856   2.925 -0.4886 -0.5178 -0.2903
  867SOL    HW1 2600   0.069   2.887   2.991 -0.5891 -1.4434 -0.8499
  867SOL    HW2 2601   3.002   2.883   2.957 -0.5944 -0.1352  2.3264
  868SOL     OW 2602   1.471   3.019   0.367  0.3477 -0.1543  0.0247
  868SOL    HW1 2603   1.371   3.015   0.382  0.2760 -0.4629  0.2114
  868SOL    HW2 2604   1.496   2.919   0.363  0.3804 -2.0965 -0.8659
  869SOL     OW 2605   1.745   1.608   0.716  0.5802  0.2273  0.3154
  869SOL    HW1 2606   1.792   1.587   0.805  0.2444  1.0016 -1.9338
  869SOL    HW2 2607   1.756   1.710   0.696  1.0643  1.4517 -1.6030
  870SOL     OW 2608   1.750   1.869   0.919  0.3908  0.3703 -0.1218
  870SOL    HW1 2609   1.850   1.860   0.938  0.1282  0.1186  1.0287
  870SOL    HW2 2610   1.732   1.890   0.824  1.5671 -1.4276  1.9176
  871SOL     OW 2611   1.300   1.450   1.355  0.6118 -0.3250  0.7775
  871SOL    HW1 2612   1.228   1.407   1.414 -2.3163 -1.0553  1.2102
  871SOL    HW2 2613   1.327   1.384   1.283 -1.5221  0.4802 -0.3191
  872SOL     OW 2614   0.993   1.530   1.651  0.3860  0.5487  0.1751
  872SOL    HW1 2615   1.007   1.453   1.717 -1.6208  1.8448  0.7122
  872SOL    HW2 2616   0.940   1.603   1.699 -0.3897 -0.9125  2.7049
  873SOL     OW 2617   0.823   1.489   2.414  0.2617  0.7718 -0.0901
  873SOL    HW1 2618   0.920   1.461   2.413 -1.9523 -0.7643 -0.7017
  873SOL    HW2 2619   0.787   1.505   2.508 -0.2985 -2.3012  0.0533
  874SOL     OW 2620   0.508   1.315   1.110  0.0580 -0.2083 -0.5260
  874SOL    HW1 2621   0.406   1.335   1.107 -4.9490  0.8795  1.1945
  874SOL    HW2 2622   0.525   1.233   1.166 -0.7147 -1.0357 -1.0741
  875SOL     OW 2623   2.702   0.188   1.185 -0.7361 -0.2485 -0.6791
  875SOL    HW1 2624   2.626   0.185   1.127  3.1114  2.6398  1.4760
  875SOL    HW2 2625   2.681   0.180   1.284 -0.8280  1.0960  0.1097
  876SOL     OW 2626   0.960   0.784   0.102  0.1148 -0.3860  0.0370
  876SOL    HW1 2627   0.940   0.685   0.113  3.4051  2.3032 -0.3258
  876SOL    HW2 2628   0.917   0.833   0.181 -0.5303  0.3206 -0.8357
  877SOL     OW 2629   3.045   0.259   1.374 -0.6955 -0.2307  0.1012
  877SOL    HW1 2630   3.031   0.285   1.276  1.1836  2.2146 -2.3794
  877SOL    HW2 2631   2.989   0.177   1.400 -0.5534 -1.7548  0.1127
  878SOL     OW 2632   1.693   2.151   3.032 -0.0153 -0.5623 -0.3566
  878SOL    HW1 2633   1.753   2.234   3.011  0.5846  1.5144 -0.0433
  878SOL    HW2 2634   1.755   2.071   3.021  2.2369 -1.1803 -1.2300
  879SOL     OW 2635   2.234   2.025   1.563  0.5045  0.0961 -0.2545
  879SOL    HW1 2636   2.173   2.109   1.568 -0.2908  0.5718 -0.0527
  879SOL    HW2 2637   2.321   2.024   1.622  1.2871  0.1248  2.2776
  880SOL     OW 2638   0.773   0.265   1.603 -0.4555  0.0569 -0.4422
  880SOL    HW1 2639   0.815   0.236   1.693  0.1089  0.8492  3.2613
  880SOL    HW2 2640   0.765   0.368   1.600  0.0575  3.0630 -0.2287
  881SOL     OW 2641   1.088   2.178   3.069  0.3937 -0.8654 -0.4559
  881SOL    HW1 2642   1.062   2.161   2.971 -0.4259 -1.2933 -0.3656
  881SOL    HW2 2643   1.140   2.098   3.099 -1.8193  1.6496 -0.7082
  882SOL     OW 2644   2.212   1.342   1.963 -0.0186  0.0880 -0.0223
  882SOL    HW1 2645   2.280   1.325   2.039 -1.2239 -0.0958  1.4487
  882SOL    HW2 2646   2.267   1.346   1.877  0.9290 -0.8333  1.5134
  883SOL     OW 2647   1.299   0.777   1.974 -0.2101  0.2523  0.3187
  883SOL    HW1 2648   1.209   0.808   1.956  2.6276 -3.4813  1.0986
  883SOL    HW2 2649   1.323   0.691   1.925 -0.8971 -2.1227  0.7307
  884SOL     OW 2650   2.786   0.319   0.030  0.6102  0.3126 -0.0906
  884SOL    HW1 2651   2.799   0.229   0.082 -0.0873 -2.3797  1.9328
  884SOL    HW2 2652   2.857   0.387   0.051 -0.3841 -1.4390  0.0170
  885SOL     OW 2653   0.260   2.080   0.315 -0.0561  0.4794  0.3238
  885SOL    HW1 2654   0.309   1.999   0.278  1.0646  0.1401  1.7607
  885SOL    HW2 2655   0.322   2.159   0.322  0.3357  0.7369 -0.1052
  886SOL     OW 2656   1.967   1.466   2.831 -0.1462  0.4036 -1.1257
  886SOL    HW1 2657   1.965   1.372   2.788  0.8641  1.1012  2.2185
  886SOL    HW2 2658   1.871   1.495   2.850  0.0345  2.3160  1.5232
  887SOL     OW 2659   1.740   0.570   1.697  0.5152  0.1905  0.2940
  887SOL    HW1 2660   1.665   0.521   1.645  0.4155  0.5156 -1.8598
  887SOL    HW2 2661   1.703   0.657   1.740  0.4568  2.5110  1.3191
  888SOL     OW 2662   2.750   1.094   1.636  0.0387  0.1602  0.4031
  888SOL    HW1 2663   2.664   1.148   1.649 -1.4425  1.7119  4.4154
  888SOL    HW2 2664   2.736   0.996   1.653  0.3101  2.5688  0.3107
  889SOL     OW 2665   2.890   2.633   1.064  0.3996 -0.0167 -0.5435
  889SOL    HW1 2666   2.979   2.663   1.112 -0.9565  2.3952 -1.4909
  889SOL    HW2 2667   2.916   2.594   0.973 -0.9929  2.6009 -1.1612
  890SOL     OW 2668   0.081   2.718   2.710  0.0361 -0.4171  0.2197
  890SOL    HW1 2669   0.100   2.618   2.705 -0.5027 -1.3218  0.2736
  890SOL    HW2 2670   0.061   2.749   2.809 -0.8947 -0.7296  2.0003
  891SOL     OW 2671   0.551   1.677   0.092  0.4392 -0.4163 -0.4987
  891SOL    HW1 2672   0.649   1.710   0.078  4.6164 -0.0188 -0.2921
  891SOL    HW2 2673   0.546   1.576   0.104  1.1542 -0.4151 -1.6083
  892SOL     OW 2674   0.124   2.405   1.199  0.8408  0.4412  0.4045
  892SOL    HW1 2675   0.215   2.384   1.237  0.8091  2.7939 -0.8419
  892SOL    HW2 2676   0.058   2.415   1.274  2.5440  1.7263 -2.9570
  893SOL     OW 2677   0.449   3.091   1.306 -0.4999  0.0752 -0.0849
  893SOL    HW1 2678   0.502   0.049   1.370 -1.6262 -1.2600 -0.3214
  893SOL    HW2 2679   0.421   3.004   1.350  1.1472  0.2429  1.4402
  894SOL     OW 2680   2.465   1.551   0.927 -0.4861  0.2497  0.0197
  894SOL    HW1 2681   2.442   1.647   0.887 -2.2835  1.1370 -2.2083
  894SOL    HW2 2682   2.460   1.482   0.855 -0.3619 -1.6208 -0.7608
  895SOL     OW 2683   2.648   2.581   1.676 -0.4321 -0.1618  0.3172
  895SOL    HW1 2684   2.707   2.496   1.686  0.8124 -1.1409  1.0416
  895SOL    HW2 2685   2.663   2.625   1.583  0.5547 -0.9766  0.3312
  896SOL     OW 2686   0.984   0.531   1.504  0.3872  0.3032 -0.0211
  896SOL    HW1 2687   1.040   0.459   1.547 -0.7155 -1.5804 -0.9742
  896SOL    HW2 2688   0.917   0.564   1.576 -0.8242 -0.1934  1.9991
  897SOL     OW 2689   0.766   1.652   1.509 -0.2393 -0.5395  0.0636
  897SOL    HW1 2690   0.853   1.676   1.552  1.4157 -5.3334 -0.7786
  897SOL    HW2 2691   0.768   1.661   1.408 -0.0430  0.4198 -0.3135
  898SOL     OW 2692   1.519   2.560   1.690 -0.3702  0.4728  0.5213
  898SOL    HW1 2693   1.534   2.521   1.597  1.8218 -1.3819  0.6857
  898SOL    HW2 2694   1.424   2.579   1.702 -1.4464 -0.6167  0.3235
  899SOL     OW 2695   0.910   0.483   0.122  0.0477  0.4251 -0.0269
  899SOL    HW1 2696   0.850   0.446   0.194 -2.6549  0.9156 -0.6377
  899SOL    HW2 2697   0.882   0.442   0.034  2.7584 -0.2156  0.0273
  900SOL     OW 2698   1.408   2.344   2.154  0.0757 -0.1353  0.7536
  900SOL    HW1 2699   1.460   2.389   2.231  1.7225  3.9822  2.0480
  900SOL    HW2 2700   1.449   2.383   2.068 -0.5389  0.2856 -1.6890
  901SOL     OW 2701   1.137   2.291   0.230  0.1981  0.6164  0.1756
  901SOL    HW1 2702   1.083   2.242   0.155 -2.4431  0.4590 -2.1847
  901SOL    HW2 2703   1.209   2.349   0.195  1.5585 -0.4943 -0.1170
  902SOL     OW 2704   1.558   1.459   0.596 -0.6461  0.6832 -0.5344
  902SOL    HW1 2705   1.499   1.466   0.681 -2.2148  1.8442 -1.4518
  902SOL    HW2 2706   1.639   1.520   0.623  3.5067  4.0545  1.7237
  903SOL     OW 2707   2.284   0.902   3.044 -0.6701 -0.3697 -0.0063
  903SOL    HW1 2708   2.263   1.000   3.025 -0.7742 -0.6937  2.2905
  903SOL    HW2 2709   2.380   0.889   3.014 -0.3861  1.2083 -0.4960
  904SOL     OW 2710   0.902   1.161   0.204 -0.2553 -0.3371 -0.0659
  904SOL    HW1 2711   0.902   1.192   0.105  0.2872 -1.3050 -1.2777
  904SOL    HW2 2712   0.837   1.210   0.262 -1.2982 -1.7088  0.5451
  905SOL     OW 2713   2.126   3.036   1.295 -0.7593  0.0794 -0.1876
  905SOL    HW1 2714   2.182   0.018   1.282 -0.0471 -1.9969  2.3413
  905SOL    HW2 2715   2.179   2.951   1.303  1.5512 -2.7538  1.1090
  906SOL     OW 2716   2.839   2.469   1.247 -0.1193 -0.1751  0.1727
  906SOL    HW1 2717   2.857   2.527   1.164  0.8670  1.9404  0.2943
  906SOL    HW2 2718   2.755   2.411   1.230  1.0420  2.9857 -1.4436
  907SOL     OW 2719   1.318   0.977   0.348 -0.8052 -0.1139  0.0058
  907SOL    HW1 2720   1.288   0.887   0.322  0.0874  2.0105 -0.7453
  907SOL    HW2 2721   1.283   1.043   0.277 -0.0804  1.9075 -0.4991
  908SOL     OW 2722   1.463   0.177   0.858  0.6674  0.2549  0.1288
  908SOL    HW1 2723   1.371   0.210   0.876  2.5239 -2.8169 -0.6310
  908SOL    HW2 2724   1.527   0.254   0.832 -2.9895  0.1103  0.7839
  909SOL     OW 2725   2.222   1.147   1.572 -0.3190  0.0013  0.1425
  909SOL    HW1 2726   2.280   1.086   1.630  2.3038  2.0869  1.9678
  909SOL    HW2 2727   2.263   1.180   1.488  0.1352 -0.3386  2.0411
  910SOL     OW 2728   1.882   0.541   2.000  0.2071  0.3783  0.1449
  910SOL    HW1 2729   1.842   0.638   2.003  0.6850 -2.0754 -2.6495
  910SOL    HW2 2730   1.938   0.520   1.920 -2.1712  2.2595 -1.6441
  911SOL     OW 2731   2.539   0.814   2.915  0.2117 -0.2228 -0.2615
  911SOL    HW1 2732   2.556   0.738   2.851 -0.3133 -0.4827 -1.2413
  911SOL    HW2 2733   2.614   0.822   2.987 -0.8596  3.2196 -0.7687
  912SOL     OW 2734   3.015   1.120   1.717  0.6276  0.1137 -0.4499
  912SOL    HW1 2735   3.073   1.122   1.635 -0.3437  0.9010  1.0799
  912SOL    HW2 2736   2.916   1.138   1.690 -0.1180  0.2805 -1.5264
  913SOL     OW 2737   3.039   2.442   1.437 -0.2267  0.5651 -0.0833
  913SOL    HW1 2738   3.028   2.354   1.491  2.0037 -2.7044 -0.5088
  913SOL    HW2 2739   2.972   2.439   1.364  0.2158  0.1340  1.8282
  914SOL     OW 2740   1.796   1.226   1.915  0.1439 -0.1089 -0.2343
  914SOL    HW1 2741   1.876   1.189   1.972 -2.6965  3.4090  0.6218
  914SOL    HW2 2742   1.793   1.179   1.823 -3.5687 -2.0732 -1.3167
  915SOL     OW 2743   2.081   0.763   1.087 -0.1612  0.2539  0.4377
  915SOL    HW1 2744   2.144   0.724   1.155 -1.1897  0.2581  0.2599
  915SOL    HW2 2745   2.103   0.732   0.986 -1.0818 -2.1167 -2.4526
  916SOL     OW 2746   2.118   2.278   1.176 -0.4273 -0.2107 -0.0564
  916SOL    HW1 2747   2.073   2.358   1.224 -0.4933 -0.9313  1.3818
  916SOL    HW2 2748   2.080   2.256   1.083 -1.5789  1.6177 -2.2186
  917SOL     OW 2749   1.969   1.980   2.586  0.1109  0.1909 -0.0195
  917SOL    HW1 2750   1.925   2.047   2.649  0.7286  0.5130 -0.2348
  917SOL    HW2 2751   2.026   1.912   2.636 -2.9509  0.3255  0.3094
  918SOL     OW 2752   1.801   2.664   2.335 -0.1880  0.3031  0.1481
  918SOL    HW1 2753   1.899   2.699   2.333  2.1199  1.7470  0.3977
  918SOL    HW2 2754   1.809   2.562   2.328 -1.8399 -1.5067  1.1245
  919SOL     OW 2755   1.285   2.870   1.355  0.7088  0.0795  0.8619
  919SOL    HW1 2756   1.284   2.899   1.257  3.3942  1.6938  1.3550
  919SOL    HW2 2757   1.356   2.798   1.374 -2.2976 -0.0587 -2.9359
  920SOL     OW 2758   0.129   0.090   2.376 -0.2128  0.2756 -0.1778
  920SOL    HW1 2759   0.157   0.002   2.421 -1.0314 -1.1352  1.7452
  920SOL    HW2 2760   0.051   0.140   2.427 -2.3090  2.3931  1.6458
  921SOL     OW 2761   2.965   0.849   1.755  0.1793  0.4693 -0.1146
  921SOL    HW1 2762   2.938   0.946   1.752 -1.9747 -3.7584  2.0338
  921SOL    HW2 2763   3.065   0.844   1.748 -2.4418 -0.9923  1.1648
  922SOL     OW 2764   2.303   2.391   0.215  0.1111 -0.4926  0.5393
  922SOL    HW1 2765   2.237   2.465   0.198 -2.8079 -3.6825 -0.6003
  922SOL    HW2 2766   2.334   2.399   0.312  0.0529 -0.9042 -1.4245
  923SOL     OW 2767   0.634   1.769   0.388 -0.3254  0.1768  0.0565
  923SOL    HW1 2768   0.544   1.786   0.343  1.0768 -0.2550  0.5798
  923SOL    HW2 2769   0.707   1.835   0.359 -1.4368 -0.7479 -1.1219
  924SOL     OW 2770   1.190   0.509   0.124  0.4319  0.3922  0.0726
  924SOL    HW1 2771   1.086   0.488   0.120 -1.8045 -1.4635 -0.6393
  924SOL    HW2 2772   1.210   0.571   0.046 -2.5816 -2.0164 -0.2473
  925SOL     OW 2773   2.417   0.780   1.050 -0.0071  0.4038 -0.6894
  925SOL    HW1 2774   2.399   0.858   0.990  0.4030  0.0232 -0.8700
  925SOL    HW2 2775   2.358   0.780   1.133  2.0691  2.9195  0.7749
  926SOL     OW 2776   0.535   0.360   1.312 -0.0393  0.2858 -0.8187
  926SOL    HW1 2777   0.451   0.390   1.262 -0.7146  1.0997  0.7112
  926SOL    HW2 2778   0.533   0.275   1.367  2.9430 -3.1408  1.5476
  927SOL     OW 2779   0.303   1.644   2.338 -0.2498  0.0338  0.1214
  927SOL    HW1 2780   0.205   1.667   2.358 -1.6907  0.5249  0.3486
  927SOL    HW2 2781   0.363   1.705   2.394 -0.5166  0.1523 -0.2335
  928SOL     OW 2782   3.039   0.208   2.528  0.6758  0.0082  0.2801
  928SOL    HW1 2783   2.974   0.168   2.594 -0.7382 -2.4223 -0.0442
  928SOL    HW2 2784   3.079   0.299   2.560 -0.7627 -2.2835 -0.3858
  929SOL     OW 2785   2.832   3.060   1.143  0.1618 -0.5990  0.2349
  929SOL    HW1 2786   2.913   3.079   1.081  2.7036  1.6792  0.2936
  929SOL    HW2 2787   2.775   0.043   1.163 -2.3561 -1.3625 -1.1006
  930SOL     OW 2788   2.109   0.661   1.736  0.0402 -0.0516  0.4675
  930SOL    HW1 2789   2.067   0.571   1.748 -2.3633  1.7655  0.3346
  930SOL    HW2 2790   2.042   0.727   1.771 -0.3577 -1.7800 -0.8046
  931SOL     OW 2791   1.915   1.329   0.091  0.2997 -0.1505 -0.0597
  931SOL    HW1 2792   1.857   1.399   0.048  2.1449  0.1108  1.4900
  931SOL    HW2 2793   1.906   1.333   0.192 -1.5675  0.3236  2.3112
  932SOL     OW 2794   2.184   1.206   0.333 -0.9485 -0.0448 -0.6152
  932SOL    HW1 2795   2.187   1.120   0.286  0.3735  1.2215  0.4290
  932SOL    HW2 2796   2.088   1.245   0.330 -2.7846  1.2754  1.3807
  933SOL     OW 2797   2.137   1.509   0.921  0.0137  0.3424 -0.3325
  933SOL    HW1 2798   2.179   1.512   0.834 -1.5790 -0.6927  1.4930
  933SOL    HW2 2799   2.159   1.593   0.977  2.2846  1.1456  1.5132
  934SOL     OW 2800   2.038   0.736   2.384 -0.2878 -0.4300  0.4945
  934SOL    HW1 2801   2.105   0.664   2.410  0.2428  0.6455 -1.3976
  934SOL    HW2 2802   1.943   0.700   2.370 -1.0709 -0.8372 -0.1221
  935SOL     OW 2803   0.293   0.888   0.506 -0.0542  0.0841  0.6834
  935SOL    HW1 2804   0.316   0.866   0.410  0.5196 -3.1707  2.5301
  935SOL    HW2 2805   0.265   0.987   0.520 -1.8547 -0.4304 -0.7883
  936SOL     OW 2806   0.448   0.181   0.845 -0.5116  0.4355  0.4923
  936SOL    HW1 2807   0.548   0.159   0.852  4.1114 -1.3268  2.8388
  936SOL    HW2 2808   0.428   0.273   0.882 -1.5440  0.9086 -1.3397
  937SOL     OW 2809   0.023   2.986   2.040  0.1168 -0.0763  0.0622
  937SOL    HW1 2810   0.011   2.944   2.135  0.5411  0.0912 -0.4470
  937SOL    HW2 2811   0.002   2.926   1.959  1.2638  1.7178 -2.2143
  938SOL     OW 2812   0.110   2.527   0.113 -0.2097 -0.0736 -0.1444
  938SOL    HW1 2813   0.008   2.520   0.112 -0.4483 -0.0964  0.2337
  938SOL    HW2 2814   0.140   2.602   0.050  1.8794 -2.1834 -0.3266
  939SOL     OW 2815   0.833   1.875   0.917 -0.7099 -0.7702  0.1348
  939SOL    HW1 2816   0.775   1.911   0.987  3.0812  2.0303 -2.4376
  939SOL    HW2 2817   0.790   1.786   0.895  0.4371  1.1624  2.2314
  940SOL     OW 2818   3.095   0.442   2.931 -0.0604  0.0209 -0.5958
  940SOL    HW1 2819   3.098   0.429   3.032 -1.0179 -0.0460 -1.1492
  940SOL    HW2 2820   0.085   0.445   2.882 -0.2172 -0.3833 -1.8169
  941SOL     OW 2821   2.029   0.221   2.581  0.1573  0.8335 -0.8079
  941SOL    HW1 2822   1.965   0.295   2.609  1.0543 -1.0143 -0.8908
  941SOL    HW2 2823   1.989   0.125   2.600 -0.2742 -1.8565  0.5229
  942SOL     OW 2824   1.119   0.376   1.114  0.1531  0.7272 -0.0309
  942SOL    HW1 2825   1.192   0.370   1.184  1.6239 -1.3747 -0.5092
  942SOL    HW2 2826   1.040   0.423   1.158 -1.7011 -1.2656  0.8705
  943SOL     OW 2827   1.032   0.849   1.891  0.0646  0.2575  0.4159
  943SOL    HW1 2828   0.989   0.815   1.980  0.0736 -1.9227  1.2058
  943SOL    HW2 2829   0.960   0.905   1.846  1.6667 -1.2176 -0.7055
  944SOL     OW 2830   1.982   1.006   1.526  0.6005 -0.2322 -0.0958
  944SOL    HW1 2831   2.017   0.914   1.512  0.3624 -0.8799  1.1767
  944SOL    HW2 2832   2.065   1.064   1.551  2.5770  2.4578  1.7595
  945SOL     OW 2833   2.718   3.015   0.349  0.1258 -0.0512 -0.8494
  945SOL    HW1 2834   2.694   3.044   0.445 -1.7464 -1.2096 -1.1108
  945SOL    HW2 2835   2.629   2.992   0.302 -1.5687 -0.6421 -1.2371
  946SOL     OW 2836   2.999   0.631   1.945  0.6495 -0.1947  0.2997
  946SOL    HW1 2837   2.911   0.587   1.978 -0.2283 -0.0914  1.8413
  946SOL    HW2 2838   2.971   0.716   1.891 -2.6677  1.8006 -1.7852
  947SOL     OW 2839   0.887   2.924   0.132 -0.3032  0.3156 -0.3136
  947SOL    HW1 2840   0.802   2.963   0.081 -1.9355 -0.1803  2.3990
  947SOL    HW2 2841   0.863   2.853   0.203  0.4406 -1.8427  0.3863
  948SOL     OW 2842   2.392   1.957   1.350 -0.1833 -0.1571  0.4683
  948SOL    HW1 2843   2.327   1.983   1.425  0.3158 -0.0478 -1.7466
  948SOL    HW2 2844   2.431   1.861   1.362 -0.0167 -1.6425  1.3083
  949SOL     OW 2845   0.225   1.292   3.024 -0.0250  0.1289  0.4727
  949SOL    HW1 2846   0.135   1.269   3.064 -2.1194  0.9413  0.4822
  949SOL    HW2 2847   0.224   1.258   2.925  0.5709 -2.1501  1.9832
  950SOL     OW 2848   0.628   2.535   0.962  0.6981 -0.3545  0.2268
  950SOL    HW1 2849   0.553   2.597   0.925 -2.1083  1.7514 -2.5629
  950SOL    HW2 2850   0.595   2.435   0.962  1.5210 -3.1351 -1.1541
  951SOL     OW 2851   0.560   1.366   2.633  0.2541 -0.4608  0.0209
  951SOL    HW1 2852   0.494   1.409   2.699 -0.8403  1.1769  2.9550
  951SOL    HW2 2853   0.566   1.264   2.648 -0.4944 -0.9051 -1.7948
  952SOL     OW 2854   0.516   0.776   0.638  0.3094 -0.4039 -0.4142
  952SOL    HW1 2855   0.602   0.829   0.646 -1.0222  1.9068  0.6258
  952SOL    HW2 2856   0.439   0.839   0.612  0.4830  0.8723 -3.1621
  953SOL     OW 2857   2.681   2.991   2.238  0.9350  0.0500  0.0854
  953SOL    HW1 2858   2.646   3.085   2.218  0.4363 -2.9052 -1.0754
  953SOL    HW2 2859   2.761   2.992   2.305 -1.1548 -0.3064  0.2835
  954SOL     OW 2860   1.393   0.970   0.604  0.6231 -0.4064  0.2072
  954SOL    HW1 2861   1.377   0.989   0.504 -0.7658  1.5763 -2.2525
  954SOL    HW2 2862   1.488   0.983   0.628 -1.7772 -1.7548  0.5464
  955SOL     OW 2863   0.791   1.813   0.109 -0.1193 -0.0077  0.0265
  955SOL    HW1 2864   0.864   1.748   0.088  0.3278 -0.1643  0.0883
  955SOL    HW2 2865   0.808   1.851   0.202 -0.4036 -0.3854 -1.2625
  956SOL     OW 2866   2.250   0.326   1.928 -0.3714  0.3334  0.4317
  956SOL    HW1 2867   2.264   0.231   1.902 -0.5758  0.1811 -0.3051
  956SOL    HW2 2868   2.335   0.387   1.923 -0.9167 -2.7506 -1.1319
  957SOL     OW 2869   2.091   2.352   2.317  0.3071 -0.5016  0.3460
  957SOL    HW1 2870   2.132   2.260   2.333 -2.4259  1.8635 -0.6919
  957SOL    HW2 2871   2.129   2.416   2.387 -0.2070 -1.2095  0.6977
  958SOL     OW 2872   1.574   1.164   1.364  0.1522  0.4276 -0.0532
  958SOL    HW1 2873   1.629   1.248   1.357 -0.5737 -1.7298 -2.6210
  958SOL    HW2 2874   1.633   1.083   1.343  0.7423 -0.3541 -0.0050
  959SOL     OW 2875   1.993   2.074   2.152  0.1419 -0.5267 -0.2002
  959SOL    HW1 2876   2.013   2.063   2.051  0.7161 -1.7791  0.8989
  959SOL    HW2 2877   1.892   2.072   2.163  0.0529 -1.5544  0.7359
  960SOL     OW 2878   0.298   0.926   2.685  0.7431 -0.3304 -0.0095
  960SOL    HW1 2879   0.265   0.891   2.597  0.2500  0.2539  1.0973
  960SOL    HW2 2880   0.304   0.852   2.755 -0.4032  0.0760  0.4513
  961SOL     OW 2881   3.076   1.029   2.819 -0.1715  0.0065  0.3589
  961SOL    HW1 2882   0.055   1.083   2.856  1.0280 -1.1477  1.0984
  961SOL    HW2 2883   3.088   0.993   2.725 -0.7743  0.0690  2.3022
  962SOL     OW 2884   0.430   1.395   2.383 -0.8139  0.2977  0.1526
  962SOL    HW1 2885   0.379   1.483   2.371 -0.6289 -0.1537 -1.3362
  962SOL    HW2 2886   0.489   1.399   2.466  0.3788  1.3079 -2.0374
  963SOL     OW 2887   3.002   1.949   0.131  0.5830  0.1288 -0.5352
  963SOL    HW1 2888   2.969   2.047   0.132  0.7834 -0.0578 -0.3980
  963SOL    HW2 2889   2.931   1.877   0.121 -1.0543 -0.7923 -0.0517
  964SOL     OW 2890   0.926   2.271   1.877 -0.8309  0.1822 -0.3221
  964SOL    HW1 2891   1.009   2.215   1.905  1.1607 -0.8140  0.1210
  964SOL    HW2 2892   0.945   2.368   1.893  1.5853 -0.8339  0.0612
  965SOL     OW 2893   1.751   1.886   0.649 -0.1163 -0.3511  0.1441
  965SOL    HW1 2894   1.730   1.988   0.658  0.2246  0.4558 -0.8615
  965SOL    HW2 2895   1.815   1.874   0.570 -0.5514  2.5024  1.3339
  966SOL     OW 2896   2.728   1.522   0.206 -0.0975 -0.2069 -0.1494
  966SOL    HW1 2897   2.708   1.479   0.114 -0.8054 -1.5546 -0.0384
  966SOL    HW2 2898   2.807   1.472   0.245 -0.0031 -1.3751  0.6910
  967SOL     OW 2899   1.971   3.048   1.915 -0.0138  0.3016 -0.0220
  967SOL    HW1 2900   2.025   3.071   1.831  1.2728 -2.6495 -1.4544
  967SOL    HW2 2901   1.958   2.944   1.902  1.8652 -1.8888  0.5223
  968SOL     OW 2902   1.342   0.329   0.242 -0.5911 -0.3713  0.2733
  968SOL    HW1 2903   1.295   0.416   0.215 -0.2066 -0.3724 -0.3919
  968SOL    HW2 2904   1.420   0.349   0.310  2.1105  0.6313  2.4533
  969SOL     OW 2905   0.140   1.621   1.928 -0.3510  0.3228  0.2982
  969SOL    HW1 2906   0.210   1.555   1.903 -1.9612  2.2187 -0.7095
  969SOL    HW2 2907   0.073   1.584   1.999 -0.1872 -2.7015  1.6879
  970SOL     OW 2908   1.987   2.489   1.282 -0.0835  0.0073 -1.0250
  970SOL    HW1 2909   1.897   2.458   1.251  0.0942 -1.4704 -0.8626
  970SOL    HW2 2910   2.001   2.585   1.260 -2.4344 -2.4604  0.2346
  971SOL     OW 2911   2.201   2.340   0.786  0.1196 -0.3926 -0.3798
  971SOL    HW1 2912   2.251   2.413   0.838  0.1468  0.2031 -0.4112
  971SOL    HW2 2913   2.262   2.288   0.720  0.2271  0.3958  0.4036
  972SOL     OW 2914   0.002   1.119   2.494 -0.4470 -0.2182 -0.5351
  972SOL    HW1 2915   3.088   1.062   2.415 -1.7684  3.5530  5.7586
  972SOL    HW2 2916   3.025   1.183   2.509  0.6360  1.5132 -1.1896
  973SOL     OW 2917   0.633   0.310   0.589  0.2457 -0.3788 -0.5529
  973SOL    HW1 2918   0.600   0.396   0.638  1.3542 -1.1026 -0.4920
  973SOL    HW2 2919   0.672   0.235   0.645  1.5605 -1.3609 -2.9232
  974SOL     OW 2920   2.292   0.892   1.984  0.0735  0.0939  0.5808
  974SOL    HW1 2921   2.333   0.835   2.060  3.0235  1.7543  0.2189
  974SOL    HW2 2922   2.200   0.857   1.965  3.1995  1.7484 -0.6184
  975SOL     OW 2923   0.110   3.025   0.301 -0.3074  0.2181 -0.5442
  975SOL    HW1 2924   0.063   3.044   0.386  1.9913 -0.7771 -2.3236
  975SOL    HW2 2925   0.176   3.096   0.284 -1.2542 -1.2227 -1.1383
  976SOL     OW 2926   0.330   1.838   0.937  0.1303 -1.0090 -0.3561
  976SOL    HW1 2927   0.231   1.815   0.964 -0.5462 -0.8146 -0.5501
  976SOL    HW2 2928   0.327   1.887   0.849 -0.4609  0.6179  0.0138
  977SOL     OW 2929   0.941   1.938   0.685 -0.0065 -0.2153  0.3325
  977SOL    HW1 2930   0.901   1.879   0.618 -0.5125  2.2560  0.4313
  977SOL    HW2 2931   0.901   1.926   0.776  0.9461  4.8140 -5.4037
  978SOL     OW 2932   0.154   0.845   3.093  0.3552  0.0791 -0.0656
  978SOL    HW1 2933   0.226   0.814   3.025  1.3096 -0.7458  0.1323
  978SOL    HW2 2934   0.100   0.926   3.061  1.3957 -0.6258 -3.1566
  979SOL     OW 2935   1.947   1.401   0.600  0.4425 -0.5180  0.6384
  979SOL    HW1 2936   2.044   1.424   0.614  0.1358  0.2707 -1.2558
  979SOL    HW2 2937   1.886   1.466   0.647 -1.1508 -3.7188 -0.8379
  980SOL     OW 2938   0.498   2.389   2.046 -0.0993  0.5359  0.7339
  980SOL    HW1 2939   0.505   2.485   2.009  0.0493  1.0626 -1.2235
  980SOL    HW2 2940   0.592   2.352   2.058 -0.1385  0.2900  0.4288
  981SOL     OW 2941   2.249   1.132   2.882 -0.5514 -0.4835 -0.2357
  981SOL    HW1 2942   2.248   1.220   2.826 -0.4530  2.2191  0.0210
  981SOL    HW2 2943   2.208   1.060   2.826  1.4555  1.4775  2.1418
  982SOL     OW 2944   0.099   2.593   1.886 -0.4716 -0.0298 -0.2075
  982SOL    HW1 2945   0.126   2.564   1.980  3.7953 -0.2193  1.7955
  982SOL    HW2 2946   0.183   2.589   1.826  0.9171  0.7614 -0.7548
  983SOL     OW 2947   1.828   0.631   1.458  0.2615  1.1882 -0.1215
  983SOL    HW1 2948   1.772   0.575   1.399  0.5775  2.0832 -0.5403
  983SOL    HW2 2949   1.799   0.605   1.553 -0.5404  1.0046  3.4518
  984SOL     OW 2950   1.689   3.039   2.551  0.3202  0.5977 -0.6156
  984SOL    HW1 2951   1.660   2.980   2.471 -0.3334  0.2409  0.2964
  984SOL    HW2 2952   1.643   2.998   2.635  2.2338 -0.6268  4.0178
  985SOL     OW 2953   1.521   1.426   1.610 -0.1651 -0.5454  0.1794
  985SOL    HW1 2954   1.444   1.382   1.562 -0.8634  1.3252  0.5933
  985SOL    HW2 2955   1.483   1.489   1.684  1.5935  0.6569  1.7938
  986SOL     OW 2956   2.038   2.826   2.318 -0.6233  0.1077 -0.0809
  986SOL    HW1 2957   2.124   2.821   2.264 -2.6208  0.8929 -0.9355
  986SOL    HW2 2958   1.988   2.907   2.291  0.5525 -3.0239  0.4357
  987SOL     OW 2959   2.726   1.910   2.775  0.1853  0.5029  0.0034
  987SOL    HW1 2960   2.808   1.940   2.831  0.5497 -1.8480  0.1288
  987SOL    HW2 2961   2.685   1.973   2.707 -0.2523 -1.2823  0.8798
  988SOL     OW 2962   2.912   0.648   1.534  0.0814  0.5934 -0.0434
  988SOL    HW1 2963   2.901   0.707   1.450 -0.3924 -2.4593 -0.7839
  988SOL    HW2 2964   2.978   0.687   1.597 -0.8823 -1.6186  0.5139
  989SOL     OW 2965   1.955   1.304   1.547  0.1623 -0.9293  0.1761
  989SOL    HW1 2966   1.956   1.204   1.542  0.6284  0.4133  2.0385
  989SOL    HW2 2967   2.043   1.343   1.570 -1.4388 -1.2838 -0.4684
  990SOL     OW 2968   2.818   0.602   2.951 -0.5296  0.4012  0.0948
  990SOL    HW1 2969   2.823   0.539   2.869  1.6718 -0.1929 -0.9223
  990SOL    HW2 2970   2.853   0.696   2.930 -0.9739 -0.9374 -2.0601
  991SOL     OW 2971   0.563   1.772   2.935  0.0882 -0.2976 -0.0730
  991SOL    HW1 2972   0.491   1.783   2.867 -3.1287  0.0983  3.6576
  991SOL    HW2 2973   0.533   1.766   3.033 -0.9675  1.2668 -2.0295
  992SOL     OW 2974   2.431   2.029   1.768  0.4555  0.6638 -0.0517
  992SOL    HW1 2975   2.382   1.936   1.779 -0.3561 -0.3723 -1.8194
  992SOL    HW2 2976   2.527   2.031   1.801 -0.1953  2.7640  0.4315
  993SOL     OW 2977   0.597   0.034   1.091 -0.7396  0.5202  0.0732
  993SOL    HW1 2978   0.527   0.030   1.161  4.1494  1.7897 -0.3474
  993SOL    HW2 2979   0.686   0.065   1.127 -2.4497  1.4254 -1.4169
  994SOL     OW 2980   2.788   2.017   1.464  0.0893  0.7395  0.3824
  994SOL    HW1 2981   2.867   2.077   1.455 -0.4897 -0.3886  2.3047
  994SOL    HW2 2982   2.777   1.991   1.563  1.8607  1.6325  1.0531
  995SOL     OW 2983   2.155   2.077   2.381 -0.7257  0.1377 -0.4531
  995SOL    HW1 2984   2.090   2.063   2.459  1.3462 -2.9774  0.4980
  995SOL    HW2 2985   2.110   2.055   2.294 -1.7433  3.4341  0.5135
  996SOL     OW 2986   2.050   1.745   2.981  0.3896 -0.1346  0.2612
  996SOL    HW1 2987   1.949   1.762   2.996 -2.7088  3.1309  0.1512
  996SOL    HW2 2988   2.087   1.656   3.017 -1.6847 -0.8514  0.0298
  997SOL     OW 2989   1.026   1.369   1.878  0.2571 -0.1175  0.3031
  997SOL    HW1 2990   0.962   1.412   1.944  0.1854 -1.0931 -3.6983
  997SOL    HW2 2991   1.111   1.348   1.928  0.6023 -3.7339  0.3528
  998SOL     OW 2992   2.682   2.275   0.548  0.3496  0.2889  0.4171
  998SOL    HW1 2993   2.658   2.376   0.543  2.0268  0.9537  0.7953
  998SOL    HW2 2994   2.602   2.216   0.572 -1.9617  2.3870 -1.4231
  999SOL     OW 2995   0.181   2.619   0.592 -0.3524 -0.9591  0.0741
  999SOL    HW1 2996   0.152   2.568   0.510  0.6228  1.1042  2.2757
  999SOL    HW2 2997   0.267   2.670   0.566 -1.3562  0.1437  1.1035
 1000SOL     OW 2998   1.066   0.059   2.931  0.4323 -0.1655  0.3502
 1000SOL    HW1 2999   1.047   0.061   3.031 -1.0386  1.1014 -1.2279
 1000SOL    HW2 3000   1.135   0.133   2.908  0.1816  0.2536 -0.4161
   3.10003   3.10003   3.10003
