1000 SPC/Fw water molecules t= 390.00000 step= 390000
 3000
    1SOL     OW    1   2.721   2.970   1.725 -0.5391  0.4711  0.0314
    1SOL    HW1    2   2.636   3.022   1.728  4.1537  0.5073 -0.0322
    1SOL    HW2    3   2.700   2.875   1.753  1.1147  1.0822  0.7357
    2SOL     OW    4   2.574   2.582   0.246 -0.1226 -0.7238 -0.2754
    2SOL    HW1    5   2.669   2.622   0.249  1.9723 -2.5419 -0.6697
    2SOL    HW2    6   2.514   2.645   0.195  0.0302 -3.1015 -0.9001
    3SOL     OW    7   1.436   2.924   0.273  0.3384 -0.0928 -0.3501
    3SOL    HW1    8   1.520   2.910   0.331  0.3159  0.8776 -1.8202
    3SOL    HW2    9   1.430   3.015   0.228 -0.7197  1.5832  1.3529
    4SOL     OW   10   1.353   0.088   2.477 -1.1685 -0.0334 -0.1704
    4SOL    HW1   11   1.362   3.097   2.463  1.3310  0.5318 -0.0436
    4SOL    HW2   12   1.304   0.126   2.400  0.3786 -2.7729  0.6945
    5SOL     OW   13   2.153   0.139   1.396 -0.4115 -0.6125  0.2965
    5SOL    HW1   14   2.119   0.202   1.324  0.8022 -0.1580 -1.9752
    5SOL    HW2   15   2.076   0.080   1.423  1.1679 -1.5818  0.7245
    6SOL     OW   16   2.042   1.922   0.670  0.0169  0.5602 -0.4225
    6SOL    HW1   17   2.014   1.899   0.573 -0.8582 -2.2415 -3.4382
    6SOL    HW2   18   2.137   1.958   0.660  0.9476 -0.3581  0.9018
    7SOL     OW   19   1.962   1.098   0.978 -0.2069 -0.0193  0.2422
    7SOL    HW1   20   1.995   1.147   1.059  0.5193 -1.0998  0.9584
    7SOL    HW2   21   1.864   1.078   0.987  2.6174 -2.6679 -0.6582
    8SOL     OW   22   0.743   1.272   0.890  0.3109  0.3698  0.0249
    8SOL    HW1   23   0.712   1.335   0.963  1.3068 -3.2390 -2.2439
    8SOL    HW2   24   0.690   1.281   0.808  0.2780 -0.6505 -0.4626
    9SOL     OW   25   0.361   2.743   1.734 -0.5310  0.2437 -0.2482
    9SOL    HW1   26   0.348   2.724   1.635  1.4218  1.1415 -0.7172
    9SOL    HW2   27   0.359   2.656   1.789 -1.7212  2.6832 -0.4744
   10SOL     OW   28   1.069   2.364   0.571  0.2883 -0.0355 -0.2105
   10SOL    HW1   29   1.009   2.347   0.653 -0.9853 -0.9749  0.7477
   10SOL    HW2   30   1.155   2.312   0.566  0.0669  1.4555 -2.3195
   11SOL     OW   31   1.657   1.814   1.196 -0.1867 -0.1016 -0.0514
   11SOL    HW1   32   1.690   1.886   1.130 -0.1683  2.6803  0.3977
   11SOL    HW2   33   1.561   1.832   1.228  0.3173 -1.6501  0.2441
   12SOL     OW   34   3.015   0.487   2.066  0.3055 -0.4997 -0.3838
   12SOL    HW1   35   2.931   0.460   2.008 -1.1340  0.5880 -2.4294
   12SOL    HW2   36   3.072   0.554   2.012  1.5299 -0.3609  1.4566
   13SOL     OW   37   2.558   0.041   0.690  0.1301 -0.4246 -0.4710
   13SOL    HW1   38   2.504   3.090   0.753 -1.4510  2.2878 -1.4144
   13SOL    HW2   39   2.626   3.109   0.638 -2.4676  1.4262 -0.2248
   14SOL     OW   40   1.801   1.520   3.060 -0.2378 -0.1480 -0.0598
   14SOL    HW1   41   1.750   1.428   3.057  1.5949 -4.6445  1.0253
   14SOL    HW2   42   1.803   1.561   2.968 -0.4778 -0.4569 -0.3201
   15SOL     OW   43   2.634   2.240   1.824  0.4225 -0.5814  0.5298
   15SOL    HW1   44   2.599   2.328   1.852 -0.2561 -1.8643  2.8722
   15SOL    HW2   45   2.721   2.230   1.883  0.6734  2.0164  1.1111
   16SOL     OW   46   2.691   2.946   1.043  0.4001  0.0773 -0.3787
   16SOL    HW1   47   2.684   2.937   1.144  1.2638 -0.9054  0.6830
   16SOL    HW2   48   2.727   2.861   1.000  0.8018  0.7164  0.5316
   17SOL     OW   49   1.271   0.352   1.474 -0.3483  0.0742  0.5957
   17SOL    HW1   50   1.246   0.290   1.400 -0.4803  1.2637  0.2775
   17SOL    HW2   51   1.207   0.341   1.558 -2.0903 -0.8049  3.2126
   18SOL     OW   52   1.373   0.465   0.993  0.1695  0.4931  0.3583
   18SOL    HW1   53   1.357   0.560   1.020 -1.4284 -1.3124 -0.1421
   18SOL    HW2   54   1.396   0.408   1.076  0.8394 -0.5994 -0.1097
   19SOL     OW   55   2.104   1.444   0.269  0.1339 -0.6935 -0.6689
   19SOL    HW1   56   2.074   1.487   0.179  0.4575 -2.0697 -0.2878
   19SOL    HW2   57   2.172   1.508   0.314  0.9899  1.3525  1.9318
   20SOL     OW   58   2.044   1.574   2.241 -0.2075 -0.0375 -0.0588
   20SOL    HW1   59   2.090   1.537   2.324 -0.9602  2.6700  0.2409
   20SOL    HW2   60   1.990   1.502   2.193  4.4048  1.7854  0.3371
   21SOL     OW   61   1.345   0.040   0.548  0.0740 -0.1676 -0.6131
   21SOL    HW1   62   1.325   0.097   0.468 -0.4077 -2.1567 -0.5601
   21SOL    HW2   63   1.315   3.053   0.531 -0.7896 -2.1863 -0.5205
   22SOL     OW   64   2.687   0.589   1.025 -0.2839 -0.4962 -0.2167
   22SOL    HW1   65   2.738   0.531   0.958  0.4163  1.0371  1.3667
   22SOL    HW2   66   2.601   0.622   0.977 -1.9771  0.8184 -0.8428
   23SOL     OW   67   0.484   0.084   1.773  0.7152 -0.0674 -0.2521
   23SOL    HW1   68   0.528   0.152   1.836 -1.9266  0.6237  0.3299
   23SOL    HW2   69   0.433   0.023   1.832  5.0604 -1.1725 -0.8057
   24SOL     OW   70   2.568   2.728   0.713 -0.0655 -0.0839 -0.0916
   24SOL    HW1   71   2.540   2.823   0.748 -1.0966 -0.1703 -0.0010
   24SOL    HW2   72   2.615   2.735   0.621  3.0116  1.6202 -1.2791
   25SOL     OW   73   1.996   0.080   2.769 -0.1467 -0.2611 -0.0309
   25SOL    HW1   74   2.081   0.085   2.715  0.8546 -0.1024  1.1131
   25SOL    HW2   75   1.971   0.173   2.794  1.8631 -0.7296  1.3174
   26SOL     OW   76   1.556   2.568   3.106 -0.0163 -0.0114  0.0893
   26SOL    HW1   77   1.549   2.670   3.100  1.5449 -0.0976  1.1263
   26SOL    HW2   78   1.483   2.525   0.050  2.0334 -0.3316 -0.0945
   27SOL     OW   79   1.260   0.685   1.096 -0.3096  0.2861  0.1922
   27SOL    HW1   80   1.194   0.718   1.027 -0.6617  1.7499  2.1685
   27SOL    HW2   81   1.218   0.648   1.182  1.3345  0.0246  1.2419
   28SOL     OW   82   1.197   1.500   0.543  0.3448 -0.0142  0.0441
   28SOL    HW1   83   1.148   1.502   0.635  2.3421  0.7962 -0.8472
   28SOL    HW2   84   1.226   1.403   0.526  2.3182  1.8601  0.1289
   29SOL     OW   85   2.882   0.426   1.651  0.4541 -0.3555  0.0909
   29SOL    HW1   86   2.854   0.436   1.751  0.3783  3.3748  0.9727
   29SOL    HW2   87   2.809   0.371   1.599 -1.0760 -0.9347  1.0045
   30SOL     OW   88   1.309   2.810   1.322  0.1682  0.1405 -0.3645
   30SOL    HW1   89   1.218   2.807   1.368 -2.3508 -0.7531 -1.8098
   30SOL    HW2   90   1.372   2.871   1.371  1.1311 -1.6914  0.8508
   31SOL     OW   91   1.772   2.965   1.624 -0.0110 -0.0527  0.0878
   31SOL    HW1   92   1.812   2.941   1.720  1.2781  0.6680  0.1177
   31SOL    HW2   93   1.844   2.948   1.551 -0.7353  1.1042 -2.1853
   32SOL     OW   94   1.406   1.866   2.959  0.3066  0.0946 -0.0858
   32SOL    HW1   95   1.504   1.857   2.945 -1.6589  1.7583 -1.9444
   32SOL    HW2   96   1.360   1.941   2.907  1.1822 -1.7643  0.1877
   33SOL     OW   97   2.791   0.718   2.392 -0.2882  0.4218  0.2799
   33SOL    HW1   98   2.763   0.772   2.312  0.6656  0.6577  3.8755
   33SOL    HW2   99   2.748   0.758   2.481 -2.7533  0.2152  5.5436
   34SOL     OW  100   2.107   0.464   0.445 -0.7273  0.0611 -0.3693
   34SOL    HW1  101   2.058   0.422   0.522 -0.5129  0.4645 -1.8796
   34SOL    HW2  102   2.080   0.420   0.356 -1.3513  1.0712 -3.1248
   35SOL     OW  103   2.788   2.030   2.209 -0.0401  0.6822  0.0869
   35SOL    HW1  104   2.777   2.000   2.305 -0.6246 -0.5191 -3.3204
   35SOL    HW2  105   2.831   2.120   2.211 -1.6305 -1.1606  3.0342
   36SOL     OW  106   2.270   2.002   3.050 -0.6110  0.2600 -0.1733
   36SOL    HW1  107   2.252   1.949   2.963 -0.5630 -1.2093  0.8449
   36SOL    HW2  108   2.371   2.014   3.063  0.0419 -0.1612 -2.1413
   37SOL     OW  109   1.849   0.230   1.435 -0.1580  0.9792  0.1648
   37SOL    HW1  110   1.901   0.318   1.422  0.5613  0.0037  0.6037
   37SOL    HW2  111   1.895   0.165   1.499  2.9605  0.2576 -0.0485
   38SOL     OW  112   0.274   0.278   2.696 -0.3792  0.4485  0.2635
   38SOL    HW1  113   0.357   0.269   2.634  0.1754 -0.6500 -0.5724
   38SOL    HW2  114   0.282   0.212   2.773  0.1981 -2.7772  0.4625
   39SOL     OW  115   1.887   1.269   1.932  0.3080 -0.4999  0.1377
   39SOL    HW1  116   1.953   1.346   1.902  3.3722  2.3163  0.7559
   39SOL    HW2  117   1.931   1.186   1.973 -0.8602 -0.3215 -1.9865
   40SOL     OW  118   1.266   1.719   0.900  0.9319  0.2398  0.4001
   40SOL    HW1  119   1.249   1.623   0.928 -2.9151  0.6791  1.9538
   40SOL    HW2  120   1.365   1.735   0.919 -1.4725 -1.0050  0.5457
   41SOL     OW  121   1.804   1.574   0.853 -0.0031  0.2656  0.0817
   41SOL    HW1  122   1.822   1.511   0.933 -1.2962  0.8634 -3.1424
   41SOL    HW2  123   1.877   1.565   0.783 -0.0363 -0.3355 -1.2398
   42SOL     OW  124   0.026   0.725   1.181 -0.0207 -0.1094  0.6337
   42SOL    HW1  125   0.099   0.681   1.133 -1.0453 -0.8434  5.0609
   42SOL    HW2  126   0.033   0.711   1.284 -3.7444  0.3594 -0.5976
   43SOL     OW  127   0.373   1.845   2.874 -0.8072 -0.0333 -0.2869
   43SOL    HW1  128   0.406   1.937   2.918 -0.5849  3.2628  0.9101
   43SOL    HW2  129   0.440   1.767   2.901  0.8007 -1.9895 -2.5096
   44SOL     OW  130   1.632   2.623   1.236 -0.2072  0.4037  0.4472
   44SOL    HW1  131   1.628   2.722   1.227  0.3540  0.9853 -1.1756
   44SOL    HW2  132   1.717   2.590   1.189  1.7977  0.7224 -2.1007
   45SOL     OW  133   1.080   3.074   2.701  0.3256  0.1168  0.7249
   45SOL    HW1  134   1.171   3.104   2.679 -1.4706 -0.9718  1.2938
   45SOL    HW2  135   1.018   0.011   2.637 -2.6000  2.1846 -0.3408
   46SOL     OW  136   0.677   2.375   2.231 -0.3045 -0.1819 -0.0971
   46SOL    HW1  137   0.733   2.353   2.146 -0.2875 -2.4581 -1.7626
   46SOL    HW2  138   0.642   2.469   2.227 -1.7921 -2.1073 -3.7581
   47SOL     OW  139   1.021   2.105   0.944  0.4998  0.1640  0.0751
   47SOL    HW1  140   0.961   2.090   1.027  0.9639 -2.8746  1.9034
   47SOL    HW2  141   0.995   2.041   0.865 -0.6171 -0.4920  0.9198
   48SOL     OW  142   0.882   2.117   1.164 -0.3312  0.0752  0.2534
   48SOL    HW1  143   0.843   2.208   1.157 -0.3177  1.9762 -0.6027
   48SOL    HW2  144   0.837   2.057   1.234 -0.3132 -1.5989 -0.7925
   49SOL     OW  145   2.509   0.138   0.196 -0.2416 -0.0689 -0.0227
   49SOL    HW1  146   2.480   0.205   0.268  4.5368 -3.2487 -0.8741
   49SOL    HW2  147   2.608   0.118   0.211 -0.9735 -1.9287 -2.3832
   50SOL     OW  148   1.779   0.366   0.211  0.1951  0.3304  0.2906
   50SOL    HW1  149   1.876   0.338   0.236  1.7345 -1.4597 -1.8313
   50SOL    HW2  150   1.742   0.439   0.273 -2.3299 -0.8045  1.5154
   51SOL     OW  151   1.928   0.816   1.165 -0.3846 -0.3076  0.5808
   51SOL    HW1  152   2.014   0.764   1.161  0.0586  0.8541 -0.4616
   51SOL    HW2  153   1.927   0.880   1.241 -1.2016 -0.9020 -1.4002
   52SOL     OW  154   0.636   1.791   0.333 -0.1133 -0.5076 -0.1186
   52SOL    HW1  155   0.726   1.781   0.284  0.1934  0.3482  2.2115
   52SOL    HW2  156   0.601   1.698   0.340 -0.1498  2.1856 -2.4854
   53SOL     OW  157   0.258   1.506   3.023  0.7571 -0.1977  0.3315
   53SOL    HW1  158   0.243   1.471   0.005 -0.6510 -0.6688 -2.8039
   53SOL    HW2  159   0.333   1.564   3.017 -1.3278 -1.8585 -0.2799
   54SOL     OW  160   2.327   1.425   2.117 -0.2129 -0.0708 -0.0126
   54SOL    HW1  161   2.369   1.512   2.152  2.2292 -0.0146  0.0939
   54SOL    HW2  162   2.398   1.363   2.072  3.4266 -0.8878 -0.4250
   55SOL     OW  163   2.566   1.865   0.698  0.1318 -0.1065  0.4133
   55SOL    HW1  164   2.501   1.919   0.646  2.1540 -0.7946  1.2515
   55SOL    HW2  165   2.532   1.838   0.790  0.8081  1.1631  0.9283
   56SOL     OW  166   1.936   0.121   1.204  0.0497  0.3486 -0.1121
   56SOL    HW1  167   1.903   0.197   1.141  0.4654  2.2542  0.2456
   56SOL    HW2  168   1.897   0.139   1.298 -1.8533  0.8897  0.0760
   57SOL     OW  169   1.320   1.273   0.060 -0.2476 -0.2731  0.1600
   57SOL    HW1  170   1.360   1.269   3.076 -0.6029 -1.6514 -1.3033
   57SOL    HW2  171   1.270   1.186   0.074 -0.1745 -0.1344  0.4632
   58SOL     OW  172   2.347   0.255   1.573  0.2587 -0.8905  0.0521
   58SOL    HW1  173   2.277   0.255   1.651  0.5183 -0.1858 -0.0108
   58SOL    HW2  174   2.304   0.208   1.494  0.9431 -0.7068 -0.1005
   59SOL     OW  175   1.367   2.702   2.723  0.2317  0.1252 -0.0010
   59SOL    HW1  176   1.431   2.758   2.673  1.5643 -1.7901  2.5648
   59SOL    HW2  177   1.370   2.605   2.687 -0.3802 -2.2204 -1.2093
   60SOL     OW  178   0.036   2.452   2.767  0.5977 -0.5383 -0.4296
   60SOL    HW1  179   0.017   2.440   2.866 -1.3412 -1.3151 -0.9795
   60SOL    HW2  180   3.061   2.485   2.717  0.2105 -0.3591 -0.7017
   61SOL     OW  181   0.735   2.373   1.062 -0.8478  0.2750 -0.3960
   61SOL    HW1  182   0.808   2.432   1.024  0.2138 -3.1350  1.7978
   61SOL    HW2  183   0.656   2.395   1.003 -0.4804  1.5754  0.8147
   62SOL     OW  184   1.674   2.021   2.248  0.4026  0.2792 -0.3664
   62SOL    HW1  185   1.651   1.955   2.172  1.7773  1.1148 -0.8573
   62SOL    HW2  186   1.705   1.973   2.336 -1.8297 -1.4874 -1.6312
   63SOL     OW  187   1.705   1.736   0.098 -0.3747  0.3633 -0.2516
   63SOL    HW1  188   1.623   1.710   0.156  0.9548 -1.1764  1.4064
   63SOL    HW2  189   1.745   1.663   0.045 -1.6891 -0.7551 -0.4350
   64SOL     OW  190   1.874   1.131   0.055  0.1542 -0.0221  0.4856
   64SOL    HW1  191   1.821   1.198   3.107 -1.4173  0.4101  0.8589
   64SOL    HW2  192   1.814   1.084   0.125 -0.8545  0.1279  3.2548
   65SOL     OW  193   2.215   2.134   1.988  0.4816 -0.0143  0.1420
   65SOL    HW1  194   2.192   2.234   1.995 -1.3842 -0.5573  1.0110
   65SOL    HW2  195   2.132   2.072   1.979  0.5253  1.5754 -2.7455
   66SOL     OW  196   0.549   0.801   1.462 -0.3591  0.6740  0.0018
   66SOL    HW1  197   0.526   0.764   1.368  1.0287  1.6313 -3.6762
   66SOL    HW2  198   0.527   0.900   1.468 -0.5226 -1.8293  1.8816
   67SOL     OW  199   2.355   2.850   0.184  0.0081 -0.5553  0.5632
   67SOL    HW1  200   2.326   2.854   0.283  0.7323  1.0634 -1.1002
   67SOL    HW2  201   2.404   2.936   0.165  1.0463  0.6433  1.2543
   68SOL     OW  202   1.746   2.011   1.027 -0.4754 -0.5010  0.4614
   68SOL    HW1  203   1.789   1.938   0.981 -1.7924  3.5643  0.2546
   68SOL    HW2  204   1.657   2.033   0.979 -0.4947  2.4340  0.3942
   69SOL     OW  205   2.894   2.209   3.034 -0.7207  0.0049 -0.1425
   69SOL    HW1  206   2.838   2.210   0.007  0.7946  1.5327  2.0987
   69SOL    HW2  207   2.984   2.260   3.043  0.9565 -0.9118  0.5831
   70SOL     OW  208   2.948   1.030   2.117 -0.1532  0.0228 -0.1946
   70SOL    HW1  209   2.930   1.081   2.204  0.3665  0.0812  1.1631
   70SOL    HW2  210   3.047   1.030   2.087  2.1304  0.6918 -1.6471
   71SOL     OW  211   0.885   1.152   2.644 -0.3366 -0.4211 -0.0374
   71SOL    HW1  212   0.860   1.182   2.550  0.2874 -0.3902 -2.5535
   71SOL    HW2  213   0.871   1.052   2.656 -0.1222 -0.8259  0.6313
   72SOL     OW  214   2.694   1.537   2.295  0.3943 -0.1188  0.3628
   72SOL    HW1  215   2.612   1.599   2.268 -1.5229  1.2106 -3.0345
   72SOL    HW2  216   2.714   1.472   2.216 -2.2427  1.8912 -0.9558
   73SOL     OW  217   1.087   2.007   0.116  1.1386 -0.4452  0.3255
   73SOL    HW1  218   1.122   2.100   0.122  0.4796  2.1045 -1.0464
   73SOL    HW2  219   1.016   1.991   0.191 -0.8063 -0.0951 -0.1470
   74SOL     OW  220   1.874   2.828   2.451  0.1000  0.3124 -0.2568
   74SOL    HW1  221   1.905   2.735   2.484  1.4440 -0.7654  0.1400
   74SOL    HW2  222   1.864   2.892   2.530 -1.7728 -2.4622 -2.6437
   75SOL     OW  223   1.384   2.256   0.601 -0.0044  0.0649 -0.2398
   75SOL    HW1  224   1.337   2.284   0.684  2.8612 -0.1647 -0.0351
   75SOL    HW2  225   1.446   2.175   0.622 -1.6787 -0.8879  0.6458
   76SOL     OW  226   2.697   1.811   2.675  0.0456  0.2968  0.2384
   76SOL    HW1  227   2.632   1.768   2.743  0.2005  0.9206 -0.4548
   76SOL    HW2  228   2.742   1.738   2.623 -0.7814  1.6621 -1.4175
   77SOL     OW  229   3.037   2.457   1.827  0.2229  0.5501  0.3548
   77SOL    HW1  230   2.977   2.536   1.830 -1.1783 -1.2133  0.9864
   77SOL    HW2  231   2.983   2.377   1.867  1.1989  0.2051  0.5016
   78SOL     OW  232   2.328   1.029   0.204 -0.2205  0.3032 -0.8231
   78SOL    HW1  233   2.289   0.960   0.266  2.7922 -1.2915  0.9591
   78SOL    HW2  234   2.257   1.098   0.182 -1.8449 -1.5987  1.3868
   79SOL     OW  235   0.137   1.516   2.611  0.6147 -0.1780 -0.4903
   79SOL    HW1  236   0.147   1.611   2.651  0.8147  3.9136 -0.4480
   79SOL    HW2  237   0.220   1.462   2.634  0.7033  1.1472 -0.1365
   80SOL     OW  238   1.789   1.620   1.860 -0.0722  0.0320  0.5749
   80SOL    HW1  239   1.763   1.629   1.958  0.0021 -1.3564  0.9928
   80SOL    HW2  240   1.889   1.615   1.855 -1.9590  0.5269  3.6617
   81SOL     OW  241   1.840   1.348   2.172 -0.0625 -0.1251 -0.0969
   81SOL    HW1  242   1.872   1.313   2.081 -0.2382  1.8830  0.4415
   81SOL    HW2  243   1.866   1.286   2.249  1.1031 -0.0283 -0.5155
   82SOL     OW  244   1.344   1.717   2.006 -0.0248 -0.2085  0.0749
   82SOL    HW1  245   1.266   1.753   1.949 -1.6261 -0.0846 -0.7368
   82SOL    HW2  246   1.379   1.622   1.973 -0.0252 -3.4331  0.0427
   83SOL     OW  247   0.068   0.232   0.158 -0.6888 -0.5154  0.2200
   83SOL    HW1  248   0.102   0.147   0.202  1.3519 -2.9419  2.7981
   83SOL    HW2  249   3.091   0.258   0.200  0.8337 -0.9779 -1.8413
   84SOL     OW  250   0.216   0.442   0.254 -0.1902 -0.1374  0.1214
   84SOL    HW1  251   0.177   0.360   0.207 -1.1122  3.1623  1.6848
   84SOL    HW2  252   0.222   0.515   0.184  0.4352 -2.0896 -0.8410
   85SOL     OW  253   2.034   2.062   1.381  0.0442  0.0594 -0.3632
   85SOL    HW1  254   1.939   2.060   1.343 -1.2936 -0.8401 -1.1251
   85SOL    HW2  255   2.029   2.123   1.464  0.1396  1.2291  1.2151
   86SOL     OW  256   0.519   0.398   1.399 -0.0800 -0.2078 -0.2106
   86SOL    HW1  257   0.506   0.376   1.301 -1.3035 -0.1118  2.4885
   86SOL    HW2  258   0.602   0.349   1.434  0.1402  0.8751  0.3543
   87SOL     OW  259   0.044   2.060   2.170 -0.3555  0.3249  0.6052
   87SOL    HW1  260   0.000   2.052   2.077 -0.8076  1.1024  2.4253
   87SOL    HW2  261   0.109   2.141   2.181 -0.1635  2.0437  0.0453
   88SOL     OW  262   0.154   2.137   2.914  0.7100 -0.2593 -0.1375
   88SOL    HW1  263   0.226   2.169   2.849 -0.9394 -0.7238 -0.3989
   88SOL    HW2  264   0.065   2.116   2.870  2.3577 -0.5191 -2.1743
   89SOL     OW  265   1.120   0.891   0.384  0.0117  0.6792 -0.3974
   89SOL    HW1  266   1.046   0.819   0.405 -1.6175 -1.4699 -0.1485
   89SOL    HW2  267   1.085   0.956   0.316 -2.0706  1.5794  2.2819
   90SOL     OW  268   3.103   1.401   2.410  0.1033  0.0604  0.1369
   90SOL    HW1  269   3.062   1.465   2.347  2.9027  0.5396 -1.2386
   90SOL    HW2  270   0.044   1.447   2.485  0.0408 -0.0385  0.0881
   91SOL     OW  271   1.823   0.551   1.082 -0.1437  0.0487  0.2016
   91SOL    HW1  272   1.804   0.646   1.111  2.1286  1.4953 -0.2908
   91SOL    HW2  273   1.876   0.507   1.158  0.9070 -2.2275  0.9528
   92SOL     OW  274   2.395   1.102   1.345  0.1461 -0.1256 -0.4538
   92SOL    HW1  275   2.307   1.157   1.328 -0.4758  0.2493 -0.7533
   92SOL    HW2  276   2.420   1.042   1.269  3.3141 -1.8201 -1.0156
   93SOL     OW  277   0.353   1.257   2.914  0.0862 -0.5950  0.2360
   93SOL    HW1  278   0.332   1.343   2.966 -0.3666 -0.8826  0.6275
   93SOL    HW2  279   0.349   1.276   2.816  0.6798  0.2424  0.8052
   94SOL     OW  280   1.565   2.529   2.175  0.2188  0.2630  0.7643
   94SOL    HW1  281   1.586   2.426   2.186  0.7832 -0.0538  0.5783
   94SOL    HW2  282   1.610   2.563   2.092 -1.0630 -1.4422 -2.0774
   95SOL     OW  283   0.567   0.407   1.126 -0.5902  0.2455 -0.3885
   95SOL    HW1  284   0.632   0.483   1.098  1.1631  4.5227  0.9545
   95SOL    HW2  285   0.505   0.373   1.058  0.1668  1.5748  4.8610
   96SOL     OW  286   2.682   2.942   1.324  0.7429  0.0201  0.8224
   96SOL    HW1  287   2.690   2.845   1.352  2.8905  0.7096  2.3080
   96SOL    HW2  288   2.748   3.002   1.372 -0.5687  2.2785 -2.3388
   97SOL     OW  289   2.458   0.798   1.552  0.2025 -0.2960  0.6405
   97SOL    HW1  290   2.471   0.901   1.572  0.3907  1.6762  1.0345
   97SOL    HW2  291   2.417   0.755   1.634  1.5898 -0.4038 -0.0326
   98SOL     OW  292   2.319   2.545   1.550 -0.0437 -0.0395 -0.6157
   98SOL    HW1  293   2.256   2.624   1.549 -0.5826  2.4768  0.4447
   98SOL    HW2  294   2.412   2.582   1.557 -0.6024  0.0548  1.3983
   99SOL     OW  295   0.619   2.922   1.386  0.1406  0.3821  0.3582
   99SOL    HW1  296   0.599   3.011   1.429  2.0211 -0.5971  0.2266
   99SOL    HW2  297   0.600   2.925   1.288 -0.4915  1.5343  0.5881
  100SOL     OW  298   2.170   0.209   2.299  0.4659 -0.2516 -0.5745
  100SOL    HW1  299   2.172   0.312   2.296  0.6818 -0.7665  0.2909
  100SOL    HW2  300   2.170   0.169   2.394 -0.8660 -1.3390  1.8312
  101SOL     OW  301   2.848   0.201   2.320  0.6019 -0.4356 -0.4963
  101SOL    HW1  302   2.937   0.157   2.293 -0.0594  1.6946  1.4942
  101SOL    HW2  303   2.852   0.299   2.291  0.2963  1.9778  1.6569
  102SOL     OW  304   0.514   0.558   1.615  0.1591  0.1947  0.1938
  102SOL    HW1  305   0.495   0.497   1.535  1.6960 -2.1345  1.0118
  102SOL    HW2  306   0.545   0.649   1.583  0.7875  0.5008 -0.4938
  103SOL     OW  307   0.888   0.751   2.909 -0.4559 -0.5563 -0.3665
  103SOL    HW1  308   0.955   0.676   2.920 -0.5755  3.2265 -0.6990
  103SOL    HW2  309   0.886   0.822   2.982 -0.6214 -2.6460  2.0149
  104SOL     OW  310   0.193   0.632   2.126 -0.1208  0.4800  0.1665
  104SOL    HW1  311   0.132   0.611   2.207 -0.2684  1.1375  1.7191
  104SOL    HW2  312   0.142   0.658   2.042 -0.1979 -4.1446 -3.2177
  105SOL     OW  313   2.584   1.981   1.398 -0.3312  0.2518 -0.5669
  105SOL    HW1  314   2.588   2.066   1.456 -0.8697 -1.7424  1.1018
  105SOL    HW2  315   2.533   2.001   1.312  1.2314 -3.6574  0.1085
  106SOL     OW  316   1.815   0.142   0.400  0.0928  0.0651  0.7419
  106SOL    HW1  317   1.782   0.201   0.476 -1.4040 -1.2762  2.6676
  106SOL    HW2  318   1.773   0.175   0.311 -2.1430  1.2170 -2.0981
  107SOL     OW  319   1.992   2.098   0.966  0.3303 -0.5941  0.1030
  107SOL    HW1  320   1.901   2.094   1.011  2.4789 -1.6000 -1.0144
  107SOL    HW2  321   1.985   2.056   0.873 -0.7986  1.5340 -1.5764
  108SOL     OW  322   0.177   2.386   1.323 -0.0356 -0.1537 -0.2155
  108SOL    HW1  323   0.087   2.432   1.291  0.6596  1.1754  1.5017
  108SOL    HW2  324   0.245   2.375   1.245  1.8666 -0.5952  1.5242
  109SOL     OW  325   1.836   2.367   0.739  0.1107 -0.3511 -0.5458
  109SOL    HW1  326   1.793   2.435   0.680  0.4450 -1.9298  0.5249
  109SOL    HW2  327   1.774   2.351   0.815  1.0143  0.0527  1.3818
  110SOL     OW  328   1.123   1.796   1.841  0.3943 -0.2285  0.4451
  110SOL    HW1  329   1.108   1.707   1.795 -0.9204 -0.8885  0.4524
  110SOL    HW2  330   1.061   1.867   1.801 -0.8974 -1.1219 -2.1810
  111SOL     OW  331   1.846   2.374   1.689  0.2242 -0.1538  0.0103
  111SOL    HW1  332   1.779   2.411   1.623  1.7613 -0.9056 -1.1058
  111SOL    HW2  333   1.912   2.452   1.713  4.0918  1.7855  0.9980
  112SOL     OW  334   1.756   2.131   2.908 -0.5574  0.3052 -0.2414
  112SOL    HW1  335   1.668   2.187   2.923  0.9200  0.9685 -0.8560
  112SOL    HW2  336   1.832   2.154   2.972  2.4734 -2.3628  0.1326
  113SOL     OW  337   1.937   1.937   1.664 -0.0533  0.2698 -0.0456
  113SOL    HW1  338   1.986   1.871   1.600  0.9250 -0.5031  0.6733
  113SOL    HW2  339   1.836   1.933   1.640 -0.7567  1.3557  0.5913
  114SOL     OW  340   0.070   1.360   1.618 -0.6242 -0.0080  0.1050
  114SOL    HW1  341   0.009   1.343   1.538  0.3224 -0.8525 -2.8909
  114SOL    HW2  342   0.139   1.284   1.624 -0.8686 -0.2115  0.2473
  115SOL     OW  343   0.291   0.839   0.417  0.0266  0.0931  0.7635
  115SOL    HW1  344   0.357   0.811   0.490  0.6081  2.8392  1.0732
  115SOL    HW2  345   0.196   0.826   0.448  2.4072  0.6192 -0.1378
  116SOL     OW  346   2.519   1.362   2.762  0.0420  0.4890  0.2715
  116SOL    HW1  347   2.501   1.384   2.662 -0.6809  0.5283 -1.5890
  116SOL    HW2  348   2.609   1.316   2.769 -0.3166 -0.6936  0.6892
  117SOL     OW  349   2.897   2.448   0.300 -0.2364  0.5348  0.0893
  117SOL    HW1  350   2.880   2.551   0.303  1.3499  0.1717 -0.0254
  117SOL    HW2  351   2.910   2.414   0.392  1.3032 -1.2085 -2.3601
  118SOL     OW  352   0.584   1.998   2.727  0.2034 -0.6220  0.2374
  118SOL    HW1  353   0.521   1.989   2.643  0.1409 -1.4709 -1.6859
  118SOL    HW2  354   0.536   1.991   2.814 -0.7262 -0.3974 -2.3019
  119SOL     OW  355   0.682   2.203   0.643  0.3499 -0.4129 -0.4098
  119SOL    HW1  356   0.673   2.129   0.717 -0.4607  1.0859 -0.3853
  119SOL    HW2  357   0.662   2.173   0.549 -0.2438 -0.4191 -0.5573
  120SOL     OW  358   1.420   0.415   0.358 -0.1626  0.0446  0.4261
  120SOL    HW1  359   1.443   0.463   0.277 -0.4830 -0.2295  0.6288
  120SOL    HW2  360   1.355   0.345   0.335  0.3783  2.5084 -0.5596
  121SOL     OW  361   1.286   2.312   0.840  0.6191  0.1268  0.1042
  121SOL    HW1  362   1.336   2.393   0.879  1.0213 -0.1439  0.7613
  121SOL    HW2  363   1.276   2.236   0.909  3.4675 -1.7639 -1.0855
  122SOL     OW  364   2.876   2.182   1.970 -0.1489 -0.7485  0.5341
  122SOL    HW1  365   2.894   2.242   2.053 -0.1114  1.0543 -0.9844
  122SOL    HW2  366   2.912   2.089   1.987  0.0184  0.7595  1.7049
  123SOL     OW  367   0.775   1.587   0.758  0.3429 -0.5773 -0.1158
  123SOL    HW1  368   0.779   1.600   0.860 -1.1283  1.5618  2.9090
  123SOL    HW2  369   0.743   1.675   0.712  0.6085  0.8864 -2.9371
  124SOL     OW  370   0.038   0.512   3.001 -0.0340  0.3393 -0.5738
  124SOL    HW1  371   3.057   0.471   3.025 -0.1893  0.3555  0.9496
  124SOL    HW2  372   0.060   0.518   2.901  1.4557  0.6496  1.7582
  125SOL     OW  373   0.484   0.204   0.050 -0.2737  0.0156  0.4326
  125SOL    HW1  374   0.392   0.234   0.010 -1.5177  0.2283 -0.5226
  125SOL    HW2  375   0.543   0.287   0.067  0.2614  1.7909  0.1781
  126SOL     OW  376   0.046   1.643   0.378  0.4168 -0.3304  0.3843
  126SOL    HW1  377   3.094   1.591   0.319 -0.8758 -0.5822  0.7937
  126SOL    HW2  378   3.106   1.698   0.450  2.4154  0.3146  1.5331
  127SOL     OW  379   1.085   2.495   1.599  0.3360 -0.1894  0.6048
  127SOL    HW1  380   0.987   2.505   1.577  2.1556 -3.6689 -0.7817
  127SOL    HW2  381   1.104   2.399   1.625 -2.4012 -1.1531  0.6589
  128SOL     OW  382   1.195   1.532   0.126 -0.3204  0.4833 -0.4409
  128SOL    HW1  383   1.219   1.627   0.095  1.0166  1.0871  0.2166
  128SOL    HW2  384   1.236   1.450   0.078  1.0171  0.0352 -0.0121
  129SOL     OW  385   1.797   2.122   1.261  0.2708  0.3123 -0.2709
  129SOL    HW1  386   1.769   2.076   1.170  0.1636 -0.2117 -0.2101
  129SOL    HW2  387   1.731   2.196   1.282  0.5916 -0.6695  0.4097
  130SOL     OW  388   2.023   2.185   1.617 -0.2187  0.1103 -0.2970
  130SOL    HW1  389   1.980   2.097   1.654  1.1283  0.8698  1.6493
  130SOL    HW2  390   1.968   2.266   1.637  0.5412 -2.3002  0.8323
  131SOL     OW  391   2.548   2.603   2.454  0.2776  0.5800 -0.3115
  131SOL    HW1  392   2.498   2.675   2.507 -1.2994  2.5151  2.3193
  131SOL    HW2  393   2.572   2.525   2.514 -2.0833  1.9608  1.5530
  132SOL     OW  394   2.935   2.050   0.648 -0.3411  0.0250 -0.1359
  132SOL    HW1  395   3.012   2.111   0.681  2.2330 -0.3308 -1.9715
  132SOL    HW2  396   2.854   2.042   0.711 -2.3530 -1.2917  2.5466
  133SOL     OW  397   0.624   0.232   1.941 -0.2184 -0.2533  0.1702
  133SOL    HW1  398   0.687   0.241   2.023  2.2157  0.7577 -1.0738
  133SOL    HW2  399   0.599   0.328   1.904  0.1916  0.0207  0.9609
  134SOL     OW  400   2.670   1.740   0.290  0.7047 -0.3445  0.0249
  134SOL    HW1  401   2.735   1.774   0.216  1.2318 -1.6014  0.8411
  134SOL    HW2  402   2.582   1.793   0.278 -1.0815  0.7587  0.2019
  135SOL     OW  403   1.626   1.418   2.486  0.6578  0.2610  0.2942
  135SOL    HW1  404   1.712   1.388   2.532 -2.4945 -0.4517 -4.0124
  135SOL    HW2  405   1.585   1.339   2.434 -1.1961 -1.1969 -0.7588
  136SOL     OW  406   2.647   1.718   1.118  0.0007  0.0187 -0.1207
  136SOL    HW1  407   2.707   1.800   1.128 -0.0637 -0.8367  1.2451
  136SOL    HW2  408   2.688   1.638   1.066  0.9831  0.1441  1.2262
  137SOL     OW  409   2.743   1.534   0.964  0.8112  0.2068  0.2272
  137SOL    HW1  410   2.730   1.530   0.862 -2.0107 -0.3793  0.8914
  137SOL    HW2  411   2.832   1.501   0.992 -2.1186 -0.6068  1.5479
  138SOL     OW  412   3.049   0.405   0.812 -0.5551 -0.4554 -0.3186
  138SOL    HW1  413   3.080   0.320   0.857 -2.5321 -2.3401 -0.5446
  138SOL    HW2  414   2.948   0.413   0.818  1.0709  2.6057 -2.8179
  139SOL     OW  415   3.081   2.754   0.175 -0.1061  0.1460  0.2256
  139SOL    HW1  416   3.010   2.684   0.147 -1.7890  0.8942  2.4576
  139SOL    HW2  417   3.086   2.759   0.277  0.2325 -2.0127 -0.1419
  140SOL     OW  418   0.802   1.791   1.679  0.0405  0.4837 -0.1444
  140SOL    HW1  419   0.785   1.786   1.782  0.7573  0.7628  2.0904
  140SOL    HW2  420   0.871   1.862   1.672 -4.7978 -1.3665  0.2568
  141SOL     OW  421   1.543   1.660   0.882  0.1377 -0.2623 -0.3514
  141SOL    HW1  422   1.643   1.656   0.899  1.9375 -1.9363  0.4919
  141SOL    HW2  423   1.520   1.638   0.783  1.1853 -1.5338 -0.3194
  142SOL     OW  424   1.068   0.651   0.896  0.3320  0.0826  0.0297
  142SOL    HW1  425   1.049   0.553   0.891  0.6828  1.0136  0.2468
  142SOL    HW2  426   0.976   0.701   0.881 -0.1304  1.4065  0.2328
  143SOL     OW  427   0.798   1.366   2.816 -0.2595  0.4300  0.2138
  143SOL    HW1  428   0.875   1.413   2.862  0.4466 -2.0196  1.5011
  143SOL    HW2  429   0.834   1.282   2.764  0.4302 -1.2416 -0.9543
  144SOL     OW  430   2.247   3.044   0.918 -0.7457 -0.6560  0.0881
  144SOL    HW1  431   2.170   2.988   0.881  1.2618  0.9475  0.4630
  144SOL    HW2  432   2.263   3.024   1.021 -0.1384  0.7720  1.0357
  145SOL     OW  433   2.393   0.612   2.720 -0.3201  0.0298  0.2893
  145SOL    HW1  434   2.368   0.660   2.808  1.5856  1.6217 -2.7635
  145SOL    HW2  435   2.471   0.547   2.745  1.3502 -1.9612 -0.6670
  146SOL     OW  436   2.907   2.741   0.608 -0.1576  0.0637 -1.0059
  146SOL    HW1  437   2.876   2.646   0.607 -0.2449  1.1707  1.5312
  146SOL    HW2  438   2.975   2.759   0.686  0.2047  1.2928  1.3377
  147SOL     OW  439   1.159   1.134   2.598 -0.5294  0.0104  0.3560
  147SOL    HW1  440   1.066   1.143   2.645 -3.0114  0.7695  1.9123
  147SOL    HW2  441   1.203   1.042   2.614  1.2534  0.6809 -1.5042
  148SOL     OW  442   1.322   0.425   2.547 -0.1563  0.1500 -0.6644
  148SOL    HW1  443   1.224   0.409   2.528  1.9501  2.3485  0.0291
  148SOL    HW2  444   1.389   0.383   2.477  1.2881 -2.5374 -2.3120
  149SOL     OW  445   2.011   0.057   2.161 -0.1751  0.3278  0.1940
  149SOL    HW1  446   2.071   3.109   2.105 -0.9508  2.3099  0.9557
  149SOL    HW2  447   2.074   0.129   2.193  0.5863  3.5869  0.1199
  150SOL     OW  448   2.399   2.595   0.004 -0.6064  0.6706 -0.3407
  150SOL    HW1  449   2.327   2.662   3.085  1.1057  0.4564 -0.0913
  150SOL    HW2  450   2.491   2.634   3.090 -2.1209  0.4735  0.0015
  151SOL     OW  451   0.545   1.658   2.964  0.5161  0.2002  0.4406
  151SOL    HW1  452   0.596   1.632   3.048 -3.1642  2.2215 -0.1630
  151SOL    HW2  453   0.600   1.619   2.891 -2.0028 -1.7319  1.2079
  152SOL     OW  454   0.226   0.073   1.598 -0.1395  0.4039 -0.9198
  152SOL    HW1  455   0.326   0.081   1.622 -0.9940  1.0952  1.5234
  152SOL    HW2  456   0.167   0.056   1.675  1.0998  1.2740  2.7533
  153SOL     OW  457   2.417   2.915   1.512 -0.2200 -0.2011  0.2931
  153SOL    HW1  458   2.462   2.822   1.507 -0.8192  1.6199  2.7818
  153SOL    HW2  459   2.419   2.948   1.415 -1.2633  0.5273 -2.3229
  154SOL     OW  460   2.476   0.310   2.544 -0.0553  0.3144  0.4679
  154SOL    HW1  461   2.439   0.300   2.641 -0.3842 -2.1324  2.4104
  154SOL    HW2  462   2.549   0.235   2.528  2.8301 -2.7908  0.7679
  155SOL     OW  463   0.011   1.454   0.596 -0.1337  0.6061 -0.0761
  155SOL    HW1  464   0.075   1.381   0.563  3.0463  1.5502 -0.7382
  155SOL    HW2  465   0.024   1.536   0.536 -1.2457 -1.2144  0.0466
  156SOL     OW  466   3.035   1.494   0.175 -0.5823  0.0606 -0.2533
  156SOL    HW1  467   3.067   1.535   0.087  0.1879  1.8159  0.7836
  156SOL    HW2  468   2.934   1.493   0.179  2.4193 -0.0104 -0.1387
  157SOL     OW  469   0.559   0.066   0.617 -0.3423  0.1072  0.1911
  157SOL    HW1  470   0.502   0.022   0.686  0.8271  1.1471  0.0937
  157SOL    HW2  471   0.628   0.004   0.580  0.3857  0.5148 -2.9023
  158SOL     OW  472   1.882   1.014   1.370 -0.1907 -0.3306 -0.7135
  158SOL    HW1  473   1.958   0.991   1.434 -0.4927 -2.0251  1.6785
  158SOL    HW2  474   1.799   1.057   1.418 -3.8775  1.2419  4.3044
  159SOL     OW  475   0.274   0.227   0.405  0.2518  0.0415 -0.0574
  159SOL    HW1  476   0.263   0.324   0.377  1.4305 -1.2961  2.2751
  159SOL    HW2  477   0.366   0.189   0.379 -1.5900 -1.3511 -0.7210
  160SOL     OW  478   2.326   2.265   1.558 -0.4640 -0.7618 -0.0625
  160SOL    HW1  479   2.264   2.217   1.622 -5.0019 -2.1398 -0.5950
  160SOL    HW2  480   2.300   2.367   1.558  1.4528  2.3966  2.1038
  161SOL     OW  481   2.987   0.916   2.753 -0.0759  0.0623 -0.0169
  161SOL    HW1  482   3.038   0.852   2.815 -1.8155 -0.4212  1.6567
  161SOL    HW2  483   3.041   1.005   2.745  1.9667  2.5167  1.6372
  162SOL     OW  484   0.796   0.028   1.781 -0.4868  0.1273  0.0116
  162SOL    HW1  485   0.806   0.126   1.807  1.4948 -1.8995  2.5143
  162SOL    HW2  486   0.696   0.009   1.757 -0.4502 -1.1253 -1.1192
  163SOL     OW  487   2.675   0.127   2.524 -0.0445  0.0262  0.5297
  163SOL    HW1  488   2.683   0.026   2.544 -0.0337  0.0965  0.5456
  163SOL    HW2  489   2.720   0.154   2.439  0.0864 -4.2466 -0.4462
  164SOL     OW  490   2.023   1.867   0.401  0.2015 -0.5615  0.1145
  164SOL    HW1  491   1.962   1.899   0.330  1.7763  0.6964  0.0886
  164SOL    HW2  492   2.094   1.810   0.365 -4.0732 -0.5559  2.0619
  165SOL     OW  493   0.245   0.359   1.556  0.0911  0.9044 -0.4547
  165SOL    HW1  494   0.339   0.358   1.518  0.8919  0.7089  0.5620
  165SOL    HW2  495   0.199   0.268   1.554 -0.1596  1.3647  1.4942
  166SOL     OW  496   1.906   0.907   0.523 -0.5537  0.0571  0.0116
  166SOL    HW1  497   1.859   0.975   0.463 -1.4665  1.2927  3.5074
  166SOL    HW2  498   1.849   0.891   0.605  1.0202  1.3182 -0.9684
  167SOL     OW  499   2.412   0.967   3.056 -0.7015 -0.4527 -0.2438
  167SOL    HW1  500   2.357   0.993   0.023  3.7153 -1.8652 -3.0646
  167SOL    HW2  501   2.384   0.882   3.013  1.4417  2.1620  1.3597
  168SOL     OW  502   1.990   0.350   2.861  0.3553  0.2581 -0.2122
  168SOL    HW1  503   2.001   0.379   2.955  1.0275  1.1911 -0.4073
  168SOL    HW2  504   1.965   0.442   2.814 -1.2189  3.9937 -0.7682
  169SOL     OW  505   0.391   1.621   0.957  0.1078  0.4162 -0.0841
  169SOL    HW1  506   0.360   1.686   0.889  0.8374 -0.0740  1.3382
  169SOL    HW2  507   0.370   1.647   1.053  0.2221 -1.2123  0.4897
  170SOL     OW  508   2.912   1.309   0.946  0.4654 -0.4594  0.0941
  170SOL    HW1  509   2.881   1.273   1.034 -2.3710  0.7710 -1.9929
  170SOL    HW2  510   2.913   1.236   0.876  0.0832  0.9483  0.4998
  171SOL     OW  511   2.463   1.741   1.949 -0.0822  0.6284  0.3288
  171SOL    HW1  512   2.392   1.699   1.889  0.2100  0.7453 -0.8309
  171SOL    HW2  513   2.471   1.839   1.926  1.9184  0.2983 -2.1396
  172SOL     OW  514   0.571   1.665   1.558 -0.6259 -0.1999 -0.7224
  172SOL    HW1  515   0.536   1.729   1.491  0.3626 -1.4913  0.5412
  172SOL    HW2  516   0.643   1.711   1.618  0.6841  1.1537  0.9412
  173SOL     OW  517   1.797   1.625   2.796  0.7023  0.6033 -0.2270
  173SOL    HW1  518   1.726   1.574   2.740 -1.1372  2.3254  2.0751
  173SOL    HW2  519   1.752   1.714   2.822  1.6071 -1.8237 -1.6556
  174SOL     OW  520   1.391   0.812   2.822 -0.4003 -0.1741  0.7787
  174SOL    HW1  521   1.443   0.748   2.881 -0.3813  1.6562 -1.0870
  174SOL    HW2  522   1.323   0.761   2.769  1.9675  0.0832  1.3886
  175SOL     OW  523   1.180   1.443   1.237  0.2702  0.1932  0.0353
  175SOL    HW1  524   1.194   1.487   1.332  1.1077  1.7656  0.4320
  175SOL    HW2  525   1.120   1.361   1.244 -1.2969  0.2798 -1.0386
  176SOL     OW  526   1.193   0.231   0.344 -0.5283 -0.3732  0.3554
  176SOL    HW1  527   1.101   0.203   0.375 -0.5795  0.5842  2.3943
  176SOL    HW2  528   1.216   0.185   0.258 -1.8809 -1.7459 -0.6726
  177SOL     OW  529   0.394   1.072   0.290 -0.5962 -0.3574  0.4718
  177SOL    HW1  530   0.353   0.993   0.342 -2.7047 -1.9374  0.6320
  177SOL    HW2  531   0.451   1.128   0.351  1.0643  0.1988 -1.6304
  178SOL     OW  532   2.745   2.027   2.483  0.4699 -0.3468 -0.1523
  178SOL    HW1  533   2.833   2.056   2.522 -0.2882 -0.2814  0.5933
  178SOL    HW2  534   2.716   1.942   2.528  1.1464  3.3774 -0.9170
  179SOL     OW  535   2.646   2.957   2.570  0.1441 -0.3266  0.0908
  179SOL    HW1  536   2.618   2.978   2.664 -1.3131  0.5239 -2.6211
  179SOL    HW2  537   2.734   2.903   2.560  0.2571 -0.7511  1.0418
  180SOL     OW  538   2.184   0.615   1.049  0.1359 -0.3607 -0.0440
  180SOL    HW1  539   2.177   0.517   1.072 -1.2450  2.0783 -0.3496
  180SOL    HW2  540   2.277   0.640   1.021 -2.0486 -0.3926 -1.1589
  181SOL     OW  541   2.381   0.852   2.580  0.2215 -0.1492  0.5519
  181SOL    HW1  542   2.384   0.761   2.627 -0.7954  0.8252 -2.4534
  181SOL    HW2  543   2.429   0.929   2.617 -1.8588  0.3529 -2.1041
  182SOL     OW  544   2.896   2.296   2.214  0.4953 -0.5614  0.3787
  182SOL    HW1  545   2.988   2.336   2.225 -0.6845  1.9885 -0.2175
  182SOL    HW2  546   2.830   2.362   2.253  1.2526  2.1317 -2.3292
  183SOL     OW  547   2.025   0.791   1.993  0.5966  0.3024 -0.5220
  183SOL    HW1  548   2.122   0.793   1.957  0.2717  2.9331  0.6462
  183SOL    HW2  549   1.967   0.863   1.953 -0.4474  1.6399 -0.4348
  184SOL     OW  550   0.031   1.711   1.089  0.3083  0.0421 -0.0302
  184SOL    HW1  551   0.021   1.755   0.999  0.3631  0.5305 -3.1636
  184SOL    HW2  552   3.048   1.701   1.127 -0.2797 -0.7321  0.2228
  185SOL     OW  553   3.110   0.172   0.941 -0.0402 -0.2546 -0.2979
  185SOL    HW1  554   3.030   0.111   0.948 -0.5082  0.5965 -1.3188
  185SOL    HW2  555   0.058   0.181   1.024 -0.5550  1.3992  1.3449
  186SOL     OW  556   2.229   2.574   2.579 -0.6829  0.5440 -0.5280
  186SOL    HW1  557   2.157   2.569   2.651  1.0955 -1.1216 -2.8394
  186SOL    HW2  558   2.281   2.487   2.588  3.0070 -0.6020  0.9864
  187SOL     OW  559   0.395   1.417   0.482  0.1255 -0.3582 -0.0542
  187SOL    HW1  560   0.322   1.350   0.457  0.1896 -1.3843  1.6938
  187SOL    HW2  561   0.425   1.418   0.581  1.5272  1.6499  1.1429
  188SOL     OW  562   1.998   1.225   1.205 -0.3746  0.0163  0.2609
  188SOL    HW1  563   2.083   1.250   1.254  0.5229  0.3528 -1.8930
  188SOL    HW2  564   1.941   1.147   1.245 -1.3642 -1.1738 -0.4792
  189SOL     OW  565   3.061   0.800   2.491  0.3262 -0.0068  0.5170
  189SOL    HW1  566   3.066   0.827   2.590 -0.2549 -0.7225  0.0871
  189SOL    HW2  567   2.968   0.800   2.457  2.1092 -1.0359  2.2961
  190SOL     OW  568   2.399   0.523   2.192 -0.2874 -0.0162 -0.2825
  190SOL    HW1  569   2.301   0.504   2.219 -0.0715  0.6563 -0.1342
  190SOL    HW2  570   2.467   0.469   2.246  1.9728 -1.7842  2.1026
  191SOL     OW  571   1.000   0.190   2.302 -0.0382 -0.7328 -0.1603
  191SOL    HW1  572   0.954   0.208   2.391 -1.5079  2.3294 -1.0848
  191SOL    HW2  573   1.018   0.092   2.310 -0.6635  0.6627  2.4183
  192SOL     OW  574   1.007   1.975   1.687 -0.7386 -0.2364 -0.1404
  192SOL    HW1  575   1.087   1.998   1.624  1.8856  0.3976  1.9819
  192SOL    HW2  576   0.962   2.056   1.725  0.3624 -1.2681 -0.2705
  193SOL     OW  577   1.272   0.040   0.840  0.9263 -0.1802 -0.0036
  193SOL    HW1  578   1.219   3.066   0.854  2.6680 -0.7151 -0.8933
  193SOL    HW2  579   1.294   0.052   0.739  1.8601 -2.0002 -1.5953
  194SOL     OW  580   0.849   2.150   1.849  0.3787  0.0040  0.7809
  194SOL    HW1  581   0.744   2.144   1.833 -0.1787  0.2962 -0.0528
  194SOL    HW2  582   0.864   2.207   1.929 -1.3654 -2.6332 -1.1230
  195SOL     OW  583   1.421   0.524   0.746  0.1374  0.0541  0.0489
  195SOL    HW1  584   1.412   0.496   0.843  0.2109 -1.1512  3.9414
  195SOL    HW2  585   1.374   0.612   0.725 -0.4977 -1.5470 -0.7263
  196SOL     OW  586   0.973   1.596   2.156 -0.3655  0.0778  0.2998
  196SOL    HW1  587   0.924   1.562   2.242  2.2820  0.6390  4.1397
  196SOL    HW2  588   1.034   1.670   2.183 -1.6014  2.1776  2.3192
  197SOL     OW  589   0.557   0.459   1.863  0.1496 -0.4234 -0.3960
  197SOL    HW1  590   0.598   0.541   1.906  0.5270 -0.9752 -0.4150
  197SOL    HW2  591   0.549   0.480   1.767 -0.2833 -1.5777  1.7281
  198SOL     OW  592   0.745   0.667   0.604 -0.1014 -0.3857 -0.0902
  198SOL    HW1  593   0.817   0.690   0.533 -1.4542 -1.0773 -3.2023
  198SOL    HW2  594   0.691   0.586   0.578 -1.4113  0.0159  2.7195
  199SOL     OW  595   0.154   2.318   1.824  0.1385  0.2348  0.5973
  199SOL    HW1  596   0.140   2.233   1.770  0.2264  4.5847 -0.2058
  199SOL    HW2  597   0.073   2.376   1.816  0.9708 -1.3814 -0.5119
  200SOL     OW  598   1.609   1.673   2.378  0.0624 -0.0089  0.7658
  200SOL    HW1  599   1.675   1.728   2.431 -0.6089  0.3919  0.6363
  200SOL    HW2  600   1.616   1.574   2.402 -0.7331 -1.9597 -0.9577
  201SOL     OW  601   0.672   2.403   1.779  0.5302  0.1706 -0.1867
  201SOL    HW1  602   0.735   2.422   1.700  1.3329  2.0126 -1.7729
  201SOL    HW2  603   0.624   2.316   1.760  0.1022  2.2199  0.8155
  202SOL     OW  604   1.299   2.867   2.930 -0.0310 -0.1091  0.2060
  202SOL    HW1  605   1.335   2.796   2.865 -0.0250  1.2628 -1.0902
  202SOL    HW2  606   1.200   2.864   2.930  1.7149  1.3416  1.8807
  203SOL     OW  607   1.700   0.376   2.315  0.1465 -0.1277  0.2328
  203SOL    HW1  608   1.762   0.361   2.236  0.7091  3.4594  0.1858
  203SOL    HW2  609   1.668   0.290   2.364  3.7869  0.8537  0.3822
  204SOL     OW  610   0.472   1.496   2.095  0.2155  0.1298 -0.3707
  204SOL    HW1  611   0.562   1.477   2.141 -0.1822 -1.0168 -0.4300
  204SOL    HW2  612   0.423   1.406   2.088  0.8305 -2.1071 -0.4095
  205SOL     OW  613   2.058   0.986   2.805  0.1725 -0.9685  0.0450
  205SOL    HW1  614   2.059   0.904   2.747 -0.1017  0.4662 -1.0622
  205SOL    HW2  615   2.133   1.047   2.770 -1.5251 -2.3307 -0.2321
  206SOL     OW  616   0.182   1.771   2.673  0.3760 -0.1526 -0.0959
  206SOL    HW1  617   0.215   1.810   2.580 -0.9358  0.6000 -2.2926
  206SOL    HW2  618   0.241   1.806   2.746  0.6616  1.5299  1.1148
  207SOL     OW  619   0.867   2.918   1.902  0.3450 -0.0972 -0.7100
  207SOL    HW1  620   0.780   2.873   1.893  2.4714  1.2354 -0.6458
  207SOL    HW2  621   0.860   3.015   1.870  1.7324  0.5392 -0.9684
  208SOL     OW  622   0.754   2.492   1.314 -0.5787 -0.2521 -0.0878
  208SOL    HW1  623   0.676   2.559   1.321  3.4149 -2.3861  2.9806
  208SOL    HW2  624   0.729   2.416   1.252  1.3349  1.9188 -1.2105
  209SOL     OW  625   1.195   2.861   0.144  0.0539 -0.2646 -0.0465
  209SOL    HW1  626   1.250   2.896   0.219 -1.3067 -1.3002 -1.3638
  209SOL    HW2  627   1.137   2.941   0.110  0.1505  0.9704 -0.7286
  210SOL     OW  628   2.949   1.458   1.414 -0.2457 -0.1307  0.3676
  210SOL    HW1  629   2.869   1.511   1.444  1.5326  0.2544  1.0357
  210SOL    HW2  630   2.959   1.376   1.475  1.5933  0.0945  2.3368
  211SOL     OW  631   0.840   0.554   2.100 -0.1394 -0.0418 -0.3402
  211SOL    HW1  632   0.790   0.620   2.042  0.5730 -0.3397  2.3812
  211SOL    HW2  633   0.910   0.605   2.148 -1.8760 -0.0709 -1.2732
  212SOL     OW  634   1.393   2.311   1.534 -0.0998  0.3452 -0.0655
  212SOL    HW1  635   1.380   2.393   1.476 -0.0533 -1.7784  0.5307
  212SOL    HW2  636   1.442   2.241   1.482 -1.9040  1.9398 -0.4253
  213SOL     OW  637   2.614   0.349   1.592 -0.0143 -0.4516  0.1229
  213SOL    HW1  638   2.618   0.420   1.518  1.2792  0.2053 -0.0269
  213SOL    HW2  639   2.532   0.291   1.585 -1.0647  1.3934 -2.1067
  214SOL     OW  640   1.103   2.381   1.911 -0.4940 -0.4472  0.2323
  214SOL    HW1  641   1.197   2.424   1.924 -0.1682  0.9435  1.6523
  214SOL    HW2  642   1.101   2.330   1.827 -1.7019  0.3460  3.7837
  215SOL     OW  643   2.784   1.908   1.257 -0.3900 -0.1966  0.9595
  215SOL    HW1  644   2.700   1.934   1.308  1.5803 -2.2267  1.1990
  215SOL    HW2  645   2.867   1.903   1.317  1.6387 -1.0553  1.9019
  216SOL     OW  646   0.086   0.727   1.483 -0.2424  0.1313  0.1107
  216SOL    HW1  647   3.101   0.704   1.506  0.7323  0.5754 -2.8468
  216SOL    HW2  648   0.153   0.688   1.554  2.9824  1.0563  1.1708
  217SOL     OW  649   2.837   0.205   1.312 -0.2780 -0.1681 -0.0748
  217SOL    HW1  650   2.914   0.172   1.371  1.5593 -0.6709  2.2567
  217SOL    HW2  651   2.844   0.305   1.294  3.8110  0.0257  0.6942
  218SOL     OW  652   1.292   2.112   1.005  0.0554 -0.1279  0.0763
  218SOL    HW1  653   1.213   2.072   0.959  1.1970 -1.1130  1.2679
  218SOL    HW2  654   1.266   2.142   1.100 -2.7528  0.4956  0.0805
  219SOL     OW  655   1.381   2.441   0.179 -0.1883 -0.0062  0.5197
  219SOL    HW1  656   1.369   2.535   0.223 -1.4166  0.8150 -0.8430
  219SOL    HW2  657   1.426   2.370   0.239 -1.5706 -0.5720  1.2710
  220SOL     OW  658   1.739   2.407   0.291 -0.4260  0.1721 -0.8821
  220SOL    HW1  659   1.652   2.361   0.293  2.5001  1.4503 -0.6328
  220SOL    HW2  660   1.764   2.419   0.193 -2.5924 -2.3971 -0.5344
  221SOL     OW  661   2.897   2.033   1.040 -0.1786  0.5760 -0.0897
  221SOL    HW1  662   2.850   2.014   0.949 -0.5142 -4.2204 -1.6277
  221SOL    HW2  663   2.845   1.995   1.120 -1.6815  2.1493  1.4175
  222SOL     OW  664   0.912   2.292   0.779 -0.0645  0.1183 -0.0838
  222SOL    HW1  665   0.961   2.231   0.845 -2.7362  1.6458  1.4967
  222SOL    HW2  666   0.833   2.248   0.729 -3.1590 -1.1305 -0.7546
  223SOL     OW  667   1.139   2.654   2.273 -0.4526  0.1990  0.3006
  223SOL    HW1  668   1.241   2.675   2.267  2.1873  1.8935 -0.9856
  223SOL    HW2  669   1.096   2.708   2.200 -0.1150  0.8366  1.7127
  224SOL     OW  670   2.788   0.914   0.947  0.0909  0.0985  0.4448
  224SOL    HW1  671   2.695   0.918   0.904 -0.0653  0.3768  0.3656
  224SOL    HW2  672   2.789   0.859   1.032  0.1031  1.3495  1.6356
  225SOL     OW  673   2.377   1.476   1.177  0.5555  0.0169 -0.0903
  225SOL    HW1  674   2.354   1.520   1.088  0.9649 -0.9157  0.1460
  225SOL    HW2  675   2.463   1.424   1.170  2.7601 -3.6614 -0.1222
  226SOL     OW  676   1.246   2.591   0.643 -0.4478  0.3280 -0.3935
  226SOL    HW1  677   1.335   2.568   0.677 -0.8249  3.1095 -3.8744
  226SOL    HW2  678   1.193   2.517   0.592  3.5306 -1.5588  1.1277
  227SOL     OW  679   1.014   1.237   1.221 -0.0662  0.2486  0.1982
  227SOL    HW1  680   1.024   1.161   1.287 -0.3831  1.8691 -1.5882
  227SOL    HW2  681   0.998   1.210   1.123 -1.2806  1.9527 -3.7998
  228SOL     OW  682   1.428   0.399   2.291 -0.3218 -0.5585 -1.1098
  228SOL    HW1  683   1.531   0.387   2.282  2.5671  0.1870  0.8642
  228SOL    HW2  684   1.379   0.312   2.265 -0.3724 -2.4845 -0.6243
  229SOL     OW  685   2.568   1.113   2.915  1.0680 -0.5035  0.0014
  229SOL    HW1  686   2.653   1.148   2.963  1.3785  0.8889  0.8570
  229SOL    HW2  687   2.517   1.036   2.966  1.4436 -1.8104  2.7223
  230SOL     OW  688   0.971   1.289   0.594  0.2859 -0.0602 -0.1306
  230SOL    HW1  689   1.051   1.278   0.538 -2.2638 -1.5193 -0.2764
  230SOL    HW2  690   0.994   1.349   0.675  1.0441 -0.2624 -0.2800
  231SOL     OW  691   2.432   2.923   2.406 -0.2537  0.3424 -0.0605
  231SOL    HW1  692   2.519   2.937   2.456 -0.5814  0.4281 -3.0680
  231SOL    HW2  693   2.433   2.979   2.321  0.9019 -0.3929 -0.5911
  232SOL     OW  694   0.214   2.037   0.051 -0.1851  0.1853  0.4704
  232SOL    HW1  695   0.300   2.086   0.081 -1.7800 -0.3381  1.8960
  232SOL    HW2  696   0.193   2.065   3.066  0.4579  1.6962  0.1183
  233SOL     OW  697   1.644   2.575   2.443 -0.1197 -0.4567 -0.2554
  233SOL    HW1  698   1.626   2.591   2.347 -0.9827 -1.2025 -0.3109
  233SOL    HW2  699   1.743   2.557   2.462 -1.1067 -3.5515 -2.3520
  234SOL     OW  700   1.016   1.371   1.995 -0.4351 -0.3162 -0.0070
  234SOL    HW1  701   1.011   1.453   2.055 -0.8284 -3.5328  1.7036
  234SOL    HW2  702   0.927   1.322   1.995  0.6332  0.5280 -1.9933
  235SOL     OW  703   0.556   2.128   1.833  0.0858 -0.4592 -0.4013
  235SOL    HW1  704   0.529   2.084   1.923 -1.0216 -1.9184  1.8718
  235SOL    HW2  705   0.481   2.107   1.769 -0.8441  0.4328 -2.0447
  236SOL     OW  706   2.034   2.551   2.803 -0.1087 -0.3111 -0.2589
  236SOL    HW1  707   1.959   2.500   2.758  1.9372  0.4258  0.3211
  236SOL    HW2  708   2.068   2.500   2.888 -0.1007  0.2674  1.8980
  237SOL     OW  709   1.496   3.068   0.973 -0.1536  0.1319  0.2445
  237SOL    HW1  710   1.406   3.106   0.934  0.8046 -0.3981  1.0226
  237SOL    HW2  711   1.566   0.003   0.916 -2.5160  2.7631  2.9949
  238SOL     OW  712   1.073   0.567   2.878  0.0824 -0.7134 -0.4996
  238SOL    HW1  713   1.068   0.601   2.779  0.1899  0.3376 -0.9579
  238SOL    HW2  714   1.083   0.468   2.862 -3.2949  2.7146  0.3017
  239SOL     OW  715   0.661   3.102   2.171  0.0739  0.3400 -0.1517
  239SOL    HW1  716   0.665   0.010   2.071  0.3295 -1.6115  2.1020
  239SOL    HW2  717   0.691   0.075   2.226 -1.3383 -0.3826  0.1190
  240SOL     OW  718   2.131   2.350   0.815  0.3232 -0.1149 -0.5508
  240SOL    HW1  719   2.034   2.334   0.839 -1.6084 -1.4626  2.0774
  240SOL    HW2  720   2.144   2.364   0.713  1.2668 -2.4086 -1.1061
  241SOL     OW  721   1.021   1.519   1.750 -0.1596 -0.6429  0.1674
  241SOL    HW1  722   0.931   1.485   1.712  0.5266 -0.3177  1.0224
  241SOL    HW2  723   1.041   1.478   1.842 -1.0075 -2.7951 -0.5303
  242SOL     OW  724   0.168   0.572   0.878  0.6569  0.0850  0.0033
  242SOL    HW1  725   0.117   0.657   0.900 -0.3406 -0.0574  0.3702
  242SOL    HW2  726   0.103   0.498   0.854 -0.1232  0.9295  0.1492
  243SOL     OW  727   0.806   0.776   1.431 -0.1033 -0.2202 -0.0882
  243SOL    HW1  728   0.806   0.859   1.379 -0.3596  0.6973 -3.2987
  243SOL    HW2  729   0.715   0.759   1.473  4.2229  1.9760  0.4507
  244SOL     OW  730   1.391   0.614   0.132 -0.2969  0.1202 -0.3109
  244SOL    HW1  731   1.388   0.696   0.191 -0.3046 -0.9481  1.6378
  244SOL    HW2  732   1.455   0.635   0.048  1.8528  3.6702 -5.4035
  245SOL     OW  733   2.052   0.310   0.217 -0.5221 -0.0204 -0.0566
  245SOL    HW1  734   2.054   0.210   0.230 -0.1948  2.3003  0.9363
  245SOL    HW2  735   2.143   0.339   0.183 -2.1033 -1.3983 -0.2993
  246SOL     OW  736   0.694   0.707   1.874 -0.0781  0.2402 -0.1789
  246SOL    HW1  737   0.629   0.785   1.854 -2.1737 -0.8385 -1.7987
  246SOL    HW2  738   0.774   0.710   1.808  1.6828 -1.2908 -1.7890
  247SOL     OW  739   0.384   3.099   2.204 -1.0132 -0.4470 -0.5022
  247SOL    HW1  740   0.378   0.084   2.242  2.9410  1.6160  0.6912
  247SOL    HW2  741   0.485   3.072   2.218  2.0785 -2.2889 -0.0171
  248SOL     OW  742   3.036   1.503   2.011 -0.2490  0.2230 -0.9363
  248SOL    HW1  743   2.997   1.556   1.934  0.3156 -0.9201  0.3236
  248SOL    HW2  744   3.003   1.540   2.098  0.8260  0.8632  0.1828
  249SOL     OW  745   0.028   3.062   2.772  0.0296 -0.0547 -0.3485
  249SOL    HW1  746   0.079   0.026   2.813 -3.6069 -1.4836 -0.3278
  249SOL    HW2  747   0.090   2.983   2.740  1.9215 -0.7576  1.1658
  250SOL     OW  748   2.950   3.071   0.080  0.2508  0.8300  0.1120
  250SOL    HW1  749   3.043   3.095   0.109  0.4366  1.2628  0.7014
  250SOL    HW2  750   2.943   3.040   3.088  0.6189 -1.0763 -1.6059
  251SOL     OW  751   0.377   1.396   1.083 -0.3768 -0.3667  0.1563
  251SOL    HW1  752   0.279   1.363   1.079 -0.8983  1.6285  2.7646
  251SOL    HW2  753   0.380   1.484   1.039 -1.2232 -3.8420  0.4589
  252SOL     OW  754   1.520   2.993   1.763 -0.0309  0.0655  0.5720
  252SOL    HW1  755   1.471   3.056   1.700 -1.5306  1.0627 -0.5715
  252SOL    HW2  756   1.620   2.988   1.738  2.6737 -1.9990 -1.2306
  253SOL     OW  757   2.026   2.119   2.600  0.4331  0.7554 -0.3497
  253SOL    HW1  758   2.045   2.189   2.530  0.4055  0.8548  0.7948
  253SOL    HW2  759   1.928   2.125   2.620  0.4157  1.9186  0.5717
  254SOL     OW  760   0.548   1.736   1.964 -0.2801  0.5875 -0.2774
  254SOL    HW1  761   0.651   1.743   1.967 -1.0226  0.5698 -0.6237
  254SOL    HW2  762   0.516   1.670   2.033  1.1737 -2.1779 -1.7175
  255SOL     OW  763   1.139   0.267   1.708  0.6223  0.1925  0.1493
  255SOL    HW1  764   1.234   0.262   1.743 -0.0683  0.7443 -1.1193
  255SOL    HW2  765   1.074   0.261   1.791  1.9540  1.0404  0.1682
  256SOL     OW  766   2.785   2.350   1.080 -0.3411  0.5502 -0.0958
  256SOL    HW1  767   2.731   2.338   1.169  1.9963  0.2685 -0.2375
  256SOL    HW2  768   2.724   2.329   0.999 -1.5945 -0.8306 -2.2158
  257SOL     OW  769   0.439   2.299   3.096 -0.0016  0.1168 -0.4658
  257SOL    HW1  770   0.487   2.341   3.015  3.5859 -2.0835 -1.6580
  257SOL    HW2  771   0.418   2.353   0.069 -0.9461  0.1284 -3.1185
  258SOL     OW  772   1.051   2.403   2.286 -0.5108 -0.1408 -0.0020
  258SOL    HW1  773   0.977   2.417   2.356 -0.4442  0.3300  0.4515
  258SOL    HW2  774   1.093   2.490   2.263 -1.1031 -1.5475  0.8625
  259SOL     OW  775   1.079   1.865   2.860  0.4813 -0.9224  0.0078
  259SOL    HW1  776   1.105   1.965   2.848  1.5526  2.2073 -2.2950
  259SOL    HW2  777   1.027   1.845   2.949  0.9592 -0.6873  2.2038
  260SOL     OW  778   2.620   1.080   2.293 -0.1968 -0.5947  0.2519
  260SOL    HW1  779   2.527   1.104   2.327 -1.2150 -1.9052 -0.3424
  260SOL    HW2  780   2.686   1.077   2.372  1.8905  0.5552  1.5693
  261SOL     OW  781   1.251   0.727   0.695 -0.1880 -0.2885 -0.2720
  261SOL    HW1  782   1.174   0.722   0.758 -1.4353 -3.8037  0.2424
  261SOL    HW2  783   1.236   0.803   0.630 -0.3559  1.0673 -2.5377
  262SOL     OW  784   1.931   2.410   2.273  0.2637 -0.6608 -0.3858
  262SOL    HW1  785   1.852   2.353   2.235 -0.5687 -1.9529 -1.3351
  262SOL    HW2  786   1.972   2.455   2.191 -1.2948 -0.1375  1.6420
  263SOL     OW  787   0.015   1.975   0.231  0.5855  0.1047 -0.2616
  263SOL    HW1  788   0.054   1.901   0.287 -0.2413  0.0333 -1.4861
  263SOL    HW2  789   0.074   1.992   0.151 -1.5565 -1.8265 -2.5650
  264SOL     OW  790   0.371   2.079   0.821 -0.3412 -0.2435  0.0917
  264SOL    HW1  791   0.348   1.988   0.780  0.6788  0.9494 -0.6113
  264SOL    HW2  792   0.336   2.083   0.918 -1.9680  1.0930 -0.6924
  265SOL     OW  793   0.587   1.509   0.285  0.2027  0.1023  0.3188
  265SOL    HW1  794   0.508   1.483   0.342  1.8942  0.3654  1.1711
  265SOL    HW2  795   0.670   1.466   0.323 -0.6408  0.2562 -2.7856
  266SOL     OW  796   1.088   2.054   2.424 -0.1593 -0.2906  0.9356
  266SOL    HW1  797   1.076   2.125   2.496 -1.3880 -2.5025 -0.0779
  266SOL    HW2  798   1.034   2.085   2.342 -0.1374 -0.4246 -1.0540
  267SOL     OW  799   1.016   0.732   2.488  0.4956 -0.3042 -0.3388
  267SOL    HW1  800   1.005   0.631   2.469 -0.2859  0.6384 -1.7313
  267SOL    HW2  801   1.014   0.776   2.395 -2.2082  0.6975 -1.1362
  268SOL     OW  802   0.416   0.824   2.870  0.1168 -0.1796  0.8698
  268SOL    HW1  803   0.461   0.886   2.798  0.6117  2.0936  1.3333
  268SOL    HW2  804   0.401   0.877   2.954  1.4436  0.5983 -3.3154
  269SOL     OW  805   2.259   2.728   2.354  0.2343  0.8116 -0.2111
  269SOL    HW1  806   2.319   2.808   2.369 -1.4730  0.2708  1.5436
  269SOL    HW2  807   2.233   2.689   2.445 -0.3652  4.0822 -2.2733
  270SOL     OW  808   1.268   1.436   2.423  0.5197 -0.2689 -0.0569
  270SOL    HW1  809   1.293   1.532   2.388  1.8075  2.0811 -1.6035
  270SOL    HW2  810   1.188   1.445   2.486  0.9047  0.3369 -1.2624
  271SOL     OW  811   0.231   0.089   2.893 -0.0782 -0.3803  0.0453
  271SOL    HW1  812   0.284   0.007   2.924 -0.9707 -1.3289 -1.4924
  271SOL    HW2  813   0.244   0.163   2.963 -0.2097 -0.2460  0.1964
  272SOL     OW  814   2.839   0.607   0.306 -0.1876  0.3092 -0.1238
  272SOL    HW1  815   2.859   0.615   0.406 -0.4960  0.1624 -1.1939
  272SOL    HW2  816   2.754   0.656   0.280  2.7606  2.4462 -1.6036
  273SOL     OW  817   0.313   3.066   1.928  0.3560  0.1105 -0.0811
  273SOL    HW1  818   0.342   3.065   2.025 -0.4884 -0.2130 -1.2382
  273SOL    HW2  819   0.240   2.996   1.908  2.0560  0.6119  1.9380
  274SOL     OW  820   0.030   0.637   1.894  0.3523  0.1050 -0.1291
  274SOL    HW1  821   3.071   0.704   1.866  0.8072 -1.4705 -0.0072
  274SOL    HW2  822   0.082   0.602   1.812 -1.6714  0.6548  1.5207
  275SOL     OW  823   1.185   1.836   0.668  0.6705  0.3443  0.1303
  275SOL    HW1  824   1.221   1.783   0.746  0.2037 -2.3267 -0.1110
  275SOL    HW2  825   1.244   1.823   0.585 -0.6013 -1.3776 -3.5185
  276SOL     OW  826   0.800   0.920   2.080  0.3458 -0.0312 -0.1588
  276SOL    HW1  827   0.777   1.019   2.071 -1.1174 -0.5978 -1.5397
  276SOL    HW2  828   0.726   0.861   2.109  2.2784  1.3016 -3.7519
  277SOL     OW  829   1.278   2.636   1.773  0.6273  1.1525 -0.1561
  277SOL    HW1  830   1.199   2.595   1.720 -0.5600 -1.1433 -0.1283
  277SOL    HW2  831   1.306   2.565   1.849  0.9718  0.2519  2.4459
  278SOL     OW  832   1.891   2.944   1.869  0.2954 -0.6855 -0.1071
  278SOL    HW1  833   1.825   2.907   1.941  0.0587  0.0794  1.1453
  278SOL    HW2  834   1.985   2.953   1.903 -1.5993  0.4629  0.3103
  279SOL     OW  835   1.489   1.415   0.242 -0.4450 -0.8148  0.1764
  279SOL    HW1  836   1.452   1.377   0.155 -1.0964 -1.6516 -1.6789
  279SOL    HW2  837   1.516   1.339   0.304 -2.7024  0.9105  3.1710
  280SOL     OW  838   0.693   1.599   0.063 -0.4331  0.6440  0.1171
  280SOL    HW1  839   0.778   1.545   0.057 -2.3655  0.0063  0.5579
  280SOL    HW2  840   0.639   1.570   0.143 -0.6594  0.3090 -0.5217
  281SOL     OW  841   0.599   0.057   1.479  0.3091 -0.1115  0.6000
  281SOL    HW1  842   0.543   0.097   1.552  1.9149  0.6867  0.6290
  281SOL    HW2  843   0.691   0.101   1.477 -1.2661 -0.0436  1.0493
  282SOL     OW  844   0.168   2.469   0.593  0.6116 -0.6306 -0.5978
  282SOL    HW1  845   0.180   2.563   0.555 -2.1629 -2.1690  1.7234
  282SOL    HW2  846   0.167   2.405   0.517 -1.1514  0.4785 -0.8619
  283SOL     OW  847   1.701   2.268   2.148 -0.0447  0.1737 -0.4766
  283SOL    HW1  848   1.724   2.249   2.047 -2.7009 -0.0577  0.9546
  283SOL    HW2  849   1.689   2.181   2.193  1.1515  1.5094 -0.7980
  284SOL     OW  850   2.019   2.857   0.810  0.5221 -0.4853  0.2400
  284SOL    HW1  851   1.996   2.956   0.799  2.2161 -1.5544 -0.3541
  284SOL    HW2  852   1.944   2.813   0.866 -1.0112  0.7428  3.2675
  285SOL     OW  853   0.247   2.379   2.409 -0.5326  0.1984 -0.1668
  285SOL    HW1  854   0.319   2.312   2.398 -0.5582  1.5545 -0.9951
  285SOL    HW2  855   0.280   2.472   2.425  0.8007  1.7246  2.5521
  286SOL     OW  856   3.036   2.744   0.850 -0.1880 -0.0623  0.6928
  286SOL    HW1  857   3.049   2.784   0.941  0.7549 -0.9109 -1.5342
  286SOL    HW2  858   2.980   2.660   0.862  1.3243  0.5580 -3.3923
  287SOL     OW  859   0.518   1.461   0.732 -0.2558 -0.7504 -0.1341
  287SOL    HW1  860   0.471   1.497   0.813  2.6999  1.7919 -0.7371
  287SOL    HW2  861   0.607   1.511   0.721  1.7989 -2.1035  0.4171
  288SOL     OW  862   2.334   2.323   2.649 -0.6205  0.3476 -0.0280
  288SOL    HW1  863   2.425   2.284   2.626 -1.4825 -2.5912 -2.3615
  288SOL    HW2  864   2.255   2.288   2.590 -0.9711  1.4820  0.0197
  289SOL     OW  865   2.996   2.030   2.837  0.2084  0.7339  0.6261
  289SOL    HW1  866   2.955   2.062   2.921  1.2984  0.7616 -0.4931
  289SOL    HW2  867   2.984   1.930   2.825 -0.7739 -0.8496  1.3172
  290SOL     OW  868   1.396   1.876   1.205 -0.3680 -0.0096 -0.0897
  290SOL    HW1  869   1.315   1.836   1.258 -0.1506 -1.5169 -0.3199
  290SOL    HW2  870   1.367   1.921   1.120  2.4843 -2.5293  1.8951
  291SOL     OW  871   1.433   1.259   2.929 -0.2875  0.4038  0.7108
  291SOL    HW1  872   1.426   1.276   2.826 -2.7730 -2.6853 -1.5036
  291SOL    HW2  873   1.400   1.165   2.950 -0.4742 -2.1489  1.8441
  292SOL     OW  874   1.024   1.582   0.356  0.0795  0.3152 -0.4392
  292SOL    HW1  875   1.084   1.558   0.431  0.3511  0.8578  2.5289
  292SOL    HW2  876   1.074   1.601   0.272 -1.0663 -0.6579  2.7784
  293SOL     OW  877   1.439   2.538   0.915  0.2462  0.2548  0.1645
  293SOL    HW1  878   1.358   2.578   0.965  3.4566  0.4168 -0.1051
  293SOL    HW2  879   1.494   2.611   0.873 -0.8120  1.0653 -0.2328
  294SOL     OW  880   2.191   1.493   2.933 -0.3412 -0.7918  0.6406
  294SOL    HW1  881   2.166   1.545   3.019 -1.8647 -0.3439  1.8525
  294SOL    HW2  882   2.233   1.403   2.957  1.0114 -1.6372 -0.3928
  295SOL     OW  883   1.692   1.855   2.969  0.1183  0.3448 -0.2648
  295SOL    HW1  884   1.705   1.815   3.063 -0.4607 -1.0125  2.2196
  295SOL    HW2  885   1.741   1.942   2.948  0.6988 -0.0272  0.7321
  296SOL     OW  886   1.872   0.551   1.951 -0.2418  0.3479  0.4631
  296SOL    HW1  887   1.931   0.633   1.941  0.3017  1.1912  1.0542
  296SOL    HW2  888   1.882   0.515   2.045  0.1638  4.2244 -1.0309
  297SOL     OW  889   2.996   0.846   1.781 -0.8882  0.0814  0.1315
  297SOL    HW1  890   2.901   0.881   1.760  3.3912  0.5043  0.0623
  297SOL    HW2  891   3.065   0.895   1.729  0.7663 -3.2839  1.6991
  298SOL     OW  892   1.171   2.045   2.051 -0.3888  0.3644  0.5970
  298SOL    HW1  893   1.232   2.028   1.972  1.0722 -0.8368 -0.7749
  298SOL    HW2  894   1.199   2.128   2.102 -3.8492  1.3496  0.7951
  299SOL     OW  895   1.303   0.148   2.722  0.0860 -0.1433  0.2004
  299SOL    HW1  896   1.386   0.192   2.760 -2.0861 -0.3088 -0.2350
  299SOL    HW2  897   1.310   0.150   2.621 -1.3077 -0.9528  2.5370
  300SOL     OW  898   0.103   1.141   2.971  0.1085 -0.3271 -0.0250
  300SOL    HW1  899   0.095   1.079   3.047 -1.4955  2.0152 -1.1771
  300SOL    HW2  900   0.202   1.151   2.944 -0.6425  0.1514  1.5635
  301SOL     OW  901   1.917   0.884   2.468  0.1589 -0.1265 -0.3960
  301SOL    HW1  902   1.848   0.820   2.430 -0.8797  2.7881  1.0145
  301SOL    HW2  903   1.873   0.979   2.477 -2.2861  0.3962  2.3774
  302SOL     OW  904   2.465   1.674   2.821  0.3881  0.6454  0.3521
  302SOL    HW1  905   2.458   1.572   2.811  0.4714  0.5612  0.9575
  302SOL    HW2  906   2.379   1.728   2.815  1.9561  1.1012  1.9641
  303SOL     OW  907   0.359   2.209   2.703 -0.3765  0.3204  0.2487
  303SOL    HW1  908   0.387   2.300   2.669  0.5484 -0.1684 -0.5805
  303SOL    HW2  909   0.354   2.135   2.632  1.3297  0.0047  3.1716
  304SOL     OW  910   2.982   0.951   1.239 -0.1112  0.1256  0.1774
  304SOL    HW1  911   3.015   1.032   1.191  0.8959 -1.5857 -1.3559
  304SOL    HW2  912   3.038   0.874   1.208 -0.6251  2.8238  0.7188
  305SOL     OW  913   2.569   0.787   1.840 -0.1700  0.1049 -1.3151
  305SOL    HW1  914   2.588   0.691   1.876 -0.1058  0.1520  2.5985
  305SOL    HW2  915   2.495   0.824   1.901  2.3594  3.0793  1.2602
  306SOL     OW  916   2.341   1.136   1.941 -0.2645 -0.3544 -0.2836
  306SOL    HW1  917   2.300   1.179   1.861 -0.2671 -0.1054 -0.1627
  306SOL    HW2  918   2.432   1.186   1.960 -1.5709  0.9627  0.5321
  307SOL     OW  919   2.920   3.032   0.934  0.3658  0.0351 -0.0818
  307SOL    HW1  920   2.827   3.034   0.972  1.8032 -0.7825 -1.5989
  307SOL    HW2  921   2.975   2.956   0.971  0.1053  2.1055 -0.2644
  308SOL     OW  922   0.211   1.877   1.795  0.2056  0.1338  0.0135
  308SOL    HW1  923   0.241   1.894   1.892  1.1977 -3.1314 -0.2235
  308SOL    HW2  924   0.201   1.780   1.775  1.4245 -1.8893 -0.4104
  309SOL     OW  925   2.593   2.205   1.550 -0.4031 -0.6117 -0.0630
  309SOL    HW1  926   2.618   2.228   1.647  1.1292 -0.1311  3.0168
  309SOL    HW2  927   2.496   2.227   1.539  1.9606  0.7312  0.1333
  310SOL     OW  928   2.053   1.597   2.719  0.3016 -0.7558 -0.3305
  310SOL    HW1  929   1.955   1.610   2.738 -0.3145 -4.0302  0.5894
  310SOL    HW2  930   2.099   1.555   2.801 -3.5714 -0.4383  1.0102
  311SOL     OW  931   1.720   1.262   2.998  0.0870  0.3572  0.1405
  311SOL    HW1  932   1.621   1.283   3.001  4.1525 -2.2542 -1.3386
  311SOL    HW2  933   1.740   1.190   2.924 -2.5105 -0.8000 -2.4138
  312SOL     OW  934   1.264   2.267   2.169 -0.2312  0.2635 -0.2091
  312SOL    HW1  935   1.335   2.229   2.229 -1.1631 -1.1094 -1.8443
  312SOL    HW2  936   1.208   2.337   2.220  1.6545  0.5008  0.0040
  313SOL     OW  937   0.322   0.376   0.981 -0.1920  0.4973  0.7300
  313SOL    HW1  938   0.257   0.440   0.940 -0.3136 -0.3997  2.9523
  313SOL    HW2  939   0.284   0.328   1.063  1.4713  0.3267 -0.5513
  314SOL     OW  940   0.385   1.868   1.094  0.2444  0.1080  0.1654
  314SOL    HW1  941   0.333   1.958   1.093 -3.0110  0.5144 -0.7433
  314SOL    HW2  942   0.331   1.798   1.142  0.9885 -1.1032  1.0493
  315SOL     OW  943   0.520   2.011   2.071 -0.5827  0.1202  0.4578
  315SOL    HW1  944   0.496   2.067   2.154 -1.6970  0.8504  0.9410
  315SOL    HW2  945   0.444   1.952   2.038  0.7464 -0.8628  1.5249
  316SOL     OW  946   0.310   2.347   0.802  0.4625 -0.0547 -0.3946
  316SOL    HW1  947   0.317   2.247   0.788  0.8881  2.8264 -2.3887
  316SOL    HW2  948   0.272   2.388   0.714  0.9522 -1.1202 -1.5528
  317SOL     OW  949   1.867   0.294   0.993 -1.2689 -0.6510 -0.4433
  317SOL    HW1  950   1.784   0.259   0.946 -0.8348  1.7816 -0.6482
  317SOL    HW2  951   1.853   0.392   1.032 -0.0153  0.9254  0.1111
  318SOL     OW  952   2.233   2.262   0.288 -0.7536  0.1081  0.0021
  318SOL    HW1  953   2.173   2.266   0.206  0.3163 -0.6113  0.1880
  318SOL    HW2  954   2.271   2.164   0.299 -0.9503 -1.4415 -0.0101
  319SOL     OW  955   1.278   1.803   0.073 -0.3071  0.0110  0.5053
  319SOL    HW1  956   1.213   1.879   0.083  1.6920 -2.7826 -2.2519
  319SOL    HW2  957   1.327   1.806   3.095  1.5160  1.4418 -0.2999
  320SOL     OW  958   0.298   2.684   2.374 -0.0223 -0.4342 -0.5956
  320SOL    HW1  959   0.371   2.705   2.438 -0.9169  0.0235 -1.0380
  320SOL    HW2  960   0.340   2.647   2.288 -0.7328 -0.4955  0.5385
  321SOL     OW  961   1.164   2.786   2.521 -0.6998  0.1231  0.2355
  321SOL    HW1  962   1.262   2.796   2.552 -3.4932 -0.3443 -0.5742
  321SOL    HW2  963   1.154   2.729   2.441  2.0149  3.2619 -0.5074
  322SOL     OW  964   2.601   0.406   2.327 -0.2015  0.5479  0.0211
  322SOL    HW1  965   2.558   0.385   2.419  0.7554  2.5840  2.0071
  322SOL    HW2  966   2.693   0.442   2.346  1.1134  1.4803  0.2465
  323SOL     OW  967   2.946   1.091   0.787  0.4302  0.7564 -0.3861
  323SOL    HW1  968   2.895   1.021   0.836  1.1292  1.5068 -0.4405
  323SOL    HW2  969   3.040   1.052   0.769  0.9816  1.7639  1.5579
  324SOL     OW  970   0.208   0.873   1.846  0.4871  0.7249  0.4397
  324SOL    HW1  971   0.175   0.935   1.920  2.3688 -2.0272 -1.0141
  324SOL    HW2  972   0.129   0.808   1.843 -1.2090 -2.0711  0.5568
  325SOL     OW  973   0.385   0.269   2.260  0.0039 -0.3263 -0.4834
  325SOL    HW1  974   0.386   0.300   2.165 -0.0472 -1.2716  0.5586
  325SOL    HW2  975   0.294   0.294   2.303 -3.7973  1.2441 -1.6888
  326SOL     OW  976   2.222   2.564   0.237 -0.3461  0.5279  0.0135
  326SOL    HW1  977   2.296   2.596   0.172  0.2213  0.2225  0.9415
  326SOL    HW2  978   2.244   2.471   0.276  0.7203 -0.2934  0.1083
  327SOL     OW  979   2.253   1.415   0.710  0.0248  0.2468  0.2406
  327SOL    HW1  980   2.331   1.377   0.771  1.7747 -1.5787  0.4987
  327SOL    HW2  981   2.218   1.334   0.664 -1.0268  2.3576 -0.4056
  328SOL     OW  982   2.948   1.628   2.254 -0.0824  0.7167 -0.1223
  328SOL    HW1  983   2.854   1.610   2.284 -1.0942  3.1077  1.7079
  328SOL    HW2  984   2.995   1.695   2.315  0.8202  2.7392 -1.6100
  329SOL     OW  985   0.439   1.907   1.454  0.3653  0.4099  0.6646
  329SOL    HW1  986   0.356   1.899   1.394 -2.4921  0.2246 -0.5239
  329SOL    HW2  987   0.412   1.949   1.540  2.5976 -0.4899 -1.8450
  330SOL     OW  988   2.201   1.487   2.453 -0.1852 -0.5279 -0.1929
  330SOL    HW1  989   2.205   1.548   2.537  0.7709  1.3904  3.1646
  330SOL    HW2  990   2.270   1.417   2.451 -2.1303  1.7248  2.8411
  331SOL     OW  991   2.253   2.582   0.882  0.1566 -0.1887 -0.4786
  331SOL    HW1  992   2.200   2.503   0.851  0.8041  2.7035  0.3196
  331SOL    HW2  993   2.289   2.639   0.804  0.0059  0.0181  0.6120
  332SOL     OW  994   0.384   3.035   0.781 -0.2310 -0.1618 -0.0504
  332SOL    HW1  995   0.278   3.026   0.778 -4.1955  2.2686 -0.0058
  332SOL    HW2  996   0.436   2.949   0.750  2.3260 -2.3445 -0.1008
  333SOL     OW  997   2.131   2.298   2.440 -0.0167  0.9079  0.1567
  333SOL    HW1  998   2.222   2.291   2.390 -0.5376 -1.1355 -1.3568
  333SOL    HW2  999   2.060   2.324   2.372  3.2117  0.3790  0.2624
  334SOL     OW 1000   0.600   1.208   0.417  0.2588 -0.1436 -0.5316
  334SOL    HW1 1001   0.670   1.160   0.472 -0.2182  3.5018 -1.9273
  334SOL    HW2 1002   0.551   1.279   0.473  0.3631  0.1030 -1.1432
  335SOL     OW 1003   2.953   1.890   1.998 -0.5049 -0.0114 -0.1360
  335SOL    HW1 1004   2.906   1.864   2.086 -2.8258 -0.8980 -1.9130
  335SOL    HW2 1005   2.962   1.803   1.939  0.3529 -0.9072  0.0504
  336SOL     OW 1006   2.572   2.633   2.187 -0.1259 -0.0256  0.2158
  336SOL    HW1 1007   2.563   2.725   2.149 -1.0693  0.4915  1.1879
  336SOL    HW2 1008   2.552   2.629   2.287 -1.1888  0.7422  0.3499
  337SOL     OW 1009   0.837   1.027   0.878  0.2198  0.0147 -0.9055
  337SOL    HW1 1010   0.931   1.000   0.903  2.2465 -1.0530 -2.8968
  337SOL    HW2 1011   0.818   1.128   0.899 -1.4246  1.4854  1.0467
  338SOL     OW 1012   1.082   1.804   1.083  0.0569  0.4052  0.2722
  338SOL    HW1 1013   1.148   1.779   1.010  0.4363  1.7072 -1.4052
  338SOL    HW2 1014   0.993   1.774   1.056  2.2799  0.3663  0.9650
  339SOL     OW 1015   0.224   1.590   1.698  0.5488  1.1142  0.1520
  339SOL    HW1 1016   0.318   1.558   1.734  0.9800 -3.5479  0.0653
  339SOL    HW2 1017   0.166   1.512   1.673  0.5631 -1.4837  0.1246
  340SOL     OW 1018   1.015   2.891   1.666 -0.6303 -0.6415  0.4094
  340SOL    HW1 1019   1.057   2.988   1.655  1.7780  2.3044  1.0294
  340SOL    HW2 1020   0.974   2.885   1.760 -3.2637 -1.6093  1.4630
  341SOL     OW 1021   1.492   1.542   1.141 -0.9404  0.7149 -0.1125
  341SOL    HW1 1022   1.496   1.557   1.038 -2.3610 -2.6349 -2.3194
  341SOL    HW2 1023   1.453   1.622   1.191 -0.2844 -1.3801  5.0268
  342SOL     OW 1024   2.599   1.341   1.107 -0.0383  0.1505 -0.1736
  342SOL    HW1 1025   2.660   1.259   1.102 -2.9980  0.4406 -2.8657
  342SOL    HW2 1026   2.643   1.422   1.062 -3.9260 -0.5043 -2.2445
  343SOL     OW 1027   2.641   0.597   1.489  0.0940 -0.4461  0.3404
  343SOL    HW1 1028   2.580   0.681   1.515  0.1774  2.4366  0.5312
  343SOL    HW2 1029   2.602   0.561   1.400  0.0186  1.4692  0.2923
  344SOL     OW 1030   1.942   0.021   0.801  0.2076 -0.0706 -0.2217
  344SOL    HW1 1031   1.862   0.075   0.773  0.9352  0.3728 -1.3535
  344SOL    HW2 1032   2.019   0.085   0.818 -1.0662  1.3249 -0.5177
  345SOL     OW 1033   0.637   2.877   2.353 -0.0149 -0.1329 -0.2649
  345SOL    HW1 1034   0.671   2.942   2.423 -0.6643 -0.0744  0.2815
  345SOL    HW2 1035   0.638   2.921   2.261  2.5918 -2.0198  0.8987
  346SOL     OW 1036   2.732   2.028   0.843 -0.1967 -0.1810  0.0946
  346SOL    HW1 1037   2.671   2.102   0.880 -0.0682 -1.0625 -2.0485
  346SOL    HW2 1038   2.671   1.962   0.797 -0.6374  0.0910  2.7039
  347SOL     OW 1039   1.984   0.055   1.607 -0.0200 -0.1116 -0.4107
  347SOL    HW1 1040   2.040   0.109   1.671 -0.8157  1.5206 -0.8732
  347SOL    HW2 1041   1.939   3.085   1.655  0.2996 -0.4449  1.1683
  348SOL     OW 1042   0.936   1.175   1.644 -0.0784 -0.8072  0.0891
  348SOL    HW1 1043   0.902   1.094   1.690  0.2876 -2.0014 -2.0924
  348SOL    HW2 1044   0.867   1.251   1.650  2.1637 -1.6630  2.0017
  349SOL     OW 1045   2.429   0.427   1.836 -0.4275  0.1182  0.2971
  349SOL    HW1 1046   2.468   0.467   1.918 -1.9776 -1.3114  0.0336
  349SOL    HW2 1047   2.499   0.388   1.776  0.5035  3.0339  0.7688
  350SOL     OW 1048   2.172   2.305   0.553 -0.3250  0.1000  0.6091
  350SOL    HW1 1049   2.073   2.290   0.544  0.4341  0.7675  1.0332
  350SOL    HW2 1050   2.208   2.297   0.452 -0.8897 -0.5590 -4.2676
  351SOL     OW 1051   0.994   0.475   2.416  0.5429 -0.2748  0.1321
  351SOL    HW1 1052   0.896   0.462   2.436 -0.2416  1.7132  1.1813
  351SOL    HW2 1053   1.036   0.415   2.346  2.1195  0.7897  3.7527
  352SOL     OW 1054   2.322   2.492   1.847 -0.0810  0.4300  0.1213
  352SOL    HW1 1055   2.245   2.442   1.893  2.1369 -2.6924  1.1533
  352SOL    HW2 1056   2.309   2.486   1.745 -2.0242 -0.3167  1.7896
  353SOL     OW 1057   0.726   0.918   2.447 -0.1145  1.1369  0.0648
  353SOL    HW1 1058   0.719   0.831   2.395 -0.1540 -1.4685 -3.1615
  353SOL    HW2 1059   0.785   0.910   2.530  1.5456 -1.2712  0.1470
  354SOL     OW 1060   0.361   2.523   2.682 -0.2344  0.2969 -0.3695
  354SOL    HW1 1061   0.436   2.561   2.622  0.1505  1.7345  0.0370
  354SOL    HW2 1062   0.314   2.602   2.726 -0.0098  1.3620 -0.2945
  355SOL     OW 1063   1.799   2.750   0.933 -0.0624  1.0699  0.0485
  355SOL    HW1 1064   1.783   2.810   1.014  2.6308 -1.8196  1.7046
  355SOL    HW2 1065   1.822   2.658   0.972  0.5713  0.2253  1.9108
  356SOL     OW 1066   2.594   0.770   0.295  0.2822  0.0186  0.0140
  356SOL    HW1 1067   2.592   0.867   0.264 -0.0782 -0.8248 -0.8750
  356SOL    HW2 1068   2.590   0.761   0.393  2.5285  1.2887 -0.0959
  357SOL     OW 1069   0.013   0.092   1.756  0.0720  0.0295 -0.6050
  357SOL    HW1 1070   0.053   0.157   1.825 -2.5330 -0.2069  0.7267
  357SOL    HW2 1071   3.055   0.030   1.803 -2.7845 -1.9133  1.2225
  358SOL     OW 1072   0.018   1.775   0.830  0.2942  0.8033  0.7431
  358SOL    HW1 1073   3.098   1.678   0.852 -0.9848  1.0963 -0.7136
  358SOL    HW2 1074   3.069   1.811   0.758  1.2781 -0.5476  0.0777
  359SOL     OW 1075   2.762   0.124   0.214 -0.3327  0.0867  0.1953
  359SOL    HW1 1076   2.806   0.056   0.154  0.1911  0.2944 -0.0652
  359SOL    HW2 1077   2.825   0.209   0.225  0.5040  2.5188  1.2122
  360SOL     OW 1078   1.289   1.026   1.195 -0.3983  0.1493 -0.0827
  360SOL    HW1 1079   1.388   1.025   1.170 -3.8342 -0.3083  1.1764
  360SOL    HW2 1080   1.268   0.973   1.277  0.4718  1.4916 -1.0230
  361SOL     OW 1081   2.755   2.657   1.369 -0.2835  0.5057 -0.0890
  361SOL    HW1 1082   2.844   2.673   1.407 -2.1760 -1.8277 -1.4522
  361SOL    HW2 1083   2.759   2.574   1.313  0.2953 -0.9431  1.7094
  362SOL     OW 1084   1.198   0.263   0.976  0.0108 -0.1293  0.0660
  362SOL    HW1 1085   1.280   0.323   0.990  0.0559  0.0637  0.5493
  362SOL    HW2 1086   1.219   0.182   0.914 -0.6581 -1.0281  2.6160
  363SOL     OW 1087   1.999   1.508   0.657 -0.0363  0.0624 -0.1915
  363SOL    HW1 1088   2.098   1.486   0.636  1.7766  0.1605 -1.1217
  363SOL    HW2 1089   1.962   1.417   0.687 -0.6865 -0.6323 -3.2974
  364SOL     OW 1090   0.946   0.670   1.644 -0.2823 -0.0915 -0.8222
  364SOL    HW1 1091   1.044   0.667   1.672 -1.0747 -3.1721 -1.0908
  364SOL    HW2 1092   0.929   0.727   1.561 -3.0628  0.7047 -0.5931
  365SOL     OW 1093   0.178   0.232   1.152 -0.2461  0.3749  0.3074
  365SOL    HW1 1094   0.248   0.174   1.203 -1.6229  0.8035 -2.4886
  365SOL    HW2 1095   0.120   0.277   1.225  0.0576  3.2942  2.3486
  366SOL     OW 1096   2.861   0.967   0.430  0.2096 -0.1697 -0.3571
  366SOL    HW1 1097   2.787   0.974   0.503 -2.7918  0.8378  0.2849
  366SOL    HW2 1098   2.877   1.055   0.380 -1.7422  2.4923 -0.8351
  367SOL     OW 1099   2.329   1.874   2.329  0.6331 -0.7398  0.2469
  367SOL    HW1 1100   2.290   1.905   2.418  0.0666 -1.6835  0.5820
  367SOL    HW2 1101   2.374   1.956   2.282 -0.4074  3.2358 -0.7192
  368SOL     OW 1102   2.472   1.828   0.943 -0.1026  0.5649 -0.3621
  368SOL    HW1 1103   2.531   1.784   1.016 -0.0909  0.0784 -0.1601
  368SOL    HW2 1104   2.382   1.777   0.939 -1.2285  1.0316  0.1450
  369SOL     OW 1105   2.262   0.388   3.025 -0.0068 -0.4561 -0.5557
  369SOL    HW1 1106   2.180   0.442   3.054  1.3812  3.7631  0.1491
  369SOL    HW2 1107   2.254   0.292   3.068  1.2216 -0.7045  1.9820
  370SOL     OW 1108   0.779   0.552   1.021 -0.1835  0.0371  0.3862
  370SOL    HW1 1109   0.841   0.490   0.973  0.2038  3.3195  0.8074
  370SOL    HW2 1110   0.786   0.646   0.977  1.4997  0.5779  2.6977
  371SOL     OW 1111   0.016   1.590   3.061  0.4510  0.1365  0.4841
  371SOL    HW1 1112   3.103   1.672   3.013  1.4762  1.4222 -1.4381
  371SOL    HW2 1113   0.111   1.553   3.037  2.7909  1.9629 -0.8923
  372SOL     OW 1114   0.663   0.712   2.266  0.6055 -0.2463  0.3387
  372SOL    HW1 1115   0.690   0.618   2.288  1.2580 -0.6764  0.6645
  372SOL    HW2 1116   0.563   0.726   2.259  0.9263  0.0487 -0.3829
  373SOL     OW 1117   1.002   2.929   2.915  0.0385 -0.0857 -0.0496
  373SOL    HW1 1118   1.009   2.973   3.011 -0.5240  3.6571  2.6117
  373SOL    HW2 1119   1.006   2.993   2.837  1.9483  1.5397  0.8380
  374SOL     OW 1120   0.902   1.811   0.281  0.3202 -0.3980  0.0304
  374SOL    HW1 1121   0.962   1.875   0.324 -4.0450 -2.7325  0.3374
  374SOL    HW2 1122   0.918   1.719   0.323  2.5500  1.8413  1.2344
  375SOL     OW 1123   1.096   0.674   2.181 -0.0961  0.0538  0.2124
  375SOL    HW1 1124   1.046   0.760   2.192  0.7692 -1.5583  1.5116
  375SOL    HW2 1125   1.182   0.675   2.232  1.0248  2.0481  0.4167
  376SOL     OW 1126   2.964   2.692   2.057 -0.2704 -0.0531 -0.1972
  376SOL    HW1 1127   2.909   2.655   2.135 -0.6437 -0.7677  0.0927
  376SOL    HW2 1128   3.060   2.683   2.084  1.1682 -0.1846 -1.6195
  377SOL     OW 1129   2.620   1.694   3.035 -0.0830  0.0787  0.2910
  377SOL    HW1 1130   2.577   1.695   2.944 -0.4297  1.7421  0.5111
  377SOL    HW2 1131   2.582   1.627   3.102  0.4987  1.7435  1.8357
  378SOL     OW 1132   2.260   0.159   0.065 -0.2359 -0.3994 -0.3940
  378SOL    HW1 1133   2.231   0.090   3.105 -0.6850  0.6048  0.8914
  378SOL    HW2 1134   2.345   0.134   0.120  1.0842  0.5851 -0.6794
  379SOL     OW 1135   1.796   0.791   0.754  0.3988  0.3395 -0.8397
  379SOL    HW1 1136   1.784   0.846   0.843  0.3797  2.0291  0.5239
  379SOL    HW2 1137   1.845   0.703   0.774 -0.4145  1.5933 -2.0331
  380SOL     OW 1138   2.389   2.089   1.789  0.1102  0.1498  0.1837
  380SOL    HW1 1139   2.323   2.104   1.872 -0.4138 -0.9347  0.4607
  380SOL    HW2 1140   2.474   2.142   1.794 -1.1301 -0.1741  0.2492
  381SOL     OW 1141   2.507   1.388   2.466  0.3577 -0.7392 -0.3388
  381SOL    HW1 1142   2.589   1.427   2.421 -0.5215 -0.8543  1.9928
  381SOL    HW2 1143   2.460   1.321   2.410  3.0441  0.1838  1.0513
  382SOL     OW 1144   2.933   2.633   2.684  0.4355  0.0015  0.2353
  382SOL    HW1 1145   2.943   2.715   2.616  1.6826  0.3439  0.1791
  382SOL    HW2 1146   2.837   2.632   2.727 -1.1346 -0.2938 -1.3480
  383SOL     OW 1147   0.990   1.472   2.985  0.2119 -0.1116 -0.5376
  383SOL    HW1 1148   0.969   1.463   3.083  0.3284  0.4213 -1.9842
  383SOL    HW2 1149   1.065   1.538   2.976  1.4880 -3.1981 -2.8102
  384SOL     OW 1150   1.606   2.049   1.840 -0.6287 -0.1055  0.4413
  384SOL    HW1 1151   1.588   1.988   1.921 -2.5124  1.7056 -0.7010
  384SOL    HW2 1152   1.691   2.103   1.860  0.9303  1.1550  1.2637
  385SOL     OW 1153   1.701   2.568   0.596  0.0723 -0.3894  0.1627
  385SOL    HW1 1154   1.677   2.628   0.675 -0.5023  0.6469  1.5817
  385SOL    HW2 1155   1.727   2.618   0.511 -0.6772  0.5833  1.2822
  386SOL     OW 1156   1.965   1.280   0.422 -0.2667 -0.7894  0.3577
  386SOL    HW1 1157   2.019   1.325   0.344  1.9372 -0.4579 -0.5407
  386SOL    HW2 1158   1.932   1.347   0.493  1.0471  1.9260  0.1466
  387SOL     OW 1159   2.956   2.093   1.516  0.7213  0.0305  0.2887
  387SOL    HW1 1160   2.989   2.075   1.612  0.7082 -1.1898 -0.8643
  387SOL    HW2 1161   2.918   2.188   1.507 -0.6342  1.7365 -2.8488
  388SOL     OW 1162   0.093   0.975   1.557  0.3390  0.3644  0.4386
  388SOL    HW1 1163   0.104   1.037   1.476  0.1813  0.6009  0.5708
  388SOL    HW2 1164   0.083   0.880   1.523 -0.3763  1.3161 -0.3794
  389SOL     OW 1165   2.017   0.497   3.109  0.0372 -0.4082  0.3247
  389SOL    HW1 1166   2.012   0.436   0.081  0.7917 -0.5784  0.2103
  389SOL    HW2 1167   2.034   0.591   0.030  2.4106  0.3750 -1.9890
  390SOL     OW 1168   0.960   1.792   3.078  0.2919 -0.5142  0.0804
  390SOL    HW1 1169   0.867   1.756   3.093 -0.1743 -1.2409 -0.2270
  390SOL    HW2 1170   0.994   1.865   0.030  1.8426 -1.7882  0.0585
  391SOL     OW 1171   0.996   2.267   3.098  0.2368 -0.1534  0.3445
  391SOL    HW1 1172   1.054   2.279   0.069 -0.2173 -1.7781 -0.8689
  391SOL    HW2 1173   0.898   2.268   0.024 -1.1481 -1.6724  0.0086
  392SOL     OW 1174   0.023   2.439   2.200 -0.0930  0.0526  0.0234
  392SOL    HW1 1175   0.051   2.517   2.135  1.3803  1.4245 -0.1530
  392SOL    HW2 1176   0.074   2.442   2.288  0.3348 -1.1761 -0.1000
  393SOL     OW 1177   1.524   2.225   0.266 -0.3556 -0.1344  1.0111
  393SOL    HW1 1178   1.568   2.181   0.345  1.3143 -1.1005 -0.6408
  393SOL    HW2 1179   1.545   2.186   0.175 -1.3739 -1.0263 -0.2477
  394SOL     OW 1180   0.485   0.285   2.521 -0.4668  0.4509 -0.1486
  394SOL    HW1 1181   0.442   0.285   2.429  2.7065 -0.5158  2.2409
  394SOL    HW2 1182   0.473   0.374   2.569 -0.5911  2.7764 -0.7557
  395SOL     OW 1183   0.420   1.292   1.323 -0.3857  0.2478  0.6964
  395SOL    HW1 1184   0.481   1.351   1.382  3.3524  0.1137  3.4120
  395SOL    HW2 1185   0.424   1.322   1.224 -2.1288 -0.3935  0.9179
  396SOL     OW 1186   1.840   1.280   2.611 -0.3187  0.2343 -0.0877
  396SOL    HW1 1187   1.939   1.284   2.643  0.9281 -1.4434 -0.3482
  396SOL    HW2 1188   1.801   1.214   2.675  2.4580  0.2511 -0.8659
  397SOL     OW 1189   0.666   0.399   0.048 -0.1096 -0.4242 -0.2264
  397SOL    HW1 1190   0.640   0.484   3.105 -0.1152  2.8538 -0.0733
  397SOL    HW2 1191   0.766   0.389   0.075  2.0502  1.7170  3.9319
  398SOL     OW 1192   0.982   2.575   2.941 -0.0758  0.3071 -0.2019
  398SOL    HW1 1193   0.998   2.633   2.860 -0.4824  2.1028 -0.8888
  398SOL    HW2 1194   1.068   2.579   2.999  0.5859 -0.5919  1.0492
  399SOL     OW 1195   1.812   2.198   1.914 -0.0062  0.0279  0.1768
  399SOL    HW1 1196   1.886   2.132   1.936 -0.1904  0.7836  1.3782
  399SOL    HW2 1197   1.822   2.252   1.826  2.0100 -0.7845  0.6746
  400SOL     OW 1198   2.072   1.170   1.585  0.2249 -0.4749  0.4184
  400SOL    HW1 1199   1.997   1.237   1.577  0.4984  0.3761 -1.9701
  400SOL    HW2 1200   2.141   1.207   1.652 -1.0263  0.1934 -1.9053
  401SOL     OW 1201   1.247   1.262   0.716  0.0050  0.0683  0.3325
  401SOL    HW1 1202   1.234   1.277   0.815  1.7510  0.5752 -1.5979
  401SOL    HW2 1203   1.346   1.263   0.698 -0.7861  1.7434 -1.4501
  402SOL     OW 1204   3.015   3.087   2.408 -0.2868  0.3986  0.2775
  402SOL    HW1 1205   3.061   0.042   2.469 -2.7301  2.2282 -0.4627
  402SOL    HW2 1206   3.067   3.072   2.320 -3.2850 -0.2173 -1.1761
  403SOL     OW 1207   2.514   1.892   1.658 -0.3705 -0.0373  0.4850
  403SOL    HW1 1208   2.456   1.966   1.692  3.2614 -1.6290 -1.8067
  403SOL    HW2 1209   2.539   1.909   1.561  1.5990 -0.7941  1.5052
  404SOL     OW 1210   2.004   1.713   1.494 -0.2981  0.2635  0.2878
  404SOL    HW1 1211   2.082   1.768   1.450 -0.9511  1.9465 -0.1611
  404SOL    HW2 1212   1.927   1.684   1.428 -0.5347 -1.4882 -3.7093
  405SOL     OW 1213   2.581   0.438   2.911 -0.1764  0.4422  0.6109
  405SOL    HW1 1214   2.559   0.438   3.013 -0.1564  0.8665  0.4230
  405SOL    HW2 1215   2.659   0.500   2.888  0.6658  0.2701 -0.2685
  406SOL     OW 1216   1.093   1.529   2.625 -0.6393 -0.1789 -0.0726
  406SOL    HW1 1217   1.027   1.602   2.600  0.0823  0.6044 -1.8274
  406SOL    HW2 1218   1.122   1.542   2.724 -1.4975 -0.8433  0.7695
  407SOL     OW 1219   1.902   2.268   0.481 -0.3509 -0.0221 -0.5652
  407SOL    HW1 1220   1.882   2.308   0.571 -0.5646  0.2805 -1.4572
  407SOL    HW2 1221   1.859   2.315   0.404  0.8913 -1.3103 -0.7928
  408SOL     OW 1222   0.099   2.946   0.754  0.1986  1.0024 -0.1341
  408SOL    HW1 1223   0.038   3.027   0.767 -2.0942  1.1466  0.0113
  408SOL    HW2 1224   0.053   2.853   0.780  0.8831 -2.3804 -0.8698
  409SOL     OW 1225   2.276   1.621   0.954  0.4206 -0.2892 -0.0941
  409SOL    HW1 1226   2.191   1.653   0.999 -1.7358  1.7497  3.3765
  409SOL    HW2 1227   2.253   1.572   0.868 -3.4298 -0.6057  2.9964
  410SOL     OW 1228   2.276   2.376   2.907 -0.0820 -0.6123 -0.0227
  410SOL    HW1 1229   2.348   2.366   2.975  0.1828 -1.2427 -0.9660
  410SOL    HW2 1230   2.322   2.368   2.817  2.2531  2.0998  2.2170
  411SOL     OW 1231   0.191   2.975   0.500 -0.6428  0.0917  0.1705
  411SOL    HW1 1232   0.272   3.032   0.476  0.0008  0.0122 -0.0123
  411SOL    HW2 1233   0.171   2.992   0.601 -1.7899 -0.0437  1.6338
  412SOL     OW 1234   1.355   2.666   0.326  0.7063  0.0360  0.2748
  412SOL    HW1 1235   1.361   2.767   0.336 -0.4947 -1.1022  1.7458
  412SOL    HW2 1236   1.415   2.611   0.385  0.4778  0.8185 -0.5729
  413SOL     OW 1237   2.165   0.490   2.322 -0.0561 -0.0175 -0.2793
  413SOL    HW1 1238   2.085   0.546   2.287 -2.5173  0.6875 -1.5432
  413SOL    HW2 1239   2.156   0.486   2.424  0.9322  0.2765 -1.0495
  414SOL     OW 1240   0.152   0.557   0.517  0.4191 -0.0004  0.4579
  414SOL    HW1 1241   0.151   0.509   0.426 -0.6565 -1.3772 -0.7048
  414SOL    HW2 1242   0.236   0.535   0.568 -3.7143  2.6091 -3.1069
  415SOL     OW 1243   0.147   1.169   1.359  0.0093 -0.3861  0.5471
  415SOL    HW1 1244   0.094   1.163   1.272  0.1509  1.6582 -1.5999
  415SOL    HW2 1245   0.245   1.192   1.344  0.0535 -0.5106 -0.8245
  416SOL     OW 1246   0.395   3.098   0.180 -0.2305 -0.4221  0.0897
  416SOL    HW1 1247   0.444   0.067   0.135  1.9464 -1.0777  0.9946
  416SOL    HW2 1248   0.455   3.051   0.252 -0.6606 -0.8837  1.4144
  417SOL     OW 1249   1.991   0.383   0.690 -0.6540 -0.3898  0.2712
  417SOL    HW1 1250   2.039   0.304   0.731 -2.3296 -0.2894 -2.2252
  417SOL    HW2 1251   1.983   0.462   0.759  0.6305  1.9665  0.3712
  418SOL     OW 1252   0.514   0.501   2.682  0.1144 -0.2089 -0.4956
  418SOL    HW1 1253   0.613   0.521   2.710  1.7657 -0.5977  0.1565
  418SOL    HW2 1254   0.456   0.485   2.762  1.6394  2.1944 -0.5608
  419SOL     OW 1255   0.309   1.049   0.711 -0.0359 -0.7382  0.1493
  419SOL    HW1 1256   0.344   0.955   0.687  0.6732 -0.8208  1.6577
  419SOL    HW2 1257   0.348   1.086   0.800  0.3139  1.2967  1.1701
  420SOL     OW 1258   2.067   1.765   1.074  0.2609  0.2448 -0.6910
  420SOL    HW1 1259   2.034   1.812   0.991 -0.8552  2.2332  0.0359
  420SOL    HW2 1260   2.116   1.831   1.134 -2.6635 -0.9540  0.0602
  421SOL     OW 1261   1.734   2.116   2.644  0.2808  0.3472  0.2286
  421SOL    HW1 1262   1.759   2.110   2.743  0.7676  0.7260 -0.0613
  421SOL    HW2 1263   1.638   2.148   2.630  3.7450 -1.1021  3.1329
  422SOL     OW 1264   2.894   0.439   3.096 -0.3318 -0.2230  0.3223
  422SOL    HW1 1265   2.837   0.521   3.084  2.9206 -1.5101 -0.0200
  422SOL    HW2 1266   2.909   0.418   0.079  0.8341  0.8867 -4.3779
  423SOL     OW 1267   1.878   1.842   0.882 -0.1562 -0.1069  0.3076
  423SOL    HW1 1268   1.847   1.749   0.876  1.5527  0.2763  1.1261
  423SOL    HW2 1269   1.935   1.868   0.805 -2.9350  0.4353 -0.3572
  424SOL     OW 1270   0.471   1.266   1.709  0.0690 -0.4419 -0.3094
  424SOL    HW1 1271   0.464   1.367   1.718  0.3016  1.1313 -0.7140
  424SOL    HW2 1272   0.379   1.222   1.713 -0.5269 -0.3461 -2.3275
  425SOL     OW 1273   2.634   2.733   1.853 -0.5407 -0.0143 -0.1720
  425SOL    HW1 1274   2.641   2.641   1.892 -3.0296  2.3732 -4.2748
  425SOL    HW2 1275   2.571   2.784   1.918  0.1957  2.2759  1.2374
  426SOL     OW 1276   1.759   2.680   0.351 -0.6928 -0.2187  0.3177
  426SOL    HW1 1277   1.860   2.701   0.349 -1.2736 -1.4772 -0.8937
  426SOL    HW2 1278   1.739   2.586   0.315 -0.4460 -0.9269  0.4599
  427SOL     OW 1279   0.150   0.740   2.778  0.2124  0.7674 -0.1818
  427SOL    HW1 1280   0.228   0.735   2.843  2.1171  0.9400 -0.4133
  427SOL    HW2 1281   0.113   0.647   2.763 -1.0345 -1.4048  1.9517
  428SOL     OW 1282   2.069   0.938   3.065 -0.7145 -0.0462  0.1566
  428SOL    HW1 1283   2.011   1.007   0.004  0.5347  0.6446  0.9280
  428SOL    HW2 1284   2.051   0.944   2.966 -0.0409  0.3230  2.5327
  429SOL     OW 1285   2.971   0.291   0.548 -0.7374 -0.4983  0.0364
  429SOL    HW1 1286   2.960   0.194   0.575 -0.5391  0.4997  0.1593
  429SOL    HW2 1287   3.053   0.331   0.592 -1.0109 -1.4026 -1.4235
  430SOL     OW 1288   1.029   2.844   2.090 -0.2372 -0.0013  0.4915
  430SOL    HW1 1289   0.948   2.864   2.033 -0.2132 -1.1571 -0.4348
  430SOL    HW2 1290   1.106   2.833   2.024 -2.2326  0.7084 -1.3899
  431SOL     OW 1291   0.005   2.086   1.186 -0.0883 -0.2985  0.3697
  431SOL    HW1 1292   0.010   2.025   1.270 -0.7322 -1.3227  0.6584
  431SOL    HW2 1293   3.027   2.071   1.134 -0.2664  0.9235 -1.6007
  432SOL     OW 1294   2.202   2.794   1.604  0.3795 -0.3023 -1.1947
  432SOL    HW1 1295   2.289   2.852   1.593  1.4382  0.9033 -2.0076
  432SOL    HW2 1296   2.129   2.826   1.542  1.7735 -1.4350  2.4051
  433SOL     OW 1297   1.178   2.268   0.191 -0.4753 -0.1079 -0.4495
  433SOL    HW1 1298   1.220   2.215   0.265 -0.0757  3.9756 -0.9167
  433SOL    HW2 1299   1.240   2.340   0.161  1.1899 -1.3228  1.5063
  434SOL     OW 1300   2.878   2.453   2.473  0.6454  0.0570  0.4674
  434SOL    HW1 1301   2.959   2.389   2.472  0.9208 -1.0457 -1.0694
  434SOL    HW2 1302   2.886   2.508   2.558  0.6913 -3.4760 -1.5171
  435SOL     OW 1303   0.441   0.731   0.610  0.6544 -0.3793 -0.5509
  435SOL    HW1 1304   0.403   0.648   0.656 -2.1695 -0.4456  0.5764
  435SOL    HW2 1305   0.542   0.718   0.593 -1.2163  0.8672  0.3891
  436SOL     OW 1306   0.429   2.494   1.898  0.1962 -0.1709  0.1671
  436SOL    HW1 1307   0.368   2.414   1.890 -0.6028 -1.0878 -0.1048
  436SOL    HW2 1308   0.512   2.483   1.838  1.9733 -1.5712 -0.1812
  437SOL     OW 1309   1.196   2.005   1.469  0.3010 -0.3433  0.0289
  437SOL    HW1 1310   1.167   2.064   1.393 -0.7244 -2.1285 -1.0748
  437SOL    HW2 1311   1.295   2.032   1.492  0.7920  1.3493 -0.6697
  438SOL     OW 1312   0.171   2.247   0.406 -0.0662 -0.6770  0.4355
  438SOL    HW1 1313   0.250   2.197   0.364  1.1370 -1.0058  0.9162
  438SOL    HW2 1314   0.132   2.198   0.485 -0.0010  1.6003 -0.0651
  439SOL     OW 1315   0.412   0.099   1.250  0.3857 -0.2456  0.3490
  439SOL    HW1 1316   0.471   0.115   1.170 -0.3819 -0.1970  1.1548
  439SOL    HW2 1317   0.466   0.089   1.334 -0.2551 -0.3906  0.9504
  440SOL     OW 1318   2.823   2.631   2.287 -0.4896 -0.0110  0.3459
  440SOL    HW1 1319   2.840   2.575   2.370  1.6800 -0.3691  1.4049
  440SOL    HW2 1320   2.727   2.627   2.251 -1.6692 -0.7660 -0.3019
  441SOL     OW 1321   2.943   0.665   1.517  0.7773 -0.8373  0.0602
  441SOL    HW1 1322   2.878   0.592   1.554  0.1662 -1.3857  2.0854
  441SOL    HW2 1323   2.908   0.754   1.544  2.9511  1.1317  0.5077
  442SOL     OW 1324   1.793   2.436   0.013 -0.0528  0.2940 -0.5545
  442SOL    HW1 1325   1.882   2.483   0.011 -0.2402 -0.2985 -1.1602
  442SOL    HW2 1326   1.710   2.494   3.099  1.2493 -0.8041 -1.1424
  443SOL     OW 1327   0.431   0.998   3.099 -0.2269  0.1288  0.6214
  443SOL    HW1 1328   0.438   1.005   0.088 -3.8249 -1.3691 -1.8264
  443SOL    HW2 1329   0.446   1.089   3.057  0.2668  0.1085  1.4389
  444SOL     OW 1330   1.351   1.650   2.271 -0.0050 -0.0112  0.2648
  444SOL    HW1 1331   1.449   1.630   2.291 -1.7054 -0.2713 -1.1409
  444SOL    HW2 1332   1.345   1.688   2.176  0.9900 -1.0022 -1.8391
  445SOL     OW 1333   0.323   2.445   1.069  0.5212  0.6029 -0.1603
  445SOL    HW1 1334   0.369   2.538   1.074  0.3376  0.4078  0.6146
  445SOL    HW2 1335   0.301   2.422   0.971 -2.7524 -0.2001 -1.9803
  446SOL     OW 1336   2.515   1.375   1.421 -0.3764  0.3041  0.0973
  446SOL    HW1 1337   2.472   1.283   1.398 -0.3617  0.6842  1.0923
  446SOL    HW2 1338   2.567   1.397   1.337 -0.3465  0.3378 -1.5704
  447SOL     OW 1339   0.227   0.662   0.052  0.1291  0.4897 -0.0727
  447SOL    HW1 1340   0.203   0.757   0.073  2.1148  1.6771 -0.6817
  447SOL    HW2 1341   0.165   0.616   3.092 -0.4797  1.1030 -1.0643
  448SOL     OW 1342   1.547   2.344   1.785  0.3154 -0.2990 -0.2508
  448SOL    HW1 1343   1.493   2.346   1.703  0.7541  0.3724 -1.5846
  448SOL    HW2 1344   1.582   2.249   1.810  1.7687 -3.9208  2.3427
  449SOL     OW 1345   0.909   1.425   0.133  0.3554  0.0246  0.5303
  449SOL    HW1 1346   0.853   1.349   0.166  1.2468 -0.3729 -0.1196
  449SOL    HW2 1347   0.960   1.468   0.213  3.8709 -1.9825  4.4369
  450SOL     OW 1348   3.054   2.014   1.737  0.2337 -0.3789  0.4494
  450SOL    HW1 1349   0.029   1.959   1.743 -2.5911 -0.4951  0.0882
  450SOL    HW2 1350   2.976   1.962   1.779 -2.4314  0.2575 -0.4939
  451SOL     OW 1351   2.774   1.288   2.750  0.3242 -0.2816  0.4202
  451SOL    HW1 1352   2.867   1.327   2.732  0.1473 -2.1599 -0.8955
  451SOL    HW2 1353   2.771   1.251   2.844 -0.3576 -1.2790  0.2214
  452SOL     OW 1354   1.533   0.787   1.186 -0.2978 -0.2312 -0.2214
  452SOL    HW1 1355   1.440   0.772   1.142 -0.2548  2.1539 -1.0459
  452SOL    HW2 1356   1.543   0.737   1.271  0.6110 -0.4818 -1.7741
  453SOL     OW 1357   1.649   1.077   1.482  0.5562 -0.3032 -0.3481
  453SOL    HW1 1358   1.570   1.010   1.502  1.6971 -0.1754  0.0808
  453SOL    HW2 1359   1.658   1.147   1.552  0.4189 -0.2026 -1.0931
  454SOL     OW 1360   0.001   0.796   0.498  0.0637 -0.2446 -0.3760
  454SOL    HW1 1361   0.034   0.700   0.489 -1.8675  0.4004  0.1600
  454SOL    HW2 1362   3.026   0.789   0.553 -0.7163  0.7033 -2.0438
  455SOL     OW 1363   2.365   2.657   1.100  0.3536  0.1894  0.4853
  455SOL    HW1 1364   2.461   2.681   1.073  1.4112  0.0385 -1.1644
  455SOL    HW2 1365   2.313   2.628   1.020  3.9740 -1.4829 -1.4583
  456SOL     OW 1366   0.399   2.707   1.088 -0.1021  0.0676 -0.3473
  456SOL    HW1 1367   0.468   2.727   1.162 -0.1156 -1.5287  0.9333
  456SOL    HW2 1368   0.335   2.787   1.071 -2.9054  0.6217  1.4727
  457SOL     OW 1369   1.555   3.036   0.652 -0.3867 -0.0186 -0.0553
  457SOL    HW1 1370   1.477   3.096   0.616  2.0287 -0.0720 -0.5218
  457SOL    HW2 1371   1.596   2.979   0.580 -0.5621 -0.1569  0.5631
  458SOL     OW 1372   2.671   0.118   1.096  0.4397 -0.0399 -0.0531
  458SOL    HW1 1373   2.637   0.020   1.088 -1.0093 -0.7142 -4.0243
  458SOL    HW2 1374   2.748   0.136   1.161  2.2480 -0.3457  0.0565
  459SOL     OW 1375   2.306   0.699   2.974 -0.0830 -0.1480  0.0078
  459SOL    HW1 1376   2.219   0.711   3.024  1.4831  1.1368 -1.8176
  459SOL    HW2 1377   2.358   0.621   3.010 -2.0723  0.9221 -2.7304
  460SOL     OW 1378   2.687   2.624   2.778 -0.1016 -0.2083 -0.5066
  460SOL    HW1 1379   2.595   2.654   2.747  0.7003 -0.7202  0.3300
  460SOL    HW2 1380   2.688   2.639   2.880 -0.0016  0.9420  0.6127
  461SOL     OW 1381   0.680   2.027   0.214 -0.1385 -0.2759 -0.0549
  461SOL    HW1 1382   0.746   2.088   0.264 -1.5437  3.3559 -0.8250
  461SOL    HW2 1383   0.659   1.942   0.269 -0.4983  2.1505 -1.9699
  462SOL     OW 1384   2.313   2.211   0.976 -0.8429  0.2281 -0.3565
  462SOL    HW1 1385   2.263   2.162   1.052  0.2384 -0.4990  1.9128
  462SOL    HW2 1386   2.248   2.261   0.919  0.9338  1.6568  0.8740
  463SOL     OW 1387   2.956   0.669   0.688  0.4679  0.0822 -0.2162
  463SOL    HW1 1388   2.937   0.732   0.768 -1.4213  0.4832 -1.1339
  463SOL    HW2 1389   2.992   0.579   0.726 -2.5734 -2.2415 -1.2029
  464SOL     OW 1390   1.269   2.885   0.535  0.0513  0.2912  0.3786
  464SOL    HW1 1391   1.185   2.877   0.480 -0.6642 -0.6246  3.0194
  464SOL    HW2 1392   1.270   2.805   0.601 -1.1068 -4.0594  1.8105
  465SOL     OW 1393   2.157   1.197   0.596 -0.6265  0.2361 -0.2941
  465SOL    HW1 1394   2.144   1.116   0.656  1.6604  1.4174 -4.7469
  465SOL    HW2 1395   2.087   1.209   0.522 -2.7818 -3.2273  0.5865
  466SOL     OW 1396   2.537   0.099   3.005 -0.4773  0.1253  0.0773
  466SOL    HW1 1397   2.483   0.147   2.933 -0.2296 -2.9866 -2.6238
  466SOL    HW2 1398   2.533   0.138   3.098  2.1086 -0.4830 -1.9275
  467SOL     OW 1399   1.014   1.059   1.408  0.2193 -0.4654 -0.5207
  467SOL    HW1 1400   1.001   1.082   1.510  0.1254 -1.1022  2.0033
  467SOL    HW2 1401   1.061   0.970   1.392 -1.6220  1.8744  1.1130
  468SOL     OW 1402   0.386   0.752   2.276 -0.3343  0.4178  0.1394
  468SOL    HW1 1403   0.325   0.694   2.222  1.6469  1.3516  0.2161
  468SOL    HW2 1404   0.345   0.772   2.367  0.4418  1.6690  0.2126
  469SOL     OW 1405   0.517   2.760   2.927 -0.1667  0.3099  0.2405
  469SOL    HW1 1406   0.474   2.672   2.902  1.0930  1.3144  0.3323
  469SOL    HW2 1407   0.600   2.742   2.980 -2.7996  1.8846  1.5186
  470SOL     OW 1408   2.279   1.197   2.806  0.2140 -0.1425  0.3502
  470SOL    HW1 1409   2.279   1.145   2.893  1.7086  0.5376  0.4773
  470SOL    HW2 1410   2.378   1.210   2.776  3.3583  1.1259 -2.9474
  471SOL     OW 1411   2.786   1.186   2.503 -0.6608 -0.1246  0.2471
  471SOL    HW1 1412   2.883   1.179   2.470 -1.1922  1.2628  1.3839
  471SOL    HW2 1413   2.783   1.238   2.590  0.7162 -0.0517 -1.9053
  472SOL     OW 1414   0.453   2.386   0.277  0.2838  0.0033 -0.2917
  472SOL    HW1 1415   0.365   2.439   0.289 -1.9031  0.8502 -0.4594
  472SOL    HW2 1416   0.523   2.401   0.351  0.8373 -2.8038 -1.3571
  473SOL     OW 1417   0.648   0.092   2.879  0.1394  0.3547  0.2305
  473SOL    HW1 1418   0.615   0.005   2.837  1.7597  0.9719 -1.3380
  473SOL    HW2 1419   0.586   0.143   2.942 -1.4387 -1.1462  2.9109
  474SOL     OW 1420   1.721   0.671   2.377 -0.0600 -0.8871  0.2224
  474SOL    HW1 1421   1.649   0.724   2.329  1.2629  1.7275  2.8106
  474SOL    HW2 1422   1.721   0.573   2.348  1.4570  1.4584  3.2515
  475SOL     OW 1423   0.780   2.610   0.031  0.1599 -0.2241 -0.4008
  475SOL    HW1 1424   0.777   2.513   0.063 -0.1322  0.8873 -0.1005
  475SOL    HW2 1425   0.837   2.608   3.060  0.2680 -1.5175  2.1275
  476SOL     OW 1426   0.387   1.143   0.968  0.2402 -0.6334 -0.4549
  476SOL    HW1 1427   0.467   1.093   1.008 -0.5318  3.4793 -0.0202
  476SOL    HW2 1428   0.400   1.239   1.010  1.0118 -1.1997  1.3795
  477SOL     OW 1429   1.580   2.286   1.232  0.5249 -0.0869  0.0392
  477SOL    HW1 1430   1.488   2.308   1.272 -0.8339  2.4872 -1.0174
  477SOL    HW2 1431   1.596   2.339   1.144  1.1029 -1.0853  2.3755
  478SOL     OW 1432   0.641   1.502   2.311 -0.2943  0.7001 -0.4819
  478SOL    HW1 1433   0.736   1.485   2.351  1.7127  0.4801  3.9666
  478SOL    HW2 1434   0.607   1.597   2.329  1.0488  2.4076  0.8848
  479SOL     OW 1435   0.271   2.954   1.102 -0.3611 -0.1889  0.1836
  479SOL    HW1 1436   0.248   2.953   1.197  0.7065  0.5499 -1.5025
  479SOL    HW2 1437   0.321   3.039   1.076 -1.1850 -1.5179  0.1645
  480SOL     OW 1438   2.820   2.737   0.282  0.0628 -0.8060 -0.3685
  480SOL    HW1 1439   2.739   2.779   0.329 -2.2791 -1.0775  3.0197
  480SOL    HW2 1440   2.899   2.801   0.289  1.9219  0.3293  2.3106
  481SOL     OW 1441   3.095   2.854   1.084  0.1838  0.1020  0.3611
  481SOL    HW1 1442   0.076   2.900   1.089  0.6549 -1.9765 -0.6361
  481SOL    HW2 1443   3.061   2.842   1.177  1.4404 -0.8063  0.4298
  482SOL     OW 1444   1.642   2.603   1.894 -0.3649 -0.5211  0.1270
  482SOL    HW1 1445   1.642   2.501   1.885  0.0200  0.3088  0.7437
  482SOL    HW2 1446   1.612   2.641   1.801 -0.3819  0.2769  1.0914
  483SOL     OW 1447   0.614   1.513   2.688  0.2131 -0.3280  0.4242
  483SOL    HW1 1448   0.693   1.459   2.722  0.3454  0.3228  3.0856
  483SOL    HW2 1449   0.649   1.596   2.644  1.8542 -1.6765  0.5280
  484SOL     OW 1450   0.903   1.430   2.415 -0.2993 -0.2084 -0.6479
  484SOL    HW1 1451   0.917   1.335   2.386 -1.1376  2.2971 -0.6820
  484SOL    HW2 1452   0.964   1.447   2.495 -2.2678 -1.3901 -1.0576
  485SOL     OW 1453   2.763   3.103   0.503  0.7067  0.0901 -0.1162
  485SOL    HW1 1454   2.848   3.105   0.556 -1.8832 -1.3571 -0.9117
  485SOL    HW2 1455   2.768   0.027   0.411 -1.6667  0.5294 -0.6637
  486SOL     OW 1456   1.583   2.740   0.765 -0.1065 -0.1241 -0.1461
  486SOL    HW1 1457   1.658   2.774   0.827  3.3440  2.5227  2.6727
  486SOL    HW2 1458   1.518   2.815   0.738  0.0444 -0.2382  0.9271
  487SOL     OW 1459   0.926   2.514   0.937  0.1130  0.2107 -0.5030
  487SOL    HW1 1460   0.913   2.436   0.873 -3.5781 -0.2504 -0.1726
  487SOL    HW2 1461   0.963   2.598   0.894  0.0557 -0.6674  1.5608
  488SOL     OW 1462   2.122   1.197   0.157 -0.0408 -0.0282  0.3047
  488SOL    HW1 1463   2.138   1.292   0.191 -0.3500  1.7296  0.9947
  488SOL    HW2 1464   2.028   1.182   0.123 -0.1520 -1.2231  2.3577
  489SOL     OW 1465   1.377   2.833   1.039 -0.5963  0.0286  0.3147
  489SOL    HW1 1466   1.354   2.818   1.138 -0.5138  1.1454 -2.4946
  489SOL    HW2 1467   1.426   2.923   1.024 -0.0512  2.6142 -1.3611
  490SOL     OW 1468   0.734   1.157   0.172  0.3275 -0.4561  0.1725
  490SOL    HW1 1469   0.715   1.212   0.088  1.0386 -1.1208 -2.1836
  490SOL    HW2 1470   0.665   1.184   0.247 -1.2207 -1.4295  1.4524
  491SOL     OW 1471   0.929   3.009   0.795  0.1004 -0.3461 -0.2173
  491SOL    HW1 1472   1.027   3.031   0.794 -1.2381 -1.7082  2.2054
  491SOL    HW2 1473   0.908   2.943   0.870 -1.5822  0.2096  1.8394
  492SOL     OW 1474   1.233   1.344   2.194 -0.4640  0.4515 -0.1795
  492SOL    HW1 1475   1.247   1.388   2.291  0.4307  0.2639  3.5667
  492SOL    HW2 1476   1.218   1.409   2.117 -1.6408  3.6707  1.0589
  493SOL     OW 1477   0.238   2.537   0.241  0.2716  0.0426 -0.4192
  493SOL    HW1 1478   0.148   2.487   0.231 -1.6953  0.7178  0.9292
  493SOL    HW2 1479   0.220   2.628   0.283 -1.3589 -3.6201  0.5201
  494SOL     OW 1480   2.230   1.756   0.272  0.6095  0.5769 -0.2571
  494SOL    HW1 1481   2.319   1.801   0.289 -2.1720  0.0466 -1.6570
  494SOL    HW2 1482   2.188   1.776   0.178 -3.6452 -1.8607 -0.9956
  495SOL     OW 1483   2.791   1.194   3.011  0.0763 -0.2787  0.2461
  495SOL    HW1 1484   2.878   1.249   3.016  0.5267 -1.4827 -0.0219
  495SOL    HW2 1485   2.795   1.104   3.064 -1.2542 -1.5517  1.7661
  496SOL     OW 1486   2.501   0.014   1.712  0.3845 -0.2026 -0.1702
  496SOL    HW1 1487   2.473   0.110   1.714  2.8827 -0.8307  2.5912
  496SOL    HW2 1488   2.437   3.061   1.665  1.0524  1.9094  1.3004
  497SOL     OW 1489   2.665   1.016   0.592  0.0180 -0.5395  0.4004
  497SOL    HW1 1490   2.683   0.919   0.617  1.6436  1.5304  0.0954
  497SOL    HW2 1491   2.570   1.033   0.565  0.7626  0.3574  0.1926
  498SOL     OW 1492   3.009   2.073   2.575 -0.2178 -0.2404 -0.2700
  498SOL    HW1 1493   3.024   2.059   2.679  1.0748  1.8384  2.4860
  498SOL    HW2 1494   3.048   2.163   2.552 -1.3670  2.7842 -1.1176
  499SOL     OW 1495   0.812   2.209   0.358 -0.2465 -0.0823  0.1508
  499SOL    HW1 1496   0.887   2.137   0.380 -1.9477 -2.1857  0.3082
  499SOL    HW2 1497   0.842   2.306   0.354 -2.9064 -0.0474  1.2580
  500SOL     OW 1498   0.903   0.131   2.548 -0.0223 -0.2737 -0.0829
  500SOL    HW1 1499   0.887   0.207   2.617 -2.7971  1.2780  0.2421
  500SOL    HW2 1500   0.817   0.077   2.538  1.3126 -0.8824  0.3703
  501SOL     OW 1501   1.135   0.011   1.597  0.2589 -0.0454 -0.2145
  501SOL    HW1 1502   1.226   0.002   1.553 -1.0290 -0.9082 -2.2695
  501SOL    HW2 1503   1.116   0.110   1.607 -0.6915 -3.9187 -0.2276
  502SOL     OW 1504   3.038   0.219   2.102  0.0509  0.3307  0.2045
  502SOL    HW1 1505   0.015   0.177   2.063  1.9925 -1.5789 -1.4293
  502SOL    HW2 1506   3.036   0.318   2.082  0.1117 -2.3151 -1.2968
  503SOL     OW 1507   2.472   1.656   2.196 -0.3739  0.5474  0.3619
  503SOL    HW1 1508   2.471   1.705   2.107  2.0760  2.4380  0.8470
  503SOL    HW2 1509   2.434   1.719   2.261  1.4390 -2.0582 -1.9793
  504SOL     OW 1510   1.615   0.634   1.928 -0.6037 -0.0475  0.0508
  504SOL    HW1 1511   1.544   0.557   1.910 -1.9481 -0.8029 -1.2854
  504SOL    HW2 1512   1.707   0.587   1.929  0.1575  0.0280  0.1198
  505SOL     OW 1513   2.810   1.006   1.441 -0.4140 -0.4856 -0.1832
  505SOL    HW1 1514   2.853   1.086   1.484 -0.7452 -0.3421  0.9586
  505SOL    HW2 1515   2.871   0.964   1.367  0.1737 -0.1428  0.1330
  506SOL     OW 1516   0.509   1.267   2.449  0.3068  0.0601 -0.2469
  506SOL    HW1 1517   0.431   1.244   2.387  0.7997  0.3256  0.5135
  506SOL    HW2 1518   0.543   1.360   2.416  0.4405  2.7649  0.2558
  507SOL     OW 1519   0.127   2.974   2.197  0.2459  0.3501 -0.5022
  507SOL    HW1 1520   0.212   3.022   2.225 -1.1478  0.0151  1.4954
  507SOL    HW2 1521   0.135   2.871   2.213  0.7676 -1.4436 -0.4093
  508SOL     OW 1522   1.166   0.839   1.408  0.4685  0.4598 -0.4665
  508SOL    HW1 1523   1.253   0.848   1.462  0.5873  1.4620 -0.5667
  508SOL    HW2 1524   1.154   0.743   1.377  0.0248  2.8016  1.6958
  509SOL     OW 1525   0.887   1.666   1.426 -0.2793  0.1111  0.3207
  509SOL    HW1 1526   0.853   1.710   1.515  0.9613  1.0366 -1.8819
  509SOL    HW2 1527   0.988   1.672   1.411  2.7721 -2.0379 -0.9162
  510SOL     OW 1528   2.556   1.062   2.653  0.5233 -0.2186  0.7559
  510SOL    HW1 1529   2.556   1.094   2.748  0.7086 -4.0890 -2.0120
  510SOL    HW2 1530   2.624   1.111   2.600 -0.4837 -0.7998 -1.2789
  511SOL     OW 1531   0.282   1.654   1.207  0.0233  0.4491  0.2184
  511SOL    HW1 1532   0.188   1.665   1.168  1.2838 -2.3332  1.5216
  511SOL    HW2 1533   0.289   1.576   1.273  0.2694  0.9461  1.5657
  512SOL     OW 1534   2.571   2.257   0.901  0.2855 -0.1171  0.3493
  512SOL    HW1 1535   2.568   2.326   0.826 -0.8688  0.4616  0.8027
  512SOL    HW2 1536   2.482   2.248   0.943  2.3612  2.1203  0.1157
  513SOL     OW 1537   3.019   1.322   2.981 -0.0864 -0.1674  0.1189
  513SOL    HW1 1538   3.093   1.256   2.989 -0.0513  1.1178  0.0817
  513SOL    HW2 1539   3.047   1.413   3.020  1.9435  0.8072  0.0889
  514SOL     OW 1540   0.470   2.082   2.950  0.2385  0.0120 -0.3014
  514SOL    HW1 1541   0.451   2.126   2.858 -1.2316 -0.5563 -0.4746
  514SOL    HW2 1542   0.458   2.156   3.022 -0.1345  1.0149 -0.2466
  515SOL     OW 1543   1.691   1.567   2.118 -0.9010  0.0948  0.3519
  515SOL    HW1 1544   1.747   1.479   2.129  1.6098  1.6130  0.8359
  515SOL    HW2 1545   1.660   1.610   2.203 -0.5581  0.9301 -0.8598
  516SOL     OW 1546   2.151   2.245   0.025 -0.1340 -0.0584 -0.6386
  516SOL    HW1 1547   2.161   2.311   3.061 -2.1609 -0.9572  2.2600
  516SOL    HW2 1548   2.185   2.156   3.103  0.2960 -1.1989  1.1502
  517SOL     OW 1549   1.524   1.161   0.311 -0.3831 -0.3639  0.3537
  517SOL    HW1 1550   1.520   1.095   0.386  0.6702  0.7036  0.1430
  517SOL    HW2 1551   1.514   1.113   0.220  1.2342 -0.1766 -0.9819
  518SOL     OW 1552   2.284   2.768   1.890 -0.1393 -0.0183  0.0928
  518SOL    HW1 1553   2.281   2.668   1.904 -0.6757  2.3248  0.4357
  518SOL    HW2 1554   2.275   2.791   1.791  0.0385  0.6465  2.1926
  519SOL     OW 1555   1.659   2.523   1.508 -0.0374  0.1826 -0.2683
  519SOL    HW1 1556   1.636   2.547   1.415  0.1096  1.7764 -0.2054
  519SOL    HW2 1557   1.615   2.588   1.578  0.2693  2.2194  1.9729
  520SOL     OW 1558   2.449   2.755   2.702  0.2511 -0.1634 -0.4021
  520SOL    HW1 1559   2.434   2.857   2.678 -2.4064  2.5915 -1.7082
  520SOL    HW2 1560   2.364   2.699   2.692  0.5820 -0.4054  1.3972
  521SOL     OW 1561   0.149   1.072   2.021 -0.6038 -0.5678  0.3130
  521SOL    HW1 1562   0.110   1.157   2.060  0.6641  2.1545 -2.7560
  521SOL    HW2 1563   0.225   1.037   2.080 -0.4122  0.9227 -0.0994
  522SOL     OW 1564   0.943   0.323   1.877 -0.0582  0.1560 -0.3827
  522SOL    HW1 1565   0.879   0.318   1.954 -0.7283  0.5774  0.3669
  522SOL    HW2 1566   0.892   0.356   1.796  1.7341 -2.0642 -0.8690
  523SOL     OW 1567   0.565   2.411   0.842 -0.0482 -0.2294 -0.0660
  523SOL    HW1 1568   0.614   2.340   0.789 -0.4943  2.8356 -1.1428
  523SOL    HW2 1569   0.462   2.396   0.827 -1.8577  1.0616 -2.0242
  524SOL     OW 1570   1.491   2.474   0.460  0.2428 -0.5319  0.3626
  524SOL    HW1 1571   1.578   2.510   0.502  3.2276 -0.7634  0.2145
  524SOL    HW2 1572   1.456   2.389   0.507 -2.1350 -0.7435  0.0235
  525SOL     OW 1573   2.352   0.686   1.318 -0.2777 -0.8748 -0.3329
  525SOL    HW1 1574   2.390   0.731   1.404 -0.5081  1.8653  2.7760
  525SOL    HW2 1575   2.354   0.751   1.238 -0.7869  1.2455  0.6129
  526SOL     OW 1576   1.027   2.704   0.763 -0.6644 -0.2100  0.0197
  526SOL    HW1 1577   0.980   2.744   0.679 -0.1920  1.0286 -2.4158
  526SOL    HW2 1578   1.115   2.662   0.729 -2.0834  0.4593 -1.0256
  527SOL     OW 1579   2.273   2.075   0.715  0.0360  0.0963 -0.3427
  527SOL    HW1 1580   2.313   2.086   0.811  2.4403  1.5874  2.9264
  527SOL    HW2 1581   2.237   2.163   0.683  1.1078 -1.0573  1.3083
  528SOL     OW 1582   2.319   0.661   0.488 -0.1618 -0.2077 -0.0315
  528SOL    HW1 1583   2.280   0.750   0.458  1.4295  0.5286  0.2208
  528SOL    HW2 1584   2.257   0.583   0.479  0.2434  0.2482  0.3493
  529SOL     OW 1585   1.137   1.119   2.318 -0.0988  0.2857 -0.2093
  529SOL    HW1 1586   1.142   1.133   2.416  2.1344  0.5639 -1.9598
  529SOL    HW2 1587   1.161   1.206   2.270  2.0339  2.1302  0.4254
  530SOL     OW 1588   2.497   0.593   0.084  0.1030  0.0015  0.3592
  530SOL    HW1 1589   2.585   0.588   0.028  1.3841 -0.6431  0.0478
  530SOL    HW2 1590   2.515   0.659   0.160 -0.3010 -0.3629  0.3293
  531SOL     OW 1591   1.004   1.105   0.228 -0.4047 -0.5286 -0.0286
  531SOL    HW1 1592   0.910   1.126   0.212 -0.3625 -1.8385  2.2894
  531SOL    HW2 1593   1.042   1.064   0.146 -0.4149  3.0663  2.0810
  532SOL     OW 1594   1.747   0.307   0.599 -0.1093  0.8113  0.0527
  532SOL    HW1 1595   1.839   0.339   0.626 -0.4314 -0.5370  0.1985
  532SOL    HW2 1596   1.688   0.385   0.575  0.3079 -2.7487  3.6154
  533SOL     OW 1597   1.389   1.107   2.143 -0.2314 -0.3158 -0.0510
  533SOL    HW1 1598   1.327   1.192   2.139 -2.0717  0.6924 -0.5116
  533SOL    HW2 1599   1.335   1.026   2.105  0.8201 -0.3623 -0.0558
  534SOL     OW 1600   2.209   0.187   2.614  0.0537  0.2965 -0.1653
  534SOL    HW1 1601   2.178   0.284   2.586 -1.4044  1.9794  3.4043
  534SOL    HW2 1602   2.280   0.192   2.687 -0.2783 -0.8473 -0.3547
  535SOL     OW 1603   0.631   3.010   0.305 -0.0622  0.4959  0.5872
  535SOL    HW1 1604   0.711   3.064   0.332 -1.7922  0.3770 -0.4342
  535SOL    HW2 1605   0.643   2.910   0.325  1.4686 -0.5907 -0.5296
  536SOL     OW 1606   0.822   2.836   0.975  0.1725 -0.0307 -0.2851
  536SOL    HW1 1607   0.754   2.771   0.935 -0.5396 -2.5698 -0.8893
  536SOL    HW2 1608   0.882   2.796   1.047 -0.1140  1.5638 -0.2467
  537SOL     OW 1609   1.557   1.068   1.193 -0.0310  0.3126  0.1986
  537SOL    HW1 1610   1.588   0.979   1.154  1.7763 -0.9441  1.1692
  537SOL    HW2 1611   1.590   1.084   1.283 -1.0844  0.9232 -4.0555
  538SOL     OW 1612   2.568   2.339   0.365 -0.4006 -0.6237 -0.1368
  538SOL    HW1 1613   2.624   2.288   0.298  1.9343  5.0213  0.5097
  538SOL    HW2 1614   2.550   2.433   0.321 -0.7608  1.0034 -0.5354
  539SOL     OW 1615   2.687   2.155   0.119 -0.2360  0.1049  0.4066
  539SOL    HW1 1616   2.656   2.086   0.052 -0.1705  0.0535  0.0605
  539SOL    HW2 1617   2.767   2.133   0.180  0.1350 -1.0931  0.6838
  540SOL     OW 1618   0.316   2.706   1.444 -0.3235 -0.1045 -0.5420
  540SOL    HW1 1619   0.247   2.631   1.459  1.1614 -2.9139 -0.5725
  540SOL    HW2 1620   0.280   2.793   1.406 -0.2692  0.8714  0.0780
  541SOL     OW 1621   2.485   2.858   2.030  0.3788 -0.3315 -0.2909
  541SOL    HW1 1622   2.467   2.936   2.093 -0.7781  2.0106 -0.9989
  541SOL    HW2 1623   2.397   2.827   1.985 -0.0836 -0.8649  0.4683
  542SOL     OW 1624   2.871   0.480   2.289 -0.9241  0.5459 -0.1142
  542SOL    HW1 1625   2.852   0.574   2.319  2.0301  0.6337  2.5833
  542SOL    HW2 1626   2.916   0.483   2.198  2.3860 -0.4470 -1.6481
  543SOL     OW 1627   0.986   0.288   0.616 -0.4076 -0.0592 -0.7061
  543SOL    HW1 1628   1.066   0.347   0.591 -2.8378 -1.3042 -1.9546
  543SOL    HW2 1629   0.989   0.196   0.576 -3.3319  1.3633  1.5016
  544SOL     OW 1630   2.927   2.504   0.904  0.0650  0.3158 -0.3670
  544SOL    HW1 1631   2.983   2.447   0.841 -0.6725  1.4043 -1.3898
  544SOL    HW2 1632   2.900   2.444   0.983 -0.0560  1.8253  0.7998
  545SOL     OW 1633   0.940   1.966   0.678 -0.6238  0.5794  0.3003
  545SOL    HW1 1634   0.853   1.911   0.675  1.0278  2.5504  0.4282
  545SOL    HW2 1635   1.024   1.905   0.675  1.2660 -0.0608  1.3885
  546SOL     OW 1636   2.118   0.242   1.737 -0.3297  0.0360  0.1832
  546SOL    HW1 1637   2.047   0.310   1.712  2.1624 -4.0699  1.9107
  546SOL    HW2 1638   2.170   0.274   1.820 -1.0002  1.5128 -1.8906
  547SOL     OW 1639   0.152   0.319   2.363  0.3865  0.7696 -0.5495
  547SOL    HW1 1640   0.108   0.413   2.350 -0.9901  0.5904 -0.3052
  547SOL    HW2 1641   0.095   0.256   2.417 -0.2725  0.6205 -0.2700
  548SOL     OW 1642   2.164   1.902   2.563  0.3971 -0.8216  0.1855
  548SOL    HW1 1643   2.104   1.839   2.504 -0.3241 -0.7433 -1.2404
  548SOL    HW2 1644   2.112   1.989   2.573 -1.2225 -1.5824 -1.1495
  549SOL     OW 1645   3.082   0.766   0.911 -0.2906 -0.1553 -0.2916
  549SOL    HW1 1646   0.014   0.852   0.873 -2.0350 -0.2011  0.3197
  549SOL    HW2 1647   3.058   0.778   1.007  2.4198 -1.8003 -3.0584
  550SOL     OW 1648   1.515   1.307   0.597  0.2698 -0.3527  0.2222
  550SOL    HW1 1649   1.489   1.222   0.542 -3.3858  0.0669  2.0976
  550SOL    HW2 1650   1.570   1.376   0.543 -0.4877  0.7632 -0.4715
  551SOL     OW 1651   1.183   0.192   1.243  0.3439 -0.0072  0.1352
  551SOL    HW1 1652   1.089   0.163   1.273  0.1687  0.0205  2.8665
  551SOL    HW2 1653   1.185   0.227   1.148  0.8516  0.3344  1.8744
  552SOL     OW 1654   2.570   2.475   1.965  0.4629  0.2102 -0.1562
  552SOL    HW1 1655   2.477   2.473   1.923  2.6928  0.6143  0.1236
  552SOL    HW2 1656   2.570   2.529   2.057  0.3239  1.0216  1.3548
  553SOL     OW 1657   2.924   2.989   2.918  0.4115 -0.1767 -0.6793
  553SOL    HW1 1658   2.912   2.892   2.901 -0.3847 -0.3904  0.8311
  553SOL    HW2 1659   3.002   3.022   2.862 -1.0503  0.3183 -0.9488
  554SOL     OW 1660   1.100   2.728   1.464 -0.7392 -0.5267  0.0136
  554SOL    HW1 1661   1.126   2.638   1.501  0.2873  0.7867 -1.0335
  554SOL    HW2 1662   1.071   2.787   1.542  1.8878 -0.1350  0.1273
  555SOL     OW 1663   2.548   2.678   1.557 -0.0798 -0.2707  0.4493
  555SOL    HW1 1664   2.575   2.700   1.652  1.5506 -2.3547 -2.8478
  555SOL    HW2 1665   2.627   2.637   1.509 -0.1610 -2.9830 -2.5217
  556SOL     OW 1666   1.096   0.302   2.835 -0.4897  0.2608 -0.1376
  556SOL    HW1 1667   1.156   0.233   2.787  0.9933 -0.8622  2.3153
  556SOL    HW2 1668   1.106   0.288   2.935  1.4568  0.2775  0.7254
  557SOL     OW 1669   0.215   1.845   2.424 -0.0055 -0.0106 -0.2522
  557SOL    HW1 1670   0.247   1.794   2.340  0.4429  1.1841  2.0855
  557SOL    HW2 1671   0.115   1.859   2.417  0.4892 -0.1439 -0.3473
  558SOL     OW 1672   2.082   1.310   2.671  0.0469  0.5609 -0.1124
  558SOL    HW1 1673   2.156   1.269   2.732  0.3830 -1.9415 -1.9779
  558SOL    HW2 1674   2.093   1.413   2.666 -0.3699  0.0285  0.6961
  559SOL     OW 1675   2.412   2.076   2.167  0.2496 -0.3147 -0.3632
  559SOL    HW1 1676   2.498   2.047   2.122 -0.6304  3.5843  0.4136
  559SOL    HW2 1677   2.344   2.104   2.096  1.5926  1.4105 -0.6530
  560SOL     OW 1678   0.049   0.583   2.342 -0.4405  1.2453  0.0193
  560SOL    HW1 1679   0.033   0.662   2.397  1.2770 -1.1539 -2.3325
  560SOL    HW2 1680   3.068   0.537   2.327  0.8274 -0.9599 -0.9438
  561SOL     OW 1681   0.796   0.288   0.423 -0.1646 -0.1215 -0.4511
  561SOL    HW1 1682   0.861   0.292   0.503  2.6733 -0.3485 -0.2245
  561SOL    HW2 1683   0.705   0.335   0.440 -0.0325  2.2578  1.0142
  562SOL     OW 1684   0.769   1.412   1.662 -0.1391 -0.5373  0.3696
  562SOL    HW1 1685   0.755   1.422   1.560 -1.1277 -1.0717 -1.4860
  562SOL    HW2 1686   0.680   1.432   1.706  0.6851  3.2613 -1.2145
  563SOL     OW 1687   1.492   2.832   0.015  0.4003 -0.1253  0.3897
  563SOL    HW1 1688   1.488   2.859   0.112 -2.4352  3.3308  1.7314
  563SOL    HW2 1689   1.399   2.846   3.082 -2.3833  0.9920 -1.1343
  564SOL     OW 1690   0.113   2.111   0.639  0.6497 -0.4678  0.9410
  564SOL    HW1 1691   0.182   2.052   0.595 -0.9460 -0.5886 -2.0976
  564SOL    HW2 1692   0.096   2.090   0.735  0.2746  0.7358 -1.8418
  565SOL     OW 1693   0.436   2.208   2.273 -0.5147  0.1749  0.3148
  565SOL    HW1 1694   0.354   2.242   2.220 -0.3378  1.1826 -1.7558
  565SOL    HW2 1695   0.522   2.257   2.247  0.8993 -1.9666  0.1898
  566SOL     OW 1696   1.387   2.717   2.199 -0.0936 -0.1435  0.2176
  566SOL    HW1 1697   1.442   2.633   2.207  0.6695  1.2667  0.3688
  566SOL    HW2 1698   1.384   2.744   2.100  1.0273  2.6731 -0.7726
  567SOL     OW 1699   2.160   2.051   1.159  0.1266  0.0168  0.1491
  567SOL    HW1 1700   2.089   2.065   1.088  2.4180  0.3105 -1.5079
  567SOL    HW2 1701   2.119   2.052   1.255 -0.9337 -1.6879  1.0337
  568SOL     OW 1702   2.159   0.848   0.356 -0.2308 -0.1981 -0.2903
  568SOL    HW1 1703   2.121   0.838   0.260  1.1439 -0.9124 -1.3142
  568SOL    HW2 1704   2.115   0.922   0.413  0.1704  1.8604  0.3101
  569SOL     OW 1705   0.054   1.133   2.705  0.0998 -0.2431  0.0426
  569SOL    HW1 1706   0.026   1.230   2.691  1.4707 -1.5134 -0.9112
  569SOL    HW2 1707   0.078   1.114   2.803  0.6058  2.2370  2.4166
  570SOL     OW 1708   3.004   2.900   1.352 -0.1195 -0.0423 -0.5486
  570SOL    HW1 1709   2.967   2.981   1.398  1.0504 -1.9934 -1.0375
  570SOL    HW2 1710   2.993   2.822   1.421  1.2087  1.5089  1.0129
  571SOL     OW 1711   0.197   0.595   1.692 -0.8018 -0.0073  0.3728
  571SOL    HW1 1712   0.193   0.522   1.623  1.5713  1.7998  0.4034
  571SOL    HW2 1713   0.290   0.639   1.687 -1.2650  0.4013  2.1467
  572SOL     OW 1714   3.073   2.332   0.736 -0.6070 -0.2518 -0.0216
  572SOL    HW1 1715   0.043   2.388   0.707  2.2796  2.1442 -1.8810
  572SOL    HW2 1716   3.097   2.257   0.797  2.6717  2.2167  0.1523
  573SOL     OW 1717   0.685   0.732   0.086  0.2149  0.4098  0.7517
  573SOL    HW1 1718   0.620   0.701   0.011 -3.8978 -0.9845 -1.9985
  573SOL    HW2 1719   0.646   0.716   0.180  2.5400  2.0269  2.8274
  574SOL     OW 1720   2.670   2.679   3.053  0.5756 -0.5424 -0.5481
  574SOL    HW1 1721   2.654   2.775   3.085 -0.9941  1.2346 -2.3282
  574SOL    HW2 1722   2.753   2.635   3.095 -0.9952 -1.8348  0.8520
  575SOL     OW 1723   1.163   1.772   1.328 -0.1147 -0.2140 -0.2813
  575SOL    HW1 1724   1.122   1.771   1.234 -1.5255 -2.3297 -0.8443
  575SOL    HW2 1725   1.170   1.867   1.372  0.4645  1.9999  2.3643
  576SOL     OW 1726   0.195   2.963   1.399  0.4372 -0.0090  0.0930
  576SOL    HW1 1727   0.203   3.035   1.475 -1.5120  2.2846  1.9652
  576SOL    HW2 1728   0.096   2.947   1.376 -1.7228 -0.1482 -2.0217
  577SOL     OW 1729   1.960   1.450   1.543  0.2192  0.1924 -0.4564
  577SOL    HW1 1730   1.997   1.543   1.528 -0.0408 -0.0506 -0.1783
  577SOL    HW2 1731   1.870   1.446   1.495  0.4793  3.3913  1.9955
  578SOL     OW 1732   1.398   0.043   0.128  0.3259  0.5558 -0.5501
  578SOL    HW1 1733   1.383   0.028   0.030  1.4909  0.5793  1.1666
  578SOL    HW2 1734   1.475   0.105   0.146  0.8420  0.2814  1.0763
  579SOL     OW 1735   2.772   1.596   2.548  0.2097 -0.0070  0.4332
  579SOL    HW1 1736   2.810   1.508   2.581 -0.4442 -0.8003  0.5356
  579SOL    HW2 1737   2.733   1.581   2.453 -1.0316 -1.8456 -1.1430
  580SOL     OW 1738   1.427   0.880   1.492  0.7071 -0.4788 -0.4362
  580SOL    HW1 1739   1.407   0.882   1.589 -1.0794 -1.2173  1.1526
  580SOL    HW2 1740   1.480   0.801   1.457  3.5637 -1.8159  1.0760
  581SOL     OW 1741   0.630   1.434   1.420 -0.2268  0.0168  0.0918
  581SOL    HW1 1742   0.696   1.449   1.347 -1.0193 -2.4353  4.5620
  581SOL    HW2 1743   0.608   1.517   1.476 -0.2860  1.9371  1.2145
  582SOL     OW 1744   2.940   3.034   1.857  0.2513  0.1417 -0.1064
  582SOL    HW1 1745   2.940   3.053   1.956  1.4016  0.1808  0.6218
  582SOL    HW2 1746   2.847   3.013   1.822  1.2018  0.1186 -1.1545
  583SOL     OW 1747   2.239   0.853   1.756 -0.1171  0.2056  0.9130
  583SOL    HW1 1748   2.241   0.752   1.733  0.9573  1.4601 -0.0147
  583SOL    HW2 1749   2.315   0.886   1.813 -0.3129  0.1077 -0.6404
  584SOL     OW 1750   1.522   2.230   2.954 -0.0620 -0.5831  0.1148
  584SOL    HW1 1751   1.463   2.184   2.883  0.1143 -0.9966 -1.0717
  584SOL    HW2 1752   1.468   2.306   2.997 -0.8430  0.4313  1.2508
  585SOL     OW 1753   0.595   2.720   0.189 -0.0550  0.4204 -0.0756
  585SOL    HW1 1754   0.527   2.757   0.124 -0.1092 -1.5643 -1.3688
  585SOL    HW2 1755   0.680   2.691   0.145  0.2193  1.1671 -0.4983
  586SOL     OW 1756   1.917   2.573   2.478  0.0880 -0.0113 -0.0074
  586SOL    HW1 1757   1.948   2.528   2.563  3.2245 -0.2917  2.7064
  586SOL    HW2 1758   1.934   2.512   2.399 -0.2247 -1.1746 -2.2422
  587SOL     OW 1759   2.725   1.690   0.576 -0.4495  0.6084  0.1406
  587SOL    HW1 1760   2.731   1.705   0.474 -0.2391  0.2004 -1.6224
  587SOL    HW2 1761   2.653   1.748   0.617  0.8696 -1.3172 -1.7346
  588SOL     OW 1762   2.148   0.316   1.179  0.1885 -0.0533 -0.0702
  588SOL    HW1 1763   2.090   0.243   1.137  1.2392 -1.6504 -1.3591
  588SOL    HW2 1764   2.248   0.286   1.176  0.1795  0.6741 -1.0078
  589SOL     OW 1765   0.973   0.656   0.437  0.3895  0.3360 -0.2817
  589SOL    HW1 1766   1.032   0.585   0.479  0.7486 -0.9322  0.9804
  589SOL    HW2 1767   0.962   0.635   0.333  2.6644 -1.6895 -1.7962
  590SOL     OW 1768   2.470   1.914   0.270 -0.1494 -0.3602  0.2864
  590SOL    HW1 1769   2.474   1.968   0.184 -1.3568 -0.3318 -2.3810
  590SOL    HW2 1770   2.479   1.982   0.344  0.2415 -2.4330 -2.6315
  591SOL     OW 1771   0.189   2.484   1.573 -0.2305 -0.0703 -0.3888
  591SOL    HW1 1772   0.206   2.423   1.494 -1.1025  3.5358  1.9039
  591SOL    HW2 1773   0.188   2.433   1.662 -0.7690 -1.5743  0.0840
  592SOL     OW 1774   0.751   1.055   1.322  0.1738  0.1598 -0.8449
  592SOL    HW1 1775   0.669   1.066   1.387 -1.6349 -1.1722  0.4139
  592SOL    HW2 1776   0.834   1.079   1.373 -3.0436  0.3678  1.8012
  593SOL     OW 1777   0.832   1.488   1.240 -0.0512 -0.1749 -0.1035
  593SOL    HW1 1778   0.888   1.399   1.238  1.6333 -2.2633  1.4690
  593SOL    HW2 1779   0.856   1.556   1.311 -2.3396 -0.8740 -0.0237
  594SOL     OW 1780   0.728   2.050   3.052  0.6792 -0.3855  0.3954
  594SOL    HW1 1781   0.632   2.056   3.013 -0.0559 -0.7716  1.2427
  594SOL    HW2 1782   0.726   2.012   0.040  1.9482 -0.9208  1.1703
  595SOL     OW 1783   1.442   0.328   1.221 -0.1033  0.1622  0.4067
  595SOL    HW1 1784   1.431   0.235   1.264 -1.0404  0.2011 -0.3520
  595SOL    HW2 1785   1.502   0.388   1.279 -2.5111  1.7908 -1.4016
  596SOL     OW 1786   3.050   1.506   0.847 -0.3811  0.0438 -0.5411
  596SOL    HW1 1787   2.998   1.424   0.883 -1.1655 -0.5697  1.4273
  596SOL    HW2 1788   3.083   1.491   0.746 -1.1474 -0.5380  2.3148
  597SOL     OW 1789   0.205   2.685   2.822  0.2529  0.0939 -0.2629
  597SOL    HW1 1790   0.129   2.621   2.789  0.8795 -2.9435 -1.3639
  597SOL    HW2 1791   0.184   2.714   2.918 -0.0689 -0.2431  0.6831
  598SOL     OW 1792   2.606   1.994   2.010  0.4323  0.1595  0.0642
  598SOL    HW1 1793   2.688   2.013   2.063 -2.8334  1.0529 -1.6537
  598SOL    HW2 1794   2.612   2.013   1.908  0.9737 -0.7782 -4.1771
  599SOL     OW 1795   0.930   0.358   0.181  0.4779 -0.3646 -0.9054
  599SOL    HW1 1796   0.928   0.461   0.175  2.0190  0.3972  0.4448
  599SOL    HW2 1797   0.900   0.337   0.277 -0.5358 -1.5111  5.4275
  600SOL     OW 1798   0.527   2.702   0.450  0.3122  0.1652  0.9125
  600SOL    HW1 1799   0.545   2.703   0.346  0.1224 -1.1008 -1.9583
  600SOL    HW2 1800   0.555   2.608   0.486 -1.4008  0.2573  1.4837
  601SOL     OW 1801   0.547   0.779   1.199 -0.5596  0.1112 -0.1653
  601SOL    HW1 1802   0.609   0.851   1.157  0.5901 -0.0774 -0.8014
  601SOL    HW2 1803   0.487   0.724   1.135 -0.3644  1.0913 -0.3404
  602SOL     OW 1804   0.604   2.675   0.901 -0.5423  0.1572 -0.3082
  602SOL    HW1 1805   0.596   2.583   0.855  1.5507  1.2545 -1.7155
  602SOL    HW2 1806   0.535   2.680   0.978  1.5687  0.0860  1.9901
  603SOL     OW 1807   1.082   3.023   2.318  0.3642 -0.6430 -0.0575
  603SOL    HW1 1808   1.103   2.975   2.404 -2.0074  1.7550 -1.6802
  603SOL    HW2 1809   1.025   2.964   2.254 -0.1447 -0.2268  0.6113
  604SOL     OW 1810   0.657   2.649   2.213 -0.1296  0.3941 -0.5526
  604SOL    HW1 1811   0.650   2.704   2.303 -0.5186  1.3346  2.0678
  604SOL    HW2 1812   0.748   2.654   2.176  0.3121 -1.1344  0.5924
  605SOL     OW 1813   1.964   0.634   2.221  0.2813 -0.1443  0.3466
  605SOL    HW1 1814   1.995   0.703   2.149 -1.2133  1.9102 -1.7191
  605SOL    HW2 1815   1.871   0.656   2.261 -2.5745 -1.6466  0.6076
  606SOL     OW 1816   2.395   0.256   2.816  0.2958  0.1655 -0.0532
  606SOL    HW1 1817   2.322   0.294   2.874  1.6770  2.1536  0.2226
  606SOL    HW2 1818   2.486   0.304   2.829 -0.4555  0.0327  0.1688
  607SOL     OW 1819   0.867   0.547   1.271  0.2181  0.0006 -0.0166
  607SOL    HW1 1820   0.818   0.553   1.182  0.7818 -1.2956  1.8707
  607SOL    HW2 1821   0.834   0.618   1.334 -0.7945 -0.5965 -1.1366
  608SOL     OW 1822   3.042   1.852   2.401  0.3454 -0.3074  0.0500
  608SOL    HW1 1823   3.015   1.905   2.321  1.6380 -0.4412  0.2676
  608SOL    HW2 1824   3.036   1.917   2.479 -0.6898 -0.9280 -0.4059
  609SOL     OW 1825   1.777   0.794   0.164 -0.2716  0.7409  0.0442
  609SOL    HW1 1826   1.776   0.762   0.264 -1.0066 -2.6596  2.9031
  609SOL    HW2 1827   1.709   0.869   0.145  0.5150  0.3586 -1.5331
  610SOL     OW 1828   0.801   0.315   1.410 -0.3815 -0.0895 -0.4450
  610SOL    HW1 1829   0.844   0.222   1.405 -0.3784  2.7236 -4.3046
  610SOL    HW2 1830   0.834   0.372   1.331  2.7652  0.2854 -0.9140
  611SOL     OW 1831   1.602   0.529   0.540  0.8047 -0.5009 -0.0168
  611SOL    HW1 1832   1.542   0.528   0.627 -4.5782 -0.5787 -0.8948
  611SOL    HW2 1833   1.560   0.468   0.469  0.2985  0.6746 -0.8448
  612SOL     OW 1834   1.780   0.628   3.026  0.1446  0.0635  0.3177
  612SOL    HW1 1835   1.868   0.571   3.020  1.6685 -3.6266  2.7398
  612SOL    HW2 1836   1.785   0.704   3.095 -1.3347  0.8108 -1.0127
  613SOL     OW 1837   2.563   0.515   0.502  0.1837 -0.0119 -0.1532
  613SOL    HW1 1838   2.471   0.552   0.485  1.6026  0.7281 -0.1211
  613SOL    HW2 1839   2.567   0.415   0.518 -2.9670 -0.7604  2.5473
  614SOL     OW 1840   2.715   0.155   1.903 -0.1683 -0.1228  0.0597
  614SOL    HW1 1841   2.708   0.105   1.815 -2.1769 -0.8156 -0.7259
  614SOL    HW2 1842   2.730   0.081   1.976  2.4563  0.0187  1.0811
  615SOL     OW 1843   0.653   1.862   1.059  0.0924  0.2565  0.0530
  615SOL    HW1 1844   0.678   1.892   1.151 -2.0257  0.9132 -0.9829
  615SOL    HW2 1845   0.551   1.844   1.065 -1.4580 -0.8765 -1.2973
  616SOL     OW 1846   1.533   1.612   2.698 -0.0765  0.1952 -0.3820
  616SOL    HW1 1847   1.512   1.706   2.668 -1.9010  1.2109 -1.3299
  616SOL    HW2 1848   1.530   1.545   2.618 -0.6299 -0.2051 -2.6518
  617SOL     OW 1849   1.634   0.069   2.958  0.2815 -0.3144  0.2496
  617SOL    HW1 1850   1.690   3.101   2.998  0.0700  0.0298 -3.1297
  617SOL    HW2 1851   1.539   0.033   2.949  0.6197 -0.1737 -0.2654
  618SOL     OW 1852   1.486   2.227   2.592  0.2995 -0.0183  0.5008
  618SOL    HW1 1853   1.467   2.200   2.494  1.0936  0.6791 -1.2897
  618SOL    HW2 1854   1.402   2.195   2.642 -1.9739 -2.4005  1.2124
  619SOL     OW 1855   2.499   1.297   0.841 -0.0967  0.0363 -0.3136
  619SOL    HW1 1856   2.575   1.353   0.807 -2.4762  1.7960  0.6733
  619SOL    HW2 1857   2.503   1.289   0.941  0.3872 -0.6868 -1.7051
  620SOL     OW 1858   2.034   2.810   2.229 -0.0771  0.7681  0.3481
  620SOL    HW1 1859   1.966   2.836   2.299 -1.4093  2.1579 -0.8851
  620SOL    HW2 1860   2.129   2.786   2.266  2.8113 -1.9384 -1.2978
  621SOL     OW 1861   2.842   1.285   0.578 -0.4736  0.2483 -0.0118
  621SOL    HW1 1862   2.809   1.206   0.637  1.7356 -1.2083  1.2475
  621SOL    HW2 1863   2.931   1.321   0.616 -1.2113 -1.3825  0.7018
  622SOL     OW 1864   1.434   2.127   2.359 -0.3933 -0.0737  0.2045
  622SOL    HW1 1865   1.401   2.033   2.386  0.2637 -4.8862  0.9403
  622SOL    HW2 1866   1.510   2.118   2.293  2.3028 -0.1086 -1.1330
  623SOL     OW 1867   0.523   2.729   2.542  0.6834  0.1881 -0.0071
  623SOL    HW1 1868   0.574   2.789   2.477  1.3167 -0.5584 -3.2955
  623SOL    HW2 1869   0.589   2.676   2.598  0.9814 -0.1757  0.8036
  624SOL     OW 1870   0.980   2.737   2.725  0.1995 -0.3135 -0.0198
  624SOL    HW1 1871   1.058   2.743   2.662 -1.1464 -1.5681  2.2142
  624SOL    HW2 1872   0.973   2.822   2.783 -0.6188 -0.9759  1.8205
  625SOL     OW 1873   0.391   2.020   2.506  0.0606  0.5123 -0.0158
  625SOL    HW1 1874   0.426   2.063   2.418  1.8053 -0.5560 -3.6211
  625SOL    HW2 1875   0.325   1.947   2.478  1.9327 -0.9583  1.2800
  626SOL     OW 1876   0.230   0.301   3.050 -0.5526  1.1076 -0.0644
  626SOL    HW1 1877   0.165   0.285   0.016 -0.6548 -4.1910 -2.7601
  626SOL    HW2 1878   0.210   0.390   3.011  0.2427  1.0037 -0.2210
  627SOL     OW 1879   2.080   1.846   0.071  0.3469  0.0408  0.0212
  627SOL    HW1 1880   2.131   1.912   0.008  0.3554  2.9126 -4.0099
  627SOL    HW2 1881   1.987   1.879   0.100  0.4753  2.0244 -0.5959
  628SOL     OW 1882   1.443   1.539   2.951  0.2290 -0.2072 -0.4038
  628SOL    HW1 1883   1.418   1.440   2.952 -2.3188 -1.2147 -0.4701
  628SOL    HW2 1884   1.483   1.578   2.866 -0.0980  0.1384  0.5807
  629SOL     OW 1885   0.168   0.187   1.959  0.6183  0.3346 -0.6155
  629SOL    HW1 1886   0.214   0.092   1.946 -0.8045 -4.0996 -2.0664
  629SOL    HW2 1887   0.235   0.263   1.990  1.7656 -0.3966 -1.7743
  630SOL     OW 1888   2.377   0.874   2.017  0.1547  0.2655  0.1225
  630SOL    HW1 1889   2.351   0.976   1.997  0.0563 -0.6005 -0.2739
  630SOL    HW2 1890   2.351   0.857   2.116 -1.6290  1.2653  0.2324
  631SOL     OW 1891   1.684   0.128   0.787  0.3173 -0.2064  0.2207
  631SOL    HW1 1892   1.680   0.210   0.727 -0.4975 -1.5592  0.8091
  631SOL    HW2 1893   1.642   0.045   0.747 -1.3606 -0.3715  1.1998
  632SOL     OW 1894   2.759   0.947   1.738 -0.5842 -0.2068 -0.3133
  632SOL    HW1 1895   2.713   0.970   1.651 -0.4609 -1.1316 -1.7382
  632SOL    HW2 1896   2.714   0.865   1.781  0.4589 -2.2366 -0.3650
  633SOL     OW 1897   0.763   0.543   2.734 -0.3192  0.0194 -0.2294
  633SOL    HW1 1898   0.778   0.441   2.755 -0.3373 -0.7850  0.8618
  633SOL    HW2 1899   0.820   0.600   2.795  0.8326 -0.5185  0.0550
  634SOL     OW 1900   0.535   2.437   2.894  0.4251  0.3283  0.5149
  634SOL    HW1 1901   0.623   2.402   2.849  2.2312 -1.1465 -1.0706
  634SOL    HW2 1902   0.463   2.450   2.821 -1.0426 -0.8702 -1.5852
  635SOL     OW 1903   0.006   1.143   1.094 -0.5892 -0.2564 -0.2293
  635SOL    HW1 1904   0.023   1.236   1.056  0.0380  1.0992  1.9397
  635SOL    HW2 1905   0.076   1.080   1.062 -1.7922 -0.3080  3.5751
  636SOL     OW 1906   2.950   1.208   0.347  0.0094  0.4712 -0.1002
  636SOL    HW1 1907   2.936   1.281   0.274  1.4235  0.4729 -1.2488
  636SOL    HW2 1908   2.897   1.238   0.430 -1.1554 -0.7193 -1.2137
  637SOL     OW 1909   0.353   2.675   0.040 -0.7796  0.1133  0.4571
  637SOL    HW1 1910   0.271   2.723   0.000  0.6662 -0.3890  0.8507
  637SOL    HW2 1911   0.323   2.611   0.117  1.8079 -2.1538  2.9607
  638SOL     OW 1912   2.880   2.440   0.585 -0.5182  0.0984  0.3194
  638SOL    HW1 1913   2.958   2.400   0.641  1.8541  0.3240 -1.3067
  638SOL    HW2 1914   2.790   2.419   0.619 -3.8557  0.0944 -1.8793
  639SOL     OW 1915   1.535   0.959   0.128  0.0164  0.0616  0.0435
  639SOL    HW1 1916   1.485   0.974   0.044  0.1732  1.3191 -0.3367
  639SOL    HW2 1917   1.479   0.911   0.197 -1.4431 -0.0007 -3.1275
  640SOL     OW 1918   1.918   2.597   1.446  0.3611 -0.2370  0.4581
  640SOL    HW1 1919   1.821   2.578   1.452  1.3384  0.2772 -0.0059
  640SOL    HW2 1920   1.965   2.530   1.387 -1.0423 -1.1074 -1.7521
  641SOL     OW 1921   0.139   0.164   0.664 -0.7285 -0.1688 -0.6285
  641SOL    HW1 1922   0.174   0.165   0.566 -0.9303 -1.4250 -1.0707
  641SOL    HW2 1923   0.212   0.170   0.732 -2.9631  0.2804  0.1572
  642SOL     OW 1924   1.436   0.860   1.788 -0.0617 -0.5252  0.0515
  642SOL    HW1 1925   1.524   0.858   1.832 -2.7139  0.3213 -2.4484
  642SOL    HW2 1926   1.367   0.917   1.837 -0.5703  1.1461  0.5942
  643SOL     OW 1927   0.842   2.407   2.453 -0.2348  0.1823 -0.2152
  643SOL    HW1 1928   0.796   2.491   2.485  0.0657 -1.1304 -1.2176
  643SOL    HW2 1929   0.785   2.362   2.379 -1.0681 -2.5102 -2.6503
  644SOL     OW 1930   1.326   2.421   2.937  0.3155  0.7453  0.4786
  644SOL    HW1 1931   1.262   2.361   2.978  1.9809  1.1767  0.1319
  644SOL    HW2 1932   1.301   2.514   2.939  1.5774 -3.9072 -1.4557
  645SOL     OW 1933   1.458   1.482   1.969  0.3721  0.0913 -0.5380
  645SOL    HW1 1934   1.550   1.485   2.006 -5.5727 -0.7531 -1.3701
  645SOL    HW2 1935   1.448   1.393   1.921  0.1080 -1.4628 -0.7159
  646SOL     OW 1936   0.793   0.017   3.105  0.1422 -0.1353 -0.3911
  646SOL    HW1 1937   0.714   3.092   0.044 -0.0330 -0.5428 -1.1889
  646SOL    HW2 1938   0.770   0.039   3.011 -1.0225 -0.9471  0.4861
  647SOL     OW 1939   0.762   2.961   0.586  0.3434  0.4146  0.5046
  647SOL    HW1 1940   0.675   2.921   0.616 -1.9935  2.6748  0.5328
  647SOL    HW2 1941   0.814   2.994   0.669  1.9067 -1.7120  0.5420
  648SOL     OW 1942   2.710   2.685   0.968 -0.1199  0.5939 -0.0606
  648SOL    HW1 1943   2.653   2.700   0.889  0.7968 -0.0976  1.8760
  648SOL    HW2 1944   2.779   2.608   0.954  1.1234 -2.2881  0.2613
  649SOL     OW 1945   0.814   2.142   2.800  0.4988 -0.5791 -0.0616
  649SOL    HW1 1946   0.733   2.099   2.754 -0.4409  0.6932 -1.1026
  649SOL    HW2 1947   0.820   2.105   2.895  0.8186 -0.3981 -0.3178
  650SOL     OW 1948   2.138   1.803   2.122  0.0893  0.0637 -0.5556
  650SOL    HW1 1949   2.108   1.717   2.161  1.8323  1.5931 -3.0085
  650SOL    HW2 1950   2.212   1.843   2.186  2.6477  1.0972  2.0201
  651SOL     OW 1951   2.894   2.844   2.480  0.2314  0.3916  0.4035
  651SOL    HW1 1952   2.952   2.924   2.463  1.4159  1.1323 -0.3775
  651SOL    HW2 1953   2.879   2.784   2.399  0.0573 -0.8750  0.2641
  652SOL     OW 1954   2.985   1.766   0.571 -0.0809  0.6348 -0.3462
  652SOL    HW1 1955   2.983   1.866   0.580  2.3962  1.1604  1.6365
  652SOL    HW2 1956   2.886   1.726   0.582 -1.5260  2.6677  3.0885
  653SOL     OW 1957   2.435   0.660   0.926  0.4123  0.4610 -0.2281
  653SOL    HW1 1958   2.417   0.558   0.916  0.6716 -1.0796  1.3433
  653SOL    HW2 1959   2.376   0.720   0.871  3.4185 -0.7695  0.7324
  654SOL     OW 1960   0.840   0.284   2.771 -0.2708 -0.2332 -0.7210
  654SOL    HW1 1961   0.938   0.285   2.807  1.0755  0.1489  2.0901
  654SOL    HW2 1962   0.786   0.216   2.822  2.2087 -1.3084  0.4870
  655SOL     OW 1963   0.906   0.082   1.410 -0.1064  0.2770  0.3336
  655SOL    HW1 1964   0.968   0.027   1.465  2.2932  0.1406 -1.0751
  655SOL    HW2 1965   0.887   0.038   1.318  0.9173 -2.2147  0.2669
  656SOL     OW 1966   0.143   2.634   2.047 -0.1403  0.3150  0.1160
  656SOL    HW1 1967   0.235   2.618   2.086 -0.0237 -1.5579  1.5103
  656SOL    HW2 1968   0.144   2.708   1.977  0.9781 -1.2840 -0.3129
  657SOL     OW 1969   2.282   0.461   0.197  0.0939 -0.3423  0.1793
  657SOL    HW1 1970   2.255   0.529   0.266  3.4855 -0.2793  0.6279
  657SOL    HW2 1971   2.360   0.492   0.142  0.0999  0.7545  1.1238
  658SOL     OW 1972   1.878   1.448   1.092  0.4608  0.4375  0.3902
  658SOL    HW1 1973   1.936   1.377   1.133  2.0705  0.7443 -0.7822
  658SOL    HW2 1974   1.883   1.533   1.148  1.4001  1.4381 -2.3537
  659SOL     OW 1975   2.714   2.300   2.846  0.0691 -0.1200 -0.1281
  659SOL    HW1 1976   2.643   2.355   2.895  0.9716 -0.6761  1.1357
  659SOL    HW2 1977   2.789   2.258   2.903  2.6301 -1.9517  0.6704
  660SOL     OW 1978   1.104   0.276   3.090 -0.2949 -0.1955  0.3370
  660SOL    HW1 1979   1.191   0.325   0.014  1.1899  0.5002  2.2842
  660SOL    HW2 1980   1.038   0.283   0.059 -0.2728 -0.5083 -1.5379
  661SOL     OW 1981   2.244   0.084   0.511 -0.1188  0.0928 -0.4292
  661SOL    HW1 1982   2.168   0.063   0.448  0.2447 -1.8133 -0.8634
  661SOL    HW2 1983   2.309   0.148   0.467  2.8781 -1.7203  1.2020
  662SOL     OW 1984   0.519   0.025   0.994  0.4430 -0.5973  0.2229
  662SOL    HW1 1985   0.611   0.056   0.971 -2.6195  0.5710  1.1081
  662SOL    HW2 1986   0.466   3.103   0.912 -0.9766 -0.6479 -0.3587
  663SOL     OW 1987   1.629   0.141   2.438  0.1096 -0.0387 -0.4223
  663SOL    HW1 1988   1.531   0.121   2.457  0.6429  0.4123 -2.5271
  663SOL    HW2 1989   1.678   0.058   2.403  3.0943 -0.2130 -0.0346
  664SOL     OW 1990   0.814   2.529   1.578  0.6955 -0.3352  0.0395
  664SOL    HW1 1991   0.780   2.503   1.487  2.1076 -0.4967 -0.2545
  664SOL    HW2 1992   0.803   2.630   1.597 -0.5705  2.4098 -1.4658
  665SOL     OW 1993   0.839   2.389   1.998 -0.5559  0.4045  0.5618
  665SOL    HW1 1994   0.773   2.420   1.927 -0.8185 -1.3758  2.0590
  665SOL    HW2 1995   0.930   2.411   1.957  1.1454 -2.5028 -2.7802
  666SOL     OW 1996   0.263   2.922   2.691 -0.2018 -0.2659 -0.4102
  666SOL    HW1 1997   0.258   2.905   2.590 -2.4045  1.2489  1.1758
  666SOL    HW2 1998   0.261   2.835   2.740 -0.8470 -0.2931  1.3201
  667SOL     OW 1999   1.439   1.446   1.583  0.1137  0.8551  0.1457
  667SOL    HW1 2000   1.363   1.503   1.553  0.3407 -0.7836 -0.2082
  667SOL    HW2 2001   1.492   1.407   1.502  0.1600 -1.8953  0.2453
  668SOL     OW 2002   1.407   0.462   1.909  0.3557 -0.1404  0.1661
  668SOL    HW1 2003   1.401   0.367   1.874  2.0851 -1.2867 -1.7870
  668SOL    HW2 2004   1.318   0.505   1.934  2.8244  0.9403 -2.2290
  669SOL     OW 2005   2.694   2.378   1.345  0.0391  0.3908  0.5525
  669SOL    HW1 2006   2.623   2.323   1.288 -0.7438 -0.6825 -2.2777
  669SOL    HW2 2007   2.704   2.334   1.436 -2.0783 -2.2521  1.1457
  670SOL     OW 2008   1.652   2.522   2.836  0.7353 -0.0080 -0.1846
  670SOL    HW1 2009   1.577   2.510   2.767 -1.0220  1.2872 -1.2421
  670SOL    HW2 2010   1.609   2.491   2.920 -0.4454  2.7771 -0.7490
  671SOL     OW 2011   1.222   1.003   0.609  0.0405 -0.0108  0.2649
  671SOL    HW1 2012   1.194   1.099   0.629  0.0674 -1.0245  1.9666
  671SOL    HW2 2013   1.167   0.971   0.527 -0.1764 -1.5344 -2.2202
  672SOL     OW 2014   0.182   1.034   2.479  0.4810  0.1001  0.1534
  672SOL    HW1 2015   0.147   1.052   2.574  0.3253  0.5677 -1.3340
  672SOL    HW2 2016   0.188   0.934   2.470  1.6722 -1.3240 -0.5833
  673SOL     OW 2017   3.053   1.884   1.400 -0.4140  0.2763  0.0725
  673SOL    HW1 2018   3.006   1.959   1.448  1.6249 -2.2398 -0.0927
  673SOL    HW2 2019   3.067   1.804   1.460  0.1225  0.7563 -1.8303
  674SOL     OW 2020   0.410   2.615   2.132  0.5123  0.8288 -0.5996
  674SOL    HW1 2021   0.499   2.649   2.165 -2.1103 -1.1922 -3.2355
  674SOL    HW2 2022   0.420   2.577   2.036 -2.8573 -0.5192  1.5628
  675SOL     OW 2023   0.899   0.942   1.820 -0.2528 -0.1030  0.1234
  675SOL    HW1 2024   0.935   0.856   1.782 -0.4223  2.6598  1.2668
  675SOL    HW2 2025   0.841   0.922   1.906 -0.8308  1.2955  1.0859
  676SOL     OW 2026   2.458   0.235   1.216  0.0955 -0.1603 -0.2917
  676SOL    HW1 2027   2.468   0.333   1.238 -1.2117 -0.5131 -0.2546
  676SOL    HW2 2028   2.544   0.197   1.174  0.0394 -1.5794 -1.1074
  677SOL     OW 2029   2.495   1.538   0.103  0.3846  0.0722 -0.2856
  677SOL    HW1 2030   2.431   1.579   0.166  0.7354  0.6102 -3.3417
  677SOL    HW2 2031   2.453   1.478   0.031  0.0897 -0.0929 -2.4661
  678SOL     OW 2032   2.662   0.833   1.228  0.0095  0.5775 -0.1108
  678SOL    HW1 2033   2.695   0.741   1.198  1.3280 -3.2167 -0.7722
  678SOL    HW2 2034   2.719   0.882   1.298  1.0858  0.6651 -0.3752
  679SOL     OW 2035   2.401   0.292   0.378  0.7529 -0.2906 -0.2896
  679SOL    HW1 2036   2.416   0.335   0.468  0.2429 -0.0373  0.8296
  679SOL    HW2 2037   2.328   0.333   0.317  1.2275  2.6799 -2.5955
  680SOL     OW 2038   0.256   1.920   2.058  0.7359  0.1251 -0.1217
  680SOL    HW1 2039   0.288   1.837   2.107 -0.9844 -1.3422 -0.0848
  680SOL    HW2 2040   0.189   1.972   2.119 -0.2120  0.3731 -0.2318
  681SOL     OW 2041   2.418   1.968   1.174 -0.1311  0.0546 -0.0981
  681SOL    HW1 2042   2.333   2.020   1.161 -0.6907 -1.1365  2.9690
  681SOL    HW2 2043   2.444   1.925   1.084 -0.2536 -2.2654 -2.2931
  682SOL     OW 2044   3.020   1.738   2.702 -0.4298  0.7405 -0.0122
  682SOL    HW1 2045   2.982   1.722   2.610  4.6882  2.4598  2.8039
  682SOL    HW2 2046   0.013   1.746   2.694  2.6335  2.1298  0.1733
  683SOL     OW 2047   0.123   2.190   1.515 -0.0886  0.1545 -0.1932
  683SOL    HW1 2048   0.152   2.253   1.443 -2.1389 -2.2550 -0.6349
  683SOL    HW2 2049   0.024   2.164   1.503  4.0073 -1.4444  1.7069
  684SOL     OW 2050   3.038   1.135   2.388  0.4981  0.2107  0.3029
  684SOL    HW1 2051   3.107   1.066   2.418 -1.0462  0.1381  0.6541
  684SOL    HW2 2052   3.066   1.229   2.410 -0.7194 -0.9978 -3.9526
  685SOL     OW 2053   1.472   1.007   0.506  0.3886 -0.1336 -0.1551
  685SOL    HW1 2054   1.392   1.014   0.565 -1.3718 -1.4844 -0.3166
  685SOL    HW2 2055   1.528   0.924   0.535  0.7275  0.1480 -0.1964
  686SOL     OW 2056   0.408   0.245   0.747  0.1053  0.3318  0.6879
  686SOL    HW1 2057   0.419   0.272   0.842 -2.9938 -0.9938  1.1912
  686SOL    HW2 2058   0.473   0.175   0.715  0.5822  0.7629  1.0905
  687SOL     OW 2059   1.360   2.066   2.775  0.2829 -0.3095  0.0027
  687SOL    HW1 2060   1.261   2.052   2.789  0.6163  2.6624  1.3176
  687SOL    HW2 2061   1.417   1.985   2.750  1.2546 -0.9338  1.7411
  688SOL     OW 2062   1.424   1.273   1.785  0.3419 -0.2653 -0.2046
  688SOL    HW1 2063   1.427   1.341   1.710 -0.3826 -2.7260 -0.2897
  688SOL    HW2 2064   1.326   1.240   1.789 -1.8042  2.4353  1.4987
  689SOL     OW 2065   2.189   0.187   0.796 -0.6037  0.4692  0.0535
  689SOL    HW1 2066   2.210   0.177   0.698  3.0468  2.9524  1.1599
  689SOL    HW2 2067   2.220   0.100   0.842 -0.4730 -1.6233 -1.3439
  690SOL     OW 2068   0.090   1.396   1.083 -0.2244  0.4179 -0.1528
  690SOL    HW1 2069   0.058   1.461   1.010  0.9122 -0.1957  1.2555
  690SOL    HW2 2070   0.073   1.435   1.176 -1.1320  3.1649 -1.5567
  691SOL     OW 2071   0.251   2.106   1.089 -0.1664  0.2876  0.3889
  691SOL    HW1 2072   0.165   2.093   1.143  0.5055 -0.0135  0.5141
  691SOL    HW2 2073   0.279   2.204   1.089  2.8539  3.4979 -1.6547
  692SOL     OW 2074   2.091   0.681   1.370  0.1923 -0.5490 -0.1150
  692SOL    HW1 2075   2.061   0.762   1.427  2.1890  3.0825 -0.0108
  692SOL    HW2 2076   2.193   0.678   1.357  0.7115 -0.4194  0.5705
  693SOL     OW 2077   0.626   1.771   2.346 -0.2642  0.9547 -0.4951
  693SOL    HW1 2078   0.684   1.820   2.278  0.0091  0.3949  0.0693
  693SOL    HW2 2079   0.646   1.786   2.446  1.5284 -2.0697 -1.7174
  694SOL     OW 2080   1.457   1.330   1.324  0.5602 -0.0921 -0.3895
  694SOL    HW1 2081   1.455   1.393   1.246 -1.2329 -0.0708  2.4378
  694SOL    HW2 2082   1.407   1.245   1.298 -1.1029 -2.8556 -0.8487
  695SOL     OW 2083   1.163   1.263   0.381  0.1634  0.1414 -0.1641
  695SOL    HW1 2084   1.090   1.199   0.343 -1.9465 -0.7384 -0.4997
  695SOL    HW2 2085   1.211   1.312   0.309  0.8289 -0.4593  0.6201
  696SOL     OW 2086   0.970   2.706   0.251  0.0396 -0.5111  0.6952
  696SOL    HW1 2087   0.918   2.690   0.166  1.6539 -0.7129  0.0106
  696SOL    HW2 2088   1.032   2.792   0.245 -0.8598  3.2454  0.2901
  697SOL     OW 2089   1.589   0.654   1.424 -0.1594 -0.0373  0.0666
  697SOL    HW1 2090   1.682   0.679   1.450 -2.5219 -0.9777  0.1514
  697SOL    HW2 2091   1.547   0.592   1.488  3.9804  1.2546  0.2473
  698SOL     OW 2092   1.593   1.847   2.048  0.6176  0.1386 -0.1691
  698SOL    HW1 2093   1.497   1.812   2.033 -1.4287 -0.5220  0.4277
  698SOL    HW2 2094   1.655   1.763   2.040 -1.0057 -2.0045  1.9059
  699SOL     OW 2095   2.809   0.428   1.923  0.2083  0.2613 -0.2993
  699SOL    HW1 2096   2.748   0.482   1.988 -2.0048  1.6257 -0.5394
  699SOL    HW2 2097   2.771   0.336   1.897 -0.8775 -0.4844 -0.1046
  700SOL     OW 2098   1.262   2.084   0.405  0.2528 -0.4036  0.3436
  700SOL    HW1 2099   1.319   2.151   0.460 -0.5819 -3.2123  1.8191
  700SOL    HW2 2100   1.303   1.991   0.387 -0.5544 -2.2878 -0.0995
  701SOL     OW 2101   2.269   2.466   2.231  0.3178  0.0566 -0.2157
  701SOL    HW1 2102   2.347   2.426   2.285  0.6960  0.5873  1.4428
  701SOL    HW2 2103   2.263   2.563   2.254 -0.6574 -1.2884 -1.2689
  702SOL     OW 2104   0.966   2.805   0.504 -0.3068  0.0627 -0.1085
  702SOL    HW1 2105   0.885   2.862   0.518 -1.1521 -0.7903 -2.7836
  702SOL    HW2 2106   0.951   2.751   0.415 -3.5089 -1.8070 -0.8484
  703SOL     OW 2107   2.135   2.959   2.036 -0.3166 -0.3609 -0.2530
  703SOL    HW1 2108   2.189   2.898   1.975 -0.2747  0.7639 -0.4798
  703SOL    HW2 2109   2.088   2.902   2.110 -0.3444 -0.7105  0.8116
  704SOL     OW 2110   2.453   2.107   0.472 -0.5669  0.0820  0.3792
  704SOL    HW1 2111   2.361   2.123   0.501  2.4599  0.2131  1.0267
  704SOL    HW2 2112   2.503   2.191   0.447  1.0118  0.9569  1.5341
  705SOL     OW 2113   2.431   2.279   2.366  0.2956  0.0717 -0.2038
  705SOL    HW1 2114   2.482   2.282   2.451 -1.6440 -0.2129 -1.1034
  705SOL    HW2 2115   2.427   2.185   2.323  0.5573 -3.0163  0.5698
  706SOL     OW 2116   2.598   0.262   0.879  1.1814  0.0574  0.1266
  706SOL    HW1 2117   2.565   0.203   0.803  1.1949  1.1126  0.2332
  706SOL    HW2 2118   2.632   0.206   0.951 -0.9340  1.7002 -0.5620
  707SOL     OW 2119   0.718   0.449   2.453  0.3019  0.0502  0.6774
  707SOL    HW1 2120   0.709   0.496   2.542  1.1122 -0.8025  0.7587
  707SOL    HW2 2121   0.644   0.382   2.440 -0.3066  1.8490 -2.7082
  708SOL     OW 2122   0.319   2.067   1.656 -0.2677 -0.1381  0.1843
  708SOL    HW1 2123   0.257   2.131   1.599  0.1364  0.4362  1.1791
  708SOL    HW2 2124   0.267   1.995   1.711 -1.7999 -3.0296  0.9296
  709SOL     OW 2125   1.355   0.188   1.824  0.1985 -0.7230 -0.4120
  709SOL    HW1 2126   1.376   0.142   1.738 -0.2765  1.1413 -1.2325
  709SOL    HW2 2127   1.359   0.125   1.901 -2.1083  1.3007 -5.0594
  710SOL     OW 2128   1.565   2.791   2.571  0.1283  0.8495 -0.5105
  710SOL    HW1 2129   1.618   2.715   2.524  2.9698 -1.8948  3.3610
  710SOL    HW2 2130   1.625   2.842   2.635  1.5791 -1.3842  5.4385
  711SOL     OW 2131   1.017   2.221   2.625 -0.6824 -0.3186  0.2146
  711SOL    HW1 2132   0.932   2.186   2.672 -0.0352 -0.2115  0.9398
  711SOL    HW2 2133   0.992   2.312   2.586  0.1715  0.6817  0.7169
  712SOL     OW 2134   1.092   2.149   2.886 -0.1435 -0.4167  0.3735
  712SOL    HW1 2135   1.070   2.195   2.796  1.7474  1.6771 -3.1463
  712SOL    HW2 2136   1.047   2.202   2.965  0.1329 -0.1264 -0.4029
  713SOL     OW 2137   2.075   1.097   2.030 -0.5978 -0.7992 -0.2778
  713SOL    HW1 2138   2.171   1.113   1.997  1.2496  0.4520 -0.2962
  713SOL    HW2 2139   2.077   1.058   2.123 -0.5090  0.1183 -0.0150
  714SOL     OW 2140   0.760   1.219   2.096  0.2417 -0.2511  0.1204
  714SOL    HW1 2141   0.667   1.211   2.061  2.4492 -2.3624  2.0691
  714SOL    HW2 2142   0.769   1.190   2.193  0.0032  0.1488 -0.8142
  715SOL     OW 2143   2.923   0.338   0.278 -0.3459 -0.2077 -0.3941
  715SOL    HW1 2144   2.948   0.311   0.373  1.0631 -0.3599  2.2005
  715SOL    HW2 2145   2.893   0.435   0.275  1.3471 -2.0884  0.8694
  716SOL     OW 2146   2.986   2.665   1.526 -0.0534  0.9732  0.0904
  716SOL    HW1 2147   3.004   2.699   1.620 -1.4278 -0.5572 -0.5688
  716SOL    HW2 2148   3.053   2.597   1.495 -0.1842  1.2747  0.5637
  717SOL     OW 2149   2.279   0.816   0.760  0.8413  0.6920 -0.2139
  717SOL    HW1 2150   2.197   0.882   0.762  0.8617  0.2325  1.2057
  717SOL    HW2 2151   2.308   0.803   0.666 -1.7302  1.5443  2.0955
  718SOL     OW 2152   1.214   1.551   1.486 -0.0629  0.8804 -0.1148
  718SOL    HW1 2153   1.167   1.531   1.573 -1.8710 -1.1392  0.3812
  718SOL    HW2 2154   1.181   1.631   1.434  0.9303 -1.4037  2.1849
  719SOL     OW 2155   2.617   3.030   2.816 -0.4754  0.3035  0.6943
  719SOL    HW1 2156   2.682   2.971   2.860 -2.0211  0.7190  2.0274
  719SOL    HW2 2157   2.593   0.002   2.878 -1.5137  2.2987  1.2447
  720SOL     OW 2158   0.947   0.374   0.877 -0.1804 -0.0540 -0.0298
  720SOL    HW1 2159   0.948   0.347   0.778  1.3200 -0.6065 -2.8447
  720SOL    HW2 2160   1.027   0.335   0.934  0.1232 -1.1291 -1.3050
  721SOL     OW 2161   2.707   0.745   0.596 -0.4166 -0.5989 -0.4420
  721SOL    HW1 2162   2.803   0.726   0.628  1.3639 -0.9139  1.7419
  721SOL    HW2 2163   2.664   0.654   0.576  1.7299 -2.3594  1.9036
  722SOL     OW 2164   0.966   2.143   2.206  0.2401  0.8423 -0.1584
  722SOL    HW1 2165   0.979   2.235   2.237 -0.1559 -2.2668 -2.3632
  722SOL    HW2 2166   1.017   2.127   2.120 -1.4004 -1.2100 -0.6312
  723SOL     OW 2167   1.683   2.896   1.194 -0.2538  0.1984  0.3733
  723SOL    HW1 2168   1.617   2.949   1.142  0.2736  0.3551 -4.2949
  723SOL    HW2 2169   1.776   2.933   1.191 -2.3677 -1.6937 -3.8219
  724SOL     OW 2170   1.671   1.928   1.591 -0.0155 -0.7033 -0.1029
  724SOL    HW1 2171   1.652   1.961   1.686  0.2877 -1.7704  1.2227
  724SOL    HW2 2172   1.668   1.823   1.593 -0.2390  1.5743  1.3529
  725SOL     OW 2173   1.007   2.399   1.208  0.2917 -0.1636  0.4100
  725SOL    HW1 2174   0.937   2.452   1.259  4.2823  0.3683 -0.4187
  725SOL    HW2 2175   1.013   2.443   1.113  0.3976  0.7876 -0.4618
  726SOL     OW 2176   1.976   2.997   0.078  0.3792 -0.0962  0.4289
  726SOL    HW1 2177   2.053   3.020   0.016  2.8942  0.7635 -1.3332
  726SOL    HW2 2178   1.886   2.998   0.026  0.3592  1.4684 -0.2159
  727SOL     OW 2179   1.442   1.614   0.621  0.1358  0.7694 -0.1419
  727SOL    HW1 2180   1.512   1.548   0.580  0.4973 -0.8978 -0.8950
  727SOL    HW2 2181   1.348   1.579   0.596 -0.6491  1.3244 -1.8276
  728SOL     OW 2182   2.034   2.584   1.690 -0.6498 -0.1082  0.1910
  728SOL    HW1 2183   2.009   2.589   1.586 -0.7125  0.1214 -1.5705
  728SOL    HW2 2184   2.100   2.655   1.709  1.0849 -0.4197 -1.5634
  729SOL     OW 2185   1.993   2.397   1.268  0.2016 -0.0370  0.0428
  729SOL    HW1 2186   1.973   2.312   1.313  3.0984  0.9044  1.2443
  729SOL    HW2 2187   2.091   2.398   1.254 -4.5024 -1.0054  1.0873
  730SOL     OW 2188   1.543   1.184   2.378 -0.0732  0.0509  0.0915
  730SOL    HW1 2189   1.492   1.163   2.293 -0.4400  1.9011  0.8306
  730SOL    HW2 2190   1.513   1.120   2.453  0.9617 -3.4605  2.3230
  731SOL     OW 2191   0.885   3.073   1.171 -0.2246 -0.2050 -0.2114
  731SOL    HW1 2192   0.845   0.006   1.086 -0.6627  0.6341 -0.0985
  731SOL    HW2 2193   0.912   2.978   1.157  0.7807  1.4769 -2.1341
  732SOL     OW 2194   1.171   2.904   0.878  0.0511  0.2668  0.5205
  732SOL    HW1 2195   1.111   2.832   0.830  3.2009 -0.3325  0.1499
  732SOL    HW2 2196   1.257   2.857   0.920  1.7294 -0.8626  1.6731
  733SOL     OW 2197   1.079   1.037   1.005 -0.0405 -0.3507 -0.0077
  733SOL    HW1 2198   1.139   0.980   0.949 -0.0981 -0.0701  2.7654
  733SOL    HW2 2199   1.129   1.058   1.096  3.0276 -0.3553  2.3548
  734SOL     OW 2200   2.617   2.032   2.823 -0.6282  0.0287 -1.2341
  734SOL    HW1 2201   2.639   2.125   2.801  2.4657  1.7208  0.2376
  734SOL    HW2 2202   2.671   1.960   2.767  0.7755 -1.4175  0.3706
  735SOL     OW 2203   0.796   0.105   0.941 -0.0058  0.2294 -0.4235
  735SOL    HW1 2204   0.824   0.041   0.867  0.9999  0.4676 -0.7157
  735SOL    HW2 2205   0.843   0.197   0.929  0.4654  2.3091 -0.6499
  736SOL     OW 2206   1.837   2.414   2.696  0.1938 -0.6821 -0.4416
  736SOL    HW1 2207   1.795   2.326   2.674  0.4223  1.3284  0.8026
  736SOL    HW2 2208   1.769   2.474   2.751 -0.8261 -1.6245  3.6325
  737SOL     OW 2209   0.935   2.743   1.244  0.1109  0.4642 -0.1398
  737SOL    HW1 2210   0.877   2.657   1.251  1.0044  0.1460 -2.3757
  737SOL    HW2 2211   0.997   2.748   1.322 -2.1233 -0.5517 -1.4934
  738SOL     OW 2212   1.788   3.056   2.319  0.3391  0.4839 -0.3851
  738SOL    HW1 2213   1.874   3.084   2.269  2.0563 -0.2333  0.3695
  738SOL    HW2 2214   1.808   2.972   2.378 -0.2785 -0.7915  0.0593
  739SOL     OW 2215   1.354   2.443   1.970 -0.4345  0.2312 -0.3069
  739SOL    HW1 2216   1.338   2.383   2.049  2.4965  0.6665  1.0645
  739SOL    HW2 2217   1.435   2.418   1.913  1.9233 -1.6271 -4.5611
  740SOL     OW 2218   1.375   2.503   1.343 -0.3164 -0.4724 -0.2122
  740SOL    HW1 2219   1.279   2.534   1.355  1.7343  1.3106 -1.6397
  740SOL    HW2 2220   1.419   2.576   1.288 -1.5778 -3.4261  0.2001
  741SOL     OW 2221   2.600   1.046   0.202 -0.0375 -0.0443 -0.1895
  741SOL    HW1 2222   2.617   1.124   0.268  0.9671  0.5022  0.8711
  741SOL    HW2 2223   2.503   1.033   0.188 -4.0517 -0.2918  1.2411
  742SOL     OW 2224   0.715   1.753   2.608 -0.3557  0.0725  0.9102
  742SOL    HW1 2225   0.674   1.828   2.664 -0.8264  2.1687  0.4788
  742SOL    HW2 2226   0.814   1.772   2.594 -0.1055 -1.9429  0.0546
  743SOL     OW 2227   0.304   0.786   2.535  0.1628 -0.2946 -0.1834
  743SOL    HW1 2228   0.376   0.839   2.579 -1.8191 -1.7378  0.2365
  743SOL    HW2 2229   0.230   0.749   2.600 -1.1514  1.3069 -1.8950
  744SOL     OW 2230   2.503   2.250   1.216 -0.4313  0.6616  0.1371
  744SOL    HW1 2231   2.410   2.285   1.217  1.8931  0.3885 -0.2708
  744SOL    HW2 2232   2.508   2.166   1.161  0.4869  1.6780 -1.0332
  745SOL     OW 2233   2.280   1.803   1.469  0.2662  0.2333  0.0657
  745SOL    HW1 2234   2.353   1.760   1.414  0.3454  1.1952 -0.0771
  745SOL    HW2 2235   2.263   1.898   1.437 -0.5942  0.1094 -0.4513
  746SOL     OW 2236   2.071   0.987   0.728 -0.2287  0.1470 -0.5437
  746SOL    HW1 2237   2.002   0.972   0.657  2.1730 -2.1959  1.6843
  746SOL    HW2 2238   2.025   1.024   0.812 -1.4317  2.1568 -1.2624
  747SOL     OW 2239   1.530   2.022   0.622  0.3551 -0.0207 -0.1434
  747SOL    HW1 2240   1.470   1.947   0.583 -0.5964 -0.4742 -1.6556
  747SOL    HW2 2241   1.605   2.045   0.555  0.4603 -1.0795  0.1602
  748SOL     OW 2242   0.685   1.813   0.633 -0.1236  0.3626  0.3041
  748SOL    HW1 2243   0.655   1.798   0.535 -2.5861 -1.9979 -0.0532
  748SOL    HW2 2244   0.641   1.893   0.677  2.3079 -3.6157  0.2721
  749SOL     OW 2245   2.842   0.009   2.091 -0.2934  0.0866 -0.2692
  749SOL    HW1 2246   2.909   0.082   2.117 -0.5930 -1.7467  1.8759
  749SOL    HW2 2247   2.829   3.053   2.168  0.8831 -1.4529  0.5267
  750SOL     OW 2248   1.588   0.260   1.471  0.3193  0.3234 -0.0674
  750SOL    HW1 2249   1.687   0.250   1.450  1.9825 -0.8233 -3.1067
  750SOL    HW2 2250   1.563   0.354   1.499 -0.0378 -0.8650 -3.3814
  751SOL     OW 2251   1.737   2.926   3.033  0.2684  0.3713 -0.2053
  751SOL    HW1 2252   1.645   2.893   3.058  1.7324 -0.2801 -0.8557
  751SOL    HW2 2253   1.778   2.856   2.970  2.9304  1.5198  2.8744
  752SOL     OW 2254   1.839   1.950   0.221  0.0302  0.5158  0.3632
  752SOL    HW1 2255   1.770   1.882   0.181 -0.5449  1.3869  1.9694
  752SOL    HW2 2256   1.846   2.030   0.158  0.6635 -0.5129  0.3440
  753SOL     OW 2257   1.806   1.137   2.376 -0.0472  0.4181  0.0418
  753SOL    HW1 2258   1.706   1.141   2.366 -1.1422  0.5887  0.0746
  753SOL    HW2 2259   1.836   1.203   2.443 -1.9739 -0.7683 -1.1693
  754SOL     OW 2260   0.259   2.736   0.427 -0.2386  0.0957 -0.6073
  754SOL    HW1 2261   0.224   2.825   0.461  0.7152 -2.4402 -0.9679
  754SOL    HW2 2262   0.362   2.745   0.426  0.2951 -1.4176 -2.5146
  755SOL     OW 2263   1.966   0.606   0.856  0.0809 -0.3239  0.1959
  755SOL    HW1 2264   2.043   0.662   0.889  1.8532 -1.4002 -1.0337
  755SOL    HW2 2265   1.905   0.576   0.933 -1.7696  1.0170  3.6876
  756SOL     OW 2266   1.194   1.604   2.884  0.5692  0.4548 -0.0999
  756SOL    HW1 2267   1.152   1.697   2.884 -0.5804  1.6999  1.4098
  756SOL    HW2 2268   1.286   1.605   2.927  0.4456  2.3124 -2.5664
  757SOL     OW 2269   2.242   2.915   1.161 -0.6229  0.1019 -0.5913
  757SOL    HW1 2270   2.291   2.830   1.134  0.4077 -0.8872  1.9161
  757SOL    HW2 2271   2.307   2.974   1.221  1.0988  1.2212  0.0253
  758SOL     OW 2272   0.778   2.806   1.618  0.0139 -0.3795  0.3068
  758SOL    HW1 2273   0.745   2.841   1.530  2.2069 -3.4557 -0.5330
  758SOL    HW2 2274   0.873   2.832   1.638 -1.4525 -2.2948 -2.9865
  759SOL     OW 2275   2.199   1.308   1.343  0.1677 -0.3196  0.6313
  759SOL    HW1 2276   2.232   1.395   1.297 -0.7924  2.9288  0.0484
  759SOL    HW2 2277   2.179   1.328   1.440 -0.5401  0.2828 -0.5004
  760SOL     OW 2278   2.071   0.894   1.560 -0.3630  0.0548 -0.1572
  760SOL    HW1 2279   2.096   0.992   1.553  3.0799  2.3100  0.7774
  760SOL    HW2 2280   2.135   0.863   1.635  0.1647 -2.8753 -0.0103
  761SOL     OW 2281   2.059   0.049   0.315 -0.4273 -0.1770  0.4782
  761SOL    HW1 2282   1.978   0.061   0.377  3.5566  0.2289 -2.6905
  761SOL    HW2 2283   2.030   0.000   0.235  1.7612  1.4519  2.5033
  762SOL     OW 2284   1.884   2.169   0.041 -0.5390  0.2977 -0.1354
  762SOL    HW1 2285   1.981   2.201   0.041 -0.5728  1.7464 -0.8616
  762SOL    HW2 2286   1.823   2.252   0.056 -1.1101  0.2328 -1.6651
  763SOL     OW 2287   0.615   1.042   1.074  0.0594 -0.3952 -0.0232
  763SOL    HW1 2288   0.692   1.025   1.008  1.7284 -1.2005  1.0085
  763SOL    HW2 2289   0.654   1.078   1.162  1.1967  0.4382 -0.8478
  764SOL     OW 2290   2.478   2.338   3.093 -0.5084 -0.5622 -0.0671
  764SOL    HW1 2291   2.426   2.412   0.031  1.0798 -1.3957  0.2660
  764SOL    HW2 2292   2.554   2.292   0.041  3.9783  0.0698  0.6309
  765SOL     OW 2293   0.804   0.262   2.146 -0.7891 -0.3758  0.6391
  765SOL    HW1 2294   0.864   0.228   2.224 -2.0484 -0.6734  0.9895
  765SOL    HW2 2295   0.784   0.359   2.157 -2.4007 -0.3881 -0.0480
  766SOL     OW 2296   0.277   1.230   2.323 -0.0245  0.3544 -0.7766
  766SOL    HW1 2297   0.237   1.156   2.383  0.3607 -0.7127  0.4507
  766SOL    HW2 2298   0.215   1.254   2.248 -0.4610 -0.3836  2.6595
  767SOL     OW 2299   2.972   1.695   1.810  0.4498 -0.4580 -0.3120
  767SOL    HW1 2300   2.874   1.688   1.784  2.7945  0.7054 -0.7498
  767SOL    HW2 2301   3.028   1.682   1.723  0.0909  0.9022 -1.6636
  768SOL     OW 2302   1.075   1.072   3.073  0.5395  0.4848  0.4187
  768SOL    HW1 2303   0.989   1.022   3.047  1.0234  2.0716  0.9389
  768SOL    HW2 2304   1.082   1.150   3.003 -0.4302  3.0063  0.8757
  769SOL     OW 2305   2.023   2.750   0.308 -0.1046 -0.0534  0.1586
  769SOL    HW1 2306   2.087   2.680   0.277 -1.3948  2.5179  1.6525
  769SOL    HW2 2307   2.010   2.825   0.241 -0.4760  1.1819 -0.6103
  770SOL     OW 2308   2.931   0.449   2.597 -0.1557 -0.4184 -0.1423
  770SOL    HW1 2309   2.923   0.466   2.499  0.5767  1.2767 -1.3531
  770SOL    HW2 2310   2.941   0.347   2.619 -1.0297 -2.0353 -0.8001
  771SOL     OW 2311   1.180   2.239   1.685 -0.6999  0.2753  0.1645
  771SOL    HW1 2312   1.215   2.161   1.737 -1.1585 -0.0977  1.8162
  771SOL    HW2 2313   1.246   2.263   1.609  0.1250  2.4356  1.0059
  772SOL     OW 2314   0.483   0.604   3.037  0.3795  0.0083 -0.7097
  772SOL    HW1 2315   0.469   0.682   2.968  0.9869 -0.2550 -0.0126
  772SOL    HW2 2316   0.404   0.596   3.096  3.3044 -0.2777 -1.4868
  773SOL     OW 2317   2.884   1.246   1.576 -0.2648 -0.1656  0.2218
  773SOL    HW1 2318   2.795   1.277   1.615  1.8678 -0.2604  0.7857
  773SOL    HW2 2319   2.946   1.217   1.654 -2.6690 -0.2406  1.1856
  774SOL     OW 2320   1.379   0.839   0.315  0.0609  0.1834  0.0875
  774SOL    HW1 2321   1.425   0.888   0.392 -0.7314  0.9780  0.7186
  774SOL    HW2 2322   1.276   0.838   0.333 -0.8565  0.0850 -0.4562
  775SOL     OW 2323   2.196   2.795   3.078  0.0171 -0.4348  0.1172
  775SOL    HW1 2324   2.260   2.826   0.038 -1.5408 -4.2759 -2.3834
  775SOL    HW2 2325   2.191   2.844   2.992  1.5033 -4.0393  3.4320
  776SOL     OW 2326   2.635   0.598   2.028 -0.6789  0.0716 -0.0977
  776SOL    HW1 2327   2.670   0.691   2.049  2.0246 -1.0155 -0.8968
  776SOL    HW2 2328   2.582   0.563   2.104 -0.3228  1.0956  0.4432
  777SOL     OW 2329   0.376   1.398   2.651  0.4567  0.1445  0.2310
  777SOL    HW1 2330   0.453   1.470   2.664  2.4207  0.5035 -0.1772
  777SOL    HW2 2331   0.412   1.331   2.584  0.3706  2.1674  1.2177
  778SOL     OW 2332   1.000   0.051   0.492  0.3423  0.5702 -0.3820
  778SOL    HW1 2333   0.927   0.055   0.422 -0.7943  1.3368  0.9841
  778SOL    HW2 2334   1.021   3.070   0.529 -1.1278  1.1020 -1.0438
  779SOL     OW 2335   0.505   0.998   2.640  0.2117  0.2013 -0.5147
  779SOL    HW1 2336   0.515   1.099   2.644  3.2605  2.2660 -0.4317
  779SOL    HW2 2337   0.571   0.966   2.573 -2.3734  1.8235  0.6939
  780SOL     OW 2338   2.082   0.789   2.652 -0.4875 -0.0259  0.1224
  780SOL    HW1 2339   2.171   0.796   2.613  0.0602  1.1856 -2.8806
  780SOL    HW2 2340   2.016   0.804   2.576  0.2016 -0.4365  1.4025
  781SOL     OW 2341   2.546   1.294   1.919 -0.2731  0.0710 -0.0907
  781SOL    HW1 2342   2.629   1.242   1.890 -1.6749 -2.5498  2.0610
  781SOL    HW2 2343   2.531   1.378   1.862 -2.0475 -0.5367  0.0863
  782SOL     OW 2344   1.313   1.887   2.411 -0.0814  0.4437 -0.3621
  782SOL    HW1 2345   1.309   1.819   2.332  0.7853  1.0539 -1.8432
  782SOL    HW2 2346   1.218   1.924   2.422 -2.7289 -0.1250  1.0717
  783SOL     OW 2347   0.561   2.672   1.349 -0.1302  0.0953 -0.1035
  783SOL    HW1 2348   0.584   2.770   1.360 -1.3970  0.2488  0.7744
  783SOL    HW2 2349   0.470   2.655   1.383  1.5360 -2.0923  1.1371
  784SOL     OW 2350   1.528   0.620   2.983 -0.3459 -0.1306  0.0454
  784SOL    HW1 2351   1.516   0.555   2.905 -0.0494 -0.4772  0.4296
  784SOL    HW2 2352   1.624   0.613   3.007 -1.7724  1.0643 -1.2540
  785SOL     OW 2353   1.339   0.361   0.043 -0.1535 -0.2576  0.1373
  785SOL    HW1 2354   1.323   0.454   0.012  0.8010  0.0915 -0.7566
  785SOL    HW2 2355   1.435   0.330   0.030 -0.1382  0.2713 -1.0739
  786SOL     OW 2356   0.299   1.668   0.489 -0.6297 -0.1310 -0.7049
  786SOL    HW1 2357   0.349   1.580   0.482 -0.3319 -1.2337 -0.6063
  786SOL    HW2 2358   0.211   1.661   0.437 -1.2184 -1.0670 -0.7161
  787SOL     OW 2359   1.650   1.497   0.442  0.3284  0.8369  0.2403
  787SOL    HW1 2360   1.711   1.572   0.468 -0.7520 -2.6078  1.7193
  787SOL    HW2 2361   1.623   1.502   0.343 -0.9593 -0.7623 -0.3749
  788SOL     OW 2362   1.811   1.613   1.309 -0.1639  0.2684  0.3402
  788SOL    HW1 2363   1.757   1.523   1.311 -1.5418 -4.3596  0.9845
  788SOL    HW2 2364   1.754   1.695   1.293  1.8371  1.5488  0.2849
  789SOL     OW 2365   3.020   1.275   1.826 -0.5789 -0.2071  0.4766
  789SOL    HW1 2366   3.031   1.324   1.913 -1.5508 -1.4906 -0.4825
  789SOL    HW2 2367   3.096   1.288   1.764  0.0083  0.2381  0.7385
  790SOL     OW 2368   0.389   3.001   3.029 -0.4735  0.1115 -0.2783
  790SOL    HW1 2369   0.407   3.007   0.020  0.1463  2.3371  1.1416
  790SOL    HW2 2370   0.405   2.905   2.995  0.6969 -1.3352  0.5738
  791SOL     OW 2371   0.649   0.003   2.543 -0.3248  0.9000 -0.5620
  791SOL    HW1 2372   0.608   0.092   2.524  1.5116 -0.3173 -0.4757
  791SOL    HW2 2373   0.622   3.075   2.634 -3.4885 -1.2505 -1.2173
  792SOL     OW 2374   2.142   0.452   2.581  0.0282  0.1790 -0.3797
  792SOL    HW1 2375   2.058   0.458   2.639  0.7736 -1.4591  0.7456
  792SOL    HW2 2376   2.223   0.485   2.634  1.5871  0.5936  1.0707
  793SOL     OW 2377   0.301   0.702   1.073 -0.5224  0.1687 -0.0393
  793SOL    HW1 2378   0.277   0.656   0.987 -0.9941  0.4807  0.2138
  793SOL    HW2 2379   0.301   0.641   1.153  0.0798  1.0134 -0.0605
  794SOL     OW 2380   0.319   0.407   2.037  0.3507 -0.0887  0.2846
  794SOL    HW1 2381   0.408   0.410   1.980  0.7049 -1.0033 -0.4717
  794SOL    HW2 2382   0.275   0.496   2.031  1.0663 -0.7655 -0.2257
  795SOL     OW 2383   0.059   1.041   0.351  0.0304  0.2497  0.1197
  795SOL    HW1 2384   0.008   0.964   0.387 -1.2193  0.1867 -2.5826
  795SOL    HW2 2385   3.103   1.114   0.329  0.5048 -2.5508  0.5821
  796SOL     OW 2386   3.067   2.871   0.406  0.0851 -0.0017 -0.2596
  796SOL    HW1 2387   3.008   2.830   0.476  4.5981  0.4610 -1.5896
  796SOL    HW2 2388   0.039   2.903   0.458  3.1793  3.6089  0.6878
  797SOL     OW 2389   1.976   2.590   2.027  0.2738 -0.0115  0.1586
  797SOL    HW1 2390   1.898   2.619   1.969 -0.1871 -0.5117 -0.6345
  797SOL    HW2 2391   1.977   2.649   2.111  2.0528  2.8220  0.0945
  798SOL     OW 2392   0.060   0.964   0.722  0.3509  0.5316  0.2435
  798SOL    HW1 2393   0.032   0.918   0.637 -0.3820 -0.6629  2.5479
  798SOL    HW2 2394   0.154   1.002   0.717 -0.6622  0.8654 -2.6413
  799SOL     OW 2395   2.747   0.593   2.748  0.0877  0.4238  0.5028
  799SOL    HW1 2396   2.805   0.521   2.710  0.6824  1.3144  1.6315
  799SOL    HW2 2397   2.732   0.669   2.682 -1.3382 -1.7057 -1.2564
  800SOL     OW 2398   2.899   2.124   0.288 -0.5205 -0.2877  0.5667
  800SOL    HW1 2399   2.900   2.105   0.388  2.3755  0.5950 -2.9725
  800SOL    HW2 2400   2.990   2.098   0.248  0.3460  0.4860  1.1359
  801SOL     OW 2401   1.245   1.466   0.974 -0.7991 -0.0000  0.2842
  801SOL    HW1 2402   1.331   1.415   0.962 -0.5394  0.0291 -1.2083
  801SOL    HW2 2403   1.222   1.461   1.072 -0.1912 -0.0040 -1.3093
  802SOL     OW 2404   1.083   1.846   2.203  0.3395 -0.8718  0.1555
  802SOL    HW1 2405   1.117   1.913   2.134  0.6387  0.0113  1.2509
  802SOL    HW2 2406   1.016   1.896   2.261 -0.2682 -1.1040 -2.7638
  803SOL     OW 2407   0.258   1.855   0.721 -0.5780  0.2617  0.0144
  803SOL    HW1 2408   0.163   1.832   0.759 -1.6810 -0.6532  2.2162
  803SOL    HW2 2409   0.289   1.789   0.650  0.3302  3.8320  0.1629
  804SOL     OW 2410   1.139   2.156   1.246  0.0163  0.1933  0.3210
  804SOL    HW1 2411   1.118   2.254   1.248  0.5904  1.6084 -0.4332
  804SOL    HW2 2412   1.062   2.111   1.199  2.8655  0.0497 -0.0403
  805SOL     OW 2413   2.034   1.570   0.047  0.1902 -0.8191 -0.3797
  805SOL    HW1 2414   2.036   1.674   0.041  1.7551  1.5624 -1.3468
  805SOL    HW2 2415   1.942   1.525   0.019 -1.1525 -1.2506  1.3708
  806SOL     OW 2416   1.844   2.513   1.068  0.2044 -0.0528  0.0478
  806SOL    HW1 2417   1.889   2.476   1.147 -2.6861 -0.4354 -1.2194
  806SOL    HW2 2418   1.781   2.439   1.029 -0.7326 -2.6345  0.2665
  807SOL     OW 2419   2.730   0.676   3.001 -0.7152  0.2062  0.2705
  807SOL    HW1 2420   2.753   0.771   3.028 -0.1270 -2.2853  1.8245
  807SOL    HW2 2421   2.729   0.672   2.898  2.1763 -0.3070 -1.1755
  808SOL     OW 2422   0.162   1.259   0.518  0.1289  0.4134 -0.2718
  808SOL    HW1 2423   0.197   1.240   0.612  0.7755  2.3172 -0.1575
  808SOL    HW2 2424   0.150   1.171   0.476  0.0527  1.0126 -0.0732
  809SOL     OW 2425   2.729   0.843   2.128  0.3395 -0.0938 -0.1709
  809SOL    HW1 2426   2.651   0.903   2.146 -0.4543  0.8861 -0.1861
  809SOL    HW2 2427   2.812   0.895   2.094 -2.6025 -0.9125 -0.7139
  810SOL     OW 2428   1.464   0.496   1.600  0.3392  0.4268  0.0340
  810SOL    HW1 2429   1.433   0.509   1.696  0.2690 -0.2588 -3.6581
  810SOL    HW2 2430   1.403   0.442   1.539 -1.8768  1.7736  0.3290
  811SOL     OW 2431   1.949   2.877   1.446  0.4684 -0.5045 -0.1116
  811SOL    HW1 2432   1.936   2.775   1.436 -0.5381  0.1147  0.1677
  811SOL    HW2 2433   1.948   2.933   1.359 -0.3246  0.6881  0.4233
  812SOL     OW 2434   1.831   2.753   2.848  0.3561 -0.2354 -0.2436
  812SOL    HW1 2435   1.753   2.691   2.850  1.2225  2.6476 -1.5923
  812SOL    HW2 2436   1.914   2.694   2.846 -2.2056 -1.1581 -2.7466
  813SOL     OW 2437   1.636   1.036   2.046 -0.3676  0.0642  0.1229
  813SOL    HW1 2438   1.538   1.062   2.054  2.3801 -0.7230  0.7349
  813SOL    HW2 2439   1.699   1.106   2.081 -1.9496 -0.8730  0.1127
  814SOL     OW 2440   1.142   0.516   1.972 -0.5700 -0.1074  0.2882
  814SOL    HW1 2441   1.065   0.451   1.949  0.2750 -2.1099 -2.7449
  814SOL    HW2 2442   1.122   0.568   2.057  2.5279 -2.8704 -0.4233
  815SOL     OW 2443   0.550   0.725   0.324 -0.2648  0.1636  0.1808
  815SOL    HW1 2444   0.611   0.805   0.341 -1.1928 -0.2395  1.6075
  815SOL    HW2 2445   0.452   0.749   0.340  1.8935 -1.8553 -1.9905
  816SOL     OW 2446   2.230   1.833   2.837 -0.2861 -0.7674  0.0010
  816SOL    HW1 2447   2.248   1.893   2.756  1.6420  1.9579  1.2276
  816SOL    HW2 2448   2.179   1.749   2.811 -2.4454 -0.0846  1.7240
  817SOL     OW 2449   0.648   2.441   0.480  0.1938  0.2267  0.0958
  817SOL    HW1 2450   0.738   2.466   0.441 -1.0520  0.6608 -1.1133
  817SOL    HW2 2451   0.657   2.385   0.565  2.9147  1.2419 -0.7614
  818SOL     OW 2452   2.129   3.092   2.990  0.1118  0.1335  0.5327
  818SOL    HW1 2453   2.061   0.030   2.927 -2.1902  1.7090 -1.2530
  818SOL    HW2 2454   2.189   3.039   2.927  0.0404  1.0002  0.9552
  819SOL     OW 2455   1.583   0.227   0.061  0.1577 -0.2124  0.2008
  819SOL    HW1 2456   1.605   0.175   3.085 -0.0745 -0.1260 -1.1950
  819SOL    HW2 2457   1.654   0.286   0.101 -3.1495  0.5132 -1.7622
  820SOL     OW 2458   1.828   0.650   0.398  0.0117  0.0842  0.2580
  820SOL    HW1 2459   1.766   0.655   0.478  2.3150 -0.7130  1.1474
  820SOL    HW2 2460   1.914   0.699   0.417  1.0437  1.4179  3.4196
  821SOL     OW 2461   2.625   2.894   0.424 -0.1309 -0.5511  0.0920
  821SOL    HW1 2462   2.520   2.896   0.427 -0.9022 -2.4501  0.4466
  821SOL    HW2 2463   2.674   2.973   0.472 -1.1625 -1.2836  2.7380
  822SOL     OW 2464   0.155   2.859   1.888 -0.1014  0.5693 -0.2279
  822SOL    HW1 2465   0.070   2.897   1.848  2.2090 -2.3774  4.3126
  822SOL    HW2 2466   0.224   2.829   1.820 -2.7601 -0.0072 -0.7686
  823SOL     OW 2467   2.749   1.593   1.516 -0.5150  0.0787  0.0807
  823SOL    HW1 2468   2.657   1.606   1.471  1.3865  0.6423  0.2786
  823SOL    HW2 2469   2.765   1.657   1.591 -0.8938 -1.5344  0.0135
  824SOL     OW 2470   1.408   2.941   2.417 -0.0658  0.0740 -0.6087
  824SOL    HW1 2471   1.361   2.889   2.345  0.1842  0.7397  0.8257
  824SOL    HW2 2472   1.477   2.884   2.468 -0.1365 -2.8808  1.1473
  825SOL     OW 2473   1.864   1.282   0.750  0.5085 -0.0092 -0.1426
  825SOL    HW1 2474   1.904   1.226   0.823 -0.0625  2.0112 -1.7750
  825SOL    HW2 2475   1.775   1.321   0.783 -3.0235  0.7073 -2.0301
  826SOL     OW 2476   2.029   0.734   0.114 -0.1832 -0.8377 -0.5971
  826SOL    HW1 2477   2.053   0.807   0.046 -1.1401  1.0478 -0.1633
  826SOL    HW2 2478   1.933   0.741   0.147  1.5159 -0.6928 -0.2524
  827SOL     OW 2479   0.508   1.076   1.485  1.1220 -0.8386  0.5248
  827SOL    HW1 2480   0.513   1.132   1.573 -1.0992  0.2870 -0.4760
  827SOL    HW2 2481   0.457   1.137   1.421  0.3612  0.3480  1.4616
  828SOL     OW 2482   2.103   1.427   1.940 -0.3018  0.0584 -0.1406
  828SOL    HW1 2483   2.175   1.407   2.011  1.4815 -2.0662  1.1031
  828SOL    HW2 2484   2.108   1.517   1.900 -1.4832 -2.5349  0.6659
  829SOL     OW 2485   2.853   1.849   0.119  0.2387  0.2824  0.6098
  829SOL    HW1 2486   2.877   1.821   0.024  0.9099  1.4330 -0.9647
  829SOL    HW2 2487   2.934   1.888   0.168  0.7166  0.4120 -1.3104
  830SOL     OW 2488   1.596   0.788   0.571 -0.3077 -0.2100 -0.4100
  830SOL    HW1 2489   1.672   0.792   0.638  1.2735 -0.6161  0.0564
  830SOL    HW2 2490   1.571   0.688   0.555  0.5904 -1.4196 -0.5312
  831SOL     OW 2491   2.743   1.478   0.206 -0.4205 -0.5459  1.1291
  831SOL    HW1 2492   2.670   1.475   0.130 -1.9176  1.0748 -1.6597
  831SOL    HW2 2493   2.736   1.565   0.260 -0.2511 -1.7945 -0.0632
  832SOL     OW 2494   1.090   3.088   0.043 -0.8526  0.0633  0.1994
  832SOL    HW1 2495   1.002   0.026   0.043  1.4201  1.0252  0.3891
  832SOL    HW2 2496   1.162   0.048   0.033 -0.5107  1.6402  2.8023
  833SOL     OW 2497   1.372   0.686   2.296  0.3520  0.1444 -0.5323
  833SOL    HW1 2498   1.376   0.583   2.288 -1.3938  0.4967 -0.4336
  833SOL    HW2 2499   1.434   0.730   2.237 -2.1652 -2.6082 -0.0776
  834SOL     OW 2500   0.251   0.514   1.265  0.2589  0.1076 -0.1418
  834SOL    HW1 2501   0.307   0.514   1.347  0.2199 -1.6004  0.4740
  834SOL    HW2 2502   0.156   0.489   1.276  0.4872  1.6536 -0.8678
  835SOL     OW 2503   0.003   0.382   1.310  0.3250  0.0626  0.7608
  835SOL    HW1 2504   3.042   0.446   1.267 -2.8318 -1.4799  0.0170
  835SOL    HW2 2505   3.099   0.352   1.409 -0.5667  2.4894  2.5396
  836SOL     OW 2506   0.404   2.115   0.260  0.1226 -0.5463 -0.2228
  836SOL    HW1 2507   0.494   2.067   0.235  2.6898 -0.6565 -0.0826
  836SOL    HW2 2508   0.416   2.215   0.255 -0.1378  1.0931  1.3713
  837SOL     OW 2509   1.740   1.883   2.511 -0.0901  0.0418 -0.2101
  837SOL    HW1 2510   1.740   1.954   2.583  1.5207 -2.9732 -1.1078
  837SOL    HW2 2511   1.836   1.853   2.492  2.1106 -2.9123 -1.8942
  838SOL     OW 2512   0.218   1.141   1.735  0.4744  0.8463  0.5319
  838SOL    HW1 2513   0.189   1.125   1.832  0.6696 -0.1216 -0.2058
  838SOL    HW2 2514   0.189   1.060   1.673 -0.5834 -1.7517 -2.0094
  839SOL     OW 2515   0.342   0.498   0.683  0.4411 -0.9038  0.1598
  839SOL    HW1 2516   0.276   0.522   0.757 -1.1492 -1.8895 -3.2492
  839SOL    HW2 2517   0.361   0.401   0.693  0.9310  2.2283 -0.0360
  840SOL     OW 2518   2.852   0.220   2.739  0.2473  0.1348 -0.1741
  840SOL    HW1 2519   2.823   0.238   2.838 -2.5308  0.6829  1.4761
  840SOL    HW2 2520   2.788   0.159   2.693  1.1673  0.6068 -1.4426
  841SOL     OW 2521   0.822   2.411   2.809  0.2574 -0.3143 -0.4375
  841SOL    HW1 2522   0.899   2.447   2.868  1.2407  2.1099 -0.9699
  841SOL    HW2 2523   0.808   2.312   2.830 -0.5665 -0.9358  0.0864
  842SOL     OW 2524   0.609   2.903   1.118  0.1969  0.2625  0.2767
  842SOL    HW1 2525   0.564   2.984   1.086  2.6639  0.1751  0.1854
  842SOL    HW2 2526   0.706   2.897   1.085  0.6857 -0.4509 -2.6271
  843SOL     OW 2527   0.098   0.933   0.099 -0.1939  0.1551 -0.1506
  843SOL    HW1 2528   0.012   0.904   0.150 -1.0498 -1.8638  3.3463
  843SOL    HW2 2529   0.170   0.965   0.159  0.6591 -0.3397  0.0928
  844SOL     OW 2530   1.409   2.475   2.582  0.0663  0.0888  0.3968
  844SOL    HW1 2531   1.438   2.376   2.587  1.2509 -3.1407  0.3142
  844SOL    HW2 2532   1.489   2.526   2.542  2.1152  0.8392  0.9047
  845SOL     OW 2533   2.341   3.036   2.649 -0.3845  0.2734  0.1380
  845SOL    HW1 2534   2.412   3.092   2.693  1.8521  0.1787 -1.0725
  845SOL    HW2 2535   2.368   3.001   2.558  0.9349  0.6791  0.7638
  846SOL     OW 2536   1.946   1.734   2.444 -0.0620  1.0101 -0.3055
  846SOL    HW1 2537   1.972   1.686   2.355  0.0847  0.8797 -0.8852
  846SOL    HW2 2538   1.958   1.678   2.526 -2.0725  0.0724  0.2540
  847SOL     OW 2539   2.642   2.945   3.110 -0.1458  0.2729 -0.1681
  847SOL    HW1 2540   2.609   3.034   3.069 -0.4218  0.0686  0.7699
  847SOL    HW2 2541   2.734   2.954   0.033  0.8561 -0.7093 -0.4660
  848SOL     OW 2542   0.582   0.491   0.483 -0.0356  0.0478  0.5369
  848SOL    HW1 2543   0.504   0.461   0.536  0.7344 -0.2644  0.7212
  848SOL    HW2 2544   0.559   0.555   0.407 -0.8892 -1.7383 -2.5041
  849SOL     OW 2545   1.655   0.042   2.080 -0.0032 -0.7936  0.0445
  849SOL    HW1 2546   1.695   3.103   2.161  0.0244  1.3145  4.3900
  849SOL    HW2 2547   1.721   0.116   2.055  0.6007  2.0610  0.5457
  850SOL     OW 2548   0.792   1.086   0.580  0.7187  0.0420  0.0078
  850SOL    HW1 2549   0.866   1.155   0.559 -1.4011  1.8780 -0.0296
  850SOL    HW2 2550   0.815   1.035   0.665 -2.5582  0.7350 -0.4329
  851SOL     OW 2551   0.203   1.380   0.197  0.4594 -0.1097 -0.0741
  851SOL    HW1 2552   0.223   1.297   0.245  1.7150 -2.5280  1.6357
  851SOL    HW2 2553   0.129   1.435   0.237  0.4775  1.6033  0.2995
  852SOL     OW 2554   1.274   0.171   2.227  0.2201 -0.0176  0.6316
  852SOL    HW1 2555   1.300   0.111   2.149 -2.0936  2.3340 -1.6390
  852SOL    HW2 2556   1.169   0.175   2.230 -0.8346  0.8730  2.3144
  853SOL     OW 2557   2.658   1.256   0.357  0.4759 -0.0157 -0.2778
  853SOL    HW1 2558   2.693   1.264   0.453  0.4130  2.3076  0.7622
  853SOL    HW2 2559   2.676   1.341   0.304  1.2715  2.9015  3.4861
  854SOL     OW 2560   1.007   0.903   2.274  0.4943  0.5016  0.3423
  854SOL    HW1 2561   0.930   0.928   2.213  1.0169 -1.5715 -0.3145
  854SOL    HW2 2562   1.069   0.985   2.283  0.4965  2.0102  0.9855
  855SOL     OW 2563   0.135   2.800   3.059 -0.1104  0.0133 -0.5953
  855SOL    HW1 2564   0.157   2.896   3.041  1.3433 -0.3568 -0.1464
  855SOL    HW2 2565   0.064   2.784   0.025 -0.9708  0.0002  3.0916
  856SOL     OW 2566   1.318   0.935   2.437  0.2065 -0.3266 -0.1560
  856SOL    HW1 2567   1.264   0.943   2.353  0.0445 -0.3423  1.6976
  856SOL    HW2 2568   1.354   0.840   2.453  3.0522 -0.2935  0.8846
  857SOL     OW 2569   1.227   0.678   2.645  0.2006 -0.3942 -0.1027
  857SOL    HW1 2570   1.266   0.603   2.592 -1.3008  1.7839  1.0447
  857SOL    HW2 2571   1.161   0.727   2.590 -0.9550  0.6947 -1.9410
  858SOL     OW 2572   0.092   1.327   2.134 -0.2336 -0.1089 -0.1996
  858SOL    HW1 2573   0.062   1.351   2.228  1.5256  0.2046  2.0726
  858SOL    HW2 2574   0.055   1.396   2.062 -0.4234  0.7654 -1.2398
  859SOL     OW 2575   2.378   0.412   0.884  0.1966  0.3093  0.1621
  859SOL    HW1 2576   2.303   0.356   0.842 -0.3894 -0.5835 -1.1177
  859SOL    HW2 2577   2.454   0.352   0.906  0.4081  0.1060  1.2567
  860SOL     OW 2578   1.681   2.938   0.409 -0.2217  0.2682  0.2668
  860SOL    HW1 2579   1.729   3.020   0.375  1.7358 -1.9643  1.0544
  860SOL    HW2 2580   1.734   2.851   0.395  1.7401 -0.8392 -1.4581
  861SOL     OW 2581   1.142   0.577   1.347  0.1331 -0.5759  0.3390
  861SOL    HW1 2582   1.202   0.505   1.387  1.8000 -0.0335  1.2649
  861SOL    HW2 2583   1.041   0.565   1.353 -1.8637  0.8260 -1.4016
  862SOL     OW 2584   1.623   0.233   2.717  0.0178  0.3327 -0.1526
  862SOL    HW1 2585   1.665   0.179   2.795 -2.8491 -1.2935  0.7069
  862SOL    HW2 2586   1.640   0.195   2.624 -0.1888 -1.4340 -1.3374
  863SOL     OW 2587   2.583   2.422   0.686  0.3126  0.0733  0.1337
  863SOL    HW1 2588   2.580   2.520   0.719  0.9113  1.9847  2.4875
  863SOL    HW2 2589   2.607   2.420   0.586  2.9156  1.8353 -2.1670
  864SOL     OW 2590   2.536   0.202   2.139  0.4737 -0.1678  1.0942
  864SOL    HW1 2591   2.553   0.280   2.204  0.8679 -0.7282 -3.3612
  864SOL    HW2 2592   2.608   0.194   2.065  1.2273 -3.9882 -1.4275
  865SOL     OW 2593   1.223   0.969   1.985 -0.0775 -0.3261 -0.2965
  865SOL    HW1 2594   1.142   0.908   1.994  2.4920 -0.4530  0.4001
  865SOL    HW2 2595   1.201   1.059   1.933 -0.8957  2.5464 -1.7407
  866SOL     OW 2596   1.661   2.335   0.974  0.6977 -0.6996  0.2157
  866SOL    HW1 2597   1.637   2.237   0.997 -0.9456  1.7641 -1.5034
  866SOL    HW2 2598   1.570   2.379   0.952 -4.5922 -0.4506 -3.0562
  867SOL     OW 2599   2.369   2.932   0.462 -0.7362 -0.0871  0.4680
  867SOL    HW1 2600   2.323   2.876   0.533 -2.5876  0.6878 -0.9257
  867SOL    HW2 2601   2.350   3.031   0.464  0.2578 -0.0310  1.0480
  868SOL     OW 2602   0.244   2.286   2.098 -0.6497 -0.0723 -0.1255
  868SOL    HW1 2603   0.232   2.289   1.997 -0.6078  0.0767  0.9816
  868SOL    HW2 2604   0.186   2.357   2.140  4.8920  0.2581  1.3146
  869SOL     OW 2605   2.124   2.390   2.017 -0.5191 -0.4612 -0.4722
  869SOL    HW1 2606   2.058   2.468   2.012 -1.3313  1.1723 -1.8377
  869SOL    HW2 2607   2.188   2.413   2.098  0.3891 -0.3402  0.8889
  870SOL     OW 2608   1.481   1.372   0.869  0.1563 -0.1411 -0.0590
  870SOL    HW1 2609   1.496   1.368   0.768  2.4337 -0.0178 -1.4223
  870SOL    HW2 2610   1.555   1.318   0.909 -4.4725 -1.8104  1.4915
  871SOL     OW 2611   3.092   1.643   1.586 -0.3234  0.0833 -0.5799
  871SOL    HW1 2612   0.088   1.639   1.598 -1.6701 -0.1367  1.0214
  871SOL    HW2 2613   3.068   1.564   1.521 -0.1505 -0.0068 -1.2574
  872SOL     OW 2614   0.974   1.820   2.592  0.2266 -0.5598 -0.3052
  872SOL    HW1 2615   1.032   1.835   2.679  2.9165  1.8214  2.6142
  872SOL    HW2 2616   0.997   1.897   2.532  0.1871 -1.5265 -0.8427
  873SOL     OW 2617   0.809   1.747   2.000 -0.2166 -0.0256  0.1786
  873SOL    HW1 2618   0.807   1.828   2.066  1.1989  4.9882  0.6611
  873SOL    HW2 2619   0.873   1.679   2.045  1.6049 -1.3206  0.1562
  874SOL     OW 2620   1.580   0.800   2.137  0.2607 -0.4156 -0.1312
  874SOL    HW1 2621   1.582   0.753   2.047 -0.5582 -1.1242  0.6962
  874SOL    HW2 2622   1.605   0.898   2.123 -0.1360  0.6100 -0.8066
  875SOL     OW 2623   0.103   3.058   0.186 -0.0800 -0.1421  0.0903
  875SOL    HW1 2624   0.208   3.055   0.185  2.2186 -1.8386  0.6504
  875SOL    HW2 2625   0.057   2.988   0.242  1.4741  2.0028  1.2361
  876SOL     OW 2626   0.823   1.428   0.410  0.4256 -0.4616 -0.3872
  876SOL    HW1 2627   0.897   1.501   0.409  0.1594 -0.1979 -1.6581
  876SOL    HW2 2628   0.832   1.375   0.494  1.0873  3.2225 -1.4150
  877SOL     OW 2629   2.479   2.947   0.849  0.0438  0.1624 -0.9648
  877SOL    HW1 2630   2.539   2.951   0.930 -1.3751  0.5118 -0.1061
  877SOL    HW2 2631   2.381   2.973   0.877 -1.9670 -1.3284  1.0623
  878SOL     OW 2632   1.868   1.644   0.477 -0.2264 -0.6802  0.2509
  878SOL    HW1 2633   1.904   1.741   0.477 -2.6219  0.5092 -0.3419
  878SOL    HW2 2634   1.920   1.584   0.545  0.0622  1.6040 -1.3787
  879SOL     OW 2635   2.504   1.650   1.364  0.1120  0.0265 -0.3428
  879SOL    HW1 2636   2.458   1.564   1.332  0.5102  1.0371  1.4140
  879SOL    HW2 2637   2.548   1.701   1.288  1.7432 -0.5064 -2.2683
  880SOL     OW 2638   0.639   2.043   0.840 -0.0242 -0.6632 -0.1163
  880SOL    HW1 2639   0.687   1.986   0.914 -0.8771  0.6290  0.7441
  880SOL    HW2 2640   0.539   2.038   0.844 -2.1095  0.7742  0.7819
  881SOL     OW 2641   0.836   0.765   0.849 -0.8011 -0.2001  0.3069
  881SOL    HW1 2642   0.835   0.867   0.855 -0.9747 -1.4407 -0.1279
  881SOL    HW2 2643   0.811   0.728   0.755 -0.0428 -2.0615 -1.7662
  882SOL     OW 2644   2.520   0.992   0.859  0.2091 -0.0346 -0.1043
  882SOL    HW1 2645   2.496   1.084   0.833 -0.0543  1.1394  2.1694
  882SOL    HW2 2646   2.490   0.927   0.791  0.0710  0.7731  1.7737
  883SOL     OW 2647   1.976   0.468   1.703  0.5603 -0.5937 -0.1358
  883SOL    HW1 2648   1.943   0.529   1.628  0.0813 -1.9816  2.3823
  883SOL    HW2 2649   1.941   0.498   1.797 -0.4013  0.0388  1.5380
  884SOL     OW 2650   3.029   0.235   1.530  0.1390 -0.1856  0.1781
  884SOL    HW1 2651   3.098   0.190   1.597  2.0834 -1.1407  3.2704
  884SOL    HW2 2652   2.971   0.310   1.576 -1.9550 -0.0360  1.5213
  885SOL     OW 2653   1.378   1.275   2.640  0.3630 -0.1368 -0.0427
  885SOL    HW1 2654   1.298   1.217   2.609 -0.1392 -0.5476  0.1312
  885SOL    HW2 2655   1.385   1.353   2.577  1.2544 -1.9334 -1.0034
  886SOL     OW 2656   1.949   0.567   2.724 -0.4871 -0.8437 -0.0759
  886SOL    HW1 2657   2.018   0.650   2.724  1.7211 -1.9517  1.7965
  886SOL    HW2 2658   1.857   0.605   2.702  0.3352  2.5249 -0.1702
  887SOL     OW 2659   1.443   0.059   1.568  0.1319 -0.0906  0.3219
  887SOL    HW1 2660   1.502   0.141   1.541  1.5140  2.6182 -0.2540
  887SOL    HW2 2661   1.473   3.091   1.514  0.0895  1.3366 -1.1255
  888SOL     OW 2662   2.079   1.699   1.876 -0.3464  0.2459  0.1939
  888SOL    HW1 2663   2.115   1.729   1.783  1.6090  1.2721 -0.9986
  888SOL    HW2 2664   2.107   1.753   1.957 -0.3698 -3.1767 -2.5835
  889SOL     OW 2665   1.704   2.083   0.436 -0.5162 -0.1643  0.1241
  889SOL    HW1 2666   1.762   2.157   0.459 -0.7606 -1.3137 -1.2118
  889SOL    HW2 2667   1.747   2.012   0.376 -0.1450 -1.8386 -1.2613
  890SOL     OW 2668   1.005   2.023   0.410 -0.2132 -0.1330  0.4994
  890SOL    HW1 2669   0.986   2.023   0.513  0.2893 -0.4382  1.3365
  890SOL    HW2 2670   1.103   2.052   0.394  0.2816  1.0307 -0.2569
  891SOL     OW 2671   2.787   0.963   0.025 -0.0935  0.2027 -0.0559
  891SOL    HW1 2672   2.859   0.926   0.090  1.2014  1.7088  0.9430
  891SOL    HW2 2673   2.704   0.989   0.071  1.0946 -2.5268 -2.3597
  892SOL     OW 2674   1.701   0.631   2.658 -0.4331  0.1743 -0.5905
  892SOL    HW1 2675   1.613   0.593   2.697 -2.5328  2.1728  0.1047
  892SOL    HW2 2676   1.707   0.616   2.559 -1.3432 -0.6991  0.3711
  893SOL     OW 2677   1.549   2.943   1.450 -0.2970 -0.0068 -0.2278
  893SOL    HW1 2678   1.559   2.951   1.349 -1.1526  0.8094  0.1940
  893SOL    HW2 2679   1.637   2.956   1.499  0.3167 -0.7756  0.9529
  894SOL     OW 2680   2.989   0.052   0.674  0.1401 -0.1000 -0.4149
  894SOL    HW1 2681   2.971   0.016   0.769  2.5078  1.0255  2.6351
  894SOL    HW2 2682   3.083   0.097   0.674 -0.8119  0.1137 -1.5504
  895SOL     OW 2683   2.038   2.581   0.037  0.3547  0.2081 -0.0289
  895SOL    HW1 2684   2.070   2.673   0.002 -2.9323  0.3003 -0.8569
  895SOL    HW2 2685   2.094   2.543   0.111 -2.5153 -3.6092 -1.7321
  896SOL     OW 2686   2.401   3.083   2.182 -0.1323 -0.7538 -0.4381
  896SOL    HW1 2687   2.311   3.087   2.143 -1.1845 -1.4471  2.8949
  896SOL    HW2 2688   2.452   0.064   2.178  1.0395  0.0024  0.5610
  897SOL     OW 2689   0.473   1.529   1.761  0.6016  0.0820 -0.6069
  897SOL    HW1 2690   0.466   1.573   1.853 -0.3341 -1.5154  1.0756
  897SOL    HW2 2691   0.491   1.600   1.690 -0.8021 -0.4851 -0.7485
  898SOL     OW 2692   2.331   1.699   1.711 -0.7916 -0.1277 -0.0806
  898SOL    HW1 2693   2.264   1.714   1.629 -0.1233  1.9010 -0.4131
  898SOL    HW2 2694   2.411   1.765   1.693 -3.2850  1.0676  0.0123
  899SOL     OW 2695   1.534   2.092   0.905  0.3219 -0.3333 -0.1813
  899SOL    HW1 2696   1.439   2.093   0.946 -1.4028  1.0050  0.5801
  899SOL    HW2 2697   1.532   2.069   0.802 -0.8448 -0.1750 -2.0462
  900SOL     OW 2698   1.138   0.654   0.021  0.1540 -0.3029 -0.6609
  900SOL    HW1 2699   1.229   0.652   0.068  0.7271  1.3529 -0.4802
  900SOL    HW2 2700   1.145   0.635   3.032  1.8771  0.9711 -0.6279
  901SOL     OW 2701   1.480   1.876   2.633  0.1599 -0.6697  0.4268
  901SOL    HW1 2702   1.576   1.870   2.598 -1.2573  1.8347 -2.0003
  901SOL    HW2 2703   1.420   1.869   2.549  0.3043  0.6890 -1.0811
  902SOL     OW 2704   2.944   2.534   0.048 -0.0709  0.3558  0.1534
  902SOL    HW1 2705   2.894   2.472   0.117 -0.6833  0.6393 -1.7448
  902SOL    HW2 2706   3.021   2.479   0.019 -0.9304  0.6482  0.4796
  903SOL     OW 2707   2.349   0.797   2.278 -0.0015  0.2991  0.1693
  903SOL    HW1 2708   2.355   0.700   2.250  1.2577 -1.4073  1.3599
  903SOL    HW2 2709   2.368   0.799   2.375 -0.1608 -0.1611 -3.5316
  904SOL     OW 2710   1.506   0.472   2.755 -0.0745  0.0653 -0.0168
  904SOL    HW1 2711   1.432   0.471   2.684  0.4064  1.6127 -0.7051
  904SOL    HW2 2712   1.566   0.389   2.753  0.0495  1.5887 -0.4522
  905SOL     OW 2713   2.270   2.422   1.252  0.0632  0.5341 -0.1358
  905SOL    HW1 2714   2.303   2.456   1.344  0.6956 -0.2736  1.1656
  905SOL    HW2 2715   2.295   2.495   1.184  0.5231  0.4155  1.4068
  906SOL     OW 2716   1.577   2.055   0.052 -0.7955  0.3920 -0.0995
  906SOL    HW1 2717   1.577   1.957   0.023  3.4815  0.4934 -2.0257
  906SOL    HW2 2718   1.578   2.116   3.080  0.7434 -2.1286 -1.2179
  907SOL     OW 2719   0.543   2.838   0.691  0.1139  0.1866 -0.4591
  907SOL    HW1 2720   0.580   2.776   0.763  0.1453  2.5593  0.2020
  907SOL    HW2 2721   0.515   2.785   0.612  0.5294  1.7004 -0.6474
  908SOL     OW 2722   1.340   2.860   1.926 -0.1075  0.2414  0.4333
  908SOL    HW1 2723   1.294   2.791   1.875 -1.1963 -0.3160  1.7817
  908SOL    HW2 2724   1.417   2.901   1.876 -2.7121  2.0364 -0.0420
  909SOL     OW 2725   1.952   0.450   1.324  0.2731 -0.2493 -0.2290
  909SOL    HW1 2726   1.980   0.545   1.352 -0.4152  1.7170 -4.1245
  909SOL    HW2 2727   2.026   0.401   1.275  1.4035  0.0862 -0.8702
  910SOL     OW 2728   1.348   1.014   3.018  0.5401  0.3892 -0.0322
  910SOL    HW1 2729   1.251   1.013   3.049 -2.1071  0.6744  1.4059
  910SOL    HW2 2730   1.372   0.945   2.949 -0.1472  2.0486  0.9825
  911SOL     OW 2731   2.956   0.837   0.195 -0.2192 -0.1342 -0.1659
  911SOL    HW1 2732   2.952   0.737   0.217 -1.5943  0.2100 -0.9103
  911SOL    HW2 2733   2.906   0.885   0.271 -1.1414  0.9012 -0.6603
  912SOL     OW 2734   0.015   2.342   3.058 -0.5291 -0.2821  0.3970
  912SOL    HW1 2735   0.097   2.313   3.004 -2.8966  0.1866 -0.5344
  912SOL    HW2 2736   0.025   2.340   0.049 -0.3388  0.9421  0.6771
  913SOL     OW 2737   2.610   2.336   2.582  0.7682 -0.5160 -0.1414
  913SOL    HW1 2738   2.650   2.341   2.678 -2.8436 -0.2130  0.9745
  913SOL    HW2 2739   2.682   2.335   2.512 -1.3241  0.0124  2.1860
  914SOL     OW 2740   1.468   2.056   1.438 -0.8164 -0.5435 -0.5592
  914SOL    HW1 2741   1.481   2.017   1.343  0.5513  0.7510  0.5182
  914SOL    HW2 2742   1.541   2.025   1.508 -0.0232  0.3117  0.8294
  915SOL     OW 2743   0.610   2.815   1.841  0.0572  0.0122  0.2642
  915SOL    HW1 2744   0.647   2.833   1.747 -0.5985 -0.0785  0.0174
  915SOL    HW2 2745   0.514   2.782   1.833 -2.6226  0.5569  0.9885
  916SOL     OW 2746   0.496   0.890   1.819 -0.2099 -0.3256 -0.3038
  916SOL    HW1 2747   0.398   0.884   1.844 -0.2930 -1.0304  0.0630
  916SOL    HW2 2748   0.508   0.927   1.728  3.2157  0.2528  0.1242
  917SOL     OW 2749   2.642   0.265   0.570 -0.0653  0.1042  0.1463
  917SOL    HW1 2750   2.601   0.179   0.600  2.6571  0.0835 -2.8740
  917SOL    HW2 2751   2.741   0.252   0.556  0.6560  1.0955 -1.2932
  918SOL     OW 2752   1.709   2.820   2.051 -0.0468  0.8048  0.0056
  918SOL    HW1 2753   1.668   2.749   1.987 -0.6247  0.5987  1.5575
  918SOL    HW2 2754   1.638   2.863   2.107  0.9276 -1.6331  0.3953
  919SOL     OW 2755   1.525   2.705   1.665  0.9129 -0.7913 -0.2165
  919SOL    HW1 2756   1.549   2.788   1.614 -0.0726 -0.5165 -0.4612
  919SOL    HW2 2757   1.426   2.690   1.682  0.1286 -2.3171  2.4185
  920SOL     OW 2758   0.832   0.931   3.103  0.8154 -0.4614  0.2589
  920SOL    HW1 2759   0.780   1.017   3.095 -0.1835 -0.8281 -2.0863
  920SOL    HW2 2760   0.767   0.861   0.028 -1.4145 -1.1797 -0.7458
  921SOL     OW 2761   0.079   0.482   2.716 -0.2236  0.0031 -0.1523
  921SOL    HW1 2762   3.095   0.454   2.685 -1.3398  0.6592 -1.6661
  921SOL    HW2 2763   0.142   0.400   2.714  2.0392 -0.9251  1.9500
  922SOL     OW 2764   0.837   1.648   1.024  0.0256  0.3104 -0.4697
  922SOL    HW1 2765   0.834   1.576   1.097 -0.1591  1.7574 -3.6345
  922SOL    HW2 2766   0.776   1.723   1.057  1.1736  0.5484 -1.0485
  923SOL     OW 2767   0.498   1.179   2.030 -0.3402 -0.2564  0.1332
  923SOL    HW1 2768   0.496   1.140   1.936  0.8365 -0.4291 -0.9019
  923SOL    HW2 2769   0.443   1.118   2.090  0.7433  0.4679 -1.0581
  924SOL     OW 2770   1.367   3.108   2.952  0.4756  0.5066 -0.1741
  924SOL    HW1 2771   1.344   3.011   2.960 -0.7708  0.8789  2.2977
  924SOL    HW2 2772   1.304   0.033   2.883 -2.1966 -0.4898  0.9179
  925SOL     OW 2773   2.753   1.139   1.128 -0.0764  0.5593  0.0103
  925SOL    HW1 2774   2.770   1.104   1.224  1.1947 -0.3813  0.6072
  925SOL    HW2 2775   2.760   1.061   1.060 -1.6430 -3.2678 -2.0685
  926SOL     OW 2776   1.833   0.728   1.595 -0.0447 -0.1217 -0.0266
  926SOL    HW1 2777   1.920   0.782   1.582  1.6190  1.5824 -0.3374
  926SOL    HW2 2778   1.778   0.760   1.674  0.1851  0.5698 -1.7641
  927SOL     OW 2779   1.958   2.963   1.170 -0.2342  0.1135  0.2396
  927SOL    HW1 2780   2.047   2.926   1.154 -1.4465  0.0513 -2.8096
  927SOL    HW2 2781   1.961   3.064   1.163  0.4641 -0.9022  0.2442
  928SOL     OW 2782   0.348   0.991   2.175 -0.1388  0.0223  0.2717
  928SOL    HW1 2783   0.347   1.049   2.260 -1.0390 -1.0738 -0.0749
  928SOL    HW2 2784   0.379   0.898   2.201  1.2710  0.0450 -1.3584
  929SOL     OW 2785   2.783   0.449   0.790  0.9955  0.8638 -0.5563
  929SOL    HW1 2786   2.702   0.388   0.807 -3.1126 -0.6740 -0.4266
  929SOL    HW2 2787   2.799   0.458   0.692  0.9435  0.3167  1.8104
  930SOL     OW 2788   2.979   2.753   1.773 -0.3054  0.2684  0.0007
  930SOL    HW1 2789   2.955   2.851   1.766  0.3215  1.2164  0.7722
  930SOL    HW2 2790   2.957   2.713   1.861 -1.0578 -1.4426 -1.2914
  931SOL     OW 2791   1.737   0.890   1.000  0.2552 -0.4710  0.4791
  931SOL    HW1 2792   1.653   0.869   1.051  0.7026 -1.1352 -1.1570
  931SOL    HW2 2793   1.825   0.868   1.051  0.3151 -0.4675 -0.8274
  932SOL     OW 2794   2.771   1.183   1.865  0.1100 -0.3859 -0.2291
  932SOL    HW1 2795   2.761   1.082   1.841 -1.5394  1.0788  0.0417
  932SOL    HW2 2796   2.868   1.212   1.848 -0.0810 -1.7648 -1.9804
  933SOL     OW 2797   2.916   2.369   1.503 -0.6042  0.5652 -0.0132
  933SOL    HW1 2798   2.913   2.465   1.530 -0.7140 -1.7577 -2.6262
  933SOL    HW2 2799   2.943   2.360   1.406 -2.2806  0.7640  0.3854
  934SOL     OW 2800   0.749   1.918   1.327  0.4082 -0.0273 -0.1676
  934SOL    HW1 2801   0.806   1.832   1.338  1.1311 -2.3875 -2.0465
  934SOL    HW2 2802   0.655   1.907   1.372 -1.7032  1.1450  0.0957
  935SOL     OW 2803   2.707   1.730   1.760 -0.3522 -0.0605  0.2321
  935SOL    HW1 2804   2.683   1.732   1.856 -2.6654 -3.8917 -1.3381
  935SOL    HW2 2805   2.641   1.797   1.710 -3.9350  0.7388 -0.1765
  936SOL     OW 2806   2.487   1.468   1.694  0.6294  0.0571 -0.1579
  936SOL    HW1 2807   2.506   1.447   1.597  0.1208  1.0680  1.1604
  936SOL    HW2 2808   2.439   1.554   1.709  0.0927 -2.7447 -0.6376
  937SOL     OW 2809   1.760   0.925   1.805 -0.2144  0.2690  0.2220
  937SOL    HW1 2810   1.734   0.926   1.904 -0.1434  1.9824  0.9140
  937SOL    HW2 2811   1.743   1.016   1.764  0.0575 -3.2393  4.9155
  938SOL     OW 2812   0.745   2.610   2.639  0.2267 -0.1115  0.2548
  938SOL    HW1 2813   0.768   2.533   2.703  0.2297  0.0935 -0.0105
  938SOL    HW2 2814   0.815   2.684   2.651 -1.8718  0.1610 -1.4018
  939SOL     OW 2815   2.425   1.344   3.055  0.0017 -0.2035  0.0095
  939SOL    HW1 2816   2.446   1.251   3.088 -2.2103  0.8612 -0.7658
  939SOL    HW2 2817   2.436   1.353   2.956 -0.6171 -0.7211  2.0628
  940SOL     OW 2818   1.380   1.810   0.458 -0.2559  0.2508 -0.8071
  940SOL    HW1 2819   1.407   1.743   0.533 -1.3544  0.3754 -0.5196
  940SOL    HW2 2820   1.408   1.773   0.370 -1.0543  1.2944  1.2899
  941SOL     OW 2821   1.857   2.966   2.682 -0.7615  0.2113 -0.1040
  941SOL    HW1 2822   1.841   2.887   2.742  0.5731  0.5504  0.4133
  941SOL    HW2 2823   1.898   3.050   2.727  0.2472  1.0229 -0.3800
  942SOL     OW 2824   0.901   2.476   0.389 -0.3664 -0.0846 -0.6688
  942SOL    HW1 2825   0.984   2.453   0.447 -1.1959 -1.4126  1.1300
  942SOL    HW2 2826   0.914   2.565   0.342 -1.2199  0.6487 -2.9823
  943SOL     OW 2827   2.245   0.583   1.718  0.3813 -0.0876 -0.0639
  943SOL    HW1 2828   2.203   0.543   1.634  0.2174  1.7669 -1.4095
  943SOL    HW2 2829   2.321   0.531   1.757 -3.7745  3.4321  0.1843
  944SOL     OW 2830   1.112   1.262   2.885  0.6435 -0.1324  0.3084
  944SOL    HW1 2831   1.053   1.343   2.908 -1.0044  3.9075  1.9358
  944SOL    HW2 2832   1.201   1.288   2.840 -0.5056  0.0779  1.6563
  945SOL     OW 2833   3.021   2.376   1.231 -0.2705 -0.5386  0.5425
  945SOL    HW1 2834   2.922   2.377   1.206 -0.5235  0.7767 -1.3098
  945SOL    HW2 2835   3.056   2.287   1.195 -2.5149  0.1657 -2.5393
  946SOL     OW 2836   0.678   1.308   3.050  0.3871  0.7461  0.1502
  946SOL    HW1 2837   0.610   1.377   3.075  1.4303 -2.1738  0.7626
  946SOL    HW2 2838   0.709   1.333   2.952  0.0294  2.4390 -2.0021
  947SOL     OW 2839   2.209   0.302   2.015  0.0392 -0.5714 -0.6120
  947SOL    HW1 2840   2.224   0.296   2.113  3.3885 -0.8217 -0.6564
  947SOL    HW2 2841   2.280   0.357   1.969 -0.4060 -0.4502  0.1517
  948SOL     OW 2842   0.029   2.121   0.897  0.5134  0.3847  0.2087
  948SOL    HW1 2843   0.105   2.137   0.960  1.6129  0.2432 -1.1881
  948SOL    HW2 2844   3.062   2.073   0.941 -0.9451 -1.4902  0.9206
  949SOL     OW 2845   1.165   1.203   1.832 -0.3042  0.4127 -0.0619
  949SOL    HW1 2846   1.107   1.202   1.741 -1.2623  0.5717 -2.6252
  949SOL    HW2 2847   1.122   1.270   1.900  0.2198  1.2821  0.3750
  950SOL     OW 2848   0.206   0.958   1.018 -0.0134  0.3125  0.4422
  950SOL    HW1 2849   0.237   0.863   1.054  0.0316 -1.9484  1.2602
  950SOL    HW2 2850   0.282   1.019   0.990 -0.7212 -2.3557  2.1276
  951SOL     OW 2851   0.378   1.733   2.233  0.4986 -0.1843 -0.1231
  951SOL    HW1 2852   0.367   1.648   2.179  0.2534 -0.6234 -1.0976
  951SOL    HW2 2853   0.476   1.748   2.268  0.8141  1.4797  0.9299
  952SOL     OW 2854   1.474   1.684   0.227  0.3499  0.3781 -0.1822
  952SOL    HW1 2855   1.465   1.582   0.228 -1.2802 -0.4372  1.3420
  952SOL    HW2 2856   1.409   1.734   0.163 -2.6599  1.6144 -1.1792
  953SOL     OW 2857   0.929   0.643   0.174  0.0695  0.0726  0.1888
  953SOL    HW1 2858   1.004   0.655   0.105 -0.4103 -1.1443 -2.5647
  953SOL    HW2 2859   0.847   0.682   0.131  0.2190 -1.0012  5.1674
  954SOL     OW 2860   1.798   1.078   0.332 -0.0453 -0.0966  0.2838
  954SOL    HW1 2861   1.863   1.150   0.359  0.4498 -0.6526 -2.1280
  954SOL    HW2 2862   1.707   1.108   0.300  1.8868  0.4688 -1.6862
  955SOL     OW 2863   2.544   1.965   3.065 -0.2686  0.0355 -0.1420
  955SOL    HW1 2864   2.578   1.870   3.079  1.7230 -1.8838  0.2072
  955SOL    HW2 2865   2.580   2.007   2.975  1.3548  1.2372 -2.6609
  956SOL     OW 2866   1.174   0.727   1.786  0.2391  0.0341 -0.1581
  956SOL    HW1 2867   1.268   0.761   1.800  1.0430 -3.1009  1.3978
  956SOL    HW2 2868   1.155   0.676   1.874 -1.2003 -1.2487  1.0299
  957SOL     OW 2869   1.670   1.193   1.717 -0.1321  0.3109 -0.1635
  957SOL    HW1 2870   1.729   1.234   1.786 -2.0498 -3.1272 -2.9510
  957SOL    HW2 2871   1.571   1.222   1.732 -0.9562  1.3202  2.1626
  958SOL     OW 2872   0.296   1.949   0.437 -0.3013  0.4819 -0.0692
  958SOL    HW1 2873   0.319   1.850   0.438  0.4760 -0.9422  0.3422
  958SOL    HW2 2874   0.334   2.002   0.359 -1.7457  1.1286 -0.7712
  959SOL     OW 2875   1.737   1.342   1.376 -0.3999  0.3145  0.0932
  959SOL    HW1 2876   1.778   1.250   1.360 -0.1755 -1.7555  0.7707
  959SOL    HW2 2877   1.636   1.339   1.364 -1.3248  0.2339  2.8306
  960SOL     OW 2878   3.016   1.390   2.730  0.3184  0.0811  0.8169
  960SOL    HW1 2879   3.012   1.367   2.830 -0.7626 -0.5134  0.1809
  960SOL    HW2 2880   3.102   1.441   2.706  2.2099  2.0075 -1.4719
  961SOL     OW 2881   1.041   1.482   0.766  0.2550  0.1868  0.0640
  961SOL    HW1 2882   0.950   1.522   0.781  1.7291  0.2404  0.5358
  961SOL    HW2 2883   1.098   1.493   0.847 -0.9268  0.3453 -0.1549
  962SOL     OW 2884   0.745   0.916   0.381 -0.4989  0.6821  0.4230
  962SOL    HW1 2885   0.749   0.974   0.297  0.5476  1.2096 -2.0110
  962SOL    HW2 2886   0.752   0.970   0.471 -1.9474  1.8698  0.7360
  963SOL     OW 2887   1.309   2.022   1.799 -0.2646 -0.0324  0.5194
  963SOL    HW1 2888   1.397   1.992   1.759 -1.3091  1.7482  2.1957
  963SOL    HW2 2889   1.246   1.941   1.810  0.6637 -0.0125 -0.6728
  964SOL     OW 2890   2.964   2.706   2.932 -0.5119 -0.2439  0.4173
  964SOL    HW1 2891   2.955   2.666   3.027 -0.8732  1.0169 -0.1669
  964SOL    HW2 2892   2.959   2.646   2.853  0.1392 -2.6635 -0.0941
  965SOL     OW 2893   0.742   2.313   0.106  0.3701  0.1754  0.4324
  965SOL    HW1 2894   0.647   2.317   0.063 -0.4666 -0.1863  0.0576
  965SOL    HW2 2895   0.737   2.265   0.198 -1.9573 -1.7730 -1.9015
  966SOL     OW 2896   2.896   1.754   2.966 -0.1674 -0.2387 -0.5804
  966SOL    HW1 2897   2.809   1.715   3.001 -1.3090  1.8433 -0.0512
  966SOL    HW2 2898   2.894   1.734   2.865 -1.7743 -3.1796  0.3680
  967SOL     OW 2899   2.180   2.897   2.804 -0.0861  0.1121  0.3694
  967SOL    HW1 2900   2.234   2.970   2.750  1.0293  0.4375 -2.1506
  967SOL    HW2 2901   2.104   2.864   2.744  1.3980  0.8049  1.1209
  968SOL     OW 2902   2.192   2.769   0.585  0.2688 -0.2159 -0.2258
  968SOL    HW1 2903   2.122   2.747   0.514 -1.4055  0.2556 -1.8612
  968SOL    HW2 2904   2.143   2.803   0.667 -0.2769  0.2476  1.2439
  969SOL     OW 2905   0.743   1.175   2.355 -0.4573 -0.4910  0.1833
  969SOL    HW1 2906   0.656   1.215   2.389 -0.9462  0.9868 -0.5169
  969SOL    HW2 2907   0.739   1.073   2.364  0.6932 -3.4577 -1.9157
  970SOL     OW 2908   1.698   1.272   0.979  0.2919  0.2588  1.3005
  970SOL    HW1 2909   1.647   1.210   1.036  0.8232  0.2944  1.0547
  970SOL    HW2 2910   1.734   1.351   1.035 -1.4153 -0.9799  0.9280
  971SOL     OW 2911   2.444   3.060   1.256  0.4030 -0.4302  0.2636
  971SOL    HW1 2912   2.432   0.051   1.255 -3.6717 -0.3526 -2.0004
  971SOL    HW2 2913   2.535   3.022   1.292  1.6510  0.9233 -0.0202
  972SOL     OW 2914   2.889   3.087   1.506  0.1507 -0.0199  0.4954
  972SOL    HW1 2915   2.835   3.040   1.575  1.9644  0.9305 -0.8074
  972SOL    HW2 2916   2.934   0.062   1.541  0.6258  0.4563 -1.6167
  973SOL     OW 2917   0.051   0.180   2.558  0.0686 -0.2785  0.6358
  973SOL    HW1 2918   0.131   0.207   2.608 -2.0094  0.0381 -0.7341
  973SOL    HW2 2919   3.104   0.122   2.616 -0.4021  3.8785 -1.8452
  974SOL     OW 2920   2.341   1.219   2.294  0.0566  0.0402  0.6796
  974SOL    HW1 2921   2.258   1.156   2.312 -0.0033  1.9729 -1.3364
  974SOL    HW2 2922   2.318   1.295   2.231  1.4180 -0.5839  1.3012
  975SOL     OW 2923   0.819   0.413   1.659  0.2001  0.2169 -0.0010
  975SOL    HW1 2924   0.798   0.372   1.569 -0.0917  0.8045  0.6898
  975SOL    HW2 2925   0.863   0.504   1.650 -1.2379 -1.1877 -1.2444
  976SOL     OW 2926   0.762   1.940   2.185  0.0582  0.2797 -0.2928
  976SOL    HW1 2927   0.678   1.962   2.127 -1.7290  2.1281 -2.3600
  976SOL    HW2 2928   0.836   2.008   2.173 -0.4284  0.7542 -1.1006
  977SOL     OW 2929   0.830   0.080   0.274 -0.5248  0.2498  0.1261
  977SOL    HW1 2930   0.826   0.087   0.175  1.5394  0.1020  1.3741
  977SOL    HW2 2931   0.790   0.163   0.319  2.0251 -2.8967  0.6483
  978SOL     OW 2932   2.728   1.302   2.134  0.4027 -0.5378  0.0930
  978SOL    HW1 2933   2.711   1.307   2.035  1.0811 -1.5875  0.8756
  978SOL    HW2 2934   2.713   1.208   2.176  2.5414 -1.6834  1.4207
  979SOL     OW 2935   1.870   0.290   2.111  0.1052  0.3372 -0.0727
  979SOL    HW1 2936   1.889   0.321   2.020 -0.9200 -0.1687  1.0730
  979SOL    HW2 2937   1.926   0.209   2.145  1.3594  2.4968  0.2101
  980SOL     OW 2938   1.631   1.650   1.632 -0.0505 -0.2680 -0.2531
  980SOL    HW1 2939   1.685   1.654   1.715 -0.2595 -0.0138 -4.0294
  980SOL    HW2 2940   1.557   1.580   1.638 -0.5819 -0.1916  0.2384
  981SOL     OW 2941   2.487   1.069   1.598  0.6180  0.4960  0.2287
  981SOL    HW1 2942   2.452   1.079   1.503 -0.7822  1.6722  0.4879
  981SOL    HW2 2943   2.447   1.140   1.660 -1.0558  0.9487  1.7852
  982SOL     OW 2944   0.546   2.991   2.761 -0.2029  0.2405  0.2084
  982SOL    HW1 2945   0.447   3.007   2.738 -0.1202 -0.3223 -1.5486
  982SOL    HW2 2946   0.550   2.919   2.830 -0.9494  0.5677 -0.5291
  983SOL     OW 2947   2.741   0.852   2.621 -0.0629 -0.5810  0.6422
  983SOL    HW1 2948   2.830   0.897   2.651  3.3514  1.1171  1.0495
  983SOL    HW2 2949   2.652   0.906   2.633 -0.2170 -0.2847 -0.8776
  984SOL     OW 2950   1.383   0.005   2.045 -0.0435 -0.2440 -0.2428
  984SOL    HW1 2951   1.485   0.011   2.048  0.4333 -1.3374 -0.8454
  984SOL    HW2 2952   1.356   3.021   2.021  1.5333  0.1380  0.0955
  985SOL     OW 2953   1.978   1.992   1.950 -0.1215 -0.2973  0.1767
  985SOL    HW1 2954   1.991   1.953   1.855 -1.4467 -0.5022  0.0557
  985SOL    HW2 2955   2.002   1.926   2.024 -2.1267  0.5995 -0.3177
  986SOL     OW 2956   2.537   0.500   1.237 -0.0994 -0.1491 -0.5106
  986SOL    HW1 2957   2.450   0.557   1.245 -0.9743  1.3907 -2.5591
  986SOL    HW2 2958   2.578   0.518   1.143  0.9049 -1.3050  0.3424
  987SOL     OW 2959   2.433   0.908   1.136 -0.1842  0.3708 -0.2877
  987SOL    HW1 2960   2.426   0.928   1.038  3.0415  3.3327 -0.3014
  987SOL    HW2 2961   2.529   0.877   1.163 -0.5229  3.1608 -0.9661
  988SOL     OW 2962   2.264   1.301   1.730  0.1048 -0.5374 -0.4035
  988SOL    HW1 2963   2.205   1.348   1.796 -1.2187 -2.4667 -0.2294
  988SOL    HW2 2964   2.344   1.357   1.708  0.6380 -0.9991  2.7357
  989SOL     OW 2965   1.172   2.603   0.036  0.4238  0.1353 -0.3672
  989SOL    HW1 2966   1.178   2.695   0.084  1.8486  1.1820  3.1572
  989SOL    HW2 2967   1.201   2.530   0.102 -0.2955  1.7473 -2.6379
  990SOL     OW 2968   1.615   0.899   2.724  0.1661  0.5346  0.2660
  990SOL    HW1 2969   1.666   0.820   2.674  0.6356  0.9784 -2.6243
  990SOL    HW2 2970   1.519   0.881   2.746  2.9019  0.8968 -1.4540
  991SOL     OW 2971   1.180   0.499   0.530 -0.0566  0.2184 -0.2187
  991SOL    HW1 2972   1.230   0.566   0.591  1.3939 -3.7505  2.9564
  991SOL    HW2 2973   1.248   0.440   0.478 -0.3506 -3.3142 -1.2842
  992SOL     OW 2974   2.916   1.637   1.201 -0.0527  0.0128  0.2366
  992SOL    HW1 2975   2.820   1.665   1.208 -1.7761  0.1554 -2.3282
  992SOL    HW2 2976   2.942   1.567   1.270 -0.0401  0.2893  1.0580
  993SOL     OW 2977   2.861   0.475   1.307  0.6366  0.3707 -0.1712
  993SOL    HW1 2978   2.860   0.524   1.397  0.8730  0.6159  0.6201
  993SOL    HW2 2979   2.801   0.524   1.240 -1.8596 -0.6884 -0.8866
  994SOL     OW 2980   0.008   2.311   2.534 -0.1133  0.3593  0.2054
  994SOL    HW1 2981   0.090   2.334   2.482 -0.8261  2.3385 -1.0998
  994SOL    HW2 2982   0.034   2.346   2.626  1.2279  2.0141 -0.5626
  995SOL     OW 2983   1.805   1.099   2.803  0.3552  0.5615 -0.0391
  995SOL    HW1 2984   1.903   1.072   2.818 -1.5216  0.1031 -1.6496
  995SOL    HW2 2985   1.742   1.017   2.783 -1.2441 -1.5169 -0.6322
  996SOL     OW 2986   2.694   1.467   0.716  0.0230  0.4613 -0.2331
  996SOL    HW1 2987   2.703   1.552   0.661 -1.0653 -0.7174  0.4693
  996SOL    HW2 2988   2.734   1.391   0.661 -0.5744  0.7929 -0.1175
  997SOL     OW 2989   2.149   0.975   2.312 -0.0475 -0.6457 -0.0201
  997SOL    HW1 2990   2.221   0.904   2.300  2.0871  0.1807 -1.4790
  997SOL    HW2 2991   2.063   0.945   2.356 -0.2471  4.2789  1.7999
  998SOL     OW 2992   2.396   1.070   0.521 -0.0635 -0.2221  0.4000
  998SOL    HW1 2993   2.310   1.120   0.542  0.4467  1.1720  0.7623
  998SOL    HW2 2994   2.425   1.085   0.424  0.8961 -0.4023  0.3828
  999SOL     OW 2995   0.029   2.365   0.215  0.1506 -0.2165  0.1121
  999SOL    HW1 2996   0.083   2.304   0.278  0.0777  1.6010 -0.0883
  999SOL    HW2 2997   3.046   2.385   0.253  1.3603 -1.8609  2.1024
 1000SOL     OW 2998   0.887   0.888   2.669  0.0288  0.1115  0.2305
 1000SOL    HW1 2999   0.872   0.834   2.757 -1.8350  0.5932  0.2255
 1000SOL    HW2 3000   0.943   0.838   2.605 -0.1024  3.1129  0.0947
   3.11042   3.11042   3.11042
