1000 SPC/Fw water molecules t= 230.00000 step= 230000
 3000
    1SOL     OW    1   2.996   2.858   0.997 -0.1599 -0.5134  0.4921
    1SOL    HW1    2   3.084   2.812   1.024  0.6535  1.0660 -1.9469
    1SOL    HW2    3   3.015   2.945   0.955 -0.3635 -3.9875  1.6688
    2SOL     OW    4   1.926   1.819   1.482 -0.5741 -0.1507 -0.0099
    2SOL    HW1    5   1.977   1.737   1.517 -0.9738  0.1672  0.2570
    2SOL    HW2    6   1.825   1.801   1.477 -1.0878  1.9772  1.1160
    3SOL     OW    7   1.679   2.308   2.439  0.5477  0.0601 -0.4318
    3SOL    HW1    8   1.637   2.399   2.465 -1.2078  1.0847  1.7878
    3SOL    HW2    9   1.778   2.306   2.409  1.7545 -0.3106  2.6758
    4SOL     OW   10   2.095   1.971   2.201  0.6636  0.1900  0.0826
    4SOL    HW1   11   2.063   2.032   2.277 -0.4824 -3.1189  0.0384
    4SOL    HW2   12   2.193   1.951   2.210  1.6288  3.2769 -0.5476
    5SOL     OW   13   1.349   1.137   1.466  0.5340 -0.0554 -0.1510
    5SOL    HW1   14   1.328   1.132   1.366  0.1325  0.4117 -0.4397
    5SOL    HW2   15   1.307   1.054   1.510 -1.0377 -1.6876  0.1820
    6SOL     OW   16   2.725   0.095   3.038  0.5663  0.2608  0.1812
    6SOL    HW1   17   2.691   0.029   0.011  0.6152  1.2968 -0.3122
    6SOL    HW2   18   2.772   0.042   2.966  3.2480  1.0856  1.0666
    7SOL     OW   19   0.026   1.687   1.500 -0.2327 -0.7770  0.3136
    7SOL    HW1   20   0.054   1.626   1.426  0.2075  0.2014 -0.5267
    7SOL    HW2   21   3.042   1.648   1.548 -1.5202  0.8173 -2.1922
    8SOL     OW   22   1.046   0.416   0.799  0.0056 -0.0730 -0.0398
    8SOL    HW1   23   1.116   0.438   0.871  0.5093 -1.4437  0.1350
    8SOL    HW2   24   1.009   0.324   0.822 -0.3464 -1.8119  0.1873
    9SOL     OW   25   1.365   0.576   2.468  0.4739 -0.0194 -0.1498
    9SOL    HW1   26   1.445   0.626   2.510  0.1219 -1.3947 -1.9258
    9SOL    HW2   27   1.359   0.592   2.365  0.3056  0.5766 -0.4603
   10SOL     OW   28   0.653   2.207   0.252  0.5277 -0.4367  0.0218
   10SOL    HW1   29   0.607   2.124   0.286  0.3079 -0.0909  0.3532
   10SOL    HW2   30   0.634   2.296   0.303  0.3140 -1.0386 -0.2673
   11SOL     OW   31   0.895   0.892   0.115 -0.0884 -0.0092  0.2176
   11SOL    HW1   32   0.877   0.838   0.200  1.2491 -2.2155 -0.1784
   11SOL    HW2   33   0.834   0.973   0.110  0.4587 -0.7944 -0.0368
   12SOL     OW   34   0.065   0.272   1.764 -0.1867 -0.2702 -0.0329
   12SOL    HW1   35   0.010   0.272   1.677 -0.6366  0.1507 -1.0645
   12SOL    HW2   36   0.162   0.262   1.737  1.4919  0.7100 -1.1789
   13SOL     OW   37   1.405   0.105   0.093 -0.2234 -0.0085 -0.3991
   13SOL    HW1   38   1.357   0.019   0.063 -0.7012  0.0990  0.2145
   13SOL    HW2   39   1.352   0.143   0.171 -0.1377  0.1602 -0.8802
   14SOL     OW   40   1.205   2.498   1.230  0.0352 -0.0177  0.1399
   14SOL    HW1   41   1.167   2.497   1.324  0.6044 -0.3141 -2.0399
   14SOL    HW2   42   1.181   2.407   1.189 -2.2705  0.0864  0.1886
   15SOL     OW   43   2.551   1.085   1.550  0.2865 -0.1378  0.2592
   15SOL    HW1   44   2.637   1.137   1.562 -0.7864 -2.0009 -0.1082
   15SOL    HW2   45   2.569   0.987   1.569  0.0951 -0.9232  1.2122
   16SOL     OW   46   1.897   2.783   3.050 -0.8374  0.7714  0.1513
   16SOL    HW1   47   1.895   2.728   2.966 -1.5950 -0.2614  0.4295
   16SOL    HW2   48   1.878   2.878   3.031  0.0513 -0.1199  0.2771
   17SOL     OW   49   0.811   3.021   1.491  0.0270  0.2654 -0.0731
   17SOL    HW1   50   0.879   2.980   1.427 -0.4959  1.8907  1.3236
   17SOL    HW2   51   0.864   3.027   1.582 -0.6263  0.3372 -0.1700
   18SOL     OW   52   1.669   0.583   2.952  0.0520 -0.0940 -0.3264
   18SOL    HW1   53   1.657   0.485   2.973 -1.1022  0.0573 -0.8407
   18SOL    HW2   54   1.639   0.640   3.034  0.3162 -1.1155  0.3524
   19SOL     OW   55   1.986   1.794   0.143 -0.2469 -0.0833 -0.3391
   19SOL    HW1   56   2.038   1.722   0.193 -0.1326 -0.3687 -1.3279
   19SOL    HW2   57   2.034   1.884   0.154 -1.2288  3.4183 -2.7935
   20SOL     OW   58   2.004   1.564   1.561 -0.0259 -0.0518  0.0603
   20SOL    HW1   59   2.103   1.545   1.583  0.7598 -0.0748 -1.0180
   20SOL    HW2   60   1.953   1.551   1.646 -1.0446 -2.1860 -0.5221
   21SOL     OW   61   0.856   1.424   2.829  0.3079  0.3388 -0.3337
   21SOL    HW1   62   0.895   1.454   2.737 -1.1259  1.6210  0.1239
   21SOL    HW2   63   0.886   1.331   2.857 -2.2962  1.3115 -1.9029
   22SOL     OW   64   2.029   2.926   1.490  0.8346 -0.1942 -0.0145
   22SOL    HW1   65   1.930   2.954   1.496  3.6465 -0.2072  0.9368
   22SOL    HW2   66   2.077   2.991   1.429 -1.4553  1.5779 -1.0671
   23SOL     OW   67   2.994   0.507   1.713  0.0882 -0.2539 -0.3097
   23SOL    HW1   68   3.067   0.571   1.676  0.5828  2.4831 -0.6481
   23SOL    HW2   69   2.957   0.543   1.803  0.5334 -0.9590 -0.9280
   24SOL     OW   70   2.315   2.620   1.070  0.2868  0.4554 -0.3636
   24SOL    HW1   71   2.271   2.653   1.154  0.0031 -0.2992  0.1529
   24SOL    HW2   72   2.251   2.554   1.021 -1.1744  0.7722  0.7248
   25SOL     OW   73   1.709   2.759   2.481 -0.4129  0.1106  0.2747
   25SOL    HW1   74   1.796   2.751   2.428 -0.5250 -1.4092 -0.6525
   25SOL    HW2   75   1.643   2.683   2.457 -2.2975 -1.6029 -1.5447
   26SOL     OW   76   1.836   2.633   2.832  0.6134 -0.0462 -0.3181
   26SOL    HW1   77   1.740   2.658   2.829  2.4994 -1.5526 -0.7558
   26SOL    HW2   78   1.859   2.547   2.786 -0.0839 -0.5297  1.2004
   27SOL     OW   79   0.478   1.708   2.766  0.1219  0.2012  0.1419
   27SOL    HW1   80   0.523   1.739   2.851 -2.2287 -1.2107  2.6676
   27SOL    HW2   81   0.525   1.728   2.676 -1.1969  0.9440  0.0810
   28SOL     OW   82   2.791   1.202   1.496 -0.4074 -0.5603  0.4411
   28SOL    HW1   83   2.828   1.277   1.432 -0.8731 -0.8303  0.6308
   28SOL    HW2   84   2.799   1.238   1.595  0.5447 -0.9834  0.6082
   29SOL     OW   85   2.664   2.520   1.853  0.1696 -0.0509 -0.3171
   29SOL    HW1   86   2.744   2.483   1.904 -2.8028  0.0382 -0.8147
   29SOL    HW2   87   2.663   2.624   1.842 -1.4989  4.7099  0.1101
   30SOL     OW   88   1.582   0.231   2.815  0.5804 -0.5017 -0.0721
   30SOL    HW1   89   1.482   0.211   2.798 -1.8212 -0.8942 -0.5932
   30SOL    HW2   90   1.592   0.273   2.908 -0.5058  0.2696  0.2971
   31SOL     OW   91   2.744   2.766   1.769 -0.1816  0.1317 -0.1932
   31SOL    HW1   92   2.798   2.832   1.824  1.5808 -0.6737  0.4741
   31SOL    HW2   93   2.689   2.811   1.692 -0.8428 -0.2319 -0.4287
   32SOL     OW   94   1.147   1.589   1.436  0.0530  0.1645 -0.4059
   32SOL    HW1   95   1.079   1.605   1.510  3.8415 -1.0907  1.3162
   32SOL    HW2   96   1.124   1.524   1.361  0.8620  1.8692  0.1308
   33SOL     OW   97   0.398   2.740   2.425 -0.4197  0.2975 -0.4760
   33SOL    HW1   98   0.333   2.764   2.349 -3.2269 -1.8425 -0.3945
   33SOL    HW2   99   0.360   2.654   2.471 -0.2575 -0.6082  0.8675
   34SOL     OW  100   1.795   0.112   0.671 -0.1045 -0.2690 -0.3070
   34SOL    HW1  101   1.742   0.194   0.703 -0.1171 -2.7455 -1.0291
   34SOL    HW2  102   1.871   0.136   0.610 -1.0067 -1.5599 -0.3086
   35SOL     OW  103   1.990   0.016   0.838 -0.2067 -0.0451 -0.6065
   35SOL    HW1  104   2.056   0.030   0.763 -0.4540  2.1283  0.7793
   35SOL    HW2  105   1.896   0.038   0.813 -2.4552  0.0073  2.4150
   36SOL     OW  106   1.773   2.639   2.079  0.1842 -0.0981  0.4082
   36SOL    HW1  107   1.865   2.595   2.097  1.1784 -1.1353 -0.6359
   36SOL    HW2  108   1.705   2.593   2.141  1.3003  0.7982 -2.5633
   37SOL     OW  109   0.838   2.791   2.330 -0.4921 -0.4900  0.6085
   37SOL    HW1  110   0.761   2.783   2.265  0.8700  2.3409  0.5076
   37SOL    HW2  111   0.882   2.705   2.361 -0.3678 -0.1320  0.6454
   38SOL     OW  112   0.046   2.744   2.614  0.1318  0.3848 -0.7868
   38SOL    HW1  113   0.061   2.644   2.613  2.3846 -1.8332 -3.2809
   38SOL    HW2  114   0.107   2.791   2.680  0.2102  0.1689  0.0133
   39SOL     OW  115   2.505   1.322   2.081  0.0208 -0.0570 -0.3034
   39SOL    HW1  116   2.565   1.403   2.090  0.7288 -2.2893  1.3312
   39SOL    HW2  117   2.501   1.288   1.985 -0.7919  1.0051  1.8701
   40SOL     OW  118   0.235   2.905   2.843  0.0268  0.3752  0.4419
   40SOL    HW1  119   0.271   2.931   2.750  5.8499 -2.1517  0.6645
   40SOL    HW2  120   0.297   2.835   2.889 -1.6880  1.1047  0.5217
   41SOL     OW  121   1.803   0.617   0.840  0.1261  0.2001  0.0194
   41SOL    HW1  122   1.874   0.589   0.774  1.9409 -1.1516 -2.8675
   41SOL    HW2  123   1.811   0.714   0.865 -0.6294 -2.1107  0.0796
   42SOL     OW  124   0.512   0.494   1.237 -0.5263  0.0391 -0.1240
   42SOL    HW1  125   0.594   0.475   1.178 -0.7656 -0.7805  0.5697
   42SOL    HW2  126   0.468   0.578   1.203  1.7411 -0.0156 -1.2691
   43SOL     OW  127   2.641   1.485   2.909  0.3586  0.0882  0.4117
   43SOL    HW1  128   2.690   1.398   2.928 -0.1010  0.0365  1.7778
   43SOL    HW2  129   2.641   1.512   2.809  1.7301 -2.0735 -2.2667
   44SOL     OW  130   3.081   2.615   0.658  0.5181 -0.3776  0.3713
   44SOL    HW1  131   0.068   2.654   0.698 -2.7494 -1.6140  2.1404
   44SOL    HW2  132   3.040   2.548   0.720  1.1499 -0.6072  0.0842
   45SOL     OW  133   0.251   2.640   1.604  0.0567  0.9440 -0.3755
   45SOL    HW1  134   0.257   2.544   1.567 -0.7921  1.1255 -3.0775
   45SOL    HW2  135   0.173   2.690   1.560 -2.4599  0.7861  0.4576
   46SOL     OW  136   2.397   2.310   2.232 -0.0900 -0.3592  0.2800
   46SOL    HW1  137   2.473   2.254   2.269 -0.9135 -2.0378  1.2149
   46SOL    HW2  138   2.412   2.347   2.135 -0.8265  0.1365 -3.1971
   47SOL     OW  139   2.209   2.113   1.253  0.1093 -0.3766  0.5659
   47SOL    HW1  140   2.212   2.212   1.277 -2.0453  1.1003 -0.4694
   47SOL    HW2  141   2.118   2.069   1.261  0.4428  3.4062 -0.6252
   48SOL     OW  142   0.514   1.620   0.151  0.5616 -0.2075  0.3052
   48SOL    HW1  143   0.581   1.631   0.077  1.3794 -1.2206  1.2442
   48SOL    HW2  144   0.452   1.549   0.120  0.3591  0.4800  2.2022
   49SOL     OW  145   2.792   0.278   2.520 -0.8062 -0.0696 -0.0595
   49SOL    HW1  146   2.727   0.280   2.450 -0.0611 -0.6787  2.7754
   49SOL    HW2  147   2.882   0.318   2.495  1.2235 -0.1756  2.8831
   50SOL     OW  148   2.422   0.719   0.313 -0.6467 -0.1456 -0.6349
   50SOL    HW1  149   2.348   0.785   0.334 -0.8265 -2.0955  0.3279
   50SOL    HW2  150   2.391   0.675   0.228 -1.5410  2.5473  1.4378
   51SOL     OW  151   1.975   0.592   1.196  0.0783  0.3043  0.6399
   51SOL    HW1  152   2.044   0.646   1.149 -0.7705  2.3498 -1.7421
   51SOL    HW2  153   1.914   0.537   1.137  2.6800  1.7108 -0.2022
   52SOL     OW  154   1.200   1.199   2.797  0.2888 -0.0077  0.1268
   52SOL    HW1  155   1.235   1.279   2.742 -0.5012  3.3715 -0.7992
   52SOL    HW2  156   1.274   1.132   2.817 -2.7473 -2.7508  0.5481
   53SOL     OW  157   0.778   1.644   1.817 -0.3928  0.6859 -0.5532
   53SOL    HW1  158   0.675   1.653   1.829 -2.1057 -1.0436  0.2751
   53SOL    HW2  159   0.795   1.596   1.727 -1.7069  1.1101 -0.2409
   54SOL     OW  160   1.841   0.170   1.096 -0.5101 -0.0543 -0.2555
   54SOL    HW1  161   1.829   0.188   1.194 -2.2534 -0.4451 -2.0208
   54SOL    HW2  162   1.934   0.128   1.073  0.1218  1.2734  1.1878
   55SOL     OW  163   2.649   2.339   1.372  0.3616  0.3763 -0.1914
   55SOL    HW1  164   2.706   2.335   1.289 -0.4705  0.2006  2.3137
   55SOL    HW2  165   2.620   2.242   1.400  3.1018 -1.7618  1.6959
   56SOL     OW  166   0.982   3.054   1.694  0.3225 -0.2101 -0.0071
   56SOL    HW1  167   0.951   2.998   1.773 -1.0569  0.3792 -0.3401
   56SOL    HW2  168   1.045   0.029   1.722 -3.1674 -1.2250  2.3714
   57SOL     OW  169   1.759   1.502   0.083 -0.6872 -0.0026  0.3100
   57SOL    HW1  170   1.823   1.550   0.019 -1.9072 -0.3305  1.6803
   57SOL    HW2  171   1.740   1.560   0.160 -1.2147  0.3265 -0.4414
   58SOL     OW  172   3.020   0.412   2.444 -0.4149 -0.1404  0.7287
   58SOL    HW1  173   2.965   0.488   2.405  0.1364 -1.0678  0.5161
   58SOL    HW2  174   3.073   0.440   2.529  2.9605  2.4375 -2.1334
   59SOL     OW  175   0.980   2.545   2.400 -0.6516  0.1631 -0.0548
   59SOL    HW1  176   1.011   2.584   2.490 -0.9128 -2.0133  1.0429
   59SOL    HW2  177   0.931   2.457   2.422 -1.2518 -0.3279 -1.2437
   60SOL     OW  178   2.576   2.646   0.741  0.2376  0.2038  0.1216
   60SOL    HW1  179   2.542   2.569   0.800 -0.8995  0.0059 -1.8026
   60SOL    HW2  180   2.527   2.660   0.654  1.2765  0.1648  0.5929
   61SOL     OW  181   1.185   2.239   0.644 -0.0086  0.7347  0.3940
   61SOL    HW1  182   1.195   2.337   0.667  1.6422  1.0700  0.3719
   61SOL    HW2  183   1.255   2.215   0.575 -0.8681  1.1613 -0.2983
   62SOL     OW  184   2.490   1.948   2.521 -0.0819  0.3766 -0.1306
   62SOL    HW1  185   2.458   1.998   2.602  1.1857 -1.2733 -1.1793
   62SOL    HW2  186   2.430   1.876   2.497  1.7871  4.3888 -0.2347
   63SOL     OW  187   2.326   0.014   3.048 -0.0559 -0.4297  0.6236
   63SOL    HW1  188   2.399   0.073   3.012  0.1799 -0.1021  1.3263
   63SOL    HW2  189   2.245   0.066   3.092 -2.3244  2.4861  3.0695
   64SOL     OW  190   1.339   0.746   2.779  0.5954  0.0882  0.5423
   64SOL    HW1  191   1.365   0.683   2.855 -1.1976  0.6665  0.2856
   64SOL    HW2  192   1.409   0.741   2.704 -1.4782 -3.5805  0.3402
   65SOL     OW  193   1.536   2.666   0.219 -0.0339  0.1332  0.3307
   65SOL    HW1  194   1.522   2.733   0.144 -0.8601 -0.1220  1.8955
   65SOL    HW2  195   1.618   2.615   0.201  0.9698  2.2632 -2.9403
   66SOL     OW  196   0.249   1.285   1.652 -0.1369 -0.4460  0.0014
   66SOL    HW1  197   0.241   1.378   1.592  1.2260  1.9243 -3.8516
   66SOL    HW2  198   0.261   1.206   1.591 -0.3982  0.6210 -1.0273
   67SOL     OW  199   2.553   2.972   2.819  0.9442 -0.1136 -0.9728
   67SOL    HW1  200   2.652   2.965   2.828  0.7862  0.2716 -2.7898
   67SOL    HW2  201   2.537   3.029   2.738 -0.0484 -0.8696  0.8767
   68SOL     OW  202   0.651   2.318   1.313  0.7276  0.4006  0.2168
   68SOL    HW1  203   0.730   2.254   1.317 -1.9836 -1.0155 -2.8801
   68SOL    HW2  204   0.666   2.408   1.360  0.8006 -1.1568 -0.3554
   69SOL     OW  205   0.592   2.430   0.412  0.0107 -0.3968  0.0851
   69SOL    HW1  206   0.685   2.451   0.447 -2.3642  2.4374  0.1074
   69SOL    HW2  207   0.523   2.427   0.488 -1.6959 -0.7137 -0.1604
   70SOL     OW  208   2.951   0.958   2.843 -0.0594 -0.1460  0.0901
   70SOL    HW1  209   2.969   1.060   2.850 -2.8706 -0.2962 -1.5941
   70SOL    HW2  210   2.968   0.924   2.748  2.2712  0.3284 -0.6776
   71SOL     OW  211   0.372   1.278   2.561  0.0551  0.5284  0.4310
   71SOL    HW1  212   0.389   1.375   2.540 -0.1835  2.5494 -1.1699
   71SOL    HW2  213   0.456   1.238   2.605 -0.8325  0.7442  0.8591
   72SOL     OW  214   0.345   2.194   0.180  0.2154 -0.2616  0.6333
   72SOL    HW1  215   0.419   2.143   0.125  1.0976 -0.1206 -0.4672
   72SOL    HW2  216   0.365   2.292   0.183 -0.0386 -1.0838  2.7647
   73SOL     OW  217   0.834   1.262   0.296 -0.2264  0.2456 -0.3645
   73SOL    HW1  218   0.840   1.362   0.293  0.6973 -0.9477 -1.4471
   73SOL    HW2  219   0.900   1.228   0.363 -0.3745  1.2926 -1.5112
   74SOL     OW  220   2.906   0.018   0.296 -0.2816  0.0438  0.4512
   74SOL    HW1  221   2.865   3.040   0.243  1.3188  0.4312  2.9381
   74SOL    HW2  222   2.986   0.061   0.250  0.5116 -0.8634  0.6536
   75SOL     OW  223   2.290   1.628   2.075 -0.4304  0.0189 -0.6863
   75SOL    HW1  224   2.377   1.612   2.024  1.2575  3.1822 -1.2196
   75SOL    HW2  225   2.217   1.627   2.004  1.1180 -0.0059 -1.3901
   76SOL     OW  226   1.996   2.649   1.501  0.3058 -0.1481 -0.1734
   76SOL    HW1  227   2.038   2.743   1.510  0.3256 -0.4691  0.7090
   76SOL    HW2  228   1.963   2.636   1.405  0.0905  1.4882 -1.6338
   77SOL     OW  229   2.450   0.569   1.519  0.3425 -0.6572 -0.0287
   77SOL    HW1  230   2.500   0.639   1.573 -0.8473  0.0987  2.5394
   77SOL    HW2  231   2.505   0.562   1.432 -1.0995  1.5702 -0.0030
   78SOL     OW  232   2.049   1.079   3.017  0.2288  0.2360 -0.5498
   78SOL    HW1  233   1.995   1.009   2.970  1.3866 -0.5253 -0.1199
   78SOL    HW2  234   1.998   1.166   3.009  0.3192  1.1149  1.5985
   79SOL     OW  235   0.683   1.687   2.104 -0.3258  0.1446 -0.3069
   79SOL    HW1  236   0.640   1.679   2.011 -0.7545  0.6506 -2.3363
   79SOL    HW2  237   0.731   1.600   2.133  2.3217 -2.9626  2.4410
   80SOL     OW  238   1.586   0.891   1.013  0.0495 -0.3435 -0.1903
   80SOL    HW1  239   1.561   0.980   0.965 -0.1958  1.8560  0.0776
   80SOL    HW2  240   1.670   0.855   0.969 -2.2577 -0.0585  2.4863
   81SOL     OW  241   0.799   0.546   1.415 -0.1077 -0.2881  0.0539
   81SOL    HW1  242   0.742   0.580   1.494  0.3289  1.2019  2.0643
   81SOL    HW2  243   0.744   0.534   1.329 -2.5838 -0.0901 -0.7712
   82SOL     OW  244   1.368   2.296   1.788 -0.1282 -0.5979 -0.4357
   82SOL    HW1  245   1.434   2.223   1.816 -0.0412  0.1546 -0.8656
   82SOL    HW2  246   1.395   2.331   1.695  2.5829  0.6408 -2.1860
   83SOL     OW  247   0.497   3.087   0.994  0.0119 -0.1712 -0.3779
   83SOL    HW1  248   0.493   0.078   1.048  1.4534  0.0884 -0.5020
   83SOL    HW2  249   0.514   3.095   0.892  0.8185  0.2282  0.5377
   84SOL     OW  250   0.032   0.764   2.989  0.1173  0.1937 -0.1344
   84SOL    HW1  251   0.072   0.816   2.911  0.9405 -0.1934 -3.1893
   84SOL    HW2  252   3.044   0.715   2.961  0.2780  0.1322  0.1752
   85SOL     OW  253   2.962   2.604   1.627  0.2785  0.1862 -0.7132
   85SOL    HW1  254   2.953   2.593   1.525  0.0845  1.2995  0.6993
   85SOL    HW2  255   2.873   2.638   1.669 -0.9187 -0.9074  0.2460
   86SOL     OW  256   0.030   2.760   1.776  0.2143 -0.1433  0.0757
   86SOL    HW1  257   3.089   2.681   1.722  2.1367  0.3811 -1.8461
   86SOL    HW2  258   0.003   2.841   1.728  2.8168 -2.3280  0.4595
   87SOL     OW  259   2.977   2.681   3.017 -0.9444  0.4340 -0.4773
   87SOL    HW1  260   2.936   2.697   2.924 -1.4291  1.7653  0.2934
   87SOL    HW2  261   2.931   2.603   3.062 -2.5754 -0.6701 -0.5100
   88SOL     OW  262   0.300   2.075   1.341 -0.3921  0.2816 -0.1101
   88SOL    HW1  263   0.318   2.169   1.303 -3.6519  1.7236 -2.2898
   88SOL    HW2  264   0.381   2.019   1.380  1.4360 -0.2558 -1.1024
   89SOL     OW  265   1.246   0.786   1.885  0.3098  0.0569  0.2692
   89SOL    HW1  266   1.157   0.835   1.893  1.1131 -1.8824  1.8847
   89SOL    HW2  267   1.226   0.698   1.829 -0.8834  0.2551 -0.4978
   90SOL     OW  268   2.767   1.463   2.042 -0.0963 -0.3222  0.3331
   90SOL    HW1  269   2.774   1.482   2.140  1.3088  0.9737  0.0974
   90SOL    HW2  270   2.858   1.461   1.994 -0.7544 -3.6647  1.4609
   91SOL     OW  271   1.108   1.918   0.490 -0.3100  0.3233  0.0853
   91SOL    HW1  272   1.128   2.020   0.470  1.5435 -0.5749 -1.3665
   91SOL    HW2  273   1.184   1.852   0.492 -0.2732  0.9195  0.3410
   92SOL     OW  274   2.206   0.419   1.124  0.3134 -0.0478 -0.3079
   92SOL    HW1  275   2.304   0.420   1.097  0.0861 -0.3025 -0.7092
   92SOL    HW2  276   2.196   0.436   1.225 -2.6202 -0.5418  3.2448
   93SOL     OW  277   2.460   1.518   0.020  0.1693  0.2635  0.1797
   93SOL    HW1  278   2.524   1.495   3.038  2.3066  0.8712  0.2588
   93SOL    HW2  279   2.361   1.506   3.086 -2.3228  0.5938 -2.2573
   94SOL     OW  280   2.581   2.171   2.375 -0.2247 -0.0594 -0.2493
   94SOL    HW1  281   2.544   2.103   2.440  1.5148  0.0432  2.2251
   94SOL    HW2  282   2.655   2.230   2.417 -0.0823  0.1912 -1.5866
   95SOL     OW  283   1.782   0.442   1.076 -0.3179  0.8020  0.0576
   95SOL    HW1  284   1.776   0.487   0.983  3.1883  1.7466 -1.9285
   95SOL    HW2  285   1.799   0.337   1.071 -0.2181 -0.1104  1.6879
   96SOL     OW  286   2.738   0.163   1.746  0.4447 -0.1184  0.4120
   96SOL    HW1  287   2.705   0.125   1.834  1.0462  0.3686 -0.2100
   96SOL    HW2  288   2.836   0.143   1.732 -1.2019  0.8447 -0.2544
   97SOL     OW  289   2.152   0.013   1.312 -0.2242 -0.4612 -0.3213
   97SOL    HW1  290   2.162   0.056   1.224 -1.8457  1.5685 -1.0441
   97SOL    HW2  291   2.129   0.081   1.383  0.4739  2.7027  0.6100
   98SOL     OW  292   1.415   2.347   1.524 -0.1623  0.0233 -0.1308
   98SOL    HW1  293   1.471   2.431   1.507  2.4210  2.6897 -1.0816
   98SOL    HW2  294   1.468   2.270   1.476  0.4533  1.1000 -1.4764
   99SOL     OW  295   2.865   2.897   1.964  0.1911  0.3689  0.0962
   99SOL    HW1  296   2.966   2.913   1.971 -1.2370 -0.0717  0.0270
   99SOL    HW2  297   2.831   2.853   2.046  0.5922  1.3955  1.6740
  100SOL     OW  298   0.225   0.665   2.647  0.4403  0.5941 -0.1091
  100SOL    HW1  299   0.208   0.737   2.714  0.9650 -2.0398  0.7046
  100SOL    HW2  300   0.324   0.638   2.645 -3.6563  0.4601 -0.2882
  101SOL     OW  301   1.934   0.960   0.201 -0.0169  0.1066  0.1562
  101SOL    HW1  302   1.893   0.919   0.286 -0.2679  4.1794 -2.4356
  101SOL    HW2  303   1.976   1.053   0.216 -2.5919  0.0249 -2.0633
  102SOL     OW  304   0.204   0.582   1.609 -1.2329 -0.1261 -0.2070
  102SOL    HW1  305   0.155   0.642   1.672 -0.1159 -1.8728 -1.1507
  102SOL    HW2  306   0.218   0.487   1.649 -0.9317 -2.2131  0.2028
  103SOL     OW  307   3.004   1.060   2.073 -0.4021  0.0616  0.0811
  103SOL    HW1  308   3.082   0.997   2.053  2.4718 -0.4289  1.3387
  103SOL    HW2  309   2.939   1.029   2.149 -0.1532 -1.3190  0.8318
  104SOL     OW  310   0.381   0.287   2.820 -0.1123 -0.8714  0.0724
  104SOL    HW1  311   0.481   0.275   2.831  0.3928  0.2120 -0.7957
  104SOL    HW2  312   0.368   0.336   2.735  0.5016 -1.5809  0.6207
  105SOL     OW  313   2.215   1.852   1.789 -0.1312  0.0055  0.0729
  105SOL    HW1  314   2.155   1.930   1.821 -1.9165 -3.1543 -0.5648
  105SOL    HW2  315   2.163   1.766   1.804 -0.6905  0.3130  0.2211
  106SOL     OW  316   1.634   0.418   0.392  0.5263  0.2700 -0.2429
  106SOL    HW1  317   1.671   0.324   0.388  0.2901  0.4740  1.5911
  106SOL    HW2  318   1.558   0.429   0.459 -0.4850  2.7294  0.1173
  107SOL     OW  319   0.162   1.847   1.710  0.2032  0.1430  0.6124
  107SOL    HW1  320   0.161   1.946   1.727  0.9758 -0.1787 -0.5652
  107SOL    HW2  321   0.112   1.839   1.624  0.4661 -2.6812  0.0084
  108SOL     OW  322   2.848   2.809   2.263 -0.6730 -0.3983 -0.3551
  108SOL    HW1  323   2.941   2.767   2.266  2.0176 -0.1197 -0.1734
  108SOL    HW2  324   2.854   2.903   2.303  1.4679  0.6778  0.2276
  109SOL     OW  325   1.807   0.404   0.147  0.3923  0.1755  0.1614
  109SOL    HW1  326   1.900   0.397   0.108 -0.5959  1.3514 -0.4543
  109SOL    HW2  327   1.786   0.497   0.181 -1.2339  1.0314  0.2463
  110SOL     OW  328   0.476   2.310   2.321  0.2635 -0.1312  0.3975
  110SOL    HW1  329   0.490   2.222   2.267  0.8227  2.0033  0.6273
  110SOL    HW2  330   0.536   2.312   2.400 -0.0396 -1.7664 -3.9882
  111SOL     OW  331   1.519   2.514   2.132 -0.1053 -0.4088  0.3447
  111SOL    HW1  332   1.566   2.454   2.065 -1.3079  1.7707  3.4886
  111SOL    HW2  333   1.433   2.546   2.089 -1.0886  0.2839 -3.2972
  112SOL     OW  334   1.958   2.675   2.391 -0.1329 -0.1407  0.5696
  112SOL    HW1  335   2.010   2.692   2.477 -1.2779  0.6264 -1.1556
  112SOL    HW2  336   2.026   2.652   2.319  1.9065  0.2083 -0.0510
  113SOL     OW  337   1.931   2.553   1.741 -0.0258  0.2251 -0.4032
  113SOL    HW1  338   1.998   2.593   1.673  0.4298  0.8788  0.8579
  113SOL    HW2  339   1.943   2.597   1.831  0.0892  1.8885 -4.2871
  114SOL     OW  340   2.999   0.688   0.674 -0.1866 -0.2260  1.0461
  114SOL    HW1  341   3.022   0.683   0.574 -1.0096  1.7632  0.4137
  114SOL    HW2  342   2.984   0.592   0.707  1.6545 -1.1940  3.7858
  115SOL     OW  343   0.178   0.880   2.795 -0.3582  0.5871  0.2956
  115SOL    HW1  344   0.146   0.965   2.742  0.2506  2.6172  0.2413
  115SOL    HW2  345   0.282   0.889   2.807 -0.3371  1.6632 -0.9008
  116SOL     OW  346   0.313   1.221   2.056  0.1291 -0.2561 -0.0762
  116SOL    HW1  347   0.381   1.153   2.035 -0.2235  3.7984 -0.5711
  116SOL    HW2  348   0.314   1.297   1.990 -3.1462 -0.9747  1.2778
  117SOL     OW  349   2.490   3.092   0.436  0.4234 -0.4996 -0.0481
  117SOL    HW1  350   2.493   3.008   0.375 -1.1259 -2.0695  2.5054
  117SOL    HW2  351   2.401   0.046   0.428 -0.1584  0.2537 -0.1361
  118SOL     OW  352   1.236   1.804   1.600 -0.2637 -0.2789 -0.1904
  118SOL    HW1  353   1.277   1.721   1.552 -0.8984 -2.2138 -0.6426
  118SOL    HW2  354   1.254   1.803   1.701 -0.3733 -0.8321  1.7159
  119SOL     OW  355   1.057   2.399   2.943 -1.2666 -0.8210 -0.0758
  119SOL    HW1  356   1.116   2.421   3.022 -0.3337 -0.6370 -0.2368
  119SOL    HW2  357   1.115   2.386   2.859  1.8878 -3.0688 -1.8954
  120SOL     OW  358   0.445   0.888   2.846  0.1416 -0.6339  0.2419
  120SOL    HW1  359   0.473   0.792   2.842 -2.2156  0.1783 -0.3716
  120SOL    HW2  360   0.526   0.950   2.837 -0.8164  1.7945 -0.3006
  121SOL     OW  361   1.896   2.605   1.260 -1.1288 -0.1441  1.0937
  121SOL    HW1  362   1.894   2.691   1.205 -0.9851 -0.6166 -0.0350
  121SOL    HW2  363   1.835   2.537   1.218  1.1608 -0.0665  0.6020
  122SOL     OW  364   2.420   2.157   1.939  0.1660  0.0998  0.0249
  122SOL    HW1  365   2.421   2.256   1.966  0.9264  1.7807  1.1515
  122SOL    HW2  366   2.411   2.148   1.837 -0.2704  1.6853  3.2140
  123SOL     OW  367   0.277   2.880   0.500 -0.0700  0.2393 -0.0283
  123SOL    HW1  368   0.354   2.843   0.448 -0.0435  1.1266  4.5443
  123SOL    HW2  369   0.203   2.913   0.441 -0.8996  0.5610  1.6691
  124SOL     OW  370   2.196   1.088   2.440 -0.2820  0.2190  0.0070
  124SOL    HW1  371   2.131   1.036   2.501 -2.6363  0.4435 -0.7531
  124SOL    HW2  372   2.202   1.045   2.346  0.2893 -0.9652 -0.1099
  125SOL     OW  373   0.454   1.238   0.626 -0.5913 -0.5286  0.1475
  125SOL    HW1  374   0.502   1.249   0.537  3.1844 -0.0922 -1.1439
  125SOL    HW2  375   0.372   1.296   0.628  0.3549  1.6189 -1.2001
  126SOL     OW  376   2.654   1.847   1.108  0.0155 -0.1074 -0.2114
  126SOL    HW1  377   2.755   1.824   1.089  2.4875  0.3221 -1.1893
  126SOL    HW2  378   2.642   1.946   1.131 -0.7919  1.7735 -2.4619
  127SOL     OW  379   3.087   2.368   1.829 -0.4306  0.0973  0.6614
  127SOL    HW1  380   3.074   2.433   1.746 -1.6845  1.2508 -0.7427
  127SOL    HW2  381   3.027   2.406   1.900 -0.5653  1.3463 -0.6994
  128SOL     OW  382   0.894   0.654   2.854  0.1311  0.1312  0.2229
  128SOL    HW1  383   0.893   0.730   2.923 -0.5752  0.1849 -2.7179
  128SOL    HW2  384   0.957   0.676   2.780 -0.2682  0.6188  2.1533
  129SOL     OW  385   2.702   1.188   0.953 -0.5980 -0.0573  0.0148
  129SOL    HW1  386   2.782   1.182   0.888  1.2196  0.5729 -0.6993
  129SOL    HW2  387   2.718   1.136   1.040 -2.0158 -1.7694  2.5424
  130SOL     OW  388   2.363   1.275   1.447  0.0558 -0.1978  0.0232
  130SOL    HW1  389   2.411   1.201   1.495 -0.0758  0.1923 -1.8405
  130SOL    HW2  390   2.427   1.331   1.396 -1.4183 -2.7040  1.5429
  131SOL     OW  391   2.526   0.224   0.175 -0.4593  0.0135  0.5517
  131SOL    HW1  392   2.575   0.280   0.246 -1.1700  1.5045 -1.3727
  131SOL    HW2  393   2.592   0.192   0.103 -1.6063  0.7980 -2.0860
  132SOL     OW  394   2.730   2.036   1.736  0.2546  0.2318 -0.1895
  132SOL    HW1  395   2.634   2.024   1.760  2.1125 -1.6045  1.7623
  132SOL    HW2  396   2.787   2.088   1.805  2.6586  1.9658  1.0295
  133SOL     OW  397   0.849   0.960   1.156 -0.3587 -0.3532  0.5708
  133SOL    HW1  398   0.873   0.898   1.077 -1.2443 -0.3788 -0.2162
  133SOL    HW2  399   0.835   1.054   1.118 -0.4327  1.7687 -1.4550
  134SOL     OW  400   0.153   1.309   0.279 -0.1439 -0.2849  0.3189
  134SOL    HW1  401   0.116   1.248   0.349 -1.5431  3.0706 -0.0487
  134SOL    HW2  402   0.109   1.298   0.187 -0.3428 -1.0402 -1.0356
  135SOL     OW  403   2.174   1.117   1.362 -0.5272 -0.0417 -0.1517
  135SOL    HW1  404   2.222   1.196   1.402 -0.1204  1.8494 -1.6036
  135SOL    HW2  405   2.088   1.100   1.414 -0.1878  0.1712 -2.0354
  136SOL     OW  406   2.644   0.618   0.728  0.4873  0.0895  0.3426
  136SOL    HW1  407   2.546   0.643   0.743  0.0539  1.2802  0.2505
  136SOL    HW2  408   2.710   0.694   0.739  0.4662 -0.9677  0.5114
  137SOL     OW  409   2.562   1.435   1.311  0.4415 -0.2639  0.4759
  137SOL    HW1  410   2.650   1.487   1.322  1.5220 -1.3651  1.7755
  137SOL    HW2  411   2.558   1.412   1.214  1.6090  1.7941  1.4951
  138SOL     OW  412   1.507   0.775   1.466  0.6390  0.2130  0.3514
  138SOL    HW1  413   1.568   0.766   1.547 -0.3923  1.7087 -1.8167
  138SOL    HW2  414   1.484   0.680   1.436 -0.8295  0.8146 -0.2802
  139SOL     OW  415   2.082   0.093   0.043 -0.4198  0.6849 -0.0300
  139SOL    HW1  416   2.010   0.052   3.082  1.4529  1.8893  0.2648
  139SOL    HW2  417   2.093   0.035   0.129  0.7782 -1.6176  3.3691
  140SOL     OW  418   1.411   1.780   1.840  0.0560  0.6323 -0.3083
  140SOL    HW1  419   1.493   1.789   1.899 -1.9403  0.3705  0.0746
  140SOL    HW2  420   1.329   1.754   1.902  0.0615 -1.0184  1.3169
  141SOL     OW  421   1.871   1.957   0.944 -0.1299 -0.0379 -0.3115
  141SOL    HW1  422   1.941   2.028   0.967 -0.0102 -2.4596  3.9324
  141SOL    HW2  423   1.891   1.863   0.987  0.1913 -1.2574 -0.5166
  142SOL     OW  424   3.089   0.980   0.088 -0.4341  0.0468  0.4200
  142SOL    HW1  425   3.096   0.918   0.009 -0.8610  0.3527  0.6823
  142SOL    HW2  426   0.009   0.929   0.176 -0.7213 -1.8294  0.1306
  143SOL     OW  427   0.512   1.994   2.594 -0.1350 -0.2337  0.1685
  143SOL    HW1  428   0.427   1.989   2.538 -1.9195  0.2461  1.1963
  143SOL    HW2  429   0.568   1.911   2.574  1.9500 -1.6681  1.4092
  144SOL     OW  430   1.167   0.132   1.840 -0.4074  0.0407 -0.5706
  144SOL    HW1  431   1.263   0.122   1.807  1.4789  1.0213 -3.6304
  144SOL    HW2  432   1.143   0.096   1.937 -3.4223 -2.2809  0.5845
  145SOL     OW  433   2.639   1.033   0.453  0.5499  0.1898  0.5238
  145SOL    HW1  434   2.627   0.964   0.530 -0.1025  0.9352  0.4333
  145SOL    HW2  435   2.550   1.054   0.406 -2.1800 -0.7627 -1.7672
  146SOL     OW  436   2.272   2.546   0.373  0.0708 -0.0950 -0.2543
  146SOL    HW1  437   2.281   2.530   0.273 -3.7952 -0.0980  2.1815
  146SOL    HW2  438   2.171   2.543   0.401  0.7973 -3.4061 -0.9426
  147SOL     OW  439   2.532   2.772   1.298 -0.4367 -0.1132  0.4063
  147SOL    HW1  440   2.458   2.840   1.305  1.0756  0.8074 -2.1464
  147SOL    HW2  441   2.583   2.781   1.207  0.0820 -0.6451 -4.5063
  148SOL     OW  442   1.474   2.925   2.424  0.0093  0.1733  0.1256
  148SOL    HW1  443   1.476   2.923   2.323 -1.2005 -2.1008  0.4993
  148SOL    HW2  444   1.541   2.857   2.454 -1.2109  0.4309  0.3013
  149SOL     OW  445   1.095   0.504   2.509  0.3432 -0.0188 -0.4403
  149SOL    HW1  446   1.192   0.519   2.482  0.0682 -1.3487 -1.3550
  149SOL    HW2  447   1.068   0.564   2.586 -1.0277  0.8823 -1.3918
  150SOL     OW  448   0.892   2.700   0.224  0.0408 -0.1239 -0.8067
  150SOL    HW1  449   0.875   2.610   0.176  2.1742 -0.8968  0.3631
  150SOL    HW2  450   0.817   2.716   0.291 -1.6512 -0.3051 -1.2838
  151SOL     OW  451   0.106   1.792   0.190 -0.2402 -0.2551  0.0560
  151SOL    HW1  452   0.098   1.698   0.149  1.9437 -2.2456 -2.0531
  151SOL    HW2  453   0.141   1.787   0.285 -0.6443  1.7638 -0.8199
  152SOL     OW  454   0.103   0.444   0.543  0.1022  0.0337 -0.2095
  152SOL    HW1  455   0.137   0.489   0.631  1.6677  1.7034 -1.2944
  152SOL    HW2  456   0.087   0.340   0.549 -0.7624 -0.2837  0.8140
  153SOL     OW  457   2.407   0.096   0.910  0.3744  0.6059  0.2012
  153SOL    HW1  458   2.438   0.191   0.912 -2.1106 -2.4852  1.0576
  153SOL    HW2  459   2.446   0.053   0.829  2.0995  0.2490  1.3185
  154SOL     OW  460   0.987   0.884   1.836 -0.1375  0.3809  0.0779
  154SOL    HW1  461   0.890   0.892   1.875 -4.8314 -1.8989  0.2087
  154SOL    HW2  462   0.984   0.828   1.745 -1.8781 -0.6123 -2.6504
  155SOL     OW  463   2.942   1.600   0.896  0.1761  0.0542 -0.3619
  155SOL    HW1  464   2.843   1.595   0.918  1.2528  1.7497  0.5965
  155SOL    HW2  465   2.964   1.660   0.817 -1.6049 -0.9621  0.0250
  156SOL     OW  466   2.349   1.989   0.291  0.3992  0.0393 -0.4166
  156SOL    HW1  467   2.350   1.900   0.339 -0.4561  1.8255 -2.4001
  156SOL    HW2  468   2.402   1.985   0.203  0.3840 -2.0261 -0.3821
  157SOL     OW  469   1.055   3.020   0.778 -0.2920 -0.1442  0.1011
  157SOL    HW1  470   0.993   2.943   0.746 -0.4451 -1.9953 -0.8389
  157SOL    HW2  471   1.132   2.984   0.835 -1.1650  1.4862  2.4542
  158SOL     OW  472   2.259   0.297   2.583  0.5406  0.0250  0.2516
  158SOL    HW1  473   2.316   0.362   2.633 -2.4509 -2.5612  1.2486
  158SOL    HW2  474   2.231   0.329   2.488 -0.8115  0.6236 -1.7795
  159SOL     OW  475   0.298   0.019   0.282 -0.4879 -0.1187 -0.1802
  159SOL    HW1  476   0.293   0.091   0.205 -2.4159  2.9280 -4.1291
  159SOL    HW2  477   0.245   3.033   0.261  0.1599 -1.5582  2.9732
  160SOL     OW  478   1.298   2.189   3.052 -0.1170  0.3823  0.0922
  160SOL    HW1  479   1.376   2.134   3.095 -0.0480 -1.3802 -0.4700
  160SOL    HW2  480   1.289   2.280   3.095 -3.0600 -1.3760 -2.4552
  161SOL     OW  481   2.647   1.638   2.389 -0.5826  0.8135  0.3157
  161SOL    HW1  482   2.674   1.706   2.324 -1.7950 -0.4288  0.4404
  161SOL    HW2  483   2.553   1.615   2.358  0.8189  0.7541 -0.5435
  162SOL     OW  484   2.899   2.933   1.254  0.1257 -0.2082 -0.1790
  162SOL    HW1  485   2.925   2.918   1.156 -0.6505 -0.1911  1.8050
  162SOL    HW2  486   2.974   2.981   1.303  0.7349 -2.2585 -0.8296
  163SOL     OW  487   2.035   0.396   2.753 -0.4078  0.1926  0.0975
  163SOL    HW1  488   1.951   0.333   2.740  0.3353 -0.4647  0.0472
  163SOL    HW2  489   2.125   0.348   2.729  0.6865 -0.2736 -0.1427
  164SOL     OW  490   2.965   1.789   0.704 -0.1765  0.3286 -0.5239
  164SOL    HW1  491   2.990   1.833   0.613  0.9446  2.7534 -0.2630
  164SOL    HW2  492   2.952   1.864   0.768 -1.3178 -2.7257 -1.0827
  165SOL     OW  493   2.769   0.396   1.894  0.2722 -0.0934 -0.4658
  165SOL    HW1  494   2.764   0.327   1.818 -0.9679  1.2184 -0.1807
  165SOL    HW2  495   2.830   0.479   1.881  2.3522  1.3365 -1.8057
  166SOL     OW  496   2.153   0.572   0.883 -0.7816  0.6495  0.3188
  166SOL    HW1  497   2.083   0.532   0.826 -0.6059 -1.1163  0.7901
  166SOL    HW2  498   2.174   0.520   0.967 -0.0455 -0.6178 -4.0009
  167SOL     OW  499   0.625   0.305   0.881  0.2208 -0.0459 -0.4847
  167SOL    HW1  500   0.681   0.275   0.963 -0.0467  0.1394 -0.7477
  167SOL    HW2  501   0.638   0.405   0.863 -1.7533 -1.7641  2.0215
  168SOL     OW  502   1.800   2.935   2.151 -0.1668  0.1009 -0.3257
  168SOL    HW1  503   1.805   2.833   2.152  2.8387 -1.7785  0.5376
  168SOL    HW2  504   1.842   2.974   2.233 -1.5402 -1.1115 -2.4838
  169SOL     OW  505   0.580   0.992   0.606  0.3262 -0.2161  0.0833
  169SOL    HW1  506   0.527   1.074   0.638 -2.2121  0.5784  0.2555
  169SOL    HW2  507   0.579   0.988   0.503  0.5385  0.3920 -1.4742
  170SOL     OW  508   2.785   0.653   1.433 -0.3785  0.4959  0.0326
  170SOL    HW1  509   2.737   0.614   1.354  1.3565  0.3563  0.5840
  170SOL    HW2  510   2.853   0.585   1.469  2.7536  2.0872 -1.0774
  171SOL     OW  511   0.825   2.475   1.701  0.2882 -0.1242 -0.1682
  171SOL    HW1  512   0.868   2.390   1.667  0.7841  1.4604  2.0960
  171SOL    HW2  513   0.898   2.548   1.696  1.3279  2.2588  1.3087
  172SOL     OW  514   0.237   2.551   1.206  0.7285 -0.1458 -0.1249
  172SOL    HW1  515   0.232   2.526   1.306 -1.8300  1.6119  0.6754
  172SOL    HW2  516   0.192   2.646   1.202 -3.4761 -0.4805  3.0409
  173SOL     OW  517   1.315   0.177   2.785 -0.3853  0.4220  0.1953
  173SOL    HW1  518   1.264   0.089   2.808  2.8105  0.6815  1.9519
  173SOL    HW2  519   1.269   0.254   2.831  2.5563 -1.2120  0.1466
  174SOL     OW  520   1.545   0.114   2.398 -0.8864  0.1632  0.3934
  174SOL    HW1  521   1.503   0.186   2.465 -0.6287  1.8040  0.6979
  174SOL    HW2  522   1.533   0.020   2.435  1.1437 -0.2826 -0.9264
  175SOL     OW  523   1.769   2.556   0.082 -0.0927  0.0062  0.3247
  175SOL    HW1  524   1.824   2.506   0.150 -2.4858  0.3739 -3.3675
  175SOL    HW2  525   1.823   2.623   0.033 -2.1719  0.5348 -1.6718
  176SOL     OW  526   1.832   0.176   2.751 -0.6629  0.5506 -0.2886
  176SOL    HW1  527   1.735   0.205   2.778 -1.0446 -2.2470 -1.0513
  176SOL    HW2  528   1.836   0.096   2.689  0.0097 -0.1012  0.6714
  177SOL     OW  529   0.842   1.525   0.220  0.2673  0.4273  0.0956
  177SOL    HW1  530   0.895   1.606   0.252  1.6741  0.8278 -0.8679
  177SOL    HW2  531   0.779   1.550   0.143 -1.4154 -1.9668 -0.6521
  178SOL     OW  532   3.010   2.034   2.339  0.3032 -0.3261 -0.1068
  178SOL    HW1  533   2.983   2.081   2.426 -0.9810  1.0437  0.4166
  178SOL    HW2  534   3.002   1.935   2.340 -1.1880  2.1567 -1.6937
  179SOL     OW  535   0.672   2.496   2.741  0.1145  0.5503  0.5141
  179SOL    HW1  536   0.659   2.563   2.815  2.4194 -1.5497 -0.0561
  179SOL    HW2  537   0.688   2.547   2.656 -2.3039 -0.4414 -1.0899
  180SOL     OW  538   1.943   1.974   1.282 -0.2700 -0.4895 -0.6074
  180SOL    HW1  539   1.949   1.907   1.360 -0.0695  0.7346  1.5573
  180SOL    HW2  540   1.896   1.941   1.194  0.3676 -0.5591 -1.0847
  181SOL     OW  541   1.871   1.294   2.215 -0.1846  1.0706  0.5338
  181SOL    HW1  542   1.833   1.199   2.188  1.5417 -2.6918  2.1403
  181SOL    HW2  543   1.965   1.287   2.252 -0.7025  0.3137  0.0059
  182SOL     OW  544   2.555   2.899   2.431  0.2777  0.4597 -0.0246
  182SOL    HW1  545   2.546   2.799   2.451  2.1218 -0.6199  0.3234
  182SOL    HW2  546   2.515   2.929   2.342 -1.7141  2.0391  0.5530
  183SOL     OW  547   1.547   0.746   2.567 -0.4180  0.1379 -0.1347
  183SOL    HW1  548   1.555   0.848   2.551 -4.0251  0.4851 -1.7931
  183SOL    HW2  549   1.630   0.716   2.615 -0.4872  2.3275 -0.7666
  184SOL     OW  550   0.917   0.960   1.425 -0.2143 -0.3609  0.2459
  184SOL    HW1  551   0.928   1.060   1.452 -0.6095  1.3262 -1.8535
  184SOL    HW2  552   0.930   0.945   1.325 -0.4103 -2.0463 -1.0142
  185SOL     OW  553   2.340   0.957   0.974 -0.8591  0.7794  0.3321
  185SOL    HW1  554   2.335   1.046   1.024 -1.5251  1.6740 -0.2258
  185SOL    HW2  555   2.312   0.977   0.879 -2.3634 -0.4430 -1.0838
  186SOL     OW  556   0.656   1.766   2.551 -0.3194  0.4047  0.1158
  186SOL    HW1  557   0.738   1.720   2.574 -2.0251  0.0639 -1.5011
  186SOL    HW2  558   0.612   1.734   2.465  2.0060 -0.5692 -0.6849
  187SOL     OW  559   2.503   1.365   0.235  0.4668  0.4564 -0.1251
  187SOL    HW1  560   2.594   1.383   0.278 -2.1943 -0.2201 -1.3916
  187SOL    HW2  561   2.493   1.407   0.143  0.1540 -0.5683 -1.5169
  188SOL     OW  562   0.131   1.783   0.448  0.0388  0.1850 -0.5520
  188SOL    HW1  563   0.047   1.846   0.464 -2.7444  1.9802  1.2102
  188SOL    HW2  564   0.203   1.795   0.519  1.1688 -2.8879  1.7677
  189SOL     OW  565   2.477   0.538   0.505 -0.4011 -0.5567 -0.1715
  189SOL    HW1  566   2.454   0.608   0.432  1.3071 -1.1372 -3.4116
  189SOL    HW2  567   2.569   0.491   0.476  1.5647 -0.8008  0.8008
  190SOL     OW  568   1.133   1.341   2.167  0.2142 -0.3851 -0.1505
  190SOL    HW1  569   1.210   1.385   2.115  2.0027 -0.8050  1.9347
  190SOL    HW2  570   1.112   1.248   2.133  2.3828  0.9639 -2.7563
  191SOL     OW  571   2.344   0.280   2.069  0.1023  0.4170 -0.1879
  191SOL    HW1  572   2.321   0.377   2.090  1.0322  0.4385  0.6064
  191SOL    HW2  573   2.389   0.278   1.977  2.0101  0.4412 -2.2466
  192SOL     OW  574   1.925   1.058   1.525  0.0362  0.3926  0.0288
  192SOL    HW1  575   1.853   1.121   1.558  0.5358  1.1483 -0.3403
  192SOL    HW2  576   1.889   0.996   1.447  0.5755 -1.4948 -1.7461
  193SOL     OW  577   0.843   0.596   0.632 -0.1920 -0.1339  0.2665
  193SOL    HW1  578   0.783   0.594   0.551  0.0394  0.3729  2.5906
  193SOL    HW2  579   0.942   0.581   0.609  0.5559  0.8042  2.1543
  194SOL     OW  580   1.281   2.946   0.896 -0.1571 -0.5056 -0.0018
  194SOL    HW1  581   1.372   2.918   0.853  2.7416 -1.2823 -1.7112
  194SOL    HW2  582   1.289   2.945   0.997  0.6937  1.0429 -0.1359
  195SOL     OW  583   2.377   0.665   0.719  0.1782  0.1539 -0.3359
  195SOL    HW1  584   2.402   0.623   0.628  0.1812  2.8010  2.2122
  195SOL    HW2  585   2.300   0.623   0.770 -1.1081  1.7002 -0.6864
  196SOL     OW  586   1.014   1.891   1.423  0.3532 -0.3766 -0.0262
  196SOL    HW1  587   1.039   1.961   1.353 -0.0094 -0.2817 -1.4900
  196SOL    HW2  588   1.093   1.872   1.482  1.9001  0.5212 -1.7075
  197SOL     OW  589   0.446   2.700   0.362  0.0308  0.0343  0.0153
  197SOL    HW1  590   0.390   2.621   0.396 -0.5217 -0.3156 -0.5700
  197SOL    HW2  591   0.422   2.712   0.262 -0.8013  1.2457 -1.0124
  198SOL     OW  592   0.898   0.796   0.940  0.3397  0.1345  0.2236
  198SOL    HW1  593   0.843   0.864   0.889  1.6146  0.3326 -0.2412
  198SOL    HW2  594   0.851   0.709   0.961 -0.6474  2.2679  2.4092
  199SOL     OW  595   3.032   0.042   1.825  0.1377  0.0757  0.2028
  199SOL    HW1  596   3.092   0.127   1.814  0.5705  1.9785  3.1680
  199SOL    HW2  597   3.045   0.022   1.926  1.2878  0.8807  1.1247
  200SOL     OW  598   2.182   1.888   2.764  0.3008 -0.1579  0.2784
  200SOL    HW1  599   2.086   1.910   2.731 -3.4674  1.9877 -1.6186
  200SOL    HW2  600   2.247   1.874   2.688 -1.1330  0.0382  1.6639
  201SOL     OW  601   2.696   2.860   1.092 -0.1779 -0.1258  0.2675
  201SOL    HW1  602   2.635   2.940   1.066  1.6514 -4.5378  1.1925
  201SOL    HW2  603   2.760   2.883   1.170  1.5294  1.4135  0.4235
  202SOL     OW  604   2.666   0.389   0.374  0.0733 -0.1717 -0.4767
  202SOL    HW1  605   2.727   0.447   0.313  0.8731 -0.3144 -2.5694
  202SOL    HW2  606   2.719   0.302   0.395 -1.8708  0.3362  0.1719
  203SOL     OW  607   1.420   1.440   2.133  0.2458 -0.4522  0.8154
  203SOL    HW1  608   1.420   1.467   2.035  0.5833 -0.4301 -1.0396
  203SOL    HW2  609   1.397   1.517   2.189  0.6231 -1.5379  0.2109
  204SOL     OW  610   0.950   1.293   1.858  0.1332  0.0409 -0.1122
  204SOL    HW1  611   1.032   1.254   1.813  0.1728 -0.2965  2.5670
  204SOL    HW2  612   0.942   1.255   1.952 -0.0252  2.3475 -1.2567
  205SOL     OW  613   1.209   2.113   1.650  0.2380  0.2575 -0.0431
  205SOL    HW1  614   1.237   2.017   1.627  0.0929 -1.3285 -1.3054
  205SOL    HW2  615   1.275   2.172   1.702 -1.8577  1.8138 -2.6686
  206SOL     OW  616   0.110   0.311   2.889 -0.6497 -0.0798  0.2422
  206SOL    HW1  617   0.206   0.289   2.857 -1.5567 -1.8004 -1.4781
  206SOL    HW2  618   0.057   0.231   2.918 -1.4728 -1.2060  1.0186
  207SOL     OW  619   1.508   2.889   2.162 -0.1212  0.1386 -0.1023
  207SOL    HW1  620   1.450   2.867   2.079  1.9731 -1.3827 -0.6958
  207SOL    HW2  621   1.602   2.920   2.131  0.8668  1.6257  1.1637
  208SOL     OW  622   0.592   2.126   1.904  0.2769  0.2738  0.1810
  208SOL    HW1  623   0.676   2.069   1.886  2.7421  0.9514  0.0058
  208SOL    HW2  624   0.591   2.210   1.843  1.8279  1.4423 -1.8835
  209SOL     OW  625   1.933   1.344   2.966  0.6578 -0.0972  0.7887
  209SOL    HW1  626   1.863   1.379   2.901  2.3057 -1.0411 -1.3430
  209SOL    HW2  627   1.936   1.387   3.060  0.7526 -0.0563 -0.6203
  210SOL     OW  628   2.968   0.600   0.973 -0.0490  0.1908 -0.5629
  210SOL    HW1  629   2.951   0.529   0.898  1.0372 -3.6601  0.6959
  210SOL    HW2  630   2.989   0.689   0.923  0.7698  2.1582  0.0250
  211SOL     OW  631   0.758   1.192   1.057  0.1873  0.2080  0.1814
  211SOL    HW1  632   0.694   1.227   0.986  2.2141 -0.6770 -1.3575
  211SOL    HW2  633   0.829   1.261   1.075 -0.2327  0.5881 -0.6471
  212SOL     OW  634   0.969   1.641   0.656  0.2080  0.4473 -0.2393
  212SOL    HW1  635   0.952   1.700   0.739  0.4252  0.5699 -0.9718
  212SOL    HW2  636   1.048   1.578   0.659  1.3598  0.5369 -0.6436
  213SOL     OW  637   1.426   0.118   1.694  0.1208 -0.3903  0.3391
  213SOL    HW1  638   1.481   0.148   1.617 -1.5146 -3.1053 -1.6559
  213SOL    HW2  639   1.476   0.133   1.779  2.2204 -1.0664  1.8811
  214SOL     OW  640   1.604   1.626   2.456 -0.0080 -0.4625  0.2275
  214SOL    HW1  641   1.591   1.532   2.421  1.0215  0.8444  4.2655
  214SOL    HW2  642   1.556   1.649   2.546 -0.5661 -1.4730  0.7029
  215SOL     OW  643   0.006   1.917   1.083 -0.2059 -0.4193 -0.3216
  215SOL    HW1  644   0.098   1.907   1.040  0.5450  1.6454  0.2703
  215SOL    HW2  645   3.032   1.943   1.009 -0.8849  0.9360 -2.7659
  216SOL     OW  646   0.520   3.068   2.178 -0.0195  0.2734 -0.0397
  216SOL    HW1  647   0.585   0.012   2.113 -0.4391  0.6107 -0.4472
  216SOL    HW2  648   0.521   0.025   2.266  1.9948 -1.8529  2.1476
  217SOL     OW  649   2.376   0.403   0.017  0.3102 -0.1552 -0.2842
  217SOL    HW1  650   2.362   0.368   3.018 -0.9032  1.1501  0.1116
  217SOL    HW2  651   2.427   0.344   0.082  0.2427  1.7812 -2.3328
  218SOL     OW  652   1.959   1.727   2.153  0.2051  0.1350 -0.0677
  218SOL    HW1  653   1.857   1.698   2.149 -1.4738 -0.3603  1.4489
  218SOL    HW2  654   1.974   1.827   2.173  0.6277  0.6188  1.7674
  219SOL     OW  655   1.700   1.219   0.413  0.1742 -0.3416  0.0092
  219SOL    HW1  656   1.797   1.249   0.442  0.6041 -0.0873  2.8196
  219SOL    HW2  657   1.696   1.221   0.307  1.3347  1.9028 -1.8361
  220SOL     OW  658   1.472   1.960   1.048  0.3471 -0.2365  0.1150
  220SOL    HW1  659   1.442   1.993   1.139  3.4237  0.0724 -0.4314
  220SOL    HW2  660   1.439   2.027   0.973 -0.1495  1.0053 -4.0105
  221SOL     OW  661   0.084   0.520   0.010 -0.1236 -0.2027  0.1746
  221SOL    HW1  662   0.071   0.621   3.086  3.8095  1.8761  1.4345
  221SOL    HW2  663   0.133   0.467   3.032  0.8649  0.1679  0.4663
  222SOL     OW  664   1.024   2.633   1.621  0.3307 -0.0195  0.5358
  222SOL    HW1  665   1.074   2.570   1.564 -2.4534  1.5243  2.5466
  222SOL    HW2  666   1.073   2.724   1.614 -0.0499  2.4257  0.8346
  223SOL     OW  667   1.381   2.882   2.794  0.2209 -0.0491  0.5191
  223SOL    HW1  668   1.306   2.946   2.816 -0.3342 -2.6486 -1.7224
  223SOL    HW2  669   1.465   2.938   2.804 -1.1494 -0.1366 -0.4520
  224SOL     OW  670   2.721   1.090   1.218  0.1357 -0.4785  0.1086
  224SOL    HW1  671   2.650   1.024   1.248 -1.9170 -0.4972 -0.5690
  224SOL    HW2  672   2.751   1.157   1.290 -1.3748 -0.3733 -0.7535
  225SOL     OW  673   0.960   1.230   1.498  0.2116 -0.5711 -0.0170
  225SOL    HW1  674   0.969   1.272   1.594  2.0901  1.9201 -2.2959
  225SOL    HW2  675   1.026   1.273   1.430  3.2751 -1.5598 -1.2154
  226SOL     OW  676   1.572   2.670   2.811  0.4828  0.2371  0.3202
  226SOL    HW1  677   1.544   2.755   2.767  1.8402 -1.3831  0.8510
  226SOL    HW2  678   1.555   2.583   2.759  0.6361 -2.1942  0.4927
  227SOL     OW  679   0.658   2.134   1.042  0.5006 -0.0690  0.6775
  227SOL    HW1  680   0.582   2.112   0.976  0.6689 -1.7551 -1.5841
  227SOL    HW2  681   0.639   2.223   1.088  0.4958 -0.5615 -0.9546
  228SOL     OW  682   0.480   2.638   1.026  0.4433  0.1729  0.4748
  228SOL    HW1  683   0.500   2.729   1.069 -1.7249  1.4543  1.2438
  228SOL    HW2  684   0.403   2.606   1.084 -1.0409  1.1869 -0.6365
  229SOL     OW  685   2.444   1.092   0.276  0.1177  0.6769 -0.0433
  229SOL    HW1  686   2.467   1.192   0.263 -0.9322 -0.4031 -1.4423
  229SOL    HW2  687   2.388   1.058   0.195  0.6556 -3.1730 -1.7758
  230SOL     OW  688   0.960   1.111   2.069  0.0327  0.0797 -0.2298
  230SOL    HW1  689   0.869   1.075   2.082  1.9559  2.5346 -0.6386
  230SOL    HW2  690   1.024   1.050   2.120  2.4562 -1.1287  1.2325
  231SOL     OW  691   1.528   1.964   1.658 -0.5961 -0.3694 -0.1061
  231SOL    HW1  692   1.546   2.034   1.733 -0.4030  0.9106  0.6355
  231SOL    HW2  693   1.454   1.900   1.681 -0.6350  0.0747 -0.3575
  232SOL     OW  694   2.141   2.460   0.941  0.5640 -0.2480 -0.2830
  232SOL    HW1  695   2.057   2.513   0.915 -1.2595 -0.0562  3.3544
  232SOL    HW2  696   2.126   2.363   0.923 -0.0732  1.3859 -1.4220
  233SOL     OW  697   1.597   2.285   2.868  0.2244  0.3207  0.0153
  233SOL    HW1  698   1.643   2.211   2.814 -0.6304  1.2539 -0.8555
  233SOL    HW2  699   1.531   2.337   2.811 -1.1959 -1.2828 -2.5274
  234SOL     OW  700   0.895   3.037   2.766 -0.3578  0.0332 -0.3366
  234SOL    HW1  701   0.918   3.041   2.666 -1.3811 -0.2276 -1.6755
  234SOL    HW2  702   0.810   2.986   2.778  1.9287  0.8653 -2.6052
  235SOL     OW  703   2.832   2.502   0.068  0.0902  0.4191  0.4479
  235SOL    HW1  704   2.844   2.565   0.149 -0.1482  0.1146 -1.8167
  235SOL    HW2  705   2.843   2.405   0.090 -2.0166  1.5709  0.1157
  236SOL     OW  706   2.127   2.319   2.188 -0.2374 -0.2206 -0.2228
  236SOL    HW1  707   2.226   2.294   2.203 -0.4787 -0.3181  1.6098
  236SOL    HW2  708   2.060   2.254   2.229 -0.9598 -0.1995 -1.5059
  237SOL     OW  709   1.691   1.246   1.294  0.1045 -0.5953 -0.1836
  237SOL    HW1  710   1.658   1.149   1.281  0.7851  1.0862  0.4679
  237SOL    HW2  711   1.613   1.305   1.328 -3.6442  0.3995 -0.1998
  238SOL     OW  712   1.987   0.337   2.228  0.4680  0.6475 -0.1899
  238SOL    HW1  713   2.014   0.289   2.141 -2.1772  1.2938  2.0824
  238SOL    HW2  714   1.907   0.292   2.271 -0.7830  0.7260 -0.7385
  239SOL     OW  715   0.509   1.641   1.881 -0.0415  0.0516  0.2541
  239SOL    HW1  716   0.465   1.704   1.811  2.3817 -0.8152  1.4152
  239SOL    HW2  717   0.451   1.556   1.898 -2.6394 -2.3157  2.3685
  240SOL     OW  718   0.032   2.201   0.614  0.5791 -0.2037 -0.0630
  240SOL    HW1  719   3.030   2.209   0.642 -1.8952 -0.1365 -0.0069
  240SOL    HW2  720   0.055   2.284   0.559  0.7383  3.5574 -5.0163
  241SOL     OW  721   1.748   2.181   0.839 -0.0069 -0.0186 -0.1325
  241SOL    HW1  722   1.770   2.089   0.882  0.0870  1.1532 -1.1329
  241SOL    HW2  723   1.701   2.160   0.750  3.1147 -0.9469 -0.5088
  242SOL     OW  724   1.416   1.379   0.126  1.1097  0.7119  0.3785
  242SOL    HW1  725   1.506   1.333   0.125  0.8158  0.0055 -1.5809
  242SOL    HW2  726   1.397   1.420   0.033 -1.0133  1.4412  0.4952
  243SOL     OW  727   0.623   2.820   2.175 -0.1106  0.4535  0.2829
  243SOL    HW1  728   0.581   2.911   2.196 -2.8496  0.0929 -2.1836
  243SOL    HW2  729   0.603   2.795   2.077  2.4055  0.2382 -1.2636
  244SOL     OW  730   1.784   2.988   2.642  0.3793  0.1393  0.1329
  244SOL    HW1  731   1.716   2.998   2.717 -0.6730 -1.5540 -0.3772
  244SOL    HW2  732   1.760   2.904   2.584 -1.9197 -0.0141 -2.1692
  245SOL     OW  733   1.634   3.032   0.008 -0.1566  0.1872  0.1678
  245SOL    HW1  734   1.694   3.000   0.087  1.3249 -0.3173  0.9582
  245SOL    HW2  735   1.560   0.001   0.034  1.3907 -1.8568 -0.8015
  246SOL     OW  736   1.167   3.046   2.854 -0.1528  0.0365 -0.3550
  246SOL    HW1  737   1.071   3.028   2.825 -1.1818  0.8358 -0.4786
  246SOL    HW2  738   1.187   3.021   2.955  0.0348  0.7350 -0.2950
  247SOL     OW  739   0.106   0.853   2.022  0.0272  0.4175 -0.7821
  247SOL    HW1  740   0.181   0.884   2.088  2.4463  0.8650  1.8716
  247SOL    HW2  741   0.068   0.766   2.059 -1.8532 -1.6016 -1.5914
  248SOL     OW  742   0.888   0.720   2.328 -0.1957  0.2722 -1.2071
  248SOL    HW1  743   0.879   0.650   2.402  0.7012 -1.3969 -0.8083
  248SOL    HW2  744   0.964   0.692   2.266 -2.0170  0.6083 -1.7418
  249SOL     OW  745   2.104   0.399   0.359  0.2937 -0.7852  0.1030
  249SOL    HW1  746   2.076   0.415   0.263  0.6265  0.2301  0.7365
  249SOL    HW2  747   2.193   0.358   0.368 -5.3960  2.4866  1.1417
  250SOL     OW  748   0.773   0.123   0.662 -0.2963 -0.0761  0.3039
  250SOL    HW1  749   0.840   0.081   0.595 -0.5542 -2.3562 -0.8316
  250SOL    HW2  750   0.812   0.168   0.743  2.1116  1.1979 -1.2097
  251SOL     OW  751   1.034   0.266   2.666  0.0535  0.1387 -0.5306
  251SOL    HW1  752   1.093   0.307   2.594  0.6889  2.7770  1.2487
  251SOL    HW2  753   1.011   0.172   2.648  0.6289 -0.0693  1.1242
  252SOL     OW  754   1.641   1.860   1.998  0.1538 -0.0997  0.1457
  252SOL    HW1  755   1.716   1.860   1.928  1.2113  4.7716  1.1362
  252SOL    HW2  756   1.672   1.817   2.082 -0.8129 -0.0412 -6.0410
  253SOL     OW  757   2.179   2.710   1.965 -0.2226 -0.6752  0.7589
  253SOL    HW1  758   2.173   2.788   1.902  1.7346 -0.4738  2.4973
  253SOL    HW2  759   2.221   2.629   1.913  1.0581 -0.2529 -1.0080
  254SOL     OW  760   1.043   2.051   1.851 -0.0472 -0.2281 -0.0123
  254SOL    HW1  761   1.104   2.061   1.769 -2.1632 -0.8726  0.0116
  254SOL    HW2  762   1.035   2.136   1.904 -2.6835  1.1820  1.5365
  255SOL     OW  763   1.006   0.833   0.544 -0.2161 -0.0452  0.2515
  255SOL    HW1  764   0.975   0.779   0.623  0.4771 -0.0198 -1.6810
  255SOL    HW2  765   0.943   0.801   0.464 -1.4469 -0.1012 -0.0461
  256SOL     OW  766   1.839   1.881   1.822  0.4327 -0.2198 -0.2289
  256SOL    HW1  767   1.832   1.978   1.789  0.6404 -0.9041  1.4241
  256SOL    HW2  768   1.850   1.814   1.749 -3.3159  0.7479 -1.6184
  257SOL     OW  769   0.594   2.279   2.590 -0.5624 -0.6241 -0.2828
  257SOL    HW1  770   0.604   2.361   2.650 -0.8405  1.3604  0.6904
  257SOL    HW2  771   0.562   2.196   2.640  1.3569 -0.9183 -0.4028
  258SOL     OW  772   0.648   0.368   2.205  0.1551  0.2310 -0.0461
  258SOL    HW1  773   0.682   0.273   2.233  1.4299  0.9550  0.6465
  258SOL    HW2  774   0.720   0.416   2.150 -1.5539 -0.6183 -0.5322
  259SOL     OW  775   0.785   0.515   2.496 -0.2423 -0.0404  0.0012
  259SOL    HW1  776   0.880   0.476   2.501  3.2246 -1.1280 -1.2435
  259SOL    HW2  777   0.725   0.453   2.441 -0.6152 -1.3724 -1.1347
  260SOL     OW  778   1.336   0.660   0.521  0.0417  0.4723  0.0253
  260SOL    HW1  779   1.329   0.761   0.508  1.7744 -1.1888  0.6724
  260SOL    HW2  780   1.246   0.613   0.530 -1.0777 -0.9575 -1.2928
  261SOL     OW  781   0.390   2.713   2.960 -0.4075  0.2419 -0.1947
  261SOL    HW1  782   0.490   2.684   2.966  1.3938  0.9574  1.0505
  261SOL    HW2  783   0.314   2.642   2.966 -1.3631 -0.6822  2.0019
  262SOL     OW  784   2.199   2.916   2.936  0.3225 -0.0146 -0.1987
  262SOL    HW1  785   2.240   2.998   2.987  0.3174 -0.1657  0.8919
  262SOL    HW2  786   2.137   2.951   2.859 -0.7742 -0.6683  0.9423
  263SOL     OW  787   0.050   1.882   2.577 -0.3157 -0.4025 -0.0782
  263SOL    HW1  788   3.078   1.954   2.571  0.1301 -0.7043  0.6613
  263SOL    HW2  789   0.074   1.858   2.673  0.0824 -2.1345 -0.6265
  264SOL     OW  790   0.595   1.141   1.271  0.1703  0.0454 -0.0861
  264SOL    HW1  791   0.657   1.156   1.188  1.0568 -0.4216  0.2935
  264SOL    HW2  792   0.628   1.053   1.317  1.7184 -2.2887  1.6972
  265SOL     OW  793   0.354   1.429   0.040  0.2324  0.1023 -0.5257
  265SOL    HW1  794   0.254   1.440   0.048 -0.5778  1.6861  0.4500
  265SOL    HW2  795   0.387   1.348   0.088  0.3539  1.6990 -3.2672
  266SOL     OW  796   1.310   1.340   0.515  0.1182 -0.2748  0.7642
  266SOL    HW1  797   1.239   1.367   0.582  0.5685 -1.1574 -0.3180
  266SOL    HW2  798   1.368   1.258   0.531  0.9718 -1.0208 -0.1063
  267SOL     OW  799   2.697   0.568   3.086 -0.5486  0.3208 -0.7303
  267SOL    HW1  800   2.749   0.484   3.054  3.3787 -0.4406  1.5422
  267SOL    HW2  801   2.721   0.651   3.038 -2.6935 -0.1374  1.4985
  268SOL     OW  802   2.839   3.023   2.843 -0.4006  0.1310  0.6361
  268SOL    HW1  803   2.885   3.065   2.763 -0.8426  0.7386 -0.8996
  268SOL    HW2  804   2.848   2.926   2.823  0.7713  1.2991  0.1187
  269SOL     OW  805   1.763   0.278   2.396 -0.2791  0.1806 -0.6908
  269SOL    HW1  806   1.762   0.346   2.473  1.0020  0.6725  1.5313
  269SOL    HW2  807   1.675   0.225   2.387  1.4923  1.5957  0.8959
  270SOL     OW  808   0.954   0.906   2.529  0.1984 -0.5083 -0.6578
  270SOL    HW1  809   0.944   0.852   2.447 -0.4530 -1.6513  1.4081
  270SOL    HW2  810   0.859   0.944   2.544  0.4969 -0.0911 -0.8531
  271SOL     OW  811   2.677   0.919   0.120  0.2907 -0.1452 -0.3896
  271SOL    HW1  812   2.610   0.987   0.158  0.1115 -1.5898  0.3090
  271SOL    HW2  813   2.673   0.833   0.177 -1.0989 -3.4069  1.7242
  272SOL     OW  814   2.709   1.876   2.651  0.3412  0.2350  0.8136
  272SOL    HW1  815   2.760   1.955   2.687 -1.5204 -3.0169  1.7788
  272SOL    HW2  816   2.618   1.899   2.607  0.8131 -2.0621 -0.8774
  273SOL     OW  817   2.328   0.655   0.049  0.1300 -0.1490 -0.0135
  273SOL    HW1  818   2.344   0.558   0.021 -1.2693  1.6876  2.8726
  273SOL    HW2  819   2.401   0.714   0.009  1.4037  0.8704 -0.0081
  274SOL     OW  820   0.195   2.396   0.979  0.0613 -0.1675  0.7143
  274SOL    HW1  821   0.284   2.365   0.941 -2.6912  0.2068  0.5439
  274SOL    HW2  822   0.202   2.445   1.066 -0.7606 -0.3449 -0.2556
  275SOL     OW  823   2.343   1.306   0.624  0.2044  0.0542  0.0535
  275SOL    HW1  824   2.442   1.290   0.649 -0.7325  1.9310  1.8396
  275SOL    HW2  825   2.290   1.346   0.700 -0.3946 -2.5821 -1.1310
  276SOL     OW  826   0.177   1.083   2.610 -0.0975  0.5837  0.1334
  276SOL    HW1  827   0.255   1.141   2.581  0.2551  1.1931  0.7881
  276SOL    HW2  828   0.108   1.087   2.541  1.5919  1.2691  2.4304
  277SOL     OW  829   1.606   2.548   1.440 -0.2441 -0.2303 -0.4929
  277SOL    HW1  830   1.638   2.630   1.488 -0.4722  0.8110 -0.0897
  277SOL    HW2  831   1.663   2.533   1.357  1.8392  0.8098 -2.3774
  278SOL     OW  832   1.255   0.549   1.726  0.1614  0.4818 -0.3161
  278SOL    HW1  833   1.164   0.508   1.739 -1.3688  0.3185 -1.0251
  278SOL    HW2  834   1.314   0.475   1.697  0.1465 -3.3724 -0.4068
  279SOL     OW  835   1.549   1.837   0.633 -0.1713  0.2005 -0.0364
  279SOL    HW1  836   1.547   1.811   0.730  0.6275 -0.7731 -2.6876
  279SOL    HW2  837   1.620   1.777   0.589 -0.6876 -0.2722  3.2334
  280SOL     OW  838   0.511   1.658   0.680  0.5539  0.6051  0.0249
  280SOL    HW1  839   0.491   1.591   0.751  2.5136  0.8562  0.3440
  280SOL    HW2  840   0.558   1.629   0.599 -2.7167  1.6380 -0.6805
  281SOL     OW  841   2.925   0.078   2.621  0.0238  0.0298  0.4239
  281SOL    HW1  842   2.875   0.167   2.605  0.8808 -0.8098 -1.9616
  281SOL    HW2  843   3.027   0.086   2.612  2.2980 -0.7054  1.1237
  282SOL     OW  844   0.532   0.865   0.362  0.4611 -0.1070 -0.4395
  282SOL    HW1  845   0.591   0.871   0.276 -0.8577 -0.6656  1.0254
  282SOL    HW2  846   0.430   0.863   0.335 -4.0776 -0.1395 -3.5840
  283SOL     OW  847   1.861   2.050   0.390  0.2869  0.3686 -0.1272
  283SOL    HW1  848   1.962   2.075   0.390 -0.0097  0.9768  1.2450
  283SOL    HW2  849   1.818   2.067   0.300 -0.8920  1.1434  0.4383
  284SOL     OW  850   1.160   1.270   0.265  0.6065 -0.1903 -0.3993
  284SOL    HW1  851   1.197   1.304   0.348 -0.6299  1.7649 -0.2795
  284SOL    HW2  852   1.237   1.255   0.202  2.7342  1.8346  2.1732
  285SOL     OW  853   2.417   0.252   2.846  0.4768 -0.2801  0.2394
  285SOL    HW1  854   2.424   0.333   2.783 -1.2062 -0.7963 -1.2257
  285SOL    HW2  855   2.450   0.169   2.796  0.4650 -2.6432  0.2124
  286SOL     OW  856   1.149   2.877   1.537  0.3026  0.0566 -0.0717
  286SOL    HW1  857   1.119   2.888   1.440 -2.1593  3.3584  0.4731
  286SOL    HW2  858   1.095   2.945   1.591  0.8213  0.3495  1.8781
  287SOL     OW  859   0.910   1.404   1.074 -0.6834 -0.2746 -0.2659
  287SOL    HW1  860   0.990   1.410   1.010 -1.3827  1.0298 -0.3223
  287SOL    HW2  861   0.861   1.495   1.080  0.0453  0.6120 -0.6579
  288SOL     OW  862   1.594   3.022   2.830 -0.0377 -0.3121 -0.1453
  288SOL    HW1  863   1.574   0.020   2.796 -0.1959  2.4368 -1.9150
  288SOL    HW2  864   1.613   3.019   2.928  1.8267  0.9914 -0.9649
  289SOL     OW  865   0.176   1.628   2.535 -0.2635 -0.0319 -0.3888
  289SOL    HW1  866   0.098   1.561   2.545  0.9877  1.7534 -0.3722
  289SOL    HW2  867   0.142   1.711   2.585 -0.8303  0.4557  1.2471
  290SOL     OW  868   1.618   2.384   0.961  0.7196 -0.4615  0.4243
  290SOL    HW1  869   1.534   2.409   0.912 -3.2772  1.3872  2.0802
  290SOL    HW2  870   1.677   2.318   0.910 -0.6523 -1.8269  0.1469
  291SOL     OW  871   2.272   2.068   2.961  0.6478 -0.4279  0.2004
  291SOL    HW1  872   2.250   2.124   3.042  1.1617  1.1033 -0.0307
  291SOL    HW2  873   2.191   2.025   2.920 -1.0989 -0.7616 -1.1291
  292SOL     OW  874   1.086   0.688   2.167  0.0754  0.1706 -0.1043
  292SOL    HW1  875   1.166   0.630   2.154 -0.0419  3.7652 -0.0233
  292SOL    HW2  876   1.111   0.785   2.191  1.7243 -1.2859  4.1137
  293SOL     OW  877   2.103   2.933   1.005  0.0929  0.2988  0.4192
  293SOL    HW1  878   2.067   3.008   0.949  1.2111 -0.5986  1.3994
  293SOL    HW2  879   2.209   2.923   1.001  1.8114 -1.8405 -3.3521
  294SOL     OW  880   0.358   0.365   2.475  0.3400  0.5848  0.0838
  294SOL    HW1  881   0.393   0.421   2.551  1.7508 -1.5572 -0.5312
  294SOL    HW2  882   0.361   0.416   2.389 -2.6260  0.2181  2.9802
  295SOL     OW  883   1.348   1.776   0.471  0.1025  0.2300 -0.1908
  295SOL    HW1  884   1.429   1.793   0.532  0.7178 -0.1629 -2.2184
  295SOL    HW2  885   1.345   1.680   0.438 -1.1122 -2.8981 -2.7583
  296SOL     OW  886   2.387   1.746   0.405  0.1740 -0.4524 -0.2398
  296SOL    HW1  887   2.445   1.754   0.322 -0.4992 -0.5713  0.3358
  296SOL    HW2  888   2.356   1.650   0.427  0.8907 -1.5460  1.4580
  297SOL     OW  889   2.072   0.379   0.085  0.0637 -0.1586  0.6511
  297SOL    HW1  890   2.060   0.282   0.063 -0.9548  0.1946  3.1588
  297SOL    HW2  891   2.155   0.423   0.051 -0.3762 -0.9268  1.0809
  298SOL     OW  892   1.295   2.345   2.335 -0.6378 -0.0079  0.3510
  298SOL    HW1  893   1.241   2.268   2.375 -2.6529  1.7585 -0.3065
  298SOL    HW2  894   1.383   2.306   2.297  0.4401 -1.1531  0.3731
  299SOL     OW  895   1.202   2.937   2.406 -0.0643  0.3575  0.6783
  299SOL    HW1  896   1.305   2.944   2.435  4.0819  2.0414  0.4516
  299SOL    HW2  897   1.195   2.890   2.315  1.8687 -0.6773 -2.8008
  300SOL     OW  898   1.875   0.033   2.989 -0.2112 -0.0766 -0.7297
  300SOL    HW1  899   1.790   0.001   3.029  0.4940 -1.5585 -2.8321
  300SOL    HW2  900   1.866   0.083   2.900 -0.0931 -2.7396 -1.6596
  301SOL     OW  901   1.485   1.430   1.297 -0.5607  0.0335 -0.2260
  301SOL    HW1  902   1.429   1.347   1.290  0.1517  1.1737  2.1832
  301SOL    HW2  903   1.461   1.504   1.229 -0.1907  2.8833 -1.7290
  302SOL     OW  904   2.450   2.347   0.447 -0.2252  0.0527 -0.5369
  302SOL    HW1  905   2.518   2.414   0.492 -0.2770 -0.3799  0.4135
  302SOL    HW2  906   2.372   2.398   0.403 -1.7704  1.0383 -0.8714
  303SOL     OW  907   2.795   2.338   2.391 -0.7724  0.6902 -0.3183
  303SOL    HW1  908   2.771   2.436   2.384 -0.7217  0.3386  0.9833
  303SOL    HW2  909   2.834   2.302   2.306  1.1350  1.1069 -1.0253
  304SOL     OW  910   2.882   0.654   1.928  0.4393  0.2594 -0.4806
  304SOL    HW1  911   2.870   0.729   1.859 -0.9912  1.8615  0.8966
  304SOL    HW2  912   2.801   0.667   1.996 -0.8942  0.4483  1.0068
  305SOL     OW  913   0.795   1.929   1.819  0.4558 -0.4702 -0.2477
  305SOL    HW1  914   0.810   1.833   1.834  0.8567  2.6211  0.8468
  305SOL    HW2  915   0.878   1.984   1.845  2.1618 -0.7004  0.1893
  306SOL     OW  916   2.785   0.851   1.786 -0.1257 -0.2757  0.1763
  306SOL    HW1  917   2.835   0.891   1.707  0.2539 -0.2220 -3.5221
  306SOL    HW2  918   2.751   0.921   1.854 -2.1853  0.2539 -0.5387
  307SOL     OW  919   1.608   1.165   1.921 -0.2386  0.1686  0.3941
  307SOL    HW1  920   1.508   1.167   1.951  0.4540  0.8747  0.6127
  307SOL    HW2  921   1.612   1.124   1.824 -0.3390  0.6871 -2.1881
  308SOL     OW  922   2.685   1.624   0.953  0.0825 -0.2323 -0.5011
  308SOL    HW1  923   2.645   1.693   1.018  0.3866 -0.1765 -0.0292
  308SOL    HW2  924   2.622   1.549   0.938  0.2053  0.4793 -1.5549
  309SOL     OW  925   2.312   1.613   1.304  0.1753 -0.1654  0.2672
  309SOL    HW1  926   2.300   1.670   1.383  0.7843 -0.8966 -0.1673
  309SOL    HW2  927   2.385   1.544   1.323  0.9204 -0.4322 -0.5722
  310SOL     OW  928   2.675   1.604   2.657 -0.4220  0.1204 -0.3876
  310SOL    HW1  929   2.679   1.599   2.557  2.8576  2.1388  0.9626
  310SOL    HW2  930   2.686   1.701   2.681  1.3072  0.0711  0.9179
  311SOL     OW  931   0.163   2.053   2.916  0.4404 -0.4759  0.0821
  311SOL    HW1  932   0.128   2.058   3.006 -0.9251 -0.1843  0.9068
  311SOL    HW2  933   0.157   1.958   2.878 -0.3527 -3.5892 -2.9611
  312SOL     OW  934   2.330   1.604   1.017 -0.4835  0.4137 -0.2408
  312SOL    HW1  935   2.395   1.527   1.022  1.3645 -0.1099  1.8367
  312SOL    HW2  936   2.317   1.633   1.117  0.1931  0.6740  1.8760
  313SOL     OW  937   2.508   3.060   1.123 -0.0257 -0.1291  0.0394
  313SOL    HW1  938   2.471   3.080   1.030 -2.6228 -1.4704 -0.6124
  313SOL    HW2  939   2.433   3.030   1.192  1.3760 -2.8323  0.0560
  314SOL     OW  940   0.969   1.743   0.311 -0.3806  0.2268 -0.5040
  314SOL    HW1  941   1.041   1.773   0.250 -1.8195  0.3967  3.1171
  314SOL    HW2  942   0.971   1.803   0.391  0.7877  0.4816 -1.2203
  315SOL     OW  943   1.167   2.550   2.210  0.0386 -0.1646 -0.2442
  315SOL    HW1  944   1.088   2.552   2.277  1.2325 -1.3303  1.0788
  315SOL    HW2  945   1.238   2.485   2.245 -0.1211  0.4495  2.0125
  316SOL     OW  946   2.860   1.118   0.097  0.3595  0.3777 -0.2686
  316SOL    HW1  947   2.950   1.073   0.098  1.3963 -0.3607 -0.9082
  316SOL    HW2  948   2.788   1.043   0.113 -2.5117  0.7860  3.4126
  317SOL     OW  949   1.014   0.264   0.373 -0.1224  0.1436 -0.0452
  317SOL    HW1  950   0.997   0.243   0.279  1.5004 -0.0476  1.9352
  317SOL    HW2  951   1.049   0.182   0.419 -1.3294 -0.6831  0.9487
  318SOL     OW  952   2.678   2.487   0.508  0.2516  0.2834 -0.4439
  318SOL    HW1  953   2.729   2.405   0.472  0.6589 -0.4715  0.7324
  318SOL    HW2  954   2.744   2.564   0.516  0.7826 -0.5437 -0.0147
  319SOL     OW  955   0.687   1.387   2.511 -0.2342  0.6568 -0.1193
  319SOL    HW1  956   0.594   1.423   2.529  3.0831  1.5597  1.2013
  319SOL    HW2  957   0.761   1.444   2.549 -0.1820 -0.0050  1.0126
  320SOL     OW  958   0.578   2.363   1.765  0.0526  0.3687  0.8700
  320SOL    HW1  959   0.665   2.409   1.731  1.6476 -0.4379 -2.9010
  320SOL    HW2  960   0.507   2.427   1.798  2.7510 -1.5779 -0.3198
  321SOL     OW  961   1.515   2.492   3.058  0.0439  0.3315 -0.1424
  321SOL    HW1  962   1.546   2.423   2.990 -2.7800 -0.1327 -1.3023
  321SOL    HW2  963   1.594   2.504   0.026  1.0101 -0.9118  0.7074
  322SOL     OW  964   2.754   1.090   1.947 -0.4021 -0.1278  0.5498
  322SOL    HW1  965   2.747   1.186   1.917  0.6711 -1.4266 -1.7270
  322SOL    HW2  966   2.843   1.067   1.987  0.9620 -2.0983  0.5166
  323SOL     OW  967   2.478   0.926   0.648  0.9855  0.2439 -0.7294
  323SOL    HW1  968   2.458   0.845   0.701  0.5184  0.4200  0.7593
  323SOL    HW2  969   2.397   0.984   0.625 -1.6064 -0.5033 -1.6331
  324SOL     OW  970   0.378   2.805   0.118 -0.7340  0.5696 -0.0683
  324SOL    HW1  971   0.383   2.768   0.026  1.9563  3.2799  2.9553
  324SOL    HW2  972   0.283   2.836   0.142 -0.9620  1.2456  0.3649
  325SOL     OW  973   1.359   0.609   2.200  0.0565  0.3160 -0.2276
  325SOL    HW1  974   1.447   0.637   2.162 -1.4197  0.6048 -0.4862
  325SOL    HW2  975   1.353   0.504   2.202  0.4895 -1.5958 -1.7251
  326SOL     OW  976   2.274   2.767   1.601 -0.3843 -0.0193 -0.6003
  326SOL    HW1  977   2.334   2.691   1.583 -0.6403 -1.6311  0.0267
  326SOL    HW2  978   2.232   2.800   1.516 -0.7570 -1.2083 -1.9991
  327SOL     OW  979   2.161   0.666   2.801  0.1319  0.3839 -0.2068
  327SOL    HW1  980   2.167   0.699   2.893 -0.0546  1.0293 -2.4045
  327SOL    HW2  981   2.105   0.580   2.792 -2.9101 -1.6589  1.6669
  328SOL     OW  982   2.839   0.977   2.271 -0.3304 -0.5193  0.1769
  328SOL    HW1  983   2.765   1.044   2.288 -0.5171 -1.4787  0.1897
  328SOL    HW2  984   2.799   0.884   2.266 -1.0993  1.1455  0.8669
  329SOL     OW  985   1.135   0.075   2.113  0.3990 -0.3596 -0.2125
  329SOL    HW1  986   1.083   3.085   2.143  0.1341  0.3845  0.9704
  329SOL    HW2  987   1.232   0.067   2.146 -0.8563 -0.4327 -1.9470
  330SOL     OW  988   2.903   1.883   1.402  0.1791  0.5017  0.7817
  330SOL    HW1  989   2.994   1.935   1.394  1.4466 -0.3734 -1.7782
  330SOL    HW2  990   2.899   1.821   1.318 -0.6215  1.0698 -1.9761
  331SOL     OW  991   0.573   1.342   1.674  0.7405 -0.6454 -0.1176
  331SOL    HW1  992   0.586   1.252   1.724  0.6989 -1.4529 -0.5021
  331SOL    HW2  993   0.623   1.333   1.584  2.9580  0.8464 -5.1084
  332SOL     OW  994   0.046   2.773   1.447 -0.5061  0.2150 -0.3219
  332SOL    HW1  995   0.033   2.859   1.498  1.1984 -0.9953  0.2839
  332SOL    HW2  996   3.058   2.719   1.427  2.7456  0.1552  0.6175
  333SOL     OW  997   2.177   2.947   1.805  0.1462 -0.0845 -0.0388
  333SOL    HW1  998   2.261   2.989   1.840 -2.5905  1.1680 -2.6602
  333SOL    HW2  999   2.186   2.885   1.723 -2.1171 -2.1290  0.2070
  334SOL     OW 1000   0.906   2.018   0.971 -0.0346 -0.1413 -0.3315
  334SOL    HW1 1001   0.811   2.030   1.009 -1.4296  0.5908  1.8148
  334SOL    HW2 1002   0.933   2.095   0.906  0.8573 -1.0979 -2.1034
  335SOL     OW 1003   0.824   2.300   2.843 -0.6325 -0.1055 -0.2142
  335SOL    HW1 1004   0.776   2.364   2.783 -0.5850  0.6620 -1.0235
  335SOL    HW2 1005   0.901   2.350   2.889 -0.1533 -0.9479  0.0345
  336SOL     OW 1006   3.075   0.358   2.052 -0.0645  0.0061  0.0902
  336SOL    HW1 1007   3.072   0.325   1.957  1.8678  0.3557  3.5029
  336SOL    HW2 1008   2.997   0.310   2.105 -0.0111 -1.9266 -0.1912
  337SOL     OW 1009   2.750   2.009   3.067  0.0319 -0.1135  0.0853
  337SOL    HW1 1010   2.779   2.101   0.007 -0.8936  0.1439 -1.6540
  337SOL    HW2 1011   2.817   1.935   3.094 -1.6617 -2.0444  2.5277
  338SOL     OW 1012   1.074   2.028   1.208 -0.0253  0.4658 -0.0603
  338SOL    HW1 1013   1.171   2.059   1.216 -0.8123 -1.7229 -1.2928
  338SOL    HW2 1014   1.043   2.036   1.113  1.1322  1.4733  2.0383
  339SOL     OW 1015   0.003   0.620   2.083 -0.3571  0.2249 -0.3075
  339SOL    HW1 1016   3.006   0.628   2.036 -0.2992 -0.1586  0.9190
  339SOL    HW2 1017   0.030   0.523   2.101 -1.1161  0.5197 -0.8171
  340SOL     OW 1018   1.718   2.611   0.727 -0.1505 -0.3246 -0.1700
  340SOL    HW1 1019   1.742   2.612   0.628  0.0950 -0.3503  2.4433
  340SOL    HW2 1020   1.630   2.560   0.741 -1.3377  1.1809  0.5176
  341SOL     OW 1021   1.619   1.526   0.950 -0.1809  0.3419 -0.0103
  341SOL    HW1 1022   1.681   1.488   1.022 -2.1389 -1.1980  2.5455
  341SOL    HW2 1023   1.645   1.624   0.929 -0.1042  2.1860  1.4313
  342SOL     OW 1024   0.203   1.365   0.634  0.1325  0.1406 -0.1651
  342SOL    HW1 1025   0.224   1.426   0.554 -0.4982  0.2291  1.3440
  342SOL    HW2 1026   0.147   1.287   0.599  0.7204 -1.4006  0.5125
  343SOL     OW 1027   1.285   0.047   1.306 -0.4182  0.1370  0.3891
  343SOL    HW1 1028   1.189   0.047   1.348 -5.4676 -1.7099 -0.1936
  343SOL    HW2 1029   1.331   0.138   1.314 -1.0448  2.7279  0.9037
  344SOL     OW 1030   2.153   2.705   1.251 -0.1302 -0.6400 -0.1766
  344SOL    HW1 1031   2.108   2.793   1.228  1.0181 -2.2302  0.7112
  344SOL    HW2 1032   2.086   2.629   1.272 -0.6311 -0.5056 -0.0008
  345SOL     OW 1033   2.965   2.340   2.776 -0.4174  0.1073  0.6421
  345SOL    HW1 1034   2.904   2.410   2.737 -0.6232  2.0492 -0.2256
  345SOL    HW2 1035   3.065   2.350   2.761 -1.3081 -2.1363  0.8942
  346SOL     OW 1036   0.219   1.909   0.894 -0.0909 -0.1234  0.5935
  346SOL    HW1 1037   0.258   1.869   0.806 -0.8834  0.2693  1.2160
  346SOL    HW2 1038   0.176   1.999   0.876  1.9371 -1.4597 -2.5861
  347SOL     OW 1039   1.925   2.615   0.895  0.2327 -0.2937 -0.1595
  347SOL    HW1 1040   1.836   2.616   0.844  0.8115 -1.3358  0.9841
  347SOL    HW2 1041   1.913   2.681   0.973 -0.8389 -0.6752  0.1463
  348SOL     OW 1042   1.325   1.385   2.653 -0.8274 -0.6299 -0.4289
  348SOL    HW1 1043   1.391   1.338   2.589  1.8864  0.0137  1.2704
  348SOL    HW2 1044   1.314   1.486   2.636  0.0106  3.3513  1.7781
  349SOL     OW 1045   2.197   1.019   2.153 -0.5025  0.2886 -0.0646
  349SOL    HW1 1046   2.117   1.003   2.097  2.7654  1.8405 -1.2197
  349SOL    HW2 1047   2.282   0.979   2.114  1.6930 -1.4652 -0.4463
  350SOL     OW 1048   3.068   2.384   1.179 -0.0854  0.4747 -1.0070
  350SOL    HW1 1049   3.087   2.324   1.259 -0.0674  1.1773  2.1504
  350SOL    HW2 1050   0.047   2.369   1.109  1.7975  1.0673 -1.9455
  351SOL     OW 1051   0.632   0.209   2.833  0.0412  0.2731  0.1298
  351SOL    HW1 1052   0.627   0.176   2.930 -1.2697 -2.6428  1.4132
  351SOL    HW2 1053   0.706   0.277   2.814 -2.1759 -1.7039  0.7646
  352SOL     OW 1054   0.702   2.530   1.465 -0.3740 -0.0849 -0.3151
  352SOL    HW1 1055   0.755   2.529   1.549  1.2129  2.9508  1.1562
  352SOL    HW2 1056   0.624   2.592   1.476  0.6600 -0.2053 -0.7641
  353SOL     OW 1057   1.084   0.705   2.674  0.2418 -0.5875 -0.3344
  353SOL    HW1 1058   1.058   0.795   2.637  0.6958 -1.4999  0.8231
  353SOL    HW2 1059   1.161   0.714   2.743  1.0184 -2.9918  0.7889
  354SOL     OW 1060   1.505   1.117   0.574  0.4888  0.7852 -0.0292
  354SOL    HW1 1061   1.433   1.067   0.525 -0.9219 -0.9132  0.8505
  354SOL    HW2 1062   1.564   1.172   0.516 -0.5239 -1.3991  1.9153
  355SOL     OW 1063   2.717   0.130   0.471  0.5846  0.6138 -0.4887
  355SOL    HW1 1064   2.786   0.097   0.399  0.5374  1.0464 -1.6705
  355SOL    HW2 1065   2.624   0.091   0.453  0.8275  2.6555 -0.7158
  356SOL     OW 1066   2.973   0.861   2.588 -0.5851 -0.0168 -0.2195
  356SOL    HW1 1067   3.043   0.808   2.532 -0.1320  0.3078  0.3273
  356SOL    HW2 1068   2.881   0.812   2.580 -1.6622 -2.9404 -1.4414
  357SOL     OW 1069   0.523   2.746   1.944 -0.3227 -0.1250 -0.1144
  357SOL    HW1 1070   0.525   2.831   1.887  3.4000 -0.8566 -0.6056
  357SOL    HW2 1071   0.457   2.678   1.913 -0.5162  1.7930  2.3714
  358SOL     OW 1072   2.840   1.350   2.627 -0.8424  0.1459 -0.2577
  358SOL    HW1 1073   2.812   1.430   2.681 -1.2387 -0.7809 -1.4095
  358SOL    HW2 1074   2.897   1.377   2.548 -1.0271 -0.5967  0.3400
  359SOL     OW 1075   2.509   2.502   2.793  0.7023 -0.3831 -0.0667
  359SOL    HW1 1076   2.474   2.597   2.805  0.2819  0.7993  0.8034
  359SOL    HW2 1077   2.453   2.449   2.723 -1.0327 -0.3175 -0.2597
  360SOL     OW 1078   2.087   0.851   1.094 -0.1031  0.6512 -0.1308
  360SOL    HW1 1079   2.157   0.873   1.022  1.6238  1.2259 -1.1813
  360SOL    HW2 1080   2.118   0.904   1.179  1.4566  0.4446 -0.6783
  361SOL     OW 1081   1.885   2.811   1.105  0.2690  0.0695  0.5161
  361SOL    HW1 1082   1.797   2.863   1.104  0.5299 -1.2914 -0.1200
  361SOL    HW2 1083   1.965   2.869   1.073 -0.9070 -0.8471  0.5959
  362SOL     OW 1084   1.581   1.120   0.845 -0.2714 -0.2176  0.2150
  362SOL    HW1 1085   1.542   1.101   0.747 -0.9914 -1.3884 -1.3349
  362SOL    HW2 1086   1.659   1.186   0.834 -1.3283  0.7381 -1.0625
  363SOL     OW 1087   3.055   1.760   2.355 -0.2937 -0.4155  0.3673
  363SOL    HW1 1088   0.023   1.680   2.336 -0.0731  1.5001  2.0896
  363SOL    HW2 1089   3.079   1.797   2.448 -0.7842  0.4592  1.1781
  364SOL     OW 1090   1.218   0.508   1.397  0.0411  0.2975  0.5009
  364SOL    HW1 1091   1.214   0.418   1.447  1.6543  0.8957 -2.5830
  364SOL    HW2 1092   1.304   0.524   1.341  0.1105  0.9388 -2.7245
  365SOL     OW 1093   3.073   0.050   1.369 -0.2550 -0.4926  0.2454
  365SOL    HW1 1094   0.066   0.079   1.323 -2.3074  0.5862  1.3095
  365SOL    HW2 1095   3.002   0.122   1.374  4.4023 -1.3307  1.3719
  366SOL     OW 1096   2.914   1.392   0.157  0.1046  0.0046 -0.7767
  366SOL    HW1 1097   2.853   1.398   0.238  2.3358 -0.5142 -1.2086
  366SOL    HW2 1098   2.906   1.296   0.125  2.3843  0.2241 -1.4251
  367SOL     OW 1099   2.968   2.127   2.587 -0.4140  0.4116  0.7492
  367SOL    HW1 1100   2.989   2.227   2.575 -3.4168 -0.6942  0.6343
  367SOL    HW2 1101   2.911   2.108   2.669 -0.6518 -2.6272 -0.3249
  368SOL     OW 1102   2.939   2.020   0.887  0.5035 -0.5396  0.1875
  368SOL    HW1 1103   2.871   2.076   0.838  1.1179 -2.4956  0.5028
  368SOL    HW2 1104   3.027   2.069   0.891  1.0394 -1.1925  3.1667
  369SOL     OW 1105   0.557   0.240   0.509 -0.1346  0.8846 -0.2892
  369SOL    HW1 1106   0.576   0.164   0.442 -0.0867 -1.6817  0.3144
  369SOL    HW2 1107   0.628   0.240   0.580 -1.3305  0.2696  0.0806
  370SOL     OW 1108   0.647   0.877   1.350  0.3190  0.0432 -0.2158
  370SOL    HW1 1109   0.603   0.838   1.270  0.5808  1.7386  0.4289
  370SOL    HW2 1110   0.748   0.889   1.327 -0.1416 -1.8894 -0.7296
  371SOL     OW 1111   2.275   2.055   0.799 -0.5820  0.1887  0.1993
  371SOL    HW1 1112   2.319   1.966   0.812 -3.4746  2.1119 -1.0800
  371SOL    HW2 1113   2.293   2.087   0.702 -1.0943  0.4645 -0.6884
  372SOL     OW 1114   0.057   0.724   2.435 -0.2588 -0.0849 -0.1474
  372SOL    HW1 1115   0.123   0.691   2.508  0.9580 -2.0089  0.5658
  372SOL    HW2 1116   0.097   0.802   2.373  1.1581  1.3938  1.7573
  373SOL     OW 1117   2.727   1.397   0.358  0.0930 -0.3310 -0.3488
  373SOL    HW1 1118   2.732   1.476   0.424 -0.1875 -0.9421  1.9256
  373SOL    HW2 1119   2.785   1.315   0.393  1.8820 -0.9904  2.4242
  374SOL     OW 1120   0.442   2.473   0.161  0.1582 -0.9518 -0.0860
  374SOL    HW1 1121   0.504   2.479   0.242 -0.8938 -0.4071  0.3140
  374SOL    HW2 1122   0.501   2.443   0.082 -2.1509  2.7226  0.6220
  375SOL     OW 1123   0.673   0.322   0.174 -0.1877 -0.4860  0.1346
  375SOL    HW1 1124   0.736   0.319   0.094 -1.9298 -1.5188 -2.9820
  375SOL    HW2 1125   0.624   0.235   0.188 -1.0794 -2.7369  0.8928
  376SOL     OW 1126   3.082   3.058   2.084  0.3827 -0.1665  0.2031
  376SOL    HW1 1127   3.035   3.064   2.167  0.3530 -0.4926 -2.9104
  376SOL    HW2 1128   0.083   3.037   2.101 -1.8510  0.4215 -1.3176
  377SOL     OW 1129   0.791   1.931   2.175  0.3833 -0.2318  0.1384
  377SOL    HW1 1130   0.789   1.934   2.274  0.3212 -1.7583 -0.7475
  377SOL    HW2 1131   0.756   1.842   2.138  0.0041 -0.5243 -1.5559
  378SOL     OW 1132   1.264   0.942   0.459  0.0341 -0.7883 -0.0186
  378SOL    HW1 1133   1.266   0.945   0.355  0.8856 -1.2276 -1.7010
  378SOL    HW2 1134   1.183   0.899   0.501  0.1029 -1.6869 -0.3327
  379SOL     OW 1135   0.985   1.368   0.067 -0.1072  0.9360 -0.7575
  379SOL    HW1 1136   0.927   1.431   0.125 -0.3984  1.2237 -0.0488
  379SOL    HW2 1137   1.050   1.312   0.122  0.4327  0.2815 -1.7768
  380SOL     OW 1138   2.913   2.148   1.896  0.1018 -0.2041  0.0014
  380SOL    HW1 1139   2.980   2.209   1.853  1.4578  0.5609 -1.9092
  380SOL    HW2 1140   2.969   2.082   1.956  0.8925 -0.1149  0.6241
  381SOL     OW 1141   0.390   0.856   1.799  0.4150 -0.3100 -0.4771
  381SOL    HW1 1142   0.471   0.893   1.746 -0.6631 -1.5078 -0.8155
  381SOL    HW2 1143   0.319   0.814   1.738 -0.6105  1.6463  0.8595
  382SOL     OW 1144   2.803   2.100   2.800  0.1870  0.1231  0.1764
  382SOL    HW1 1145   2.860   2.181   2.814  1.0635 -1.2044  1.2218
  382SOL    HW2 1146   2.777   2.061   2.895 -1.1301  1.0593 -0.0475
  383SOL     OW 1147   2.330   1.855   2.250  0.3569  0.1122  0.5283
  383SOL    HW1 1148   2.323   1.777   2.182  0.8987  4.7457  1.0049
  383SOL    HW2 1149   2.306   1.835   2.347  3.2328  2.7764  2.1571
  384SOL     OW 1150   0.743   2.355   2.159 -0.3307 -0.1597 -0.0841
  384SOL    HW1 1151   0.683   2.427   2.124 -1.4043 -2.2492 -1.0171
  384SOL    HW2 1152   0.690   2.267   2.166 -0.8628 -2.6535 -0.8150
  385SOL     OW 1153   2.634   2.127   1.137 -0.0464  0.1445  0.6706
  385SOL    HW1 1154   2.702   2.201   1.123  0.7180  0.4870  1.3867
  385SOL    HW2 1155   2.633   2.096   1.233 -0.8554  1.3729 -2.2601
  386SOL     OW 1156   1.757   1.034   3.094  0.5403  0.4409  0.0734
  386SOL    HW1 1157   1.799   0.976   3.021 -0.0230 -0.4355  3.5196
  386SOL    HW2 1158   1.815   1.017   0.080  1.6709 -0.8826 -2.3321
  387SOL     OW 1159   0.588   0.925   1.598  0.3934  0.0238  0.5524
  387SOL    HW1 1160   0.616   0.911   1.502 -0.7711  1.3552  1.7649
  387SOL    HW2 1161   0.635   1.005   1.638  0.8964  0.6152 -0.6398
  388SOL     OW 1162   2.860   0.907   1.496  0.5152 -0.1152 -0.0332
  388SOL    HW1 1163   2.818   0.815   1.485 -3.5767  0.5912  0.6502
  388SOL    HW2 1164   2.833   0.975   1.422 -0.9323  2.7792 -2.0533
  389SOL     OW 1165   1.826   1.133   2.584  0.0332 -0.4937 -0.4625
  389SOL    HW1 1166   1.838   1.227   2.556 -2.5976  0.1291  0.9440
  389SOL    HW2 1167   1.744   1.124   2.643 -0.1847  1.4910  1.8518
  390SOL     OW 1168   2.099   2.213   0.429 -0.0501 -0.0349  0.3840
  390SOL    HW1 1169   2.046   2.258   0.501  3.3532 -3.0044  0.6387
  390SOL    HW2 1170   2.176   2.163   0.473  0.8027 -1.8064  0.8107
  391SOL     OW 1171   1.480   2.843   0.752  0.4362  0.0016  0.1634
  391SOL    HW1 1172   1.568   2.889   0.737 -3.2210 -1.7471 -0.7065
  391SOL    HW2 1173   1.484   2.759   0.809 -1.2054  0.3411 -1.4049
  392SOL     OW 1174   2.618   2.874   1.536  0.3743  0.0970  0.0181
  392SOL    HW1 1175   2.613   2.827   1.443  1.7941 -2.2885 -2.6448
  392SOL    HW2 1176   2.575   2.964   1.534  0.0608  0.2458  0.5763
  393SOL     OW 1177   1.898   1.985   2.907  1.0674 -0.1673 -0.1100
  393SOL    HW1 1178   1.885   2.062   2.973  1.3709  0.4667  1.0537
  393SOL    HW2 1179   1.899   1.897   2.959  0.5240  0.3335 -1.6495
  394SOL     OW 1180   0.650   2.644   2.963  0.2720 -0.6591 -0.5578
  394SOL    HW1 1181   0.670   2.558   3.017 -0.3776  0.6423 -0.6682
  394SOL    HW2 1182   0.727   2.712   2.976 -2.8257  0.2928 -1.5302
  395SOL     OW 1183   0.739   1.614   1.063 -0.5373  0.2362 -0.1355
  395SOL    HW1 1184   0.649   1.599   1.020  1.2920 -0.4251  0.0037
  395SOL    HW2 1185   0.742   1.649   1.158 -0.9514  0.6408  0.5261
  396SOL     OW 1186   2.009   0.950   2.581  0.0695 -0.2353  0.5246
  396SOL    HW1 1187   1.943   1.025   2.567  1.8502 -0.3716 -1.4255
  396SOL    HW2 1188   1.995   0.900   2.664  1.8821  1.4803 -2.2339
  397SOL     OW 1189   2.970   0.630   2.794 -0.2134 -0.0747  0.0360
  397SOL    HW1 1190   3.013   0.704   2.737  0.0680  0.4797  1.6778
  397SOL    HW2 1191   2.994   0.540   2.755 -1.9688  3.4048 -3.0346
  398SOL     OW 1192   1.364   0.376   0.300  0.0886  0.0501 -0.1890
  398SOL    HW1 1193   1.467   0.372   0.303  1.8045 -0.9186 -0.1511
  398SOL    HW2 1194   1.336   0.284   0.329 -0.3150 -2.4727 -0.2710
  399SOL     OW 1195   1.742   3.058   1.753  0.0049 -0.0009 -0.5899
  399SOL    HW1 1196   1.695   3.074   1.663  0.8294 -0.6386  2.1835
  399SOL    HW2 1197   1.729   2.961   1.785  2.6592 -1.5260  1.2938
  400SOL     OW 1198   0.058   2.262   2.275 -0.5063  0.3282  0.1852
  400SOL    HW1 1199   3.090   2.181   2.294 -0.9361 -1.4116  1.7816
  400SOL    HW2 1200   0.116   2.251   2.192 -0.8182 -0.5143  1.2008
  401SOL     OW 1201   0.573   0.040   0.348 -0.3130  0.4160 -0.2761
  401SOL    HW1 1202   0.470   0.039   0.339 -3.0400 -1.9038 -0.5576
  401SOL    HW2 1203   0.611   3.078   0.271 -0.1296 -0.3625 -1.7528
  402SOL     OW 1204   0.240   2.416   1.474  0.6243  0.2047 -0.0934
  402SOL    HW1 1205   0.311   2.357   1.519  0.0402  0.4430 -1.2843
  402SOL    HW2 1206   0.154   2.368   1.439 -1.1999 -2.2555  0.1598
  403SOL     OW 1207   0.227   1.058   1.497 -0.6285 -0.2717 -0.2409
  403SOL    HW1 1208   0.131   1.043   1.530 -1.7031 -0.6078 -1.5142
  403SOL    HW2 1209   0.267   0.965   1.489 -1.7377 -0.2974  2.2085
  404SOL     OW 1210   3.033   2.517   2.205 -0.1064  0.0036 -0.4023
  404SOL    HW1 1211   3.060   2.427   2.236  0.8164  3.2655  1.5629
  404SOL    HW2 1212   3.060   2.595   2.265 -0.6753  1.0382 -0.9662
  405SOL     OW 1213   2.559   0.323   2.337 -0.3855 -0.3137  0.3348
  405SOL    HW1 1214   2.508   0.248   2.299 -1.9199  2.9476 -0.4794
  405SOL    HW2 1215   2.500   0.392   2.385 -1.1603  0.7465 -2.5519
  406SOL     OW 1216   1.984   2.344   0.242  0.4400 -0.1451 -0.4262
  406SOL    HW1 1217   2.047   2.291   0.308  2.4072 -1.7175 -0.7070
  406SOL    HW2 1218   1.890   2.319   0.264  1.2829 -1.6480  3.0518
  407SOL     OW 1219   1.937   1.598   0.563 -0.2846  0.0823  0.4061
  407SOL    HW1 1220   1.933   1.575   0.664 -1.5012  0.2610  2.6721
  407SOL    HW2 1221   1.886   1.682   0.544  0.4180 -0.4388  2.6208
  408SOL     OW 1222   0.375   0.430   2.200  0.3628 -0.4424  0.2486
  408SOL    HW1 1223   0.322   0.354   2.156 -1.0130 -0.6183 -0.4226
  408SOL    HW2 1224   0.479   0.417   2.202  0.2102  1.8747 -0.7930
  409SOL     OW 1225   2.695   1.610   0.535 -0.1003 -0.0685 -0.5360
  409SOL    HW1 1226   2.638   1.685   0.578 -1.4839  0.5438 -0.0802
  409SOL    HW2 1227   2.735   1.647   0.446  0.2654 -1.8914  0.6230
  410SOL     OW 1228   2.037   1.555   1.280  0.0216  0.1875  0.0835
  410SOL    HW1 1229   2.142   1.562   1.279  0.8070  2.2459  0.1097
  410SOL    HW2 1230   2.005   1.551   1.379  1.5700 -0.4707 -1.0600
  411SOL     OW 1231   3.051   0.618   0.424  0.1364 -0.0104  0.0182
  411SOL    HW1 1232   3.002   0.585   0.343  0.6484  1.7320  1.6939
  411SOL    HW2 1233   0.020   0.549   0.464  3.2182  2.7680 -0.2399
  412SOL     OW 1234   2.071   0.783   3.090 -0.1308 -0.0891  0.1727
  412SOL    HW1 1235   2.032   0.845   0.064 -2.5623  0.1920  0.6794
  412SOL    HW2 1236   2.144   0.715   0.035  1.7723 -3.4888  2.9034
  413SOL     OW 1237   0.954   0.743   1.589  0.3649  0.3357 -0.4535
  413SOL    HW1 1238   0.928   0.675   1.522 -1.3808  0.3796 -1.5770
  413SOL    HW2 1239   0.943   0.835   1.542 -0.8972 -0.9568  0.0419
  414SOL     OW 1240   0.086   1.215   3.095 -0.5239 -0.0668 -0.4330
  414SOL    HW1 1241   0.021   1.255   3.027 -2.0673  0.1485 -1.2328
  414SOL    HW2 1242   0.049   1.129   0.032  2.2661 -0.0086  1.2309
  415SOL     OW 1243   0.307   1.505   0.422  0.2646  0.2961  0.0328
  415SOL    HW1 1244   0.235   1.574   0.419 -1.1521 -1.2508  1.1074
  415SOL    HW2 1245   0.291   1.445   0.341  3.3172  0.1916  2.0736
  416SOL     OW 1246   1.834   0.806   0.407 -0.0696  0.6379  0.5799
  416SOL    HW1 1247   1.738   0.765   0.384 -1.4126 -0.7499 -2.1161
  416SOL    HW2 1248   1.911   0.731   0.426  0.7705 -2.8967 -1.6857
  417SOL     OW 1249   0.179   0.130   1.007  0.5585  0.5569  0.2953
  417SOL    HW1 1250   0.252   0.178   0.951  0.7479 -0.7503  1.2449
  417SOL    HW2 1251   0.197   0.026   1.009 -1.4662 -0.9229  3.1980
  418SOL     OW 1252   2.263   0.986   0.104 -0.0039 -0.1642  0.2552
  418SOL    HW1 1253   2.309   0.928   0.031 -0.1703  1.8119  0.0034
  418SOL    HW2 1254   2.166   1.008   0.082  0.1756 -0.5089  0.6686
  419SOL     OW 1255   0.542   0.553   0.046 -0.1677 -0.2180  0.2357
  419SOL    HW1 1256   0.455   0.562   0.102 -0.2835  0.7348  0.9077
  419SOL    HW2 1257   0.587   0.474   0.082 -1.0816  0.2688  0.4070
  420SOL     OW 1258   0.487   1.558   0.969  0.4897 -0.1169 -0.0896
  420SOL    HW1 1259   0.546   1.493   0.913  0.7058 -0.4856  1.2936
  420SOL    HW2 1260   0.389   1.533   0.951  1.1467  0.1068  1.1365
  421SOL     OW 1261   0.518   2.104   3.092 -0.1467 -0.1826 -0.4099
  421SOL    HW1 1262   0.605   2.049   0.000  0.5653 -1.6682  0.7810
  421SOL    HW2 1263   0.487   2.123   2.994 -1.2304 -0.3432 -2.3104
  422SOL     OW 1264   2.450   0.371   1.737  0.1740 -0.7330  0.2684
  422SOL    HW1 1265   2.537   0.319   1.728  0.7960 -0.2990  0.8687
  422SOL    HW2 1266   2.454   0.448   1.663 -1.9280 -0.5661 -2.8569
  423SOL     OW 1267   2.185   1.509   0.797 -0.0625  0.0566  0.2486
  423SOL    HW1 1268   2.089   1.542   0.795  1.6359 -1.1447 -0.4977
  423SOL    HW2 1269   2.237   1.538   0.878 -0.7856 -2.9706 -1.4545
  424SOL     OW 1270   2.041   1.429   0.122 -0.0484 -0.2566 -0.3689
  424SOL    HW1 1271   2.117   1.427   0.053 -1.0593 -1.6271  2.6684
  424SOL    HW2 1272   2.053   1.501   0.193 -1.9125  0.2022  1.8809
  425SOL     OW 1273   0.325   2.940   2.598 -0.4292  0.7268 -0.1552
  425SOL    HW1 1274   0.389   3.020   2.612 -0.4712 -0.9936  2.4410
  425SOL    HW2 1275   0.357   2.874   2.530 -1.4623 -0.0144 -1.8193
  426SOL     OW 1276   2.379   2.775   2.784  0.1375 -0.9575  0.0301
  426SOL    HW1 1277   2.301   2.812   2.839 -0.9116  0.7833 -1.8922
  426SOL    HW2 1278   2.463   2.834   2.780  0.6179  0.3042 -0.9692
  427SOL     OW 1279   0.717   0.940   2.209 -0.0121  0.3780 -0.6243
  427SOL    HW1 1280   0.748   0.875   2.285  1.0464  0.9740  0.4643
  427SOL    HW2 1281   0.692   1.029   2.251  1.5014  0.8989 -1.0639
  428SOL     OW 1282   2.230   1.280   2.088  0.0880  0.2062 -0.2006
  428SOL    HW1 1283   2.203   1.182   2.105 -1.9477  0.8063  0.4081
  428SOL    HW2 1284   2.334   1.287   2.081  3.4938 -2.1948 -1.9327
  429SOL     OW 1285   2.360   0.249   0.632 -0.0151  0.3926 -0.1615
  429SOL    HW1 1286   2.363   0.253   0.531 -1.0694 -0.3143  0.9156
  429SOL    HW2 1287   2.443   0.285   0.673  0.0766  2.2941 -1.4858
  430SOL     OW 1288   1.678   1.440   1.994 -0.0628 -0.1316 -0.1179
  430SOL    HW1 1289   1.649   1.341   1.987 -0.1587 -1.0084  1.8464
  430SOL    HW2 1290   1.715   1.472   1.904 -1.6990 -0.2124  1.5466
  431SOL     OW 1291   2.833   1.812   1.644 -0.3830  0.0714  0.7321
  431SOL    HW1 1292   2.878   1.844   1.556 -1.7898  3.2095  0.5756
  431SOL    HW2 1293   2.809   1.897   1.691 -0.3931 -1.1746 -1.1724
  432SOL     OW 1294   0.773   2.654   1.896 -0.0478 -0.8933  0.0271
  432SOL    HW1 1295   0.781   2.591   1.814 -0.5486 -0.0556 -1.1931
  432SOL    HW2 1296   0.677   2.664   1.926  2.1331 -0.4926  1.0834
  433SOL     OW 1297   1.641   2.923   1.060 -0.4294  1.2538  0.3137
  433SOL    HW1 1298   1.664   2.982   0.982  0.6794 -0.7936  2.1118
  433SOL    HW2 1299   1.588   2.839   1.032  0.1785  4.5830  0.0976
  434SOL     OW 1300   0.337   2.070   1.971  0.2445 -0.0009  0.3573
  434SOL    HW1 1301   0.427   2.110   1.952  0.1148  0.3364 -1.6185
  434SOL    HW2 1302   0.279   2.055   1.885  2.9689 -0.7918  0.6403
  435SOL     OW 1303   0.583   1.534   0.431  0.1932 -0.0334  0.1199
  435SOL    HW1 1304   0.599   1.545   0.335  1.1109  2.0927 -0.2229
  435SOL    HW2 1305   0.490   1.568   0.456  0.8231  1.0767 -0.9529
  436SOL     OW 1306   0.335   1.431   1.879 -0.7204  0.0800  0.3731
  436SOL    HW1 1307   0.259   1.498   1.884  0.5190  1.1932  0.4924
  436SOL    HW2 1308   0.368   1.415   1.781  2.8850 -0.2349  0.3365
  437SOL     OW 1309   1.240   0.411   2.867  0.1921 -1.1566  0.5958
  437SOL    HW1 1310   1.280   0.495   2.909  1.6309 -0.1403 -0.9396
  437SOL    HW2 1311   1.166   0.434   2.802 -0.9663  0.2910  1.7124
  438SOL     OW 1312   0.526   1.951   1.475 -0.4001  0.3097  0.7575
  438SOL    HW1 1313   0.540   1.940   1.377  1.3791 -1.9817  1.1267
  438SOL    HW2 1314   0.614   1.953   1.515 -3.7397 -1.9158 -1.5906
  439SOL     OW 1315   1.871   1.696   3.020 -0.1872  0.1322 -0.6615
  439SOL    HW1 1316   1.896   1.739   0.013  1.7887  0.4917 -1.0633
  439SOL    HW2 1317   1.951   1.681   2.962 -0.6613  0.4787 -0.1283
  440SOL     OW 1318   1.439   0.361   0.609  0.0682 -0.2393  0.0009
  440SOL    HW1 1319   1.375   0.305   0.668 -0.9243  0.1719  1.3456
  440SOL    HW2 1320   1.412   0.460   0.603  0.6673 -0.7676 -1.1296
  441SOL     OW 1321   0.510   2.714   1.473 -0.4863 -0.4368  0.3816
  441SOL    HW1 1322   0.420   2.711   1.524  0.0482  0.6718 -0.1690
  441SOL    HW2 1323   0.523   2.812   1.445 -1.7411 -1.2078  1.7779
  442SOL     OW 1324   2.469   2.463   0.908 -0.4878 -0.1286  0.4421
  442SOL    HW1 1325   2.421   2.512   0.982 -0.0851  0.1098 -0.4251
  442SOL    HW2 1326   2.465   2.361   0.932  1.0569  0.3008 -1.5994
  443SOL     OW 1327   2.706   0.766   2.537 -0.2589  0.1393 -0.3115
  443SOL    HW1 1328   2.627   0.810   2.495  2.8528 -2.3530 -0.4402
  443SOL    HW2 1329   2.683   0.736   2.629 -0.6083 -0.1695 -0.8302
  444SOL     OW 1330   1.630   0.987   2.443  0.2983  0.0328 -0.0600
  444SOL    HW1 1331   1.713   1.038   2.456 -1.6845 -0.9129  0.9354
  444SOL    HW2 1332   1.620   0.932   2.355 -0.5705 -0.6347 -0.5488
  445SOL     OW 1333   2.839   2.209   1.539  0.1671 -0.4203  0.3453
  445SOL    HW1 1334   2.780   2.179   1.619 -0.8493  0.9745  1.7528
  445SOL    HW2 1335   2.783   2.231   1.459 -0.9454  0.7521 -2.1138
  446SOL     OW 1336   0.014   1.202   0.527 -0.2232  0.4003 -0.0057
  446SOL    HW1 1337   0.032   1.101   0.548  0.3658 -2.9864  0.2183
  446SOL    HW2 1338   3.011   1.215   0.527  0.2863 -2.2951 -0.2654
  447SOL     OW 1339   0.738   2.332   0.711 -0.3708 -0.2818  0.3253
  447SOL    HW1 1340   0.692   2.390   0.783  1.3297 -0.1847 -1.1791
  447SOL    HW2 1341   0.680   2.250   0.704  0.7627  1.3432 -0.4011
  448SOL     OW 1342   1.468   1.581   1.518 -0.2106 -0.3629 -0.2479
  448SOL    HW1 1343   1.462   1.534   1.608 -0.8465 -1.7621  0.7991
  448SOL    HW2 1344   1.479   1.509   1.444  0.4374 -2.2374  0.3722
  449SOL     OW 1345   0.820   1.708   2.820  0.3555  0.4651 -0.1836
  449SOL    HW1 1346   0.897   1.772   2.799 -1.3789  0.6591  1.0942
  449SOL    HW2 1347   0.851   1.609   2.815  2.2539  0.4468  0.0438
  450SOL     OW 1348   2.740   2.191   2.106  0.7727 -0.1604  0.2655
  450SOL    HW1 1349   2.662   2.128   2.124 -0.4741  0.1335  0.9606
  450SOL    HW2 1350   2.792   2.168   2.021 -0.1149  2.2891  0.5767
  451SOL     OW 1351   1.846   0.556   1.642  0.1752 -0.2501  0.0597
  451SOL    HW1 1352   1.926   0.540   1.576  1.2218 -1.6539 -1.3004
  451SOL    HW2 1353   1.847   0.654   1.671  1.9832 -1.7021 -1.3960
  452SOL     OW 1354   0.751   2.699   1.245 -0.1963  0.5297  0.0561
  452SOL    HW1 1355   0.718   2.646   1.324  0.1382  1.6880  0.1959
  452SOL    HW2 1356   0.675   2.745   1.197 -1.8905 -0.1421 -3.4466
  453SOL     OW 1357   0.895   1.753   0.889  0.2916 -0.2730 -0.1658
  453SOL    HW1 1358   0.833   1.695   0.945 -0.6683 -0.3263 -1.5715
  453SOL    HW2 1359   0.891   1.851   0.915 -0.0638  0.1956  1.0833
  454SOL     OW 1360   0.021   0.944   0.631 -0.0686 -0.1790  0.0795
  454SOL    HW1 1361   3.069   0.853   0.642  0.4841 -1.4053  1.6009
  454SOL    HW2 1362   0.105   0.943   0.687  0.9823 -0.2452  0.7607
  455SOL     OW 1363   0.370   0.420   0.468  1.0051  0.0567 -0.3638
  455SOL    HW1 1364   0.276   0.405   0.506 -0.0125 -1.4544 -0.6908
  455SOL    HW2 1365   0.431   0.344   0.500  1.4736  0.2625 -1.2571
  456SOL     OW 1366   2.028   2.564   0.539 -0.3000 -0.2491 -0.2814
  456SOL    HW1 1367   2.078   2.633   0.594 -1.4920  0.4229  1.4683
  456SOL    HW2 1368   1.982   2.485   0.589 -1.6116 -3.1435 -2.0847
  457SOL     OW 1369   1.499   2.780   3.072 -0.0369 -0.5392  0.2784
  457SOL    HW1 1370   1.554   2.868   3.070  0.2419  0.6123 -1.2545
  457SOL    HW2 1371   1.520   2.728   2.988  0.2737  1.6098  1.2114
  458SOL     OW 1372   2.821   2.932   0.094 -0.0004 -0.1592  0.0165
  458SOL    HW1 1373   2.731   2.900   0.055  1.3801  2.2776 -2.2381
  458SOL    HW2 1374   2.887   2.942   0.012 -0.6510  0.4743 -1.0217
  459SOL     OW 1375   2.031   0.374   1.810 -0.0404  0.0851 -0.1045
  459SOL    HW1 1376   2.026   0.325   1.899 -1.7535 -1.1941  1.7625
  459SOL    HW2 1377   1.945   0.362   1.759 -0.6102 -1.4333 -0.0161
  460SOL     OW 1378   2.992   0.374   0.127 -0.5177 -0.0429 -0.0279
  460SOL    HW1 1379   3.070   0.415   0.072  0.6632  1.0228 -0.9116
  460SOL    HW2 1380   2.921   0.443   0.161  1.1099  1.0029 -0.6078
  461SOL     OW 1381   0.043   2.002   1.347  0.1750 -0.2630  0.2362
  461SOL    HW1 1382   0.015   1.983   1.248 -1.2411 -2.2235 -0.5508
  461SOL    HW2 1383   0.141   1.972   1.362  0.3020 -1.3894 -0.1696
  462SOL     OW 1384   3.020   0.030   0.944  0.0569 -0.8478  0.5319
  462SOL    HW1 1385   3.093   0.086   0.982 -0.8190  0.9772 -1.3089
  462SOL    HW2 1386   2.932   0.072   0.972  3.5467  1.1040 -0.3871
  463SOL     OW 1387   2.767   1.269   2.974  0.1062  0.0590  0.4010
  463SOL    HW1 1388   2.770   1.215   3.058 -3.3852 -1.2494 -2.9012
  463SOL    HW2 1389   2.862   1.263   2.932 -2.7456  0.4014 -2.1443
  464SOL     OW 1390   0.531   2.870   1.162 -0.0626  0.0047  0.5826
  464SOL    HW1 1391   0.524   2.954   1.101 -2.9843 -0.3361  0.3557
  464SOL    HW2 1392   0.527   2.904   1.256 -1.6285  0.7709 -2.5000
  465SOL     OW 1393   0.736   0.473   1.113  0.0163  0.3332 -0.1378
  465SOL    HW1 1394   0.829   0.458   1.144  0.1185  0.8954 -1.9174
  465SOL    HW2 1395   0.726   0.509   1.017 -1.8490  1.9688 -2.7061
  466SOL     OW 1396   1.524   2.196   2.256 -0.0465  0.5684  0.0706
  466SOL    HW1 1397   1.575   2.221   2.170  1.6764  2.3437 -0.2736
  466SOL    HW2 1398   1.583   2.236   2.331  0.3040  0.3535  0.8059
  467SOL     OW 1399   0.740   0.053   2.027  0.5365 -0.6683 -0.2777
  467SOL    HW1 1400   0.781   0.095   2.111  0.3861 -0.5347  2.5176
  467SOL    HW2 1401   0.799   3.072   1.997 -0.5199 -1.4192  2.0318
  468SOL     OW 1402   0.251   1.167   2.318 -0.2831 -0.1715 -0.0936
  468SOL    HW1 1403   0.310   1.175   2.238  1.1377  2.1021  1.7656
  468SOL    HW2 1404   0.285   1.238   2.380  1.3568  0.5984 -3.5585
  469SOL     OW 1405   0.872   2.464   0.490 -0.1039  0.4538  0.0285
  469SOL    HW1 1406   0.940   2.535   0.523 -2.1049 -1.7557 -1.2593
  469SOL    HW2 1407   0.852   2.398   0.570  1.5902 -1.2526 -0.1656
  470SOL     OW 1408   2.415   1.550   2.297  0.3352 -0.0900  0.3702
  470SOL    HW1 1409   2.350   1.579   2.222 -2.5646  1.3154 -0.4463
  470SOL    HW2 1410   2.371   1.537   2.386  1.5291  1.1969 -0.6986
  471SOL     OW 1411   1.218   2.673   2.837 -0.3736  0.9118  0.1018
  471SOL    HW1 1412   1.145   2.696   2.900 -0.3193  0.0164  0.6348
  471SOL    HW2 1413   1.286   2.748   2.832 -0.1524  1.1520 -1.5324
  472SOL     OW 1414   0.366   2.549   1.835  0.5750 -0.4454  0.3371
  472SOL    HW1 1415   0.297   2.532   1.906  0.0977 -0.8100  2.2542
  472SOL    HW2 1416   0.319   2.572   1.747  0.5500  2.3475 -0.2945
  473SOL     OW 1417   0.845   3.062   3.025 -0.3463 -0.3388  0.3911
  473SOL    HW1 1418   0.880   3.076   2.930  1.6423 -0.4284  1.8458
  473SOL    HW2 1419   0.755   0.014   3.031  0.6817  2.2877 -1.4085
  474SOL     OW 1420   1.620   0.074   0.913 -0.1114  0.2925  0.0470
  474SOL    HW1 1421   1.670   0.080   0.824 -1.2155  0.3799  1.3868
  474SOL    HW2 1422   1.683   0.108   0.984  1.0525 -2.2168 -1.2269
  475SOL     OW 1423   1.433   0.291   1.249  0.1888 -0.4618 -0.3598
  475SOL    HW1 1424   1.431   0.249   1.154 -0.6859  1.9744 -2.5276
  475SOL    HW2 1425   1.428   0.391   1.262 -0.7163 -0.3240  1.9312
  476SOL     OW 1426   0.510   0.984   0.933 -0.6341 -0.4238 -0.5396
  476SOL    HW1 1427   0.459   1.074   0.945  2.2168  0.5302 -0.0543
  476SOL    HW2 1428   0.605   1.000   0.903 -1.3899 -0.8661 -1.3791
  477SOL     OW 1429   1.237   2.524   0.724  0.4140  0.2535  0.4012
  477SOL    HW1 1430   1.192   2.576   0.648 -0.0669 -1.1180 -1.3244
  477SOL    HW2 1431   1.217   2.559   0.822  0.8701 -0.2062 -0.4944
  478SOL     OW 1432   0.004   2.746   2.355  0.2576 -0.7329 -0.0421
  478SOL    HW1 1433   0.007   2.754   2.458 -0.8732  0.2352  1.1244
  478SOL    HW2 1434   0.089   2.779   2.319 -2.0461  1.5519  2.0186
  479SOL     OW 1435   2.805   0.528   1.185 -0.3867  0.2411  0.3343
  479SOL    HW1 1436   2.873   0.456   1.215  0.1886  0.7719 -0.1877
  479SOL    HW2 1437   2.855   0.597   1.134  1.5407 -1.7573  1.7283
  480SOL     OW 1438   0.043   2.366   0.031 -0.1982  0.3535 -0.5989
  480SOL    HW1 1439   0.078   2.285   0.082 -0.4691 -1.3827  0.2153
  480SOL    HW2 1440   3.076   2.336   3.051 -0.4302  0.1760  0.3369
  481SOL     OW 1441   2.488   1.868   1.880  0.2281 -0.5663  0.5035
  481SOL    HW1 1442   2.391   1.882   1.848  5.7401 -1.7241 -0.3650
  481SOL    HW2 1443   2.506   1.924   1.961 -0.4784 -1.1944 -1.3256
  482SOL     OW 1444   1.619   2.105   2.627  0.2735  0.5934  0.2034
  482SOL    HW1 1445   1.662   2.177   2.571 -2.2233 -1.1850  0.5585
  482SOL    HW2 1446   1.525   2.072   2.595 -1.9724  0.4939 -0.5800
  483SOL     OW 1447   0.789   1.567   1.518  0.0930  0.1824  0.1027
  483SOL    HW1 1448   0.770   1.652   1.458 -0.9447  1.1524  3.0186
  483SOL    HW2 1449   0.737   1.487   1.485  1.3363  2.4676 -0.4046
  484SOL     OW 1450   0.496   0.433   1.522  0.8791  0.4149 -0.3609
  484SOL    HW1 1451   0.545   0.509   1.562 -0.3220 -4.1130 -1.8966
  484SOL    HW2 1452   0.472   0.452   1.420 -2.1543  0.8670 -3.5631
  485SOL     OW 1453   2.286   1.198   2.931  0.3568  0.3254 -0.1505
  485SOL    HW1 1454   2.209   1.140   2.963  1.0155  0.2063 -1.1629
  485SOL    HW2 1455   2.374   1.145   2.940  0.9422 -0.2922  1.6572
  486SOL     OW 1456   1.374   2.913   1.683 -0.3745 -0.6290 -0.6660
  486SOL    HW1 1457   1.402   3.004   1.656  0.5199 -0.2330 -0.3949
  486SOL    HW2 1458   1.301   2.879   1.621 -0.4058  1.0287 -0.2715
  487SOL     OW 1459   0.394   2.236   1.596 -0.3236 -0.2044  0.0853
  487SOL    HW1 1460   0.455   2.276   1.667 -1.3834  0.8765 -2.1216
  487SOL    HW2 1461   0.430   2.151   1.559 -1.6615 -2.5420 -0.6305
  488SOL     OW 1462   2.486   2.139   2.718  0.3265  0.4263 -0.4576
  488SOL    HW1 1463   2.426   2.122   2.802 -0.5331  1.6402  4.7424
  488SOL    HW2 1464   2.575   2.176   2.757  2.3585 -1.0725  1.8838
  489SOL     OW 1465   2.164   0.029   0.635 -0.2735 -0.5424  0.7877
  489SOL    HW1 1466   2.217   3.040   0.648 -0.3038 -1.5695  1.3383
  489SOL    HW2 1467   2.224   0.113   0.633 -2.0013  2.3158  0.6374
  490SOL     OW 1468   1.228   2.241   2.779  0.3586 -0.2891  0.2309
  490SOL    HW1 1469   1.208   2.180   2.702 -1.9166  1.2544  0.3598
  490SOL    HW2 1470   1.254   2.193   2.864  0.9228  1.0298 -0.5353
  491SOL     OW 1471   0.369   1.508   1.510  0.1841  0.4898  0.4564
  491SOL    HW1 1472   0.453   1.452   1.524 -0.5310 -2.3017 -1.1144
  491SOL    HW2 1473   0.381   1.604   1.538 -0.5406  2.1556 -1.5253
  492SOL     OW 1474   1.325   1.195   1.935  0.1694  0.5190  0.2103
  492SOL    HW1 1475   1.264   1.147   1.865 -0.2894  0.1092 -2.2794
  492SOL    HW2 1476   1.311   1.292   1.929 -0.4014 -1.5244  1.4991
  493SOL     OW 1477   2.443   1.832   0.889  0.0783  0.1402 -0.8496
  493SOL    HW1 1478   2.379   1.752   0.905 -0.9708 -2.2315  0.4380
  493SOL    HW2 1479   2.507   1.840   0.969  0.8082  3.1385 -0.7729
  494SOL     OW 1480   0.404   1.786   1.104  0.0718  0.6789 -0.5093
  494SOL    HW1 1481   0.445   1.694   1.079 -1.0300  1.5095  1.4043
  494SOL    HW2 1482   0.334   1.810   1.035 -1.2402  1.7520 -1.3657
  495SOL     OW 1483   2.364   2.845   0.951 -0.2425 -0.1204  0.4590
  495SOL    HW1 1484   2.406   2.810   0.863  1.7423 -1.2563  0.8506
  495SOL    HW2 1485   2.349   2.759   1.003  1.2970  2.1467  0.1389
  496SOL     OW 1486   2.504   0.027   1.563 -0.4347 -0.5810 -0.2621
  496SOL    HW1 1487   2.590   0.082   1.561  0.9667  2.3218  0.4122
  496SOL    HW2 1488   2.430   0.071   1.610  3.3892 -1.9103 -1.6300
  497SOL     OW 1489   2.412   0.979   2.552  0.0740  0.2005  0.6811
  497SOL    HW1 1490   2.502   1.031   2.549  4.5463 -0.1825 -0.0010
  497SOL    HW2 1491   2.332   1.039   2.522 -2.3453 -0.5889  0.9323
  498SOL     OW 1492   0.002   2.254   1.424  0.4495  0.4947  0.5552
  498SOL    HW1 1493   0.026   2.155   1.411  1.4053 -0.8393  2.1336
  498SOL    HW2 1494   3.007   2.259   1.474 -1.7860 -0.7795 -0.0124
  499SOL     OW 1495   0.960   2.284   2.006 -0.1318 -0.1461  0.1049
  499SOL    HW1 1496   0.871   2.314   2.056 -3.4616  1.8507 -0.1402
  499SOL    HW2 1497   1.006   2.371   1.980 -1.3303  0.6531  0.1778
  500SOL     OW 1498   1.289   2.176   0.398  0.0882  0.2284 -0.3076
  500SOL    HW1 1499   1.217   2.246   0.374  1.3448  1.5216 -1.2430
  500SOL    HW2 1500   1.289   2.097   0.331  1.6699 -1.1963 -2.2618
  501SOL     OW 1501   1.749   2.996   1.473  0.0927  0.3574 -0.0900
  501SOL    HW1 1502   1.668   3.028   1.418 -0.6043 -3.2891 -1.6247
  501SOL    HW2 1503   1.724   2.906   1.512  0.6134  0.9849  0.6954
  502SOL     OW 1504   2.442   0.717   1.843  0.2202  0.0996 -0.1034
  502SOL    HW1 1505   2.352   0.668   1.842 -0.8704  0.1082 -0.8370
  502SOL    HW2 1506   2.519   0.666   1.884  0.9981  0.8366  2.2347
  503SOL     OW 1507   2.648   1.215   2.316  0.4598 -0.4458  0.3240
  503SOL    HW1 1508   2.720   1.284   2.309  0.8626 -2.9434 -1.0405
  503SOL    HW2 1509   2.579   1.239   2.245 -0.2352  1.2484  2.8180
  504SOL     OW 1510   1.599   0.953   1.272 -0.0155  0.3638 -0.0983
  504SOL    HW1 1511   1.551   0.892   1.338 -1.2895 -0.7650 -1.2252
  504SOL    HW2 1512   1.596   0.913   1.181  0.0444  0.3179 -0.4373
  505SOL     OW 1513   0.537   2.974   1.412 -0.1950 -0.1507  0.6396
  505SOL    HW1 1514   0.637   2.993   1.423  0.9988 -1.8152  2.0447
  505SOL    HW2 1515   0.475   3.053   1.429 -1.2761 -0.7270 -1.8889
  506SOL     OW 1516   0.027   0.156   0.208 -1.0169 -0.3457  0.0424
  506SOL    HW1 1517   3.073   0.244   0.190  2.2076 -2.5296  0.6923
  506SOL    HW2 1518   0.122   0.172   0.173  2.2511  1.3442 -1.1650
  507SOL     OW 1519   2.595   2.572   3.066 -0.1910 -0.4738  0.2013
  507SOL    HW1 1520   2.593   2.526   2.981  1.7995  0.7963  1.3381
  507SOL    HW2 1521   2.673   2.541   0.023 -1.2870 -0.2696 -0.3144
  508SOL     OW 1522   0.988   0.273   2.036 -0.0964  0.1700  0.3145
  508SOL    HW1 1523   1.016   0.298   1.940  1.2931  0.5186  0.6595
  508SOL    HW2 1524   1.055   0.208   2.079  2.4003  1.9840  2.3635
  509SOL     OW 1525   1.684   1.867   1.210  0.0558  0.1243  0.0724
  509SOL    HW1 1526   1.655   1.876   1.306 -0.3818 -0.4083 -0.6865
  509SOL    HW2 1527   1.607   1.901   1.151  0.0850 -0.2792 -0.3242
  510SOL     OW 1528   2.578   0.860   1.307  0.0470 -0.4423 -0.5627
  510SOL    HW1 1529   2.622   0.816   1.386  2.9751  2.4444 -2.3730
  510SOL    HW2 1530   2.478   0.880   1.313  1.0021 -0.3690  2.1622
  511SOL     OW 1531   1.345   2.026   1.275  0.1707  0.0191  0.0511
  511SOL    HW1 1532   1.408   2.076   1.333  1.3647 -0.6202 -1.6605
  511SOL    HW2 1533   1.313   1.936   1.314 -2.8929 -1.9047 -0.9993
  512SOL     OW 1534   2.791   1.440   0.701 -0.0796 -0.3472 -0.6431
  512SOL    HW1 1535   2.860   1.469   0.773  2.3852  0.6450 -1.1564
  512SOL    HW2 1536   2.770   1.520   0.636 -2.5907  4.4170 -1.2802
  513SOL     OW 1537   0.060   1.525   0.094  0.0642 -0.1165 -0.0228
  513SOL    HW1 1538   0.034   1.529   3.093  1.4050 -1.3146  1.2599
  513SOL    HW2 1539   3.085   1.469   0.144 -0.4837  1.9417  0.5429
  514SOL     OW 1540   2.518   1.987   2.124  0.5883  0.3257 -0.0337
  514SOL    HW1 1541   2.449   1.947   2.192 -2.1455 -0.1820 -0.8131
  514SOL    HW2 1542   2.483   2.074   2.075  1.6339 -0.4284  2.8195
  515SOL     OW 1543   2.197   0.994   0.707 -0.3956  0.5558  0.1444
  515SOL    HW1 1544   2.150   0.901   0.698  3.9934  0.2600 -0.0703
  515SOL    HW2 1545   2.205   1.032   0.612 -2.0915 -1.3328 -1.4645
  516SOL     OW 1546   2.344   2.901   0.152  0.2681 -0.3126  0.4467
  516SOL    HW1 1547   2.358   2.958   0.070 -1.1397  1.1522 -2.9325
  516SOL    HW2 1548   2.292   2.816   0.129  1.2283  1.2211 -3.0708
  517SOL     OW 1549   0.931   1.539   2.580  0.3805  0.4845 -0.2854
  517SOL    HW1 1550   0.967   1.453   2.531  1.4832 -2.0931 -0.4281
  517SOL    HW2 1551   0.966   1.625   2.530  0.6176  0.2640 -2.1502
  518SOL     OW 1552   0.235   0.234   2.053  0.3537  0.2529  0.3797
  518SOL    HW1 1553   0.233   0.131   2.067 -0.1767 -0.8678  1.1748
  518SOL    HW2 1554   0.156   0.271   2.101  1.0362 -0.0529  2.7166
  519SOL     OW 1555   0.758   1.160   0.062  0.2464  0.1294  0.3043
  519SOL    HW1 1556   0.828   1.183   3.084 -0.9123  1.0265  1.9437
  519SOL    HW2 1557   0.768   1.212   0.148 -0.8106  0.0945  0.8409
  520SOL     OW 1558   2.881   2.428   1.995  0.2884  0.4919  0.2020
  520SOL    HW1 1559   2.842   2.341   2.033 -0.1131  2.7719  1.8769
  520SOL    HW2 1560   2.926   2.490   2.063 -0.3089 -0.9922 -1.7373
  521SOL     OW 1561   0.595   2.101   2.173  0.0380 -0.0262 -0.1088
  521SOL    HW1 1562   0.669   2.031   2.183  1.2013 -0.1846  0.4077
  521SOL    HW2 1563   0.571   2.110   2.074 -0.7584 -0.3959 -0.3764
  522SOL     OW 1564   1.656   2.829   1.867 -0.6088  0.1662  0.4400
  522SOL    HW1 1565   1.694   2.778   1.940 -1.2811  1.7075 -2.1640
  522SOL    HW2 1566   1.560   2.846   1.895 -0.8021  0.2020 -1.8878
  523SOL     OW 1567   2.032   2.043   1.593 -0.2429 -0.0723 -0.2625
  523SOL    HW1 1568   2.132   2.025   1.596  1.7866  0.2241 -2.4133
  523SOL    HW2 1569   1.979   1.968   1.553 -1.3164  4.0103 -0.6272
  524SOL     OW 1570   0.700   2.775   0.428  0.1543  0.7920 -0.9015
  524SOL    HW1 1571   0.612   2.745   0.392  3.6056 -3.2244  2.5584
  524SOL    HW2 1572   0.695   2.782   0.531  2.4681  2.2709  2.3425
  525SOL     OW 1573   0.061   0.183   0.482  0.1905 -0.0748 -0.0426
  525SOL    HW1 1574   0.031   0.170   0.384 -0.8904 -0.2194 -1.8214
  525SOL    HW2 1575   0.021   0.112   0.546 -0.2253 -2.1562  1.6850
  526SOL     OW 1576   1.076   3.092   0.494 -0.2576  0.2729 -0.2552
  526SOL    HW1 1577   0.981   3.060   0.461 -1.5270 -4.0733 -0.5474
  526SOL    HW2 1578   1.095   3.049   0.590  0.2158 -0.9492  2.0052
  527SOL     OW 1579   1.868   1.717   1.108  0.1236 -0.0649  0.4346
  527SOL    HW1 1580   1.928   1.656   1.165  3.3855 -0.2408  0.3601
  527SOL    HW2 1581   1.792   1.764   1.161 -4.0517  0.1422  0.0472
  528SOL     OW 1582   2.740   2.607   2.429 -0.2488 -0.4002  0.6378
  528SOL    HW1 1583   2.644   2.590   2.396 -0.3372  0.4104 -0.7208
  528SOL    HW2 1584   2.783   2.686   2.377 -2.4897  0.2650 -0.0487
  529SOL     OW 1585   1.337   1.627   2.327 -0.0233 -0.1031 -0.0826
  529SOL    HW1 1586   1.239   1.659   2.325 -0.2858  1.2598 -0.4049
  529SOL    HW2 1587   1.381   1.672   2.408 -1.1625  0.1976 -1.8872
  530SOL     OW 1588   1.501   0.983   0.011  0.2774  0.3739 -0.1784
  530SOL    HW1 1589   1.597   1.016   3.090  1.6906 -1.4251  0.5593
  530SOL    HW2 1590   1.435   1.023   3.034 -2.3990  1.1662 -0.0864
  531SOL     OW 1591   0.317   0.986   3.079  0.0424  0.2356  0.3634
  531SOL    HW1 1592   0.366   0.949   2.994  4.7475  1.0450 -1.2988
  531SOL    HW2 1593   0.232   1.037   3.052 -2.5114  1.2155  0.7391
  532SOL     OW 1594   1.769   1.312   0.708  0.1747 -0.0797  0.3791
  532SOL    HW1 1595   1.837   1.236   0.703  2.8581 -0.3692 -0.7845
  532SOL    HW2 1596   1.718   1.330   0.622 -0.0447  0.6945 -0.8958
  533SOL     OW 1597   0.518   0.153   2.417  0.9202 -0.1735 -0.2297
  533SOL    HW1 1598   0.459   0.234   2.427  0.6829 -2.5257  1.5179
  533SOL    HW2 1599   0.515   0.101   2.502  4.0899  1.5750 -3.2667
  534SOL     OW 1600   0.816   2.804   3.064  0.7269 -0.4095 -0.5961
  534SOL    HW1 1601   0.892   2.754   0.019  3.1821 -0.3856 -1.8237
  534SOL    HW2 1602   0.839   2.904   3.060  2.1600 -1.1865  1.4792
  535SOL     OW 1603   0.266   0.254   0.104  0.0299  0.5328  0.5733
  535SOL    HW1 1604   0.285   0.350   0.120 -1.7947  0.7693  2.2124
  535SOL    HW2 1605   0.249   0.247   0.002  0.9126  0.8277 -0.4543
  536SOL     OW 1606   0.208   0.909   2.279  0.2081 -0.7245  0.4840
  536SOL    HW1 1607   0.244   1.002   2.294 -0.0462  1.1371 -0.3825
  536SOL    HW2 1608   0.283   0.844   2.295 -1.4822  0.4097 -0.0384
  537SOL     OW 1609   0.904   0.325   1.550 -0.1255 -0.3614  0.1624
  537SOL    HW1 1610   0.818   0.282   1.579 -2.1804  3.1046 -1.2695
  537SOL    HW2 1611   0.882   0.395   1.478  0.8114 -2.0038  0.1588
  538SOL     OW 1612   0.814   1.933   0.156 -0.5357 -0.2502  0.0846
  538SOL    HW1 1613   0.881   1.998   0.112  2.2435  0.1046  0.3196
  538SOL    HW2 1614   0.858   1.866   0.218  0.1530 -0.1881  1.9952
  539SOL     OW 1615   2.473   1.232   1.801 -0.4704  0.7235  0.1155
  539SOL    HW1 1616   2.467   1.175   1.718  1.7530  0.9055  1.8396
  539SOL    HW2 1617   2.492   1.330   1.770  1.2057 -0.2044 -0.3630
  540SOL     OW 1618   2.079   1.624   1.898  0.0243  0.1327 -0.2327
  540SOL    HW1 1619   2.057   1.526   1.919 -2.6055 -1.6415 -1.1190
  540SOL    HW2 1620   2.036   1.684   1.964  1.6849 -3.5555 -0.7674
  541SOL     OW 1621   0.702   1.332   1.441  0.2749  0.0209  0.3407
  541SOL    HW1 1622   0.791   1.278   1.433  1.8076 -2.1019 -2.3919
  541SOL    HW2 1623   0.649   1.310   1.357 -0.4938 -1.5626  0.2508
  542SOL     OW 1624   1.612   0.591   2.122  0.0728  0.0158  0.5243
  542SOL    HW1 1625   1.712   0.585   2.125 -3.3296  3.0762 -0.7418
  542SOL    HW2 1626   1.571   0.572   2.030 -1.1084  0.3023  1.8046
  543SOL     OW 1627   1.136   0.536   0.269 -0.0715 -0.0887 -0.0690
  543SOL    HW1 1628   1.218   0.498   0.315  1.2192  0.4193 -0.7743
  543SOL    HW2 1629   1.054   0.549   0.328  2.8447  0.9397 -0.9176
  544SOL     OW 1630   2.934   1.745   2.099 -0.0956 -0.1264 -0.0513
  544SOL    HW1 1631   2.850   1.792   2.132  1.9686  0.2659  1.1247
  544SOL    HW2 1632   2.998   1.739   2.183  1.4064  0.0976  1.6556
  545SOL     OW 1633   1.766   2.130   1.679  0.6474  0.3973 -0.0437
  545SOL    HW1 1634   1.867   2.137   1.654  1.3998  1.0914 -1.8606
  545SOL    HW2 1635   1.725   2.222   1.675 -1.5231 -1.4676  1.5857
  546SOL     OW 1636   0.330   0.047   2.958 -0.3697  0.1051  0.3187
  546SOL    HW1 1637   0.326   0.135   2.906  0.0702  1.6939  0.2164
  546SOL    HW2 1638   0.284   3.058   2.917  1.8648  1.0970 -0.1645
  547SOL     OW 1639   2.189   0.866   0.341  0.5843  0.0935 -0.0210
  547SOL    HW1 1640   2.214   0.911   0.251 -0.7243 -1.3651 -0.7016
  547SOL    HW2 1641   2.165   0.940   0.404  0.3159 -0.6828 -1.1061
  548SOL     OW 1642   2.267   1.773   2.505  0.8272  0.4424  0.2614
  548SOL    HW1 1643   2.171   1.739   2.492  0.1849 -0.4863 -2.3670
  548SOL    HW2 1644   2.316   1.687   2.533 -2.7900 -3.4559  0.1068
  549SOL     OW 1645   1.999   0.408   0.728  0.4711  0.2006 -0.7076
  549SOL    HW1 1646   2.066   0.335   0.701  1.8036 -2.0366 -0.3023
  549SOL    HW2 1647   1.905   0.376   0.706 -0.6082 -4.0979  1.3815
  550SOL     OW 1648   2.471   2.199   0.926  0.6908 -0.3390  1.0953
  550SOL    HW1 1649   2.520   2.166   1.006 -0.2744  0.7626 -1.6436
  550SOL    HW2 1650   2.387   2.149   0.904 -1.0226  0.4115 -0.6727
  551SOL     OW 1651   1.013   0.429   1.784  0.0752  0.3230 -0.2747
  551SOL    HW1 1652   1.001   0.365   1.705 -0.8472  0.2141 -1.9666
  551SOL    HW2 1653   0.931   0.484   1.796  2.0389 -0.7687  0.1546
  552SOL     OW 1654   0.276   2.551   2.578 -0.0697  0.9923 -0.0156
  552SOL    HW1 1655   0.273   2.453   2.550  0.6934  1.6995 -0.7881
  552SOL    HW2 1656   0.291   2.567   2.676  1.1384 -0.4349 -1.8670
  553SOL     OW 1657   0.825   3.017   0.441  0.6453  0.2020  0.3243
  553SOL    HW1 1658   0.764   3.084   0.398 -0.0021  3.3643 -0.4610
  553SOL    HW2 1659   0.782   2.925   0.438 -0.3395  0.2972 -0.3121
  554SOL     OW 1660   2.034   2.287   1.735 -0.4349 -0.7033 -0.2800
  554SOL    HW1 1661   2.060   2.191   1.724 -1.2552  0.0153 -3.0216
  554SOL    HW2 1662   2.007   2.328   1.647  0.8732  0.7795  2.8420
  555SOL     OW 1663   1.535   2.115   1.891  0.3405 -0.4759  0.4766
  555SOL    HW1 1664   1.565   2.027   1.928 -0.9267  0.3112  0.1472
  555SOL    HW2 1665   1.593   2.186   1.930  0.5013 -1.4294  2.7497
  556SOL     OW 1666   1.436   1.624   1.119  0.8789 -0.3344  0.2035
  556SOL    HW1 1667   1.358   1.673   1.074  1.7840 -2.7458 -0.6623
  556SOL    HW2 1668   1.503   1.612   1.047 -1.5092  3.7148 -0.5924
  557SOL     OW 1669   1.948   2.257   1.995 -0.6259  0.0818 -0.0158
  557SOL    HW1 1670   1.965   2.273   1.900 -2.1569 -0.5763 -1.6405
  557SOL    HW2 1671   2.022   2.307   2.046 -0.3492  1.1468  1.9087
  558SOL     OW 1672   0.359   0.429   1.910  0.0915 -0.3052 -0.0673
  558SOL    HW1 1673   0.307   0.382   1.978  1.1355  1.0742 -1.1013
  558SOL    HW2 1674   0.391   0.520   1.940 -1.7785 -2.8231  1.8389
  559SOL     OW 1675   2.374   2.993   1.367  0.3057 -0.1482  0.5725
  559SOL    HW1 1676   2.407   3.033   1.457 -0.2950 -0.3614  1.0149
  559SOL    HW2 1677   2.282   3.032   1.352 -0.4990  2.6051 -0.9625
  560SOL     OW 1678   1.090   2.364   0.348 -0.6373 -0.3717  0.4173
  560SOL    HW1 1679   1.003   2.388   0.396  4.0207 -3.1918  0.7821
  560SOL    HW2 1680   1.154   2.443   0.334 -0.2669 -1.3001  0.7044
  561SOL     OW 1681   1.126   0.332   0.057 -0.3310 -0.4617 -0.6059
  561SOL    HW1 1682   1.183   0.347   3.071 -0.2219 -2.1704  0.3960
  561SOL    HW2 1683   1.166   0.382   0.133  0.8926  2.0850  0.9890
  562SOL     OW 1684   0.825   0.400   2.810 -0.1163  0.5034  0.3095
  562SOL    HW1 1685   0.887   0.353   2.747 -2.1026  1.2434  2.5146
  562SOL    HW2 1686   0.858   0.496   2.824 -0.1990 -1.2672  0.8201
  563SOL     OW 1687   1.657   1.900   2.808  0.0508  0.3385  0.7164
  563SOL    HW1 1688   1.753   1.894   2.840 -1.2583 -0.4044 -0.1597
  563SOL    HW2 1689   1.655   1.974   2.736  0.1805  2.9969 -3.2447
  564SOL     OW 1690   2.936   1.055   0.840 -0.4007 -0.5281  0.2111
  564SOL    HW1 1691   2.875   0.974   0.841 -1.3191  2.0790  0.1252
  564SOL    HW2 1692   3.011   1.056   0.771  0.2727 -1.9543  0.7395
  565SOL     OW 1693   1.340   0.306   2.534 -0.4146 -0.5454  0.6845
  565SOL    HW1 1694   1.337   0.265   2.625 -0.0164 -3.2576  0.9196
  565SOL    HW2 1695   1.350   0.404   2.541  1.4536 -1.1874  2.1449
  566SOL     OW 1696   1.330   0.350   2.250  0.2132  0.0341 -0.2983
  566SOL    HW1 1697   1.328   0.341   2.354 -0.4940 -0.2839  2.2575
  566SOL    HW2 1698   1.353   0.257   2.205 -2.1216 -1.6459 -2.5512
  567SOL     OW 1699   2.585   1.267   0.707 -0.2881  0.1118  0.0306
  567SOL    HW1 1700   2.622   1.216   0.787  1.4254  3.4563 -2.1336
  567SOL    HW2 1701   2.639   1.356   0.693  3.5959  0.5708 -0.7911
  568SOL     OW 1702   1.686   2.087   0.588  0.2875  0.4476  0.3168
  568SOL    HW1 1703   1.758   2.086   0.519  1.0826  0.4224  3.1103
  568SOL    HW2 1704   1.646   1.993   0.596  0.4718  0.7673  0.4536
  569SOL     OW 1705   2.098   1.648   2.859 -0.3544  0.1482  0.0936
  569SOL    HW1 1706   2.096   1.578   2.784 -0.1480  2.2858  0.3734
  569SOL    HW2 1707   2.148   1.730   2.828 -2.2103 -3.2994  0.6302
  570SOL     OW 1708   3.063   2.992   1.590  0.1439 -0.1955 -0.0669
  570SOL    HW1 1709   3.044   3.043   1.507  0.1185 -2.7361  2.3406
  570SOL    HW2 1710   3.059   3.059   1.668 -1.1647 -0.6542  3.0547
  571SOL     OW 1711   0.126   0.230   2.408  0.2046 -0.0472  0.1555
  571SOL    HW1 1712   0.066   0.310   2.401  1.0658  0.2514 -0.2867
  571SOL    HW2 1713   0.220   0.268   2.426 -0.1661 -1.3497 -1.6903
  572SOL     OW 1714   0.786   1.440   0.620 -0.1548  0.5518 -0.2927
  572SOL    HW1 1715   0.723   1.439   0.536  0.4375 -0.2277 -0.9874
  572SOL    HW2 1716   0.842   1.524   0.614 -1.2384  1.2089 -1.2973
  573SOL     OW 1717   1.262   2.441   0.079  0.0188 -0.4141 -0.1081
  573SOL    HW1 1718   1.324   2.483   0.013 -2.6022  0.0592 -0.6941
  573SOL    HW2 1719   1.265   2.510   0.155 -3.2276 -0.3922 -1.9670
  574SOL     OW 1720   0.967   0.171   0.883  0.1408  0.0948  0.4667
  574SOL    HW1 1721   0.957   0.164   0.982  0.2129  1.5620 -1.3218
  574SOL    HW2 1722   0.986   0.077   0.844 -3.4858 -1.5566 -1.3329
  575SOL     OW 1723   3.088   1.009   1.621  0.3221  0.3448  0.0937
  575SOL    HW1 1724   3.001   0.991   1.580 -0.1463 -0.0267  3.4312
  575SOL    HW2 1725   3.088   1.095   1.666  0.6308 -3.0387  0.9214
  576SOL     OW 1726   1.576   0.231   1.470 -0.2384 -0.0897  0.5710
  576SOL    HW1 1727   1.669   0.190   1.441 -0.4606 -0.6410 -0.8654
  576SOL    HW2 1728   1.521   0.230   1.382  0.0990  0.5672  0.1348
  577SOL     OW 1729   0.050   1.291   2.081  0.1312  0.5883  0.4287
  577SOL    HW1 1730   3.095   1.203   2.080  1.2716 -1.9070 -0.9781
  577SOL    HW2 1731   0.148   1.262   2.076 -0.8792  1.8713 -0.9742
  578SOL     OW 1732   1.847   0.004   2.379  0.3370 -0.0921 -0.1252
  578SOL    HW1 1733   1.814   0.101   2.382 -1.3247 -0.6211 -1.3189
  578SOL    HW2 1734   1.839   3.057   2.473 -0.7136 -2.4688  3.3998
  579SOL     OW 1735   2.069   2.030   1.930 -0.2330 -0.1299 -0.1796
  579SOL    HW1 1736   2.090   1.991   2.022 -0.4772 -0.0945  0.4061
  579SOL    HW2 1737   2.001   2.106   1.943  0.2401 -0.2349  0.6406
  580SOL     OW 1738   2.066   1.611   2.356 -0.3058 -0.2061  0.6152
  580SOL    HW1 1739   2.046   1.659   2.268 -0.8925  0.3442 -0.1615
  580SOL    HW2 1740   2.085   1.507   2.351 -0.1412 -5.0306  1.8542
  581SOL     OW 1741   1.391   1.024   2.871  0.2504  0.0132  0.3635
  581SOL    HW1 1742   1.368   0.933   2.823  0.9741 -1.4013  0.3163
  581SOL    HW2 1743   1.472   1.066   2.825  0.8317 -0.4333 -0.0452
  582SOL     OW 1744   0.847   2.147   1.351  0.9957  0.1790  0.8297
  582SOL    HW1 1745   0.793   2.077   1.399  3.0693 -0.2506 -0.3051
  582SOL    HW2 1746   0.915   2.104   1.286 -1.4469 -2.4810 -0.3851
  583SOL     OW 1747   1.297   1.216   1.181 -0.3798  0.5721  0.0786
  583SOL    HW1 1748   1.257   1.121   1.167 -0.1535 -1.7087 -2.6003
  583SOL    HW2 1749   1.351   1.251   1.100  2.0266 -0.6864 -0.8128
  584SOL     OW 1750   1.483   2.471   0.737 -0.0171  0.0638  0.0783
  584SOL    HW1 1751   1.513   2.411   0.659  1.3706 -0.5456 -1.1613
  584SOL    HW2 1752   1.381   2.492   0.724 -0.4916 -0.1316 -0.5883
  585SOL     OW 1753   2.331   2.506   0.084  0.5029  0.1223 -0.1533
  585SOL    HW1 1754   2.425   2.537   0.049  1.7742  3.8344  2.0761
  585SOL    HW2 1755   2.266   2.583   0.064  3.9534  0.9552 -0.9889
  586SOL     OW 1756   2.748   1.996   0.551 -1.0680  0.0461 -0.5908
  586SOL    HW1 1757   2.687   1.917   0.568 -2.9791 -0.1253 -1.2366
  586SOL    HW2 1758   2.727   2.076   0.608 -1.9822  0.3836 -3.1601
  587SOL     OW 1759   1.145   1.585   3.018 -0.6285  0.3405 -0.2652
  587SOL    HW1 1760   1.236   1.539   3.004  0.8176  1.7110 -0.2297
  587SOL    HW2 1761   1.075   1.516   3.043  0.7366 -3.3325  1.0163
  588SOL     OW 1762   0.524   0.204   1.161  0.1041  0.3423  0.1991
  588SOL    HW1 1763   0.582   0.162   1.228 -1.0152 -0.5294 -0.1738
  588SOL    HW2 1764   0.522   0.304   1.177 -3.3171 -0.3262  0.6519
  589SOL     OW 1765   1.093   0.503   0.557  0.1847  0.0705  0.2383
  589SOL    HW1 1766   1.073   0.430   0.486 -1.7816  0.3090 -1.4197
  589SOL    HW2 1767   1.070   0.466   0.652 -0.0432 -1.0037 -0.3768
  590SOL     OW 1768   2.183   2.287   0.056 -0.0959  0.4498  0.3667
  590SOL    HW1 1769   2.108   2.303   0.123  0.1052  1.1228 -2.0715
  590SOL    HW2 1770   2.266   2.343   0.085  3.2534  0.7040 -1.3196
  591SOL     OW 1771   0.236   2.792   2.208  0.3836  0.1471  0.1675
  591SOL    HW1 1772   0.258   2.879   2.163  0.2528 -2.8511  1.9655
  591SOL    HW2 1773   0.220   2.721   2.135 -1.4210 -0.2245 -0.5084
  592SOL     OW 1774   3.073   1.492   2.248  0.3087  0.6265 -0.0731
  592SOL    HW1 1775   0.005   1.408   2.194  0.8758 -2.5212  0.9906
  592SOL    HW2 1776   0.023   1.571   2.209  1.7024 -2.7271  1.9433
  593SOL     OW 1777   1.840   1.416   1.105  0.0259  0.1847 -0.3839
  593SOL    HW1 1778   1.905   1.461   1.170 -2.1581 -0.9059 -1.7459
  593SOL    HW2 1779   1.798   1.334   1.149 -1.1912  2.4170 -0.6024
  594SOL     OW 1780   0.130   1.319   2.763  0.2999  0.0061 -0.3456
  594SOL    HW1 1781   0.216   1.361   2.790 -3.7376 -0.1035 -0.9271
  594SOL    HW2 1782   0.149   1.231   2.714  1.1702 -0.3460  1.0676
  595SOL     OW 1783   0.778   1.005   0.811 -0.0618  0.2541  0.1935
  595SOL    HW1 1784   0.742   0.982   0.722  2.3948 -0.7079  5.2017
  595SOL    HW2 1785   0.852   1.073   0.807  1.4320 -1.1670 -0.3593
  596SOL     OW 1786   2.956   1.342   1.319 -0.4817 -0.6508 -0.1725
  596SOL    HW1 1787   2.963   1.313   1.223 -1.5871  0.0401 -1.1133
  596SOL    HW2 1788   3.046   1.378   1.355  0.2464  0.2266  1.6089
  597SOL     OW 1789   0.978   2.274   1.571  0.0400  0.4329  0.6169
  597SOL    HW1 1790   0.919   2.224   1.504 -0.1210 -1.1164  1.0006
  597SOL    HW2 1791   1.059   2.218   1.596 -0.8666  0.0831 -1.2888
  598SOL     OW 1792   2.253   2.479   1.822  0.3114  0.0796  0.2081
  598SOL    HW1 1793   2.183   2.411   1.789 -1.1729 -4.0011 -3.4922
  598SOL    HW2 1794   2.333   2.481   1.755 -0.2160  0.8504  1.2385
  599SOL     OW 1795   0.475   1.191   0.093  0.3695 -0.1120  0.4415
  599SOL    HW1 1796   0.568   1.154   0.083 -1.1714  0.4881  0.2492
  599SOL    HW2 1797   0.410   1.112   0.071 -0.0028 -0.2997  2.3854
  600SOL     OW 1798   0.880   0.942   2.943  0.5990  0.1183  0.0349
  600SOL    HW1 1799   0.867   0.906   3.037 -1.7505  0.1206  0.7714
  600SOL    HW2 1800   0.939   1.025   2.937 -0.3564 -0.4757  2.6085
  601SOL     OW 1801   0.654   0.636   1.622 -0.6279 -0.0788  0.2827
  601SOL    HW1 1802   0.628   0.731   1.596 -0.2802  1.2173 -4.3193
  601SOL    HW2 1803   0.677   0.626   1.717 -1.7538 -0.6753 -0.6087
  602SOL     OW 1804   0.368   2.395   0.600  0.2847 -0.3643  0.3785
  602SOL    HW1 1805   0.389   2.335   0.680 -1.3094  2.1306  2.9744
  602SOL    HW2 1806   0.282   2.366   0.551 -2.0025 -0.8759  0.0507
  603SOL     OW 1807   1.019   2.555   1.964 -0.1064  0.5363 -0.1820
  603SOL    HW1 1808   0.926   2.576   1.927 -0.5807 -0.1835  0.4480
  603SOL    HW2 1809   1.036   2.576   2.060 -0.1732  0.6712 -0.0297
  604SOL     OW 1810   0.443   2.106   2.840  0.0325 -0.1997  0.1402
  604SOL    HW1 1811   0.473   2.063   2.753 -1.6299  2.2384  1.0521
  604SOL    HW2 1812   0.350   2.080   2.869 -0.6204 -0.4834 -0.9359
  605SOL     OW 1813   2.114   1.162   1.711 -0.3966  0.2515  0.1907
  605SOL    HW1 1814   2.046   1.133   1.638  0.2117 -0.9297 -1.7854
  605SOL    HW2 1815   2.144   1.263   1.706 -0.9274 -0.9915 -1.7124
  606SOL     OW 1816   0.674   1.028   2.803  0.6897  0.2218 -0.0542
  606SOL    HW1 1817   0.662   1.126   2.832  0.5423 -0.0896 -0.6783
  606SOL    HW2 1818   0.734   0.987   2.874 -3.4524  3.7020 -0.4720
  607SOL     OW 1819   1.178   0.978   1.182  0.1072  0.4561 -0.2244
  607SOL    HW1 1820   1.193   0.903   1.251  0.2356  0.9149 -0.0865
  607SOL    HW2 1821   1.081   0.999   1.162 -0.5131 -0.4659  0.9144
  608SOL     OW 1822   2.918   1.613   1.861  0.3518 -0.5578 -0.0075
  608SOL    HW1 1823   2.943   1.659   1.950  0.1802  0.7285  0.5397
  608SOL    HW2 1824   2.871   1.671   1.786  0.6781  2.5663 -0.1271
  609SOL     OW 1825   2.309   0.203   0.346  0.1161 -0.2506 -0.4893
  609SOL    HW1 1826   2.381   0.226   0.281 -2.4433  0.1319  0.2246
  609SOL    HW2 1827   2.262   0.123   0.304 -0.0771  1.0327 -1.1130
  610SOL     OW 1828   2.919   2.618   1.358  0.2402 -0.1732 -0.2245
  610SOL    HW1 1829   2.872   2.694   1.305 -0.6793  1.9204  0.3525
  610SOL    HW2 1830   2.959   2.544   1.298  0.6207  1.2816  0.0630
  611SOL     OW 1831   1.699   2.359   0.303  0.2487 -0.1598  0.2230
  611SOL    HW1 1832   1.690   2.282   0.240 -0.9074 -1.2185  1.9017
  611SOL    HW2 1833   1.648   2.348   0.389 -0.0353  1.4407  1.2402
  612SOL     OW 1834   0.479   2.944   1.733 -0.4275 -0.1176  0.0499
  612SOL    HW1 1835   0.529   2.924   1.645  0.0607 -1.2675 -2.3362
  612SOL    HW2 1836   0.472   3.043   1.761  0.3347 -2.5592 -1.4112
  613SOL     OW 1837   3.033   1.961   0.488  0.1195  1.1126  0.3715
  613SOL    HW1 1838   3.081   2.035   0.542  1.4734  2.7536 -1.2969
  613SOL    HW2 1839   2.934   1.978   0.481  4.7390  0.3071  0.3479
  614SOL     OW 1840   1.598   0.432   1.678  0.3095 -0.0226  0.4657
  614SOL    HW1 1841   1.688   0.470   1.660 -0.1039 -2.7762  0.2080
  614SOL    HW2 1842   1.574   0.374   1.597 -0.5725  1.7128  0.7524
  615SOL     OW 1843   1.185   1.479   0.957  0.0064  0.3088  0.5394
  615SOL    HW1 1844   1.168   1.570   0.998 -0.8313 -0.9888 -3.9492
  615SOL    HW2 1845   1.264   1.429   0.992 -2.6252  0.6775  1.0689
  616SOL     OW 1846   1.764   1.789   0.471 -0.4815 -0.5069  0.1562
  616SOL    HW1 1847   1.820   1.875   0.441  0.4123  1.5035 -1.3701
  616SOL    HW2 1848   1.722   1.737   0.391 -0.2152  0.3208 -1.5882
  617SOL     OW 1849   1.578   0.741   0.065 -0.1999 -0.1190  0.1302
  617SOL    HW1 1850   1.621   0.727   0.158  2.1575  2.7371 -1.1690
  617SOL    HW2 1851   1.554   0.840   0.061 -1.0878 -1.9883  0.4124
  618SOL     OW 1852   0.604   0.729   2.473  0.4442 -0.0155  0.5955
  618SOL    HW1 1853   0.686   0.667   2.469  1.4545  0.4343 -0.4537
  618SOL    HW2 1854   0.631   0.828   2.485 -1.7649 -0.0862 -0.4518
  619SOL     OW 1855   2.942   1.717   1.170 -0.3522  0.5685 -0.4308
  619SOL    HW1 1856   3.010   1.791   1.165  2.4093 -2.5877 -1.7298
  619SOL    HW2 1857   2.949   1.661   1.086 -0.1650 -0.4885  1.3063
  620SOL     OW 1858   2.137   2.736   2.609 -0.5639 -0.3066 -0.2258
  620SOL    HW1 1859   2.225   2.732   2.652  0.2056 -0.7310  1.2769
  620SOL    HW2 1860   2.104   2.831   2.612  0.8979 -0.6545 -2.1880
  621SOL     OW 1861   2.949   1.838   0.082 -0.2601 -0.7161  0.1221
  621SOL    HW1 1862   3.048   1.825   0.104 -1.8878 -0.7289 -0.7927
  621SOL    HW2 1863   2.914   1.758   0.036 -2.0789  0.3934  1.0047
  622SOL     OW 1864   1.404   0.107   2.171  0.4661 -0.3306 -0.2976
  622SOL    HW1 1865   1.448   0.095   2.261  0.4904  0.0304 -2.7415
  622SOL    HW2 1866   1.468   0.095   2.092  1.8902 -0.3951 -3.1048
  623SOL     OW 1867   0.641   2.461   0.912  0.7294  0.3977  0.1192
  623SOL    HW1 1868   0.579   2.534   0.953  0.7668  0.8010  1.0546
  623SOL    HW2 1869   0.736   2.473   0.948  2.3536 -1.3591 -1.0489
  624SOL     OW 1870   0.002   2.922   3.048 -0.4542  0.6632 -0.0553
  624SOL    HW1 1871   3.060   2.828   3.050  0.6859 -2.1507  1.9428
  624SOL    HW2 1872   0.075   2.936   2.976  1.6114 -1.3246 -0.0318
  625SOL     OW 1873   0.858   1.890   0.584  0.5091 -0.2077  0.2341
  625SOL    HW1 1874   0.878   1.794   0.614  0.8180 -1.0171 -0.3615
  625SOL    HW2 1875   0.951   1.931   0.563 -0.3698  0.1597 -1.7922
  626SOL     OW 1876   2.814   0.348   2.992  0.0890  0.0672  0.4748
  626SOL    HW1 1877   2.907   0.334   3.028 -2.0871 -0.3203  0.7591
  626SOL    HW2 1878   2.760   0.261   2.999 -1.4039 -2.0966 -0.6133
  627SOL     OW 1879   1.444   1.877   2.957  0.1395  0.2734 -0.5615
  627SOL    HW1 1880   1.525   1.892   2.894  2.2963  0.7501 -1.0719
  627SOL    HW2 1881   1.361   1.845   2.908 -0.3944  0.1048  1.3360
  628SOL     OW 1882   0.194   2.505   2.935  0.3086 -0.3478 -0.4495
  628SOL    HW1 1883   0.183   2.439   2.860 -2.1543  0.3698  0.1914
  628SOL    HW2 1884   0.171   2.454   3.021  1.3133  1.7871 -1.3595
  629SOL     OW 1885   0.641   2.895   2.723 -0.0977 -0.3641 -0.4176
  629SOL    HW1 1886   0.636   2.844   2.812 -1.0090  1.3381  0.1944
  629SOL    HW2 1887   0.632   2.825   2.649 -0.9197 -1.4206 -3.2617
  630SOL     OW 1888   1.376   0.929   2.049  0.1818  0.0234 -0.6929
  630SOL    HW1 1889   1.337   0.853   1.996  0.2407  0.7243  0.8810
  630SOL    HW2 1890   1.360   1.022   2.006  1.2776  0.1331 -1.7095
  631SOL     OW 1891   2.051   1.174   0.245 -0.0955 -0.2536  0.3870
  631SOL    HW1 1892   2.006   1.205   0.333 -0.1811  4.6760 -0.9522
  631SOL    HW2 1893   2.045   1.257   0.182  0.0181 -0.1910 -4.0127
  632SOL     OW 1894   2.564   0.537   2.014 -0.3551 -0.1136 -0.1204
  632SOL    HW1 1895   2.625   0.576   2.092  0.9746 -2.9185  2.2431
  632SOL    HW2 1896   2.621   0.463   1.967  1.8817 -2.2568  0.6694
  633SOL     OW 1897   0.731   1.559   3.077  0.1218  0.4284 -0.0012
  633SOL    HW1 1898   0.749   1.640   3.018  0.5336 -0.5001 -1.4296
  633SOL    HW2 1899   0.719   1.476   3.014  3.0821 -1.1209 -0.7715
  634SOL     OW 1900   2.473   2.577   2.366  0.5394 -0.1523 -0.0223
  634SOL    HW1 1901   2.410   2.657   2.344 -3.9204  0.8019 -0.1233
  634SOL    HW2 1902   2.455   2.497   2.304 -0.9276 -0.3795 -1.6516
  635SOL     OW 1903   2.057   0.647   0.475  0.6206  0.0851 -0.0997
  635SOL    HW1 1904   2.099   0.726   0.428 -0.5039  1.1549  1.1809
  635SOL    HW2 1905   2.074   0.555   0.429  1.5510 -3.0447 -3.0654
  636SOL     OW 1906   0.606   1.384   0.824 -0.1624  0.8152  0.6377
  636SOL    HW1 1907   0.546   1.317   0.776  1.3860 -1.5434  0.2509
  636SOL    HW2 1908   0.678   1.418   0.761  0.7342  0.8851  0.6442
  637SOL     OW 1909   2.873   2.208   0.127  0.0994 -0.2413 -0.1059
  637SOL    HW1 1910   2.808   2.212   0.202 -0.3381 -1.4394  1.2074
  637SOL    HW2 1911   2.941   2.142   0.156 -0.9563  0.2663  1.3014
  638SOL     OW 1912   1.529   2.558   2.411  0.3045 -0.0602  0.1604
  638SOL    HW1 1913   1.517   2.548   2.310 -3.3138 -2.5199 -0.7170
  638SOL    HW2 1914   1.440   2.550   2.459 -2.5896  1.4238  0.6808
  639SOL     OW 1915   1.313   1.946   0.259  0.1032  0.0339  0.5134
  639SOL    HW1 1916   1.246   1.892   0.199 -2.6081 -0.1363 -1.1814
  639SOL    HW2 1917   1.339   1.887   0.340 -0.9584 -1.7671  1.8133
  640SOL     OW 1918   1.994   0.189   0.507 -0.3119  0.1221 -0.7602
  640SOL    HW1 1919   2.069   0.126   0.536 -1.8749 -0.3501 -0.1600
  640SOL    HW2 1920   2.039   0.274   0.474 -0.3076 -1.0019 -2.2016
  641SOL     OW 1921   3.084   2.947   0.450 -0.3674 -0.0423  0.1951
  641SOL    HW1 1922   0.001   2.949   0.549 -1.6552  1.7205 -1.3392
  641SOL    HW2 1923   3.012   3.011   0.418  2.8251 -0.3099  1.1212
  642SOL     OW 1924   0.662   0.271   1.642 -0.5815  0.2630 -0.0698
  642SOL    HW1 1925   0.592   0.337   1.601 -1.2738  0.0390  1.9488
  642SOL    HW2 1926   0.630   0.197   1.703  0.9875 -1.2266  0.6915
  643SOL     OW 1927   0.682   1.182   2.341 -0.1431  0.5733  0.2662
  643SOL    HW1 1928   0.675   1.266   2.403 -0.0956  1.5941 -1.8862
  643SOL    HW2 1929   0.675   1.215   2.244  0.8504  1.1949 -2.6545
  644SOL     OW 1930   1.305   2.599   0.307  0.3772 -0.2368  0.3989
  644SOL    HW1 1931   1.278   2.687   0.356 -0.1697  0.3355  0.1264
  644SOL    HW2 1932   1.397   2.620   0.277 -3.0311  0.4617  0.9003
  645SOL     OW 1933   1.742   2.121   0.168 -0.4005 -0.0594  0.4238
  645SOL    HW1 1934   1.779   2.173   0.086 -0.4441  1.3996  2.5997
  645SOL    HW2 1935   1.650   2.088   0.143  1.7234  0.6079  2.1651
  646SOL     OW 1936   0.367   1.453   2.846  0.3507  0.0304 -0.1319
  646SOL    HW1 1937   0.386   1.548   2.817  2.8785  0.0061 -1.7363
  646SOL    HW2 1938   0.363   1.448   2.947  0.1264  1.1517 -3.2089
  647SOL     OW 1939   0.890   0.187   1.144  0.1031  0.2525 -0.9377
  647SOL    HW1 1940   0.800   0.182   1.190  1.1760  1.5688 -0.4625
  647SOL    HW2 1941   0.930   0.282   1.133  0.8293  0.6433 -2.0990
  648SOL     OW 1942   1.445   0.557   1.273 -0.4355  0.6378 -0.0905
  648SOL    HW1 1943   1.420   0.608   1.194 -1.4472  2.2197  1.0564
  648SOL    HW2 1944   1.545   0.559   1.286  1.0351 -0.5144  0.6241
  649SOL     OW 1945   1.134   1.826   0.076 -0.1501 -0.3002  0.0441
  649SOL    HW1 1946   1.123   1.917   0.026 -1.6134  1.7470 -1.8191
  649SOL    HW2 1947   1.144   1.750   0.010 -1.6327 -1.1395 -2.5182
  650SOL     OW 1948   2.813   1.431   2.329  0.2499  0.3811  0.4038
  650SOL    HW1 1949   2.755   1.508   2.355  0.1442 -1.1033  0.8335
  650SOL    HW2 1950   2.909   1.462   2.327 -0.5848 -1.6326 -0.1614
  651SOL     OW 1951   1.393   2.456   2.754  0.1571  0.6297 -0.0118
  651SOL    HW1 1952   1.325   2.382   2.761  2.3016  2.6357  0.9027
  651SOL    HW2 1953   1.351   2.544   2.775 -0.5171  1.4266 -0.1506
  652SOL     OW 1954   2.532   1.732   0.172  0.3729 -0.4801 -0.1545
  652SOL    HW1 1955   2.478   1.657   0.129 -1.1801 -0.1937 -0.4556
  652SOL    HW2 1956   2.509   1.817   0.120 -1.2522 -1.5734 -0.3955
  653SOL     OW 1957   0.205   0.181   1.288 -0.3169 -0.3303  0.1317
  653SOL    HW1 1958   0.204   0.161   1.184  1.3870  1.2547 -0.8593
  653SOL    HW2 1959   0.195   0.284   1.296 -0.8334  2.2058 -1.3509
  654SOL     OW 1960   2.222   0.367   2.333 -0.7291 -0.2894  0.6890
  654SOL    HW1 1961   2.271   0.278   2.313 -0.8493  0.1051  0.4163
  654SOL    HW2 1962   2.131   0.363   2.290 -0.4270 -1.0193 -0.4901
  655SOL     OW 1963   0.252   2.969   0.992  0.3031 -0.4867 -0.0622
  655SOL    HW1 1964   0.239   2.887   0.935 -0.7619  1.3630  1.7589
  655SOL    HW2 1965   0.343   3.014   0.983 -1.6062 -1.1645  2.2398
  656SOL     OW 1966   2.964   3.077   2.323  0.3671  0.5462 -0.3127
  656SOL    HW1 1967   2.908   0.054   2.361 -1.8162  0.2405 -3.9688
  656SOL    HW2 1968   3.050   3.067   2.374 -0.3686 -0.0572 -2.1956
  657SOL     OW 1969   2.660   0.689   2.778 -0.1522 -0.3478  0.3063
  657SOL    HW1 1970   2.703   0.736   2.862 -0.4722 -1.5019  0.7434
  657SOL    HW2 1971   2.683   0.590   2.772  0.8552 -1.3625  1.4667
  658SOL     OW 1972   2.084   2.109   0.971  0.0994 -1.0630 -0.1827
  658SOL    HW1 1973   2.138   2.071   0.895 -2.2238  0.8961  0.8661
  658SOL    HW2 1974   2.140   2.121   1.051 -2.1415 -0.1499 -1.3399
  659SOL     OW 1975   1.998   2.948   0.441 -0.7226  0.4475  0.0994
  659SOL    HW1 1976   2.027   2.952   0.539  0.2020 -1.3721 -0.3209
  659SOL    HW2 1977   1.949   2.862   0.421 -0.3786  0.8854 -0.8340
  660SOL     OW 1978   1.595   1.142   2.734 -0.6800  0.0615 -0.2412
  660SOL    HW1 1979   1.548   1.183   2.649 -1.7959 -2.7286 -2.2691
  660SOL    HW2 1980   1.639   1.211   2.788  1.2086  1.5348  0.9699
  661SOL     OW 1981   2.443   2.475   1.638 -0.7729 -0.2525 -0.0103
  661SOL    HW1 1982   2.457   2.489   1.535  2.9248  1.2158 -0.7364
  661SOL    HW2 1983   2.536   2.484   1.685  2.5001 -0.2710  1.2604
  662SOL     OW 1984   0.798   0.749   0.372  0.5172  0.1912 -0.2584
  662SOL    HW1 1985   0.700   0.770   0.397 -1.4155 -3.8781 -0.3779
  662SOL    HW2 1986   0.810   0.651   0.355 -0.3795  1.0378  0.2986
  663SOL     OW 1987   1.923   2.352   0.664 -0.2663 -0.0004 -0.3524
  663SOL    HW1 1988   1.936   2.393   0.755 -0.0690 -0.1308  0.4559
  663SOL    HW2 1989   1.844   2.286   0.665 -1.0325  0.6336 -1.0457
  664SOL     OW 1990   0.779   1.761   1.304 -0.0016  0.1631 -0.3306
  664SOL    HW1 1991   0.718   1.841   1.297 -0.0899 -0.9545  2.4656
  664SOL    HW2 1992   0.871   1.793   1.328 -0.4946 -0.4714  0.8963
  665SOL     OW 1993   1.663   2.332   1.967 -0.4289 -0.5055  0.0704
  665SOL    HW1 1994   1.656   2.356   1.865  0.3558  0.1741 -0.4555
  665SOL    HW2 1995   1.759   2.334   2.003  1.2787 -0.7100  3.3612
  666SOL     OW 1996   0.180   2.516   0.233  0.1959  0.0231  0.1128
  666SOL    HW1 1997   0.274   2.502   0.201 -2.3404 -3.0088 -0.8529
  666SOL    HW2 1998   0.111   2.480   0.167 -2.3948 -0.2681  0.7945
  667SOL     OW 1999   2.483   1.499   1.747  0.1838  0.1137 -0.0168
  667SOL    HW1 2000   2.537   1.541   1.669 -0.5094  0.3667  0.1501
  667SOL    HW2 2001   2.504   1.549   1.829 -0.7013 -0.1027 -2.1393
  668SOL     OW 2002   0.478   0.542   2.637  0.8490 -0.2869 -0.9249
  668SOL    HW1 2003   0.530   0.596   2.572  0.4227 -0.9309  1.3253
  668SOL    HW2 2004   0.518   0.553   2.734  0.9836 -0.5877  2.4135
  669SOL     OW 2005   2.037   2.368   2.947 -0.3655 -0.4128  0.0738
  669SOL    HW1 2006   2.098   2.392   2.871 -2.0734  2.6891  2.6336
  669SOL    HW2 2007   2.086   2.364   3.037  0.2729  1.0534  3.1078
  670SOL     OW 2008   2.407   1.549   2.588 -0.3182 -0.5530  0.7034
  670SOL    HW1 2009   2.391   1.456   2.624 -0.1755 -1.5564 -0.2123
  670SOL    HW2 2010   2.509   1.564   2.598  0.5815 -0.5561 -3.0397
  671SOL     OW 2011   0.240   1.450   0.909 -0.0592 -0.2497 -0.3035
  671SOL    HW1 2012   0.222   1.402   0.819 -3.1576 -2.6903  0.2402
  671SOL    HW2 2013   0.154   1.445   0.968 -1.3307 -1.5225  1.6057
  672SOL     OW 2014   2.413   0.958   2.017  0.2303 -0.9742  0.0945
  672SOL    HW1 2015   2.482   1.015   1.974 -1.2647 -0.0635 -2.9500
  672SOL    HW2 2016   2.405   0.870   1.966 -0.4338 -2.5522  0.2830
  673SOL     OW 2017   2.457   2.436   2.005  0.3246  0.0116 -0.1442
  673SOL    HW1 2018   2.544   2.475   1.960  1.9731  2.0998  0.0788
  673SOL    HW2 2019   2.375   2.473   1.962  0.0605  0.2350  2.1041
  674SOL     OW 2020   1.320   2.527   1.945  0.6031  0.8868  0.7860
  674SOL    HW1 2021   1.357   2.441   1.906  1.2806  1.5439 -1.1469
  674SOL    HW2 2022   1.218   2.533   1.924  1.4423  2.8612  0.2844
  675SOL     OW 2023   0.505   0.747   0.814 -0.0198  0.3172  0.4750
  675SOL    HW1 2024   0.511   0.832   0.868  1.2687 -2.2160 -1.4400
  675SOL    HW2 2025   0.527   0.769   0.714  1.5585  1.6063 -0.7399
  676SOL     OW 2026   1.957   1.135   0.699 -0.0490  0.3052 -0.2263
  676SOL    HW1 2027   1.915   1.043   0.686  3.3166  0.9899  0.4123
  676SOL    HW2 2028   2.037   1.129   0.755 -0.9452 -0.3120 -3.5071
  677SOL     OW 2029   0.005   1.402   2.488 -0.3749 -0.7856 -0.1694
  677SOL    HW1 2030   0.013   1.302   2.492 -0.8205 -0.1639  0.8825
  677SOL    HW2 2031   3.093   1.436   2.391 -0.7018  0.9642  0.8452
  678SOL     OW 2032   2.655   2.058   1.391 -0.5481 -0.5250 -0.2904
  678SOL    HW1 2033   2.737   2.008   1.423  0.5048 -0.2823 -1.8930
  678SOL    HW2 2034   2.562   2.017   1.411 -1.5567  1.7002  1.7426
  679SOL     OW 2035   2.082   2.783   0.696  0.1601  0.4061 -0.6757
  679SOL    HW1 2036   2.169   2.830   0.691 -1.9437  0.8286  1.4095
  679SOL    HW2 2037   2.051   2.789   0.792 -0.0407  0.2670 -2.1505
  680SOL     OW 2038   0.168   2.278   2.028  0.5168  0.4469 -0.3776
  680SOL    HW1 2039   0.236   2.204   2.001 -1.0305 -3.2260 -0.6601
  680SOL    HW2 2040   0.109   2.307   1.944 -0.3977  1.0198 -0.8549
  681SOL     OW 2041   2.862   1.315   1.727  0.1560 -0.3994 -0.4708
  681SOL    HW1 2042   2.954   1.282   1.741 -1.1647 -1.6649  3.4965
  681SOL    HW2 2043   2.851   1.403   1.770 -0.1624  0.2120 -3.5259
  682SOL     OW 2044   0.977   2.236   0.819 -0.5334 -0.1795  0.2202
  682SOL    HW1 2045   0.892   2.271   0.773 -1.3552 -0.6334  1.8746
  682SOL    HW2 2046   1.047   2.224   0.752 -0.5662  1.1400 -1.2944
  683SOL     OW 2047   2.295   1.200   1.110  0.0489  0.2161 -0.6005
  683SOL    HW1 2048   2.223   1.246   1.058  0.8681 -0.5392  3.4038
  683SOL    HW2 2049   2.256   1.178   1.198  0.9244 -1.6470 -1.3340
  684SOL     OW 2050   0.130   1.784   2.811  0.0276 -0.2857 -0.1485
  684SOL    HW1 2051   0.062   1.707   2.815  0.4511  0.6772 -0.2750
  684SOL    HW2 2052   0.209   1.761   2.878  1.6745 -1.5877 -0.0376
  685SOL     OW 2053   1.664   1.260   0.152 -0.3526  0.4816  0.5784
  685SOL    HW1 2054   1.676   1.184   0.088 -0.4733  0.5363 -0.4436
  685SOL    HW2 2055   1.718   1.343   0.121  2.1534  1.4330  2.2603
  686SOL     OW 2056   0.324   0.805   1.520  0.7087 -0.1921  0.4674
  686SOL    HW1 2057   0.290   0.713   1.537 -3.5126  0.8390 -1.3622
  686SOL    HW2 2058   0.415   0.822   1.551  0.2845  0.1258 -0.7527
  687SOL     OW 2059   0.925   2.164   2.626  0.1513 -0.3090  0.3335
  687SOL    HW1 2060   0.885   2.182   2.718  3.3141 -0.6525 -0.3708
  687SOL    HW2 2061   0.888   2.231   2.561  0.1654 -2.2193  1.3029
  688SOL     OW 2062   0.414   1.762   1.637 -0.4523  0.3130 -0.0108
  688SOL    HW1 2063   0.315   1.783   1.658  2.0758 -4.5320  1.5390
  688SOL    HW2 2064   0.464   1.839   1.587 -0.0459  0.0797 -0.4589
  689SOL     OW 2065   1.551   1.060   1.677  0.6402 -0.0956 -0.4690
  689SOL    HW1 2066   1.471   1.087   1.623  1.7121  0.6677  0.6777
  689SOL    HW2 2067   1.543   0.959   1.707 -2.0059 -1.6747  0.2907
  690SOL     OW 2068   2.532   0.755   1.045 -0.4519  0.1371 -0.6623
  690SOL    HW1 2069   2.555   0.794   1.140  0.3749  0.4474  0.5362
  690SOL    HW2 2070   2.470   0.823   1.001 -1.3534  2.4740 -0.8869
  691SOL     OW 2071   0.789   1.953   1.551 -0.3697 -0.2098 -0.1192
  691SOL    HW1 2072   0.880   1.921   1.518  0.9375  1.0031 -1.0117
  691SOL    HW2 2073   0.784   1.944   1.654 -1.9310  0.7214  2.4289
  692SOL     OW 2074   2.066   0.219   1.489  0.1996 -0.6835 -0.0229
  692SOL    HW1 2075   2.150   0.276   1.477  1.1323 -0.3136  0.1073
  692SOL    HW2 2076   2.045   0.193   1.585  0.3085 -1.2149 -0.0143
  693SOL     OW 2077   0.465   1.008   2.015 -0.0832  1.1099 -0.0262
  693SOL    HW1 2078   0.530   0.943   2.054  2.4976  0.2109 -0.6501
  693SOL    HW2 2079   0.411   0.964   1.943  0.9754 -0.0935  0.6994
  694SOL     OW 2080   1.811   0.145   1.383 -0.4417 -0.1231  0.2630
  694SOL    HW1 2081   1.900   0.185   1.411 -0.2063 -0.5963 -0.7304
  694SOL    HW2 2082   1.813   0.042   1.382 -0.1099 -0.0814 -0.2615
  695SOL     OW 2083   1.237   1.376   1.618  0.1399 -0.5632 -0.1752
  695SOL    HW1 2084   1.205   1.436   1.544 -1.8827  1.7867  1.2225
  695SOL    HW2 2085   1.278   1.286   1.590 -2.8292 -1.1031  1.9073
  696SOL     OW 2086   1.806   2.965   0.214  0.2921 -0.2063  0.1489
  696SOL    HW1 2087   1.806   3.038   0.282 -0.2336 -0.3964 -3.4271
  696SOL    HW2 2088   1.869   2.893   0.229 -1.6713  0.7385 -0.2985
  697SOL     OW 2089   0.828   0.472   0.348 -0.0656 -0.1232 -0.2402
  697SOL    HW1 2090   0.758   0.435   0.283 -0.6584 -2.5066  1.7355
  697SOL    HW2 2091   0.897   0.397   0.370  0.0268  0.6114  0.4542
  698SOL     OW 2092   1.484   1.232   2.496 -0.3163 -0.0748 -0.0223
  698SOL    HW1 2093   1.516   1.297   2.422 -1.4619  3.6861 -0.9918
  698SOL    HW2 2094   1.481   1.139   2.462  0.0588  2.7285  3.0822
  699SOL     OW 2095   1.433   1.327   0.972  0.1634  0.1526  0.4903
  699SOL    HW1 2096   1.497   1.404   0.948 -1.2059  5.0010 -2.1311
  699SOL    HW2 2097   1.467   1.236   0.935  0.9718 -3.0843 -2.1782
  700SOL     OW 2098   1.553   0.044   0.376  0.0825  0.0317  0.0437
  700SOL    HW1 2099   1.570   3.042   0.392  0.7516  0.4222  0.5613
  700SOL    HW2 2100   1.632   0.097   0.354 -1.1991 -1.8878 -0.9397
  701SOL     OW 2101   2.255   0.015   2.552 -0.2324 -0.4862 -0.0657
  701SOL    HW1 2102   2.362   0.003   2.535  3.7639  0.9167 -0.8619
  701SOL    HW2 2103   2.238   0.116   2.548  0.9326  2.1097 -2.1949
  702SOL     OW 2104   1.021   0.088   0.114 -0.3056 -0.2097 -0.8019
  702SOL    HW1 2105   1.086   0.168   0.092 -1.1361  0.1702  1.3395
  702SOL    HW2 2106   0.965   0.067   0.032  1.2031  0.1237  1.0389
  703SOL     OW 2107   2.301   2.755   2.225  0.1221 -0.2984 -0.6423
  703SOL    HW1 2108   2.280   2.738   2.126  0.4837 -1.5786 -0.4751
  703SOL    HW2 2109   2.224   2.810   2.272 -0.9102 -0.1016 -2.0686
  704SOL     OW 2110   0.419   2.293   0.854 -0.0810  0.3290  0.5284
  704SOL    HW1 2111   0.447   2.199   0.880 -0.3276  0.8747 -2.1205
  704SOL    HW2 2112   0.496   2.357   0.870  1.2616  0.1876  1.6082
  705SOL     OW 2113   2.386   0.126   2.289  0.0988  0.1033  0.6431
  705SOL    HW1 2114   2.364   0.182   2.208  0.3690  1.3580 -1.4910
  705SOL    HW2 2115   2.404   0.030   2.265 -1.3967  0.9720  0.8471
  706SOL     OW 2116   1.792   0.174   0.301  0.3601 -0.1810 -0.2612
  706SOL    HW1 2117   1.876   0.169   0.364 -1.3501  0.9465  0.5973
  706SOL    HW2 2118   1.812   0.238   0.223 -0.0105 -1.7174  0.6403
  707SOL     OW 2119   1.168   1.841   2.234 -0.6878 -0.4062 -0.4405
  707SOL    HW1 2120   1.268   1.860   2.219  2.7010 -0.4066  2.2762
  707SOL    HW2 2121   1.108   1.923   2.206  0.6705  1.3536  0.3862
  708SOL     OW 2122   0.133   2.619   2.011  0.6568 -0.2364 -0.3669
  708SOL    HW1 2123   0.072   2.582   2.083 -0.0988 -3.7021 -0.1723
  708SOL    HW2 2124   0.075   2.671   1.946  3.8297 -0.1388  0.4095
  709SOL     OW 2125   1.593   0.128   1.909  0.5044 -0.2018 -0.2355
  709SOL    HW1 2126   1.619   0.227   1.910  0.1336 -0.5463  0.6268
  709SOL    HW2 2127   1.667   0.069   1.870  0.3263 -1.7259  0.3370
  710SOL     OW 2128   2.089   0.720   2.035  0.5354 -0.2848 -0.1677
  710SOL    HW1 2129   2.051   0.813   2.013 -0.7231 -2.2351 -1.4863
  710SOL    HW2 2130   2.026   0.661   2.090  1.9417 -0.5949 -1.6878
  711SOL     OW 2131   0.906   2.212   0.160 -0.2439 -0.0239  0.5426
  711SOL    HW1 2132   0.976   2.249   0.228  1.2387  2.6597  1.3225
  711SOL    HW2 2133   0.813   2.208   0.204  0.7206  0.8751  1.9609
  712SOL     OW 2134   0.531   2.520   2.104 -0.1808  0.2919 -0.5986
  712SOL    HW1 2135   0.500   2.476   2.188  2.4994  2.9891 -2.3851
  712SOL    HW2 2136   0.513   2.622   2.113  0.4869  0.8006  2.3092
  713SOL     OW 2137   1.954   1.323   0.454 -0.3591  0.0847  0.2407
  713SOL    HW1 2138   1.929   1.414   0.490  2.2144 -1.6094 -1.1135
  713SOL    HW2 2139   2.002   1.266   0.523 -1.5801 -0.2259  1.4540
  714SOL     OW 2140   0.567   1.957   1.220 -0.5388 -0.2642 -0.3788
  714SOL    HW1 2141   0.491   1.894   1.187 -1.9395 -1.0902 -0.6383
  714SOL    HW2 2142   0.592   2.032   1.154 -2.0542  0.3653 -0.6080
  715SOL     OW 2143   2.051   2.977   2.691 -0.3112  0.0397  0.4759
  715SOL    HW1 2144   2.116   3.024   2.631 -0.3249  1.9118 -0.4440
  715SOL    HW2 2145   1.957   2.998   2.661  3.3612  0.8340 -2.0354
  716SOL     OW 2146   2.663   3.083   1.955 -0.2663  0.1416 -0.1634
  716SOL    HW1 2147   2.734   3.016   1.938 -2.7023  2.2006  1.5233
  716SOL    HW2 2148   2.681   0.034   2.043  0.7807  0.1071 -1.9673
  717SOL     OW 2149   0.278   0.864   0.252 -0.7066 -0.2508  0.2923
  717SOL    HW1 2150   0.278   0.905   0.155  2.6427 -0.6646 -1.1272
  717SOL    HW2 2151   0.196   0.887   0.303  0.5202 -1.3822 -1.1539
  718SOL     OW 2152   1.136   1.093   2.469 -0.0531  0.4512  0.1789
  718SOL    HW1 2153   1.051   1.036   2.469 -3.7472  0.8427  0.4247
  718SOL    HW2 2154   1.165   1.112   2.566 -0.7239 -2.0416  0.1481
  719SOL     OW 2155   2.851   1.600   3.059 -0.1148  0.1883 -0.2423
  719SOL    HW1 2156   2.874   1.532   0.036  1.8483 -2.2716 -0.3214
  719SOL    HW2 2157   2.761   1.586   3.015 -1.2059  1.0828 -0.8187
  720SOL     OW 2158   1.145   0.796   0.959  0.4139  0.2624  0.0812
  720SOL    HW1 2159   1.175   0.875   1.011  2.6395  0.9980 -1.6809
  720SOL    HW2 2160   1.047   0.796   0.936  2.3269 -1.9546  0.6248
  721SOL     OW 2161   2.833   0.565   0.220 -0.0178  0.0014  0.7237
  721SOL    HW1 2162   2.783   0.576   0.128  0.8129 -1.0325 -1.8773
  721SOL    HW2 2163   2.819   0.651   0.275 -1.9154  1.1619  1.0012
  722SOL     OW 2164   1.901   0.887   2.893 -0.6588  0.5761  0.5697
  722SOL    HW1 2165   1.969   0.837   2.954  0.8082  0.4305 -1.2248
  722SOL    HW2 2166   1.868   0.828   2.818 -1.6833 -2.2759 -3.2194
  723SOL     OW 2167   0.037   0.879   0.355 -0.4429  0.2855  0.3264
  723SOL    HW1 2168   0.027   0.930   0.444  0.6767 -0.7267  0.3998
  723SOL    HW2 2169   0.023   0.779   0.367 -1.0242  0.1052 -0.9778
  724SOL     OW 2170   0.669   1.255   2.069  0.2438 -0.3507 -0.1848
  724SOL    HW1 2171   0.609   1.268   1.990  0.3072 -2.1311  0.0729
  724SOL    HW2 2172   0.725   1.336   2.090 -0.9150 -1.5815  1.0359
  725SOL     OW 2173   1.883   0.835   1.733  0.1194 -0.3864  0.2685
  725SOL    HW1 2174   1.908   0.900   1.656 -0.2201  2.0665  0.7262
  725SOL    HW2 2175   1.932   0.852   1.818  0.4336 -1.2134  0.5733
  726SOL     OW 2176   1.743   2.955   0.686  0.1215 -0.4539 -0.6419
  726SOL    HW1 2177   1.801   2.887   0.637 -1.0913 -0.8775 -1.6704
  726SOL    HW2 2178   1.766   3.049   0.658  1.8848 -1.5079  0.7454
  727SOL     OW 2179   1.612   1.364   2.302  0.3815 -0.1772  0.2233
  727SOL    HW1 2180   1.703   1.389   2.256  1.0040 -0.2478 -0.3709
  727SOL    HW2 2181   1.544   1.364   2.228 -1.2982 -0.7680 -0.3244
  728SOL     OW 2182   1.373   2.704   1.263  0.5754  0.1085  0.3430
  728SOL    HW1 2183   1.312   2.624   1.241  0.4859  0.1273 -1.8066
  728SOL    HW2 2184   1.420   2.690   1.348 -0.1994  1.1861 -0.6440
  729SOL     OW 2185   1.876   0.903   1.307  0.5964 -0.7413 -0.1838
  729SOL    HW1 2186   1.910   0.851   1.226 -0.9470 -1.3509  0.8614
  729SOL    HW2 2187   1.778   0.925   1.301 -1.2179  1.9768 -0.7478
  730SOL     OW 2188   0.514   1.732   2.312  0.3009  0.3976 -0.3031
  730SOL    HW1 2189   0.447   1.798   2.278  1.2898 -0.4789  1.1085
  730SOL    HW2 2190   0.583   1.718   2.242 -1.4016 -3.6472  3.2447
  731SOL     OW 2191   0.361   0.249   0.802 -0.2213  0.3240  0.0233
  731SOL    HW1 2192   0.453   0.264   0.839 -0.7183 -0.0803 -0.3458
  731SOL    HW2 2193   0.355   0.168   0.744  2.8715  2.8153  0.3114
  732SOL     OW 2194   1.129   0.735   0.078  0.3617 -0.1018  0.5539
  732SOL    HW1 2195   1.135   0.654   0.141  1.4792 -1.1748  3.2026
  732SOL    HW2 2196   1.057   0.795   0.114 -1.7267  1.2941  0.2879
  733SOL     OW 2197   0.594   2.031   0.619 -0.7259 -0.5915 -0.1613
  733SOL    HW1 2198   0.683   1.977   0.619 -0.6060 -2.4206  1.5370
  733SOL    HW2 2199   0.559   2.040   0.524  1.4262 -3.2320 -2.2464
  734SOL     OW 2200   0.147   2.300   2.757 -0.5256 -0.3176 -0.3352
  734SOL    HW1 2201   0.171   2.282   2.659  0.6044  0.7276 -1.7573
  734SOL    HW2 2202   0.141   2.221   2.821  1.1088  0.9813 -0.0802
  735SOL     OW 2203   1.185   0.783   1.385 -0.2404  0.4497  0.1586
  735SOL    HW1 2204   1.126   0.821   1.458  1.7947  1.4589  0.7644
  735SOL    HW2 2205   1.175   0.683   1.379 -0.9677  0.8972  0.0032
  736SOL     OW 2206   2.181   2.695   0.000  0.0476  0.0305  0.5783
  736SOL    HW1 2207   2.086   2.695   0.031  0.9826  0.2167 -3.1283
  736SOL    HW2 2208   2.190   2.767   3.023  0.7064  1.4902 -4.6626
  737SOL     OW 2209   0.011   3.023   0.718 -0.4247 -0.6492 -0.6352
  737SOL    HW1 2210   3.083   3.080   0.803  2.1669 -0.6390 -0.2156
  737SOL    HW2 2211   0.062   2.939   0.754 -0.0561 -1.2196  1.0004
  738SOL     OW 2212   2.172   0.152   1.088  0.0499 -0.0059 -0.9310
  738SOL    HW1 2213   2.183   0.248   1.111 -0.9644 -1.7975 -0.4052
  738SOL    HW2 2214   2.239   0.126   1.018 -1.3715 -2.2027  1.5806
  739SOL     OW 2215   1.762   2.604   0.449 -0.0032  0.1224  0.1786
  739SOL    HW1 2216   1.721   2.525   0.393 -2.2744 -2.0611  0.6602
  739SOL    HW2 2217   1.862   2.586   0.464  0.2627 -1.3177  0.3311
  740SOL     OW 2218   1.388   0.219   0.966 -0.8706  0.2688 -0.4168
  740SOL    HW1 2219   1.309   0.187   0.913  2.0361  0.9776 -0.7110
  740SOL    HW2 2220   1.476   0.171   0.930  0.3971  0.3049 -2.4043
  741SOL     OW 2221   2.685   0.892   0.850 -0.0688  0.8949 -0.1355
  741SOL    HW1 2222   2.645   0.840   0.928 -1.0692 -0.6784 -0.1240
  741SOL    HW2 2223   2.615   0.958   0.813  0.8614  2.2213 -1.5091
  742SOL     OW 2224   1.036   2.079   2.181  0.0630  0.4808 -0.2940
  742SOL    HW1 2225   0.955   2.021   2.160 -0.2023 -1.3470 -0.7570
  742SOL    HW2 2226   1.034   2.164   2.128  0.8009 -0.9720 -1.1675
  743SOL     OW 2227   1.620   0.788   1.707 -0.0906 -0.5436 -0.2752
  743SOL    HW1 2228   1.723   0.801   1.726  0.4511 -1.4948  2.7365
  743SOL    HW2 2229   1.592   0.704   1.755 -3.3425  0.4360 -0.3360
  744SOL     OW 2230   2.023   0.589   1.461 -0.0358 -0.0619 -0.0023
  744SOL    HW1 2231   2.002   0.581   1.362  1.7646  4.6623  1.5071
  744SOL    HW2 2232   2.096   0.660   1.482  0.6260 -0.6695  0.5306
  745SOL     OW 2233   1.737   1.217   1.581  0.1593 -0.1960  0.5822
  745SOL    HW1 2234   1.653   1.161   1.603 -1.0820 -0.2589  1.6824
  745SOL    HW2 2235   1.742   1.253   1.487  0.4904  0.4272  1.7874
  746SOL     OW 2236   1.912   1.528   0.823  0.4837  0.7474  0.2403
  746SOL    HW1 2237   1.901   1.523   0.924  3.6579  0.3066 -0.5486
  746SOL    HW2 2238   1.832   1.482   0.780  2.1935  1.0996 -2.2675
  747SOL     OW 2239   2.086   1.326   0.997  0.0082 -0.2369 -0.5885
  747SOL    HW1 2240   2.104   1.381   0.917 -1.4678 -0.4822  1.0420
  747SOL    HW2 2241   1.988   1.328   1.025  0.9373 -2.1160 -0.7760
  748SOL     OW 2242   0.488   2.040   0.874  0.6283  0.3994  0.3311
  748SOL    HW1 2243   0.413   1.984   0.906  3.0501 -0.2764 -1.2041
  748SOL    HW2 2244   0.528   2.001   0.786 -0.0157 -1.7895  0.5395
  749SOL     OW 2245   2.453   2.981   2.173  0.2358 -0.2089 -0.2899
  749SOL    HW1 2246   2.392   2.904   2.191 -0.4478  2.5455 -1.5244
  749SOL    HW2 2247   2.480   2.996   2.073  1.1442  1.1129 -4.0360
  750SOL     OW 2248   2.434   0.490   1.004  0.4374 -0.0425 -0.1447
  750SOL    HW1 2249   2.480   0.430   0.936  0.8388 -0.0338  1.7843
  750SOL    HW2 2250   2.472   0.586   0.995  1.9466 -2.9816 -0.2527
  751SOL     OW 2251   2.566   2.847   0.288 -0.6274  0.0561  0.3867
  751SOL    HW1 2252   2.625   2.764   0.271 -0.9887  1.7194  1.0260
  751SOL    HW2 2253   2.491   2.851   0.219  1.2950 -1.8663  0.2183
  752SOL     OW 2254   0.207   2.773   0.753 -0.0533 -0.3749  0.2131
  752SOL    HW1 2255   0.286   2.711   0.777  0.0985  1.0398  1.6043
  752SOL    HW2 2256   0.213   2.809   0.660 -0.4349 -1.2981 -0.8509
  753SOL     OW 2257   1.486   0.559   1.881 -0.4335 -0.5868 -0.0835
  753SOL    HW1 2258   1.389   0.589   1.866 -2.9882  1.1528 -1.3850
  753SOL    HW2 2259   1.516   0.497   1.807 -1.4416  2.3242  2.6599
  754SOL     OW 2260   1.674   2.404   1.689 -0.4420 -0.3040  0.3134
  754SOL    HW1 2261   1.771   2.441   1.697  3.8808 -1.2918  1.5605
  754SOL    HW2 2262   1.629   2.439   1.607  0.9889 -1.1194  1.6427
  755SOL     OW 2263   2.770   0.215   0.736 -0.1696 -0.1808  0.0323
  755SOL    HW1 2264   2.801   0.174   0.825  2.7940 -0.2679 -1.0842
  755SOL    HW2 2265   2.782   0.158   0.652 -3.2979 -1.3060 -0.1814
  756SOL     OW 2266   1.402   1.496   2.961  0.3305  0.2325 -0.0066
  756SOL    HW1 2267   1.395   1.412   2.901  0.5501 -1.0095  0.7155
  756SOL    HW2 2268   1.491   1.544   2.946  1.1377 -1.1771 -0.2738
  757SOL     OW 2269   1.049   0.152   1.392 -0.0779 -0.2714 -0.0545
  757SOL    HW1 2270   1.004   0.138   1.300 -0.4756  2.1642 -0.6600
  757SOL    HW2 2271   0.987   0.202   1.455  0.1880  1.5071 -0.7299
  758SOL     OW 2272   0.711   0.139   1.352 -0.4215 -0.1877 -0.1410
  758SOL    HW1 2273   0.707   0.210   1.422  1.8143  0.5065 -1.1671
  758SOL    HW2 2274   0.735   0.047   1.392  1.3096 -2.7068 -2.6762
  759SOL     OW 2275   0.324   0.602   1.032 -0.0604  0.6358  0.1929
  759SOL    HW1 2276   0.321   0.577   0.935  0.4967 -1.0209 -0.6153
  759SOL    HW2 2277   0.227   0.617   1.062 -0.4106  0.0710 -2.5101
  760SOL     OW 2278   2.513   1.377   1.048  0.0822 -0.4573 -0.0776
  760SOL    HW1 2279   2.588   1.320   1.006  0.6688  1.3860  2.4995
  760SOL    HW2 2280   2.435   1.317   1.073  2.4611 -1.3860 -0.4854
  761SOL     OW 2281   1.596   0.677   0.348  0.6862  0.4852  0.0438
  761SOL    HW1 2282   1.612   0.577   0.362  2.3014 -0.0590 -0.8368
  761SOL    HW2 2283   1.500   0.698   0.385 -1.3696  0.6001  0.1831
  762SOL     OW 2284   2.214   2.397   1.287  0.1610 -0.3019 -0.1494
  762SOL    HW1 2285   2.191   2.436   1.198 -0.1146  1.0937  1.6503
  762SOL    HW2 2286   2.299   2.437   1.329  1.8425  1.2513  3.0741
  763SOL     OW 2287   1.313   1.465   1.865 -0.5103 -0.4479  0.0419
  763SOL    HW1 2288   1.273   1.562   1.875 -0.6272  1.9557  1.0886
  763SOL    HW2 2289   1.291   1.430   1.770  0.0195 -1.4264  0.6987
  764SOL     OW 2290   2.724   1.862   2.221 -0.2735 -0.0962  0.0179
  764SOL    HW1 2291   2.761   1.920   2.295 -0.9332  0.3951 -1.5433
  764SOL    HW2 2292   2.654   1.914   2.164  0.7441 -0.3852  0.2268
  765SOL     OW 2293   0.847   2.578   1.021 -0.0188 -0.0893 -0.3514
  765SOL    HW1 2294   0.943   2.541   1.033 -0.7347 -0.2157  0.5232
  765SOL    HW2 2295   0.809   2.614   1.108  4.9271 -1.7135 -3.7852
  766SOL     OW 2296   0.833   1.983   2.439 -0.2643 -0.3592 -0.1679
  766SOL    HW1 2297   0.770   1.935   2.507 -3.4385  0.5375  1.7721
  766SOL    HW2 2298   0.847   2.079   2.470  3.1036  0.5046  0.8614
  767SOL     OW 2299   2.011   0.750   2.411 -0.1033 -0.2365 -0.0730
  767SOL    HW1 2300   2.104   0.727   2.384 -0.7308  1.7135 -0.3977
  767SOL    HW2 2301   2.008   0.837   2.469  0.5420 -1.4832 -1.1293
  768SOL     OW 2302   1.086   2.681   2.594 -0.1388 -0.0160  0.6738
  768SOL    HW1 2303   1.112   2.773   2.566  0.4228 -3.0155 -0.2319
  768SOL    HW2 2304   1.124   2.662   2.686 -0.9656 -3.7726 -3.2064
  769SOL     OW 2305   2.994   2.483   0.899 -0.4036  0.4213  0.0066
  769SOL    HW1 2306   2.920   2.533   0.950 -0.8495 -2.1486 -0.1675
  769SOL    HW2 2307   3.086   2.497   0.940  0.1556 -0.9067 -2.0302
  770SOL     OW 2308   0.618   2.939   0.127  0.4093 -0.2413  0.2472
  770SOL    HW1 2309   0.525   2.896   0.125 -2.2128 -0.8052  1.8322
  770SOL    HW2 2310   0.684   2.867   0.102 -1.3204 -0.0817  0.6189
  771SOL     OW 2311   1.148   2.103   2.427 -0.2699  0.0537  0.4860
  771SOL    HW1 2312   1.111   2.112   2.332 -3.1261 -2.3070  1.8658
  771SOL    HW2 2313   1.074   2.082   2.491 -0.9937  0.7079  0.7596
  772SOL     OW 2314   2.078   0.207   2.012 -0.0995  0.4367 -0.2350
  772SOL    HW1 2315   2.174   0.210   2.047 -0.0961 -0.4887 -0.7685
  772SOL    HW2 2316   2.044   0.110   1.999  1.0312 -0.9323 -2.8965
  773SOL     OW 2317   0.875   2.915   1.934 -0.1088  0.3137  0.3739
  773SOL    HW1 2318   0.836   2.827   1.913 -0.7940  2.6619  1.4637
  773SOL    HW2 2319   0.917   2.911   2.033  1.7306 -0.5621  2.3925
  774SOL     OW 2320   1.605   0.866   2.193  0.3275 -0.3948  0.9403
  774SOL    HW1 2321   1.523   0.894   2.136 -0.7200  0.5964 -0.3160
  774SOL    HW2 2322   1.629   0.768   2.169  1.4837 -0.0279 -2.4225
  775SOL     OW 2323   2.191   3.068   0.278  0.2049 -0.2229 -0.2600
  775SOL    HW1 2324   2.234   2.994   0.223  0.6414  2.4659  2.3433
  775SOL    HW2 2325   2.129   3.028   0.351 -0.1196 -1.8194  1.3351
  776SOL     OW 2326   2.307   0.949   1.732 -0.0625  0.1868  0.3705
  776SOL    HW1 2327   2.362   0.946   1.813  0.6692 -2.2397 -0.0749
  776SOL    HW2 2328   2.235   1.026   1.733  0.2227  2.0412  0.0765
  777SOL     OW 2329   3.090   1.132   2.404  0.0629  0.1016 -0.0440
  777SOL    HW1 2330   0.065   1.125   2.334  3.5457  1.5677 -2.9098
  777SOL    HW2 2331   3.005   1.098   2.366  0.7399  0.9158  0.0051
  778SOL     OW 2332   2.305   0.544   2.090  0.1396  0.0860 -0.2406
  778SOL    HW1 2333   2.241   0.622   2.062 -1.7228  1.3283  1.7413
  778SOL    HW2 2334   2.394   0.551   2.052 -3.2433  1.4282 -0.5639
  779SOL     OW 2335   0.016   0.098   3.034 -0.1415  0.6738 -0.3971
  779SOL    HW1 2336   0.005   0.135   0.032 -2.4216 -1.0261  0.9433
  779SOL    HW2 2337   3.080   0.003   3.042 -1.2344  1.0967 -1.0450
  780SOL     OW 2338   2.124   2.958   2.323 -0.2972 -0.0024 -0.2263
  780SOL    HW1 2339   2.175   3.020   2.385 -0.0763 -1.6555  0.2903
  780SOL    HW2 2340   2.092   3.009   2.242  0.7269  1.5379  2.1719
  781SOL     OW 2341   0.063   0.759   1.767 -0.3635 -0.0586  0.4647
  781SOL    HW1 2342   0.044   0.851   1.728 -3.2354  1.4043  1.1089
  781SOL    HW2 2343   0.062   0.759   1.870  0.2750 -0.2700  2.6626
  782SOL     OW 2344   2.130   2.032   0.164 -0.6480  0.1423  0.1775
  782SOL    HW1 2345   2.214   2.013   0.219  0.9058 -2.2554  0.0477
  782SOL    HW2 2346   2.119   2.131   0.142 -1.2137  2.1189  1.3855
  783SOL     OW 2347   0.413   2.322   1.197 -0.0725  0.7429 -0.1567
  783SOL    HW1 2348   0.351   2.401   1.213 -1.4851  1.2491  0.7432
  783SOL    HW2 2349   0.504   2.334   1.238 -1.3473 -1.9372 -0.0976
  784SOL     OW 2350   2.496   0.778   2.247  0.3156 -0.3891 -0.2904
  784SOL    HW1 2351   2.408   0.734   2.278 -1.2423 -2.0860 -0.1774
  784SOL    HW2 2352   2.482   0.858   2.186  0.3474  0.1921 -0.1930
  785SOL     OW 2353   0.153   0.442   1.322 -0.2411 -0.0834  0.1081
  785SOL    HW1 2354   0.131   0.513   1.250  1.2165 -1.2906  0.9195
  785SOL    HW2 2355   0.218   0.476   1.395 -0.8323  1.2662 -1.5464
  786SOL     OW 2356   1.610   2.882   0.418 -0.6294 -0.8636 -0.1056
  786SOL    HW1 2357   1.612   2.807   0.489  0.9759 -4.8048 -1.5400
  786SOL    HW2 2358   1.647   2.850   0.332 -0.5379 -0.9803  2.2097
  787SOL     OW 2359   1.280   0.152   0.715 -0.5630 -0.1579  0.0985
  787SOL    HW1 2360   1.178   0.143   0.707  3.6902  2.6250 -1.8069
  787SOL    HW2 2361   1.329   0.075   0.677 -2.4269  3.2113  1.2508
  788SOL     OW 2362   0.019   1.457   1.048  0.6481 -0.1098 -0.0365
  788SOL    HW1 2363   3.050   1.513   0.992 -2.5036 -0.8560  2.6072
  788SOL    HW2 2364   3.078   1.363   1.064  0.3723 -1.3121  1.1751
  789SOL     OW 2365   2.724   0.686   2.175  0.2388  0.2377  0.1535
  789SOL    HW1 2366   2.633   0.716   2.212 -0.8875  0.1860  1.1120
  789SOL    HW2 2367   2.785   0.668   2.256  1.8173 -1.2535  1.4290
  790SOL     OW 2368   0.850   0.323   3.068 -0.5250  0.2300  0.0050
  790SOL    HW1 2369   0.858   0.356   2.971  2.2230 -0.0780  1.8708
  790SOL    HW2 2370   0.939   0.338   0.026  1.0034  0.3236  1.2893
  791SOL     OW 2371   2.595   2.850   3.058  0.0729 -0.8325  0.0985
  791SOL    HW1 2372   2.566   2.894   2.974  0.3185  0.5422 -0.3876
  791SOL    HW2 2373   2.577   2.754   3.054  0.5735  2.6483 -1.5055
  792SOL     OW 2374   1.281   0.927   1.591  0.6344  0.3403  0.2501
  792SOL    HW1 2375   1.299   0.871   1.508  0.6734  1.6855  0.7364
  792SOL    HW2 2376   1.276   0.864   1.676 -1.4050 -2.5443  1.8268
  793SOL     OW 2377   2.555   0.514   1.276 -0.4564  0.6332  0.4090
  793SOL    HW1 2378   2.647   0.501   1.234 -0.4492  0.8500  0.7678
  793SOL    HW2 2379   2.489   0.556   1.212  2.2318  0.7947  1.1610
  794SOL     OW 2380   2.751   0.238   2.155  0.3363  0.0456  0.2549
  794SOL    HW1 2381   2.687   0.280   2.227  0.2867 -0.1263  1.7801
  794SOL    HW2 2382   2.756   0.299   2.070 -0.7067 -0.3200  0.2616
  795SOL     OW 2383   0.608   1.820   2.970 -0.4871 -0.1023  0.5973
  795SOL    HW1 2384   0.694   1.799   2.917 -0.0041 -0.9607 -0.4404
  795SOL    HW2 2385   0.619   1.904   3.022  0.1696 -0.3088  1.0807
  796SOL     OW 2386   2.363   0.724   2.598 -0.0357  0.0611 -0.5034
  796SOL    HW1 2387   2.389   0.822   2.575  0.7048  0.8401 -1.8216
  796SOL    HW2 2388   2.291   0.717   2.665 -0.8460  0.2311 -1.1592
  797SOL     OW 2389   2.456   1.940   0.026 -0.0526 -0.4320  0.0534
  797SOL    HW1 2390   2.557   1.955   0.007  4.1754  1.4142 -1.2701
  797SOL    HW2 2391   2.401   1.980   3.043  0.4179 -1.1650 -2.5756
  798SOL     OW 2392   2.992   0.350   1.303  0.3222  0.1149  0.2837
  798SOL    HW1 2393   2.953   0.325   1.393  0.1532  1.8623 -1.5542
  798SOL    HW2 2394   3.091   0.357   1.303 -2.0585  0.9973 -1.4192
  799SOL     OW 2395   0.325   0.294   1.691  0.0945 -0.1739  0.4029
  799SOL    HW1 2396   0.390   0.316   1.615  1.3462  0.3964  0.8789
  799SOL    HW2 2397   0.350   0.346   1.776  0.2882  1.8088 -1.7034
  800SOL     OW 2398   0.262   1.765   3.028  0.8122 -0.4111 -0.0175
  800SOL    HW1 2399   0.220   1.805   0.013 -2.0774  1.5726 -1.5012
  800SOL    HW2 2400   0.366   1.773   3.032 -1.1358  3.2470 -0.6147
  801SOL     OW 2401   1.634   1.801   0.890  0.2415  0.4668  0.5871
  801SOL    HW1 2402   1.577   1.859   0.942  2.8258 -1.9390 -2.9589
  801SOL    HW2 2403   1.727   1.848   0.904 -0.3289  1.4671 -0.0746
  802SOL     OW 2404   1.274   0.937   0.197  0.4305  0.1763  0.0535
  802SOL    HW1 2405   1.360   0.960   0.150 -1.3916 -1.2770  1.0028
  802SOL    HW2 2406   1.215   0.876   0.135 -0.7668 -0.6886 -4.0683
  803SOL     OW 2407   0.986   1.551   1.951 -0.1484 -0.1486 -0.3365
  803SOL    HW1 2408   0.905   1.608   1.933 -2.3112 -1.5618  1.5232
  803SOL    HW2 2409   0.977   1.460   1.906  0.2645 -2.9681 -2.9718
  804SOL     OW 2410   1.695   2.411   1.224  0.1921 -0.4233  0.3598
  804SOL    HW1 2411   1.724   2.324   1.265 -1.4950 -0.4735 -0.0271
  804SOL    HW2 2412   1.660   2.399   1.132  0.0726  1.6768 -0.4090
  805SOL     OW 2413   0.227   2.284   2.484 -0.1207  0.0369  0.1744
  805SOL    HW1 2414   0.157   2.293   2.407  2.5424  0.3688 -1.5059
  805SOL    HW2 2415   0.320   2.291   2.435  2.7000 -1.6120 -1.7133
  806SOL     OW 2416   1.055   2.911   0.169  0.6649  0.1023  0.4298
  806SOL    HW1 2417   1.018   3.006   0.190  2.1032 -0.6209  0.5317
  806SOL    HW2 2418   0.990   2.837   0.193  2.0374  0.3820  0.8787
  807SOL     OW 2419   2.583   1.036   2.862 -0.3536  0.3647 -0.4217
  807SOL    HW1 2420   2.647   0.969   2.821  1.9733 -1.3441  1.1965
  807SOL    HW2 2421   2.631   1.124   2.856  0.1458 -0.0127 -2.6530
  808SOL     OW 2422   1.379   2.090   0.817 -0.0254 -0.3645  0.5757
  808SOL    HW1 2423   1.312   2.142   0.763  1.1741 -1.7708  0.4117
  808SOL    HW2 2424   1.436   2.024   0.760  2.0416  2.3714 -3.3179
  809SOL     OW 2425   0.299   0.044   0.601 -0.1063 -0.1744  0.1394
  809SOL    HW1 2426   0.278   3.042   0.578 -0.5479  0.8907  1.4156
  809SOL    HW2 2427   0.246   0.098   0.532  0.3229 -0.7443 -1.8375
  810SOL     OW 2428   1.132   1.416   0.707 -0.4818 -0.2254 -0.4365
  810SOL    HW1 2429   1.165   1.441   0.802  1.3642  1.5895  1.3605
  810SOL    HW2 2430   1.063   1.339   0.704  0.1843  1.1981  0.4748
  811SOL     OW 2431   1.229   2.929   1.157  0.8145  0.3510 -0.5506
  811SOL    HW1 2432   1.275   2.847   1.199  0.0267  0.8914  0.0685
  811SOL    HW2 2433   1.263   3.017   1.199 -2.2831 -1.2398 -1.1507
  812SOL     OW 2434   1.289   0.121   0.354  0.1478  0.0551 -0.1179
  812SOL    HW1 2435   1.383   0.077   0.352 -0.7657 -1.6574 -2.7949
  812SOL    HW2 2436   1.221   0.062   0.406 -1.3144 -0.7043  0.1749
  813SOL     OW 2437   0.989   2.966   2.179 -0.0647  0.3665  0.1345
  813SOL    HW1 2438   0.934   2.925   2.254 -0.6066 -0.7211  1.5993
  813SOL    HW2 2439   1.062   2.898   2.144  0.6875  0.3062 -0.5280
  814SOL     OW 2440   0.965   2.908   1.307  0.5539 -0.0505 -0.1154
  814SOL    HW1 2441   0.901   2.846   1.265  0.2175  0.3642 -0.5368
  814SOL    HW2 2442   1.051   2.908   1.251 -0.6985  1.3681  1.4337
  815SOL     OW 2443   0.111   2.436   0.489 -0.7847 -0.5072 -0.5613
  815SOL    HW1 2444   0.145   2.466   0.402  0.1987  1.1430  4.4277
  815SOL    HW2 2445   0.058   2.516   0.531 -1.6124 -0.1017 -0.1880
  816SOL     OW 2446   2.363   1.299   2.688  1.2768 -0.1050 -0.5261
  816SOL    HW1 2447   2.336   1.272   2.782  2.3807 -0.3304  0.3231
  816SOL    HW2 2448   2.438   1.237   2.654 -0.9021 -2.1758  0.1039
  817SOL     OW 2449   1.965   2.398   2.493 -0.0583 -0.2915 -0.1642
  817SOL    HW1 2450   2.014   2.415   2.576 -2.0324  0.2587 -1.6439
  817SOL    HW2 2451   1.954   2.485   2.439  1.7710  0.4510 -1.0711
  818SOL     OW 2452   1.024   1.109   0.442  0.0848 -0.1188  0.1716
  818SOL    HW1 2453   1.041   1.017   0.482  0.0017 -1.9902  1.2087
  818SOL    HW2 2454   1.107   1.149   0.397 -0.0312  0.7639  1.5753
  819SOL     OW 2455   1.486   2.042   0.074 -0.2614 -0.1126  0.4733
  819SOL    HW1 2456   1.432   2.016   0.153 -0.1301 -0.7368 -2.4209
  819SOL    HW2 2457   1.473   1.976   0.000 -0.8642 -0.2383  4.4562
  820SOL     OW 2458   0.576   0.834   0.058  0.3337  0.1906  0.2656
  820SOL    HW1 2459   0.556   0.734   0.044  2.1015 -0.0197  2.3133
  820SOL    HW2 2460   0.500   0.894   0.029 -0.0397  0.1415 -1.1457
  821SOL     OW 2461   0.378   0.088   1.462  0.0919 -0.5215 -0.3339
  821SOL    HW1 2462   0.360   0.136   1.549  1.3705 -1.6514  0.5677
  821SOL    HW2 2463   0.320   0.123   1.386  0.7606 -0.4192 -0.5307
  822SOL     OW 2464   2.005   2.152   2.411 -0.4838  0.0328 -0.2548
  822SOL    HW1 2465   1.998   2.240   2.462 -0.7050 -1.6994  2.0690
  822SOL    HW2 2466   2.001   2.081   2.488  1.4931 -1.2296  0.0253
  823SOL     OW 2467   0.698   0.620   1.887 -0.4689 -0.2359 -0.6028
  823SOL    HW1 2468   0.759   0.562   1.951 -1.3347 -0.5102  3.5205
  823SOL    HW2 2469   0.606   0.617   1.926  0.7687  0.6296  0.2210
  824SOL     OW 2470   2.276   0.160   1.751  0.0746  0.0984  0.2305
  824SOL    HW1 2471   2.312   0.248   1.730  0.3685 -3.9735 -0.7102
  824SOL    HW2 2472   2.175   0.165   1.775  1.3154 -0.1941  1.5086
  825SOL     OW 2473   0.586   1.295   2.792 -0.5604 -0.5471  0.2253
  825SOL    HW1 2474   0.496   1.331   2.820 -0.2977 -2.2163 -1.5762
  825SOL    HW2 2475   0.649   1.373   2.792  0.5959  1.6254 -1.8314
  826SOL     OW 2476   1.899   0.517   2.548 -0.5069 -0.0655 -0.3112
  826SOL    HW1 2477   1.943   0.603   2.514  0.0483 -0.7252 -2.3698
  826SOL    HW2 2478   1.959   0.473   2.619  1.1484  1.5733  0.1408
  827SOL     OW 2479   0.813   2.316   2.422 -0.2749 -0.2551 -0.0325
  827SOL    HW1 2480   0.728   2.301   2.477  3.3524 -1.0074  0.7551
  827SOL    HW2 2481   0.782   2.337   2.323 -3.5797  1.1455 -0.1483
  828SOL     OW 2482   2.628   0.249   1.410  0.6066  0.1916  0.2055
  828SOL    HW1 2483   2.662   0.174   1.352  0.8294  1.0115  0.2091
  828SOL    HW2 2484   2.564   0.309   1.356 -0.1274 -0.2723  0.3608
  829SOL     OW 2485   1.301   1.765   1.310  0.1339 -0.1987  0.6614
  829SOL    HW1 2486   1.376   1.718   1.259  3.7644  1.6917 -2.2655
  829SOL    HW2 2487   1.249   1.702   1.370 -1.2866 -0.3098 -3.7375
  830SOL     OW 2488   0.737   0.891   1.951  0.1844  0.6303  0.1533
  830SOL    HW1 2489   0.709   0.801   1.920 -0.4445  2.3873  1.5302
  830SOL    HW2 2490   0.749   0.899   2.052  0.2609 -2.5122 -0.2163
  831SOL     OW 2491   2.785   1.735   0.307 -0.2103  0.0570 -0.1707
  831SOL    HW1 2492   2.709   1.717   0.242  1.5411 -2.7666  0.2355
  831SOL    HW2 2493   2.850   1.794   0.264 -2.3047 -0.2565 -0.7918
  832SOL     OW 2494   1.218   2.835   0.422 -0.0241  0.1518  0.2035
  832SOL    HW1 2495   1.148   2.883   0.365  0.3976 -0.1458 -1.8327
  832SOL    HW2 2496   1.263   2.888   0.495  2.1643 -2.2692  3.1532
  833SOL     OW 2497   2.886   0.293   1.548  0.4489 -0.5665 -0.6730
  833SOL    HW1 2498   2.921   0.360   1.610 -3.8309 -2.8893 -2.9639
  833SOL    HW2 2499   2.784   0.294   1.534 -1.1944 -1.5245 -0.2706
  834SOL     OW 2500   0.213   0.867   0.817 -0.3118  0.8256 -0.4224
  834SOL    HW1 2501   0.228   0.905   0.911  0.4349 -0.4041 -1.8510
  834SOL    HW2 2502   0.286   0.802   0.784  0.6656  0.2057 -1.5388
  835SOL     OW 2503   2.548   3.033   0.709 -0.4627  0.2086 -0.0612
  835SOL    HW1 2504   2.559   3.068   0.614 -0.9775  0.1392  1.1156
  835SOL    HW2 2505   2.625   2.975   0.729 -1.2451 -2.8066 -1.1834
  836SOL     OW 2506   1.217   1.789   2.828  0.1814 -0.5513 -0.6005
  836SOL    HW1 2507   1.143   1.853   2.809  2.3729 -0.4730  0.4405
  836SOL    HW2 2508   1.183   1.702   2.883  0.2958 -0.8658  1.7574
  837SOL     OW 2509   1.619   1.683   0.263 -0.5630  0.5526 -0.4669
  837SOL    HW1 2510   1.576   1.742   0.199 -0.0011 -0.5131  0.9100
  837SOL    HW2 2511   1.547   1.619   0.302 -0.1267 -0.1392 -1.0749
  838SOL     OW 2512   2.891   0.644   2.362 -0.2571 -0.4284 -0.2961
  838SOL    HW1 2513   2.987   0.682   2.365 -0.6266 -2.5250  0.3873
  838SOL    HW2 2514   2.831   0.698   2.424 -0.0749  0.2025  1.2670
  839SOL     OW 2515   0.689   0.991   2.521 -0.4561  0.1690 -0.3926
  839SOL    HW1 2516   0.700   1.062   2.455  1.7682 -1.6879  0.7247
  839SOL    HW2 2517   0.683   1.022   2.616  0.5902 -1.0755 -2.2790
  840SOL     OW 2518   1.342   0.638   3.040 -0.0658  0.1523  0.2561
  840SOL    HW1 2519   1.428   0.671   3.083 -1.2915 -1.5899  2.6234
  840SOL    HW2 2520   1.263   0.685   3.073  1.7998 -0.4972 -0.2476
  841SOL     OW 2521   0.636   2.814   0.683  0.2563  0.2139 -0.0329
  841SOL    HW1 2522   0.559   2.746   0.688  2.2663  2.3525 -2.7189
  841SOL    HW2 2523   0.592   2.908   0.687  3.3460 -0.3615  0.4894
  842SOL     OW 2524   0.539   0.652   0.560 -0.0737  0.9109  0.3554
  842SOL    HW1 2525   0.507   0.564   0.523 -1.5446  2.7177  1.9025
  842SOL    HW2 2526   0.525   0.739   0.507 -1.7762  0.1899  0.3554
  843SOL     OW 2527   0.518   0.763   1.133 -0.7483  0.2082 -0.1941
  843SOL    HW1 2528   0.451   0.710   1.079 -0.1503  0.8044  0.6152
  843SOL    HW2 2529   0.534   0.852   1.079  1.9612  2.6351  0.0810
  844SOL     OW 2530   2.161   2.450   2.712 -0.2970  0.3272  0.3816
  844SOL    HW1 2531   2.163   2.547   2.704 -2.1183 -0.9360  0.7698
  844SOL    HW2 2532   2.240   2.412   2.665 -1.4206  1.5509  1.3875
  845SOL     OW 2533   2.016   0.048   1.726 -0.5595 -0.1655  0.7419
  845SOL    HW1 2534   2.084   3.066   1.743  2.7881 -1.5534  3.2918
  845SOL    HW2 2535   1.921   0.025   1.744  3.3423  2.0615 -3.6975
  846SOL     OW 2536   2.109   1.331   2.347  0.1719  0.7994 -0.2967
  846SOL    HW1 2537   2.173   1.329   2.270  0.4012  2.5912  0.9507
  846SOL    HW2 2538   2.124   1.247   2.402  2.0637  2.0684  1.2981
  847SOL     OW 2539   2.013   3.042   2.023  0.6062  0.1620 -0.3199
  847SOL    HW1 2540   1.930   2.987   2.052 -1.8968 -0.5486  1.5216
  847SOL    HW2 2541   2.070   2.997   1.953 -0.4568  0.0436 -0.7633
  848SOL     OW 2542   0.109   2.894   0.198  0.4664  0.3532  0.2113
  848SOL    HW1 2543   0.049   2.906   0.110  1.4154  2.4179 -2.2275
  848SOL    HW2 2544   0.058   2.899   0.285 -0.3323  0.2906 -1.2207
  849SOL     OW 2545   0.126   2.791   1.174  0.0480 -0.2474 -0.1299
  849SOL    HW1 2546   0.079   2.809   1.258  0.2479  3.2325 -2.3809
  849SOL    HW2 2547   0.185   2.871   1.145  0.2320  0.2186 -2.5561
  850SOL     OW 2548   0.320   1.830   0.617 -0.4511  0.0471  0.4802
  850SOL    HW1 2549   0.389   1.758   0.642 -3.1459 -1.0297  0.5353
  850SOL    HW2 2550   0.364   1.909   0.565 -1.5465  1.7510 -1.3893
  851SOL     OW 2551   2.408   0.855   2.951  0.1602 -0.4332 -0.1539
  851SOL    HW1 2552   2.410   0.785   2.876  0.8223  1.2518  3.0506
  851SOL    HW2 2553   2.471   0.931   2.934  0.5546 -1.6601 -2.4929
  852SOL     OW 2554   1.962   1.977   2.614 -0.2063 -0.1409 -0.4718
  852SOL    HW1 2555   1.942   1.884   2.581  1.6733  0.0050 -0.0162
  852SOL    HW2 2556   1.926   1.986   2.706  0.4443 -1.4667 -2.2287
  853SOL     OW 2557   0.562   1.881   0.199  0.3076  0.2609 -0.5419
  853SOL    HW1 2558   0.551   1.780   0.194  1.8655  1.1026  0.1623
  853SOL    HW2 2559   0.662   1.904   0.188 -0.6899  0.2565 -2.9946
  854SOL     OW 2560   1.776   1.056   2.105 -0.0460  0.2753 -0.3574
  854SOL    HW1 2561   1.722   0.992   2.160  0.1834  0.7540 -1.2847
  854SOL    HW2 2562   1.725   1.090   2.028  0.5215 -0.3727  2.4571
  855SOL     OW 2563   0.629   2.383   3.073 -0.1450  0.3916  0.0513
  855SOL    HW1 2564   0.676   2.304   0.019 -1.9828  2.5766  2.4411
  855SOL    HW2 2565   0.554   2.358   3.017 -0.1843  1.8614  1.0952
  856SOL     OW 2566   0.272   3.050   2.106 -0.0699 -0.3250 -0.4256
  856SOL    HW1 2567   0.261   3.011   2.013 -1.9341  3.3753 -1.8167
  856SOL    HW2 2568   0.367   3.051   2.136  1.4732 -0.8936  2.6194
  857SOL     OW 2569   0.525   0.118   1.832 -0.1504  0.2505 -0.7915
  857SOL    HW1 2570   0.592   0.099   1.903 -0.8694 -0.8472 -1.0495
  857SOL    HW2 2571   0.454   0.181   1.865 -0.4420  1.0681  1.8829
  858SOL     OW 2572   0.327   1.904   2.218  0.0253 -0.2445  0.2443
  858SOL    HW1 2573   0.293   1.961   2.299  2.0502  0.4663 -0.5059
  858SOL    HW2 2574   0.327   1.969   2.141 -0.8188 -0.0528  0.1014
  859SOL     OW 2575   1.999   2.371   1.485 -0.2690 -0.0149  0.0323
  859SOL    HW1 2576   2.079   2.364   1.427 -1.7140  2.0268 -1.0464
  859SOL    HW2 2577   1.976   2.470   1.506 -0.1920  1.2894 -0.5383
  860SOL     OW 2578   1.692   0.378   0.741 -0.3715 -0.1568  0.0744
  860SOL    HW1 2579   1.703   0.473   0.780  1.5505 -0.6989 -1.9762
  860SOL    HW2 2580   1.596   0.356   0.711 -1.1458  2.4597 -0.9294
  861SOL     OW 2581   0.070   0.632   1.139  0.1941 -0.5082 -0.1646
  861SOL    HW1 2582   0.038   0.701   1.206  1.4310 -1.4766 -0.8545
  861SOL    HW2 2583   3.093   0.607   1.070 -1.3451  0.6094 -3.7607
  862SOL     OW 2584   2.301   0.891   1.332 -0.1546 -0.0926 -0.2007
  862SOL    HW1 2585   2.270   0.848   1.420  0.7953  0.8433 -0.0071
  862SOL    HW2 2586   2.268   0.988   1.330 -0.4219 -2.5248 -1.6537
  863SOL     OW 2587   0.325   1.172   1.280 -0.0919  0.3553  0.4395
  863SOL    HW1 2588   0.270   1.149   1.363 -2.5053  0.5875  0.2243
  863SOL    HW2 2589   0.425   1.185   1.298  1.2895  0.4620 -1.7741
  864SOL     OW 2590   2.396   3.064   1.892 -0.0119 -0.2102 -0.1484
  864SOL    HW1 2591   2.493   3.036   1.877  0.2014  1.4169 -0.6703
  864SOL    HW2 2592   2.366   0.050   1.837 -1.0587  1.1914 -0.0323
  865SOL     OW 2593   1.003   0.311   2.333  0.5282 -0.3850 -0.0691
  865SOL    HW1 2594   1.034   0.320   2.237  1.2687 -0.1446 -1.1367
  865SOL    HW2 2595   1.045   0.378   2.393 -0.2399 -0.9547  0.4343
  866SOL     OW 2596   2.317   2.898   0.682  0.7090 -0.8576 -0.6362
  866SOL    HW1 2597   2.399   2.954   0.707 -1.5428  0.6200 -0.1202
  866SOL    HW2 2598   2.340   2.821   0.615 -3.7102 -2.4220 -0.6389
  867SOL     OW 2599   2.758   2.862   0.756  0.0290 -0.2640  0.7402
  867SOL    HW1 2600   2.695   2.785   0.769  2.7470  2.4766  1.2899
  867SOL    HW2 2601   2.804   2.886   0.840 -2.0237  1.4703 -1.9526
  868SOL     OW 2602   1.615   1.647   2.899  0.1864  0.4491  0.1427
  868SOL    HW1 2603   1.674   1.640   2.979 -0.6955  1.0950 -0.6707
  868SOL    HW2 2604   1.614   1.739   2.859 -2.5097 -0.1506 -0.2129
  869SOL     OW 2605   2.649   2.248   0.693 -0.7108  0.6309 -0.1859
  869SOL    HW1 2606   2.580   2.208   0.759  1.9003 -0.2740 -0.4452
  869SOL    HW2 2607   2.634   2.340   0.660  0.7023 -1.0401 -0.7045
  870SOL     OW 2608   2.685   2.199   0.359  0.8123 -0.1850 -0.5531
  870SOL    HW1 2609   2.582   2.218   0.359 -1.5398  1.2606  0.3370
  870SOL    HW2 2610   2.702   2.115   0.413 -0.3848  1.1198 -0.8026
  871SOL     OW 2611   0.364   1.218   1.002 -0.3423 -0.1614 -0.0939
  871SOL    HW1 2612   0.358   1.211   1.105 -0.1372  1.4928 -1.1883
  871SOL    HW2 2613   0.350   1.312   0.959 -1.0963 -0.1329 -1.8710
  872SOL     OW 2614   1.014   1.770   2.445  0.5171  0.1205  0.2148
  872SOL    HW1 2615   1.085   1.786   2.375 -1.5192  0.7217 -0.4057
  872SOL    HW2 2616   0.957   1.854   2.450  0.8304  2.9156 -0.2310
  873SOL     OW 2617   0.233   2.924   1.851  0.5427  0.1133  0.2638
  873SOL    HW1 2618   0.181   2.849   1.810 -1.5673  2.6884 -1.2919
  873SOL    HW2 2619   0.318   2.938   1.791  1.7292  0.3848 -1.1405
  874SOL     OW 2620   0.867   0.530   2.058 -0.0568  0.0351  0.3674
  874SOL    HW1 2621   0.938   0.599   2.070 -1.3896 -2.6004 -2.0859
  874SOL    HW2 2622   0.911   0.437   2.058  0.9506 -1.8534  1.1278
  875SOL     OW 2623   2.782   0.175   1.027  0.9919 -0.0316 -0.2401
  875SOL    HW1 2624   2.799   0.269   1.058 -1.8037 -2.1733 -0.0674
  875SOL    HW2 2625   2.715   0.136   1.095  0.5094  1.4362  0.3375
  876SOL     OW 2626   0.567   1.219   0.376  0.8654  0.0148  0.4096
  876SOL    HW1 2627   0.528   1.199   0.284  1.2165 -1.4192 -0.3706
  876SOL    HW2 2628   0.661   1.253   0.363 -0.3543 -0.0286 -0.1142
  877SOL     OW 2629   1.148   1.094   1.760 -0.0416 -0.3712 -0.4756
  877SOL    HW1 2630   1.198   1.055   1.680  0.1003 -3.6832 -0.8858
  877SOL    HW2 2631   1.073   1.027   1.797 -0.6095 -0.0797 -3.1629
  878SOL     OW 2632   2.313   2.112   0.529  0.6482 -0.0728 -0.2088
  878SOL    HW1 2633   2.334   2.066   0.441  0.7636  0.7795  0.9810
  878SOL    HW2 2634   2.367   2.197   0.537 -0.8120 -3.5192  0.6100
  879SOL     OW 2635   2.637   1.637   1.547  0.4504 -0.4639  0.3751
  879SOL    HW1 2636   2.690   1.594   1.470  1.3120 -1.5868  1.1471
  879SOL    HW2 2637   2.694   1.701   1.602  1.3971 -0.2264  0.6604
  880SOL     OW 2638   1.147   2.639   0.987  0.1017  0.2553 -0.8418
  880SOL    HW1 2639   1.183   2.731   1.002 -1.6867 -2.2296  0.8537
  880SOL    HW2 2640   1.141   2.587   1.073 -2.9232 -2.3128  0.6515
  881SOL     OW 2641   0.442   2.032   0.393 -0.0141 -0.7011  0.3374
  881SOL    HW1 2642   0.466   1.964   0.324 -1.9341 -1.1170 -1.4474
  881SOL    HW2 2643   0.388   2.103   0.351 -1.0502  0.0491 -0.0957
  882SOL     OW 2644   2.032   0.759   0.717 -0.2242  0.5867  0.5097
  882SOL    HW1 2645   2.022   0.700   0.632 -0.6408 -0.1203 -1.3755
  882SOL    HW2 2646   2.075   0.703   0.788  1.3865  0.6682 -0.5974
  883SOL     OW 2647   1.384   0.691   1.047 -0.0071 -0.0924  0.2691
  883SOL    HW1 2648   1.303   0.734   1.002 -2.4020 -2.5637  0.1556
  883SOL    HW2 2649   1.465   0.751   1.034 -0.0512 -1.3099 -1.4288
  884SOL     OW 2650   2.814   2.708   0.259  0.1584 -0.0131  0.4894
  884SOL    HW1 2651   2.830   2.798   0.214 -1.9313 -2.6993 -1.4035
  884SOL    HW2 2652   2.842   2.712   0.359 -1.3138  0.1297  2.2222
  885SOL     OW 2653   1.022   1.341   2.407 -0.0238  0.5870 -0.0795
  885SOL    HW1 2654   1.059   1.250   2.429  0.2588  1.2681 -1.6256
  885SOL    HW2 2655   1.058   1.369   2.317 -1.1157 -0.1653 -0.7489
  886SOL     OW 2656   1.363   1.703   2.595  0.2100 -0.0161 -0.0709
  886SOL    HW1 2657   1.296   1.704   2.673 -2.4153 -1.6107  1.9472
  886SOL    HW2 2658   1.384   1.799   2.567 -0.6102  1.9582  2.1427
  887SOL     OW 2659   1.006   0.436   1.156 -0.5339  0.0065 -0.2644
  887SOL    HW1 2660   1.068   0.442   1.073  2.4469 -0.4771 -0.2515
  887SOL    HW2 2661   1.052   0.484   1.237 -1.5986  0.6081  0.8912
  888SOL     OW 2662   2.194   0.586   1.807  0.1011 -0.2555 -0.1633
  888SOL    HW1 2663   2.138   0.498   1.796 -0.5671 -0.5410  1.0246
  888SOL    HW2 2664   2.155   0.655   1.868  1.6979  2.1054  1.8985
  889SOL     OW 2665   0.099   2.148   0.862 -0.7526  0.3001  0.1092
  889SOL    HW1 2666   0.078   2.164   0.761 -2.7283 -1.4619 -3.8918
  889SOL    HW2 2667   0.142   2.232   0.903  1.2005 -1.5388 -0.0104
  890SOL     OW 2668   1.511   2.315   0.512  0.2930 -0.1197  0.0514
  890SOL    HW1 2669   1.567   2.231   0.530 -0.7784  1.0130 -0.7042
  890SOL    HW2 2670   1.427   2.293   0.462 -1.1727 -0.2134  3.1907
  891SOL     OW 2671   2.775   0.815   2.972  0.2516 -0.0102  0.3522
  891SOL    HW1 2672   2.764   0.865   3.063 -0.8603  2.5782  0.5049
  891SOL    HW2 2673   2.842   0.862   2.917 -3.8782 -1.6506  2.6130
  892SOL     OW 2674   2.785   2.343   1.146  0.2419 -0.2515  0.8645
  892SOL    HW1 2675   2.784   2.434   1.100  0.4549  2.6745  0.2214
  892SOL    HW2 2676   2.882   2.314   1.164  1.5684  1.6086  1.8211
  893SOL     OW 2677   1.233   0.452   0.990 -0.2898 -0.1986 -0.0460
  893SOL    HW1 2678   1.300   0.378   0.978 -1.6701  1.7914  3.3739
  893SOL    HW2 2679   1.278   0.532   1.028  1.0103 -1.5141 -2.4172
  894SOL     OW 2680   2.876   0.459   0.737 -0.1611  0.2393 -0.5573
  894SOL    HW1 2681   2.791   0.509   0.703 -0.0570  2.7591 -1.1508
  894SOL    HW2 2682   2.869   0.358   0.729  3.7118 -1.4925  0.5408
  895SOL     OW 2683   1.873   1.403   2.528 -0.0147 -0.3056 -0.5077
  895SOL    HW1 2684   1.842   1.404   2.430 -0.8530  0.2360 -3.1766
  895SOL    HW2 2685   1.963   1.439   2.547 -1.8611 -0.9780 -1.3981
  896SOL     OW 2686   1.714   0.568   1.323 -0.8162 -0.0716 -0.5391
  896SOL    HW1 2687   1.750   0.564   1.228  0.9679  1.0554 -0.5210
  896SOL    HW2 2688   1.785   0.592   1.394  1.7035 -2.3286  2.7195
  897SOL     OW 2689   0.094   1.499   1.309  0.1767  0.1013  0.2746
  897SOL    HW1 2690   0.190   1.497   1.333 -4.3985 -1.9341 -0.7882
  897SOL    HW2 2691   0.090   1.501   1.209 -0.9878 -0.2019  1.8551
  898SOL     OW 2692   2.052   2.578   2.151 -0.0068  0.0830 -0.7445
  898SOL    HW1 2693   2.099   2.630   2.076 -2.4228  1.6348  3.7929
  898SOL    HW2 2694   2.100   2.487   2.166 -0.5296  1.1996 -1.3444
  899SOL     OW 2695   1.156   1.729   1.051 -0.0702 -0.0800 -0.4568
  899SOL    HW1 2696   1.174   1.807   1.118 -0.9956  1.7105  2.6422
  899SOL    HW2 2697   1.083   1.752   0.987 -0.1893 -1.3529  1.8085
  900SOL     OW 2698   1.393   1.948   2.481  0.2656 -0.0465 -0.1706
  900SOL    HW1 2699   1.445   1.934   2.394 -0.0219  0.0086  0.1474
  900SOL    HW2 2700   1.307   1.999   2.461 -2.0720  0.6227  1.8345
  901SOL     OW 2701   0.830   1.459   2.167 -0.2889 -0.6657  0.0684
  901SOL    HW1 2702   0.915   1.446   2.108  1.6481 -0.7816  0.2825
  901SOL    HW2 2703   0.853   1.418   2.257  0.9334 -1.8025  0.5208
  902SOL     OW 2704   2.336   1.490   0.416  0.2904 -0.4147 -0.0945
  902SOL    HW1 2705   2.397   1.444   0.347  1.8294 -0.0641 -2.2746
  902SOL    HW2 2706   2.351   1.438   0.504 -2.1343 -1.2588 -2.0907
  903SOL     OW 2707   2.104   1.612   0.337 -0.3853 -0.0223  0.3293
  903SOL    HW1 2708   2.185   1.550   0.344 -1.8415 -0.4305  3.1688
  903SOL    HW2 2709   2.059   1.622   0.428 -2.4782 -0.5327 -0.4172
  904SOL     OW 2710   1.158   0.941   2.216 -0.1975  0.5463  0.2916
  904SOL    HW1 2711   1.244   0.923   2.165 -1.1469  1.6713  0.1042
  904SOL    HW2 2712   1.173   1.005   2.291 -0.2894  1.6540  0.4196
  905SOL     OW 2713   2.552   0.345   0.814 -0.1799  0.4210 -0.0758
  905SOL    HW1 2714   2.626   0.280   0.787  0.1996 -0.1722 -1.6902
  905SOL    HW2 2715   2.577   0.436   0.778 -3.2829 -2.5150  2.6657
  906SOL     OW 2716   0.100   2.093   0.096  0.8530 -0.7979  0.5525
  906SOL    HW1 2717   0.182   2.141   0.122 -1.7445 -1.8826 -0.1623
  906SOL    HW2 2718   0.098   2.000   0.137  1.3616  0.3598 -1.8788
  907SOL     OW 2719   1.616   0.298   3.087 -0.4507 -0.8596  0.2584
  907SOL    HW1 2720   1.547   0.231   0.029  0.1967 -1.4945 -1.2829
  907SOL    HW2 2721   1.677   0.340   0.062  3.1114 -1.4571 -2.6417
  908SOL     OW 2722   1.745   2.749   1.611  0.7403  0.0844 -0.0497
  908SOL    HW1 2723   1.829   2.690   1.616 -0.0254 -1.3925  0.2110
  908SOL    HW2 2724   1.695   2.771   1.700  0.7827  2.2599  2.4892
  909SOL     OW 2725   2.575   0.806   1.623  0.1071  0.2960  0.0078
  909SOL    HW1 2726   2.501   0.791   1.695 -3.0059 -1.8614  0.5175
  909SOL    HW2 2727   2.665   0.824   1.674  0.3033 -3.9106  1.5514
  910SOL     OW 2728   0.997   0.002   2.512 -0.1984 -0.0892  0.2020
  910SOL    HW1 2729   1.086   3.047   2.495 -0.7428  0.9010 -0.2924
  910SOL    HW2 2730   0.948   0.015   2.425 -0.7477  2.0946  0.6148
  911SOL     OW 2731   2.600   1.180   2.568  0.0331 -0.2987 -0.1101
  911SOL    HW1 2732   2.663   1.242   2.616 -1.1943 -0.1049 -1.8658
  911SOL    HW2 2733   2.622   1.190   2.467 -0.5272  1.5047  0.2908
  912SOL     OW 2734   2.406   2.186   1.677 -0.4232  0.2630  0.3910
  912SOL    HW1 2735   2.432   2.279   1.661 -0.8976  1.4145  0.2310
  912SOL    HW2 2736   2.404   2.135   1.587  2.4415 -0.7620 -2.0801
  913SOL     OW 2737   2.446   2.516   1.381 -0.1973 -0.4963 -0.5982
  913SOL    HW1 2738   2.524   2.453   1.373 -1.8858  0.2535  0.9671
  913SOL    HW2 2739   2.485   2.608   1.364 -2.0251 -1.6736 -0.1153
  914SOL     OW 2740   2.412   2.020   1.432  0.0773 -0.0984 -0.0578
  914SOL    HW1 2741   2.387   1.932   1.477  2.9835  0.6690  1.3761
  914SOL    HW2 2742   2.344   2.037   1.355 -1.7799 -3.9560 -1.2082
  915SOL     OW 2743   1.163   2.438   1.490  0.0631  0.3491  0.0520
  915SOL    HW1 2744   1.089   2.373   1.511 -0.2322 -0.4158  0.1630
  915SOL    HW2 2745   1.255   2.393   1.499  0.6611  0.4856  1.2479
  916SOL     OW 2746   2.777   2.588   1.018 -0.3075  0.3033 -0.1909
  916SOL    HW1 2747   2.738   2.678   1.009  1.1588 -1.6925  4.5350
  916SOL    HW2 2748   2.716   2.528   0.967  1.7033  1.3576  1.2694
  917SOL     OW 2749   2.990   1.221   2.835  0.0658 -0.6487  0.3040
  917SOL    HW1 2750   3.086   1.252   2.836 -1.7110  2.6517  0.0682
  917SOL    HW2 2751   2.944   1.252   2.752  3.7356 -0.5567 -1.2294
  918SOL     OW 2752   1.901   1.718   2.531 -0.8881  0.1045 -0.1649
  918SOL    HW1 2753   1.962   1.672   2.464 -0.0073  0.2218  2.2239
  918SOL    HW2 2754   1.799   1.711   2.520 -0.6546 -4.0395  2.0255
  919SOL     OW 2755   1.565   2.140   1.447  0.2958  0.3915 -0.2443
  919SOL    HW1 2756   1.573   2.087   1.532 -1.4685  1.8562 -3.2909
  919SOL    HW2 2757   1.662   2.160   1.415 -1.0771  0.5114 -1.5781
  920SOL     OW 2758   0.564   0.064   3.075  0.4800 -0.5005  0.8525
  920SOL    HW1 2759   0.583   3.082   0.036 -2.8180  4.4152 -0.4569
  920SOL    HW2 2760   0.466   0.061   3.040 -0.8162  1.4251 -1.4796
  921SOL     OW 2761   2.549   0.036   2.575  0.3567  0.2792 -0.0337
  921SOL    HW1 2762   2.579   3.051   2.522 -0.3816  2.6186 -0.1129
  921SOL    HW2 2763   2.598   0.119   2.543  0.4935  1.3246  2.4263
  922SOL     OW 2764   2.307   1.777   1.555  0.6910 -0.3491  0.4751
  922SOL    HW1 2765   2.387   1.722   1.576 -1.1367  1.2791 -0.0066
  922SOL    HW2 2766   2.258   1.800   1.645 -1.8202 -2.5116 -0.2440
  923SOL     OW 2767   1.064   2.064   3.091  0.1376  0.6887 -0.3983
  923SOL    HW1 2768   1.005   2.135   0.035  0.2732 -1.5981 -2.3250
  923SOL    HW2 2769   1.157   2.098   3.080 -0.5387  1.4970  0.8409
  924SOL     OW 2770   1.779   0.674   2.737 -0.0278 -0.4228 -0.2189
  924SOL    HW1 2771   1.745   0.629   2.825 -1.8791 -1.0029  0.7416
  924SOL    HW2 2772   1.814   0.603   2.668  0.5614 -3.0982  0.5768
  925SOL     OW 2773   2.692   0.765   0.362  0.1800 -0.7871 -0.6681
  925SOL    HW1 2774   2.716   0.851   0.413 -1.3123  1.9079 -1.1079
  925SOL    HW2 2775   2.592   0.748   0.362  2.1883 -0.2780  3.2826
  926SOL     OW 2776   0.285   0.496   0.760 -0.2749 -0.1295  0.1029
  926SOL    HW1 2777   0.323   0.408   0.794  1.2401  1.4526 -1.8382
  926SOL    HW2 2778   0.362   0.561   0.736  2.3247  1.1777 -3.3125
  927SOL     OW 2779   0.937   1.226   0.698 -0.3995 -0.6118  0.0459
  927SOL    HW1 2780   0.979   1.184   0.609  2.1722  0.6937 -2.3061
  927SOL    HW2 2781   0.872   1.300   0.672  1.5952 -0.4511  0.0117
  928SOL     OW 2782   0.106   3.068   2.481  0.1332  0.3937 -0.3606
  928SOL    HW1 2783   0.194   3.034   2.515  0.8080  0.8786 -1.6252
  928SOL    HW2 2784   0.123   0.060   2.437  0.9450 -1.3703 -1.3240
  929SOL     OW 2785   2.227   0.426   1.425  0.7776  0.2076  0.0376
  929SOL    HW1 2786   2.151   0.492   1.437 -2.3455 -1.2889 -1.1398
  929SOL    HW2 2787   2.316   0.476   1.450  1.3725 -2.3700 -2.6102
  930SOL     OW 2788   1.804   2.196   1.360 -0.0567 -0.1921  0.3712
  930SOL    HW1 2789   1.865   2.266   1.401  0.7936  2.5447  1.0173
  930SOL    HW2 2790   1.860   2.118   1.320 -0.4783 -3.2891  0.3622
  931SOL     OW 2791   1.838   0.872   0.909 -0.3978 -0.5846  0.4124
  931SOL    HW1 2792   1.843   0.906   0.812  0.0201  0.7692 -0.2841
  931SOL    HW2 2793   1.930   0.865   0.951  1.6792 -0.0256 -0.9306
  932SOL     OW 2794   0.011   0.789   1.389  0.3011 -0.2507 -0.2240
  932SOL    HW1 2795   3.039   0.844   1.439  1.7998 -0.3592 -0.9966
  932SOL    HW2 2796   0.055   0.720   1.446  1.5982  0.5440 -1.1948
  933SOL     OW 2797   2.546   1.593   1.985  0.0571 -0.4106  0.3188
  933SOL    HW1 2798   2.634   1.543   2.003 -0.9044 -0.7543 -0.2139
  933SOL    HW2 2799   2.561   1.692   1.963 -0.1331  1.7212 -0.1390
  934SOL     OW 2800   1.534   3.021   1.315 -0.9558  0.3141  0.0262
  934SOL    HW1 2801   1.441   3.061   1.310  1.4309  0.5895  2.3335
  934SOL    HW2 2802   1.572   2.999   1.223  0.0259  0.9605 -0.7318
  935SOL     OW 2803   0.102   1.021   1.210  0.0321 -0.0626 -0.0184
  935SOL    HW1 2804   0.112   0.935   1.264 -1.4609 -0.6106  0.9520
  935SOL    HW2 2805   0.174   1.089   1.230 -2.8491  0.3976 -1.0635
  936SOL     OW 2806   3.043   1.205   1.077  0.2382 -0.3564 -0.2870
  936SOL    HW1 2807   3.094   1.143   1.141 -2.7750  2.5253 -2.6019
  936SOL    HW2 2808   3.007   1.149   0.998  0.7140 -2.4807 -2.5287
  937SOL     OW 2809   1.370   3.014   0.575 -0.2534 -0.1872  0.0796
  937SOL    HW1 2810   1.436   3.057   0.512 -1.0848  1.3050  0.9520
  937SOL    HW2 2811   1.412   2.939   0.635  0.8495 -2.1934  0.2997
  938SOL     OW 2812   2.902   2.260   0.744  0.5992  0.1678 -0.2593
  938SOL    HW1 2813   2.802   2.267   0.729 -0.1526 -1.5724 -0.9874
  938SOL    HW2 2814   2.936   2.322   0.814  1.3668 -0.4625  0.7272
  939SOL     OW 2815   0.955   1.937   2.776 -0.1516 -0.4446 -0.1866
  939SOL    HW1 2816   0.873   1.971   2.832 -2.0559 -2.6753 -1.1552
  939SOL    HW2 2817   0.965   1.999   2.695 -2.1139  1.7932 -0.2888
  940SOL     OW 2818   2.771   2.589   2.698 -0.0565  0.4623  0.1542
  940SOL    HW1 2819   2.773   2.587   2.597  0.0179  2.2382  2.0660
  940SOL    HW2 2820   2.681   2.564   2.737 -1.0436  2.7523  1.7855
  941SOL     OW 2821   1.277   2.975   0.022 -0.2454  0.4997  0.3348
  941SOL    HW1 2822   1.191   2.965   0.068  3.8521 -0.6879 -2.9266
  941SOL    HW2 2823   1.327   2.888   0.030 -0.8456 -0.3463 -1.7340
  942SOL     OW 2824   1.649   1.794   1.472 -0.4270  0.1975  0.1023
  942SOL    HW1 2825   1.586   1.714   1.479  2.0494  1.1079 -1.0737
  942SOL    HW2 2826   1.619   1.865   1.539  1.3354  1.8691 -1.1954
  943SOL     OW 2827   2.240   1.421   1.654 -0.0635 -0.0421  0.1547
  943SOL    HW1 2828   2.280   1.383   1.570 -0.4106 -2.4474  0.8535
  943SOL    HW2 2829   2.312   1.460   1.712 -1.3825  3.2121  0.2069
  944SOL     OW 2830   2.000   0.989   1.945  0.2635 -0.0621  0.0967
  944SOL    HW1 2831   2.035   1.073   1.897 -1.5175  0.0586  2.4909
  944SOL    HW2 2832   1.916   1.010   2.002  2.7440 -0.3648  0.5134
  945SOL     OW 2833   2.724   0.034   1.275 -0.2916  0.7533  0.1502
  945SOL    HW1 2834   2.644   3.093   1.233  1.1936  0.9857 -0.1454
  945SOL    HW2 2835   2.798   3.053   1.284  4.5032 -2.8494 -1.6104
  946SOL     OW 2836   0.710   1.133   1.781 -0.7459  0.0882  0.1892
  946SOL    HW1 2837   0.771   1.207   1.811  0.4615 -2.2713  0.4925
  946SOL    HW2 2838   0.696   1.064   1.853 -0.0267  0.9475  1.6508
  947SOL     OW 2839   0.445   2.639   0.736  0.0255  0.4454  0.3380
  947SOL    HW1 2840   0.462   2.601   0.827 -2.6132 -0.7018 -1.0709
  947SOL    HW2 2841   0.403   2.561   0.680  1.1217 -0.3078 -0.8683
  948SOL     OW 2842   0.017   1.298   1.806 -0.3958  0.1332 -0.0480
  948SOL    HW1 2843   0.033   1.313   1.907  1.1280  0.9838  0.5816
  948SOL    HW2 2844   0.106   1.294   1.760  1.3850 -0.5381  2.0134
  949SOL     OW 2845   0.409   0.712   2.250 -0.3701  0.4701 -0.3614
  949SOL    HW1 2846   0.491   0.732   2.312  2.0733 -0.8579  0.3921
  949SOL    HW2 2847   0.398   0.613   2.228 -1.6380  0.5381  0.3193
  950SOL     OW 2848   0.706   0.576   0.862 -0.6917  0.3310 -0.6247
  950SOL    HW1 2849   0.628   0.643   0.853  0.1123  0.6354  0.1423
  950SOL    HW2 2850   0.755   0.575   0.776  0.4627  3.5109  1.6631
  951SOL     OW 2851   1.202   1.717   1.983 -0.0858  0.3297 -0.6042
  951SOL    HW1 2852   1.191   1.760   2.072  2.4583 -1.3135  0.9374
  951SOL    HW2 2853   1.126   1.646   1.975  0.1147 -0.7336  0.5998
  952SOL     OW 2854   0.974   1.207   2.940 -0.5101 -0.3043  0.2408
  952SOL    HW1 2855   1.004   1.258   3.024 -2.4366 -4.7050  0.7550
  952SOL    HW2 2856   1.050   1.199   2.877 -2.0427  0.1132  0.2955
  953SOL     OW 2857   1.187   2.807   2.135 -0.2330 -0.2693 -0.5608
  953SOL    HW1 2858   1.188   2.705   2.157 -1.6881 -3.2598 -2.7737
  953SOL    HW2 2859   1.241   2.820   2.053  0.2960 -0.3182  2.1776
  954SOL     OW 2860   2.235   1.117   0.474 -0.3196  0.0445  0.1790
  954SOL    HW1 2861   2.284   1.127   0.386  0.7718  2.8482  0.9697
  954SOL    HW2 2862   2.278   1.185   0.539 -1.0686  3.0769 -0.7727
  955SOL     OW 2863   0.257   2.026   2.467 -0.1123 -0.0848  0.1794
  955SOL    HW1 2864   0.253   2.121   2.498  2.4705 -0.1329 -0.3252
  955SOL    HW2 2865   0.192   1.964   2.513  1.3602 -0.7716 -0.9924
  956SOL     OW 2866   1.083   1.373   1.274  0.1851  0.3581 -0.0834
  956SOL    HW1 2867   1.158   1.315   1.240 -0.5143 -1.4489 -0.2857
  956SOL    HW2 2868   1.008   1.383   1.207  1.3954 -0.4797  0.4133
  957SOL     OW 2869   2.096   1.397   2.728 -0.2432 -0.0202  0.2039
  957SOL    HW1 2870   2.050   1.339   2.798 -1.2717 -2.5460  1.0851
  957SOL    HW2 2871   2.189   1.359   2.701  0.3304 -0.8727  4.1810
  958SOL     OW 2872   1.537   2.678   1.000  0.3334  0.4657 -0.0426
  958SOL    HW1 2873   1.468   2.674   1.077  0.1461 -1.9994 -0.7078
  958SOL    HW2 2874   1.597   2.599   1.010 -0.9917  1.5656  0.4126
  959SOL     OW 2875   1.710   1.651   2.171  0.2716  0.8613 -0.2596
  959SOL    HW1 2876   1.688   1.571   2.110 -1.8909  0.0237 -0.5948
  959SOL    HW2 2877   1.658   1.645   2.258  1.2166  1.5201  0.9576
  960SOL     OW 2878   0.064   0.453   2.661 -0.7959  0.1121  0.2835
  960SOL    HW1 2879   0.131   0.531   2.661  2.3989  1.5232 -2.5784
  960SOL    HW2 2880   0.070   0.403   2.751 -1.6345 -0.2282 -1.8323
  961SOL     OW 2881   0.449   0.676   1.991  0.4198 -0.1765  0.3006
  961SOL    HW1 2882   0.451   0.704   2.089  1.9737 -3.4889 -2.0868
  961SOL    HW2 2883   0.431   0.756   1.928  1.0208  1.9602 -2.0560
  962SOL     OW 2884   1.440   1.515   0.352  0.1221 -0.0477 -0.5462
  962SOL    HW1 2885   1.435   1.464   0.263  0.2301 -0.0274  0.5308
  962SOL    HW2 2886   1.419   1.446   0.426 -1.6224 -0.1675 -0.1716
  963SOL     OW 2887   1.834   2.236   3.019 -0.4689  0.4513 -0.0132
  963SOL    HW1 2888   1.916   2.298   2.998  0.9490  2.9066 -1.7557
  963SOL    HW2 2889   1.755   2.271   2.969 -0.0111  1.4539  2.2619
  964SOL     OW 2890   1.053   2.664   0.563  0.3097 -0.0275 -0.1427
  964SOL    HW1 2891   1.109   2.721   0.500  0.5274 -1.3496 -0.1838
  964SOL    HW2 2892   0.993   2.724   0.618  1.4851 -1.3674 -0.8549
  965SOL     OW 2893   0.898   2.814   0.728 -0.2450  0.8467 -0.4128
  965SOL    HW1 2894   0.803   2.836   0.697  0.3658 -0.1404 -1.5056
  965SOL    HW2 2895   0.890   2.751   0.811  0.4675  0.5486 -0.6451
  966SOL     OW 2896   0.004   1.556   2.900  0.3051 -0.3478  0.2636
  966SOL    HW1 2897   0.011   1.481   2.830 -2.4776  0.3938  2.2771
  966SOL    HW2 2898   3.007   1.583   2.925  2.5667 -0.6320  3.0010
  967SOL     OW 2899   1.378   2.811   1.916  0.0876  0.3049  0.2061
  967SOL    HW1 2900   1.369   2.708   1.926 -0.3216  2.0098  0.3881
  967SOL    HW2 2901   1.378   2.845   1.817  0.4461  1.6818  0.0921
  968SOL     OW 2902   1.786   0.937   0.649  0.1478 -0.4804  0.3828
  968SOL    HW1 2903   1.836   0.875   0.578  0.4111 -0.2379 -3.0178
  968SOL    HW2 2904   1.692   0.963   0.610  1.1610  3.0578  1.9818
  969SOL     OW 2905   0.135   1.698   2.107 -0.4366  0.3793  0.3759
  969SOL    HW1 2906   0.142   1.653   2.016  0.1615  2.5924 -1.5219
  969SOL    HW2 2907   0.217   1.757   2.126  0.3292 -2.6469  0.1430
  970SOL     OW 2908   2.802   1.563   1.348 -0.5970  0.0007  0.1030
  970SOL    HW1 2909   2.853   1.627   1.279  0.6191  1.5832 -1.7595
  970SOL    HW2 2910   2.863   1.481   1.356 -1.3034  1.1429  0.1008
  971SOL     OW 2911   1.249   0.282   1.533 -0.5531  0.1972 -0.0473
  971SOL    HW1 2912   1.166   0.239   1.491 -0.4262  0.5981  0.5393
  971SOL    HW2 2913   1.293   0.216   1.595  1.9764  2.3658 -0.0129
  972SOL     OW 2914   0.524   0.034   2.652 -0.4703  0.0109  0.1705
  972SOL    HW1 2915   0.581   3.053   2.686  1.5330  0.6866  0.6404
  972SOL    HW2 2916   0.555   0.118   2.707  0.8180  1.4027  1.6741
  973SOL     OW 2917   2.843   1.217   0.534 -0.2815 -0.2094 -0.1568
  973SOL    HW1 2918   2.787   1.272   0.596 -0.2837 -2.2210 -2.1014
  973SOL    HW2 2919   2.789   1.139   0.497 -1.2372  1.3702 -0.3288
  974SOL     OW 2920   2.005   1.378   1.983  0.7941 -0.6140 -0.1122
  974SOL    HW1 2921   1.940   1.389   2.065  0.0417  1.4589 -0.5736
  974SOL    HW2 2922   2.099   1.356   2.022  2.7240  2.1317  1.0093
  975SOL     OW 2923   2.860   2.733   0.523 -0.1570 -0.6236  0.2597
  975SOL    HW1 2924   2.956   2.725   0.554 -1.2470  1.3327  0.6395
  975SOL    HW2 2925   2.815   2.812   0.568  0.4650 -1.7806 -1.7594
  976SOL     OW 2926   0.114   1.601   1.845  0.1645 -0.0284 -0.3202
  976SOL    HW1 2927   0.138   1.677   1.783  2.9020 -0.1036 -0.2843
  976SOL    HW2 2928   0.014   1.571   1.852 -0.2057 -2.6666  1.3864
  977SOL     OW 2929   0.887   2.508   0.021  0.7113 -0.0503  0.0045
  977SOL    HW1 2930   0.832   2.429   0.043 -0.0112  1.7600  0.2739
  977SOL    HW2 2931   0.955   2.486   3.046 -2.6193  0.1909  2.2800
  978SOL     OW 2932   0.787   2.055   2.980  0.3086 -0.3708  0.0412
  978SOL    HW1 2933   0.880   2.053   3.020  0.6586  1.6354 -1.4038
  978SOL    HW2 2934   0.774   2.128   2.913  0.1644 -3.6599  1.9761
  979SOL     OW 2935   1.149   2.280   1.060 -0.3336 -0.0637  0.0675
  979SOL    HW1 2936   1.246   2.257   1.040  2.1486  1.4241 -1.5628
  979SOL    HW2 2937   1.092   2.268   0.975  0.8223  0.2017 -1.5292
  980SOL     OW 2938   0.435   1.533   2.479 -0.1919  0.2391  0.1709
  980SOL    HW1 2939   0.469   1.590   2.404 -0.8709  2.4466  1.3242
  980SOL    HW2 2940   0.352   1.576   2.517 -0.6796  1.0305 -0.5502
  981SOL     OW 2941   2.695   0.423   2.755  0.4703  0.2096 -0.4303
  981SOL    HW1 2942   2.756   0.398   2.679  2.0951  1.2212 -0.0372
  981SOL    HW2 2943   2.729   0.394   2.844 -0.6127  0.5332  1.7175
  982SOL     OW 2944   2.906   2.790   2.757 -0.0842 -0.1300 -0.2253
  982SOL    HW1 2945   2.979   2.800   2.689  2.2490 -2.6389  0.1741
  982SOL    HW2 2946   2.858   2.702   2.741 -0.6411  0.4474  2.9294
  983SOL     OW 2947   2.206   0.766   1.569 -0.7189  0.5021  0.0276
  983SOL    HW1 2948   2.240   0.844   1.634  1.8348  1.2594  3.1755
  983SOL    HW2 2949   2.229   0.679   1.612 -1.2224  1.3334 -2.1175
  984SOL     OW 2950   0.807   0.150   2.321  0.1061  0.1060  0.2190
  984SOL    HW1 2951   0.890   0.212   2.332  0.4291 -0.0829  0.4072
  984SOL    HW2 2952   0.735   0.172   2.389 -1.4755  1.3361 -1.8798
  985SOL     OW 2953   1.417   1.953   2.179  0.1230  0.2508  0.3336
  985SOL    HW1 2954   1.491   1.912   2.115  1.0653  1.8517 -0.5960
  985SOL    HW2 2955   1.433   2.053   2.192 -0.6760 -0.8601  1.1941
  986SOL     OW 2956   1.895   0.599   2.180 -0.1265 -0.1982  0.5150
  986SOL    HW1 2957   1.922   0.651   2.265  0.4926 -0.4601  0.8232
  986SOL    HW2 2958   1.902   0.498   2.200  2.2682 -1.7956 -0.7347
  987SOL     OW 2959   2.261   0.658   2.344  0.4796  0.4834 -0.1262
  987SOL    HW1 2960   2.303   0.667   2.437  1.6366 -0.6340  2.4770
  987SOL    HW2 2961   2.255   0.561   2.314  2.2947 -0.3655  1.0542
  988SOL     OW 2962   2.450   0.455   2.655  0.0647  0.7836  0.3999
  988SOL    HW1 2963   2.542   0.454   2.704  0.3319  1.0151  0.8450
  988SOL    HW2 2964   2.428   0.555   2.653 -1.8748 -1.7159  1.0410
  989SOL     OW 2965   2.390   2.352   2.599 -0.7482 -1.2200  0.1402
  989SOL    HW1 2966   2.403   2.256   2.633  2.3505  0.6945  1.2136
  989SOL    HW2 2967   2.414   2.363   2.502 -2.0901  1.6364 -0.3462
  990SOL     OW 2968   0.321   0.519   0.212  0.4765  0.6087  0.0139
  990SOL    HW1 2969   0.332   0.474   0.302 -1.2344 -0.5578 -0.5216
  990SOL    HW2 2970   0.270   0.606   0.218  0.3825 -1.2042  1.7136
  991SOL     OW 2971   0.583   0.609   2.890 -0.4033 -0.1354  0.1542
  991SOL    HW1 2972   0.676   0.581   2.863  2.6812 -3.3486  0.1044
  991SOL    HW2 2973   0.563   0.581   2.987 -0.8921  1.2100  0.6764
  992SOL     OW 2974   3.072   1.993   2.057 -0.5064  0.6982 -0.4606
  992SOL    HW1 2975   3.061   2.009   2.159  3.5969 -3.2270 -0.5182
  992SOL    HW2 2976   3.093   1.892   2.040  0.8959 -2.3228 -0.9697
  993SOL     OW 2977   0.542   3.089   0.706  0.1163 -0.0256  0.4805
  993SOL    HW1 2978   0.461   0.009   0.644 -0.4809 -0.0715 -0.6685
  993SOL    HW2 2979   0.625   0.044   0.676 -0.6266  0.0074 -3.5006
  994SOL     OW 2980   0.198   2.110   1.730  0.4219 -0.0313 -0.2699
  994SOL    HW1 2981   0.103   2.147   1.717 -2.5494  0.2210 -1.3691
  994SOL    HW2 2982   0.269   2.162   1.684  0.8811  0.8166 -1.0191
  995SOL     OW 2983   2.223   1.457   3.018  0.3580  0.0626  0.4210
  995SOL    HW1 2984   2.237   1.359   2.982 -3.1105  1.1568 -0.2661
  995SOL    HW2 2985   2.171   1.513   2.950 -1.2122  0.2583 -0.2852
  996SOL     OW 2986   1.735   1.408   2.789 -0.0012 -0.6628 -0.3543
  996SOL    HW1 2987   1.668   1.483   2.812 -0.1187 -3.9921  1.4202
  996SOL    HW2 2988   1.781   1.422   2.697  1.2119  1.4308 -3.0238
  997SOL     OW 2989   1.834   1.458   1.762  0.6670 -0.3248 -0.0290
  997SOL    HW1 2990   1.895   1.415   1.829  2.1793 -1.6091  1.4170
  997SOL    HW2 2991   1.795   1.380   1.705  1.1624  0.3907  2.0033
  998SOL     OW 2992   2.542   1.813   0.633  0.5789 -0.5442 -0.4798
  998SOL    HW1 2993   2.507   1.843   0.723 -1.8691 -1.0229 -0.0709
  998SOL    HW2 2994   2.471   1.809   0.560 -2.4238 -1.9056 -3.1679
  999SOL     OW 2995   2.435   2.739   0.501 -0.0329 -0.2373  0.0500
  999SOL    HW1 2996   2.502   2.781   0.440 -3.5076  1.5548 -2.6227
  999SOL    HW2 2997   2.380   2.663   0.457 -0.7590  2.7034  0.5311
 1000SOL     OW 2998   0.660   2.698   2.529  0.1449  0.2906 -0.2506
 1000SOL    HW1 2999   0.561   2.707   2.498 -1.0848 -2.1887 -0.8343
 1000SOL    HW2 3000   0.720   2.750   2.465 -1.1769  2.1738 -0.5612
   3.09588   3.09588   3.09588
