1000 SPC/Fw water molecules t= 329.00000 step= 329000
 3000
    1SOL     OW    1   2.386   0.208   1.252  0.4020  0.0216 -0.3298
    1SOL    HW1    2   2.347   0.114   1.249  2.1402 -1.2976 -0.8467
    1SOL    HW2    3   2.459   0.212   1.324  2.3286 -1.2495  3.6854
    2SOL     OW    4   2.643   2.406   0.807 -0.5003 -0.3895 -0.1200
    2SOL    HW1    5   2.580   2.329   0.815  0.8431 -0.0159 -2.9684
    2SOL    HW2    6   2.716   2.401   0.881  0.2070  0.7169  2.7506
    3SOL     OW    7   1.079   0.082   3.085  0.0710 -0.7353  0.0504
    3SOL    HW1    8   1.145   0.035   0.013 -0.8533  1.0886 -1.5263
    3SOL    HW2    9   0.993   0.029   3.078 -0.6829 -0.0563 -0.3861
    4SOL     OW   10   1.919   2.627   2.125 -0.1389 -0.4196 -0.0682
    4SOL    HW1   11   1.980   2.701   2.097 -0.1946 -6.7775 -1.9078
    4SOL    HW2   12   1.944   2.544   2.077  1.9818  0.3203 -2.0929
    5SOL     OW   13   1.722   0.873   1.878 -1.0447  0.3390 -0.3324
    5SOL    HW1   14   1.675   0.782   1.880 -0.2534 -3.2833 -0.6464
    5SOL    HW2   15   1.676   0.936   1.808  1.7344  0.4546 -1.6633
    6SOL     OW   16   1.966   2.675   0.754  0.1054  0.2793  0.2061
    6SOL    HW1   17   1.912   2.595   0.715  0.4498  0.4453  1.3459
    6SOL    HW2   18   2.017   2.654   0.842  2.1870 -0.4705 -0.6871
    7SOL     OW   19   2.319   1.586   1.133 -0.1267  0.5075  0.3264
    7SOL    HW1   20   2.410   1.614   1.164 -1.0370  0.7437 -0.5322
    7SOL    HW2   21   2.295   1.490   1.165  0.6079  0.5947 -2.9395
    8SOL     OW   22   0.666   1.720   1.477 -0.0196  0.5786 -0.6049
    8SOL    HW1   23   0.618   1.637   1.431 -3.3178 -1.2268 -2.1409
    8SOL    HW2   24   0.616   1.805   1.462 -1.6979 -0.7790 -2.0740
    9SOL     OW   25   1.241   2.729   2.215  0.2344  0.2310  0.2570
    9SOL    HW1   26   1.182   2.666   2.268 -0.6002  0.1331 -2.7103
    9SOL    HW2   27   1.191   2.765   2.129 -1.0545 -0.1480  0.8858
   10SOL     OW   28   0.268   1.954   0.776 -0.4763 -0.1491 -0.0608
   10SOL    HW1   29   0.355   1.911   0.820  1.6013 -0.5177  1.5956
   10SOL    HW2   30   0.246   2.046   0.814  1.3785  0.8237  0.1235
   11SOL     OW   31   1.745   1.860   1.033 -0.4367  0.4215 -0.1860
   11SOL    HW1   32   1.763   1.762   1.009 -3.5931  0.1412 -0.8516
   11SOL    HW2   33   1.645   1.876   1.038 -0.7463  0.0131  1.0532
   12SOL     OW   34   2.438   2.943   2.071 -0.2788  0.1678  1.0595
   12SOL    HW1   35   2.501   2.868   2.098 -1.2961  3.8047 -0.2868
   12SOL    HW2   36   2.438   2.952   1.970 -0.6983  2.1428 -0.9540
   13SOL     OW   37   2.646   2.965   0.429 -0.0706 -0.6282  0.5409
   13SOL    HW1   38   2.563   2.992   0.471  2.7933  0.0686 -1.3787
   13SOL    HW2   39   2.723   2.954   0.495  0.1026 -1.7008  1.1750
   14SOL     OW   40   1.498   1.939   2.997  0.4169 -0.4913  0.1183
   14SOL    HW1   41   1.557   1.947   3.084  0.9402 -0.9713 -0.5193
   14SOL    HW2   42   1.561   1.923   2.919  0.7908 -2.2913  3.5542
   15SOL     OW   43   2.901   2.514   1.545  0.3066  0.1322 -0.2660
   15SOL    HW1   44   2.982   2.521   1.601 -4.0982 -0.8212  1.3372
   15SOL    HW2   45   2.849   2.601   1.556  0.5696  0.5444 -2.3956
   16SOL     OW   46   2.744   3.007   0.174  0.5494  0.3268  0.1866
   16SOL    HW1   47   2.698   2.973   0.261  1.2205 -1.9549  0.0294
   16SOL    HW2   48   2.820   3.066   0.206 -1.7181  1.5744 -1.9692
   17SOL     OW   49   0.207   0.169   1.405  0.9039  0.1726 -0.2758
   17SOL    HW1   50   0.288   0.175   1.345 -1.0098  0.9867 -2.0900
   17SOL    HW2   51   0.171   0.074   1.411  3.7476 -0.2039  1.1945
   18SOL     OW   52   2.186   0.764   0.433 -0.1579  0.5433 -0.1642
   18SOL    HW1   53   2.273   0.771   0.373  1.8419  1.1046 -1.7103
   18SOL    HW2   54   2.177   0.848   0.488 -0.1606  1.7987 -2.0986
   19SOL     OW   55   1.614   1.952   0.304 -0.1976 -0.5548 -0.8104
   19SOL    HW1   56   1.696   1.916   0.351 -3.2000  1.3948 -0.1484
   19SOL    HW2   57   1.627   1.993   0.212 -0.7567 -1.7984  0.9516
   20SOL     OW   58   2.508   2.106   2.316 -0.2883 -0.4287  0.3025
   20SOL    HW1   59   2.466   2.020   2.280 -1.1197 -0.1665 -1.1301
   20SOL    HW2   60   2.466   2.144   2.401  4.0102 -0.3784  2.1977
   21SOL     OW   61   1.787   0.115   0.537  0.5808 -0.5719  0.0410
   21SOL    HW1   62   1.813   0.093   0.632 -2.0099 -2.0949 -1.9731
   21SOL    HW2   63   1.780   0.031   0.479 -0.6700 -1.4025  0.6594
   22SOL     OW   64   2.623   0.236   1.446  0.0623 -0.6065  0.1304
   22SOL    HW1   65   2.693   0.309   1.473  2.1566  1.1238 -0.9177
   22SOL    HW2   66   2.537   0.244   1.496 -0.3949  0.2375 -0.2652
   23SOL     OW   67   0.502   0.499   1.699 -0.4580 -0.6372  0.0422
   23SOL    HW1   68   0.500   0.595   1.732  1.1261 -2.1087  0.0167
   23SOL    HW2   69   0.456   0.486   1.612  0.5868  0.3599  0.8130
   24SOL     OW   70   2.517   2.716   0.370 -0.6109 -0.1117 -0.4402
   24SOL    HW1   71   2.548   2.652   0.442 -0.7786  0.7909 -2.3590
   24SOL    HW2   72   2.558   2.806   0.394 -2.7608 -2.4771 -0.2687
   25SOL     OW   73   1.231   2.774   2.654  0.0127  0.1088 -0.0445
   25SOL    HW1   74   1.176   2.830   2.587  1.1154  1.0246 -1.4068
   25SOL    HW2   75   1.281   2.836   2.722 -0.7101  0.1233 -0.8084
   26SOL     OW   76   1.381   2.289   0.257  0.2086  0.1522  0.4019
   26SOL    HW1   77   1.476   2.303   0.273 -3.2472 -0.1132 -0.0318
   26SOL    HW2   78   1.339   2.325   0.175  1.3251 -0.0162  1.3810
   27SOL     OW   79   2.459   1.095   2.851  0.0725  0.2117  0.5483
   27SOL    HW1   80   2.446   1.140   2.939 -2.0101  1.2458  1.2460
   27SOL    HW2   81   2.553   1.112   2.822 -1.5470  0.2177 -0.2801
   28SOL     OW   82   1.025   1.438   1.170 -0.1078 -0.3323 -0.2949
   28SOL    HW1   83   1.030   1.367   1.243 -3.9005 -1.1129 -2.0658
   28SOL    HW2   84   0.941   1.433   1.116  2.2395 -2.1797  1.9092
   29SOL     OW   85   3.062   2.543   1.768  0.4914 -0.2794  0.3188
   29SOL    HW1   86   3.111   2.625   1.809  0.2764 -0.3249  0.3242
   29SOL    HW2   87   3.080   2.458   1.813 -0.0219  0.7696 -2.5454
   30SOL     OW   88   1.427   3.072   1.208  0.2796  0.0191  0.5577
   30SOL    HW1   89   1.402   2.987   1.160  1.0895  2.3377  4.6456
   30SOL    HW2   90   1.403   0.032   1.166  0.3177 -0.0251 -1.2659
   31SOL     OW   91   2.003   3.074   2.138 -0.0102  0.1917  0.2320
   31SOL    HW1   92   1.948   3.086   2.222  0.1284  0.9671 -1.6135
   31SOL    HW2   93   1.956   3.096   2.051 -0.3007 -0.8348  1.9786
   32SOL     OW   94   0.954   1.644   0.385 -0.1535 -0.2048 -0.4993
   32SOL    HW1   95   1.039   1.595   0.360  1.7563 -1.0087  2.4660
   32SOL    HW2   96   0.922   1.618   0.479  3.9474 -0.9717 -0.1765
   33SOL     OW   97   0.406   0.887   2.468  0.2046  0.0281 -0.5649
   33SOL    HW1   98   0.394   0.808   2.530 -1.2538 -0.0796 -1.8682
   33SOL    HW2   99   0.329   0.896   2.403  2.2846 -0.5585  0.3161
   34SOL     OW  100   2.376   3.044   0.499  0.2620  0.6644  0.1084
   34SOL    HW1  101   2.278   3.024   0.517  1.3359 -3.0880  0.4907
   34SOL    HW2  102   2.396   3.102   0.416  0.9175  1.5270  1.3059
   35SOL     OW  103   2.092   2.694   1.749 -0.0678 -0.1960 -0.5794
   35SOL    HW1  104   2.001   2.740   1.742 -0.9722  1.5622  1.0603
   35SOL    HW2  105   2.087   2.610   1.809  3.4666 -0.7605 -0.1189
   36SOL     OW  106   1.901   2.303   3.119 -0.4735 -0.9145 -0.4739
   36SOL    HW1  107   1.939   2.268   3.030 -0.6478 -3.4202 -2.8424
   36SOL    HW2  108   1.895   2.227   0.058 -1.1326 -1.2790  1.5475
   37SOL     OW  109   1.449   0.473   2.377  0.0230  0.2315 -0.2328
   37SOL    HW1  110   1.419   0.555   2.429 -0.7087 -1.2039  2.8297
   37SOL    HW2  111   1.394   0.390   2.400 -1.3318  0.7261 -0.8402
   38SOL     OW  112   0.376   0.450   2.789  0.6181 -0.0531 -0.3413
   38SOL    HW1  113   0.409   0.501   2.709  0.5084 -0.3166 -1.0288
   38SOL    HW2  114   0.412   0.360   2.787  1.4346 -0.0504  0.1082
   39SOL     OW  115   2.251   1.404   1.824 -0.3323  0.0890  0.0783
   39SOL    HW1  116   2.306   1.489   1.809 -0.0732 -0.0637 -1.1707
   39SOL    HW2  117   2.174   1.431   1.886 -0.3260  1.6394 -2.7681
   40SOL     OW  118   1.334   2.676   0.324 -0.0921 -0.0505  0.0433
   40SOL    HW1  119   1.279   2.624   0.388 -0.0142  1.0544 -3.0536
   40SOL    HW2  120   1.299   2.658   0.228  1.0098  2.2010  1.9455
   41SOL     OW  121   2.354   1.508   0.867  0.7151  0.3989  0.1676
   41SOL    HW1  122   2.342   1.516   0.970 -0.6628  0.3611  1.6392
   41SOL    HW2  123   2.432   1.569   0.835  0.0405  0.1520 -0.6246
   42SOL     OW  124   0.839   0.284   1.329  0.1396  0.1545  0.0510
   42SOL    HW1  125   0.794   0.306   1.414  1.7326  1.1554 -4.2107
   42SOL    HW2  126   0.917   0.221   1.342  0.3113 -0.1980  0.2717
   43SOL     OW  127   0.178   1.391   2.398  0.2067  0.5710 -0.2732
   43SOL    HW1  128   0.143   1.421   2.493 -0.3105 -0.5410  3.1155
   43SOL    HW2  129   0.265   1.438   2.380  0.2332  0.5247 -1.8160
   44SOL     OW  130   2.421   3.013   1.796  0.1984 -0.0105 -0.2969
   44SOL    HW1  131   2.388   3.084   1.853  0.9060 -2.5989 -1.1378
   44SOL    HW2  132   2.383   3.025   1.706 -1.8388  0.5713  2.4590
   45SOL     OW  133   1.226   0.023   2.314 -0.0524  0.2356 -0.1547
   45SOL    HW1  134   1.318   3.127   2.271  3.5459 -0.2107 -1.0491
   45SOL    HW2  135   1.193   3.084   2.382 -0.7342 -2.0508 -1.0061
   46SOL     OW  136   0.964   2.707   2.731 -0.0104  0.0555 -0.2767
   46SOL    HW1  137   1.068   2.721   2.730  0.4144  0.1370  1.6910
   46SOL    HW2  138   0.930   2.694   2.636 -2.1816 -1.0263  1.4042
   47SOL     OW  139   1.815   1.512   0.742 -0.1343  0.0444  0.5709
   47SOL    HW1  140   1.888   1.554   0.799 -0.1149 -0.2621  0.8217
   47SOL    HW2  141   1.862   1.463   0.668  2.6934  0.2482  2.1474
   48SOL     OW  142   1.108   2.092   0.652 -0.2473  0.5301  0.0901
   48SOL    HW1  143   1.162   2.104   0.560  0.7027 -0.4376 -2.6393
   48SOL    HW2  144   1.050   2.010   0.653  2.4696 -2.6670  0.2089
   49SOL     OW  145   2.229   0.140   2.821 -0.4189 -0.1082  0.0699
   49SOL    HW1  146   2.155   0.072   2.791  1.2111  0.6741 -0.7448
   49SOL    HW2  147   2.310   0.131   2.761  1.1461  1.2822 -1.3762
   50SOL     OW  148   1.833   2.961   0.190 -0.0109  0.2968  0.2661
   50SOL    HW1  149   1.873   3.043   0.144  3.8361  0.6405 -1.6421
   50SOL    HW2  150   1.903   2.887   0.194 -0.6598  2.1185  0.4723
   51SOL     OW  151   2.231   0.839   1.060  0.6507  0.4861 -0.0566
   51SOL    HW1  152   2.192   0.781   1.132 -1.2708 -0.5561  0.1425
   51SOL    HW2  153   2.287   0.913   1.101  2.4070  0.8395  0.6185
   52SOL     OW  154   0.960   1.662   0.834  0.2608  0.1457  0.6155
   52SOL    HW1  155   1.033   1.596   0.856 -0.5413 -0.5747 -2.2289
   52SOL    HW2  156   0.908   1.671   0.919 -0.7924 -0.6387 -0.8712
   53SOL     OW  157   0.424   1.749   2.621  0.8439 -0.3812 -0.3178
   53SOL    HW1  158   0.465   1.834   2.652 -0.0969 -0.3703  1.6831
   53SOL    HW2  159   0.427   1.673   2.689 -1.6717 -1.6009 -0.7263
   54SOL     OW  160   2.753   1.323   1.740  0.0902 -0.2567 -0.0853
   54SOL    HW1  161   2.786   1.228   1.758 -1.2374 -1.0749 -1.2865
   54SOL    HW2  162   2.792   1.390   1.807  1.7584 -0.5919 -0.0634
   55SOL     OW  163   2.357   1.900   0.509  0.4293  0.3814  0.2960
   55SOL    HW1  164   2.309   1.813   0.483 -0.3115  0.6495  0.9885
   55SOL    HW2  165   2.283   1.971   0.509 -0.9101  3.1157  0.6690
   56SOL     OW  166   1.471   0.171   1.722  1.0317  0.0719  0.5488
   56SOL    HW1  167   1.451   0.259   1.682  0.4313 -0.4899 -0.6028
   56SOL    HW2  168   1.405   0.152   1.795  1.5122  2.3766 -1.9390
   57SOL     OW  169   1.448   1.307   2.799 -0.7430 -0.1881  0.1121
   57SOL    HW1  170   1.529   1.291   2.740 -3.2821 -2.7184 -2.3766
   57SOL    HW2  171   1.365   1.311   2.744  0.3790  1.2964  0.1983
   58SOL     OW  172   0.040   0.496   1.632  0.4882 -0.5384  0.2874
   58SOL    HW1  173   0.127   0.539   1.654 -0.9848  2.0089 -0.7904
   58SOL    HW2  174   3.094   0.531   1.691 -0.0211 -0.4855  3.2305
   59SOL     OW  175   1.603   2.686   0.304 -0.1677  0.0001 -0.2185
   59SOL    HW1  176   1.612   2.752   0.234  1.3503 -2.2381  3.2029
   59SOL    HW2  177   1.506   2.656   0.321  2.9796  0.3863 -1.2347
   60SOL     OW  178   3.035   2.028   2.973 -0.1371 -0.4141  0.3485
   60SOL    HW1  179   3.107   1.967   3.019  0.4862  1.1209  0.2174
   60SOL    HW2  180   2.945   2.004   3.002  1.0690  3.0917  0.5938
   61SOL     OW  181   0.935   2.526   0.822  0.2541 -0.1467  0.1762
   61SOL    HW1  182   0.903   2.569   0.911  1.2443  0.0597 -0.7075
   61SOL    HW2  183   0.946   2.425   0.821  1.6612  2.0180 -0.1203
   62SOL     OW  184   2.025   1.346   2.474  0.2155  0.2709 -0.4990
   62SOL    HW1  185   2.096   1.275   2.495  1.8553  0.1320  1.5033
   62SOL    HW2  186   2.007   1.406   2.550  0.6142 -0.3645 -4.0038
   63SOL     OW  187   2.076   2.147   0.340  0.6379  0.0251  0.1639
   63SOL    HW1  188   1.980   2.176   0.340  0.8937 -0.3489  2.9029
   63SOL    HW2  189   2.109   2.131   0.436  2.2623 -1.2463  1.7099
   64SOL     OW  190   1.729   1.104   3.123  0.3603 -0.2664  0.7111
   64SOL    HW1  191   1.695   1.080   0.084  0.2798  1.7193  0.0152
   64SOL    HW2  192   1.833   1.097   3.114  2.1681 -0.5394  1.9709
   65SOL     OW  193   1.819   1.671   2.180  0.5371  0.4539 -0.3630
   65SOL    HW1  194   1.900   1.631   2.225  0.1832 -0.4564 -2.5377
   65SOL    HW2  195   1.839   1.757   2.134 -1.8590  2.2948 -0.2096
   66SOL     OW  196   0.371   0.933   1.274 -0.0034 -0.0371 -0.4958
   66SOL    HW1  197   0.465   0.956   1.241  1.5843  0.4783 -1.4498
   66SOL    HW2  198   0.317   1.014   1.295  1.0350 -0.3268 -0.0317
   67SOL     OW  199   2.176   2.792   2.748 -0.0914  0.5700 -0.0219
   67SOL    HW1  200   2.151   2.881   2.709  1.0559 -1.4077  1.2226
   67SOL    HW2  201   2.258   2.751   2.697 -2.2637  0.7597 -0.1979
   68SOL     OW  202   1.259   2.341   1.249  0.1945  0.3996 -0.2736
   68SOL    HW1  203   1.312   2.311   1.170 -0.0966  1.9340 -0.8180
   68SOL    HW2  204   1.331   2.369   1.315  1.4837 -1.5841  0.8520
   69SOL     OW  205   0.729   2.561   3.103  0.4060  0.2614  0.4614
   69SOL    HW1  206   0.820   2.552   0.018 -0.6742 -1.3820  2.4484
   69SOL    HW2  207   0.656   2.521   0.034 -0.8660 -1.4896  0.0147
   70SOL     OW  208   2.872   0.537   2.481 -0.6694  0.6464  0.1683
   70SOL    HW1  209   2.892   0.482   2.394 -1.4619 -0.6425 -1.5472
   70SOL    HW2  210   2.930   0.618   2.486 -1.1130 -2.7042  1.0580
   71SOL     OW  211   0.473   1.585   2.877 -0.6199 -0.0146  0.1983
   71SOL    HW1  212   0.479   1.486   2.875  0.5374  6.0573  1.2392
   71SOL    HW2  213   0.521   1.625   2.957 -1.1449 -1.0288 -1.6246
   72SOL     OW  214   0.235   1.833   2.426 -0.1471  0.0530  0.3009
   72SOL    HW1  215   0.304   1.821   2.500  3.7971  2.6233 -0.3954
   72SOL    HW2  216   0.181   1.924   2.444 -0.2113  1.3098  2.7196
   73SOL     OW  217   1.571   1.584   0.319  0.0688  0.0056  0.0358
   73SOL    HW1  218   1.664   1.608   0.356 -0.2220  1.1908 -1.8697
   73SOL    HW2  219   1.503   1.612   0.387  2.8580 -1.5145 -2.0625
   74SOL     OW  220   2.239   2.547   3.019  0.4541  0.1040 -0.2839
   74SOL    HW1  221   2.247   2.637   2.968 -0.9477 -0.8979 -0.7681
   74SOL    HW2  222   2.228   2.558   3.119 -0.7607  1.9206  1.5631
   75SOL     OW  223   2.141   2.003   0.859  0.6523 -0.4140 -0.2925
   75SOL    HW1  224   2.083   2.055   0.921  1.9928 -0.5253 -0.2650
   75SOL    HW2  225   2.234   1.997   0.906  0.2659 -1.3995  1.9729
   76SOL     OW  226   2.357   2.215   2.090 -0.2666  0.2494  0.4522
   76SOL    HW1  227   2.428   2.191   2.157  0.0560 -2.5966  2.2145
   76SOL    HW2  228   2.286   2.278   2.121 -0.3338  1.9203  0.6117
   77SOL     OW  229   2.689   0.206   2.364 -0.2564 -0.0313  0.5887
   77SOL    HW1  230   2.674   0.147   2.284 -0.1978  0.0931 -0.7232
   77SOL    HW2  231   2.722   0.152   2.444 -0.8762  1.5249  1.4250
   78SOL     OW  232   1.985   1.067   3.094  0.1042 -0.4436  0.5794
   78SOL    HW1  233   2.057   1.029   0.026 -0.7627 -0.4194  0.6710
   78SOL    HW2  234   2.026   1.109   3.010 -0.9765 -2.4891  0.4105
   79SOL     OW  235   2.883   1.429   2.416  0.0796  0.4668  0.0698
   79SOL    HW1  236   2.818   1.433   2.338  0.7032 -3.2521 -0.2365
   79SOL    HW2  237   2.966   1.479   2.386  1.3006 -3.4107 -3.5124
   80SOL     OW  238   1.587   1.571   1.561  0.5414  0.1489 -0.1214
   80SOL    HW1  239   1.524   1.647   1.547  0.4531  0.8579  1.1330
   80SOL    HW2  240   1.571   1.530   1.651  0.7491  1.4311 -2.1615
   81SOL     OW  241   1.965   0.664   1.767  0.1850  0.5693 -0.2824
   81SOL    HW1  242   2.036   0.655   1.843  1.1697 -0.6760  1.1583
   81SOL    HW2  243   1.943   0.758   1.738  2.6843  0.5940 -0.9234
   82SOL     OW  244   1.761   2.001   1.615  0.5946 -0.3243 -0.5690
   82SOL    HW1  245   1.763   1.979   1.515  2.1671 -0.0066  0.7737
   82SOL    HW2  246   1.852   2.036   1.644  1.9999  0.7844 -1.8103
   83SOL     OW  247   2.977   0.047   0.228  0.6615  0.0043  0.2154
   83SOL    HW1  248   3.010   0.084   0.316 -1.1519  1.2618  0.3940
   83SOL    HW2  249   2.965   0.126   0.166 -0.4535 -1.2204  0.9380
   84SOL     OW  250   0.591   1.121   0.176  0.4306 -0.5894  0.6674
   84SOL    HW1  251   0.512   1.068   0.142 -1.1961 -2.2944 -2.0114
   84SOL    HW2  252   0.596   1.135   0.279 -1.8025  1.1081  0.8760
   85SOL     OW  253   2.583   2.201   1.492  0.2761  0.8824  0.5859
   85SOL    HW1  254   2.542   2.114   1.527  0.0630 -0.2413  1.0387
   85SOL    HW2  255   2.583   2.207   1.388  2.0008  0.4255 -0.0774
   86SOL     OW  256   0.510   2.725   1.419 -0.5234 -0.4624  0.7270
   86SOL    HW1  257   0.546   2.736   1.324  1.1683 -0.4735 -2.6593
   86SOL    HW2  258   0.429   2.785   1.437 -1.1286  0.9456  1.1835
   87SOL     OW  259   0.461   2.525   2.412  0.1261  0.0997  0.2261
   87SOL    HW1  260   0.549   2.480   2.387  0.0893 -1.2000  0.5788
   87SOL    HW2  261   0.388   2.458   2.438 -1.7691 -2.1940 -0.5519
   88SOL     OW  262   0.131   2.265   0.503 -0.4705 -0.1554 -0.0351
   88SOL    HW1  263   0.130   2.246   0.400 -1.5591  0.1586  0.9930
   88SOL    HW2  264   0.220   2.227   0.533 -1.3984  2.8026 -1.9753
   89SOL     OW  265   0.873   0.675   1.131  0.3051  0.1272 -0.0997
   89SOL    HW1  266   0.954   0.627   1.164 -1.9597  0.1226 -0.3027
   89SOL    HW2  267   0.883   0.708   1.035 -0.5085  0.7885  1.7972
   90SOL     OW  268   0.131   1.036   1.705  0.1462 -0.1750 -0.2549
   90SOL    HW1  269   0.111   1.113   1.641 -1.2756 -3.7538 -1.6627
   90SOL    HW2  270   0.230   1.037   1.732 -0.1807  0.3949  2.0621
   91SOL     OW  271   1.131   0.838   0.983  0.2740 -0.6082  0.1719
   91SOL    HW1  272   1.221   0.890   0.974  1.1606  0.7041 -2.1087
   91SOL    HW2  273   1.154   0.742   0.969 -0.5525  1.9744  1.1636
   92SOL     OW  274   1.984   1.143   0.914 -0.0205  0.2915  0.1120
   92SOL    HW1  275   2.063   1.073   0.919  0.6370 -0.8234 -0.0134
   92SOL    HW2  276   1.957   1.150   0.816  0.2062 -2.5473  1.2564
   93SOL     OW  277   2.520   0.858   2.497 -0.1710  0.4691 -0.4477
   93SOL    HW1  278   2.581   0.784   2.451 -1.1402 -2.5827  0.0030
   93SOL    HW2  279   2.455   0.815   2.565  1.0557 -1.2479  1.0494
   94SOL     OW  280   2.284   1.811   2.473  0.0489  0.3834 -0.3817
   94SOL    HW1  281   2.214   1.865   2.522  0.4281  1.0603  0.4199
   94SOL    HW2  282   2.362   1.786   2.535  1.0302  1.7590  1.1697
   95SOL     OW  283   2.738   0.879   1.068 -0.2650 -0.0028 -0.4317
   95SOL    HW1  284   2.740   0.883   0.962 -0.0944  0.6410  0.2136
   95SOL    HW2  285   2.750   0.779   1.108  2.1147 -3.3147 -0.6136
   96SOL     OW  286   2.517   2.775   1.678 -0.5435 -0.6131  0.1399
   96SOL    HW1  287   2.498   2.861   1.729  1.4407 -1.3856 -1.8058
   96SOL    HW2  288   2.463   2.702   1.725 -1.3530  0.4690 -0.2695
   97SOL     OW  289   2.575   1.162   1.353 -0.2304  0.0831 -0.0018
   97SOL    HW1  290   2.671   1.124   1.347  1.6043 -0.1430 -0.8115
   97SOL    HW2  291   2.565   1.215   1.437 -0.7603 -1.4797 -2.7581
   98SOL     OW  292   1.454   2.371   1.799  0.6297 -0.0012 -0.1076
   98SOL    HW1  293   1.498   2.290   1.764 -3.2519  2.1668  2.8992
   98SOL    HW2  294   1.368   2.396   1.750 -1.5442 -0.6373  1.6794
   99SOL     OW  295   0.488   2.472   1.543  0.1172  0.4102 -0.1853
   99SOL    HW1  296   0.552   2.403   1.500  3.9782 -3.1096  0.9287
   99SOL    HW2  297   0.512   2.568   1.513  0.6691  0.7679 -0.7626
  100SOL     OW  298   1.253   0.563   3.003 -0.5200  0.4288 -0.5792
  100SOL    HW1  299   1.286   0.514   3.085  0.4323 -0.0323  0.1322
  100SOL    HW2  300   1.320   0.535   2.932 -0.2143 -1.2127 -0.5493
  101SOL     OW  301   2.471   0.121   2.635 -0.2487 -0.3556  0.6779
  101SOL    HW1  302   2.567   0.095   2.598  2.6723 -1.4165 -1.2160
  101SOL    HW2  303   2.463   0.226   2.642  1.0519  1.4964  0.8653
  102SOL     OW  304   0.380   0.456   1.460  0.3526 -0.4374 -0.2342
  102SOL    HW1  305   0.370   0.405   1.375 -0.2589  1.5356 -0.5823
  102SOL    HW2  306   0.465   0.519   1.450  1.2316  2.4362  1.1580
  103SOL     OW  307   0.455   0.684   2.677  0.1369  0.0269 -0.0357
  103SOL    HW1  308   0.403   0.718   2.759 -0.1928 -0.0799 -2.1542
  103SOL    HW2  309   0.549   0.721   2.677  0.6325  0.2171 -1.1790
  104SOL     OW  310   0.875   0.730   2.515  0.1024 -0.0439 -0.2016
  104SOL    HW1  311   0.811   0.698   2.445  1.1480 -0.5778  2.6212
  104SOL    HW2  312   0.826   0.757   2.603  0.1072  1.1691 -1.6913
  105SOL     OW  313   1.997   2.069   1.693  0.3156  0.3211  0.0121
  105SOL    HW1  314   2.018   2.039   1.788  0.6818 -1.5260  2.0550
  105SOL    HW2  315   2.032   2.162   1.683  0.7816 -2.0168  2.5367
  106SOL     OW  316   2.049   2.941   0.514 -0.1295 -0.3126  0.2713
  106SOL    HW1  317   1.951   2.908   0.528 -1.0135  0.4057 -0.8657
  106SOL    HW2  318   2.068   2.968   0.417  0.8175  3.5453 -1.1341
  107SOL     OW  319   2.735   2.027   1.143  0.1149  0.5223  0.2497
  107SOL    HW1  320   2.665   2.102   1.147 -0.2959 -1.5914  2.0558
  107SOL    HW2  321   2.828   2.069   1.119 -1.1391  1.0088 -1.5572
  108SOL     OW  322   2.781   2.758   1.562 -0.4039 -0.2120  0.3247
  108SOL    HW1  323   2.693   2.771   1.614  0.0019 -0.2065  1.1651
  108SOL    HW2  324   2.785   2.809   1.476 -0.4961 -1.6879 -0.1951
  109SOL     OW  325   1.945   2.557   1.104  0.0944  0.2157 -0.6698
  109SOL    HW1  326   1.944   2.561   1.209  1.0905  0.8994  1.2107
  109SOL    HW2  327   2.025   2.612   1.070 -1.4338  1.7006  0.1799
  110SOL     OW  328   0.630   1.660   2.021 -0.6484 -0.0329  0.3500
  110SOL    HW1  329   0.649   1.757   1.982 -3.4809  1.6001  2.3955
  110SOL    HW2  330   0.547   1.669   2.074  1.2868 -0.9385 -2.4583
  111SOL     OW  331   1.592   2.532   2.416 -0.4587 -0.1969 -0.2686
  111SOL    HW1  332   1.688   2.568   2.428 -0.8141 -0.4717 -1.5114
  111SOL    HW2  333   1.561   2.561   2.325  0.2837  2.0877  2.3709
  112SOL     OW  334   2.004   1.531   2.682 -0.3496 -0.9779 -0.1313
  112SOL    HW1  335   2.106   1.516   2.708  3.2100  2.8854  0.6043
  112SOL    HW2  336   1.984   1.635   2.682  2.5723  3.7107  2.5221
  113SOL     OW  337   1.519   2.140   1.671 -0.4414  0.0823  0.2131
  113SOL    HW1  338   1.452   2.082   1.721 -0.9652  2.0714 -0.9511
  113SOL    HW2  339   1.615   2.100   1.674  0.6571 -1.8309 -1.0145
  114SOL     OW  340   3.051   0.898   0.948  0.0549  0.2666 -0.0756
  114SOL    HW1  341   2.978   0.841   0.914  0.1633 -0.4617  0.3765
  114SOL    HW2  342   3.076   0.868   1.044 -0.9914 -1.7331  0.3521
  115SOL     OW  343   0.681   0.715   0.444 -0.1815  0.5080  0.2704
  115SOL    HW1  344   0.663   0.638   0.506 -0.3772  1.5776 -1.1317
  115SOL    HW2  345   0.631   0.695   0.360  0.3686 -0.8415  0.5547
  116SOL     OW  346   2.866   1.834   2.400 -0.2721 -0.3958  0.4069
  116SOL    HW1  347   2.844   1.911   2.466 -2.2629 -0.1793  1.4157
  116SOL    HW2  348   2.949   1.780   2.436 -0.8525 -0.6977 -1.4228
  117SOL     OW  349   2.890   2.872   0.608  0.4621 -0.2369  0.4609
  117SOL    HW1  350   2.956   2.810   0.556  0.8079 -4.6346 -0.8017
  117SOL    HW2  351   2.845   2.818   0.688 -1.9381 -2.3814  3.7607
  118SOL     OW  352   0.957   1.665   2.809 -0.3060  0.4709 -0.0014
  118SOL    HW1  353   0.857   1.687   2.798 -1.3230  0.6662 -2.7988
  118SOL    HW2  354   0.973   1.637   2.905 -1.8709  0.6334  1.0505
  119SOL     OW  355   0.327   2.104   0.046 -0.3014 -0.0517  0.1483
  119SOL    HW1  356   0.245   2.162   0.061 -1.5906 -0.3406 -1.1270
  119SOL    HW2  357   0.339   2.027   0.114 -2.5230 -1.0484 -0.0944
  120SOL     OW  358   1.452   0.828   0.379 -0.3317 -0.0526 -0.5621
  120SOL    HW1  359   1.546   0.797   0.404 -0.9138  1.2802 -1.2980
  120SOL    HW2  360   1.404   0.859   0.456  4.0223 -1.3197 -3.2454
  121SOL     OW  361   1.220   2.448   0.451 -0.3708 -0.0028 -0.6112
  121SOL    HW1  362   1.267   2.434   0.538  0.4018 -2.1782 -0.9901
  121SOL    HW2  363   1.274   2.401   0.380  1.6677  1.3143 -0.2242
  122SOL     OW  364   2.422   2.531   1.754  0.0857  0.4683  0.2429
  122SOL    HW1  365   2.484   2.497   1.682 -0.3322  0.8358 -0.9151
  122SOL    HW2  366   2.371   2.454   1.792 -1.4410 -0.8909  1.6720
  123SOL     OW  367   0.738   2.043   0.534  0.1489  0.0735  0.5220
  123SOL    HW1  368   0.652   2.053   0.479 -1.7816 -2.5812  1.4542
  123SOL    HW2  369   0.816   2.089   0.489  0.4766 -2.1659  1.3611
  124SOL     OW  370   3.075   0.783   0.093  0.3985 -0.3568  0.7504
  124SOL    HW1  371   0.003   0.710   0.140 -3.7847 -2.4165 -1.4655
  124SOL    HW2  372   3.127   0.873   0.089  2.7211 -1.4901  0.6744
  125SOL     OW  373   0.392   0.777   0.406  0.5854 -0.2710 -0.0022
  125SOL    HW1  374   0.392   0.764   0.304  1.6366 -0.8732 -0.4674
  125SOL    HW2  375   0.489   0.792   0.434 -1.5562  1.1993 -0.6051
  126SOL     OW  376   2.979   1.829   0.596 -0.1033 -0.1793 -0.4217
  126SOL    HW1  377   3.023   1.848   0.683 -2.1006  1.0005 -1.0908
  126SOL    HW2  378   3.051   1.808   0.529 -0.3176  0.8414 -0.8551
  127SOL     OW  379   1.337   1.890   1.792  0.7906  0.0614  0.0681
  127SOL    HW1  380   1.409   1.861   1.858  0.7548 -1.3044  1.4946
  127SOL    HW2  381   1.247   1.904   1.838  2.1589 -1.0862  0.9332
  128SOL     OW  382   0.999   1.074   0.161 -0.6691 -0.0760 -0.7599
  128SOL    HW1  383   0.927   1.102   0.095 -2.2483  0.6421  0.0896
  128SOL    HW2  384   1.081   1.135   0.145  1.8085  1.4513 -1.1099
  129SOL     OW  385   1.994   1.300   1.353  0.4788 -0.4391  0.7161
  129SOL    HW1  386   1.942   1.304   1.267  2.4311  0.5819  1.6948
  129SOL    HW2  387   1.947   1.325   1.440  2.5613 -0.1068 -1.2406
  130SOL     OW  388   2.380   1.641   1.731 -0.0733  0.2585 -0.3955
  130SOL    HW1  389   2.324   1.722   1.710  0.8262 -0.7213  0.1386
  130SOL    HW2  390   2.429   1.637   1.818 -0.6120  0.1041 -0.5438
  131SOL     OW  391   3.046   2.705   2.800  0.1452 -0.3786 -0.2151
  131SOL    HW1  392   2.946   2.690   2.813 -0.1167 -0.0975  0.0474
  131SOL    HW2  393   3.064   2.730   2.705 -0.7471 -0.3253 -0.7978
  132SOL     OW  394   2.972   1.504   0.417  0.4959 -0.1471  0.3467
  132SOL    HW1  395   2.934   1.589   0.375 -0.1171  2.7748  0.9285
  132SOL    HW2  396   2.959   1.502   0.518 -0.3505 -2.2000 -4.5699
  133SOL     OW  397   0.455   0.016   1.756 -0.1796 -0.0351 -0.1274
  133SOL    HW1  398   0.540   3.118   1.699  3.1626  1.9085 -0.7650
  133SOL    HW2  399   0.394   0.083   1.703  0.0462 -0.1820  0.7762
  134SOL     OW  400   0.250   1.904   2.839 -0.5586  0.7775 -0.4268
  134SOL    HW1  401   0.230   1.920   2.936 -2.9872 -1.5417 -3.7187
  134SOL    HW2  402   0.340   1.940   2.810 -1.4455 -1.2856 -1.9600
  135SOL     OW  403   1.518   0.675   1.980  1.0769  0.1511 -0.2782
  135SOL    HW1  404   1.488   0.747   2.048  1.5522  2.2427 -1.1734
  135SOL    HW2  405   1.552   0.597   2.035  1.3349  0.4129 -0.0883
  136SOL     OW  406   2.874   1.378   0.210 -0.3327 -0.4008 -0.3705
  136SOL    HW1  407   2.894   1.428   0.295 -0.2162  2.8165 -2.8611
  136SOL    HW2  408   2.900   1.425   0.125 -0.6856  0.9899  0.3979
  137SOL     OW  409   0.016   1.847   0.827  0.1005  0.2434 -0.5030
  137SOL    HW1  410   0.035   1.766   0.891 -1.2403 -3.8845  1.4023
  137SOL    HW2  411   0.095   1.905   0.810 -5.0371 -0.4926 -0.0163
  138SOL     OW  412   2.317   0.658   1.463 -0.1019  0.3822 -0.0063
  138SOL    HW1  413   2.382   0.714   1.415 -2.8625  2.1439  1.9199
  138SOL    HW2  414   2.304   0.578   1.404 -0.7394  0.1543  4.3779
  139SOL     OW  415   1.286   2.666   0.051  0.1100  0.3068 -0.4298
  139SOL    HW1  416   1.367   2.709   0.013 -3.5960 -0.3440  1.0370
  139SOL    HW2  417   1.194   2.695   0.012 -3.6534  0.9838 -2.4071
  140SOL     OW  418   1.062   1.728   1.219 -0.2805 -0.4327  0.0273
  140SOL    HW1  419   1.055   1.634   1.183 -3.8834  2.7755 -2.0611
  140SOL    HW2  420   1.130   1.783   1.168  0.9388 -3.0960  3.2320
  141SOL     OW  421   1.237   2.131   0.407  0.4884  0.1653 -0.2237
  141SOL    HW1  422   1.145   2.123   0.363 -0.3238  0.3074 -1.0270
  141SOL    HW2  423   1.300   2.191   0.352  0.2875 -0.7942 -1.4652
  142SOL     OW  424   1.049   0.066   0.864 -0.6980  0.0699  0.1880
  142SOL    HW1  425   1.092   3.117   0.815 -0.1669  1.2527 -0.2411
  142SOL    HW2  426   1.061   0.154   0.809 -0.1460  0.0313 -1.7588
  143SOL     OW  427   0.745   1.894   2.913 -0.4117  0.3289 -0.4301
  143SOL    HW1  428   0.833   1.951   2.911  2.7253  2.0432  1.1627
  143SOL    HW2  429   0.660   1.953   2.916 -2.8971 -1.6502  1.4146
  144SOL     OW  430   1.605   2.611   0.691  0.7012 -0.2840  0.0314
  144SOL    HW1  431   1.632   2.706   0.658 -0.1503  3.6677 -1.6822
  144SOL    HW2  432   1.667   2.543   0.650 -1.8697  0.1197  0.8060
  145SOL     OW  433   2.047   0.741   2.698  0.5105 -0.2761  0.1990
  145SOL    HW1  434   2.017   0.818   2.639  1.7922 -0.4772 -0.2284
  145SOL    HW2  435   2.144   0.715   2.669 -0.8369  0.6763  1.8244
  146SOL     OW  436   0.351   3.056   0.725  0.2450 -0.2469  0.1570
  146SOL    HW1  437   0.256   3.044   0.768  0.6141  1.4381  2.4607
  146SOL    HW2  438   0.337   3.056   0.622 -2.7281  0.9149  0.3199
  147SOL     OW  439   2.166   0.270   2.070 -0.0332 -0.5622 -0.2100
  147SOL    HW1  440   2.073   0.313   2.052  0.5109  0.0428  0.9430
  147SOL    HW2  441   2.236   0.340   2.056 -0.7861 -1.3368  3.2623
  148SOL     OW  442   0.989   3.047   2.158 -0.4093 -0.0367  0.0840
  148SOL    HW1  443   0.938   3.129   2.139 -0.4135 -2.6487  2.1968
  148SOL    HW2  444   1.076   3.072   2.201 -1.7349 -1.9368  0.8333
  149SOL     OW  445   1.609   0.454   2.128  0.1314  0.6754 -0.0011
  149SOL    HW1  446   1.573   0.384   2.065  1.3018  1.9504 -1.8096
  149SOL    HW2  447   1.560   0.461   2.218  1.9839 -1.4623  0.7051
  150SOL     OW  448   0.036   0.308   3.075  0.0105  0.1474  0.4472
  150SOL    HW1  449   3.072   0.319   3.116  0.4801  2.1039  1.1825
  150SOL    HW2  450   0.041   0.352   2.982  0.9422 -2.3391  1.2350
  151SOL     OW  451   0.709   1.552   0.278  0.1593 -0.3829  0.3789
  151SOL    HW1  452   0.735   1.544   0.179 -1.3193 -0.2836 -3.0477
  151SOL    HW2  453   0.789   1.590   0.331  3.4264  1.8642  3.5775
  152SOL     OW  454   2.960   0.424   0.461  0.1338  0.0004 -0.9853
  152SOL    HW1  455   2.912   0.438   0.376 -1.1327 -1.7118  2.8274
  152SOL    HW2  456   3.055   0.462   0.464  0.2569 -1.5392 -3.3128
  153SOL     OW  457   2.500   0.812   1.360 -0.3188  0.0176 -0.0725
  153SOL    HW1  458   2.526   0.894   1.304  1.7001  2.1291 -2.9608
  153SOL    HW2  459   2.568   0.799   1.436  1.3872 -2.4228  0.0055
  154SOL     OW  460   1.781   3.119   2.291  0.1661 -0.2845 -0.0163
  154SOL    HW1  461   1.758   3.025   2.311  1.4908 -0.3879  1.7978
  154SOL    HW2  462   1.759   0.021   2.193 -1.5971 -1.0750 -1.7144
  155SOL     OW  463   0.098   1.844   0.519  0.1528  0.2382  0.1491
  155SOL    HW1  464   0.122   1.929   0.572 -0.3429  0.5867 -0.3339
  155SOL    HW2  465   0.153   1.764   0.554  0.5457 -0.4735 -1.6592
  156SOL     OW  466   1.945   2.116   2.883 -0.2486  0.1576 -0.5854
  156SOL    HW1  467   1.944   2.016   2.891  1.2316  0.8855  0.3416
  156SOL    HW2  468   1.860   2.159   2.851  1.7990 -1.2919 -0.4763
  157SOL     OW  469   1.070   0.303   0.709  0.3688 -0.3310 -0.2766
  157SOL    HW1  470   1.021   0.394   0.702 -1.5673  0.4469  1.2158
  157SOL    HW2  471   1.145   0.292   0.636  0.2252  0.2246  1.4026
  158SOL     OW  472   2.331   0.515   2.442  0.1855  0.1921 -0.5358
  158SOL    HW1  473   2.243   0.464   2.418  0.1138 -1.5666 -0.9172
  158SOL    HW2  474   2.402   0.495   2.375 -3.2823 -3.2370  0.6310
  159SOL     OW  475   3.059   0.167   0.443 -0.3163  0.6038 -0.4098
  159SOL    HW1  476   3.014   0.252   0.469 -1.3699  0.8822 -1.2134
  159SOL    HW2  477   0.033   0.180   0.435  2.5620 -0.2438  1.3805
  160SOL     OW  478   1.636   2.080   2.013  0.0842 -0.2663 -0.3553
  160SOL    HW1  479   1.577   1.999   2.035  2.0238 -3.0596 -0.1419
  160SOL    HW2  480   1.729   2.041   2.007 -0.5525 -4.0279 -3.7187
  161SOL     OW  481   2.858   0.882   2.788 -0.3103 -0.1243 -0.1820
  161SOL    HW1  482   2.927   0.843   2.722 -0.7952  1.6863 -0.1018
  161SOL    HW2  483   2.802   0.816   2.833  4.3034  4.7415 -1.4041
  162SOL     OW  484   0.797   2.686   1.445  0.3133 -0.2486  0.7433
  162SOL    HW1  485   0.845   2.676   1.358 -0.7279  0.7351  2.9487
  162SOL    HW2  486   0.697   2.694   1.425  1.6360 -0.0257 -2.3150
  163SOL     OW  487   2.462   0.404   2.667  0.4688  0.6603  0.8250
  163SOL    HW1  488   2.412   0.460   2.739 -0.8150  2.9317  0.9563
  163SOL    HW2  489   2.419   0.418   2.574 -3.1747 -2.3861 -1.3026
  164SOL     OW  490   2.007   1.822   2.996 -0.0018  0.0384 -0.6842
  164SOL    HW1  491   1.995   1.820   2.897  1.7708  0.5619  0.8625
  164SOL    HW2  492   2.110   1.824   3.018  5.5033 -1.3783  0.5038
  165SOL     OW  493   2.828   0.401   1.529 -0.9202  0.1614 -0.7180
  165SOL    HW1  494   2.864   0.480   1.477 -0.8335 -1.3595 -2.5397
  165SOL    HW2  495   2.912   0.353   1.563 -0.7262 -2.6540 -2.6031
  166SOL     OW  496   2.459   0.837   2.939 -0.2361 -0.1356 -0.1431
  166SOL    HW1  497   2.530   0.774   2.906  0.5795 -0.3012 -0.0510
  166SOL    HW2  498   2.447   0.913   2.872 -0.0882  1.2799 -0.1511
  167SOL     OW  499   2.867   0.720   3.067  0.5051 -0.0727  0.3752
  167SOL    HW1  500   2.913   0.744   0.025  1.4331  2.4506  1.6734
  167SOL    HW2  501   2.921   0.647   3.016  2.0012 -2.2878  2.5059
  168SOL     OW  502   1.854   3.021   2.910  0.1086  0.4925  0.2394
  168SOL    HW1  503   1.833   2.928   2.945  2.1297 -0.9695 -0.8924
  168SOL    HW2  504   1.892   3.073   2.988 -0.7928 -2.6060  2.7416
  169SOL     OW  505   0.028   1.333   0.679  0.0137 -0.1682 -0.2172
  169SOL    HW1  506   3.097   1.411   0.665  3.0124 -0.9905  1.5244
  169SOL    HW2  507   3.103   1.251   0.706 -1.2511 -1.0761  2.0059
  170SOL     OW  508   2.945   0.575   1.354  0.3028 -0.1273  0.4510
  170SOL    HW1  509   3.040   0.541   1.339 -0.4321  0.0053  0.0416
  170SOL    HW2  510   2.888   0.562   1.275  1.3019  1.4970 -0.5712
  171SOL     OW  511   2.036   2.327   2.137  0.2502 -0.2564  0.1841
  171SOL    HW1  512   1.955   2.285   2.178  1.0664  1.3437 -0.4875
  171SOL    HW2  513   2.105   2.367   2.207 -0.2637 -1.4484 -0.0091
  172SOL     OW  514   0.220   2.538   1.547 -0.0421 -0.2077 -0.0242
  172SOL    HW1  515   0.326   2.525   1.544  1.8548 -0.3538 -0.5368
  172SOL    HW2  516   0.198   2.628   1.590  1.3589  2.3381 -2.2558
  173SOL     OW  517   1.249   1.223   0.154 -0.4516 -0.1851  0.1342
  173SOL    HW1  518   1.331   1.267   0.198  0.0862  0.2673  2.9521
  173SOL    HW2  519   1.278   1.190   0.062 -0.1049  2.7107  1.0663
  174SOL     OW  520   1.395   3.036   2.745  0.3585  0.0931 -0.1690
  174SOL    HW1  521   1.377   3.037   2.844  0.9160  2.4072 -0.4053
  174SOL    HW2  522   1.400   3.128   2.703 -4.0329  0.8556 -1.9708
  175SOL     OW  523   1.985   1.819   0.658  0.2499 -0.9645 -0.3420
  175SOL    HW1  524   2.047   1.893   0.691 -1.8734  1.2433  2.0860
  175SOL    HW2  525   2.011   1.728   0.692  3.7345 -0.1920  2.0508
  176SOL     OW  526   1.475   0.225   0.316 -0.3815 -0.4716  1.3884
  176SOL    HW1  527   1.575   0.243   0.293  0.9705  3.2046 -2.2258
  176SOL    HW2  528   1.424   0.303   0.275 -1.3980  0.0985 -0.0592
  177SOL     OW  529   0.791   1.518   0.035  0.2941 -0.2105  0.4094
  177SOL    HW1  530   0.737   1.597   0.001 -0.9454  0.9988 -1.5749
  177SOL    HW2  531   0.891   1.538   0.012  2.5235  0.2514 -0.7328
  178SOL     OW  532   2.761   2.356   2.668  0.3401 -0.2106 -0.4741
  178SOL    HW1  533   2.770   2.265   2.620  0.1932  1.1604 -1.1229
  178SOL    HW2  534   2.685   2.418   2.629 -1.6323  2.8255 -0.8219
  179SOL     OW  535   2.820   0.057   2.950 -0.4276 -0.0707  0.1505
  179SOL    HW1  536   2.859   0.146   2.910 -0.2325 -2.4620  1.5976
  179SOL    HW2  537   2.724   0.065   2.974  1.9227  1.6325 -0.1186
  180SOL     OW  538   1.402   1.644   0.535  0.2602 -0.0686  0.5466
  180SOL    HW1  539   1.313   1.696   0.539  1.1530  1.4446  0.0738
  180SOL    HW2  540   1.383   1.549   0.557 -1.1161  1.8287 -0.4142
  181SOL     OW  541   1.746   1.065   2.442 -0.2130 -0.3799  0.3275
  181SOL    HW1  542   1.716   0.970   2.431  3.3473  1.4075  2.4564
  181SOL    HW2  543   1.778   1.092   2.540 -1.0913 -0.1593 -1.8294
  182SOL     OW  544   2.624   2.794   2.727 -0.4714 -0.6728 -0.5185
  182SOL    HW1  545   2.656   2.756   2.816  0.7907  1.2266  1.4673
  182SOL    HW2  546   2.699   2.836   2.667 -1.8798  2.8624  0.6876
  183SOL     OW  547   1.997   0.660   2.176 -0.0777 -0.3229 -0.0666
  183SOL    HW1  548   2.038   0.721   2.242 -2.0409  0.6186 -4.1406
  183SOL    HW2  549   1.953   0.579   2.219  1.6328  0.9675 -3.0407
  184SOL     OW  550   0.118   1.254   1.558 -0.5646  0.5622 -0.8074
  184SOL    HW1  551   0.034   1.228   1.508 -1.3542  1.4104  1.4667
  184SOL    HW2  552   0.092   1.336   1.619 -0.3664  0.0313  1.1587
  185SOL     OW  553   1.764   0.430   0.900  0.4909 -0.2256  0.0230
  185SOL    HW1  554   1.716   0.376   0.973  1.5906  2.1803  1.8814
  185SOL    HW2  555   1.737   0.411   0.803  0.2898  2.2734  0.1627
  186SOL     OW  556   0.321   2.590   2.933 -0.1990 -0.0910  0.0522
  186SOL    HW1  557   0.231   2.632   2.963 -1.1331  0.7088  0.8824
  186SOL    HW2  558   0.301   2.490   2.922  0.8434  2.2197 -0.5516
  187SOL     OW  559   2.930   1.073   0.228 -0.5520  0.4276 -0.1059
  187SOL    HW1  560   2.916   1.174   0.229  0.5020  0.3719  1.7934
  187SOL    HW2  561   2.857   1.024   0.181 -2.2507  0.8227  2.2056
  188SOL     OW  562   2.786   1.628   1.481 -0.4143 -0.7769 -0.0911
  188SOL    HW1  563   2.862   1.568   1.514  0.6704  1.3135 -1.3838
  188SOL    HW2  564   2.804   1.729   1.491 -1.0399  0.0626 -0.4042
  189SOL     OW  565   2.731   0.473   2.705  0.2009  0.3365  0.0046
  189SOL    HW1  566   2.633   0.456   2.680 -0.0334  0.5431 -1.6751
  189SOL    HW2  567   2.787   0.478   2.621  1.0049 -1.1608  1.8415
  190SOL     OW  568   1.469   1.542   1.822 -0.3554 -0.4642 -0.9638
  190SOL    HW1  569   1.378   1.533   1.775  1.4197 -1.1057 -0.3570
  190SOL    HW2  570   1.466   1.619   1.890 -0.8577 -2.0093  0.1995
  191SOL     OW  571   0.418   0.322   2.108  0.2790 -0.1518 -0.3418
  191SOL    HW1  572   0.335   0.377   2.078 -2.6801  0.2864 -0.3200
  191SOL    HW2  573   0.477   0.286   2.032  2.3694  0.4625 -0.5029
  192SOL     OW  574   1.832   1.608   1.048 -0.2696 -0.1958  0.1900
  192SOL    HW1  575   1.841   1.508   1.050  1.2767 -0.8710  2.1711
  192SOL    HW2  576   1.791   1.626   1.139  1.5344 -1.1473 -0.8771
  193SOL     OW  577   1.553   0.826   1.166  0.1923  0.4327 -0.6295
  193SOL    HW1  578   1.594   0.914   1.198  0.1544  1.7619 -0.7442
  193SOL    HW2  579   1.621   0.753   1.156 -1.3414  1.0374  1.5277
  194SOL     OW  580   0.631   1.998   1.436 -0.5255 -0.4277 -0.0859
  194SOL    HW1  581   0.603   2.091   1.410  2.3161 -1.6058  0.2710
  194SOL    HW2  582   0.722   1.974   1.396  1.0002  3.4598  0.8276
  195SOL     OW  583   1.775   0.276   0.301 -0.0475  0.2538 -0.1038
  195SOL    HW1  584   1.783   0.216   0.383  1.4136 -1.2587  0.7239
  195SOL    HW2  585   1.862   0.330   0.297  0.3492  1.4624 -0.0660
  196SOL     OW  586   0.314   1.154   1.407  0.6727  0.0450  0.3658
  196SOL    HW1  587   0.240   1.194   1.466  1.1099 -0.0636 -0.3812
  196SOL    HW2  588   0.402   1.134   1.458 -1.4554 -1.1072 -3.2794
  197SOL     OW  589   1.169   0.087   1.690  0.0325  0.4604 -0.1605
  197SOL    HW1  590   1.221   0.047   1.616 -1.9191  1.9650  3.1620
  197SOL    HW2  591   1.169   0.025   1.773 -1.2231  1.2384 -2.4359
  198SOL     OW  592   0.625   1.003   1.173  0.2813 -0.5012 -0.6000
  198SOL    HW1  593   0.694   1.055   1.231  2.5196  1.6327 -0.4816
  198SOL    HW2  594   0.636   1.020   1.073  0.8240 -2.6705  0.3902
  199SOL     OW  595   0.197   2.263   1.600 -0.4123  0.3930 -0.2698
  199SOL    HW1  596   0.252   2.242   1.684  2.2640  0.0283  2.0423
  199SOL    HW2  597   0.201   2.364   1.589  0.0231 -3.2638  0.7437
  200SOL     OW  598   1.733   1.800   1.783 -0.1263 -0.1427 -0.2372
  200SOL    HW1  599   1.804   1.724   1.765  0.5524 -2.7405 -0.6412
  200SOL    HW2  600   1.741   1.868   1.705  0.6052 -0.0137 -0.6927
  201SOL     OW  601   0.364   1.716   2.193 -0.1757  0.1949  0.3069
  201SOL    HW1  602   0.277   1.687   2.150  0.6606 -1.7416 -0.3351
  201SOL    HW2  603   0.332   1.773   2.276  0.3507  1.8699  0.0976
  202SOL     OW  604   1.810   0.577   0.136 -0.1679  0.3032 -0.0263
  202SOL    HW1  605   1.716   0.576   0.089 -1.5684 -0.0140 -0.8209
  202SOL    HW2  606   1.883   0.551   0.073  1.5936  0.2983  0.2717
  203SOL     OW  607   1.140   2.673   1.789 -0.0002 -1.0249  0.2302
  203SOL    HW1  608   1.133   2.709   1.879  1.5140 -2.6740  0.3178
  203SOL    HW2  609   1.075   2.714   1.718 -1.7533  0.3136 -0.0000
  204SOL     OW  610   0.589   1.903   1.894 -0.1737 -0.5586  0.0246
  204SOL    HW1  611   0.667   1.938   1.844 -2.0839 -1.4433 -1.1446
  204SOL    HW2  612   0.504   1.894   1.836  0.1799 -0.4119  0.7576
  205SOL     OW  613   1.535   1.827   1.995 -0.2402 -0.5251 -0.3226
  205SOL    HW1  614   1.598   1.805   1.918 -1.9997 -0.4927  2.3328
  205SOL    HW2  615   1.535   1.753   2.062  1.0335  0.7405 -3.7131
  206SOL     OW  616   0.057   1.166   2.383 -0.1440  0.0151  0.2484
  206SOL    HW1  617   0.106   1.081   2.356 -1.6349  0.8455  0.0648
  206SOL    HW2  618   0.119   1.247   2.390  0.0905  0.1326  0.1917
  207SOL     OW  619   0.681   2.858   2.049 -0.1723  0.3381  0.1252
  207SOL    HW1  620   0.724   2.948   2.028 -0.4546 -0.3020 -1.2116
  207SOL    HW2  621   0.580   2.862   2.062  2.6887  1.1524  0.0773
  208SOL     OW  622   0.367   2.557   2.046  0.2890  0.0556 -0.5740
  208SOL    HW1  623   0.365   2.647   2.092 -0.8926  0.1206 -0.1868
  208SOL    HW2  624   0.425   2.544   1.961 -1.7914 -0.5827 -0.9202
  209SOL     OW  625   1.479   0.001   0.447 -0.2471 -0.0130 -0.4107
  209SOL    HW1  626   1.565   3.074   0.449 -2.5590  1.9321 -0.2833
  209SOL    HW2  627   1.498   0.091   0.405  1.8657 -0.0754  2.4811
  210SOL     OW  628   2.813   0.841   0.816  0.0834  0.4737 -0.1683
  210SOL    HW1  629   2.868   0.848   0.732  3.0855 -3.0011  1.3533
  210SOL    HW2  630   2.729   0.778   0.812 -3.1601  1.6554 -0.8688
  211SOL     OW  631   0.712   0.341   1.704 -0.0038 -0.1979 -0.2189
  211SOL    HW1  632   0.626   0.393   1.704 -0.0922  0.6153  0.0321
  211SOL    HW2  633   0.788   0.405   1.699 -2.8072 -0.1396 -0.5328
  212SOL     OW  634   1.447   1.776   1.301 -0.2239  0.0469 -0.1145
  212SOL    HW1  635   1.412   1.785   1.400 -1.6344 -0.1681  2.4085
  212SOL    HW2  636   1.476   1.867   1.268  0.5721 -1.4487  3.3262
  213SOL     OW  637   2.656   0.535   1.718 -0.4928 -0.4020  0.6920
  213SOL    HW1  638   2.694   0.461   1.660 -0.7801 -0.3598  2.7835
  213SOL    HW2  639   2.703   0.524   1.806 -2.1410 -1.1010 -0.4988
  214SOL     OW  640   0.669   2.349   2.348  0.2737  0.3379 -0.1578
  214SOL    HW1  641   0.699   2.296   2.261 -0.5876 -0.9686 -1.1190
  214SOL    HW2  642   0.712   2.310   2.434  0.7117  0.8348  1.8786
  215SOL     OW  643   2.720   1.797   1.714  0.6764  0.0758  0.2100
  215SOL    HW1  644   2.813   1.760   1.733 -1.0772 -0.1080 -1.9193
  215SOL    HW2  645   2.671   1.757   1.633  0.7750 -1.1265  1.4920
  216SOL     OW  646   0.690   0.770   1.994 -0.5118 -0.3167  0.3154
  216SOL    HW1  647   0.611   0.765   1.931 -0.4736  0.6481  1.7992
  216SOL    HW2  648   0.671   0.844   2.060 -0.0085  0.4530  0.2381
  217SOL     OW  649   2.805   0.373   1.033 -0.0134 -0.6619 -0.0503
  217SOL    HW1  650   2.907   0.369   1.062  3.1313  2.1211 -0.5198
  217SOL    HW2  651   2.759   0.304   1.090  4.4616  1.9093  0.9958
  218SOL     OW  652   1.458   1.859   0.979 -0.1084 -0.0076  0.2754
  218SOL    HW1  653   1.439   1.885   0.880 -1.0911 -0.3489 -0.2836
  218SOL    HW2  654   1.385   1.894   1.042 -0.5213  0.7884  1.1260
  219SOL     OW  655   1.821   2.770   0.536  0.6386  0.3832 -0.3488
  219SOL    HW1  656   1.874   2.756   0.624 -1.1952 -0.7394 -1.5151
  219SOL    HW2  657   1.834   2.699   0.463 -0.2730 -1.5219 -1.4191
  220SOL     OW  658   1.633   2.314   0.338  0.0188  1.0104 -0.0903
  220SOL    HW1  659   1.672   2.238   0.398  2.9402 -1.8717 -0.2347
  220SOL    HW2  660   1.703   2.384   0.320 -0.6852 -1.8117  2.2859
  221SOL     OW  661   2.916   1.707   0.216 -0.1134  0.2206 -0.1578
  221SOL    HW1  662   2.855   1.787   0.208  1.0775 -0.0137  0.6533
  221SOL    HW2  663   2.909   1.646   0.136 -1.2209  0.5997 -0.1861
  222SOL     OW  664   0.532   2.287   0.872  0.0945 -0.2355 -0.9040
  222SOL    HW1  665   0.572   2.342   0.797  0.5349  1.4975  1.6282
  222SOL    HW2  666   0.608   2.234   0.920  1.5033 -2.5750 -0.4308
  223SOL     OW  667   1.288   0.251   0.534  0.0629  0.3903 -0.0803
  223SOL    HW1  668   1.388   0.242   0.511  2.9502 -1.1787 -1.3628
  223SOL    HW2  669   1.236   0.174   0.485  0.0700 -1.5337  0.2198
  224SOL     OW  670   2.994   1.120   0.768  0.8122 -0.5308 -0.1920
  224SOL    HW1  671   2.892   1.136   0.757 -1.6587 -0.6922  0.5012
  224SOL    HW2  672   3.006   1.047   0.838 -0.3067  1.5178 -2.3662
  225SOL     OW  673   0.019   1.645   1.301  0.1517 -0.3911 -0.3263
  225SOL    HW1  674   3.059   1.700   1.304 -2.0918  0.6265 -1.7901
  225SOL    HW2  675   0.068   1.654   1.390 -0.4042 -0.5591 -0.3139
  226SOL     OW  676   0.451   2.912   0.953  0.0663  0.2113  0.7922
  226SOL    HW1  677   0.436   2.973   0.872  2.5288  0.6428  1.3852
  226SOL    HW2  678   0.430   2.961   1.034 -0.7145 -2.3522 -0.2881
  227SOL     OW  679   1.221   1.506   1.694  0.0083 -0.4041 -1.0114
  227SOL    HW1  680   1.161   1.538   1.771  1.1610  1.8111 -1.8723
  227SOL    HW2  681   1.186   1.521   1.600 -1.3090 -1.4801 -0.7196
  228SOL     OW  682   0.575   0.214   1.905 -0.2359 -0.0843 -0.5294
  228SOL    HW1  683   0.526   0.140   1.855 -2.8571  2.8428 -0.3966
  228SOL    HW2  684   0.651   0.251   1.847  1.2719  1.6094  0.0209
  229SOL     OW  685   3.043   0.731   2.430  0.2756 -0.2779  0.2554
  229SOL    HW1  686   3.066   0.794   2.509  1.0355  0.4030 -0.7658
  229SOL    HW2  687   3.056   0.779   2.344  1.3970  0.8643 -0.3984
  230SOL     OW  688   0.295   0.773   1.056 -0.5406 -0.2470  0.0925
  230SOL    HW1  689   0.260   0.845   0.996  0.0855  0.8520 -0.7822
  230SOL    HW2  690   0.321   0.810   1.147 -0.4043 -1.5549  2.2135
  231SOL     OW  691   1.264   0.046   1.951 -0.1011  0.5294  0.0199
  231SOL    HW1  692   1.209   0.110   2.008  0.5308 -0.3617 -0.0452
  231SOL    HW2  693   1.317   3.108   2.010 -0.3251 -0.2931 -0.2704
  232SOL     OW  694   3.014   2.086   0.180 -0.6273  0.3225 -0.3657
  232SOL    HW1  695   3.070   2.004   0.196 -0.6795  1.8996 -1.0036
  232SOL    HW2  696   2.921   2.068   0.145 -1.8072  1.0664  1.6869
  233SOL     OW  697   1.366   2.567   2.888  0.2822 -0.0828 -0.3462
  233SOL    HW1  698   1.370   2.546   2.788  2.4732 -1.6962 -1.6633
  233SOL    HW2  699   1.445   2.630   2.916 -0.6202 -0.5559 -0.6247
  234SOL     OW  700   0.394   1.028   1.739 -0.1531  0.7764 -0.0534
  234SOL    HW1  701   0.458   1.056   1.665 -0.2377 -0.4185 -3.0371
  234SOL    HW2  702   0.439   1.054   1.828  0.3750 -0.7091  2.2454
  235SOL     OW  703   0.015   2.395   2.493 -0.2688  0.0497 -0.1432
  235SOL    HW1  704   0.113   2.369   2.499 -1.5692  2.2662  3.5147
  235SOL    HW2  705   3.106   2.402   2.590  0.1994 -1.5416 -1.1877
  236SOL     OW  706   1.785   1.869   2.512 -0.4610 -0.4796  0.1928
  236SOL    HW1  707   1.732   1.817   2.446 -1.2728  4.0941  0.3584
  236SOL    HW2  708   1.806   1.962   2.472  0.5910  1.5173  0.0076
  237SOL     OW  709   1.578   0.862   0.843  0.0076 -0.4034 -0.3339
  237SOL    HW1  710   1.567   0.764   0.831 -1.7336  4.9213  0.0679
  237SOL    HW2  711   1.494   0.901   0.891 -0.8345  2.3615 -0.4598
  238SOL     OW  712   1.067   2.797   2.034 -0.0492 -0.0433 -0.1728
  238SOL    HW1  713   1.051   2.898   2.060  3.6500 -0.0023 -0.5481
  238SOL    HW2  714   0.980   2.742   2.055 -2.8582 -0.2420  0.4062
  239SOL     OW  715   0.836   2.623   2.018  0.2306 -0.6049 -0.5725
  239SOL    HW1  716   0.842   2.595   1.920  0.0732 -0.3871  0.0821
  239SOL    HW2  717   0.766   2.694   2.024  2.0965 -2.7144 -2.3993
  240SOL     OW  718   2.167   3.119   0.703  0.3805  0.3508 -0.7052
  240SOL    HW1  719   2.127   3.051   0.641 -1.4948 -0.3179  1.4947
  240SOL    HW2  720   2.169   0.079   0.659 -0.1803 -1.5204 -1.4890
  241SOL     OW  721   1.061   1.370   2.622 -0.6240 -0.6469 -0.1648
  241SOL    HW1  722   0.975   1.322   2.594  1.7044 -0.3993  1.2774
  241SOL    HW2  723   1.046   1.472   2.637 -1.2303  1.7592  1.5675
  242SOL     OW  724   2.660   0.674   2.891 -0.6194 -0.1044  0.0082
  242SOL    HW1  725   2.732   0.675   2.962 -1.0788 -0.2748 -0.1855
  242SOL    HW2  726   2.680   0.598   2.824 -0.7203  0.4372 -2.2589
  243SOL     OW  727   0.923   0.517   1.703  0.2924 -0.1143 -0.1385
  243SOL    HW1  728   0.945   0.606   1.664  1.2704 -0.4361  0.8092
  243SOL    HW2  729   1.002   0.454   1.708 -0.4140 -0.0794  0.9694
  244SOL     OW  730   1.378   3.043   3.007  0.0623  0.2323  0.5719
  244SOL    HW1  731   1.288   3.062   3.051 -0.2791  0.5002 -1.9628
  244SOL    HW2  732   1.461   3.048   3.068 -0.3208 -1.1045 -1.9610
  245SOL     OW  733   1.874   2.756   3.035  0.1867 -0.0893  0.2362
  245SOL    HW1  734   1.888   2.694   3.116  0.1443  2.3915  1.5956
  245SOL    HW2  735   1.960   2.816   3.018  3.3483 -1.3001 -3.1091
  246SOL     OW  736   0.711   0.890   1.593  0.4209  0.1739  0.3302
  246SOL    HW1  737   0.760   0.895   1.683 -2.7714  0.8244 -1.6538
  246SOL    HW2  738   0.777   0.850   1.523  0.3258  1.0837 -0.0895
  247SOL     OW  739   0.186   0.489   1.989 -0.4093 -0.6270  0.2115
  247SOL    HW1  740   0.157   0.399   1.954 -2.6122 -0.9297  0.4693
  247SOL    HW2  741   0.198   0.557   1.913 -0.7903  0.7168  1.5636
  248SOL     OW  742   3.052   1.304   1.959 -0.3337 -0.5408  0.3239
  248SOL    HW1  743   2.982   1.380   1.950  2.7405  1.5227  2.2751
  248SOL    HW2  744   3.058   1.280   2.055  1.1274  2.1860 -2.3804
  249SOL     OW  745   0.261   0.402   0.068 -0.1835 -0.0317 -0.4654
  249SOL    HW1  746   0.299   0.344   0.139  0.5026  0.7304  0.4568
  249SOL    HW2  747   0.183   0.359   0.025 -0.2558  0.4443  0.8416
  250SOL     OW  748   2.904   0.253   0.042  0.5566  0.1715 -0.3131
  250SOL    HW1  749   2.866   0.295   0.123  0.4452 -2.2367 -0.4867
  250SOL    HW2  750   2.835   0.193   3.125  1.5239 -0.0080  0.0006
  251SOL     OW  751   0.919   1.818   1.780  0.0054  0.2870 -0.2949
  251SOL    HW1  752   0.877   1.902   1.745  1.0163 -3.2966  2.6319
  251SOL    HW2  753   1.016   1.829   1.788 -1.3404 -2.7529 -1.2494
  252SOL     OW  754   1.874   2.119   1.005  0.0214  0.1118 -0.3942
  252SOL    HW1  755   1.813   2.038   0.998  1.6674  1.8876 -0.3071
  252SOL    HW2  756   1.910   2.125   1.095 -1.9092 -2.0378 -3.6328
  253SOL     OW  757   1.678   2.273   2.190  0.1910 -0.1075  0.3668
  253SOL    HW1  758   1.596   2.330   2.197  0.3587  0.5338  0.4318
  253SOL    HW2  759   1.668   2.210   2.109 -0.5885 -0.2404  0.6649
  254SOL     OW  760   0.785   2.254   2.101  0.3189  0.0603 -0.1573
  254SOL    HW1  761   0.733   2.282   2.021  0.3229 -2.7522  1.4591
  254SOL    HW2  762   0.880   2.286   2.105 -1.7991  1.5239  0.6806
  255SOL     OW  763   1.062   0.124   1.353  0.0467 -0.1466  0.5287
  255SOL    HW1  764   1.107   0.126   1.258 -0.6735  1.0044 -1.8878
  255SOL    HW2  765   1.065   0.027   1.388  1.4452  1.2137  0.7199
  256SOL     OW  766   2.157   2.283   1.691 -0.0027 -0.2767 -0.2890
  256SOL    HW1  767   2.175   2.285   1.593  0.5021 -0.4834  3.6378
  256SOL    HW2  768   2.228   2.225   1.732 -0.0732 -1.1278 -1.7715
  257SOL     OW  769   0.706   2.363   2.783 -0.3207  0.4583 -0.4024
  257SOL    HW1  770   0.671   2.451   2.819  0.9856 -1.5907 -0.7766
  257SOL    HW2  771   0.787   2.332   2.843 -0.3807 -0.4612  0.9637
  258SOL     OW  772   0.587   0.947   2.203  0.4768 -0.0174 -0.3481
  258SOL    HW1  773   0.564   0.993   2.293 -0.6537  0.7478  0.1278
  258SOL    HW2  774   0.531   0.858   2.203  0.7290 -0.9941  1.5939
  259SOL     OW  775   0.681   1.346   1.910 -0.4716  0.0480 -0.0386
  259SOL    HW1  776   0.598   1.403   1.896  0.7115  0.7059  1.6358
  259SOL    HW2  777   0.739   1.393   1.981  2.3734  0.8072  1.1362
  260SOL     OW  778   1.911   0.965   1.105 -0.3440  0.4597  0.9393
  260SOL    HW1  779   1.947   1.033   1.037 -0.2906 -1.3338  0.8143
  260SOL    HW2  780   1.974   0.974   1.189 -0.4595  0.7763  1.2107
  261SOL     OW  781   0.904   2.908   0.929  0.5558  0.0220  0.2126
  261SOL    HW1  782   0.850   2.996   0.940 -0.6668  0.5125  1.4267
  261SOL    HW2  783   1.003   2.927   0.920  1.4710 -3.2996  2.7529
  262SOL     OW  784   2.031   2.668   2.551  0.2170 -0.3240 -0.0516
  262SOL    HW1  785   2.057   2.691   2.646 -1.3746 -2.7247 -2.0525
  262SOL    HW2  786   2.099   2.711   2.490  0.5126  0.9651  1.1421
  263SOL     OW  787   0.215   1.640   2.855 -0.1263  0.3578 -0.1518
  263SOL    HW1  788   0.204   1.742   2.836  0.8912 -0.5791 -0.4319
  263SOL    HW2  789   0.315   1.621   2.855 -0.1016  0.5616 -1.0414
  264SOL     OW  790   0.365   1.904   1.496 -0.4395  0.2594  0.1395
  264SOL    HW1  791   0.452   1.934   1.452 -0.2893  0.2085 -2.3302
  264SOL    HW2  792   0.284   1.965   1.466  1.0004 -1.5029 -1.0815
  265SOL     OW  793   0.760   1.006   0.576  0.2318  0.2803  0.4300
  265SOL    HW1  794   0.705   0.925   0.613 -2.7058  1.4955  0.4157
  265SOL    HW2  795   0.851   0.977   0.542  1.2383 -1.4376  0.2579
  266SOL     OW  796   1.291   1.768   3.020  0.0553  0.5245  0.1105
  266SOL    HW1  797   1.365   1.835   3.013 -0.6667  0.3913  0.7206
  266SOL    HW2  798   1.272   1.722   2.929  0.8811 -2.9074  0.9729
  267SOL     OW  799   0.699   0.818   2.719  0.1476 -0.1704 -0.2082
  267SOL    HW1  800   0.736   0.804   2.811 -0.4029 -0.3929 -2.2669
  267SOL    HW2  801   0.728   0.912   2.678 -3.4108  4.1969 -0.8622
  268SOL     OW  802   0.985   0.604   3.100 -0.5036  0.4757  0.3878
  268SOL    HW1  803   0.973   0.680   0.039 -1.4129  2.6718  1.1072
  268SOL    HW2  804   1.084   0.579   3.084 -1.6769  2.0226  0.9817
  269SOL     OW  805   2.050   3.095   2.730 -0.1413 -0.7384 -0.2853
  269SOL    HW1  806   2.002   0.013   2.651 -2.7677 -1.0452  2.1400
  269SOL    HW2  807   1.978   3.050   2.791  0.7728 -2.6956  1.4207
  270SOL     OW  808   1.031   0.963   2.838 -0.4121 -0.1834 -0.3154
  270SOL    HW1  809   1.109   0.916   2.885 -0.1922  3.3641 -1.1070
  270SOL    HW2  810   0.945   0.917   2.870  1.6460 -1.0869  0.8015
  271SOL     OW  811   0.125   0.612   0.192  0.1190  0.4756 -0.3444
  271SOL    HW1  812   0.192   0.682   0.167 -4.7186  0.0021  1.8910
  271SOL    HW2  813   0.156   0.516   0.167  1.7474 -0.2236  1.0311
  272SOL     OW  814   2.484   1.327   2.545 -0.3656  0.1562 -0.3517
  272SOL    HW1  815   2.385   1.305   2.558  0.1317  2.7785 -0.6094
  272SOL    HW2  816   2.537   1.242   2.514  0.4592  0.6819 -2.1537
  273SOL     OW  817   0.049   0.249   2.264  0.7134  0.0340 -0.2295
  273SOL    HW1  818   0.039   0.341   2.308  1.6307 -1.1542 -0.7664
  273SOL    HW2  819   0.099   0.183   2.325  2.1840  1.3479 -0.4625
  274SOL     OW  820   0.115   0.208   1.955 -0.0588 -0.0526  1.2551
  274SOL    HW1  821   0.138   0.141   1.883 -0.2909 -2.2121  1.5140
  274SOL    HW2  822   0.106   0.167   2.049 -1.4179  1.6764  0.6150
  275SOL     OW  823   1.976   1.250   0.220  0.1142  0.5682 -0.3564
  275SOL    HW1  824   1.977   1.151   0.192  3.2681 -3.6642 -1.7968
  275SOL    HW2  825   1.895   1.303   0.182 -0.4456 -0.9173  1.1861
  276SOL     OW  826   0.515   1.003   2.828 -0.1038  0.3084  0.3166
  276SOL    HW1  827   0.576   0.949   2.769  0.3620 -1.1770 -1.1402
  276SOL    HW2  828   0.417   1.011   2.800  0.8275 -2.4068  3.7528
  277SOL     OW  829   1.699   2.882   2.394  0.4218 -0.1050 -0.4322
  277SOL    HW1  830   1.768   2.808   2.379 -0.3807 -0.2297 -0.0960
  277SOL    HW2  831   1.675   2.894   2.494 -0.8922  3.3145 -2.2502
  278SOL     OW  832   1.926   0.096   1.655 -0.0863 -0.3839 -0.2446
  278SOL    HW1  833   1.861   0.166   1.693 -1.6043  0.7286  0.2067
  278SOL    HW2  834   1.868   0.027   1.605  1.1072  0.2316  1.6071
  279SOL     OW  835   1.634   1.346   3.046 -0.2025 -0.0938  1.5279
  279SOL    HW1  836   1.559   1.335   2.981 -0.1855 -0.1496 -0.2916
  279SOL    HW2  837   1.687   1.257   3.054  2.1419 -0.7967  2.1820
  280SOL     OW  838   0.807   1.238   0.039 -0.5641  0.1224  0.3084
  280SOL    HW1  839   0.799   1.338   0.053  1.1011 -0.2021 -1.8663
  280SOL    HW2  840   0.733   1.195   0.085 -0.5797  0.2368  2.4398
  281SOL     OW  841   3.087   2.918   1.715  0.4700  0.0858  0.0259
  281SOL    HW1  842   0.000   2.941   1.801  1.2752 -2.3830 -1.4763
  281SOL    HW2  843   2.986   2.910   1.721 -2.1162  3.0101 -0.5004
  282SOL     OW  844   3.088   2.493   0.799  0.1156  0.0987 -0.0673
  282SOL    HW1  845   3.067   2.440   0.710 -0.9577 -0.9499 -2.8940
  282SOL    HW2  846   0.057   2.490   0.821 -0.0855  0.2453  2.5662
  283SOL     OW  847   1.088   2.253   1.828 -0.0768 -0.0384 -0.3607
  283SOL    HW1  848   1.109   2.281   1.925 -1.1300  0.4923  1.4873
  283SOL    HW2  849   1.151   2.314   1.769 -0.8114  2.1925  1.3828
  284SOL     OW  850   2.434   0.627   0.591 -0.0736  0.4811  0.4392
  284SOL    HW1  851   2.348   0.598   0.636  0.0141  1.3867 -0.3203
  284SOL    HW2  852   2.425   0.708   0.532  1.9297 -0.7923  0.0284
  285SOL     OW  853   0.014   2.877   2.551  0.3386 -0.0165  0.4008
  285SOL    HW1  854   0.075   2.885   2.475 -0.1673  0.3004  0.3105
  285SOL    HW2  855   0.030   2.956   2.613  1.6276 -1.0824 -0.6497
  286SOL     OW  856   1.949   2.577   1.376  0.1427  0.1419 -0.2352
  286SOL    HW1  857   2.044   2.569   1.414 -3.8731 -1.0928  1.2885
  286SOL    HW2  858   1.888   2.508   1.419  1.5202 -1.5112 -1.7438
  287SOL     OW  859   0.780   1.461   1.022 -0.4007 -0.0214  0.2207
  287SOL    HW1  860   0.750   1.453   0.922  0.4421 -1.1366  0.8654
  287SOL    HW2  861   0.707   1.515   1.070  0.8799  0.2506 -2.0373
  288SOL     OW  862   1.938   2.563   0.086  0.5526 -0.1136  0.1158
  288SOL    HW1  863   2.041   2.574   0.108  2.5376  0.3570  0.8039
  288SOL    HW2  864   1.914   2.479   0.035 -0.1308 -0.5866  2.1061
  289SOL     OW  865   0.669   2.014   2.523  0.0446 -0.1624  0.3132
  289SOL    HW1  866   0.674   1.999   2.421  0.7824 -0.6482  1.3842
  289SOL    HW2  867   0.705   2.112   2.539 -0.6340  3.5605 -1.0864
  290SOL     OW  868   1.258   1.999   1.120 -0.5799  0.2169  0.7436
  290SOL    HW1  869   1.282   2.099   1.133 -0.8375  0.8013  1.7736
  290SOL    HW2  870   1.182   1.990   1.051  1.8288 -0.7696  3.1768
  291SOL     OW  871   1.580   1.625   2.819  0.1619  0.3962  0.4065
  291SOL    HW1  872   1.557   1.571   2.736  1.0672  1.8351 -0.6551
  291SOL    HW2  873   1.512   1.623   2.898 -1.0330 -0.5988  0.6006
  292SOL     OW  874   1.435   1.580   0.978  0.0039  0.4846  0.1740
  292SOL    HW1  875   1.450   1.680   0.977  0.9433  1.2120 -2.3414
  292SOL    HW2  876   1.438   1.536   1.069  3.2754 -1.1524 -1.4562
  293SOL     OW  877   1.903   2.931   0.884  0.2481  0.7016  0.1318
  293SOL    HW1  878   1.997   2.966   0.909  2.2066  0.6486  0.9178
  293SOL    HW2  879   1.920   2.837   0.843  1.3564 -0.3506  1.6450
  294SOL     OW  880   0.046   1.139   2.654 -0.6728 -0.1295 -0.2794
  294SOL    HW1  881   3.119   1.201   2.713  0.5770  2.6913  0.5135
  294SOL    HW2  882   0.059   1.176   2.560  1.0750 -1.0249  3.1570
  295SOL     OW  883   1.301   2.246   2.647 -0.3303 -0.0258  0.3674
  295SOL    HW1  884   1.323   2.343   2.628  1.5716 -0.8160  1.8191
  295SOL    HW2  885   1.324   2.222   2.743 -0.4956 -3.4274  0.8764
  296SOL     OW  886   2.010   1.104   2.095 -0.0297 -0.6720 -0.2662
  296SOL    HW1  887   1.959   1.014   2.089 -0.4293 -0.5185  0.7877
  296SOL    HW2  888   1.962   1.171   2.157  0.8472 -0.2262 -1.0662
  297SOL     OW  889   0.139   0.735   2.135  0.0398  0.0406  0.0550
  297SOL    HW1  890   0.115   0.656   2.074 -0.1185 -1.1737  1.7744
  297SOL    HW2  891   0.061   0.795   2.147  0.6023 -1.5773 -1.3888
  298SOL     OW  892   1.023   2.426   2.079  0.2415 -0.1920  0.1788
  298SOL    HW1  893   0.942   2.478   2.058 -2.0517 -1.8958 -0.0548
  298SOL    HW2  894   1.089   2.483   2.131  0.0707  0.2469  2.7035
  299SOL     OW  895   0.784   2.925   2.786  0.1184  1.0260 -0.0868
  299SOL    HW1  896   0.685   2.936   2.803  1.9012 -1.3310  1.8381
  299SOL    HW2  897   0.807   2.830   2.764 -0.3740  0.7938  1.7475
  300SOL     OW  898   0.305   0.776   2.880  0.2845 -0.3937 -0.4652
  300SOL    HW1  899   0.221   0.829   2.893  2.9080  0.0630 -0.8416
  300SOL    HW2  900   0.358   0.769   2.964  0.8430 -2.3374 -1.9314
  301SOL     OW  901   1.694   1.076   1.676  0.1956  0.4725 -0.3329
  301SOL    HW1  902   1.640   1.081   1.585  0.5843  0.9831  1.0121
  301SOL    HW2  903   1.687   1.166   1.727 -1.9786  0.5046 -0.2381
  302SOL     OW  904   2.611   2.017   2.670 -0.2365 -0.1150  0.6013
  302SOL    HW1  905   2.689   2.047   2.606 -0.0346  1.1600 -2.0716
  302SOL    HW2  906   2.570   1.931   2.632  0.5217  2.2174  0.2025
  303SOL     OW  907   3.120   0.331   2.625  0.4835 -0.1138 -0.0220
  303SOL    HW1  908   0.052   0.255   2.597 -1.8586 -1.1830 -2.4010
  303SOL    HW2  909   3.093   0.389   2.543  0.6055  1.4462 -4.6124
  304SOL     OW  910   2.933   0.927   1.528  0.2267 -0.0398 -0.6505
  304SOL    HW1  911   3.014   0.868   1.542 -1.1245  0.7120  0.2275
  304SOL    HW2  912   2.850   0.870   1.540 -2.5656  0.8454 -1.3369
  305SOL     OW  913   2.820   2.990   1.789 -0.7582 -0.0793  0.5729
  305SOL    HW1  914   2.839   3.065   1.857 -1.9535  0.9298  0.3340
  305SOL    HW2  915   2.763   3.027   1.714 -1.7610  1.9608 -1.5925
  306SOL     OW  916   2.950   1.396   1.581  0.1786  0.2191 -0.2636
  306SOL    HW1  917   2.860   1.399   1.627  0.9715 -0.6946 -1.4052
  306SOL    HW2  918   2.957   1.331   1.507 -2.2327  2.9265  2.7709
  307SOL     OW  919   2.014   0.409   1.269 -0.4754  0.3918 -0.6332
  307SOL    HW1  920   1.947   0.475   1.307  0.6706 -3.7710  1.1996
  307SOL    HW2  921   1.987   0.391   1.174  1.0486 -1.6930  0.8651
  308SOL     OW  922   3.104   1.933   1.127 -0.2346 -0.6033  0.0862
  308SOL    HW1  923   3.127   1.890   1.039  0.2945  0.2730  2.4197
  308SOL    HW2  924   3.067   2.027   1.110 -2.0050  0.1418 -0.2911
  309SOL     OW  925   2.226   1.864   1.662 -0.5053  0.0313  0.2051
  309SOL    HW1  926   2.256   1.876   1.565 -1.0117 -2.6297 -3.8644
  309SOL    HW2  927   2.149   1.931   1.683 -1.1785 -0.6955  1.0251
  310SOL     OW  928   2.436   1.804   2.913 -0.0390  0.2273  0.1973
  310SOL    HW1  929   2.362   1.856   2.964  1.9184 -1.6599 -1.9496
  310SOL    HW2  930   2.532   1.835   2.931 -1.2435  2.3142  0.6848
  311SOL     OW  931   2.266   1.472   2.747 -0.2891 -0.2075  0.4507
  311SOL    HW1  932   2.365   1.496   2.771  0.6251  1.2309 -1.5320
  311SOL    HW2  933   2.219   1.415   2.817 -1.4806 -0.2253  1.6114
  312SOL     OW  934   1.592   2.208   1.421 -0.1853 -0.2228  0.0406
  312SOL    HW1  935   1.536   2.298   1.408  0.0836  1.0367 -1.6515
  312SOL    HW2  936   1.571   2.159   1.507 -0.9926  0.4509 -0.1805
  313SOL     OW  937   0.240   2.594   1.076  0.4142  0.2049 -0.1734
  313SOL    HW1  938   0.330   2.551   1.067 -1.1116 -0.7132 -0.1408
  313SOL    HW2  939   0.183   2.539   1.143  2.6060  0.9073 -1.9044
  314SOL     OW  940   0.858   1.624   1.616  0.0412 -0.1816  0.4860
  314SOL    HW1  941   0.799   1.684   1.556 -0.1784  1.9422 -0.7869
  314SOL    HW2  942   0.879   1.683   1.694 -0.4393  1.5451 -1.8040
  315SOL     OW  943   0.675   3.024   2.447 -0.7627 -0.2350 -0.1934
  315SOL    HW1  944   0.765   3.063   2.452 -3.0632  0.1061 -0.2084
  315SOL    HW2  945   0.674   2.927   2.474 -1.6802  0.9410 -3.6311
  316SOL     OW  946   2.939   2.065   0.840  0.5235 -0.0718  0.1412
  316SOL    HW1  947   2.902   2.052   0.746 -0.1475  0.9016 -1.7514
  316SOL    HW2  948   2.971   1.974   0.872 -0.6165 -1.1633 -0.1712
  317SOL     OW  949   1.942   0.702   0.497 -0.1388  0.3294 -0.3774
  317SOL    HW1  950   1.942   0.654   0.587  1.2947  0.0060  1.1575
  317SOL    HW2  951   2.032   0.730   0.459 -1.1497  2.6954 -2.6931
  318SOL     OW  952   2.933   2.494   0.099 -0.5871 -0.2983  0.4058
  318SOL    HW1  953   2.903   2.590   0.072 -3.5025  0.2947 -3.3318
  318SOL    HW2  954   2.907   2.478   0.198 -0.9252 -0.1144  2.6102
  319SOL     OW  955   1.292   1.680   0.158 -0.0434  0.3244  0.2390
  319SOL    HW1  956   1.339   1.677   0.071  0.5261  1.4401  2.2698
  319SOL    HW2  957   1.301   1.777   0.199  1.3420 -0.7790  3.1044
  320SOL     OW  958   0.595   2.699   2.570 -0.0090  0.9165 -0.2418
  320SOL    HW1  959   0.537   2.640   2.506 -3.2735 -3.3217 -1.3379
  320SOL    HW2  960   0.605   2.650   2.665  1.4618 -2.0351  4.5542
  321SOL     OW  961   1.095   0.080   0.377 -0.0702 -0.1075 -0.1158
  321SOL    HW1  962   1.057   0.016   0.448  0.8498  1.3018  2.6629
  321SOL    HW2  963   1.115   0.037   0.293 -3.1004  1.8499  1.7487
  322SOL     OW  964   2.229   1.140   2.226  0.0312  0.1663  0.1510
  322SOL    HW1  965   2.154   1.115   2.159 -1.2195  0.7324 -1.1557
  322SOL    HW2  966   2.287   1.060   2.256  0.6773 -0.1342 -0.9839
  323SOL     OW  967   2.901   0.825   0.500  0.6753 -0.5759  0.0589
  323SOL    HW1  968   2.934   0.737   0.521 -4.0202 -0.9007  2.2511
  323SOL    HW2  969   2.977   0.893   0.480  0.6298 -2.4314 -2.0965
  324SOL     OW  970   0.043   0.489   2.395  0.4636 -0.4930  0.8267
  324SOL    HW1  971   0.008   0.582   2.378  3.1863 -1.7458 -0.2079
  324SOL    HW2  972   0.141   0.508   2.414  4.5361 -1.0994  1.3742
  325SOL     OW  973   0.918   0.010   2.493  0.4243 -0.2689 -0.2174
  325SOL    HW1  974   0.916   0.105   2.448 -1.1210  0.1480  2.0407
  325SOL    HW2  975   0.895   0.024   2.588 -2.4545  1.3731 -1.4891
  326SOL     OW  976   2.478   2.751   1.177 -0.0696 -0.1877 -0.8051
  326SOL    HW1  977   2.435   2.713   1.094  1.0504  1.6196 -0.6743
  326SOL    HW2  978   2.475   2.686   1.256 -1.4015  0.0746  1.0296
  327SOL     OW  979   1.918   0.817   0.237  0.1339 -0.1339  0.0998
  327SOL    HW1  980   1.904   0.800   0.335  0.5395  0.4760 -0.8560
  327SOL    HW2  981   1.880   0.744   0.176  1.5845  0.3106 -0.9267
  328SOL     OW  982   2.896   1.948   2.000  0.0971  0.1499  0.7862
  328SOL    HW1  983   2.992   1.954   2.035 -2.3059 -1.2443 -0.8056
  328SOL    HW2  984   2.842   2.011   2.054  1.6928 -0.3989  0.8758
  329SOL     OW  985   1.870   2.853   1.760 -0.2419 -0.1945  0.0584
  329SOL    HW1  986   1.829   2.921   1.823  1.1477  3.1714 -1.0022
  329SOL    HW2  987   1.849   2.880   1.667 -1.2292 -2.6049  1.9745
  330SOL     OW  988   2.573   1.752   1.957  0.2653  0.0580 -0.3517
  330SOL    HW1  989   2.610   1.774   2.047 -4.0307 -1.2731  0.9407
  330SOL    HW2  990   2.644   1.765   1.884 -0.4842  2.3819  1.3446
  331SOL     OW  991   2.972   2.162   1.085 -0.1531 -0.3496 -0.3338
  331SOL    HW1  992   2.961   2.145   0.987  1.0412 -1.4632 -0.5879
  331SOL    HW2  993   2.940   2.257   1.103  0.2761  2.8401 -0.6629
  332SOL     OW  994   0.308   3.049   0.442  0.3712 -0.6715 -0.6120
  332SOL    HW1  995   0.405   3.056   0.411  2.1213  0.3274  1.2914
  332SOL    HW2  996   0.283   2.952   0.443 -0.6938  0.8407  1.5152
  333SOL     OW  997   1.937   0.359   2.489  0.6002  0.2065 -0.7224
  333SOL    HW1  998   1.907   0.269   2.523 -0.6750  0.2335 -0.6546
  333SOL    HW2  999   2.017   0.343   2.427  0.8400 -1.8196 -1.3593
  334SOL     OW 1000   0.667   1.416   0.769  0.1887 -0.3382 -0.5362
  334SOL    HW1 1001   0.711   1.328   0.798 -2.3999 -1.1563  3.0312
  334SOL    HW2 1002   0.690   1.437   0.673  0.0240 -0.1931 -1.5248
  335SOL     OW 1003   0.133   2.828   2.292 -0.5280  0.0909 -0.3715
  335SOL    HW1 1004   0.088   2.910   2.236  0.3197  1.5610 -0.6941
  335SOL    HW2 1005   0.067   2.753   2.297 -0.9814  0.7513 -1.9739
  336SOL     OW 1006   2.907   0.037   1.975 -0.1697  0.1192  0.0317
  336SOL    HW1 1007   2.855   0.033   2.064 -1.3916 -1.7586  3.8123
  336SOL    HW2 1008   2.952   0.128   1.951  0.4987  0.4493  0.8462
  337SOL     OW 1009   2.033   1.379   0.503  0.1572 -0.0332 -0.0522
  337SOL    HW1 1010   2.126   1.400   0.527 -0.9436 -0.1475 -0.0766
  337SOL    HW2 1011   2.023   1.342   0.410  0.0879  0.8817 -0.5695
  338SOL     OW 1012   0.828   1.781   1.069  0.2306  0.3414  0.2585
  338SOL    HW1 1013   0.734   1.749   1.103 -3.4622  0.3448  2.3009
  338SOL    HW2 1014   0.908   1.765   1.130  3.2147  2.3176  1.0269
  339SOL     OW 1015   3.100   0.775   1.204 -0.2468 -0.1186 -0.1997
  339SOL    HW1 1016   0.063   0.775   1.247 -1.4161  0.4148  2.6987
  339SOL    HW2 1017   3.030   0.738   1.269  0.2737  1.6773 -4.1399
  340SOL     OW 1018   1.408   2.895   2.361  0.1107 -0.0858  0.2209
  340SOL    HW1 1019   1.333   2.837   2.325 -0.9512  2.3036 -0.7996
  340SOL    HW2 1020   1.482   2.846   2.406 -3.3184 -2.2398  0.0582
  341SOL     OW 1021   2.276   1.446   0.601  0.1422 -0.6674 -0.6296
  341SOL    HW1 1022   2.291   1.475   0.697 -0.0145 -2.0929 -1.7444
  341SOL    HW2 1023   2.313   1.349   0.588  1.3855  1.4241  0.9456
  342SOL     OW 1024   2.997   1.559   0.697  0.1444 -0.6631  0.6484
  342SOL    HW1 1025   2.960   1.565   0.792 -0.4010 -0.8412 -1.1588
  342SOL    HW2 1026   3.016   1.654   0.665 -0.7972  0.6704  2.0061
  343SOL     OW 1027   2.532   1.276   1.605 -0.3625  0.0643  1.4163
  343SOL    HW1 1028   2.482   1.193   1.634 -1.8306 -1.9197  0.3525
  343SOL    HW2 1029   2.607   1.303   1.668 -1.8450 -0.9195  2.1108
  344SOL     OW 1030   1.862   0.835   0.842 -0.4037  0.2762 -0.4997
  344SOL    HW1 1031   1.757   0.837   0.843 -2.5047  0.5880  2.2581
  344SOL    HW2 1032   1.892   0.860   0.940 -0.8715 -1.9488 -0.9176
  345SOL     OW 1033   0.148   0.123   2.528  0.3175 -0.6248 -0.2509
  345SOL    HW1 1034   0.134   0.080   2.619 -2.6042 -2.2290 -1.1322
  345SOL    HW2 1035   0.243   0.127   2.498 -0.0130  0.4530  0.3983
  346SOL     OW 1036   2.962   1.541   0.026 -0.2133 -0.0458  0.5138
  346SOL    HW1 1037   3.063   1.555   0.008 -0.5959 -1.7540  0.5841
  346SOL    HW2 1038   2.919   1.485   3.081  1.5447 -0.1400  0.0887
  347SOL     OW 1039   1.536   2.723   1.484 -0.2976  0.0197  0.7034
  347SOL    HW1 1040   1.574   2.656   1.552  0.2408  1.8038  2.6649
  347SOL    HW2 1041   1.598   2.733   1.405  1.1276  1.2311  0.6191
  348SOL     OW 1042   1.269   1.239   1.785 -0.1876 -0.3324 -0.7014
  348SOL    HW1 1043   1.255   1.333   1.750 -0.0523 -1.5503  1.0287
  348SOL    HW2 1044   1.294   1.230   1.882  0.9842 -2.2700 -0.7856
  349SOL     OW 1045   2.425   1.545   2.372  0.4348  0.1264  0.4831
  349SOL    HW1 1046   2.444   1.466   2.433 -0.9894 -2.1437 -0.0241
  349SOL    HW2 1047   2.401   1.629   2.421  0.3814 -0.9605 -1.5471
  350SOL     OW 1048   2.516   2.267   0.386  0.6402 -0.1254 -0.0041
  350SOL    HW1 1049   2.549   2.299   0.293  0.6547  0.8884  0.5661
  350SOL    HW2 1050   2.433   2.317   0.414 -1.3510 -0.8505  2.1353
  351SOL     OW 1051   0.320   0.213   1.651 -0.5673  0.2829 -0.0523
  351SOL    HW1 1052   0.382   0.295   1.653 -3.2869  3.6153 -1.4226
  351SOL    HW2 1053   0.270   0.205   1.567 -0.4861 -0.5318  0.7692
  352SOL     OW 1054   1.210   2.438   1.667 -0.2940  0.1156  0.2624
  352SOL    HW1 1055   1.182   2.525   1.713  4.6089  1.7935 -0.8556
  352SOL    HW2 1056   1.176   2.438   1.570 -1.2812  3.1323 -0.4830
  353SOL     OW 1057   0.949   1.156   2.464  0.0925  0.3215  0.1120
  353SOL    HW1 1058   0.892   1.131   2.545  2.1144 -0.0321  0.1677
  353SOL    HW2 1059   1.010   1.077   2.437  2.9384  0.8617 -0.5025
  354SOL     OW 1060   1.131   1.712   0.616  0.8452  0.2093  0.4042
  354SOL    HW1 1061   1.077   1.694   0.532 -3.7822 -1.1980 -1.0088
  354SOL    HW2 1062   1.076   1.721   0.698  1.1471 -0.8661 -2.0449
  355SOL     OW 1063   2.121   0.291   0.979 -0.3002  0.3959  0.1269
  355SOL    HW1 1064   2.045   0.229   0.997 -1.0489 -1.8522 -1.5325
  355SOL    HW2 1065   2.131   0.315   0.879  2.3577  2.4122 -1.3305
  356SOL     OW 1066   3.127   1.312   2.950  0.2253 -0.4861  0.8207
  356SOL    HW1 1067   0.067   1.263   2.997 -0.4586 -0.5384 -1.1109
  356SOL    HW2 1068   3.041   1.263   2.948  1.6250 -0.5476  0.3213
  357SOL     OW 1069   0.095   2.972   1.967 -0.2767 -0.2020  0.3034
  357SOL    HW1 1070   0.193   2.986   1.957  2.0889  0.0152 -1.7820
  357SOL    HW2 1071   0.050   3.015   2.044 -0.1342 -2.3069  1.5100
  358SOL     OW 1072   0.522   1.279   2.891  0.1958  0.6119 -0.6146
  358SOL    HW1 1073   0.503   1.186   2.846  0.7484  1.6063  0.8720
  358SOL    HW2 1074   0.506   1.286   2.991  2.4506 -0.9443 -0.3699
  359SOL     OW 1075   2.818   2.678   2.356 -0.0418  0.0483  0.0265
  359SOL    HW1 1076   2.756   2.601   2.330  0.2658  0.0708 -3.2197
  359SOL    HW2 1077   2.918   2.648   2.356  1.1634  0.8922 -0.3404
  360SOL     OW 1078   1.598   1.304   1.098 -0.9639  0.4009 -0.9081
  360SOL    HW1 1079   1.558   1.292   1.008  0.7954 -1.0799  2.9861
  360SOL    HW2 1080   1.533   1.334   1.169  2.2916 -2.4186  0.9598
  361SOL     OW 1081   1.928   2.214   1.351  0.0686  0.1099 -0.2976
  361SOL    HW1 1082   1.883   2.126   1.371  0.7948  0.3659 -0.0672
  361SOL    HW2 1083   1.871   2.292   1.381 -1.2380 -0.6938 -0.2280
  362SOL     OW 1084   1.576   1.427   0.787  0.9440  0.2624  0.4855
  362SOL    HW1 1085   1.670   1.455   0.761 -0.1414  0.6273  2.0067
  362SOL    HW2 1086   1.532   1.501   0.844 -1.4606 -1.3364  0.0754
  363SOL     OW 1087   2.196   2.370   0.711 -0.3578  0.2345 -0.0346
  363SOL    HW1 1088   2.266   2.348   0.785  2.3028 -0.1905 -2.7318
  363SOL    HW2 1089   2.206   2.464   0.673 -1.3055  0.3930  0.7428
  364SOL     OW 1090   3.034   0.149   1.265  0.3645  0.2358  0.0481
  364SOL    HW1 1091   3.090   0.107   1.190 -0.8881 -1.0038 -1.5625
  364SOL    HW2 1092   3.048   0.107   1.356 -1.1252 -2.0204  1.4772
  365SOL     OW 1093   0.669   2.827   0.793 -1.2289 -0.0682 -0.1227
  365SOL    HW1 1094   0.598   2.861   0.851  2.7538  0.0220 -2.8173
  365SOL    HW2 1095   0.763   2.835   0.839  2.1740 -0.2094  2.2736
  366SOL     OW 1096   0.333   1.488   0.416  0.0740 -0.3682 -0.3623
  366SOL    HW1 1097   0.383   1.550   0.353 -1.9315  0.0737 -1.9485
  366SOL    HW2 1098   0.322   1.531   0.507 -1.2495 -0.1824 -1.3837
  367SOL     OW 1099   2.669   2.430   2.912 -1.0777  0.1511 -0.0511
  367SOL    HW1 1100   2.717   2.382   2.986 -0.9707  1.2217 -0.5940
  367SOL    HW2 1101   2.704   2.401   2.819  0.0923 -0.7366 -0.9131
  368SOL     OW 1102   2.433   1.863   0.797 -0.1555 -0.4679  0.7018
  368SOL    HW1 1103   2.400   1.875   0.698 -0.0696 -0.4658 -3.7675
  368SOL    HW2 1104   2.482   1.777   0.797 -1.0779  2.5014  2.5083
  369SOL     OW 1105   1.070   0.985   0.415  0.5021  0.2665  0.1456
  369SOL    HW1 1106   1.037   1.039   0.335 -0.0492  2.2161  0.1421
  369SOL    HW2 1107   1.145   1.033   0.463  2.9089 -2.4781 -1.5222
  370SOL     OW 1108   0.121   2.862   1.138  0.4445 -0.1227 -0.7981
  370SOL    HW1 1109   0.104   2.892   1.041 -0.2531 -0.3283 -1.7384
  370SOL    HW2 1110   0.183   2.781   1.136 -1.0460  0.0250  0.7553
  371SOL     OW 1111   2.938   1.325   2.662  0.3001  0.6771  0.2693
  371SOL    HW1 1112   2.939   1.360   2.567  1.3722  0.9168 -0.7285
  371SOL    HW2 1113   2.851   1.270   2.674  1.7607 -0.7071  0.3576
  372SOL     OW 1114   0.487   0.487   2.299 -0.0605  0.1661 -0.2714
  372SOL    HW1 1115   0.449   0.414   2.233 -0.6369 -1.1268 -0.1290
  372SOL    HW2 1116   0.554   0.444   2.356 -0.7246  1.2612 -0.2533
  373SOL     OW 1117   0.792   0.455   0.162  0.0897  0.6628 -0.0276
  373SOL    HW1 1118   0.870   0.505   0.119  2.0442  1.2423  2.3509
  373SOL    HW2 1119   0.831   0.386   0.222 -1.5283  0.5775  1.2155
  374SOL     OW 1120   1.115   2.220   0.048 -0.2087 -0.4933 -0.1852
  374SOL    HW1 1121   1.200   2.280   0.042  2.2775  1.1993  2.4968
  374SOL    HW2 1122   1.138   2.120   0.039  1.4107 -2.1180  0.3889
  375SOL     OW 1123   1.059   2.960   1.380  0.0488 -0.1572 -0.1948
  375SOL    HW1 1124   1.090   2.876   1.328 -1.1773 -2.5267  0.9614
  375SOL    HW2 1125   0.959   2.983   1.360 -0.0016  0.1317 -1.1455
  376SOL     OW 1126   0.354   2.264   2.041  0.2407  0.0849 -0.3618
  376SOL    HW1 1127   0.381   2.362   2.036 -3.2362 -2.1690  0.1010
  376SOL    HW2 1128   0.382   2.227   2.131  2.6315  3.1825  0.3041
  377SOL     OW 1129   2.174   2.189   3.035 -0.4490 -0.4169 -0.0388
  377SOL    HW1 1130   2.094   2.166   2.977  1.8205 -0.3389 -0.7572
  377SOL    HW2 1131   2.244   2.240   2.983 -2.1718  1.5343  1.6280
  378SOL     OW 1132   2.212   0.286   0.662 -0.7071 -0.1598  0.0531
  378SOL    HW1 1133   2.201   0.386   0.675 -3.4302  0.2029  1.9988
  378SOL    HW2 1134   2.312   0.263   0.646  0.9311  2.3288  0.7641
  379SOL     OW 1135   1.194   0.551   0.933 -0.4381 -0.0796  0.1413
  379SOL    HW1 1136   1.204   0.543   0.829 -1.7515 -1.1338  0.6685
  379SOL    HW2 1137   1.125   0.492   0.977  1.2582 -1.2097  1.3466
  380SOL     OW 1138   2.771   2.520   2.064  0.2377  0.1769  0.0973
  380SOL    HW1 1139   2.848   2.463   2.094 -0.3851  2.9057 -1.8704
  380SOL    HW2 1140   2.798   2.595   2.004 -1.1509 -1.1748  3.4199
  381SOL     OW 1141   2.835   1.475   1.972 -0.2372 -0.0831  0.7780
  381SOL    HW1 1142   2.861   1.570   1.946 -1.6063 -1.7354  1.8593
  381SOL    HW2 1143   2.781   1.479   2.058 -0.0336 -0.8937 -4.3767
  382SOL     OW 1144   0.064   2.256   2.915 -0.4236 -0.2529  0.4520
  382SOL    HW1 1145   0.003   2.304   2.847 -1.0813  0.5280 -1.3939
  382SOL    HW2 1146   0.019   2.174   2.948 -1.8319  0.0580 -0.2937
  383SOL     OW 1147   1.350   0.665   2.535  0.0565 -0.0750  0.2264
  383SOL    HW1 1148   1.348   0.766   2.517 -2.0976  2.0561  0.3897
  383SOL    HW2 1149   1.264   0.632   2.580  0.1723 -1.0562  0.2288
  384SOL     OW 1150   1.373   2.174   2.231  0.9104  0.0320 -0.6917
  384SOL    HW1 1151   1.418   2.176   2.327  3.4572 -3.7497  5.1896
  384SOL    HW2 1152   1.334   2.080   2.218 -1.7680 -2.2384 -0.1143
  385SOL     OW 1153   2.589   2.647   0.117 -0.0425 -0.7485 -0.2953
  385SOL    HW1 1154   2.562   2.546   0.121 -0.2916 -1.9848  0.0829
  385SOL    HW2 1155   2.579   2.683   0.213  0.7321  0.5060 -1.2003
  386SOL     OW 1156   1.513   1.249   0.555 -0.1486  0.0601 -0.6167
  386SOL    HW1 1157   1.540   1.341   0.595  0.5333  0.7628  0.0259
  386SOL    HW2 1158   1.576   1.177   0.598  1.8373 -1.1859  2.9912
  387SOL     OW 1159   3.067   1.807   1.634  0.1147 -0.1777  0.1153
  387SOL    HW1 1160   0.024   1.757   1.615  1.6962  0.3373 -0.4336
  387SOL    HW2 1161   3.040   1.857   1.545  0.4327  1.5338  0.8415
  388SOL     OW 1162   0.556   1.110   1.544 -0.2195 -0.7141 -0.8794
  388SOL    HW1 1163   0.608   1.176   1.486  0.5155  0.5071  0.7247
  388SOL    HW2 1164   0.610   1.028   1.554 -0.2836  1.5606 -1.2871
  389SOL     OW 1165   2.027   0.990   2.591  0.1767  0.0184  0.1524
  389SOL    HW1 1166   2.126   1.001   2.620  2.0530 -0.5141 -0.1927
  389SOL    HW2 1167   1.965   1.041   2.650  2.9703 -1.0705 -0.6093
  390SOL     OW 1168   0.936   1.864   0.184  0.2916 -0.3539 -0.2000
  390SOL    HW1 1169   0.840   1.908   0.182 -2.4979  0.5709 -0.0084
  390SOL    HW2 1170   0.932   1.779   0.238  1.1198 -2.1917 -0.5131
  391SOL     OW 1171   0.911   1.909   0.734  0.3130 -0.0517 -0.3547
  391SOL    HW1 1172   0.820   1.949   0.703 -0.7307 -0.1116  1.2655
  391SOL    HW2 1173   0.901   1.819   0.775 -0.5877  1.9140  1.7936
  392SOL     OW 1174   2.836   2.861   2.165 -0.3627  0.0819  0.4452
  392SOL    HW1 1175   2.836   2.829   2.067 -0.7025  2.3313 -1.4899
  392SOL    HW2 1176   2.836   2.780   2.225  1.1650  1.4464 -2.4752
  393SOL     OW 1177   1.455   2.198   2.888 -0.0421 -0.2206 -0.3495
  393SOL    HW1 1178   1.486   2.105   2.924 -0.2156 -0.8260 -3.5305
  393SOL    HW2 1179   1.539   2.242   2.847  1.7893 -0.7062 -1.4729
  394SOL     OW 1180   0.568   0.176   2.504 -0.6863  0.3614 -0.1744
  394SOL    HW1 1181   0.496   0.177   2.430  0.1594 -0.8278  1.0705
  394SOL    HW2 1182   0.616   0.089   2.513 -1.8950  2.2025  0.1370
  395SOL     OW 1183   3.112   1.373   1.185 -0.0656 -0.2400 -0.3335
  395SOL    HW1 1184   3.116   1.451   1.248 -2.1891 -0.1498  2.2714
  395SOL    HW2 1185   0.074   1.344   1.151  0.0420 -1.3316 -0.3545
  396SOL     OW 1186   2.080   1.316   2.939 -0.4355  0.3704  0.1857
  396SOL    HW1 1187   1.997   1.364   2.898 -2.4590 -0.9413 -3.7247
  396SOL    HW2 1188   2.124   1.365   3.016  0.4121  2.2065 -0.1835
  397SOL     OW 1189   0.487   0.903   3.093 -0.4300 -0.0540 -0.1816
  397SOL    HW1 1190   0.588   0.887   3.108  0.3959  1.4795 -0.2963
  397SOL    HW2 1191   0.469   0.962   3.016  1.1297 -1.1511 -0.8198
  398SOL     OW 1192   1.035   2.642   0.372 -0.1265 -0.3422  0.8195
  398SOL    HW1 1193   1.107   2.572   0.392 -3.1634 -1.5328  0.1455
  398SOL    HW2 1194   0.977   2.655   0.457  0.8635 -3.5666  2.0025
  399SOL     OW 1195   1.828   2.646   2.368  0.6969 -0.2538  0.4594
  399SOL    HW1 1196   1.906   2.627   2.428  2.8251  2.7338 -2.6776
  399SOL    HW2 1197   1.858   2.639   2.268  1.9413  1.2801  0.2297
  400SOL     OW 1198   3.104   1.045   1.920 -0.0424  0.0010  0.2570
  400SOL    HW1 1199   3.093   1.148   1.935  0.9252  0.6081  0.2447
  400SOL    HW2 1200   0.038   1.031   1.842 -0.9083 -2.1533  1.2659
  401SOL     OW 1201   0.629   0.827   0.725  0.4896 -0.1349 -0.0014
  401SOL    HW1 1202   0.538   0.783   0.732 -2.4206 -0.0608  1.4691
  401SOL    HW2 1203   0.704   0.798   0.787  3.3486 -1.2551 -0.7451
  402SOL     OW 1204   0.873   0.056   2.746  0.1412 -0.1811 -0.3356
  402SOL    HW1 1205   0.798   0.118   2.779 -0.4665  1.7883 -3.8672
  402SOL    HW2 1206   0.856   3.089   2.772  0.1538  0.4891  0.6421
  403SOL     OW 1207   2.634   2.067   1.777 -0.1632 -0.8276  0.4279
  403SOL    HW1 1208   2.717   2.127   1.770  2.0335  0.4260  2.2059
  403SOL    HW2 1209   2.657   1.966   1.761  2.5687  0.8406  2.1021
  404SOL     OW 1210   2.637   2.424   1.618 -0.3894  0.0801  0.3895
  404SOL    HW1 1211   2.735   2.445   1.636  0.6111 -0.0943  0.2553
  404SOL    HW2 1212   2.622   2.325   1.597 -1.3641  0.2533  0.6853
  405SOL     OW 1213   1.804   0.332   2.836  0.5889  0.2804 -0.1829
  405SOL    HW1 1214   1.759   0.259   2.784  0.7866 -0.1738 -1.4006
  405SOL    HW2 1215   1.744   0.415   2.830  1.2148  1.3739  0.3247
  406SOL     OW 1216   1.136   1.945   0.011 -0.5362 -0.2390 -0.2051
  406SOL    HW1 1217   1.212   1.876   0.007 -1.1050  3.2472 -0.6480
  406SOL    HW2 1218   1.050   1.900   0.050 -0.0692  0.4679  0.6481
  407SOL     OW 1219   1.702   1.654   0.549 -0.4832 -0.3817 -0.1464
  407SOL    HW1 1220   1.610   1.692   0.558  1.4013 -0.5365  3.6186
  407SOL    HW2 1221   1.742   1.639   0.645  0.5987  0.6792  4.7253
  408SOL     OW 1222   3.032   0.274   1.644 -0.6868 -0.5859 -0.4501
  408SOL    HW1 1223   3.104   0.344   1.627  1.3954  0.5266  2.3588
  408SOL    HW2 1224   3.060   0.187   1.604 -0.2775 -0.4326 -2.3924
  409SOL     OW 1225   2.560   1.308   3.041 -0.0269 -0.5233 -0.2601
  409SOL    HW1 1226   2.579   1.275   0.007  0.6714 -1.8985 -1.2949
  409SOL    HW2 1227   2.510   1.399   3.038 -2.4336  2.4115 -0.8130
  410SOL     OW 1228   2.343   2.336   0.937 -0.6790  0.0895  0.3427
  410SOL    HW1 1229   2.331   2.333   1.037 -0.3714 -0.8049 -0.4642
  410SOL    HW2 1230   2.392   2.254   0.901  0.2039  0.8931 -1.1198
  411SOL     OW 1231   0.572   0.010   0.372  0.3394 -0.2591  0.1881
  411SOL    HW1 1232   0.532   0.102   0.351  1.2630 -1.6062  0.5219
  411SOL    HW2 1233   0.666   0.005   0.342 -0.3840  0.9619  1.4730
  412SOL     OW 1234   1.707   2.993   0.429 -0.5007 -0.3555  0.0243
  412SOL    HW1 1235   1.769   2.996   0.349 -0.0857  2.5727 -2.0983
  412SOL    HW2 1236   1.711   2.904   0.467  1.6550  0.9361  1.1211
  413SOL     OW 1237   1.786   0.552   2.314 -0.1959 -0.2698  0.0291
  413SOL    HW1 1238   1.809   0.477   2.379 -0.7772  0.9694  1.1347
  413SOL    HW2 1239   1.719   0.526   2.241  2.0898  0.6584  0.5526
  414SOL     OW 1240   0.071   0.589   0.475 -0.1263  0.3896  0.2985
  414SOL    HW1 1241   0.072   0.643   0.386 -0.0902  0.4251 -3.5382
  414SOL    HW2 1242   0.162   0.546   0.501 -2.1790 -1.4394 -0.7250
  415SOL     OW 1243   3.102   1.027   0.505  0.1665 -0.3639 -0.3670
  415SOL    HW1 1244   0.003   1.067   0.418 -1.3094  1.3334  0.6083
  415SOL    HW2 1245   3.027   1.085   0.542  0.3078  1.3452 -4.7815
  416SOL     OW 1246   0.111   0.458   2.836  0.8109  0.6272  0.3800
  416SOL    HW1 1247   0.088   0.437   2.741  0.6484 -5.1478  0.4275
  416SOL    HW2 1248   0.205   0.481   2.852 -2.7119 -0.0303 -0.1284
  417SOL     OW 1249   2.611   0.244   0.836 -0.0965  0.1553 -0.4375
  417SOL    HW1 1250   2.525   0.264   0.885 -0.6667  1.3904  2.0202
  417SOL    HW2 1251   2.680   0.312   0.869 -0.6018  2.0900 -0.0886
  418SOL     OW 1252   0.837   3.020   3.032  0.2500 -0.0889  0.0779
  418SOL    HW1 1253   0.817   2.957   3.111 -1.9341  0.1025 -0.2646
  418SOL    HW2 1254   0.800   2.998   2.937 -0.5130 -2.1280 -1.7727
  419SOL     OW 1255   0.357   0.708   0.776  0.1005 -0.5611 -0.7063
  419SOL    HW1 1256   0.297   0.772   0.722  1.9042  3.1047 -2.2143
  419SOL    HW2 1257   0.330   0.704   0.876  0.0412 -1.9214  2.6260
  420SOL     OW 1258   3.026   1.204   1.404  0.4903  0.1213 -0.6444
  420SOL    HW1 1259   3.053   1.197   1.310 -0.2443 -0.4292  0.1688
  420SOL    HW2 1260   2.975   1.118   1.427 -1.3274 -1.3849  0.2344
  421SOL     OW 1261   0.994   2.009   2.927 -0.3178  0.2681  0.4636
  421SOL    HW1 1262   1.040   1.993   3.016 -0.9304 -0.4136  2.6085
  421SOL    HW2 1263   1.058   1.991   2.851  0.4424  1.6505 -2.9178
  422SOL     OW 1264   2.520   0.458   2.217  0.5478 -0.7858  0.0585
  422SOL    HW1 1265   2.583   0.379   2.224 -0.7291  0.3906 -0.0166
  422SOL    HW2 1266   2.451   0.446   2.140 -0.5168 -1.1125 -0.2061
  423SOL     OW 1267   1.952   1.558   0.042 -0.2794  0.1396  0.0625
  423SOL    HW1 1268   1.926   1.645   3.124 -0.0724  1.0999  1.1639
  423SOL    HW2 1269   1.870   1.504   0.074  3.3613 -1.0413  1.6553
  424SOL     OW 1270   0.999   1.059   2.005 -0.0971 -0.0880  0.5467
  424SOL    HW1 1271   0.939   1.078   2.085 -2.9401 -1.5412 -1.2706
  424SOL    HW2 1272   1.098   1.092   2.022  2.0082 -0.0106  2.3374
  425SOL     OW 1273   0.076   2.512   2.084  0.7039  0.4554  0.5864
  425SOL    HW1 1274   0.149   2.449   2.108 -2.1830 -0.9311  0.9997
  425SOL    HW2 1275   0.098   2.573   2.001  0.1579  1.9315 -2.5979
  426SOL     OW 1276   2.216   2.623   0.625 -0.2322 -0.2903  0.1442
  426SOL    HW1 1277   2.296   2.679   0.656  0.4545  1.0407 -0.6197
  426SOL    HW2 1278   2.130   2.656   0.668  0.5231 -0.5948  0.7136
  427SOL     OW 1279   0.841   0.793   2.943 -0.4582 -0.5205 -0.1782
  427SOL    HW1 1280   0.815   0.830   3.033  1.8013  1.6096  2.7274
  427SOL    HW2 1281   0.889   0.704   2.957 -1.5863  2.6007  0.0886
  428SOL     OW 1282   2.820   1.448   2.947  0.1746  0.6233  0.2729
  428SOL    HW1 1283   2.725   1.414   2.957 -0.1022  1.3399  0.0424
  428SOL    HW2 1284   2.870   1.393   2.882 -1.9834  1.2116  1.9948
  429SOL     OW 1285   2.570   0.409   0.435 -0.5322 -0.1682  0.6131
  429SOL    HW1 1286   2.577   0.328   0.498 -0.8880 -0.4449  0.6152
  429SOL    HW2 1287   2.515   0.479   0.484  0.3272  0.5642 -0.8174
  430SOL     OW 1288   1.520   2.129   2.470 -0.4844 -0.4282  0.1781
  430SOL    HW1 1289   1.618   2.147   2.493  1.4458  0.6020 -1.9277
  430SOL    HW2 1290   1.460   2.173   2.543 -0.0592  0.5861 -0.3889
  431SOL     OW 1291   0.158   2.065   1.429  0.1508 -0.4778  0.4957
  431SOL    HW1 1292   0.070   2.019   1.412  1.3987  0.1745  0.0864
  431SOL    HW2 1293   0.159   2.149   1.486 -1.0122  0.5958 -0.4042
  432SOL     OW 1294   1.656   2.714   2.025 -0.3455  0.1166  0.0001
  432SOL    HW1 1295   1.744   2.675   2.034 -3.1459  4.2259 -1.6881
  432SOL    HW2 1296   1.598   2.694   2.106  2.0306 -0.0961  0.6588
  433SOL     OW 1297   0.988   2.142   0.277 -0.2420 -0.2641  0.0396
  433SOL    HW1 1298   1.054   2.175   0.204 -1.5073  0.3201 -1.6453
  433SOL    HW2 1299   0.936   2.063   0.238 -2.7572 -1.8395 -2.2591
  434SOL     OW 1300   0.420   2.324   2.697 -0.0291 -0.3673 -0.2903
  434SOL    HW1 1301   0.520   2.342   2.682  0.8750 -0.3638 -0.9823
  434SOL    HW2 1302   0.405   2.314   2.795  1.5808 -0.5039 -1.2914
  435SOL     OW 1303   0.201   0.856   0.580 -0.1683  0.1522  0.4491
  435SOL    HW1 1304   0.145   0.927   0.533  1.1561 -0.3349 -1.4856
  435SOL    HW2 1305   0.277   0.820   0.521  4.9759 -0.5517 -2.3249
  436SOL     OW 1306   0.395   2.823   1.813 -0.4221  0.0597  0.8270
  436SOL    HW1 1307   0.484   2.819   1.759  2.4210  0.8580 -1.5469
  436SOL    HW2 1308   0.394   2.896   1.884  1.2247  0.2756  0.7839
  437SOL     OW 1309   0.744   0.022   0.930  0.3921 -0.0117  0.5817
  437SOL    HW1 1310   0.822   0.088   0.931  0.6283  0.8230  0.2426
  437SOL    HW2 1311   0.683   0.035   0.845 -0.1214  0.1411 -1.5246
  438SOL     OW 1312   0.389   2.171   0.581  0.1793  0.6116 -0.0549
  438SOL    HW1 1313   0.449   2.247   0.609  0.8293 -3.0999 -0.4832
  438SOL    HW2 1314   0.378   2.109   0.657  0.6374  2.3191 -1.4711
  439SOL     OW 1315   0.760   2.558   1.743  0.4317  0.2849  0.1096
  439SOL    HW1 1316   0.670   2.532   1.783 -1.0120 -1.7533  0.2318
  439SOL    HW2 1317   0.747   2.632   1.677  0.1513 -2.2518  0.6662
  440SOL     OW 1318   1.783   0.007   1.950  0.0199 -0.3963 -0.1294
  440SOL    HW1 1319   1.770   0.080   1.884  0.0789 -2.2188 -0.1052
  440SOL    HW2 1320   1.714   3.064   1.940  0.9741 -0.1096 -1.6890
  441SOL     OW 1321   2.968   0.293   1.913  0.1489 -0.3703  0.3129
  441SOL    HW1 1322   3.057   0.275   1.956  0.9121 -0.0511  1.7719
  441SOL    HW2 1323   2.976   0.306   1.809  0.0531  0.9310 -2.6164
  442SOL     OW 1324   1.915   2.246   0.737 -0.3745 -0.1241 -0.3589
  442SOL    HW1 1325   2.014   2.248   0.726 -0.9917 -2.4182  1.2222
  442SOL    HW2 1326   1.885   2.171   0.797 -1.8110 -0.7697  0.9921
  443SOL     OW 1327   2.795   0.810   2.157  0.5685 -0.0241  0.2005
  443SOL    HW1 1328   2.735   0.855   2.089 -0.1192  2.0616 -0.7484
  443SOL    HW2 1329   2.749   0.777   2.244 -0.4508  0.3170  1.5858
  444SOL     OW 1330   1.877   0.870   2.090 -0.4776 -0.1614 -0.4051
  444SOL    HW1 1331   1.824   0.862   2.006  0.0892  2.4071  2.8590
  444SOL    HW2 1332   1.936   0.789   2.113  1.4782  0.8874  2.6171
  445SOL     OW 1333   2.870   2.431   0.982  0.0602 -0.1676  0.0502
  445SOL    HW1 1334   2.859   2.506   1.047 -0.9020 -0.9095 -1.5218
  445SOL    HW2 1335   2.948   2.449   0.922 -1.2885  0.3197  2.7105
  446SOL     OW 1336   2.824   1.554   0.959  0.3207  0.4921 -0.0353
  446SOL    HW1 1337   2.841   1.628   1.031  4.3290  0.0143  0.6123
  446SOL    HW2 1338   2.814   1.459   1.004  0.0697 -1.9906  1.3480
  447SOL     OW 1339   0.543   1.045   0.879  0.0001 -0.2752 -0.0782
  447SOL    HW1 1340   0.557   0.964   0.816 -2.0321  0.0557  0.1303
  447SOL    HW2 1341   0.618   1.111   0.859 -0.6318 -0.8689  1.7157
  448SOL     OW 1342   1.635   1.284   1.819  0.7431 -0.0598 -0.3454
  448SOL    HW1 1343   1.576   1.363   1.810  2.3425 -1.8542  2.2335
  448SOL    HW2 1344   1.709   1.294   1.888  1.6827  0.4208  0.1098
  449SOL     OW 1345   1.190   1.389   2.970  0.0751 -0.6295 -0.1820
  449SOL    HW1 1346   1.240   1.305   3.005  1.2881  0.4922 -1.3735
  449SOL    HW2 1347   1.097   1.365   2.942  1.2137  1.6043 -0.1046
  450SOL     OW 1348   2.980   2.335   2.091 -0.2332 -0.2775 -0.1772
  450SOL    HW1 1349   3.065   2.389   2.102 -0.5085 -1.3147 -0.5097
  450SOL    HW2 1350   2.990   2.269   2.017 -0.0555 -0.2785 -0.3333
  451SOL     OW 1351   2.336   0.086   2.401  0.2602 -0.4228  0.4634
  451SOL    HW1 1352   2.292   3.127   2.378 -1.4561 -3.4051  0.1837
  451SOL    HW2 1353   2.388   0.078   2.487  0.3816 -2.2927  0.4949
  452SOL     OW 1354   1.704   0.167   1.214  0.0777  0.3637 -0.1616
  452SOL    HW1 1355   1.604   0.159   1.191 -0.9830 -0.5223 -1.1506
  452SOL    HW2 1356   1.720   0.220   1.298 -1.1508 -1.3935 -1.6672
  453SOL     OW 1357   1.693   1.062   1.207  0.0963  0.3629  0.5413
  453SOL    HW1 1358   1.771   1.024   1.148  0.9090  0.2395 -1.5016
  453SOL    HW2 1359   1.665   1.153   1.166 -1.3167  3.1384  0.1245
  454SOL     OW 1360   0.087   1.414   0.334  0.1246  0.4080  0.3067
  454SOL    HW1 1361   0.164   1.427   0.397 -1.0846 -0.5421  0.1694
  454SOL    HW2 1362   0.003   1.459   0.370 -0.9219  1.1228  0.4278
  455SOL     OW 1363   2.949   0.014   0.618  0.5738 -0.2211 -0.5956
  455SOL    HW1 1364   2.990   0.068   0.542 -0.7661 -0.0304  1.2246
  455SOL    HW2 1365   2.937   3.045   0.599 -0.1847 -0.7175 -0.5639
  456SOL     OW 1366   2.898   2.665   1.179 -0.4736  0.3453  1.0402
  456SOL    HW1 1367   2.996   2.647   1.217  3.0726 -0.6026 -2.9987
  456SOL    HW2 1368   2.869   2.751   1.219  1.6281 -3.0365 -1.1747
  457SOL     OW 1369   1.382   3.079   0.694  0.2328  0.3736 -0.6000
  457SOL    HW1 1370   1.406   3.080   0.593  3.5975 -2.6305 -0.5665
  457SOL    HW2 1371   1.435   0.014   0.750 -0.4403 -0.2713 -0.3399
  458SOL     OW 1372   2.461   0.187   0.624 -0.1246  0.2967  0.6414
  458SOL    HW1 1373   2.538   0.226   0.680  1.5646 -1.2758  0.7342
  458SOL    HW2 1374   2.457   0.084   0.633 -1.4709 -0.9598  0.9273
  459SOL     OW 1375   2.330   0.707   2.637  0.2144 -0.0763 -0.1344
  459SOL    HW1 1376   2.319   0.645   2.558  0.2063 -0.7687  1.3560
  459SOL    HW2 1377   2.330   0.653   2.721  2.2314 -1.9595 -0.2788
  460SOL     OW 1378   3.020   2.999   2.873  0.5892  0.0435  0.4255
  460SOL    HW1 1379   2.945   3.057   2.912 -1.0854  2.5487  2.0546
  460SOL    HW2 1380   3.005   2.900   2.865 -1.6297  0.2768  3.3633
  461SOL     OW 1381   0.820   1.602   0.610 -0.6386  0.2290 -0.1127
  461SOL    HW1 1382   0.876   1.584   0.694  3.3166  0.1834  0.8092
  461SOL    HW2 1383   0.769   1.690   0.607 -0.9289  0.3214  1.4846
  462SOL     OW 1384   2.312   2.230   1.184  0.3262  0.0833  0.2608
  462SOL    HW1 1385   2.259   2.232   1.271 -0.9029  1.2394 -2.4375
  462SOL    HW2 1386   2.304   2.141   1.138  2.6774 -0.1661  0.3255
  463SOL     OW 1387   2.566   1.005   0.561 -0.5053  0.1675 -0.1106
  463SOL    HW1 1388   2.607   0.937   0.494  2.3082 -0.2151 -0.6357
  463SOL    HW2 1389   2.578   0.977   0.660  2.2739  1.2145  1.0086
  464SOL     OW 1390   0.177   3.007   1.362  0.3134  0.3710  0.3354
  464SOL    HW1 1391   0.126   2.958   1.286 -0.6472 -1.0184  0.4502
  464SOL    HW2 1392   0.220   2.934   1.422  1.8650 -0.1064  1.0235
  465SOL     OW 1393   0.071   1.537   3.064 -0.2793  0.3409  0.2159
  465SOL    HW1 1394   0.041   1.448   3.016 -0.0730 -1.1456 -1.8940
  465SOL    HW2 1395   0.113   1.591   2.988  3.0911  0.4846  0.1331
  466SOL     OW 1396   1.919   0.045   0.040 -0.0372 -0.1169 -0.1007
  466SOL    HW1 1397   2.010   0.087   0.014  0.7911  1.4939  1.9549
  466SOL    HW2 1398   1.851   0.118   0.036  1.4289  0.3989  0.6749
  467SOL     OW 1399   0.868   0.877   1.799  0.4658  0.0334 -0.3614
  467SOL    HW1 1400   0.830   0.803   1.855  2.5573  0.5438 -2.0307
  467SOL    HW2 1401   0.930   0.931   1.857  0.3119 -0.8119  0.3712
  468SOL     OW 1402   0.628   1.060   2.452 -0.1003 -0.2753 -0.1744
  468SOL    HW1 1403   0.695   1.063   2.524 -2.3033  0.7300 -1.9654
  468SOL    HW2 1404   0.550   0.989   2.468 -0.3588 -1.6486 -0.6168
  469SOL     OW 1405   0.094   2.252   0.134 -0.4902 -0.0883 -0.0985
  469SOL    HW1 1406   0.073   2.350   0.103  0.5830 -1.0229 -2.2420
  469SOL    HW2 1407   0.009   2.194   0.152 -1.5063 -2.1511  0.7478
  470SOL     OW 1408   2.497   1.772   2.631 -0.4852 -0.3644 -0.5207
  470SOL    HW1 1409   2.569   1.702   2.631  0.3738 -0.1562 -0.3945
  470SOL    HW2 1410   2.463   1.788   2.730 -1.3755 -0.2460  2.9166
  471SOL     OW 1411   2.329   0.917   2.312 -0.0560 -0.0108 -0.0237
  471SOL    HW1 1412   2.403   0.913   2.387 -0.0969 -1.8154  2.6839
  471SOL    HW2 1413   2.373   0.914   2.216 -0.3990  1.4203  2.0439
  472SOL     OW 1414   0.481   2.678   0.650  0.2755 -0.2947  0.3531
  472SOL    HW1 1415   0.502   2.679   0.548 -2.3347 -1.6904 -1.2919
  472SOL    HW2 1416   0.546   2.739   0.703  1.7214  2.5874  0.6256
  473SOL     OW 1417   0.685   0.124   2.964  0.6858 -0.1621  0.7047
  473SOL    HW1 1418   0.741   0.061   3.021  0.2354 -0.2982 -1.5235
  473SOL    HW2 1419   0.678   0.214   3.011  2.3437 -0.0236 -2.4699
  474SOL     OW 1420   1.849   0.113   2.550 -0.3475 -0.3615  0.2813
  474SOL    HW1 1421   1.761   0.132   2.597  2.7477 -1.0491  0.4285
  474SOL    HW2 1422   1.832   0.073   2.460  0.6093  0.9848  0.3099
  475SOL     OW 1423   1.818   2.470   0.613 -0.0089  0.1936  0.1890
  475SOL    HW1 1424   1.849   2.381   0.655  0.1494  0.5400 -0.0028
  475SOL    HW2 1425   1.862   2.484   0.525  1.7477  0.1851 -1.6266
  476SOL     OW 1426   0.198   0.532   1.132  0.4684  0.1446  0.2951
  476SOL    HW1 1427   0.208   0.630   1.100 -1.6717  1.1388  3.0474
  476SOL    HW2 1428   0.136   0.535   1.208  2.3253 -3.7703 -2.0293
  477SOL     OW 1429   1.385   2.217   0.780 -0.5521  0.2209  0.6700
  477SOL    HW1 1430   1.437   2.190   0.698  0.4493  2.4646 -0.7072
  477SOL    HW2 1431   1.304   2.154   0.786 -3.6512  0.9920 -1.8838
  478SOL     OW 1432   0.272   2.311   2.481 -0.4745  0.0713  0.6349
  478SOL    HW1 1433   0.324   2.312   2.571  1.5111 -1.6658 -0.0318
  478SOL    HW2 1434   0.315   2.247   2.417  1.4801 -1.6045  1.1628
  479SOL     OW 1435   2.382   0.604   0.966  0.0534 -0.3956  0.0862
  479SOL    HW1 1436   2.370   0.505   0.988 -1.4830 -2.4434 -0.5386
  479SOL    HW2 1437   2.317   0.673   1.009 -2.8290 -0.1803  0.8120
  480SOL     OW 1438   3.093   2.868   0.259 -0.0390  0.0154  0.4318
  480SOL    HW1 1439   3.047   2.956   0.280 -1.0129 -1.2995  0.7208
  480SOL    HW2 1440   0.049   2.879   0.198  3.7028 -0.5344 -1.9491
  481SOL     OW 1441   2.710   2.471   1.246  0.9843  0.0806  0.0214
  481SOL    HW1 1442   2.658   2.503   1.332 -4.8995 -1.0101  1.3212
  481SOL    HW2 1443   2.769   2.543   1.211 -1.4703 -3.5501  2.4081
  482SOL     OW 1444   1.067   2.471   2.834 -0.4320  0.4107 -0.2045
  482SOL    HW1 1445   1.154   2.500   2.877 -0.5165  1.0343 -2.0622
  482SOL    HW2 1446   1.019   2.543   2.782 -0.1593  0.3460 -3.0440
  483SOL     OW 1447   0.485   2.018   2.755  0.7788 -0.4908  0.2376
  483SOL    HW1 1448   0.530   2.064   2.837  1.8499 -0.7113  1.0344
  483SOL    HW2 1449   0.516   2.057   2.665  1.2481 -2.6890 -1.2279
  484SOL     OW 1450   1.171   0.907   1.482 -0.6099  0.2890 -0.6718
  484SOL    HW1 1451   1.257   0.854   1.457  1.3986  0.6673  0.8053
  484SOL    HW2 1452   1.171   0.949   1.575 -0.2106  0.4249  0.5863
  485SOL     OW 1453   2.331   0.748   0.058  0.3038 -0.4116 -0.4376
  485SOL    HW1 1454   2.354   0.648   0.044 -3.1341  0.8013  0.3287
  485SOL    HW2 1455   2.357   0.804   3.104 -0.8186 -0.5194 -1.7269
  486SOL     OW 1456   2.220   3.112   1.243  0.1028 -0.5346  0.3530
  486SOL    HW1 1457   2.208   3.016   1.272 -1.2982  0.8975 -1.7457
  486SOL    HW2 1458   2.160   0.044   1.298 -2.0366  2.7030 -1.8099
  487SOL     OW 1459   0.249   2.254   1.208 -0.9223  0.3934 -0.2333
  487SOL    HW1 1460   0.253   2.154   1.230 -0.4883  0.5512  3.5817
  487SOL    HW2 1461   0.187   2.301   1.274 -4.3012  1.7494 -0.5706
  488SOL     OW 1462   2.758   0.977   0.027  0.0321  0.1209  0.6369
  488SOL    HW1 1463   2.656   0.993   0.030  1.0419 -0.4192  0.4596
  488SOL    HW2 1464   2.779   0.887   3.111 -1.6687 -2.0799  1.0665
  489SOL     OW 1465   1.924   0.138   1.070  0.4425  0.3284  0.1290
  489SOL    HW1 1466   2.000   0.098   1.124 -0.8381  1.2272  2.2584
  489SOL    HW2 1467   1.839   0.154   1.128 -1.6242 -0.6476  0.5109
  490SOL     OW 1468   0.952   0.556   0.673 -0.0734 -0.0047 -0.5232
  490SOL    HW1 1469   0.861   0.507   0.665 -1.6732 -2.5227 -0.5582
  490SOL    HW2 1470   0.966   0.603   0.585 -3.4435 -0.7642  0.6909
  491SOL     OW 1471   0.566   2.385   0.593  0.5380 -0.2930  0.4868
  491SOL    HW1 1472   0.633   2.382   0.514  1.0201  0.5203 -2.2107
  491SOL    HW2 1473   0.512   2.471   0.596  0.2145 -1.5652 -1.7831
  492SOL     OW 1474   1.464   1.602   2.159  0.2031  0.5046  0.0655
  492SOL    HW1 1475   1.375   1.574   2.115 -0.6215  1.9541 -0.7458
  492SOL    HW2 1476   1.533   1.529   2.156  0.9969  3.5585  0.6963
  493SOL     OW 1477   3.090   2.771   0.896  0.6312 -0.5772  0.0515
  493SOL    HW1 1478   2.997   2.741   0.867 -1.1841  2.1473 -2.1525
  493SOL    HW2 1479   0.017   2.695   0.863 -2.4781 -0.8570 -0.2832
  494SOL     OW 1480   2.797   1.980   0.066 -0.1395  0.7454  0.2802
  494SOL    HW1 1481   2.748   1.923   0.133 -1.7618  0.4289 -1.2871
  494SOL    HW2 1482   2.747   1.984   3.108  0.7153  2.0015  1.7404
  495SOL     OW 1483   2.693   1.927   2.957  0.1722  0.2058 -0.5913
  495SOL    HW1 1484   2.667   1.971   2.869  1.2140  1.2532  1.6750
  495SOL    HW2 1485   2.760   1.848   2.949  1.2533 -0.7076  2.2134
  496SOL     OW 1486   2.744   3.105   1.547  0.0571 -0.0166 -0.1320
  496SOL    HW1 1487   2.724   0.073   1.525 -1.5933 -0.7169  0.2386
  496SOL    HW2 1488   2.686   3.038   1.492 -2.8245 -0.3834 -1.3307
  497SOL     OW 1489   2.887   1.141   2.972 -0.3724 -0.0018 -0.2297
  497SOL    HW1 1490   2.832   1.109   2.891 -0.4655 -0.5802  2.2592
  497SOL    HW2 1491   2.875   1.077   3.047  2.5687 -0.4830  0.9952
  498SOL     OW 1492   3.118   1.950   2.150 -0.5470 -0.2509 -0.0839
  498SOL    HW1 1493   0.054   2.013   2.101  0.0680 -2.3560  1.9359
  498SOL    HW2 1494   3.094   1.982   2.245  1.0813 -1.3595  1.4621
  499SOL     OW 1495   0.914   2.258   2.910  0.3881  0.1256  0.3820
  499SOL    HW1 1496   0.942   2.162   2.883 -0.5629 -1.0010 -0.8913
  499SOL    HW2 1497   0.985   2.328   2.901 -2.3740  2.0343  1.5060
  500SOL     OW 1498   1.705   0.190   0.031 -0.2680 -0.1509 -0.6541
  500SOL    HW1 1499   1.646   0.105   0.019 -1.1127 -0.1246 -1.2978
  500SOL    HW2 1500   1.721   0.213   0.129 -1.4845 -1.2061  0.3220
  501SOL     OW 1501   1.520   3.028   1.680 -0.2367 -0.2629 -0.6243
  501SOL    HW1 1502   1.460   3.017   1.598 -1.1651 -1.0182  2.1019
  501SOL    HW2 1503   1.513   3.124   1.719 -0.3816 -1.8882 -1.0273
  502SOL     OW 1504   2.452   0.884   2.079  0.4152 -0.3555  0.2441
  502SOL    HW1 1505   2.512   0.946   2.025  3.1642  0.6361  0.6784
  502SOL    HW2 1506   2.429   0.807   2.019  1.0382  2.2004  0.7299
  503SOL     OW 1507   2.238   2.440   2.277  0.2224  0.3954 -0.2230
  503SOL    HW1 1508   2.303   2.412   2.347  2.8209 -1.0834 -1.0254
  503SOL    HW2 1509   2.266   2.533   2.246  0.6613  1.6278 -0.0121
  504SOL     OW 1510   1.512   0.612   1.692 -0.4553 -0.4663  0.0040
  504SOL    HW1 1511   1.501   0.709   1.656  1.8436  0.4845  1.4640
  504SOL    HW2 1512   1.542   0.613   1.790  0.5727  0.0852 -0.9302
  505SOL     OW 1513   0.889   0.812   1.406 -0.3339 -0.3411 -0.1961
  505SOL    HW1 1514   0.936   0.895   1.366 -3.9327  0.1115 -0.4408
  505SOL    HW2 1515   0.896   0.730   1.345  0.2921  0.6973  0.0347
  506SOL     OW 1516   0.304   0.582   2.456  0.0143 -0.3089 -0.1157
  506SOL    HW1 1517   0.372   0.559   2.388  1.1372  4.0415 -2.6779
  506SOL    HW2 1518   0.350   0.609   2.540 -3.9906 -0.5105 -2.0119
  507SOL     OW 1519   0.158   2.951   0.060  0.1185  0.4218  0.2081
  507SOL    HW1 1520   0.233   2.973   0.126 -1.3651 -0.4065 -1.7151
  507SOL    HW2 1521   0.133   3.033   0.003 -0.2346 -4.2109  1.7712
  508SOL     OW 1522   1.440   0.834   1.586 -0.6202 -0.1983 -0.6569
  508SOL    HW1 1523   1.381   0.874   1.658  0.6620 -3.0265  1.1587
  508SOL    HW2 1524   1.495   0.907   1.540  0.5522 -1.0390  2.0414
  509SOL     OW 1525   1.277   2.025   1.375 -0.5264 -0.1665  0.3845
  509SOL    HW1 1526   1.269   1.994   1.277  0.1332 -1.1759  2.4661
  509SOL    HW2 1527   1.298   1.951   1.448 -0.3899  0.6712  1.2543
  510SOL     OW 1528   2.414   1.340   2.184 -0.5249 -0.1745  0.3581
  510SOL    HW1 1529   2.386   1.425   2.237  1.0227 -1.0967  0.2571
  510SOL    HW2 1530   2.345   1.269   2.210  1.5275 -0.8201 -0.7030
  511SOL     OW 1531   0.588   1.641   1.136  0.3103 -0.1270  0.0055
  511SOL    HW1 1532   0.507   1.682   1.088  1.9664 -0.3366 -0.9597
  511SOL    HW2 1533   0.552   1.612   1.227 -1.5275  0.9975  0.8766
  512SOL     OW 1534   2.599   2.031   0.472 -0.1231  0.0934 -0.4804
  512SOL    HW1 1535   2.561   2.116   0.435 -2.1564  0.8453  0.0715
  512SOL    HW2 1536   2.525   1.964   0.485  2.2254 -0.5685 -1.4909
  513SOL     OW 1537   0.002   1.715   2.515  0.1650  0.5485 -0.1067
  513SOL    HW1 1538   0.094   1.749   2.486  0.7157  0.9960 -0.8557
  513SOL    HW2 1539   0.006   1.624   2.552 -0.6041 -1.9220 -1.8949
  514SOL     OW 1540   3.061   2.571   2.310 -0.6026  0.0841  0.1436
  514SOL    HW1 1541   3.103   2.507   2.380 -0.8286 -0.7616 -0.9863
  514SOL    HW2 1542   3.098   2.556   2.214 -0.7053 -0.8261 -1.0571
  515SOL     OW 1543   2.254   1.352   1.265  0.4803 -0.4189 -0.1508
  515SOL    HW1 1544   2.155   1.349   1.292  0.9920 -0.4312 -1.6890
  515SOL    HW2 1545   2.303   1.382   1.347  0.7936 -2.7557  0.6541
  516SOL     OW 1546   2.243   2.242   0.162 -0.0821  0.4588 -0.0503
  516SOL    HW1 1547   2.181   2.209   0.233 -0.2946 -0.7647  0.6191
  516SOL    HW2 1548   2.213   2.205   0.073  0.0590 -0.7208 -0.7305
  517SOL     OW 1549   1.285   1.147   3.033 -0.5785  0.2253  0.2256
  517SOL    HW1 1550   1.350   1.070   3.053  2.2165 -1.2048  0.9431
  517SOL    HW2 1551   1.276   1.155   2.928 -2.6325  2.0508 -0.8577
  518SOL     OW 1552   3.114   3.031   2.207  0.1278 -0.4232 -0.3092
  518SOL    HW1 1553   3.121   3.114   2.268 -0.5916  2.1848 -0.2013
  518SOL    HW2 1554   3.022   2.987   2.217 -0.3318  0.2114  1.4199
  519SOL     OW 1555   1.639   1.699   2.352  0.6628  0.7556 -0.5025
  519SOL    HW1 1556   1.724   1.683   2.298 -0.3525 -0.4501 -3.6979
  519SOL    HW2 1557   1.567   1.654   2.296 -0.6558 -3.4213 -0.4515
  520SOL     OW 1558   2.829   2.892   2.536 -0.0271 -0.0786  0.7396
  520SOL    HW1 1559   2.811   2.827   2.455  0.3747  1.2738 -5.9358
  520SOL    HW2 1560   2.931   2.902   2.547  0.0306 -0.3373  1.0645
  521SOL     OW 1561   0.204   1.668   1.849  0.0752  0.0387 -0.4597
  521SOL    HW1 1562   0.182   1.656   1.951  0.5634  2.7184  0.1635
  521SOL    HW2 1563   0.157   1.602   1.789 -0.8857  1.3409  0.4965
  522SOL     OW 1564   1.005   2.802   1.600 -0.4207  0.9533  0.3405
  522SOL    HW1 1565   0.932   2.767   1.536 -1.5440  3.0496  0.3605
  522SOL    HW2 1566   1.056   2.875   1.553  1.9879 -1.6626 -3.6932
  523SOL     OW 1567   0.077   2.469   1.285  0.0415  0.3280 -0.1863
  523SOL    HW1 1568   0.116   2.490   1.377  0.5346 -0.1458  2.4093
  523SOL    HW2 1569   3.123   2.412   1.300 -1.3710 -1.4591 -0.5978
  524SOL     OW 1570   1.363   2.497   0.721 -0.4909  0.3981  0.4223
  524SOL    HW1 1571   1.459   2.540   0.725  4.3072  1.3074  0.0434
  524SOL    HW2 1572   1.367   2.396   0.730 -0.9687 -0.1559 -0.9539
  525SOL     OW 1573   2.545   1.273   0.898  0.1566  0.3868 -0.2515
  525SOL    HW1 1574   2.582   1.289   0.998  0.4738  0.6332  1.2574
  525SOL    HW2 1575   2.481   1.347   0.869  0.2190 -1.1136  1.8238
  526SOL     OW 1576   0.917   2.266   0.766  0.0173 -0.5885  0.4526
  526SOL    HW1 1577   0.878   2.289   0.676 -1.0495  0.1569 -1.0800
  526SOL    HW2 1578   1.001   2.204   0.741  2.7542 -1.1641 -0.4206
  527SOL     OW 1579   2.526   2.159   0.795  0.0893  0.0120 -1.0352
  527SOL    HW1 1580   2.602   2.165   0.729  0.3563  1.5440 -1.3233
  527SOL    HW2 1581   2.499   2.058   0.795 -1.4175 -0.2858 -3.4946
  528SOL     OW 1582   2.021   0.512   3.109  0.0316 -0.4679 -0.0873
  528SOL    HW1 1583   2.011   0.463   3.029  0.1324  2.7612  2.0401
  528SOL    HW2 1584   2.112   0.487   0.020  1.2311  1.6432 -0.5738
  529SOL     OW 1585   1.282   1.327   2.166  0.0566 -0.6209 -0.0577
  529SOL    HW1 1586   1.274   1.341   2.267 -1.0817  4.5610 -0.5616
  529SOL    HW2 1587   1.249   1.410   2.122 -2.8428  0.2210 -1.3021
  530SOL     OW 1588   2.618   1.100   2.479  0.0268 -0.1503 -0.2353
  530SOL    HW1 1589   2.654   1.117   2.383  0.1011  2.2843 -1.2274
  530SOL    HW2 1590   2.583   1.004   2.486  0.1415  0.7367  2.5263
  531SOL     OW 1591   0.990   0.785   0.174  0.0305 -0.0452 -0.2898
  531SOL    HW1 1592   1.034   0.881   0.175  0.5698 -0.3248  3.7930
  531SOL    HW2 1593   0.991   0.744   0.264 -1.8560  1.6082 -3.4271
  532SOL     OW 1594   1.656   1.028   0.626 -0.1397  0.1044  0.7705
  532SOL    HW1 1595   1.630   0.988   0.715  1.0309  1.0372 -0.6761
  532SOL    HW2 1596   1.689   0.954   0.562  0.7470  0.1844 -0.3408
  533SOL     OW 1597   0.422   0.729   2.183  0.0195  0.5226 -0.4280
  533SOL    HW1 1598   0.324   0.722   2.156 -0.7937  1.2337 -0.8879
  533SOL    HW2 1599   0.457   0.643   2.223 -0.1494  0.8448 -3.3629
  534SOL     OW 1600   1.644   0.118   2.746 -0.4709  0.1486 -0.0739
  534SOL    HW1 1601   1.689   0.080   2.832  1.0757  1.9610 -0.7236
  534SOL    HW2 1602   1.547   0.145   2.762 -1.1567  1.0045 -2.1318
  535SOL     OW 1603   0.799   0.147   0.581 -0.0077  0.2030 -0.0650
  535SOL    HW1 1604   0.847   0.058   0.553  0.7711 -2.2497 -1.9732
  535SOL    HW2 1605   0.706   0.141   0.616  0.0245 -2.0196 -1.6622
  536SOL     OW 1606   1.157   0.142   1.105 -0.5204 -0.0774 -0.4723
  536SOL    HW1 1607   1.245   0.177   1.079 -5.8374 -2.0452  0.4654
  536SOL    HW2 1608   1.118   0.089   1.030  1.4743  1.7752  1.9231
  537SOL     OW 1609   1.408   3.006   2.124  0.5366  0.0875 -0.5124
  537SOL    HW1 1610   1.421   2.958   2.213  0.0768  1.0852 -0.3048
  537SOL    HW2 1611   1.477   2.986   2.053 -3.7774 -0.6049 -2.4509
  538SOL     OW 1612   0.469   2.782   3.082 -0.4498  0.0777  0.8094
  538SOL    HW1 1613   0.393   2.719   3.047 -1.0783 -0.8573  2.7741
  538SOL    HW2 1614   0.476   2.855   3.010 -2.3206 -2.3539 -0.2371
  539SOL     OW 1615   2.917   1.714   1.884  0.1315  0.3936 -0.0914
  539SOL    HW1 1616   2.982   1.732   1.804  0.1437 -0.6660 -2.8830
  539SOL    HW2 1617   2.904   1.798   1.940  1.0826  2.4851  0.8177
  540SOL     OW 1618   2.642   2.475   2.290 -0.2016 -0.0388  0.3750
  540SOL    HW1 1619   2.575   2.538   2.241 -1.6973  1.9118 -0.9768
  540SOL    HW2 1620   2.683   2.421   2.218  1.2663 -1.3418 -2.4827
  541SOL     OW 1621   0.200   2.829   1.612  0.0987 -0.6403 -0.1484
  541SOL    HW1 1622   0.102   2.846   1.642 -4.0519  0.4170  0.9736
  541SOL    HW2 1623   0.263   2.869   1.686 -0.3538  0.7449  0.4454
  542SOL     OW 1624   2.798   0.522   1.948 -0.6183 -0.4159 -0.0841
  542SOL    HW1 1625   2.758   0.575   2.023  2.3527 -0.9051  0.7401
  542SOL    HW2 1626   2.806   0.429   1.985 -1.6587  2.1218  0.9706
  543SOL     OW 1627   0.832   0.316   0.893 -0.0911 -0.0979  0.5565
  543SOL    HW1 1628   0.872   0.356   0.975  0.6201  2.7809  0.5086
  543SOL    HW2 1629   0.902   0.292   0.827 -0.9064  1.1517  0.5569
  544SOL     OW 1630   2.179   2.226   1.409 -0.3925 -0.0285  0.3402
  544SOL    HW1 1631   2.216   2.135   1.428  0.3139 -0.7768  0.6078
  544SOL    HW2 1632   2.078   2.220   1.395  1.3302  2.1734  1.8949
  545SOL     OW 1633   1.147   1.493   0.917  0.2236 -0.3065 -0.7766
  545SOL    HW1 1634   1.244   1.513   0.903 -0.4992  2.0686  0.9501
  545SOL    HW2 1635   1.128   1.452   1.010  0.4771  3.7833 -1.0698
  546SOL     OW 1636   2.864   0.378   2.243 -0.4355  0.3702  0.1556
  546SOL    HW1 1637   2.806   0.313   2.291  1.2788 -1.2385 -1.5068
  546SOL    HW2 1638   2.938   0.329   2.192  2.6413  0.7399  1.8861
  547SOL     OW 1639   2.995   0.533   2.920 -0.8947  0.4466  0.0592
  547SOL    HW1 1640   2.975   0.433   2.908 -0.8298  0.5968 -0.7733
  547SOL    HW2 1641   3.088   0.549   2.878  2.1218 -0.5097 -0.1390
  548SOL     OW 1642   2.361   2.131   2.772 -0.1150  0.1462  0.2246
  548SOL    HW1 1643   2.450   2.096   2.732 -2.5466 -1.3453 -1.5248
  548SOL    HW2 1644   2.376   2.221   2.820 -1.5045 -1.3223 -3.6560
  549SOL     OW 1645   2.222   0.568   0.724  0.8032 -0.1578 -0.2978
  549SOL    HW1 1646   2.119   0.581   0.735 -3.1474 -1.9198 -0.9238
  549SOL    HW2 1647   2.275   0.602   0.803  0.8739 -0.2001  1.3143
  550SOL     OW 1648   2.598   1.440   0.223  0.5950 -0.0087 -0.0358
  550SOL    HW1 1649   2.533   1.370   0.272  1.2192  1.3123  2.0597
  550SOL    HW2 1650   2.692   1.403   0.227  1.2056 -1.7881 -0.6607
  551SOL     OW 1651   1.487   2.440   1.383  0.0903  0.0241  0.7703
  551SOL    HW1 1652   1.521   2.476   1.292  0.7402 -0.1011 -2.9181
  551SOL    HW2 1653   1.448   2.510   1.446  0.5469 -0.9113 -0.0193
  552SOL     OW 1654   2.560   2.494   2.561  0.0402  0.1979  0.3699
  552SOL    HW1 1655   2.596   2.500   2.464  0.0749 -1.0635  0.2957
  552SOL    HW2 1656   2.515   2.579   2.596 -2.4222  0.5665  1.5146
  553SOL     OW 1657   0.725   2.968   0.582  0.1440 -0.2768 -0.2246
  553SOL    HW1 1658   0.668   3.052   0.555 -3.3746 -0.9101  0.7282
  553SOL    HW2 1659   0.697   2.938   0.675 -0.3552 -0.7983  3.2470
  554SOL     OW 1660   1.623   2.565   1.675 -0.0987 -0.0610 -0.2147
  554SOL    HW1 1661   1.558   2.515   1.731  0.6633  0.9505  0.6572
  554SOL    HW2 1662   1.677   2.626   1.734 -1.2950 -2.6017  3.0532
  555SOL     OW 1663   1.473   2.602   2.189 -0.0164  0.8272  0.2157
  555SOL    HW1 1664   1.457   2.510   2.136  0.1766  0.5710 -1.1470
  555SOL    HW2 1665   1.382   2.645   2.207  0.6834 -1.5559  0.8291
  556SOL     OW 1666   1.544   0.583   0.825 -0.5597 -0.1073  0.2017
  556SOL    HW1 1667   1.576   0.533   0.906 -0.7159 -0.1462 -0.7919
  556SOL    HW2 1668   1.462   0.541   0.783 -3.3696 -0.6032 -1.7702
  557SOL     OW 1669   1.091   2.050   1.561  0.1749  0.2824  0.3283
  557SOL    HW1 1670   1.166   2.056   1.492 -0.1834  2.0828  0.2831
  557SOL    HW2 1671   1.108   2.090   1.654 -1.1572  0.6461 -1.5500
  558SOL     OW 1672   2.969   1.225   2.223 -0.0547 -0.2098  0.5658
  558SOL    HW1 1673   2.884   1.173   2.237  2.3206 -0.7181  2.7659
  558SOL    HW2 1674   3.032   1.199   2.299  0.3484 -0.6071  1.4702
  559SOL     OW 1675   2.290   2.821   2.437 -0.5494  0.5097 -0.3213
  559SOL    HW1 1676   2.316   2.750   2.366  2.1097 -1.7951 -1.9968
  559SOL    HW2 1677   2.283   2.909   2.391  0.2801  0.7948  0.2938
  560SOL     OW 1678   0.487   0.197   2.757  0.0533  0.5222 -0.1811
  560SOL    HW1 1679   0.528   0.192   2.661  1.7906  0.5864 -1.4107
  560SOL    HW2 1680   0.555   0.156   2.822 -1.2590  0.9604  0.2272
  561SOL     OW 1681   1.295   0.559   0.675  0.8056 -0.2336  0.6185
  561SOL    HW1 1682   1.281   0.656   0.673  0.3230 -0.3667  0.6738
  561SOL    HW2 1683   1.217   0.507   0.631 -1.5188  0.7033  1.4026
  562SOL     OW 1684   0.908   1.226   1.798  0.0628 -0.3975 -0.0590
  562SOL    HW1 1685   0.929   1.160   1.872  0.0338 -0.5830 -0.9906
  562SOL    HW2 1686   0.830   1.290   1.827 -2.6912  1.4137  0.2907
  563SOL     OW 1687   1.875   1.994   0.031  0.1330  0.4504  0.4933
  563SOL    HW1 1688   1.917   1.958   3.074 -1.1834 -3.6813 -1.2709
  563SOL    HW2 1689   1.920   1.947   0.112 -0.5162 -1.2385 -0.4963
  564SOL     OW 1690   2.983   2.321   0.583 -0.0600 -0.1618 -0.2361
  564SOL    HW1 1691   2.912   2.245   0.585  1.6447 -0.5077  0.3001
  564SOL    HW2 1692   3.074   2.297   0.545 -1.6945  3.2128  3.1052
  565SOL     OW 1693   0.507   2.948   2.842 -0.1261  0.0660 -0.6494
  565SOL    HW1 1694   0.431   3.017   2.872 -0.9897 -1.1232  0.1449
  565SOL    HW2 1695   0.482   2.892   2.761 -0.4233 -1.3320  1.2388
  566SOL     OW 1696   1.502   2.772   3.064  0.0383  0.0836  0.1946
  566SOL    HW1 1697   1.601   2.793   3.080 -1.3422  0.3469  0.6539
  566SOL    HW2 1698   1.447   2.847   3.016 -1.7891  1.2407 -2.1122
  567SOL     OW 1699   2.310   1.965   1.403 -0.1540 -0.5577  0.3294
  567SOL    HW1 1700   2.410   1.954   1.386 -0.9285 -0.5387  0.5948
  567SOL    HW2 1701   2.253   1.918   1.329  1.8679 -1.8611 -2.6043
  568SOL     OW 1702   1.720   0.918   2.916  0.0811  0.1263 -0.1898
  568SOL    HW1 1703   1.781   0.838   2.932 -1.5126  1.3302 -0.0959
  568SOL    HW2 1704   1.731   0.984   2.992 -1.8879  0.2774 -0.6441
  569SOL     OW 1705   2.086   2.045   1.968 -0.0521 -0.5442 -0.1295
  569SOL    HW1 1706   2.180   2.026   1.939 -1.5914 -0.2183  0.8436
  569SOL    HW2 1707   2.086   2.129   2.026 -3.0146  1.3909  0.9276
  570SOL     OW 1708   2.857   2.723   1.908  0.9758  0.8067  0.1765
  570SOL    HW1 1709   2.830   2.813   1.867  1.5992  0.7997 -1.3307
  570SOL    HW2 1710   2.927   2.680   1.851 -0.7202  0.6287  1.0663
  571SOL     OW 1711   0.200   0.753   1.377  0.1871  0.1667  0.4045
  571SOL    HW1 1712   0.267   0.829   1.363  0.7717  1.1995 -1.5486
  571SOL    HW2 1713   0.249   0.663   1.372  0.4961 -0.9983 -0.1505
  572SOL     OW 1714   0.158   1.457   0.869  0.0437 -0.2015  0.1069
  572SOL    HW1 1715   0.100   1.406   0.803 -0.0189  0.5154 -2.6449
  572SOL    HW2 1716   0.237   1.401   0.898 -2.1922  0.3810  0.3086
  573SOL     OW 1717   0.969   0.736   0.446 -0.7524 -0.2409 -0.3188
  573SOL    HW1 1718   0.866   0.729   0.447  1.2845  0.5371 -1.8265
  573SOL    HW2 1719   1.007   0.833   0.454  0.4620 -0.5663 -1.1597
  574SOL     OW 1720   0.388   0.256   0.319  0.6057 -0.3239 -0.0662
  574SOL    HW1 1721   0.434   0.321   0.382  0.0697  2.0368  0.5344
  574SOL    HW2 1722   0.299   0.222   0.361  0.3774 -0.0057  1.0859
  575SOL     OW 1723   0.747   2.136   0.964 -0.2786  0.1722 -0.3741
  575SOL    HW1 1724   0.805   2.152   0.883 -1.7269  0.4832 -0.5092
  575SOL    HW2 1725   0.778   2.181   1.049 -1.1784  0.2232 -0.5147
  576SOL     OW 1726   2.846   2.889   1.304 -0.1577  0.2734 -0.5670
  576SOL    HW1 1727   2.760   2.918   1.260 -0.6808 -0.5876  1.6692
  576SOL    HW2 1728   2.922   2.952   1.278  0.6638  1.4515  2.0826
  577SOL     OW 1729   2.696   2.080   2.134 -0.1037 -0.3293 -0.4353
  577SOL    HW1 1730   2.634   2.086   2.216  1.0295 -1.1976  0.3561
  577SOL    HW2 1731   2.654   2.119   2.049 -2.1719 -1.2674 -2.3855
  578SOL     OW 1732   1.092   0.190   2.842 -0.1412  0.3444 -0.0661
  578SOL    HW1 1733   1.014   0.138   2.803  3.1727 -0.9597  1.8189
  578SOL    HW2 1734   1.111   0.144   2.934  1.2250 -0.0944 -0.3552
  579SOL     OW 1735   1.851   1.907   2.012 -0.0388  0.2478  0.2655
  579SOL    HW1 1736   1.950   1.918   1.995 -0.5301 -2.0140  2.6523
  579SOL    HW2 1737   1.802   1.863   1.939 -1.3420  1.2779 -0.4466
  580SOL     OW 1738   1.729   0.808   2.331 -0.0398 -0.3499 -0.0896
  580SOL    HW1 1739   1.784   0.841   2.250  1.2027 -1.8018 -0.2600
  580SOL    HW2 1740   1.758   0.710   2.347 -2.0947  0.1196  1.8607
  581SOL     OW 1741   0.997   1.372   2.308 -0.8195  0.6374 -0.0724
  581SOL    HW1 1742   1.010   1.454   2.364  3.2873 -2.0318 -1.5932
  581SOL    HW2 1743   0.997   1.285   2.366  2.3445 -0.4842  2.1538
  582SOL     OW 1744   0.124   2.709   1.893 -0.0522 -0.0604  0.5557
  582SOL    HW1 1745   0.225   2.709   1.865  0.9915 -1.9931 -3.9330
  582SOL    HW2 1746   0.097   2.799   1.931 -0.1343  0.1075 -0.2912
  583SOL     OW 1747   1.537   1.070   1.443 -0.0261  0.5487 -0.0273
  583SOL    HW1 1748   1.588   1.061   1.352  2.1817 -0.3785 -0.1960
  583SOL    HW2 1749   1.469   1.146   1.432 -2.3018  0.7210 -0.7966
  584SOL     OW 1750   1.176   2.005   2.707 -0.0525  0.2047 -0.1137
  584SOL    HW1 1751   1.238   1.933   2.665  1.7445 -1.5968 -0.9404
  584SOL    HW2 1752   1.197   2.093   2.669  0.0185 -2.0619 -0.3118
  585SOL     OW 1753   0.305   2.513   0.260  0.2269  0.5482  0.1098
  585SOL    HW1 1754   0.219   2.496   0.207  0.7428 -1.4788 -1.4040
  585SOL    HW2 1755   0.286   2.528   0.363 -0.4018  0.1804  6.0668
  586SOL     OW 1756   2.037   1.593   0.289  0.1261  0.0496 -0.1391
  586SOL    HW1 1757   2.022   1.562   0.194  0.0737 -2.2327 -0.4845
  586SOL    HW2 1758   1.981   1.538   0.353 -0.3930  0.0421  0.8596
  587SOL     OW 1759   2.849   2.063   0.588 -0.4424 -0.2449 -0.1691
  587SOL    HW1 1760   2.902   1.977   0.567  0.9234 -0.5357  2.1840
  587SOL    HW2 1761   2.758   2.071   0.539 -2.5231  2.7906  2.7671
  588SOL     OW 1762   2.404   0.287   0.998  0.5481 -0.3876 -0.0680
  588SOL    HW1 1763   2.423   0.238   1.086 -1.8420 -0.5427  1.9945
  588SOL    HW2 1764   2.307   0.278   0.964 -1.4084 -0.4666  1.4946
  589SOL     OW 1765   0.881   0.765   0.855  0.3936 -0.0816  1.0821
  589SOL    HW1 1766   0.965   0.812   0.888  0.1379 -3.6176  0.1380
  589SOL    HW2 1767   0.905   0.669   0.827  1.9080 -0.1804  0.2417
  590SOL     OW 1768   2.495   2.357   0.113  0.2003 -0.3279 -0.6888
  590SOL    HW1 1769   2.407   2.313   0.141 -4.1040  1.1610  1.3788
  590SOL    HW2 1770   2.527   2.351   0.016  0.2932  0.1962  0.8766
  591SOL     OW 1771   0.507   2.468   1.825  0.3375 -0.0909  0.3751
  591SOL    HW1 1772   0.542   2.375   1.859  2.0876 -2.4092  1.3798
  591SOL    HW2 1773   0.450   2.461   1.738 -0.3341  2.0394 -2.6132
  592SOL     OW 1774   0.703   1.263   1.380 -0.2326  0.0931  0.2516
  592SOL    HW1 1775   0.768   1.308   1.437 -1.2691 -1.7857 -0.3522
  592SOL    HW2 1776   0.743   1.237   1.286 -1.6276 -2.6174 -3.2364
  593SOL     OW 1777   0.900   1.962   1.360  0.5506  0.1764 -0.1162
  593SOL    HW1 1778   0.940   1.873   1.328 -0.2066 -1.7160 -1.6064
  593SOL    HW2 1779   0.946   2.000   1.445  1.7564 -2.7321 -0.5308
  594SOL     OW 1780   0.771   1.069   2.704 -0.1722 -0.5928 -0.9659
  594SOL    HW1 1781   0.854   1.034   2.750  2.3806 -2.7175  2.6182
  594SOL    HW2 1782   0.755   1.169   2.723  1.9512 -1.0636 -0.1487
  595SOL     OW 1783   1.443   0.452   1.084 -0.1019 -0.0748  0.3964
  595SOL    HW1 1784   1.520   0.506   1.123 -0.7993 -1.7708  1.0032
  595SOL    HW2 1785   1.376   0.518   1.056  3.0314 -0.8666  0.0139
  596SOL     OW 1786   0.319   1.207   0.866 -0.2150  0.5865  0.0226
  596SOL    HW1 1787   0.404   1.147   0.877  2.7554 -2.8463 -0.1332
  596SOL    HW2 1788   0.236   1.148   0.856  1.1850 -2.1745  0.6524
  597SOL     OW 1789   0.326   2.308   2.963  0.1533 -0.0677  0.3323
  597SOL    HW1 1790   0.231   2.283   2.928  0.5480  0.2810  1.4738
  597SOL    HW2 1791   0.344   2.250   3.048  1.0769  0.6511  0.4674
  598SOL     OW 1792   2.153   1.987   2.655  0.3265 -0.4035 -0.1484
  598SOL    HW1 1793   2.097   2.075   2.634 -0.9657  2.0642 -0.0740
  598SOL    HW2 1794   2.229   2.026   2.712 -2.5427 -0.4465  0.2058
  599SOL     OW 1795   1.528   0.515   0.477 -0.4520  0.2320  0.4553
  599SOL    HW1 1796   1.513   0.496   0.380 -0.2324  0.6924  0.3275
  599SOL    HW2 1797   1.451   0.523   0.541  1.3005 -1.1030  1.1958
  600SOL     OW 1798   0.992   3.031   0.555  0.3207  0.0949 -0.4262
  600SOL    HW1 1799   0.903   2.986   0.534  1.0194 -0.6549 -2.6493
  600SOL    HW2 1800   1.035   3.003   0.642 -1.5483 -0.3752  0.6471
  601SOL     OW 1801   0.424   0.227   1.232 -0.4573  0.4678  0.7561
  601SOL    HW1 1802   0.455   0.316   1.188 -0.3813 -0.9547  0.8073
  601SOL    HW2 1803   0.505   0.163   1.228  0.2418 -0.5968  0.2053
  602SOL     OW 1804   0.122   3.007   0.871  0.4980  0.4899  0.2411
  602SOL    HW1 1805   0.060   2.927   0.858 -2.1236 -0.5503  1.1271
  602SOL    HW2 1806   0.070   3.094   0.884  0.0813 -1.5481 -1.1224
  603SOL     OW 1807   0.844   2.680   2.476 -0.2193  0.5522 -0.1544
  603SOL    HW1 1808   0.826   2.740   2.398 -1.1817 -2.3539  2.7388
  603SOL    HW2 1809   0.763   2.674   2.536 -1.0260  3.2000  2.2718
  604SOL     OW 1810   1.051   2.703   3.059 -0.2441  0.3621 -0.0383
  604SOL    HW1 1811   1.007   2.691   0.018 -1.6130 -0.2336 -1.4976
  604SOL    HW2 1812   0.989   2.709   2.982  0.3249 -0.9517  2.4617
  605SOL     OW 1813   1.275   0.969   1.770  0.0345 -0.3359  0.6677
  605SOL    HW1 1814   1.214   0.941   1.845 -0.0548  0.0779  2.2129
  605SOL    HW2 1815   1.277   1.070   1.767 -0.3875  0.9095  0.1463
  606SOL     OW 1816   1.346   0.184   2.719 -0.3301 -0.6177  0.3965
  606SOL    HW1 1817   1.251   0.171   2.760  3.0787  2.2870  2.2923
  606SOL    HW2 1818   1.393   0.266   2.760 -1.6899  0.7260 -5.4128
  607SOL     OW 1819   0.252   1.235   1.158  1.0486  0.4042 -1.3549
  607SOL    HW1 1820   0.297   1.202   1.244  3.1734  1.7356 -2.4502
  607SOL    HW2 1821   0.313   1.218   1.080  1.7064 -0.2010 -1.3340
  608SOL     OW 1822   2.974   2.206   2.352 -0.3107  0.1477  0.0915
  608SOL    HW1 1823   2.947   2.242   2.263 -0.4656 -1.9000 -1.5544
  608SOL    HW2 1824   3.036   2.267   2.405  1.4123  0.2444 -1.0826
  609SOL     OW 1825   2.000   0.418   0.295 -0.1586 -0.1651 -0.2616
  609SOL    HW1 1826   2.072   0.410   0.220 -0.6231  0.8690 -1.2193
  609SOL    HW2 1827   1.949   0.505   0.279  1.2521 -0.3889  0.3280
  610SOL     OW 1828   0.906   2.678   1.082  0.3067  0.2231 -0.2480
  610SOL    HW1 1829   0.885   2.764   1.028  0.3389  1.1629  0.7095
  610SOL    HW2 1830   0.987   2.691   1.140 -2.8759 -1.4232  0.8667
  611SOL     OW 1831   0.791   1.349   0.455 -0.3078  0.2006  0.3136
  611SOL    HW1 1832   0.760   1.396   0.370 -1.2000 -0.0415  0.4218
  611SOL    HW2 1833   0.720   1.284   0.484  1.1796  2.1842 -1.5761
  612SOL     OW 1834   0.911   0.267   2.403 -0.3867  0.3417 -0.0498
  612SOL    HW1 1835   0.837   0.302   2.469 -2.5315 -0.9002  0.7323
  612SOL    HW2 1836   0.976   0.342   2.379 -0.5375 -1.1038  0.7626
  613SOL     OW 1837   2.431   1.273   0.315 -0.2612 -0.0560 -0.3564
  613SOL    HW1 1838   2.396   1.257   0.411 -0.3805  3.2628  2.0443
  613SOL    HW2 1839   2.381   1.228   0.234  1.9877 -2.1607 -0.7523
  614SOL     OW 1840   1.789   0.469   1.655 -0.3126  0.4096  0.3291
  614SOL    HW1 1841   1.705   0.530   1.649 -1.4978  1.4582  0.9555
  614SOL    HW2 1842   1.862   0.521   1.701 -3.2931 -1.4744 -3.8150
  615SOL     OW 1843   0.601   1.934   0.884  0.5880  0.2935  0.0027
  615SOL    HW1 1844   0.570   1.881   0.964 -1.7515  0.9521  1.6786
  615SOL    HW2 1845   0.660   2.012   0.914 -0.4222 -3.0531  0.8293
  616SOL     OW 1846   1.465   1.148   2.488  0.4155 -0.2888  0.0124
  616SOL    HW1 1847   1.561   1.127   2.482 -1.0620 -3.2274  0.7147
  616SOL    HW2 1848   1.416   1.069   2.531  0.0705 -0.7655  0.3887
  617SOL     OW 1849   1.846   2.558   0.340  0.0741 -0.2036 -0.0839
  617SOL    HW1 1850   1.756   2.591   0.313  2.7377 -0.5974  0.0162
  617SOL    HW2 1851   1.899   2.548   0.254 -0.5520 -0.4577  1.0385
  618SOL     OW 1852   0.734   0.897   0.071  0.1172  0.4132  0.1659
  618SOL    HW1 1853   0.692   0.975   0.126  1.9000  2.9054  0.9807
  618SOL    HW2 1854   0.808   0.849   0.123  1.6066  1.3452  0.6342
  619SOL     OW 1855   2.691   1.420   0.604 -0.1464 -0.1897 -0.2963
  619SOL    HW1 1856   2.716   1.335   0.653 -1.9555 -0.3904 -0.2339
  619SOL    HW2 1857   2.687   1.410   0.505 -0.2912  1.5019 -0.9162
  620SOL     OW 1858   2.446   2.820   3.092  0.0426 -0.4125 -0.2796
  620SOL    HW1 1859   2.508   2.769   0.024  0.9819  2.2518 -2.1841
  620SOL    HW2 1860   2.460   2.787   2.998  3.1352  0.7858 -0.5528
  621SOL     OW 1861   2.281   1.182   0.111 -0.4036  0.1125  0.1937
  621SOL    HW1 1862   2.209   1.112   0.138 -1.7476 -0.6725  2.2426
  621SOL    HW2 1863   2.228   1.268   0.088 -0.7073 -0.4622 -2.0724
  622SOL     OW 1864   1.087   2.303   2.496  0.2439  0.8798 -0.0392
  622SOL    HW1 1865   1.154   2.269   2.567 -0.8663  0.1643 -0.5534
  622SOL    HW2 1866   1.114   2.279   2.399 -0.6466 -0.2900 -2.4388
  623SOL     OW 1867   0.625   1.722   3.090  0.2936  0.2907  0.4302
  623SOL    HW1 1868   0.687   1.772   3.024  1.8514  0.4565  0.6325
  623SOL    HW2 1869   0.593   1.784   0.032 -0.5460 -2.3200  3.6455
  624SOL     OW 1870   0.342   0.014   2.913 -0.0720  0.2480 -0.1885
  624SOL    HW1 1871   0.396   0.094   2.895  0.7690  0.0497  1.8126
  624SOL    HW2 1872   0.266   0.031   2.979  0.9886 -3.0796 -1.2688
  625SOL     OW 1873   0.716   2.027   0.175 -0.0039  0.6087 -0.0240
  625SOL    HW1 1874   0.736   2.102   0.104  0.1173  1.8129 -0.8827
  625SOL    HW2 1875   0.627   2.039   0.218  2.5106 -0.9085 -0.1422
  626SOL     OW 1876   2.499   0.345   0.170  0.3680 -0.3829 -0.4215
  626SOL    HW1 1877   2.551   0.267   0.129 -0.3601 -2.0792  0.3282
  626SOL    HW2 1878   2.522   0.351   0.271 -1.1073 -1.9027  0.6381
  627SOL     OW 1879   1.322   0.923   2.646 -0.0762 -0.0177 -0.6465
  627SOL    HW1 1880   1.263   1.006   2.661 -0.9623  0.0213  1.2847
  627SOL    HW2 1881   1.336   0.869   2.730  0.0251  0.3124 -0.2060
  628SOL     OW 1882   1.109   0.588   2.617  0.0751  0.6802  0.3940
  628SOL    HW1 1883   1.075   0.544   2.701 -0.2021  1.2196 -0.7611
  628SOL    HW2 1884   1.050   0.657   2.574 -0.4343  1.2479  0.7451
  629SOL     OW 1885   0.375   3.042   1.980  0.1744 -0.2722  0.8465
  629SOL    HW1 1886   0.429   3.059   2.064 -0.4656 -0.6043 -0.8662
  629SOL    HW2 1887   0.404   3.102   1.898 -0.7938  0.5878  0.0917
  630SOL     OW 1888   2.453   1.048   1.712  1.0169 -0.0968  0.0174
  630SOL    HW1 1889   2.470   1.083   1.806  2.0958 -1.0832 -1.1185
  630SOL    HW2 1890   2.364   0.998   1.696 -0.1923 -2.2955 -0.2554
  631SOL     OW 1891   2.342   1.185   0.561  0.2061 -0.6380 -0.4093
  631SOL    HW1 1892   2.253   1.129   0.576 -2.3343 -1.5336 -1.4603
  631SOL    HW2 1893   2.420   1.125   0.557 -1.4601 -2.2722 -1.0614
  632SOL     OW 1894   2.414   0.455   1.748 -0.1895  0.1640  0.2765
  632SOL    HW1 1895   2.507   0.489   1.739 -1.3562 -1.5619 -0.3197
  632SOL    HW2 1896   2.408   0.369   1.693  1.8556 -1.1112  1.5096
  633SOL     OW 1897   0.957   2.870   0.249 -0.2708  0.6133  0.2220
  633SOL    HW1 1898   0.888   2.834   0.181 -1.9689 -0.2032 -0.7187
  633SOL    HW2 1899   0.983   2.791   0.312  0.2570 -0.3503  0.6343
  634SOL     OW 1900   1.592   3.042   0.095  0.4478 -0.0951 -0.7780
  634SOL    HW1 1901   1.509   3.014   0.143  0.1912 -1.7186  1.8811
  634SOL    HW2 1902   1.675   3.004   0.146 -1.4272  2.0138  1.0361
  635SOL     OW 1903   2.792   0.432   0.242 -0.1679 -0.6964  0.8507
  635SOL    HW1 1904   2.788   0.494   0.159 -1.4200  0.4611  1.0462
  635SOL    HW2 1905   2.728   0.459   0.315  2.6748 -0.7676 -0.0650
  636SOL     OW 1906   0.479   1.610   0.735  1.1204 -0.1503 -0.5866
  636SOL    HW1 1907   0.534   1.679   0.686 -0.2245  1.6867  0.6468
  636SOL    HW2 1908   0.533   1.525   0.757  0.5054 -1.9301  0.2102
  637SOL     OW 1909   0.233   2.803   0.386 -0.3703 -0.0413 -0.7696
  637SOL    HW1 1910   0.295   2.774   0.317 -2.8860 -0.9082  2.9518
  637SOL    HW2 1911   0.217   2.724   0.442  0.4278  1.2886 -4.4647
  638SOL     OW 1912   3.047   2.709   0.455  0.0792  0.7532 -0.7495
  638SOL    HW1 1913   3.078   2.777   0.385 -2.5851 -2.2893 -0.4445
  638SOL    HW2 1914   0.000   2.661   0.495 -1.1137 -1.4220  0.5531
  639SOL     OW 1915   1.147   1.481   0.301 -0.1955  0.4844  0.3600
  639SOL    HW1 1916   1.165   1.383   0.271 -0.8021 -3.9358  1.1663
  639SOL    HW2 1917   1.205   1.550   0.250  0.3824 -0.0792  0.0523
  640SOL     OW 1918   1.434   2.251   1.042  0.2126  0.3865  0.6828
  640SOL    HW1 1919   1.501   2.318   1.062 -2.6561 -2.4606 -0.5370
  640SOL    HW2 1920   1.422   2.236   0.939  0.4130  1.8495 -1.4958
  641SOL     OW 1921   2.793   2.722   0.828 -0.3153  0.3521  0.0842
  641SOL    HW1 1922   2.784   2.619   0.818  0.5087 -1.7551  0.6449
  641SOL    HW2 1923   2.759   2.752   0.920 -0.9372 -0.6682  0.5319
  642SOL     OW 1924   0.830   3.043   1.875 -0.0693 -0.0918  0.5388
  642SOL    HW1 1925   0.914   3.039   1.924 -2.2582  3.2693 -2.0591
  642SOL    HW2 1926   0.835   3.125   1.821  1.6512 -0.5007  1.6034
  643SOL     OW 1927   0.796   2.258   2.552  0.3004  0.1662 -0.6524
  643SOL    HW1 1928   0.893   2.278   2.537  3.1199  1.2673 -0.1584
  643SOL    HW2 1929   0.761   2.304   2.639  0.0527  3.5546 -1.0328
  644SOL     OW 1930   0.891   2.685   0.599 -0.2059 -0.1728  0.0621
  644SOL    HW1 1931   0.903   2.611   0.666  0.0656  2.6238 -1.7702
  644SOL    HW2 1932   0.839   2.766   0.632  0.9879 -0.6003 -0.9795
  645SOL     OW 1933   1.212   1.586   2.065  0.2310  0.1471 -0.3927
  645SOL    HW1 1934   1.134   1.608   2.002 -0.2397 -0.2601 -0.7188
  645SOL    HW2 1935   1.192   1.610   2.160 -1.6766  0.8390 -4.3184
  646SOL     OW 1936   0.575   1.155   0.442 -0.1217  0.6561 -0.7370
  646SOL    HW1 1937   0.639   1.101   0.502  1.9716 -2.1405 -1.9161
  646SOL    HW2 1938   0.479   1.162   0.484 -1.1454  0.3772  1.5338
  647SOL     OW 1939   1.572   0.174   0.844  0.1753  0.0502  0.1671
  647SOL    HW1 1940   1.649   0.115   0.817 -0.1583 -1.4551  1.4453
  647SOL    HW2 1941   1.575   0.253   0.780  0.3083  1.6448 -0.1141
  648SOL     OW 1942   2.510   2.604   1.432 -0.2176 -0.3643 -0.1281
  648SOL    HW1 1943   2.485   2.686   1.481  0.3063  0.9634  1.4339
  648SOL    HW2 1944   2.530   2.521   1.492  3.0438  1.5492  0.4077
  649SOL     OW 1945   0.745   2.237   0.004  0.0253 -0.2920 -0.1691
  649SOL    HW1 1946   0.814   2.219   3.063 -1.4866  1.6506  0.7088
  649SOL    HW2 1947   0.762   2.328   0.052 -2.6598  1.4954  2.0812
  650SOL     OW 1948   2.859   2.094   1.473  0.6065  0.0741 -0.1063
  650SOL    HW1 1949   2.890   2.182   1.431  3.1850 -0.5252 -2.7214
  650SOL    HW2 1950   2.760   2.095   1.485  0.0012 -0.7213 -1.0537
  651SOL     OW 1951   0.090   0.054   3.039 -0.2314  0.3435 -0.3454
  651SOL    HW1 1952   0.007   0.004   3.008 -1.4115  0.4607 -1.0373
  651SOL    HW2 1953   0.067   0.152   3.069  1.2944 -0.4100 -2.6979
  652SOL     OW 1954   2.244   1.927   3.076  0.2595  0.1009 -0.2248
  652SOL    HW1 1955   2.222   2.007   3.016  1.1398  3.2773  2.1855
  652SOL    HW2 1956   2.236   1.959   0.045  2.6941 -2.2495 -1.4404
  653SOL     OW 1957   0.304   0.139   0.959  0.2675 -0.1225  0.0142
  653SOL    HW1 1958   0.371   0.210   0.978 -0.3146  0.8021  3.0736
  653SOL    HW2 1959   0.322   0.050   1.005  2.8322  0.4058  1.2763
  654SOL     OW 1960   1.390   2.956   0.255 -0.1935  0.3679  0.0105
  654SOL    HW1 1961   1.368   2.866   0.294 -1.9861 -1.0187  0.2964
  654SOL    HW2 1962   1.419   3.025   0.323 -3.6787 -1.7702 -0.6296
  655SOL     OW 1963   0.648   2.737   1.178  0.3858  0.1766 -0.2420
  655SOL    HW1 1964   0.589   2.777   1.101  1.0855  1.8938  1.6139
  655SOL    HW2 1965   0.741   2.699   1.136  1.3219 -0.4931 -1.1146
  656SOL     OW 1966   0.495   3.012   2.230 -0.0543  0.5362 -0.1400
  656SOL    HW1 1967   0.444   2.923   2.251 -0.5623  1.0748  0.4031
  656SOL    HW2 1968   0.566   3.029   2.304 -1.2345  0.4001  0.3531
  657SOL     OW 1969   1.819   0.581   2.639  0.2199  0.3858  0.5845
  657SOL    HW1 1970   1.867   0.503   2.590 -0.5680 -1.4329 -2.6210
  657SOL    HW2 1971   1.881   0.639   2.694 -1.1630 -1.0058 -0.9760
  658SOL     OW 1972   2.202   1.806   1.206 -0.0573  0.2213 -0.2609
  658SOL    HW1 1973   2.127   1.796   1.278 -1.4868 -2.0621  2.4130
  658SOL    HW2 1974   2.220   1.718   1.161 -1.9485  0.4291 -0.5685
  659SOL     OW 1975   2.891   2.796   0.068  0.3868 -0.0677 -0.2903
  659SOL    HW1 1976   2.978   2.782   0.118 -1.1303  1.1725 -3.5832
  659SOL    HW2 1977   2.832   2.862   0.126 -0.2687  1.8518  1.2335
  660SOL     OW 1978   1.397   0.744   0.105  0.0970 -0.3587 -0.0823
  660SOL    HW1 1979   1.447   0.820   0.061  2.6345  1.0966  2.6353
  660SOL    HW2 1980   1.377   0.762   0.206 -1.5258 -1.9934  2.0438
  661SOL     OW 1981   2.319   2.591   0.935  0.5973 -0.1471 -0.3270
  661SOL    HW1 1982   2.362   2.625   0.849  1.9189 -1.6160 -1.3941
  661SOL    HW2 1983   2.332   2.490   0.936  0.7784 -0.3802  2.1408
  662SOL     OW 1984   0.704   0.463   0.647 -0.2204  0.1949  0.5991
  662SOL    HW1 1985   0.691   0.409   0.734 -1.2666  2.7718  1.6956
  662SOL    HW2 1986   0.641   0.432   0.573 -1.1127 -0.4462 -0.1801
  663SOL     OW 1987   1.353   2.497   2.558 -0.4550  0.2645  0.2635
  663SOL    HW1 1988   1.442   2.493   2.512 -4.7596 -2.3984  2.5769
  663SOL    HW2 1989   1.310   2.592   2.557 -0.9835  0.5959  0.9578
  664SOL     OW 1990   0.613   2.330   1.344  0.2866  0.3735 -0.2431
  664SOL    HW1 1991   0.689   2.279   1.311 -4.6770  3.8856  1.1281
  664SOL    HW2 1992   0.571   2.383   1.262 -0.6322 -0.1893 -3.2538
  665SOL     OW 1993   1.328   1.778   1.542 -0.4262 -0.3872  0.3599
  665SOL    HW1 1994   1.329   1.829   1.632  0.0087  0.0546 -2.4792
  665SOL    HW2 1995   1.244   1.719   1.544  0.0593 -2.0164 -0.7945
  666SOL     OW 1996   0.456   2.749   0.213 -0.0095  0.0622 -0.4309
  666SOL    HW1 1997   0.459   2.765   0.113  0.9107 -0.4582  0.9336
  666SOL    HW2 1998   0.443   2.653   0.239 -0.5231 -1.6576 -0.2587
  667SOL     OW 1999   1.714   1.672   1.291 -0.0874 -0.3898  0.8880
  667SOL    HW1 2000   1.708   1.613   1.376 -0.1151  0.8003  0.1722
  667SOL    HW2 2001   1.628   1.722   1.270 -0.4912  0.9880  2.5531
  668SOL     OW 2002   0.366   0.124   2.301  0.2933 -0.0718  0.5948
  668SOL    HW1 2003   0.369   0.201   2.235 -0.6075 -1.3145  0.5261
  668SOL    HW2 2004   0.402   0.036   2.262 -1.0068 -1.2915  0.0945
  669SOL     OW 2005   2.308   2.687   2.215  0.0490  0.0851  0.5151
  669SOL    HW1 2006   2.240   2.732   2.150 -0.3384  0.5511 -3.7599
  669SOL    HW2 2007   2.397   2.675   2.169 -1.7584  0.7026  1.5508
  670SOL     OW 2008   2.291   1.958   0.233  0.1240 -0.4486 -0.4912
  670SOL    HW1 2009   2.309   2.053   0.263 -1.2059 -1.2933 -0.5464
  670SOL    HW2 2010   2.372   1.900   0.250 -0.6455 -1.8241  0.7267
  671SOL     OW 2011   1.050   0.988   1.256 -0.3525  0.4307 -0.1942
  671SOL    HW1 2012   1.047   0.914   1.186  0.2686  0.5541 -1.3819
  671SOL    HW2 2013   1.105   0.968   1.341 -1.3366 -0.0653  1.2093
  672SOL     OW 2014   2.666   1.470   2.202 -0.3046  0.3221  0.2729
  672SOL    HW1 2015   2.628   1.566   2.202 -1.0539 -1.2424 -1.3515
  672SOL    HW2 2016   2.582   1.411   2.184  0.9062  0.7614  2.0379
  673SOL     OW 2017   2.682   1.798   2.196  0.2314 -0.2345  0.4670
  673SOL    HW1 2018   2.751   1.766   2.262 -0.1271 -1.9858  0.0254
  673SOL    HW2 2019   2.699   1.891   2.159  2.1650  0.0526  0.8078
  674SOL     OW 2020   1.069   2.899   2.465  0.3289 -0.3390 -0.1253
  674SOL    HW1 2021   1.013   2.984   2.478 -0.3948 -2.5678 -2.1540
  674SOL    HW2 2022   1.020   2.824   2.421  1.6958  1.8749  0.6195
  675SOL     OW 2023   0.569   0.678   1.462  0.1727 -0.2635  0.3688
  675SOL    HW1 2024   0.590   0.689   1.363  0.0925  1.0902 -1.6956
  675SOL    HW2 2025   0.604   0.759   1.504 -0.8176  1.1066  4.1509
  676SOL     OW 2026   1.957   0.574   0.773 -0.2597 -0.1377 -0.4739
  676SOL    HW1 2027   1.901   0.506   0.828 -0.4053 -0.5225  0.7810
  676SOL    HW2 2028   1.938   0.670   0.800  2.7181 -1.3150  0.0311
  677SOL     OW 2029   2.797   1.700   2.829  0.4033 -1.0306  0.2637
  677SOL    HW1 2030   2.815   1.616   2.884  0.9839  0.6329  0.2307
  677SOL    HW2 2031   2.761   1.673   2.732 -1.5496 -1.3542 -2.2965
  678SOL     OW 2032   2.967   3.003   1.050  0.2266  0.0875 -0.1682
  678SOL    HW1 2033   3.001   3.079   0.992 -1.0708  0.0322 -3.8119
  678SOL    HW2 2034   3.010   2.917   1.022  0.1072  0.9690 -0.8783
  679SOL     OW 2035   2.366   0.078   0.267 -0.2731 -0.0078 -0.0355
  679SOL    HW1 2036   2.433   0.145   0.231 -2.8093 -1.2475 -0.3270
  679SOL    HW2 2037   2.282   0.124   0.298 -0.4413 -1.1330  1.2679
  680SOL     OW 2038   0.414   2.179   2.314 -0.5983  0.4087  0.1079
  680SOL    HW1 2039   0.514   2.183   2.339 -0.7665 -2.0987 -2.5100
  680SOL    HW2 2040   0.386   2.088   2.269  1.8760 -2.0690  0.2437
  681SOL     OW 2041   2.864   1.789   1.156 -0.7364  0.2005  0.5466
  681SOL    HW1 2042   2.797   1.866   1.150 -1.2664  0.6777  0.0698
  681SOL    HW2 2043   2.957   1.826   1.164  1.4431 -0.9418  0.3537
  682SOL     OW 2044   0.367   2.138   1.792 -0.2163 -0.2380 -0.0622
  682SOL    HW1 2045   0.355   2.182   1.884 -1.2499  2.1049  1.1807
  682SOL    HW2 2046   0.360   2.034   1.791  1.2518 -1.1177  1.6277
  683SOL     OW 2047   2.917   2.090   1.766  0.0350  0.0139 -0.1908
  683SOL    HW1 2048   2.927   2.049   1.674 -0.7550 -0.9652 -1.7942
  683SOL    HW2 2049   2.925   2.022   1.843  1.4868 -0.4187  2.5966
  684SOL     OW 2050   2.683   1.561   2.586  0.3762  0.4737 -0.3431
  684SOL    HW1 2051   2.765   1.529   2.533  0.1122 -0.4054 -1.8164
  684SOL    HW2 2052   2.618   1.482   2.571 -1.4943 -2.8007  0.3925
  685SOL     OW 2053   1.484   1.326   0.278  0.1751  0.3469  0.0104
  685SOL    HW1 2054   1.482   1.284   0.373 -0.2358  0.4315 -1.9480
  685SOL    HW2 2055   1.507   1.426   0.280  1.1489 -0.7495  0.3732
  686SOL     OW 2056   0.558   0.130   0.736 -0.2074  0.2850  0.0174
  686SOL    HW1 2057   0.528   0.211   0.792  3.7861  2.7213  1.0779
  686SOL    HW2 2058   0.486   0.055   0.731  0.8440  1.2248 -0.9946
  687SOL     OW 2059   1.269   1.356   2.466  0.1102  0.2123 -0.3870
  687SOL    HW1 2060   1.203   1.341   2.538  1.6836  1.3611  0.1640
  687SOL    HW2 2061   1.345   1.281   2.475  2.1232  1.4346  2.3076
  688SOL     OW 2062   1.089   1.622   1.490  0.0969  0.2526  0.1629
  688SOL    HW1 2063   1.068   1.659   1.398  0.6829  0.5753 -2.1718
  688SOL    HW2 2064   1.004   1.602   1.545 -2.0053  0.0687  0.4880
  689SOL     OW 2065   2.287   0.460   1.299 -0.4572  0.6112 -0.8283
  689SOL    HW1 2066   2.353   0.392   1.267  0.6795 -2.4845  0.0618
  689SOL    HW2 2067   2.189   0.425   1.287 -3.1251  0.3594 -0.1290
  690SOL     OW 2068   2.912   1.301   1.024 -0.3010  0.1390  0.1229
  690SOL    HW1 2069   2.994   1.341   1.072  0.4102  1.0780 -0.3589
  690SOL    HW2 2070   2.939   1.252   0.939 -2.8984  0.1179 -1.6750
  691SOL     OW 2071   0.457   2.396   1.125  0.4998 -0.1694 -0.2209
  691SOL    HW1 2072   0.478   2.366   1.027  2.3225 -0.3485  1.7478
  691SOL    HW2 2073   0.379   2.340   1.166 -0.8353 -1.9596 -2.3833
  692SOL     OW 2074   2.364   0.261   1.547 -0.0190  0.6571 -0.3340
  692SOL    HW1 2075   2.307   0.334   1.501 -0.6926  0.5539 -0.4841
  692SOL    HW2 2076   2.306   0.178   1.568 -1.6662 -2.2326 -0.0100
  693SOL     OW 2077   0.092   1.670   2.109  0.4725 -0.2342 -0.0927
  693SOL    HW1 2078   0.049   1.601   2.172 -1.0679 -0.5788 -2.7236
  693SOL    HW2 2079   0.073   1.768   2.136  0.5357 -1.5882 -1.7152
  694SOL     OW 2080   1.897   1.341   1.662  0.1433 -0.0659  0.4267
  694SOL    HW1 2081   1.805   1.304   1.686 -0.1729  2.0187 -0.4719
  694SOL    HW2 2082   1.970   1.298   1.718 -0.7155 -0.9569 -3.1923
  695SOL     OW 2083   0.640   0.727   1.218  0.3809 -0.4668  0.3852
  695SOL    HW1 2084   0.626   0.819   1.177  1.8669  0.3733  3.3960
  695SOL    HW2 2085   0.732   0.697   1.190  2.7179 -0.2605  0.8048
  696SOL     OW 2086   1.821   0.053   0.806  0.3379 -0.3566 -0.1515
  696SOL    HW1 2087   1.847   0.102   0.891  1.5822  0.3653 -0.9330
  696SOL    HW2 2088   1.855   3.091   0.797 -1.2818  0.4366 -1.5734
  697SOL     OW 2089   1.202   0.355   1.442  0.4329  0.9122 -0.6276
  697SOL    HW1 2090   1.181   0.388   1.537  0.1877 -0.4600  3.5873
  697SOL    HW2 2091   1.149   0.267   1.427 -1.6110 -1.7547  0.5258
  698SOL     OW 2092   1.644   1.372   2.159  0.1236  0.4608 -0.1418
  698SOL    HW1 2093   1.599   1.286   2.137 -1.0664  3.4350 -3.4295
  698SOL    HW2 2094   1.742   1.355   2.183  3.2121 -0.3460 -1.0483
  699SOL     OW 2095   2.119   0.767   1.304  0.4028 -0.8474 -0.2711
  699SOL    HW1 2096   2.123   0.871   1.316  3.0015 -2.0903 -0.3054
  699SOL    HW2 2097   2.193   0.715   1.358 -0.3945 -0.0863 -1.5375
  700SOL     OW 2098   0.941   2.473   0.103 -0.3089  0.1099 -0.3392
  700SOL    HW1 2099   0.972   2.515   0.190 -1.2934 -0.7450 -3.8192
  700SOL    HW2 2100   1.009   2.413   0.059 -2.0496  0.1911  0.7093
  701SOL     OW 2101   2.408   2.334   2.946 -0.1976  0.2304  0.3673
  701SOL    HW1 2102   2.352   2.413   2.981  0.3090 -1.5182 -1.8279
  701SOL    HW2 2103   2.502   2.364   2.921  0.7394 -3.4281 -1.0776
  702SOL     OW 2104   0.636   0.065   1.213  0.5160 -0.3375 -0.2783
  702SOL    HW1 2105   0.691   0.141   1.258 -2.1614 -0.7146 -0.7597
  702SOL    HW2 2106   0.667   0.061   1.115  0.3748 -0.7628 -0.6098
  703SOL     OW 2107   2.159   0.335   2.332  0.2553 -0.0588 -0.2962
  703SOL    HW1 2108   2.229   0.264   2.354 -2.6284 -1.1265 -1.2737
  703SOL    HW2 2109   2.125   0.322   2.236 -0.9314  1.6686 -0.1578
  704SOL     OW 2110   2.881   2.483   0.386 -0.0116 -0.6087 -0.2658
  704SOL    HW1 2111   2.940   2.564   0.394  2.3583  1.4661 -0.9113
  704SOL    HW2 2112   2.919   2.399   0.434  1.2446 -1.1895  1.3963
  705SOL     OW 2113   2.739   0.001   2.165 -0.2924 -0.1442  0.1941
  705SOL    HW1 2114   2.647   0.038   2.152 -1.7763 -0.9140 -2.6634
  705SOL    HW2 2115   2.745   3.028   2.184  0.8233  0.8762 -1.7563
  706SOL     OW 2116   2.171   2.849   1.312 -0.3236 -0.1322 -0.1744
  706SOL    HW1 2117   2.168   2.776   1.381  0.1726  0.2531 -1.7035
  706SOL    HW2 2118   2.135   2.821   1.224 -2.2813  0.2903  0.9094
  707SOL     OW 2119   0.830   2.847   2.274  0.4865  0.2216  0.2108
  707SOL    HW1 2120   0.755   2.821   2.203  0.0405  0.0477  0.9522
  707SOL    HW2 2121   0.895   2.913   2.231  0.8219 -4.0028 -1.2150
  708SOL     OW 2122   3.126   2.253   1.802  0.3470  0.0406  0.3709
  708SOL    HW1 2123   3.049   2.190   1.799  2.6129 -2.2290 -0.1240
  708SOL    HW2 2124   0.049   2.245   1.714  1.6996  3.3620 -0.4537
  709SOL     OW 2125   1.737   0.242   1.795  0.1713  0.3939  0.2399
  709SOL    HW1 2126   1.755   0.326   1.734  2.4531  0.5172 -0.4830
  709SOL    HW2 2127   1.644   0.208   1.780 -0.2978  1.3986 -0.7347
  710SOL     OW 2128   1.438   0.415   2.834 -0.2037  0.6555 -0.2953
  710SOL    HW1 2129   1.468   0.416   2.933 -1.9196 -1.2115  4.1219
  710SOL    HW2 2130   1.477   0.491   2.776 -1.8598  0.9921  0.0894
  711SOL     OW 2131   0.974   1.656   2.489 -0.3726  0.1447 -0.1714
  711SOL    HW1 2132   0.955   1.744   2.532  1.0529 -1.3547 -1.8922
  711SOL    HW2 2133   1.069   1.657   2.442 -2.3534  0.6040 -1.6032
  712SOL     OW 2134   0.917   1.917   2.596 -0.1614  0.3191 -0.3000
  712SOL    HW1 2135   0.977   1.940   2.677 -0.4013  0.6400  1.7111
  712SOL    HW2 2136   0.833   1.972   2.607 -1.3850 -2.1949 -0.3816
  713SOL     OW 2137   1.796   1.095   2.706  0.3598  0.0174 -0.1692
  713SOL    HW1 2138   1.778   1.036   2.783  1.8180 -0.4224 -1.8133
  713SOL    HW2 2139   1.791   1.195   2.725 -0.4247 -0.5169 -0.5280
  714SOL     OW 2140   1.007   1.580   1.881  0.2929  0.3737  0.2926
  714SOL    HW1 2141   0.953   1.515   1.943  1.8926 -0.2234  0.8469
  714SOL    HW2 2142   0.962   1.667   1.870  1.2801 -1.8849  0.1941
  715SOL     OW 2143   2.075   0.372   2.850  0.5120  0.0039 -0.3717
  715SOL    HW1 2144   2.136   0.306   2.805  1.2909 -0.5384  0.5022
  715SOL    HW2 2145   1.977   0.358   2.824 -0.1969  2.0828 -1.5240
  716SOL     OW 2146   2.954   2.340   1.359  0.4206  0.5527 -0.1068
  716SOL    HW1 2147   2.940   2.395   1.448 -3.5969 -0.4150  0.9112
  716SOL    HW2 2148   2.872   2.347   1.302  0.3641  1.5167 -0.6965
  717SOL     OW 2149   2.742   1.175   0.722 -0.2502  0.1288 -0.4250
  717SOL    HW1 2150   2.678   1.200   0.799  0.9897 -0.1828  0.6392
  717SOL    HW2 2151   2.691   1.114   0.662 -0.0460 -1.6753  0.0640
  718SOL     OW 2152   1.121   1.973   1.926 -0.1869 -0.5881  0.0408
  718SOL    HW1 2153   1.071   2.055   1.901 -0.9618 -0.0082  1.1205
  718SOL    HW2 2154   1.131   1.963   2.030 -1.7098 -0.1322 -0.0133
  719SOL     OW 2155   2.313   0.521   2.855  0.3249  0.2707 -0.1291
  719SOL    HW1 2156   2.214   0.497   2.843  1.9089 -0.1026 -1.3714
  719SOL    HW2 2157   2.351   0.492   2.946  2.2652  1.0186  0.6581
  720SOL     OW 2158   1.010   0.367   1.089  0.2253  0.2643 -0.4704
  720SOL    HW1 2159   0.960   0.372   1.175 -0.5311 -2.0312  1.4930
  720SOL    HW2 2160   1.072   0.281   1.094  1.3796 -2.2450 -1.2288
  721SOL     OW 2161   2.705   0.830   0.314 -0.5140 -0.8145  0.3449
  721SOL    HW1 2162   2.754   0.845   0.222  0.1987 -0.2568 -1.3767
  721SOL    HW2 2163   2.779   0.832   0.384  0.2333 -1.4590  0.6885
  722SOL     OW 2164   0.118   3.089   2.738  0.1660  0.3000 -0.1443
  722SOL    HW1 2165   0.031   3.060   2.793 -1.2122 -0.8968 -0.8923
  722SOL    HW2 2166   0.196   3.118   2.794  0.6072  4.3930 -0.3418
  723SOL     OW 2167   1.654   0.351   0.644 -0.0656  0.6310 -0.2292
  723SOL    HW1 2168   1.713   0.292   0.587 -0.3074 -0.9744  0.3254
  723SOL    HW2 2169   1.607   0.425   0.595  1.4373 -1.9360  1.6523
  724SOL     OW 2170   0.851   1.454   2.085 -0.3012  0.2301  0.4500
  724SOL    HW1 2171   0.879   1.417   2.174  1.0527 -0.7294  0.4188
  724SOL    HW2 2172   0.769   1.512   2.098  2.9079  0.3898  2.3471
  725SOL     OW 2173   1.486   2.811   1.114  0.0935  0.4923 -0.5385
  725SOL    HW1 2174   1.517   2.719   1.144 -0.9302  2.8840  1.6205
  725SOL    HW2 2175   1.559   2.877   1.116 -3.0763 -0.1848 -0.1088
  726SOL     OW 2176   2.305   3.032   0.035  0.3241 -0.3606 -0.4443
  726SOL    HW1 2177   2.344   3.084   0.115 -1.4115  0.2499  0.5917
  726SOL    HW2 2178   2.364   2.952   0.007  0.2859  1.5074  1.6207
  727SOL     OW 2179   1.365   1.910   0.728 -0.1973 -0.3373 -0.8827
  727SOL    HW1 2180   1.413   1.953   0.651  1.1455 -1.4462 -0.6137
  727SOL    HW2 2181   1.268   1.889   0.700 -1.3813 -2.2912  1.7611
  728SOL     OW 2182   2.121   2.825   2.036 -0.8081  0.0121 -0.4238
  728SOL    HW1 2183   2.132   2.798   1.939 -0.6027 -1.1572  0.5193
  728SOL    HW2 2184   2.059   2.904   2.056  0.1846  1.1732 -1.3080
  729SOL     OW 2185   1.817   1.944   1.350  0.8474 -0.0996 -0.8630
  729SOL    HW1 2186   1.729   1.948   1.296 -1.5625  0.3078 -0.3789
  729SOL    HW2 2187   1.849   1.848   1.345  1.2682 -1.0325 -0.8791
  730SOL     OW 2188   1.551   1.037   0.199  0.5350  0.2270  0.1987
  730SOL    HW1 2189   1.543   1.139   0.209  0.2452  1.6701 -1.2563
  730SOL    HW2 2190   1.523   0.986   0.280  0.7713  1.9160 -0.8389
  731SOL     OW 2191   0.772   2.981   1.317  0.2563 -0.0405 -0.1801
  731SOL    HW1 2192   0.730   3.072   1.297  1.1569 -2.2738  2.8186
  731SOL    HW2 2193   0.719   2.902   1.278 -0.7979 -3.3746 -2.0600
  732SOL     OW 2194   1.420   0.192   1.065 -0.0799 -0.6064  0.7533
  732SOL    HW1 2195   1.427   0.294   1.080 -0.5912 -1.4764  0.2947
  732SOL    HW2 2196   1.478   0.170   0.983 -1.3759 -0.2701  3.2561
  733SOL     OW 2197   0.832   1.209   1.124  0.6121 -0.4036 -0.1158
  733SOL    HW1 2198   0.810   1.301   1.085  0.3084  0.5637  1.0007
  733SOL    HW2 2199   0.885   1.155   1.058 -1.1810  1.8801  0.3146
  734SOL     OW 2200   2.758   2.697   2.956 -0.4337 -0.3265  0.0755
  734SOL    HW1 2201   2.804   2.727   3.041  0.8309 -0.8024 -0.2298
  734SOL    HW2 2202   2.703   2.613   2.961 -0.7061  3.3433  0.3300
  735SOL     OW 2203   1.103   2.707   1.276  0.4991 -0.1755  0.1859
  735SOL    HW1 2204   1.162   2.694   1.358 -0.2421  1.7724 -0.0224
  735SOL    HW2 2205   1.161   2.720   1.189  2.9566 -0.2634 -1.3669
  736SOL     OW 2206   1.635   2.090   0.058  0.0504  0.1343  0.2154
  736SOL    HW1 2207   1.630   2.191   0.066  0.7887  0.4990  1.0325
  736SOL    HW2 2208   1.731   2.057   0.030  2.7524  1.1178 -4.0080
  737SOL     OW 2209   3.040   1.931   1.388  0.4255  0.4261  0.4372
  737SOL    HW1 2210   3.069   1.956   1.293  3.1667  0.1186 -0.1123
  737SOL    HW2 2211   2.954   1.980   1.422  1.1796 -0.8942  0.4885
  738SOL     OW 2212   2.005   2.243   2.611 -0.8615  0.1063 -0.1404
  738SOL    HW1 2213   2.006   2.251   2.714 -0.9662 -1.5433 -1.1241
  738SOL    HW2 2214   2.054   2.323   2.569  0.5911  0.8314  2.1094
  739SOL     OW 2215   1.365   1.863   2.390 -0.1563  0.1696 -0.1656
  739SOL    HW1 2216   1.453   1.915   2.371  2.1379  0.6213  1.9272
  739SOL    HW2 2217   1.361   1.860   2.492 -0.6898 -0.3171 -2.8147
  740SOL     OW 2218   1.222   2.758   1.045  0.1251 -0.3125  0.8307
  740SOL    HW1 2219   1.316   2.784   1.080  0.8184 -2.4708 -0.3643
  740SOL    HW2 2220   1.223   2.745   0.943  0.7974  0.4850  1.2051
  741SOL     OW 2221   0.103   1.149   0.303  0.3200  0.6898  0.0108
  741SOL    HW1 2222   0.190   1.152   0.358  2.4848  1.4831  0.2290
  741SOL    HW2 2223   0.073   1.241   0.277 -3.1253 -0.3935 -0.0244
  742SOL     OW 2224   1.212   1.621   2.344 -0.3016 -0.4252  0.1257
  742SOL    HW1 2225   1.223   1.529   2.388  0.4389  3.3829  0.1909
  742SOL    HW2 2226   1.275   1.697   2.370 -0.2956  1.5187  1.8180
  743SOL     OW 2227   1.060   0.923   2.397  0.2814  0.0347  0.4614
  743SOL    HW1 2228   1.011   0.845   2.435 -0.0371 -1.7491  2.2329
  743SOL    HW2 2229   1.125   0.901   2.318  0.1358  0.0864 -4.9706
  744SOL     OW 2230   2.322   3.008   1.527 -0.6613 -0.0893 -0.2865
  744SOL    HW1 2231   2.267   2.935   1.477 -1.2441  2.1407 -1.0767
  744SOL    HW2 2232   2.412   3.018   1.485 -1.4434  0.2694 -1.5430
  745SOL     OW 2233   2.023   1.742   1.442 -0.2152 -0.6343 -0.0128
  745SOL    HW1 2234   2.053   1.781   1.530  2.8766  0.7388  0.3872
  745SOL    HW2 2235   1.990   1.651   1.450 -0.2153  2.4618  0.0739
  746SOL     OW 2236   1.927   1.163   0.650  0.1539 -0.5460  0.1575
  746SOL    HW1 2237   1.966   1.248   0.611 -0.0811  0.2159  0.6793
  746SOL    HW2 2238   1.831   1.147   0.623  1.2810 -0.6024  0.8621
  747SOL     OW 2239   2.266   1.665   0.436  0.2951 -0.3180  0.1755
  747SOL    HW1 2240   2.281   1.595   0.509 -2.1807 -2.2866  0.2228
  747SOL    HW2 2241   2.180   1.642   0.387 -1.7513  1.0094 -1.1417
  748SOL     OW 2242   0.325   1.880   0.228 -0.3327 -0.0261 -0.5335
  748SOL    HW1 2243   0.225   1.864   0.237 -0.2171 -0.4075  0.3093
  748SOL    HW2 2244   0.376   1.793   0.223  0.8977 -1.8265 -0.2500
  749SOL     OW 2245   3.009   2.432   2.725 -0.0951  0.0048 -0.2807
  749SOL    HW1 2246   2.914   2.399   2.713  2.8320 -0.3177  1.8768
  749SOL    HW2 2247   3.010   2.520   2.778 -1.5179 -1.8389  1.3844
  750SOL     OW 2248   2.145   0.997   0.603 -0.0636 -0.0548  0.4311
  750SOL    HW1 2249   2.170   0.993   0.702 -1.0213  1.1759  2.0934
  750SOL    HW2 2250   2.052   1.035   0.596 -1.6383  1.9812  1.5309
  751SOL     OW 2251   2.643   0.112   0.076 -0.3111 -0.2067  0.1026
  751SOL    HW1 2252   2.584   0.099   3.121 -0.6313 -0.5427  0.3002
  751SOL    HW2 2253   2.675   0.018   0.101 -0.7928 -0.6201  1.7597
  752SOL     OW 2254   2.449   2.720   0.747 -0.2879  0.0229 -0.3246
  752SOL    HW1 2255   2.470   2.817   0.762  0.6312 -0.4410 -0.3154
  752SOL    HW2 2256   2.530   2.682   0.695  2.3417 -0.6048 -2.7861
  753SOL     OW 2257   1.881   1.243   2.280  0.2109  0.2586  0.9288
  753SOL    HW1 2258   1.793   1.210   2.326 -0.0903  1.8997  2.0752
  753SOL    HW2 2259   1.940   1.288   2.348 -1.2556  1.4244 -3.4454
  754SOL     OW 2260   2.074   2.451   1.880 -0.1957  0.2870 -0.4282
  754SOL    HW1 2261   2.090   2.389   1.798  0.4620 -1.9710  2.3836
  754SOL    HW2 2262   2.063   2.404   1.970  0.2355  1.5263 -0.8294
  755SOL     OW 2263   2.526   1.005   0.830 -0.0563 -0.2977 -0.0673
  755SOL    HW1 2264   2.531   0.941   0.910  1.9281  1.1812 -2.5082
  755SOL    HW2 2265   2.548   1.102   0.850  1.1354 -2.7043  0.2760
  756SOL     OW 2266   0.940   1.297   2.928 -0.2045  0.2415  0.0098
  756SOL    HW1 2267   0.902   1.247   3.006  0.8009  2.1565 -1.0020
  756SOL    HW2 2268   0.869   1.307   2.856  0.0662 -1.5587  5.1290
  757SOL     OW 2269   1.756   2.388   0.979 -0.4415  0.0165  0.2855
  757SOL    HW1 2270   1.770   2.292   0.950  1.6345 -1.5601 -1.5394
  757SOL    HW2 2271   1.839   2.416   1.034 -2.2552 -1.6248  0.1601
  758SOL     OW 2272   0.834   2.209   1.225  0.6127 -0.1623  0.4234
  758SOL    HW1 2273   0.887   2.289   1.254 -2.0401 -3.5984 -1.3771
  758SOL    HW2 2274   0.877   2.120   1.246  0.3171 -0.2767 -3.2326
  759SOL     OW 2275   2.663   1.301   1.143  0.1855  0.3383  0.5045
  759SOL    HW1 2276   2.630   1.241   1.218 -1.4683 -2.9532 -1.7337
  759SOL    HW2 2277   2.760   1.298   1.126 -3.1183  1.9303 -1.2318
  760SOL     OW 2278   1.979   0.965   1.671 -0.0867 -0.3937  0.1457
  760SOL    HW1 2279   2.028   1.053   1.674 -2.4572  0.0160  0.2410
  760SOL    HW2 2280   1.888   0.973   1.711  3.2636 -0.0811 -1.1268
  761SOL     OW 2281   2.115   2.932   0.252 -0.0226  0.0259  0.1055
  761SOL    HW1 2282   2.173   2.850   0.263 -2.3395 -0.2796 -1.9385
  761SOL    HW2 2283   2.162   2.990   0.186  0.3766 -3.8056  1.5944
  762SOL     OW 2284   1.965   1.828   2.732  0.1621 -0.4643  0.0668
  762SOL    HW1 2285   1.891   1.838   2.660 -2.0600  0.9403  1.2484
  762SOL    HW2 2286   2.049   1.878   2.702  0.1236 -1.3894 -1.2519
  763SOL     OW 2287   0.511   1.521   1.386  0.1256 -0.1198 -0.1739
  763SOL    HW1 2288   0.567   1.433   1.385  2.1777 -1.6928 -1.2705
  763SOL    HW2 2289   0.443   1.522   1.461 -2.7586 -0.1815  0.2015
  764SOL     OW 2290   0.070   2.527   0.096  0.2747 -0.8928 -0.2807
  764SOL    HW1 2291   3.100   2.502   0.084  0.1256 -0.0124 -0.4231
  764SOL    HW2 2292   0.094   2.599   0.024 -2.3549 -1.2287 -1.9144
  765SOL     OW 2293   0.683   3.078   1.583  0.0882  0.2328  0.5363
  765SOL    HW1 2294   0.717   3.024   1.503 -0.5276 -1.5825 -1.2451
  765SOL    HW2 2295   0.754   0.004   1.622 -0.8552  1.1989  2.3190
  766SOL     OW 2296   0.133   2.122   1.999  0.4585  0.2321 -0.3618
  766SOL    HW1 2297   0.207   2.184   2.032  1.4566 -0.6252  0.1125
  766SOL    HW2 2298   0.116   2.154   1.905 -0.2838  1.0430 -1.4501
  767SOL     OW 2299   2.650   1.037   1.946 -0.2590 -0.8747  0.1568
  767SOL    HW1 2300   2.582   1.110   1.931  2.2063  1.5929 -0.7672
  767SOL    HW2 2301   2.733   1.054   1.880  0.1420 -0.1376 -1.4951
  768SOL     OW 2302   0.771   0.414   2.773 -0.1334 -0.2772  0.0095
  768SOL    HW1 2303   0.733   0.417   2.868 -0.1840  1.0719 -3.7127
  768SOL    HW2 2304   0.872   0.424   2.780  1.9990 -0.1807  1.7114
  769SOL     OW 2305   2.131   2.749   1.037  0.2213  0.6823 -0.0329
  769SOL    HW1 2306   2.212   2.702   1.002 -0.8101  2.5137 -0.5069
  769SOL    HW2 2307   2.131   2.849   1.022  0.7582 -1.2276  1.4305
  770SOL     OW 2308   2.909   0.297   2.805  0.0364 -0.2102 -0.2240
  770SOL    HW1 2309   2.837   0.364   2.770  1.9874  1.7458  1.2550
  770SOL    HW2 2310   2.989   0.294   2.739  2.2863 -1.4857  0.6085
  771SOL     OW 2311   1.405   2.382   2.077 -0.3728 -0.1520 -0.5579
  771SOL    HW1 2312   1.410   2.356   1.980  0.4587  0.0635 -1.0718
  771SOL    HW2 2313   1.387   2.298   2.136 -0.6133  2.2773 -0.5535
  772SOL     OW 2314   1.375   0.458   0.247  0.4378  0.5054  0.3687
  772SOL    HW1 2315   1.279   0.477   0.276  0.6154 -3.4476  1.3471
  772SOL    HW2 2316   1.405   0.523   0.174  0.4065  1.7330  0.4464
  773SOL     OW 2317   2.674   0.818   1.571  0.3691  0.7383  0.0712
  773SOL    HW1 2318   2.691   0.731   1.616 -2.6872  0.3469 -1.4810
  773SOL    HW2 2319   2.613   0.879   1.630 -4.0515  2.0030  1.4898
  774SOL     OW 2320   0.996   1.084   0.942 -0.3119  0.0563 -0.2267
  774SOL    HW1 2321   1.055   1.148   0.889  1.3853  3.0585 -0.7425
  774SOL    HW2 2322   1.050   1.006   0.982  4.9504 -1.1933 -1.2892
  775SOL     OW 2323   2.537   0.059   2.954  0.5841 -0.3756  0.2207
  775SOL    HW1 2324   2.535   0.076   2.854 -2.1400  0.2626  0.2637
  775SOL    HW2 2325   2.463   3.124   2.976  0.7799  0.3372  1.2432
  776SOL     OW 2326   2.437   1.213   1.950  0.2060 -0.0629  0.4260
  776SOL    HW1 2327   2.433   1.254   2.045 -1.8353  1.2103  3.1690
  776SOL    HW2 2328   2.406   1.277   1.880 -1.1310 -0.6484  1.5946
  777SOL     OW 2329   0.416   1.221   2.567 -0.3474  0.3558  0.0489
  777SOL    HW1 2330   0.427   1.321   2.566  0.4429 -0.6066  2.3681
  777SOL    HW2 2331   0.486   1.173   2.509 -0.5036 -1.4821  1.5567
  778SOL     OW 2332   0.565   0.610   0.194 -0.8224 -0.1421  0.0006
  778SOL    HW1 2333   0.655   0.561   0.185  2.2123  2.1778 -1.1721
  778SOL    HW2 2334   0.518   0.604   0.104 -3.0527 -0.3639 -0.1302
  779SOL     OW 2335   0.659   0.423   2.522 -0.0298 -0.0597  0.7434
  779SOL    HW1 2336   0.684   0.444   2.620 -0.1026 -1.3607 -1.5118
  779SOL    HW2 2337   0.625   0.327   2.527  0.7464 -3.0588  1.7966
  780SOL     OW 2338   2.285   1.000   2.663  0.5415 -0.2154 -0.3631
  780SOL    HW1 2339   2.336   1.041   2.739 -0.9362  1.0526 -4.0701
  780SOL    HW2 2340   2.283   0.902   2.658 -0.9206  3.5161 -1.2539
  781SOL     OW 2341   2.874   1.061   1.777 -0.2380  0.0630 -0.1867
  781SOL    HW1 2342   2.888   1.030   1.680  0.4946 -0.2362 -1.6523
  781SOL    HW2 2343   2.967   1.072   1.819  2.1642  1.4185  0.4467
  782SOL     OW 2344   0.735   1.347   2.730  0.4005  0.3597 -0.2993
  782SOL    HW1 2345   0.648   1.321   2.780  0.0226  0.6575  1.1280
  782SOL    HW2 2346   0.719   1.416   2.658  0.7525 -2.6463 -0.6950
  783SOL     OW 2347   1.006   2.423   1.261  0.2771  0.2958  0.1294
  783SOL    HW1 2348   1.021   2.502   1.200  1.9537 -1.5962 -0.3219
  783SOL    HW2 2349   1.092   2.362   1.264  1.8776 -0.3907 -1.1274
  784SOL     OW 2350   1.543   0.432   3.088  0.4654 -0.3808 -0.1998
  784SOL    HW1 2351   1.599   0.358   0.003 -0.0619 -0.1955 -0.7988
  784SOL    HW2 2352   1.609   0.492   3.041  2.1204  0.3952 -1.4859
  785SOL     OW 2353   0.838   0.158   2.144  0.0482 -0.1455  0.4478
  785SOL    HW1 2354   0.861   0.219   2.217  0.0460 -0.3990 -2.1183
  785SOL    HW2 2355   0.747   0.160   2.097  0.6855 -1.5262 -0.1942
  786SOL     OW 2356   0.495   2.051   0.359 -0.3873  0.3710  0.2394
  786SOL    HW1 2357   0.422   1.994   0.315 -2.8477 -0.0271  1.6532
  786SOL    HW2 2358   0.457   2.097   0.441 -0.0978  1.2241  0.6055
  787SOL     OW 2359   1.253   0.834   0.648  0.1097 -0.2050  0.1830
  787SOL    HW1 2360   1.278   0.933   0.660  0.3803  1.9703  0.2726
  787SOL    HW2 2361   1.158   0.813   0.626  1.0434 -1.7868  1.4056
  788SOL     OW 2362   2.554   1.625   1.310 -0.0185  0.0905  0.1808
  788SOL    HW1 2363   2.651   1.621   1.346  0.2309  0.4650 -0.1124
  788SOL    HW2 2364   2.494   1.575   1.375  0.8518 -0.9450  0.2204
  789SOL     OW 2365   2.715   1.123   2.209  0.8299  0.0657 -0.0858
  789SOL    HW1 2366   2.675   1.065   2.130 -1.9758 -0.8583 -2.7302
  789SOL    HW2 2367   2.711   1.225   2.190 -0.2604  1.0653 -0.0559
  790SOL     OW 2368   0.833   3.100   0.263 -0.5666  0.1854 -0.3013
  790SOL    HW1 2369   0.874   3.007   0.282 -0.0986  1.6929  1.9528
  790SOL    HW2 2370   0.899   0.043   0.253 -0.2814 -1.8747  0.2124
  791SOL     OW 2371   0.285   0.813   0.125 -0.1104 -0.2994 -0.3019
  791SOL    HW1 2372   0.211   0.884   0.103 -1.4790  2.3088  1.9541
  791SOL    HW2 2373   0.366   0.834   0.070 -0.0636 -0.4627  3.9947
  792SOL     OW 2374   1.573   0.658   2.717 -0.7919  0.7190  0.3643
  792SOL    HW1 2375   1.505   0.685   2.647 -0.4849  1.4319 -1.1232
  792SOL    HW2 2376   1.667   0.635   2.671 -0.5468 -3.0485 -1.8098
  793SOL     OW 2377   3.065   0.377   0.790 -0.2450  0.4100  0.3744
  793SOL    HW1 2378   3.022   0.467   0.771 -1.1335 -2.5218  0.3109
  793SOL    HW2 2379   3.065   0.354   0.888  0.6406  1.1928 -1.3781
  794SOL     OW 2380   0.191   0.668   1.783  0.3624  0.6545 -0.2468
  794SOL    HW1 2381   0.283   0.710   1.790 -2.6518  1.8766 -0.9200
  794SOL    HW2 2382   0.126   0.736   1.740 -0.0235  2.5144  1.7482
  795SOL     OW 2383   0.444   1.344   0.030 -0.0680 -0.0701 -0.1148
  795SOL    HW1 2384   0.502   1.327   0.111 -1.5883  1.2478  0.9937
  795SOL    HW2 2385   0.369   1.415   0.051 -1.3839 -1.0509 -0.5591
  796SOL     OW 2386   0.116   1.011   0.085 -0.2638  0.1637 -0.2127
  796SOL    HW1 2387   0.105   1.040   0.187  0.5229  1.5762  4.8598
  796SOL    HW2 2388   0.167   1.089   0.046 -2.0681 -2.3291 -0.7569
  797SOL     OW 2389   1.792   2.545   2.892  0.7164 -0.3125 -0.4653
  797SOL    HW1 2390   1.817   2.628   2.950  0.0389  0.6078 -0.3784
  797SOL    HW2 2391   1.754   2.569   2.799 -2.1188  0.4178 -1.8574
  798SOL     OW 2392   0.056   0.439   1.364 -0.0621 -0.2164 -0.1058
  798SOL    HW1 2393   0.072   0.339   1.377  1.8372  1.3083  0.1968
  798SOL    HW2 2394   0.038   0.491   1.452  1.4925 -0.2889 -2.4858
  799SOL     OW 2395   2.160   0.695   1.965 -0.1526  0.2105  0.2384
  799SOL    HW1 2396   2.111   0.682   2.051 -1.8215 -0.2281 -1.8332
  799SOL    HW2 2397   2.205   0.784   1.970 -1.5979 -0.2511 -0.4347
  800SOL     OW 2398   0.039   1.848   0.234  0.2119  0.1640  0.1879
  800SOL    HW1 2399   0.063   1.841   0.332  2.4076 -0.5518 -4.2123
  800SOL    HW2 2400   3.089   1.787   0.212  1.8865 -2.4725  0.2457
  801SOL     OW 2401   1.533   2.054   0.551  0.4063 -0.4764 -0.0988
  801SOL    HW1 2402   1.496   2.059   0.457 -0.1275 -0.4367 -0.8293
  801SOL    HW2 2403   1.631   2.084   0.559  0.7552  1.0725 -0.0957
  802SOL     OW 2404   1.232   1.638   2.787 -0.1736 -0.5615  0.2556
  802SOL    HW1 2405   1.244   1.537   2.797  0.1477  3.7368 -0.7464
  802SOL    HW2 2406   1.136   1.666   2.762 -1.7631 -1.2376  0.0437
  803SOL     OW 2407   0.361   1.865   1.766 -0.2925  0.6898  0.1239
  803SOL    HW1 2408   0.294   1.801   1.805  0.8980  1.6088 -1.2619
  803SOL    HW2 2409   0.359   1.865   1.668 -0.3349 -1.2347  1.7834
  804SOL     OW 2410   1.526   2.500   1.068 -0.5809  0.5629  0.3657
  804SOL    HW1 2411   1.621   2.473   1.040  1.3767 -1.3405  1.2863
  804SOL    HW2 2412   1.468   2.532   0.990 -3.5443 -1.6607 -0.9284
  805SOL     OW 2413   2.408   2.264   2.507 -0.1664 -0.4875 -0.8820
  805SOL    HW1 2414   2.466   2.347   2.517  3.4668 -0.0782  0.1231
  805SOL    HW2 2415   2.344   2.244   2.587 -0.3126  1.0081  2.3148
  806SOL     OW 2416   2.454   3.000   0.789  0.9532 -0.1615  0.4287
  806SOL    HW1 2417   2.394   3.045   0.723  0.4265  1.3910 -0.3442
  806SOL    HW2 2418   2.548   3.042   0.779 -0.8397  0.0856  1.7113
  807SOL     OW 2419   0.271   1.120   2.776  0.2869 -0.0584 -0.0725
  807SOL    HW1 2420   0.334   1.163   2.708 -2.2574 -0.6247  0.2534
  807SOL    HW2 2421   0.177   1.127   2.736  0.8583  0.5636 -0.3461
  808SOL     OW 2422   0.648   1.819   0.645  0.4327  0.3266 -0.0693
  808SOL    HW1 2423   0.624   1.855   0.736  0.3869 -1.3645  0.0047
  808SOL    HW2 2424   0.663   1.898   0.580 -0.4025  0.1603  1.4824
  809SOL     OW 2425   2.490   0.131   2.168 -0.1907  0.2112 -0.5442
  809SOL    HW1 2426   2.446   0.097   2.082 -1.6918  1.1647  1.9378
  809SOL    HW2 2427   2.427   0.111   2.246  3.5186  2.1299 -1.0131
  810SOL     OW 2428   1.486   0.383   1.510  0.0669  0.5020 -0.2590
  810SOL    HW1 2429   1.401   0.375   1.448 -0.5904 -0.9561 -1.0409
  810SOL    HW2 2430   1.491   0.480   1.547  1.2973  2.5920  1.3512
  811SOL     OW 2431   1.902   0.348   2.032  0.0518 -0.3522 -0.2229
  811SOL    HW1 2432   1.867   0.348   1.936 -1.2899  0.1983  0.7377
  811SOL    HW2 2433   1.823   0.376   2.092 -1.5114  1.5354 -0.7213
  812SOL     OW 2434   1.847   1.880   0.424 -0.1041 -0.0457  0.3855
  812SOL    HW1 2435   1.924   1.858   0.366 -0.3411  0.2064  0.9482
  812SOL    HW2 2436   1.850   1.818   0.500 -1.4300  0.7235 -2.8713
  813SOL     OW 2437   1.307   0.463   1.908 -0.3557  0.2932 -0.1883
  813SOL    HW1 2438   1.263   0.508   1.988 -0.5761 -0.9628  1.0696
  813SOL    HW2 2439   1.383   0.527   1.874  1.6775  1.4325 -1.5181
  814SOL     OW 2440   0.371   3.060   1.163  0.4287  0.2305 -0.1984
  814SOL    HW1 2441   0.300   3.043   1.231  0.2860 -1.7175 -0.4207
  814SOL    HW2 2442   0.441   3.117   1.203  1.9503  0.0893  2.2213
  815SOL     OW 2443   0.200   0.168   0.491 -0.3909 -0.2351  0.4767
  815SOL    HW1 2444   0.236   0.071   0.486  5.3284 -1.0935  1.6237
  815SOL    HW2 2445   0.189   0.198   0.587  1.0216 -0.3547  2.8767
  816SOL     OW 2446   2.418   1.871   2.267 -0.8000 -0.4254 -0.5662
  816SOL    HW1 2447   2.508   1.825   2.279  2.1739 -1.2077  0.0110
  816SOL    HW2 2448   2.364   1.856   2.354 -1.1765  1.9305  0.9584
  817SOL     OW 2449   1.157   2.958   0.796  0.0274  0.3443 -0.1637
  817SOL    HW1 2450   1.244   3.007   0.774 -0.2101 -0.8214 -0.0598
  817SOL    HW2 2451   1.169   2.857   0.782  0.2228  2.4613 -0.0437
  818SOL     OW 2452   1.710   0.587   2.943  0.0638 -0.1982  0.1757
  818SOL    HW1 2453   1.650   0.645   2.878  0.1045  2.7674 -0.1925
  818SOL    HW2 2454   1.806   0.625   2.937  2.2591 -2.5354 -0.2391
  819SOL     OW 2455   2.215   0.375   0.099  0.1222  0.2421  0.1501
  819SOL    HW1 2456   2.311   0.385   0.139  1.4704  1.7845  1.7968
  819SOL    HW2 2457   2.208   0.291   0.039  3.3384 -2.6117 -0.6057
  820SOL     OW 2458   1.936   0.734   2.959 -0.4474 -0.2718 -0.0183
  820SOL    HW1 2459   2.007   0.702   3.025 -0.4250  1.1054 -1.4040
  820SOL    HW2 2460   1.978   0.774   2.871 -3.1693  2.2675 -2.4323
  821SOL     OW 2461   3.080   0.350   1.101  0.2990  0.0360 -0.3093
  821SOL    HW1 2462   3.073   0.286   1.180  1.5836  0.0998  1.3190
  821SOL    HW2 2463   0.028   0.415   1.109  1.3719  0.2033  1.8919
  822SOL     OW 2464   1.092   2.557   2.369 -0.3489  0.4528 -0.3766
  822SOL    HW1 2465   1.129   2.480   2.429 -1.1878 -1.0502  1.2408
  822SOL    HW2 2466   0.995   2.568   2.398  2.2997  0.3678  0.2398
  823SOL     OW 2467   0.335   1.455   1.659 -0.0011 -0.7333 -1.0960
  823SOL    HW1 2468   0.371   1.477   1.752  0.7791 -0.6087  0.4941
  823SOL    HW2 2469   0.330   1.357   1.644  0.0703 -0.7339 -1.1493
  824SOL     OW 2470   1.673   2.665   2.671 -0.3697  0.4946  0.2926
  824SOL    HW1 2471   1.634   2.623   2.585  0.9354  0.0428  1.0699
  824SOL    HW2 2472   1.698   2.762   2.656 -0.0046 -0.9222 -0.8134
  825SOL     OW 2473   1.681   0.738   0.490 -1.0131  0.0214 -0.3712
  825SOL    HW1 2474   1.635   0.649   0.471 -0.6436  0.5640 -1.6298
  825SOL    HW2 2475   1.785   0.729   0.492 -0.3933 -1.2408  4.3493
  826SOL     OW 2476   2.148   0.937   0.132  0.5801  0.3189 -0.5672
  826SOL    HW1 2477   2.068   0.884   0.171 -1.3989 -1.0747  0.4279
  826SOL    HW2 2478   2.230   0.875   0.132  1.2914 -2.8341 -0.1586
  827SOL     OW 2479   0.717   1.501   2.482 -0.5763  0.6322 -0.2226
  827SOL    HW1 2480   0.721   1.446   2.398 -2.1577  0.0439  1.2633
  827SOL    HW2 2481   0.788   1.573   2.489 -0.0744 -1.9419 -0.2127
  828SOL     OW 2482   2.412   1.493   1.498 -0.0920  0.6556  0.5837
  828SOL    HW1 2483   2.402   1.543   1.585 -1.0101 -2.7338 -1.3905
  828SOL    HW2 2484   2.452   1.400   1.525  0.0199 -0.9482 -0.1886
  829SOL     OW 2485   0.237   1.625   0.634 -0.2641  0.3356  0.0269
  829SOL    HW1 2486   0.191   1.589   0.717 -0.3184  1.5122  2.9534
  829SOL    HW2 2487   0.330   1.653   0.665  1.2902  1.4084  0.2592
  830SOL     OW 2488   1.371   0.962   0.999 -0.3044  0.0458  0.5941
  830SOL    HW1 2489   1.416   1.052   0.981  1.7678  0.3838  0.6811
  830SOL    HW2 2490   1.433   0.912   1.064  0.1953 -2.6016 -3.1223
  831SOL     OW 2491   0.085   1.870   3.073 -0.4901  0.5797 -0.0662
  831SOL    HW1 2492   0.088   1.908   0.034  0.9486  2.4688 -2.8995
  831SOL    HW2 2493   0.103   1.769   3.058 -3.0348  2.1257 -0.0155
  832SOL     OW 2494   0.951   0.322   0.386 -0.4230  0.4486  0.2939
  832SOL    HW1 2495   0.892   0.319   0.473 -1.0639 -0.9913  0.6689
  832SOL    HW2 2496   1.023   0.253   0.390 -2.7213  0.5441  0.3074
  833SOL     OW 2497   0.922   0.593   1.998 -0.0067 -0.1458  0.2150
  833SOL    HW1 2498   0.837   0.626   2.041 -0.9572 -1.0267 -1.3575
  833SOL    HW2 2499   0.913   0.568   1.899 -0.6901  0.7849 -0.6016
  834SOL     OW 2500   0.208   0.262   0.750  0.2782  0.0211  0.2114
  834SOL    HW1 2501   0.125   0.311   0.783 -0.3043  0.4694 -0.2841
  834SOL    HW2 2502   0.242   0.195   0.821 -1.2205  0.2500 -0.4786
  835SOL     OW 2503   2.627   3.121   1.093  0.1230  0.1499  0.5635
  835SOL    HW1 2504   2.677   0.076   1.122  0.7166 -3.2966 -0.2567
  835SOL    HW2 2505   2.574   0.015   1.009  0.5285  0.9495  2.3805
  836SOL     OW 2506   0.546   2.055   3.020 -0.1924 -0.4081  0.3129
  836SOL    HW1 2507   0.610   2.132   3.043  0.4778  1.7720  0.1123
  836SOL    HW2 2508   0.453   2.070   3.063  0.1701  1.0297 -3.4181
  837SOL     OW 2509   1.538   1.533   2.556 -0.2514  0.0024  0.3420
  837SOL    HW1 2510   1.614   1.568   2.499 -2.6225 -0.1468  1.3106
  837SOL    HW2 2511   1.474   1.485   2.488 -2.0216 -1.0264  0.1013
  838SOL     OW 2512   0.043   0.815   1.590 -0.8905  0.2110  0.3356
  838SOL    HW1 2513   0.088   0.793   1.498 -0.0073  1.5799 -0.0756
  838SOL    HW2 2514   0.075   0.903   1.623  1.2246  0.0221 -1.4619
  839SOL     OW 2515   0.773   1.174   0.813  0.5601  0.6783  0.5581
  839SOL    HW1 2516   0.785   1.122   0.724  1.2495 -0.4547 -1.0262
  839SOL    HW2 2517   0.847   1.153   0.875 -1.7077 -0.4857 -0.6961
  840SOL     OW 2518   1.607   2.944   1.940 -0.3774 -0.4494  0.0728
  840SOL    HW1 2519   1.620   2.840   1.962  1.5158 -0.9926  0.7037
  840SOL    HW2 2520   1.543   2.966   1.863 -1.7067  0.3783  0.4321
  841SOL     OW 2521   0.693   2.474   0.325 -0.1113  0.7223  0.3194
  841SOL    HW1 2522   0.674   2.572   0.343 -1.5994 -1.2774 -1.1382
  841SOL    HW2 2523   0.640   2.440   0.242  3.2280  1.3797  0.3472
  842SOL     OW 2524   0.559   0.330   0.905  0.4701 -0.2288 -0.0743
  842SOL    HW1 2525   0.524   0.400   0.972 -0.4044  0.6651  1.2037
  842SOL    HW2 2526   0.660   0.314   0.911  2.5007  1.0418  1.0851
  843SOL     OW 2527   0.828   1.075   2.213 -0.5175  0.1046  0.4432
  843SOL    HW1 2528   0.754   1.003   2.195 -0.6173 -0.5130 -0.9903
  843SOL    HW2 2529   0.847   1.097   2.307 -0.1768  0.6764 -0.4285
  844SOL     OW 2530   1.334   2.392   3.126 -0.3431 -0.0109 -0.2632
  844SOL    HW1 2531   1.379   2.347   3.045 -0.9529  0.1931  0.3308
  844SOL    HW2 2532   1.300   2.491   3.108 -0.0826  2.4165 -1.0319
  845SOL     OW 2533   2.396   2.698   2.638 -0.4424  0.4145 -0.2498
  845SOL    HW1 2534   2.368   2.749   2.560  1.5544 -2.2920  1.2279
  845SOL    HW2 2535   2.473   2.744   2.691 -0.0176 -0.7120 -0.3561
  846SOL     OW 2536   1.645   1.873   2.758 -0.1151  0.6538  0.3638
  846SOL    HW1 2537   1.683   1.894   2.664  1.5214  0.3360 -1.2650
  846SOL    HW2 2538   1.637   1.773   2.772  1.0927  2.0636  1.3205
  847SOL     OW 2539   2.197   0.133   3.097 -0.0995 -0.4291 -0.0428
  847SOL    HW1 2540   2.235   0.043   3.121 -0.1380 -0.9998  1.3383
  847SOL    HW2 2541   2.207   0.146   2.997  2.0021 -0.0602  2.4554
  848SOL     OW 2542   0.305   0.496   0.619  0.0296  0.3882 -0.2050
  848SOL    HW1 2543   0.329   0.572   0.686  2.6062  1.2854  0.3522
  848SOL    HW2 2544   0.290   0.407   0.670  1.3020 -2.5362  0.3819
  849SOL     OW 2545   1.277   2.714   1.500 -0.1668 -0.4440  0.2682
  849SOL    HW1 2546   1.378   2.722   1.481 -0.0820  0.6881  0.4942
  849SOL    HW2 2547   1.255   2.685   1.592  0.2653  0.9788 -0.4699
  850SOL     OW 2548   0.465   1.643   0.205 -0.7996 -0.2421 -0.4781
  850SOL    HW1 2549   0.401   1.589   0.145 -0.5145 -0.9840 -1.7804
  850SOL    HW2 2550   0.560   1.610   0.225  1.4920 -1.2070 -0.4911
  851SOL     OW 2551   0.158   0.965   0.834 -0.6275 -0.0539  0.1021
  851SOL    HW1 2552   0.175   0.943   0.734  2.5655 -3.0775 -1.3088
  851SOL    HW2 2553   0.059   0.945   0.853 -0.7575 -0.4340 -0.8664
  852SOL     OW 2554   1.771   2.409   1.490 -0.2897 -0.6609 -0.6401
  852SOL    HW1 2555   1.722   2.474   1.556 -0.1781  0.5918  3.1885
  852SOL    HW2 2556   1.719   2.325   1.492 -1.6871  1.0894  3.0274
  853SOL     OW 2557   0.259   1.504   0.120 -0.3641 -0.2550 -0.2655
  853SOL    HW1 2558   0.182   1.512   0.053 -0.2998 -0.6123 -2.0257
  853SOL    HW2 2559   0.224   1.487   0.210  2.7266 -0.2754 -1.9092
  854SOL     OW 2560   1.539   1.136   2.042  0.0645 -0.4248  0.5264
  854SOL    HW1 2561   1.444   1.098   2.021 -0.0816  0.9332  1.3957
  854SOL    HW2 2562   1.575   1.181   1.960  1.4502 -0.0515  0.9868
  855SOL     OW 2563   0.571   2.618   2.836 -0.3558 -0.0312 -0.3246
  855SOL    HW1 2564   0.476   2.600   2.876 -0.0735 -1.2348 -1.2078
  855SOL    HW2 2565   0.640   2.646   2.911  2.3686 -0.3275 -0.2036
  856SOL     OW 2566   2.979   0.614   1.773 -0.3985  0.5110 -0.5856
  856SOL    HW1 2567   2.916   0.575   1.844  1.6757  0.9792 -1.3837
  856SOL    HW2 2568   2.982   0.713   1.779 -1.0514 -0.9610 -2.7936
  857SOL     OW 2569   0.539   1.100   1.962  0.2712  0.0599  0.4017
  857SOL    HW1 2570   0.553   1.051   2.055  0.7206 -0.2477  2.3145
  857SOL    HW2 2571   0.592   1.185   1.953  1.6933  1.1727  0.3690
  858SOL     OW 2572   0.433   1.491   2.489  0.3016 -0.4012  0.5812
  858SOL    HW1 2573   0.403   1.586   2.485  0.2141 -1.2164  0.4101
  858SOL    HW2 2574   0.537   1.487   2.498  1.5682  0.5965  1.2298
  859SOL     OW 2575   2.689   3.125   0.699  0.6622 -0.0990 -0.0681
  859SOL    HW1 2576   2.662   0.067   0.764  1.0137 -1.4218  2.1267
  859SOL    HW2 2577   2.788   0.006   0.674  0.9468  1.9227 -0.6388
  860SOL     OW 2578   2.092   2.888   3.013 -0.0544 -0.0217 -0.3460
  860SOL    HW1 2579   2.148   2.947   3.076 -1.1687  2.7397 -2.8670
  860SOL    HW2 2580   2.137   2.869   2.927 -2.5541 -4.6165  2.5587
  861SOL     OW 2581   0.513   0.460   0.442  0.2275  0.0955 -0.3100
  861SOL    HW1 2582   0.506   0.527   0.369 -0.0030 -0.0891  2.0712
  861SOL    HW2 2583   0.439   0.478   0.511  2.1786  0.6186  1.0232
  862SOL     OW 2584   1.466   0.256   2.021 -0.0265 -0.4185  0.1598
  862SOL    HW1 2585   1.423   0.168   1.999 -1.1038  3.7237 -0.1216
  862SOL    HW2 2586   1.405   0.334   1.993 -3.6696 -0.9545 -1.6051
  863SOL     OW 2587   2.566   2.239   1.193  0.7761  0.3643  0.5759
  863SOL    HW1 2588   2.462   2.232   1.203 -2.6589 -1.4757  0.3077
  863SOL    HW2 2589   2.595   2.334   1.196  1.7080  0.8352  0.1561
  864SOL     OW 2590   2.237   3.007   2.257 -0.2061 -0.4090 -0.2074
  864SOL    HW1 2591   2.153   3.047   2.217 -0.3098  1.5073 -0.6232
  864SOL    HW2 2592   2.303   2.969   2.190  1.3320  0.8320  2.7266
  865SOL     OW 2593   1.158   0.353   1.724  0.0814 -0.1124  0.4599
  865SOL    HW1 2594   1.166   0.252   1.712  0.1289 -1.8415  0.5594
  865SOL    HW2 2595   1.217   0.387   1.800 -1.6344  0.2264  1.5488
  866SOL     OW 2596   2.167   3.012   0.969  0.0419  0.2233 -0.0484
  866SOL    HW1 2597   2.171   3.042   0.871 -3.1397  0.8176 -1.8824
  866SOL    HW2 2598   2.242   3.053   1.031  1.0550  2.8280  0.0073
  867SOL     OW 2599   2.669   2.537   0.553 -0.2986 -0.9745 -0.4759
  867SOL    HW1 2600   2.660   2.481   0.643 -0.3882 -1.7285  3.2453
  867SOL    HW2 2601   2.757   2.530   0.503  1.1859  0.0968 -2.9099
  868SOL     OW 2602   0.778   2.018   1.660 -0.2332 -0.1606 -0.0295
  868SOL    HW1 2603   0.818   2.113   1.660 -0.2519  2.1280 -1.3185
  868SOL    HW2 2604   0.716   1.997   1.583 -1.1108 -0.7289 -1.0439
  869SOL     OW 2605   2.199   2.531   0.148 -0.1667 -0.0228 -0.3806
  869SOL    HW1 2606   2.235   2.445   0.178 -0.8214  3.5501 -0.5692
  869SOL    HW2 2607   2.232   2.599   0.220  2.4853  0.7894  0.7417
  870SOL     OW 2608   2.337   1.987   1.049 -0.5849 -0.1692 -0.2014
  870SOL    HW1 2609   2.419   1.956   0.993  3.2910 -0.6930  0.4234
  870SOL    HW2 2610   2.294   1.907   1.093  0.5653 -0.2058 -1.2030
  871SOL     OW 2611   0.177   1.678   1.523 -0.0690  0.1552 -0.5668
  871SOL    HW1 2612   0.253   1.739   1.501 -1.2833  0.2939  0.9015
  871SOL    HW2 2613   0.201   1.589   1.563 -0.0631  1.3889 -1.4811
  872SOL     OW 2614   0.684   1.301   2.287  0.0311 -0.2648 -0.2563
  872SOL    HW1 2615   0.741   1.254   2.216  0.2867  1.5873  1.4729
  872SOL    HW2 2616   0.634   1.227   2.340  0.8747 -2.2252  1.5661
  873SOL     OW 2617   0.828   2.286   1.705  0.5977  0.7569 -0.7855
  873SOL    HW1 2618   0.800   2.384   1.691 -2.4432  1.4165 -1.8010
  873SOL    HW2 2619   0.919   2.284   1.753  0.0529  3.1310 -1.3372
  874SOL     OW 2620   1.280   1.074   2.055 -0.6778 -0.4395 -0.1071
  874SOL    HW1 2621   1.281   1.164   2.100 -1.4983  1.7244 -0.3910
  874SOL    HW2 2622   1.231   0.998   2.107 -0.5883 -1.9128 -0.2069
  875SOL     OW 2623   2.697   2.837   1.053 -0.1164  0.4842  0.0016
  875SOL    HW1 2624   2.606   2.805   1.089  1.2439 -0.0259 -1.6359
  875SOL    HW2 2625   2.697   2.942   1.044 -0.0745  2.5667  0.6508
  876SOL     OW 2626   1.057   1.337   0.515  0.0823  0.3524 -0.3374
  876SOL    HW1 2627   1.078   1.395   0.435  1.3044 -1.4017  2.5257
  876SOL    HW2 2628   0.954   1.341   0.528 -3.4261 -0.5533  1.1516
  877SOL     OW 2629   2.768   0.186   1.213  0.1493  0.0300  0.2184
  877SOL    HW1 2630   2.870   0.165   1.227  0.1837 -1.2655  1.2817
  877SOL    HW2 2631   2.731   0.215   1.304  3.1438  0.3566 -0.3432
  878SOL     OW 2632   2.488   1.671   0.261 -0.3447 -0.1673  0.2879
  878SOL    HW1 2633   2.535   1.582   0.251 -1.4343  1.5836  0.7968
  878SOL    HW2 2634   2.413   1.664   0.329 -0.8576 -1.2118 -1.6191
  879SOL     OW 2635   2.568   1.891   1.334 -0.3821 -0.3054  0.6352
  879SOL    HW1 2636   2.558   1.795   1.298  0.1489  0.1408 -0.6074
  879SOL    HW2 2637   2.623   1.954   1.271  0.1222  2.9749  0.0864
  880SOL     OW 2638   0.230   2.655   0.777  0.1419 -0.1195  0.0873
  880SOL    HW1 2639   0.241   2.656   0.878  4.4303  1.9203  0.2321
  880SOL    HW2 2640   0.320   2.684   0.736  0.3400 -0.6779 -0.2546
  881SOL     OW 2641   1.470   1.199   0.877 -0.0409 -0.1556 -0.0993
  881SOL    HW1 2642   1.555   1.226   0.827 -3.3918 -0.3238  1.0373
  881SOL    HW2 2643   1.381   1.222   0.834  0.3084  1.6564  0.9153
  882SOL     OW 2644   2.716   1.112   2.727  0.4889 -0.6054 -0.2725
  882SOL    HW1 2645   2.674   1.114   2.634 -0.1791 -1.3605  3.0664
  882SOL    HW2 2646   2.750   1.017   2.755 -1.8701 -1.6473  1.9409
  883SOL     OW 2647   1.320   3.051   1.486 -0.3438 -0.2233 -0.1209
  883SOL    HW1 2648   1.273   2.964   1.459 -2.0692 -1.1118  0.8085
  883SOL    HW2 2649   1.374   3.080   1.406 -2.2049 -1.3230  0.0565
  884SOL     OW 2650   3.051   0.068   0.881  0.4574  0.6341  0.5039
  884SOL    HW1 2651   2.996   0.040   0.795 -0.5376  0.2662  0.1879
  884SOL    HW2 2652   3.076   0.165   0.871 -0.2708  1.3563 -0.3665
  885SOL     OW 2653   1.358   0.711   1.325  0.5162  0.3163 -0.2615
  885SOL    HW1 2654   1.404   0.715   1.416  1.7217 -2.6919  0.8438
  885SOL    HW2 2655   1.419   0.755   1.256 -2.8174  1.9968  0.4364
  886SOL     OW 2656   1.469   0.967   3.059 -0.0860 -0.2270 -0.6296
  886SOL    HW1 2657   1.530   0.973   2.979  0.0100 -1.8512 -0.2038
  886SOL    HW2 2658   1.523   0.987   0.016  2.3576 -1.4492  1.0054
  887SOL     OW 2659   1.689   0.584   1.122 -0.4496 -0.0455 -1.0316
  887SOL    HW1 2660   1.750   0.551   1.048  0.5615 -4.7808  0.4169
  887SOL    HW2 2661   1.746   0.629   1.196 -0.2874 -0.0383 -1.0890
  888SOL     OW 2662   2.088   1.586   1.988  0.3709 -0.6057 -0.3476
  888SOL    HW1 2663   2.082   1.582   2.087 -2.8392 -0.9974  0.7804
  888SOL    HW2 2664   2.128   1.675   1.961 -0.5445 -1.5371  1.9127
  889SOL     OW 2665   2.178   2.111   0.592 -0.0402 -0.2989 -0.3801
  889SOL    HW1 2666   2.176   2.211   0.622 -1.2119  1.4422 -1.1423
  889SOL    HW2 2667   2.169   2.054   0.675  0.3286  0.2724  0.5474
  890SOL     OW 2668   1.038   1.960   0.979  0.0064 -0.0884 -0.2875
  890SOL    HW1 2669   0.996   1.997   0.893  0.3117 -1.5335 -1.1283
  890SOL    HW2 2670   0.969   1.908   1.028 -0.8180  0.3528 -1.9452
  891SOL     OW 2671   2.669   0.661   2.340  0.1036 -0.9139  0.1095
  891SOL    HW1 2672   2.742   0.609   2.383  0.2575  1.6123 -1.0468
  891SOL    HW2 2673   2.604   0.597   2.293  0.6928 -0.1419  0.8838
  892SOL     OW 2674   1.114   0.446   2.343  0.8107 -0.3238  0.4720
  892SOL    HW1 2675   1.194   0.380   2.360  0.4622  0.9177 -0.9105
  892SOL    HW2 2676   1.098   0.507   2.425 -0.7367 -1.7796  1.3401
  893SOL     OW 2677   1.734   0.311   1.420 -0.0235 -0.7943 -0.2319
  893SOL    HW1 2678   1.795   0.366   1.483  1.0867  1.1213 -1.0232
  893SOL    HW2 2679   1.641   0.306   1.457  1.0761 -0.2224 -0.2718
  894SOL     OW 2680   2.586   0.695   0.808  0.0640 -0.1496 -0.9619
  894SOL    HW1 2681   2.529   0.668   0.884  3.1758  1.5498 -0.9353
  894SOL    HW2 2682   2.555   0.651   0.721  2.9999  1.2256 -0.2134
  895SOL     OW 2683   2.007   2.412   2.861  1.0115  0.7076 -0.0500
  895SOL    HW1 2684   2.081   2.452   2.905 -1.9077 -2.4020 -3.6472
  895SOL    HW2 2685   1.921   2.469   2.873  0.0360  1.6552 -1.1828
  896SOL     OW 2686   1.774   3.017   1.542  0.2306  0.6563  1.2069
  896SOL    HW1 2687   1.692   3.015   1.598  2.1205 -0.4928 -1.8166
  896SOL    HW2 2688   1.758   2.964   1.457 -0.7649 -2.4706 -2.0325
  897SOL     OW 2689   0.459   1.970   2.136 -0.0407 -0.7207 -0.3371
  897SOL    HW1 2690   0.432   1.875   2.147 -1.2913 -0.0175  0.4392
  897SOL    HW2 2691   0.493   1.989   2.046  2.8030  1.1916  2.3496
  898SOL     OW 2692   2.300   1.833   2.018  0.1763 -0.1629  0.2736
  898SOL    HW1 2693   2.380   1.780   1.989 -1.9718  1.4488  1.5892
  898SOL    HW2 2694   2.302   1.850   2.115  0.5544  0.8802  0.1419
  899SOL     OW 2695   1.822   2.154   0.474  0.3908  0.5325 -0.0359
  899SOL    HW1 2696   1.838   2.172   0.574 -4.4513 -0.4957  1.4869
  899SOL    HW2 2697   1.826   2.051   0.471  1.0833  0.1217 -1.0477
  900SOL     OW 2698   1.137   0.508   0.338 -0.0860  0.3302  0.3855
  900SOL    HW1 2699   1.099   0.602   0.348 -0.0151  2.3372  1.8446
  900SOL    HW2 2700   1.061   0.447   0.370 -1.5789  1.2493 -0.7896
  901SOL     OW 2701   1.170   1.917   2.185 -0.5573  0.5130 -0.4623
  901SOL    HW1 2702   1.088   1.913   2.248 -0.9084  1.0660  5.3092
  901SOL    HW2 2703   1.242   1.873   2.246  5.0273  0.7456  1.3117
  902SOL     OW 2704   2.466   0.519   3.090 -0.2533  0.2340  0.5677
  902SOL    HW1 2705   2.536   0.573   3.038 -0.1000 -1.6654 -0.5544
  902SOL    HW2 2706   2.502   0.455   0.032  0.1660  0.7066  1.5821
  903SOL     OW 2707   2.068   0.840   2.375  0.5971  0.2373  0.2265
  903SOL    HW1 2708   2.159   0.884   2.362 -2.0258 -2.2293  0.6075
  903SOL    HW2 2709   2.014   0.885   2.454 -0.3605 -1.2158  0.9850
  904SOL     OW 2710   1.514   0.878   2.184 -0.6674 -0.2441  0.7450
  904SOL    HW1 2711   1.551   0.966   2.156 -2.7490 -2.9397  2.2014
  904SOL    HW2 2712   1.587   0.825   2.229 -0.0209 -0.0533  1.3767
  905SOL     OW 2713   2.192   0.071   1.678 -0.9170  0.3488  0.4237
  905SOL    HW1 2714   2.225   3.118   1.625 -1.5226 -1.4205 -0.9935
  905SOL    HW2 2715   2.089   0.070   1.677 -0.1165  0.2029  0.4079
  906SOL     OW 2716   2.028   1.849   0.205  0.1705  0.2296 -0.2102
  906SOL    HW1 2717   2.113   1.886   0.247  1.1335 -1.0035 -1.1953
  906SOL    HW2 2718   2.023   1.753   0.204 -0.8796  1.2906 -0.6736
  907SOL     OW 2719   1.194   2.683   0.790 -0.1631  0.3398 -0.4642
  907SOL    HW1 2720   1.255   2.606   0.751  1.2187 -1.1250 -0.6469
  907SOL    HW2 2721   1.098   2.656   0.783  1.4349 -0.4168  0.8445
  908SOL     OW 2722   1.805   2.144   2.434  0.0854  0.5116 -0.3416
  908SOL    HW1 2723   1.884   2.190   2.475 -1.3164  0.0910 -1.2261
  908SOL    HW2 2724   1.775   2.175   2.338  0.2755  0.0397 -0.5830
  909SOL     OW 2725   2.337   0.461   1.994 -0.1497  0.5492  0.3239
  909SOL    HW1 2726   2.293   0.548   1.981  0.3441  1.4110  1.4648
  909SOL    HW2 2727   2.374   0.429   1.903 -1.1732  0.1091  0.0407
  910SOL     OW 2728   1.256   0.830   2.940  0.7456  0.1390  0.0480
  910SOL    HW1 2729   1.244   0.731   2.954  0.5455  0.9662  0.9811
  910SOL    HW2 2730   1.323   0.868   3.005 -0.2899 -1.2482  1.0528
  911SOL     OW 2731   0.034   0.844   2.941  0.9934 -0.0456  0.0951
  911SOL    HW1 2732   3.128   0.769   2.996  1.2766 -1.7217 -1.7055
  911SOL    HW2 2733   0.020   0.942   2.969  3.4610  3.0205 -2.9566
  912SOL     OW 2734   0.182   2.564   0.514 -0.3819  0.1213 -0.1995
  912SOL    HW1 2735   0.182   2.464   0.534  0.5479 -0.1504  2.1017
  912SOL    HW2 2736   0.185   2.617   0.602 -1.6913  0.4885  0.0931
  913SOL     OW 2737   2.825   2.087   2.551 -0.4260  0.8948  0.3599
  913SOL    HW1 2738   2.865   2.134   2.467 -0.9934  1.9312 -0.2006
  913SOL    HW2 2739   2.895   2.024   2.593 -0.6375 -0.3683 -2.7486
  914SOL     OW 2740   1.868   1.322   1.116  0.4578  0.4480  0.3313
  914SOL    HW1 2741   1.910   1.266   1.040  0.9936 -0.3703 -0.6720
  914SOL    HW2 2742   1.766   1.326   1.110 -3.6176  0.0689 -1.6622
  915SOL     OW 2743   0.385   2.777   2.268 -0.1861  0.4122 -0.0403
  915SOL    HW1 2744   0.408   2.683   2.304 -0.1102 -2.9357 -0.1807
  915SOL    HW2 2745   0.291   2.804   2.291  1.8982 -0.7793  0.4490
  916SOL     OW 2746   0.890   0.131   1.699  0.1987  0.3828  0.4424
  916SOL    HW1 2747   0.989   0.133   1.707 -2.0587 -0.9568  1.3410
  916SOL    HW2 2748   0.850   0.229   1.711 -0.1447  1.0573 -1.0973
  917SOL     OW 2749   2.425   0.796   0.307  0.1347 -0.4245  0.2629
  917SOL    HW1 2750   2.524   0.822   0.307 -1.9579  2.0522  0.7842
  917SOL    HW2 2751   2.392   0.781   0.212  0.5949 -1.8097 -0.2222
  918SOL     OW 2752   1.701   2.299   2.782 -0.0702  0.2107  0.5847
  918SOL    HW1 2753   1.723   2.380   2.845 -0.6363  1.5513 -2.0771
  918SOL    HW2 2754   1.727   2.319   2.685  0.9985  2.6193  2.1960
  919SOL     OW 2755   1.715   2.956   1.092 -0.3538 -0.7018 -0.2395
  919SOL    HW1 2756   1.711   3.055   1.107  1.9443  1.0715  0.5120
  919SOL    HW2 2757   1.755   2.932   1.002 -0.1823  3.0872  1.0573
  920SOL     OW 2758   1.298   0.264   2.443  0.1142 -0.3007 -0.3287
  920SOL    HW1 2759   1.321   0.239   2.541  1.3918  0.0495  0.2863
  920SOL    HW2 2760   1.293   0.177   2.388 -1.7207 -2.0538  0.2049
  921SOL     OW 2761   0.016   0.869   2.636  0.3057  0.6128 -0.1277
  921SOL    HW1 2762   0.043   0.969   2.633  0.5917  1.0631 -1.6064
  921SOL    HW2 2763   0.031   0.835   2.730  2.1467 -0.0013  0.5569
  922SOL     OW 2764   0.261   2.188   0.924  0.1676  0.0254 -0.3606
  922SOL    HW1 2765   0.227   2.228   1.008 -0.5408 -1.1522 -2.5819
  922SOL    HW2 2766   0.358   2.214   0.920 -1.0460  0.8492  2.8847
  923SOL     OW 2767   0.430   1.505   1.928 -0.1013  0.1355 -0.4979
  923SOL    HW1 2768   0.489   1.581   1.902 -0.9475  0.3509 -1.8577
  923SOL    HW2 2769   0.338   1.539   1.951  0.5415 -0.1441 -0.1813
  924SOL     OW 2770   1.663   2.950   2.660  0.4268  0.3808  0.2968
  924SOL    HW1 2771   1.564   2.978   2.684 -1.3931  0.8816  2.6621
  924SOL    HW2 2772   1.718   3.030   2.690 -0.2248  0.0100  0.7770
  925SOL     OW 2773   2.597   1.620   0.795  0.8217 -0.1121  0.2123
  925SOL    HW1 2774   2.634   1.565   0.721  0.7527  2.3337  0.7947
  925SOL    HW2 2775   2.657   1.609   0.878 -0.0413  0.7910  0.3367
  926SOL     OW 2776   2.255   0.994   0.843 -0.3668  1.0632 -0.1947
  926SOL    HW1 2777   2.241   0.927   0.919 -1.7981  1.1786  0.7031
  926SOL    HW2 2778   2.354   1.008   0.820  0.6719 -2.2703  1.8249
  927SOL     OW 2779   2.046   0.134   1.370  0.2650  0.1881  0.0371
  927SOL    HW1 2780   2.019   0.220   1.321 -0.1979 -1.6098  0.4375
  927SOL    HW2 2781   1.993   0.133   1.459  1.5479  2.4708  2.3346
  928SOL     OW 2782   0.223   0.957   2.288 -0.0588  0.6090  0.4804
  928SOL    HW1 2783   0.199   0.867   2.247 -1.2998 -2.3396 -1.9863
  928SOL    HW2 2784   0.244   1.017   2.208  0.0806  0.2886  2.8753
  929SOL     OW 2785   2.361   1.097   1.198 -0.4368  0.0978  0.0815
  929SOL    HW1 2786   2.312   1.187   1.185 -0.5907 -0.4446  1.0344
  929SOL    HW2 2787   2.448   1.110   1.258  1.6347  0.3390  1.8675
  930SOL     OW 2788   2.519   2.606   2.050  0.1951  0.7338  0.0809
  930SOL    HW1 2789   2.619   2.574   2.042 -0.6138  1.5226  3.2813
  930SOL    HW2 2790   2.469   2.579   1.964 -0.2876  0.2537 -3.1082
  931SOL     OW 2791   2.108   1.044   1.308 -0.1229 -0.0345  0.6856
  931SOL    HW1 2792   2.200   1.055   1.260  1.8459  0.5119 -0.4886
  931SOL    HW2 2793   2.079   1.130   1.351 -0.6082  1.7449 -1.5482
  932SOL     OW 2794   0.486   0.754   1.784 -0.0260  0.1436 -0.2801
  932SOL    HW1 2795   0.539   0.798   1.708  0.4879 -1.1971  1.4245
  932SOL    HW2 2796   0.428   0.822   1.831  3.7111  2.4761  1.8458
  933SOL     OW 2797   2.351   2.170   1.832 -0.2321  0.0361  0.3973
  933SOL    HW1 2798   2.431   2.124   1.794  0.5389 -0.0226 -0.9933
  933SOL    HW2 2799   2.352   2.181   1.937  0.8513  1.2821  0.3417
  934SOL     OW 2800   0.624   2.224   1.860 -0.2145 -0.2733  0.2828
  934SOL    HW1 2801   0.709   2.236   1.810 -1.3441  0.9959 -0.5875
  934SOL    HW2 2802   0.555   2.158   1.820 -0.2913 -0.0827  2.9186
  935SOL     OW 2803   0.051   1.461   1.732 -0.1561  0.1735  0.1051
  935SOL    HW1 2804   3.099   1.477   1.670 -4.7835 -1.1090  0.0998
  935SOL    HW2 2805   0.020   1.401   1.811  1.7461  1.0228  0.5939
  936SOL     OW 2806   2.815   1.037   1.290 -0.2653 -0.0032  0.2283
  936SOL    HW1 2807   2.794   0.997   1.197  1.6376 -0.3102  2.2470
  936SOL    HW2 2808   2.843   0.965   1.353  0.7297  1.4189 -1.1242
  937SOL     OW 2809   1.871   0.641   1.328 -0.1770  0.1428 -0.7814
  937SOL    HW1 2810   1.959   0.696   1.330 -0.2783  1.4860  0.2953
  937SOL    HW2 2811   1.843   0.613   1.423 -0.5219 -1.0344  3.5300
  938SOL     OW 2812   0.611   2.732   0.418  0.1279  0.2521 -0.1236
  938SOL    HW1 2813   0.551   2.772   0.349  2.8189  0.0435 -0.8674
  938SOL    HW2 2814   0.662   2.805   0.468 -1.6537 -2.3439 -0.2136
  939SOL     OW 2815   3.030   1.949   2.672  0.3332  0.0634 -0.2332
  939SOL    HW1 2816   3.088   1.870   2.648 -2.4203  1.5194  3.6076
  939SOL    HW2 2817   3.033   1.953   2.773 -0.9925  0.1682  0.8848
  940SOL     OW 2818   1.359   1.905   0.271  0.0599 -0.2788 -0.6007
  940SOL    HW1 2819   1.461   1.907   0.287  1.1200 -2.5716 -3.1994
  940SOL    HW2 2820   1.315   1.984   0.319  0.1607  2.3764 -1.7772
  941SOL     OW 2821   2.257   2.677   0.360  0.0098  0.1341 -0.2020
  941SOL    HW1 2822   2.358   2.680   0.349 -0.2154 -1.0680  1.4096
  941SOL    HW2 2823   2.228   2.676   0.454 -2.4248 -3.3479  1.0389
  942SOL     OW 2824   1.787   1.967   0.737 -0.0418 -0.9147 -0.3273
  942SOL    HW1 2825   1.844   1.896   0.696 -0.8299  2.1609  1.9309
  942SOL    HW2 2826   1.730   1.934   0.812  1.3346  0.5449 -0.3477
  943SOL     OW 2827   2.242   0.876   1.654  0.1193 -0.4210  0.2413
  943SOL    HW1 2828   2.273   0.797   1.598  1.8383  0.3274  0.1683
  943SOL    HW2 2829   2.142   0.896   1.649  1.7346  0.9340  0.9009
  944SOL     OW 2830   1.240   0.851   2.188 -0.2700 -0.2995 -0.3897
  944SOL    HW1 2831   1.339   0.872   2.184  1.1184 -2.6449 -4.0593
  944SOL    HW2 2832   1.230   0.752   2.160 -0.5504 -4.4521  1.1128
  945SOL     OW 2833   2.195   2.637   1.493  0.0444  0.2476  0.1543
  945SOL    HW1 2834   2.287   2.596   1.501  2.3464  0.1297 -2.0386
  945SOL    HW2 2835   2.164   2.656   1.590 -2.7475 -1.5266  3.4367
  946SOL     OW 2836   0.281   1.215   0.523  0.3390 -0.5734 -0.4117
  946SOL    HW1 2837   0.318   1.308   0.504  2.3186 -0.2995 -2.6939
  946SOL    HW2 2838   0.214   1.224   0.595  2.4173 -0.3005 -2.4463
  947SOL     OW 2839   1.561   2.029   1.240 -0.3190  0.1599 -0.2173
  947SOL    HW1 2840   1.580   2.099   1.311  0.0333  2.4088 -0.6548
  947SOL    HW2 2841   1.549   2.071   1.149 -0.1052  0.0169  0.2929
  948SOL     OW 2842   0.107   1.662   1.026 -0.1785 -0.0110  0.4872
  948SOL    HW1 2843   0.089   1.651   1.127  0.3633 -0.3074  1.5224
  948SOL    HW2 2844   0.132   1.572   0.981  3.2479 -4.0412  0.7968
  949SOL     OW 2845   1.076   1.252   1.364  0.0107  0.0237 -0.5939
  949SOL    HW1 2846   1.004   1.276   1.436 -1.8642  1.9405  2.2676
  949SOL    HW2 2847   1.066   1.158   1.326 -0.5047  1.9461  0.1185
  950SOL     OW 2848   0.465   0.485   1.122 -0.5505 -0.5344 -0.0798
  950SOL    HW1 2849   0.523   0.564   1.153  1.1512  1.1861 -2.0280
  950SOL    HW2 2850   0.367   0.504   1.119 -0.4764 -2.2668  2.6536
  951SOL     OW 2851   0.709   2.042   2.235 -0.4073 -0.3293  0.0225
  951SOL    HW1 2852   0.626   2.007   2.188 -1.6597  0.6526  3.5748
  951SOL    HW2 2853   0.749   2.118   2.185  0.8147  2.2778 -0.3554
  952SOL     OW 2854   1.053   1.607   3.071  0.0956 -0.1922  0.2984
  952SOL    HW1 2855   1.102   1.695   3.088 -1.3765  0.6330 -0.5889
  952SOL    HW2 2856   1.125   1.532   3.060 -1.0024  1.3609  0.0338
  953SOL     OW 2857   1.172   3.065   0.153  0.6752 -0.0699  0.1206
  953SOL    HW1 2858   1.259   3.024   0.181 -0.5365  0.2520 -0.4420
  953SOL    HW2 2859   1.104   2.994   0.184  0.7910 -0.8675 -1.7531
  954SOL     OW 2860   1.751   1.411   0.137 -0.1124  0.0412 -0.6480
  954SOL    HW1 2861   1.702   1.385   0.051 -1.1253 -0.5843  1.3550
  954SOL    HW2 2862   1.680   1.424   0.213 -2.5628  2.4235 -0.3053
  955SOL     OW 2863   0.108   2.708   3.028  0.1593  0.9690 -0.2694
  955SOL    HW1 2864   0.114   2.800   3.073  2.7325 -1.6497  1.3600
  955SOL    HW2 2865   0.051   2.705   2.941 -3.3583 -0.6997 -1.1531
  956SOL     OW 2866   1.105   0.619   1.275  0.0893  0.5024 -0.2179
  956SOL    HW1 2867   1.190   0.676   1.283  1.2715  1.5038  1.8501
  956SOL    HW2 2868   1.123   0.520   1.308 -0.5218 -2.4333 -0.6053
  957SOL     OW 2869   1.328   1.242   1.442 -0.2614 -0.5984  0.4944
  957SOL    HW1 2870   1.232   1.255   1.409 -0.0698 -0.3711 -1.5187
  957SOL    HW2 2871   1.329   1.228   1.543 -1.0428 -0.1552 -2.4507
  958SOL     OW 2872   0.384   1.746   0.992 -0.3889  0.4090 -0.1846
  958SOL    HW1 2873   0.287   1.730   1.029 -2.5079 -0.0735  2.0596
  958SOL    HW2 2874   0.410   1.702   0.905  2.0386 -1.0889 -1.2085
  959SOL     OW 2875   1.434   1.480   1.256 -0.1208  0.3587 -0.0721
  959SOL    HW1 2876   1.420   1.579   1.266 -0.7566 -0.0161 -0.0146
  959SOL    HW2 2877   1.418   1.423   1.337  1.3381  0.5743 -1.1073
  960SOL     OW 2878   0.254   1.185   3.048 -0.1135 -0.0100  0.2234
  960SOL    HW1 2879   0.336   1.231   3.088 -0.0450  1.2426  2.1290
  960SOL    HW2 2880   0.263   1.158   2.950 -1.3808 -1.3094  1.2290
  961SOL     OW 2881   0.905   1.367   1.569 -0.1344  0.0252  0.2344
  961SOL    HW1 2882   0.908   1.303   1.653  0.0249 -1.1668  1.5304
  961SOL    HW2 2883   0.865   1.459   1.585 -0.7125 -0.2626  1.2055
  962SOL     OW 2884   1.150   1.269   0.759 -0.0647 -0.0980  0.2900
  962SOL    HW1 2885   1.160   1.365   0.799 -1.0156 -1.4707 -0.7286
  962SOL    HW2 2886   1.116   1.283   0.662  2.5305  1.0888 -0.9791
  963SOL     OW 2887   1.368   1.831   2.666 -0.2506  0.0398  0.2772
  963SOL    HW1 2888   1.471   1.843   2.681 -0.0382 -0.6724 -0.9096
  963SOL    HW2 2889   1.320   1.751   2.713 -2.7129  1.2747  1.2951
  964SOL     OW 2890   0.755   2.805   0.087 -0.6575 -0.2872 -0.2856
  964SOL    HW1 2891   0.683   2.824   0.146 -0.0053 -3.7634 -2.0419
  964SOL    HW2 2892   0.737   2.723   0.034 -3.1368  2.0511  1.7334
  965SOL     OW 2893   0.537   2.422   0.125  0.5170  0.0607 -0.0205
  965SOL    HW1 2894   0.549   2.335   0.079  1.2511  0.0471 -0.3683
  965SOL    HW2 2895   0.443   2.434   0.169 -0.1909  0.6616 -0.6938
  966SOL     OW 2896   0.090   1.468   2.662 -0.1750 -0.0710 -0.4671
  966SOL    HW1 2897   0.013   1.412   2.699  0.7080  0.1120  3.1087
  966SOL    HW2 2898   0.144   1.518   2.733 -1.1063  0.7308 -0.5173
  967SOL     OW 2899   2.749   0.056   2.593  0.0569  0.3236  0.2145
  967SOL    HW1 2900   2.769   3.091   2.567  1.5299  0.2031 -0.3353
  967SOL    HW2 2901   2.809   0.083   2.673 -3.7098  0.3682 -0.3846
  968SOL     OW 2902   2.173   0.212   0.388  0.4991  0.5322  0.5143
  968SOL    HW1 2903   2.098   0.263   0.349  0.9521 -0.3340  0.2691
  968SOL    HW2 2904   2.183   0.248   0.481 -0.6461  0.0584 -0.5366
  969SOL     OW 2905   0.266   1.103   2.072  0.4504 -0.4306 -0.1664
  969SOL    HW1 2906   0.202   1.087   1.997  0.9992 -0.8558 -3.6961
  969SOL    HW2 2907   0.358   1.122   2.033  0.3082  2.0698 -1.3958
  970SOL     OW 2908   2.060   1.608   0.866 -0.7770 -0.1917  0.4973
  970SOL    HW1 2909   2.140   1.558   0.899  0.0711  2.8738  3.0715
  970SOL    HW2 2910   2.023   1.671   0.937 -0.9300 -2.5089 -3.8977
  971SOL     OW 2911   2.565   3.007   1.341 -0.1629 -0.2505  0.1004
  971SOL    HW1 2912   2.559   2.910   1.308 -0.3282 -0.7474 -2.2763
  971SOL    HW2 2913   2.582   3.068   1.259 -2.1594 -2.6699 -0.8406
  972SOL     OW 2914   0.640   2.844   1.712  0.1126 -0.7071  0.6700
  972SOL    HW1 2915   0.710   2.872   1.783  0.4516  0.7784  2.8232
  972SOL    HW2 2916   0.650   2.896   1.626 -1.8454  0.0069  2.3187
  973SOL     OW 2917   0.677   0.440   3.039 -0.1493  0.5123 -0.0974
  973SOL    HW1 2918   0.739   0.444   3.120 -3.0976  2.3098  0.8708
  973SOL    HW2 2919   0.589   0.488   3.048 -0.1537  1.0845  2.0588
  974SOL     OW 2920   2.076   1.558   2.274 -0.1619 -0.2392  0.0071
  974SOL    HW1 2921   2.069   1.468   2.321  0.0659 -1.4074  0.7529
  974SOL    HW2 2922   2.149   1.615   2.313 -0.5952  2.8167 -1.5292
  975SOL     OW 2923   3.015   3.119   1.502  0.1567  0.0340 -0.0903
  975SOL    HW1 2924   3.067   3.055   1.563  1.0081 -1.8991 -0.3380
  975SOL    HW2 2925   2.913   3.109   1.514  1.6941 -2.4350  2.1767
  976SOL     OW 2926   0.951   1.948   2.329 -0.0009 -0.3356 -0.1016
  976SOL    HW1 2927   0.856   1.973   2.303  0.1711  1.5490 -0.8889
  976SOL    HW2 2928   0.959   1.921   2.429  0.4599  0.3416 -1.0436
  977SOL     OW 2929   0.895   2.320   0.477  0.3234  0.2526 -0.0148
  977SOL    HW1 2930   0.851   2.401   0.429 -4.4379  2.6759 -0.8040
  977SOL    HW2 2931   0.946   2.257   0.419 -0.1797  2.3494  3.1665
  978SOL     OW 2932   3.103   1.453   2.243 -0.4234 -0.0980  0.7195
  978SOL    HW1 2933   0.056   1.419   2.296  1.9060  2.0898  1.2945
  978SOL    HW2 2934   3.032   1.378   2.229  0.3418  2.2592 -0.0731
  979SOL     OW 2935   1.732   2.798   1.291 -0.0556  0.4861  0.1734
  979SOL    HW1 2936   1.727   2.855   1.206 -1.4332 -0.9103 -0.2117
  979SOL    HW2 2937   1.810   2.730   1.285  1.0586 -2.6166  0.4865
  980SOL     OW 2938   1.192   1.154   2.753 -0.0367 -0.7853 -0.1961
  980SOL    HW1 2939   1.143   1.238   2.722  2.3291 -1.2488  1.6480
  980SOL    HW2 2940   1.122   1.079   2.763 -3.5063 -1.7221 -2.0641
  981SOL     OW 2941   2.327   0.107   1.904 -0.0409 -0.9089  0.2457
  981SOL    HW1 2942   2.281   0.149   1.986  0.0008  0.1116 -0.6091
  981SOL    HW2 2943   2.268   0.119   1.823  0.3429 -0.4161  0.2309
  982SOL     OW 2944   0.454   0.564   3.056  0.2985 -0.0690 -0.5821
  982SOL    HW1 2945   0.385   0.510   3.110 -1.7805 -0.4001 -0.2887
  982SOL    HW2 2946   0.438   0.568   2.957 -1.0768 -0.3381  4.5173
  983SOL     OW 2947   2.242   1.194   2.491  0.0743 -0.1046  1.1214
  983SOL    HW1 2948   2.232   1.173   2.391  0.5837  0.2135  0.9256
  983SOL    HW2 2949   2.265   1.107   2.541 -0.5405 -0.6962 -1.0844
  984SOL     OW 2950   1.124   0.207   2.105 -0.3685 -0.5514  0.2965
  984SOL    HW1 2951   1.162   0.158   2.190  0.8960 -3.7949 -0.0888
  984SOL    HW2 2952   1.076   0.294   2.124  0.7355  0.9144 -2.3127
  985SOL     OW 2953   1.917   1.618   1.734  0.0608 -0.1938 -0.8258
  985SOL    HW1 2954   1.914   1.529   1.691  0.5953  2.3928  2.2962
  985SOL    HW2 2955   1.968   1.610   1.817  1.6260  1.0186 -0.5083
  986SOL     OW 2956   2.393   0.782   1.839 -0.0842 -0.0483 -0.4013
  986SOL    HW1 2957   2.391   0.685   1.817  0.2364 -0.8032 -1.3284
  986SOL    HW2 2958   2.341   0.833   1.766  0.6354  2.5493 -0.4042
  987SOL     OW 2959   2.716   0.612   1.140 -0.1014  0.4595 -0.4809
  987SOL    HW1 2960   2.619   0.634   1.124  1.5239 -1.7386 -1.8232
  987SOL    HW2 2961   2.742   0.539   1.070 -0.1545 -0.3931 -1.9679
  988SOL     OW 2962   3.066   0.898   2.148  0.2081 -0.3735  0.1740
  988SOL    HW1 2963   2.971   0.862   2.139 -0.1075 -2.1694 -2.3155
  988SOL    HW2 2964   3.082   0.968   2.076 -1.0152  2.9202  0.1446
  989SOL     OW 2965   2.469   1.567   3.091 -0.2632 -0.5569  0.0167
  989SOL    HW1 2966   2.539   1.590   0.037  3.8822  0.9062  0.3497
  989SOL    HW2 2967   2.446   1.648   3.036  0.9380  0.5729 -0.7631
  990SOL     OW 2968   1.035   0.450   2.825  0.1207 -0.2407  0.0769
  990SOL    HW1 2969   1.060   0.349   2.819  2.1267 -2.0452 -1.1352
  990SOL    HW2 2970   1.078   0.482   2.906 -2.0942 -0.5598 -2.3522
  991SOL     OW 2971   1.284   1.107   0.613  0.2439  0.3556  0.5156
  991SOL    HW1 2972   1.225   1.165   0.675 -0.6012  3.5261  0.9025
  991SOL    HW2 2973   1.369   1.161   0.584  0.2624  1.1466 -0.5875
  992SOL     OW 2974   2.219   1.447   0.001 -0.5501 -0.1183 -0.3867
  992SOL    HW1 2975   2.144   1.504   0.033  0.9099  2.1647 -0.9540
  992SOL    HW2 2976   2.309   1.497   3.126 -2.2750  2.0724  2.0440
  993SOL     OW 2977   3.079   0.677   0.708  0.3151 -0.4913 -0.3247
  993SOL    HW1 2978   3.119   0.646   0.619 -0.3921  1.3053 -0.4375
  993SOL    HW2 2979   0.020   0.730   0.755  2.1232 -0.3345 -2.0312
  994SOL     OW 2980   0.123   2.052   2.520  0.1766 -0.3696  0.3465
  994SOL    HW1 2981   0.056   2.039   2.597 -1.1767  1.2757 -0.2498
  994SOL    HW2 2982   0.170   2.143   2.533 -1.2321  1.2848 -0.8890
  995SOL     OW 2983   1.802   1.358   2.780  0.6393  0.1437  0.1549
  995SOL    HW1 2984   1.720   1.415   2.803 -0.6670 -0.3991 -0.0710
  995SOL    HW2 2985   1.874   1.418   2.737 -2.0207 -0.3830  0.9440
  996SOL     OW 2986   2.492   1.012   0.023  0.1229  0.3389  0.3361
  996SOL    HW1 2987   2.417   1.068   0.055  2.1507 -1.6418 -0.9458
  996SOL    HW2 2988   2.464   0.950   3.075 -0.9458 -0.8383  1.9040
  997SOL     OW 2989   2.075   1.205   1.809 -0.2751 -0.6077  0.6731
  997SOL    HW1 2990   2.035   1.163   1.892 -2.1428 -2.4418  2.2308
  997SOL    HW2 2991   2.172   1.225   1.820  1.2648 -2.3043  1.6146
  998SOL     OW 2992   2.688   1.857   0.266  0.5362  0.0610  0.6112
  998SOL    HW1 2993   2.611   1.793   0.282  1.4467 -0.7573  0.8110
  998SOL    HW2 2994   2.680   1.926   0.339 -1.0992 -0.7721 -0.6108
  999SOL     OW 2995   2.782   2.287   3.116 -0.7234 -0.0361  0.0105
  999SOL    HW1 2996   2.767   2.209   0.045  2.2189 -1.6966 -0.0322
  999SOL    HW2 2997   2.858   2.345   0.028  4.7212 -1.1378  3.2736
 1000SOL     OW 2998   1.169   0.601   2.102 -0.2864 -0.1988 -0.4300
 1000SOL    HW1 2999   1.168   0.529   2.180 -0.5549 -2.7978  2.3256
 1000SOL    HW2 3000   1.078   0.612   2.061  0.8978 -1.4498  1.0841
   3.12969   3.12969   3.12969
