1000 SPC/Fw water molecules t= 410.00000 step= 410000
 3000
    1SOL     OW    1   0.070   3.062   1.460 -0.2465  0.0433 -0.0498
    1SOL    HW1    2   0.045   0.013   1.548  0.1234 -2.3051  0.1706
    1SOL    HW2    3   0.023   0.024   1.385  0.2402 -0.6628  0.5654
    2SOL     OW    4   2.711   3.023   0.163 -0.3509  0.1065  0.0433
    2SOL    HW1    5   2.705   3.081   0.081 -1.2876  0.7124  1.3306
    2SOL    HW2    6   2.714   2.924   0.135  1.2367  0.9331  2.0366
    3SOL     OW    7   1.495   2.563   2.946 -0.6087  0.1814 -0.4018
    3SOL    HW1    8   1.554   2.641   2.934  0.2043  2.0858  0.8157
    3SOL    HW2    9   1.397   2.591   2.938 -0.3682 -1.1773  0.2532
    4SOL     OW   10   1.022   2.962   2.201 -0.3873 -0.6187 -0.1904
    4SOL    HW1   11   0.941   2.994   2.152  0.2858 -0.6379  1.5857
    4SOL    HW2   12   1.096   2.920   2.143  1.3318  0.2186  5.0812
    5SOL     OW   13   2.089   0.073   1.877 -0.0446  0.7968 -0.2941
    5SOL    HW1   14   2.118   0.033   1.965  0.7903  0.9236  1.0336
    5SOL    HW2   15   2.103   0.010   1.796 -3.7398 -2.3844 -2.3857
    6SOL     OW   16   2.282   1.952   1.052 -0.6361 -0.0898  0.1230
    6SOL    HW1   17   2.268   2.007   0.967  1.0437 -1.8081  0.7726
    6SOL    HW2   18   2.244   1.855   1.042 -2.1066 -1.9093  0.1219
    7SOL     OW   19   1.900   1.078   0.734  0.3118 -0.1736 -0.3900
    7SOL    HW1   20   1.944   1.131   0.813 -0.4532  1.2914  2.7030
    7SOL    HW2   21   1.956   1.089   0.654 -0.8883 -0.9111  2.6529
    8SOL     OW   22   0.655   1.339   0.903 -0.7020  0.6048  0.4812
    8SOL    HW1   23   0.716   1.271   0.946 -0.8310 -0.2927 -0.2432
    8SOL    HW2   24   0.705   1.428   0.881  2.8076 -0.4592  0.4097
    9SOL     OW   25   0.146   2.788   1.570  0.1639 -0.8404  0.2519
    9SOL    HW1   26   0.118   2.876   1.526 -0.9082 -1.0283  0.4107
    9SOL    HW2   27   0.065   2.729   1.574  2.2832  0.7075  0.1630
   10SOL     OW   28   1.300   2.400   0.540 -0.0975  0.0723 -0.0799
   10SOL    HW1   29   1.242   2.430   0.618  0.8610 -1.5845  0.0403
   10SOL    HW2   30   1.312   2.474   0.471 -0.6198 -2.1519  1.7222
   11SOL     OW   31   1.614   1.919   1.113  0.4125 -0.1499 -0.5667
   11SOL    HW1   32   1.641   1.905   1.014 -1.1174  0.2124 -1.1228
   11SOL    HW2   33   1.665   2.003   1.156 -0.3015  1.8312 -2.0945
   12SOL     OW   34   2.706   0.570   2.273 -0.6482  0.5560 -0.7056
   12SOL    HW1   35   2.784   0.522   2.324  0.3601 -0.3095  2.3731
   12SOL    HW2   36   2.620   0.554   2.324 -2.0431  0.6425  2.0835
   13SOL     OW   37   2.736   2.771   0.056 -0.0898 -0.0707 -0.1616
   13SOL    HW1   38   2.650   2.755   0.004  1.8918  2.0269  3.4679
   13SOL    HW2   39   2.752   2.701   0.130 -0.8243 -0.4222  1.5456
   14SOL     OW   40   1.571   1.539   2.997  0.0728 -0.2767 -0.0651
   14SOL    HW1   41   1.605   1.447   2.983  1.6173  2.4977  2.1706
   14SOL    HW2   42   1.583   1.564   0.008 -1.6881 -0.4090  1.3560
   15SOL     OW   43   2.890   2.711   1.681  0.8648 -0.1145  0.3481
   15SOL    HW1   44   2.868   2.626   1.730 -1.0835  2.8338  2.9655
   15SOL    HW2   45   2.869   2.789   1.746 -1.4681  0.2549  1.6118
   16SOL     OW   46   3.010   0.095   0.986 -0.4444  0.0264 -0.1555
   16SOL    HW1   47   3.020   0.182   0.937 -0.1497  1.2070 -1.4945
   16SOL    HW2   48   2.988   0.026   0.920 -1.9830  0.3450 -1.8641
   17SOL     OW   49   1.481   0.224   0.673 -0.2954  0.2984  0.0579
   17SOL    HW1   50   1.554   0.161   0.637 -2.3329  0.2036  0.6034
   17SOL    HW2   51   1.469   0.212   0.771  0.4927 -2.2826  0.2901
   18SOL     OW   52   1.423   0.140   0.966 -0.3643 -0.3023 -0.0244
   18SOL    HW1   53   1.486   0.172   1.044  1.6118  0.9760  0.3822
   18SOL    HW2   54   1.340   0.098   0.990 -0.8521  1.4662 -2.3956
   19SOL     OW   55   2.309   1.064   0.471 -0.3785  0.1736  0.6386
   19SOL    HW1   56   2.335   1.167   0.470  0.9572  2.5797 -2.7430
   19SOL    HW2   57   2.357   1.018   0.390 -1.6283 -2.9995 -5.1444
   20SOL     OW   58   2.638   1.630   2.696  0.5064 -0.3001 -0.6883
   20SOL    HW1   59   2.657   1.657   2.602  0.5408 -1.2725  2.7386
   20SOL    HW2   60   2.566   1.692   2.735  0.4188  0.0916 -0.2561
   21SOL     OW   61   1.603   3.086   0.037 -0.2660 -0.1223  0.2175
   21SOL    HW1   62   1.601   0.063   0.116 -1.0847 -3.5739  2.5989
   21SOL    HW2   63   1.508   3.075   0.000  0.5808 -2.0577 -1.0529
   22SOL     OW   64   3.007   0.834   0.920 -0.3843  0.9865 -0.0046
   22SOL    HW1   65   3.042   0.878   1.007  0.2733  1.7916 -1.5473
   22SOL    HW2   66   2.915   0.867   0.897 -1.9182  1.6789 -0.7363
   23SOL     OW   67   0.474   0.046   1.893  0.1631  0.0790 -0.2761
   23SOL    HW1   68   0.572   0.069   1.895  0.4745  1.7051 -0.2708
   23SOL    HW2   69   0.413   0.098   1.957 -1.3516 -1.0556  1.2159
   24SOL     OW   70   2.589   2.366   0.733 -0.0828  0.3691  0.1429
   24SOL    HW1   71   2.565   2.459   0.706 -0.3279  0.9564 -1.1589
   24SOL    HW2   72   2.601   2.361   0.836  0.5326  1.1062  2.9238
   25SOL     OW   73   1.855   0.029   2.615 -0.6417 -0.0164 -0.2901
   25SOL    HW1   74   1.881   0.120   2.652 -0.7012  1.7844  1.7428
   25SOL    HW2   75   1.755   0.016   2.617 -0.0186 -1.5136 -0.9092
   26SOL     OW   76   1.516   2.299   3.034 -0.2450  0.0131 -0.1641
   26SOL    HW1   77   1.565   2.272   0.030 -0.0933 -0.4172 -0.4103
   26SOL    HW2   78   1.523   2.401   3.013  2.3346  2.4331  0.4700
   27SOL     OW   79   1.624   0.550   1.322  0.5570 -0.4052 -0.3308
   27SOL    HW1   80   1.555   0.534   1.250  0.8380  1.9240 -0.5730
   27SOL    HW2   81   1.638   0.648   1.337 -0.4142  0.0075 -0.2107
   28SOL     OW   82   1.014   1.392   0.464 -0.0088  0.2269  0.5374
   28SOL    HW1   83   0.921   1.354   0.480  1.1188 -1.3340 -0.3429
   28SOL    HW2   84   1.078   1.328   0.506 -2.2082 -0.6235  3.8479
   29SOL     OW   85   2.498   0.380   1.528  0.1203  0.2050 -0.1600
   29SOL    HW1   86   2.476   0.329   1.621 -2.4884 -1.9463  0.3678
   29SOL    HW2   87   2.416   0.431   1.489 -0.3360 -0.1892  1.2199
   30SOL     OW   88   1.256   2.459   1.502  0.6188 -0.0970 -0.6951
   30SOL    HW1   89   1.301   2.488   1.591  0.8622  2.0900  1.4111
   30SOL    HW2   90   1.327   2.442   1.429 -1.2297  0.0576  1.3393
   31SOL     OW   91   2.048   2.828   1.404 -0.2892 -0.2631  0.4789
   31SOL    HW1   92   1.976   2.848   1.476  0.9066 -2.1198 -4.0030
   31SOL    HW2   93   2.043   2.892   1.327 -1.7974  0.2524  1.4870
   32SOL     OW   94   1.810   1.504   2.699 -0.1916  0.5190  0.4981
   32SOL    HW1   95   1.711   1.478   2.693 -0.4609  2.8241  0.1891
   32SOL    HW2   96   1.856   1.502   2.606 -0.5288 -1.3011 -0.9944
   33SOL     OW   97   2.472   0.768   2.612  0.4021 -0.9771  0.4467
   33SOL    HW1   98   2.460   0.725   2.705 -0.2411  2.7022 -2.5964
   33SOL    HW2   99   2.395   0.831   2.589  1.1125 -1.3886 -0.9790
   34SOL     OW  100   1.809   0.281   0.241  0.2725 -0.2946  0.3209
   34SOL    HW1  101   1.722   0.307   0.288 -0.2497  0.6581  0.6288
   34SOL    HW2  102   1.859   0.215   0.302 -2.1272  1.7756  0.4964
   35SOL     OW  103   3.037   2.109   1.841 -0.7401  0.3115  0.0830
   35SOL    HW1  104   3.008   2.100   1.743  0.7582  0.3136  2.2153
   35SOL    HW2  105   3.015   2.021   1.890  2.5428 -1.4100  0.9424
   36SOL     OW  106   2.343   1.829   3.077 -0.0174 -0.1201 -0.2441
   36SOL    HW1  107   2.372   1.777   2.994  1.8691 -1.0134 -0.4737
   36SOL    HW2  108   2.402   1.916   3.079  1.0086  0.8215  0.5738
   37SOL     OW  109   1.684   0.168   1.837  0.1729  0.1864  0.1477
   37SOL    HW1  110   1.751   0.233   1.802 -0.6242 -4.0667 -1.1293
   37SOL    HW2  111   1.691   0.163   1.939 -0.2518 -2.0698  1.0783
   38SOL     OW  112   0.243   0.487   2.453  0.5228 -0.2158  0.1851
   38SOL    HW1  113   0.263   0.553   2.377  1.0186 -1.1949 -0.8035
   38SOL    HW2  114   0.325   0.464   2.506 -1.2734  1.2477 -2.0084
   39SOL     OW  115   1.927   0.891   1.190 -0.2257  0.3114  0.3182
   39SOL    HW1  116   1.855   0.843   1.249 -0.0431  0.7072  3.9426
   39SOL    HW2  117   1.918   0.994   1.187 -0.9582  0.6883 -1.6620
   40SOL     OW  118   1.185   2.167   0.766  0.3461  0.4842 -0.4598
   40SOL    HW1  119   1.106   2.121   0.819 -3.5875 -0.1510  2.2350
   40SOL    HW2  120   1.269   2.120   0.794 -2.2899  1.8037  0.5168
   41SOL     OW  121   1.807   2.279   0.892  0.0630 -0.0663  0.3807
   41SOL    HW1  122   1.757   2.191   0.877 -0.2437  0.2284 -1.7708
   41SOL    HW2  123   1.761   2.321   0.971  2.3944  1.5502  0.2456
   42SOL     OW  124   2.585   0.732   1.167  0.0622  0.1595 -0.3367
   42SOL    HW1  125   2.626   0.777   1.250 -0.3536  0.6852  0.9213
   42SOL    HW2  126   2.651   0.674   1.120 -2.8353  0.1348  1.3061
   43SOL     OW  127   0.807   1.282   2.399 -0.1653 -0.1947  0.3673
   43SOL    HW1  128   0.857   1.316   2.315 -0.5497  0.8505 -0.1175
   43SOL    HW2  129   0.788   1.362   2.461  0.8505 -1.0954  1.8529
   44SOL     OW  130   1.540   2.614   1.146  0.4749  0.5514  0.1592
   44SOL    HW1  131   1.599   2.682   1.191 -0.5175 -1.7435  0.0206
   44SOL    HW2  132   1.460   2.657   1.100 -1.0230 -0.3032  0.6402
   45SOL     OW  133   0.869   2.956   2.472  0.6361 -0.3370 -0.6378
   45SOL    HW1  134   0.941   2.976   2.398 -1.2620  1.5965 -1.5775
   45SOL    HW2  135   0.841   2.861   2.469  0.8480 -1.2586  1.6293
   46SOL     OW  136   0.714   2.551   2.018 -0.3410  0.4523 -0.0488
   46SOL    HW1  137   0.703   2.450   2.033 -0.3520 -0.4997 -1.8164
   46SOL    HW2  138   0.661   2.602   2.086  0.8336 -0.0452  0.0219
   47SOL     OW  139   0.991   2.067   0.897  0.1659  0.2528 -0.1506
   47SOL    HW1  140   0.921   2.137   0.864 -0.0540  0.6941  1.3669
   47SOL    HW2  141   0.939   1.986   0.926  1.1339  2.7587  1.2630
   48SOL     OW  142   0.763   2.427   1.318  0.7130 -0.0183 -0.5442
   48SOL    HW1  143   0.746   2.401   1.223  2.9066 -2.2878  0.8276
   48SOL    HW2  144   0.861   2.449   1.338  1.0784 -0.8919  4.2042
   49SOL     OW  145   2.464   0.017   2.925  0.3226 -0.4511 -0.6065
   49SOL    HW1  146   2.434   0.099   2.865  1.1338  1.1056 -4.1046
   49SOL    HW2  147   2.564   0.033   2.955 -0.1074 -0.8210  1.5736
   50SOL     OW  148   1.604   0.845   0.490  0.3723  0.2792 -0.1244
   50SOL    HW1  149   1.680   0.784   0.511  2.3293  0.6825  2.6403
   50SOL    HW2  150   1.545   0.868   0.573 -0.0894 -0.0013 -1.0346
   51SOL     OW  151   2.220   0.345   0.866 -0.2415  0.1587 -0.1540
   51SOL    HW1  152   2.194   0.396   0.950  0.3486 -1.3816 -1.1673
   51SOL    HW2  153   2.176   0.379   0.782  1.0745 -1.1979  0.1955
   52SOL     OW  154   0.810   1.575   0.135 -0.3635 -0.2848 -0.6457
   52SOL    HW1  155   0.775   1.587   0.041 -1.3243 -1.3477  2.1922
   52SOL    HW2  156   0.779   1.483   0.176 -1.4494 -3.0088  1.1224
   53SOL     OW  157   0.454   1.087   3.022  0.3310  0.1808  0.5374
   53SOL    HW1  158   0.438   1.001   2.969 -0.7530  1.5396  0.4133
   53SOL    HW2  159   0.514   1.080   0.014  0.4526  2.0463  0.1291
   54SOL     OW  160   1.942   1.513   2.457  0.5303 -0.3768  0.5615
   54SOL    HW1  161   2.044   1.498   2.463 -1.1038 -0.2919  2.8086
   54SOL    HW2  162   1.904   1.544   2.369 -0.1060  0.3250  1.5389
   55SOL     OW  163   2.472   2.302   1.010  0.3611 -0.4210 -0.6978
   55SOL    HW1  164   2.563   2.327   1.053 -0.3129  0.1849  3.7952
   55SOL    HW2  165   2.409   2.257   1.081 -2.9318 -1.1003 -2.5989
   56SOL     OW  166   1.969   0.003   1.225  0.1053 -0.0770 -0.0883
   56SOL    HW1  167   2.024   3.014   1.183  0.0051 -0.4138 -0.0810
   56SOL    HW2  168   1.866   3.066   1.221 -2.2633 -0.7619 -0.2011
   57SOL     OW  169   1.747   1.461   0.646  0.1513 -0.0866 -0.1725
   57SOL    HW1  170   1.708   1.505   0.562  2.5507 -1.8323  1.4798
   57SOL    HW2  171   1.794   1.378   0.614  0.1998 -0.8889 -2.4486
   58SOL     OW  172   2.307   0.108   1.463 -0.2188  0.0200 -0.0846
   58SOL    HW1  173   2.308   0.190   1.525 -1.0622 -0.4641  1.8381
   58SOL    HW2  174   2.326   0.132   1.366  1.3943  0.3431 -0.6758
   59SOL     OW  175   1.216   2.858   2.547  0.1561  0.5836  0.2690
   59SOL    HW1  176   1.290   2.847   2.616  0.5169 -0.7742  0.9040
   59SOL    HW2  177   1.139   2.799   2.574 -0.3761  2.1576  2.2427
   60SOL     OW  178   0.017   2.945   2.877 -0.0950  0.0332 -0.1080
   60SOL    HW1  179   0.005   2.913   2.972 -2.3169  1.0398  1.2111
   60SOL    HW2  180   3.022   2.930   2.821  1.0838  2.4124  0.9498
   61SOL     OW  181   0.844   2.275   0.812  0.1578  0.3040  0.2302
   61SOL    HW1  182   0.884   2.258   0.718  0.7660 -0.2985 -1.0973
   61SOL    HW2  183   0.745   2.277   0.807 -0.5027 -2.9978  2.1176
   62SOL     OW  184   1.299   1.877   1.930  0.4658  0.5191 -0.0954
   62SOL    HW1  185   1.390   1.873   1.975  0.8958 -1.3898 -0.2392
   62SOL    HW2  186   1.303   1.823   1.851 -2.1284  2.7717  0.9340
   63SOL     OW  187   1.650   1.643   0.463 -0.2447  0.2364  0.2197
   63SOL    HW1  188   1.623   1.695   0.554 -0.4071  2.1945  2.7148
   63SOL    HW2  189   1.745   1.665   0.430  1.0683  0.0664  0.3630
   64SOL     OW  190   1.693   1.359   0.301 -0.0951  0.0313 -0.0956
   64SOL    HW1  191   1.746   1.323   0.225 -1.2192  2.5985  2.1165
   64SOL    HW2  192   1.723   1.317   0.387  1.8113 -2.0207  1.8425
   65SOL     OW  193   1.610   2.445   2.311  0.0804  0.3781  0.2967
   65SOL    HW1  194   1.664   2.375   2.258  1.1559 -0.1789 -1.6484
   65SOL    HW2  195   1.521   2.405   2.349 -2.3462  0.1804  1.2180
   66SOL     OW  196   0.227   1.123   1.499 -0.3479 -0.0487  0.2121
   66SOL    HW1  197   0.272   1.034   1.488 -0.0801  2.1168 -0.4542
   66SOL    HW2  198   0.224   1.183   1.414 -1.2219  0.6827  0.2134
   67SOL     OW  199   2.221   2.703   0.412  0.2816  0.0264  0.7199
   67SOL    HW1  200   2.258   2.795   0.389  0.7107  0.3339  1.0687
   67SOL    HW2  201   2.220   2.702   0.515  1.4988  2.2543 -2.1418
   68SOL     OW  202   2.042   2.316   1.238  0.0415 -0.0528 -0.0005
   68SOL    HW1  203   2.112   2.269   1.294 -0.2980  0.1038  1.1415
   68SOL    HW2  204   2.031   2.278   1.144 -1.5864  1.0375  1.0120
   69SOL     OW  205   2.485   2.069   3.071  0.2071 -0.0844 -0.5042
   69SOL    HW1  206   2.438   2.162   3.082  2.4256  2.0772 -0.6879
   69SOL    HW2  207   2.586   2.075   0.010  2.0322 -0.4087  0.2324
   70SOL     OW  208   0.340   1.002   2.366 -0.0887 -0.2684 -0.1330
   70SOL    HW1  209   0.288   1.074   2.321 -1.3504 -0.2119  0.2510
   70SOL    HW2  210   0.280   0.918   2.354 -2.4760 -0.4005 -0.1908
   71SOL     OW  211   0.903   1.014   2.386  0.0389 -0.5127 -0.6144
   71SOL    HW1  212   0.855   1.106   2.382 -0.1569  0.7014  0.8942
   71SOL    HW2  213   0.843   0.942   2.418 -0.4412  1.4442  0.9412
   72SOL     OW  214   2.364   1.636   2.004 -0.0515 -0.6368  0.6247
   72SOL    HW1  215   2.372   1.556   1.942 -2.7151 -0.1933 -0.4293
   72SOL    HW2  216   2.398   1.716   1.951  1.0593 -1.3533 -1.2055
   73SOL     OW  217   1.046   1.927   2.654  0.4362 -0.5181  0.2876
   73SOL    HW1  218   1.011   1.991   2.724 -1.6464 -0.4073 -1.1541
   73SOL    HW2  219   1.136   1.901   2.682 -0.8910 -0.0629 -0.2022
   74SOL     OW  220   2.099   3.034   2.535  0.5008 -0.2609  0.1508
   74SOL    HW1  221   2.005   3.072   2.541 -1.2057  1.0620  1.7272
   74SOL    HW2  222   2.132   3.031   2.633  0.3225 -0.6626 -0.7078
   75SOL     OW  223   1.540   2.788   0.752 -0.9636  0.8473 -0.1972
   75SOL    HW1  224   1.599   2.707   0.772 -0.9206  0.3681 -0.5961
   75SOL    HW2  225   1.560   2.821   0.656 -2.4610  0.0422 -2.0077
   76SOL     OW  226   2.831   1.859   2.938  0.3531 -0.1349  0.3308
   76SOL    HW1  227   2.835   1.759   2.954  0.1091 -1.3519 -1.6128
   76SOL    HW2  228   2.871   1.907   3.019  0.4964 -3.0878 -0.1166
   77SOL     OW  229   0.036   2.636   1.303  0.0368 -0.4006 -0.3680
   77SOL    HW1  230   0.026   2.563   1.234 -0.4117 -0.2181 -0.7525
   77SOL    HW2  231   0.081   2.596   1.388  2.6422  0.6873  0.9197
   78SOL     OW  232   2.571   0.839   3.031 -0.1845  0.5077  0.1491
   78SOL    HW1  233   2.657   0.863   3.078  2.0372  0.7237 -3.5419
   78SOL    HW2  234   2.543   0.911   2.967 -2.3466 -1.4684  0.1555
   79SOL     OW  235   0.182   1.731   2.540 -0.3648 -0.4469 -0.0639
   79SOL    HW1  236   0.245   1.654   2.520  0.0668  0.5838  0.5232
   79SOL    HW2  237   0.110   1.696   2.603 -1.6851 -2.0708  0.4784
   80SOL     OW  238   1.803   1.375   1.675 -0.1686 -0.5092 -0.4314
   80SOL    HW1  239   1.873   1.440   1.707  0.9298 -0.6236  1.0680
   80SOL    HW2  240   1.840   1.325   1.596 -4.8696 -1.6037  0.3380
   81SOL     OW  241   2.062   1.220   2.376 -0.2374 -0.2499  0.3304
   81SOL    HW1  242   1.967   1.237   2.410  0.8315  1.9910  1.5276
   81SOL    HW2  243   2.121   1.303   2.394  0.7765 -0.0661 -1.4808
   82SOL     OW  244   1.331   1.314   1.783  0.9349  0.0846 -0.0084
   82SOL    HW1  245   1.398   1.385   1.750 -1.5904 -1.5482 -1.4275
   82SOL    HW2  246   1.380   1.232   1.817 -0.7901  0.0907 -0.9499
   83SOL     OW  247   0.118   0.305   0.017 -0.2708 -0.3573 -0.8435
   83SOL    HW1  248   0.110   0.345   0.115 -0.4550 -0.2149  4.2263
   83SOL    HW2  249   0.037   0.325   3.043  2.0678  1.6626 -1.4014
   84SOL     OW  250   2.982   0.945   0.257 -0.4492  0.3429  0.3975
   84SOL    HW1  251   3.083   0.922   0.231 -0.0460  0.1468  1.6384
   84SOL    HW2  252   2.971   1.044   0.276  0.2896 -2.4944 -3.0841
   85SOL     OW  253   2.086   1.643   2.064  0.3523 -0.5223 -0.1369
   85SOL    HW1  254   2.190   1.634   2.042  0.9134  2.9365 -1.3102
   85SOL    HW2  255   2.068   1.682   2.159 -2.2579  1.0400 -2.3148
   86SOL     OW  256   0.585   0.593   1.194  0.6438 -0.3483  0.1959
   86SOL    HW1  257   0.507   0.663   1.174 -0.0130  1.9869 -1.2216
   86SOL    HW2  258   0.607   0.545   1.102  3.3082  0.7982 -0.6038
   87SOL     OW  259   2.702   2.026   2.082  0.0325  0.3030 -0.1140
   87SOL    HW1  260   2.655   2.117   2.073 -3.6058  0.6808  1.7836
   87SOL    HW2  261   2.731   2.003   2.174 -0.6017 -0.7028 -2.2518
   88SOL     OW  262   0.620   1.966   0.030  0.1115  0.0033  0.8268
   88SOL    HW1  263   0.557   1.947   0.107  2.1197  0.2698 -0.4731
   88SOL    HW2  264   0.607   1.897   3.049  1.3519 -1.3360  2.5645
   89SOL     OW  265   1.538   0.642   0.251  0.8972  0.0999  0.3740
   89SOL    HW1  266   1.461   0.704   0.220  0.8699  0.4546 -1.1951
   89SOL    HW2  267   1.624   0.695   0.266  0.0728  2.2636 -3.5770
   90SOL     OW  268   0.085   1.523   2.276  0.4001  0.4783 -0.3845
   90SOL    HW1  269   0.016   1.511   2.349  0.9112 -0.4393  1.2354
   90SOL    HW2  270   0.099   1.624   2.253  1.3060  0.1507 -3.0829
   91SOL     OW  271   2.373   3.033   1.100  0.4537 -0.9608  0.2088
   91SOL    HW1  272   2.281   2.992   1.105 -0.9139 -1.0341  0.9934
   91SOL    HW2  273   2.376   0.002   1.016 -1.0398 -1.4813  0.2666
   92SOL     OW  274   2.196   1.354   1.367  0.2270 -0.4090 -0.0377
   92SOL    HW1  275   2.220   1.354   1.466 -2.7140 -0.2865  1.2586
   92SOL    HW2  276   2.282   1.375   1.309  4.3435 -1.7082 -2.4608
   93SOL     OW  277   2.955   1.223   0.292 -0.2416 -0.0635  1.0102
   93SOL    HW1  278   2.941   1.280   0.376 -1.6283 -0.2600  0.1859
   93SOL    HW2  279   2.995   1.277   0.215 -1.0894  0.1260  0.7105
   94SOL     OW  280   1.193   2.316   2.025  1.1345  0.0772  0.6920
   94SOL    HW1  281   1.252   2.244   1.981  0.2958 -2.9442  1.0289
   94SOL    HW2  282   1.234   2.353   2.109  0.0095  0.8664  1.3981
   95SOL     OW  283   3.073   0.524   1.156 -0.5539 -0.0249  0.6190
   95SOL    HW1  284   0.049   0.600   1.180  1.5986  2.3376 -0.3245
   95SOL    HW2  285   0.032   0.430   1.166  2.7430 -2.1288  0.4322
   96SOL     OW  286   0.023   2.782   1.903  0.0996  0.0186  0.3027
   96SOL    HW1  287   0.063   2.872   1.882 -0.3225 -1.8976  0.9122
   96SOL    HW2  288   0.069   2.719   1.834  0.6351 -1.6461 -2.7049
   97SOL     OW  289   2.307   0.580   1.481 -0.2161  0.0425  0.0371
   97SOL    HW1  290   2.295   0.678   1.478 -2.2404  0.3766  0.2381
   97SOL    HW2  291   2.226   0.528   1.514 -1.4654 -1.1959  0.2067
   98SOL     OW  292   2.339   2.427   1.331  0.5330  0.1719  0.0804
   98SOL    HW1  293   2.431   2.465   1.352  1.3523 -2.1463  1.4325
   98SOL    HW2  294   2.346   2.337   1.278 -0.2705 -2.6138  0.0080
   99SOL     OW  295   0.234   0.242   1.802 -0.3195  0.3100  0.4565
   99SOL    HW1  296   0.164   0.313   1.787  1.0167  2.1542 -1.2848
   99SOL    HW2  297   0.288   0.223   1.724 -0.5951 -2.8434  2.6982
  100SOL     OW  298   2.077   0.288   2.312  0.2296  0.6600  0.0869
  100SOL    HW1  299   2.061   0.189   2.304  0.3074  2.2823  1.0293
  100SOL    HW2  300   1.984   0.331   2.295 -1.1777  0.2276  1.1144
  101SOL     OW  301   0.029   0.219   2.429  0.2409  0.1204  0.4068
  101SOL    HW1  302   0.097   0.218   2.358 -1.6011  2.2103 -0.0460
  101SOL    HW2  303   0.071   0.267   2.510  1.3524  0.0222 -0.6589
  102SOL     OW  304   0.634   0.265   1.674  0.3011  0.3529 -0.0436
  102SOL    HW1  305   0.547   0.257   1.622 -0.9792 -0.8876  0.3030
  102SOL    HW2  306   0.662   0.361   1.686 -0.0206  0.2233  1.1429
  103SOL     OW  307   0.926   0.663   2.631 -0.2509 -0.1146  0.5782
  103SOL    HW1  308   0.932   0.740   2.698  2.0321 -3.2866  2.0793
  103SOL    HW2  309   1.007   0.602   2.653  1.0733  3.2168 -0.1051
  104SOL     OW  310   0.042   0.665   2.013 -0.7621 -0.3650 -0.4564
  104SOL    HW1  311   0.099   0.736   2.056  2.5131 -1.5639 -3.4953
  104SOL    HW2  312   3.058   0.700   1.953  4.0052 -2.5935  1.9606
  105SOL     OW  313   2.370   1.988   1.502  0.1587  0.2868 -0.3810
  105SOL    HW1  314   2.358   2.011   1.600  2.2363  1.8720 -2.9472
  105SOL    HW2  315   2.361   1.887   1.489  0.3401 -1.3002 -0.3214
  106SOL     OW  316   1.490   0.188   0.281  0.3096  0.0157 -0.1265
  106SOL    HW1  317   1.521   0.257   0.345 -2.1329 -0.0037  0.4214
  106SOL    HW2  318   1.409   0.227   0.228 -2.2430 -0.0003 -1.5258
  107SOL     OW  319   2.067   2.240   0.956 -0.1800 -0.1927 -0.0838
  107SOL    HW1  320   1.971   2.236   0.917  1.5441 -1.6087 -1.7924
  107SOL    HW2  321   2.128   2.173   0.909 -0.8936 -0.2863  0.4237
  108SOL     OW  322   0.053   2.404   1.109 -0.0557  0.7583  0.4111
  108SOL    HW1  323   3.087   2.449   1.037  0.3783 -1.2524 -0.3538
  108SOL    HW2  324   0.000   2.324   1.146  0.8688 -0.6752 -2.9207
  109SOL     OW  325   1.633   2.510   0.800 -0.1742  0.5091 -0.6410
  109SOL    HW1  326   1.612   2.477   0.706  1.1794  0.5190  2.8325
  109SOL    HW2  327   1.721   2.464   0.828  3.4214  1.2338 -0.5476
  110SOL     OW  328   1.804   1.528   1.311 -0.2333  0.3580 -0.1732
  110SOL    HW1  329   1.888   1.553   1.259  0.4988 -1.0231  1.3883
  110SOL    HW2  330   1.825   1.444   1.364 -1.2313 -1.3129 -0.9829
  111SOL     OW  331   1.630   2.168   1.919 -0.5135 -0.0844  0.5510
  111SOL    HW1  332   1.700   2.215   1.858  1.1976  0.3941 -0.5792
  111SOL    HW2  333   1.600   2.233   1.990 -0.5078 -1.4434  2.0107
  112SOL     OW  334   1.846   2.013   2.879  0.9129  0.0569  0.4373
  112SOL    HW1  335   1.774   1.945   2.864 -2.2850  3.2684  0.5375
  112SOL    HW2  336   1.931   1.963   2.907 -0.7711 -1.0998  1.7903
  113SOL     OW  337   1.996   1.824   1.885  0.2486  0.8230 -0.2368
  113SOL    HW1  338   2.038   1.913   1.908 -0.3374 -1.3575 -0.4741
  113SOL    HW2  339   2.047   1.753   1.940  1.8389 -0.8802 -1.8683
  114SOL     OW  340   3.074   1.431   1.755  0.6274 -0.5643  0.4476
  114SOL    HW1  341   2.974   1.453   1.768 -1.5700 -2.0772  1.5492
  114SOL    HW2  342   0.033   1.422   1.846  1.0779 -0.8389  0.8389
  115SOL     OW  343   0.152   0.887   0.192 -0.1312 -0.2365  0.4255
  115SOL    HW1  344   0.176   0.791   0.159  2.4287 -1.5110 -2.9314
  115SOL    HW2  345   0.186   0.910   0.284 -0.0072 -0.2836  0.2830
  116SOL     OW  346   2.608   1.192   2.897 -0.1319 -0.1109 -0.5721
  116SOL    HW1  347   2.609   1.256   2.978  0.2349 -0.2081 -2.7313
  116SOL    HW2  348   2.518   1.144   2.899 -2.7389  0.7372 -3.0602
  117SOL     OW  349   2.945   2.371   0.109 -0.2738 -1.0850  0.4741
  117SOL    HW1  350   2.931   2.296   0.043 -1.8712  2.4052  2.0902
  117SOL    HW2  351   2.987   2.451   0.056  2.7479  2.3567 -2.1460
  118SOL     OW  352   0.714   2.136   2.931 -0.1254 -0.3573 -0.1412
  118SOL    HW1  353   0.766   2.079   2.866  0.1936 -0.0773 -1.8236
  118SOL    HW2  354   0.673   2.080   3.008  0.8102  1.4116  4.0497
  119SOL     OW  355   0.651   2.729   0.571 -0.4574 -0.3021 -0.2346
  119SOL    HW1  356   0.678   2.817   0.622 -1.2649 -1.6956 -1.2928
  119SOL    HW2  357   0.602   2.668   0.634 -0.5611  3.0347  2.4295
  120SOL     OW  358   1.172   0.649   0.358  0.5220  0.3288  0.1872
  120SOL    HW1  359   1.078   0.645   0.323  2.0720  1.7389 -3.2547
  120SOL    HW2  360   1.234   0.687   0.290 -3.0349 -2.8781  0.0267
  121SOL     OW  361   1.363   2.720   0.985  0.6597 -0.0795 -0.0171
  121SOL    HW1  362   1.361   2.789   1.064  2.0509 -0.0096  0.6593
  121SOL    HW2  363   1.417   2.744   0.906 -1.1949  0.7498  2.1056
  122SOL     OW  364   2.645   1.716   2.451  0.6861 -0.3967 -0.3719
  122SOL    HW1  365   2.709   1.715   2.376 -0.9597 -0.3595  0.8953
  122SOL    HW2  366   2.546   1.713   2.415 -2.9573  1.4372 -0.9172
  123SOL     OW  367   1.377   1.452   1.008 -0.5945  0.3923 -0.1199
  123SOL    HW1  368   1.452   1.451   1.076 -0.0200 -1.8915 -1.3316
  123SOL    HW2  369   1.294   1.439   1.062  0.5872 -0.1617 -1.2477
  124SOL     OW  370   0.254   0.570   2.915 -0.3193 -0.3163  0.6994
  124SOL    HW1  371   0.237   0.473   2.933  3.9391  0.4624 -2.9852
  124SOL    HW2  372   0.324   0.571   2.840 -0.2300  0.0460 -0.9763
  125SOL     OW  373   0.575   0.444   0.250 -0.2371  0.5621  0.1483
  125SOL    HW1  374   0.552   0.546   0.253 -0.5861 -2.4035  1.8419
  125SOL    HW2  375   0.495   0.389   0.213 -2.0730 -1.1499  0.2044
  126SOL     OW  376   0.336   1.736   0.475  0.4874  0.0636  0.1415
  126SOL    HW1  377   0.358   1.690   0.388  1.6652  0.7150  1.9658
  126SOL    HW2  378   0.324   1.668   0.548 -1.6659  2.1765  1.7509
  127SOL     OW  379   1.009   2.530   1.694  0.4431  0.0382  0.2254
  127SOL    HW1  380   0.944   2.608   1.675 -0.0016  1.3079  1.6860
  127SOL    HW2  381   1.059   2.496   1.608  1.6790 -0.4184 -1.3094
  128SOL     OW  382   1.231   1.375   0.139  0.1527  0.0503  0.0654
  128SOL    HW1  383   1.157   1.437   0.181 -2.2123 -1.5623  1.1926
  128SOL    HW2  384   1.255   1.411   0.045 -2.4794 -2.0879 -1.1586
  129SOL     OW  385   1.768   1.710   1.988  0.0441  0.2670  0.0728
  129SOL    HW1  386   1.756   1.617   1.946 -0.3426 -1.8823 -0.4633
  129SOL    HW2  387   1.855   1.758   1.962 -0.8833  1.0038  1.6891
  130SOL     OW  388   1.759   2.235   1.660  0.3984  0.1031 -0.0914
  130SOL    HW1  389   1.734   2.145   1.625  0.5145  2.8489 -1.0969
  130SOL    HW2  390   1.740   2.305   1.593  1.7875 -0.3295  0.4745
  131SOL     OW  391   0.030   2.349   1.933 -0.6140  0.3928  0.3480
  131SOL    HW1  392   3.083   2.261   1.897 -1.8594  0.6665  1.4938
  131SOL    HW2  393   3.041   2.393   1.981  0.5097 -2.1862 -1.9369
  132SOL     OW  394   2.933   1.991   0.909  0.0968 -0.5194  0.2328
  132SOL    HW1  395   3.006   1.951   0.847 -0.2556 -1.1404 -1.0259
  132SOL    HW2  396   2.957   1.960   1.002  2.7065  2.1477 -1.4276
  133SOL     OW  397   0.475   0.826   1.733 -0.3880 -0.3332 -0.2476
  133SOL    HW1  398   0.530   0.842   1.651  1.6142 -1.1883  2.2827
  133SOL    HW2  399   0.525   0.773   1.804 -2.4408 -1.2371  0.6695
  134SOL     OW  400   2.595   1.806   0.233  0.0645  0.1372 -0.5800
  134SOL    HW1  401   2.552   1.755   0.311 -1.2112 -1.0419  1.3326
  134SOL    HW2  402   2.586   1.907   0.249  0.4318  0.3853  2.2747
  135SOL     OW  403   1.664   0.985   2.503 -0.4059 -0.0099 -0.0461
  135SOL    HW1  404   1.760   0.943   2.489 -1.6281 -0.0473 -0.6390
  135SOL    HW2  405   1.601   0.920   2.543 -0.9740  1.5096  1.4690
  136SOL     OW  406   2.532   1.813   1.184  0.6801 -0.2377  0.3078
  136SOL    HW1  407   2.485   1.877   1.116 -4.2189  0.6909 -2.1711
  136SOL    HW2  408   2.469   1.779   1.258 -1.7880 -1.2230 -0.4868
  137SOL     OW  409   2.456   1.836   0.734  1.1625 -0.3228 -0.1342
  137SOL    HW1  410   2.503   1.773   0.799  1.2946  0.0694  1.2044
  137SOL    HW2  411   2.514   1.923   0.728  2.7071  0.7498 -5.0341
  138SOL     OW  412   2.748   0.480   0.829 -0.4220  0.0412 -0.0087
  138SOL    HW1  413   2.821   0.485   0.901  2.5590  2.1617  0.3998
  138SOL    HW2  414   2.676   0.550   0.840  2.4105  0.0400  1.7630
  139SOL     OW  415   3.001   2.797   0.031  0.3231 -0.0672  0.0349
  139SOL    HW1  416   2.900   2.794   0.034  2.8317 -3.4832  0.0377
  139SOL    HW2  417   3.040   2.812   0.125  0.4058  0.0304  1.9048
  140SOL     OW  418   0.884   1.430   1.209  0.4562 -0.1115  0.1443
  140SOL    HW1  419   0.874   1.332   1.225 -1.1883  2.1069  1.1807
  140SOL    HW2  420   0.787   1.465   1.203  0.2778  0.4519 -1.8953
  141SOL     OW  421   1.293   1.702   0.901 -0.3883 -0.1752 -0.4965
  141SOL    HW1  422   1.260   1.759   0.980  0.4526  2.0741  0.1971
  141SOL    HW2  423   1.322   1.612   0.934 -0.1120 -0.2649 -1.1130
  142SOL     OW  424   0.869   0.543   1.011  0.4092  0.4059 -0.1121
  142SOL    HW1  425   0.796   0.476   1.021  1.5954  2.2028 -1.2464
  142SOL    HW2  426   0.868   0.612   1.084  0.1158 -2.1299 -0.7096
  143SOL     OW  427   0.591   1.286   2.230  0.0998 -0.5946  0.3575
  143SOL    HW1  428   0.523   1.358   2.258  1.9950  1.4930 -1.9324
  143SOL    HW2  429   0.677   1.288   2.280 -2.5857 -0.2371 -1.1117
  144SOL     OW  430   2.387   2.895   0.599  0.2015  0.0963 -0.4063
  144SOL    HW1  431   2.459   2.907   0.525  2.5094  3.1077 -2.7343
  144SOL    HW2  432   2.431   2.883   0.693 -0.8400 -0.2921 -0.4469
  145SOL     OW  433   1.925   0.275   2.745  0.5763  0.4209 -0.1330
  145SOL    HW1  434   1.924   0.255   2.847  0.9500 -1.7991  2.5794
  145SOL    HW2  435   1.997   0.339   2.715  2.5023  1.1926 -0.7716
  146SOL     OW  436   3.085   2.852   0.311  0.1787  0.2483 -0.1165
  146SOL    HW1  437   0.082   2.892   0.275  0.6502 -0.0387  2.3129
  146SOL    HW2  438   3.067   2.883   0.405  1.0833  0.7901 -0.6932
  147SOL     OW  439   1.067   1.067   2.633 -0.1667  0.1719 -0.5841
  147SOL    HW1  440   1.014   1.024   2.556  1.2585 -0.6565  0.5399
  147SOL    HW2  441   1.142   1.127   2.602 -3.8972 -0.3109  1.5675
  148SOL     OW  442   1.472   0.038   2.785  0.2994 -0.5592 -0.4494
  148SOL    HW1  443   1.553   3.080   2.828 -0.6571  1.3874 -1.6137
  148SOL    HW2  444   1.395   0.054   2.851 -3.7296  0.9563  0.1404
  149SOL     OW  445   1.248   0.053   1.931  0.0298 -0.5906 -0.0209
  149SOL    HW1  446   1.224   0.082   2.030 -1.3871 -0.3069  0.8585
  149SOL    HW2  447   1.326   0.106   1.892  0.8239 -0.1741  0.5299
  150SOL     OW  448   2.256   2.695   3.062 -0.2529  0.1619 -0.3437
  150SOL    HW1  449   2.159   2.700   3.026 -0.7425  2.8462 -0.3456
  150SOL    HW2  450   2.276   2.612   0.030  2.2364 -0.2566 -0.7408
  151SOL     OW  451   0.698   1.543   2.978 -0.0114  0.2828 -0.7242
  151SOL    HW1  452   0.630   1.474   2.956  2.6109 -0.1681 -2.1993
  151SOL    HW2  453   0.783   1.515   2.932 -1.7334  2.1991  3.6904
  152SOL     OW  454   0.328   3.055   1.400  0.3482  0.4010  0.0029
  152SOL    HW1  455   0.228   3.045   1.414 -0.8666 -1.4832 -0.0794
  152SOL    HW2  456   0.377   2.993   1.461 -3.4206  1.4133  1.8607
  153SOL     OW  457   2.378   2.857   1.715 -0.0343 -0.7075 -0.3821
  153SOL    HW1  458   2.471   2.870   1.757 -2.9418 -1.5579  0.0798
  153SOL    HW2  459   2.317   2.800   1.776  1.9174  2.1814  0.5476
  154SOL     OW  460   2.510   2.969   2.499  0.3484 -0.2074 -0.4924
  154SOL    HW1  461   2.436   3.038   2.512 -0.5633 -1.4650  1.3888
  154SOL    HW2  462   2.598   3.009   2.470  1.9677  1.4874  0.5736
  155SOL     OW  463   0.086   1.273   0.504  0.1433  0.1311  0.6159
  155SOL    HW1  464   3.086   1.321   0.511  0.6355  0.9182 -1.0653
  155SOL    HW2  465   0.148   1.319   0.438 -0.2388  0.0364 -0.1241
  156SOL     OW  466   2.754   1.765   0.783 -0.8743  0.2450  0.0168
  156SOL    HW1  467   2.807   1.819   0.852  0.2223  1.8385  0.2809
  156SOL    HW2  468   2.740   1.819   0.696 -1.2529 -0.1732  2.6159
  157SOL     OW  469   0.822   0.546   0.615 -0.1070  0.2765  0.1724
  157SOL    HW1  470   0.837   0.444   0.612 -0.4273  1.6859 -0.3761
  157SOL    HW2  471   0.908   0.597   0.605 -1.6663 -2.0217  0.0748
  158SOL     OW  472   1.714   1.078   1.138 -0.7256 -0.0705 -0.3007
  158SOL    HW1  473   1.731   1.090   1.035  1.3441 -1.2897 -1.1961
  158SOL    HW2  474   1.670   1.158   1.184  0.9231 -1.5770 -1.1475
  159SOL     OW  475   0.113   0.425   0.268 -0.0841 -0.2987  0.0716
  159SOL    HW1  476   0.092   0.515   0.317 -2.5201  0.5853 -0.4364
  159SOL    HW2  477   0.103   0.354   0.336 -0.3277  2.0663  0.0616
  160SOL     OW  478   2.080   2.076   1.969 -0.1703  0.1301  0.1141
  160SOL    HW1  479   2.087   2.138   2.053  1.4550  1.7476  3.3945
  160SOL    HW2  480   2.050   2.130   1.884 -2.0574  0.4846 -2.8444
  161SOL     OW  481   0.392   0.893   2.836  0.4406 -0.4303  0.0099
  161SOL    HW1  482   0.384   0.798   2.800  0.2014  1.6783  1.9289
  161SOL    HW2  483   0.319   0.954   2.798 -0.5675  1.1715  1.9589
  162SOL     OW  484   0.742   0.101   1.857  0.2660 -0.1163  0.8478
  162SOL    HW1  485   0.836   0.139   1.882  0.2946 -0.5931  0.2197
  162SOL    HW2  486   0.702   0.155   1.782 -1.0342 -0.3744  0.4779
  163SOL     OW  487   2.901   2.925   2.541  0.3760 -0.1058  0.2626
  163SOL    HW1  488   2.870   3.023   2.540 -2.6515 -0.9195  0.2525
  163SOL    HW2  489   2.874   2.883   2.452 -1.9068  2.8837  1.0811
  164SOL     OW  490   2.064   1.909   0.316  0.5387  0.1493 -0.0097
  164SOL    HW1  491   2.131   1.836   0.296  0.1631  2.2021 -1.3450
  164SOL    HW2  492   2.097   2.004   0.292 -0.0439 -0.5280  0.4621
  165SOL     OW  493   0.489   0.127   1.242  0.6494 -0.6488 -0.1236
  165SOL    HW1  494   0.503   0.107   1.143  1.7297 -2.1608  1.3657
  165SOL    HW2  495   0.433   0.057   1.290  0.7286  2.5341  1.5346
  166SOL     OW  496   2.407   0.595   0.622 -0.5130 -0.3191 -0.8337
  166SOL    HW1  497   2.433   0.643   0.536 -0.5755 -0.3865  1.2559
  166SOL    HW2  498   2.320   0.542   0.610 -1.1670  0.0328 -0.3587
  167SOL     OW  499   2.463   0.996   0.227  0.8517 -0.1577 -0.0986
  167SOL    HW1  500   2.462   0.896   0.208 -1.2025 -0.5563  1.2535
  167SOL    HW2  501   2.387   1.037   0.170 -3.9776 -3.3527 -0.0857
  168SOL     OW  502   1.602   3.033   2.565 -0.6736 -0.1198 -0.5161
  168SOL    HW1  503   1.576   2.933   2.532 -1.8197 -1.1366  1.2350
  168SOL    HW2  504   1.548   3.067   2.647  0.4959  1.8762  0.0766
  169SOL     OW  505   0.706   1.821   0.747 -0.5098  0.3379 -0.3603
  169SOL    HW1  506   0.604   1.828   0.736 -0.0393  1.0503 -1.1414
  169SOL    HW2  507   0.732   1.859   0.839  0.6092  0.1248  0.8438
  170SOL     OW  508   3.053   1.112   1.354  0.1006 -0.6654  0.9942
  170SOL    HW1  509   0.006   1.187   1.294  0.3043  0.7436 -0.8414
  170SOL    HW2  510   3.033   1.140   1.447  0.4309 -2.7482  0.2112
  171SOL     OW  511   2.893   1.495   2.446  0.0281  0.0039  0.2577
  171SOL    HW1  512   2.840   1.420   2.494  1.2368  0.4375  1.1529
  171SOL    HW2  513   2.842   1.519   2.358  1.9660 -0.7814 -2.8499
  172SOL     OW  514   0.881   1.670   1.340 -0.2491  0.5574 -0.2212
  172SOL    HW1  515   0.782   1.695   1.337 -0.3082  2.9094 -2.5425
  172SOL    HW2  516   0.897   1.596   1.270  0.4311 -0.3655  0.0366
  173SOL     OW  517   1.945   1.723   3.084 -0.3367 -0.6424  0.0719
  173SOL    HW1  518   1.860   1.743   0.051 -1.5550 -1.1690  3.3645
  173SOL    HW2  519   1.999   1.807   3.068 -0.1371  1.8137 -1.5652
  174SOL     OW  520   1.860   0.620   2.789  0.9143 -0.1754 -0.9996
  174SOL    HW1  521   1.887   0.535   2.840  0.9014 -2.5157  0.6270
  174SOL    HW2  522   1.816   0.699   2.837  0.3239  1.8153  0.3383
  175SOL     OW  523   1.168   1.405   1.171  0.4345  0.3054 -0.6880
  175SOL    HW1  524   1.066   1.387   1.169  1.9066  2.2210 -0.9751
  175SOL    HW2  525   1.212   1.336   1.233  0.5293  0.0745  3.0132
  176SOL     OW  526   1.181   0.155   0.208 -0.1847 -0.0830 -0.5172
  176SOL    HW1  527   1.212   0.206   0.129  0.2477 -1.2978 -1.4998
  176SOL    HW2  528   1.200   0.195   0.298 -1.6886 -4.0224 -1.2715
  177SOL     OW  529   0.098   1.336   0.139  0.0857  0.3405 -0.3864
  177SOL    HW1  530   0.174   1.359   0.204  3.8443 -2.1886  0.3435
  177SOL    HW2  531   0.113   1.252   0.083  0.0287 -1.1229  1.3466
  178SOL     OW  532   2.992   2.397   2.585  0.6504 -0.6267  0.3494
  178SOL    HW1  533   2.978   2.329   2.656  0.5966  0.9424 -0.9306
  178SOL    HW2  534   3.082   2.436   2.595 -0.0950  0.8648 -0.6655
  179SOL     OW  535   2.747   2.532   2.567 -0.3528 -0.3406 -0.2287
  179SOL    HW1  536   2.707   2.557   2.477 -2.4263  0.6390  1.6139
  179SOL    HW2  537   2.847   2.506   2.555  1.2255 -1.6192 -3.2575
  180SOL     OW  538   2.321   0.708   1.127  1.0188 -0.2128  0.0461
  180SOL    HW1  539   2.276   0.779   1.183  2.2761  2.2278  0.8657
  180SOL    HW2  540   2.421   0.707   1.152 -2.2864  0.1645  0.6040
  181SOL     OW  541   2.277   0.395   2.472 -0.1511  0.5959 -0.2949
  181SOL    HW1  542   2.209   0.422   2.547 -1.2597  3.0189 -0.1441
  181SOL    HW2  543   2.219   0.358   2.399  0.4495  2.3492 -1.2025
  182SOL     OW  544   2.654   2.353   2.318 -0.3422  0.4745  0.3124
  182SOL    HW1  545   2.633   2.449   2.296  2.1842  2.8528 -0.5796
  182SOL    HW2  546   2.757   2.347   2.321  2.0472 -0.3168 -0.0710
  183SOL     OW  547   2.115   0.731   1.941 -0.1529 -0.2523  0.1628
  183SOL    HW1  548   2.188   0.669   1.970 -2.1798 -0.9762  0.0646
  183SOL    HW2  549   2.106   0.734   1.839 -1.7244 -1.7067 -1.8889
  184SOL     OW  550   0.485   1.611   0.985 -0.3917  0.2515 -0.4760
  184SOL    HW1  551   0.579   1.591   1.022 -0.0744  0.5700  1.9129
  184SOL    HW2  552   0.432   1.522   0.972 -1.8852  0.2053  0.3242
  185SOL     OW  553   2.971   0.021   0.708  0.1104  0.9649 -0.0654
  185SOL    HW1  554   2.885   0.054   0.751  2.1191 -2.5950  1.6530
  185SOL    HW2  555   3.019   0.090   0.648  1.1060  3.1746  0.2754
  186SOL     OW  556   2.322   2.459   2.481 -0.0263  0.0040 -0.0860
  186SOL    HW1  557   2.224   2.438   2.512 -2.4308 -0.9796 -0.9830
  186SOL    HW2  558   2.338   2.558   2.492  0.5448 -0.5064  1.0177
  187SOL     OW  559   0.806   1.572   0.864  0.3626  0.4500  0.0040
  187SOL    HW1  560   0.907   1.556   0.877  0.3149  0.6917  0.9280
  187SOL    HW2  561   0.778   1.650   0.806  1.6801 -1.2972 -0.8996
  188SOL     OW  562   2.134   1.475   0.826 -0.1336 -0.0293 -0.7635
  188SOL    HW1  563   2.196   1.396   0.822 -1.3801  1.9989  0.7275
  188SOL    HW2  564   2.118   1.508   0.733 -3.0086  2.7614  2.1852
  189SOL     OW  565   0.052   1.433   2.789  0.2288 -0.1724  0.0839
  189SOL    HW1  566   0.044   1.473   2.880  2.1996 -3.3607 -2.7326
  189SOL    HW2  567   0.145   1.394   2.774  1.0930  1.1729 -1.4677
  190SOL     OW  568   2.314   0.251   2.006 -0.1838  0.1111 -0.5411
  190SOL    HW1  569   2.253   0.174   1.985 -1.6956  1.6048  1.5817
  190SOL    HW2  570   2.352   0.240   2.099 -3.9747  1.7795 -1.7248
  191SOL     OW  571   1.064   0.352   2.283  0.3053  0.2146 -0.8030
  191SOL    HW1  572   1.119   0.268   2.267 -0.0292 -1.1287 -0.0497
  191SOL    HW2  573   0.999   0.334   2.357  2.5416 -1.5751 -0.1104
  192SOL     OW  574   1.152   1.526   1.815  0.3103 -0.1524 -0.3230
  192SOL    HW1  575   1.208   1.443   1.787 -1.3100 -0.7798 -1.2598
  192SOL    HW2  576   1.109   1.564   1.734  1.7854 -0.8581 -1.9788
  193SOL     OW  577   1.117   2.845   0.626  0.3235 -0.5290  0.0631
  193SOL    HW1  578   1.194   2.857   0.683 -1.0891 -0.0570 -2.5397
  193SOL    HW2  579   1.051   2.783   0.658  2.3571  2.4823 -2.8847
  194SOL     OW  580   0.517   1.920   1.932 -0.1826  0.0353 -0.0608
  194SOL    HW1  581   0.514   2.017   1.976  2.0829  1.1184  2.3811
  194SOL    HW2  582   0.596   1.912   1.867  3.3487 -0.2729  0.5393
  195SOL     OW  583   2.140   0.473   0.645  0.2657  0.2152 -0.3162
  195SOL    HW1  584   2.121   0.473   0.544  0.6016 -0.6421  2.2751
  195SOL    HW2  585   2.090   0.553   0.694 -0.8799  1.6803  1.6724
  196SOL     OW  586   1.142   1.272   1.984  0.3370 -0.2900  0.1619
  196SOL    HW1  587   1.209   1.301   1.911 -1.6288  0.8025 -0.0273
  196SOL    HW2  588   1.058   1.244   1.935  0.6891 -1.4322  1.3949
  197SOL     OW  589   0.061   0.452   1.853 -0.6142 -0.3242 -0.0634
  197SOL    HW1  590   0.020   0.385   1.918  1.1367 -1.0823  0.1500
  197SOL    HW2  591   0.079   0.537   1.910  0.5375 -1.1264  2.2144
  198SOL     OW  592   0.485   1.017   1.188 -0.0136  0.4742  0.1060
  198SOL    HW1  593   0.562   0.964   1.146 -2.1073  0.3136  2.4555
  198SOL    HW2  594   0.424   1.047   1.109 -0.4795  0.0867 -0.4225
  199SOL     OW  595   0.295   2.519   1.181  0.2161 -0.6836 -0.7831
  199SOL    HW1  596   0.327   2.576   1.096  1.3516 -1.6465 -4.3024
  199SOL    HW2  597   0.202   2.475   1.165 -0.9187  1.2107 -1.2825
  200SOL     OW  598   1.500   1.666   2.682 -0.4197 -0.1817  0.2845
  200SOL    HW1  599   1.500   1.565   2.682  1.4337  1.4699  2.0738
  200SOL    HW2  600   1.566   1.706   2.752 -1.5794  0.3523 -1.3422
  201SOL     OW  601   0.506   2.487   1.715 -0.5443  0.5027 -0.0076
  201SOL    HW1  602   0.574   2.481   1.638 -0.9525 -2.8043 -1.4548
  201SOL    HW2  603   0.455   2.401   1.722 -0.2011  0.3184 -1.0905
  202SOL     OW  604   1.326   0.000   3.037 -0.2447  0.0770  0.3148
  202SOL    HW1  605   1.283   3.035   2.963  2.7400  2.9913  3.9100
  202SOL    HW2  606   1.285   0.094   3.049 -0.4313 -1.3918 -1.5626
  203SOL     OW  607   1.494   0.466   2.315  0.5195 -0.4108  0.4643
  203SOL    HW1  608   1.486   0.425   2.221 -2.6896  0.9217 -2.0549
  203SOL    HW2  609   1.591   0.488   2.346  4.1699  1.2715 -0.2112
  204SOL     OW  610   0.684   1.056   1.409 -0.3634  0.0566 -0.0462
  204SOL    HW1  611   0.667   1.114   1.490  1.7549  3.4228  1.9352
  204SOL    HW2  612   0.613   1.066   1.335 -0.0944  0.7112 -0.9262
  205SOL     OW  613   2.193   0.925   2.759  0.6977  0.6164  0.0859
  205SOL    HW1  614   2.180   0.831   2.791 -0.9141  1.3393 -1.3180
  205SOL    HW2  615   2.153   0.934   2.665  1.0847 -1.4794  0.3873
  206SOL     OW  616   0.558   1.769   2.903 -0.1115  0.1445  0.4469
  206SOL    HW1  617   0.597   1.678   2.930  1.2313 -0.4401  0.9384
  206SOL    HW2  618   0.621   1.805   2.827  5.2385 -0.0768 -2.1189
  207SOL     OW  619   0.322   0.217   2.056  0.2705 -0.1037 -0.0524
  207SOL    HW1  620   0.400   0.283   2.064 -2.8570  0.1265 -1.2958
  207SOL    HW2  621   0.283   0.215   1.963 -1.1997  0.6017  0.6524
  208SOL     OW  622   0.593   2.557   1.465 -0.0380  0.0580 -0.2324
  208SOL    HW1  623   0.507   2.576   1.415  1.4315  1.3977 -0.3648
  208SOL    HW2  624   0.649   2.496   1.407  0.0708  0.7810 -0.6313
  209SOL     OW  625   1.250   2.665   3.002 -0.1153 -0.6578  0.1529
  209SOL    HW1  626   1.163   2.614   3.022  1.4846  0.3301  0.4553
  209SOL    HW2  627   1.233   2.744   2.938  2.0189  3.0425  1.2819
  210SOL     OW  628   2.823   1.465   1.807  0.5262 -0.2513 -0.6233
  210SOL    HW1  629   2.770   1.538   1.755 -0.2337  0.2411  2.5128
  210SOL    HW2  630   2.759   1.388   1.826 -1.5243  2.4543 -1.4384
  211SOL     OW  631   1.008   0.189   1.873 -0.3086  0.5374 -0.0026
  211SOL    HW1  632   1.032   0.267   1.808 -0.6564  0.0306 -1.5926
  211SOL    HW2  633   1.072   0.115   1.858  1.7836  2.1607 -0.8872
  212SOL     OW  634   0.978   2.135   1.623 -0.1527  0.6079  0.6443
  212SOL    HW1  635   0.916   2.217   1.643 -2.1700  4.5773 -0.0664
  212SOL    HW2  636   1.075   2.158   1.621  2.3635 -0.8910 -0.6595
  213SOL     OW  637   2.449   0.292   1.774  0.3008  0.0274  0.0341
  213SOL    HW1  638   2.506   0.365   1.815  0.0798 -2.2941 -0.7111
  213SOL    HW2  639   2.406   0.246   1.852  0.0396 -3.7312 -0.8464
  214SOL     OW  640   0.688   1.921   1.718 -0.2036 -0.1725 -0.3319
  214SOL    HW1  641   0.788   1.901   1.727  0.4546  0.8376 -2.0164
  214SOL    HW2  642   0.669   2.022   1.737  1.0381  1.5472  0.7958
  215SOL     OW  643   2.710   1.842   1.367  0.0464  0.2710  0.1334
  215SOL    HW1  644   2.662   1.847   1.277  1.4647 -1.5996 -1.3110
  215SOL    HW2  645   2.704   1.927   1.419  0.3531 -0.5862 -0.0591
  216SOL     OW  646   2.962   0.852   1.381  0.4037  0.2517  0.2311
  216SOL    HW1  647   3.039   0.786   1.369  0.3888  1.0080 -1.1928
  216SOL    HW2  648   2.997   0.949   1.379  0.5669  1.9973  0.5610
  217SOL     OW  649   2.720   0.257   1.456 -0.1362  0.6211 -0.0242
  217SOL    HW1  650   2.771   0.293   1.379  1.0844  1.5963  2.5599
  217SOL    HW2  651   2.633   0.305   1.477  1.5879 -2.2700 -0.6847
  218SOL     OW  652   1.401   2.213   1.140  0.2760  0.0145 -0.4332
  218SOL    HW1  653   1.485   2.160   1.151 -0.6641 -0.7140 -2.2046
  218SOL    HW2  654   1.414   2.264   1.050 -1.1364 -0.2924  0.9850
  219SOL     OW  655   1.641   2.235   0.175 -0.0811  0.5041 -0.0651
  219SOL    HW1  656   1.698   2.320   0.149  0.1485  0.9341  0.6492
  219SOL    HW2  657   1.695   2.173   0.235 -2.5037 -0.4653 -0.4849
  220SOL     OW  658   1.801   2.430   0.072 -0.0615  0.2479 -0.5310
  220SOL    HW1  659   1.800   2.528   0.094 -0.8238 -0.9649 -0.4445
  220SOL    HW2  660   1.894   2.393   0.085 -0.2034 -1.9495 -1.1189
  221SOL     OW  661   3.028   1.898   1.167 -0.1861  0.0017 -0.5476
  221SOL    HW1  662   0.039   1.917   1.174 -2.8729  1.4300  0.8702
  221SOL    HW2  663   3.000   1.826   1.234 -1.4408 -0.2029  0.8443
  222SOL     OW  664   1.458   2.336   0.894  0.5260  0.3548 -0.2255
  222SOL    HW1  665   1.525   2.406   0.863 -1.1892  0.8049  0.2476
  222SOL    HW2  666   1.436   2.274   0.817  2.4659 -0.0715 -0.9506
  223SOL     OW  667   0.832   2.701   2.402  0.3153  0.2948  0.0827
  223SOL    HW1  668   0.842   2.616   2.460 -0.7542  0.6006  0.4136
  223SOL    HW2  669   0.872   2.685   2.309 -1.4075 -1.3246  0.8163
  224SOL     OW  670   0.058   1.609   1.151 -0.5922 -0.3411 -0.0051
  224SOL    HW1  671   3.069   1.643   1.205 -1.4820 -0.5191  1.0404
  224SOL    HW2  672   0.139   1.585   1.205 -1.4090 -0.7749  0.1640
  225SOL     OW  673   2.262   1.645   1.033 -0.2826  0.5811 -0.0520
  225SOL    HW1  674   2.356   1.606   1.053  0.9471 -0.7210  1.1865
  225SOL    HW2  675   2.227   1.609   0.944  1.7159 -1.9941 -0.4938
  226SOL     OW  676   1.290   2.585   0.340  0.1242 -0.1484  0.3061
  226SOL    HW1  677   1.192   2.595   0.315 -0.8180  0.2496 -1.8642
  226SOL    HW2  678   1.342   2.628   0.267 -1.6928 -0.8890  1.0160
  227SOL     OW  679   1.350   1.064   1.599 -0.1718 -0.2946 -0.6469
  227SOL    HW1  680   1.300   1.124   1.530  2.8592  0.9639  0.2328
  227SOL    HW2  681   1.440   1.108   1.616 -0.1911  0.8512  0.9296
  228SOL     OW  682   1.272   0.673   2.026 -0.6006 -0.1374  0.1807
  228SOL    HW1  683   1.295   0.772   2.034 -1.2214 -1.4369  1.7679
  228SOL    HW2  684   1.268   0.636   1.931 -0.7555  0.5655 -1.0002
  229SOL     OW  685   2.750   0.744   2.746 -0.4612 -0.2730  0.4952
  229SOL    HW1  686   2.824   0.755   2.812  0.9709 -1.7931  0.9036
  229SOL    HW2  687   2.710   0.833   2.715 -0.2718 -1.2953 -1.4647
  230SOL     OW  688   1.033   1.097   0.707  0.4335  0.2547 -0.0858
  230SOL    HW1  689   1.084   1.006   0.712 -1.7037  2.5267  0.5837
  230SOL    HW2  690   1.056   1.156   0.788 -1.4008 -2.8036 -1.1489
  231SOL     OW  691   2.342   2.755   2.093 -0.2801 -0.1445  0.2932
  231SOL    HW1  692   2.417   2.727   2.031  0.7824  1.4767 -0.4372
  231SOL    HW2  693   2.365   2.766   2.192 -0.5582 -0.1454 -0.1657
  232SOL     OW  694   0.615   2.064   0.352  0.5224  0.5599  0.1500
  232SOL    HW1  695   0.625   1.981   0.409  1.9585 -0.5126 -1.5512
  232SOL    HW2  696   0.699   2.071   0.293 -0.6653 -0.9252  0.4647
  233SOL     OW  697   1.325   2.380   2.249  0.6043 -0.7547  0.2839
  233SOL    HW1  698   1.320   2.288   2.288 -3.2427  1.2709  1.4820
  233SOL    HW2  699   1.264   2.452   2.296 -3.0733  0.6331  0.5830
  234SOL     OW  700   0.955   1.207   1.624 -0.4638 -0.0333  0.5432
  234SOL    HW1  701   0.926   1.206   1.720 -0.5762  0.7309 -4.2842
  234SOL    HW2  702   0.921   1.290   1.577  1.5989 -1.4776  0.8290
  235SOL     OW  703   0.626   1.611   1.671 -0.0626 -0.5122 -0.0781
  235SOL    HW1  704   0.681   1.601   1.757  2.5688  1.4752  1.8184
  235SOL    HW2  705   0.617   1.711   1.648  1.6392 -0.6003  0.7609
  236SOL     OW  706   1.856   2.892   2.455 -0.1719  0.2411 -0.0852
  236SOL    HW1  707   1.770   2.842   2.469  0.7952 -2.9275  0.2860
  236SOL    HW2  708   1.854   2.975   2.513 -0.6073  0.8145 -0.0296
  237SOL     OW  709   1.241   2.963   0.227 -0.2857 -0.1408  0.1370
  237SOL    HW1  710   1.159   2.987   0.282 -0.1985 -1.2614 -1.9936
  237SOL    HW2  711   1.258   3.020   0.142 -0.4579  3.5264  0.1539
  238SOL     OW  712   1.494   0.656   2.821 -0.0413  0.1707 -0.1682
  238SOL    HW1  713   1.526   0.568   2.784  0.6022  1.1757 -1.1006
  238SOL    HW2  714   1.532   0.670   2.913 -2.0234 -0.5752  0.1289
  239SOL     OW  715   0.552   0.391   1.977 -0.8781  0.2031  0.3197
  239SOL    HW1  716   0.579   0.488   1.956 -0.0465  1.8572 -1.3794
  239SOL    HW2  717   0.556   0.336   1.894  3.0727  0.2769  1.6354
  240SOL     OW  718   2.196   2.619   0.677  0.6405 -0.4771  0.0278
  240SOL    HW1  719   2.107   2.659   0.709  2.1259  1.7933 -2.6062
  240SOL    HW2  720   2.226   2.534   0.722 -1.3110 -0.2210 -0.0130
  241SOL     OW  721   1.415   1.396   1.427 -0.3436 -0.1185 -0.8025
  241SOL    HW1  722   1.330   1.348   1.454  2.9942  0.7635  0.9203
  241SOL    HW2  723   1.434   1.490   1.465 -0.8262  2.1847  1.6429
  242SOL     OW  724   0.030   0.589   0.838  0.9420  0.1496 -0.1291
  242SOL    HW1  725   3.064   0.673   0.855 -2.9308 -1.0181 -0.4272
  242SOL    HW2  726   0.115   0.597   0.779  1.4085  0.0179 -1.4988
  243SOL     OW  727   0.407   0.633   1.465 -0.5517 -0.0779  0.5822
  243SOL    HW1  728   0.309   0.623   1.499 -2.1731 -0.8347  2.9863
  243SOL    HW2  729   0.444   0.544   1.431 -0.2696 -0.9615  1.0126
  244SOL     OW  730   1.155   0.485   0.009  0.2631 -0.1628 -0.3804
  244SOL    HW1  731   1.160   0.588   0.011 -2.4263 -0.3558  3.3146
  244SOL    HW2  732   1.058   0.455   0.022 -1.3405 -0.6915  1.9724
  245SOL     OW  733   1.956   0.940   2.963 -0.1588  0.2681 -0.1736
  245SOL    HW1  734   2.005   0.981   2.883  2.8683 -2.1084  0.8764
  245SOL    HW2  735   1.958   0.999   3.042  0.4502 -1.4655  0.4398
  246SOL     OW  736   2.972   0.949   2.058  0.5588  0.1834 -0.6627
  246SOL    HW1  737   2.887   0.898   2.042  1.8048  0.9058  4.3655
  246SOL    HW2  738   2.959   1.050   2.037  0.4367 -2.5767 -1.1518
  247SOL     OW  739   0.525   2.986   2.216 -0.2877 -0.1356 -0.1963
  247SOL    HW1  740   0.609   2.971   2.165  0.9231 -0.1827 -0.4992
  247SOL    HW2  741   0.553   3.046   2.298 -0.4070 -0.4970  1.1881
  248SOL     OW  742   0.470   1.556   2.275 -0.4473  0.5188 -0.4761
  248SOL    HW1  743   0.539   1.619   2.236 -1.1301 -0.0138 -2.2329
  248SOL    HW2  744   0.414   1.516   2.206 -0.6813  1.5252  4.3450
  249SOL     OW  745   0.319   0.292   2.831  0.1473 -0.0582 -0.0848
  249SOL    HW1  746   0.418   0.315   2.852 -0.3643  2.2898 -1.4486
  249SOL    HW2  747   0.281   0.197   2.847  1.3719 -2.3970 -0.5935
  250SOL     OW  748   0.256   0.000   2.828  0.7652 -0.5397  0.1265
  250SOL    HW1  749   0.171   3.039   2.832  0.2892  0.1811 -1.3953
  250SOL    HW2  750   0.318   3.047   2.762 -1.7199 -0.0309  0.9216
  251SOL     OW  751   0.285   1.531   0.625 -0.0099 -0.3022 -0.4162
  251SOL    HW1  752   0.190   1.563   0.628  2.5314  0.0121  1.8827
  251SOL    HW2  753   0.288   1.442   0.677  2.4605 -1.3530 -2.0200
  252SOL     OW  754   1.513   2.685   1.989  0.3112 -0.5198  0.1219
  252SOL    HW1  755   1.459   2.723   1.914 -0.3884 -0.8227 -0.1575
  252SOL    HW2  756   1.491   2.739   2.076  0.6058  1.2048  0.1554
  253SOL     OW  757   1.919   1.753   2.695  0.1824  0.1196  0.7183
  253SOL    HW1  758   1.873   1.782   2.611 -0.0728  0.7576  0.8552
  253SOL    HW2  759   1.854   1.696   2.747 -0.8020 -1.0919 -1.4012
  254SOL     OW  760   0.396   1.526   1.798  0.2178  0.1083  0.1977
  254SOL    HW1  761   0.377   1.434   1.759 -1.7080  2.3958  0.3892
  254SOL    HW2  762   0.471   1.562   1.739  0.0339 -0.3256  0.2791
  255SOL     OW  763   0.914   0.066   1.599 -0.0168  0.3028  0.2299
  255SOL    HW1  764   0.954   0.012   1.680 -3.4958 -2.4581  4.2563
  255SOL    HW2  765   0.881   0.152   1.634  1.6339 -4.0656  0.1754
  256SOL     OW  766   2.975   2.209   1.194  0.1650  0.4255  0.1825
  256SOL    HW1  767   2.932   2.228   1.287 -0.7805  0.7487  1.5708
  256SOL    HW2  768   2.970   2.113   1.173 -1.2990  2.4819 -3.0185
  257SOL     OW  769   0.334   2.693   0.082  0.6106  0.1492  0.4807
  257SOL    HW1  770   0.363   2.657   0.175 -1.2903 -0.7867 -0.3154
  257SOL    HW2  771   0.299   2.619   0.019  2.2976  0.3365  0.0163
  258SOL     OW  772   0.955   2.158   2.025 -0.8371  0.6144  0.4553
  258SOL    HW1  773   0.983   2.057   2.018  1.0746 -1.4745  1.3231
  258SOL    HW2  774   1.041   2.213   2.019  1.2606 -1.8766  0.5882
  259SOL     OW  775   1.059   1.866   2.398 -0.2127 -0.1589 -0.0114
  259SOL    HW1  776   1.007   1.944   2.344 -3.0996  2.9275  0.8406
  259SOL    HW2  777   1.067   1.880   2.501 -0.1885  3.1380  0.4273
  260SOL     OW  778   2.262   0.821   2.361 -0.0873  0.1421  0.0560
  260SOL    HW1  779   2.206   0.735   2.358 -1.5743 -0.3388 -1.5298
  260SOL    HW2  780   2.341   0.811   2.293  1.3126 -2.0109 -0.3257
  261SOL     OW  781   1.265   0.786   1.034 -0.0711 -0.2515  0.5013
  261SOL    HW1  782   1.293   0.692   0.994  0.1583 -2.2037  1.0309
  261SOL    HW2  783   1.235   0.765   1.132 -0.7410  3.0324  2.0956
  262SOL     OW  784   2.113   2.355   2.641  0.2802 -0.1964  0.2320
  262SOL    HW1  785   2.201   2.345   2.690 -1.1002  1.8007 -0.0827
  262SOL    HW2  786   2.059   2.270   2.638 -0.6335  0.9764 -0.6290
  263SOL     OW  787   0.549   2.392   0.580 -0.4388 -0.4837 -0.6526
  263SOL    HW1  788   0.523   2.477   0.629 -2.0936  1.2911 -0.4288
  263SOL    HW2  789   0.626   2.412   0.516 -1.5905 -0.0834 -2.1808
  264SOL     OW  790   0.160   2.166   0.528 -1.0299 -0.6304  0.1520
  264SOL    HW1  791   0.261   2.167   0.517 -0.5093 -0.3625 -1.6233
  264SOL    HW2  792   0.112   2.176   0.436  0.3352 -0.7684  0.7238
  265SOL     OW  793   0.482   1.240   0.388 -0.5327 -0.4066 -0.5554
  265SOL    HW1  794   0.548   1.211   0.463  3.4085 -0.3953  0.2735
  265SOL    HW2  795   0.539   1.287   0.317  1.7535 -0.6713 -2.1945
  266SOL     OW  796   0.745   1.900   2.351 -0.2675 -0.2341  0.1816
  266SOL    HW1  797   0.717   1.881   2.446 -0.2192  0.9992 -1.3646
  266SOL    HW2  798   0.800   1.984   2.351 -1.1684  0.0345 -0.4941
  267SOL     OW  799   1.801   0.636   2.500  0.1569  0.0264 -0.2906
  267SOL    HW1  800   1.800   0.616   2.599 -0.1803 -0.2542 -1.3724
  267SOL    HW2  801   1.839   0.725   2.476  2.3010 -0.2945 -1.3337
  268SOL     OW  802   0.647   1.004   0.120  0.1562 -1.0707 -0.5497
  268SOL    HW1  803   0.622   0.907   0.117  0.3978 -2.0973 -3.7911
  268SOL    HW2  804   0.705   1.024   0.199 -1.3466  2.1070 -0.0841
  269SOL     OW  805   2.365   2.124   2.507 -0.2658  0.3499 -0.2208
  269SOL    HW1  806   2.448   2.073   2.524  0.7100  1.7970  1.3030
  269SOL    HW2  807   2.379   2.220   2.520  1.7823 -1.1292  1.1331
  270SOL     OW  808   1.688   1.731   2.877  0.5462  0.2764 -0.2764
  270SOL    HW1  809   1.654   1.817   2.926 -1.2716  0.6186 -2.7759
  270SOL    HW2  810   1.646   1.643   2.918 -0.8796 -0.1921  0.6856
  271SOL     OW  811   0.389   0.268   0.115 -0.7002  0.4320  0.1740
  271SOL    HW1  812   0.456   0.223   0.054  1.5831  0.8902  3.5730
  271SOL    HW2  813   0.302   0.290   0.066  0.5331  2.1940  3.4603
  272SOL     OW  814   2.745   0.571   0.388 -0.1973  0.0818 -0.0812
  272SOL    HW1  815   2.806   0.530   0.461  2.0635 -1.7145  0.3748
  272SOL    HW2  816   2.667   0.622   0.428 -2.0255  0.5564  0.5080
  273SOL     OW  817   0.489   2.977   1.645  0.1688  0.0536 -0.0793
  273SOL    HW1  818   0.489   3.039   1.728 -1.0582  0.7170  0.0762
  273SOL    HW2  819   0.465   2.883   1.678  1.8663  1.7726  0.4150
  274SOL     OW  820   2.582   0.659   1.571 -0.2029 -0.1336 -0.3110
  274SOL    HW1  821   2.532   0.672   1.664  0.4253  1.0292 -0.0399
  274SOL    HW2  822   2.544   0.577   1.521  0.7307  0.6481  1.1212
  275SOL     OW  823   1.041   1.513   0.706 -0.3015 -0.2573  0.0817
  275SOL    HW1  824   1.042   1.467   0.614 -2.4787  1.6297 -0.7613
  275SOL    HW2  825   1.083   1.606   0.704 -0.6097  1.8529  0.4468
  276SOL     OW  826   0.540   0.731   2.200 -0.2587 -0.0365  0.0342
  276SOL    HW1  827   0.567   0.827   2.203 -0.4372  0.2914 -1.0128
  276SOL    HW2  828   0.611   0.666   2.234 -1.3494 -0.8779 -0.4536
  277SOL     OW  829   1.156   2.574   1.922 -0.0661  1.5218 -0.6343
  277SOL    HW1  830   1.089   2.568   1.846 -1.3259  0.4429 -0.7516
  277SOL    HW2  831   1.162   2.484   1.975 -1.4235 -3.4927  2.0057
  278SOL     OW  832   1.781   2.815   1.920  0.1276 -0.3842  0.5731
  278SOL    HW1  833   1.693   2.776   1.893 -0.3187  3.7041 -0.0757
  278SOL    HW2  834   1.858   2.781   1.861  0.4725 -0.5689 -2.3596
  279SOL     OW  835   1.440   1.229   0.211  0.3905 -0.5271 -0.0062
  279SOL    HW1  836   1.383   1.303   0.176 -1.5894 -0.5806  1.6694
  279SOL    HW2  837   1.519   1.269   0.258 -0.0212  0.5530  1.3084
  280SOL     OW  838   1.048   1.168   0.176 -0.0392  0.4614  0.2578
  280SOL    HW1  839   0.987   1.196   0.097 -0.7783  0.9077 -1.4433
  280SOL    HW2  840   1.132   1.223   0.168 -0.6373 -0.5610 -0.6733
  281SOL     OW  841   0.376   0.210   1.558  0.5309 -0.1641 -0.0074
  281SOL    HW1  842   0.396   0.279   1.490 -0.0782 -0.9810  2.0058
  281SOL    HW2  843   0.353   0.120   1.522  1.3184  3.1192 -0.0141
  282SOL     OW  844   0.234   2.600   0.580 -0.9627 -0.3730 -0.2673
  282SOL    HW1  845   0.188   2.606   0.487  0.9757  0.3916  1.4986
  282SOL    HW2  846   0.185   2.537   0.643  0.8741  0.8610  0.7456
  283SOL     OW  847   1.358   2.168   1.858 -0.2803 -0.2207  0.1295
  283SOL    HW1  848   1.348   2.065   1.873  2.0495 -1.7547 -0.4797
  283SOL    HW2  849   1.452   2.192   1.878 -2.5499 -1.8873  1.7241
  284SOL     OW  850   2.868   2.882   0.996  0.0289 -0.1525  0.0669
  284SOL    HW1  851   2.775   2.928   1.000  0.6175  2.1601  0.3771
  284SOL    HW2  852   2.902   2.872   1.093  2.7139 -1.2841  2.2967
  285SOL     OW  853   0.346   1.977   2.900 -0.2511 -0.2087 -0.2324
  285SOL    HW1  854   0.384   2.056   2.952 -0.6198  1.0983 -0.4074
  285SOL    HW2  855   0.404   1.897   2.918 -2.6532 -0.6107 -1.8037
  286SOL     OW  856   0.184   2.865   0.888  0.0173 -0.4079  0.0330
  286SOL    HW1  857   0.220   2.878   0.985 -1.0730  1.3762  1.9333
  286SOL    HW2  858   0.088   2.825   0.887 -1.6990  0.6556  0.5393
  287SOL     OW  859   0.560   0.974   0.615  0.5244  0.2995 -0.2885
  287SOL    HW1  860   0.652   0.940   0.639 -0.1676 -0.8291  0.9713
  287SOL    HW2  861   0.547   1.069   0.658 -3.1284 -0.7728  1.3999
  288SOL     OW  862   2.183   1.751   2.706  0.2013 -0.3782  0.2601
  288SOL    HW1  863   2.204   1.851   2.692  1.4209  0.1990  1.7804
  288SOL    HW2  864   2.078   1.742   2.689 -0.4366  1.6215 -0.7780
  289SOL     OW  865   0.083   1.946   2.921 -0.1273 -0.4843  0.8906
  289SOL    HW1  866   0.182   1.933   2.916  0.5102  1.9192  0.7696
  289SOL    HW2  867   0.030   1.903   2.847  0.5756 -1.1900  1.9345
  290SOL     OW  868   1.441   1.671   1.438 -0.1204  0.0957  0.2661
  290SOL    HW1  869   1.416   1.745   1.375 -3.0191 -3.5045  0.4248
  290SOL    HW2  870   1.540   1.651   1.444  2.9048 -1.2523  0.0521
  291SOL     OW  871   1.327   1.200   2.921  0.2398  0.2317 -0.3706
  291SOL    HW1  872   1.295   1.298   2.937  0.1855  2.0312 -3.1020
  291SOL    HW2  873   1.303   1.136   2.996 -3.4779  0.2838 -1.3801
  292SOL     OW  874   1.043   1.559   0.265 -0.2949  0.3205 -0.1662
  292SOL    HW1  875   1.034   1.491   0.342 -0.3549 -0.1507 -0.1530
  292SOL    HW2  876   0.959   1.589   0.215 -1.2436 -1.3386 -1.0419
  293SOL     OW  877   1.587   2.993   0.945 -0.0399 -0.0413  0.0525
  293SOL    HW1  878   1.504   3.049   0.921 -1.6726 -0.7981  1.9687
  293SOL    HW2  879   1.588   2.904   0.887  0.9231  0.0636 -4.1495
  294SOL     OW  880   1.814   1.232   2.497  0.1711 -0.0137  0.2771
  294SOL    HW1  881   1.737   1.164   2.490 -0.4855  0.6628 -1.1750
  294SOL    HW2  882   1.777   1.325   2.475 -1.9557  1.5396 -0.4872
  295SOL     OW  883   1.731   1.840   0.168 -0.5013 -0.1155  0.1582
  295SOL    HW1  884   1.688   1.859   0.080 -0.0937  1.4952 -1.4307
  295SOL    HW2  885   1.727   1.922   0.229  0.3681  1.2327 -1.3926
  296SOL     OW  886   1.271   0.565   1.770 -0.5086 -0.0424 -0.4129
  296SOL    HW1  887   1.302   0.487   1.714  1.8657  1.0328  0.5911
  296SOL    HW2  888   1.308   0.650   1.724  2.1227 -0.3768  0.6508
  297SOL     OW  889   2.740   0.656   2.030  0.3528  0.0807  0.1129
  297SOL    HW1  890   2.730   0.759   2.021  0.4393  1.2569  0.0115
  297SOL    HW2  891   2.740   0.623   2.126 -1.3044  2.7297 -0.9338
  298SOL     OW  892   0.952   1.650   1.602  0.4611  0.4128  0.1398
  298SOL    HW1  893   0.938   1.730   1.660  0.8502 -1.1327 -1.0518
  298SOL    HW2  894   0.948   1.671   1.500 -0.9534  0.8435 -2.2750
  299SOL     OW  895   1.203   0.042   2.548  0.0180 -0.2094 -0.1061
  299SOL    HW1  896   1.258   0.068   2.465 -0.9187  1.7597 -0.7861
  299SOL    HW2  897   1.189   3.030   2.565  0.1270  0.1391  0.4987
  300SOL     OW  898   3.066   1.092   2.895 -0.6377  0.5554 -0.1329
  300SOL    HW1  899   3.004   1.015   2.916 -1.4166  0.7401 -2.2991
  300SOL    HW2  900   0.051   1.116   2.961  0.4411  0.4073  1.4863
  301SOL     OW  901   1.889   0.898   2.353 -0.1335  0.0543 -0.4813
  301SOL    HW1  902   1.910   0.822   2.287  1.1260 -2.4142  2.2905
  301SOL    HW2  903   1.981   0.925   2.399  5.0163  0.1673  3.1980
  302SOL     OW  904   2.449   1.774   2.826 -0.5359 -0.0191 -0.3742
  302SOL    HW1  905   2.355   1.779   2.778 -3.7472  0.4188 -4.7425
  302SOL    HW2  906   2.491   1.864   2.809  0.0918 -0.2257  0.3086
  303SOL     OW  907   0.298   2.305   2.742 -0.3421 -0.0549  0.3247
  303SOL    HW1  908   0.389   2.290   2.704 -0.7800 -0.5002  0.0104
  303SOL    HW2  909   0.276   2.229   2.809 -0.6292 -0.4256 -0.7912
  304SOL     OW  910   0.267   1.632   1.375  0.9022  0.4753 -0.0563
  304SOL    HW1  911   0.251   1.698   1.454 -0.2504 -1.5474  2.1463
  304SOL    HW2  912   0.343   1.567   1.408  0.4693 -1.1348  1.6284
  305SOL     OW  913   2.476   0.768   2.187  0.4568  0.0400 -0.4028
  305SOL    HW1  914   2.418   0.689   2.152 -0.2535  0.0766 -2.2859
  305SOL    HW2  915   2.545   0.735   2.253 -2.7309  3.7070 -1.9822
  306SOL     OW  916   1.916   1.322   1.426  0.0410  0.4601  0.0716
  306SOL    HW1  917   1.892   1.222   1.411  0.7981 -0.0104 -0.8339
  306SOL    HW2  918   2.001   1.348   1.378 -1.7307 -0.0777 -0.7990
  307SOL     OW  919   3.043   0.314   0.847 -0.0553  0.1161  0.0655
  307SOL    HW1  920   3.072   0.287   0.755 -2.3757 -0.6071  1.7172
  307SOL    HW2  921   3.047   0.416   0.863 -0.1097 -1.0678 -1.0458
  308SOL     OW  922   0.005   1.643   1.565  0.2554  0.1619 -0.8316
  308SOL    HW1  923   0.089   1.700   1.573  0.8681  1.1006  0.3019
  308SOL    HW2  924   0.019   1.570   1.636  0.1419 -0.3114  0.9322
  309SOL     OW  925   2.327   2.291   1.776  0.1015  0.3207 -0.1172
  309SOL    HW1  926   2.302   2.353   1.698 -0.3741 -1.1400  1.1623
  309SOL    HW2  927   2.323   2.337   1.867  0.1968 -0.2768 -1.0415
  310SOL     OW  928   2.260   1.296   2.671  0.6085 -0.0546  0.5369
  310SOL    HW1  929   2.253   1.367   2.747  0.4555 -0.6351 -1.0147
  310SOL    HW2  930   2.224   1.205   2.706 -1.5474 -1.5313 -0.6092
  311SOL     OW  931   1.594   1.260   3.048 -0.1014  0.5300  0.1318
  311SOL    HW1  932   1.538   1.226   0.041  0.0835  0.0522  2.2593
  311SOL    HW2  933   1.595   1.200   2.963 -0.2841 -1.4802 -0.3039
  312SOL     OW  934   0.975   2.091   2.289 -0.1234 -0.7729  0.3743
  312SOL    HW1  935   0.968   2.126   2.193  0.5490 -0.0413 -0.7596
  312SOL    HW2  936   1.066   2.120   2.329  1.2050  2.0683 -1.6510
  313SOL     OW  937   0.237   0.399   0.953 -0.3531  0.1641  0.2084
  313SOL    HW1  938   0.159   0.451   0.921  0.0568 -0.1094  1.4030
  313SOL    HW2  939   0.227   0.368   1.048  1.3545  1.8316 -1.3547
  314SOL     OW  940   0.569   1.950   1.142  0.2793 -0.7305 -0.0901
  314SOL    HW1  941   0.593   2.026   1.214  0.0480  1.7862  2.8321
  314SOL    HW2  942   0.560   1.864   1.196 -0.0842  0.1262  2.1866
  315SOL     OW  943   0.462   2.127   2.100  0.0329 -0.0501 -0.1018
  315SOL    HW1  944   0.408   2.207   2.063 -0.0161  0.5796 -2.1604
  315SOL    HW2  945   0.412   2.077   2.174 -0.6638 -2.4978 -1.3191
  316SOL     OW  946   0.469   2.598   0.715  0.0963  0.4046 -0.7064
  316SOL    HW1  947   0.382   2.615   0.666  0.6342 -0.8274  1.6200
  316SOL    HW2  948   0.443   2.602   0.815  0.6080  0.4078 -0.0473
  317SOL     OW  949   2.809   0.011   1.556  0.2556  0.1136 -0.0840
  317SOL    HW1  950   2.772   0.088   1.499 -2.6107  0.7770 -2.2173
  317SOL    HW2  951   2.804   3.014   1.507  1.2497  2.5523  1.8421
  318SOL     OW  952   2.063   2.414   0.166 -0.3743  0.0758  0.1744
  318SOL    HW1  953   2.159   2.435   0.139 -1.7792  0.7068  2.2730
  318SOL    HW2  954   2.035   2.471   0.248 -0.5051  0.2821 -2.1506
  319SOL     OW  955   1.391   1.115   2.666 -0.1303 -0.2701  0.6210
  319SOL    HW1  956   1.360   1.147   2.757  1.6759  0.6242 -0.6493
  319SOL    HW2  957   1.424   1.019   2.670  0.2310 -2.6913 -1.5248
  320SOL     OW  958   0.121   2.381   2.309  0.0116 -0.1246 -0.0605
  320SOL    HW1  959   0.160   2.444   2.238 -0.7314  0.6859  2.3475
  320SOL    HW2  960   0.024   2.366   2.295 -0.5384 -0.8756  3.2728
  321SOL     OW  961   0.810   2.368   0.138 -0.2333 -0.5356  0.4981
  321SOL    HW1  962   0.896   2.407   0.108 -1.0629 -1.1284  0.1276
  321SOL    HW2  963   0.722   2.425   0.131 -0.7430  1.9240 -1.6944
  322SOL     OW  964   2.482   0.561   2.439  0.4117  0.9952  0.1622
  322SOL    HW1  965   2.467   0.641   2.501  0.3762 -1.3798 -0.5993
  322SOL    HW2  966   2.400   0.499   2.441 -0.7834 -0.1404  2.0606
  323SOL     OW  967   2.844   1.252   0.838  0.2857  0.0733  0.2259
  323SOL    HW1  968   2.845   1.276   0.937 -1.9315 -0.1725  1.4460
  323SOL    HW2  969   2.773   1.182   0.814 -1.8205 -1.9678  0.5022
  324SOL     OW  970   0.149   0.598   1.578  0.1068 -0.7953  0.3931
  324SOL    HW1  971   0.129   0.694   1.619 -1.6545  2.0641 -0.7017
  324SOL    HW2  972   0.121   0.520   1.635  0.2053  2.3721 -3.2731
  325SOL     OW  973   0.103   3.050   1.820  0.2487  0.7483 -0.9387
  325SOL    HW1  974   0.043   0.021   1.757 -1.4720 -0.5312  1.1723
  325SOL    HW2  975   0.200   3.072   1.817 -0.0535  1.1605  2.1991
  326SOL     OW  976   1.995   2.941   0.293 -0.1987 -0.1535 -0.6830
  326SOL    HW1  977   2.094   2.941   0.266  1.3841 -0.6365 -0.3128
  326SOL    HW2  978   1.938   2.892   0.219  0.8313  0.1576 -0.8398
  327SOL     OW  979   2.080   1.555   0.559 -0.8065  0.8300  0.2561
  327SOL    HW1  980   2.000   1.603   0.525 -2.1635 -2.5032 -2.5188
  327SOL    HW2  981   2.119   1.502   0.479  1.8153  0.3352 -0.8667
  328SOL     OW  982   3.029   2.002   2.439  0.4486  0.1832  0.1400
  328SOL    HW1  983   3.017   1.965   2.536  0.6594 -0.1958 -2.3209
  328SOL    HW2  984   0.018   2.070   2.430 -0.6150 -1.8599  0.7727
  329SOL     OW  985   0.296   2.303   1.466 -0.0739  0.1763  0.2897
  329SOL    HW1  986   0.364   2.321   1.388  1.0032 -0.8590  0.0578
  329SOL    HW2  987   0.335   2.264   1.552  0.8069 -0.1959  2.2867
  330SOL     OW  988   2.474   1.274   2.494 -0.1826  0.1978 -0.3429
  330SOL    HW1  989   2.521   1.188   2.494 -0.7546  2.6571 -1.2784
  330SOL    HW2  990   2.397   1.271   2.560 -0.6847  0.4230 -1.8267
  331SOL     OW  991   2.693   2.367   1.139 -0.3213  0.4579 -0.2415
  331SOL    HW1  992   2.739   2.325   1.218 -1.0995 -0.3403 -2.3518
  331SOL    HW2  993   2.690   2.471   1.138  1.2760  0.0324 -1.2581
  332SOL     OW  994   0.716   2.973   0.741 -0.1759  0.0540  0.3858
  332SOL    HW1  995   0.622   2.960   0.771 -1.0208 -1.5276  1.4901
  332SOL    HW2  996   0.786   2.932   0.802  0.8993 -1.5438 -0.6996
  333SOL     OW  997   2.212   2.022   2.698 -0.2699 -0.4609 -0.1622
  333SOL    HW1  998   2.121   2.063   2.691  3.8034 -0.5800  2.6468
  333SOL    HW2  999   2.282   2.061   2.635  0.0902 -0.9268  1.0053
  334SOL     OW 1000   0.527   1.232   0.690  0.5002  0.3531 -0.2157
  334SOL    HW1 1001   0.428   1.254   0.691  1.8246 -0.2177 -1.7227
  334SOL    HW2 1002   0.576   1.263   0.774 -1.1014 -0.4494 -4.5635
  335SOL     OW 1003   2.788   2.049   2.347 -0.4158  0.2001 -0.0309
  335SOL    HW1 1004   2.879   2.018   2.379  2.5856 -0.0698  1.0966
  335SOL    HW2 1005   2.724   2.075   2.418  1.4750 -1.3988  0.0647
  336SOL     OW 1006   2.392   2.764   2.365  0.2717  0.3978  0.1386
  336SOL    HW1 1007   2.440   2.849   2.392  0.6680 -0.7565  0.6396
  336SOL    HW2 1008   2.299   2.757   2.409 -0.5699  0.8632  1.8784
  337SOL     OW 1009   0.782   0.754   0.851 -0.8927 -0.3709 -0.1169
  337SOL    HW1 1010   0.851   0.677   0.859  1.6382 -3.4431  1.6635
  337SOL    HW2 1011   0.813   0.831   0.789  2.3005 -0.5927 -0.2203
  338SOL     OW 1012   1.184   1.901   1.068  0.2043  0.0695  0.1162
  338SOL    HW1 1013   1.120   1.919   1.143  0.5725 -2.1492  0.0863
  338SOL    HW2 1014   1.145   1.943   0.983  0.8520 -0.2484 -2.1077
  339SOL     OW 1015   0.204   1.828   1.549  0.2189 -0.3812 -0.0314
  339SOL    HW1 1016   0.172   1.905   1.489 -0.6872  2.6582 -0.5974
  339SOL    HW2 1017   0.237   1.871   1.636  1.0581  1.6351  1.5988
  340SOL     OW 1018   1.366   2.539   1.741 -0.0693  0.3695  0.1181
  340SOL    HW1 1019   1.449   2.513   1.789  0.8234 -0.2577  0.4562
  340SOL    HW2 1020   1.292   2.574   1.801  2.7104  4.6080  0.3051
  341SOL     OW 1021   1.623   1.552   1.126  0.4845  0.5077  0.0430
  341SOL    HW1 1022   1.577   1.638   1.135  2.3522 -0.9718  1.4839
  341SOL    HW2 1023   1.709   1.545   1.185  0.6215  1.0412  0.8390
  342SOL     OW 1024   2.511   1.537   1.046 -0.0316  0.1115 -0.2565
  342SOL    HW1 1025   2.566   1.594   1.108 -0.7505 -3.3706  0.7197
  342SOL    HW2 1026   2.568   1.522   0.962  3.2288 -2.5117 -0.2783
  343SOL     OW 1027   2.452   0.382   1.028 -0.0831 -0.2060  0.4864
  343SOL    HW1 1028   2.494   0.466   0.985  2.4656  1.2233  2.1598
  343SOL    HW2 1029   2.379   0.350   0.966  1.2151 -0.8071  0.9491
  344SOL     OW 1030   2.151   0.200   0.578  0.2951 -0.5012 -0.2066
  344SOL    HW1 1031   2.115   0.277   0.635  1.0928  0.2031  0.2164
  344SOL    HW2 1032   2.150   0.112   0.628  0.3968  0.9038 -1.4975
  345SOL     OW 1033   0.816   2.750   1.855  0.1664  0.3537 -0.5193
  345SOL    HW1 1034   0.773   2.670   1.906 -2.2056  0.0591  1.9401
  345SOL    HW2 1035   0.814   2.730   1.756  1.4181 -0.5404 -1.4574
  346SOL     OW 1036   2.595   2.068   0.706 -0.5286  0.2709 -0.3542
  346SOL    HW1 1037   2.690   2.073   0.738 -0.1072  1.2878  0.9165
  346SOL    HW2 1038   2.568   2.162   0.708 -0.5725 -1.0935 -0.5460
  347SOL     OW 1039   2.509   2.824   1.290 -0.3719 -0.1018 -0.1295
  347SOL    HW1 1040   2.419   2.791   1.323  3.9480 -0.3779 -0.5213
  347SOL    HW2 1041   2.500   2.906   1.235  1.1656 -0.2620 -1.2995
  348SOL     OW 1042   1.151   1.042   1.304 -0.0513  0.5398  0.0887
  348SOL    HW1 1043   1.234   1.060   1.245  3.3496 -1.6090  2.4618
  348SOL    HW2 1044   1.152   0.942   1.316  1.6223  2.6631 -0.6874
  349SOL     OW 1045   2.115   0.598   2.330  0.3738  0.6047  0.1711
  349SOL    HW1 1046   2.118   0.500   2.303  0.2689  0.3278 -0.0991
  349SOL    HW2 1047   2.040   0.648   2.285 -0.1133  0.1654 -0.8344
  350SOL     OW 1048   1.987   2.554   0.408 -0.8176  0.5201 -0.2307
  350SOL    HW1 1049   2.070   2.617   0.402 -0.6652  0.5442 -0.2486
  350SOL    HW2 1050   1.985   2.501   0.497 -2.4653  0.2965 -0.2767
  351SOL     OW 1051   1.274   0.248   3.058  0.4373  0.0329  0.3083
  351SOL    HW1 1052   1.371   0.269   3.038  3.2358 -1.5315 -0.4955
  351SOL    HW2 1053   1.221   0.333   3.041 -1.6116 -0.2299 -0.2535
  352SOL     OW 1054   2.014   2.589   2.334  0.4984 -0.5011 -0.0261
  352SOL    HW1 1055   1.973   2.532   2.405  0.9336  1.0007  0.3305
  352SOL    HW2 1056   1.933   2.612   2.271 -1.8438  0.2061 -2.6643
  353SOL     OW 1057   0.539   0.814   2.527  0.4131 -0.0165  0.0112
  353SOL    HW1 1058   0.485   0.886   2.478 -2.4172 -2.0880  1.7627
  353SOL    HW2 1059   0.631   0.793   2.484  2.0096 -0.5792 -0.4385
  354SOL     OW 1060   0.356   2.828   2.608 -0.4351 -0.3919 -0.1046
  354SOL    HW1 1061   0.339   2.760   2.534 -0.6151  2.1340 -0.6755
  354SOL    HW2 1062   0.401   2.792   2.696  1.8284  0.2656  1.1732
  355SOL     OW 1063   2.263   2.687   1.297 -0.1361  0.6421  0.1554
  355SOL    HW1 1064   2.192   2.725   1.360 -1.1933  0.1047 -2.4844
  355SOL    HW2 1065   2.277   2.590   1.313 -3.9913  0.6320 -1.4943
  356SOL     OW 1066   2.529   0.728   0.421  0.3787  0.2725 -0.2211
  356SOL    HW1 1067   2.592   0.805   0.404  3.8560 -3.1936  2.0586
  356SOL    HW2 1068   2.502   0.694   0.329  4.3561  0.2290  2.0125
  357SOL     OW 1069   3.030   0.115   1.658  0.1736 -0.6098 -0.1569
  357SOL    HW1 1070   3.012   0.219   1.646 -1.4982  1.7164 -2.3964
  357SOL    HW2 1071   2.957   0.065   1.611 -1.1256  2.5092  1.5160
  358SOL     OW 1072   2.936   1.675   1.352 -0.0439 -0.4233  0.0050
  358SOL    HW1 1073   2.986   1.642   1.435  0.0621  1.7276  0.0418
  358SOL    HW2 1074   2.860   1.737   1.382 -0.6270  2.5259 -0.9523
  359SOL     OW 1075   2.423   2.892   2.748 -0.0132 -0.1639  0.0693
  359SOL    HW1 1076   2.461   2.904   2.653 -1.7306 -0.5457  1.0491
  359SOL    HW2 1077   2.443   2.974   2.805 -1.9945 -0.3750  0.8989
  360SOL     OW 1078   1.244   0.570   1.385  0.0936 -0.1470 -0.6564
  360SOL    HW1 1079   1.170   0.509   1.419 -3.5531  0.2589 -0.4005
  360SOL    HW2 1080   1.272   0.634   1.460 -1.7068 -1.6077 -1.3587
  361SOL     OW 1081   2.593   2.502   1.416 -0.1574 -0.0930  0.5744
  361SOL    HW1 1082   2.639   2.466   1.500 -1.2819  0.1310 -1.3264
  361SOL    HW2 1083   2.654   2.518   1.336  0.6609 -1.0101  1.2586
  362SOL     OW 1084   1.500   0.489   0.732  0.7989 -0.5762 -0.5874
  362SOL    HW1 1085   1.469   0.540   0.651  1.2793 -1.1559 -1.5209
  362SOL    HW2 1086   1.493   0.391   0.714  1.2964  1.1037 -0.6640
  363SOL     OW 1087   1.689   1.384   0.896 -0.1469  0.0177 -0.1876
  363SOL    HW1 1088   1.726   1.423   0.810 -1.3607 -2.5166  0.5205
  363SOL    HW2 1089   1.643   1.453   0.953  1.1594  0.8759  2.1621
  364SOL     OW 1090   0.322   1.041   1.808  0.0210 -0.0776 -0.0156
  364SOL    HW1 1091   0.386   0.961   1.794 -0.2626  1.2185 -0.1429
  364SOL    HW2 1092   0.289   1.077   1.721 -1.1460 -0.8523  0.6968
  365SOL     OW 1093   2.833   0.609   1.073 -0.5418  0.0719 -0.2411
  365SOL    HW1 1094   2.925   0.600   1.121 -1.0391  2.1406 -0.6659
  365SOL    HW2 1095   2.835   0.694   1.021  1.6832 -2.1319 -1.6791
  366SOL     OW 1096   2.728   1.186   0.471 -0.0148  0.2192  0.5331
  366SOL    HW1 1097   2.711   1.194   0.372 -1.0175  0.7252  2.4829
  366SOL    HW2 1098   2.788   1.257   0.505 -2.3538 -1.8925  1.1508
  367SOL     OW 1099   2.175   1.999   2.315  0.6481 -0.4589  0.0346
  367SOL    HW1 1100   2.143   2.079   2.265  2.7263 -3.5409  2.6559
  367SOL    HW2 1101   2.233   2.036   2.389 -1.5440 -1.4323 -0.6374
  368SOL     OW 1102   2.361   2.150   1.262  0.1238  0.4163 -0.1053
  368SOL    HW1 1103   2.364   2.117   1.356  0.6000  4.5790 -0.9033
  368SOL    HW2 1104   2.341   2.075   1.196 -2.6104 -0.4533  2.7231
  369SOL     OW 1105   2.155   3.057   2.805 -0.0522 -0.4417 -0.6441
  369SOL    HW1 1106   2.080   2.994   2.835 -2.6951 -0.9368 -1.6717
  369SOL    HW2 1107   2.229   3.077   2.873  0.5980  1.2498 -1.4542
  370SOL     OW 1108   0.738   0.308   1.066  0.4184 -0.4020 -0.0542
  370SOL    HW1 1109   0.645   0.318   1.018  1.8415  1.2748 -0.6782
  370SOL    HW2 1110   0.774   0.216   1.049 -1.8708  1.3557  1.0441
  371SOL     OW 1111   0.368   1.609   0.226 -0.0199 -0.1943  0.4124
  371SOL    HW1 1112   0.352   1.583   0.129 -1.2882  0.1833 -2.5221
  371SOL    HW2 1113   0.460   1.655   0.233  1.8003  0.1216  2.5750
  372SOL     OW 1114   0.485   0.612   2.736 -0.5315  0.7605  0.0843
  372SOL    HW1 1115   0.477   0.515   2.701 -0.6383 -0.6505 -0.6209
  372SOL    HW2 1116   0.504   0.677   2.655 -0.4668 -0.6904 -2.2955
  373SOL     OW 1117   1.218   2.921   2.870 -0.1281  0.1399 -0.1319
  373SOL    HW1 1118   1.134   2.936   2.808 -1.9684  2.0116 -0.2218
  373SOL    HW2 1119   1.295   2.888   2.817  0.3031  1.5256  2.8976
  374SOL     OW 1120   1.000   1.770   0.437 -0.1155  0.6322 -0.3815
  374SOL    HW1 1121   1.039   1.757   0.533 -1.9811 -2.9730  3.3079
  374SOL    HW2 1122   1.029   1.695   0.370  1.3810  2.2847  1.6540
  375SOL     OW 1123   0.583   0.679   1.927  0.0128  0.2125 -0.2580
  375SOL    HW1 1124   0.559   0.695   2.028  1.0339 -1.2608  3.6881
  375SOL    HW2 1125   0.681   0.697   1.914  0.1267 -1.3438  0.9237
  376SOL     OW 1126   0.105   2.467   1.548 -0.1777  0.2489 -0.1023
  376SOL    HW1 1127   0.170   2.395   1.515 -0.0475 -0.1709  2.4124
  376SOL    HW2 1128   0.136   2.505   1.635 -1.5720  0.0619 -0.7775
  377SOL     OW 1129   2.836   1.582   2.902  0.1603  0.1622  0.1869
  377SOL    HW1 1130   2.785   1.609   2.819 -0.0625 -0.5199  1.7747
  377SOL    HW2 1131   2.884   1.494   2.884  0.5778  1.6927 -1.5024
  378SOL     OW 1132   1.972   2.913   2.936  0.2067 -0.3820  0.1312
  378SOL    HW1 1133   1.927   2.908   3.029  1.6999 -0.8299  1.4996
  378SOL    HW2 1134   1.979   2.816   2.908 -0.4861 -0.6227  0.8624
  379SOL     OW 1135   1.771   0.373   0.608 -0.2567  0.1423 -0.1829
  379SOL    HW1 1136   1.768   0.274   0.615  0.0476  3.0665 -0.4108
  379SOL    HW2 1137   1.756   0.416   0.697 -0.0236 -1.5046  0.1349
  380SOL     OW 1138   2.742   2.019   1.787 -0.4272 -0.4692 -0.3916
  380SOL    HW1 1139   2.811   1.943   1.769  1.1269 -1.0004  0.4690
  380SOL    HW2 1140   2.685   2.011   1.876 -2.0866 -0.2350  2.0597
  381SOL     OW 1141   2.206   1.450   2.458  0.3916 -0.3443  0.5224
  381SOL    HW1 1142   2.280   1.499   2.405  1.6171 -1.4405 -1.1541
  381SOL    HW2 1143   2.236   1.409   2.546 -1.2872 -0.8586  1.1167
  382SOL     OW 1144   2.834   2.851   2.789 -0.0521  0.3578  0.1357
  382SOL    HW1 1145   2.794   2.754   2.798 -1.4037 -0.0648 -0.4714
  382SOL    HW2 1146   2.834   2.872   2.691  0.1018  1.9353 -1.5379
  383SOL     OW 1147   0.926   1.243   3.043  0.3539 -0.5018  0.0913
  383SOL    HW1 1148   0.876   1.173   2.994  0.6622  2.6135  0.4189
  383SOL    HW2 1149   0.941   1.319   2.986 -1.7399 -2.3491  0.2061
  384SOL     OW 1150   1.388   2.013   1.480  0.7554  0.2463  0.1762
  384SOL    HW1 1151   1.323   2.086   1.508 -2.9232 -1.6312  1.1113
  384SOL    HW2 1152   1.347   1.963   1.401 -3.5989 -2.3159 -0.3786
  385SOL     OW 1153   1.909   2.704   0.765  0.0726 -0.6644  0.2606
  385SOL    HW1 1154   1.901   2.775   0.693 -0.0513 -0.1771  2.9019
  385SOL    HW2 1155   1.888   2.742   0.856  0.9115 -2.1215  1.6632
  386SOL     OW 1156   1.738   1.710   0.845  0.3491  0.0626 -0.1198
  386SOL    HW1 1157   1.810   1.782   0.848  1.0826  1.8265  0.3263
  386SOL    HW2 1158   1.756   1.643   0.772 -0.1923 -0.6907 -0.5910
  387SOL     OW 1159   2.802   2.257   1.399  0.6540  0.0568  0.2310
  387SOL    HW1 1160   2.850   2.314   1.468 -0.6471  2.4400 -0.9322
  387SOL    HW2 1161   2.722   2.209   1.448  0.2625 -1.7084  0.4993
  388SOL     OW 1162   2.853   0.990   1.703 -0.4955  0.0631  0.4891
  388SOL    HW1 1163   2.922   1.026   1.634  0.1348 -0.3768 -0.8041
  388SOL    HW2 1164   2.882   0.898   1.737  1.7319  1.5008 -2.5758
  389SOL     OW 1165   2.189   0.729   0.250 -0.2347 -0.0886 -0.3628
  389SOL    HW1 1166   2.159   0.659   0.319 -2.2351  0.2618  0.1139
  389SOL    HW2 1167   2.278   0.707   0.205 -2.8716 -1.2469  0.4171
  390SOL     OW 1168   1.169   1.631   2.815  0.0847 -0.0585 -0.5709
  390SOL    HW1 1169   1.219   1.719   2.814 -3.2357 -1.0963  1.9054
  390SOL    HW2 1170   1.194   1.578   2.736  2.7649  2.3359  5.5367
  391SOL     OW 1171   1.388   2.100   2.925  0.1420 -0.2817 -0.3618
  391SOL    HW1 1172   1.450   2.174   2.968  3.0846  1.6764 -2.6425
  391SOL    HW2 1173   1.297   2.100   2.972  0.3147 -0.4107 -1.7516
  392SOL     OW 1174   0.162   2.541   1.804  0.3766 -0.0015  0.0987
  392SOL    HW1 1175   0.242   2.559   1.861 -4.1378 -1.5531 -1.5328
  392SOL    HW2 1176   0.098   2.476   1.855  0.5393  0.6864 -0.1477
  393SOL     OW 1177   1.285   2.290   0.121  0.0382 -0.3981  0.2193
  393SOL    HW1 1178   1.300   2.232   0.205  1.2107 -1.7291 -2.1094
  393SOL    HW2 1179   1.368   2.314   0.073 -2.5029  0.8991  1.7184
  394SOL     OW 1180   0.474   0.397   2.573 -0.0827 -0.0990 -0.3921
  394SOL    HW1 1181   0.563   0.437   2.555  0.8997  0.4591  1.5855
  394SOL    HW2 1182   0.486   0.305   2.610 -1.6541  3.6109 -2.8874
  395SOL     OW 1183   0.447   1.324   1.055  0.9140  0.0151  0.0190
  395SOL    HW1 1184   0.516   1.315   0.979  0.7092 -0.2904 -0.8767
  395SOL    HW2 1185   0.371   1.256   1.036 -1.1296 -1.5832  0.3608
  396SOL     OW 1186   1.790   1.133   2.193 -0.4870  0.2348  0.0300
  396SOL    HW1 1187   1.692   1.142   2.201  1.6927 -1.2608 -1.6959
  396SOL    HW2 1188   1.833   1.062   2.246  1.4531 -1.7674 -1.9769
  397SOL     OW 1189   0.831   0.394   0.274  0.3815 -0.0899  0.1504
  397SOL    HW1 1190   0.731   0.415   0.270  0.1835 -0.0055  1.0399
  397SOL    HW2 1191   0.861   0.366   0.367  1.9171 -1.8793  1.6194
  398SOL     OW 1192   1.057   2.368   2.845 -0.5951  0.4304 -0.3643
  398SOL    HW1 1193   1.134   2.407   2.792  0.8553  0.1990  0.3565
  398SOL    HW2 1194   1.054   2.405   2.939  0.0732  0.4539  1.1727
  399SOL     OW 1195   1.470   1.968   2.280  0.5311 -0.1195  0.5211
  399SOL    HW1 1196   1.451   1.888   2.341 -0.5054  1.1599  0.2551
  399SOL    HW2 1197   1.513   1.930   2.193 -1.9717 -0.8406 -2.3998
  400SOL     OW 1198   2.094   1.608   1.499  0.2902  0.1418 -0.3131
  400SOL    HW1 1199   2.101   1.580   1.398  1.3124 -1.5681 -1.7072
  400SOL    HW2 1200   2.107   1.530   1.562 -0.5719  0.0647 -0.2394
  401SOL     OW 1201   1.360   1.137   0.873  0.3680 -0.7095  0.3426
  401SOL    HW1 1202   1.352   1.218   0.815  1.0905  0.6497 -0.7291
  401SOL    HW2 1203   1.397   1.054   0.827  0.1566  0.4908  2.1904
  402SOL     OW 1204   3.057   2.681   2.152 -0.0764  0.2183  0.3467
  402SOL    HW1 1205   0.007   2.708   2.063 -1.6187 -2.7950  2.4742
  402SOL    HW2 1206   0.020   2.730   2.226 -1.3263 -3.4906 -0.6239
  403SOL     OW 1207   2.897   1.834   1.658  0.1896 -0.5523  0.0930
  403SOL    HW1 1208   2.903   1.920   1.606  0.8800 -0.5734  4.0305
  403SOL    HW2 1209   2.980   1.772   1.651  1.2443 -1.5872 -0.0838
  404SOL     OW 1210   2.074   1.869   1.228  0.1799  0.0528 -0.0882
  404SOL    HW1 1211   2.007   1.906   1.297 -0.6014 -0.7500 -1.7247
  404SOL    HW2 1212   2.144   1.937   1.208  0.3919  0.4595 -0.4918
  405SOL     OW 1213   2.583   0.418   2.830 -0.6760  0.2393 -0.4913
  405SOL    HW1 1214   2.652   0.426   2.912 -0.1784 -0.0922 -0.4800
  405SOL    HW2 1215   2.631   0.445   2.744  1.9512 -0.8165  1.7298
  406SOL     OW 1216   0.904   1.545   2.504  0.1099 -0.8080  0.7917
  406SOL    HW1 1217   0.869   1.624   2.558 -0.1640 -2.0789  0.0271
  406SOL    HW2 1218   0.928   1.574   2.408 -3.0423  1.2102 -2.9398
  407SOL     OW 1219   1.829   2.885   0.062 -0.1023 -0.5278  0.4033
  407SOL    HW1 1220   1.777   2.793   0.062 -1.0270 -2.6416  3.0394
  407SOL    HW2 1221   1.775   2.962   0.102  0.6041 -2.3234  1.4612
  408SOL     OW 1222   0.408   2.970   0.782  0.0244 -0.3566  0.2556
  408SOL    HW1 1223   0.410   3.010   0.688  1.0861 -1.7236 -1.7597
  408SOL    HW2 1224   0.313   2.932   0.802 -1.1723 -4.2976  0.6553
  409SOL     OW 1225   2.209   2.063   0.787 -0.5826  0.1476  0.6201
  409SOL    HW1 1226   2.171   1.980   0.753 -1.4645  1.9614  1.5180
  409SOL    HW2 1227   2.251   2.118   0.709  0.9134 -0.1553 -0.8895
  410SOL     OW 1228   2.090   1.931   2.979 -0.4943  0.3237  0.5265
  410SOL    HW1 1229   2.172   1.900   3.032  0.7483  0.1943 -0.4485
  410SOL    HW2 1230   2.124   1.941   2.885 -0.1969  0.5689 -0.6019
  411SOL     OW 1231   0.198   0.296   0.546 -0.1015 -0.1242 -0.4308
  411SOL    HW1 1232   0.290   0.311   0.510 -1.6640  2.8938  2.3358
  411SOL    HW2 1233   0.198   0.243   0.634 -2.5348  0.1378  2.0804
  412SOL     OW 1234   1.678   2.682   0.140 -0.0777 -0.5287  0.3428
  412SOL    HW1 1235   1.689   2.643   0.232  2.1144  0.2933 -0.5837
  412SOL    HW2 1236   1.581   2.699   0.117  0.2313 -2.5113  0.4427
  413SOL     OW 1237   1.770   0.479   2.081  0.5689 -0.2128  0.0357
  413SOL    HW1 1238   1.798   0.515   1.989  1.0534  1.2366  3.0411
  413SOL    HW2 1239   1.736   0.382   2.079  0.0189 -1.5879  0.9295
  414SOL     OW 1240   3.009   0.248   0.539 -0.1938  0.1065  0.2583
  414SOL    HW1 1241   2.977   0.347   0.537  1.3231  0.9919 -3.1733
  414SOL    HW2 1242   0.017   0.244   0.520 -2.3503  0.0793  1.1485
  415SOL     OW 1243   0.609   1.720   1.281  0.6288 -0.0964  0.0435
  415SOL    HW1 1244   0.587   1.768   1.368 -0.3730  0.0183 -0.2040
  415SOL    HW2 1245   0.567   1.624   1.284 -2.5929 -2.7405  1.8992
  416SOL     OW 1246   0.226   2.937   0.176 -0.5401  0.5038  0.4398
  416SOL    HW1 1247   0.218   3.014   0.105  1.3451 -0.2920 -2.8091
  416SOL    HW2 1248   0.272   2.855   0.132  0.4843  1.1204 -2.4116
  417SOL     OW 1249   2.626   3.022   1.028  0.2179  0.4642 -0.7426
  417SOL    HW1 1250   2.530   3.008   1.061  1.4350  1.4967  0.4290
  417SOL    HW2 1251   2.643   0.032   1.031 -3.3759  0.7079 -3.6570
  418SOL     OW 1252   0.548   0.138   2.625  0.8873 -0.0449 -0.1904
  418SOL    HW1 1253   0.542   0.177   2.723  2.5672  1.8841  1.3573
  418SOL    HW2 1254   0.462   0.099   2.593  1.1895  0.0972 -1.1048
  419SOL     OW 1255   0.270   1.270   0.745 -0.0813  0.4124 -0.1237
  419SOL    HW1 1256   0.195   1.256   0.680  0.2823  2.7088  1.6516
  419SOL    HW2 1257   0.255   1.232   0.839  0.6193  2.4801 -0.9513
  420SOL     OW 1258   1.722   2.022   0.862  0.2976  0.7063  0.3407
  420SOL    HW1 1259   1.664   2.045   0.780 -0.2139 -2.1793 -1.7177
  420SOL    HW2 1260   1.808   1.968   0.845 -0.3356  1.8505  0.7968
  421SOL     OW 1261   1.834   2.038   2.439 -0.4140  0.4949 -0.5546
  421SOL    HW1 1262   1.797   1.943   2.432  0.9771  1.4905 -0.6457
  421SOL    HW2 1263   1.767   2.102   2.474  1.0705 -1.4012  0.6108
  422SOL     OW 1264   2.956   0.827   2.953 -0.1089  0.0807 -0.0706
  422SOL    HW1 1265   3.012   0.747   2.911  2.7547 -2.6800  0.3712
  422SOL    HW2 1266   2.908   0.795   3.039 -0.0047 -2.5337  2.8831
  423SOL     OW 1267   1.408   2.004   0.854  0.3416 -0.0568  0.7966
  423SOL    HW1 1268   1.374   1.917   0.889 -0.8222  2.5844  0.9069
  423SOL    HW2 1269   1.507   2.003   0.840  0.9213  0.5554 -1.3602
  424SOL     OW 1270   0.497   1.458   1.490 -0.3965 -0.7171  0.4498
  424SOL    HW1 1271   0.440   1.396   1.543  1.7586 -1.2531 -2.2863
  424SOL    HW2 1272   0.550   1.523   1.548  1.8284  0.3837  0.1955
  425SOL     OW 1273   2.525   2.656   1.905 -0.2080  0.7334 -0.3499
  425SOL    HW1 1274   2.598   2.591   1.873  0.5594  1.4023 -1.1301
  425SOL    HW2 1275   2.558   2.750   1.900  2.9783 -1.3152  1.7021
  426SOL     OW 1276   1.945   2.882   0.562  0.0739  0.2053  0.1972
  426SOL    HW1 1277   1.975   2.870   0.465 -2.6169  0.1852  2.1691
  426SOL    HW2 1278   2.010   2.951   0.604 -1.4028  0.6460 -1.0126
  427SOL     OW 1279   0.610   0.689   2.980 -0.0852 -0.6392  0.2492
  427SOL    HW1 1280   0.570   0.680   2.883  0.3810 -1.8004 -1.5866
  427SOL    HW2 1281   0.535   0.691   3.049 -1.6889 -1.1082  2.1933
  428SOL     OW 1282   1.988   1.080   0.092 -0.0671 -1.2968 -0.6144
  428SOL    HW1 1283   1.949   1.032   0.177  0.1010 -3.0253  2.8037
  428SOL    HW2 1284   1.937   1.167   0.090 -2.0628 -0.1784  1.5920
  429SOL     OW 1285   2.885   0.122   0.334  0.6859 -0.3060 -0.1943
  429SOL    HW1 1286   2.942   0.174   0.403  2.7460 -0.1201 -1.8481
  429SOL    HW2 1287   2.841   0.035   0.367 -0.6258  2.2108  0.0037
  430SOL     OW 1288   0.762   2.977   2.033  0.1624  0.8898  0.0273
  430SOL    HW1 1289   0.759   3.065   1.982  0.2990 -0.7210 -0.0412
  430SOL    HW2 1290   0.757   2.902   1.962 -0.0491 -0.4339 -0.6870
  431SOL     OW 1291   2.722   1.472   1.283 -0.0865  0.1441 -0.5320
  431SOL    HW1 1292   2.661   1.504   1.363 -2.5015  0.2476  3.0760
  431SOL    HW2 1293   2.813   1.513   1.285  2.4877  0.1701  2.4359
  432SOL     OW 1294   1.922   2.488   1.925  0.3401 -0.4167  0.2443
  432SOL    HW1 1295   1.988   2.414   1.928 -2.4266  1.3818 -2.5280
  432SOL    HW2 1296   1.912   2.545   2.010  3.0831  3.4197 -1.8528
  433SOL     OW 1297   1.049   1.750   3.067 -0.0255 -0.3183 -0.7723
  433SOL    HW1 1298   1.003   1.696   0.045  0.4352  1.9174 -0.8047
  433SOL    HW2 1299   1.052   1.706   2.975 -0.3232  2.0712  0.9376
  434SOL     OW 1300   0.185   2.166   2.461  0.1150 -0.0447  0.0458
  434SOL    HW1 1301   0.168   2.260   2.427  2.6473 -1.1752 -1.0799
  434SOL    HW2 1302   0.226   2.164   2.556  0.1649 -1.0743  1.9047
  435SOL     OW 1303   0.278   0.616   0.675  0.0178  0.3559  0.6266
  435SOL    HW1 1304   0.370   0.568   0.673 -0.2285 -0.6468  0.4442
  435SOL    HW2 1305   0.296   0.712   0.656  1.5881 -0.9302  3.4243
  436SOL     OW 1306   0.377   2.744   1.720  0.2899  0.3532 -0.0327
  436SOL    HW1 1307   0.415   2.649   1.701  2.3491  0.8155 -1.5129
  436SOL    HW2 1308   0.280   2.744   1.695  2.8282 -2.2481  1.9907
  437SOL     OW 1309   0.948   2.097   1.360  0.4706  0.2329  0.0736
  437SOL    HW1 1310   0.961   2.098   1.462 -0.9513  1.1336  0.0760
  437SOL    HW2 1311   1.024   2.144   1.309  0.6368 -0.1866 -0.2148
  438SOL     OW 1312   0.077   2.016   0.773  0.0301 -0.2983 -0.6685
  438SOL    HW1 1313   0.120   2.077   0.843 -0.8961  0.9713  0.5331
  438SOL    HW2 1314   0.114   2.048   0.685 -2.4331  0.9561 -0.1656
  439SOL     OW 1315   0.228   0.362   1.233  0.2938 -0.0243  0.6130
  439SOL    HW1 1316   0.152   0.328   1.291 -1.3320  3.1392  0.5664
  439SOL    HW2 1317   0.321   0.368   1.277  0.0661 -3.0064  1.2639
  440SOL     OW 1318   2.845   2.779   2.277 -0.3247 -0.0579 -0.4343
  440SOL    HW1 1319   2.845   2.882   2.252  1.4130  2.5865 -3.0102
  440SOL    HW2 1320   2.915   2.733   2.224 -2.8911  1.7202  0.5243
  441SOL     OW 1321   2.925   0.711   1.825  0.6013 -0.2242  0.2809
  441SOL    HW1 1322   2.839   0.685   1.877 -0.5075  0.2015  1.1810
  441SOL    HW2 1323   2.922   0.667   1.733  2.4590 -1.2782  0.2889
  442SOL     OW 1324   1.819   2.304   2.898 -0.5723  0.1243 -0.8481
  442SOL    HW1 1325   1.837   2.204   2.914  1.1790  0.0437 -1.8944
  442SOL    HW2 1326   1.802   2.343   2.992 -0.2662 -0.4944  0.9405
  443SOL     OW 1327   0.490   0.703   0.159 -0.6130  0.2842  0.2879
  443SOL    HW1 1328   0.392   0.697   0.126 -1.1024  0.4060 -2.5146
  443SOL    HW2 1329   0.485   0.745   0.249  1.4279 -2.2833 -2.1035
  444SOL     OW 1330   1.321   1.486   2.058  0.4806 -0.2214 -0.0328
  444SOL    HW1 1331   1.312   1.568   1.999 -0.4735 -2.1191  1.6087
  444SOL    HW2 1332   1.240   1.424   2.055  1.0107  2.7667  0.2899
  445SOL     OW 1333   0.267   2.920   1.121 -0.1867 -0.0799 -0.5200
  445SOL    HW1 1334   0.226   3.013   1.138  1.5965  0.1634 -2.9286
  445SOL    HW2 1335   0.302   2.876   1.206  3.0405 -2.5516  0.8455
  446SOL     OW 1336   2.204   0.934   1.266  0.0654 -0.3468  0.0024
  446SOL    HW1 1337   2.227   1.029   1.236 -0.0191 -0.4829  0.5719
  446SOL    HW2 1338   2.106   0.915   1.250 -3.1048  0.7034  0.1526
  447SOL     OW 1339   0.237   0.631   0.119  0.3229  0.3461 -0.4311
  447SOL    HW1 1340   0.197   0.551   0.167  0.5500 -0.8997  1.2697
  447SOL    HW2 1341   0.238   0.615   0.017  0.0559  1.6633 -1.7813
  448SOL     OW 1342   1.238   2.216   1.609  0.1087 -0.0801  0.3812
  448SOL    HW1 1343   1.293   2.198   1.696 -0.8815 -1.0525 -1.7029
  448SOL    HW2 1344   1.207   2.315   1.609 -1.5471  1.1994 -2.4196
  449SOL     OW 1345   1.231   1.284   0.566  0.0337  0.1550  0.5379
  449SOL    HW1 1346   1.311   1.305   0.623 -0.2550  0.9388 -2.5530
  449SOL    HW2 1347   1.220   1.185   0.547 -0.5851  0.2644  3.7247
  450SOL     OW 1348   2.501   1.837   1.882  0.0464 -0.2099  0.1686
  450SOL    HW1 1349   2.501   1.843   1.983 -0.4532  1.2317 -2.4141
  450SOL    HW2 1350   2.456   1.925   1.850 -0.3964 -0.5753  1.0399
  451SOL     OW 1351   2.978   1.211   2.648  0.0276  0.6830  0.2241
  451SOL    HW1 1352   2.944   1.305   2.674  0.0732  1.1681 -0.0150
  451SOL    HW2 1353   3.024   1.170   2.730  1.6987 -0.5084 -0.8457
  452SOL     OW 1354   1.446   0.904   1.298 -0.2376 -0.7073 -0.1770
  452SOL    HW1 1355   1.371   0.890   1.362  0.7336  0.6123  0.7836
  452SOL    HW2 1356   1.417   0.978   1.233 -0.6847 -0.0859 -1.6342
  453SOL     OW 1357   2.082   1.089   1.024 -0.2141  0.5990 -0.4701
  453SOL    HW1 1358   2.161   1.148   1.045  1.9358 -0.6209 -0.3549
  453SOL    HW2 1359   1.995   1.142   1.017  1.7795 -1.1331  0.8681
  454SOL     OW 1360   2.796   0.908   0.467 -0.1448 -0.1389  0.4527
  454SOL    HW1 1361   2.854   0.902   0.388 -1.9084  2.0879  2.5603
  454SOL    HW2 1362   2.780   1.008   0.484  2.4928 -0.6406  2.5753
  455SOL     OW 1363   2.887   2.257   0.903 -0.6315 -0.1391 -0.5999
  455SOL    HW1 1364   2.926   2.163   0.901 -1.1074 -0.3812 -1.0286
  455SOL    HW2 1365   2.837   2.274   0.992 -0.8802  0.1288  1.7339
  456SOL     OW 1366   0.911   3.019   1.234  0.2712  0.5020  0.5517
  456SOL    HW1 1367   0.858   2.948   1.286  0.4216 -2.0965  0.2234
  456SOL    HW2 1368   0.967   3.061   1.303 -0.3572 -1.2519 -3.7536
  457SOL     OW 1369   1.882   2.839   1.005  0.1650 -0.5664  0.3829
  457SOL    HW1 1370   1.858   2.931   0.960  1.5190 -0.6670 -1.2737
  457SOL    HW2 1371   1.845   2.825   1.097  2.0501  2.0997 -1.6879
  458SOL     OW 1372   2.775   0.177   0.794 -0.6253  0.1153 -0.0515
  458SOL    HW1 1373   2.742   0.186   0.890 -2.2272  0.4222 -1.1687
  458SOL    HW2 1374   2.838   0.256   0.771 -0.6445  0.5656 -2.0158
  459SOL     OW 1375   2.007   0.698   0.055 -0.1624  0.2457 -0.1302
  459SOL    HW1 1376   2.002   0.777   3.079 -0.0433  0.5005 -1.1317
  459SOL    HW2 1377   2.075   0.721   0.126  2.0487 -0.4913 -0.5377
  460SOL     OW 1378   2.974   2.291   2.863  0.0047 -0.4517 -0.3384
  460SOL    HW1 1379   2.957   2.389   2.895 -0.2315 -1.5918  1.4981
  460SOL    HW2 1380   3.066   2.258   2.896  0.6144  1.4493  1.1713
  461SOL     OW 1381   0.604   1.722   0.274 -0.0724  0.4920 -0.3440
  461SOL    HW1 1382   0.649   1.760   0.362  1.7060  0.3340  3.4834
  461SOL    HW2 1383   0.673   1.677   0.216  1.2472  0.0176  2.0367
  462SOL     OW 1384   2.520   2.595   0.592 -0.8782  0.1787  0.0923
  462SOL    HW1 1385   2.610   2.649   0.602  2.5477 -0.6126  0.4832
  462SOL    HW2 1386   2.438   2.651   0.601  0.7158  1.5018 -0.0463
  463SOL     OW 1387   2.900   0.494   0.587 -0.4126 -0.0282  0.2118
  463SOL    HW1 1388   2.863   0.471   0.681  1.3997  1.8963 -1.2780
  463SOL    HW2 1389   2.950   0.585   0.595 -0.4922  0.8500  1.6114
  464SOL     OW 1390   1.031   2.666   0.204  0.5726 -0.3543  0.1307
  464SOL    HW1 1391   0.953   2.637   0.261  0.7839  0.2994 -2.8270
  464SOL    HW2 1392   1.048   2.767   0.210 -1.8913  0.8392  1.5225
  465SOL     OW 1393   2.384   1.014   0.758 -0.0256  0.6772  0.5058
  465SOL    HW1 1394   2.303   0.952   0.785 -1.8626  1.6945 -0.2355
  465SOL    HW2 1395   2.382   1.021   0.655  0.5318 -2.3838  0.5031
  466SOL     OW 1396   2.290   2.983   0.000 -0.2281  0.4498  0.3305
  466SOL    HW1 1397   2.360   3.016   3.022 -3.1342 -2.7982  2.5269
  466SOL    HW2 1398   2.287   2.878   3.083 -0.6094 -1.7769 -0.5593
  467SOL     OW 1399   1.026   0.429   1.717  0.2714 -0.4679  0.1211
  467SOL    HW1 1400   0.942   0.483   1.698 -0.2698 -1.2144  1.1604
  467SOL    HW2 1401   1.100   0.492   1.749  1.5094 -0.5017  1.0986
  468SOL     OW 1402   0.013   0.467   2.236  0.3079  0.1743 -0.1258
  468SOL    HW1 1403   0.100   0.485   2.285  1.2564  0.3470 -0.7759
  468SOL    HW2 1404   0.014   0.520   2.150 -2.5125 -0.4735 -0.0001
  469SOL     OW 1405   0.959   2.956   2.736  0.4445 -0.0901  0.4242
  469SOL    HW1 1406   0.884   2.965   2.801  2.0358 -0.3415 -1.4117
  469SOL    HW2 1407   0.937   2.966   2.639 -0.1885 -0.5324 -2.0398
  470SOL     OW 1408   1.660   1.434   2.394 -0.7095  0.2270  0.4039
  470SOL    HW1 1409   1.574   1.418   2.347 -1.6687  3.1658 -1.5428
  470SOL    HW2 1410   1.719   1.507   2.355  2.5733  1.5176  1.5235
  471SOL     OW 1411   2.765   1.040   2.738  0.4552 -0.5085 -0.2937
  471SOL    HW1 1412   2.854   1.087   2.726 -1.1853  0.7586  3.1783
  471SOL    HW2 1413   2.726   1.074   2.832  0.2791  1.9390  1.4560
  472SOL     OW 1414   0.455   2.532   0.310 -0.6831 -0.9289  0.3325
  472SOL    HW1 1415   0.475   2.633   0.317 -0.2906  0.4963  1.2898
  472SOL    HW2 1416   0.459   2.490   0.399 -1.4331 -0.1482 -1.6619
  473SOL     OW 1417   0.731   2.965   2.893  0.4368 -0.1490 -0.3713
  473SOL    HW1 1418   0.639   3.007   2.875 -0.0328  0.8586  3.5916
  473SOL    HW2 1419   0.744   2.949   2.993 -1.0516  1.4429 -0.6903
  474SOL     OW 1420   1.643   0.222   2.107  0.2322  0.1940  0.1688
  474SOL    HW1 1421   1.541   0.233   2.097  1.2158 -1.9461  1.2218
  474SOL    HW2 1422   1.663   0.164   2.192 -0.5339 -2.1869  2.2841
  475SOL     OW 1423   0.697   2.805   0.132  0.0780  1.0008 -0.1025
  475SOL    HW1 1424   0.634   2.808   0.209 -1.4946  1.7607  1.4122
  475SOL    HW2 1425   0.787   2.849   0.152 -0.5272  1.9245  0.6639
  476SOL     OW 1426   0.323   0.763   1.082  0.1190 -0.1089 -0.5902
  476SOL    HW1 1427   0.293   0.848   1.031  0.9892  1.2462 -0.9382
  476SOL    HW2 1428   0.392   0.709   1.029 -0.2981 -2.0042  1.1802
  477SOL     OW 1429   1.705   2.141   1.229 -0.0724  0.4892 -0.0062
  477SOL    HW1 1430   1.787   2.187   1.196  2.3456 -2.9425  0.9440
  477SOL    HW2 1431   1.678   2.180   1.314  1.2419 -0.1372 -2.3114
  478SOL     OW 1432   0.614   1.302   1.958 -0.6779 -0.4630  0.6036
  478SOL    HW1 1433   0.645   1.301   2.049 -1.1063 -1.3878 -1.8766
  478SOL    HW2 1434   0.527   1.252   1.952  1.8262  0.7536  3.4427
  479SOL     OW 1435   0.554   3.076   0.979  0.5738  0.2224  0.8477
  479SOL    HW1 1436   0.468   3.047   0.926 -0.7184  2.7406  0.5487
  479SOL    HW2 1437   0.569   3.014   1.056  0.5488  1.2003  2.7415
  480SOL     OW 1438   2.331   2.495   0.113  0.0681  0.0942  0.3754
  480SOL    HW1 1439   2.377   2.528   0.196 -1.1673  0.2511 -2.7432
  480SOL    HW2 1440   2.387   2.425   0.064 -0.7340  1.4895 -0.3001
  481SOL     OW 1441   2.837   0.356   1.232 -0.5993 -0.2602 -0.5488
  481SOL    HW1 1442   2.793   0.438   1.186  0.9698 -0.5357 -0.5182
  481SOL    HW2 1443   2.943   0.367   1.231  1.1751 -0.1308 -0.2881
  482SOL     OW 1444   1.516   2.409   2.023  0.2404 -0.5840  0.0479
  482SOL    HW1 1445   1.524   2.509   2.007  1.7207 -1.5375  0.8009
  482SOL    HW2 1446   1.471   2.388   2.109  0.4982 -0.4441 -2.7404
  483SOL     OW 1447   0.299   1.344   2.743 -0.2594  0.0953 -0.3247
  483SOL    HW1 1448   0.308   1.417   2.672 -0.3389 -1.2798 -0.3785
  483SOL    HW2 1449   0.337   1.258   2.710 -0.8523  0.3781 -0.0738
  484SOL     OW 1450   0.981   1.639   1.995  0.5795 -0.4478  0.2305
  484SOL    HW1 1451   1.040   1.591   1.928 -1.1732 -0.8691  1.2458
  484SOL    HW2 1452   0.888   1.615   1.964  2.0018 -3.0492 -0.1387
  485SOL     OW 1453   3.011   0.377   2.955  0.0785  0.0784 -0.2469
  485SOL    HW1 1454   3.028   0.472   2.918  1.7966 -0.3855 -1.7725
  485SOL    HW2 1455   2.913   0.370   2.983 -0.9183  0.3647  0.7040
  486SOL     OW 1456   1.474   3.016   0.372  0.1166 -0.4623 -0.9574
  486SOL    HW1 1457   1.486   0.029   0.364  3.2088  2.8950  1.2178
  486SOL    HW2 1458   1.383   2.991   0.335 -3.4796  3.0111 -1.5898
  487SOL     OW 1459   1.220   2.481   1.008 -0.2089  0.0832  0.8756
  487SOL    HW1 1460   1.298   2.426   0.980 -2.6084  0.9696  0.9673
  487SOL    HW2 1461   1.252   2.580   1.019  0.9898  2.7151  1.5821
  488SOL     OW 1462   2.017   1.090   0.490  0.0270  0.6984 -0.1783
  488SOL    HW1 1463   1.974   1.025   0.424 -3.3674  1.1288  0.8887
  488SOL    HW2 1464   2.120   1.082   0.488  2.6685  2.5324 -1.0750
  489SOL     OW 1465   1.077   2.694   1.229  0.5975 -0.6133 -0.3066
  489SOL    HW1 1466   1.030   2.617   1.277  0.3595 -1.1985  3.5363
  489SOL    HW2 1467   1.165   2.707   1.270 -3.3456 -1.1289  0.6231
  490SOL     OW 1468   0.841   1.054   0.308  0.0405 -0.3685  0.1131
  490SOL    HW1 1469   0.856   0.971   0.362  1.7574  0.0574  0.1943
  490SOL    HW2 1470   0.931   1.099   0.279 -0.1229 -0.7470 -2.9818
  491SOL     OW 1471   1.379   2.722   0.144  0.4175  0.3756  0.1657
  491SOL    HW1 1472   1.340   2.811   0.167 -1.2811 -3.2171  0.3733
  491SOL    HW2 1473   1.340   2.692   0.057  1.5760 -1.9407  1.9599
  492SOL     OW 1474   1.225   1.142   2.245  0.3296 -0.9330 -0.0253
  492SOL    HW1 1475   1.233   1.194   2.157 -1.9191  0.6910  1.3493
  492SOL    HW2 1476   1.167   1.062   2.229 -0.5597  0.2068  0.7162
  493SOL     OW 1477   0.171   1.913   0.309 -0.2193  0.1217  0.7592
  493SOL    HW1 1478   0.106   1.849   0.262  1.4923 -0.5236  0.8098
  493SOL    HW2 1479   0.234   1.861   0.367 -0.5533  0.6521 -2.4091
  494SOL     OW 1480   2.103   1.370   0.351  0.0076 -0.4534  0.0069
  494SOL    HW1 1481   2.078   1.420   0.266  0.6052 -1.7989 -1.6317
  494SOL    HW2 1482   2.047   1.287   0.363  2.9599  2.4300 -1.7591
  495SOL     OW 1483   0.172   0.995   2.730 -0.0187 -0.5739 -0.2864
  495SOL    HW1 1484   0.140   0.918   2.677 -1.0322  4.6846  0.3519
  495SOL    HW2 1485   0.097   1.040   2.785  0.4416  0.9664  0.8881
  496SOL     OW 1486   2.880   3.039   2.162  0.1539  0.1474 -0.4068
  496SOL    HW1 1487   2.975   3.059   2.136 -0.4661  1.9821 -0.6933
  496SOL    HW2 1488   2.835   0.038   2.182  0.9363 -1.9952  0.7997
  497SOL     OW 1489   2.740   0.845   0.909 -0.0442  0.0883  0.0451
  497SOL    HW1 1490   2.678   0.761   0.901  2.9152  0.0164 -3.9591
  497SOL    HW2 1491   2.707   0.915   0.843  0.9830  1.7429 -1.4431
  498SOL     OW 1492   0.408   2.203   3.058  0.3755  0.2698  0.0378
  498SOL    HW1 1493   0.422   2.143   0.054 -0.4639  1.6984  2.7511
  498SOL    HW2 1494   0.460   2.294   3.066 -1.8823 -1.3850  0.2940
  499SOL     OW 1495   1.123   2.429   0.762 -0.4173  0.3277 -0.0795
  499SOL    HW1 1496   1.142   2.463   0.858  0.7999  2.0014  1.7452
  499SOL    HW2 1497   1.153   2.330   0.758 -1.1235 -2.1303  0.7587
  500SOL     OW 1498   0.932   0.248   2.497 -0.8246 -0.3963 -0.9121
  500SOL    HW1 1499   0.878   0.167   2.484 -0.0278  2.1011 -0.8354
  500SOL    HW2 1500   0.966   0.257   2.592 -1.4470 -0.1427 -1.1597
  501SOL     OW 1501   1.093   3.079   1.419  0.2618  0.5306 -0.0490
  501SOL    HW1 1502   1.175   3.044   1.465 -1.4887 -0.7838 -3.5224
  501SOL    HW2 1503   1.028   0.016   1.488  1.3431 -1.5171 -1.8653
  502SOL     OW 1504   3.000   0.292   2.040  0.2788 -0.0230 -0.0970
  502SOL    HW1 1505   3.038   0.197   2.050  0.5116  1.1334  2.6372
  502SOL    HW2 1506   3.032   0.349   2.113  2.0620  1.0380 -3.5359
  503SOL     OW 1507   1.829   2.263   2.254  0.3261  0.3619 -0.2351
  503SOL    HW1 1508   1.825   2.319   2.335 -0.0485 -3.2458  1.3926
  503SOL    HW2 1509   1.832   2.164   2.283 -2.7838 -1.1416  0.1140
  504SOL     OW 1510   1.828   0.369   1.705 -0.0539 -0.5738 -0.6157
  504SOL    HW1 1511   1.835   0.458   1.754 -1.1131  1.7490 -2.2131
  504SOL    HW2 1512   1.905   0.367   1.640 -2.3443 -2.4616 -0.8625
  505SOL     OW 1513   2.699   1.171   1.810  0.1048 -0.7676  0.1358
  505SOL    HW1 1514   2.758   1.107   1.763 -2.8183  0.2593  0.7331
  505SOL    HW2 1515   2.622   1.204   1.751 -3.0066  1.6434 -1.8143
  506SOL     OW 1516   0.327   1.501   2.494  0.1748 -0.1726  0.0438
  506SOL    HW1 1517   0.283   1.414   2.462 -0.5013  1.6005 -0.1418
  506SOL    HW2 1518   0.390   1.546   2.421 -0.1666 -2.3187  1.8255
  507SOL     OW 1519   0.310   2.806   2.158  0.0954  0.1887 -0.5884
  507SOL    HW1 1520   0.352   2.899   2.144  3.2182 -1.5200 -0.6957
  507SOL    HW2 1521   0.253   2.803   2.248 -3.7535 -0.3932  2.5278
  508SOL     OW 1522   1.318   0.769   1.563  0.0437  0.2420  0.2985
  508SOL    HW1 1523   1.284   0.861   1.603  1.1926 -0.4971  1.5880
  508SOL    HW2 1524   1.421   0.769   1.572  1.3821 -0.9057  2.2118
  509SOL     OW 1525   0.942   1.902   1.204  0.2047  0.2352 -0.0758
  509SOL    HW1 1526   0.925   1.983   1.263  0.1426 -1.1487  0.9902
  509SOL    HW2 1527   0.938   1.812   1.263  0.9473  0.3309  2.4794
  510SOL     OW 1528   2.594   0.999   2.536 -0.2097  0.4635 -0.0258
  510SOL    HW1 1529   2.660   1.045   2.606 -1.4237  2.7285 -1.3662
  510SOL    HW2 1530   2.563   0.909   2.566  0.8476 -1.6430 -1.6668
  511SOL     OW 1531   0.600   1.459   1.244 -0.2398  0.1151  0.2421
  511SOL    HW1 1532   0.586   1.433   1.343 -2.6661 -1.8206 -0.3587
  511SOL    HW2 1533   0.530   1.410   1.186  0.3686 -1.3429 -0.9716
  512SOL     OW 1534   2.870   2.307   0.625  0.1029 -0.1446  0.7734
  512SOL    HW1 1535   2.892   2.300   0.724 -1.8943  2.9153  0.2140
  512SOL    HW2 1536   2.773   2.322   0.598 -1.2161  0.5184  1.2508
  513SOL     OW 1537   0.499   1.360   2.938  0.2955 -0.2899 -0.4032
  513SOL    HW1 1538   0.491   1.266   2.978 -0.4726  2.4922 -2.7154
  513SOL    HW2 1539   0.437   1.369   2.856  0.0483  1.3184 -0.0934
  514SOL     OW 1540   0.282   2.517   2.949  0.3022 -0.5299  0.1503
  514SOL    HW1 1541   0.264   2.604   2.897 -0.4134  1.3257  0.2697
  514SOL    HW2 1542   0.296   2.437   2.890  1.0178  0.4779  1.0088
  515SOL     OW 1543   1.518   1.155   2.307 -0.2588 -0.2552 -0.0267
  515SOL    HW1 1544   1.425   1.125   2.282  1.2801 -3.1923  0.4998
  515SOL    HW2 1545   1.552   1.096   2.387  2.8773 -0.1429 -0.1498
  516SOL     OW 1546   2.352   2.233   0.600  0.1814 -0.5575 -0.1128
  516SOL    HW1 1547   2.418   2.300   0.633  1.7478 -2.0438 -0.7616
  516SOL    HW2 1548   2.355   2.220   0.501 -2.9700  0.3100  3.5509
  517SOL     OW 1549   1.621   1.068   0.318  0.5531 -0.3980 -0.3502
  517SOL    HW1 1550   1.606   0.981   0.371 -1.0827  0.3172 -1.2279
  517SOL    HW2 1551   1.541   1.094   0.259 -3.9391 -0.6906 -2.2387
  518SOL     OW 1552   2.225   2.447   2.230 -0.4691  0.6160  0.0731
  518SOL    HW1 1553   2.155   2.517   2.253 -1.5746  0.8440 -0.0880
  518SOL    HW2 1554   2.286   2.432   2.311 -0.6177  2.2921 -2.6636
  519SOL     OW 1555   1.739   2.421   1.147  0.0508  0.2347  0.0582
  519SOL    HW1 1556   1.818   2.464   1.190 -2.9628  1.9330 -1.5474
  519SOL    HW2 1557   1.665   2.491   1.125  1.4101  1.0250  1.7267
  520SOL     OW 1558   2.578   2.332   2.587  0.7501  0.0392  0.1962
  520SOL    HW1 1559   2.639   2.414   2.593  0.0403 -4.4598  0.2895
  520SOL    HW2 1560   2.584   2.302   2.490  1.0520  0.0697  3.9534
  521SOL     OW 1561   0.311   1.388   2.032 -0.3854 -0.2542  0.2462
  521SOL    HW1 1562   0.343   1.450   1.956 -0.1652  2.8948  1.2171
  521SOL    HW2 1563   0.209   1.393   2.033 -0.0705  1.6905 -1.0075
  522SOL     OW 1564   0.948   0.405   2.059 -0.5418 -0.9491  0.3132
  522SOL    HW1 1565   0.983   0.335   1.993 -1.2349 -1.0637 -2.1166
  522SOL    HW2 1566   0.998   0.393   2.146 -1.1366 -0.4704 -0.6889
  523SOL     OW 1567   0.576   2.257   0.819  0.2138 -0.0374  0.3359
  523SOL    HW1 1568   0.500   2.191   0.842 -3.1451 -0.2781 -0.6742
  523SOL    HW2 1569   0.547   2.330   0.751 -0.2179  0.4226 -0.2556
  524SOL     OW 1570   1.659   2.868   0.514 -0.5710  0.3429 -0.4865
  524SOL    HW1 1571   1.753   2.899   0.501 -1.9174 -2.2038 -0.8910
  524SOL    HW2 1572   1.596   2.935   0.473 -0.3565 -1.7591  0.2883
  525SOL     OW 1573   2.276   0.870   1.509 -0.0573 -0.3339 -0.0142
  525SOL    HW1 1574   2.251   0.885   1.409 -1.3131 -0.5618 -3.1387
  525SOL    HW2 1575   2.326   0.952   1.550  0.2055  0.3971 -0.4788
  526SOL     OW 1576   0.952   2.637   0.682 -0.2095  0.7190  0.0730
  526SOL    HW1 1577   1.012   2.561   0.718  1.0386 -1.4900  1.2640
  526SOL    HW2 1578   0.902   2.609   0.599 -0.7262  2.7568 -0.7948
  527SOL     OW 1579   2.767   2.494   0.287  0.2621 -0.1773 -0.5035
  527SOL    HW1 1580   2.822   2.506   0.368 -0.0717  1.4321 -1.7757
  527SOL    HW2 1581   2.822   2.443   0.220 -1.2732 -0.4910  0.8386
  528SOL     OW 1582   2.287   0.216   0.352 -0.1066 -0.4275  0.2844
  528SOL    HW1 1583   2.237   0.215   0.444 -0.5093  1.5762  3.2947
  528SOL    HW2 1584   2.373   0.158   0.355  1.4411 -1.0106  1.4328
  529SOL     OW 1585   1.352   1.489   2.327 -0.2079  0.3147  0.7548
  529SOL    HW1 1586   1.265   1.526   2.358  1.9048 -0.5203  0.5564
  529SOL    HW2 1587   1.361   1.492   2.225 -1.0000 -2.1343 -1.8365
  530SOL     OW 1588   2.451   0.663   2.846 -0.3955  0.1996  0.1184
  530SOL    HW1 1589   2.499   0.573   2.836 -1.1905  2.7915 -2.0949
  530SOL    HW2 1590   2.506   0.720   2.915  0.5964 -0.1626 -2.4105
  531SOL     OW 1591   1.238   1.031   0.010 -0.5074  0.6974 -0.0269
  531SOL    HW1 1592   1.158   1.036   0.070 -1.3156 -2.2830  0.0551
  531SOL    HW2 1593   1.239   0.949   3.039 -1.0295 -1.3298  0.1674
  532SOL     OW 1594   1.741   0.485   0.847  0.5521 -0.9945  0.0861
  532SOL    HW1 1595   1.769   0.572   0.896 -2.5253  4.4920  0.9302
  532SOL    HW2 1596   1.642   0.496   0.824  2.7467  0.3418  2.4666
  533SOL     OW 1597   0.995   0.878   1.953 -0.2268  0.4940 -0.2427
  533SOL    HW1 1598   1.024   0.915   2.040  1.9003 -2.0415 -5.0800
  533SOL    HW2 1599   1.055   0.913   1.883  0.9771 -0.2483  3.1677
  534SOL     OW 1600   1.528   0.413   2.700  0.0670  0.2980 -0.5201
  534SOL    HW1 1601   1.513   0.358   2.779  2.0910  0.7158 -1.5164
  534SOL    HW2 1602   1.599   0.362   2.645 -0.8811 -2.7589 -0.8044
  535SOL     OW 1603   0.455   0.295   0.465  0.6863 -0.6235  0.1072
  535SOL    HW1 1604   0.508   0.337   0.384  0.7909  2.1132 -1.8793
  535SOL    HW2 1605   0.457   0.193   0.447 -1.2292 -1.7434  0.8359
  536SOL     OW 1606   1.054   0.119   0.569 -0.2027  0.1256 -0.5399
  536SOL    HW1 1607   1.118   0.194   0.533 -2.0407  2.3731 -0.5402
  536SOL    HW2 1608   1.062   0.122   0.671  0.6380  2.8571  1.1190
  537SOL     OW 1609   1.678   1.110   0.857  0.0454  0.2607  0.8712
  537SOL    HW1 1610   1.672   1.211   0.865 -0.1671 -0.8850  1.6731
  537SOL    HW2 1611   1.757   1.087   0.797  0.2548 -0.8622  0.8633
  538SOL     OW 1612   2.973   1.970   0.043 -0.6561  0.4025 -1.0501
  538SOL    HW1 1613   3.006   1.888   0.099 -2.2328 -2.0042 -0.7562
  538SOL    HW2 1614   3.030   1.982   3.048  0.6086 -1.4129 -2.9263
  539SOL     OW 1615   2.281   1.763   0.248 -0.5901 -0.0269  0.3431
  539SOL    HW1 1616   2.335   1.786   0.165 -0.7629 -1.9958 -0.9654
  539SOL    HW2 1617   2.341   1.770   0.330  0.4550  1.1338 -0.0674
  540SOL     OW 1618   0.363   2.732   1.329 -0.4371  0.5056  0.0903
  540SOL    HW1 1619   0.331   2.656   1.267  2.2717 -2.5967  1.5817
  540SOL    HW2 1620   0.303   2.741   1.410 -0.1771 -0.2914  0.3114
  541SOL     OW 1621   2.023   0.003   2.266  0.0296  0.3155 -0.1003
  541SOL    HW1 1622   2.017   3.016   2.330 -1.1708  3.7834 -1.3875
  541SOL    HW2 1623   1.930   0.025   2.233 -0.8304 -1.9031 -1.2493
  542SOL     OW 1624   2.675   0.448   2.573  0.0767 -0.1103 -0.0766
  542SOL    HW1 1625   2.750   0.437   2.500  1.2573  0.2645 -3.4419
  542SOL    HW2 1626   2.595   0.503   2.533  2.2626  2.2724 -0.4910
  543SOL     OW 1627   0.159   0.969   0.829 -0.4317 -0.4310  0.2739
  543SOL    HW1 1628   0.208   0.942   0.743 -1.3298  0.7929 -2.9726
  543SOL    HW2 1629   0.070   0.924   0.839  0.0330  1.4897 -1.8483
  544SOL     OW 1630   2.995   0.047   1.250  0.1533  0.0265 -0.2422
  544SOL    HW1 1631   3.011   0.089   1.158 -0.8610 -0.5012 -0.2309
  544SOL    HW2 1632   2.971   3.034   1.239 -1.3653 -1.8076 -2.5020
  545SOL     OW 1633   1.569   2.426   0.556  0.0869 -0.1818 -0.4961
  545SOL    HW1 1634   1.595   2.494   0.490 -1.1241  0.1184  1.9085
  545SOL    HW2 1635   1.465   2.411   0.552 -0.5947  0.0783  1.2510
  546SOL     OW 1636   1.966   2.801   1.705 -0.4060 -0.1041 -0.1440
  546SOL    HW1 1637   1.997   2.707   1.702 -0.5852  1.5475  3.6376
  546SOL    HW2 1638   2.040   2.866   1.733  1.4416  1.8586 -1.0742
  547SOL     OW 1639   0.220   0.083   2.259  0.4664 -0.0029 -0.2644
  547SOL    HW1 1640   0.283   0.031   2.320 -1.3100 -1.2297  0.2011
  547SOL    HW2 1641   0.261   0.147   2.194 -1.2932 -0.7070  3.1165
  548SOL     OW 1642   1.932   1.495   2.939 -0.0450  0.9609  0.2022
  548SOL    HW1 1643   1.938   1.592   2.963  2.1852 -0.9991 -0.3322
  548SOL    HW2 1644   1.872   1.492   2.853 -1.0890  0.2728 -0.8267
  549SOL     OW 1645   2.961   0.764   0.607  0.0079 -0.0093  0.0693
  549SOL    HW1 1646   2.878   0.800   0.558 -3.2054  1.1882 -0.1489
  549SOL    HW2 1647   2.977   0.814   0.694 -0.8605 -1.3180  0.2232
  550SOL     OW 1648   1.650   2.046   0.621 -0.1037  0.2665  0.1947
  550SOL    HW1 1649   1.577   2.015   0.556  1.9371  0.4373 -0.4871
  550SOL    HW2 1650   1.715   2.104   0.570  1.4759 -2.8502 -1.7812
  551SOL     OW 1651   1.311   0.528   0.910  0.1487  0.2059  0.1637
  551SOL    HW1 1652   1.235   0.466   0.874 -2.0076 -1.0537 -1.4029
  551SOL    HW2 1653   1.390   0.529   0.837  1.3184  0.0469 -3.8334
  552SOL     OW 1654   2.654   2.621   2.316 -0.3316 -0.6341  0.3329
  552SOL    HW1 1655   2.727   2.688   2.305 -0.4978 -2.3717 -1.0149
  552SOL    HW2 1656   2.559   2.663   2.303 -3.5773  1.1757  0.3829
  553SOL     OW 1657   0.063   3.057   2.535 -0.0937  0.6047  0.5949
  553SOL    HW1 1658   0.043   0.044   2.474  0.5830 -0.5193 -3.3465
  553SOL    HW2 1659   3.060   3.015   2.552 -0.9813 -0.3833 -1.2819
  554SOL     OW 1660   1.053   2.884   1.045  0.2869  0.1385 -0.2486
  554SOL    HW1 1661   0.985   2.940   1.102  0.3346  0.9379 -2.0728
  554SOL    HW2 1662   1.090   2.811   1.108 -1.0636  0.7610 -1.5516
  555SOL     OW 1663   2.355   2.453   1.978 -0.1687  0.1757  0.3594
  555SOL    HW1 1664   2.415   2.523   1.934  0.8567  1.4021 -1.2026
  555SOL    HW2 1665   2.315   2.481   2.067  0.4005  0.1904 -0.9497
  556SOL     OW 1666   1.124   0.230   2.730  0.3633  0.2097  0.0958
  556SOL    HW1 1667   1.151   0.325   2.702  0.8415  1.9106 -0.9732
  556SOL    HW2 1668   1.164   0.159   2.667  0.6186  1.9564  1.2458
  557SOL     OW 1669   0.125   1.807   2.279  0.3834  0.5822 -0.0514
  557SOL    HW1 1670   0.060   1.886   2.279  2.5061  0.0944 -1.2455
  557SOL    HW2 1671   0.148   1.773   2.374 -1.3072 -0.4571  0.2715
  558SOL     OW 1672   2.089   0.984   2.496  0.0604  0.2923 -0.5022
  558SOL    HW1 1673   2.169   0.939   2.456  0.2174  1.7570  2.3271
  558SOL    HW2 1674   2.081   1.078   2.460 -1.3281 -1.1446  0.4132
  559SOL     OW 1675   2.537   2.253   2.065 -0.4434 -0.2367  0.1026
  559SOL    HW1 1676   2.571   2.297   2.153  0.6272  1.8170 -0.2907
  559SOL    HW2 1677   2.467   2.319   2.026  0.2020 -1.8162 -2.6205
  560SOL     OW 1678   2.707   0.960   2.301 -0.3264 -0.4772  0.4723
  560SOL    HW1 1679   2.656   0.952   2.393 -1.4306 -1.6404  2.7745
  560SOL    HW2 1680   2.808   0.932   2.305  2.0614 -3.1381 -2.4829
  561SOL     OW 1681   0.517   0.492   0.657 -0.3582  0.4129 -0.1281
  561SOL    HW1 1682   0.611   0.519   0.644 -0.9832 -0.8178  0.5360
  561SOL    HW2 1683   0.494   0.426   0.584  0.5548  0.4176  0.9438
  562SOL     OW 1684   1.191   1.249   1.482  0.5985  0.0945 -0.5755
  562SOL    HW1 1685   1.124   1.252   1.560  0.7838  0.7148  0.5388
  562SOL    HW2 1686   1.179   1.163   1.432  2.2697  0.3552 -1.1682
  563SOL     OW 1687   1.730   3.060   2.897 -0.3025  0.1886  0.3401
  563SOL    HW1 1688   1.827   3.030   2.900 -1.0910 -2.1887 -1.9452
  563SOL    HW2 1689   1.701   3.078   2.993  0.4443 -0.7340  0.4910
  564SOL     OW 1690   0.194   2.218   0.933 -0.0446  0.2213 -0.5636
  564SOL    HW1 1691   0.146   2.248   1.017  1.0071 -2.2064  0.6631
  564SOL    HW2 1692   0.285   2.176   0.957  0.2381  0.7476  1.8651
  565SOL     OW 1693   0.508   2.248   2.380  0.7126 -0.2360  0.1271
  565SOL    HW1 1694   0.464   2.157   2.368 -0.8432 -2.9501  1.6336
  565SOL    HW2 1695   0.481   2.311   2.308  1.2675 -3.0044  1.2712
  566SOL     OW 1696   1.158   2.610   2.299 -0.3021 -0.0009 -0.6669
  566SOL    HW1 1697   1.177   2.698   2.351  2.1862  1.4590  2.7406
  566SOL    HW2 1698   1.078   2.621   2.237  3.1101  0.7020  0.0044
  567SOL     OW 1699   2.252   2.461   0.941 -0.2781  0.2100 -0.2309
  567SOL    HW1 1700   2.341   2.410   0.961  0.7800 -1.2936  2.0914
  567SOL    HW2 1701   2.177   2.391   0.944  1.5912  0.2692  1.6105
  568SOL     OW 1702   1.853   0.581   0.486 -0.2813  1.0160 -0.0110
  568SOL    HW1 1703   1.864   0.652   0.555 -0.7420  1.9112 -0.4466
  568SOL    HW2 1704   1.835   0.492   0.533  0.0366 -0.4779  0.1993
  569SOL     OW 1705   3.050   1.635   2.660 -0.4206  0.3779 -0.1403
  569SOL    HW1 1706   3.001   1.588   2.582 -2.4619 -0.4745  0.8776
  569SOL    HW2 1707   0.011   1.557   2.711  1.1175 -3.6937  0.8407
  570SOL     OW 1708   0.193   0.085   1.111 -0.3280  0.2350 -0.2385
  570SOL    HW1 1709   0.225   0.163   1.168 -1.1595  0.9738  1.0302
  570SOL    HW2 1710   0.097   0.087   1.083 -0.8331 -2.6703  2.0312
  571SOL     OW 1711   2.850   0.637   1.561 -0.3532 -0.3129  0.2373
  571SOL    HW1 1712   2.897   0.710   1.508 -0.7655  0.9045  0.7367
  571SOL    HW2 1713   2.746   0.630   1.562 -0.1281 -0.7962  0.6572
  572SOL     OW 1714   3.042   2.487   0.862  0.4130 -0.1865  0.1768
  572SOL    HW1 1715   2.993   2.400   0.891 -0.8833 -4.2304  2.1650
  572SOL    HW2 1716   0.014   2.467   0.782  3.6563  3.5561 -3.0829
  573SOL     OW 1717   0.869   0.694   3.067 -0.4509 -0.2157  0.2542
  573SOL    HW1 1718   0.909   0.599   3.053  0.1605  3.1776  2.5219
  573SOL    HW2 1719   0.770   0.696   3.042 -0.2068 -1.2077 -2.7984
  574SOL     OW 1720   2.995   2.550   2.992 -0.3578 -0.5459 -0.3254
  574SOL    HW1 1721   2.905   2.570   2.945  2.5460  2.0891  0.3786
  574SOL    HW2 1722   3.037   2.636   3.019  0.3933 -0.2981 -0.5383
  575SOL     OW 1723   1.137   2.209   1.214 -0.1824  0.7342 -0.3293
  575SOL    HW1 1724   1.081   2.249   1.140 -1.5011 -0.4537  0.9265
  575SOL    HW2 1725   1.227   2.185   1.176 -2.2007 -0.9969  1.2469
  576SOL     OW 1726   0.639   2.689   1.066 -0.5995 -0.4086  0.0193
  576SOL    HW1 1727   0.628   2.745   1.150  0.0495 -2.6623 -1.7936
  576SOL    HW2 1728   0.683   2.741   0.996  1.7417 -1.6743  1.3200
  577SOL     OW 1729   2.063   1.613   1.228 -0.1633 -0.4857 -0.7349
  577SOL    HW1 1730   2.061   1.719   1.229  0.3942  3.6517 -0.9621
  577SOL    HW2 1731   2.128   1.590   1.150 -0.4312  0.5274 -0.9220
  578SOL     OW 1732   1.598   0.414   0.387  0.2993 -0.4771 -0.5313
  578SOL    HW1 1733   1.590   0.508   0.352 -0.4929 -0.2745 -0.3135
  578SOL    HW2 1734   1.661   0.402   0.463 -1.7177 -1.6292 -1.5803
  579SOL     OW 1735   2.745   1.369   2.692  0.4496  0.1027  0.7454
  579SOL    HW1 1736   2.681   1.449   2.685  1.4151  0.0795  1.7696
  579SOL    HW2 1737   2.699   1.303   2.756  0.2699 -0.6982  1.4061
  580SOL     OW 1738   1.596   0.731   1.675 -0.5729 -0.3646  0.1409
  580SOL    HW1 1739   1.618   0.753   1.769  0.8376 -0.3169 -1.5928
  580SOL    HW2 1740   1.588   0.634   1.655  0.1193  2.0705 -0.9389
  581SOL     OW 1741   0.903   1.150   1.270 -0.0034  0.1051 -0.6502
  581SOL    HW1 1742   0.828   1.095   1.315 -2.1670  0.3868  0.8452
  581SOL    HW2 1743   0.992   1.100   1.280 -1.3026  0.0773  1.1462
  582SOL     OW 1744   2.679   0.162   2.222  0.0302 -0.1770 -0.3385
  582SOL    HW1 1745   2.584   0.175   2.243  0.9093  0.2483 -1.1635
  582SOL    HW2 1746   2.705   0.211   2.135 -1.6977  0.4214  0.2999
  583SOL     OW 1747   2.339   0.575   2.057  0.3319 -0.5497  0.2444
  583SOL    HW1 1748   2.294   0.487   2.065  1.8630  0.9538 -2.6513
  583SOL    HW2 1749   2.417   0.561   1.987  0.0323  0.0634 -3.6576
  584SOL     OW 1750   1.284   1.878   2.744 -0.6834 -0.6084 -0.1170
  584SOL    HW1 1751   1.304   1.964   2.795 -1.6208  1.6149 -0.8809
  584SOL    HW2 1752   1.343   1.864   2.663 -1.0427  0.4961 -2.2021
  585SOL     OW 1753   0.347   0.068   0.296  0.1411 -0.0089  0.2145
  585SOL    HW1 1754   0.303   3.070   0.271 -0.4951 -0.2316  0.0842
  585SOL    HW2 1755   0.358   0.142   0.223  2.0447 -0.0654  0.2712
  586SOL     OW 1756   1.576   2.184   2.426  0.0151 -0.0713 -0.5703
  586SOL    HW1 1757   1.513   2.173   2.509 -1.9100  1.4171  4.4473
  586SOL    HW2 1758   1.548   2.115   2.358  0.6716  0.8590  1.0669
  587SOL     OW 1759   2.505   2.526   0.300 -0.4336  0.2767  0.3471
  587SOL    HW1 1760   2.497   2.553   0.398 -1.6543 -0.1213  0.1761
  587SOL    HW2 1761   2.604   2.516   0.280  2.3587 -0.3839 -0.1694
  588SOL     OW 1762   2.678   0.226   1.045 -0.3306  0.1263  0.2338
  588SOL    HW1 1763   2.753   0.239   1.118  1.1365  0.3460  0.9716
  588SOL    HW2 1764   2.600   0.289   1.048 -1.0728 -0.6765 -0.1016
  589SOL     OW 1765   0.540   0.680   0.925 -0.0471 -0.5265 -0.1074
  589SOL    HW1 1766   0.634   0.703   0.902 -0.6457 -2.0949  1.2509
  589SOL    HW2 1767   0.522   0.582   0.905 -0.6150  0.5826  1.2642
  590SOL     OW 1768   2.178   1.796   0.699  0.3141  0.2851  0.5306
  590SOL    HW1 1769   2.275   1.789   0.726  0.3517 -1.8323  0.4103
  590SOL    HW2 1770   2.157   1.737   0.622 -0.4815 -0.2467  0.4972
  591SOL     OW 1771   0.655   2.394   1.063 -0.5535 -0.3082  0.5374
  591SOL    HW1 1772   0.654   2.353   0.970  3.5265 -1.5911  0.9140
  591SOL    HW2 1773   0.628   2.490   1.064  0.7585 -2.8951 -0.1477
  592SOL     OW 1774   1.118   0.780   1.289 -0.4851  0.2853 -0.3247
  592SOL    HW1 1775   1.179   0.701   1.318 -0.2073 -1.1017  1.4835
  592SOL    HW2 1776   1.023   0.749   1.272 -3.6222 -1.7797  0.2797
  593SOL     OW 1777   0.852   1.160   1.007 -0.2556  0.2320  0.0273
  593SOL    HW1 1778   0.924   1.205   0.953 -0.8448  1.1724 -2.5660
  593SOL    HW2 1779   0.876   1.154   1.108 -1.3956 -4.1254  1.1973
  594SOL     OW 1780   1.027   2.049   0.361 -0.4351 -0.0116 -0.0334
  594SOL    HW1 1781   0.949   2.048   0.292 -2.8008  0.0020 -0.2398
  594SOL    HW2 1782   1.036   1.955   0.399  0.1002  2.1835 -1.2430
  595SOL     OW 1783   1.568   0.232   1.172 -0.0395 -0.3364  0.0264
  595SOL    HW1 1784   1.649   0.230   1.113  2.9221  0.2051  1.7736
  595SOL    HW2 1785   1.518   0.325   1.178 -2.5115  3.5303 -0.5146
  596SOL     OW 1786   0.043   1.738   0.889  0.1993 -0.1518  0.1155
  596SOL    HW1 1787   0.034   1.678   0.972  2.7653  2.9014 -1.8619
  596SOL    HW2 1788   0.134   1.782   0.892 -0.4617 -0.2919 -0.1605
  597SOL     OW 1789   0.176   2.509   2.640 -0.2875  0.4210 -0.4207
  597SOL    HW1 1790   0.219   2.427   2.685  3.0739  0.3546 -2.1855
  597SOL    HW2 1791   0.156   2.584   2.709 -3.2569  1.6136  1.8896
  598SOL     OW 1792   2.800   2.496   1.822  0.0607  0.2465 -0.1864
  598SOL    HW1 1793   2.825   2.493   1.919  1.0577  1.7523 -2.6169
  598SOL    HW2 1794   2.742   2.419   1.790  2.7703  4.8235 -0.4816
  599SOL     OW 1795   0.896   0.419   0.014 -0.0705 -0.1645  0.8810
  599SOL    HW1 1796   0.859   0.380   0.103 -0.9306  0.2963  0.5329
  599SOL    HW2 1797   0.852   0.387   3.015  2.7857  0.1588 -1.6446
  600SOL     OW 1798   0.518   2.438   0.053 -0.4287  0.2886  0.2499
  600SOL    HW1 1799   0.481   2.470   0.141  0.5993 -0.8071 -3.4911
  600SOL    HW2 1800   0.503   2.512   3.078  1.5914 -1.4038  3.7703
  601SOL     OW 1801   0.347   0.885   1.400  0.0670 -0.1685 -0.2418
  601SOL    HW1 1802   0.387   0.925   1.315  1.7091  0.2614 -3.4430
  601SOL    HW2 1803   0.397   0.801   1.426 -0.2733  1.0061 -0.6792
  602SOL     OW 1804   0.850   2.781   0.892  0.4283  0.0995 -0.7613
  602SOL    HW1 1805   0.905   2.751   0.807  1.1479  0.2142  0.8870
  602SOL    HW2 1806   0.916   2.802   0.968  0.4592  2.3707  0.3583
  603SOL     OW 1807   0.579   0.341   2.261 -0.3137 -0.4849  0.4245
  603SOL    HW1 1808   0.587   0.249   2.302 -0.2967  1.4780  2.3452
  603SOL    HW2 1809   0.579   0.346   2.160  0.8960  1.3140  1.8286
  604SOL     OW 1810   0.811   2.702   1.593 -0.3933  0.3913  0.2876
  604SOL    HW1 1811   0.785   2.799   1.559 -0.8604  0.9380  2.4792
  604SOL    HW2 1812   0.742   2.639   1.556 -1.8190 -1.8082  1.1572
  605SOL     OW 1813   1.708   0.788   1.963 -0.2799  0.3441  0.0879
  605SOL    HW1 1814   1.777   0.858   1.983 -3.4264 -0.3202  0.9085
  605SOL    HW2 1815   1.639   0.786   2.039 -1.6655  0.4230 -0.0266
  606SOL     OW 1816   2.533   2.712   2.943  0.3134 -0.0398 -0.0255
  606SOL    HW1 1817   2.438   2.677   2.951 -0.7498 -0.5274 -1.1107
  606SOL    HW2 1818   2.521   2.796   2.887  2.8054 -1.9203 -1.6888
  607SOL     OW 1819   0.864   0.733   1.226  0.3540  0.0977 -0.5427
  607SOL    HW1 1820   0.847   0.812   1.165  0.5355 -2.6948  0.5267
  607SOL    HW2 1821   0.787   0.716   1.294  1.8757 -0.4868  2.0988
  608SOL     OW 1822   0.311   1.947   2.631  0.4329 -0.5774  0.3857
  608SOL    HW1 1823   0.333   1.970   2.731  1.1841 -0.5972  2.4296
  608SOL    HW2 1824   0.244   1.871   2.621  0.9367  3.3213  0.6445
  609SOL     OW 1825   1.296   1.027   0.329  0.5970 -0.0070  0.2834
  609SOL    HW1 1826   1.344   1.116   0.301 -0.8763 -0.3599 -0.0713
  609SOL    HW2 1827   1.196   1.026   0.310 -2.2061 -1.9024  0.8556
  610SOL     OW 1828   0.478   0.388   1.339  0.2663  0.2191  0.0152
  610SOL    HW1 1829   0.501   0.293   1.315 -0.7363  1.8583 -3.3123
  610SOL    HW2 1830   0.524   0.451   1.277 -1.9101 -1.6223  1.3980
  611SOL     OW 1831   1.583   0.859   0.921  0.5473 -0.0251  0.1778
  611SOL    HW1 1832   1.518   0.873   1.001 -0.4610  0.8813 -0.5296
  611SOL    HW2 1833   1.625   0.946   0.891 -0.7837 -1.8931  2.6263
  612SOL     OW 1834   1.871   0.970   0.308 -0.0780  0.5825 -0.7988
  612SOL    HW1 1835   1.848   0.869   0.314  1.4414  2.0445 -2.5045
  612SOL    HW2 1836   1.784   1.022   0.306 -0.1786 -1.2260  4.6782
  613SOL     OW 1837   2.095   0.491   0.369  0.2847 -0.0582 -0.1703
  613SOL    HW1 1838   2.130   0.426   0.299  0.8321  0.2285 -2.0021
  613SOL    HW2 1839   1.994   0.494   0.376  0.4096  0.9263  0.8616
  614SOL     OW 1840   2.731   0.080   2.476 -0.0566 -0.5003 -0.7428
  614SOL    HW1 1841   2.726   0.115   2.381 -0.3201 -1.2926  1.9400
  614SOL    HW2 1842   2.745   0.159   2.539  0.9943  0.9075  0.0585
  615SOL     OW 1843   0.784   1.894   0.996 -0.3405 -0.3943 -0.2179
  615SOL    HW1 1844   0.852   1.885   1.075  4.2576 -2.7004 -0.8372
  615SOL    HW2 1845   0.690   1.899   1.042 -2.8638 -0.2756  0.8222
  616SOL     OW 1846   1.548   1.410   2.644  0.3272  0.6261 -1.0756
  616SOL    HW1 1847   1.573   1.409   2.544 -1.2573  1.1897 -1.4158
  616SOL    HW2 1848   1.471   1.345   2.659 -0.5302 -1.5296  0.5807
  617SOL     OW 1849   1.526   0.320   3.012  0.0439 -0.4698  0.0792
  617SOL    HW1 1850   1.514   0.421   3.016  2.3694 -0.1752  0.7550
  617SOL    HW2 1851   1.623   0.292   3.023  0.3926 -0.3444 -0.7036
  618SOL     OW 1852   1.255   2.125   2.368  0.1366  0.2880 -0.0883
  618SOL    HW1 1853   1.335   2.072   2.347 -2.9437 -1.0089 -1.1814
  618SOL    HW2 1854   1.248   2.127   2.468 -0.9017 -1.0526  2.3292
  619SOL     OW 1855   2.698   1.500   0.856 -0.1004  0.7457  0.0920
  619SOL    HW1 1856   2.746   1.587   0.832 -0.9911  0.4435 -2.1049
  619SOL    HW2 1857   2.759   1.422   0.844 -0.5499 -2.3597  3.3277
  620SOL     OW 1858   2.140   2.770   2.490  0.0763  0.4363 -0.4657
  620SOL    HW1 1859   2.122   2.870   2.487 -1.5581 -2.2535 -0.3442
  620SOL    HW2 1860   2.075   2.718   2.428 -0.2662  0.4449 -1.0524
  621SOL     OW 1861   2.924   1.384   0.585  0.3662 -0.1710  0.2344
  621SOL    HW1 1862   2.901   1.345   0.676 -0.2308  2.1173  1.3981
  621SOL    HW2 1863   2.993   1.456   0.603 -0.0241 -2.3334  0.4875
  622SOL     OW 1864   1.347   1.807   2.450 -0.3409 -0.1884  0.0831
  622SOL    HW1 1865   1.252   1.815   2.407 -0.4921 -0.1064 -1.9408
  622SOL    HW2 1866   1.360   1.728   2.509 -1.2894  1.8925  0.3563
  623SOL     OW 1867   0.287   2.631   2.428 -0.0770  0.7694 -0.5342
  623SOL    HW1 1868   0.328   2.581   2.349 -1.6858  1.2777 -3.1834
  623SOL    HW2 1869   0.245   2.573   2.502 -0.2445  0.4332 -3.5606
  624SOL     OW 1870   0.698   2.632   2.874  0.1499  0.0719 -0.5326
  624SOL    HW1 1871   0.723   2.537   2.892 -2.0234 -0.6813 -1.0095
  624SOL    HW2 1872   0.763   2.704   2.895 -1.3602 -0.2494  2.8175
  625SOL     OW 1873   0.317   2.325   1.995 -0.4314  0.1334  0.6150
  625SOL    HW1 1874   0.357   2.414   1.965 -2.4437  1.0747  1.8551
  625SOL    HW2 1875   0.223   2.307   1.968 -1.5878  1.8203  3.4697
  626SOL     OW 1876   0.176   0.036   3.082  0.0759 -0.8780  0.7462
  626SOL    HW1 1877   0.148   0.133   3.082  0.1275 -2.2446  0.3850
  626SOL    HW2 1878   0.200   0.005   2.987  3.3474 -2.3073  0.7687
  627SOL     OW 1879   2.127   1.564   0.127  0.2362  1.0730 -0.0050
  627SOL    HW1 1880   2.206   1.620   0.151 -2.6651 -0.8195 -0.5440
  627SOL    HW2 1881   2.054   1.616   0.075 -0.7739  1.0354 -1.2968
  628SOL     OW 1882   1.349   1.755   0.084 -0.4894 -0.1558 -0.5097
  628SOL    HW1 1883   1.344   1.710   0.175 -0.5882 -1.8473 -2.7275
  628SOL    HW2 1884   1.263   1.735   0.028 -2.0605 -1.8136 -0.0618
  629SOL     OW 1885   2.999   0.393   1.623  0.0107 -0.6900 -0.2291
  629SOL    HW1 1886   3.045   0.434   1.707 -2.0707 -0.3838  3.5987
  629SOL    HW2 1887   2.922   0.459   1.603 -2.1065  0.4915 -0.8625
  630SOL     OW 1888   1.871   0.919   1.613  0.2615  0.3614  0.5536
  630SOL    HW1 1889   1.780   0.928   1.662 -0.1287 -2.2692 -0.4176
  630SOL    HW2 1890   1.929   0.841   1.647 -2.0836 -0.0218  0.1337
  631SOL     OW 1891   1.820   3.075   0.856 -0.0558 -0.1976 -0.6150
  631SOL    HW1 1892   1.730   3.031   0.874  1.9871 -1.0075  2.2781
  631SOL    HW2 1893   1.818   0.075   0.903 -1.6234 -2.9744  0.7762
  632SOL     OW 1894   2.702   0.930   2.015 -0.4354 -0.1875  0.2409
  632SOL    HW1 1895   2.660   1.006   1.958 -0.2015  2.2064  1.2863
  632SOL    HW2 1896   2.639   0.920   2.091 -0.6051 -2.0108  1.6007
  633SOL     OW 1897   0.764   0.450   2.580  0.3340 -0.3353 -0.1970
  633SOL    HW1 1898   0.813   0.537   2.590 -3.1859 -0.1399  0.4493
  633SOL    HW2 1899   0.805   0.394   2.505 -0.3623  1.5116  3.3137
  634SOL     OW 1900   0.456   2.744   2.831  0.0521  0.3870 -0.5666
  634SOL    HW1 1901   0.531   2.679   2.821 -1.1281 -0.2735 -0.5431
  634SOL    HW2 1902   0.465   2.806   2.912 -0.3250  2.0403  1.9954
  635SOL     OW 1903   3.066   1.317   1.131  0.2743  0.3989 -0.1722
  635SOL    HW1 1904   0.007   1.411   1.131 -0.2184  0.7272  0.3719
  635SOL    HW2 1905   2.966   1.304   1.114  1.2256  0.4588 -1.5113
  636SOL     OW 1906   0.063   1.563   3.064  0.2170 -0.4109  0.1694
  636SOL    HW1 1907   0.068   1.471   0.013 -0.3040  0.3368 -1.6061
  636SOL    HW2 1908   0.160   1.598   3.058 -0.9234 -2.4535 -2.5916
  637SOL     OW 1909   0.160   2.430   0.136 -0.2773 -0.3329  0.0371
  637SOL    HW1 1910   0.185   2.415   0.040 -1.0680 -0.7242  0.6364
  637SOL    HW2 1911   0.126   2.342   0.178 -0.2409 -0.6244  0.0563
  638SOL     OW 1912   2.917   2.556   0.516  0.9453 -0.5173 -0.6600
  638SOL    HW1 1913   3.003   2.578   0.471 -1.8311 -0.6964 -3.9084
  638SOL    HW2 1914   2.922   2.465   0.554 -0.0383  2.1185 -1.4804
  639SOL     OW 1915   1.310   0.790   0.189 -0.1209  0.0501 -0.5422
  639SOL    HW1 1916   1.238   0.802   0.118 -1.5604  0.0441  2.1572
  639SOL    HW2 1917   1.319   0.877   0.240  1.9192 -2.2551 -1.0879
  640SOL     OW 1918   2.028   2.245   1.764 -0.1896 -0.6238 -0.3276
  640SOL    HW1 1919   1.935   2.248   1.721  0.0317  0.1225  0.3032
  640SOL    HW2 1920   2.097   2.200   1.697  1.0055 -2.0480 -1.5341
  641SOL     OW 1921   3.088   2.901   0.594  0.2769 -0.4402  0.5873
  641SOL    HW1 1922   3.068   2.829   0.661 -0.0994  1.0948 -0.5715
  641SOL    HW2 1923   3.043   2.985   0.631 -1.0423 -0.5856  0.5827
  642SOL     OW 1924   1.223   0.931   1.794 -0.2615  0.2645 -0.3208
  642SOL    HW1 1925   1.283   0.917   1.875 -2.8095 -2.2974 -0.1623
  642SOL    HW2 1926   1.260   1.011   1.733 -0.3758  1.1537 -0.3986
  643SOL     OW 1927   0.797   1.781   2.669  0.3682 -0.6341  0.3218
  643SOL    HW1 1928   0.894   1.814   2.667  2.2496 -4.5202 -2.8212
  643SOL    HW2 1929   0.725   1.855   2.675 -1.3143  2.2853 -1.8389
  644SOL     OW 1930   1.186   2.494   2.589  0.1732 -0.4860 -0.1449
  644SOL    HW1 1931   1.142   2.448   2.506 -2.0230 -1.1632  1.1814
  644SOL    HW2 1932   1.116   2.564   2.618 -2.2006 -1.6324  3.4286
  645SOL     OW 1933   1.541   1.136   1.870  0.0842 -0.3300 -0.1177
  645SOL    HW1 1934   1.594   1.188   1.939  0.0123 -0.0758 -0.9413
  645SOL    HW2 1935   1.575   1.148   1.774  0.6018  2.5855  2.2261
  646SOL     OW 1936   1.018   2.697   2.662 -0.2098 -0.1430  0.1736
  646SOL    HW1 1937   0.956   2.635   2.608 -0.8160 -1.0349 -1.0311
  646SOL    HW2 1938   0.970   2.773   2.711 -1.4038 -0.7629  2.1142
  647SOL     OW 1939   1.028   2.989   0.436 -0.3087 -0.2600  0.2931
  647SOL    HW1 1940   1.071   2.925   0.504 -0.7114 -1.6954 -0.4653
  647SOL    HW2 1941   1.024   3.084   0.470  1.4689 -1.7974 -2.5086
  648SOL     OW 1942   2.744   2.863   1.443 -0.1047 -0.1276 -0.0581
  648SOL    HW1 1943   2.661   2.832   1.388  0.9367  0.9444 -0.0970
  648SOL    HW2 1944   2.755   2.795   1.521 -4.8565 -2.3769  0.3895
  649SOL     OW 1945   0.789   2.377   2.825 -0.2697  0.3028  0.6481
  649SOL    HW1 1946   0.891   2.379   2.822  1.0738  0.7067 -0.8690
  649SOL    HW2 1947   0.759   2.294   2.878 -0.2450  1.2877 -0.4938
  650SOL     OW 1948   2.420   1.950   2.124 -0.0230  0.2132  0.0942
  650SOL    HW1 1949   2.353   1.937   2.198  0.6372  0.7395  0.5215
  650SOL    HW2 1950   2.473   2.033   2.137  0.8538 -1.4524  1.1228
  651SOL     OW 1951   2.912   2.444   2.096 -0.1914 -0.0536 -0.1672
  651SOL    HW1 1952   2.931   2.542   2.103  0.4331  1.3046 -1.5370
  651SOL    HW2 1953   2.917   2.389   2.181 -1.2661 -0.6427  1.0571
  652SOL     OW 1954   2.540   2.030   0.432  0.3745 -0.2907  0.0440
  652SOL    HW1 1955   2.543   2.035   0.535  0.3516 -0.8534  0.4434
  652SOL    HW2 1956   2.509   2.115   0.388 -1.5410 -2.9343 -0.0247
  653SOL     OW 1957   2.713   1.043   1.182 -0.0474  0.4831  0.3650
  653SOL    HW1 1958   2.719   0.988   1.099 -3.2621  2.7517  2.2980
  653SOL    HW2 1959   2.679   0.984   1.254  1.4118  2.5340  0.2018
  654SOL     OW 1960   0.873   0.159   2.911  0.2313 -0.3585 -0.2324
  654SOL    HW1 1961   0.961   0.190   2.865  0.5630  1.1176 -1.3351
  654SOL    HW2 1962   0.827   0.087   2.861  2.7729  3.1809  0.7565
  655SOL     OW 1963   1.140   0.191   1.240 -0.0835  0.2301  0.0017
  655SOL    HW1 1964   1.138   0.126   1.315  1.4383 -1.0033 -1.1204
  655SOL    HW2 1965   1.101   0.278   1.273  1.5508  0.2637 -0.2679
  656SOL     OW 1966   0.363   2.585   1.979  0.2091 -0.1644 -0.3746
  656SOL    HW1 1967   0.435   2.603   1.910  0.3014  1.7054 -1.3943
  656SOL    HW2 1968   0.344   2.668   2.040  0.4339  1.0174 -1.6711
  657SOL     OW 1969   2.422   0.695   0.123 -0.3295 -0.4184  0.7647
  657SOL    HW1 1970   2.429   0.596   0.137 -1.9376  1.2121  2.6449
  657SOL    HW2 1971   2.482   0.730   0.048 -0.9291  0.6208 -0.5477
  658SOL     OW 1972   1.964   1.847   0.862 -0.0533  0.1115  0.0177
  658SOL    HW1 1973   1.981   1.790   0.942  3.6400  0.3375 -2.7847
  658SOL    HW2 1974   2.037   1.828   0.790  1.5598  1.5908  0.1804
  659SOL     OW 1975   2.682   2.268   2.841  0.1739 -0.4750  0.2315
  659SOL    HW1 1976   2.644   2.266   2.746 -1.7791  5.4598 -0.8639
  659SOL    HW2 1977   2.785   2.271   2.845  0.1765  2.5361 -0.5187
  660SOL     OW 1978   1.323   0.421   0.234  0.1103  0.9519  0.2673
  660SOL    HW1 1979   1.279   0.451   0.153  1.5445 -0.5030 -1.1320
  660SOL    HW2 1980   1.423   0.444   0.235  0.1419 -0.0657 -1.3457
  661SOL     OW 1981   2.206   0.130   0.105 -0.1764  0.1086  0.4881
  661SOL    HW1 1982   2.236   0.145   0.198  1.4925 -2.5734  1.6722
  661SOL    HW2 1983   2.244   0.037   0.081 -1.2562 -0.6502 -1.6256
  662SOL     OW 1984   0.607   0.196   0.734 -0.3069 -0.0204  0.5122
  662SOL    HW1 1985   0.564   0.148   0.659  2.2828  1.1393  0.5193
  662SOL    HW2 1986   0.624   0.133   0.810 -0.2823 -1.5755  2.4996
  663SOL     OW 1987   1.335   0.448   2.534  0.0571 -0.3340  0.2634
  663SOL    HW1 1988   1.399   0.450   2.454 -1.2192 -0.2762  0.9861
  663SOL    HW2 1989   1.387   0.413   2.616 -1.3995  0.6455 -0.4114
  664SOL     OW 1990   0.601   2.870   1.267  0.4560 -0.6103  0.2491
  664SOL    HW1 1991   0.642   2.919   1.344 -1.6313  1.7606 -1.4348
  664SOL    HW2 1992   0.516   2.823   1.295  0.2688  1.0872  0.7015
  665SOL     OW 1993   0.810   2.340   1.639  0.5388  0.2843 -0.1049
  665SOL    HW1 1994   0.763   2.371   1.559  3.4756  1.7773  1.3607
  665SOL    HW2 1995   0.871   2.412   1.673 -2.5961 -0.6248 -2.8886
  666SOL     OW 1996   0.326   0.002   2.525 -0.5953 -0.6607  0.4558
  666SOL    HW1 1997   0.355   2.995   2.542  0.5645 -1.3935  3.4151
  666SOL    HW2 1998   0.224   0.006   2.531  3.1620  0.5977  0.2260
  667SOL     OW 1999   1.731   1.707   1.493 -0.2898 -0.1973 -0.3583
  667SOL    HW1 2000   1.777   1.648   1.427  1.6991 -0.0438  1.4040
  667SOL    HW2 2001   1.796   1.739   1.566  0.5160 -1.6787 -0.5793
  668SOL     OW 2002   1.406   0.241   1.826  0.0326  0.2925  0.1613
  668SOL    HW1 2003   1.508   0.241   1.823  0.8309 -3.0193 -0.2215
  668SOL    HW2 2004   1.370   0.256   1.734  0.1564  1.0957  3.3294
  669SOL     OW 2005   2.717   2.631   1.176 -0.0456 -0.6211 -0.6059
  669SOL    HW1 2006   2.639   2.694   1.206 -1.0704  2.5740 -1.3911
  669SOL    HW2 2007   2.806   2.680   1.175 -2.4274 -1.3166 -2.4924
  670SOL     OW 2008   1.451   2.200   2.671 -0.0731 -0.4601  0.6720
  670SOL    HW1 2009   1.422   2.177   2.766  2.4046 -0.1475 -0.1801
  670SOL    HW2 2010   1.515   2.282   2.678  0.8891  1.1744 -0.1770
  671SOL     OW 2011   0.766   1.274   0.499  0.6200 -0.0913 -0.5120
  671SOL    HW1 2012   0.705   1.280   0.581  1.1410 -0.2275 -0.0361
  671SOL    HW2 2013   0.792   1.179   0.477 -2.4843  5.7347 -0.8489
  672SOL     OW 2014   0.014   1.141   2.415 -0.3237 -0.4565 -0.1879
  672SOL    HW1 2015   3.075   1.178   2.506  1.0393  1.2898  1.3169
  672SOL    HW2 2016   3.054   1.058   2.394 -0.7477  0.2670 -0.3196
  673SOL     OW 2017   2.637   2.058   1.525  0.3100  0.3735 -0.6217
  673SOL    HW1 2018   2.661   2.025   1.620 -2.9532  1.1827  1.1017
  673SOL    HW2 2019   2.537   2.050   1.508 -1.5712  0.3625  0.5467
  674SOL     OW 2020   0.408   2.472   2.234  0.4619  0.2103  0.3774
  674SOL    HW1 2021   0.394   2.473   2.130 -2.0944 -1.5054  0.6992
  674SOL    HW2 2022   0.478   2.541   2.263 -0.1861 -1.7422 -1.8024
  675SOL     OW 2023   0.753   0.843   1.538 -0.4802  0.7716 -0.1444
  675SOL    HW1 2024   0.843   0.869   1.573 -1.6477  3.0826  0.5297
  675SOL    HW2 2025   0.711   0.920   1.489  2.4794  0.7916  1.3583
  676SOL     OW 2026   2.315   0.214   1.198  0.1524  0.0445  0.5418
  676SOL    HW1 2027   2.331   0.131   1.139  2.7518 -0.7512  1.9330
  676SOL    HW2 2028   2.373   0.286   1.161  0.2298 -1.2856 -0.4277
  677SOL     OW 2029   2.293   1.379   3.073 -0.2699  0.0122  0.0561
  677SOL    HW1 2030   2.238   1.437   0.050  2.1398 -1.4286  0.8477
  677SOL    HW2 2031   2.274   1.410   2.980 -0.4004  1.3088  3.4950
  678SOL     OW 2032   2.801   1.284   1.097 -0.3929 -0.5798 -0.2914
  678SOL    HW1 2033   2.746   1.362   1.135 -0.9616  0.3479 -1.0682
  678SOL    HW2 2034   2.752   1.199   1.108 -1.7702  2.7924  1.2454
  679SOL     OW 2035   2.758   0.396   3.085  0.7392 -0.0386  0.3225
  679SOL    HW1 2036   2.705   0.351   0.070  1.7523 -1.1305  0.0810
  679SOL    HW2 2037   2.787   0.489   0.015 -0.2097 -1.4792  1.4338
  680SOL     OW 2038   0.224   2.041   1.779 -0.4178 -0.9192  0.2653
  680SOL    HW1 2039   0.125   2.055   1.798  2.0535 -1.4673  1.0052
  680SOL    HW2 2040   0.242   1.949   1.813 -1.4260 -1.3904  2.5955
  681SOL     OW 2041   1.914   1.986   1.422 -0.4320  0.4725  0.0040
  681SOL    HW1 2042   1.929   1.920   1.498  0.5607 -0.8239  1.3052
  681SOL    HW2 2043   1.815   2.021   1.422  0.0464  0.3107 -1.4383
  682SOL     OW 2044   0.343   1.583   3.037  0.5505  0.0164 -0.1483
  682SOL    HW1 2045   0.401   1.649   2.992  3.3595 -1.2970 -0.4750
  682SOL    HW2 2046   0.382   1.490   3.013 -0.3432 -0.6445 -1.0055
  683SOL     OW 2047   0.143   2.076   1.388  0.4871 -0.0405 -0.4086
  683SOL    HW1 2048   0.188   2.164   1.415  1.7957 -0.4403 -1.4964
  683SOL    HW2 2049   0.182   2.050   1.299 -3.8300  0.7716  2.2192
  684SOL     OW 2050   2.871   1.230   2.015  0.0347 -0.5741 -0.0892
  684SOL    HW1 2051   2.812   1.209   1.937  0.5105  1.6971  2.2817
  684SOL    HW2 2052   2.826   1.247   2.106 -1.6287  0.9004 -1.8228
  685SOL     OW 2053   1.429   0.889   0.697  0.3358  0.0017  0.1998
  685SOL    HW1 2054   1.486   0.869   0.780 -1.6694 -0.4076 -0.3766
  685SOL    HW2 2055   1.331   0.870   0.722  0.6914  0.0660 -1.3390
  686SOL     OW 2056   0.496   0.379   0.937 -0.2736 -0.2150  0.7290
  686SOL    HW1 2057   0.398   0.381   0.954  0.3786  0.6858  1.3511
  686SOL    HW2 2058   0.514   0.320   0.851 -1.8664 -0.6474  1.4284
  687SOL     OW 2059   0.982   2.105   2.823 -0.4582 -0.3546 -0.4885
  687SOL    HW1 2060   1.028   2.094   2.917 -1.7381 -0.8650 -0.0186
  687SOL    HW2 2061   1.008   2.194   2.790 -1.8646 -2.1382  2.4746
  688SOL     OW 2062   1.688   0.805   1.400  0.3326 -0.0664 -0.0894
  688SOL    HW1 2063   1.594   0.834   1.366 -0.6580 -1.3969 -1.6764
  688SOL    HW2 2064   1.688   0.787   1.500  1.4930  0.0845 -1.9497
  689SOL     OW 2065   1.793   0.238   0.994 -0.2814  0.0004 -0.3742
  689SOL    HW1 2066   1.876   0.241   1.053  0.4734  0.0550 -1.4803
  689SOL    HW2 2067   1.777   0.329   0.948 -0.7535  0.0426  2.3315
  690SOL     OW 2068   0.019   1.597   0.644 -0.0446  0.1309  0.1069
  690SOL    HW1 2069   0.016   1.640   0.739 -1.2417  1.5049 -0.1277
  690SOL    HW2 2070   3.062   1.660   0.578 -2.7180 -0.0610 -0.4372
  691SOL     OW 2071   0.486   2.332   1.260 -0.3516 -0.6254 -0.1590
  691SOL    HW1 2072   0.562   2.328   1.196 -1.3292  1.3354  2.3184
  691SOL    HW2 2073   0.408   2.383   1.217  0.1721 -0.3785 -1.9019
  692SOL     OW 2074   1.719   0.075   1.559 -0.1754  0.2151  0.1982
  692SOL    HW1 2075   1.701   0.080   1.662 -0.2143 -0.1678  1.6347
  692SOL    HW2 2076   1.819   0.070   1.541 -1.2227  1.3950  1.1978
  693SOL     OW 2077   0.628   1.769   2.131  0.3488 -0.0058  0.0015
  693SOL    HW1 2078   0.576   1.828   2.070  0.1949 -0.4979 -1.4895
  693SOL    HW2 2079   0.650   1.815   2.217 -2.3446 -1.8098 -2.3451
  694SOL     OW 2080   1.919   1.305   1.015  0.0009 -0.1370  0.3187
  694SOL    HW1 2081   1.825   1.331   0.976 -2.6691  0.8927  1.3481
  694SOL    HW2 2082   1.987   1.378   0.997  1.2577  3.0761  0.8511
  695SOL     OW 2083   1.154   0.848   0.780 -0.9131 -0.1151 -0.1261
  695SOL    HW1 2084   1.104   0.772   0.730 -1.7568 -1.9497  0.9979
  695SOL    HW2 2085   1.167   0.823   0.875 -0.4266  1.2740 -4.2599
  696SOL     OW 2086   0.507   0.011   0.536  0.3706 -0.0283 -0.1780
  696SOL    HW1 2087   0.438   3.086   0.458  0.9131 -0.7761  0.4902
  696SOL    HW2 2088   0.599   3.063   0.513 -0.0917  1.7775  0.3455
  697SOL     OW 2089   2.137   0.503   1.065 -0.1184 -0.2987 -1.0190
  697SOL    HW1 2090   2.069   0.495   1.141 -1.2262 -0.0465  0.3800
  697SOL    HW2 2091   2.220   0.546   1.099  1.1753 -1.6490  0.6330
  698SOL     OW 2092   1.548   1.302   2.093 -0.0887 -0.1438  0.2501
  698SOL    HW1 2093   1.483   1.380   2.071 -2.4914  0.2493 -0.7558
  698SOL    HW2 2094   1.530   1.264   2.185 -2.1037  2.0437  2.6957
  699SOL     OW 2095   2.616   0.438   1.911  0.4027 -0.2773 -0.2336
  699SOL    HW1 2096   2.663   0.527   1.931  1.0637  0.1106  0.7659
  699SOL    HW2 2097   2.667   0.359   1.953 -0.7719  0.0971  2.0177
  700SOL     OW 2098   1.720   2.616   0.414 -0.6995  0.1495 -0.4868
  700SOL    HW1 2099   1.696   2.695   0.473 -1.8521 -1.5354 -0.8532
  700SOL    HW2 2100   1.821   2.585   0.421 -1.1138  0.5536 -0.2512
  701SOL     OW 2101   2.607   1.968   2.536 -0.2866 -0.0551 -0.1876
  701SOL    HW1 2102   2.628   1.875   2.502 -0.8674 -2.5912  0.3567
  701SOL    HW2 2103   2.625   1.973   2.636 -1.3869 -2.9101 -0.1047
  702SOL     OW 2104   0.763   3.012   0.493 -0.2659  0.1971  0.2439
  702SOL    HW1 2105   0.757   2.974   0.588 -0.0104 -0.8895  1.9446
  702SOL    HW2 2106   0.863   3.009   0.466 -0.8073 -0.1691  0.0658
  703SOL     OW 2107   1.744   2.972   2.149 -1.0987 -0.0102 -0.2611
  703SOL    HW1 2108   1.759   2.923   2.061 -1.4600  1.2144 -0.2798
  703SOL    HW2 2109   1.752   2.910   2.225  2.7924 -1.4033 -3.3561
  704SOL     OW 2110   2.739   2.103   0.093 -0.3192 -0.3468 -0.6271
  704SOL    HW1 2111   2.829   2.062   0.079  0.1664 -0.9519 -1.0684
  704SOL    HW2 2112   2.755   2.192   0.140  1.1241  0.3131  0.1873
  705SOL     OW 2113   2.916   2.305   2.349  0.0816  0.2584  0.3049
  705SOL    HW1 2114   2.897   2.206   2.353 -2.5900  1.3064  2.0107
  705SOL    HW2 2115   2.958   2.335   2.440  1.7154  2.6132  0.2953
  706SOL     OW 2116   2.500   0.038   0.339  0.3986 -0.3501 -0.5229
  706SOL    HW1 2117   2.574   0.080   0.279  1.5271  1.1490  2.3937
  706SOL    HW2 2118   2.531   3.040   0.386 -2.1460  0.0467  1.5407
  707SOL     OW 2119   1.132   0.516   2.698 -0.1124 -0.3030  0.1988
  707SOL    HW1 2120   1.158   0.588   2.766 -0.8092 -1.4731 -1.7994
  707SOL    HW2 2121   1.210   0.498   2.636  1.1136 -0.2524 -0.0671
  708SOL     OW 2122   0.412   2.234   1.696 -0.0660  0.5305  0.8488
  708SOL    HW1 2123   0.341   2.184   1.740  4.2098 -0.2902 -3.8219
  708SOL    HW2 2124   0.498   2.227   1.752 -0.8476  0.2612  0.6550
  709SOL     OW 2125   1.405   2.898   1.820  0.2105 -0.5420 -0.3883
  709SOL    HW1 2126   1.367   2.993   1.821  1.4553  1.7696 -0.4035
  709SOL    HW2 2127   1.449   2.869   1.732 -1.7286 -0.0663 -0.2331
  710SOL     OW 2128   1.448   2.579   2.589 -0.1662 -0.0611 -0.3413
  710SOL    HW1 2129   1.349   2.550   2.586  0.4933  0.9125  0.2540
  710SOL    HW2 2130   1.500   2.510   2.640 -0.4876 -0.0368 -2.1968
  711SOL     OW 2131   0.864   2.486   2.562 -0.0781  0.3839  0.6801
  711SOL    HW1 2132   0.831   2.423   2.484 -0.8898 -1.0101 -0.1520
  711SOL    HW2 2133   0.827   2.462   2.653  0.7982  1.3650 -0.6595
  712SOL     OW 2134   1.135   2.084   3.074  0.6111 -0.4129  0.6804
  712SOL    HW1 2135   1.115   1.993   0.021 -0.5037  1.9482  2.6949
  712SOL    HW2 2136   1.150   2.150   0.060 -0.0253  0.0618 -1.1871
  713SOL     OW 2137   2.081   1.120   1.734 -0.7370  0.6234  0.7257
  713SOL    HW1 2138   2.028   1.083   1.655  0.1753  0.1444 -2.3938
  713SOL    HW2 2139   2.023   1.109   1.814  2.1255  2.5150 -2.3765
  714SOL     OW 2140   0.732   0.977   1.925  0.4175 -0.6273  0.1685
  714SOL    HW1 2141   0.665   0.972   2.003 -0.7679  2.0742 -1.8745
  714SOL    HW2 2142   0.815   0.913   1.936  0.0140 -2.8417 -1.1509
  715SOL     OW 2143   2.674   0.310   0.248  0.0588  0.5299 -0.1120
  715SOL    HW1 2144   2.749   0.245   0.243 -0.0286  1.1306 -0.4550
  715SOL    HW2 2145   2.709   0.391   0.300 -1.4239  0.7051  0.9220
  716SOL     OW 2146   0.358   2.665   0.958 -0.7163  0.0401 -0.2407
  716SOL    HW1 2147   0.446   2.697   0.990 -2.6714  0.3116  0.8053
  716SOL    HW2 2148   0.298   2.737   0.920 -2.8685 -0.4770  2.3439
  717SOL     OW 2149   2.547   0.666   0.862  0.3814 -0.1933 -0.9172
  717SOL    HW1 2150   2.490   0.643   0.781  0.6788 -0.5510  1.5042
  717SOL    HW2 2151   2.475   0.711   0.923 -0.3378 -1.3215 -0.2766
  718SOL     OW 2152   1.642   1.152   1.620 -0.5183 -0.2293  0.3944
  718SOL    HW1 2153   1.693   1.235   1.646  2.5838 -0.7381  2.0354
  718SOL    HW2 2154   1.658   1.122   1.523 -2.5608  0.4584 -3.0438
  719SOL     OW 2155   2.776   2.584   2.849 -0.3002 -0.6098  0.2422
  719SOL    HW1 2156   2.676   2.593   2.871 -0.0289  0.4294  1.3117
  719SOL    HW2 2157   2.790   2.568   2.753 -1.5091  1.7719  2.4951
  720SOL     OW 2158   1.064   0.414   0.865  0.0588 -0.9561  0.1975
  720SOL    HW1 2159   1.005   0.470   0.930 -0.7750 -1.1627  2.4038
  720SOL    HW2 2160   1.039   0.316   0.871 -0.0311  0.8850  0.9294
  721SOL     OW 2161   2.023   0.258   1.157  0.6269 -0.5382  0.0228
  721SOL    HW1 2162   1.974   0.173   1.192 -1.1244  0.8026  0.6021
  721SOL    HW2 2163   2.124   0.243   1.155 -1.2768 -0.1689  0.9152
  722SOL     OW 2164   0.663   2.192   1.816  0.2284 -0.2253  0.3645
  722SOL    HW1 2165   0.685   2.205   1.918 -1.1205  0.2968 -2.3755
  722SOL    HW2 2166   0.704   2.264   1.756 -0.5028 -0.5513  0.7434
  723SOL     OW 2167   1.342   2.990   1.474  0.0711  0.5344  0.1969
  723SOL    HW1 2168   1.390   3.073   1.444 -2.2463 -0.7298  0.2203
  723SOL    HW2 2169   1.400   2.916   1.517 -0.0479  2.6774  0.9041
  724SOL     OW 2170   1.664   1.984   1.564 -0.2938 -0.2671  0.0507
  724SOL    HW1 2171   1.566   1.986   1.524 -1.8092  0.3027 -0.0604
  724SOL    HW2 2172   1.694   1.890   1.591 -0.6249  1.9748  0.1206
  725SOL     OW 2173   1.461   2.402   1.315  0.2178 -0.2200  0.3561
  725SOL    HW1 2174   1.427   2.325   1.257 -2.5274  0.3907  0.5620
  725SOL    HW2 2175   1.494   2.482   1.254  0.0176  1.2869  1.5225
  726SOL     OW 2176   1.804   0.295   3.068  0.8945  0.7767  0.5666
  726SOL    HW1 2177   1.802   0.309   0.082 -0.3009  1.0802  1.4944
  726SOL    HW2 2178   1.859   0.217   3.039  0.6768  2.3078  3.2780
  727SOL     OW 2179   1.364   1.685   0.386  0.2736 -0.1361  1.0448
  727SOL    HW1 2180   1.322   1.596   0.403 -2.0365  1.9401  0.7678
  727SOL    HW2 2181   1.466   1.674   0.395 -1.6161 -0.0269 -0.2247
  728SOL     OW 2182   1.813   2.628   2.145  0.0900 -0.8608  0.2822
  728SOL    HW1 2183   1.741   2.574   2.192 -1.2940 -0.3294  1.6288
  728SOL    HW2 2184   1.779   2.702   2.085  1.0969 -0.7803 -1.1359
  729SOL     OW 2185   2.002   2.514   1.655  0.2244 -0.4846 -0.0661
  729SOL    HW1 2186   1.963   2.490   1.744  2.6203  1.6492 -1.7843
  729SOL    HW2 2187   2.083   2.458   1.631 -1.0138  0.4456  1.6491
  730SOL     OW 2188   1.467   0.854   2.630  0.0561 -0.2150  0.1527
  730SOL    HW1 2189   1.475   0.787   2.712 -1.6469 -2.1266  0.8631
  730SOL    HW2 2190   1.436   0.807   2.542  1.5860 -0.1209  0.3979
  731SOL     OW 2191   0.816   0.048   1.016  0.3704  0.0390  0.3728
  731SOL    HW1 2192   0.719   0.035   0.988  1.6609  1.0342 -0.5370
  731SOL    HW2 2193   0.842   3.088   1.101 -1.3253  2.3917  1.1192
  732SOL     OW 2194   1.354   2.913   1.207  0.2337  0.6578 -0.2034
  732SOL    HW1 2195   1.345   2.931   1.308  1.4308  2.2915 -0.0145
  732SOL    HW2 2196   1.307   2.990   1.159 -1.3683 -2.5065 -0.3670
  733SOL     OW 2197   1.360   1.118   1.157 -0.0552 -0.1595 -0.4255
  733SOL    HW1 2198   1.337   1.107   1.057 -0.0727 -0.0505  0.4726
  733SOL    HW2 2199   1.450   1.166   1.160 -1.6862 -1.8022  0.7383
  734SOL     OW 2200   2.422   2.255   0.335  0.0946  0.1077 -0.2845
  734SOL    HW1 2201   2.337   2.233   0.283  0.0537 -1.4427  0.6863
  734SOL    HW2 2202   2.467   2.346   0.315 -0.6517  0.6200 -0.8362
  735SOL     OW 2203   0.838   0.286   0.522 -0.0971 -0.1019  0.0371
  735SOL    HW1 2204   0.907   0.211   0.536 -0.7525  2.2874  0.4062
  735SOL    HW2 2205   0.748   0.256   0.557 -1.7402 -0.6253  1.3073
  736SOL     OW 2206   1.968   2.137   2.647  0.3497  0.3101  0.4190
  736SOL    HW1 2207   1.909   2.103   2.724 -0.8852  1.9927  0.2545
  736SOL    HW2 2208   1.937   2.109   2.555  2.7003 -0.0617 -2.4379
  737SOL     OW 2209   0.983   2.390   1.087  0.0126 -1.3525  0.6098
  737SOL    HW1 2210   1.066   2.426   1.033 -0.5211  1.1970 -2.8922
  737SOL    HW2 2211   0.917   2.369   1.011  0.4854  0.1384  1.6718
  738SOL     OW 2212   1.588   0.053   2.318  0.2126  0.3917  0.2756
  738SOL    HW1 2213   1.583   0.018   2.413 -1.2706 -1.2957 -1.1623
  738SOL    HW2 2214   1.635   3.078   2.252  0.4971 -2.0386  0.3639
  739SOL     OW 2215   0.692   2.283   2.100  0.3687 -0.4718 -0.2678
  739SOL    HW1 2216   0.777   2.236   2.078 -0.5018  1.7918  1.6190
  739SOL    HW2 2217   0.608   2.223   2.092 -0.2944 -3.4185 -1.0702
  740SOL     OW 2218   1.673   2.400   1.469 -0.3723  0.2951  0.4636
  740SOL    HW1 2219   1.752   2.436   1.417 -2.5109 -1.3233 -0.9484
  740SOL    HW2 2220   1.584   2.412   1.418 -0.4453  1.2613  1.5121
  741SOL     OW 2221   2.542   1.351   0.050 -0.5910  0.5989  0.3482
  741SOL    HW1 2222   2.552   1.453   0.051  0.1829 -0.9464  1.9129
  741SOL    HW2 2223   2.447   1.319   0.045  2.9599 -1.0531  1.6914
  742SOL     OW 2224   0.707   1.576   1.936  0.2017  0.0520  0.0837
  742SOL    HW1 2225   0.691   1.631   2.023  1.6536  1.1731  1.5681
  742SOL    HW2 2226   0.652   1.491   1.939 -0.0148  2.2049 -2.1388
  743SOL     OW 2227   2.966   0.906   2.349 -0.4608 -0.1500  0.1844
  743SOL    HW1 2228   3.004   0.909   2.252  0.9521 -0.1487 -0.6147
  743SOL    HW2 2229   2.948   0.816   2.392  0.8309 -0.1875  2.4199
  744SOL     OW 2230   2.141   2.146   1.455 -0.0686  0.1926  0.6234
  744SOL    HW1 2231   2.213   2.078   1.475 -0.2830 -1.3851 -3.3503
  744SOL    HW2 2232   2.049   2.103   1.444 -0.0931 -1.1309  1.3438
  745SOL     OW 2233   2.345   1.728   1.442  0.2933 -0.3316 -0.2617
  745SOL    HW1 2234   2.258   1.690   1.468 -1.1820 -1.2729 -0.4999
  745SOL    HW2 2235   2.425   1.665   1.447 -1.8815  2.8080  0.0791
  746SOL     OW 2236   2.657   1.072   0.759 -0.6661  0.2430  0.2304
  746SOL    HW1 2237   2.567   1.047   0.799  1.7163  1.9925  1.8823
  746SOL    HW2 2238   2.656   1.072   0.659  0.1443 -0.4125  0.0601
  747SOL     OW 2239   1.792   2.266   0.524 -0.1447  0.0851  0.9041
  747SOL    HW1 2240   1.873   2.300   0.576  0.4166 -2.8902 -2.9203
  747SOL    HW2 2241   1.709   2.326   0.528 -1.9735 -2.1790 -0.8449
  748SOL     OW 2242   0.966   2.191   0.579 -0.2751 -0.0773 -0.3746
  748SOL    HW1 2243   0.972   2.137   0.497  1.9441  1.0037 -3.2149
  748SOL    HW2 2244   1.052   2.174   0.640 -1.3318 -0.0181  0.4430
  749SOL     OW 2245   2.900   0.427   2.412  0.4441 -0.0137 -0.5797
  749SOL    HW1 2246   2.930   0.354   2.477  0.3633  0.0449 -1.7594
  749SOL    HW2 2247   2.981   0.439   2.350  0.3339 -2.1018  0.5747
  750SOL     OW 2248   1.490   0.142   1.436  0.0848  0.1123  0.7959
  750SOL    HW1 2249   1.580   0.113   1.482 -1.4262  1.1252 -0.6670
  750SOL    HW2 2250   1.512   0.185   1.345 -1.7317  1.5596 -1.5362
  751SOL     OW 2251   1.604   2.419   2.739 -0.4967 -0.2999  0.2821
  751SOL    HW1 2252   1.567   2.457   2.826 -0.3585 -3.0873 -2.4031
  751SOL    HW2 2253   1.677   2.348   2.756 -1.9542  0.8379  1.7911
  752SOL     OW 2254   1.802   2.059   0.359 -0.3685  0.2503 -0.2102
  752SOL    HW1 2255   1.832   2.142   0.410 -0.7783  0.7145 -1.0199
  752SOL    HW2 2256   1.877   1.994   0.365 -0.3357 -0.0572  2.5236
  753SOL     OW 2257   1.579   0.831   2.200  0.0663  0.5653 -0.7087
  753SOL    HW1 2258   1.510   0.811   2.273  1.2097 -0.4897 -2.4621
  753SOL    HW2 2259   1.670   0.854   2.243  2.3280 -1.0211  0.8175
  754SOL     OW 2260   0.257   2.867   0.517  0.0686  0.6247  0.8094
  754SOL    HW1 2261   0.262   2.770   0.549 -0.8206 -2.6378 -1.7272
  754SOL    HW2 2262   0.163   2.896   0.525 -0.8796  0.0457  1.3115
  755SOL     OW 2263   1.981   0.019   1.500  0.6340  0.0715  0.0527
  755SOL    HW1 2264   2.064   3.075   1.554 -2.6371 -2.3024 -0.0760
  755SOL    HW2 2265   2.004   0.043   1.406 -1.2700 -0.3158  2.3470
  756SOL     OW 2266   1.216   1.251   2.498  0.1955 -0.2555 -0.1735
  756SOL    HW1 2267   1.305   1.209   2.528 -0.6299 -1.7185 -0.0267
  756SOL    HW2 2268   1.196   1.220   2.400 -0.3130  0.4651 -1.1035
  757SOL     OW 2269   2.962   2.859   1.258  0.3450 -0.0493 -0.3023
  757SOL    HW1 2270   3.017   2.775   1.266 -1.8664  2.9262 -0.5679
  757SOL    HW2 2271   2.894   2.864   1.333  0.8353  0.8568 -0.0862
  758SOL     OW 2272   0.725   2.966   1.504 -0.2346  0.4389  0.1735
  758SOL    HW1 2273   0.635   2.988   1.544 -2.9951  0.2616 -2.1422
  758SOL    HW2 2274   0.789   3.037   1.542 -2.9209  0.1701  1.1550
  759SOL     OW 2275   2.341   1.285   0.738 -0.5179 -0.4178 -0.2458
  759SOL    HW1 2276   2.364   1.290   0.637  3.5106  1.2356  0.0023
  759SOL    HW2 2277   2.386   1.202   0.777 -0.0905 -1.8488  0.2793
  760SOL     OW 2278   2.055   0.490   1.547 -0.1442 -0.1054 -0.2107
  760SOL    HW1 2279   2.000   0.471   1.467  1.4868  2.3450  0.9071
  760SOL    HW2 2280   2.087   0.401   1.588 -1.2818 -0.9567 -0.2767
  761SOL     OW 2281   1.949   0.102   0.384  0.5525 -0.6100  0.1362
  761SOL    HW1 2282   2.026   0.132   0.442 -1.0909 -0.4175  1.2397
  761SOL    HW2 2283   1.956   0.010   0.341  0.3030 -0.7563 -2.0822
  762SOL     OW 2284   2.196   2.159   0.188  0.3482 -0.1071 -0.2281
  762SOL    HW1 2285   2.146   2.248   0.203 -0.7138  2.6414  4.4849
  762SOL    HW2 2286   2.187   2.118   0.097 -1.2345  1.4267  3.0139
  763SOL     OW 2287   0.701   0.918   1.049 -0.3318  0.1497  0.3945
  763SOL    HW1 2288   0.718   0.841   0.981  0.6486  1.3799 -2.1160
  763SOL    HW2 2289   0.745   1.001   1.010 -0.7290 -1.4951  0.4130
  764SOL     OW 2290   2.450   2.338   2.996 -0.1309  0.7487 -0.2006
  764SOL    HW1 2291   2.544   2.311   2.958  1.3881 -3.1039 -0.3549
  764SOL    HW2 2292   2.389   2.367   2.919 -3.9307 -2.4759  2.6972
  765SOL     OW 2293   0.758   0.537   2.217  0.3669 -0.4719 -0.2872
  765SOL    HW1 2294   0.693   0.461   2.243 -0.6337 -2.7709  0.5453
  765SOL    HW2 2295   0.828   0.499   2.154 -0.3468  2.4913  1.8328
  766SOL     OW 2296   0.231   1.298   2.351  0.4702 -0.3533 -0.0460
  766SOL    HW1 2297   0.149   1.242   2.380  0.1919 -2.2439  1.2524
  766SOL    HW2 2298   0.201   1.390   2.313  0.6842 -0.9144  0.5106
  767SOL     OW 2299   0.140   1.678   2.020  0.2882  0.0529  0.2652
  767SOL    HW1 2300   0.207   1.708   1.946  1.6708  1.9228 -2.7611
  767SOL    HW2 2301   0.162   1.731   2.105  0.7537 -0.8107 -0.2922
  768SOL     OW 2302   0.969   0.873   2.788 -0.0164 -0.0714 -0.2746
  768SOL    HW1 2303   0.911   0.903   2.869 -2.3446  0.2001  2.7247
  768SOL    HW2 2304   1.004   0.961   2.741  0.4368  2.9403 -2.0195
  769SOL     OW 2305   1.677   2.770   2.850  0.9978 -0.2200  0.8134
  769SOL    HW1 2306   1.704   2.868   2.835 -0.4492 -2.2293 -0.8897
  769SOL    HW2 2307   1.730   2.706   2.792 -0.7220  1.3884 -1.0497
  770SOL     OW 2308   2.941   0.673   2.563  0.0935  0.2201  0.0066
  770SOL    HW1 2309   2.908   0.593   2.510  3.1112 -0.2086 -0.1411
  770SOL    HW2 2310   2.877   0.699   2.639 -2.3949  0.9080 -1.9084
  771SOL     OW 2311   0.640   2.119   1.339  0.6963  0.1279 -0.4839
  771SOL    HW1 2312   0.737   2.138   1.363 -1.6578 -0.9658  0.4780
  771SOL    HW2 2313   0.587   2.203   1.356  1.8417  0.0513  1.5919
  772SOL     OW 2314   0.737   0.432   2.885 -0.2953  0.2260 -0.0298
  772SOL    HW1 2315   0.747   0.446   2.782  3.8320 -0.6896 -1.2488
  772SOL    HW2 2316   0.700   0.515   2.929 -0.5538  1.6642  0.2658
  773SOL     OW 2317   2.343   1.079   1.698  0.3036 -0.0320  0.3835
  773SOL    HW1 2318   2.375   1.051   1.790 -0.5036 -0.8553  0.4130
  773SOL    HW2 2319   2.243   1.094   1.704  0.8948 -2.0964  1.6101
  774SOL     OW 2320   0.951   0.853   0.439 -0.3160 -0.9591 -0.4589
  774SOL    HW1 2321   0.909   0.781   0.381 -2.8247 -0.0710 -1.8645
  774SOL    HW2 2322   1.053   0.847   0.437  3.2922 -0.6612  0.4788
  775SOL     OW 2323   2.052   2.644   2.888  0.1780  0.4976 -0.3371
  775SOL    HW1 2324   2.140   2.666   2.840 -0.8741 -0.2357  0.3887
  775SOL    HW2 2325   1.983   2.597   2.827 -2.7618 -2.3713  0.0776
  776SOL     OW 2326   2.235   3.028   2.067 -0.0736  0.3530  0.0579
  776SOL    HW1 2327   2.171   3.036   2.144 -0.5510  0.6313 -3.8160
  776SOL    HW2 2328   2.306   2.961   2.093 -0.5427 -2.9503 -2.7987
  777SOL     OW 2329   0.638   1.087   2.702 -0.2716 -0.0317 -0.1498
  777SOL    HW1 2330   0.628   0.992   2.664 -1.2209 -2.1578 -1.5047
  777SOL    HW2 2331   0.551   1.141   2.682 -1.0038  1.5873  2.4712
  778SOL     OW 2332   0.696   0.066   0.270  0.6271  0.3385  0.1032
  778SOL    HW1 2333   0.775   0.106   0.221 -2.6421 -2.5783  1.6104
  778SOL    HW2 2334   0.733   0.029   0.357  1.4859 -0.6910 -0.2357
  779SOL     OW 2335   0.185   1.100   0.007 -0.4385  0.2880 -0.4284
  779SOL    HW1 2336   0.180   1.007   0.055  1.0266 -0.2018 -0.3704
  779SOL    HW2 2337   0.284   1.117   3.068  1.3769 -0.8295  0.4656
  780SOL     OW 2338   2.080   0.504   2.654 -0.4552 -0.7535  0.3724
  780SOL    HW1 2339   2.137   0.555   2.723 -0.8378  1.2570  1.7956
  780SOL    HW2 2340   2.003   0.562   2.616 -0.2738  1.8448 -0.7856
  781SOL     OW 2341   2.143   1.148   2.127  0.6938 -0.3145 -0.0271
  781SOL    HW1 2342   2.091   1.169   2.214  0.8242  2.7646  3.2933
  781SOL    HW2 2343   2.080   1.106   2.057 -1.5367 -0.4713 -0.2980
  782SOL     OW 2344   1.066   1.615   2.264  0.3808  0.3715 -0.3888
  782SOL    HW1 2345   1.023   1.612   2.173 -0.1803 -3.4289  2.3407
  782SOL    HW2 2346   1.054   1.699   2.312  0.5020 -3.6869  1.0421
  783SOL     OW 2347   1.203   0.014   1.052 -0.3235  0.0390 -1.0053
  783SOL    HW1 2348   1.183   0.078   1.132 -1.3205 -0.1429  0.1612
  783SOL    HW2 2349   1.161   3.009   1.062  3.3279  1.0183  0.2501
  784SOL     OW 2350   1.569   0.614   3.074 -0.2656  0.5200  0.2953
  784SOL    HW1 2351   1.638   0.682   3.039 -0.0132 -1.1092  0.1442
  784SOL    HW2 2352   1.560   0.621   0.087  1.2432 -0.5763 -0.4779
  785SOL     OW 2353   1.977   0.475   3.008  0.0589 -0.0952 -0.2857
  785SOL    HW1 2354   1.980   0.557   3.069 -0.7137 -1.2896  0.4476
  785SOL    HW2 2355   1.900   0.412   3.032 -1.1433  0.8309 -0.4070
  786SOL     OW 2356   2.917   1.688   0.421 -0.4446  0.2735 -0.2762
  786SOL    HW1 2357   2.851   1.764   0.442 -2.8513  1.4422 -0.5949
  786SOL    HW2 2358   2.871   1.602   0.404 -0.7240  1.0372 -2.3025
  787SOL     OW 2359   1.628   1.574   0.171  0.8999 -0.3630  0.4451
  787SOL    HW1 2360   1.652   1.664   0.212 -2.1825  1.2861 -1.3303
  787SOL    HW2 2361   1.657   1.494   0.227  1.1840  1.3240 -0.3141
  788SOL     OW 2362   1.379   1.863   1.250  0.5423  0.8237  0.0062
  788SOL    HW1 2363   1.471   1.875   1.205  2.2095  1.7026  1.4748
  788SOL    HW2 2364   1.309   1.871   1.177  0.1925 -1.3902  0.2895
  789SOL     OW 2365   0.040   1.362   2.034  0.5185  0.0710  0.2017
  789SOL    HW1 2366   0.033   1.417   2.116 -0.5874 -1.0807  0.8845
  789SOL    HW2 2367   3.043   1.305   2.019 -0.7312  0.9458  0.5031
  790SOL     OW 2368   0.574   0.036   0.029 -0.7040  0.3903  0.1006
  790SOL    HW1 2369   0.522   3.035   0.033  0.3137 -0.2393  0.0873
  790SOL    HW2 2370   0.627   0.040   0.113 -1.2786 -0.1713 -2.0947
  791SOL     OW 2371   0.703   0.073   2.409  0.2991 -0.0212  0.2393
  791SOL    HW1 2372   0.642   0.091   2.490  0.0795 -1.3424  0.3387
  791SOL    HW2 2373   0.761   3.077   2.428  1.3055 -1.9860  1.0489
  792SOL     OW 2374   1.841   0.430   2.331 -0.4109 -0.0441  0.5610
  792SOL    HW1 2375   1.817   0.514   2.389 -1.5872  2.7780 -0.5303
  792SOL    HW2 2376   1.827   0.449   2.233 -0.3652 -0.1414 -2.2471
  793SOL     OW 2377   2.680   0.866   1.401 -0.1126  0.1397  0.0347
  793SOL    HW1 2378   2.653   0.806   1.479 -0.6450  1.6454 -0.2252
  793SOL    HW2 2379   2.778   0.871   1.384 -3.2801  1.6117  1.1047
  794SOL     OW 2380   0.121   0.827   1.702 -0.1514  0.2468 -0.0691
  794SOL    HW1 2381   0.054   0.859   1.771  2.3949 -0.9926  1.5335
  794SOL    HW2 2382   0.216   0.861   1.721  2.3232 -1.4900  3.4150
  795SOL     OW 2383   2.748   1.462   0.304  0.3003 -0.4658  0.7478
  795SOL    HW1 2384   2.696   1.521   0.232 -0.5045  0.1569 -1.1912
  795SOL    HW2 2385   2.755   1.365   0.283 -0.4801  1.2342  2.2555
  796SOL     OW 2386   0.090   2.584   0.352 -0.0711 -0.3904  0.0894
  796SOL    HW1 2387   0.079   2.676   0.307  0.6737  1.8916 -2.1128
  796SOL    HW2 2388   0.097   2.511   0.281 -1.0353  0.1537 -2.5414
  797SOL     OW 2389   1.829   2.445   2.467 -0.3646 -0.1324  0.1397
  797SOL    HW1 2390   1.845   2.478   2.563 -0.1081  2.1026  0.7101
  797SOL    HW2 2391   1.730   2.446   2.443  0.0972  2.2726 -0.5944
  798SOL     OW 2392   0.281   1.114   1.026 -0.3019 -0.4416 -0.6943
  798SOL    HW1 2393   0.241   1.057   0.953 -1.7159  0.8144  1.3487
  798SOL    HW2 2394   0.214   1.115   1.105 -0.1147 -0.1041  0.6285
  799SOL     OW 2395   3.084   0.617   2.836 -0.1866 -0.2883 -0.9770
  799SOL    HW1 2396   3.055   0.624   2.741  0.7530 -0.3813  2.2827
  799SOL    HW2 2397   0.098   0.620   2.848  1.0825 -0.1915 -1.6621
  800SOL     OW 2398   2.754   1.876   0.537  0.0063 -0.5468 -0.8642
  800SOL    HW1 2399   2.833   1.940   0.522  0.3713 -0.6671 -1.4944
  800SOL    HW2 2400   2.670   1.898   0.487  2.4581 -1.0021 -0.1360
  801SOL     OW 2401   1.554   1.288   1.232 -0.1474 -0.2409 -0.4191
  801SOL    HW1 2402   1.614   1.352   1.183 -0.7605 -0.7385 -2.7136
  801SOL    HW2 2403   1.516   1.334   1.317  0.1185 -0.4773  0.1136
  802SOL     OW 2404   0.946   1.902   1.755  0.3814 -0.1378 -0.1615
  802SOL    HW1 2405   1.005   1.902   1.839 -2.0686  2.6928  1.3211
  802SOL    HW2 2406   0.964   1.989   1.704 -0.7345 -0.1557 -0.1698
  803SOL     OW 2407   0.309   1.815   0.945  0.1062  0.5266  0.3498
  803SOL    HW1 2408   0.353   1.728   0.974 -1.9222  0.5485  0.7260
  803SOL    HW2 2409   0.315   1.830   0.841  0.4709 -0.8052  0.0530
  804SOL     OW 2410   1.023   2.455   1.350 -0.3786 -0.0030 -0.1511
  804SOL    HW1 2411   1.017   2.437   1.250 -1.7469  1.3636  2.8326
  804SOL    HW2 2412   1.098   2.399   1.394  0.7328  1.8179  2.4076
  805SOL     OW 2413   1.834   1.319   0.074  0.4928  0.1723  0.9983
  805SOL    HW1 2414   1.746   1.302   0.025  1.0698 -0.1415 -0.9729
  805SOL    HW2 2415   1.884   1.385   0.016 -2.5839 -0.6069  0.9790
  806SOL     OW 2416   1.699   3.053   1.197  0.6587  0.6991 -0.5263
  806SOL    HW1 2417   1.652   0.045   1.233 -1.8788 -0.7611  2.4791
  806SOL    HW2 2418   1.648   3.015   1.118 -1.3620 -1.1130  0.6210
  807SOL     OW 2419   2.390   0.247   2.797  0.1826 -0.3196  0.2290
  807SOL    HW1 2420   2.315   0.267   2.865 -0.8772 -2.1860  0.6586
  807SOL    HW2 2421   2.463   0.317   2.807  0.9116  1.2852  1.8686
  808SOL     OW 2422   0.223   1.043   0.402  1.0672  0.3976 -0.8806
  808SOL    HW1 2423   0.311   1.083   0.371 -3.2338  0.7637 -0.4594
  808SOL    HW2 2424   0.154   1.119   0.432 -5.1370  1.6014 -1.3003
  809SOL     OW 2425   2.778   1.237   2.277 -0.5310  0.0942 -0.9248
  809SOL    HW1 2426   2.742   1.143   2.266  1.0746  1.7986 -0.4367
  809SOL    HW2 2427   2.866   1.238   2.333  2.1464  1.2968  0.0368
  810SOL     OW 2428   1.579   0.463   1.634 -0.4597  0.4940  0.0165
  810SOL    HW1 2429   1.662   0.413   1.658 -1.0740  1.3071  1.8967
  810SOL    HW2 2430   1.516   0.412   1.576  1.3569  0.8854  1.0249
  811SOL     OW 2431   2.196   2.697   1.867  0.3157  0.6465 -0.2530
  811SOL    HW1 2432   2.162   2.601   1.858  2.0287  0.5417 -0.5091
  811SOL    HW2 2433   2.235   2.716   1.960 -0.6100  2.7934 -1.3795
  812SOL     OW 2434   1.997   0.102   3.034 -0.2649 -0.0505 -0.3659
  812SOL    HW1 2435   2.072   0.108   0.011  0.5071  1.5026  0.3957
  812SOL    HW2 2436   2.016   0.027   2.965 -0.8590 -0.4549  0.9737
  813SOL     OW 2437   1.895   0.575   1.844 -0.0176 -0.0097  0.0473
  813SOL    HW1 2438   1.989   0.613   1.832  2.6678  3.0746  1.2267
  813SOL    HW2 2439   1.835   0.655   1.873 -0.5996  2.4639  3.7111
  814SOL     OW 2440   1.889   1.181   1.952 -0.0089 -0.0174 -0.2380
  814SOL    HW1 2441   1.836   1.152   2.034 -4.0783 -2.5433  2.9590
  814SOL    HW2 2442   1.843   1.254   1.906 -0.0493 -3.6558  3.0385
  815SOL     OW 2443   0.540   0.797   0.412  0.0909 -0.0722  0.4735
  815SOL    HW1 2444   0.545   0.873   0.477  0.1846 -2.3942  1.1362
  815SOL    HW2 2445   0.535   0.701   0.452  2.5660 -1.6869  1.4198
  816SOL     OW 2446   2.208   1.499   2.843 -0.2529  0.4462  0.3386
  816SOL    HW1 2447   2.115   1.491   2.862  0.2174  2.7002 -0.8763
  816SOL    HW2 2448   2.231   1.587   2.802 -0.4363 -0.5764  0.2421
  817SOL     OW 2449   0.475   2.791   0.342 -0.2472 -0.7855 -1.0134
  817SOL    HW1 2450   0.550   2.790   0.414  1.2978  0.3705  2.2314
  817SOL    HW2 2451   0.399   2.858   0.361 -0.3105  1.0056  1.6921
  818SOL     OW 2452   1.726   0.298   2.561  0.4707 -0.3884  0.0798
  818SOL    HW1 2453   1.759   0.326   2.468  0.8538  1.0627 -2.2327
  818SOL    HW2 2454   1.802   0.290   2.626 -4.7361  1.7079 -1.1402
  819SOL     OW 2455   1.399   0.622   0.515  0.1380  0.1634  0.0046
  819SOL    HW1 2456   1.315   0.607   0.459 -1.7752 -1.0557  0.4454
  819SOL    HW2 2457   1.456   0.703   0.488 -1.6134  0.5751  0.8589
  820SOL     OW 2458   2.022   0.665   0.816  0.1489  0.2570  0.1649
  820SOL    HW1 2459   2.080   0.748   0.835  2.4958  1.7839 -2.0512
  820SOL    HW2 2460   2.000   0.615   0.898  2.6243  1.9001 -3.6942
  821SOL     OW 2461   2.260   2.969   0.297  0.0803  0.0229 -0.3714
  821SOL    HW1 2462   2.303   3.061   0.316 -1.1739 -1.4951  0.1138
  821SOL    HW2 2463   2.337   2.914   0.264  0.2287  0.2580 -1.7667
  822SOL     OW 2464   0.015   0.045   2.070  0.4761  0.2300 -0.5266
  822SOL    HW1 2465   0.102   0.042   2.124 -0.4874  1.3587  1.3726
  822SOL    HW2 2466   0.028   0.011   1.973  0.7383 -0.5903 -1.6060
  823SOL     OW 2467   2.661   2.285   1.763 -0.4305 -0.1476  0.0776
  823SOL    HW1 2468   2.561   2.278   1.795 -4.4064  0.7574 -0.5795
  823SOL    HW2 2469   2.716   2.197   1.770  2.4795 -0.5523 -2.8294
  824SOL     OW 2470   0.931   2.663   2.146 -0.6294 -0.3387 -0.0758
  824SOL    HW1 2471   0.885   2.600   2.075  1.0963 -1.3933  1.0596
  824SOL    HW2 2472   0.906   2.760   2.137  0.1219  0.1194  2.8893
  825SOL     OW 2473   1.533   1.765   0.662  0.1588 -0.1290 -0.0628
  825SOL    HW1 2474   1.567   1.763   0.756  1.6669 -0.9848 -0.9095
  825SOL    HW2 2475   1.466   1.840   0.648 -1.5216 -2.0754  1.8360
  826SOL     OW 2476   1.835   0.716   0.258 -0.2113 -0.0441  0.5667
  826SOL    HW1 2477   1.842   0.641   0.328 -0.1868 -0.6667  0.8171
  826SOL    HW2 2478   1.911   0.701   0.192 -0.3597  1.4938 -0.1696
  827SOL     OW 2479   0.216   1.290   1.269  0.4162  0.6419  0.5957
  827SOL    HW1 2480   0.140   1.304   1.200  0.7973 -0.1672  0.9143
  827SOL    HW2 2481   0.307   1.318   1.226  2.7122  1.4154 -1.1220
  828SOL     OW 2482   2.172   1.380   1.649 -0.0501  0.0809  0.1587
  828SOL    HW1 2483   2.110   1.304   1.683  3.0072 -0.0906  0.3742
  828SOL    HW2 2484   2.241   1.406   1.720  0.2719  2.3778  2.0290
  829SOL     OW 2485   0.414   2.051   0.188  0.4559 -0.2805  0.5321
  829SOL    HW1 2486   0.330   2.013   0.238 -0.3810 -0.5258  1.7510
  829SOL    HW2 2487   0.485   2.088   0.253  0.0020  1.6040  0.4577
  830SOL     OW 2488   1.083   0.603   0.650 -0.3889 -0.4489  0.2214
  830SOL    HW1 2489   1.153   0.620   0.577  2.2145  1.2534  0.7302
  830SOL    HW2 2490   1.100   0.516   0.701 -0.8140  1.0133 -1.9856
  831SOL     OW 2491   2.649   1.598   0.093  0.2253 -0.5014 -0.0084
  831SOL    HW1 2492   2.708   1.600   0.013 -3.5116  0.4595 -0.2047
  831SOL    HW2 2493   2.640   1.691   0.129  0.4379 -1.7283 -2.8720
  832SOL     OW 2494   0.930   2.935   0.181  0.4459 -0.4253 -0.0293
  832SOL    HW1 2495   0.909   3.033   0.152 -2.9748 -2.1350 -1.1843
  832SOL    HW2 2496   0.966   2.933   0.278 -2.0493 -2.8991 -0.5962
  833SOL     OW 2497   0.870   0.635   1.915 -0.0737  0.0905 -0.1194
  833SOL    HW1 2498   0.904   0.542   1.952  0.5942 -0.7417 -0.6883
  833SOL    HW2 2499   0.931   0.711   1.946 -2.6512 -2.9173 -0.3657
  834SOL     OW 2500   0.115   0.738   1.280  0.1250  0.5649 -0.0625
  834SOL    HW1 2501   0.196   0.740   1.211  1.0152 -0.7813 -2.0866
  834SOL    HW2 2502   0.143   0.713   1.371 -1.2091 -1.8856  0.7702
  835SOL     OW 2503   2.630   0.078   1.752  0.0137 -0.0831 -0.7303
  835SOL    HW1 2504   2.553   0.142   1.736 -2.7018 -2.7738  0.7417
  835SOL    HW2 2505   2.681   0.055   1.666 -2.7977  1.3711  0.9483
  836SOL     OW 2506   0.442   2.144   0.548 -0.5955 -0.2748  0.1499
  836SOL    HW1 2507   0.461   2.245   0.574  0.1306  3.9445  3.7043
  836SOL    HW2 2508   0.513   2.119   0.486 -1.6475  0.2304  1.7461
  837SOL     OW 2509   2.048   1.764   2.334  0.0306  0.0811 -0.0050
  837SOL    HW1 2510   2.115   1.720   2.396  0.9473  1.3366 -0.1653
  837SOL    HW2 2511   2.069   1.861   2.338 -1.2275 -1.4762  3.7397
  838SOL     OW 2512   3.058   1.182   1.607 -0.9041 -0.0342 -0.0524
  838SOL    HW1 2513   0.065   1.173   1.579  0.7208 -0.1111  1.1955
  838SOL    HW2 2514   3.047   1.267   1.659  1.5296 -1.4517  1.6991
  839SOL     OW 2515   0.185   0.162   0.781  0.0858 -0.4065  0.5061
  839SOL    HW1 2516   0.206   0.224   0.860  0.1837  0.2048 -1.5583
  839SOL    HW2 2517   0.155   0.074   0.815  1.8370  2.0358  0.3677
  840SOL     OW 2518   2.949   0.284   2.674 -0.2504 -0.1937 -0.4214
  840SOL    HW1 2519   3.037   0.333   2.686 -0.6253 -0.5437 -1.6015
  840SOL    HW2 2520   2.942   0.223   2.753  0.4445  3.4201 -2.2476
  841SOL     OW 2521   0.493   2.869   3.075  0.6309 -0.0445  0.2885
  841SOL    HW1 2522   0.417   2.822   0.039  0.9596  1.2316  2.7082
  841SOL    HW2 2523   0.582   2.851   0.028  0.5131 -2.4185 -1.7904
  842SOL     OW 2524   1.028   0.150   0.875  0.2934  0.3542 -0.1007
  842SOL    HW1 2525   0.934   0.134   0.923 -3.6781 -0.1281 -2.9411
  842SOL    HW2 2526   1.098   0.106   0.934  1.6313 -0.2958 -3.5054
  843SOL     OW 2527   0.381   1.119   2.605 -0.3706  0.5782 -0.5321
  843SOL    HW1 2528   0.298   1.082   2.647 -2.0726  2.4128  0.4439
  843SOL    HW2 2529   0.403   1.072   2.516  4.4738  1.6037 -0.3366
  844SOL     OW 2530   0.776   2.257   2.419  0.3116  0.4924  0.3089
  844SOL    HW1 2531   0.676   2.251   2.386 -0.1445 -1.0786 -0.8165
  844SOL    HW2 2532   0.832   2.214   2.348 -0.4525  2.0820 -0.8804
  845SOL     OW 2533   2.268   2.682   2.695 -0.5759  0.8181  0.6325
  845SOL    HW1 2534   2.328   2.754   2.737  0.5132  1.0042 -0.1295
  845SOL    HW2 2535   2.202   2.720   2.622  0.8127  1.7302 -3.8280
  846SOL     OW 2536   1.710   1.776   2.500  0.0011  0.1569  0.1117
  846SOL    HW1 2537   1.646   1.727   2.564 -0.1610 -1.5498  0.6449
  846SOL    HW2 2538   1.746   1.701   2.437  0.0677 -3.7395 -0.7991
  847SOL     OW 2539   2.715   0.066   2.959 -0.4834  0.0267 -0.4463
  847SOL    HW1 2540   2.772   3.078   2.918  2.6849  1.5815  0.3213
  847SOL    HW2 2541   2.770   0.147   2.984  0.0979  3.0029  3.0345
  848SOL     OW 2542   0.102   0.630   0.462 -0.0883  0.4086  0.2016
  848SOL    HW1 2543   0.034   0.690   0.507 -0.5589 -0.9832  1.2376
  848SOL    HW2 2544   0.162   0.580   0.532  0.2214 -0.4063  1.3210
  849SOL     OW 2545   1.166   0.113   2.191  0.3490 -0.1550  0.4864
  849SOL    HW1 2546   1.117   0.032   2.222 -0.7940  0.7799 -1.4744
  849SOL    HW2 2547   1.242   0.141   2.253 -1.7174  0.1514 -0.8134
  850SOL     OW 2548   0.285   0.887   0.614  0.2080  0.0992  0.5062
  850SOL    HW1 2549   0.247   0.933   0.527 -1.7187  1.4290  0.6453
  850SOL    HW2 2550   0.386   0.912   0.625  1.5340  1.5658  0.4028
  851SOL     OW 2551   0.280   1.385   0.333  0.0605 -0.2279  0.5365
  851SOL    HW1 2552   0.320   1.478   0.324  1.1329 -0.6204 -0.0920
  851SOL    HW2 2553   0.346   1.313   0.370 -2.4865 -0.6535  0.8382
  852SOL     OW 2554   1.409   0.944   2.013 -0.5662  0.0618 -0.4081
  852SOL    HW1 2555   1.457   1.024   1.971  0.9545 -1.5045  2.2496
  852SOL    HW2 2556   1.465   0.905   2.082  0.1521  2.3110 -3.4888
  853SOL     OW 2557   2.559   1.498   0.516  0.3960  0.4537 -0.2063
  853SOL    HW1 2558   2.577   1.462   0.610 -3.2506  0.0418  2.4485
  853SOL    HW2 2559   2.644   1.501   0.459  0.1056  1.6285  2.9387
  854SOL     OW 2560   1.088   0.919   2.223 -0.3154 -0.3468  0.1725
  854SOL    HW1 2561   1.015   0.960   2.287 -1.0918 -0.9363  1.3968
  854SOL    HW2 2562   1.108   0.820   2.254  2.1494 -1.1544 -4.6296
  855SOL     OW 2563   0.158   2.718   2.797 -0.2351 -0.7853 -0.3959
  855SOL    HW1 2564   0.223   2.771   2.739 -0.5161  2.1428  1.9048
  855SOL    HW2 2565   0.092   2.789   2.835 -2.1240  1.3658 -1.1944
  856SOL     OW 2566   1.169   0.669   2.289  0.1955  0.5284  0.6173
  856SOL    HW1 2567   1.190   0.667   2.191  1.0728 -1.1125  0.4091
  856SOL    HW2 2568   1.130   0.581   2.318 -2.8146  1.7273  0.6901
  857SOL     OW 2569   1.414   0.722   2.414  0.2838  0.3679  0.4908
  857SOL    HW1 2570   1.446   0.633   2.385 -1.7871 -1.2719  0.4276
  857SOL    HW2 2571   1.318   0.733   2.387  3.2259  0.9044 -1.9583
  858SOL     OW 2572   0.144   0.889   2.133  0.2528  0.1306 -0.6389
  858SOL    HW1 2573   0.046   0.916   2.108  0.6900 -1.2330 -3.0665
  858SOL    HW2 2574   0.207   0.967   2.113 -2.1884 -1.0569 -1.1657
  859SOL     OW 2575   2.536   0.090   0.690  0.9227  0.3832  0.1229
  859SOL    HW1 2576   2.606   0.140   0.742 -2.7577  1.6777  1.2410
  859SOL    HW2 2577   2.533   0.107   0.590 -0.3670  0.1510  1.4298
  860SOL     OW 2578   1.731   0.084   0.611 -0.5767 -0.7628 -0.3363
  860SOL    HW1 2579   1.764   0.048   0.698 -2.4162  4.1412 -0.2871
  860SOL    HW2 2580   1.774   0.049   0.525 -0.6658  1.8932 -3.3119
  861SOL     OW 2581   1.426   0.474   1.172  0.0158  0.5571 -0.4366
  861SOL    HW1 2582   1.355   0.502   1.239 -3.6767  0.7392  0.0322
  861SOL    HW2 2583   1.383   0.481   1.080  0.9679 -1.8997  0.1950
  862SOL     OW 2584   1.347   0.195   2.361  0.1819 -0.0250  0.2243
  862SOL    HW1 2585   1.448   0.170   2.337  1.9823 -1.4577 -0.6097
  862SOL    HW2 2586   1.332   0.292   2.399 -1.1101  2.8869 -0.9646
  863SOL     OW 2587   3.013   2.751   0.807 -0.1566 -0.0793  0.0361
  863SOL    HW1 2588   2.970   2.805   0.882 -0.9815  1.4947 -1.4732
  863SOL    HW2 2589   3.017   2.649   0.823  0.5813 -0.1422  0.8945
  864SOL     OW 2590   2.412   0.251   2.270 -0.0727 -0.0421  0.6773
  864SOL    HW1 2591   2.416   0.328   2.337  1.7711 -2.6557  2.4214
  864SOL    HW2 2592   2.380   0.168   2.325  1.5371 -2.1897 -0.2898
  865SOL     OW 2593   0.896   1.219   1.887  0.4790  0.2174  0.3131
  865SOL    HW1 2594   0.859   1.126   1.903 -0.4962  0.2571 -0.6439
  865SOL    HW2 2595   0.820   1.278   1.918  0.9562 -2.4331  0.1881
  866SOL     OW 2596   2.125   2.880   1.148  0.3119  0.4145  0.0038
  866SOL    HW1 2597   2.075   2.860   1.065  3.3320  2.8022 -1.2181
  866SOL    HW2 2598   2.158   2.791   1.188  1.4002 -3.8170  0.6804
  867SOL     OW 2599   2.154   3.014   0.676 -0.2200 -0.1419 -0.5667
  867SOL    HW1 2600   2.219   2.960   0.615  1.2134  1.1280 -2.5208
  867SOL    HW2 2601   2.196   3.025   0.770  2.7539  1.8738 -1.3865
  868SOL     OW 2602   3.019   2.100   1.559  0.4218  0.2353 -0.0485
  868SOL    HW1 2603   0.014   2.079   1.498  1.4359 -0.2225 -0.4943
  868SOL    HW2 2604   2.948   2.159   1.514 -1.1942 -0.7613 -2.6508
  869SOL     OW 2605   2.071   2.222   2.185  0.3937 -0.2919  0.1970
  869SOL    HW1 2606   1.968   2.246   2.189 -0.3795  1.3172  0.3604
  869SOL    HW2 2607   2.122   2.309   2.192 -0.9357 -1.1429 -0.3080
  870SOL     OW 2608   1.440   1.373   0.732  0.1124 -0.5978 -0.2214
  870SOL    HW1 2609   1.534   1.403   0.724  1.6666 -0.3650 -0.4815
  870SOL    HW2 2610   1.401   1.406   0.820 -1.3015 -2.0565 -0.7201
  871SOL     OW 2611   2.926   1.892   1.967 -0.2388  0.0875 -0.0786
  871SOL    HW1 2612   2.857   1.934   2.027 -0.4319 -1.7983 -0.7786
  871SOL    HW2 2613   2.939   1.795   1.989 -1.1834 -1.9149 -0.3485
  872SOL     OW 2614   1.159   1.519   2.575 -0.4480  0.1453  0.3059
  872SOL    HW1 2615   1.061   1.530   2.548  0.6055  1.0993 -0.0090
  872SOL    HW2 2616   1.194   1.423   2.554  0.9679  0.6081  1.7413
  873SOL     OW 2617   0.642   1.210   1.614  0.3318  0.2515 -0.3124
  873SOL    HW1 2618   0.706   1.284   1.586  0.0033 -0.0084  0.6867
  873SOL    HW2 2619   0.679   1.162   1.696 -2.9760  0.8263  1.6061
  874SOL     OW 2620   1.819   1.075   1.375 -0.0653 -0.3447 -0.6323
  874SOL    HW1 2621   1.778   1.073   1.279  0.2153 -0.4423 -2.0982
  874SOL    HW2 2622   1.816   0.982   1.412 -0.8025  2.0849 -0.0366
  875SOL     OW 2623   2.972   0.099   0.061  0.1109  0.2647  0.3410
  875SOL    HW1 2624   2.940   0.088   0.158  1.7159 -2.4003 -1.8445
  875SOL    HW2 2625   3.067   0.070   0.051 -2.3420  0.4015  0.0462
  876SOL     OW 2626   0.740   1.334   0.242  0.4942  0.5145 -0.1960
  876SOL    HW1 2627   0.767   1.327   0.339 -0.2694  0.0646  1.1357
  876SOL    HW2 2628   0.781   1.257   0.190  1.1141  2.5574  1.5225
  877SOL     OW 2629   2.743   2.728   0.620 -0.2331 -0.0909  0.3309
  877SOL    HW1 2630   2.760   2.746   0.722  0.1252  0.0601  2.4616
  877SOL    HW2 2631   2.818   2.668   0.584 -1.8152  2.8528  0.6211
  878SOL     OW 2632   1.897   1.766   0.468  0.2742  0.0278  0.3260
  878SOL    HW1 2633   1.952   1.814   0.398 -0.6491  0.6876 -0.7925
  878SOL    HW2 2634   1.823   1.832   0.506 -1.2309  1.2500  0.9238
  879SOL     OW 2635   2.948   1.612   2.044 -0.3802 -0.3012 -0.4851
  879SOL    HW1 2636   2.932   1.535   1.977 -1.1968 -0.4140 -0.7604
  879SOL    HW2 2637   3.046   1.627   2.050 -1.1026 -4.3932 -1.9311
  880SOL     OW 2638   0.408   2.065   0.930  0.2134  0.1891 -0.0914
  880SOL    HW1 2639   0.486   2.046   0.991 -0.5954  1.3721 -1.0735
  880SOL    HW2 2640   0.348   1.982   0.931 -1.9517 -0.5585 -0.1345
  881SOL     OW 2641   0.776   0.384   1.342 -1.0078 -0.3327  0.1043
  881SOL    HW1 2642   0.771   0.360   1.240  0.1271  2.8103  0.7454
  881SOL    HW2 2643   0.690   0.368   1.387  1.0757 -0.3308  0.4951
  882SOL     OW 2644   2.325   1.177   1.090 -0.4375 -0.2073  0.1970
  882SOL    HW1 2645   2.412   1.127   1.074 -0.5980 -2.8432  2.9825
  882SOL    HW2 2646   2.336   1.256   1.156 -0.9989  2.8524  1.0732
  883SOL     OW 2647   1.325   0.306   1.575 -0.3074 -0.3409  0.0135
  883SOL    HW1 2648   1.381   0.245   1.517  0.3535 -0.3968  1.0183
  883SOL    HW2 2649   1.233   0.309   1.534 -0.3568  1.2834  2.8109
  884SOL     OW 2650   2.743   0.205   1.967 -0.5245 -0.1420 -0.5729
  884SOL    HW1 2651   2.709   0.154   1.888 -0.4526  0.1614 -0.5277
  884SOL    HW2 2652   2.834   0.251   1.946  2.0621 -0.4860  2.4750
  885SOL     OW 2653   1.293   1.477   3.001  0.2992 -0.1747  0.6545
  885SOL    HW1 2654   1.224   1.529   2.949 -1.3709  1.3715 -0.3736
  885SOL    HW2 2655   1.384   1.524   2.998 -0.6190  3.3769 -1.4092
  886SOL     OW 2656   2.214   0.357   2.996 -0.1080 -0.3609  0.2605
  886SOL    HW1 2657   2.225   0.293   3.074  3.0223 -0.3585 -0.9795
  886SOL    HW2 2658   2.123   0.398   2.991  1.8069  0.6199  0.8335
  887SOL     OW 2659   1.528   2.808   1.575 -0.5137 -0.5669  0.6074
  887SOL    HW1 2660   1.620   2.850   1.565 -0.2512  2.5653  0.6819
  887SOL    HW2 2661   1.538   2.706   1.578  0.8500 -1.6086  0.6187
  888SOL     OW 2662   1.806   1.644   2.263 -0.1826 -0.0730  0.2792
  888SOL    HW1 2663   1.770   1.669   2.169 -0.4821 -0.5200  0.2930
  888SOL    HW2 2664   1.879   1.704   2.297 -1.7869 -2.0974  0.6109
  889SOL     OW 2665   1.917   2.435   0.695 -0.0950  0.4408 -0.0185
  889SOL    HW1 2666   1.884   2.383   0.777  0.6115 -0.0616  2.2379
  889SOL    HW2 2667   1.899   2.532   0.706  0.3249  1.8454 -0.4311
  890SOL     OW 2668   1.438   1.954   0.479  0.2531 -0.2163 -0.2420
  890SOL    HW1 2669   1.402   2.032   0.424  1.4905 -1.1052 -0.3403
  890SOL    HW2 2670   1.413   1.872   0.430  3.0699  1.6763  1.6158
  891SOL     OW 2671   2.782   0.947   0.089  0.1688 -0.2542 -0.2194
  891SOL    HW1 2672   2.731   1.027   0.126  0.2493 -1.6519 -1.0192
  891SOL    HW2 2673   2.877   0.942   0.118  1.4043  1.7772 -0.7324
  892SOL     OW 2674   2.259   1.128   0.085  0.1260  0.3214 -0.4709
  892SOL    HW1 2675   2.166   1.092   0.070  0.5913 -0.2948  0.6174
  892SOL    HW2 2676   2.258   1.230   0.066  1.5953  3.5515 -0.2326
  893SOL     OW 2677   1.901   2.537   1.353 -0.5517 -0.1651 -0.5501
  893SOL    HW1 2678   1.924   2.559   1.448 -1.4505  0.4967 -1.5300
  893SOL    HW2 2679   1.968   2.471   1.306  3.8753  1.3483 -1.3451
  894SOL     OW 2680   2.620   2.891   0.439  0.1135  0.2377  0.5653
  894SOL    HW1 2681   2.678   2.905   0.354  2.6246  0.5143  0.1994
  894SOL    HW2 2682   2.673   2.837   0.509  0.3681 -5.2738  0.9231
  895SOL     OW 2683   2.361   2.415   2.747 -0.0514 -0.2356  0.1479
  895SOL    HW1 2684   2.429   2.375   2.684 -2.7883 -0.6902  3.1935
  895SOL    HW2 2685   2.342   2.511   2.715  1.8178  1.0678 -1.5558
  896SOL     OW 2686   2.341   0.104   2.524  0.5116 -0.3440 -0.0467
  896SOL    HW1 2687   2.362   0.166   2.602  0.5620  2.7147 -2.8082
  896SOL    HW2 2688   2.242   0.074   2.531 -1.7182 -1.8541 -0.8152
  897SOL     OW 2689   0.334   1.777   1.827 -0.0388  0.4487 -0.2534
  897SOL    HW1 2690   0.349   1.677   1.811 -1.8200  1.6399 -2.4673
  897SOL    HW2 2691   0.415   1.823   1.874  2.0314 -0.3216 -2.2118
  898SOL     OW 2692   2.694   1.680   1.722  0.4460  0.1224  0.2456
  898SOL    HW1 2693   2.622   1.723   1.783 -2.1526  2.1973 -1.1295
  898SOL    HW2 2694   2.763   1.753   1.688  2.6142  2.8959 -1.2528
  899SOL     OW 2695   1.749   2.733   1.280  0.5485 -0.8366  0.4296
  899SOL    HW1 2696   1.815   2.650   1.285  3.1920  0.4291  1.9465
  899SOL    HW2 2697   1.730   2.773   1.373  0.0857  0.3456 -1.8322
  900SOL     OW 2698   1.138   0.756   3.058 -0.7394 -0.2299  0.3200
  900SOL    HW1 2699   1.179   0.767   2.962  3.4142 -2.0722 -3.2698
  900SOL    HW2 2700   1.038   0.750   3.053  2.5954 -0.0229  3.7610
  901SOL     OW 2701   0.978   1.348   2.206  0.0611 -0.2467 -0.0755
  901SOL    HW1 2702   1.023   1.316   2.118  0.0412  0.4477 -0.6243
  901SOL    HW2 2703   1.049   1.406   2.257  2.2355  2.5283 -0.3949
  902SOL     OW 2704   0.077   2.210   0.273  0.0464 -0.5219 -0.1937
  902SOL    HW1 2705   0.106   2.130   0.223 -0.1521  4.2551  0.2435
  902SOL    HW2 2706   3.069   2.233   0.254 -1.5305  1.2532  2.9894
  903SOL     OW 2707   2.393   0.974   1.957  0.1395  0.3185  0.2118
  903SOL    HW1 2708   2.379   0.905   2.033  0.0412 -0.7788  1.6970
  903SOL    HW2 2709   2.404   1.064   2.003  1.8422  0.7960 -2.3868
  904SOL     OW 2710   1.720   0.807   2.940  0.0864  0.1366 -0.0878
  904SOL    HW1 2711   1.664   0.880   2.909  0.0386 -1.7107  0.6891
  904SOL    HW2 2712   1.817   0.842   2.959  2.2217  3.0066 -1.2367
  905SOL     OW 2713   2.368   2.698   1.018 -0.4752  0.1775  0.0847
  905SOL    HW1 2714   2.391   2.679   1.118  1.8536  2.5219  3.9888
  905SOL    HW2 2715   2.296   2.632   0.990  0.1983 -0.5982 -1.3995
  906SOL     OW 2716   1.567   1.896   3.040  0.1522 -0.1435 -0.0226
  906SOL    HW1 2717   1.511   1.974   3.006  0.3944 -0.0433 -0.9727
  906SOL    HW2 2718   1.506   1.836   0.007  2.6714  0.5890  0.5779
  907SOL     OW 2719   0.853   2.634   0.417 -0.1355  0.5437 -0.3191
  907SOL    HW1 2720   0.770   2.692   0.442 -1.0947  2.6157  1.2568
  907SOL    HW2 2721   0.834   2.532   0.422 -1.6059  0.6495  1.1979
  908SOL     OW 2722   1.174   2.849   2.001  0.6152 -0.0330 -0.5135
  908SOL    HW1 2723   1.170   2.749   1.976  2.0298  0.7436  1.4505
  908SOL    HW2 2724   1.257   2.893   1.957  1.9706  2.4691 -0.4768
  909SOL     OW 2725   1.898   0.447   1.319 -0.0440  0.0423  0.4697
  909SOL    HW1 2726   1.922   0.355   1.286 -0.7912  2.0204  0.2542
  909SOL    HW2 2727   1.800   0.469   1.317  3.1972  0.7777  2.0621
  910SOL     OW 2728   1.249   0.778   2.820  0.0435  0.2132 -0.4072
  910SOL    HW1 2729   1.235   0.857   2.765  1.3869  0.9728 -0.3270
  910SOL    HW2 2730   1.326   0.719   2.789 -0.1354  0.4883 -0.5814
  911SOL     OW 2731   2.775   0.678   0.135 -0.2924 -0.5072 -0.8973
  911SOL    HW1 2732   2.786   0.776   0.142 -0.3625 -2.5017  0.0575
  911SOL    HW2 2733   2.755   0.629   0.224  1.8994 -1.7343 -1.0100
  912SOL     OW 2734   0.139   2.197   2.968  0.0573  0.4562 -0.1965
  912SOL    HW1 2735   0.124   2.099   2.952 -0.5717  0.7818 -0.2783
  912SOL    HW2 2736   0.237   2.215   3.009  4.0153  0.6374 -0.2200
  913SOL     OW 2737   2.628   1.983   2.807 -0.3095  0.5492  0.8381
  913SOL    HW1 2738   2.586   2.065   2.858  1.0149 -0.2076 -0.9835
  913SOL    HW2 2739   2.703   1.940   2.865  0.6370 -0.1493  0.6529
  914SOL     OW 2740   1.419   1.781   1.698  0.3131  0.3975 -0.1275
  914SOL    HW1 2741   1.398   1.778   1.598  2.4160  0.9279 -1.9647
  914SOL    HW2 2742   1.463   1.869   1.722 -1.6617 -1.2184  0.0047
  915SOL     OW 2743   0.593   2.669   2.247 -0.1750  0.3992  0.6254
  915SOL    HW1 2744   0.523   2.746   2.237 -1.0154 -0.1188  2.4895
  915SOL    HW2 2745   0.671   2.689   2.310  1.9587  0.0593 -1.5933
  916SOL     OW 2746   0.383   1.277   1.666  0.3292  0.7519  0.0756
  916SOL    HW1 2747   0.474   1.251   1.700 -1.1848 -0.1329 -0.0777
  916SOL    HW2 2748   0.346   1.206   1.602 -3.1132  2.5331  0.8075
  917SOL     OW 2749   2.440   0.423   0.206  0.7476  0.2574  1.0246
  917SOL    HW1 2750   2.366   0.356   0.233 -2.3946 -0.7222  1.1529
  917SOL    HW2 2751   2.533   0.385   0.214  0.6505  0.2789 -1.4251
  918SOL     OW 2752   1.437   2.690   2.281 -0.3171 -0.5468  0.2156
  918SOL    HW1 2753   1.487   2.600   2.282 -0.1779  0.1377  2.5741
  918SOL    HW2 2754   1.337   2.673   2.285  0.3393 -1.9213 -3.3497
  919SOL     OW 2755   1.689   2.524   1.742 -0.1359 -0.4866 -0.5016
  919SOL    HW1 2756   1.675   2.458   1.669  0.2541  3.0786  1.4922
  919SOL    HW2 2757   1.771   2.502   1.798  1.3988 -3.2374  3.1020
  920SOL     OW 2758   0.779   1.023   2.940  0.1969  0.4299 -0.1269
  920SOL    HW1 2759   0.730   1.049   2.858  0.4992  0.1052 -4.6710
  920SOL    HW2 2760   0.713   1.000   3.017  1.5338  1.2323 -2.9534
  921SOL     OW 2761   0.082   0.791   2.565 -0.0719  0.6083 -0.1397
  921SOL    HW1 2762   3.077   0.752   2.563  2.8066 -1.0567 -1.2077
  921SOL    HW2 2763   0.146   0.727   2.517  0.2054  0.9230 -0.2206
  922SOL     OW 2764   0.735   1.822   0.481 -0.9806  0.2811 -0.4022
  922SOL    HW1 2765   0.826   1.787   0.452  1.5658 -0.0598  2.3169
  922SOL    HW2 2766   0.727   1.826   0.586 -0.5346  3.4915  0.2501
  923SOL     OW 2767   0.310   1.103   2.074  0.0903  0.1341 -0.1460
  923SOL    HW1 2768   0.313   1.058   1.982  1.5372 -3.8380 -3.4863
  923SOL    HW2 2769   0.322   1.205   2.066  2.8513  1.4130  0.1298
  924SOL     OW 2770   1.419   2.786   2.732 -0.9387 -0.6776 -0.8713
  924SOL    HW1 2771   1.433   2.708   2.669 -1.2238 -1.4390 -0.3546
  924SOL    HW2 2772   1.506   2.795   2.785 -0.2418 -0.0934  3.6411
  925SOL     OW 2773   2.598   1.620   1.469  0.1058 -0.2056  0.4151
  925SOL    HW1 2774   2.625   1.614   1.567 -2.0874 -0.3648  1.1799
  925SOL    HW2 2775   2.632   1.709   1.429  2.5188 -1.1892 -2.0548
  926SOL     OW 2776   2.067   0.730   1.674 -0.6405  0.6186  0.7861
  926SOL    HW1 2777   2.126   0.805   1.636 -0.6461  0.0301  1.0398
  926SOL    HW2 2778   2.066   0.651   1.611  0.2586 -0.0413 -2.9503
  927SOL     OW 2779   2.265   2.457   1.585 -0.4701 -0.0116  0.1145
  927SOL    HW1 2780   2.278   2.557   1.602  0.9609  1.0787 -0.2745
  927SOL    HW2 2781   2.284   2.436   1.489 -0.0966 -0.1606  0.2289
  928SOL     OW 2782   0.269   0.704   2.268  0.0806 -0.0961  0.1992
  928SOL    HW1 2783   0.211   0.775   2.217  0.0554 -2.9401 -1.0318
  928SOL    HW2 2784   0.367   0.709   2.241  0.0193  2.7558 -0.2898
  929SOL     OW 2785   2.353   0.103   0.888  0.8240  0.6669 -0.4857
  929SOL    HW1 2786   2.404   0.100   0.804 -1.8200 -0.4351  1.0163
  929SOL    HW2 2787   2.290   0.182   0.893  0.1178 -1.8489 -1.8751
  930SOL     OW 2788   2.868   2.883   1.913 -0.3008  0.0425 -0.5879
  930SOL    HW1 2789   2.863   2.939   1.999 -0.4964 -1.8976  1.0891
  930SOL    HW2 2790   2.965   2.857   1.887  3.1945  0.1891  2.0327
  931SOL     OW 2791   1.835   0.814   0.685  0.2365 -0.5107 -0.3668
  931SOL    HW1 2792   1.849   0.765   0.776 -1.8825  2.1410  0.4450
  931SOL    HW2 2793   1.861   0.912   0.696 -0.8328 -0.5059 -0.1912
  932SOL     OW 2794   2.410   1.419   1.838 -0.6604  0.7992  0.3931
  932SOL    HW1 2795   2.393   1.341   1.904  0.8972 -0.0270  0.6283
  932SOL    HW2 2796   2.483   1.386   1.773 -1.2596 -1.8931  1.6431
  933SOL     OW 2797   2.930   2.412   1.571  0.2146  0.1547  0.1639
  933SOL    HW1 2798   2.887   2.437   1.661  2.6049  1.2264 -0.9641
  933SOL    HW2 2799   3.026   2.443   1.563  0.6363  1.0671 -1.1096
  934SOL     OW 2800   0.576   1.892   1.474  0.1271 -0.3204  0.0005
  934SOL    HW1 2801   0.602   1.965   1.409 -2.4050 -0.7390 -1.3694
  934SOL    HW2 2802   0.623   1.906   1.565  2.5864 -1.3323  0.0623
  935SOL     OW 2803   2.768   1.605   2.233  0.1227 -0.1704 -0.0918
  935SOL    HW1 2804   2.842   1.597   2.163  0.1295  2.7279 -0.6167
  935SOL    HW2 2805   2.680   1.626   2.190 -0.1123 -0.6856 -1.8785
  936SOL     OW 2806   2.459   1.623   2.250  0.4114  0.3814 -0.4895
  936SOL    HW1 2807   2.503   1.532   2.246 -0.7090 -1.2942  0.2788
  936SOL    HW2 2808   2.408   1.642   2.165  0.3786 -0.1988 -1.5691
  937SOL     OW 2809   1.940   1.462   1.928  0.0610  0.0071 -0.1580
  937SOL    HW1 2810   1.948   1.365   1.955 -2.8914  2.5353 -0.0921
  937SOL    HW2 2811   2.010   1.516   1.979 -2.2011 -0.1193  1.3899
  938SOL     OW 2812   0.569   2.247   2.660  0.0767 -0.0218 -0.1757
  938SOL    HW1 2813   0.651   2.295   2.693 -2.2263 -2.8355  0.7765
  938SOL    HW2 2814   0.549   2.259   2.563 -2.3858  0.8682 -0.1309
  939SOL     OW 2815   2.369   1.057   2.931  0.3018  0.3233  0.2664
  939SOL    HW1 2816   2.310   1.010   2.861  1.2071  1.6868  0.8667
  939SOL    HW2 2817   2.330   1.079   3.021  2.2636  1.1841 -2.5973
  940SOL     OW 2818   1.182   1.726   0.655  0.1030  0.1285 -0.0287
  940SOL    HW1 2819   1.268   1.712   0.599  1.0703 -1.9010  1.7101
  940SOL    HW2 2820   1.207   1.744   0.755  1.1636  0.4126  1.1152
  941SOL     OW 2821   1.605   2.774   2.474 -0.5865  0.6862  0.5393
  941SOL    HW1 2822   1.553   2.707   2.533 -0.5576  0.4553 -1.1814
  941SOL    HW2 2823   1.571   2.771   2.377  1.8626  1.6607 -0.0603
  942SOL     OW 2824   0.790   2.380   0.442  0.5394 -0.0431  0.5711
  942SOL    HW1 2825   0.743   2.325   0.376 -0.7232  1.8981  2.3312
  942SOL    HW2 2826   0.858   2.326   0.495 -1.4732 -1.7142  3.3068
  943SOL     OW 2827   1.773   2.890   1.557 -0.0253  0.2879 -0.4306
  943SOL    HW1 2828   1.842   2.875   1.632 -0.0777  0.4163 -0.3180
  943SOL    HW2 2829   1.779   2.987   1.529 -0.5176  0.1554  0.2741
  944SOL     OW 2830   0.939   1.481   2.859 -0.3907  0.1784 -0.2422
  944SOL    HW1 2831   1.016   1.532   2.814  3.4287  0.4617  1.5078
  944SOL    HW2 2832   0.922   1.396   2.806  0.1749  5.7707  0.2989
  945SOL     OW 2833   0.139   2.381   0.712 -0.1423 -0.1389 -0.2455
  945SOL    HW1 2834   0.160   2.333   0.798 -0.1711  3.2905 -0.0076
  945SOL    HW2 2835   0.133   2.322   0.631  0.6250 -0.8159  1.2521
  946SOL     OW 2836   0.878   1.261   2.703  0.0020 -0.0361 -0.3087
  946SOL    HW1 2837   0.796   1.203   2.718 -0.4824  1.2761 -0.8104
  946SOL    HW2 2838   0.956   1.207   2.665  1.4233 -0.6218  1.3981
  947SOL     OW 2839   2.615   2.909   1.860  0.2105  0.8223 -0.3243
  947SOL    HW1 2840   2.715   2.885   1.882  1.3467 -1.2968 -0.1396
  947SOL    HW2 2841   2.614   3.001   1.809  0.3326  1.0438  1.8375
  948SOL     OW 2842   0.233   1.912   1.185 -0.4938  0.9676  0.1408
  948SOL    HW1 2843   0.261   1.884   1.090  0.0687  0.0961  0.8606
  948SOL    HW2 2844   0.245   1.834   1.251  3.7364 -2.7146 -1.0946
  949SOL     OW 2845   0.989   0.945   1.627  0.3504  0.0391 -0.2120
  949SOL    HW1 2846   1.085   0.934   1.660 -2.9152  2.3195 -0.1553
  949SOL    HW2 2847   0.969   1.048   1.611  0.5088  1.2231 -0.3276
  950SOL     OW 2848   0.039   0.939   1.138 -0.2181 -0.0929 -0.6297
  950SOL    HW1 2849   0.055   0.856   1.193 -1.6840  2.3837 -1.6897
  950SOL    HW2 2850   0.017   1.021   1.199  3.2048  0.1651  1.0461
  951SOL     OW 2851   0.380   1.967   2.302  0.1760 -0.8311  0.1156
  951SOL    HW1 2852   0.309   1.900   2.275 -0.2100 -0.2791 -0.9638
  951SOL    HW2 2853   0.368   1.990   2.399  2.4483 -0.4280  1.0804
  952SOL     OW 2854   1.276   2.160   0.363  0.1820 -0.3917 -0.3207
  952SOL    HW1 2855   1.260   2.226   0.438  0.1620 -0.2053  0.8378
  952SOL    HW2 2856   1.191   2.111   0.346  1.4734  1.4060  0.7408
  953SOL     OW 2857   0.925   0.655   0.242  0.4623 -0.1118  0.4056
  953SOL    HW1 2858   0.882   0.564   0.264 -1.0997 -1.1425 -0.1311
  953SOL    HW2 2859   0.914   0.678   0.144 -0.0927  1.4185 -0.4464
  954SOL     OW 2860   2.209   0.874   0.908  0.6196 -0.1531 -0.2292
  954SOL    HW1 2861   2.238   0.806   0.979  1.5325 -1.3836  0.5362
  954SOL    HW2 2862   2.171   0.958   0.948  0.9049  0.6560  1.2916
  955SOL     OW 2863   2.361   1.318   0.455  0.3369  0.1869 -0.0149
  955SOL    HW1 2864   2.273   1.356   0.421 -0.5609 -0.3254 -0.5739
  955SOL    HW2 2865   2.430   1.394   0.465 -2.7276 -0.2522 -1.5999
  956SOL     OW 2866   0.750   0.550   1.691  0.0582 -1.0137 -0.6042
  956SOL    HW1 2867   0.795   0.580   1.780  0.6946  0.8619  1.2980
  956SOL    HW2 2868   0.746   0.626   1.620 -0.8028 -0.0279  0.0605
  957SOL     OW 2869   1.798   0.734   1.006  0.4108  0.1489  0.1756
  957SOL    HW1 2870   1.861   0.800   1.046 -2.1470 -2.9338 -0.4762
  957SOL    HW2 2871   1.707   0.771   0.980  2.0522  2.0383 -5.7044
  958SOL     OW 2872   0.455   1.885   0.682  0.0424  0.4199 -0.0071
  958SOL    HW1 2873   0.401   1.838   0.602 -0.6937 -3.1252 -2.4941
  958SOL    HW2 2874   0.455   1.986   0.671 -0.7647 -1.5298 -0.9110
  959SOL     OW 2875   1.937   1.799   1.621 -0.0312  0.0206 -0.3001
  959SOL    HW1 2876   1.955   1.812   1.721 -0.6561  2.2758  1.3514
  959SOL    HW2 2877   1.992   1.721   1.584  0.0297  1.5727  0.3918
  960SOL     OW 2878   2.990   1.882   2.707 -0.4368  0.3423 -0.0382
  960SOL    HW1 2879   2.906   1.891   2.769 -4.8956 -1.7725  2.3603
  960SOL    HW2 2880   3.016   1.785   2.697 -1.5980 -1.0218  0.2514
  961SOL     OW 2881   1.049   1.313   0.906  0.2351 -0.5699  0.3695
  961SOL    HW1 2882   1.025   1.384   0.834  0.4631 -2.7976 -2.5132
  961SOL    HW2 2883   1.130   1.332   0.965  2.0024 -1.5330 -2.7503
  962SOL     OW 2884   0.827   0.949   0.663 -0.6595 -0.3335 -0.2292
  962SOL    HW1 2885   0.892   1.022   0.691 -0.4008  0.9136 -0.1371
  962SOL    HW2 2886   0.857   0.906   0.576 -1.6181  1.3749  0.6917
  963SOL     OW 2887   1.038   1.915   1.997 -0.0839  0.0669  0.7582
  963SOL    HW1 2888   1.015   1.815   1.989 -1.8368  0.0031 -1.9602
  963SOL    HW2 2889   1.142   1.922   1.994  2.9165 -2.4422 -0.7725
  964SOL     OW 2890   0.084   2.800   2.368  0.2965 -0.3233  0.0681
  964SOL    HW1 2891   0.125   2.718   2.412 -0.6869  0.8929  2.5556
  964SOL    HW2 2892   0.090   2.879   2.434 -0.3662 -0.3603 -1.0764
  965SOL     OW 2893   0.826   2.080   0.173  0.0986  0.1292 -0.2493
  965SOL    HW1 2894   0.811   2.180   0.159 -0.4431 -0.7608  2.9978
  965SOL    HW2 2895   0.768   2.031   0.104 -2.2665  0.8704  1.0947
  966SOL     OW 2896   3.059   1.735   0.168 -0.4662  0.0329  0.1723
  966SOL    HW1 2897   3.013   1.694   0.248 -1.4489  1.7733  1.1772
  966SOL    HW2 2898   3.086   1.664   0.101  0.6188  2.8624  3.2989
  967SOL     OW 2899   1.906   2.492   2.716 -0.3829  0.1243  0.3264
  967SOL    HW1 2900   1.999   2.453   2.685  0.4281  0.3695  0.1436
  967SOL    HW2 2901   1.868   2.429   2.787 -1.8210  0.3272  1.0165
  968SOL     OW 2902   2.513   2.829   0.842  0.1131 -0.0052 -0.3933
  968SOL    HW1 2903   2.557   2.907   0.891  0.1251 -2.3125 -2.9104
  968SOL    HW2 2904   2.466   2.766   0.907 -1.4400  0.9401  0.7852
  969SOL     OW 2905   0.564   1.017   2.154  0.3190 -0.0343 -0.3441
  969SOL    HW1 2906   0.587   1.104   2.201 -2.6552 -1.7826 -0.6799
  969SOL    HW2 2907   0.465   1.027   2.132  2.0930  1.6817 -0.3785
  970SOL     OW 2908   1.784   1.220   0.507 -0.5065  0.4304 -0.0282
  970SOL    HW1 2909   1.879   1.182   0.498 -0.5036 -1.4304 -0.0130
  970SOL    HW2 2910   1.720   1.139   0.498  0.4107 -0.4752  1.8817
  971SOL     OW 2911   2.194   3.036   1.657  0.0888  0.0337  0.3345
  971SOL    HW1 2912   2.256   2.964   1.697  1.4734 -1.5333  2.5298
  971SOL    HW2 2913   2.239   0.013   1.595 -1.2383 -0.9766  2.4049
  972SOL     OW 2914   3.077   0.307   1.357 -0.0045  0.0893 -0.3404
  972SOL    HW1 2915   3.018   0.225   1.347  0.8588  0.3931  1.2072
  972SOL    HW2 2916   3.040   0.369   1.433 -0.2820  4.3948 -1.4195
  973SOL     OW 2917   0.113   0.368   2.641  0.2894  0.5970  0.4151
  973SOL    HW1 2918   0.175   0.351   2.717 -1.8846  0.3633 -1.9242
  973SOL    HW2 2919   0.153   0.429   2.564 -0.7065  0.6978 -0.8477
  974SOL     OW 2920   2.393   1.215   2.050 -0.2322  0.4932 -0.0775
  974SOL    HW1 2921   2.301   1.193   2.088  0.2018 -0.0739  0.5549
  974SOL    HW2 2922   2.444   1.264   2.126 -1.7992  2.0115 -0.9679
  975SOL     OW 2923   1.041   0.396   1.436  0.0609 -0.4361 -0.4693
  975SOL    HW1 2924   0.953   0.389   1.382 -0.0272  0.0055  0.9940
  975SOL    HW2 2925   1.023   0.400   1.536  1.8679 -0.4878  1.6861
  976SOL     OW 2926   0.830   1.411   1.528  0.6527  0.2451 -0.7153
  976SOL    HW1 2927   0.853   1.507   1.560  1.0564  0.9700 -1.4715
  976SOL    HW2 2928   0.844   1.404   1.427 -0.6808 -0.3390  0.4727
  977SOL     OW 2929   0.910   0.106   0.101  0.3084 -0.1657 -0.0324
  977SOL    HW1 2930   0.899   0.123   0.000 -0.5242 -2.3400 -0.0533
  977SOL    HW2 2931   1.008   0.094   0.120 -2.0080 -4.0232 -0.9520
  978SOL     OW 2932   2.537   1.350   2.260  0.2688  0.1848 -0.3412
  978SOL    HW1 2933   2.500   1.334   2.357 -1.3272  1.6655 -0.6711
  978SOL    HW2 2934   2.636   1.340   2.258  1.8065  1.6936 -3.1634
  979SOL     OW 2935   1.385   0.405   2.077  0.5806 -0.1042  0.1641
  979SOL    HW1 2936   1.358   0.501   2.071  0.3968  1.0175 -0.1062
  979SOL    HW2 2937   1.351   0.341   2.005  0.3191  0.3565 -3.9798
  980SOL     OW 2938   1.504   1.513   1.734 -0.6863 -0.2625  0.0053
  980SOL    HW1 2939   1.462   1.603   1.715 -0.1384 -0.2877 -0.9352
  980SOL    HW2 2940   1.601   1.498   1.702  0.0361 -0.0274 -0.7066
  981SOL     OW 2941   2.533   1.275   1.642  0.1302  0.1093 -0.5618
  981SOL    HW1 2942   2.559   1.255   1.546  3.1663 -1.6634  2.1357
  981SOL    HW2 2943   2.460   1.215   1.667  2.6059  1.8156 -2.5625
  982SOL     OW 2944   0.576   0.221   2.914  0.0564 -0.4183 -0.1340
  982SOL    HW1 2945   0.661   0.280   2.899  0.5279 -0.9669  0.6047
  982SOL    HW2 2946   0.589   0.150   2.985  0.6121  1.3914  1.2781
  983SOL     OW 2947   2.196   0.675   2.861 -0.4253 -0.6906 -0.4439
  983SOL    HW1 2948   2.297   0.688   2.869 -5.2785 -1.0070  0.1903
  983SOL    HW2 2949   2.164   0.605   2.920  0.6961  1.6112 -1.6853
  984SOL     OW 2950   1.009   2.979   1.793 -0.0812 -0.1356 -0.2620
  984SOL    HW1 2951   1.065   2.975   1.878 -1.1914  1.7481  0.0164
  984SOL    HW2 2952   0.954   2.895   1.788  1.4917 -1.5056 -2.9019
  985SOL     OW 2953   1.568   1.905   2.029 -0.0750  0.0943 -0.3308
  985SOL    HW1 2954   1.619   1.822   2.014 -1.0514  0.6678  3.6298
  985SOL    HW2 2955   1.615   1.989   1.992 -0.4951  2.0803  2.1054
  986SOL     OW 2956   2.181   0.280   1.681  0.4617 -0.2944  0.1914
  986SOL    HW1 2957   2.254   0.330   1.730 -1.0637 -0.0768 -0.9650
  986SOL    HW2 2958   2.137   0.208   1.736  0.1587 -0.5118 -1.2365
  987SOL     OW 2959   2.439   1.367   1.256 -0.0254  0.6050  0.6872
  987SOL    HW1 2960   2.478   1.437   1.193  0.7170 -0.5825 -0.6421
  987SOL    HW2 2961   2.512   1.325   1.316 -0.7369 -1.8604 -0.4834
  988SOL     OW 2962   2.313   2.028   1.805  0.0593 -0.9336  0.5771
  988SOL    HW1 2963   2.318   2.132   1.799  0.3534 -1.8949 -0.9387
  988SOL    HW2 2964   2.251   2.001   1.881 -1.0334 -0.2842 -0.2095
  989SOL     OW 2965   1.079   2.468   0.024 -0.4289  0.3986 -0.3593
  989SOL    HW1 2966   1.054   2.541   0.088 -0.1535 -0.8575  0.8795
  989SOL    HW2 2967   1.158   2.414   0.052 -2.4311  1.7817  1.8772
  990SOL     OW 2968   1.691   1.101   2.813  0.3438 -0.3607 -0.1849
  990SOL    HW1 2969   1.789   1.120   2.803 -1.2736  0.9835 -0.1635
  990SOL    HW2 2970   1.647   1.082   2.727 -2.0424 -0.0323  1.7109
  991SOL     OW 2971   1.245   0.291   0.500 -0.0351  0.2801  0.5381
  991SOL    HW1 2972   1.334   0.263   0.545 -0.7060  1.5583 -1.6034
  991SOL    HW2 2973   1.263   0.366   0.431 -1.0548  2.3519  2.4314
  992SOL     OW 2974   2.673   1.229   1.412 -0.1310 -0.3538  0.2504
  992SOL    HW1 2975   2.712   1.136   1.390  3.1967 -0.8063  1.8322
  992SOL    HW2 2976   2.720   1.298   1.352 -0.8397  2.2648  0.9530
  993SOL     OW 2977   2.419   0.755   1.778 -0.1782  0.3789  0.0720
  993SOL    HW1 2978   2.368   0.799   1.703  0.6659  0.6280  1.6158
  993SOL    HW2 2979   2.403   0.815   1.860 -1.0083 -0.4867  3.5093
  994SOL     OW 2980   0.609   1.970   2.661 -0.7531  0.1213  0.3163
  994SOL    HW1 2981   0.626   2.072   2.659 -0.4715  2.4806 -1.5939
  994SOL    HW2 2982   0.521   1.956   2.613 -0.6981  0.7570  0.5310
  995SOL     OW 2983   1.962   1.223   2.767  0.1997 -0.1307  0.3699
  995SOL    HW1 2984   1.953   1.236   2.666  0.2053 -2.0631  0.9688
  995SOL    HW2 2985   1.950   1.309   2.822  0.4069  2.3443  2.1685
  996SOL     OW 2986   2.452   1.729   0.476 -0.5566 -0.2665 -0.0745
  996SOL    HW1 2987   2.451   1.787   0.562 -0.4992 -0.5173  0.8673
  996SOL    HW2 2988   2.491   1.639   0.505 -2.4456 -0.5876  0.1556
  997SOL     OW 2989   1.927   0.718   2.136 -0.3406  0.0462  0.7842
  997SOL    HW1 2990   1.990   0.733   2.057  0.7578  1.4460 -1.0078
  997SOL    HW2 2991   1.865   0.644   2.113  1.0673  0.7824  1.0519
  998SOL     OW 2992   2.651   1.173   0.220 -0.1849  0.2941  0.4483
  998SOL    HW1 2993   2.569   1.113   0.242  0.2876 -2.1670  1.6352
  998SOL    HW2 2994   2.630   1.238   0.143  1.3924  0.3395 -1.2863
  999SOL     OW 2995   2.961   2.078   0.504  0.0002 -0.5588  0.3025
  999SOL    HW1 2996   3.060   2.058   0.521  2.1833 -1.2842 -1.3595
  999SOL    HW2 2997   2.929   2.170   0.544 -3.5103  0.0773  1.1224
 1000SOL     OW 2998   0.774   0.735   2.404  0.0075 -0.7052  0.2916
 1000SOL    HW1 2999   0.848   0.721   2.475  0.5564 -3.1125  1.9345
 1000SOL    HW2 3000   0.768   0.652   2.344  0.8695 -0.8756 -2.8609
   3.08861   3.08861   3.08861
