1000 SPC/Fw water molecules t= 123.00000 step= 123000
 3000
    1SOL     OW    1   2.189   2.098   0.889  0.5246  0.0283  0.1639
    1SOL    HW1    2   2.265   2.047   0.845 -1.8165  0.3129  2.0554
    1SOL    HW2    3   2.159   2.044   0.971  1.8485 -2.5686 -2.1372
    2SOL     OW    4   1.392   1.813   2.297  0.6547  0.3513  0.2121
    2SOL    HW1    5   1.329   1.793   2.381 -1.8373  0.4475  0.7722
    2SOL    HW2    6   1.439   1.728   2.264 -0.8539  2.4873  0.3413
    3SOL     OW    7   1.465   2.412   2.297  0.0400  0.8663  0.3615
    3SOL    HW1    8   1.368   2.392   2.270 -0.5105  1.0535  2.7699
    3SOL    HW2    9   1.510   2.326   2.331 -0.6376 -0.6208 -1.5946
    4SOL     OW   10   1.134   2.275   1.971 -0.4164 -0.4115 -0.1611
    4SOL    HW1   11   1.198   2.207   1.931  0.5307 -1.9848  1.4404
    4SOL    HW2   12   1.132   2.360   1.914  1.1486 -0.5990 -1.3108
    5SOL     OW   13   0.623   0.867   1.773 -0.3435 -0.8574 -0.4225
    5SOL    HW1   14   0.664   0.928   1.848  0.0159 -0.1094  0.3449
    5SOL    HW2   15   0.533   0.907   1.751 -0.2141 -1.6049  1.5868
    6SOL     OW   16   2.292   0.882   0.118  0.4116  0.5706  0.3969
    6SOL    HW1   17   2.211   0.824   0.100 -0.2637 -1.9753  2.6259
    6SOL    HW2   18   2.361   0.825   0.168 -2.7968  0.3113  0.5124
    7SOL     OW   19   0.643   0.298   1.662  0.5893 -0.3488  0.9724
    7SOL    HW1   20   0.738   0.287   1.694 -1.7113 -0.9843 -2.4815
    7SOL    HW2   21   0.596   0.208   1.641 -0.6332 -2.0156 -1.4829
    8SOL     OW   22   1.616   0.001   1.547 -0.0436  0.0712  0.5454
    8SOL    HW1   23   1.707   0.031   1.516 -1.7800  0.5570  0.5550
    8SOL    HW2   24   1.598   0.045   1.639 -3.1138  1.1526 -1.2424
    9SOL     OW   25   0.584   0.707   0.628  0.0519  0.0007 -0.0523
    9SOL    HW1   26   0.664   0.772   0.645  0.2629  0.9661 -0.0341
    9SOL    HW2   27   0.560   0.704   0.526 -0.2757 -1.4436 -0.3388
   10SOL     OW   28   0.503   2.353   2.570 -0.2726 -0.0194  0.2461
   10SOL    HW1   29   0.538   2.307   2.652  1.0868  1.0424 -0.6203
   10SOL    HW2   30   0.517   2.452   2.575  0.6159  1.4735  0.4574
   11SOL     OW   31   0.295   1.916   2.909  0.0999  0.1690  0.2172
   11SOL    HW1   32   0.393   1.935   2.929  0.0647  1.1828  0.6056
   11SOL    HW2   33   0.242   1.917   2.992  0.8212 -0.0831 -0.4171
   12SOL     OW   34   0.264   0.105   1.406 -0.4572 -0.0474  0.7629
   12SOL    HW1   35   0.347   0.116   1.460  1.3670  0.1250  0.4236
   12SOL    HW2   36   0.245   0.008   1.389  0.0138 -0.2367 -1.7029
   13SOL     OW   37   0.778   2.534   0.028 -0.1384 -0.5051  0.0350
   13SOL    HW1   38   0.877   2.521   0.029 -2.4838 -0.4270 -0.8316
   13SOL    HW2   39   0.752   2.633   0.041 -0.5027 -0.0682 -1.8435
   14SOL     OW   40   1.530   1.664   0.955 -0.2654 -0.3053 -0.6667
   14SOL    HW1   41   1.605   1.622   1.012  3.7090 -1.2742  2.1763
   14SOL    HW2   42   1.448   1.694   1.007 -1.4612 -2.7437 -0.7502
   15SOL     OW   43   2.882   1.204   2.183 -0.0176 -0.2759  0.3837
   15SOL    HW1   44   2.946   1.127   2.174 -1.4735 -2.9113  2.8774
   15SOL    HW2   45   2.894   1.246   2.272  1.5972 -1.4657 -1.9714
   16SOL     OW   46   1.378   2.917   2.894 -0.0452  0.1173  0.2910
   16SOL    HW1   47   1.392   2.828   2.845  0.5032 -0.4203 -2.0923
   16SOL    HW2   48   1.330   2.985   2.833  1.6267 -0.2871 -0.4585
   17SOL     OW   49   0.610   2.384   2.112 -0.1229  0.3374  0.0812
   17SOL    HW1   50   0.635   2.356   2.206  0.8130  0.9757 -0.0710
   17SOL    HW2   51   0.513   2.351   2.102  3.9085  1.2276  2.1081
   18SOL     OW   52   1.761   0.747   0.390  0.2415  0.1752  0.9304
   18SOL    HW1   53   1.755   0.829   0.326  0.5445  1.6619  0.4365
   18SOL    HW2   54   1.739   0.663   0.335 -1.7127 -1.5009  0.2349
   19SOL     OW   55   2.461   1.818   2.755  0.4930 -0.0629  0.9263
   19SOL    HW1   56   2.403   1.829   2.836 -0.9672  0.0883 -1.7557
   19SOL    HW2   57   2.555   1.845   2.762  0.1758  0.1173 -1.3692
   20SOL     OW   58   2.466   2.164   2.435 -0.0889 -0.4519  0.4148
   20SOL    HW1   59   2.436   2.262   2.453  0.3219 -2.1102 -0.8130
   20SOL    HW2   60   2.563   2.144   2.451 -1.2572 -0.9723 -1.8874
   21SOL     OW   61   0.666   2.102   0.162  0.0973 -0.3033 -0.7957
   21SOL    HW1   62   0.596   2.167   0.196  1.1329 -2.9739 -0.0366
   21SOL    HW2   63   0.652   2.016   0.213 -0.4293  2.3364 -0.9073
   22SOL     OW   64   2.423   2.787   1.108 -0.4960 -0.1152  0.1263
   22SOL    HW1   65   2.463   2.873   1.070  0.5252 -1.3475  0.9455
   22SOL    HW2   66   2.367   2.799   1.192 -1.6065  0.0908  0.2419
   23SOL     OW   67   0.428   1.466   1.394 -0.1882  0.1220 -0.1700
   23SOL    HW1   68   0.405   1.556   1.433 -1.5189 -0.9550 -0.1217
   23SOL    HW2   69   0.519   1.441   1.435 -3.0099 -0.4939 -1.1443
   24SOL     OW   70   2.025   2.132   1.602  0.3981 -0.1694  0.7729
   24SOL    HW1   71   1.961   2.053   1.622 -0.6296 -1.0746  0.6162
   24SOL    HW2   72   2.039   2.183   1.691 -0.8139  0.8967  0.2085
   25SOL     OW   73   1.808   0.207   2.601  0.0751  0.6700  0.1456
   25SOL    HW1   74   1.867   0.265   2.541 -0.0483  2.5973  0.1036
   25SOL    HW2   75   1.780   0.117   2.561 -1.1636 -1.3864 -0.2161
   26SOL     OW   76   1.586   2.937   0.934 -0.4721 -0.9070  0.3082
   26SOL    HW1   77   1.547   2.944   0.845  0.8879  0.9439 -0.7025
   26SOL    HW2   78   1.574   3.026   0.983 -3.4775  2.6339 -1.7820
   27SOL     OW   79   1.153   1.818   3.051 -0.3373 -0.0927  0.4352
   27SOL    HW1   80   1.168   1.880   0.020 -0.2756  2.0944 -0.5254
   27SOL    HW2   81   1.053   1.792   3.048 -1.2457 -1.6675  0.1762
   28SOL     OW   82   2.881   1.927   1.399  0.8223  0.0225 -0.1595
   28SOL    HW1   83   2.801   1.874   1.439 -1.0994  2.6854 -1.2009
   28SOL    HW2   84   2.921   1.878   1.321 -0.0078 -0.2560 -0.1663
   29SOL     OW   85   2.231   2.643   2.004 -0.6497 -0.0277 -0.2117
   29SOL    HW1   86   2.264   2.552   1.966  1.2445 -0.5678  0.3515
   29SOL    HW2   87   2.293   2.682   2.074 -0.4491  0.0595 -0.9227
   30SOL     OW   88   0.929   2.772   1.144  0.4369 -0.3617  0.0784
   30SOL    HW1   89   0.968   2.729   1.061  2.6805  0.1691 -0.7455
   30SOL    HW2   90   0.859   2.839   1.114 -0.7435 -2.1532 -0.2779
   31SOL     OW   91   2.955   2.197   2.166 -0.6306 -0.7060 -0.2787
   31SOL    HW1   92   2.948   2.115   2.110 -1.3100  2.7152  1.1567
   31SOL    HW2   93   2.983   2.278   2.110  2.0254  1.2052  2.2820
   32SOL     OW   94   1.519   1.193   1.994 -0.3933 -0.5750  0.1220
   32SOL    HW1   95   1.498   1.096   2.004  0.9352  1.0157 -0.4232
   32SOL    HW2   96   1.436   1.251   1.969 -1.9925  0.8539  2.7943
   33SOL     OW   97   0.332   2.882   2.433 -0.1906 -0.0356 -0.2441
   33SOL    HW1   98   0.333   2.886   2.530  0.5079 -1.9375 -2.5247
   33SOL    HW2   99   0.402   2.817   2.392  1.3607 -2.5512 -2.1971
   34SOL     OW  100   1.851   0.134   1.474  0.3237 -0.1456 -0.0268
   34SOL    HW1  101   1.868   0.217   1.532 -0.0089 -1.0588  1.5582
   34SOL    HW2  102   1.935   0.078   1.470 -2.3715  2.9852  1.4679
   35SOL     OW  103   2.277   0.569   1.216 -0.0423 -0.1437 -0.4475
   35SOL    HW1  104   2.339   0.649   1.225  0.0606 -0.0605 -0.5311
   35SOL    HW2  105   2.191   0.605   1.183  2.3596 -2.5399  0.6464
   36SOL     OW  106   2.436   2.864   2.420  0.0415 -0.3411  0.1632
   36SOL    HW1  107   2.367   2.834   2.487 -0.9455  0.6521  0.5539
   36SOL    HW2  108   2.471   2.956   2.440  0.0102 -2.7858 -0.3759
   37SOL     OW  109   1.226   2.231   2.934 -0.2712  0.1037 -0.0125
   37SOL    HW1  110   1.209   2.221   3.032 -1.4103 -0.9585  0.6347
   37SOL    HW2  111   1.181   2.160   2.879 -2.8032  2.5393  0.3130
   38SOL     OW  112   3.064   0.702   2.675 -0.1300 -0.0895 -0.2878
   38SOL    HW1  113   3.000   0.701   2.592  0.1195 -0.1262 -0.3180
   38SOL    HW2  114   3.038   0.640   2.751  1.7907  0.5310 -0.5822
   39SOL     OW  115   1.946   2.163   2.216 -0.6631  0.4161  0.3050
   39SOL    HW1  116   1.939   2.099   2.292  1.1447  0.2330 -2.8254
   39SOL    HW2  117   1.865   2.151   2.159  1.4464 -1.7389  1.6641
   40SOL     OW  118   0.493   0.177   2.972 -0.1685  0.0808  0.3755
   40SOL    HW1  119   0.561   0.143   3.037  1.6956  0.8059  0.0487
   40SOL    HW2  120   0.437   0.102   2.927 -3.0239 -0.9973 -0.7246
   41SOL     OW  121   1.330   0.834   1.388 -0.5598  0.9794 -0.5164
   41SOL    HW1  122   1.425   0.850   1.357 -3.0294 -0.0483 -0.3185
   41SOL    HW2  123   1.319   0.850   1.486  1.1287  1.1116 -1.6571
   42SOL     OW  124   0.261   0.290   2.045 -0.4684  0.4406 -0.0325
   42SOL    HW1  125   0.186   0.355   2.025 -1.8146  3.7974  1.1504
   42SOL    HW2  126   0.354   0.336   2.036 -1.1301 -1.4109 -1.4997
   43SOL     OW  127   1.642   1.557   2.143  0.0945 -0.0463 -0.0340
   43SOL    HW1  128   1.548   1.556   2.185 -1.9942  1.4827  0.2672
   43SOL    HW2  129   1.646   1.509   2.052  1.6786 -0.5846 -0.5837
   44SOL     OW  130   2.918   2.836   2.739  0.6802 -0.6378 -0.6743
   44SOL    HW1  131   2.969   2.916   2.779  0.3006  1.7147 -0.8856
   44SOL    HW2  132   2.850   2.800   2.804 -1.2287 -0.3737 -0.6363
   45SOL     OW  133   0.474   2.316   1.322  0.0266 -0.3445 -0.2506
   45SOL    HW1  134   0.560   2.269   1.288  1.1134 -1.9583  1.1623
   45SOL    HW2  135   0.443   2.264   1.399 -0.7669  1.4132  1.1607
   46SOL     OW  136   2.600   2.602   1.841 -0.9627  0.2908 -0.2002
   46SOL    HW1  137   2.542   2.678   1.809 -2.1706  0.6738  0.6211
   46SOL    HW2  138   2.552   2.514   1.841 -0.4006  3.9294  0.5286
   47SOL     OW  139   1.755   1.665   1.628  0.5978 -0.1179  0.7418
   47SOL    HW1  140   1.703   1.669   1.718 -0.4351 -1.9918  0.3335
   47SOL    HW2  141   1.857   1.644   1.636  3.6649  0.2518  0.6270
   48SOL     OW  142   0.289   1.995   0.379 -0.4767 -0.3085 -0.5989
   48SOL    HW1  143   0.219   1.977   0.313  2.0646  0.4820  1.6825
   48SOL    HW2  144   0.302   1.906   0.430  1.5167 -1.6886 -0.7003
   49SOL     OW  145   3.016   1.332   1.926  0.2804  0.0268 -0.2390
   49SOL    HW1  146   3.105   1.369   1.964  3.8744  1.7831  0.3522
   49SOL    HW2  147   2.957   1.290   2.001  0.7863  2.2674  2.2459
   50SOL     OW  148   2.152   0.925   0.656  0.1542 -0.1053  0.1698
   50SOL    HW1  149   2.204   0.890   0.575 -3.7078  0.1770  1.7495
   50SOL    HW2  150   2.061   0.884   0.649  3.2434  0.6927  0.1451
   51SOL     OW  151   1.161   0.634   0.772  0.0189 -0.5215  0.3447
   51SOL    HW1  152   1.070   0.634   0.812  1.4966  1.2771  1.0806
   51SOL    HW2  153   1.231   0.620   0.840 -0.7697  0.5446 -0.7468
   52SOL     OW  154   1.259   1.077   0.314 -0.4473  0.0007  0.6080
   52SOL    HW1  155   1.260   0.973   0.315 -0.5636 -0.3523 -1.8604
   52SOL    HW2  156   1.349   1.114   0.338 -0.9572 -2.2664 -2.0285
   53SOL     OW  157   1.148   2.355   2.654 -0.0696 -0.4429 -0.6312
   53SOL    HW1  158   1.188   2.277   2.613  1.7863  2.3286  2.5943
   53SOL    HW2  159   1.208   2.398   2.724  1.7039  1.3142  1.0890
   54SOL     OW  160   1.612   0.739   1.669 -0.1093 -0.2841  0.2628
   54SOL    HW1  161   1.521   0.782   1.661  1.0071  1.4704  0.7643
   54SOL    HW2  162   1.681   0.780   1.602 -1.7534 -0.1160  1.3306
   55SOL     OW  163   2.272   3.004   0.511 -0.1845  0.0536  0.1438
   55SOL    HW1  164   2.173   2.992   0.478  0.1820  1.8046  1.2559
   55SOL    HW2  165   2.329   2.927   0.476  1.8409  1.9841 -1.3346
   56SOL     OW  166   1.236   2.845   1.632  0.4945 -0.0377 -0.0927
   56SOL    HW1  167   1.197   2.851   1.727 -2.2674 -0.5480  1.9369
   56SOL    HW2  168   1.169   2.869   1.566 -0.2974  1.4744  1.7152
   57SOL     OW  169   2.044   0.677   2.865 -0.2751  0.1510 -0.2332
   57SOL    HW1  170   2.011   0.730   2.791 -0.3890  0.7867 -1.2166
   57SOL    HW2  171   1.988   0.590   2.874  0.9199 -2.3556  1.7521
   58SOL     OW  172   3.000   1.243   1.656  0.3381  0.3577  0.3068
   58SOL    HW1  173   3.010   1.271   1.754 -0.8300  1.3405  1.0599
   58SOL    HW2  174   2.937   1.308   1.606  0.5754 -2.2975  0.1182
   59SOL     OW  175   0.539   2.732   2.353  0.0892  0.5916  0.5865
   59SOL    HW1  176   0.510   2.692   2.262 -0.5724 -0.6742  0.4797
   59SOL    HW2  177   0.643   2.749   2.354  2.2125 -1.4982  0.4649
   60SOL     OW  178   2.675   2.522   0.876  0.3944  0.1912 -0.4978
   60SOL    HW1  179   2.584   2.506   0.918  0.7367  0.5014  0.0671
   60SOL    HW2  180   2.671   2.550   0.775 -0.9661 -1.1248 -1.1803
   61SOL     OW  181   1.030   2.417   0.383  0.1734  0.0240 -0.0418
   61SOL    HW1  182   1.119   2.366   0.370 -1.2387  0.8892 -0.3172
   61SOL    HW2  183   0.955   2.363   0.340  0.8742 -1.0749  0.8192
   62SOL     OW  184   1.999   2.694   3.057 -0.0336  0.1090  0.2002
   62SOL    HW1  185   2.038   2.652   2.974  2.3867 -1.5224 -0.2365
   62SOL    HW2  186   1.901   2.720   3.045 -1.1943 -0.2636  0.4422
   63SOL     OW  187   1.888   0.219   2.997 -0.2668  0.4340 -0.7183
   63SOL    HW1  188   1.827   0.148   3.037 -0.7971 -1.8101  2.2900
   63SOL    HW2  189   1.987   0.194   3.015  1.1846 -1.3559  1.3895
   64SOL     OW  190   0.864   0.999   2.670  0.1824 -0.0038 -0.0928
   64SOL    HW1  191   0.952   0.958   2.643 -2.6790 -2.8645 -2.4062
   64SOL    HW2  192   0.798   1.018   2.591 -2.4125 -2.1359  1.3552
   65SOL     OW  193   1.486   2.690   0.601 -0.5716  0.2350 -0.7705
   65SOL    HW1  194   1.504   2.623   0.526  2.0316  0.6955 -1.2607
   65SOL    HW2  195   1.537   2.661   0.686  0.2670 -1.2689 -1.2892
   66SOL     OW  196   0.431   1.605   1.817 -0.0340 -0.3165  0.0526
   66SOL    HW1  197   0.447   1.588   1.916 -0.0752  1.4384  1.6457
   66SOL    HW2  198   0.360   1.544   1.786 -0.4978  1.9315  2.1079
   67SOL     OW  199   2.190   3.084   2.078  0.4618 -0.2875  0.1567
   67SOL    HW1  200   2.209   3.028   1.994  0.9287  0.6380 -0.6063
   67SOL    HW2  201   2.276   3.089   2.131  0.3130 -2.4096  0.7412
   68SOL     OW  202   0.757   0.810   1.520  0.0001  0.2414 -0.4388
   68SOL    HW1  203   0.738   0.708   1.520 -1.5106 -3.5297  2.6460
   68SOL    HW2  204   0.715   0.850   1.604  1.3404  1.5557  0.1967
   69SOL     OW  205   2.027   2.968   0.420  0.3621 -0.0358 -0.1682
   69SOL    HW1  206   1.953   2.934   0.484 -0.4990 -0.5481 -0.3923
   69SOL    HW2  207   1.997   3.069   0.396 -1.2355  0.1900  1.9900
   70SOL     OW  208   2.811   0.805   2.931  0.0601  0.0235 -0.0285
   70SOL    HW1  209   2.847   0.858   3.009  1.8235  3.1580  0.5943
   70SOL    HW2  210   2.751   0.725   2.959 -1.7287 -1.5906 -0.8372
   71SOL     OW  211   2.885   1.593   3.034  0.2161  0.1844  0.1662
   71SOL    HW1  212   2.791   1.601   2.996 -1.1238  1.2131  0.0341
   71SOL    HW2  213   2.950   1.651   2.984 -0.3445  0.4668  1.0607
   72SOL     OW  214   2.958   1.860   0.374  0.5845 -0.2106 -0.4102
   72SOL    HW1  215   2.970   1.780   0.435 -0.0422  2.7665 -0.0445
   72SOL    HW2  216   2.992   1.940   0.423  0.2327 -1.6096 -1.7079
   73SOL     OW  217   0.984   0.966   0.510  0.0221  0.8132  0.2082
   73SOL    HW1  218   0.948   1.060   0.509 -0.8325 -1.8096 -1.5268
   73SOL    HW2  219   0.976   0.933   0.415  0.5070 -2.0922 -1.2016
   74SOL     OW  220   0.060   2.046   1.869  0.8069 -0.0502  0.5256
   74SOL    HW1  221   0.067   2.145   1.874 -0.9272  1.4789 -4.4968
   74SOL    HW2  222   0.148   2.007   1.895 -1.8711 -1.4820 -0.4914
   75SOL     OW  223   1.775   1.252   1.657 -0.1848 -0.0946  0.2788
   75SOL    HW1  224   1.732   1.263   1.565  1.1255  0.8513  1.0217
   75SOL    HW2  225   1.710   1.283   1.731  0.0481 -0.3831  2.3886
   76SOL     OW  226   2.012   2.328   1.157  0.2228  0.4075 -0.0879
   76SOL    HW1  227   2.068   2.291   1.080 -2.1533 -0.0799  0.7398
   76SOL    HW2  228   2.064   2.409   1.198  1.0493  0.7507  2.2787
   77SOL     OW  229   2.721   1.592   1.659  0.3682 -0.0340  0.2820
   77SOL    HW1  230   2.654   1.584   1.731  1.6223 -0.7979  2.1132
   77SOL    HW2  231   2.810   1.622   1.699  1.0112 -2.7818  0.0311
   78SOL     OW  232   1.413   0.481   0.597  0.3760  0.3350  0.3518
   78SOL    HW1  233   1.408   0.483   0.697  0.3641  1.5548 -3.8236
   78SOL    HW2  234   1.503   0.448   0.564  1.2905 -0.5954 -0.0920
   79SOL     OW  235   2.358   1.684   1.571  0.9921  0.1196 -0.1934
   79SOL    HW1  236   2.319   1.744   1.645 -0.0836 -1.6421  0.3696
   79SOL    HW2  237   2.405   1.598   1.601  2.5044 -0.1803 -1.4905
   80SOL     OW  238   0.714   0.556   1.496  0.2948 -0.1768  0.1859
   80SOL    HW1  239   0.739   0.479   1.555 -0.2709  1.1136  1.4368
   80SOL    HW2  240   0.694   0.521   1.401  0.2102 -1.6462  0.6984
   81SOL     OW  241   0.649   2.781   0.948 -0.3877 -0.2923 -0.0286
   81SOL    HW1  242   0.733   2.823   0.901 -0.0918  0.8105 -1.1114
   81SOL    HW2  243   0.568   2.786   0.888  0.4707 -2.5165  0.5073
   82SOL     OW  244   1.590   2.933   1.801 -0.0788 -0.4809  0.6282
   82SOL    HW1  245   1.622   2.894   1.712 -2.0484 -4.4584 -1.9246
   82SOL    HW2  246   1.510   2.993   1.780 -0.3143 -0.3624 -1.2319
   83SOL     OW  247   1.215   1.897   0.742  0.7098  0.5571 -0.1066
   83SOL    HW1  248   1.274   1.919   0.817  1.8210  1.7251 -1.6439
   83SOL    HW2  249   1.228   1.961   0.662  0.1116 -0.3973  0.1135
   84SOL     OW  250   0.043   1.400   2.906  0.2700 -0.4082  0.3337
   84SOL    HW1  251   0.016   1.303   2.909  1.0721  0.5940 -1.5955
   84SOL    HW2  252   3.088   1.453   2.842  2.2906 -0.1310  0.2237
   85SOL     OW  253   0.304   2.226   0.874  0.0687 -0.2022  0.0105
   85SOL    HW1  254   0.366   2.245   0.794 -1.8723  1.2561 -1.0532
   85SOL    HW2  255   0.323   2.277   0.960 -1.8026 -0.7477 -1.4217
   86SOL     OW  256   2.145   2.583   1.588 -0.2186 -0.8914  0.2853
   86SOL    HW1  257   2.239   2.623   1.606  0.6380 -1.5451 -2.1978
   86SOL    HW2  258   2.083   2.610   1.662 -0.1138  2.1601  0.4817
   87SOL     OW  259   3.044   2.052   0.564  0.0512  0.3274 -0.2192
   87SOL    HW1  260   3.099   2.136   0.565 -0.1575  1.7897 -2.5502
   87SOL    HW2  261   3.080   1.988   0.637 -3.2721  0.7748 -0.9010
   88SOL     OW  262   0.957   0.626   1.134 -0.2079 -0.0394 -0.1082
   88SOL    HW1  263   0.919   0.718   1.116  0.9886  0.0716 -1.6665
   88SOL    HW2  264   1.058   0.629   1.132 -1.9876  0.8841  0.6456
   89SOL     OW  265   0.978   3.043   1.981 -0.2301 -0.4974 -0.4122
   89SOL    HW1  266   0.887   3.084   2.000 -0.6351 -1.8449 -0.7953
   89SOL    HW2  267   1.050   0.004   2.010 -1.2222 -0.6291 -0.0897
   90SOL     OW  268   0.215   2.080   1.364 -0.1986  0.0851 -0.8168
   90SOL    HW1  269   0.273   2.053   1.285 -0.9557  2.5013  0.3435
   90SOL    HW2  270   0.269   2.100   1.449  1.1023  2.8561 -0.0965
   91SOL     OW  271   1.456   2.093   1.297 -0.6635  0.7234  0.1552
   91SOL    HW1  272   1.507   2.059   1.375  1.9520  0.3406 -1.6067
   91SOL    HW2  273   1.503   2.077   1.206  2.3814  1.0930 -2.8848
   92SOL     OW  274   2.666   2.990   1.552  0.1511  0.0627 -0.0859
   92SOL    HW1  275   2.645   3.042   1.464  1.1254 -0.8467  0.0705
   92SOL    HW2  276   2.747   2.926   1.546  0.4043 -0.8617  0.0929
   93SOL     OW  277   0.076   1.086   2.927  0.1506 -0.4591  0.0266
   93SOL    HW1  278   0.082   0.986   2.946  1.0400 -0.9228 -2.0711
   93SOL    HW2  279   0.170   1.122   2.906 -0.7825  1.7903 -0.9965
   94SOL     OW  280   2.868   2.614   1.878 -0.3860  0.1206  0.1816
   94SOL    HW1  281   2.907   2.708   1.879 -0.6011 -0.6624  0.7579
   94SOL    HW2  282   2.767   2.615   1.868  2.8392 -1.8981 -1.1232
   95SOL     OW  283   1.452   0.514   2.048  0.2331 -0.1685 -0.5931
   95SOL    HW1  284   1.510   0.488   2.129 -2.7474  0.2626  1.7798
   95SOL    HW2  285   1.386   0.588   2.074 -0.7424  1.1491  0.5437
   96SOL     OW  286   2.667   0.653   1.708  0.1408  0.5121 -0.0688
   96SOL    HW1  287   2.648   0.563   1.659 -0.4207 -0.8582  0.4669
   96SOL    HW2  288   2.727   0.634   1.788 -4.5270  0.7370 -0.6509
   97SOL     OW  289   2.303   0.416   1.733  0.1943  0.1201  0.0057
   97SOL    HW1  290   2.385   0.464   1.768 -2.8030  2.1508 -1.4277
   97SOL    HW2  291   2.298   0.447   1.638  1.8946  0.7795 -0.9493
   98SOL     OW  292   2.146   2.539   1.247 -0.0363  0.1101 -0.6915
   98SOL    HW1  293   2.129   2.574   1.156  0.1713  0.1709  1.9235
   98SOL    HW2  294   2.198   2.607   1.305  1.5319  2.4978  1.6340
   99SOL     OW  295   2.819   0.318   1.944  0.6510 -0.4513 -0.0719
   99SOL    HW1  296   2.855   0.315   2.042 -1.2433  1.3561  2.1260
   99SOL    HW2  297   2.853   0.404   1.897 -3.4826 -0.4260  1.2958
  100SOL     OW  298   2.240   1.797   1.800 -0.0533 -0.1446  0.2614
  100SOL    HW1  299   2.182   1.784   1.885 -0.4490 -1.1613  2.6039
  100SOL    HW2  300   2.325   1.840   1.824 -2.0590 -4.1096 -1.8970
  101SOL     OW  301   1.777   0.081   0.718  0.2402  0.1500 -0.8550
  101SOL    HW1  302   1.878   0.092   0.741  0.6404 -0.0706  2.3032
  101SOL    HW2  303   1.742   3.099   0.741  0.0004  0.7990 -0.5681
  102SOL     OW  304   0.575   0.868   1.321  0.4803 -0.4791  0.0017
  102SOL    HW1  305   0.522   0.779   1.312 -0.9586 -1.3686  0.0235
  102SOL    HW2  306   0.656   0.858   1.375 -6.1259 -3.4182 -0.4593
  103SOL     OW  307   2.625   0.336   3.018  0.0455  0.1198 -0.1338
  103SOL    HW1  308   2.665   0.244   3.010  1.7922  1.4911  1.6540
  103SOL    HW2  309   2.645   0.380   0.006  1.2733  2.2547 -0.8419
  104SOL     OW  310   2.717   0.163   1.728 -0.1808  0.1028 -0.4566
  104SOL    HW1  311   2.766   0.099   1.666  1.5621 -1.1978 -0.6386
  104SOL    HW2  312   2.786   0.206   1.793  0.3305  2.1448 -0.9337
  105SOL     OW  313   1.838   0.805   2.403 -0.3052  0.3154 -0.1437
  105SOL    HW1  314   1.854   0.702   2.422  0.7006  0.2071  4.4661
  105SOL    HW2  315   1.927   0.843   2.367  0.6736 -0.5246 -0.2976
  106SOL     OW  316   1.899   2.849   0.803 -0.0002  0.0283  0.4988
  106SOL    HW1  317   1.827   2.883   0.861 -0.2211 -2.6201 -3.2778
  106SOL    HW2  318   1.986   2.899   0.814  1.1053 -2.7969 -0.0904
  107SOL     OW  319   0.753   1.149   0.815 -0.3034  0.3957 -0.0353
  107SOL    HW1  320   0.744   1.256   0.808 -0.2053  1.8664 -0.2606
  107SOL    HW2  321   0.666   1.111   0.853 -2.0491  0.6458  1.5681
  108SOL     OW  322   2.864   0.320   2.233 -0.0026  0.2012  0.3447
  108SOL    HW1  323   2.927   0.291   2.309  0.9412 -0.8260 -1.9553
  108SOL    HW2  324   2.769   0.293   2.253 -0.8996  1.5893  2.4366
  109SOL     OW  325   1.964   0.284   0.192  0.5837  0.1578  0.1644
  109SOL    HW1  326   1.873   0.264   0.149 -0.3373  0.6323  0.4872
  109SOL    HW2  327   1.981   0.382   0.224  0.5894  1.7218  2.1537
  110SOL     OW  328   0.132   2.330   2.705 -0.2436 -0.0902  0.2665
  110SOL    HW1  329   0.186   2.420   2.716 -1.0306  2.1873  1.8733
  110SOL    HW2  330   0.030   2.338   2.719  0.1198  0.9214 -0.3635
  111SOL     OW  331   2.075   0.234   2.137 -0.5619 -0.3866  0.7186
  111SOL    HW1  332   2.115   0.143   2.133 -0.6205  1.3829  1.8048
  111SOL    HW2  333   2.127   0.290   2.204 -0.4355 -1.0369  0.8651
  112SOL     OW  334   2.485   3.084   0.661 -0.1216 -0.0885 -0.4991
  112SOL    HW1  335   2.431   0.053   0.699 -0.1051 -0.9762 -1.5527
  112SOL    HW2  336   2.432   3.048   0.585 -0.8118  3.0352  3.6671
  113SOL     OW  337   2.383   2.332   1.740  0.0711  0.2220 -0.5195
  113SOL    HW1  338   2.333   2.340   1.651 -0.6152 -2.0745  0.0641
  113SOL    HW2  339   2.325   2.331   1.823  1.7262  1.6170 -0.5450
  114SOL     OW  340   2.907   0.581   0.691 -0.1988 -0.0981  0.0236
  114SOL    HW1  341   2.929   0.497   0.643 -1.2054  0.5767 -1.8382
  114SOL    HW2  342   2.936   0.584   0.788 -0.4815  0.1629  0.9750
  115SOL     OW  343   2.784   1.684   0.156  0.0075  0.1336  0.0333
  115SOL    HW1  344   2.831   1.770   0.185 -1.3577  0.4812  1.5585
  115SOL    HW2  345   2.827   1.644   0.070 -1.7918  0.5959  0.6552
  116SOL     OW  346   2.976   1.690   2.001 -0.2137  0.4538 -0.2302
  116SOL    HW1  347   2.914   1.611   2.025  0.2030 -3.6259 -0.0085
  116SOL    HW2  348   2.981   1.709   1.900  0.0085  3.7440  0.6111
  117SOL     OW  349   2.725   0.013   0.568  0.4873  0.3383 -0.2686
  117SOL    HW1  350   2.632   3.094   0.599  2.3360 -1.6934  0.3160
  117SOL    HW2  351   2.714   0.058   0.473 -0.4656  0.9685  1.5410
  118SOL     OW  352   0.527   2.703   1.561 -0.1834 -0.4929  0.8350
  118SOL    HW1  353   0.475   2.660   1.482 -1.2436  2.2252 -1.1655
  118SOL    HW2  354   0.628   2.674   1.567 -0.8876 -0.8743  0.1234
  119SOL     OW  355   1.747   2.342   1.047 -0.7004 -0.5506 -0.0558
  119SOL    HW1  356   1.828   2.294   1.084 -1.4757 -0.2527 -2.1878
  119SOL    HW2  357   1.774   2.434   1.008 -1.3154  2.4988 -0.6632
  120SOL     OW  358   0.453   1.921   2.203  0.2771  0.6090 -0.1326
  120SOL    HW1  359   0.487   1.871   2.279 -0.4610  0.8878 -1.0438
  120SOL    HW2  360   0.409   2.006   2.232  2.0762 -0.8276 -1.9942
  121SOL     OW  361   2.841   1.583   1.008  0.2125  0.0050 -0.5249
  121SOL    HW1  362   2.842   1.624   1.101 -2.4104 -0.3225 -1.8058
  121SOL    HW2  363   2.770   1.504   1.007 -0.2291 -2.6199 -4.6178
  122SOL     OW  364   2.068   1.500   2.394 -0.4581 -0.1560  0.0596
  122SOL    HW1  365   2.004   1.539   2.322  1.3106 -0.7028  2.0410
  122SOL    HW2  366   2.126   1.579   2.432  2.2002 -0.7873 -0.3501
  123SOL     OW  367   2.802   0.207   0.747  0.4995  0.2100 -0.1045
  123SOL    HW1  368   2.885   0.247   0.711 -3.9761 -1.1497  0.1145
  123SOL    HW2  369   2.761   0.136   0.682  0.4286 -0.1161 -1.1181
  124SOL     OW  370   1.450   1.144   2.752 -0.1339 -0.6277 -0.3811
  124SOL    HW1  371   1.362   1.171   2.791 -0.5316  1.1585 -0.6910
  124SOL    HW2  372   1.519   1.177   2.823 -0.3122  2.5971  4.4687
  125SOL     OW  373   0.236   1.723   2.479  0.0893  0.3474 -0.1656
  125SOL    HW1  374   0.224   1.707   2.577  0.3411  0.0595 -1.2213
  125SOL    HW2  375   0.328   1.751   2.451 -0.3290 -1.5950 -0.0440
  126SOL     OW  376   2.743   2.041   0.332  0.7281  0.2349  0.1902
  126SOL    HW1  377   2.776   2.133   0.349 -0.4303 -0.3271 -0.7787
  126SOL    HW2  378   2.816   1.976   0.352 -1.7572 -1.3999  0.2521
  127SOL     OW  379   0.628   1.717   0.999  0.5009  0.5895  0.0269
  127SOL    HW1  380   0.546   1.699   1.055  0.2531 -0.9929  1.1401
  127SOL    HW2  381   0.602   1.787   0.929  1.6189  0.7716 -0.0468
  128SOL     OW  382   1.382   0.811   0.032 -0.5331  0.1322  0.3410
  128SOL    HW1  383   1.343   0.806   0.124  0.5211 -0.3778  2.3415
  128SOL    HW2  384   1.476   0.855   0.023  3.4835 -2.0671  0.7587
  129SOL     OW  385   2.305   1.703   1.176 -0.0904  0.3621  0.2620
  129SOL    HW1  386   2.304   1.791   1.228 -0.5038  0.1296  0.4753
  129SOL    HW2  387   2.221   1.647   1.198 -1.0286  0.0547 -3.1727
  130SOL     OW  388   1.682   1.350   0.510 -0.2745  0.2678  0.2678
  130SOL    HW1  389   1.683   1.437   0.457  0.5855 -2.6350  0.4985
  130SOL    HW2  390   1.725   1.367   0.598 -0.2083  0.5794 -2.7497
  131SOL     OW  391   3.015   0.987   2.594  0.0290 -0.4539 -0.2033
  131SOL    HW1  392   3.093   0.950   2.647  2.8897 -0.8951 -2.0471
  131SOL    HW2  393   2.957   1.056   2.644 -1.5596  2.1424  0.0700
  132SOL     OW  394   2.021   1.612   1.710  0.1663  0.5530 -0.1830
  132SOL    HW1  395   2.090   1.684   1.726 -2.9772 -2.5181 -3.2429
  132SOL    HW2  396   1.997   1.565   1.793  1.5163 -0.0051 -0.8487
  133SOL     OW  397   0.261   1.504   3.019 -0.0872 -0.0087 -0.0974
  133SOL    HW1  398   0.176   1.457   2.989  4.0993  2.3113  2.8307
  133SOL    HW2  399   0.243   1.527   0.007  0.1581 -0.8440 -0.8278
  134SOL     OW  400   2.797   1.314   3.080  0.8203  0.2429  0.0089
  134SOL    HW1  401   2.842   1.238   3.024  1.7240 -1.9096  0.6521
  134SOL    HW2  402   2.854   1.398   3.065 -0.3384 -0.5905 -2.8215
  135SOL     OW  403   2.642   1.035   0.152  0.9438  0.7869 -0.1307
  135SOL    HW1  404   2.562   1.039   0.089  3.7216  0.1960  0.0276
  135SOL    HW2  405   2.653   1.123   0.204 -1.9335  1.6448  1.0302
  136SOL     OW  406   2.013   1.417   1.521  0.1310  0.2954 -0.2279
  136SOL    HW1  407   2.020   1.493   1.594 -1.1853  1.2749  5.3773
  136SOL    HW2  408   1.917   1.384   1.521  0.2046 -2.8948  0.3777
  137SOL     OW  409   2.476   1.996   0.279 -1.1063  0.4586 -0.3647
  137SOL    HW1  410   2.467   1.912   0.219 -0.7974 -1.8758  2.5623
  137SOL    HW2  411   2.575   2.013   0.303  1.7617  1.5500  2.6955
  138SOL     OW  412   1.564   0.161   1.786 -0.1587  0.2018  0.3801
  138SOL    HW1  413   1.511   0.191   1.866 -1.4689  2.0670 -1.0222
  138SOL    HW2  414   1.647   0.220   1.790 -1.2488  0.5727 -0.7717
  139SOL     OW  415   2.389   0.181   3.017  0.0963  0.3930  0.0023
  139SOL    HW1  416   2.448   0.260   2.986  2.3461  0.4491 -0.2235
  139SOL    HW2  417   2.424   0.132   3.099 -2.1913 -0.0181  0.1166
  140SOL     OW  418   1.441   1.985   2.713  0.2752 -0.2550 -0.3218
  140SOL    HW1  419   1.490   1.895   2.719 -2.1560 -0.6487 -3.0821
  140SOL    HW2  420   1.348   1.971   2.755  0.4414 -0.8884 -0.9849
  141SOL     OW  421   0.951   0.990   2.104  0.1437  0.4968  0.4652
  141SOL    HW1  422   0.882   0.986   2.183 -1.2519 -0.6115  0.1284
  141SOL    HW2  423   0.934   0.914   2.038 -2.4103 -0.3906 -0.3397
  142SOL     OW  424   2.139   2.542   0.134 -0.0278  0.1735 -0.3766
  142SOL    HW1  425   2.093   2.606   0.063 -0.4596  0.3646 -1.6520
  142SOL    HW2  426   2.220   2.491   0.098 -0.4753  1.0323 -0.0567
  143SOL     OW  427   0.822   2.017   3.070 -0.2559 -0.1784 -0.7942
  143SOL    HW1  428   0.871   2.095   3.027 -1.4607  0.4346  0.5440
  143SOL    HW2  429   0.758   2.052   0.032  2.7864 -1.1191 -0.1087
  144SOL     OW  430   1.104   2.615   0.210 -0.0138 -0.0590  0.0701
  144SOL    HW1  431   1.104   2.594   0.104 -4.5915 -0.0439 -4.3026
  144SOL    HW2  432   1.054   2.544   0.263 -1.1089  1.0727  0.9674
  145SOL     OW  433   2.272   1.681   3.024  0.5050 -0.1874  0.4074
  145SOL    HW1  434   2.318   1.763   3.066 -1.0554  2.0950  0.4077
  145SOL    HW2  435   2.174   1.700   3.014  1.0112  2.0847  0.6995
  146SOL     OW  436   2.418   2.825   2.761  0.5839 -0.6457  0.2438
  146SOL    HW1  437   2.345   2.858   2.696  2.2521 -3.0546  0.2085
  146SOL    HW2  438   2.458   2.903   2.807 -0.7174  2.3385  0.1968
  147SOL     OW  439   2.650   1.968   1.082 -0.2581 -0.7698 -0.0910
  147SOL    HW1  440   2.730   2.021   1.045 -1.1215  1.7280 -0.0976
  147SOL    HW2  441   2.676   1.884   1.132  0.3602 -0.6789 -0.1132
  148SOL     OW  442   1.762   3.090   3.069 -0.1427 -0.0348  0.2301
  148SOL    HW1  443   1.723   3.033   2.991 -0.0145  1.3348  0.4533
  148SOL    HW2  444   1.713   3.068   0.048  1.3454  3.7847 -0.6111
  149SOL     OW  445   0.990   1.498   2.814  0.6124 -0.1776  0.1300
  149SOL    HW1  446   1.055   1.485   2.893 -0.2444 -0.5555 -0.5593
  149SOL    HW2  447   0.940   1.407   2.796  0.7979 -0.7113 -1.1472
  150SOL     OW  448   0.683   2.162   0.755 -0.4617  0.3595  0.0154
  150SOL    HW1  449   0.707   2.215   0.841 -0.6532 -0.6610 -0.4594
  150SOL    HW2  450   0.739   2.080   0.744 -0.8075 -0.6584  2.0102
  151SOL     OW  451   0.613   1.808   0.206  0.2074 -0.0813 -0.4096
  151SOL    HW1  452   0.517   1.814   0.248 -0.3164 -1.6060 -1.0366
  151SOL    HW2  453   0.603   1.731   0.143 -1.7709 -4.8501 -0.9718
  152SOL     OW  454   2.691   1.230   0.337  0.5678 -0.5079 -0.4728
  152SOL    HW1  455   2.659   1.204   0.431 -1.7649 -0.5658  1.8646
  152SOL    HW2  456   2.692   1.337   0.338 -0.2376  0.3755 -2.0798
  153SOL     OW  457   2.188   2.321   0.458 -1.1808  0.0141  0.1040
  153SOL    HW1  458   2.120   2.267   0.410  2.2198  2.8207  0.9694
  153SOL    HW2  459   2.142   2.408   0.477 -0.7437 -1.5923  0.5533
  154SOL     OW  460   0.767   3.009   0.610 -0.1240 -0.1948 -0.2000
  154SOL    HW1  461   0.848   3.061   0.587 -2.4482 -1.5681  0.7993
  154SOL    HW2  462   0.792   2.932   0.674 -2.1748 -1.3572  0.8027
  155SOL     OW  463   0.501   1.952   0.838 -0.2546  0.0427  0.4348
  155SOL    HW1  464   0.561   2.033   0.826  0.2427 -1.9634  0.4538
  155SOL    HW2  465   0.409   1.979   0.868  3.4553 -4.1442 -1.6619
  156SOL     OW  466   2.342   2.379   0.034  0.2607  0.2229  0.3986
  156SOL    HW1  467   2.405   2.427   3.077 -0.2209  2.5738 -0.3107
  156SOL    HW2  468   2.398   2.321   0.096  0.9657  0.5241  0.0501
  157SOL     OW  469   0.963   1.975   1.443 -0.1211 -0.0534  0.0741
  157SOL    HW1  470   0.955   2.079   1.451  0.0996  2.0540 -1.3551
  157SOL    HW2  471   0.962   1.939   1.540  1.6592  0.9257 -0.4397
  158SOL     OW  472   1.695   0.503   0.265  0.1866  0.6321  0.0294
  158SOL    HW1  473   1.704   0.555   0.178  0.7014 -0.2002 -1.2167
  158SOL    HW2  474   1.687   0.400   0.242 -0.7039 -1.5188  0.3527
  159SOL     OW  475   1.093   0.615   0.007  0.4623 -0.2435 -0.0595
  159SOL    HW1  476   1.162   0.668   3.062 -1.4573  0.2235  2.6204
  159SOL    HW2  477   1.104   0.624   0.106  1.2430  2.3602  0.3785
  160SOL     OW  478   1.059   1.514   0.154  0.2563  0.2326 -0.0947
  160SOL    HW1  479   1.074   1.608   0.194 -0.6726  0.0661 -0.0355
  160SOL    HW2  480   1.064   1.447   0.232  2.2458 -1.7307  1.3461
  161SOL     OW  481   0.206   2.070   2.542 -0.0368 -0.7661 -0.1381
  161SOL    HW1  482   0.181   2.148   2.604  1.6436 -0.2610  1.4637
  161SOL    HW2  483   0.161   1.986   2.569  1.2919 -0.8295  0.1348
  162SOL     OW  484   0.602   2.508   0.961  0.4549  0.2579 -0.3465
  162SOL    HW1  485   0.620   2.606   0.953 -0.5560  1.5717 -2.1205
  162SOL    HW2  486   0.519   2.495   1.018 -0.1980 -0.2273 -0.6270
  163SOL     OW  487   3.000   0.517   0.073 -0.1635 -0.3225 -0.0405
  163SOL    HW1  488   3.008   0.498   3.080  0.7301  2.5095  1.3702
  163SOL    HW2  489   2.996   0.616   0.085  1.1749 -3.7115  1.3196
  164SOL     OW  490   0.352   0.012   2.796  0.1380  0.5721 -0.5554
  164SOL    HW1  491   0.286   3.043   2.784  0.7607  0.9338  0.7929
  164SOL    HW2  492   0.435   3.087   2.744  1.3893 -0.4467 -2.6612
  165SOL     OW  493   2.166   0.523   1.466 -0.3681 -0.4700 -0.0662
  165SOL    HW1  494   2.167   0.514   1.367 -5.1403 -0.7115 -0.5835
  165SOL    HW2  495   2.206   0.610   1.494  2.0572  0.7133  1.1255
  166SOL     OW  496   2.009   2.834   1.397 -0.3219  0.5169 -1.1909
  166SOL    HW1  497   1.963   2.780   1.324 -1.6504 -1.1110 -1.1265
  166SOL    HW2  498   1.972   2.825   1.491 -1.1580  2.5354  0.3975
  167SOL     OW  499   1.099   0.352   1.937 -0.1683  0.2806  0.0156
  167SOL    HW1  500   1.058   0.363   2.030 -2.1046  1.4805  0.9128
  167SOL    HW2  501   1.200   0.339   1.938 -2.5820  0.2339 -1.0682
  168SOL     OW  502   2.541   0.292   1.975 -0.2000 -0.4521 -0.5686
  168SOL    HW1  503   2.642   0.307   1.974  1.3557  0.0185  0.3284
  168SOL    HW2  504   2.520   0.195   1.973  0.4377  0.8079 -2.4719
  169SOL     OW  505   0.160   1.534   0.150  0.0195 -0.0406  0.4176
  169SOL    HW1  506   0.067   1.529   0.186  2.5448  2.0146 -0.3495
  169SOL    HW2  507   0.197   1.443   0.166  0.2761  0.2941  0.8168
  170SOL     OW  508   0.070   1.532   1.596 -0.4011  0.2072 -0.1799
  170SOL    HW1  509   0.135   1.568   1.527  1.3375 -2.8179  0.3191
  170SOL    HW2  510   0.018   1.453   1.557  1.4705  0.0329 -1.7705
  171SOL     OW  511   0.914   2.456   2.280 -0.1044 -0.0680 -0.0505
  171SOL    HW1  512   0.822   2.423   2.304  0.9157 -0.0082 -0.2798
  171SOL    HW2  513   0.982   2.382   2.257 -0.4517  0.1871  0.4680
  172SOL     OW  514   0.784   2.650   1.595  0.4435 -0.7053 -0.1874
  172SOL    HW1  515   0.813   2.572   1.656 -0.2377  0.9940 -2.6252
  172SOL    HW2  516   0.806   2.635   1.495 -2.4966 -3.0596 -0.2159
  173SOL     OW  517   1.471   2.380   0.907  0.1746  0.2675  0.4721
  173SOL    HW1  518   1.548   2.338   0.957 -0.6603 -1.4150 -0.6075
  173SOL    HW2  519   1.400   2.419   0.968  3.1136 -1.8638 -1.0623
  174SOL     OW  520   1.287   0.039   0.693  0.4514  0.3623 -0.5301
  174SOL    HW1  521   1.357   0.078   0.757 -0.3864  0.2798  1.3356
  174SOL    HW2  522   1.328   0.039   0.600  0.7440 -0.2546 -0.4541
  175SOL     OW  523   1.083   1.298   0.338  0.2147  0.4065  0.4146
  175SOL    HW1  524   1.064   1.322   0.436  0.5895  0.1996  0.7381
  175SOL    HW2  525   1.141   1.215   0.339 -0.6942  1.0059  1.8925
  176SOL     OW  526   1.522   0.759   0.547  0.1930  0.5026 -0.7430
  176SOL    HW1  527   1.612   0.770   0.503 -1.8534 -1.8884 -0.4051
  176SOL    HW2  528   1.496   0.666   0.579 -0.9844 -0.8794  0.1697
  177SOL     OW  529   1.324   0.577   1.345 -0.1127 -0.1437 -0.3552
  177SOL    HW1  530   1.319   0.526   1.432 -1.4070  0.3758 -1.5107
  177SOL    HW2  531   1.312   0.674   1.364 -4.1578 -2.0144 -1.0108
  178SOL     OW  532   2.674   1.596   2.880  0.1093  0.4888  0.4706
  178SOL    HW1  533   2.689   1.570   2.784  0.5376 -0.4286  2.3989
  178SOL    HW2  534   2.576   1.586   2.903 -1.5447 -0.3540 -0.4977
  179SOL     OW  535   0.515   2.511   0.032  0.1172 -0.0038 -0.0181
  179SOL    HW1  536   0.507   2.596   3.086 -0.4890  1.5300 -1.0585
  179SOL    HW2  537   0.611   2.495   0.058 -2.4117  2.5013 -0.2575
  180SOL     OW  538   2.007   1.480   1.952 -0.2827  0.5956 -0.6673
  180SOL    HW1  539   2.062   1.397   1.927 -2.8294  1.0245 -0.5778
  180SOL    HW2  540   1.907   1.460   1.952  1.8316 -0.6927 -0.4091
  181SOL     OW  541   1.141   1.335   2.424  0.2263  0.5640  0.0786
  181SOL    HW1  542   1.182   1.333   2.333 -1.4611  0.1251  0.4948
  181SOL    HW2  543   1.180   1.255   2.476  0.8099  4.0323 -0.6861
  182SOL     OW  544   3.062   0.984   2.303  0.6001  0.3702 -0.6264
  182SOL    HW1  545   0.028   1.051   2.321 -1.5701  1.9483 -1.2859
  182SOL    HW2  546   3.022   0.953   2.390  0.0871  1.6151 -2.2985
  183SOL     OW  547   1.607   0.447   2.271 -0.1833  0.3518  0.0638
  183SOL    HW1  548   1.593   0.459   2.370  0.1775  1.8261 -2.0718
  183SOL    HW2  549   1.699   0.479   2.237  1.4973 -3.5661 -0.0272
  184SOL     OW  550   0.146   0.693   1.537  0.4517 -0.1574  0.2520
  184SOL    HW1  551   0.209   0.622   1.501 -0.6273  2.9192 -2.3072
  184SOL    HW2  552   0.127   0.762   1.464  2.1375 -0.6010  0.8140
  185SOL     OW  553   2.127   1.701   0.940  0.3934 -0.0247  0.2663
  185SOL    HW1  554   2.120   1.773   1.015  1.7235 -1.3152  4.3980
  185SOL    HW2  555   2.220   1.700   0.900 -1.8560  0.4252  0.3229
  186SOL     OW  556   0.620   1.826   2.683 -0.4183  0.2111  0.0845
  186SOL    HW1  557   0.555   1.866   2.753 -2.7292  1.0953  0.8142
  186SOL    HW2  558   0.561   1.809   2.601 -0.6919 -0.9014 -0.1028
  187SOL     OW  559   2.453   1.905   3.021  0.0037  0.3499 -0.2100
  187SOL    HW1  560   2.527   1.972   3.036  1.9774  0.4482  1.4852
  187SOL    HW2  561   2.480   1.822   3.076 -0.5514 -0.1477 -1.4426
  188SOL     OW  562   0.649   2.336   0.533 -0.1935 -0.0976 -0.3554
  188SOL    HW1  563   0.657   2.243   0.573 -0.8632 -0.0430 -2.4981
  188SOL    HW2  564   0.639   2.337   0.433 -1.6533  0.5006  0.1584
  189SOL     OW  565   2.354   0.684   2.891  0.2877  0.3986  0.2329
  189SOL    HW1  566   2.256   0.689   2.913 -0.8961  0.7787 -0.3708
  189SOL    HW2  567   2.388   0.778   2.901 -0.7919  0.9348 -2.1746
  190SOL     OW  568   1.129   1.895   2.182 -0.0420  0.7476  0.0252
  190SOL    HW1  569   1.109   1.986   2.226  1.0100  2.7220 -1.5453
  190SOL    HW2  570   1.217   1.867   2.214 -2.8873  0.3117  2.2115
  191SOL     OW  571   2.216   0.927   1.184  0.2269  0.3394  0.0700
  191SOL    HW1  572   2.310   0.959   1.198  1.2278  0.5490  0.8860
  191SOL    HW2  573   2.179   0.946   1.091  1.1140  0.8928 -0.4126
  192SOL     OW  574   2.074   0.267   1.818 -0.3666  0.4207  0.3029
  192SOL    HW1  575   2.159   0.319   1.810 -1.0266 -0.1706  0.3961
  192SOL    HW2  576   2.057   0.233   1.910  2.1331  0.6766  2.7078
  193SOL     OW  577   0.071   0.529   0.901 -0.2971  0.3725 -0.1224
  193SOL    HW1  578   0.052   0.463   0.976 -2.0328 -1.3875 -0.4457
  193SOL    HW2  579   0.140   0.601   0.933 -0.5173  2.5253  0.0411
  194SOL     OW  580   1.422   2.346   1.634  0.1151 -0.3243 -0.2328
  194SOL    HW1  581   1.450   2.438   1.627 -1.6505 -2.7839  0.0017
  194SOL    HW2  582   1.501   2.285   1.612 -0.3654 -0.5140 -0.0851
  195SOL     OW  583   2.630   0.634   0.743  0.3465  0.1638 -0.2671
  195SOL    HW1  584   2.592   0.551   0.701 -0.2023  0.6338  0.6234
  195SOL    HW2  585   2.734   0.632   0.747  2.6364  2.9492  1.8992
  196SOL     OW  586   1.239   1.897   1.752  0.0563  0.2679  0.3571
  196SOL    HW1  587   1.289   1.969   1.802 -0.0028 -3.0768 -1.4462
  196SOL    HW2  588   1.304   1.850   1.687 -1.6470  0.8846 -0.5951
  197SOL     OW  589   0.155   0.188   2.800 -0.4104 -0.3432 -0.2484
  197SOL    HW1  590   0.221   0.108   2.808 -1.3124 -0.0580 -0.9312
  197SOL    HW2  591   0.188   0.254   2.732  1.1167 -0.7530  0.1172
  198SOL     OW  592   1.148   0.905   0.709  0.2157 -0.3360  0.1016
  198SOL    HW1  593   1.172   0.804   0.714  0.6055 -2.1476  1.9404
  198SOL    HW2  594   1.100   0.931   0.620 -1.0235  2.7032  1.6611
  199SOL     OW  595   2.404   0.780   1.779  0.2582  0.0525 -0.9492
  199SOL    HW1  596   2.432   0.863   1.829 -0.5039 -0.6330 -1.2093
  199SOL    HW2  597   2.486   0.736   1.737  0.4321 -3.2016  1.1879
  200SOL     OW  598   2.420   2.727   2.178 -0.1716 -0.3859 -0.0218
  200SOL    HW1  599   2.429   2.786   2.264 -1.4501  0.5508  1.0441
  200SOL    HW2  600   2.518   2.716   2.143  0.4913  0.7728 -1.0630
  201SOL     OW  601   2.614   0.417   1.603 -0.2427 -0.6108  0.0244
  201SOL    HW1  602   2.616   0.332   1.652 -1.4120  2.5659  1.2659
  201SOL    HW2  603   2.645   0.407   1.509  1.6935  2.7085  0.3164
  202SOL     OW  604   2.184   3.061   0.190  0.3303  0.3210 -0.0657
  202SOL    HW1  605   2.138   3.015   0.266  0.5920 -0.4456 -0.3177
  202SOL    HW2  606   2.134   3.045   0.099 -2.2632  0.7870  0.9817
  203SOL     OW  607   1.091   2.100   2.348 -0.1780  0.0105  0.3825
  203SOL    HW1  608   0.999   2.084   2.385  1.6125 -1.0122 -1.7200
  203SOL    HW2  609   1.160   2.111   2.421 -1.5097  0.1530  0.6674
  204SOL     OW  610   1.202   1.504   2.647  0.0112 -0.3517  0.4475
  204SOL    HW1  611   1.124   1.506   2.715  0.0801  1.5108  0.5267
  204SOL    HW2  612   1.174   1.452   2.567  0.0719  2.1212  0.1573
  205SOL     OW  613   0.819   1.234   1.312 -0.4396 -0.3946 -0.4723
  205SOL    HW1  614   0.872   1.145   1.330  2.3896 -1.3000 -2.4845
  205SOL    HW2  615   0.865   1.294   1.241  1.7578 -1.2386 -0.1330
  206SOL     OW  616   0.501   0.390   2.783 -0.0764  0.0753 -0.0092
  206SOL    HW1  617   0.411   0.411   2.749  1.3801  0.8380  0.7201
  206SOL    HW2  618   0.502   0.314   2.852 -0.2651 -0.7479 -0.4978
  207SOL     OW  619   1.734   2.579   2.534  0.2368 -0.0203 -0.2641
  207SOL    HW1  620   1.770   2.666   2.501  1.1822 -3.3786 -2.0786
  207SOL    HW2  621   1.628   2.585   2.541 -3.1396  2.2152 -1.5924
  208SOL     OW  622   0.806   2.608   1.338 -0.3232 -0.6054 -0.6950
  208SOL    HW1  623   0.864   2.670   1.279 -1.6584  0.0092 -0.5603
  208SOL    HW2  624   0.809   2.518   1.296  0.7692  0.3160  0.2272
  209SOL     OW  625   1.595   1.287   2.547  0.1400 -0.0062 -0.3767
  209SOL    HW1  626   1.600   1.240   2.455 -1.1696  2.7541  1.0069
  209SOL    HW2  627   1.578   1.226   2.627 -0.0599  2.2579 -0.2769
  210SOL     OW  628   1.891   1.105   0.779 -0.0972 -0.3970 -0.5894
  210SOL    HW1  629   1.947   1.048   0.848 -0.8536  1.1952 -0.3481
  210SOL    HW2  630   1.924   1.085   0.683  0.2051 -0.4232 -2.2477
  211SOL     OW  631   0.880   2.504   0.588 -0.2793  0.0146  0.2846
  211SOL    HW1  632   0.795   2.450   0.568  0.0875  0.1543 -1.6699
  211SOL    HW2  633   0.944   2.495   0.507 -0.3681 -1.2773 -0.6927
  212SOL     OW  634   1.862   1.726   0.248 -0.1299 -0.5959  0.2616
  212SOL    HW1  635   1.807   1.782   0.189  1.3107  0.9459 -1.0571
  212SOL    HW2  636   1.918   1.784   0.311  0.0455 -0.8868 -0.2081
  213SOL     OW  637   1.893   0.462   2.880 -0.4156  0.0407 -0.0263
  213SOL    HW1  638   1.908   0.371   2.916  0.0182 -0.8647  0.2832
  213SOL    HW2  639   1.791   0.484   2.883 -1.4142 -0.7144 -0.8245
  214SOL     OW  640   1.196   1.600   2.158 -0.4981  0.1992  0.3031
  214SOL    HW1  641   1.107   1.554   2.142  0.5621  2.0792 -0.9617
  214SOL    HW2  642   1.184   1.699   2.185  0.5847  3.2351 -1.8782
  215SOL     OW  643   0.873   1.804   0.255 -0.2778  0.2758  0.2196
  215SOL    HW1  644   0.916   1.757   0.180 -0.6309  4.5685  1.3083
  215SOL    HW2  645   0.773   1.798   0.244  1.8714 -1.7810 -0.9030
  216SOL     OW  646   0.112   2.727   2.566  0.2610 -0.1182  0.0032
  216SOL    HW1  647   0.051   2.661   2.621 -0.5593  1.5443  0.3345
  216SOL    HW2  648   0.089   2.721   2.467  1.3990  1.3636 -1.9267
  217SOL     OW  649   2.503   0.777   0.934 -0.2818  0.5913  0.0957
  217SOL    HW1  650   2.548   0.716   0.868 -1.0143 -1.2111  0.7506
  217SOL    HW2  651   2.525   0.750   1.029  1.0606 -0.4479  0.5177
  218SOL     OW  652   1.880   1.618   2.241 -0.2048 -0.5868 -0.2400
  218SOL    HW1  653   1.785   1.589   2.213  0.5191  0.7918 -1.2975
  218SOL    HW2  654   1.887   1.717   2.224 -1.6684 -0.5667  0.0445
  219SOL     OW  655   2.088   1.548   0.185 -0.2271  0.2994 -0.0535
  219SOL    HW1  656   2.093   1.549   0.082 -2.4800  2.0160 -1.5109
  219SOL    HW2  657   2.003   1.595   0.210 -3.0851  1.2120 -1.2370
  220SOL     OW  658   1.500   1.146   0.443  0.3479 -0.6407  0.0020
  220SOL    HW1  659   1.424   1.153   0.509  1.6460 -0.3668  2.1747
  220SOL    HW2  660   1.551   1.232   0.449 -3.1314 -1.5199  2.9152
  221SOL     OW  661   0.606   0.588   2.937  0.3445  0.1736 -0.2380
  221SOL    HW1  662   0.581   0.572   3.033  0.7325 -1.9587  0.0642
  221SOL    HW2  663   0.581   0.506   2.877  0.6211 -0.3075 -1.1001
  222SOL     OW  664   1.361   1.388   0.213  0.5327  0.1078 -0.2050
  222SOL    HW1  665   1.384   1.483   0.247  0.2059  2.5548  0.4294
  222SOL    HW2  666   1.303   1.339   0.278  1.6286 -1.8493 -3.3210
  223SOL     OW  667   1.182   0.359   0.225  0.6700 -0.2924 -0.0625
  223SOL    HW1  668   1.191   0.461   0.235 -1.7664 -1.4364  0.3889
  223SOL    HW2  669   1.233   0.319   0.305 -1.4500  0.4435  1.5117
  224SOL     OW  670   2.077   3.073   1.475  0.2854  0.6533  0.1928
  224SOL    HW1  671   2.074   3.070   1.577  1.7289 -0.4439  0.6878
  224SOL    HW2  672   2.051   2.978   1.439 -1.6705 -1.0129  0.7004
  225SOL     OW  673   0.248   2.608   1.162 -0.1602  0.4256  0.1834
  225SOL    HW1  674   0.298   2.604   1.256  2.5845 -0.4100  3.4456
  225SOL    HW2  675   0.271   2.705   1.126 -0.2090  1.2617  1.6492
  226SOL     OW  676   1.205   1.466   2.995 -0.6187  0.2793  0.4267
  226SOL    HW1  677   1.241   1.553   2.961 -0.3559 -1.4349  0.5929
  226SOL    HW2  678   1.181   1.475   3.093 -2.0903 -1.4581 -0.4718
  227SOL     OW  679   1.105   1.447   0.851 -0.2812 -0.4706  0.2671
  227SOL    HW1  680   1.101   1.550   0.863  0.3781 -0.0985 -1.4235
  227SOL    HW2  681   1.061   1.403   0.930 -1.8854 -1.9688 -1.8809
  228SOL     OW  682   0.143   1.618   0.793 -0.0305  0.0425 -0.1383
  228SOL    HW1  683   0.207   1.606   0.720 -1.8358 -0.8879  2.9644
  228SOL    HW2  684   0.073   1.692   0.782 -2.6573 -0.0244  0.3533
  229SOL     OW  685   1.491   0.166   3.049 -0.6300 -0.2521 -0.0504
  229SOL    HW1  686   1.536   0.160   2.956  1.8983  0.7239 -0.9474
  229SOL    HW2  687   1.405   0.220   3.045 -2.4908 -0.5277 -0.4290
  230SOL     OW  688   1.549   0.896   2.743  0.0760  0.0971 -0.2430
  230SOL    HW1  689   1.625   0.888   2.813 -0.8875 -1.3307  1.3263
  230SOL    HW2  690   1.509   0.990   2.758 -1.4684 -1.2266 -1.9313
  231SOL     OW  691   1.226   1.758   2.504 -0.0534 -0.8055  0.6406
  231SOL    HW1  692   1.162   1.812   2.557  3.3412  1.3441 -2.7732
  231SOL    HW2  693   1.254   1.672   2.559  0.3513  1.6179  0.1418
  232SOL     OW  694   2.412   2.172   0.497  0.1653  0.1405 -0.1224
  232SOL    HW1  695   2.328   2.230   0.478 -2.3228 -0.8559  0.2486
  232SOL    HW2  696   2.450   2.126   0.416 -0.7515 -0.1359 -0.4843
  233SOL     OW  697   2.331   2.549   0.354  0.0443  0.1357  0.1151
  233SOL    HW1  698   2.276   2.563   0.270  0.5159  0.6954  0.2390
  233SOL    HW2  699   2.306   2.466   0.408  1.6025  0.1691  0.9799
  234SOL     OW  700   0.806   0.646   2.749  0.1547 -0.9838  0.2646
  234SOL    HW1  701   0.723   0.611   2.794 -1.9127 -0.0577 -1.1956
  234SOL    HW2  702   0.865   0.698   2.817 -2.3014  1.4502  3.4920
  235SOL     OW  703   2.874   0.425   2.695 -0.1604  0.4380  0.2079
  235SOL    HW1  704   2.789   0.365   2.686 -0.9933  0.7272 -1.1416
  235SOL    HW2  705   2.865   0.497   2.621 -0.2587  1.8566  2.5729
  236SOL     OW  706   1.999   2.643   1.823 -0.7969  0.4404  0.2879
  236SOL    HW1  707   1.925   2.574   1.831 -0.8633 -0.2129 -4.1424
  236SOL    HW2  708   2.060   2.637   1.905 -1.4119 -0.0683 -1.2196
  237SOL     OW  709   0.656   1.650   2.064 -0.0972 -0.3648  0.4918
  237SOL    HW1  710   0.719   1.729   2.075 -2.4662 -0.4206 -0.1923
  237SOL    HW2  711   0.672   1.581   2.135  0.3009 -1.4313  0.2498
  238SOL     OW  712   1.586   0.478   2.900  0.0903  0.3621  0.1776
  238SOL    HW1  713   1.506   0.542   2.909  1.4273 -0.7702 -2.0379
  238SOL    HW2  714   1.555   0.383   2.913  1.3382  2.9552 -0.9179
  239SOL     OW  715   0.374   2.224   1.554  0.2251 -0.0828 -0.9742
  239SOL    HW1  716   0.350   2.307   1.610 -2.7444  1.4254 -2.7099
  239SOL    HW2  717   0.446   2.170   1.596 -0.9231  3.7783 -0.6634
  240SOL     OW  718   2.652   2.293   0.597 -0.3391 -0.1874 -0.1388
  240SOL    HW1  719   2.627   2.394   0.591 -1.7552  2.3077 -0.7048
  240SOL    HW2  720   2.567   2.244   0.580 -0.9540 -0.4848  0.3522
  241SOL     OW  721   2.752   1.086   0.875 -0.5807 -0.1090 -0.2081
  241SOL    HW1  722   2.728   1.075   0.975  2.1292 -0.8827  1.9721
  241SOL    HW2  723   2.674   1.087   0.812 -0.6011  1.8571 -0.5482
  242SOL     OW  724   2.250   2.559   2.336  0.0948 -0.1422 -0.2182
  242SOL    HW1  725   2.190   2.508   2.270 -1.1172  1.0655  0.2100
  242SOL    HW2  726   2.313   2.621   2.287  0.5452 -0.7792 -0.9357
  243SOL     OW  727   0.896   2.436   1.758 -0.3086 -0.0246  0.1166
  243SOL    HW1  728   0.941   2.506   1.818  0.2482  4.3156  1.1514
  243SOL    HW2  729   0.975   2.385   1.728 -0.4529  0.2398  0.3378
  244SOL     OW  730   1.562   0.179   2.783  0.4136 -0.1300  0.5342
  244SOL    HW1  731   1.662   0.203   2.761  1.2919  0.1239 -1.5962
  244SOL    HW2  732   1.510   0.145   2.699 -3.1601 -1.0161 -2.7900
  245SOL     OW  733   1.319   0.041   1.188 -0.1317 -0.1095  0.2414
  245SOL    HW1  734   1.236   0.090   1.154 -0.8482 -1.3002 -1.1652
  245SOL    HW2  735   1.299   3.047   1.207 -2.1483  0.7949  1.6599
  246SOL     OW  736   1.590   2.373   0.164 -0.5518 -0.2373 -0.3366
  246SOL    HW1  737   1.686   2.378   0.126 -3.0549  0.3447  1.0997
  246SOL    HW2  738   1.529   2.435   0.114  2.0574 -0.6817 -0.0909
  247SOL     OW  739   1.265   0.567   2.522 -0.5023 -0.4676 -0.3816
  247SOL    HW1  740   1.165   0.547   2.532  0.4387 -0.1509 -0.0854
  247SOL    HW2  741   1.324   0.479   2.523  1.4774 -1.4714  0.6791
  248SOL     OW  742   0.549   2.067   1.700  0.1677 -0.0761  0.2086
  248SOL    HW1  743   0.591   2.149   1.741 -0.6947  0.7012 -2.4907
  248SOL    HW2  744   0.545   1.997   1.775 -2.8628 -1.0493 -0.1701
  249SOL     OW  745   2.204   0.255   0.507 -0.3196 -0.6221 -0.1432
  249SOL    HW1  746   2.275   0.236   0.431  0.0684 -1.3661 -1.2094
  249SOL    HW2  747   2.126   0.189   0.492 -1.7354 -1.7166  2.6451
  250SOL     OW  748   0.147   0.538   0.455 -0.3093 -0.0899  0.0229
  250SOL    HW1  749   0.227   0.519   0.394  1.2221  1.7905  2.8835
  250SOL    HW2  750   0.066   0.486   0.425  1.2509  0.9003 -0.1141
  251SOL     OW  751   1.351   0.616   2.953  1.0317  0.1015  0.5536
  251SOL    HW1  752   1.371   0.686   3.023 -0.5652  0.4799 -2.5425
  251SOL    HW2  753   1.303   0.662   2.872  1.5564  1.4080 -1.9498
  252SOL     OW  754   1.726   1.856   2.087 -0.5460 -0.7303 -0.0966
  252SOL    HW1  755   1.781   1.906   2.013  0.5924  0.1588 -0.1808
  252SOL    HW2  756   1.696   1.764   2.067 -3.2152  2.9453  0.8403
  253SOL     OW  757   2.531   2.500   1.475  0.1200 -0.0117 -0.0251
  253SOL    HW1  758   2.631   2.509   1.478  0.9032 -0.3876 -1.3117
  253SOL    HW2  759   2.505   2.424   1.412 -2.2907  2.3287 -2.9905
  254SOL     OW  760   2.950   1.068   1.276 -0.1431  0.0705  0.1886
  254SOL    HW1  761   2.999   1.117   1.356  2.8012  2.1012  0.3972
  254SOL    HW2  762   2.994   1.083   1.182  1.0889 -0.4374 -0.3009
  255SOL     OW  763   1.238   0.357   0.983  0.1303  0.0675 -0.2619
  255SOL    HW1  764   1.174   0.303   1.046 -0.6659  2.1440  1.0016
  255SOL    HW2  765   1.269   0.444   1.022  0.3821  0.0805 -0.1421
  256SOL     OW  766   1.821   2.289   1.358 -0.3984 -0.5640 -0.1192
  256SOL    HW1  767   1.766   2.207   1.343  1.7855 -0.5493 -2.5459
  256SOL    HW2  768   1.903   2.286   1.293  2.4156 -0.7984 -2.3677
  257SOL     OW  769   0.548   3.033   2.650  0.2283  0.2354  0.2714
  257SOL    HW1  770   0.589   2.942   2.677 -0.1796 -0.6083  0.6667
  257SOL    HW2  771   0.569   3.051   2.551 -1.0384  0.4546  1.8448
  258SOL     OW  772   0.887   2.196   0.290 -0.4851 -0.3927 -0.2577
  258SOL    HW1  773   0.815   2.179   0.220  0.8530  1.1458  0.4248
  258SOL    HW2  774   0.902   2.118   0.351 -2.0886  0.7817  1.5203
  259SOL     OW  775   1.245   0.002   2.759 -0.0902  0.4449  0.4696
  259SOL    HW1  776   1.147   3.086   2.732  1.4980  1.8241  0.0329
  259SOL    HW2  777   1.294   0.039   2.674  2.1727  2.1107 -2.7169
  260SOL     OW  778   1.904   0.742   0.996 -0.3187  0.1513  0.7095
  260SOL    HW1  779   1.941   0.685   1.074 -1.3517  0.5155 -1.2758
  260SOL    HW2  780   1.804   0.750   0.998 -0.8153  0.2752 -1.4664
  261SOL     OW  781   0.519   0.364   2.379  0.5075 -0.6587 -0.2128
  261SOL    HW1  782   0.416   0.356   2.372  1.1873 -1.1867 -0.6919
  261SOL    HW2  783   0.548   0.454   2.344 -0.1329  0.4566  1.7193
  262SOL     OW  784   0.140   2.311   1.936 -0.5558  0.0102 -0.2000
  262SOL    HW1  785   0.202   2.324   2.017 -1.2554 -3.5309  0.2328
  262SOL    HW2  786   0.187   2.347   1.855  0.5331 -1.8883 -0.1871
  263SOL     OW  787   2.987   1.621   2.402  0.7535  0.5337 -0.1103
  263SOL    HW1  788   3.066   1.579   2.357 -0.6264  2.4486  0.1361
  263SOL    HW2  789   2.984   1.719   2.379 -0.9936 -2.1466 -0.5569
  264SOL     OW  790   1.015   1.093   0.874  0.5786 -0.4026  0.0190
  264SOL    HW1  791   0.918   1.125   0.851 -2.6651  0.3107 -2.5858
  264SOL    HW2  792   1.049   1.009   0.825  1.4988 -0.7734 -1.0459
  265SOL     OW  793   1.288   2.526   1.057  0.1788  0.6307 -0.0258
  265SOL    HW1  794   1.266   2.466   1.139 -3.3645 -2.8587  0.4742
  265SOL    HW2  795   1.345   2.606   1.079  1.3385 -1.8382 -2.7527
  266SOL     OW  796   1.585   0.893   1.308 -0.2669  0.6273  0.5790
  266SOL    HW1  797   1.653   0.878   1.381  1.6670 -0.6868 -2.6239
  266SOL    HW2  798   1.625   0.958   1.243  0.3899 -0.5609  2.2735
  267SOL     OW  799   2.447   1.049   3.077 -0.0186 -0.4330  0.3171
  267SOL    HW1  800   2.448   1.033   2.978 -0.9492 -1.3976  0.6650
  267SOL    HW2  801   2.377   0.998   0.020  1.8398  2.7178 -0.1908
  268SOL     OW  802   1.317   0.271   0.430 -0.4174 -0.2648 -0.1645
  268SOL    HW1  803   1.358   0.178   0.441  0.0586 -1.3418  1.1123
  268SOL    HW2  804   1.376   0.345   0.468  0.5850 -0.5320 -2.0462
  269SOL     OW  805   2.833   0.625   2.525 -0.9055 -0.0945  0.3590
  269SOL    HW1  806   2.853   0.656   2.429 -0.1415  1.9106  0.0851
  269SOL    HW2  807   2.733   0.638   2.549 -0.9624 -0.8748  0.9430
  270SOL     OW  808   0.187   1.276   2.698  0.2769 -0.8463 -0.2818
  270SOL    HW1  809   0.245   1.217   2.752 -1.4616 -1.4302 -1.3709
  270SOL    HW2  810   0.121   1.325   2.753 -0.1828 -1.3670 -0.2119
  271SOL     OW  811   2.868   0.969   0.031  0.0588 -0.3996 -0.1974
  271SOL    HW1  812   2.781   1.002   0.082  0.1726  1.6867  0.7461
  271SOL    HW2  813   2.892   1.037   3.071  0.7924 -0.4850 -2.2639
  272SOL     OW  814   2.756   2.549   2.512 -0.0149  0.2283 -0.1995
  272SOL    HW1  815   2.823   2.623   2.496  0.1091 -0.3357  1.5177
  272SOL    HW2  816   2.795   2.460   2.486 -2.0373 -1.7187  1.3137
  273SOL     OW  817   3.030   3.063   2.815 -0.9872 -0.1296  0.0246
  273SOL    HW1  818   3.015   0.038   2.762  0.7847  0.6933 -0.7591
  273SOL    HW2  819   3.024   3.090   2.912 -0.4815 -0.3385  0.0753
  274SOL     OW  820   0.769   2.302   0.960  0.8732 -0.0118  0.4384
  274SOL    HW1  821   0.713   2.389   0.958 -0.3463 -1.0659  0.8979
  274SOL    HW2  822   0.856   2.319   0.905 -1.1491  1.2709  0.1918
  275SOL     OW  823   2.298   0.880   0.435 -0.3060  0.0156  0.8011
  275SOL    HW1  824   2.301   0.804   0.367  0.5316 -1.8385 -1.0443
  275SOL    HW2  825   2.392   0.891   0.473 -2.0261 -1.2479 -0.2956
  276SOL     OW  826   2.831   1.402   1.512  0.4318 -0.2289 -0.2738
  276SOL    HW1  827   2.760   1.356   1.457 -1.4357  1.8417  0.4433
  276SOL    HW2  828   2.785   1.480   1.562 -2.4875  0.6988 -1.2462
  277SOL     OW  829   2.067   0.038   1.094  0.5388 -0.0168 -0.1029
  277SOL    HW1  830   2.001   3.070   1.108  1.1972  2.0485  0.7420
  277SOL    HW2  831   2.099   0.086   1.181  1.8177  0.5740 -2.2844
  278SOL     OW  832   1.477   2.604   2.502 -0.4402  0.5369 -0.0522
  278SOL    HW1  833   1.489   2.546   2.417  2.4506  1.0198  0.7651
  278SOL    HW2  834   1.379   2.638   2.510  3.6250  2.8212 -1.5794
  279SOL     OW  835   1.622   2.109   1.088  0.4129  0.3400  0.9317
  279SOL    HW1  836   1.691   2.056   1.140  0.8896  2.3987 -1.6322
  279SOL    HW2  837   1.660   2.197   1.061  1.1711 -2.9224  0.9889
  280SOL     OW  838   0.348   1.481   0.926  0.2382 -0.3807 -0.4175
  280SOL    HW1  839   0.266   1.537   0.943 -1.5725  1.1367  0.9332
  280SOL    HW2  840   0.405   1.465   1.010 -0.2395  0.6555 -1.1684
  281SOL     OW  841   2.859   1.227   2.696  0.0324 -0.0499 -0.4355
  281SOL    HW1  842   2.768   1.221   2.649  0.6772  1.0372  0.0730
  281SOL    HW2  843   2.887   1.326   2.691  0.5658  1.9723 -0.0025
  282SOL     OW  844   0.363   1.688   0.259  0.0869  0.3822  0.5883
  282SOL    HW1  845   0.278   1.699   0.201  1.1303  0.0806  0.1727
  282SOL    HW2  846   0.391   1.593   0.258 -1.1288 -0.9244 -0.1757
  283SOL     OW  847   1.923   2.385   0.122  0.4094 -0.3323 -0.0696
  283SOL    HW1  848   2.011   2.436   0.126  2.8729  0.7522 -0.5654
  283SOL    HW2  849   1.911   2.344   0.029  0.5655 -0.0188 -3.4740
  284SOL     OW  850   1.154   2.984   0.870 -0.0944  0.1361 -0.8876
  284SOL    HW1  851   1.175   3.062   0.810 -1.6186 -0.6243 -0.3627
  284SOL    HW2  852   1.185   2.898   0.831 -0.9828  1.1285 -0.1903
  285SOL     OW  853   2.251   1.106   2.691  0.1070 -0.0901  0.2764
  285SOL    HW1  854   2.228   1.152   2.603  0.8864 -1.6638  0.0671
  285SOL    HW2  855   2.169   1.082   2.745  0.5658 -1.6548  0.0536
  286SOL     OW  856   2.095   2.608   0.993 -0.2557 -0.1634  0.0200
  286SOL    HW1  857   2.087   2.521   0.939 -0.1104 -2.3055  0.0404
  286SOL    HW2  858   2.141   2.684   0.940  0.4555  0.3308 -3.8281
  287SOL     OW  859   1.423   0.189   0.896 -0.6489 -0.2006  0.3057
  287SOL    HW1  860   1.477   0.136   0.969  1.2193 -3.2028  2.2778
  287SOL    HW2  861   1.347   0.243   0.934 -1.8895 -1.9225 -2.1104
  288SOL     OW  862   0.733   2.444   2.868 -0.2777  0.3503 -0.1598
  288SOL    HW1  863   0.748   2.520   2.804  0.3026 -2.0379  1.7596
  288SOL    HW2  864   0.755   2.475   2.963  0.1731  1.4913 -1.7788
  289SOL     OW  865   3.037   1.454   0.881  0.2339 -0.2196 -0.1131
  289SOL    HW1  866   2.960   1.485   0.940 -0.5863  0.2162 -2.4873
  289SOL    HW2  867   0.008   1.516   0.882  0.6132 -2.0674 -1.3421
  290SOL     OW  868   1.371   1.988   0.976  0.1293  0.1349  0.4556
  290SOL    HW1  869   1.454   2.045   0.997 -2.4053  0.5361  0.4015
  290SOL    HW2  870   1.373   1.905   1.038  0.6564 -2.5351  1.8457
  291SOL     OW  871   1.371   2.931   0.313 -0.1294 -0.2699 -0.0534
  291SOL    HW1  872   1.385   2.832   0.312  1.9532  1.6505  0.1119
  291SOL    HW2  873   1.321   2.967   0.232  1.5926 -1.5634 -1.1992
  292SOL     OW  874   0.472   0.459   2.027  0.3899 -0.2189  0.3964
  292SOL    HW1  875   0.440   0.544   2.072  0.2527 -1.0313  1.6696
  292SOL    HW2  876   0.570   0.438   2.045  0.4396  1.7119 -1.2122
  293SOL     OW  877   2.444   1.977   1.279 -0.0476  0.4687  0.9150
  293SOL    HW1  878   2.517   1.980   1.208  0.4842  1.7366  0.7590
  293SOL    HW2  879   2.457   2.049   1.345  0.2607 -0.4443  0.5002
  294SOL     OW  880   0.957   0.244   2.381  0.4626 -0.2151 -0.5238
  294SOL    HW1  881   0.953   0.270   2.483 -0.6006 -0.0371  3.9092
  294SOL    HW2  882   0.865   0.206   2.351 -0.9022 -1.6058 -0.5564
  295SOL     OW  883   1.676   1.583   1.387 -0.7548  0.0188 -0.7754
  295SOL    HW1  884   1.694   1.485   1.380  0.4160  0.7579 -0.0651
  295SOL    HW2  885   1.711   1.627   1.473 -1.5598  0.2754 -1.4014
  296SOL     OW  886   2.509   1.738   0.117  0.0511 -0.4558  0.6670
  296SOL    HW1  887   2.448   1.692   0.190 -0.0079  0.4577 -0.1908
  296SOL    HW2  888   2.604   1.714   0.142 -2.7483 -0.2386 -0.4320
  297SOL     OW  889   2.651   0.125   0.320  0.2221 -0.2119 -0.5820
  297SOL    HW1  890   2.594   0.087   0.244  0.8417 -1.6358 -1.1909
  297SOL    HW2  891   2.627   0.224   0.340 -0.2823 -0.5324 -0.7833
  298SOL     OW  892   0.835   2.992   2.997  0.3339 -0.0029 -0.1771
  298SOL    HW1  893   0.845   3.015   2.899  1.4497 -1.0783  0.7842
  298SOL    HW2  894   0.844   3.076   3.051 -0.9269 -1.3097 -3.5642
  299SOL     OW  895   0.677   2.337   2.365  0.4729 -1.0003  0.4647
  299SOL    HW1  896   0.738   2.257   2.378 -0.5405 -0.9383  0.1993
  299SOL    HW2  897   0.613   2.355   2.443 -0.4644 -2.2400  1.3322
  300SOL     OW  898   2.788   3.071   2.388 -0.5155  0.3686  0.0704
  300SOL    HW1  899   2.850   0.039   2.412 -0.3110 -1.1445  0.8632
  300SOL    HW2  900   2.832   2.984   2.402 -1.6340  0.3884 -2.5176
  301SOL     OW  901   1.087   0.409   1.589  0.4115  0.1639 -0.2282
  301SOL    HW1  902   1.183   0.390   1.594 -1.4610  1.2844 -0.1332
  301SOL    HW2  903   1.027   0.336   1.632  0.3394  0.2311 -1.8483
  302SOL     OW  904   2.915   2.222   2.976 -0.0111  0.0511  0.1984
  302SOL    HW1  905   2.980   2.233   3.054 -0.6569  1.0569 -0.3194
  302SOL    HW2  906   2.864   2.310   2.970  1.6187 -0.7675  0.0752
  303SOL     OW  907   2.388   2.694   1.603  0.4982  0.4457 -0.4640
  303SOL    HW1  908   2.455   2.623   1.573 -0.4662 -0.7894 -0.0820
  303SOL    HW2  909   2.428   2.784   1.621 -1.4437 -1.6114 -1.0072
  304SOL     OW  910   2.761   0.852   1.534  0.4517 -0.1084 -0.0769
  304SOL    HW1  911   2.709   0.784   1.595 -0.0031 -0.1427 -1.9907
  304SOL    HW2  912   2.841   0.893   1.586  0.2562  0.9780 -0.2954
  305SOL     OW  913   0.860   1.884   0.959 -0.6029  1.0275 -0.2678
  305SOL    HW1  914   0.873   1.941   1.042 -1.8580  0.1932 -0.0695
  305SOL    HW2  915   0.786   1.816   0.975  0.0397 -0.1792  2.1885
  306SOL     OW  916   0.380   1.606   2.104  0.0273 -0.1229  0.2532
  306SOL    HW1  917   0.298   1.665   2.086  1.2971  0.0882 -0.0744
  306SOL    HW2  918   0.467   1.660   2.093 -0.3628 -0.1515 -0.6516
  307SOL     OW  919   0.887   0.260   1.748  0.0681 -0.1793 -0.1005
  307SOL    HW1  920   0.951   0.290   1.822 -2.1331  1.6979 -1.4448
  307SOL    HW2  921   0.912   0.167   1.717  0.2687 -1.5737 -1.0996
  308SOL     OW  922   3.057   1.098   1.031  0.1594  0.5808 -0.1921
  308SOL    HW1  923   0.026   1.030   1.028 -0.1119 -0.0441 -1.4511
  308SOL    HW2  924   3.018   1.098   0.936  0.5395 -0.2874  3.0933
  309SOL     OW  925   2.711   1.113   1.158  0.5207  0.7262 -0.1740
  309SOL    HW1  926   2.679   1.197   1.203 -0.4678 -0.8817  0.2457
  309SOL    HW2  927   2.798   1.085   1.201  0.5700 -1.8528 -1.8183
  310SOL     OW  928   0.140   1.915   2.269 -0.0175  0.9874 -0.5139
  310SOL    HW1  929   0.198   1.869   2.340  0.2267  0.0259 -0.9682
  310SOL    HW2  930   0.138   1.865   2.179 -0.2523  0.1155 -2.4793
  311SOL     OW  931   2.708   2.755   2.155 -0.1840 -0.4482 -0.3026
  311SOL    HW1  932   2.754   2.811   2.083  3.3821 -0.0460 -3.5829
  311SOL    HW2  933   2.752   2.780   2.245  2.1784  0.6840  1.7567
  312SOL     OW  934   2.040   2.096   2.857 -0.3518  0.3108  0.3284
  312SOL    HW1  935   1.967   2.165   2.875 -0.5117  0.1505  1.3177
  312SOL    HW2  936   2.123   2.129   2.901 -0.6038  0.4611 -0.2004
  313SOL     OW  937   2.973   3.053   0.661 -0.0307  0.4203  0.1296
  313SOL    HW1  938   2.880   3.061   0.620  0.8374  1.7871 -0.2460
  313SOL    HW2  939   3.029   0.027   0.629 -2.1117  1.4398  0.1227
  314SOL     OW  940   1.945   0.984   0.068  0.5728  0.5908 -0.1803
  314SOL    HW1  941   1.892   1.061   0.112 -2.3874  2.8181  1.4440
  314SOL    HW2  942   2.017   1.017   0.004 -1.8958  0.2686  0.4133
  315SOL     OW  943   1.466   0.051   2.576  0.5702  0.0312  0.2478
  315SOL    HW1  944   1.457   0.056   2.475 -0.5489 -0.7348  3.9013
  315SOL    HW2  945   1.471   3.063   2.614  0.5982  0.6902  3.0852
  316SOL     OW  946   3.068   1.404   0.441 -0.4414 -0.3291  0.2099
  316SOL    HW1  947   0.039   1.353   0.484 -1.6045  0.8939 -0.0256
  316SOL    HW2  948   3.048   1.374   0.347  2.7119 -0.3752 -0.6364
  317SOL     OW  949   0.524   2.750   2.967 -0.4743  0.2559 -0.4073
  317SOL    HW1  950   0.427   2.773   2.994 -1.6296 -1.2861 -1.2787
  317SOL    HW2  951   0.590   2.796   3.035  4.9223 -3.2227 -1.4452
  318SOL     OW  952   2.542   2.309   1.123  0.4872  0.4843 -0.6372
  318SOL    HW1  953   2.549   2.238   1.050  0.5738 -0.0222  1.7502
  318SOL    HW2  954   2.498   2.390   1.084  1.8432  1.0611  1.4144
  319SOL     OW  955   1.182   1.948   2.816 -0.2674  0.7063  0.3803
  319SOL    HW1  956   1.122   1.901   2.748 -0.7121  0.7891 -1.6350
  319SOL    HW2  957   1.180   1.909   2.911 -2.5489 -0.4459  0.0979
  320SOL     OW  958   0.635   2.080   1.207  0.4563  0.6698  0.1056
  320SOL    HW1  959   0.706   2.122   1.148  0.4467 -0.6080  0.4778
  320SOL    HW2  960   0.663   1.990   1.250  1.8869 -2.5776  0.2764
  321SOL     OW  961   1.264   2.762   2.496 -0.6711 -0.1948 -0.0418
  321SOL    HW1  962   1.248   2.852   2.449  1.0253  1.5157  1.8409
  321SOL    HW2  963   1.179   2.708   2.494 -0.7324  0.3665 -0.2825
  322SOL     OW  964   2.487   1.833   1.909  0.6327 -0.2091  0.3939
  322SOL    HW1  965   2.451   1.846   2.005 -0.2608 -1.0460  0.2955
  322SOL    HW2  966   2.559   1.907   1.887  1.8129 -0.4745 -0.5104
  323SOL     OW  967   3.035   0.791   0.944  0.1729 -0.7475  0.8070
  323SOL    HW1  968   3.044   0.801   0.843  0.2877 -1.3648 -2.3574
  323SOL    HW2  969   3.094   0.717   0.975  3.7293  1.3853  0.7180
  324SOL     OW  970   2.537   3.091   2.505 -0.9110 -0.4671 -0.1070
  324SOL    HW1  971   2.557   0.016   2.601  0.4807  0.7925 -0.1815
  324SOL    HW2  972   2.629   3.098   2.454  1.2099  0.2649 -1.3147
  325SOL     OW  973   0.997   0.617   2.508  0.1640  0.4664 -0.2055
  325SOL    HW1  974   0.923   0.616   2.580  1.9170  0.3401  2.5784
  325SOL    HW2  975   0.959   0.611   2.412  1.1090 -1.2809 -2.4548
  326SOL     OW  976   1.907   2.839   2.088  0.1152  0.2851 -0.0930
  326SOL    HW1  977   1.943   2.892   2.169 -1.9265 -2.9896  0.0106
  326SOL    HW2  978   1.943   2.873   2.001 -2.0501  1.0056  3.3692
  327SOL     OW  979   2.133   0.104   3.029  0.3906 -0.0868  0.5039
  327SOL    HW1  980   2.229   0.121   3.048 -2.6482  1.0062  0.8902
  327SOL    HW2  981   2.107   0.005   3.042 -3.4134 -0.8232 -1.8093
  328SOL     OW  982   0.129   1.389   2.057  0.3559  0.3820  0.1571
  328SOL    HW1  983   0.200   1.318   2.085  0.8495  1.0436  0.8277
  328SOL    HW2  984   0.137   1.469   2.121 -1.6761 -1.9311 -1.2371
  329SOL     OW  985   1.960   0.368   1.604 -0.0867  0.3425  0.1021
  329SOL    HW1  986   1.993   0.315   1.686  1.3419  1.0834 -1.6051
  329SOL    HW2  987   2.031   0.441   1.578  1.2726  1.2893 -0.3698
  330SOL     OW  988   0.275   1.225   0.928  0.0624 -0.0814  0.0449
  330SOL    HW1  989   0.182   1.220   0.892  3.4727 -1.4590  3.0335
  330SOL    HW2  990   0.310   1.324   0.941  0.6630  1.5959  1.6918
  331SOL     OW  991   0.141   1.765   2.051 -0.1387 -0.1391  0.0811
  331SOL    HW1  992   0.048   1.741   2.019 -0.0247 -1.0710  0.9968
  331SOL    HW2  993   0.191   1.813   1.977  1.7433  1.5219 -1.8684
  332SOL     OW  994   2.860   2.804   1.547  0.3727 -0.2112 -0.0812
  332SOL    HW1  995   2.948   2.818   1.495 -1.4965 -4.4235 -3.6599
  332SOL    HW2  996   2.830   2.705   1.534 -0.0727 -3.2066  3.4166
  333SOL     OW  997   2.306   0.043   0.919  0.3144  0.1445  0.0331
  333SOL    HW1  998   2.248   0.053   0.998  1.3631  1.6385 -4.3544
  333SOL    HW2  999   2.398   0.014   0.951 -1.3036 -0.4687  0.9468
  334SOL     OW 1000   0.571   1.780   0.636 -0.5008 -0.4790  0.0737
  334SOL    HW1 1001   0.503   1.717   0.597  3.3279  3.6595 -0.0495
  334SOL    HW2 1002   0.521   1.851   0.689 -0.5801  1.2514 -0.5713
  335SOL     OW 1003   0.064   2.579   2.972  0.3319  0.0486  0.2143
  335SOL    HW1 1004   0.019   2.569   2.880  2.1955  1.9463 -0.1742
  335SOL    HW2 1005   0.128   2.502   2.990 -0.1638  0.6988  0.7574
  336SOL     OW 1006   3.076   2.937   2.319  0.0263  0.2182  0.1914
  336SOL    HW1 1007   3.022   3.015   2.274 -3.5641  0.7449  0.3186
  336SOL    HW2 1008   0.059   2.933   2.279 -0.5726 -1.4695  0.7054
  337SOL     OW 1009   1.870   2.592   2.215  0.1067  0.7527  0.5665
  337SOL    HW1 1010   1.875   2.690   2.186  0.9796  0.6308 -0.4981
  337SOL    HW2 1011   1.775   2.555   2.202 -0.3165 -1.6900  0.7307
  338SOL     OW 1012   0.534   2.971   0.198 -0.3003  0.5540  0.1823
  338SOL    HW1 1013   0.470   3.046   0.165 -0.4120 -1.2210  1.0169
  338SOL    HW2 1014   0.556   2.984   0.297  2.4714  0.2920  0.5534
  339SOL     OW 1015   0.367   1.235   2.076 -0.1314 -0.2875 -0.0525
  339SOL    HW1 1016   0.433   1.301   2.126  0.6299 -0.3287  2.5591
  339SOL    HW2 1017   0.389   1.219   1.978 -2.1447 -1.7465 -0.5964
  340SOL     OW 1018   1.790   2.893   0.531 -0.3531 -0.5991 -0.4253
  340SOL    HW1 1019   1.788   2.796   0.563  1.9770  2.0026 -1.0470
  340SOL    HW2 1020   1.718   2.938   0.583  1.7339 -0.0514  0.5599
  341SOL     OW 1021   2.278   1.141   0.786  0.2309 -0.1883 -0.2776
  341SOL    HW1 1022   2.231   1.066   0.737 -0.7845 -4.0509  1.8271
  341SOL    HW2 1023   2.269   1.126   0.885 -0.2370 -0.8254  2.0095
  342SOL     OW 1024   2.457   0.023   0.119  0.2944 -0.4009 -0.3091
  342SOL    HW1 1025   2.369   3.097   0.154  2.3550  1.0807 -0.9837
  342SOL    HW2 1026   2.528   3.054   0.115  2.5708  1.4631  0.7941
  343SOL     OW 1027   1.344   2.147   1.843 -0.6045  0.1943  0.3206
  343SOL    HW1 1028   1.363   2.209   1.765 -0.1824  1.1351  0.5441
  343SOL    HW2 1029   1.423   2.152   1.902  0.7159 -0.1444  1.0339
  344SOL     OW 1030   2.739   2.890   0.957  0.1511  0.5129 -0.0510
  344SOL    HW1 1031   2.734   2.814   1.022 -1.5665 -3.6658 -1.6514
  344SOL    HW2 1032   2.824   2.948   0.945  0.1225  1.8113 -2.6662
  345SOL     OW 1033   2.650   2.093   3.060 -0.1499  0.0714  0.4040
  345SOL    HW1 1034   2.743   2.119   3.032 -0.6913  1.0934 -0.1189
  345SOL    HW2 1035   2.621   2.124   0.040  0.2536 -0.9024 -2.4328
  346SOL     OW 1036   2.370   2.002   0.719  0.1436 -0.0784 -0.2613
  346SOL    HW1 1037   2.370   2.066   0.638 -0.6950 -0.4872 -1.9844
  346SOL    HW2 1038   2.463   1.974   0.739 -0.9227 -0.3379  0.1474
  347SOL     OW 1039   1.585   1.961   1.501  0.1122  0.3299 -0.2992
  347SOL    HW1 1040   1.609   2.014   1.585 -0.7616  0.1359  0.9770
  347SOL    HW2 1041   1.527   1.881   1.526 -2.4591 -0.1626  1.9491
  348SOL     OW 1042   0.523   1.761   2.429  0.4283  0.6391 -0.3809
  348SOL    HW1 1043   0.528   1.659   2.459 -1.3598 -2.6349  0.9664
  348SOL    HW2 1044   0.613   1.798   2.410 -2.3637  0.5544 -1.8799
  349SOL     OW 1045   2.350   1.422   0.923  0.7437 -0.2409  0.0021
  349SOL    HW1 1046   2.327   1.364   0.843 -0.5836 -1.7279  0.5701
  349SOL    HW2 1047   2.344   1.522   0.904  0.6997  2.6240 -2.2548
  350SOL     OW 1048   3.018   2.393   0.792 -0.2880  0.3068  0.6412
  350SOL    HW1 1049   2.984   2.444   0.875  0.2228 -1.6168  0.1706
  350SOL    HW2 1050   2.948   2.397   0.718  0.3492 -1.9775 -0.0886
  351SOL     OW 1051   0.350   2.928   1.947  0.4864 -0.0427 -0.3089
  351SOL    HW1 1052   0.275   2.992   1.915 -0.2370 -1.9515  0.3314
  351SOL    HW2 1053   0.436   2.966   1.912 -3.0807 -1.0512 -1.3256
  352SOL     OW 1054   0.892   1.416   1.070  0.4136  0.0195  0.2440
  352SOL    HW1 1055   0.870   1.474   1.152  0.5065 -0.0142 -1.4716
  352SOL    HW2 1056   0.827   1.436   0.988 -3.6939  3.6256 -2.4366
  353SOL     OW 1057   1.449   1.511   2.538  0.6601 -0.4033 -0.3680
  353SOL    HW1 1058   1.379   1.496   2.610 -0.3424 -0.8626  0.3747
  353SOL    HW2 1059   1.518   1.440   2.534  1.1046  1.3813 -1.7890
  354SOL     OW 1060   1.571   2.890   1.364 -0.5670  0.7314  0.3529
  354SOL    HW1 1061   1.473   2.886   1.332  0.2311  1.0654 -1.3732
  354SOL    HW2 1062   1.592   2.974   1.414  1.5331  0.1130 -1.7252
  355SOL     OW 1063   2.213   1.375   0.621 -0.4874  0.5487  0.4899
  355SOL    HW1 1064   2.230   1.289   0.667 -1.2386  0.0700 -2.2899
  355SOL    HW2 1065   2.150   1.361   0.541 -2.6586 -0.1010  0.7369
  356SOL     OW 1066   2.598   1.680   2.280 -0.1458  0.5144 -0.8255
  356SOL    HW1 1067   2.529   1.746   2.239 -3.3207 -2.8208  1.2238
  356SOL    HW2 1068   2.657   1.733   2.345  1.7587 -1.3247  1.5217
  357SOL     OW 1069   0.639   3.008   1.422 -0.1297  0.0644  0.1429
  357SOL    HW1 1070   0.608   2.945   1.349  0.8512  0.1601  0.1789
  357SOL    HW2 1071   0.718   3.064   1.387  2.3257 -0.7572  1.2276
  358SOL     OW 1072   2.494   1.379   1.835  0.0173  0.2171 -0.5509
  358SOL    HW1 1073   2.543   1.467   1.864  3.3500  1.2915  1.1889
  358SOL    HW2 1074   2.506   1.298   1.895  0.4157  1.9442  1.3646
  359SOL     OW 1075   2.210   2.928   2.618 -0.3533  0.4031  0.1851
  359SOL    HW1 1076   2.167   2.859   2.562 -0.1605  1.3977  3.1387
  359SOL    HW2 1077   2.166   3.020   2.603 -0.7760  3.2566 -2.0621
  360SOL     OW 1078   0.667   0.394   1.004 -0.3999 -0.5572 -0.1408
  360SOL    HW1 1079   0.746   0.359   0.954  0.1951  2.3707  1.3606
  360SOL    HW2 1080   0.593   0.328   1.008 -2.8155 -1.6598 -0.1242
  361SOL     OW 1081   1.867   2.957   1.119 -0.2704 -0.1748  0.3650
  361SOL    HW1 1082   1.831   3.039   1.166  0.9704 -1.9274 -0.9325
  361SOL    HW2 1083   1.836   2.875   1.167  1.6430  4.2235 -2.7500
  362SOL     OW 1084   1.205   1.092   1.058  0.0796 -0.0629 -0.7016
  362SOL    HW1 1085   1.240   1.184   1.090  0.1299 -0.7877 -1.3227
  362SOL    HW2 1086   1.135   1.098   0.987  0.7661 -0.2177  1.1029
  363SOL     OW 1087   2.301   1.518   2.653  0.2807  0.1694 -0.3888
  363SOL    HW1 1088   2.365   1.525   2.732  0.8716 -0.0854  0.9554
  363SOL    HW2 1089   2.355   1.481   2.574 -1.2737  0.2738  3.0584
  364SOL     OW 1090   0.163   0.007   1.050  0.0292  0.1379 -0.6903
  364SOL    HW1 1091   0.239   0.054   1.105 -0.3760  3.3465  2.1478
  364SOL    HW2 1092   0.075   0.060   1.054 -1.8386  3.1279  0.4757
  365SOL     OW 1093   0.182   2.921   2.715  0.3553 -0.1452  0.1273
  365SOL    HW1 1094   0.162   2.852   2.643  0.7262  3.1192 -0.6216
  365SOL    HW2 1095   0.098   2.969   2.746  0.6193  0.4813 -1.2358
  366SOL     OW 1096   2.229   2.122   3.050 -0.4721 -0.5906  0.2718
  366SOL    HW1 1097   2.315   2.069   3.042  0.5710 -1.1564  1.9832
  366SOL    HW2 1098   2.244   2.213   3.093 -0.1945 -0.2047 -2.9903
  367SOL     OW 1099   2.537   2.474   2.954  0.1099 -0.1546  0.0022
  367SOL    HW1 1100   2.533   2.491   2.853 -1.6091  1.2139  3.7528
  367SOL    HW2 1101   2.623   2.426   2.987  0.2362  0.3245  1.8671
  368SOL     OW 1102   0.192   1.577   1.136  0.4713  0.4124 -0.5462
  368SOL    HW1 1103   0.129   1.655   1.159  0.3813  0.5829 -2.5233
  368SOL    HW2 1104   0.142   1.492   1.151  1.2312  2.9453  0.1849
  369SOL     OW 1105   0.652   2.800   2.742 -0.0578 -0.1415  0.0218
  369SOL    HW1 1106   0.619   2.808   2.839  1.4490  0.1747 -3.5857
  369SOL    HW2 1107   0.748   2.768   2.723 -0.5906  1.4788 -2.0682
  370SOL     OW 1108   3.080   0.809   0.666 -0.1797  0.3094  0.2270
  370SOL    HW1 1109   0.061   0.800   0.621 -3.1850  0.4122 -0.5318
  370SOL    HW2 1110   3.012   0.742   0.634 -0.3765  1.3695  4.2560
  371SOL     OW 1111   1.934   2.156   0.835 -0.0626 -0.7934 -0.2089
  371SOL    HW1 1112   2.035   2.141   0.829 -0.5731 -1.1359 -2.2526
  371SOL    HW2 1113   1.893   2.078   0.886 -0.0187  1.1351  0.0558
  372SOL     OW 1114   0.458   0.900   2.849  0.0826  0.5569  0.1318
  372SOL    HW1 1115   0.556   0.908   2.876  0.9050  1.6434  2.2770
  372SOL    HW2 1116   0.405   0.839   2.915  0.7604  1.1010  0.7240
  373SOL     OW 1117   3.096   1.907   1.015 -0.1463 -0.1788  0.3726
  373SOL    HW1 1118   3.024   1.982   1.021 -2.8939 -0.8837 -1.9968
  373SOL    HW2 1119   3.103   1.852   1.101 -1.2168 -2.2552 -0.1499
  374SOL     OW 1120   0.358   2.740   0.160  0.4290 -0.8222  0.2084
  374SOL    HW1 1121   0.398   2.646   0.161  0.2573  2.5424  3.3069
  374SOL    HW2 1122   0.434   2.807   0.151 -1.8480 -0.6422  1.9451
  375SOL     OW 1123   0.207   0.213   0.329 -0.1437 -0.9039  0.3186
  375SOL    HW1 1124   0.238   0.309   0.318  0.7078 -1.1146 -0.0316
  375SOL    HW2 1125   0.166   0.188   0.240 -1.4113  1.7663  0.4261
  376SOL     OW 1126   0.125   2.562   1.574 -0.3053 -0.3719  0.3066
  376SOL    HW1 1127   0.064   2.569   1.491  2.4518  1.1036 -0.9896
  376SOL    HW2 1128   0.120   2.640   1.640 -0.8355  1.8749  1.5779
  377SOL     OW 1129   1.790   2.516   2.793 -0.4542  0.0250  0.3942
  377SOL    HW1 1130   1.774   2.573   2.878  0.4709  1.3305  0.5817
  377SOL    HW2 1131   1.762   2.556   2.704 -0.7671 -0.1905 -1.2757
  378SOL     OW 1132   0.567   0.294   0.271  0.1913 -0.2448  0.1252
  378SOL    HW1 1133   0.639   0.358   0.227  2.1117  2.0591 -0.2298
  378SOL    HW2 1134   0.615   0.239   0.346  0.0168  0.7845  0.4724
  379SOL     OW 1135   0.549   1.436   0.484  0.9966  0.5007  0.6648
  379SOL    HW1 1136   0.554   1.463   0.383  2.4577  0.5994 -3.2896
  379SOL    HW2 1137   0.645   1.439   0.520 -2.0925  2.1020 -0.3864
  380SOL     OW 1138   0.352   1.709   1.533 -0.1304  0.1452 -0.7379
  380SOL    HW1 1139   0.442   1.750   1.560 -0.3586 -1.0538  0.7867
  380SOL    HW2 1140   0.279   1.778   1.527  0.3705 -0.5014  1.3813
  381SOL     OW 1141   0.486   0.972   2.058 -0.5689  0.5106 -0.2356
  381SOL    HW1 1142   0.561   1.019   2.007  0.4335 -0.1914  0.5873
  381SOL    HW2 1143   0.417   1.039   2.089  1.4628  0.6294 -1.0479
  382SOL     OW 1144   2.175   1.802   0.632 -0.1175 -0.3975  0.5905
  382SOL    HW1 1145   2.221   1.890   0.656 -2.7874  0.5911  0.4485
  382SOL    HW2 1146   2.240   1.725   0.633 -1.1195 -2.7232  0.2086
  383SOL     OW 1147   2.692   1.847   2.460  0.4171 -0.5340 -0.5196
  383SOL    HW1 1148   2.668   1.846   2.558 -2.9908  1.9043  2.1724
  383SOL    HW2 1149   2.786   1.823   2.444 -3.3551 -4.3562 -2.4071
  384SOL     OW 1150   0.385   2.159   2.361  0.2614  0.2041  0.0043
  384SOL    HW1 1151   0.316   2.112   2.425 -1.9810  0.9914 -1.5305
  384SOL    HW2 1152   0.448   2.213   2.418 -1.3276 -2.0377 -2.6401
  385SOL     OW 1153   2.615   1.909   0.810  0.6217  0.3046  0.4563
  385SOL    HW1 1154   2.608   1.917   0.906 -0.3791 -0.0168 -1.8381
  385SOL    HW2 1155   2.682   1.976   0.772  2.1613  3.2774 -0.1014
  386SOL     OW 1156   1.726   1.114   1.197 -0.0925  0.2360 -0.3932
  386SOL    HW1 1157   1.826   1.128   1.216  0.5532 -0.7565 -0.6497
  386SOL    HW2 1158   1.717   1.077   1.104  0.4146  0.6181  1.2764
  387SOL     OW 1159   0.401   1.015   1.726 -0.3800  0.0927  0.0788
  387SOL    HW1 1160   0.395   1.115   1.748  0.8480 -3.7605 -1.3346
  387SOL    HW2 1161   0.406   1.002   1.627  0.3060 -0.6732  1.2024
  388SOL     OW 1162   2.289   1.000   2.125  0.6817 -0.1530 -0.0240
  388SOL    HW1 1163   2.339   1.019   2.210 -3.1351 -2.2893 -0.9355
  388SOL    HW2 1164   2.273   0.904   2.110  2.0923  2.9705  1.0919
  389SOL     OW 1165   1.957   1.156   2.031  0.1989 -0.5452 -0.4093
  389SOL    HW1 1166   2.051   1.178   1.999 -2.6074 -2.0374  0.3790
  389SOL    HW2 1167   1.928   1.218   2.105 -1.7955 -0.8596  0.2182
  390SOL     OW 1168   1.783   2.828   0.202 -0.0202  0.7557  0.0127
  390SOL    HW1 1169   1.832   2.769   0.264 -1.1455  1.9418 -2.3622
  390SOL    HW2 1170   1.692   2.790   0.171 -1.7645 -0.3653 -1.6601
  391SOL     OW 1171   2.069   1.915   1.085  0.2827 -0.5887 -0.0646
  391SOL    HW1 1172   1.977   1.914   1.042  0.9140  2.5356 -0.6280
  391SOL    HW2 1173   2.061   1.947   1.185 -0.8403  1.1778 -0.2104
  392SOL     OW 1174   3.107   2.824   1.400  0.5945  0.2576  0.3985
  392SOL    HW1 1175   3.052   2.854   1.324 -1.9190  0.2231 -1.0068
  392SOL    HW2 1176   0.023   2.729   1.381  1.0569 -1.4983 -1.1022
  393SOL     OW 1177   2.033   1.827   2.938 -0.2217 -0.2761  0.3100
  393SOL    HW1 1178   2.062   1.926   2.915  0.7620  2.2287 -0.3135
  393SOL    HW2 1179   1.934   1.820   2.921  0.8208  1.3454 -1.7912
  394SOL     OW 1180   0.263   0.413   2.666 -0.1538  0.3349 -0.1321
  394SOL    HW1 1181   0.266   0.368   2.576  0.2592 -0.4463  0.9785
  394SOL    HW2 1182   0.223   0.508   2.659 -0.2602  0.7251 -0.3118
  395SOL     OW 1183   0.877   0.695   0.839 -0.0402  0.1164  0.1956
  395SOL    HW1 1184   0.840   0.707   0.937  0.7899  0.1704  0.7422
  395SOL    HW2 1185   0.846   0.770   0.775  1.3492  0.5921 -2.6818
  396SOL     OW 1186   1.062   1.095   0.067  0.6444  0.8860  0.1074
  396SOL    HW1 1187   1.064   0.995   0.076  3.9830  1.0353 -1.1953
  396SOL    HW2 1188   1.116   1.126   0.145  0.5970 -1.5552 -2.6546
  397SOL     OW 1189   0.384   0.727   2.105 -0.2908  0.4195  0.4107
  397SOL    HW1 1190   0.427   0.818   2.091  0.2183  0.3567 -2.4467
  397SOL    HW2 1191   0.297   0.723   2.054  2.0900 -0.6873 -0.8244
  398SOL     OW 1192   0.893   0.196   0.290  1.0369 -0.3628 -0.1074
  398SOL    HW1 1193   0.854   0.145   0.371 -2.0310 -1.9591  1.8693
  398SOL    HW2 1194   0.992   0.203   0.295 -0.5418  0.8083 -1.4390
  399SOL     OW 1195   2.001   3.096   1.744  0.2175 -0.4646 -0.4446
  399SOL    HW1 1196   2.056   0.073   1.759 -2.6657 -0.8882 -1.1496
  399SOL    HW2 1197   1.914   3.098   1.803 -1.1372  0.6543 -0.0779
  400SOL     OW 1198   0.574   1.946   1.977  0.1235  0.3386  0.4279
  400SOL    HW1 1199   0.516   1.956   2.063 -0.3711  0.1977  0.8931
  400SOL    HW2 1200   0.598   1.852   1.961  0.3940 -0.9828  1.0554
  401SOL     OW 1201   0.664   0.744   2.529 -0.5419  0.1321 -0.2042
  401SOL    HW1 1202   0.717   0.701   2.608  2.2753 -2.6472 -0.3124
  401SOL    HW2 1203   0.588   0.797   2.569  0.0660  0.1965 -0.1217
  402SOL     OW 1204   2.970   2.344   1.447 -0.0936 -0.5909 -0.1348
  402SOL    HW1 1205   2.970   2.279   1.526 -0.6395  1.1152  1.9424
  402SOL    HW2 1206   3.016   2.294   1.369  1.6847 -2.0810 -0.6315
  403SOL     OW 1207   0.440   1.276   1.822  0.3785  0.1999 -0.5506
  403SOL    HW1 1208   0.363   1.335   1.793 -0.6306 -0.3288 -1.7402
  403SOL    HW2 1209   0.524   1.303   1.775 -2.2982 -0.3408  0.0663
  404SOL     OW 1210   2.957   2.871   1.798 -0.0080  0.2301  0.1779
  404SOL    HW1 1211   3.050   2.828   1.812  0.1791  0.1716  1.4690
  404SOL    HW2 1212   2.910   2.841   1.711 -0.2910  0.1739  0.4231
  405SOL     OW 1213   0.398   0.410   1.761 -0.2719 -0.5358  0.0535
  405SOL    HW1 1214   0.394   0.408   1.864  0.8216  1.9373  0.6489
  405SOL    HW2 1215   0.488   0.371   1.730  2.1027 -0.8512  0.7869
  406SOL     OW 1216   1.809   2.199   2.576  0.0432 -0.1121  0.3248
  406SOL    HW1 1217   1.819   2.291   2.532  0.5668 -0.3047 -1.0081
  406SOL    HW2 1218   1.898   2.149   2.578  1.6795  0.0662  2.8906
  407SOL     OW 1219   1.421   1.536   2.276 -0.3664  0.1704 -0.3720
  407SOL    HW1 1220   1.330   1.544   2.236  1.2410  0.2785  1.3831
  407SOL    HW2 1221   1.423   1.528   2.381 -0.0713 -0.7252  1.3298
  408SOL     OW 1222   0.689   0.353   2.601 -0.2807 -0.0002 -0.0440
  408SOL    HW1 1223   0.640   0.351   2.515  1.6312 -2.2102 -0.4973
  408SOL    HW2 1224   0.628   0.388   2.674  0.4876 -1.1023  0.3315
  409SOL     OW 1225   0.101   1.981   0.008 -0.2165  0.0959  0.6962
  409SOL    HW1 1226   0.093   1.922   0.093 -0.4469  0.3192 -0.0525
  409SOL    HW2 1227   0.055   2.073   0.022  0.3552 -1.5145 -0.1766
  410SOL     OW 1228   2.714   1.523   0.365  0.3163 -0.5488  0.1029
  410SOL    HW1 1229   2.803   1.532   0.418  0.1835  1.0382 -0.6395
  410SOL    HW2 1230   2.721   1.577   0.278 -1.2774  3.2853 -0.1162
  411SOL     OW 1231   2.631   0.537   1.080 -0.1885  0.3566  0.7487
  411SOL    HW1 1232   2.726   0.569   1.054  0.6119 -0.3471  0.6837
  411SOL    HW2 1233   2.604   0.459   1.025  1.4059 -1.7413 -0.9671
  412SOL     OW 1234   1.163   1.030   1.324  0.7624 -0.4410 -0.0906
  412SOL    HW1 1235   1.180   1.065   1.231  0.9109 -0.9826  1.0674
  412SOL    HW2 1236   1.233   0.963   1.359 -1.4817 -0.5732  0.9296
  413SOL     OW 1237   0.627   2.814   1.220 -0.8166 -0.3764  0.3694
  413SOL    HW1 1238   0.662   2.739   1.274  0.4038 -0.3735  1.6506
  413SOL    HW2 1239   0.639   2.798   1.122 -0.5453  0.3965  4.0687
  414SOL     OW 1240   2.987   1.512   2.709 -0.2082 -0.1935  0.2283
  414SOL    HW1 1241   2.974   1.543   2.613 -0.3835  0.5932  0.9346
  414SOL    HW2 1242   2.994   1.596   2.769  0.5630 -0.2623  2.0954
  415SOL     OW 1243   0.266   2.195   2.895 -0.0992  0.0819  0.2161
  415SOL    HW1 1244   0.280   2.100   2.916  0.0482  0.3268  1.0457
  415SOL    HW2 1245   0.211   2.213   2.812  0.6344  2.3242 -0.0522
  416SOL     OW 1246   1.449   0.042   0.461  0.6971 -0.9024 -0.0654
  416SOL    HW1 1247   1.543   0.076   0.428  1.2333  3.3347  0.3873
  416SOL    HW2 1248   1.420   3.078   0.396 -3.6363  1.0377 -2.6508
  417SOL     OW 1249   0.413   1.033   0.746  0.1274  0.1982 -0.2633
  417SOL    HW1 1250   0.484   1.001   0.804 -2.9518 -0.5355 -0.7683
  417SOL    HW2 1251   0.368   1.112   0.794 -0.5192  1.1915 -0.7155
  418SOL     OW 1252   2.411   1.059   1.910 -0.2987  0.4898 -0.3622
  418SOL    HW1 1253   2.334   1.065   1.836 -1.9203 -1.5899  0.3706
  418SOL    HW2 1254   2.358   1.031   1.996  1.0978 -1.3125 -0.7953
  419SOL     OW 1255   3.037   0.334   0.725  0.2137  0.1798  0.4056
  419SOL    HW1 1256   3.081   0.248   0.690  1.9366 -2.2445  1.2878
  419SOL    HW2 1257   3.103   0.391   0.779  0.2559  1.8995  1.9574
  420SOL     OW 1258   0.367   1.570   0.621  0.0242  0.4620 -0.3281
  420SOL    HW1 1259   0.430   1.524   0.559  0.6097  0.5003 -2.4397
  420SOL    HW2 1260   0.384   1.544   0.718  0.2837 -0.9718  1.5296
  421SOL     OW 1261   0.992   2.378   0.815 -0.4944 -0.2075 -0.0268
  421SOL    HW1 1262   0.969   2.430   0.730 -2.3096  1.3691 -1.1620
  421SOL    HW2 1263   1.077   2.326   0.794 -1.1295 -0.4885 -1.1075
  422SOL     OW 1264   0.118   0.915   1.363 -0.4388 -0.7577  0.2763
  422SOL    HW1 1265   0.051   0.988   1.388  1.5138 -1.5055  1.0901
  422SOL    HW2 1266   0.133   0.909   1.261  1.8159 -1.4028 -0.7357
  423SOL     OW 1267   1.167   1.272   1.424  0.2189 -0.0944 -0.1679
  423SOL    HW1 1268   1.159   1.171   1.414  0.0890 -0.1414 -0.5497
  423SOL    HW2 1269   1.186   1.309   1.332 -2.3552 -0.0032 -0.5029
  424SOL     OW 1270   2.087   1.098   2.947 -0.2011  0.3182  0.3560
  424SOL    HW1 1271   2.149   1.142   3.011 -1.1474  1.2251 -0.2641
  424SOL    HW2 1272   2.051   1.167   2.884  0.9088  0.1432 -0.8034
  425SOL     OW 1273   0.078   0.473   1.932 -0.2260 -0.5366  0.1311
  425SOL    HW1 1274   0.122   0.566   1.933 -0.2052 -2.2998 -0.0620
  425SOL    HW2 1275   3.088   0.472   1.947 -2.7215 -0.0945 -0.1005
  426SOL     OW 1276   2.728   2.734   2.925  0.0859 -0.4611  0.0159
  426SOL    HW1 1277   2.760   2.743   3.019  0.0823  0.6350 -0.0201
  426SOL    HW2 1278   2.668   2.657   2.904 -0.1746 -1.2552 -1.0131
  427SOL     OW 1279   0.872   0.658   2.245  0.0072  0.1839 -0.1040
  427SOL    HW1 1280   0.778   0.628   2.272  0.6428  1.5562  0.1116
  427SOL    HW2 1281   0.874   0.714   2.159 -0.4504 -1.7632  1.9780
  428SOL     OW 1282   2.300   0.999   1.465 -0.7019 -0.1282  0.6503
  428SOL    HW1 1283   2.402   0.984   1.467  0.6059  0.1858 -0.3686
  428SOL    HW2 1284   2.268   1.084   1.420 -4.1694  0.2042 -0.2511
  429SOL     OW 1285   2.593   2.539   0.331  0.3009 -0.5591  0.3082
  429SOL    HW1 1286   2.630   2.593   0.408 -0.5896  0.1083 -2.8360
  429SOL    HW2 1287   2.492   2.516   0.343  0.0623 -0.3612  0.5554
  430SOL     OW 1288   1.682   1.838   2.449 -0.1881  0.0214  0.0053
  430SOL    HW1 1289   1.625   1.782   2.388  1.9404  0.5711  1.2139
  430SOL    HW2 1290   1.626   1.854   2.537 -0.7287 -0.4901 -0.3016
  431SOL     OW 1291   3.083   1.785   1.259 -0.0120  0.0483  0.0086
  431SOL    HW1 1292   3.029   1.699   1.274  0.4167  2.0481 -2.0530
  431SOL    HW2 1293   0.026   1.812   1.345  1.7477 -1.0631  3.0685
  432SOL     OW 1294   1.495   2.895   2.589 -0.4370  0.4975  0.3557
  432SOL    HW1 1295   1.416   2.846   2.548 -0.0786  1.1366 -0.2775
  432SOL    HW2 1296   1.585   2.866   2.548  3.9926  0.2997  0.6315
  433SOL     OW 1297   1.751   3.075   2.482 -0.1453  0.2398 -0.2562
  433SOL    HW1 1298   1.782   2.974   2.488 -1.5348  0.8352  1.0689
  433SOL    HW2 1299   1.656   3.087   2.457  3.3010 -0.8572  2.1198
  434SOL     OW 1300   0.386   2.639   2.102 -0.3691 -0.0312  0.5315
  434SOL    HW1 1301   0.293   2.606   2.123  0.7004  2.2680  0.9077
  434SOL    HW2 1302   0.396   2.655   2.002 -0.0899 -0.3077  0.1375
  435SOL     OW 1303   2.984   2.603   0.015  0.1076  0.1951  0.1161
  435SOL    HW1 1304   3.072   2.612   3.066  0.6255  0.1592 -0.0926
  435SOL    HW2 1305   3.002   2.627   0.110 -0.2237  0.0790  0.5717
  436SOL     OW 1306   0.719   0.615   1.871 -0.1027 -0.6055  0.1419
  436SOL    HW1 1307   0.703   0.557   1.792  2.9497 -0.9984 -1.3191
  436SOL    HW2 1308   0.641   0.683   1.870  0.8593  2.0104 -2.7241
  437SOL     OW 1309   0.526   2.610   2.590 -0.1382 -0.0374  0.0640
  437SOL    HW1 1310   0.528   2.649   2.493  1.0191 -0.5098 -2.9821
  437SOL    HW2 1311   0.562   2.683   2.650 -1.1019  1.0742 -1.6669
  438SOL     OW 1312   0.598   1.749   1.666 -0.3329  0.2945  0.0576
  438SOL    HW1 1313   0.692   1.702   1.674 -1.1769 -1.5142 -0.6193
  438SOL    HW2 1314   0.533   1.702   1.728  2.1820  1.7193 -2.6327
  439SOL     OW 1315   2.464   0.952   2.824  0.1433  0.4398 -0.1820
  439SOL    HW1 1316   2.538   0.947   2.756 -1.6826 -3.6051 -2.1049
  439SOL    HW2 1317   2.379   0.966   2.769 -0.9566  2.3700 -0.7224
  440SOL     OW 1318   0.573   0.716   0.074  0.4936  0.0904  0.0679
  440SOL    HW1 1319   0.584   0.706   0.173  2.0612 -0.6872 -0.8309
  440SOL    HW2 1320   0.638   0.784   0.036  1.3840 -0.2050  2.6418
  441SOL     OW 1321   1.147   2.216   1.459 -0.0180 -0.4851  0.4697
  441SOL    HW1 1322   1.188   2.286   1.394  3.8360  1.5472 -0.8180
  441SOL    HW2 1323   1.194   2.216   1.550 -0.8878  0.6620 -0.4172
  442SOL     OW 1324   2.811   1.726   0.768  0.1771 -0.1035 -0.4579
  442SOL    HW1 1325   2.725   1.780   0.777 -0.4985  0.1702  0.1417
  442SOL    HW2 1326   2.832   1.688   0.861 -0.0983 -0.3506 -0.3852
  443SOL     OW 1327   2.726   2.106   2.522  0.3527 -0.8627  0.0138
  443SOL    HW1 1328   2.710   2.014   2.500  0.7630  1.9399 -0.3247
  443SOL    HW2 1329   2.703   2.123   2.621  0.1374 -2.6662 -0.3571
  444SOL     OW 1330   1.518   1.415   3.094  0.4483 -0.0707  0.0527
  444SOL    HW1 1331   1.514   1.515   3.063 -2.5386  2.7018  1.8739
  444SOL    HW2 1332   1.469   1.406   0.074 -0.1230  5.7314  3.4003
  445SOL     OW 1333   2.591   0.013   1.932  0.2711  0.0661 -0.4235
  445SOL    HW1 1334   2.627   0.049   1.842  3.9971 -0.8390  0.2980
  445SOL    HW2 1335   2.672   3.073   1.971  4.3186  1.5489 -0.3635
  446SOL     OW 1336   0.379   1.102   1.160 -0.1137  0.0651 -0.2308
  446SOL    HW1 1337   0.482   1.086   1.153  2.4114 -1.4057 -0.8170
  446SOL    HW2 1338   0.341   1.132   1.071  0.8123 -2.2546  0.9178
  447SOL     OW 1339   1.077   1.709   0.913  0.8397  0.3199 -0.5129
  447SOL    HW1 1340   0.997   1.773   0.936  1.6650 -0.0005  0.9349
  447SOL    HW2 1341   1.137   1.750   0.845 -1.8907  0.6795 -0.0913
  448SOL     OW 1342   1.348   0.843   1.664  0.1261 -0.0705  0.1421
  448SOL    HW1 1343   1.365   0.892   1.752 -1.2608  0.8320  3.9711
  448SOL    HW2 1344   1.260   0.786   1.664  2.7490 -2.8229  1.9072
  449SOL     OW 1345   2.694   2.238   2.130  0.0456 -0.0718 -0.5737
  449SOL    HW1 1346   2.679   2.331   2.164  0.2026  0.9692  1.4782
  449SOL    HW2 1347   2.790   2.205   2.138 -2.5494 -2.9460 -0.2381
  450SOL     OW 1348   3.028   1.945   1.671 -0.2349 -0.1744 -0.2398
  450SOL    HW1 1349   2.954   2.009   1.645  0.8698 -2.2537  1.3790
  450SOL    HW2 1350   3.086   1.983   1.747  1.3847 -1.1881  2.4344
  451SOL     OW 1351   2.071   0.935   0.927  0.0199  0.4964 -0.5309
  451SOL    HW1 1352   2.007   0.862   0.957 -0.0841  1.6223  0.8888
  451SOL    HW2 1353   2.118   0.915   0.840 -0.5764  0.8455 -1.6170
  452SOL     OW 1354   0.687   1.468   0.889  0.4368  0.2158 -0.7793
  452SOL    HW1 1355   0.666   1.569   0.905 -0.4813 -0.8844  2.6216
  452SOL    HW2 1356   0.616   1.412   0.942 -0.5772  0.1605 -0.3593
  453SOL     OW 1357   1.155   2.163   1.003 -0.2677 -0.0850  0.3376
  453SOL    HW1 1358   1.140   2.225   0.924 -1.4526  1.7734  0.7182
  453SOL    HW2 1359   1.243   2.116   0.991 -0.7733  1.1537 -1.9713
  454SOL     OW 1360   0.466   1.390   2.904  0.2047  0.1414 -0.0380
  454SOL    HW1 1361   0.546   1.398   2.968 -0.4856  1.4756 -0.4109
  454SOL    HW2 1362   0.393   1.457   2.936 -2.0667  0.9542 -2.5275
  455SOL     OW 1363   1.536   0.832   0.811 -0.0404  0.2775 -0.2185
  455SOL    HW1 1364   1.548   0.730   0.833 -0.6913  0.2261  1.2804
  455SOL    HW2 1365   1.553   0.851   0.714 -0.8959 -1.6810 -3.2174
  456SOL     OW 1366   2.223   2.374   0.864 -0.0741  0.0219 -0.8421
  456SOL    HW1 1367   2.204   2.273   0.877 -0.4388  0.0342  1.3610
  456SOL    HW2 1368   2.245   2.407   0.770  2.9773 -0.7481  1.9136
  457SOL     OW 1369   1.651   2.945   2.878  0.0479 -0.0865  0.2556
  457SOL    HW1 1370   1.550   2.926   2.863  0.7289  1.6790  0.2190
  457SOL    HW2 1371   1.692   2.965   2.792 -1.5240 -0.0875  0.8591
  458SOL     OW 1372   2.354   0.470   0.313 -0.1098 -0.7005 -0.3700
  458SOL    HW1 1373   2.298   0.409   0.253  3.5228 -0.2788 -2.1930
  458SOL    HW2 1374   2.300   0.518   0.385  1.2276 -1.3886 -0.7378
  459SOL     OW 1375   3.064   0.803   2.101 -0.3851 -0.1741 -0.0497
  459SOL    HW1 1376   3.070   0.878   2.171 -1.5891  0.5328 -0.7648
  459SOL    HW2 1377   2.992   0.819   2.036  0.4997 -1.7198  2.7704
  460SOL     OW 1378   0.332   0.968   0.115  0.0541 -0.0710  0.6409
  460SOL    HW1 1379   0.391   0.930   0.191  0.9585 -1.9908  3.2325
  460SOL    HW2 1380   0.261   0.896   0.082 -2.9323  0.0634 -0.4357
  461SOL     OW 1381   2.860   2.795   0.652  0.1725  0.0898  0.0501
  461SOL    HW1 1382   2.930   2.869   0.650 -0.5376 -1.3518  0.1173
  461SOL    HW2 1383   2.774   2.834   0.684  4.1623  2.3886 -1.1977
  462SOL     OW 1384   0.105   0.137   1.623 -0.1323  0.1655 -0.1871
  462SOL    HW1 1385   0.119   0.238   1.612  1.6507  0.5325  0.3669
  462SOL    HW2 1386   0.144   0.086   1.542 -0.6338  0.1349  0.4761
  463SOL     OW 1387   2.053   2.405   2.175  0.1952 -0.1011 -0.3914
  463SOL    HW1 1388   2.003   2.313   2.181 -1.6127 -3.7795 -0.5012
  463SOL    HW2 1389   1.992   2.486   2.165 -1.6698  3.3292  0.5864
  464SOL     OW 1390   0.856   0.025   1.304 -0.0268  0.0356  0.9248
  464SOL    HW1 1391   0.831   0.058   1.210  2.5756  1.9499 -0.8619
  464SOL    HW2 1392   0.886   0.101   1.362 -0.9166  2.5990 -2.1971
  465SOL     OW 1393   0.594   3.038   1.881 -0.2195 -0.0651  0.6320
  465SOL    HW1 1394   0.641   2.989   1.803  0.0313  2.7623 -0.0733
  465SOL    HW2 1395   0.655   0.004   1.920 -0.1571 -2.2733  0.3972
  466SOL     OW 1396   1.212   2.317   2.223  0.4200 -0.0201 -0.3023
  466SOL    HW1 1397   1.171   2.236   2.269 -0.8256 -0.3759 -1.3880
  466SOL    HW2 1398   1.186   2.313   2.125  0.6904 -2.9704  1.0458
  467SOL     OW 1399   0.392   1.958   1.188  0.2182  0.5176 -0.2778
  467SOL    HW1 1400   0.346   1.935   1.099 -0.8935 -0.8083  0.3140
  467SOL    HW2 1401   0.488   1.997   1.189  4.0987  1.3122 -0.9536
  468SOL     OW 1402   2.703   1.544   2.614  0.1176 -0.5186 -0.0911
  468SOL    HW1 1403   2.753   1.629   2.596 -0.7328 -0.1756  2.8399
  468SOL    HW2 1404   2.635   1.526   2.542  1.1979 -3.6471 -4.4403
  469SOL     OW 1405   1.218   2.063   0.525 -0.1289 -0.1230 -0.5165
  469SOL    HW1 1406   1.303   2.089   0.471  1.6055  2.8142  0.0828
  469SOL    HW2 1407   1.141   2.027   0.473  2.3303 -3.3890  0.5789
  470SOL     OW 1408   2.603   1.319   1.303 -0.4075  0.3497 -0.2572
  470SOL    HW1 1409   2.556   1.403   1.267  1.6572  1.9396 -0.6494
  470SOL    HW2 1410   2.563   1.295   1.393 -0.3956 -0.5738 -1.2321
  471SOL     OW 1411   0.264   2.364   3.103 -0.0187 -0.1701  0.6838
  471SOL    HW1 1412   0.277   2.297   3.028 -0.1948  1.8738 -0.5050
  471SOL    HW2 1413   0.352   2.390   0.049  1.0293 -0.0266  1.3228
  472SOL     OW 1414   2.871   1.946   2.071  0.6258  0.4118 -0.5352
  472SOL    HW1 1415   2.931   1.868   2.055 -1.4939  0.9529  1.2442
  472SOL    HW2 1416   2.786   1.934   2.021  0.0755 -1.6236  1.0351
  473SOL     OW 1417   0.856   2.754   0.713  0.3692  0.0477 -0.4704
  473SOL    HW1 1418   0.856   2.670   0.656 -0.7922 -0.3818  1.1818
  473SOL    HW2 1419   0.940   2.761   0.768 -1.3208  0.8933  1.1612
  474SOL     OW 1420   3.023   0.145   1.066 -0.1647  0.0612 -0.2661
  474SOL    HW1 1421   2.938   0.203   1.053 -3.0934 -0.7274 -0.0816
  474SOL    HW2 1422   3.003   0.093   1.150  1.6885  1.4670  0.1399
  475SOL     OW 1423   1.786   3.088   1.916 -0.3687  0.0790  0.1472
  475SOL    HW1 1424   1.706   3.029   1.901  1.4186 -0.9202  0.5445
  475SOL    HW2 1425   1.811   0.000   2.012  0.2294  0.5219 -1.7390
  476SOL     OW 1426   0.558   0.671   0.894 -0.4793  0.1353  0.0257
  476SOL    HW1 1427   0.562   0.675   0.792  0.7713  2.7953  0.7732
  476SOL    HW2 1428   0.600   0.582   0.927  2.9786 -0.5726  2.3864
  477SOL     OW 1429   0.837   2.342   1.230 -0.0379  0.6681 -0.3743
  477SOL    HW1 1430   0.787   2.343   1.140 -1.1595 -1.0894 -1.7421
  477SOL    HW2 1431   0.893   2.255   1.242  1.4332 -2.3228  0.1981
  478SOL     OW 1432   0.206   2.491   2.369  0.3185  0.1970  0.1310
  478SOL    HW1 1433   0.250   2.470   2.460 -0.1591  0.8189  1.0236
  478SOL    HW2 1434   0.150   2.412   2.338  0.4403  1.2664  1.1647
  479SOL     OW 1435   0.164   0.892   1.723  0.2686 -0.3537  0.5894
  479SOL    HW1 1436   0.251   0.938   1.714 -0.4567 -1.9949 -1.9716
  479SOL    HW2 1437   0.151   0.832   1.643  0.2143 -0.9854  2.3679
  480SOL     OW 1438   2.779   2.430   3.095 -0.3808 -0.1680 -0.4805
  480SOL    HW1 1439   2.756   2.386   0.075  0.0541 -2.1812 -0.6493
  480SOL    HW2 1440   2.852   2.496   3.105  0.7197  0.2749  0.1432
  481SOL     OW 1441   1.553   2.015   2.203 -0.3992  0.4501  0.1846
  481SOL    HW1 1442   1.626   1.953   2.157  1.2178 -0.4779 -1.0673
  481SOL    HW2 1443   1.477   1.962   2.241 -0.1271  4.0770 -2.5167
  482SOL     OW 1444   1.591   2.213   2.760  0.3267  0.1667 -0.1180
  482SOL    HW1 1445   1.523   2.151   2.711 -1.6247 -2.3746  0.3013
  482SOL    HW2 1446   1.676   2.227   2.708 -3.3081 -0.1834  0.8600
  483SOL     OW 1447   0.819   2.045   2.675  0.2425  0.3979 -0.0969
  483SOL    HW1 1448   0.742   2.005   2.726  0.6364  1.2872 -2.0734
  483SOL    HW2 1449   0.852   2.138   2.710  0.9518  3.0222  2.3340
  484SOL     OW 1450   0.031   0.386   1.120 -0.0988  0.6576 -0.2422
  484SOL    HW1 1451   0.006   0.427   1.212  1.3631  3.0520  1.1490
  484SOL    HW2 1452   3.105   0.291   1.102 -2.7035 -0.5674 -0.0753
  485SOL     OW 1453   2.128   0.622   0.464  0.1164 -0.3115 -0.5085
  485SOL    HW1 1454   2.070   0.667   0.535 -1.0518  0.1604  2.3970
  485SOL    HW2 1455   2.076   0.608   0.375 -2.9958 -0.0604 -3.3172
  486SOL     OW 1456   1.832   2.833   2.485  0.1224  0.1647  0.2498
  486SOL    HW1 1457   1.899   2.817   2.415  0.4529 -1.8776  0.7939
  486SOL    HW2 1458   1.884   2.830   2.568  1.3506  0.5251 -1.2044
  487SOL     OW 1459   1.557   1.471   0.758 -0.6600 -0.2622 -0.1417
  487SOL    HW1 1460   1.650   1.425   0.754  2.4722 -0.1860  0.0059
  487SOL    HW2 1461   1.555   1.533   0.842 -3.2859 -2.9016 -0.6326
  488SOL     OW 1462   2.396   1.334   0.227  0.1148  0.4667  0.1504
  488SOL    HW1 1463   2.341   1.250   0.254  0.1325  1.4444 -1.1961
  488SOL    HW2 1464   2.456   1.316   0.142 -1.2005 -2.8742 -0.9473
  489SOL     OW 1465   2.370   0.224   0.744  0.4728  0.3375 -0.0439
  489SOL    HW1 1466   2.303   0.265   0.679  2.0317 -0.6459  1.1880
  489SOL    HW2 1467   2.323   0.155   0.804 -1.2927 -1.0920 -1.2745
  490SOL     OW 1468   1.544   2.756   0.086 -0.1153  0.3621 -0.0049
  490SOL    HW1 1469   1.486   2.711   0.157  1.2075 -1.0877  0.0019
  490SOL    HW2 1470   1.492   2.828   0.036  0.1944 -1.4254  0.2260
  491SOL     OW 1471   0.785   0.907   0.680 -0.6600 -0.3422 -0.7664
  491SOL    HW1 1472   0.776   0.998   0.731 -0.5031  1.3924 -0.2900
  491SOL    HW2 1473   0.860   0.916   0.616  1.3085 -1.5374  1.5350
  492SOL     OW 1474   1.684   0.238   0.140  0.0490  0.0138 -0.0237
  492SOL    HW1 1475   1.698   0.144   0.180  1.4909  1.3908 -0.1066
  492SOL    HW2 1476   1.598   0.237   0.081 -1.5151 -0.7631 -0.6937
  493SOL     OW 1477   1.843   2.299   2.971  0.4761  0.1130 -0.1537
  493SOL    HW1 1478   1.770   2.228   2.992 -2.6309  1.4238  1.1390
  493SOL    HW2 1479   1.810   2.362   2.898 -1.1392 -0.4926  2.1810
  494SOL     OW 1480   0.490   1.074   0.484  0.0906 -0.5732  0.0381
  494SOL    HW1 1481   0.486   1.040   0.581 -4.2775 -1.6754  0.2895
  494SOL    HW2 1482   0.405   1.130   0.468 -1.3161  0.7145  0.1326
  495SOL     OW 1483   2.923   2.963   1.222  0.4619 -0.0088 -0.4476
  495SOL    HW1 1484   2.904   3.029   1.295 -1.6997 -1.4723 -0.4593
  495SOL    HW2 1485   2.862   2.882   1.231  2.2678  1.6075  0.5243
  496SOL     OW 1486   2.374   0.148   1.742  0.1957  0.5803 -0.1191
  496SOL    HW1 1487   2.425   0.124   1.825  0.3883  2.6878  0.0898
  496SOL    HW2 1488   2.348   0.247   1.739 -1.4029  0.4377  0.1681
  497SOL     OW 1489   1.847   1.664   2.627  0.1502  0.3540  0.3592
  497SOL    HW1 1490   1.785   1.607   2.561 -1.3247  0.5264 -0.2904
  497SOL    HW2 1491   1.881   1.752   2.593 -0.3877 -0.0780 -1.3789
  498SOL     OW 1492   0.812   1.933   0.686  0.4267 -0.1070 -0.3669
  498SOL    HW1 1493   0.735   1.870   0.666 -1.4775 -1.0726 -0.7706
  498SOL    HW2 1494   0.847   1.929   0.781  0.7110 -2.4220 -0.2498
  499SOL     OW 1495   0.440   1.699   1.181 -0.0589 -0.0338  0.2174
  499SOL    HW1 1496   0.419   1.798   1.216 -2.7835  3.1452  2.0587
  499SOL    HW2 1497   0.351   1.646   1.175 -0.0102  0.4771 -0.9025
  500SOL     OW 1498   1.293   2.337   0.283  0.9013  0.0001  0.0172
  500SOL    HW1 1499   1.325   2.390   0.201 -0.2809  0.3714  0.7230
  500SOL    HW2 1500   1.360   2.283   0.333 -1.2111  0.1194 -0.4546
  501SOL     OW 1501   2.411   2.526   1.023  0.1154  0.7479 -0.5106
  501SOL    HW1 1502   2.391   2.618   1.058 -2.8199  1.4636  0.0286
  501SOL    HW2 1503   2.325   2.475   0.993 -2.3079  0.2460 -1.6937
  502SOL     OW 1504   0.365   0.996   1.471 -0.2801 -0.3590  0.0672
  502SOL    HW1 1505   0.429   0.988   1.393  0.1863 -1.7035  0.5777
  502SOL    HW2 1506   0.267   0.989   1.432 -3.3903 -1.7631 -1.1080
  503SOL     OW 1507   2.179   0.788   1.606 -0.0748 -0.4867  0.1466
  503SOL    HW1 1508   2.216   0.773   1.698 -1.2812  1.1750 -0.9001
  503SOL    HW2 1509   2.244   0.853   1.553  3.9828  2.2507 -0.4358
  504SOL     OW 1510   1.655   0.604   1.905 -0.0545  0.1806 -0.0528
  504SOL    HW1 1511   1.573   0.557   1.942 -0.4899 -1.8238 -1.6032
  504SOL    HW2 1512   1.642   0.640   1.810  0.7922  1.1090 -0.3831
  505SOL     OW 1513   1.236   0.279   2.775 -0.2789 -0.1282 -0.2891
  505SOL    HW1 1514   1.232   0.180   2.752 -0.2033  1.0469  0.0920
  505SOL    HW2 1515   1.249   0.288   2.873  2.0229  1.1311  1.1591
  506SOL     OW 1516   0.406   0.562   1.541  0.1035 -0.0236 -0.1973
  506SOL    HW1 1517   0.502   0.559   1.509  0.4638  2.8359 -0.5346
  506SOL    HW2 1518   0.390   0.522   1.633 -0.2518  0.4144  0.1621
  507SOL     OW 1519   1.399   3.028   0.036  0.1781  0.0574  0.4750
  507SOL    HW1 1520   1.379   2.982   3.055 -2.2054 -1.6449  1.0395
  507SOL    HW2 1521   1.430   0.015   0.009 -0.7544  0.5592 -0.7069
  508SOL     OW 1522   2.589   0.624   2.617  0.2617  0.2861  0.0922
  508SOL    HW1 1523   2.576   0.574   2.707  3.2444  2.0396 -0.9443
  508SOL    HW2 1524   2.575   0.565   2.533  0.8110 -2.2168 -2.1858
  509SOL     OW 1525   0.969   1.451   2.130 -0.5818 -0.2209  0.4146
  509SOL    HW1 1526   0.901   1.428   2.203  0.0858 -3.7985  2.6736
  509SOL    HW2 1527   0.922   1.469   2.042  1.1682 -0.3019 -0.9418
  510SOL     OW 1528   0.058   1.251   0.755  0.3169  0.1782 -0.2138
  510SOL    HW1 1529   0.004   1.326   0.800  1.2866 -1.2012  1.9109
  510SOL    HW2 1530   0.003   1.167   0.742  1.7053  0.3615 -0.7710
  511SOL     OW 1531   1.708   1.563   1.133  0.4239  0.5180 -0.1511
  511SOL    HW1 1532   1.695   1.585   1.235  2.8170 -0.3405  4.9771
  511SOL    HW2 1533   1.782   1.492   1.116  2.3753 -1.4409 -0.7509
  512SOL     OW 1534   0.930   1.342   3.093 -0.5848 -0.4686 -0.8303
  512SOL    HW1 1535   0.991   1.405   0.027 -1.5099 -2.0277 -1.0314
  512SOL    HW2 1536   0.953   1.253   0.033  1.7745  2.0293  0.3932
  513SOL     OW 1537   0.257   2.492   0.574 -0.3922  0.5965  0.4740
  513SOL    HW1 1538   0.232   2.582   0.615  1.6535  1.2906 -0.3671
  513SOL    HW2 1539   0.357   2.467   0.593  1.5429 -0.7014 -2.6941
  514SOL     OW 1540   0.075   2.235   2.294  0.1254 -0.2521 -0.2599
  514SOL    HW1 1541   0.126   2.146   2.288 -1.0147 -0.5488  0.3802
  514SOL    HW2 1542   3.085   2.220   2.266 -1.2502 -1.7010 -2.5386
  515SOL     OW 1543   2.478   0.729   0.240  0.1931 -0.1108  0.2219
  515SOL    HW1 1544   2.560   0.762   0.287 -1.8313 -1.9103 -2.7801
  515SOL    HW2 1545   2.466   0.631   0.250  0.2779  0.6634  1.1130
  516SOL     OW 1546   2.601   2.833   0.742 -0.0506 -0.0902  0.0192
  516SOL    HW1 1547   2.664   2.851   0.824  3.9950  1.0506 -0.8303
  516SOL    HW2 1548   2.551   2.920   0.724 -1.5662  3.7752 -3.2581
  517SOL     OW 1549   1.361   1.689   2.954 -0.0162  0.0950 -0.0210
  517SOL    HW1 1550   1.446   1.709   3.000 -2.4555  1.3625 -0.0765
  517SOL    HW2 1551   1.287   1.750   2.988  0.9816  4.4642  0.4725
  518SOL     OW 1552   1.108   0.683   1.647 -0.1094  0.1301  0.4511
  518SOL    HW1 1553   1.017   0.726   1.645 -1.6717  1.1540 -1.0684
  518SOL    HW2 1554   1.105   0.582   1.644  1.0998  1.9479 -0.4787
  519SOL     OW 1555   2.972   1.639   0.525 -0.4213 -0.0210  0.0124
  519SOL    HW1 1556   2.905   1.630   0.600  1.7913 -0.4606  1.2027
  519SOL    HW2 1557   3.020   1.552   0.494  0.3035  1.7226 -0.2535
  520SOL     OW 1558   2.015   2.221   1.880 -0.0404  0.0953  0.4623
  520SOL    HW1 1559   2.099   2.254   1.922 -0.9711  2.2242  0.9378
  520SOL    HW2 1560   1.989   2.132   1.918  1.2462  3.9844 -0.7107
  521SOL     OW 1561   0.981   3.045   2.729 -0.0803  0.0822 -0.1453
  521SOL    HW1 1562   0.932   0.025   2.744 -1.0671 -0.9587  3.6661
  521SOL    HW2 1563   0.937   2.987   2.657  0.5975  2.7565 -1.8706
  522SOL     OW 1564   2.572   0.352   2.266  0.2437 -0.2180 -0.1804
  522SOL    HW1 1565   2.533   0.298   2.182 -1.1709 -2.0815 -5.0640
  522SOL    HW2 1566   2.516   0.314   2.343 -0.3909 -1.8119 -0.4110
  523SOL     OW 1567   1.712   2.360   1.635 -0.1578  0.5858 -0.0741
  523SOL    HW1 1568   1.756   2.373   1.543  3.4339  0.8341 -0.7623
  523SOL    HW2 1569   1.745   2.428   1.700 -0.7343  0.3198 -1.0633
  524SOL     OW 1570   1.678   2.075   2.975  0.3554  0.7102 -0.9320
  524SOL    HW1 1571   1.632   2.141   2.911 -2.0145  1.0535 -2.2861
  524SOL    HW2 1572   1.714   1.987   2.938 -0.0997 -2.0443 -1.1214
  525SOL     OW 1573   0.338   0.699   3.037 -0.2043 -0.4629 -0.3187
  525SOL    HW1 1574   0.413   0.725   3.103 -0.1053  0.6833 -1.7583
  525SOL    HW2 1575   0.318   0.596   3.034 -0.3859 -3.0868  0.4120
  526SOL     OW 1576   1.165   2.939   0.489  0.3807 -0.3426  0.1700
  526SOL    HW1 1577   1.251   2.934   0.434 -0.4964  2.8219  0.9193
  526SOL    HW2 1578   1.170   2.893   0.579 -0.0866 -0.2984 -0.1160
  527SOL     OW 1579   2.371   1.693   0.809 -0.5743  0.4490 -0.2086
  527SOL    HW1 1580   2.420   1.772   0.849 -1.5346 -1.5508 -0.2003
  527SOL    HW2 1581   2.420   1.660   0.726  1.1897  0.2081 -0.9887
  528SOL     OW 1582   0.714   1.007   2.237  0.3433  0.0570 -0.5520
  528SOL    HW1 1583   0.675   1.028   2.331 -0.7734  0.6782  0.8205
  528SOL    HW2 1584   0.641   0.960   2.182  0.4010 -0.2576 -0.2730
  529SOL     OW 1585   1.510   1.720   2.713 -0.0700  0.4528 -0.2441
  529SOL    HW1 1586   1.471   1.686   2.800 -0.3101 -1.8505  1.6598
  529SOL    HW2 1587   1.497   1.658   2.633  0.7291 -0.8155  0.0890
  530SOL     OW 1588   1.619   1.121   2.340 -0.3610  0.1990 -0.0606
  530SOL    HW1 1589   1.573   1.131   2.252  1.5281 -0.8716 -1.7122
  530SOL    HW2 1590   1.596   1.031   2.386  0.5173 -0.9064 -0.4576
  531SOL     OW 1591   0.559   2.237   2.837  0.5199 -0.4821 -0.1094
  531SOL    HW1 1592   0.465   2.260   2.873 -1.0753 -1.2922 -3.7098
  531SOL    HW2 1593   0.626   2.310   2.863 -0.7912 -1.0029 -0.6519
  532SOL     OW 1594   2.534   0.875   0.562 -0.2595  0.6133 -0.4242
  532SOL    HW1 1595   2.547   0.968   0.604 -0.6656  0.2431 -0.3755
  532SOL    HW2 1596   2.571   0.803   0.625  0.0215  0.2051  0.3328
  533SOL     OW 1597   0.143   0.411   1.642  0.2299 -0.2831 -0.5673
  533SOL    HW1 1598   0.243   0.407   1.667  0.3020 -2.6259  0.5245
  533SOL    HW2 1599   0.088   0.453   1.714 -2.5664  0.4092  0.8494
  534SOL     OW 1600   0.869   0.150   3.096 -0.5302  0.7324 -0.4355
  534SOL    HW1 1601   0.896   0.247   3.089 -0.3457  0.0545  1.7068
  534SOL    HW2 1602   0.832   0.119   0.081 -0.4913  0.8911  3.3332
  535SOL     OW 1603   0.145   2.971   0.070  0.1228 -0.4121  0.1317
  535SOL    HW1 1604   0.164   2.909   3.101 -0.8903 -0.0059  1.9300
  535SOL    HW2 1605   0.138   2.922   0.157 -3.1286  0.0224  2.1910
  536SOL     OW 1606   0.810   1.585   1.274  0.8566 -0.2772  0.1234
  536SOL    HW1 1607   0.759   1.542   1.349 -0.6506  3.0816 -1.5732
  536SOL    HW2 1608   0.792   1.684   1.277 -0.1495 -1.1998 -0.8357
  537SOL     OW 1609   0.986   2.608   1.937  0.7632 -0.4663 -0.0529
  537SOL    HW1 1610   1.034   2.700   1.931  2.2269  2.2790  1.5132
  537SOL    HW2 1611   0.891   2.613   1.974 -1.6007 -3.6904  1.0825
  538SOL     OW 1612   3.049   1.738   2.860  0.5663 -0.4772  0.4744
  538SOL    HW1 1613   3.020   1.837   2.876 -0.3308  1.7473  2.0109
  538SOL    HW2 1614   0.041   1.735   2.839 -1.5331  1.4550 -1.0261
  539SOL     OW 1615   2.692   0.875   2.678  0.0856 -0.1132  0.4117
  539SOL    HW1 1616   2.652   0.782   2.663 -3.2969 -1.8924  0.6762
  539SOL    HW2 1617   2.758   0.875   2.753  0.1541 -2.1913 -3.0395
  540SOL     OW 1618   1.613   0.482   2.589 -0.1999  0.2315  0.4683
  540SOL    HW1 1619   1.611   0.485   2.693  1.3241 -0.3970 -1.0199
  540SOL    HW2 1620   1.696   0.524   2.544 -0.3089  1.0077 -1.8614
  541SOL     OW 1621   0.743   0.102   2.015  0.2896 -0.4791  0.1351
  541SOL    HW1 1622   0.747   0.116   2.118  1.2084 -0.2609 -0.4286
  541SOL    HW2 1623   0.707   0.190   1.977  0.8629  1.7176 -0.2362
  542SOL     OW 1624   1.729   2.718   2.985  0.1583  0.5667 -0.1404
  542SOL    HW1 1625   1.659   2.710   3.056  1.4686 -2.1376 -3.8295
  542SOL    HW2 1626   1.696   2.792   2.926 -0.7706 -3.6796  0.6195
  543SOL     OW 1627   0.993   0.048   0.541 -0.0534 -0.3073  0.9697
  543SOL    HW1 1628   1.042   0.099   0.614 -0.8439 -1.9846 -1.6332
  543SOL    HW2 1629   1.060   3.084   0.502  1.4744  0.8961 -0.1826
  544SOL     OW 1630   2.614   1.598   1.902 -0.0312 -0.0593 -0.2963
  544SOL    HW1 1631   2.673   1.585   1.984  0.5187 -0.1653  1.1725
  544SOL    HW2 1632   2.559   1.687   1.905  0.6761  0.2221  2.5382
  545SOL     OW 1633   2.148   1.755   1.416  0.1162 -0.0456  0.2154
  545SOL    HW1 1634   2.233   1.740   1.479  0.8518 -1.7801  1.8630
  545SOL    HW2 1635   2.124   1.676   1.360  2.7579  2.9989  3.5400
  546SOL     OW 1636   0.092   0.115   2.160 -0.4141 -0.1258 -0.6796
  546SOL    HW1 1637   0.162   0.179   2.116 -1.3065 -0.2316  0.7589
  546SOL    HW2 1638   0.137   0.028   2.166 -2.2326  1.8018  0.6754
  547SOL     OW 1639   1.220   0.623   1.098 -0.4286  0.0111  0.3943
  547SOL    HW1 1640   1.243   0.602   1.195  0.7861 -0.3192  2.9426
  547SOL    HW2 1641   1.259   0.713   1.076 -0.6692 -0.5527 -0.2480
  548SOL     OW 1642   1.403   2.383   2.836  0.1213 -0.1696  0.1259
  548SOL    HW1 1643   1.328   2.321   2.870 -1.9787  1.2819 -2.6438
  548SOL    HW2 1644   1.483   2.331   2.797  1.7820  0.1901  2.6209
  549SOL     OW 1645   2.249   0.245   0.190  0.0682 -0.0534 -0.0621
  549SOL    HW1 1646   2.149   0.243   0.174  0.6130 -3.7814 -1.2197
  549SOL    HW2 1647   2.283   0.150   0.189  0.2266 -1.4971  2.8686
  550SOL     OW 1648   2.800   2.096   0.710  0.7337  0.3794  0.9752
  550SOL    HW1 1649   2.745   2.169   0.661 -1.0593  0.4986 -2.6241
  550SOL    HW2 1650   2.877   2.073   0.648 -1.0977  0.7272  1.2909
  551SOL     OW 1651   1.212   3.034   2.428  0.0160 -0.2333 -0.0761
  551SOL    HW1 1652   1.210   2.986   2.338  1.0661  0.3581 -2.1780
  551SOL    HW2 1653   1.217   0.027   2.418 -0.0666 -1.7056 -1.5696
  552SOL     OW 1654   2.957   2.347   2.718 -0.1962  0.1598 -0.0372
  552SOL    HW1 1655   2.943   2.296   2.630  0.0646  0.3517  1.5220
  552SOL    HW2 1656   2.920   2.292   2.797  1.3448 -1.0189  0.9135
  553SOL     OW 1657   0.172   2.848   1.041 -0.2789 -0.0608 -0.4018
  553SOL    HW1 1658   0.159   2.942   1.076  1.4483  1.5478  0.2827
  553SOL    HW2 1659   0.091   2.821   0.980 -1.4871 -0.7105 -0.0461
  554SOL     OW 1660   2.228   2.330   1.512 -0.3649 -0.2742  0.0431
  554SOL    HW1 1661   2.164   2.252   1.527 -0.6641 -0.6786  1.0155
  554SOL    HW2 1662   2.186   2.420   1.487  2.2113  0.7562 -1.0233
  555SOL     OW 1663   1.584   2.191   2.000  0.0917 -0.2880 -0.1808
  555SOL    HW1 1664   1.576   2.125   2.075 -1.6784  1.1907 -0.4613
  555SOL    HW2 1665   1.605   2.286   2.039  3.0028  4.3359  0.5381
  556SOL     OW 1666   1.272   1.373   1.198 -0.4372  0.6902  0.0829
  556SOL    HW1 1667   1.356   1.320   1.172 -0.2854  0.1240 -3.2521
  556SOL    HW2 1668   1.274   1.472   1.189  0.2724  0.0229 -2.3941
  557SOL     OW 1669   1.952   2.834   1.650 -0.0759  0.3788  0.2316
  557SOL    HW1 1670   1.959   2.774   1.728 -0.9481  0.5721 -1.7789
  557SOL    HW2 1671   1.975   2.928   1.679  0.9454  1.8585  2.6103
  558SOL     OW 1672   0.213   0.035   1.865 -0.1176 -0.8917  0.0306
  558SOL    HW1 1673   0.242   0.109   1.935  3.2586  1.2031  1.6898
  558SOL    HW2 1674   0.176   0.083   1.787  1.7742 -0.8999  3.9138
  559SOL     OW 1675   2.116   3.008   0.730  0.2262  0.2661 -0.4038
  559SOL    HW1 1676   2.122   3.084   0.793 -1.5034  0.2579  1.3287
  559SOL    HW2 1677   2.189   3.017   0.659 -0.4930  3.8350 -1.1965
  560SOL     OW 1678   1.848   2.609   0.687 -0.0807  0.2625  0.3829
  560SOL    HW1 1679   1.889   2.694   0.723 -1.6197 -2.4012 -0.2832
  560SOL    HW2 1680   1.760   2.589   0.740 -1.5388 -0.2552  1.6238
  561SOL     OW 1681   0.807   0.252   0.824 -0.3566 -0.2477 -0.1988
  561SOL    HW1 1682   0.899   0.278   0.786  2.3734  2.0042  0.6041
  561SOL    HW2 1683   0.735   0.276   0.756 -0.5531  0.4269  0.0064
  562SOL     OW 1684   0.468   1.410   2.270  0.1497 -0.9409  0.1307
  562SOL    HW1 1685   0.412   1.495   2.241 -2.9118  1.8575  0.8749
  562SOL    HW2 1686   0.416   1.350   2.332 -1.9669 -1.2090  0.0327
  563SOL     OW 1687   1.566   2.190   2.408 -0.3373 -0.6140  0.0009
  563SOL    HW1 1688   1.556   2.115   2.342  2.9331  1.2482  2.0839
  563SOL    HW2 1689   1.663   2.192   2.442  1.4840 -1.4696 -0.3628
  564SOL     OW 1690   2.989   1.064   0.751  0.0256 -0.3916 -0.4891
  564SOL    HW1 1691   3.013   0.965   0.737 -0.6993 -0.1464 -1.0040
  564SOL    HW2 1692   2.895   1.067   0.784  2.1648 -2.1855 -0.9485
  565SOL     OW 1693   0.787   0.967   0.123  0.0281 -0.4021  0.6316
  565SOL    HW1 1694   0.740   1.006   0.042 -0.6902 -1.3292 -1.2191
  565SOL    HW2 1695   0.812   1.046   0.179 -1.0247  0.3303 -1.7296
  566SOL     OW 1696   2.305   0.202   2.738  0.4081 -0.3175 -0.5956
  566SOL    HW1 1697   2.210   0.169   2.726  1.9139  0.5368  2.0305
  566SOL    HW2 1698   2.321   0.220   2.839 -0.0256 -1.5199  0.4076
  567SOL     OW 1699   1.339   0.851   1.000 -0.1668  0.5768  0.4961
  567SOL    HW1 1700   1.402   0.857   0.920  1.8232  2.5544  0.2548
  567SOL    HW2 1701   1.277   0.930   1.009 -1.0177  0.5902 -1.2260
  568SOL     OW 1702   1.769   1.796   2.896  0.5173 -0.1635  0.3998
  568SOL    HW1 1703   1.715   1.739   2.960 -1.3606 -2.4132 -1.3543
  568SOL    HW2 1704   1.761   1.764   2.803 -1.2968  0.8437  1.0119
  569SOL     OW 1705   2.205   1.268   0.003 -0.4284  0.1255  0.2310
  569SOL    HW1 1706   2.142   1.339   3.077  0.4738 -0.3382 -0.1168
  569SOL    HW2 1707   2.302   1.302   0.006  0.7218 -0.6445 -3.1305
  570SOL     OW 1708   0.310   2.435   1.748 -0.1379  0.4540  0.2647
  570SOL    HW1 1709   0.392   2.493   1.768 -0.1123  0.8130 -0.1217
  570SOL    HW2 1710   0.249   2.485   1.687  1.3588 -1.9213 -1.4424
  571SOL     OW 1711   2.966   1.700   1.715 -0.0494  0.0162 -0.1396
  571SOL    HW1 1712   2.986   1.797   1.691  1.6857 -0.0960  0.9907
  571SOL    HW2 1713   3.044   1.641   1.690 -0.8133  0.2978  0.7709
  572SOL     OW 1714   1.631   1.953   0.432 -0.4902  0.4404  0.1200
  572SOL    HW1 1715   1.602   1.884   0.499 -0.0116  0.2862 -0.7176
  572SOL    HW2 1716   1.714   2.008   0.466  1.9560  1.5515 -1.3005
  573SOL     OW 1717   1.860   2.104   0.478  0.2993 -0.2029 -0.9705
  573SOL    HW1 1718   1.908   2.145   0.403 -0.7734  0.2540  1.2853
  573SOL    HW2 1719   1.853   2.163   0.563 -1.8337  0.7836  0.2474
  574SOL     OW 1720   0.784   0.089   1.043  0.0057  0.7924  0.7912
  574SOL    HW1 1721   0.688   0.090   1.076  1.4193 -1.2570  1.7902
  574SOL    HW2 1722   0.792   0.139   0.953 -0.7152 -0.5263  0.5615
  575SOL     OW 1723   0.715   1.067   1.922  0.2911 -0.0744  0.2151
  575SOL    HW1 1724   0.706   1.163   1.900  0.2912 -1.0504  0.3744
  575SOL    HW2 1725   0.798   1.046   1.973  0.5505 -0.0303 -0.0547
  576SOL     OW 1726   2.640   0.040   1.328 -0.1100 -0.0950 -0.3275
  576SOL    HW1 1727   2.736   0.060   1.328 -4.2758 -1.2575  0.5721
  576SOL    HW2 1728   2.579   0.115   1.359 -0.3584  0.5750  0.7595
  577SOL     OW 1729   1.255   1.110   2.535 -0.0278  0.4636  0.3966
  577SOL    HW1 1730   1.208   1.024   2.507  1.2764 -1.9856 -2.7282
  577SOL    HW2 1731   1.339   1.095   2.587  0.2223 -0.6025 -2.4547
  578SOL     OW 1732   2.171   1.238   2.478  0.0513 -0.3139  0.0493
  578SOL    HW1 1733   2.068   1.225   2.463 -3.0814  0.4538  2.3437
  578SOL    HW2 1734   2.191   1.340   2.474 -0.7026  1.3547 -0.9042
  579SOL     OW 1735   1.651   2.110   1.736  0.5733 -0.5822  0.2050
  579SOL    HW1 1736   1.633   2.108   1.836  0.3599  0.4384 -0.8609
  579SOL    HW2 1737   1.691   2.197   1.702 -1.2077 -2.3470 -1.5851
  580SOL     OW 1738   1.183   1.766   0.252 -0.0736  0.4075 -0.2767
  580SOL    HW1 1739   1.257   1.705   0.281  0.2901  2.7180 -0.8530
  580SOL    HW2 1740   1.125   1.783   0.331 -1.0868 -0.9960  0.3133
  581SOL     OW 1741   1.200   0.792   2.114  0.1569 -0.2315  0.3817
  581SOL    HW1 1742   1.146   0.877   2.138 -0.8267  1.0262 -1.0066
  581SOL    HW2 1743   1.232   0.742   2.193  1.0206 -0.4291  1.6086
  582SOL     OW 1744   0.709   1.279   1.733  0.4046 -0.4345  0.4268
  582SOL    HW1 1745   0.745   1.364   1.776  1.9765  0.8460  0.8017
  582SOL    HW2 1746   0.772   1.197   1.748 -0.5936 -1.2303 -0.1994
  583SOL     OW 1747   1.074   1.212   2.021  0.0968  0.3067 -0.0556
  583SOL    HW1 1748   1.031   1.125   2.046  1.7023  1.8840 -2.2313
  583SOL    HW2 1749   1.030   1.287   2.074 -1.8779 -2.8754 -2.5481
  584SOL     OW 1750   2.610   2.595   0.618  0.3159  0.1715 -0.1938
  584SOL    HW1 1751   2.510   2.576   0.625 -0.7571  0.6259 -1.0973
  584SOL    HW2 1752   2.625   2.693   0.642 -1.7255 -3.7725 -0.2910
  585SOL     OW 1753   2.044   0.099   2.742 -0.2204 -0.0318  0.4547
  585SOL    HW1 1754   1.952   0.122   2.699  0.9035 -0.6943 -0.9223
  585SOL    HW2 1755   2.040   0.087   2.845 -1.7176  0.0339  2.2752
  586SOL     OW 1756   0.062   2.292   0.584  1.0815 -0.2691  0.1590
  586SOL    HW1 1757   0.016   2.333   0.666  1.5311  0.8698  1.4962
  586SOL    HW2 1758   0.148   2.341   0.568 -1.9038  1.7101  1.0392
  587SOL     OW 1759   1.653   1.671   3.100 -0.3387 -0.1534 -0.1144
  587SOL    HW1 1760   1.640   1.749   0.055  0.2170  2.8722 -0.7264
  587SOL    HW2 1761   1.727   1.608   0.021  1.0790 -1.5487 -1.3433
  588SOL     OW 1762   0.267   0.243   1.178 -0.5414 -0.3589 -0.1077
  588SOL    HW1 1763   0.247   0.206   1.270 -1.5730 -0.1746 -1.7754
  588SOL    HW2 1764   0.224   0.332   1.172  1.4578  0.3670  2.9922
  589SOL     OW 1765   1.531   0.562   0.847  0.1676 -0.3214 -0.0643
  589SOL    HW1 1766   1.561   0.467   0.823  0.7454 -2.8947  1.1989
  589SOL    HW2 1767   1.525   0.557   0.950 -0.0998  1.1004  2.6782
  590SOL     OW 1768   1.202   1.190   2.932 -0.3279 -0.6235 -0.2608
  590SOL    HW1 1769   1.212   1.291   2.946 -0.3578  2.7590  0.4809
  590SOL    HW2 1770   1.134   1.153   2.995 -0.8196  0.0796 -1.5330
  591SOL     OW 1771   2.390   2.407   2.537 -0.0476  0.4076 -0.1727
  591SOL    HW1 1772   2.430   2.479   2.604  0.1623 -0.8146  1.9188
  591SOL    HW2 1773   2.346   2.453   2.455  1.6599  2.0691  1.8776
  592SOL     OW 1774   2.034   1.978   1.346 -0.2287 -0.2557 -0.0219
  592SOL    HW1 1775   2.046   2.047   1.415 -2.0908 -3.7740 -1.0660
  592SOL    HW2 1776   2.092   1.900   1.378  1.3211 -1.6063 -4.3938
  593SOL     OW 1777   0.923   0.292   1.374 -0.2642  0.3373  0.1259
  593SOL    HW1 1778   0.975   0.346   1.442 -0.4979  0.3496 -3.0304
  593SOL    HW2 1779   0.849   0.345   1.330  0.5128 -1.0550  0.3934
  594SOL     OW 1780   2.622   0.989   2.446 -0.4748  0.3373 -0.0802
  594SOL    HW1 1781   2.634   0.952   2.538 -1.0881 -0.1647 -0.3720
  594SOL    HW2 1782   2.651   0.926   2.371 -2.0433  1.3942 -0.4415
  595SOL     OW 1783   0.212   3.087   0.764 -0.2698 -0.8154  0.6787
  595SOL    HW1 1784   0.198   3.081   0.866  0.0390  2.4981  0.3618
  595SOL    HW2 1785   0.258   3.000   0.723 -0.8579 -0.8046  0.0338
  596SOL     OW 1786   0.031   1.327   1.153  0.2319  0.0703  0.1577
  596SOL    HW1 1787   0.105   1.283   1.207 -1.0660  2.0314 -0.5933
  596SOL    HW2 1788   3.093   1.249   1.105  0.2842 -0.8251 -1.2367
  597SOL     OW 1789   1.683   1.628   0.456 -0.1023 -0.1146  0.5530
  597SOL    HW1 1790   1.677   1.685   0.541  1.3893  0.9568 -0.9118
  597SOL    HW2 1791   1.757   1.663   0.399 -1.8975  0.9756  0.9028
  598SOL     OW 1792   0.095   2.800   1.780 -0.1609  0.7871 -0.0362
  598SOL    HW1 1793   0.163   2.844   1.716 -1.4271 -0.0096  0.6712
  598SOL    HW2 1794   0.145   2.764   1.864 -0.6204 -0.7185  0.5614
  599SOL     OW 1795   2.456   1.280   2.724  0.0193 -0.0473 -0.4688
  599SOL    HW1 1796   2.370   1.226   2.737 -1.0627  0.0645  1.8612
  599SOL    HW2 1797   2.449   1.351   2.797  2.9256 -2.4430 -3.8572
  600SOL     OW 1798   0.769   1.210   0.238  0.0948  0.2170 -0.1372
  600SOL    HW1 1799   0.808   1.297   0.205 -3.4049 -0.1628  2.4321
  600SOL    HW2 1800   0.749   1.212   0.336 -1.4448 -0.2765  0.2587
  601SOL     OW 1801   0.593   0.957   0.932  0.0677 -0.2795  0.3474
  601SOL    HW1 1802   0.589   0.859   0.935  0.2768  2.5400  0.6446
  601SOL    HW2 1803   0.620   0.994   1.025 -0.1907 -1.3341  3.0239
  602SOL     OW 1804   1.550   2.500   0.427  0.4216 -0.3667  0.1041
  602SOL    HW1 1805   1.508   2.416   0.471  0.3658  1.7727 -3.2061
  602SOL    HW2 1806   1.613   2.473   0.353 -1.8375  1.2411  1.1154
  603SOL     OW 1807   0.732   2.659   2.010 -0.2914  0.1173 -0.0354
  603SOL    HW1 1808   0.676   2.697   1.933  0.5032  0.2252 -2.4309
  603SOL    HW2 1809   0.696   2.567   2.041  1.5771 -1.5513  1.8903
  604SOL     OW 1810   0.237   0.367   2.391  0.6577  0.2418  0.2720
  604SOL    HW1 1811   0.183   0.289   2.348  2.4967 -1.4132  1.5385
  604SOL    HW2 1812   0.196   0.459   2.366 -2.6879  0.3289  0.7061
  605SOL     OW 1813   0.026   1.173   1.442  0.8405  0.0340  0.3639
  605SOL    HW1 1814   0.100   1.233   1.419 -4.2297  0.7635  0.3256
  605SOL    HW2 1815   3.069   1.218   1.509 -0.4740 -1.0166  2.4537
  606SOL     OW 1816   0.848   1.671   2.523 -0.3717  0.5517  0.3026
  606SOL    HW1 1817   0.763   1.678   2.572  0.8627  0.7793  1.2475
  606SOL    HW2 1818   0.878   1.575   2.504 -0.1992  0.0949  2.0393
  607SOL     OW 1819   0.428   0.014   0.460 -0.2444 -0.4231 -0.1806
  607SOL    HW1 1820   0.513   0.054   0.500 -0.1761  2.1585 -2.0615
  607SOL    HW2 1821   0.370   0.083   0.415  1.0992  0.2390  0.6075
  608SOL     OW 1822   2.144   1.831   2.253 -0.1838  0.0110  0.1747
  608SOL    HW1 1823   2.061   1.887   2.256 -2.4724  0.6414  1.6339
  608SOL    HW2 1824   2.182   1.790   2.334  1.3462 -0.5282 -3.2892
  609SOL     OW 1825   2.697   0.370   1.307  0.1965  0.0332 -0.1135
  609SOL    HW1 1826   2.685   0.437   1.230  2.7627  1.5137  0.9262
  609SOL    HW2 1827   2.617   0.306   1.310 -0.5524  0.8497 -1.7708
  610SOL     OW 1828   0.511   2.730   0.534 -0.0074 -0.7563  0.4863
  610SOL    HW1 1829   0.586   2.769   0.481  0.1620 -2.0464  2.3305
  610SOL    HW2 1830   0.532   2.650   0.591 -1.6068  0.8060 -0.5009
  611SOL     OW 1831   1.643   0.914   0.019  0.1015 -0.3138 -0.1113
  611SOL    HW1 1832   1.683   0.941   0.109  0.9966 -0.4954  1.9632
  611SOL    HW2 1833   1.703   0.956   3.051  2.5219  2.4338 -0.8064
  612SOL     OW 1834   0.691   2.259   1.854 -0.1275  0.0949  0.4837
  612SOL    HW1 1835   0.633   2.332   1.899  0.4905 -0.0978 -0.9171
  612SOL    HW2 1836   0.770   2.294   1.796  1.9761 -1.1599  0.3197
  613SOL     OW 1837   0.524   2.496   0.691 -0.0306  0.5915  0.0640
  613SOL    HW1 1838   0.545   2.491   0.790  1.0567 -0.4754  1.4863
  613SOL    HW2 1839   0.582   2.433   0.631 -0.5787  1.3304 -0.8277
  614SOL     OW 1840   2.276   2.796   1.334 -0.5899  0.0226 -0.3020
  614SOL    HW1 1841   2.317   2.754   1.419 -1.4557 -2.0513 -0.2230
  614SOL    HW2 1842   2.206   2.866   1.356  0.1587  0.9714  0.9563
  615SOL     OW 1843   1.687   1.005   0.277  0.0355 -0.2260  0.3853
  615SOL    HW1 1844   1.601   1.019   0.328  0.9970 -1.0353  0.3266
  615SOL    HW2 1845   1.748   1.086   0.298  1.0879  0.3724  2.6010
  616SOL     OW 1846   1.990   0.580   0.241  1.0952  0.1575 -0.2083
  616SOL    HW1 1847   2.051   0.619   0.171  0.4454 -2.9252  0.3057
  616SOL    HW2 1848   1.896   0.570   0.202 -1.3665 -0.3089 -0.8339
  617SOL     OW 1849   0.929   0.765   2.978  0.4070  0.0537 -0.1545
  617SOL    HW1 1850   0.983   0.845   2.940  1.6937 -0.4157  1.3169
  617SOL    HW2 1851   0.985   0.702   3.036 -2.5928 -1.2799 -0.7239
  618SOL     OW 1852   0.559   2.959   2.148 -0.0494 -0.7719  0.2349
  618SOL    HW1 1853   0.580   3.001   2.058 -0.2337  0.4296 -2.6428
  618SOL    HW2 1854   0.478   2.894   2.134 -3.1034 -2.1875  1.1705
  619SOL     OW 1855   2.979   1.537   1.297 -0.1435 -0.0835  0.0479
  619SOL    HW1 1856   3.038   1.479   1.239  1.3223  2.0724  2.7242
  619SOL    HW2 1857   2.925   1.484   1.367 -2.1140 -0.5454 -0.2263
  620SOL     OW 1858   0.119   0.842   3.028 -0.8063 -0.0788  0.1635
  620SOL    HW1 1859   0.205   0.784   3.038  1.8853 -0.3188  1.5900
  620SOL    HW2 1860   0.054   0.820   3.107 -0.8336 -1.4778  2.1567
  621SOL     OW 1861   2.255   2.336   1.986 -0.0362 -0.4094 -0.1676
  621SOL    HW1 1862   2.338   2.295   2.028 -0.2223  1.4166  2.3348
  621SOL    HW2 1863   2.188   2.374   2.054 -1.5978 -0.3076  1.4816
  622SOL     OW 1864   0.998   0.406   2.168  0.5954  0.2414  0.0890
  622SOL    HW1 1865   0.993   0.349   2.253 -1.4947  1.4105  0.4642
  622SOL    HW2 1866   0.971   0.503   2.190 -1.0683 -0.0951 -1.3166
  623SOL     OW 1867   1.075   0.874   2.583 -0.1350  0.1544 -0.5789
  623SOL    HW1 1868   1.040   0.788   2.537 -1.3837  2.0605  0.1071
  623SOL    HW2 1869   1.159   0.852   2.635 -0.4794  1.9915  2.4589
  624SOL     OW 1870   2.699   0.827   0.336  0.0861 -0.3141 -0.0860
  624SOL    HW1 1871   2.686   0.908   0.274 -1.0395 -2.5910  0.3285
  624SOL    HW2 1872   2.652   0.843   0.427 -1.3321 -0.7578 -0.1368
  625SOL     OW 1873   1.059   1.321   0.625  0.0100  0.0698  0.4788
  625SOL    HW1 1874   1.081   1.359   0.719 -0.2441 -1.1314  1.6357
  625SOL    HW2 1875   0.961   1.346   0.611  1.5660  0.8304  3.5556
  626SOL     OW 1876   1.835   0.924   2.880  0.3341  0.0276  0.7328
  626SOL    HW1 1877   1.872   0.873   2.797  0.0999  1.8365  0.0105
  626SOL    HW2 1878   1.906   0.988   2.914  4.9493  0.4256  0.2090
  627SOL     OW 1879   1.045   2.852   2.904  0.2321 -0.5379  0.0862
  627SOL    HW1 1880   1.060   2.909   2.817  1.3790  0.4930 -1.2003
  627SOL    HW2 1881   0.973   2.892   2.958  2.2176 -2.7460 -1.7806
  628SOL     OW 1882   2.182   0.347   2.350 -0.1811  0.2578 -0.6474
  628SOL    HW1 1883   2.268   0.295   2.378 -0.7465  0.0780 -0.3042
  628SOL    HW2 1884   2.157   0.419   2.419  0.5977  0.4965  3.4456
  629SOL     OW 1885   0.908   0.441   3.049 -0.1385 -0.5160 -0.2420
  629SOL    HW1 1886   0.854   0.502   2.989  1.0167  0.1215 -0.4297
  629SOL    HW2 1887   0.998   0.495   3.073  0.7964  1.2697 -2.1432
  630SOL     OW 1888   0.983   0.333   2.638  0.1618 -0.1090 -0.1440
  630SOL    HW1 1889   1.045   0.351   2.715 -1.5943  0.4443  1.2583
  630SOL    HW2 1890   0.884   0.336   2.666 -0.8765 -1.1035 -0.3261
  631SOL     OW 1891   2.542   1.136   0.701 -0.4996 -0.0272  0.0803
  631SOL    HW1 1892   2.450   1.122   0.742 -0.8172 -1.7083  0.2929
  631SOL    HW2 1893   2.561   1.236   0.678  0.6462 -0.9408 -1.8643
  632SOL     OW 1894   1.980   0.632   1.216 -0.6033  0.4718 -0.2523
  632SOL    HW1 1895   1.985   0.682   1.306 -0.1248  0.5869 -0.7917
  632SOL    HW2 1896   1.928   0.549   1.238 -5.3884  0.3096  0.9963
  633SOL     OW 1897   0.882   1.634   0.476 -0.3929 -0.1318  0.0990
  633SOL    HW1 1898   0.860   1.717   0.429 -0.7717 -4.4686  1.9936
  633SOL    HW2 1899   0.973   1.647   0.512 -0.4249 -2.7825 -1.6950
  634SOL     OW 1900   2.338   0.035   1.494 -0.3420  0.3277 -0.1541
  634SOL    HW1 1901   2.240   0.006   1.492 -0.7150  1.4689 -0.5899
  634SOL    HW2 1902   2.375   0.056   1.583  0.6183 -1.1167 -2.9831
  635SOL     OW 1903   1.803   0.456   0.958  0.4461  0.1126 -0.7116
  635SOL    HW1 1904   1.753   0.496   1.037  0.4501 -1.0244 -0.8922
  635SOL    HW2 1905   1.742   0.406   0.894  3.0674  2.2544  4.3644
  636SOL     OW 1906   0.764   1.184   0.503  0.0920  0.1878 -0.6398
  636SOL    HW1 1907   0.673   1.147   0.514 -0.7490  3.6729  2.8242
  636SOL    HW2 1908   0.764   1.275   0.550 -0.5179  0.4280 -1.9832
  637SOL     OW 1909   2.639   2.157   2.787  0.1649  0.2330  0.7770
  637SOL    HW1 1910   2.630   2.148   2.881 -0.8949 -2.5134 -1.3391
  637SOL    HW2 1911   2.547   2.198   2.757 -1.8030  0.2858  0.6426
  638SOL     OW 1912   1.439   2.666   2.797 -0.0116  0.1162  0.1856
  638SOL    HW1 1913   1.497   2.684   2.717  1.1079 -0.4866  2.3653
  638SOL    HW2 1914   1.435   2.565   2.813 -1.7257  0.1952 -0.3392
  639SOL     OW 1915   1.391   1.598   1.329 -0.4445  0.0981  0.4500
  639SOL    HW1 1916   1.363   1.652   1.247 -2.9954 -0.8455 -0.1659
  639SOL    HW2 1917   1.492   1.606   1.337  1.2982  0.9628  0.6865
  640SOL     OW 1918   2.462   2.813   0.401 -0.3273  0.4169 -0.5703
  640SOL    HW1 1919   2.450   2.712   0.370  0.9240 -3.8931 -0.5147
  640SOL    HW2 1920   2.560   2.847   0.387  2.6800  2.7388  0.1642
  641SOL     OW 1921   3.027   0.001   0.041  0.3020  0.4111 -0.2090
  641SOL    HW1 1922   3.102   3.040   0.054 -2.4593 -1.4612 -0.5466
  641SOL    HW2 1923   2.962   3.096   0.118 -0.4255  1.1469 -0.4646
  642SOL     OW 1924   2.878   0.779   1.193  0.1154  0.2144  0.2253
  642SOL    HW1 1925   2.897   0.795   1.093 -0.6717  2.0362  1.0858
  642SOL    HW2 1926   2.887   0.871   1.241  3.2253  1.1869 -3.0334
  643SOL     OW 1927   0.867   1.861   2.094  0.6178 -0.1131  0.5089
  643SOL    HW1 1928   0.816   1.923   2.033  3.6528 -0.1653  1.1859
  643SOL    HW2 1929   0.967   1.882   2.096 -0.9794 -1.1868  1.9504
  644SOL     OW 1930   1.802   2.315   0.674  0.0804 -0.1842 -0.4180
  644SOL    HW1 1931   1.852   2.253   0.738 -0.3384  2.3516 -2.0681
  644SOL    HW2 1932   1.826   2.413   0.685 -1.7164 -0.5271  1.8427
  645SOL     OW 1933   1.788   1.926   0.956  0.1854  0.1029  0.6901
  645SOL    HW1 1934   1.804   1.850   0.885 -1.7062 -1.0355  0.6514
  645SOL    HW2 1935   1.687   1.949   0.958 -1.3916  2.0508  2.7434
  646SOL     OW 1936   1.042   2.480   3.073  0.0431 -0.0975  0.3031
  646SOL    HW1 1937   1.115   2.516   3.008  1.8865 -0.8070  0.2462
  646SOL    HW2 1938   1.057   2.379   3.103  2.0417 -2.1883 -0.3195
  647SOL     OW 1939   0.424   2.693   1.838  0.1263  0.1018 -0.4522
  647SOL    HW1 1940   0.381   2.771   1.886 -1.8193 -1.7705  0.8106
  647SOL    HW2 1941   0.442   2.705   1.742  1.9561  0.2849 -0.7811
  648SOL     OW 1942   1.650   0.583   1.153  0.1691 -0.2750 -0.2188
  648SOL    HW1 1943   1.613   0.515   1.223  0.6077 -3.7160  1.4458
  648SOL    HW2 1944   1.653   0.672   1.190  0.8674 -1.2733 -0.3730
  649SOL     OW 1945   1.503   2.090   0.084  0.5629  0.2921 -0.5968
  649SOL    HW1 1946   1.542   2.158   0.146  0.1507 -0.8695 -0.1888
  649SOL    HW2 1947   1.565   2.081   0.001  1.5785 -0.8672 -3.3354
  650SOL     OW 1948   2.070   1.745   2.009  0.2366 -0.2086  0.5351
  650SOL    HW1 1949   2.101   1.785   2.097 -1.5546  0.2323 -2.9293
  650SOL    HW2 1950   2.057   1.647   2.014 -0.4475  2.6323 -0.1293
  651SOL     OW 1951   1.361   2.464   3.106 -0.0978  0.0027  0.7519
  651SOL    HW1 1952   1.291   2.534   3.097  1.4251 -2.0486 -1.1354
  651SOL    HW2 1953   1.393   2.436   3.015  0.9786 -0.1815 -1.9145
  652SOL     OW 1954   0.472   2.232   0.295  0.4617 -0.0109 -0.1442
  652SOL    HW1 1955   0.407   2.166   0.338  2.5852  1.7032 -0.5093
  652SOL    HW2 1956   0.437   2.330   0.299 -0.8112  0.6128 -1.5740
  653SOL     OW 1957   2.462   2.223   1.391  0.5721  0.3866 -0.4908
  653SOL    HW1 1958   2.466   2.249   1.290 -0.2476 -0.1083 -1.5730
  653SOL    HW2 1959   2.362   2.240   1.420 -1.3444 -0.4511 -2.6157
  654SOL     OW 1960   2.743   2.748   1.214 -0.1375  0.1177  0.1763
  654SOL    HW1 1961   2.644   2.754   1.242 -2.0391  0.3312 -0.7412
  654SOL    HW2 1962   2.774   2.645   1.201 -0.6703 -5.2800 -0.3990
  655SOL     OW 1963   3.104   2.230   1.238  0.0370 -0.2460 -0.4075
  655SOL    HW1 1964   0.062   2.167   1.274 -0.5396  3.1157  0.4139
  655SOL    HW2 1965   0.018   2.250   1.139 -0.5430  1.0542 -0.9413
  656SOL     OW 1966   2.892   2.805   2.474 -0.3134  0.0950  0.1404
  656SOL    HW1 1967   2.971   2.848   2.427 -3.3839 -0.9782 -0.5435
  656SOL    HW2 1968   2.898   2.811   2.578  1.3987  0.5276 -1.8655
  657SOL     OW 1969   3.045   0.782   0.110  0.2155  0.0638  0.7603
  657SOL    HW1 1970   2.992   0.866   0.095 -1.5465  1.3297 -2.0989
  657SOL    HW2 1971   3.095   0.785   0.195 -0.8087 -0.7139 -0.0821
  658SOL     OW 1972   1.607   1.791   0.656  0.0577 -0.0797 -0.4062
  658SOL    HW1 1973   1.696   1.766   0.702 -0.9486 -0.3358  2.7622
  658SOL    HW2 1974   1.529   1.746   0.703  1.1053  0.2244  0.8345
  659SOL     OW 1975   1.558   0.419   1.346  0.6594 -0.5991  0.0236
  659SOL    HW1 1976   1.481   0.486   1.341 -0.5579  3.6713 -2.0442
  659SOL    HW2 1977   1.520   0.324   1.343  0.2968 -0.5898  0.5369
  660SOL     OW 1978   1.798   1.420   0.061  0.4638 -0.1167  0.5861
  660SOL    HW1 1979   1.842   1.346   0.114 -0.7599 -0.6146 -2.0431
  660SOL    HW2 1980   1.698   1.401   0.042 -1.3014 -2.8143  1.3216
  661SOL     OW 1981   0.013   2.249   0.044  0.4657  0.0650  0.7462
  661SOL    HW1 1982   0.111   2.262   0.033  1.4401  0.5338  0.4989
  661SOL    HW2 1983   3.093   2.283   0.135  2.2032  1.6317  0.8138
  662SOL     OW 1984   0.163   0.715   1.957  0.0416 -0.2595 -0.1285
  662SOL    HW1 1985   0.079   0.738   2.005  2.0890 -2.2392 -3.1962
  662SOL    HW2 1986   0.185   0.783   1.882  0.6774  1.9227  1.2088
  663SOL     OW 1987   1.811   1.363   0.755  0.3461 -0.1752 -0.1722
  663SOL    HW1 1988   1.825   1.265   0.775  0.0582  0.6667 -2.4928
  663SOL    HW2 1989   1.892   1.418   0.782  2.3715  1.6122  0.2442
  664SOL     OW 1990   0.722   0.488   1.241 -0.1499 -0.1617 -0.1150
  664SOL    HW1 1991   0.798   0.550   1.217 -3.9143  1.1001  0.9011
  664SOL    HW2 1992   0.688   0.455   1.153  2.8471  0.2893  0.6087
  665SOL     OW 1993   1.122   3.046   0.171 -0.2853  0.3358  0.3209
  665SOL    HW1 1994   1.055   2.972   0.200 -0.0213  0.3031  0.7603
  665SOL    HW2 1995   1.118   3.068   0.069  2.8406  2.0077  0.6502
  666SOL     OW 1996   3.002   0.185   2.702  0.2019  0.0198  0.4945
  666SOL    HW1 1997   3.097   0.198   2.733 -0.6103  0.3013 -1.0689
  666SOL    HW2 1998   2.950   0.274   2.706 -0.1577  2.8945 -0.3103
  667SOL     OW 1999   2.423   1.880   2.181  0.0914 -0.3573  0.1533
  667SOL    HW1 2000   2.439   1.978   2.152  3.3612  0.1070 -1.7706
  667SOL    HW2 2001   2.332   1.863   2.225  3.4390  2.2613 -1.0606
  668SOL     OW 2002   0.567   1.511   2.507 -0.2309 -0.1872  0.1526
  668SOL    HW1 2003   0.606   1.445   2.577 -1.2395  0.6520  3.2432
  668SOL    HW2 2004   0.500   1.463   2.445 -2.8111  2.5786 -1.2963
  669SOL     OW 2005   2.105   2.703   2.504 -0.4498  0.1269  0.8080
  669SOL    HW1 2006   2.151   2.662   2.427 -0.6276 -0.8146  0.8694
  669SOL    HW2 2007   2.096   2.635   2.575  2.4407  0.6893 -0.5097
  670SOL     OW 2008   2.370   1.053   2.375  0.9739  0.1953  0.4661
  670SOL    HW1 2009   2.455   1.026   2.424  1.2981  0.7385  0.5627
  670SOL    HW2 2010   2.325   1.136   2.414 -0.5438  0.0178  1.0903
  671SOL     OW 2011   2.520   1.306   3.100  0.1501 -0.6210  0.1336
  671SOL    HW1 2012   2.508   1.206   3.092 -0.0500  1.3064  0.8832
  671SOL    HW2 2013   2.620   1.319   3.106 -2.9411  0.3259  0.4223
  672SOL     OW 2014   2.649   1.240   2.524 -0.2079  0.4725 -0.1482
  672SOL    HW1 2015   2.576   1.261   2.596 -3.2499  0.6480  0.7151
  672SOL    HW2 2016   2.650   1.142   2.492  1.2612 -1.2684  1.0199
  673SOL     OW 2017   2.604   0.951   1.339 -0.6129 -0.3411  0.3331
  673SOL    HW1 2018   2.640   1.022   1.272  4.0298  2.7904 -2.4865
  673SOL    HW2 2019   2.674   0.925   1.408  1.7702  0.4115  1.5637
  674SOL     OW 2020   1.929   1.964   1.926  0.2584  0.0784  0.2870
  674SOL    HW1 2021   1.972   1.884   1.973 -0.1175 -1.1592 -1.2949
  674SOL    HW2 2022   1.938   1.942   1.825  0.9889  0.6531  1.0094
  675SOL     OW 2023   0.274   0.736   0.929 -0.2641  0.1366  0.0332
  675SOL    HW1 2024   0.247   0.768   0.833 -2.6432  2.5379 -3.9147
  675SOL    HW2 2025   0.358   0.687   0.924 -2.8981  1.0545 -0.7468
  676SOL     OW 2026   1.988   1.155   1.253 -0.1208  0.6987  0.2271
  676SOL    HW1 2027   2.080   1.202   1.241 -1.1234  2.2237 -3.2363
  676SOL    HW2 2028   1.993   1.062   1.294 -0.2095  0.8767  1.4729
  677SOL     OW 2029   1.908   1.321   2.223 -0.2991 -0.1022  0.1656
  677SOL    HW1 2030   1.821   1.370   2.229  0.9255  0.7004 -1.8118
  677SOL    HW2 2031   1.980   1.368   2.276  0.4715  0.7084 -0.0724
  678SOL     OW 2032   3.106   1.823   0.738 -0.2397  0.4869 -0.2713
  678SOL    HW1 2033   3.100   1.847   0.839  1.3514 -2.4264  1.3666
  678SOL    HW2 2034   3.015   1.806   0.704  0.2080 -4.7473  0.7080
  679SOL     OW 2035   2.745   2.860   0.397 -0.6549  0.3367 -0.3532
  679SOL    HW1 2036   2.812   2.913   0.342  0.8385 -0.6979 -1.2943
  679SOL    HW2 2037   2.784   2.824   0.486 -1.2196 -1.7639  1.0818
  680SOL     OW 2038   0.005   2.545   1.324 -0.0126 -0.7628  0.3851
  680SOL    HW1 2039   0.061   2.501   1.257 -3.6254  0.7225  0.7967
  680SOL    HW2 2040   3.047   2.477   1.364  0.8867  0.5190  0.3704
  681SOL     OW 2041   0.637   1.075   1.174 -0.6109  0.1054 -0.1992
  681SOL    HW1 2042   0.709   1.141   1.210  3.7018  4.6722  0.1734
  681SOL    HW2 2043   0.634   0.991   1.240 -1.2749  0.3221  0.7693
  682SOL     OW 2044   1.800   2.607   1.013 -0.2194  0.4544  0.1193
  682SOL    HW1 2045   1.885   2.639   0.969 -3.9116 -0.1187  0.3071
  682SOL    HW2 2046   1.792   2.647   1.106 -2.6696  1.9100 -0.5468
  683SOL     OW 2047   2.252   1.237   1.152  0.1244  0.5998 -0.4987
  683SOL    HW1 2048   2.261   1.310   1.077  0.1784  0.2416 -0.1072
  683SOL    HW2 2049   2.319   1.160   1.140 -0.1489  1.3167  0.5063
  684SOL     OW 2050   0.914   2.095   1.909  0.2774 -0.1211 -0.5617
  684SOL    HW1 2051   0.819   2.125   1.909  0.2002 -0.1327  0.3415
  684SOL    HW2 2052   0.976   2.168   1.946  1.1068 -2.2806 -0.2225
  685SOL     OW 2053   2.341   1.587   0.272 -0.2530  0.9634  0.1610
  685SOL    HW1 2054   2.359   1.484   0.257 -1.3721 -2.1060  1.1945
  685SOL    HW2 2055   2.252   1.617   0.239  0.7434  0.5134  0.3513
  686SOL     OW 2056   3.041   0.414   0.338  0.4771  0.1495 -0.1297
  686SOL    HW1 2057   3.047   0.430   0.240 -1.9253  1.5764 -0.5665
  686SOL    HW2 2058   2.973   0.479   0.377 -1.6512  0.7257  2.8306
  687SOL     OW 2059   0.997   2.837   0.303 -0.2430 -0.1003  0.0984
  687SOL    HW1 2060   1.052   2.890   0.373  1.9079 -0.2180  1.6551
  687SOL    HW2 2061   1.047   2.752   0.268  1.2133 -2.4971 -0.8317
  688SOL     OW 2062   1.919   1.936   2.364 -0.0437 -0.5369 -0.1593
  688SOL    HW1 2063   1.829   1.891   2.372 -0.3017 -2.9445  1.1675
  688SOL    HW2 2064   1.954   1.964   2.458  0.8315  2.0017  0.9443
  689SOL     OW 2065   2.662   1.004   2.027  0.6324 -0.0051  0.2146
  689SOL    HW1 2066   2.563   1.015   1.996  0.4478 -1.7395 -0.8470
  689SOL    HW2 2067   2.709   1.090   2.052 -1.4594 -0.2565 -2.1061
  690SOL     OW 2068   1.700   1.013   0.950 -0.3946 -0.7047  0.5771
  690SOL    HW1 2069   1.626   0.960   0.913  0.9562  0.9704  0.9236
  690SOL    HW2 2070   1.750   1.061   0.872 -0.0709  1.9015  0.0533
  691SOL     OW 2071   1.035   1.498   1.556  0.2948 -0.0214  0.2423
  691SOL    HW1 2072   1.069   1.403   1.540 -1.0106 -2.8030 -2.6088
  691SOL    HW2 2073   1.044   1.551   1.472  2.0349 -0.6877 -0.6707
  692SOL     OW 2074   1.575   0.179   2.183 -0.7574 -0.0587 -0.1121
  692SOL    HW1 2075   1.575   0.273   2.227 -0.6846  0.5270 -0.4053
  692SOL    HW2 2076   1.670   0.137   2.185  0.2514 -0.8198 -0.4310
  693SOL     OW 2077   0.347   1.137   2.843  0.7681  0.1516 -0.0463
  693SOL    HW1 2078   0.417   1.210   2.865  0.6373 -1.6827  1.7912
  693SOL    HW2 2079   0.387   1.040   2.838  2.0168 -1.6311 -0.9299
  694SOL     OW 2080   2.322   2.579   0.646  0.0243  0.5844  0.5550
  694SOL    HW1 2081   2.306   2.643   0.721 -0.6917 -1.1600 -3.0009
  694SOL    HW2 2082   2.242   2.561   0.592  0.1018  0.8789  0.7652
  695SOL     OW 2083   1.643   1.241   2.903 -0.0325  0.1054 -0.2339
  695SOL    HW1 2084   1.591   1.295   2.976 -1.8310  0.0030 -2.7448
  695SOL    HW2 2085   1.744   1.254   2.908  0.1377  3.2227  0.2113
  696SOL     OW 2086   1.432   0.171   1.396 -0.2232 -0.1577  0.3180
  696SOL    HW1 2087   1.390   0.129   1.315 -1.5539  3.1248 -1.6484
  696SOL    HW2 2088   1.452   0.101   1.468 -0.1562  4.1430  1.5817
  697SOL     OW 2089   1.380   0.263   1.996  0.1486 -0.8609 -0.4855
  697SOL    HW1 2090   1.380   0.368   2.009 -1.5705  1.3821  0.8947
  697SOL    HW2 2091   1.447   0.212   2.058  0.8094  1.3404 -0.3965
  698SOL     OW 2092   1.876   1.145   2.508 -0.0339  0.2688 -0.0707
  698SOL    HW1 2093   1.815   1.207   2.456 -2.4197 -0.3641  0.1758
  698SOL    HW2 2094   1.878   1.052   2.463  1.3061 -2.3619 -0.2595
  699SOL     OW 2095   1.480   1.227   1.101  0.3099 -0.2243  0.4139
  699SOL    HW1 2096   1.558   1.172   1.129 -0.9308 -1.0005  1.9107
  699SOL    HW2 2097   1.472   1.220   0.999 -1.3518 -0.1637 -1.3800
  700SOL     OW 2098   1.636   3.059   0.204  0.6892  0.2414 -0.2393
  700SOL    HW1 2099   1.677   2.959   0.211  1.5222 -4.1597 -1.3878
  700SOL    HW2 2100   1.539   3.054   0.175 -1.1210  0.6900 -1.4518
  701SOL     OW 2101   0.496   0.064   1.563  0.6874 -0.1261  0.0754
  701SOL    HW1 2102   0.561   3.107   1.519 -1.9878  2.1546 -0.0495
  701SOL    HW2 2103   0.462   0.027   1.656 -2.4509 -0.9302  2.5775
  702SOL     OW 2104   1.467   2.728   1.077  0.5299 -0.0397  0.0270
  702SOL    HW1 2105   1.541   2.695   1.139 -0.4085 -0.0250 -1.8891
  702SOL    HW2 2106   1.505   2.798   1.011  0.5926 -1.6643  0.6032
  703SOL     OW 2107   2.443   0.016   2.162 -0.0257 -0.7971  0.6227
  703SOL    HW1 2108   2.474   3.038   2.207  1.0888  0.7649 -0.8254
  703SOL    HW2 2109   2.498   0.023   2.074  0.5668 -1.2954 -0.1228
  704SOL     OW 2110   1.302   1.766   1.131  0.4365  0.1014 -0.1136
  704SOL    HW1 2111   1.230   1.714   1.079  0.4066 -0.6414 -0.3144
  704SOL    HW2 2112   1.262   1.820   1.211 -1.2587 -1.0626 -0.6198
  705SOL     OW 2113   2.778   1.506   2.110  0.5122  0.0828 -0.0940
  705SOL    HW1 2114   2.734   1.553   2.188 -0.1679  0.6955  1.2383
  705SOL    HW2 2115   2.823   1.419   2.137 -0.2098 -1.2038  3.0639
  706SOL     OW 2116   1.552   2.953   0.658 -0.4560 -0.8933 -0.1577
  706SOL    HW1 2117   1.510   2.861   0.659  1.2415 -0.6110  3.1943
  706SOL    HW2 2118   1.504   3.014   0.589 -1.6983 -2.7654 -0.3990
  707SOL     OW 2119   1.045   2.587   2.510 -0.2081  0.4118 -1.2261
  707SOL    HW1 2120   0.991   2.550   2.432 -0.4314  0.4927  2.2689
  707SOL    HW2 2121   1.096   2.516   2.569 -1.1074 -0.3621 -0.6386
  708SOL     OW 2122   0.376   2.563   1.399 -0.5120 -0.4669 -0.4046
  708SOL    HW1 2123   0.289   2.537   1.442  0.6562 -0.6883 -0.7008
  708SOL    HW2 2124   0.428   2.475   1.378 -0.1708  2.2713  1.6575
  709SOL     OW 2125   2.225   0.730   2.108 -0.0223 -0.2290 -0.0264
  709SOL    HW1 2126   2.280   0.654   2.068 -0.3912  0.8890  0.3302
  709SOL    HW2 2127   2.132   0.728   2.062  1.2404  0.7285 -0.3749
  710SOL     OW 2128   3.009   0.619   1.615  0.0996  0.1304 -0.1846
  710SOL    HW1 2129   2.952   0.606   1.534  1.4880 -1.3066  1.6267
  710SOL    HW2 2130   3.103   0.649   1.587 -0.4813 -2.1774  0.2803
  711SOL     OW 2131   3.075   2.374   0.294  0.1660 -0.8707  0.2173
  711SOL    HW1 2132   3.094   2.356   0.390  0.8838  0.8144 -1.6682
  711SOL    HW2 2133   0.021   2.457   0.263  0.8228 -2.6309 -0.9079
  712SOL     OW 2134   0.273   2.557   2.726  0.4691  0.0561 -0.1091
  712SOL    HW1 2135   0.360   2.529   2.682 -1.2637  0.0555  0.4576
  712SOL    HW2 2136   0.227   2.630   2.674 -2.7655  1.0749 -2.2007
  713SOL     OW 2137   2.074   0.736   0.026 -0.6079  0.5481 -0.5490
  713SOL    HW1 2138   2.001   0.802   0.048 -2.3591  1.0028  0.6086
  713SOL    HW2 2139   2.053   0.708   3.037 -0.0561  1.0731 -2.8310
  714SOL     OW 2140   1.445   2.167   0.427 -0.1605  0.2877 -0.0549
  714SOL    HW1 2141   1.510   2.088   0.421 -0.3842 -0.2408  1.3480
  714SOL    HW2 2142   1.461   2.214   0.515  1.9783 -1.9861 -1.1486
  715SOL     OW 2143   0.064   0.113   0.579  0.2364 -0.6353  0.4121
  715SOL    HW1 2144   0.116   0.118   0.491 -1.4491  2.6766 -3.5493
  715SOL    HW2 2145   0.112   0.056   0.650  2.3775 -2.7437  1.1164
  716SOL     OW 2146   0.703   0.165   2.287 -0.1147  0.0828 -0.0858
  716SOL    HW1 2147   0.652   0.247   2.323 -0.3697 -0.9820 -3.1878
  716SOL    HW2 2148   0.654   0.080   2.318  1.0529  0.8357 -0.3533
  717SOL     OW 2149   0.386   0.420   0.004 -0.8900 -0.1161 -0.3253
  717SOL    HW1 2150   0.429   0.337   3.078 -1.3583 -1.3843 -1.8297
  717SOL    HW2 2151   0.298   0.428   3.065  0.4394 -1.5203  0.7622
  718SOL     OW 2152   1.136   0.498   0.549 -0.4487 -0.1736 -0.2188
  718SOL    HW1 2153   1.159   0.557   0.628  1.3042  1.1361 -1.8147
  718SOL    HW2 2154   1.213   0.436   0.530 -0.4733  2.3826 -0.6072
  719SOL     OW 2155   2.394   2.239   2.741  0.1364  0.2701  0.0907
  719SOL    HW1 2156   2.376   2.300   2.658  0.5103  2.4329 -2.9879
  719SOL    HW2 2157   2.308   2.193   2.777 -1.6464 -1.2864 -0.4909
  720SOL     OW 2158   1.589   0.829   2.075  0.3227  0.1489 -0.2658
  720SOL    HW1 2159   1.586   0.796   2.172 -0.5132 -3.9212  2.3668
  720SOL    HW2 2160   1.595   0.750   2.009  1.3505  2.9306  1.4743
  721SOL     OW 2161   2.789   0.262   1.009  0.4505 -0.3365  0.3469
  721SOL    HW1 2162   2.690   0.263   1.011  3.7220 -1.9588 -1.8909
  721SOL    HW2 2163   2.809   0.233   0.911 -3.5265  3.0626 -0.3818
  722SOL     OW 2164   1.302   2.151   2.531  0.2198  0.1348  0.0057
  722SOL    HW1 2165   1.390   2.198   2.510  2.7513  2.1470  0.9692
  722SOL    HW2 2166   1.311   2.094   2.611 -2.4353  1.5746  1.2051
  723SOL     OW 2167   1.076   0.280   0.721  0.1394  0.5876 -0.4502
  723SOL    HW1 2168   1.085   0.353   0.649  0.5378  1.0482  0.2699
  723SOL    HW2 2169   1.118   0.315   0.806  1.2339 -0.0428  2.9228
  724SOL     OW 2170   0.803   2.128   2.427 -0.4777  0.0979  0.0596
  724SOL    HW1 2171   0.803   2.107   2.528  0.0415 -0.6440  1.1696
  724SOL    HW2 2172   0.780   2.040   2.384  0.0434  1.4561  0.7380
  725SOL     OW 2173   0.193   0.926   1.092  0.4786 -0.4031 -0.1536
  725SOL    HW1 2174   0.278   0.978   1.122  2.9132  0.5034 -2.0220
  725SOL    HW2 2175   0.228   0.858   1.027  1.0592  0.7992  2.1945
  726SOL     OW 2176   1.700   0.163   0.462 -0.1455  0.4020  0.2688
  726SOL    HW1 2177   1.674   0.259   0.475 -0.0146  0.6638  0.9704
  726SOL    HW2 2178   1.721   0.116   0.549  4.6217  0.6126  1.0258
  727SOL     OW 2179   2.036   0.965   2.303 -0.1546  0.0420  0.5463
  727SOL    HW1 2180   2.058   1.008   2.211  1.3345 -1.5164 -3.5406
  727SOL    HW2 2181   2.112   0.941   2.366 -2.7334 -3.8682  0.7538
  728SOL     OW 2182   1.713   2.667   1.636 -0.0092 -0.5358  0.3058
  728SOL    HW1 2183   1.789   2.715   1.680  3.2544  0.7817 -0.2327
  728SOL    HW2 2184   1.747   2.631   1.546  0.0178  0.3209 -1.0005
  729SOL     OW 2185   1.739   0.358   1.780 -0.1229 -0.6150 -0.9628
  729SOL    HW1 2186   1.803   0.381   1.704 -1.4040 -0.8753  2.2313
  729SOL    HW2 2187   1.744   0.421   1.859 -1.4758  2.2484 -0.7798
  730SOL     OW 2188   0.869   1.662   1.670 -0.1789 -0.0450  0.3904
  730SOL    HW1 2189   0.893   1.757   1.660 -2.8346 -1.8518  0.8337
  730SOL    HW2 2190   0.935   1.604   1.617  0.1551 -2.2131 -2.8187
  731SOL     OW 2191   0.362   0.053   0.113 -0.2341  0.0493 -0.5368
  731SOL    HW1 2192   0.325   0.144   0.090 -0.2403 -3.3304 -0.8957
  731SOL    HW2 2193   0.291   3.092   0.102  2.9500 -0.3828  0.6626
  732SOL     OW 2194   0.415   0.679   0.413 -0.1992  0.2922 -0.0531
  732SOL    HW1 2195   0.402   0.593   0.354 -0.6459 -3.6427 -1.3998
  732SOL    HW2 2196   0.433   0.764   0.356 -1.0887  2.2962 -0.1695
  733SOL     OW 2197   1.593   1.658   1.835  0.4139 -0.8014  0.0740
  733SOL    HW1 2198   1.532   1.716   1.898 -2.9747  1.7687  2.1065
  733SOL    HW2 2199   1.542   1.577   1.798 -2.1619 -4.1865  0.3744
  734SOL     OW 2200   3.021   2.435   2.044  0.2108  0.2126  0.1033
  734SOL    HW1 2201   3.088   2.395   1.975  1.1437 -4.4845 -2.7414
  734SOL    HW2 2202   2.953   2.497   2.003  1.1478  0.2737  2.5328
  735SOL     OW 2203   1.269   2.775   0.723  0.1386 -0.1534 -0.4665
  735SOL    HW1 2204   1.223   2.705   0.781  0.9029  3.1836  0.4095
  735SOL    HW2 2205   1.357   2.743   0.682  0.2420  0.2502  0.4454
  736SOL     OW 2206   1.119   0.930   2.890  0.1065  0.4322  0.0689
  736SOL    HW1 2207   1.180   0.867   2.839 -2.1450 -0.3390  2.8646
  736SOL    HW2 2208   1.162   1.022   2.900 -1.8626 -1.6755  0.5558
  737SOL     OW 2209   0.175   1.032   0.481  0.0626  0.3392  0.1060
  737SOL    HW1 2210   0.195   1.089   0.561  0.4345  0.4299 -0.6789
  737SOL    HW2 2211   0.081   0.993   0.484 -0.3741 -0.5792  0.5635
  738SOL     OW 2212   0.292   2.860   1.612  0.4359 -0.8473  0.2166
  738SOL    HW1 2213   0.388   2.828   1.606  0.9236 -1.1662 -1.1288
  738SOL    HW2 2214   0.263   2.902   1.521  2.8521  1.3899  0.6364
  739SOL     OW 2215   1.382   2.663   0.268  0.1385 -0.3084  0.9193
  739SOL    HW1 2216   1.435   2.607   0.331 -2.9551  3.2081 -0.9073
  739SOL    HW2 2217   1.291   2.622   0.271  0.6505  1.1579 -2.3341
  740SOL     OW 2218   1.764   2.717   1.261 -0.4410  0.3044  0.6453
  740SOL    HW1 2219   1.685   2.775   1.305 -1.6948  0.9462  2.4349
  740SOL    HW2 2220   1.799   2.653   1.330 -0.2141  0.9989 -1.1664
  741SOL     OW 2221   2.120   0.418   0.715  0.1901  0.3384  0.1089
  741SOL    HW1 2222   2.173   0.491   0.756  0.8829 -1.1224 -2.0018
  741SOL    HW2 2223   2.161   0.390   0.628 -0.6683  0.1260  1.4077
  742SOL     OW 2224   0.806   2.710   2.260 -0.0589  0.4932 -0.0512
  742SOL    HW1 2225   0.789   2.711   2.160 -1.3663 -1.7976  3.6761
  742SOL    HW2 2226   0.844   2.616   2.285  1.9528  0.4043 -1.4825
  743SOL     OW 2227   2.173   1.095   1.698 -0.6495  0.6495 -0.2762
  743SOL    HW1 2228   2.215   1.077   1.602 -1.1796 -1.2301 -3.3434
  743SOL    HW2 2229   2.077   1.066   1.694  1.4899 -0.3006 -0.6952
  744SOL     OW 2230   2.271   0.623   0.837 -0.2940 -1.0623 -0.0982
  744SOL    HW1 2231   2.350   0.651   0.896 -1.0930 -0.4436 -0.9584
  744SOL    HW2 2232   2.184   0.657   0.880 -1.5077  1.1590  1.0758
  745SOL     OW 2233   2.180   1.305   1.873  0.1434  0.6225  0.0180
  745SOL    HW1 2234   2.255   1.366   1.853  0.8947  1.4387 -3.0877
  745SOL    HW2 2235   2.178   1.224   1.801 -1.5079 -1.0322 -1.2626
  746SOL     OW 2236   1.344   1.555   0.624 -0.5058 -0.0657 -0.4700
  746SOL    HW1 2237   1.427   1.507   0.658  0.6432  0.4927 -1.9276
  746SOL    HW2 2238   1.266   1.534   0.687  0.3947  0.9466  0.6220
  747SOL     OW 2239   2.087   1.539   1.284 -0.1549 -0.2587 -0.3520
  747SOL    HW1 2240   2.029   1.499   1.207 -3.1939 -0.7945 -1.7602
  747SOL    HW2 2241   2.060   1.504   1.378 -0.9841 -3.1251  0.9720
  748SOL     OW 2242   0.161   2.862   0.323  0.0464  0.3136  0.0118
  748SOL    HW1 2243   0.205   2.883   0.413  3.2034 -3.0232 -1.1833
  748SOL    HW2 2244   0.231   2.818   0.262 -0.9071 -2.8322  0.6758
  749SOL     OW 2245   0.193   0.629   2.302 -0.5043 -0.1559 -0.4426
  749SOL    HW1 2246   0.268   0.669   2.242  1.0412  0.3146  1.0017
  749SOL    HW2 2247   0.104   0.656   2.273  4.0946 -1.2380  0.3138
  750SOL     OW 2248   1.642   2.731   2.011  1.1743 -0.1242  0.0491
  750SOL    HW1 2249   1.591   2.800   1.957  0.9429  0.5700 -2.0871
  750SOL    HW2 2250   1.737   2.764   2.030 -0.7350  1.5763  1.7132
  751SOL     OW 2251   2.592   0.385   0.401  0.2461 -0.2079  0.3225
  751SOL    HW1 2252   2.497   0.409   0.371 -2.4323 -2.1959  2.6908
  751SOL    HW2 2253   2.592   0.395   0.506 -1.3068 -1.0932  4.3534
  752SOL     OW 2254   0.259   1.969   0.943  0.3898 -0.1357  0.4760
  752SOL    HW1 2255   0.166   1.927   0.959 -0.6725 -1.3932 -1.2479
  752SOL    HW2 2256   0.264   2.071   0.934  2.6606  0.8641  0.3938
  753SOL     OW 2257   1.073   0.174   1.111 -0.3667  0.1933  0.3946
  753SOL    HW1 2258   1.016   0.123   1.044  1.3923  2.5073  3.8101
  753SOL    HW2 2259   1.017   0.219   1.176  0.4035  1.0652 -1.6294
  754SOL     OW 2260   0.668   3.029   2.392  0.6038  0.2924  0.1146
  754SOL    HW1 2261   0.634   2.989   2.304  0.4341  3.0047  1.7292
  754SOL    HW2 2262   0.744   2.977   2.426 -4.4263  1.6426 -3.1050
  755SOL     OW 2263   2.220   1.111   0.289 -0.3908  0.1983  0.2430
  755SOL    HW1 2264   2.256   1.047   0.357 -2.1411 -0.5195 -2.2922
  755SOL    HW2 2265   2.216   1.074   0.194  1.8683  1.0332 -0.7220
  756SOL     OW 2266   2.314   1.977   2.568 -0.6640  0.0448  0.7304
  756SOL    HW1 2267   2.371   1.923   2.634 -1.4891 -0.8891  1.6679
  756SOL    HW2 2268   2.377   2.042   2.518 -0.6040 -2.5783 -0.5117
  757SOL     OW 2269   1.631   0.309   0.822 -0.2474  0.5040 -0.0272
  757SOL    HW1 2270   1.549   0.247   0.839 -4.0893 -5.8474  0.1216
  757SOL    HW2 2271   1.697   0.264   0.759 -0.6025 -0.9444 -0.7250
  758SOL     OW 2272   1.611   2.590   0.839  0.0296  0.2329  0.1598
  758SOL    HW1 2273   1.676   2.598   0.921 -0.5688  0.9450  1.4200
  758SOL    HW2 2274   1.539   2.521   0.853 -2.7232 -3.1133  0.6408
  759SOL     OW 2275   2.488   0.744   1.220  0.4543  0.5685 -0.6494
  759SOL    HW1 2276   2.518   0.827   1.271  0.5918  2.1792 -1.0156
  759SOL    HW2 2277   2.555   0.669   1.230  0.0053 -0.0031 -1.2501
  760SOL     OW 2278   2.440   1.066   1.069 -0.2817 -0.4628 -0.0981
  760SOL    HW1 2279   2.525   1.123   1.084 -1.5738  1.0188 -2.0777
  760SOL    HW2 2280   2.464   0.974   1.031  0.2209 -2.4983  3.0375
  761SOL     OW 2281   0.389   0.493   0.647  0.3686  0.6457 -0.4197
  761SOL    HW1 2282   0.444   0.568   0.600 -0.7748  1.6962  4.0622
  761SOL    HW2 2283   0.290   0.496   0.631  0.4221 -1.3854 -1.8275
  762SOL     OW 2284   1.761   2.016   1.313 -0.1967  0.2060  0.0803
  762SOL    HW1 2285   1.856   1.976   1.319 -0.8147 -0.5387  0.9488
  762SOL    HW2 2286   1.691   1.977   1.376  0.2841 -1.4416  1.3189
  763SOL     OW 2287   1.310   1.367   1.961  0.1272 -0.7067 -0.2144
  763SOL    HW1 2288   1.309   1.433   2.034 -0.1721 -1.3169 -0.0190
  763SOL    HW2 2289   1.230   1.304   1.964 -1.0353 -2.5142 -0.6268
  764SOL     OW 2290   2.962   1.880   2.339 -0.1379 -0.2786  0.1974
  764SOL    HW1 2291   2.924   1.923   2.252  1.0403 -1.1329 -2.4263
  764SOL    HW2 2292   3.063   1.892   2.345  1.0953  0.2001  1.5361
  765SOL     OW 2293   1.504   2.497   1.346  0.2061  0.0003 -0.8919
  765SOL    HW1 2294   1.601   2.481   1.339 -1.7321  0.2472  1.2676
  765SOL    HW2 2295   1.481   2.559   1.430 -2.1552  3.5452 -0.4984
  766SOL     OW 2296   3.059   2.598   2.725  0.4285 -0.6998  0.0159
  766SOL    HW1 2297   2.990   2.674   2.718 -1.0034 -0.0202  1.1290
  766SOL    HW2 2298   3.013   2.509   2.704 -2.1158  0.5732  1.7219
  767SOL     OW 2299   1.359   0.718   2.309  0.4293  0.4613  0.3159
  767SOL    HW1 2300   1.447   0.756   2.344  0.9887  0.1354  4.1370
  767SOL    HW2 2301   1.312   0.660   2.382  0.8440 -0.5693  0.3290
  768SOL     OW 2302   1.241   2.001   0.142  0.4270 -0.5127  0.5294
  768SOL    HW1 2303   1.331   2.043   0.160  1.5958  0.1037 -2.3317
  768SOL    HW2 2304   1.231   1.906   0.183  0.7296 -0.6137  0.8448
  769SOL     OW 2305   0.370   2.388   1.095 -0.4867  0.1405 -0.2944
  769SOL    HW1 2306   0.401   2.356   1.186 -0.4624 -0.6650 -1.2821
  769SOL    HW2 2307   0.307   2.467   1.109 -0.3320 -3.0777  0.1019
  770SOL     OW 2308   1.759   0.665   0.039 -0.2490  0.2677 -0.4363
  770SOL    HW1 2309   1.774   0.634   3.054 -0.1695 -0.3960  0.8228
  770SOL    HW2 2310   1.709   0.751   0.036  0.4160 -1.5060  0.8675
  771SOL     OW 2311   0.209   2.968   2.198 -0.2562  0.3350  0.1135
  771SOL    HW1 2312   0.253   2.937   2.289  3.1152  3.1132  4.0530
  771SOL    HW2 2313   0.277   2.971   2.124 -0.5122 -0.2829  0.4576
  772SOL     OW 2314   2.029   2.990   2.282 -0.0180  0.2431 -0.1005
  772SOL    HW1 2315   2.106   3.016   2.214  2.8722  0.3815 -2.0596
  772SOL    HW2 2316   2.016   3.068   2.351  0.7399  2.3279  3.7855
  773SOL     OW 2317   0.955   1.905   1.700  0.0689  0.0763  0.7841
  773SOL    HW1 2318   1.047   1.882   1.722  0.2805 -0.0414  2.3914
  773SOL    HW2 2319   0.929   1.973   1.767  2.6432 -2.6591 -1.9215
  774SOL     OW 2320   1.218   0.071   2.062  0.0568  1.0411  0.2433
  774SOL    HW1 2321   1.274   0.133   2.003 -1.0964 -1.7070 -0.4744
  774SOL    HW2 2322   1.225   0.111   2.156  2.3921 -1.7231 -0.1710
  775SOL     OW 2323   2.025   2.956   3.062 -0.3614 -0.0012  0.0629
  775SOL    HW1 2324   2.032   2.855   3.074 -0.6354  0.6602  2.2797
  775SOL    HW2 2325   1.933   2.988   3.095 -0.4979 -2.9261  0.2325
  776SOL     OW 2326   2.693   0.821   2.238 -0.6574 -0.1508 -0.3371
  776SOL    HW1 2327   2.758   0.744   2.215 -0.0765  0.8668  1.6448
  776SOL    HW2 2328   2.700   0.894   2.166 -1.0781  1.0370  0.5235
  777SOL     OW 2329   2.451   2.145   2.139  0.3794  0.2961 -0.1092
  777SOL    HW1 2330   2.444   2.147   2.244  0.4687 -1.4152  2.4723
  777SOL    HW2 2331   2.543   2.171   2.109 -3.3244  0.4101  3.8731
  778SOL     OW 2332   1.966   0.830   2.661  0.0818 -0.0691 -0.2202
  778SOL    HW1 2333   1.886   0.842   2.596 -0.4314  0.1876 -0.0645
  778SOL    HW2 2334   2.054   0.845   2.610  1.0479  1.4261  1.6004
  779SOL     OW 2335   0.125   0.198   0.054  0.3384 -0.1727  0.2812
  779SOL    HW1 2336   0.109   0.256   3.077 -1.5331 -0.9159 -0.0507
  779SOL    HW2 2337   0.074   0.111   0.041 -1.4099  2.1038 -1.8302
  780SOL     OW 2338   2.649   0.626   3.051 -0.4716  0.0051  0.0138
  780SOL    HW1 2339   2.678   0.570   0.024  0.6410 -0.5827 -0.7728
  780SOL    HW2 2340   2.554   0.660   3.066 -0.2828  1.3035 -3.5914
  781SOL     OW 2341   0.228   2.948   1.359  0.3140  0.1737 -0.3666
  781SOL    HW1 2342   0.283   2.918   1.284  1.8192 -0.3420  0.6807
  781SOL    HW2 2343   0.141   2.902   1.371  2.2741  1.4985  2.1318
  782SOL     OW 2344   2.060   2.538   0.542 -0.1378 -0.0249  0.1825
  782SOL    HW1 2345   2.055   2.602   0.463  1.1674  0.6631  1.8228
  782SOL    HW2 2346   1.988   2.570   0.609  0.0908  0.3649 -0.7325
  783SOL     OW 2347   0.692   1.387   1.479 -0.2008  0.6874 -0.3713
  783SOL    HW1 2348   0.665   1.347   1.567 -0.3947 -0.7308  1.5908
  783SOL    HW2 2349   0.750   1.326   1.422  0.6288  0.5856  2.8436
  784SOL     OW 2350   1.295   0.761   2.728 -0.2726 -0.3946  0.5316
  784SOL    HW1 2351   1.292   0.706   2.645 -1.7650  2.5930  3.3781
  784SOL    HW2 2352   1.386   0.801   2.734  1.0284 -2.7964  0.5263
  785SOL     OW 2353   2.269   0.307   1.126 -0.3277  0.0560  0.1216
  785SOL    HW1 2354   2.290   0.397   1.170  2.9544 -0.8089 -2.3010
  785SOL    HW2 2355   2.171   0.305   1.105  1.1435 -0.4615 -1.0391
  786SOL     OW 2356   1.242   2.656   2.124  0.2050 -0.0580  0.4712
  786SOL    HW1 2357   1.285   2.627   2.036 -0.2931  0.1611  2.2815
  786SOL    HW2 2358   1.217   2.574   2.182  0.1488 -0.0746 -0.4534
  787SOL     OW 2359   1.779   0.109   1.217 -0.0087  0.1612  0.0650
  787SOL    HW1 2360   1.814   0.130   1.312 -0.0059  2.1311 -0.8364
  787SOL    HW2 2361   1.835   0.153   1.149 -1.8939 -0.1302  0.8035
  788SOL     OW 2362   0.092   0.772   0.351 -0.4182 -0.1338  0.1705
  788SOL    HW1 2363   0.098   0.679   0.391  0.0483  0.4794 -0.3709
  788SOL    HW2 2364   0.161   0.828   0.391 -1.9141 -0.0631  0.5211
  789SOL     OW 2365   0.750   1.852   1.356 -0.1770 -0.4014 -0.0259
  789SOL    HW1 2366   0.837   1.905   1.373  2.8980  2.5254  2.6705
  789SOL    HW2 2367   0.698   1.834   1.443 -0.5313  0.7144 -0.4603
  790SOL     OW 2368   0.580   0.637   2.289 -0.0259 -0.0362  0.9328
  790SOL    HW1 2369   0.612   0.677   2.376  2.5620 -1.3832 -0.3607
  790SOL    HW2 2370   0.518   0.698   2.232 -1.0111 -0.0522  0.2133
  791SOL     OW 2371   1.879   0.507   0.707  0.2976  0.3328 -0.7572
  791SOL    HW1 2372   1.860   0.515   0.808  0.5610 -2.5384 -0.1040
  791SOL    HW2 2373   1.967   0.461   0.687  0.2134  0.0521 -0.0440
  792SOL     OW 2374   1.133   2.842   1.875 -0.4702 -0.3608  0.4715
  792SOL    HW1 2375   1.088   2.922   1.918  1.1574  0.0885  1.4710
  792SOL    HW2 2376   1.222   2.811   1.921  1.3343 -0.0387  0.9402
  793SOL     OW 2377   0.683   0.124   0.481  0.2044  0.3250 -0.1921
  793SOL    HW1 2378   0.688   0.202   0.546  1.1290 -1.2241 -2.2723
  793SOL    HW2 2379   0.712   0.039   0.532 -1.8110 -0.8441  1.6659
  794SOL     OW 2380   0.221   1.424   1.780 -0.0836  0.2727 -0.4606
  794SOL    HW1 2381   0.164   1.392   1.864 -1.4475  0.7396  0.3145
  794SOL    HW2 2382   0.160   1.476   1.716 -0.8779 -0.1705  0.0523
  795SOL     OW 2383   0.327   2.326   2.143  0.2403  0.1844 -0.3762
  795SOL    HW1 2384   0.313   2.411   2.203 -1.9187  2.9516  0.8075
  795SOL    HW2 2385   0.346   2.250   2.207  1.7806  1.7837 -1.4390
  796SOL     OW 2386   2.402   0.564   1.968  0.3340 -0.2662  0.1356
  796SOL    HW1 2387   2.447   0.474   1.975  2.2958  2.7771  0.1349
  796SOL    HW2 2388   2.463   0.633   1.927 -0.2836  2.6071 -0.6458
  797SOL     OW 2389   2.534   2.596   2.672  0.1342  0.2381  0.3020
  797SOL    HW1 2390   2.495   2.689   2.694 -0.4530  0.7569 -0.8592
  797SOL    HW2 2391   2.609   2.599   2.603 -3.0144 -1.2436  1.9566
  798SOL     OW 2392   2.948   0.026   2.159 -0.6060 -0.6109  0.6659
  798SOL    HW1 2393   3.037   0.072   2.148 -0.5000 -0.2065 -1.1626
  798SOL    HW2 2394   2.883   0.078   2.219 -2.2031 -0.1104 -1.5824
  799SOL     OW 2395   0.123   2.595   2.138  0.3780  0.9747 -0.1317
  799SOL    HW1 2396   0.156   2.571   2.232  1.3320  1.8068  2.5365
  799SOL    HW2 2397   0.036   2.544   2.114 -4.9209 -1.1478 -1.5029
  800SOL     OW 2398   2.985   1.968   2.961 -0.1788 -0.9110  0.2519
  800SOL    HW1 2399   2.984   2.073   2.955  0.1717 -0.0153 -0.2943
  800SOL    HW2 2400   3.064   1.938   3.013 -3.3666 -1.3427 -2.9411
  801SOL     OW 2401   1.680   1.293   1.417 -0.2958 -0.1547 -0.0613
  801SOL    HW1 2402   1.706   1.225   1.354 -2.3669  1.5565  0.2505
  801SOL    HW2 2403   1.581   1.294   1.432 -1.1483  0.0538 -0.2334
  802SOL     OW 2404   0.206   1.317   0.536 -0.3575 -0.0297 -0.2417
  802SOL    HW1 2405   0.154   1.306   0.625  2.3326 -1.1171  1.4799
  802SOL    HW2 2406   0.262   1.399   0.542  0.4677 -0.1085  1.4629
  803SOL     OW 2407   1.420   1.758   1.998 -0.0159 -0.0550  0.3517
  803SOL    HW1 2408   1.378   1.849   1.983 -0.7400 -1.8868  0.3972
  803SOL    HW2 2409   1.351   1.683   2.006 -2.6110 -1.9300 -3.1853
  804SOL     OW 2410   1.950   1.414   1.078 -0.0292 -0.0693 -0.0635
  804SOL    HW1 2411   1.951   1.315   1.092  0.0159  2.1784  0.5305
  804SOL    HW2 2412   2.007   1.448   1.003  1.9866  0.5309 -1.2638
  805SOL     OW 2413   2.928   1.126   2.930 -0.7587  0.3491 -0.4000
  805SOL    HW1 2414   2.896   1.168   2.845 -1.0536  2.1597 -1.1400
  805SOL    HW2 2415   3.027   1.097   2.928 -2.0063  0.3380 -0.0103
  806SOL     OW 2416   0.423   2.486   0.339 -0.1919  0.1569  0.0820
  806SOL    HW1 2417   0.510   2.545   0.331  2.1166  0.7014 -1.0838
  806SOL    HW2 2418   0.360   2.527   0.405  0.3168 -2.8846  0.8018
  807SOL     OW 2419   2.413   1.478   2.905 -0.6648  0.0471 -0.2948
  807SOL    HW1 2420   2.460   1.439   2.985  0.0402  0.4139 -3.5063
  807SOL    HW2 2421   2.339   1.539   2.950 -1.6314  1.8445  2.5189
  808SOL     OW 2422   1.230   1.933   1.326 -0.2719 -0.2733 -0.0188
  808SOL    HW1 2423   1.150   1.966   1.377  1.5033 -3.0073 -1.5335
  808SOL    HW2 2424   1.294   2.010   1.322 -0.6883 -0.8531  0.3541
  809SOL     OW 2425   2.846   0.603   0.382  0.4598  0.5304 -0.6025
  809SOL    HW1 2426   2.852   0.606   0.478  2.2678  1.8252 -3.0905
  809SOL    HW2 2427   2.805   0.688   0.347  0.2696  1.4073 -1.7213
  810SOL     OW 2428   0.774   1.414   0.640  0.3919  0.2590  0.1253
  810SOL    HW1 2429   0.754   1.437   0.740 -1.1233 -1.2422 -0.0504
  810SOL    HW2 2430   0.805   1.497   0.589  0.4956  0.3873 -2.2003
  811SOL     OW 2431   1.854   2.532   1.439  0.2314 -0.6982  0.0580
  811SOL    HW1 2432   1.850   2.437   1.402  1.0641  0.8713 -0.4916
  811SOL    HW2 2433   1.948   2.563   1.462 -2.4470  3.2630  0.4574
  812SOL     OW 2434   1.440   2.632   1.620 -0.2242  0.1332  0.2728
  812SOL    HW1 2435   1.528   2.661   1.652 -2.0354  1.5438  1.7418
  812SOL    HW2 2436   1.383   2.711   1.606  1.4209 -0.1700 -0.0405
  813SOL     OW 2437   0.742   2.923   1.671  0.2854  0.1603 -1.1217
  813SOL    HW1 2438   0.764   2.826   1.663 -1.2942 -3.1396 -1.6281
  813SOL    HW2 2439   0.692   2.942   1.587  1.9182 -0.3130  3.9739
  814SOL     OW 2440   0.889   2.892   2.435  0.1254 -0.6906 -0.5762
  814SOL    HW1 2441   0.978   2.935   2.412 -2.9553  0.0221 -0.9245
  814SOL    HW2 2442   0.868   2.816   2.369  2.1360  0.4629  1.0160
  815SOL     OW 2443   0.761   0.114   2.706 -0.8712 -0.0835 -0.3665
  815SOL    HW1 2444   0.683   0.054   2.691  0.2497  1.4766 -1.5451
  815SOL    HW2 2445   0.739   0.212   2.682 -1.7599  1.4638 -0.6674
  816SOL     OW 2446   2.513   0.454   2.816 -0.7163 -0.0316 -0.6037
  816SOL    HW1 2447   2.571   0.419   2.898 -0.6223  0.8239  0.5779
  816SOL    HW2 2448   2.457   0.528   2.852 -1.5359 -2.1540  0.6470
  817SOL     OW 2449   2.232   2.900   1.881  0.4062  0.1755  0.7951
  817SOL    HW1 2450   2.294   2.905   1.804 -1.4099 -0.0658 -2.2472
  817SOL    HW2 2451   2.239   2.809   1.929 -0.6146 -2.3801  1.0432
  818SOL     OW 2452   1.148   0.639   0.300 -0.0087  0.0121 -0.0633
  818SOL    HW1 2453   1.071   0.708   0.292 -2.9080 -0.9238  2.7151
  818SOL    HW2 2454   1.147   0.581   0.380  1.2499 -0.2162 -2.3838
  819SOL     OW 2455   2.042   1.483   2.732 -0.3220  0.0622  0.4978
  819SOL    HW1 2456   2.141   1.509   2.711  0.6465  1.2478  1.2676
  819SOL    HW2 2457   1.981   1.551   2.686  0.4113 -2.6415  0.7406
  820SOL     OW 2458   0.136   1.540   2.317 -0.4496  0.2060  0.0772
  820SOL    HW1 2459   0.105   1.458   2.378 -1.0345 -2.7822  2.1855
  820SOL    HW2 2460   0.189   1.615   2.363  0.4617 -3.2646  0.9331
  821SOL     OW 2461   0.113   2.707   0.697 -0.2827  0.1294 -0.1515
  821SOL    HW1 2462   0.150   2.794   0.659 -0.0340 -0.4285  2.2018
  821SOL    HW2 2463   0.064   2.722   0.784  1.1529 -0.3073  2.1613
  822SOL     OW 2464   2.148   2.654   2.837  0.3776  0.0170 -0.6478
  822SOL    HW1 2465   2.130   2.564   2.797  0.9261  1.7149  0.1709
  822SOL    HW2 2466   2.232   2.698   2.796  1.6682  2.4599  0.4918
  823SOL     OW 2467   1.502   3.085   2.331 -0.4177 -0.0887 -0.0304
  823SOL    HW1 2468   1.519   0.047   2.266 -1.2200 -2.4507  3.0925
  823SOL    HW2 2469   1.424   3.028   2.302 -1.1853 -2.2018 -0.7355
  824SOL     OW 2470   2.659   2.499   2.251 -0.3282 -0.2312  0.2462
  824SOL    HW1 2471   2.651   2.587   2.193  1.6149  0.0011 -1.7030
  824SOL    HW2 2472   2.675   2.516   2.347  0.6054  0.1970 -2.1160
  825SOL     OW 2473   2.889   2.298   2.448 -0.0908  0.6193 -0.0520
  825SOL    HW1 2474   2.820   2.229   2.476 -0.3156 -0.6157  0.4421
  825SOL    HW2 2475   2.925   2.272   2.356  3.0558  4.9081  1.6516
  826SOL     OW 2476   2.163   0.520   2.551  0.6960 -0.1870 -0.9167
  826SOL    HW1 2477   2.209   0.576   2.488 -1.8533 -3.9608  0.2903
  826SOL    HW2 2478   2.190   0.555   2.644 -0.3740 -0.6060 -0.7339
  827SOL     OW 2479   2.826   2.125   1.568 -0.2696  0.1329  0.3084
  827SOL    HW1 2480   2.726   2.118   1.582  3.1868 -1.1753  0.1539
  827SOL    HW2 2481   2.858   2.060   1.498 -1.3380  1.4992  0.4262
  828SOL     OW 2482   2.915   0.101   1.377 -0.0300 -0.4602 -0.2820
  828SOL    HW1 2483   2.924   0.071   1.476 -1.0129  0.1599  0.6564
  828SOL    HW2 2484   2.942   0.198   1.364  1.4715 -0.7239  0.0804
  829SOL     OW 2485   1.005   1.848   2.644 -0.4748  0.4681  0.4913
  829SOL    HW1 2486   0.938   1.921   2.648  0.8088  2.3233 -2.3383
  829SOL    HW2 2487   0.957   1.766   2.612  3.6829 -3.5258 -0.4126
  830SOL     OW 2488   0.858   0.883   1.099  0.2469  0.6872  0.0186
  830SOL    HW1 2489   0.884   0.905   1.199  1.3033  0.3162  0.7341
  830SOL    HW2 2490   0.910   0.950   1.038  2.7695  0.9571 -0.6344
  831SOL     OW 2491   2.734   1.873   2.741 -0.1200  0.1344 -0.5751
  831SOL    HW1 2492   2.771   1.811   2.810  1.5283  0.6489 -1.2059
  831SOL    HW2 2493   2.761   1.967   2.776  1.2732  1.6041  2.2587
  832SOL     OW 2494   1.962   2.407   2.438  0.2524  0.1754 -0.0118
  832SOL    HW1 2495   1.993   2.353   2.358 -0.1138  0.8967  1.5592
  832SOL    HW2 2496   1.915   2.492   2.418  0.0595 -2.2916  3.1916
  833SOL     OW 2497   0.758   0.384   2.015  0.4863 -0.0677  0.0618
  833SOL    HW1 2498   0.763   0.479   1.974  2.5976  0.9269  1.1406
  833SOL    HW2 2499   0.846   0.357   2.058 -1.2900 -0.3107  1.3331
  834SOL     OW 2500   3.093   0.394   1.388  0.1372  0.3390 -0.1354
  834SOL    HW1 2501   3.022   0.459   1.406  0.5510 -2.6245  3.5718
  834SOL    HW2 2502   0.040   0.387   1.471  0.4113  2.7656 -1.1799
  835SOL     OW 2503   2.723   0.435   0.148  0.1082 -0.5234  0.0040
  835SOL    HW1 2504   2.701   0.455   0.244  1.6714  2.2919  1.2900
  835SOL    HW2 2505   2.817   0.455   0.125 -2.3905 -1.6735  0.0172
  836SOL     OW 2506   1.658   1.882   0.166  0.2763 -0.5354  0.0448
  836SOL    HW1 2507   1.597   1.931   0.105  1.2400 -0.5581 -2.4764
  836SOL    HW2 2508   1.638   1.881   0.266  1.4856 -1.4681  0.2600
  837SOL     OW 2509   1.853   1.746   0.768 -0.1654  0.2828  0.1949
  837SOL    HW1 2510   1.909   1.711   0.841 -2.0532  1.5034  0.7101
  837SOL    HW2 2511   1.910   1.756   0.676  1.4266 -1.6533 -2.3771
  838SOL     OW 2512   1.585   0.821   2.451 -0.3876 -0.2881  0.2854
  838SOL    HW1 2513   1.579   0.842   2.549  2.7896  0.2583  0.3173
  838SOL    HW2 2514   1.683   0.818   2.424 -0.1815  2.3982  0.2812
  839SOL     OW 2515   0.734   1.433   2.262  0.4562 -0.0860  0.4454
  839SOL    HW1 2516   0.635   1.413   2.262 -2.5904 -0.5509 -0.3994
  839SOL    HW2 2517   0.776   1.415   2.353 -0.4609  0.9509  2.8101
  840SOL     OW 2518   1.134   1.725   0.548  0.2775 -0.2500  0.2182
  840SOL    HW1 2519   1.138   1.804   0.607  1.1103 -0.5297 -2.1492
  840SOL    HW2 2520   1.211   1.663   0.569 -2.4848 -1.2768  0.4443
  841SOL     OW 2521   1.530   2.305   0.637 -0.4177 -0.4953 -0.1055
  841SOL    HW1 2522   1.630   2.292   0.615  1.5595  3.6434 -1.2019
  841SOL    HW2 2523   1.512   2.353   0.725  1.0803 -1.0577 -0.0603
  842SOL     OW 2524   0.347   0.450   0.262 -0.2511  0.1269 -0.0614
  842SOL    HW1 2525   0.423   0.397   0.298  1.4291 -3.5460 -1.2485
  842SOL    HW2 2526   0.361   0.454   0.160  0.5635 -0.9367  0.2554
  843SOL     OW 2527   0.634   0.343   0.634 -0.0798  0.3504 -0.3580
  843SOL    HW1 2528   0.542   0.390   0.627 -2.6202  0.9376  1.2540
  843SOL    HW2 2529   0.710   0.408   0.615  0.4279  3.6021  0.9108
  844SOL     OW 2530   2.636   0.287   2.646 -0.4284 -0.1317 -0.2349
  844SOL    HW1 2531   2.563   0.344   2.690 -1.4050  0.1442 -1.5505
  844SOL    HW2 2532   2.626   0.187   2.675 -0.5574 -4.2814  1.5534
  845SOL     OW 2533   2.789   2.547   1.558  0.1661 -0.4668 -0.5912
  845SOL    HW1 2534   2.772   2.540   1.658 -0.7347 -0.4803  1.8079
  845SOL    HW2 2535   2.851   2.481   1.519 -0.8801  0.9080  0.1619
  846SOL     OW 2536   2.496   1.473   2.428 -0.0635 -0.4139 -0.3470
  846SOL    HW1 2537   2.557   1.387   2.417  1.8302  1.2291  1.6429
  846SOL    HW2 2538   2.531   1.549   2.373 -2.1633 -1.8467  2.3060
  847SOL     OW 2539   0.952   0.753   1.972  0.0100  0.4534  0.5341
  847SOL    HW1 2540   0.895   0.690   1.918 -0.2300 -3.9778  0.3921
  847SOL    HW2 2541   1.053   0.737   1.955 -1.5153  1.1219  1.0046
  848SOL     OW 2542   2.553   0.067   2.774 -0.1034 -0.0238 -0.1980
  848SOL    HW1 2543   2.545   0.001   2.852  2.5591  1.0077 -0.0263
  848SOL    HW2 2544   2.473   0.130   2.765 -0.3467  1.5567  0.9945
  849SOL     OW 2545   0.199   2.827   2.969  0.0488 -0.2458  0.3757
  849SOL    HW1 2546   0.207   2.860   2.871 -0.9102  0.8226 -2.6288
  849SOL    HW2 2547   0.155   2.736   2.976 -4.7560 -4.2420 -2.3403
  850SOL     OW 2548   1.071   2.617   0.925  0.0606 -0.1513 -0.2598
  850SOL    HW1 2549   1.152   2.581   0.973  1.2532  2.5717  0.5817
  850SOL    HW2 2550   1.016   2.538   0.892  0.1448  3.1786  0.6852
  851SOL     OW 2551   2.314   0.659   2.385 -0.4295 -0.0695 -0.7638
  851SOL    HW1 2552   2.411   0.625   2.395  1.1943 -0.8748  1.8923
  851SOL    HW2 2553   2.284   0.686   2.296 -1.8243 -1.9594  3.8242
  852SOL     OW 2554   1.390   0.330   2.508  0.2590 -0.0452  0.0229
  852SOL    HW1 2555   1.477   0.386   2.515  2.3255  0.8865 -0.8667
  852SOL    HW2 2556   1.356   0.308   2.600  1.2487  0.7293 -0.9039
  853SOL     OW 2557   3.066   2.672   0.297  0.8560  0.1160 -0.5334
  853SOL    HW1 2558   3.036   2.629   0.389  1.5892 -1.0550  2.6537
  853SOL    HW2 2559   0.031   2.744   0.305 -0.1503 -3.8530 -2.0812
  854SOL     OW 2560   2.187   0.871   2.510 -0.2609 -0.1040  0.3024
  854SOL    HW1 2561   2.244   0.926   2.571 -2.4264  1.9623  1.4056
  854SOL    HW2 2562   2.241   0.784   2.486  0.5785  2.2755 -0.9586
  855SOL     OW 2563   0.679   2.592   0.298  0.0766 -0.4488 -0.4207
  855SOL    HW1 2564   0.713   2.683   0.339  1.0862  0.2641 -0.2184
  855SOL    HW2 2565   0.739   2.554   0.226  2.9647 -0.3038  1.4435
  856SOL     OW 2566   0.128   0.034   2.448 -0.0028 -0.1945 -0.0024
  856SOL    HW1 2567   0.224   0.012   2.430  1.3656  2.7413  0.2337
  856SOL    HW2 2568   0.073   3.059   2.446 -0.7483  0.0228  1.1110
  857SOL     OW 2569   1.033   2.894   1.389  0.1718  0.1726  0.0631
  857SOL    HW1 2570   0.982   2.980   1.380  1.0476 -0.9868  2.0225
  857SOL    HW2 2571   0.993   2.836   1.319  1.1574  1.8961  0.1386
  858SOL     OW 2572   2.563   2.152   1.623  0.2799  0.1206  0.1311
  858SOL    HW1 2573   2.517   2.206   1.697 -0.9146 -1.2475 -1.6016
  858SOL    HW2 2574   2.521   2.176   1.535  2.0398 -1.2496 -0.1515
  859SOL     OW 2575   1.822   2.438   1.869 -0.1948 -0.3254  0.3957
  859SOL    HW1 2576   1.880   2.355   1.864  0.3670  1.2711  1.2172
  859SOL    HW2 2577   1.764   2.439   1.952  4.4423 -2.4092  0.5029
  860SOL     OW 2578   1.964   0.122   0.408  0.3535 -0.3385  0.1150
  860SOL    HW1 2579   1.992   0.186   0.328 -1.3293  1.7573 -0.1429
  860SOL    HW2 2580   1.860   0.130   0.420 -1.6739  2.2188 -2.0866
  861SOL     OW 2581   2.593   0.373   0.670  0.2630  0.8155 -0.2037
  861SOL    HW1 2582   2.677   0.336   0.708 -2.6557 -0.0190 -4.8427
  861SOL    HW2 2583   2.510   0.315   0.693  1.9549  0.3759  2.0270
  862SOL     OW 2584   0.885   2.664   2.757  0.4002 -0.5906 -0.5957
  862SOL    HW1 2585   0.969   2.663   2.811  2.2836 -0.9686 -0.7603
  862SOL    HW2 2586   0.908   2.637   2.661  1.5386 -0.7554 -0.3977
  863SOL     OW 2587   0.439   0.646   1.255  0.2392 -0.4386 -0.2542
  863SOL    HW1 2588   0.378   0.611   1.330 -0.7551  3.1513 -0.4992
  863SOL    HW2 2589   0.464   0.579   1.186 -0.9301  1.8785  0.6908
  864SOL     OW 2590   2.976   0.028   1.653  0.0656 -0.0226 -0.3149
  864SOL    HW1 2591   3.059   0.086   1.652  1.2220  2.6030  1.1934
  864SOL    HW2 2592   2.995   3.044   1.699  1.7555 -0.1135  2.8630
  865SOL     OW 2593   0.660   1.366   2.703 -0.2869  0.1282 -0.0391
  865SOL    HW1 2594   0.739   1.329   2.757 -0.4685 -1.7203  1.0736
  865SOL    HW2 2595   0.580   1.378   2.769  1.9448  2.2486  1.7283
  866SOL     OW 2596   2.716   0.093   3.027  0.1486 -0.0271  0.3432
  866SOL    HW1 2597   2.673   0.009   2.989  1.7219 -3.2554 -0.6112
  866SOL    HW2 2598   2.790   0.066   3.089 -0.8082 -1.3057 -1.6792
  867SOL     OW 2599   2.603   2.966   2.938 -0.6417 -0.4861 -0.3949
  867SOL    HW1 2600   2.578   2.962   3.038  0.5370  0.2308 -1.3687
  867SOL    HW2 2601   2.642   2.876   2.914  0.2158  1.2977  0.2525
  868SOL     OW 2602   1.336   0.809   0.353  0.0030  0.6745  0.0696
  868SOL    HW1 2603   1.279   0.721   0.343  0.2283 -1.4024 -2.0487
  868SOL    HW2 2604   1.399   0.805   0.434 -0.8786  0.9978  0.0490
  869SOL     OW 2605   2.594   1.388   0.632 -0.6097  0.0263  0.0206
  869SOL    HW1 2606   2.542   1.444   0.568  0.1766  1.2752 -2.2311
  869SOL    HW2 2607   2.696   1.413   0.627  1.6796  1.8411 -0.5583
  870SOL     OW 2608   2.384   1.602   0.538 -0.3931  0.1773 -0.1972
  870SOL    HW1 2609   2.375   1.621   0.435  0.6097  1.7166  1.5100
  870SOL    HW2 2610   2.329   1.519   0.570 -1.6259 -1.2331  0.6365
  871SOL     OW 2611   1.290   1.160   0.638  0.2432 -0.4085 -0.6222
  871SOL    HW1 2612   1.261   1.070   0.671 -1.1550  0.3807  0.1731
  871SOL    HW2 2613   1.213   1.232   0.651  0.5642 -0.4488  0.9197
  872SOL     OW 2614   1.413   1.774   1.561 -0.3081 -0.4380 -0.4038
  872SOL    HW1 2615   1.358   1.748   1.478  1.8390 -1.5816 -1.8014
  872SOL    HW2 2616   1.467   1.703   1.610  0.4285 -0.9285  0.1979
  873SOL     OW 2617   0.750   1.866   2.352  0.3506  0.1061  0.3726
  873SOL    HW1 2618   0.791   1.871   2.253  0.4618 -1.2236 -2.5694
  873SOL    HW2 2619   0.813   1.808   2.409  1.0466  0.9861  0.6689
  874SOL     OW 2620   0.950   2.083   1.155 -0.1066 -0.2519 -0.5864
  874SOL    HW1 2621   1.030   2.108   1.099 -1.3661  0.7431  0.0216
  874SOL    HW2 2622   0.972   2.022   1.234  0.2102  1.5980 -1.5642
  875SOL     OW 2623   1.988   0.315   1.139 -0.3027 -0.4358 -0.2825
  875SOL    HW1 2624   1.942   0.350   1.226 -1.1944  0.0662 -1.1051
  875SOL    HW2 2625   1.945   0.354   1.054 -0.3470  1.2062  0.9221
  876SOL     OW 2626   0.768   0.634   0.394  0.1088 -0.2059 -0.1696
  876SOL    HW1 2627   0.804   0.583   0.473 -1.2134  0.3737 -0.7972
  876SOL    HW2 2628   0.746   0.563   0.325 -2.1616 -1.2552  1.1634
  877SOL     OW 2629   2.868   0.566   1.394  0.4682 -0.3202  0.3688
  877SOL    HW1 2630   2.822   0.478   1.372 -0.9916  1.3057  1.3248
  877SOL    HW2 2631   2.870   0.633   1.314  2.8250 -0.8604 -1.7056
  878SOL     OW 2632   2.030   2.186   0.285  0.1041  0.1208  0.5382
  878SOL    HW1 2633   1.972   2.239   0.223 -0.6503  0.7240  2.4736
  878SOL    HW2 2634   2.075   2.108   0.236  0.0798  0.5697  0.4703
  879SOL     OW 2635   2.646   1.799   1.465 -0.7352 -0.0295  0.1885
  879SOL    HW1 2636   2.553   1.835   1.458 -0.6966  0.7037 -2.1467
  879SOL    HW2 2637   2.648   1.719   1.525  0.6970  0.0661  1.0673
  880SOL     OW 2638   1.330   2.896   1.255 -0.0030  0.5732 -0.0466
  880SOL    HW1 2639   1.358   2.840   1.174  2.2014 -0.1303 -0.9904
  880SOL    HW2 2640   1.240   2.870   1.298  1.1061 -2.0807 -2.7214
  881SOL     OW 2641   1.063   2.241   0.082  0.0639 -0.7542  0.1861
  881SOL    HW1 2642   1.001   2.250   0.157  0.1108  0.5493  0.3054
  881SOL    HW2 2643   1.140   2.180   0.102  0.5903  0.4994 -0.9003
  882SOL     OW 2644   1.939   0.660   1.982  0.2786 -0.1468 -0.1352
  882SOL    HW1 2645   1.934   0.599   1.901  1.4855  1.4853 -1.6888
  882SOL    HW2 2646   1.904   0.750   1.961  2.1961 -3.5966  1.4475
  883SOL     OW 2647   1.222   0.190   2.329  0.6524 -0.2257  0.2736
  883SOL    HW1 2648   1.279   0.247   2.392  1.9833 -1.2274  0.4511
  883SOL    HW2 2649   1.124   0.217   2.335 -2.4937  0.6528  0.0875
  884SOL     OW 2650   2.938   0.152   0.359  0.1350 -0.4418 -0.7019
  884SOL    HW1 2651   2.849   0.172   0.315 -3.3297  1.4184 -1.1325
  884SOL    HW2 2652   2.999   0.234   0.353 -2.1104 -0.5844  0.1408
  885SOL     OW 2653   0.668   1.475   3.051  0.6293  0.0737 -0.1802
  885SOL    HW1 2654   0.721   1.546   3.001  0.0655 -1.2124 -1.9419
  885SOL    HW2 2655   0.729   1.410   3.094 -0.3356  0.2305 -1.0737
  886SOL     OW 2656   1.919   1.242   2.778 -0.2652 -0.0935  0.2190
  886SOL    HW1 2657   1.889   1.206   2.692 -1.6608  0.3600  0.5063
  886SOL    HW2 2658   1.946   1.339   2.771 -2.0980 -0.2629 -1.7562
  887SOL     OW 2659   1.350   0.372   1.595  0.0269  0.1739 -0.0291
  887SOL    HW1 2660   1.376   0.301   1.526 -3.2494  0.8098  1.1330
  887SOL    HW2 2661   1.398   0.354   1.679  1.2659 -0.8171 -0.7571
  888SOL     OW 2662   2.881   0.565   1.862 -0.0607 -0.2760 -0.5210
  888SOL    HW1 2663   2.872   0.652   1.915  0.7096 -2.8375 -3.3063
  888SOL    HW2 2664   2.934   0.577   1.777  1.9573  1.0203  1.0879
  889SOL     OW 2665   3.004   2.545   0.539 -0.1356 -0.0559  0.1980
  889SOL    HW1 2666   2.951   2.616   0.595  1.0395 -0.1690  0.7950
  889SOL    HW2 2667   3.096   2.548   0.567 -2.0679 -0.4589 -0.6777
  890SOL     OW 2668   2.590   2.642   0.074 -0.4440 -0.1677  0.2488
  890SOL    HW1 2669   2.603   2.606   0.169 -0.0877 -1.6009 -1.7797
  890SOL    HW2 2670   2.584   2.564   0.012  4.1098 -0.5225  1.3770
  891SOL     OW 2671   0.790   1.664   2.859 -0.6515  0.0810  0.1537
  891SOL    HW1 2672   0.871   1.601   2.839  0.5343  1.7515  0.7695
  891SOL    HW2 2673   0.747   1.703   2.776  0.3785  1.0713 -0.2613
  892SOL     OW 2674   2.976   3.010   0.929  0.5378 -0.0410  0.3557
  892SOL    HW1 2675   2.980   3.026   0.826 -1.8579  2.8539 -2.4581
  892SOL    HW2 2676   3.013   3.089   0.978 -1.3323  1.9674 -0.4623
  893SOL     OW 2677   0.894   2.971   0.931 -0.9296 -0.4505  0.2336
  893SOL    HW1 2678   0.850   3.037   0.991 -0.5122 -2.8382 -2.2055
  893SOL    HW2 2679   0.996   2.982   0.922  0.9178  1.3691 -3.0910
  894SOL     OW 2680   2.867   1.416   0.669 -0.1580  0.6980 -0.0508
  894SOL    HW1 2681   2.919   1.438   0.758  1.9928  0.2864  0.9575
  894SOL    HW2 2682   2.929   1.388   0.595 -0.5018  2.5751 -0.5532
  895SOL     OW 2683   2.436   2.950   1.683 -0.4989 -0.2783  0.6337
  895SOL    HW1 2684   2.379   3.035   1.686  1.1230 -0.6675  1.5977
  895SOL    HW2 2685   2.535   2.962   1.656  0.4731 -3.2770  1.1543
  896SOL     OW 2686   0.964   0.003   1.706  0.2411 -0.0234 -0.3126
  896SOL    HW1 2687   0.899   3.045   1.666 -0.8243  0.4005 -1.2788
  896SOL    HW2 2688   0.976   3.083   1.804  0.0039 -0.8204 -0.8226
  897SOL     OW 2689   0.808   1.518   1.874 -0.3789 -0.4489 -0.0920
  897SOL    HW1 2690   0.820   1.570   1.787  0.4936 -0.0177  0.2325
  897SOL    HW2 2691   0.744   1.577   1.926  1.2575  0.3066 -0.1156
  898SOL     OW 2692   1.390   2.582   1.905  0.0053  0.0626 -0.0873
  898SOL    HW1 2693   1.490   2.609   1.915  1.0860 -1.0163 -0.1590
  898SOL    HW2 2694   1.368   2.568   1.809 -0.4678  2.7143  0.1487
  899SOL     OW 2695   0.863   0.512   0.610  0.2350 -0.0127  0.1262
  899SOL    HW1 2696   0.852   0.573   0.688  0.5899 -1.1249 -1.1181
  899SOL    HW2 2697   0.962   0.502   0.588 -0.6653 -1.4279 -0.4390
  900SOL     OW 2698   1.632   2.464   2.094  0.1021 -0.3846  0.3197
  900SOL    HW1 2699   1.624   2.566   2.057  0.1582  1.5945 -0.8590
  900SOL    HW2 2700   1.565   2.445   2.172 -1.0974  0.5013  0.3991
  901SOL     OW 2701   0.918   2.269   2.778  0.1308  0.3437  0.0808
  901SOL    HW1 2702   0.986   2.320   2.725 -3.0306 -0.7409  0.7353
  901SOL    HW2 2703   0.840   2.330   2.803  0.2218  0.3045 -0.7507
  902SOL     OW 2704   1.806   1.246   0.309  0.3998  0.0416  0.3175
  902SOL    HW1 2705   1.901   1.264   0.322  0.4509  1.5002 -0.0609
  902SOL    HW2 2706   1.755   1.274   0.395  1.4364 -2.2159  1.3147
  903SOL     OW 2707   1.923   0.762   0.639 -0.0861 -0.4127 -0.5139
  903SOL    HW1 2708   1.906   0.673   0.685 -1.7907  1.5264 -2.0248
  903SOL    HW2 2709   1.860   0.759   0.559  0.7072 -0.1614  3.0013
  904SOL     OW 2710   0.737   0.978   2.928 -0.3905 -0.6273  0.5559
  904SOL    HW1 2711   0.764   0.982   2.834  0.7879 -0.1544  1.8899
  904SOL    HW2 2712   0.785   0.904   2.976 -0.4481  2.1048  2.0248
  905SOL     OW 2713   2.012   0.173   0.825 -0.1132 -0.4507 -0.2159
  905SOL    HW1 2714   2.040   0.160   0.920 -0.9469 -0.9685 -2.1935
  905SOL    HW2 2715   2.050   0.252   0.778 -2.6341 -2.0427  0.8303
  906SOL     OW 2716   0.036   2.259   0.983  0.0945 -0.0808 -0.7046
  906SOL    HW1 2717   3.100   2.307   0.899  4.6958  3.1328 -0.2180
  906SOL    HW2 2718   0.127   2.220   0.961  1.0693  0.8807 -0.5789
  907SOL     OW 2719   0.938   0.811   0.269 -0.4056 -0.0404  0.7663
  907SOL    HW1 2720   0.877   0.745   0.312 -1.9244 -0.9150  0.1575
  907SOL    HW2 2721   0.885   0.869   0.205 -0.7724 -0.0522  3.1265
  908SOL     OW 2722   2.282   2.772   0.819  0.3262  0.0840 -0.3945
  908SOL    HW1 2723   2.366   2.777   0.879  1.7079  1.1073  2.0438
  908SOL    HW2 2724   2.250   2.860   0.791  1.6652 -3.5645  3.9039
  909SOL     OW 2725   2.254   1.285   1.436  0.2660  0.3444 -0.0073
  909SOL    HW1 2726   2.245   1.300   1.338 -1.7580 -1.6748  1.3730
  909SOL    HW2 2727   2.171   1.311   1.486  1.4055 -2.1964 -0.0606
  910SOL     OW 2728   1.214   2.933   2.186  0.2889  0.5455  0.1554
  910SOL    HW1 2729   1.194   2.832   2.162  1.0836 -2.7361  1.0777
  910SOL    HW2 2730   1.204   2.998   2.110 -1.5619 -0.3050 -0.2557
  911SOL     OW 2731   2.885   0.620   2.209 -0.3998  0.3566  0.4838
  911SOL    HW1 2732   2.978   0.647   2.172 -2.2117  1.2682  2.0879
  911SOL    HW2 2733   2.875   0.516   2.224 -0.5122 -3.3843 -0.5594
  912SOL     OW 2734   0.237   1.284   1.298  0.1751 -0.2269  0.6672
  912SOL    HW1 2735   0.295   1.226   1.239 -0.6494 -0.9891 -0.0788
  912SOL    HW2 2736   0.296   1.354   1.348  1.4487  1.2105  0.3614
  913SOL     OW 2737   2.787   2.453   1.234 -0.1574 -0.0522  0.3186
  913SOL    HW1 2738   2.818   2.410   1.319 -2.1799 -0.7939 -1.8172
  913SOL    HW2 2739   2.702   2.410   1.210  3.1429  1.5329  2.6174
  914SOL     OW 2740   1.781   0.857   1.489  0.0218 -0.0343 -0.2593
  914SOL    HW1 2741   1.859   0.862   1.428 -3.0172 -3.6172  1.5350
  914SOL    HW2 2742   1.804   0.908   1.571 -0.4014  0.5259 -3.7639
  915SOL     OW 2743   1.849   0.399   1.345 -0.3066  0.4084  0.2290
  915SOL    HW1 2744   1.893   0.391   1.442  1.7778 -1.8822  3.4213
  915SOL    HW2 2745   1.749   0.382   1.341 -0.7518 -1.6208 -0.9976
  916SOL     OW 2746   2.915   2.527   1.003  0.3980  0.2488  0.3228
  916SOL    HW1 2747   2.828   2.524   0.949  0.1422  0.6020 -1.0746
  916SOL    HW2 2748   2.890   2.492   1.096  0.7609  1.6678 -0.5449
  917SOL     OW 2749   2.044   1.943   0.105  0.4463  0.0411 -0.4269
  917SOL    HW1 2750   2.026   1.858   0.056  4.7652  3.1495  3.6275
  917SOL    HW2 2751   2.096   2.007   0.049 -2.2076  0.1027  1.2858
  918SOL     OW 2752   1.964   2.886   2.741  0.1783 -0.8685 -0.0335
  918SOL    HW1 2753   1.942   2.940   2.819 -0.8841 -3.6058 -2.3587
  918SOL    HW2 2754   2.052   2.840   2.757 -1.2146  1.9243  1.6443
  919SOL     OW 2755   1.288   2.359   1.274  0.6428 -0.3824  0.3175
  919SOL    HW1 2756   1.314   2.266   1.250 -1.7351 -0.4457  1.7793
  919SOL    HW2 2757   1.365   2.416   1.305 -1.2597 -0.5389  0.8660
  920SOL     OW 2758   2.989   0.144   2.434 -0.8551  0.4071 -0.3101
  920SOL    HW1 2759   2.987   0.142   2.533 -2.7397 -1.1252  0.5519
  920SOL    HW2 2760   3.084   0.139   2.400 -1.0035 -0.1577  0.6102
  921SOL     OW 2761   2.987   0.957   1.718 -1.0634 -0.3067 -0.2245
  921SOL    HW1 2762   2.981   1.046   1.669  0.3114  2.2399  0.0493
  921SOL    HW2 2763   3.088   0.923   1.717  3.9939  0.8362 -3.3798
  922SOL     OW 2764   1.947   1.835   0.497  0.4612  0.4511 -0.2479
  922SOL    HW1 2765   2.039   1.833   0.538 -1.4085 -1.5827 -2.5178
  922SOL    HW2 2766   1.914   1.933   0.487 -0.6582  0.6877 -0.1122
  923SOL     OW 2767   0.886   1.765   3.080 -0.3421  0.4272  0.3679
  923SOL    HW1 2768   0.850   1.743   2.987  0.1104  2.8029 -1.9618
  923SOL    HW2 2769   0.870   1.867   3.097  1.1099 -3.0299 -1.6725
  924SOL     OW 2770   0.802   0.436   0.205  0.1848 -0.1813 -0.2080
  924SOL    HW1 2771   0.845   0.355   0.253  0.0546  2.2930 -1.1646
  924SOL    HW2 2772   0.842   0.441   0.112  0.9563 -1.8840 -2.0703
  925SOL     OW 2773   2.494   0.328   0.970  0.6572 -0.3860  0.2802
  925SOL    HW1 2774   2.449   0.311   0.882  0.8165  0.0459  0.7418
  925SOL    HW2 2775   2.419   0.325   1.042 -1.1293 -1.1318  3.3177
  926SOL     OW 2776   0.493   0.204   1.024  0.1465  0.4193  0.1723
  926SOL    HW1 2777   0.446   0.212   0.933  0.1029 -0.1960  0.0785
  926SOL    HW2 2778   0.430   0.235   1.100 -1.5871  2.6233  0.2333
  927SOL     OW 2779   0.037   1.335   2.435 -0.6631  0.1765 -0.7306
  927SOL    HW1 2780   0.082   1.313   2.524 -0.4408  3.3335  0.6013
  927SOL    HW2 2781   3.049   1.303   2.428  1.2097  1.3010 -0.6196
  928SOL     OW 2782   3.011   0.553   2.901 -0.1182  0.1110  0.1579
  928SOL    HW1 2783   2.978   0.639   2.944  2.2487  0.8887  1.4589
  928SOL    HW2 2784   2.945   0.502   2.839 -0.2134 -0.5237 -1.0132
  929SOL     OW 2785   2.442   0.253   1.329 -0.5271 -1.0141  0.6572
  929SOL    HW1 2786   2.382   0.267   1.244 -0.0213  1.5516 -0.6893
  929SOL    HW2 2787   2.399   0.190   1.396 -0.8615  0.2320 -1.1460
  930SOL     OW 2788   1.838   0.925   1.966 -0.0658 -0.1372  0.3299
  930SOL    HW1 2789   1.762   0.916   2.031 -0.3643 -2.4420 -2.0815
  930SOL    HW2 2790   1.890   1.015   1.986  0.1196  4.4058 -0.4780
  931SOL     OW 2791   2.058   1.316   0.341  0.5020 -0.2131  0.1360
  931SOL    HW1 2792   2.135   1.251   0.318  3.0042  0.6642  2.9225
  931SOL    HW2 2793   2.064   1.403   0.285 -0.7244  1.3555 -1.3565
  932SOL     OW 2794   2.684   1.362   0.958 -0.1362  0.4689 -0.0995
  932SOL    HW1 2795   2.610   1.370   0.890  0.6828  2.0099  2.9680
  932SOL    HW2 2796   2.736   1.272   0.952  1.7364 -0.9198  1.0864
  933SOL     OW 2797   2.723   1.734   1.204 -0.3934  0.1434  0.1855
  933SOL    HW1 2798   2.718   1.751   1.302  0.3643 -0.6706  1.1597
  933SOL    HW2 2799   2.643   1.678   1.175 -1.7350 -2.2009  1.1702
  934SOL     OW 2800   1.901   0.553   2.429 -0.0962  0.1514 -0.7410
  934SOL    HW1 2801   1.894   0.534   2.330 -1.4613 -1.0395  1.8359
  934SOL    HW2 2802   1.992   0.528   2.472  2.1012 -2.5278  0.1590
  935SOL     OW 2803   0.184   1.736   0.481  0.6998  0.2913  0.2361
  935SOL    HW1 2804   0.128   1.753   0.569  0.4690 -0.1226  2.7100
  935SOL    HW2 2805   0.233   1.645   0.482  0.8355 -2.3612 -1.8342
  936SOL     OW 2806   0.265   0.797   0.662  0.7780 -0.2749 -0.0792
  936SOL    HW1 2807   0.334   0.865   0.696  0.6738 -0.2838  3.4615
  936SOL    HW2 2808   0.316   0.739   0.594  0.3198  1.5565 -1.6657
  937SOL     OW 2809   2.513   3.046   1.057 -0.3389 -0.6431 -0.3774
  937SOL    HW1 2810   2.602   3.008   1.018  0.1869 -0.4760  1.8363
  937SOL    HW2 2811   2.535   3.075   1.147 -1.1853 -2.4723 -1.1185
  938SOL     OW 2812   2.776   2.354   0.240  0.1492 -0.5449  0.0341
  938SOL    HW1 2813   2.874   2.371   0.254 -3.0881 -0.3123 -1.8363
  938SOL    HW2 2814   2.718   2.417   0.296  1.9648 -1.3445  1.7707
  939SOL     OW 2815   0.979   1.960   0.436  0.0045 -0.3913 -0.1125
  939SOL    HW1 2816   0.935   1.912   0.358 -2.0111 -0.8178  0.0330
  939SOL    HW2 2817   0.948   1.924   0.528  0.4131 -0.8072 -1.2641
  940SOL     OW 2818   0.162   0.408   2.978  0.1071 -0.3333  0.4571
  940SOL    HW1 2819   0.168   0.339   2.904  3.1691  4.1964  1.5764
  940SOL    HW2 2820   0.079   0.462   2.961  4.2760  0.7190  2.0144
  941SOL     OW 2821   1.253   0.330   3.040  0.4265  0.4261 -0.1044
  941SOL    HW1 2822   1.274   0.425   3.009 -0.1467  1.5283  0.4215
  941SOL    HW2 2823   1.214   0.328   0.027 -1.2402 -1.7417  0.6534
  942SOL     OW 2824   0.906   0.985   1.364 -0.4512  0.2837 -0.4692
  942SOL    HW1 2825   1.006   0.967   1.368 -0.9374 -0.3068  1.9164
  942SOL    HW2 2826   0.856   0.928   1.433 -3.7350 -2.9120 -0.9440
  943SOL     OW 2827   1.380   0.930   1.938 -0.1535  0.7262  0.6404
  943SOL    HW1 2828   1.457   0.898   1.993  0.5725  1.8140 -1.5185
  943SOL    HW2 2829   1.300   0.876   1.978 -1.6875 -2.4369  3.3733
  944SOL     OW 2830   1.880   1.010   1.690  0.5348  0.4066  0.2737
  944SOL    HW1 2831   1.862   0.965   1.780  0.7859  1.4416  1.2030
  944SOL    HW2 2832   1.840   1.102   1.677 -1.5789  0.7814 -4.1964
  945SOL     OW 2833   2.961   2.999   0.306 -0.1630  0.5413 -0.3683
  945SOL    HW1 2834   3.052   2.951   0.324 -4.3160  0.7849 -2.6405
  945SOL    HW2 2835   2.977   3.101   0.312  0.0741  3.7641 -1.5902
  946SOL     OW 2836   2.862   0.838   1.924 -0.3566  0.8505 -0.1354
  946SOL    HW1 2837   2.909   0.877   1.842 -0.1687  2.7955  2.6665
  946SOL    HW2 2838   2.782   0.899   1.952 -2.3074  0.2170 -1.0554
  947SOL     OW 2839   0.732   2.858   0.388 -0.8332 -0.7236 -0.1302
  947SOL    HW1 2840   0.730   2.913   0.478  1.3702  1.9703  1.0062
  947SOL    HW2 2841   0.828   2.846   0.358 -1.4634  1.1130 -0.1518
  948SOL     OW 2842   2.510   1.306   1.568 -0.1997  0.3032 -0.2614
  948SOL    HW1 2843   2.516   1.329   1.665 -1.6840 -1.9642 -3.1951
  948SOL    HW2 2844   2.417   1.315   1.536  2.1974 -1.3278  1.9646
  949SOL     OW 2845   0.334   1.243   2.456 -0.6693 -0.9340  0.4025
  949SOL    HW1 2846   0.288   1.261   2.544 -1.5871 -1.6393  2.9981
  949SOL    HW2 2847   0.300   1.164   2.404  1.3171  3.1566  2.7239
  950SOL     OW 2848   0.381   2.799   0.862 -0.1208 -0.8759  0.7709
  950SOL    HW1 2849   0.299   2.791   0.927 -0.5580 -1.3591 -2.1318
  950SOL    HW2 2850   0.355   2.769   0.768 -3.5415 -2.1769 -2.9048
  951SOL     OW 2851   0.876   1.397   2.492 -0.0024  0.3023  0.7662
  951SOL    HW1 2852   0.964   1.353   2.470 -1.4805  2.5945  0.4521
  951SOL    HW2 2853   0.842   1.363   2.578 -1.8413  0.1863 -0.9998
  952SOL     OW 2854   0.491   1.434   0.182  0.4643  0.5323  0.1953
  952SOL    HW1 2855   0.530   1.451   0.086  1.8858  0.4256 -2.3357
  952SOL    HW2 2856   0.438   1.345   0.178  0.8487 -1.0796 -1.9792
  953SOL     OW 2857   2.400   0.230   2.454  0.0241  0.3828  0.6168
  953SOL    HW1 2858   2.370   0.243   2.550 -1.4975  0.5260  0.6081
  953SOL    HW2 2859   2.429   0.134   2.440  0.4404  1.0297 -1.2458
  954SOL     OW 2860   1.481   1.225   0.825 -0.5181  0.1466 -0.2535
  954SOL    HW1 2861   1.422   1.197   0.748 -1.6136  2.2805 -1.8222
  954SOL    HW2 2862   1.507   1.320   0.810 -1.9055 -2.7939 -1.4180
  955SOL     OW 2863   0.576   1.977   2.919 -0.1819  0.8492 -0.3179
  955SOL    HW1 2864   0.653   1.956   2.990  2.1463 -2.0920  1.2024
  955SOL    HW2 2865   0.572   2.073   2.883  0.4447  0.4957 -0.1204
  956SOL     OW 2866   1.848   0.463   2.150  0.4387  0.3949 -0.1171
  956SOL    HW1 2867   1.896   0.382   2.119  1.1752  2.7303  3.5908
  956SOL    HW2 2868   1.865   0.538   2.085 -1.3217 -3.4854  1.8535
  957SOL     OW 2869   2.046   2.061   2.588 -0.8871  0.1788 -0.0733
  957SOL    HW1 2870   2.147   2.051   2.562  2.5194 -0.4401 -0.2960
  957SOL    HW2 2871   2.044   2.057   2.688  1.3751 -1.6560 -0.6617
  958SOL     OW 2872   1.420   1.346   1.471  0.2404  0.0086 -0.2395
  958SOL    HW1 2873   1.343   1.281   1.467  0.2334 -0.9923 -0.1470
  958SOL    HW2 2874   1.394   1.431   1.423 -1.2100  0.8171 -1.3518
  959SOL     OW 2875   2.036   2.464   2.690  0.2250  0.1929  0.6984
  959SOL    HW1 2876   1.948   2.495   2.728  2.4862 -1.1405 -1.6289
  959SOL    HW2 2877   2.014   2.430   2.591  2.4524  2.3081  0.3588
  960SOL     OW 2878   0.216   0.683   2.563 -0.2077  0.2038  0.1091
  960SOL    HW1 2879   0.209   0.650   2.466  1.6500  1.2098 -2.9852
  960SOL    HW2 2880   0.122   0.701   2.602 -1.7656  4.6445 -0.2209
  961SOL     OW 2881   0.599   1.064   2.472 -0.2435 -0.2025 -0.1473
  961SOL    HW1 2882   0.540   1.002   2.529  0.4199 -0.1171  1.6979
  961SOL    HW2 2883   0.552   1.145   2.432 -1.3577 -1.3122  3.1898
  962SOL     OW 2884   0.863   1.256   2.833  0.1522  0.6544  0.4955
  962SOL    HW1 2885   0.895   1.285   2.929 -0.1077  0.8037 -0.6147
  962SOL    HW2 2886   0.857   1.152   2.823  0.2777 -5.1991 -1.1367
  963SOL     OW 2887   2.535   2.241   0.155 -0.7251 -0.1869 -0.1157
  963SOL    HW1 2888   2.616   2.287   0.195  0.5230 -0.2109  1.9422
  963SOL    HW2 2889   2.510   2.164   0.213  3.1121  0.4412 -2.6651
  964SOL     OW 2890   1.172   2.422   1.723  0.1250  0.1759 -0.2074
  964SOL    HW1 2891   1.260   2.388   1.687 -2.4930 -1.9256 -2.7190
  964SOL    HW2 2892   1.137   2.512   1.686  0.1468  1.0569  0.2924
  965SOL     OW 2893   1.415   1.628   0.371 -0.4429 -0.5573  0.2767
  965SOL    HW1 2894   1.514   1.634   0.380 -0.6987 -2.7411 -2.0553
  965SOL    HW2 2895   1.386   1.620   0.467  1.8362  2.3941  0.9167
  966SOL     OW 2896   0.087   1.849   0.254 -0.2460 -0.0015 -0.1999
  966SOL    HW1 2897   0.134   1.798   0.331  0.3675 -2.4120  0.4865
  966SOL    HW2 2898   3.100   1.860   0.274  5.5088  3.5020 -1.8509
  967SOL     OW 2899   1.836   0.078   2.206  0.0077 -0.8603 -0.2516
  967SOL    HW1 2900   1.931   0.110   2.198  0.0846  0.3992 -0.0833
  967SOL    HW2 2901   1.822   0.009   2.278 -0.2727 -1.3106  0.7330
  968SOL     OW 2902   1.671   0.421   0.540  0.6211  0.2209  0.7075
  968SOL    HW1 2903   1.712   0.466   0.455  0.9980 -0.4634 -2.3481
  968SOL    HW2 2904   1.736   0.431   0.615  0.5198  0.2121 -5.0437
  969SOL     OW 2905   0.168   1.151   2.259  0.0307 -0.0842 -0.3024
  969SOL    HW1 2906   0.234   1.165   2.185 -1.0694  1.9120 -0.4657
  969SOL    HW2 2907   0.126   1.235   2.302 -0.0744 -0.5691  0.0884
  970SOL     OW 2908   2.529   1.534   1.159 -0.5485  0.5448  0.1162
  970SOL    HW1 2909   2.544   1.483   1.070  1.8119  0.0324  0.1996
  970SOL    HW2 2910   2.434   1.567   1.157  1.5552 -2.3375  1.0984
  971SOL     OW 2911   3.060   2.755   0.929  0.6668 -0.0662  0.0753
  971SOL    HW1 2912   2.986   2.685   0.953  0.3836 -0.5377  0.1812
  971SOL    HW2 2913   3.022   2.848   0.930 -1.6882 -2.1842 -1.2192
  972SOL     OW 2914   0.433   0.859   2.587  0.3148 -0.0870 -1.1467
  972SOL    HW1 2915   0.446   0.869   2.692  1.0134 -0.8872  2.6067
  972SOL    HW2 2916   0.356   0.799   2.557  2.0452  0.3068 -1.4440
  973SOL     OW 2917   0.371   0.255   0.798 -0.2877  0.4645 -0.0209
  973SOL    HW1 2918   0.352   0.171   0.746 -0.7830  0.6938  1.9271
  973SOL    HW2 2919   0.358   0.341   0.746 -1.2029  0.9323  1.0401
  974SOL     OW 2920   2.030   0.882   1.361  0.0686  0.3335  0.0107
  974SOL    HW1 2921   2.075   0.854   1.445  0.3141  1.1402 -1.2076
  974SOL    HW2 2922   2.101   0.902   1.288 -0.8601  0.5067  2.5532
  975SOL     OW 2923   2.637   2.901   0.136  0.2943 -0.9975  0.1499
  975SOL    HW1 2924   2.689   2.911   0.223 -0.7318  1.6382 -1.9343
  975SOL    HW2 2925   2.604   2.806   0.116  0.7156  1.5239 -0.4375
  976SOL     OW 2926   0.512   1.425   1.129 -0.1525 -0.1459 -0.2244
  976SOL    HW1 2927   0.565   1.349   1.164 -1.0111  1.2725 -1.3446
  976SOL    HW2 2928   0.464   1.479   1.200  2.6624 -3.4574  0.7806
  977SOL     OW 2929   1.238   2.283   0.735  0.1652  0.6836 -0.4580
  977SOL    HW1 2930   1.222   2.228   0.651 -1.5959 -0.5655 -1.8221
  977SOL    HW2 2931   1.338   2.285   0.758 -0.2493 -2.3242  0.9327
  978SOL     OW 2932   0.549   0.898   0.304  0.1651 -0.4157 -0.2726
  978SOL    HW1 2933   0.543   0.975   0.375 -0.2161  0.5208  3.2207
  978SOL    HW2 2934   0.633   0.906   0.246 -0.2652 -0.8915  3.0043
  979SOL     OW 2935   2.031   1.498   0.793  0.3262  0.2381  0.3191
  979SOL    HW1 2936   2.104   1.456   0.737  1.9329  1.1007  1.6995
  979SOL    HW2 2937   2.070   1.581   0.835 -0.1888 -0.7153  0.2666
  980SOL     OW 2938   0.287   1.907   1.885 -0.0128 -0.0674 -0.4332
  980SOL    HW1 2939   0.331   1.873   1.800 -0.6600  0.5919  0.8846
  980SOL    HW2 2940   0.366   1.941   1.941  2.6577  0.7451 -1.6606
  981SOL     OW 2941   2.944   1.330   0.215  0.3212  0.5181  0.5218
  981SOL    HW1 2942   2.893   1.261   0.280 -0.8228 -2.5240  2.5166
  981SOL    HW2 2943   2.895   1.329   0.128  0.9247 -0.0314 -0.6242
  982SOL     OW 2944   2.813   2.956   2.019  0.2022 -0.6010  0.0809
  982SOL    HW1 2945   2.854   3.031   2.076  0.4805  0.6223  1.3621
  982SOL    HW2 2946   2.877   2.927   1.943 -0.2229  0.8772  0.4150
  983SOL     OW 2947   1.556   0.057   1.076  0.4505  0.6068 -0.4357
  983SOL    HW1 2948   1.474   0.051   1.137  0.7152 -1.1105 -1.1213
  983SOL    HW2 2949   1.647   0.077   1.122 -0.8216  1.9237 -2.6549
  984SOL     OW 2950   1.217   2.653   2.961 -0.0259  0.1840  0.2938
  984SOL    HW1 2951   1.177   2.746   2.953 -0.0741 -1.1373  2.3378
  984SOL    HW2 2952   1.297   2.641   2.900  1.1046  0.2827  0.1310
  985SOL     OW 2953   1.850   1.935   1.662  0.1616  0.1153 -0.0248
  985SOL    HW1 2954   1.776   1.998   1.696 -0.8918 -0.6237  2.1777
  985SOL    HW2 2955   1.816   1.858   1.606 -1.3076  0.6715  1.9058
  986SOL     OW 2956   2.098   0.080   2.479  0.7291  0.1077 -0.4507
  986SOL    HW1 2957   2.100   0.177   2.448  3.0007 -0.9257  1.4196
  986SOL    HW2 2958   2.115   0.079   2.584 -1.8963  0.0532 -2.0147
  987SOL     OW 2959   2.878   1.353   2.399  0.1272 -0.0940  0.3973
  987SOL    HW1 2960   2.792   1.316   2.442  1.8889  2.8640 -0.8346
  987SOL    HW2 2961   2.890   1.449   2.410 -0.4074 -5.4631 -0.3181
  988SOL     OW 2962   2.581   0.624   2.355 -0.0697  0.2579 -0.0429
  988SOL    HW1 2963   2.594   0.535   2.303 -1.2697 -0.3283 -0.1476
  988SOL    HW2 2964   2.627   0.698   2.306  1.4202 -3.5226  0.6134
  989SOL     OW 2965   1.748   1.334   1.946 -0.5328  0.1214  0.0050
  989SOL    HW1 2966   1.680   1.271   1.988  1.3512 -1.0917  0.0383
  989SOL    HW2 2967   1.840   1.288   1.928 -1.7720  0.0766  1.3157
  990SOL     OW 2968   0.283   1.247   0.216  0.0383 -0.7770  0.2691
  990SOL    HW1 2969   0.245   1.215   0.303 -1.1581 -1.7795  0.4777
  990SOL    HW2 2970   0.294   1.171   0.156 -2.9659  0.2024 -1.3173
  991SOL     OW 2971   0.210   1.693   2.810 -0.4117 -0.2675 -0.6231
  991SOL    HW1 2972   0.242   1.792   2.818  0.3360 -0.6138  0.7934
  991SOL    HW2 2973   0.245   1.631   2.883 -0.2431 -2.0221  0.2833
  992SOL     OW 2974   2.640   2.055   1.867 -0.2438 -0.4038  0.3146
  992SOL    HW1 2975   2.683   2.129   1.925  1.5408  0.5906 -2.4658
  992SOL    HW2 2976   2.622   2.096   1.773 -2.3464  0.7415 -1.0509
  993SOL     OW 2977   0.303   2.886   0.573 -0.3149 -0.2790 -0.1636
  993SOL    HW1 2978   0.337   2.976   0.540 -0.9878 -1.5481 -0.0709
  993SOL    HW2 2979   0.380   2.814   0.572  1.8794  1.4976  1.3391
  994SOL     OW 2980   0.108   1.880   1.486 -0.5673  0.3897 -0.1936
  994SOL    HW1 2981   0.034   1.915   1.547  0.3147  2.6299  0.7140
  994SOL    HW2 2982   0.137   1.954   1.417  1.4194 -0.7598  2.6331
  995SOL     OW 2983   2.205   1.732   2.490  0.5065 -0.3365  0.2738
  995SOL    HW1 2984   2.223   1.827   2.518 -1.2616 -0.4345  0.1924
  995SOL    HW2 2985   2.238   1.668   2.557 -0.9607  3.9924  2.8054
  996SOL     OW 2986   2.037   1.453   3.020 -0.5378  0.2292  0.1543
  996SOL    HW1 2987   1.948   1.449   3.066  1.5984 -1.3008 -1.4645
  996SOL    HW2 2988   2.024   1.469   2.919 -0.7489  0.3122  2.3714
  997SOL     OW 2989   1.462   1.444   1.722  0.4270 -0.2599 -0.1571
  997SOL    HW1 2990   1.391   1.402   1.782 -0.8603  1.3841 -0.2878
  997SOL    HW2 2991   1.451   1.408   1.623 -1.2431 -1.3617 -2.4651
  998SOL     OW 2992   2.883   2.103   0.952 -0.7026  0.1755 -0.1911
  998SOL    HW1 2993   2.972   2.152   0.960  1.8019  1.3939  2.1970
  998SOL    HW2 2994   2.843   2.115   0.860 -1.2915  1.1494  0.0737
  999SOL     OW 2995   2.030   2.711   0.348  0.1406  0.2532  0.6953
  999SOL    HW1 2996   2.032   2.813   0.361 -1.8047 -1.7373 -0.4220
  999SOL    HW2 2997   2.078   2.677   0.264  0.8936  0.0714 -1.4672
 1000SOL     OW 2998   0.716   2.792   0.068  0.0585 -1.2340  0.1931
 1000SOL    HW1 2999   0.675   2.851   0.143 -1.9695 -1.0943  2.1813
 1000SOL    HW2 3000   0.785   2.844   0.011  0.3187  0.8094  0.0083
   3.10759   3.10759   3.10759
