1000 SPC/Fw water molecules t= 236.00000 step= 236000
 3000
    1SOL     OW    1   2.903   2.775   0.950  0.4114  0.6116  0.1334
    1SOL    HW1    2   2.838   2.852   0.976 -0.7449  1.6349 -2.1334
    1SOL    HW2    3   2.952   2.736   1.029 -0.5161  0.3926 -0.5055
    2SOL     OW    4   1.938   1.774   1.458 -0.3487 -0.0658  0.3609
    2SOL    HW1    5   1.984   1.685   1.473 -0.1536 -3.6405  0.3989
    2SOL    HW2    6   1.845   1.749   1.422  0.9003  0.4097  1.2950
    3SOL     OW    7   1.699   2.417   2.718  0.5172 -0.1489 -0.5898
    3SOL    HW1    8   1.607   2.459   2.722  0.8404  3.4657  0.5887
    3SOL    HW2    9   1.779   2.482   2.708  1.4584  0.0070 -1.4950
    4SOL     OW   10   2.060   1.919   2.089  0.0422  0.0476  0.3984
    4SOL    HW1   11   2.000   1.984   2.140 -2.1296  2.0402 -2.0083
    4SOL    HW2   12   2.138   1.881   2.143 -1.8465 -0.6558  0.5790
    5SOL     OW   13   1.315   1.157   1.565 -0.0715  0.1281 -0.1867
    5SOL    HW1   14   1.338   1.158   1.464  0.2311 -0.7697 -0.4007
    5SOL    HW2   15   1.303   1.066   1.601  0.9312  0.0968  1.2332
    6SOL     OW   16   2.368   0.123   0.095 -0.5338 -0.1881  0.4916
    6SOL    HW1   17   2.341   0.164   0.008  1.5870 -2.3506  0.9971
    6SOL    HW2   18   2.356   0.021   0.083 -0.0087  0.5175  0.9123
    7SOL     OW   19   3.006   1.584   1.626 -0.4561 -0.7135 -0.3366
    7SOL    HW1   20   2.980   1.538   1.712  0.0933  0.3276  0.1376
    7SOL    HW2   21   3.052   1.527   1.558 -2.4495 -1.3435 -1.7556
    8SOL     OW   22   1.001   0.460   0.877  0.4429 -0.0502  0.6611
    8SOL    HW1   23   1.096   0.443   0.902 -1.8948 -4.3280 -0.6958
    8SOL    HW2   24   0.950   0.374   0.898  0.4738 -1.9460  0.8516
    9SOL     OW   25   1.487   0.491   2.464 -0.1438  0.5707 -0.2908
    9SOL    HW1   26   1.569   0.528   2.513  1.3288 -0.1312  2.1945
    9SOL    HW2   27   1.499   0.485   2.365 -0.2787  2.2500  0.9753
   10SOL     OW   28   0.517   2.207   0.224  0.2199  0.0592  0.0778
   10SOL    HW1   29   0.462   2.131   0.184 -0.0605 -1.7623 -2.3938
   10SOL    HW2   30   0.471   2.237   0.311  1.1141 -2.0533 -0.7372
   11SOL     OW   31   0.969   0.866   0.330  0.0391  0.2628  0.7660
   11SOL    HW1   32   0.878   0.863   0.379 -1.4687  0.1360 -0.8496
   11SOL    HW2   33   0.973   0.953   0.279  1.2023  0.1658 -0.7684
   12SOL     OW   34   0.057   0.241   1.510 -0.1898  0.4404  0.3425
   12SOL    HW1   35   3.048   0.275   1.533  1.5162  3.6352 -0.1235
   12SOL    HW2   36   0.135   0.289   1.554  2.1103 -0.5018 -2.4554
   13SOL     OW   37   1.250   0.037   0.132  0.4832  0.0224  0.2672
   13SOL    HW1   38   1.156   0.055   0.100  1.3138 -1.0775  0.5928
   13SOL    HW2   39   1.246   3.084   0.228 -1.8716 -1.3754  0.2526
   14SOL     OW   40   1.141   2.339   1.212 -0.3510 -0.2934 -0.4437
   14SOL    HW1   41   1.125   2.363   1.309 -0.6420 -0.9030  1.8308
   14SOL    HW2   42   1.219   2.276   1.203 -3.2194  2.3631  3.8598
   15SOL     OW   43   2.554   1.133   1.578 -0.0160  0.3254  0.2738
   15SOL    HW1   44   2.632   1.201   1.576  1.0354  2.8369 -1.4998
   15SOL    HW2   45   2.543   1.084   1.668  0.4977 -0.4076  0.3251
   16SOL     OW   46   1.832   2.834   2.920 -0.2263 -0.2222 -0.4831
   16SOL    HW1   47   1.825   2.819   2.819  1.8039 -1.7436  0.3909
   16SOL    HW2   48   1.772   2.766   2.973 -3.9310  0.3891 -0.4672
   17SOL     OW   49   0.947   3.021   1.325 -0.1813 -0.4008 -0.2072
   17SOL    HW1   50   0.999   3.012   1.239 -0.8600  0.2981  0.1526
   17SOL    HW2   51   0.919   2.925   1.353  0.8154 -2.8211 -0.8221
   18SOL     OW   52   1.658   0.538   2.894 -0.2284 -0.1179  0.5789
   18SOL    HW1   53   1.602   0.493   2.970  2.7744 -1.0086  0.2742
   18SOL    HW2   54   1.754   0.547   2.923 -0.5321 -0.3146 -0.8764
   19SOL     OW   55   2.015   1.869   2.962 -0.0651 -0.4226 -0.3979
   19SOL    HW1   56   2.032   1.774   2.988  2.3027  1.6426  1.9184
   19SOL    HW2   57   2.054   1.937   3.026  2.0349 -1.5923 -0.7297
   20SOL     OW   58   1.968   1.519   1.499 -0.2830  0.7413  0.0911
   20SOL    HW1   59   2.056   1.482   1.539  2.1125 -0.7273  1.2541
   20SOL    HW2   60   1.891   1.456   1.510 -2.2055  1.3206  1.3568
   21SOL     OW   61   0.668   1.418   2.859  0.0073 -0.0412  0.1493
   21SOL    HW1   62   0.759   1.420   2.813  0.3974  1.1360 -0.3067
   21SOL    HW2   63   0.664   1.336   2.924  2.3413 -1.5168  4.0735
   22SOL     OW   64   1.820   2.760   1.362  0.3273  0.1097 -0.1598
   22SOL    HW1   65   1.764   2.846   1.363  0.3803  2.1527 -0.8420
   22SOL    HW2   66   1.902   2.780   1.305 -0.6421  0.2038 -2.2123
   23SOL     OW   67   2.941   0.545   1.646 -0.0201 -0.5761 -0.1015
   23SOL    HW1   68   3.038   0.547   1.618 -1.8504 -0.7124 -1.8919
   23SOL    HW2   69   2.887   0.628   1.618 -0.6123  2.0236 -0.9056
   24SOL     OW   70   2.148   2.554   0.918  0.3290  0.4122 -0.3015
   24SOL    HW1   71   2.188   2.545   1.017 -0.3519  0.9981  3.4293
   24SOL    HW2   72   2.126   2.466   0.880  0.6085  1.7606 -2.6939
   25SOL     OW   73   1.402   2.731   2.517 -0.0497 -0.2965  0.6712
   25SOL    HW1   74   1.464   2.691   2.444  0.5167  1.0707  0.0816
   25SOL    HW2   75   1.304   2.713   2.492 -1.8576 -0.3538 -0.8702
   26SOL     OW   76   1.832   2.801   2.649 -0.8118 -0.5734  0.2777
   26SOL    HW1   77   1.875   2.876   2.591  0.6229  3.0731  1.4438
   26SOL    HW2   78   1.731   2.817   2.658  1.0182 -0.7566  1.0826
   27SOL     OW   79   0.199   1.687   2.878  0.0819  0.2440  0.0264
   27SOL    HW1   80   0.122   1.721   2.936  1.9284 -0.7552 -1.7656
   27SOL    HW2   81   0.162   1.617   2.818 -1.6410  3.8338  1.8690
   28SOL     OW   82   2.802   1.262   1.559  0.0731 -0.0217 -0.4713
   28SOL    HW1   83   2.771   1.305   1.471 -2.3485 -2.7158 -1.4049
   28SOL    HW2   84   2.845   1.323   1.623 -0.8076 -1.8990  2.1664
   29SOL     OW   85   2.403   2.593   1.549 -0.2253  0.7011 -0.3344
   29SOL    HW1   86   2.388   2.504   1.599  1.0101  3.0173 -1.1495
   29SOL    HW2   87   2.440   2.662   1.616  1.1947 -0.7696  0.9959
   30SOL     OW   88   1.493   0.364   3.065 -0.5860 -0.4532 -0.1273
   30SOL    HW1   89   1.407   0.368   3.008 -3.3357 -1.7645 -0.9485
   30SOL    HW2   90   1.473   0.325   0.071  1.4120 -1.4621 -0.4841
   31SOL     OW   91   2.566   2.747   1.760  0.4143  0.0339  0.2793
   31SOL    HW1   92   2.636   2.754   1.834  0.5277 -1.3769 -0.8650
   31SOL    HW2   93   2.489   2.812   1.772 -4.0406  0.0480  1.4812
   32SOL     OW   94   1.068   1.532   1.555 -0.1689  0.1261  0.1710
   32SOL    HW1   95   0.982   1.551   1.610  1.4194 -0.9696  0.5594
   32SOL    HW2   96   1.043   1.504   1.463  0.7202 -3.2417 -1.0097
   33SOL     OW   97   0.289   2.622   2.294  0.1849 -0.1135 -0.1104
   33SOL    HW1   98   0.324   2.526   2.286 -2.8551 -2.5424  0.1763
   33SOL    HW2   99   0.214   2.642   2.224 -1.2175  1.7026 -0.1100
   34SOL     OW  100   1.504   3.021   0.612  0.6058  0.0426  0.3449
   34SOL    HW1  101   1.416   3.065   0.626  0.1852 -3.0690 -1.8599
   34SOL    HW2  102   1.579   0.001   0.627  0.4597 -1.0087 -0.8393
   35SOL     OW  103   2.027   3.075   0.803  0.4563  0.8947 -0.1256
   35SOL    HW1  104   2.009   3.044   0.707  0.6016 -1.1448  0.5879
   35SOL    HW2  105   1.942   3.076   0.859 -2.3377 -0.4497 -0.4587
   36SOL     OW  106   1.856   2.482   2.240  0.1459 -0.0707  0.1820
   36SOL    HW1  107   1.940   2.512   2.195 -1.3665 -2.0874 -1.0810
   36SOL    HW2  108   1.845   2.389   2.206  0.7853  3.3913 -0.2141
   37SOL     OW  109   0.814   2.702   2.429  0.1736  0.0518  0.4133
   37SOL    HW1  110   0.717   2.722   2.413  1.9769  2.5867 -0.0782
   37SOL    HW2  111   0.824   2.619   2.489  0.2670 -1.2008 -0.1252
   38SOL     OW  112   0.061   2.648   2.519 -0.2809  0.3636  0.8208
   38SOL    HW1  113   0.131   2.576   2.532 -1.1481 -0.1979  0.8406
   38SOL    HW2  114   0.107   2.739   2.505 -1.4329  1.2283  1.0284
   39SOL     OW  115   2.531   1.221   2.103 -0.2742  0.1304 -0.2615
   39SOL    HW1  116   2.557   1.259   2.011  0.3458 -0.3208  1.2943
   39SOL    HW2  117   2.428   1.204   2.108 -3.4655 -3.5058  1.5613
   40SOL     OW  118   0.416   2.813   2.986 -0.0172 -0.1102  0.0917
   40SOL    HW1  119   0.413   2.840   3.085 -0.8337  1.5647  3.5002
   40SOL    HW2  120   0.359   2.733   2.964  0.5641  1.9502 -1.4972
   41SOL     OW  121   1.843   0.655   0.937 -0.2939  0.0994 -0.0739
   41SOL    HW1  122   1.929   0.712   0.944 -0.3479 -0.3183 -1.3147
   41SOL    HW2  123   1.770   0.701   0.881 -1.9474 -2.0339  0.4895
   42SOL     OW  124   0.552   0.423   1.180 -0.0403 -0.4615  0.5796
   42SOL    HW1  125   0.650   0.454   1.183  1.3064  0.7486 -0.5551
   42SOL    HW2  126   0.509   0.461   1.096  2.2216 -3.4607 -1.4826
   43SOL     OW  127   2.715   1.281   2.926 -0.0713  0.5756  0.2300
   43SOL    HW1  128   2.671   1.201   2.876 -1.9107 -0.3552  0.9461
   43SOL    HW2  129   2.751   1.349   2.858  0.0540  1.2138 -1.1932
   44SOL     OW  130   2.975   2.812   0.687  0.4695 -0.3159 -0.0394
   44SOL    HW1  131   3.073   2.798   0.658  0.0133 -1.6799 -1.9514
   44SOL    HW2  132   2.966   2.808   0.788 -1.5780  3.1876  0.7401
   45SOL     OW  133   0.103   2.794   1.463 -0.2591  0.4128 -0.3855
   45SOL    HW1  134   0.132   2.876   1.518 -1.8600 -0.8054 -2.2750
   45SOL    HW2  135   0.070   2.828   1.371  1.3492 -1.2085  2.9402
   46SOL     OW  136   2.293   2.448   2.310  0.7960 -0.2941 -0.5662
   46SOL    HW1  137   2.385   2.394   2.332 -0.0337  3.9307  0.8334
   46SOL    HW2  138   2.321   2.537   2.264  1.3393  0.6722  0.1535
   47SOL     OW  139   2.276   2.052   1.161 -0.2469 -0.4748  0.3590
   47SOL    HW1  140   2.218   2.136   1.169 -2.2830  2.0772  0.5307
   47SOL    HW2  141   2.229   1.967   1.121 -1.0573 -1.8203 -0.9646
   48SOL     OW  142   0.557   1.499   0.172 -0.1226  0.4347 -0.4748
   48SOL    HW1  143   0.643   1.484   0.115  0.6065  1.1474 -0.5095
   48SOL    HW2  144   0.564   1.452   0.262 -2.4858 -0.8042 -0.0637
   49SOL     OW  145   2.829   0.259   2.533  0.1425 -0.4593  0.0371
   49SOL    HW1  146   2.727   0.263   2.527  0.7490  2.0137  0.4655
   49SOL    HW2  147   2.875   0.314   2.462 -2.0289 -1.8269  1.5415
   50SOL     OW  148   2.262   0.814   0.319 -0.0338 -0.1346 -0.1354
   50SOL    HW1  149   2.175   0.788   0.371 -3.1329 -1.5343  0.0104
   50SOL    HW2  150   2.260   0.768   0.226  0.5526  1.7619  0.0137
   51SOL     OW  151   2.103   0.774   1.006  0.4060 -0.4210 -0.3748
   51SOL    HW1  152   2.152   0.713   1.074  0.6072 -0.2993  1.7317
   51SOL    HW2  153   2.157   0.863   0.988 -0.1437  0.3888  1.3416
   52SOL     OW  154   1.204   1.269   2.847  0.1289  0.4665  0.0276
   52SOL    HW1  155   1.234   1.327   2.769  1.4536 -2.2203  0.0355
   52SOL    HW2  156   1.263   1.185   2.851  3.6821 -0.0848 -1.9763
   53SOL     OW  157   0.729   1.551   1.997  0.1226 -0.2508  0.0015
   53SOL    HW1  158   0.651   1.495   2.035 -1.0337  0.1518 -1.1243
   53SOL    HW2  159   0.817   1.501   1.990 -0.3614 -0.0938 -1.1211
   54SOL     OW  160   2.133   0.353   1.021  0.1563  0.3948 -0.0550
   54SOL    HW1  161   2.123   0.340   0.917 -0.5493 -2.5597 -0.3615
   54SOL    HW2  162   2.193   0.427   1.050 -0.0733 -2.5335 -0.1369
   55SOL     OW  163   2.539   2.310   1.011 -0.3055  0.2207  0.5761
   55SOL    HW1  164   2.537   2.241   1.085 -1.0625  1.3202 -2.7628
   55SOL    HW2  165   2.456   2.306   0.952  0.9950  1.6312  0.3507
   56SOL     OW  166   0.934   2.900   1.695  0.3066  0.3542  0.3910
   56SOL    HW1  167   0.934   2.905   1.799  0.0341 -1.8806  0.7589
   56SOL    HW2  168   0.999   2.961   1.649 -1.2606 -0.1070  1.2325
   57SOL     OW  169   1.551   1.445   0.065  0.6783  0.2999  0.2501
   57SOL    HW1  170   1.555   1.446   3.049 -0.1882  0.9646 -0.7997
   57SOL    HW2  171   1.612   1.521   0.103  0.2880  1.2708  1.2977
   58SOL     OW  172   3.080   0.650   2.454  0.1576  0.2967 -0.5950
   58SOL    HW1  173   0.070   0.621   2.398 -2.3946 -1.3830  3.6204
   58SOL    HW2  174   0.009   0.616   2.551  0.4627  0.7010 -2.2848
   59SOL     OW  175   0.921   2.506   2.588 -0.3575 -0.1396 -0.2543
   59SOL    HW1  176   0.982   2.548   2.660  1.1503 -1.4284  2.8136
   59SOL    HW2  177   0.856   2.438   2.631 -0.3048 -0.9753 -1.2863
   60SOL     OW  178   2.547   2.424   0.633  0.5627  0.0528  0.3610
   60SOL    HW1  179   2.551   2.514   0.681  2.4915 -0.1362 -1.8017
   60SOL    HW2  180   2.535   2.432   0.532 -0.7380  0.2425  1.4845
   61SOL     OW  181   1.220   2.131   0.824 -0.0726  0.0932  0.0096
   61SOL    HW1  182   1.201   2.229   0.836  0.9097 -0.2512  2.2584
   61SOL    HW2  183   1.169   2.097   0.739 -1.5513 -2.3820 -2.5359
   62SOL     OW  184   2.403   2.125   2.521 -0.4851 -0.2150  0.2130
   62SOL    HW1  185   2.412   2.151   2.620 -1.1145 -1.0934  0.7683
   62SOL    HW2  186   2.367   2.027   2.508 -0.0938 -2.0574 -1.1986
   63SOL     OW  187   2.121   2.831   2.946  0.1003 -0.0806 -0.2967
   63SOL    HW1  188   2.026   2.862   2.958  2.1629 -1.3686  1.2812
   63SOL    HW2  189   2.164   2.867   2.860  0.1113  0.1407  2.0924
   64SOL     OW  190   1.271   0.749   2.793 -0.1523 -0.6791  0.4315
   64SOL    HW1  191   1.282   0.681   2.869 -1.0453 -0.3519  0.0544
   64SOL    HW2  192   1.352   0.749   2.725  0.8567  1.4693 -1.3312
   65SOL     OW  193   1.472   2.472   0.160 -0.0953  0.0183 -0.4970
   65SOL    HW1  194   1.416   2.461   0.078  1.7390  0.4436  1.1999
   65SOL    HW2  195   1.564   2.419   0.157  0.4531 -0.5153 -0.5101
   66SOL     OW  196   0.430   1.344   1.828 -0.4478 -0.2445 -0.3022
   66SOL    HW1  197   0.404   1.248   1.809  3.1555  2.2197 -0.3299
   66SOL    HW2  198   0.347   1.405   1.815 -1.0884  3.2026 -1.0247
   67SOL     OW  199   2.633   2.787   2.840 -0.0762 -0.1285 -0.3716
   67SOL    HW1  200   2.532   2.761   2.825 -1.6991 -0.9942 -0.8054
   67SOL    HW2  201   2.671   2.851   2.770 -1.6982  2.0438 -1.9792
   68SOL     OW  202   0.751   2.324   1.264 -0.1155  0.4893 -0.1781
   68SOL    HW1  203   0.770   2.248   1.332 -0.5154 -2.2468  2.0024
   68SOL    HW2  204   0.773   2.413   1.310  1.7319  2.0064 -0.1490
   69SOL     OW  205   0.397   2.259   0.464 -0.1857  0.0059  0.0784
   69SOL    HW1  206   0.468   2.208   0.516  2.6792 -0.1557  2.8203
   69SOL    HW2  207   0.357   2.335   0.520  1.3558  0.7191  2.4999
   70SOL     OW  208   2.670   0.971   2.607 -0.3463  0.1194 -0.1354
   70SOL    HW1  209   2.755   0.927   2.574 -0.0229  0.6840  2.1544
   70SOL    HW2  210   2.596   0.955   2.540 -2.8576 -2.4157  0.5081
   71SOL     OW  211   0.658   1.051   2.560  0.2515  0.3629 -0.1920
   71SOL    HW1  212   0.604   0.996   2.500  1.9140  2.4548 -0.6470
   71SOL    HW2  213   0.639   1.154   2.540  0.4069 -0.9773 -2.9282
   72SOL     OW  214   0.139   2.202   0.372 -0.0654 -0.1168 -0.4239
   72SOL    HW1  215   0.237   2.222   0.402  3.3591  0.9305  0.2125
   72SOL    HW2  216   0.103   2.270   0.311 -1.4888 -3.9174  0.3516
   73SOL     OW  217   0.981   1.298   0.399 -0.2793 -0.1523 -0.0202
   73SOL    HW1  218   0.903   1.363   0.372  0.4440  1.8701 -3.2324
   73SOL    HW2  219   1.050   1.337   0.461 -0.3008  2.7868  0.7299
   74SOL     OW  220   2.759   0.113   0.284 -0.7155  0.6224 -0.2605
   74SOL    HW1  221   2.680   0.158   0.333 -2.2371  0.8063  0.4486
   74SOL    HW2  222   2.853   0.145   0.313 -1.9195 -1.0635 -0.5330
   75SOL     OW  223   2.341   1.562   2.010  0.0359  0.3442 -0.2148
   75SOL    HW1  224   2.266   1.510   1.974 -0.4227 -0.0898  1.5802
   75SOL    HW2  225   2.401   1.601   1.932  0.8165  0.6781 -0.6280
   76SOL     OW  226   2.058   2.548   1.565 -0.5954  0.4295 -0.3200
   76SOL    HW1  227   2.037   2.488   1.483 -0.9355  1.2122  0.2834
   76SOL    HW2  228   2.048   2.647   1.544 -0.2385 -3.5955  1.7982
   77SOL     OW  229   2.422   0.537   1.360  0.4586  0.1797  0.2898
   77SOL    HW1  230   2.438   0.443   1.393 -1.7335  0.4718 -0.9181
   77SOL    HW2  231   2.415   0.602   1.439 -0.3408  1.1463  0.1341
   78SOL     OW  232   1.901   0.947   2.891  0.1554 -0.4247  0.2756
   78SOL    HW1  233   1.874   0.943   2.988 -0.1078 -1.6485  0.1595
   78SOL    HW2  234   1.922   0.855   2.861 -2.0748 -0.6923  1.4714
   79SOL     OW  235   0.335   1.528   2.225 -0.1710 -0.2664  0.5220
   79SOL    HW1  236   0.314   1.606   2.165  0.2149 -2.3097  2.2197
   79SOL    HW2  237   0.422   1.476   2.199  0.9476 -0.6423  0.7657
   80SOL     OW  238   1.534   0.900   1.361  0.0170  0.1081 -0.7167
   80SOL    HW1  239   1.533   0.960   1.282 -2.1869 -1.3664 -0.5380
   80SOL    HW2  240   1.443   0.854   1.364  1.8687  0.7223  1.5141
   81SOL     OW  241   1.066   0.317   1.276 -0.3218  0.5269  0.5845
   81SOL    HW1  242   0.974   0.272   1.286  2.0380  0.9581  2.5822
   81SOL    HW2  243   1.061   0.405   1.226  0.6495  0.5943  0.7138
   82SOL     OW  244   1.378   2.189   1.918  0.1720  0.1558 -0.2075
   82SOL    HW1  245   1.378   2.084   1.935  1.3730  1.0274 -0.1160
   82SOL    HW2  246   1.434   2.211   1.834  2.2625  2.0908 -0.4122
   83SOL     OW  247   0.591   0.076   0.836  0.7333 -0.1160 -0.4580
   83SOL    HW1  248   0.640   0.084   0.924 -0.4909  3.2889  2.0648
   83SOL    HW2  249   0.599   0.161   0.780  0.3054 -2.1371  1.1983
   84SOL     OW  250   0.071   0.858   2.998  0.0940 -0.1327 -0.6896
   84SOL    HW1  251   0.171   0.873   2.984  0.8192  0.6138  0.7048
   84SOL    HW2  252   0.010   0.910   2.939 -2.0262 -2.0091  3.2019
   85SOL     OW  253   2.793   2.578   1.715 -0.3664  0.1383 -0.7395
   85SOL    HW1  254   2.867   2.644   1.677  0.0828  0.5942 -0.3348
   85SOL    HW2  255   2.698   2.620   1.716 -2.3311  0.7079 -0.9193
   86SOL     OW  256   2.978   2.732   1.626 -0.0309 -0.2507 -0.0547
   86SOL    HW1  257   2.946   2.830   1.638  1.3310 -0.7368  0.4283
   86SOL    HW2  258   3.043   2.727   1.547  3.5408 -2.2101 -0.7492
   87SOL     OW  259   2.968   2.950   3.057  0.6141 -0.4414  0.5559
   87SOL    HW1  260   2.985   2.953   2.957 -1.2903  0.2274 -0.1755
   87SOL    HW2  261   2.880   2.894   3.063  0.7286 -0.4163  2.4001
   88SOL     OW  262   0.368   1.987   1.224 -0.1828  0.0414 -0.3314
   88SOL    HW1  263   0.422   2.074   1.237 -0.6428 -1.4954 -0.8624
   88SOL    HW2  264   0.289   1.988   1.158 -3.8077 -0.8340 -2.2471
   89SOL     OW  265   1.248   0.664   1.808  0.3845  0.3807 -0.8277
   89SOL    HW1  266   1.228   0.569   1.780  0.0711  2.2068  1.2090
   89SOL    HW2  267   1.291   0.658   1.898  1.0409 -1.6610 -0.4037
   90SOL     OW  268   2.874   1.602   1.981  0.4876  0.4537  0.3044
   90SOL    HW1  269   2.887   1.578   2.080 -0.1770  0.5093  0.7984
   90SOL    HW2  270   2.908   1.696   1.970 -0.2213 -1.0941  0.2985
   91SOL     OW  271   1.462   1.770   0.686  0.0900 -0.3557 -0.5129
   91SOL    HW1  272   1.505   1.847   0.739  2.5057 -1.8419  0.3849
   91SOL    HW2  273   1.389   1.728   0.745 -1.4500  0.7205  0.1608
   92SOL     OW  274   2.272   0.573   1.101 -0.4546 -0.0556 -0.0861
   92SOL    HW1  275   2.337   0.605   1.033 -0.5357 -1.9167  0.6573
   92SOL    HW2  276   2.325   0.545   1.182  2.0628 -1.1613 -1.6446
   93SOL     OW  277   2.613   1.457   0.009  0.4139 -0.1908 -0.3038
   93SOL    HW1  278   2.657   1.383   3.040 -0.6436 -1.8095  1.0020
   93SOL    HW2  279   2.613   1.432   0.109  0.4916 -0.7644  1.4100
   94SOL     OW  280   2.520   2.302   2.358  0.8263 -0.2857 -0.7215
   94SOL    HW1  281   2.477   2.227   2.409  1.0744  1.1571  0.6975
   94SOL    HW2  282   2.622   2.304   2.374 -0.9937  2.1027 -0.1531
   95SOL     OW  283   1.935   0.465   1.136  0.5031 -0.2151 -0.6019
   95SOL    HW1  284   1.907   0.528   1.061 -0.3670 -0.2146  0.0400
   95SOL    HW2  285   2.020   0.416   1.108 -1.8661 -0.6151 -0.3458
   96SOL     OW  286   2.748   0.063   1.687  0.8467  0.0540  0.9135
   96SOL    HW1  287   2.727   0.028   1.785  2.4321 -0.6094  2.0928
   96SOL    HW2  288   2.678   0.035   1.617  3.3666 -0.0753 -0.5031
   97SOL     OW  289   2.000   2.887   1.159 -0.6327  0.2539  0.2376
   97SOL    HW1  290   2.008   2.848   1.063  0.9258 -0.6535 -3.7332
   97SOL    HW2  291   1.957   2.978   1.142 -0.4426  3.6172 -2.0081
   98SOL     OW  292   1.498   2.332   1.478 -0.2780 -0.3842 -0.2138
   98SOL    HW1  293   1.579   2.399   1.461  1.7233  2.1473  0.5315
   98SOL    HW2  294   1.510   2.242   1.425 -0.2274 -0.6229  0.3181
   99SOL     OW  295   2.703   2.804   2.006 -0.1687 -0.1379  0.4570
   99SOL    HW1  296   2.635   2.819   2.083 -0.9821  2.7665  0.0428
   99SOL    HW2  297   2.791   2.794   2.056 -0.4371  0.4622 -1.3799
  100SOL     OW  298   0.244   0.799   2.713 -0.5315  0.7286 -0.0382
  100SOL    HW1  299   0.290   0.847   2.793  0.6896  1.4501 -1.7775
  100SOL    HW2  300   0.302   0.728   2.676 -2.5891  0.7103 -0.1906
  101SOL     OW  301   1.930   0.820   0.076 -0.5004 -0.6226 -0.1511
  101SOL    HW1  302   1.865   0.824   0.154 -0.2937 -2.9116 -0.5140
  101SOL    HW2  303   2.004   0.885   0.082  0.1500  0.5516 -0.7844
  102SOL     OW  304   0.112   0.560   1.601 -0.6866 -0.2081 -0.1462
  102SOL    HW1  305   0.146   0.642   1.654 -0.4884  0.2057 -0.2220
  102SOL    HW2  306   0.185   0.489   1.611  2.5662  0.8259 -0.8593
  103SOL     OW  307   3.032   1.011   2.039 -0.5748 -0.2024 -0.4385
  103SOL    HW1  308   3.057   0.912   2.041 -1.8452 -0.7051 -1.9568
  103SOL    HW2  309   2.994   1.040   2.131 -1.8934 -0.8401  0.0633
  104SOL     OW  310   0.201   0.262   2.681  0.1482  0.1954 -0.3052
  104SOL    HW1  311   0.300   0.281   2.700 -3.2666 -1.2121  0.7068
  104SOL    HW2  312   0.170   0.255   2.584 -1.7699  0.6451  3.0139
  105SOL     OW  313   2.065   1.996   1.356 -0.0819  0.2140  0.7797
  105SOL    HW1  314   2.012   1.911   1.382  1.6639  2.4566  1.6795
  105SOL    HW2  315   2.164   1.974   1.375  0.2981  1.0779 -1.1120
  106SOL     OW  316   1.773   0.415   0.476 -0.5652  0.5557  0.5723
  106SOL    HW1  317   1.814   0.356   0.403  0.2208 -1.4446 -1.0996
  106SOL    HW2  318   1.839   0.432   0.554  2.1622  0.5833  1.0604
  107SOL     OW  319   0.193   1.947   1.674 -0.9403 -0.6035  0.2878
  107SOL    HW1  320   0.218   2.040   1.716  0.6650  1.4723  1.2387
  107SOL    HW2  321   0.177   1.957   1.572 -2.2998 -0.6472  1.8999
  108SOL     OW  322   2.961   2.781   2.104  0.1713 -0.1386 -0.2157
  108SOL    HW1  323   3.060   2.757   2.101 -0.2032 -3.1576 -1.1752
  108SOL    HW2  324   2.939   2.874   2.145  0.6082 -0.7446  0.9771
  109SOL     OW  325   1.565   0.231   0.427 -0.0887  0.5238  0.4733
  109SOL    HW1  326   1.630   0.302   0.459  1.4897  0.7677  0.8886
  109SOL    HW2  327   1.595   0.136   0.453 -0.3399 -2.8555  1.2114
  110SOL     OW  328   0.324   2.024   2.392 -0.5753  0.4866  0.0792
  110SOL    HW1  329   0.369   2.102   2.427  0.2091 -0.8169 -1.5604
  110SOL    HW2  330   0.357   1.939   2.438 -0.2889  0.1865 -2.2875
  111SOL     OW  331   1.544   2.396   2.034 -0.0609 -0.1114 -0.6193
  111SOL    HW1  332   1.616   2.325   2.053  0.1313  0.9850  1.8680
  111SOL    HW2  333   1.457   2.352   2.000  2.0009 -0.0790  0.5138
  112SOL     OW  334   1.692   2.634   2.403 -0.8749 -0.2882 -0.0041
  112SOL    HW1  335   1.747   2.675   2.479 -0.1564 -0.0133 -2.4550
  112SOL    HW2  336   1.744   2.569   2.343  0.1246  2.4398 -0.9322
  113SOL     OW  337   1.912   2.497   1.800  0.3411 -0.2054 -0.2785
  113SOL    HW1  338   1.955   2.524   1.710  0.7485  1.7726  1.6926
  113SOL    HW2  339   1.887   2.401   1.817 -0.8299 -1.0747  0.3033
  114SOL     OW  340   2.919   0.746   0.913 -0.2636 -0.1856 -0.5294
  114SOL    HW1  341   2.855   0.819   0.881  0.2590  1.7278  0.5349
  114SOL    HW2  342   2.900   0.656   0.863 -3.1264 -3.1915  0.2292
  115SOL     OW  343   0.339   0.912   2.942  0.0818  0.4154 -0.6086
  115SOL    HW1  344   0.353   1.011   2.963 -2.6985 -1.1567 -3.1013
  115SOL    HW2  345   0.428   0.864   2.939 -0.7220  0.3307  0.7272
  116SOL     OW  346   0.143   1.352   2.211 -0.2053 -0.2876 -0.4738
  116SOL    HW1  347   0.168   1.274   2.159  0.9024  1.6563  1.9481
  116SOL    HW2  348   0.222   1.418   2.228 -0.2150  2.3642 -1.9359
  117SOL     OW  349   2.435   0.029   0.695 -0.1554  0.3774 -1.0527
  117SOL    HW1  350   2.530   0.054   0.720  1.9219 -0.9468  0.5662
  117SOL    HW2  351   2.433   0.013   0.591  1.6137  1.5838 -0.6465
  118SOL     OW  352   1.315   1.732   1.694 -0.1582 -0.5261 -0.0047
  118SOL    HW1  353   1.325   1.682   1.608 -3.0332  1.9892  1.2549
  118SOL    HW2  354   1.404   1.775   1.729  0.3365  0.4713  1.4930
  119SOL     OW  355   0.786   2.281   2.742 -0.1984 -0.3271  0.3820
  119SOL    HW1  356   0.864   2.274   2.814  0.4707 -0.1557  0.7781
  119SOL    HW2  357   0.697   2.287   2.790 -0.7858  1.8139  1.1457
  120SOL     OW  358   0.569   0.761   2.906  0.1674  0.8879 -0.1699
  120SOL    HW1  359   0.582   0.661   2.935  1.6074 -0.8375 -0.8665
  120SOL    HW2  360   0.641   0.773   2.836 -0.4514  1.5911 -0.9705
  121SOL     OW  361   1.764   2.496   1.138  0.0705  0.2346  0.3388
  121SOL    HW1  362   1.780   2.577   1.081  0.7785  1.2959 -1.5486
  121SOL    HW2  363   1.688   2.442   1.097  1.7037  1.0644 -0.5359
  122SOL     OW  364   2.440   2.336   1.653  0.2296 -0.4063  0.9924
  122SOL    HW1  365   2.505   2.325   1.731 -0.9236 -1.3026 -0.9741
  122SOL    HW2  366   2.477   2.289   1.570 -1.4383 -0.3070  0.2592
  123SOL     OW  367   0.170   2.943   0.413  0.1010 -0.4591 -0.0986
  123SOL    HW1  368   0.262   2.905   0.392  0.4822  1.4397  2.1462
  123SOL    HW2  369   0.110   2.938   0.329  1.1961 -0.8588  0.7393
  124SOL     OW  370   2.206   1.118   2.582  0.1687 -0.3987  0.6879
  124SOL    HW1  371   2.256   1.204   2.613  3.7099  1.0465 -0.5750
  124SOL    HW2  372   2.133   1.091   2.643 -2.0510  0.7435 -2.5321
  125SOL     OW  373   0.439   1.036   0.662  0.6144 -0.3532 -0.7032
  125SOL    HW1  374   0.464   0.961   0.726 -0.4629  2.8605  1.4548
  125SOL    HW2  375   0.499   1.116   0.679 -1.0873 -0.7017  1.9658
  126SOL     OW  376   2.878   1.868   0.891 -0.2056  0.1533 -0.7309
  126SOL    HW1  377   2.932   1.797   0.940  1.3323  0.1876  1.6960
  126SOL    HW2  378   2.874   1.956   0.946  0.9104 -0.3607  2.6711
  127SOL     OW  379   0.044   2.369   1.859 -1.1180  0.0414  0.4412
  127SOL    HW1  380   0.114   2.299   1.830  0.7268 -1.8169  2.6887
  127SOL    HW2  381   3.036   2.351   1.823  0.6561  0.5698  2.4654
  128SOL     OW  382   0.944   0.686   3.020 -0.2418 -0.3553  0.2225
  128SOL    HW1  383   0.924   0.592   3.002  1.5076 -0.1795 -1.5810
  128SOL    HW2  384   0.891   0.732   0.005  0.8158  0.4522 -1.3415
  129SOL     OW  385   2.551   1.044   1.082  0.1984  0.6939  0.2106
  129SOL    HW1  386   2.606   1.102   1.019 -1.2894 -0.5489  1.4302
  129SOL    HW2  387   2.611   1.020   1.160  2.7104 -1.4396  1.0257
  130SOL     OW  388   2.293   1.179   1.510  0.1293  0.0599  0.3730
  130SOL    HW1  389   2.378   1.149   1.552 -1.9301  1.3434  0.1526
  130SOL    HW2  390   2.306   1.180   1.408  3.1297  1.4247  0.4311
  131SOL     OW  391   2.649   0.123   0.056  0.0550 -0.7251 -0.2048
  131SOL    HW1  392   2.702   0.134   0.144  2.8719  0.8811  5.8176
  131SOL    HW2  393   2.550   0.141   0.077  2.1482  1.2926  2.5787
  132SOL     OW  394   2.867   2.312   1.726  0.4097  0.0570 -0.0931
  132SOL    HW1  395   2.830   2.409   1.721 -0.2666  0.5692 -1.0801
  132SOL    HW2  396   2.857   2.269   1.819 -0.5727  1.4785  1.8833
  133SOL     OW  397   0.906   0.742   1.356 -0.3735 -0.9461  0.7800
  133SOL    HW1  398   0.965   0.686   1.290  2.3775 -0.0395 -1.3164
  133SOL    HW2  399   0.887   0.835   1.317 -1.9861  1.1530 -1.0571
  134SOL     OW  400   0.284   1.425   0.343 -0.1863 -0.3460 -0.0077
  134SOL    HW1  401   0.202   1.406   0.286 -1.0496 -1.5947  0.0011
  134SOL    HW2  402   0.370   1.376   0.311  1.9730 -1.4383  0.9257
  135SOL     OW  403   2.125   0.985   1.586  0.6363 -0.1527 -0.0807
  135SOL    HW1  404   2.192   1.060   1.563 -2.1509 -1.8778  1.2821
  135SOL    HW2  405   2.045   1.018   1.641 -3.0026  0.0580  0.8547
  136SOL     OW  406   2.712   0.879   0.523  0.4651  0.0881 -0.3788
  136SOL    HW1  407   2.616   0.904   0.492  1.2850 -0.4313  0.1710
  136SOL    HW2  408   2.727   0.894   0.623 -0.4030 -4.2817  0.8082
  137SOL     OW  409   2.471   1.471   1.326 -0.4808 -0.0508 -0.5461
  137SOL    HW1  410   2.562   1.427   1.328 -0.6400  1.2050 -1.0168
  137SOL    HW2  411   2.399   1.407   1.295 -1.9020 -0.6832 -0.5239
  138SOL     OW  412   1.834   0.605   1.619 -0.3912 -0.2772  0.9668
  138SOL    HW1  413   1.892   0.630   1.699 -0.2378 -1.0924  1.0316
  138SOL    HW2  414   1.884   0.578   1.532  2.7446  0.0416 -3.1789
  139SOL     OW  415   1.895   0.003   2.951  0.1103  0.0185  0.1027
  139SOL    HW1  416   1.867   2.991   2.938 -2.2959 -1.5347 -0.7362
  139SOL    HW2  417   1.906   0.023   3.052  1.3014  0.0363  3.3468
  140SOL     OW  418   1.552   1.817   1.764 -0.3026 -0.2390 -0.0610
  140SOL    HW1  419   1.524   1.873   1.846  0.4764 -0.7900 -0.6803
  140SOL    HW2  420   1.607   1.737   1.793 -1.2294  1.0581 -0.3381
  141SOL     OW  421   1.998   2.016   0.875 -0.2048 -0.6517  0.2850
  141SOL    HW1  422   2.028   1.955   0.949 -2.3725 -0.1585  0.3016
  141SOL    HW2  423   2.079   2.060   0.828 -1.6122 -0.6021 -1.0868
  142SOL     OW  424   0.066   0.929   0.169 -0.1443 -0.4806 -0.1802
  142SOL    HW1  425   0.046   0.909   0.070  0.9069 -0.8110  2.2376
  142SOL    HW2  426   3.074   0.895   0.228  0.1545  1.7089 -0.3131
  143SOL     OW  427   0.371   2.132   2.739 -0.1857 -0.3758  0.4032
  143SOL    HW1  428   0.271   2.154   2.731  0.5567  0.0472  0.3811
  143SOL    HW2  429   0.383   2.043   2.789 -1.5875 -0.4684  0.5054
  144SOL     OW  430   1.107   3.065   1.541  0.9058  0.2681 -0.2237
  144SOL    HW1  431   1.055   3.045   1.458 -1.5763 -0.8047  0.7237
  144SOL    HW2  432   1.124   0.081   1.550 -0.8493 -3.1886 -1.7330
  145SOL     OW  433   2.323   1.184   0.507 -0.1493  0.3776  0.0352
  145SOL    HW1  434   2.320   1.201   0.405 -2.9446 -1.7306 -1.1544
  145SOL    HW2  435   2.370   1.268   0.536  1.0668  3.0274 -0.5550
  146SOL     OW  436   2.362   2.565   0.242  0.5494  0.1348  0.3430
  146SOL    HW1  437   2.405   2.579   0.151  0.2371  2.3198  1.4729
  146SOL    HW2  438   2.271   2.513   0.239  1.1192  0.5569  0.9411
  147SOL     OW  439   2.223   2.548   1.181  0.2479  0.6807 -0.3644
  147SOL    HW1  440   2.285   2.478   1.228  2.1265 -2.3022 -0.1981
  147SOL    HW2  441   2.254   2.644   1.184  0.2254 -0.7740  2.7094
  148SOL     OW  442   1.421   3.050   2.185  0.2533  0.4689 -0.2485
  148SOL    HW1  443   1.432   0.007   2.277  2.1802 -0.8472  1.5371
  148SOL    HW2  444   1.510   3.015   2.149  1.9497  3.7729  2.2975
  149SOL     OW  445   1.225   0.552   2.513  0.0347  0.0661  0.6214
  149SOL    HW1  446   1.321   0.564   2.478  1.5546  2.4206 -1.8529
  149SOL    HW2  447   1.160   0.625   2.484 -1.1212 -0.2046 -1.6683
  150SOL     OW  448   0.679   2.598   0.185 -0.2327 -0.1276  0.0122
  150SOL    HW1  449   0.763   2.592   0.127 -0.7179 -2.1038 -0.6664
  150SOL    HW2  450   0.705   2.591   0.281 -0.6694  3.0258 -0.1504
  151SOL     OW  451   0.148   1.676   0.137  0.5039  0.1983  0.0523
  151SOL    HW1  452   0.057   1.720   0.122 -2.9189 -0.8139  2.2005
  151SOL    HW2  453   0.140   1.578   0.107 -0.8876  4.2704 -1.3895
  152SOL     OW  454   0.086   0.372   0.616 -0.8204 -0.0003  0.1148
  152SOL    HW1  455   0.130   0.373   0.707  1.3216 -0.0658 -0.1394
  152SOL    HW2  456   0.056   0.277   0.603  0.0284  2.6848  1.5466
  153SOL     OW  457   2.266   3.057   0.910  0.1131 -0.1330 -0.1121
  153SOL    HW1  458   2.167   3.071   0.882  1.5793  2.3514  0.0688
  153SOL    HW2  459   2.325   3.061   0.830  1.1063  1.4140 -0.2800
  154SOL     OW  460   1.121   0.403   1.837 -0.2554  0.1564  0.4955
  154SOL    HW1  461   1.065   0.440   1.913  1.3729 -0.1173 -5.1198
  154SOL    HW2  462   1.112   0.301   1.842  0.4739 -3.5712  0.6129
  155SOL     OW  463   2.780   1.432   1.089  0.0561 -0.2645  0.2230
  155SOL    HW1  464   2.701   1.497   1.092  1.7707 -1.1376 -2.2252
  155SOL    HW2  465   2.860   1.480   1.049  1.8834 -1.0323  0.2160
  156SOL     OW  466   2.507   2.100   0.132  0.4665  0.2576  0.3612
  156SOL    HW1  467   2.466   2.026   0.077 -0.4621  0.0481 -0.6405
  156SOL    HW2  468   2.598   2.074   0.170 -1.1578 -1.9997 -0.4163
  157SOL     OW  469   1.078   2.924   0.621  0.5241  0.1046  0.6731
  157SOL    HW1  470   1.002   2.854   0.613 -0.9997  0.3599 -0.1788
  157SOL    HW2  471   1.170   2.878   0.610  1.2266  1.3358 -0.1202
  158SOL     OW  472   2.205   0.460   2.542 -0.0445 -0.4069  0.4458
  158SOL    HW1  473   2.282   0.513   2.585 -0.4218 -1.6783 -0.0192
  158SOL    HW2  474   2.238   0.393   2.469 -1.5240  1.9631  0.6619
  159SOL     OW  475   0.275   0.133   0.161  0.3443 -0.2607  0.0834
  159SOL    HW1  476   0.183   0.104   0.124 -0.4001 -0.1103  0.9763
  159SOL    HW2  477   0.271   0.163   0.259  0.7692 -1.0953  2.7235
  160SOL     OW  478   1.094   2.116   0.002 -0.2360 -0.3424 -0.0118
  160SOL    HW1  479   1.120   2.033   3.032  4.7929  0.1996  0.8383
  160SOL    HW2  480   1.008   2.104   0.053  2.5360  0.1935 -0.6056
  161SOL     OW  481   2.691   1.783   2.369  0.1682  0.1332 -0.8305
  161SOL    HW1  482   2.703   1.881   2.389  1.1296  1.1050  0.0817
  161SOL    HW2  483   2.601   1.747   2.397  1.1642 -1.3968 -0.7690
  162SOL     OW  484   0.049   2.918   1.228  0.3751 -0.3395 -0.2005
  162SOL    HW1  485   0.140   2.959   1.203  0.2521  1.2427 -0.0334
  162SOL    HW2  486   3.070   2.993   1.260  0.2341  2.3217  1.7288
  163SOL     OW  487   2.090   0.325   2.781  0.2019 -0.1447 -0.2508
  163SOL    HW1  488   2.002   0.274   2.757 -0.5062 -1.3565 -2.3966
  163SOL    HW2  489   2.146   0.365   2.707  1.7626 -0.1173  1.2097
  164SOL     OW  490   3.004   1.527   0.906 -0.0098  0.2655 -0.5093
  164SOL    HW1  491   2.980   1.535   0.805  0.0457  1.0803  0.9266
  164SOL    HW2  492   0.014   1.504   0.912  0.2737  2.9049  1.5391
  165SOL     OW  493   2.892   0.201   1.932 -0.3439  0.3191  0.3854
  165SOL    HW1  494   2.833   0.116   1.934  1.0818 -0.5317  2.5476
  165SOL    HW2  495   2.842   0.283   1.947  1.1542 -1.7883  1.5656
  166SOL     OW  496   2.089   0.658   0.754 -0.5578 -0.0691  0.7062
  166SOL    HW1  497   2.106   0.719   0.834 -1.1157  0.4252 -0.3553
  166SOL    HW2  498   2.161   0.589   0.738 -0.7454  0.3002 -0.7781
  167SOL     OW  499   0.417   0.535   0.499 -0.0408  0.7896  0.2200
  167SOL    HW1  500   0.344   0.609   0.499  0.8181  0.7066  0.6673
  167SOL    HW2  501   0.407   0.480   0.589 -0.3276 -0.7781  0.0377
  168SOL     OW  502   2.043   2.849   2.108  0.3758 -0.1946 -0.3686
  168SOL    HW1  503   2.067   2.752   2.100 -2.9997 -0.8730  0.4203
  168SOL    HW2  504   1.948   2.860   2.146 -1.1174  0.4488  0.3765
  169SOL     OW  505   0.802   1.029   0.833  0.1811  0.4389 -0.0328
  169SOL    HW1  506   0.817   1.075   0.743  0.3376 -1.0699  3.3002
  169SOL    HW2  507   0.728   0.962   0.819 -0.5972  0.4331 -1.9398
  170SOL     OW  508   2.749   0.799   1.565  0.2531  0.1370  0.3322
  170SOL    HW1  509   2.724   0.730   1.493  0.6985  0.4252 -0.4330
  170SOL    HW2  510   2.694   0.783   1.650 -0.4610  0.4224 -1.9479
  171SOL     OW  511   0.916   2.731   1.485  0.1601  0.4270 -0.4320
  171SOL    HW1  512   1.011   2.694   1.489  0.1080 -2.8065  0.3142
  171SOL    HW2  513   0.906   2.798   1.562 -0.7144 -0.3735  0.6474
  172SOL     OW  514   0.175   2.526   1.477 -0.3511  0.0250 -0.1252
  172SOL    HW1  515   0.117   2.479   1.413 -1.7630 -2.3987 -1.0953
  172SOL    HW2  516   0.141   2.622   1.492 -1.1166  1.2196  4.0838
  173SOL     OW  517   1.270   0.389   2.906  0.1973 -0.1221 -0.1977
  173SOL    HW1  518   1.211   0.395   2.827 -1.4269 -1.0976  1.3219
  173SOL    HW2  519   1.231   0.440   2.987 -0.9863  0.7661 -2.2596
  174SOL     OW  520   1.480   0.055   2.453  0.0359 -0.3305  0.4026
  174SOL    HW1  521   1.446   0.139   2.503  0.1374  0.5089  0.7448
  174SOL    HW2  522   1.555   0.011   2.502 -1.7682 -0.5927 -1.2568
  175SOL     OW  523   1.724   2.666   0.017  0.4757  0.4624 -0.0322
  175SOL    HW1  524   1.794   2.630   0.082  1.1352  2.1960  1.4666
  175SOL    HW2  525   1.665   2.593   3.072  0.6461  3.6463  0.9842
  176SOL     OW  526   1.591   0.216   2.808 -0.2205 -0.2142 -0.2048
  176SOL    HW1  527   1.564   0.270   2.894 -4.1733  1.9575  1.1982
  176SOL    HW2  528   1.527   0.244   2.734  1.2221  0.7244 -0.1214
  177SOL     OW  529   0.779   1.478   0.359 -0.2770 -0.2290 -0.1557
  177SOL    HW1  530   0.750   1.526   0.444  0.6153 -1.5518  0.0761
  177SOL    HW2  531   0.788   1.546   0.283  0.4476 -3.3429 -1.0390
  178SOL     OW  532   2.918   2.273   2.446  0.0459  0.0846  0.2627
  178SOL    HW1  533   2.961   2.360   2.414 -0.3938  0.9450  0.4129
  178SOL    HW2  534   2.963   2.230   2.531  0.4035 -0.6682  3.0826
  179SOL     OW  535   0.545   2.490   2.498  0.2652  0.2876 -0.0321
  179SOL    HW1  536   0.566   2.531   2.590  1.0478  1.8438 -0.4899
  179SOL    HW2  537   0.544   2.560   2.423 -1.5723  0.1219 -0.8078
  180SOL     OW  538   2.070   1.840   1.072 -0.1636 -0.2358 -0.0024
  180SOL    HW1  539   2.120   1.755   1.094  0.3956  1.1788 -1.0776
  180SOL    HW2  540   1.968   1.829   1.091  0.2047 -0.4232  0.6902
  181SOL     OW  541   1.773   0.873   2.269  0.0000  0.3655  0.1032
  181SOL    HW1  542   1.751   0.928   2.180 -0.2394  0.0946 -1.7883
  181SOL    HW2  543   1.792   0.929   2.352 -1.8810 -0.6290  0.3001
  182SOL     OW  544   2.746   2.843   2.407  0.2494 -0.0760 -0.3602
  182SOL    HW1  545   2.751   2.753   2.360 -0.1300 -0.1020  0.6681
  182SOL    HW2  546   2.806   2.905   2.366 -2.4216  1.5538  2.2577
  183SOL     OW  547   1.470   0.786   2.618 -0.1401 -0.2152 -0.2063
  183SOL    HW1  548   1.487   0.814   2.521 -1.5057  2.7615  2.7799
  183SOL    HW2  549   1.536   0.714   2.643 -2.2403  0.0420  1.2368
  184SOL     OW  550   1.011   0.788   1.611  0.3575 -0.0248  0.1428
  184SOL    HW1  551   1.059   0.710   1.662 -1.7552 -2.2493 -2.7130
  184SOL    HW2  552   0.981   0.757   1.519  0.6683  2.0319  1.0762
  185SOL     OW  553   2.233   1.025   0.946 -0.2045  0.3284  0.0461
  185SOL    HW1  554   2.221   1.105   1.011  0.3394 -1.5439  2.1144
  185SOL    HW2  555   2.188   1.042   0.857  0.3314 -0.8911  2.0425
  186SOL     OW  556   0.374   1.876   2.827 -0.6545 -0.1178 -0.4008
  186SOL    HW1  557   0.462   1.835   2.850 -0.0797 -1.0749 -1.2198
  186SOL    HW2  558   0.298   1.806   2.845 -3.6104 -0.2917  0.8348
  187SOL     OW  559   2.594   1.436   0.283  0.3816  0.3394  0.1328
  187SOL    HW1  560   2.587   1.521   0.346 -2.5995  2.6545  0.2513
  187SOL    HW2  561   2.665   1.376   0.328  1.6810 -1.1544 -1.0608
  188SOL     OW  562   0.102   1.752   0.655 -0.0477 -0.6841  0.1566
  188SOL    HW1  563   0.060   1.830   0.613  1.4842 -4.2196 -1.8248
  188SOL    HW2  564   0.147   1.776   0.745  1.7093 -1.5657  2.3323
  189SOL     OW  565   2.361   0.564   0.381  0.1110  0.1550 -0.5845
  189SOL    HW1  566   2.346   0.658   0.337  0.5566  2.2307 -4.1469
  189SOL    HW2  567   2.459   0.536   0.360 -1.9415 -0.0657  0.9832
  190SOL     OW  568   1.429   1.310   2.067 -0.7289 -0.4171 -0.1994
  190SOL    HW1  569   1.463   1.397   2.035  2.2025 -1.2788  2.4205
  190SOL    HW2  570   1.377   1.266   1.994 -0.6547  1.9282 -0.0001
  191SOL     OW  571   2.344   0.184   1.780 -0.1082 -0.0870  0.1594
  191SOL    HW1  572   2.286   0.149   1.699 -3.4980 -1.5095 -2.1408
  191SOL    HW2  573   2.296   0.160   1.865 -2.8939  0.3637  0.6597
  192SOL     OW  574   1.858   1.082   1.649 -0.4216  0.0991  0.0682
  192SOL    HW1  575   1.864   1.139   1.570  1.6196 -3.1314  2.8211
  192SOL    HW2  576   1.816   0.995   1.620  1.2395 -0.9018  1.7744
  193SOL     OW  577   0.812   0.654   0.841  0.5612 -0.2096  0.0132
  193SOL    HW1  578   0.810   0.677   0.743  0.0195  3.3761 -0.0711
  193SOL    HW2  579   0.881   0.580   0.853 -0.0106 -1.6254  1.2423
  194SOL     OW  580   1.132   2.976   1.130  0.4127  0.0265  0.1184
  194SOL    HW1  581   1.132   2.943   1.035 -1.3463 -1.1604  0.1235
  194SOL    HW2  582   1.202   2.936   1.183  0.0418  3.9301 -0.7404
  195SOL     OW  583   2.300   0.506   0.672  0.5426  0.0246  0.2954
  195SOL    HW1  584   2.296   0.404   0.657  1.8003  1.0895 -2.1048
  195SOL    HW2  585   2.316   0.555   0.585  0.7175 -0.5969 -0.7555
  196SOL     OW  586   1.022   1.875   1.393  0.3466 -0.0105 -0.0431
  196SOL    HW1  587   1.077   1.936   1.333  0.2739  0.6675  2.7025
  196SOL    HW2  588   1.048   1.892   1.490  2.3009 -1.0628 -0.7021
  197SOL     OW  589   0.427   2.837   0.371  0.0414 -0.1423  0.3216
  197SOL    HW1  590   0.506   2.805   0.426  1.3508 -1.0857 -0.4869
  197SOL    HW2  591   0.452   2.844   0.273 -0.4805 -0.5834  1.3832
  198SOL     OW  592   0.590   0.851   0.854  0.2319 -0.0661 -0.6038
  198SOL    HW1  593   0.551   0.902   0.931  1.5860  1.1212 -3.0795
  198SOL    HW2  594   0.656   0.774   0.875  1.2401 -1.2594 -0.4519
  199SOL     OW  595   0.119   0.057   1.727  0.2553 -0.0180 -0.2789
  199SOL    HW1  596   0.099   0.108   1.641 -0.3950 -1.1084 -2.2204
  199SOL    HW2  597   0.193   3.076   1.711  0.8703 -0.8315 -2.2941
  200SOL     OW  598   2.286   1.764   2.749 -0.6630 -0.1022  0.3511
  200SOL    HW1  599   2.205   1.697   2.747  1.1702  1.0108  2.6142
  200SOL    HW2  600   2.302   1.811   2.663  0.8134  2.4805 -0.7833
  201SOL     OW  601   2.855   2.524   1.327  0.0572  0.0314 -0.0083
  201SOL    HW1  602   2.789   2.597   1.356 -2.8936 -0.9687  0.4676
  201SOL    HW2  603   2.912   2.554   1.246  1.1007 -1.6855 -0.3113
  202SOL     OW  604   2.543   0.250   0.447 -0.2050  0.2472 -0.0328
  202SOL    HW1  605   2.564   0.337   0.408 -1.7718 -0.6976  0.9358
  202SOL    HW2  606   2.547   0.249   0.547 -0.6288  0.6870 -1.9215
  203SOL     OW  607   1.329   1.882   2.194 -0.3342  0.2957  0.2500
  203SOL    HW1  608   1.382   1.809   2.239  0.0693  0.3035  0.1129
  203SOL    HW2  609   1.260   1.922   2.259 -0.6136 -1.3412 -0.5659
  204SOL     OW  610   0.949   1.409   1.846 -0.1651 -0.1178  0.0657
  204SOL    HW1  611   0.906   1.494   1.799  1.0891  1.5923  1.0086
  204SOL    HW2  612   0.971   1.335   1.777  0.8421  0.0659 -0.2962
  205SOL     OW  613   1.091   1.891   1.656 -0.5151 -0.0264  0.5882
  205SOL    HW1  614   1.163   1.823   1.640  0.1083 -1.4014  0.0904
  205SOL    HW2  615   1.058   1.870   1.748  1.3641  2.5986  0.6826
  206SOL     OW  616   0.113   0.416   2.873  0.0787 -0.2336 -0.1128
  206SOL    HW1  617   0.145   0.348   2.802 -1.3205  1.7300 -0.0830
  206SOL    HW2  618   0.022   0.375   2.902 -2.0800  2.1636 -2.6124
  207SOL     OW  619   1.574   2.880   2.014 -0.0633 -0.2130 -0.2775
  207SOL    HW1  620   1.500   2.885   1.947 -0.0624  0.8043  0.2847
  207SOL    HW2  621   1.638   2.806   1.993 -0.6891  0.9376 -0.3463
  208SOL     OW  622   0.689   2.311   1.794 -0.3115 -0.3183  0.1281
  208SOL    HW1  623   0.764   2.279   1.854  0.3352  3.1098  1.4761
  208SOL    HW2  624   0.712   2.395   1.742 -0.2315 -1.3550 -1.0170
  209SOL     OW  625   2.020   1.169   2.798  0.5003 -0.5753 -0.7982
  209SOL    HW1  626   1.965   1.089   2.828  0.1114  2.0259 -0.7005
  209SOL    HW2  627   1.980   1.253   2.840 -0.0988  2.4015  2.5732
  210SOL     OW  628   2.955   0.454   1.176  0.0526 -0.1915 -0.5973
  210SOL    HW1  629   2.978   0.432   1.077 -0.7737 -2.3603 -1.0430
  210SOL    HW2  630   2.905   0.543   1.172  2.6763 -0.6754  1.0799
  211SOL     OW  631   0.898   0.991   1.258  0.4158 -0.7059  0.4468
  211SOL    HW1  632   0.944   1.027   1.173  0.3207 -0.4297  0.5809
  211SOL    HW2  633   0.803   1.033   1.279 -1.3378  0.7293  0.0160
  212SOL     OW  634   1.074   1.938   0.929 -0.4248  0.8978 -0.3819
  212SOL    HW1  635   1.109   1.843   0.914 -0.6608  2.0596  0.2713
  212SOL    HW2  636   1.145   2.009   0.913  1.8171 -2.1097  2.1485
  213SOL     OW  637   1.697   0.138   1.706 -0.3899 -0.0191 -0.0209
  213SOL    HW1  638   1.701   0.205   1.623 -1.2229 -1.5868 -0.4380
  213SOL    HW2  639   1.787   0.137   1.756 -0.2259 -2.0038 -1.6280
  214SOL     OW  640   1.700   1.899   2.397  0.7742 -0.2974  0.3224
  214SOL    HW1  641   1.660   1.949   2.319 -1.0232 -3.1943 -1.8228
  214SOL    HW2  642   1.689   1.959   2.478 -0.4087  0.8582 -2.0754
  215SOL     OW  643   3.076   1.911   1.221  0.4771  0.4467  0.2984
  215SOL    HW1  644   2.989   1.957   1.200  0.0763  0.5877 -1.0614
  215SOL    HW2  645   3.064   1.813   1.221  2.8900  0.1173  1.3114
  216SOL     OW  646   0.725   3.079   2.166 -0.2792  0.1130 -0.3332
  216SOL    HW1  647   0.812   0.054   2.176  0.5619  0.9657  0.8209
  216SOL    HW2  648   0.702   3.035   2.259  0.5013 -1.2536  0.1057
  217SOL     OW  649   2.360   0.457   0.018 -0.7903  0.1217  0.2751
  217SOL    HW1  650   2.319   0.549   0.023  2.1265 -0.8030 -0.2086
  217SOL    HW2  651   2.375   0.430   0.113  0.6266  1.0099 -0.5935
  218SOL     OW  652   1.789   1.687   2.282  0.1163 -0.2242  0.4137
  218SOL    HW1  653   1.727   1.607   2.307 -2.4577 -1.1915  0.7633
  218SOL    HW2  654   1.779   1.763   2.348 -1.2503 -1.2838 -1.3615
  219SOL     OW  655   1.545   1.168   0.351 -0.1002 -0.4174 -0.1849
  219SOL    HW1  656   1.641   1.197   0.346  0.1951 -0.4003 -0.5791
  219SOL    HW2  657   1.514   1.154   0.251 -0.5051 -0.1292  0.2145
  220SOL     OW  658   1.515   1.813   1.068 -0.2914  0.1993 -0.3442
  220SOL    HW1  659   1.464   1.832   1.156  1.4303  1.2537 -0.9366
  220SOL    HW2  660   1.494   1.886   0.998 -0.7973 -0.3167 -0.1965
  221SOL     OW  661   0.083   0.580   0.013  0.1866  0.1464 -0.1772
  221SOL    HW1  662   0.079   0.677   3.081  0.7670 -1.7178  0.8648
  221SOL    HW2  663   0.114   0.531   3.019  1.8435 -0.1316 -0.7264
  222SOL     OW  664   1.157   2.668   1.538 -0.0660 -0.0793 -0.0226
  222SOL    HW1  665   1.189   2.571   1.538  1.4607 -0.6618  1.5453
  222SOL    HW2  666   1.231   2.738   1.547 -0.0964 -0.2854  0.4893
  223SOL     OW  667   1.227   0.065   2.817  0.9956  0.7787  0.0615
  223SOL    HW1  668   1.221   0.168   2.823  0.8579  1.6284 -1.4967
  223SOL    HW2  669   1.320   0.028   2.839 -1.9833 -0.5889 -2.7119
  224SOL     OW  670   2.721   1.060   1.321 -0.2352  0.1847  0.1784
  224SOL    HW1  671   2.819   1.036   1.307 -3.3032  3.3039 -2.3824
  224SOL    HW2  672   2.671   1.001   1.384  0.1406 -2.5675  0.5768
  225SOL     OW  673   1.058   1.245   1.418 -0.3241 -0.1910 -0.1809
  225SOL    HW1  674   0.999   1.285   1.343 -1.5752  1.6299 -3.8266
  225SOL    HW2  675   1.102   1.160   1.381  0.4779  1.6355 -3.0589
  226SOL     OW  676   1.464   2.549   2.724 -0.1082  0.1797 -0.1853
  226SOL    HW1  677   1.387   2.560   2.795 -0.4128 -1.6805  0.4866
  226SOL    HW2  678   1.454   2.618   2.655  0.6214 -2.1931  0.3168
  227SOL     OW  679   0.559   1.701   1.166  0.0998  0.5619 -0.4199
  227SOL    HW1  680   0.485   1.630   1.174 -1.9364 -2.6794  2.1682
  227SOL    HW2  681   0.552   1.765   1.251 -2.6011 -0.0833  0.5473
  228SOL     OW  682   0.394   2.764   1.171  0.2969  0.1391  0.0081
  228SOL    HW1  683   0.446   2.748   1.256 -1.0929  0.3284 -0.6807
  228SOL    HW2  684   0.351   2.856   1.165  1.3759  1.6986  1.2172
  229SOL     OW  685   2.383   1.267   0.261  0.1013  0.1864 -0.0378
  229SOL    HW1  686   2.461   1.327   0.266 -4.5296 -0.9076  1.8172
  229SOL    HW2  687   2.402   1.199   0.184  3.2004  0.5347 -0.9521
  230SOL     OW  688   1.052   1.045   1.942  0.0912  0.0126  0.5797
  230SOL    HW1  689   0.992   1.049   1.858  1.4781 -1.0520  0.9288
  230SOL    HW2  690   1.065   0.946   1.969 -1.3718 -3.7256  2.9744
  231SOL     OW  691   1.654   1.901   1.497  0.6944  0.5549 -0.0181
  231SOL    HW1  692   1.690   1.994   1.504  0.7168 -0.5484  2.4621
  231SOL    HW2  693   1.599   1.882   1.582  0.8636  0.3664  3.3676
  232SOL     OW  694   1.859   2.320   0.691 -0.2827  0.0762 -0.4541
  232SOL    HW1  695   1.839   2.418   0.702  0.9788 -0.2326  2.4976
  232SOL    HW2  696   1.914   2.296   0.611  0.1943 -1.5976  0.2158
  233SOL     OW  697   1.295   2.326   3.035 -0.0741 -0.2615 -0.5955
  233SOL    HW1  698   1.276   2.261   2.959 -0.4800  0.0650  1.1406
  233SOL    HW2  699   1.247   2.302   0.033  0.2373 -0.2679 -2.2533
  234SOL     OW  700   0.958   2.960   2.474  0.4300  0.2566 -0.0143
  234SOL    HW1  701   0.948   2.863   2.459 -1.2846 -0.1944 -2.0113
  234SOL    HW2  702   0.867   3.001   2.509  1.5620  2.4369  1.7645
  235SOL     OW  703   2.928   2.483   0.136  0.0822 -0.3481 -0.0413
  235SOL    HW1  704   2.904   2.506   0.234 -2.0419  0.8277  1.5199
  235SOL    HW2  705   2.926   2.379   0.122 -1.2497 -1.8091 -0.9966
  236SOL     OW  706   2.223   2.179   2.282  0.4834  0.1244  0.0977
  236SOL    HW1  707   2.277   2.130   2.355  0.2768 -1.2503 -3.5439
  236SOL    HW2  708   2.237   2.280   2.294 -0.8659 -2.0477 -1.5876
  237SOL     OW  709   1.767   1.143   1.223 -0.1108 -0.3472 -0.3813
  237SOL    HW1  710   1.832   1.067   1.203  0.2174  0.8575 -0.1853
  237SOL    HW2  711   1.722   1.173   1.142 -0.6016 -0.5472  3.2491
  238SOL     OW  712   2.105   0.215   2.266 -0.1340  0.0110  0.1247
  238SOL    HW1  713   2.089   0.311   2.228  1.8386  1.1655  0.2362
  238SOL    HW2  714   2.060   0.207   2.356  0.7044  1.6721 -0.9957
  239SOL     OW  715   0.635   1.434   1.655  0.7106  0.0774  0.2720
  239SOL    HW1  716   0.577   1.416   1.738  1.0375  0.4700  0.5819
  239SOL    HW2  717   0.677   1.351   1.610 -0.4423 -0.8342  2.6031
  240SOL     OW  718   2.982   2.184   0.494  0.1768 -0.1304 -0.0108
  240SOL    HW1  719   2.946   2.284   0.490  0.2287  2.8241  1.8459
  240SOL    HW2  720   3.078   2.179   0.452  0.2238 -1.3910  1.2553
  241SOL     OW  721   1.715   1.958   0.510  0.6170  0.5741  0.3276
  241SOL    HW1  722   1.741   1.955   0.609 -1.6521  0.9872  3.8749
  241SOL    HW2  723   1.618   1.921   0.498 -1.5532 -2.0883 -3.9413
  242SOL     OW  724   1.368   1.475   0.244  0.2497 -0.2682  0.0664
  242SOL    HW1  725   1.399   1.411   0.319 -0.3795  1.3970  0.2319
  242SOL    HW2  726   1.434   1.481   0.160  1.1083  1.7618  0.2746
  243SOL     OW  727   0.683   2.812   2.111 -0.1959  0.3731 -0.1806
  243SOL    HW1  728   0.698   2.912   2.102  0.1383 -0.8092 -0.4675
  243SOL    HW2  729   0.639   2.778   2.021 -2.6799 -0.5851 -1.7516
  244SOL     OW  730   1.589   2.862   2.681  0.5247  0.3174 -0.4445
  244SOL    HW1  731   1.535   2.913   2.754 -0.8914  0.4508  0.2277
  244SOL    HW2  732   1.524   2.810   2.627  2.5522 -1.5837  1.1347
  245SOL     OW  733   1.415   2.969   0.015  0.0389  0.3625  0.5513
  245SOL    HW1  734   1.485   2.930   0.076 -2.0776  2.9548 -1.9663
  245SOL    HW2  735   1.353   3.036   0.063 -2.5175 -0.0709  2.4489
  246SOL     OW  736   0.893   0.347   2.790 -0.3255  0.8332  0.0599
  246SOL    HW1  737   0.976   0.384   2.743 -1.7767 -3.2413 -1.2238
  246SOL    HW2  738   0.854   0.262   2.756 -2.3472  3.6615  1.0378
  247SOL     OW  739   0.040   0.758   2.026  0.1053 -0.1324  0.3662
  247SOL    HW1  740   0.069   0.720   2.119  0.9208 -3.1330  1.3714
  247SOL    HW2  741   3.048   0.702   1.989 -2.8349 -1.3472 -0.5705
  248SOL     OW  742   0.793   0.861   1.992 -0.0766  0.1396 -0.3342
  248SOL    HW1  743   0.737   0.778   2.018  0.4781  1.0918 -2.1271
  248SOL    HW2  744   0.893   0.845   2.023  0.6536 -1.3149  2.2271
  249SOL     OW  745   2.123   0.459   0.378  0.0770  0.0284 -0.5187
  249SOL    HW1  746   2.120   0.360   0.366  0.9317  0.5352 -1.2187
  249SOL    HW2  747   2.217   0.493   0.383 -1.0476 -2.9801  0.2074
  250SOL     OW  748   0.662   0.302   0.703 -0.5057  0.1161 -0.0975
  250SOL    HW1  749   0.697   0.324   0.609 -0.1837  1.3950 -0.8135
  250SOL    HW2  750   0.588   0.365   0.734  1.1531 -4.8639  0.6898
  251SOL     OW  751   1.135   0.314   2.648  0.2799 -0.1489 -0.3482
  251SOL    HW1  752   1.144   0.389   2.581  0.3109  0.5369 -1.0731
  251SOL    HW2  753   1.138   0.222   2.601  0.5148  0.1082  1.8725
  252SOL     OW  754   1.659   1.779   2.061 -0.1754 -0.3698 -0.0401
  252SOL    HW1  755   1.735   1.766   1.996 -0.8032  1.5748 -0.8014
  252SOL    HW2  756   1.690   1.756   2.158  0.8785 -3.2267  0.3462
  253SOL     OW  757   1.737   2.642   1.975 -0.2095 -0.5544  0.2795
  253SOL    HW1  758   1.685   2.571   2.025 -1.2569  1.0896 -1.8278
  253SOL    HW2  759   1.822   2.599   1.932  0.0003  2.2407 -0.4050
  254SOL     OW  760   0.751   1.930   1.847 -0.7161  0.0979 -0.4447
  254SOL    HW1  761   0.740   1.999   1.924 -1.0671 -1.8460  0.3829
  254SOL    HW2  762   0.840   1.876   1.868  3.8719 -1.5639  3.3364
  255SOL     OW  763   1.199   0.569   0.697 -0.5804 -0.1367  0.2177
  255SOL    HW1  764   1.117   0.559   0.755  0.7743 -0.0815  0.1479
  255SOL    HW2  765   1.173   0.626   0.616 -0.4615 -1.7038 -0.7810
  256SOL     OW  766   1.904   1.918   1.704  0.2407 -0.1531 -0.2819
  256SOL    HW1  767   1.897   1.864   1.619 -1.4632  0.2433  3.7518
  256SOL    HW2  768   1.852   2.005   1.699 -3.5763 -1.4963 -0.4575
  257SOL     OW  769   0.474   2.235   2.503 -0.2867  0.1033 -0.2643
  257SOL    HW1  770   0.494   2.333   2.520  4.4917  1.1607  0.1502
  257SOL    HW2  771   0.433   2.184   2.581  0.4484 -0.7156  2.6873
  258SOL     OW  772   0.934   0.390   2.321 -0.0982 -0.1023 -0.4166
  258SOL    HW1  773   1.012   0.330   2.307 -0.8298  1.6646 -0.1989
  258SOL    HW2  774   0.857   0.346   2.371  1.5851 -0.0171  1.4587
  259SOL     OW  775   0.872   0.643   2.307 -0.4457 -0.4808 -0.5270
  259SOL    HW1  776   0.937   0.706   2.354  1.7894 -1.9796  0.1344
  259SOL    HW2  777   0.893   0.543   2.318 -1.6700  0.4695 -2.4286
  260SOL     OW  778   1.456   0.656   0.657 -0.3552 -0.4753  0.4809
  260SOL    HW1  779   1.373   0.590   0.663 -1.0794 -4.0684 -0.9849
  260SOL    HW2  780   1.472   0.701   0.747  0.7290  2.2017 -0.9341
  261SOL     OW  781   0.561   2.850   2.760 -0.1041  0.6856 -0.1253
  261SOL    HW1  782   0.504   2.855   2.847 -1.3409  1.2197  2.2262
  261SOL    HW2  783   0.580   2.754   2.738  0.8083  4.0749  2.9136
  262SOL     OW  784   2.383   0.073   2.768 -0.0081 -0.0271  0.8469
  262SOL    HW1  785   2.473   0.045   2.812  0.3612 -0.4933 -0.3204
  262SOL    HW2  786   2.340   0.137   2.835 -0.3547 -0.0773 -1.1167
  263SOL     OW  787   0.031   2.216   0.031 -0.5180 -0.9330  0.9346
  263SOL    HW1  788   3.076   2.182   0.116  0.7170 -0.9856 -0.7073
  263SOL    HW2  789   0.099   2.149   3.082 -1.7253  2.0216 -0.3731
  264SOL     OW  790   0.643   1.107   1.268 -0.0125  0.2640  0.5441
  264SOL    HW1  791   0.563   1.049   1.267  1.0468  1.2736  1.7157
  264SOL    HW2  792   0.628   1.196   1.218 -0.5454 -2.5430  0.8218
  265SOL     OW  793   0.500   1.205   0.306 -0.1757  0.0939 -0.3587
  265SOL    HW1  794   0.425   1.148   0.271  0.0026  0.2380 -1.1429
  265SOL    HW2  795   0.588   1.172   0.266  0.8651 -0.7486  1.7196
  266SOL     OW  796   1.777   1.558   0.578  0.0590 -0.5044  0.7466
  266SOL    HW1  797   1.813   1.586   0.667  0.0905  0.8013 -1.2726
  266SOL    HW2  798   1.851   1.536   0.510 -0.4532  0.0014 -0.5200
  267SOL     OW  799   2.703   0.519   0.077 -0.1405 -0.2934 -0.4497
  267SOL    HW1  800   2.712   0.440   0.015 -2.3102 -0.3962  1.2739
  267SOL    HW2  801   2.707   0.605   0.022 -3.2897 -1.3318 -2.2897
  268SOL     OW  802   3.043   2.956   2.773 -0.4558 -0.6658 -0.4792
  268SOL    HW1  803   3.040   2.856   2.761  1.5961  3.6604  2.8489
  268SOL    HW2  804   3.006   3.011   2.698 -1.6716 -1.2978 -2.5171
  269SOL     OW  805   1.891   0.200   2.481  0.5174  0.0544  0.0259
  269SOL    HW1  806   1.860   0.184   2.575  0.0193  0.6792 -2.4353
  269SOL    HW2  807   1.819   0.184   2.411  0.4940 -0.3549  1.5417
  270SOL     OW  808   0.922   1.071   2.640  0.0297  0.0700  0.3301
  270SOL    HW1  809   0.821   1.082   2.613 -0.7610  1.1857  0.1508
  270SOL    HW2  810   0.940   1.075   2.739  0.6505  1.1429 -2.0829
  271SOL     OW  811   2.679   1.038   0.227 -0.1817 -0.0443 -0.1848
  271SOL    HW1  812   2.589   1.028   0.183  0.4237 -2.4999 -1.3818
  271SOL    HW2  813   2.748   1.047   0.158 -1.2945 -1.8925 -0.9964
  272SOL     OW  814   2.840   1.682   2.586 -0.0753  0.5218  0.4157
  272SOL    HW1  815   2.796   1.707   2.496  2.3939 -2.2894  1.1719
  272SOL    HW2  816   2.813   1.746   2.664  0.5591 -1.8300 -2.0729
  273SOL     OW  817   2.209   0.679   0.101 -0.0166 -0.0469  0.0316
  273SOL    HW1  818   2.224   0.707   0.005  0.7328 -0.8569 -0.0331
  273SOL    HW2  819   2.122   0.629   0.109  1.7188  0.2264 -1.9771
  274SOL     OW  820   0.253   2.588   1.017  0.6290 -0.3100 -0.0474
  274SOL    HW1  821   0.245   2.647   0.935 -1.8827 -1.1397  1.5220
  274SOL    HW2  822   0.276   2.636   1.102 -2.0648 -3.6694 -2.4118
  275SOL     OW  823   2.165   1.523   0.626 -0.7748 -0.2699 -0.1582
  275SOL    HW1  824   2.262   1.499   0.602 -0.1967 -1.3867  1.0505
  275SOL    HW2  825   2.162   1.623   0.643  1.0351 -0.2224  1.6905
  276SOL     OW  826   0.186   1.272   2.684 -0.1578 -0.4416  0.5818
  276SOL    HW1  827   0.282   1.308   2.686 -0.9891  2.6368 -0.7380
  276SOL    HW2  828   0.142   1.291   2.594 -1.2789  0.1628  1.0496
  277SOL     OW  829   1.639   2.577   1.454 -0.1946 -0.7053  0.0635
  277SOL    HW1  830   1.599   2.616   1.537  0.0769  1.6736 -2.3146
  277SOL    HW2  831   1.723   2.630   1.428  0.9142 -0.0371  1.7241
  278SOL     OW  832   1.657   0.480   1.865  0.1658  0.0222 -0.0700
  278SOL    HW1  833   1.563   0.453   1.836 -2.8129 -1.4779 -3.6313
  278SOL    HW2  834   1.670   0.579   1.848 -4.0304 -0.9395  0.7614
  279SOL     OW  835   1.988   1.700   0.283 -0.1280  0.4455 -0.4640
  279SOL    HW1  836   2.075   1.748   0.297 -2.1984 -1.1027 -2.7540
  279SOL    HW2  837   1.909   1.757   0.255 -1.8660 -1.4181 -2.3005
  280SOL     OW  838   0.531   1.769   0.911 -0.0922 -0.1219 -0.5120
  280SOL    HW1  839   0.614   1.740   0.858  0.7932 -0.2962  0.9181
  280SOL    HW2  840   0.541   1.753   1.013  1.0234  1.4862  1.9261
  281SOL     OW  841   2.941   0.023   2.583  0.3069 -0.0446 -0.1050
  281SOL    HW1  842   2.889   0.111   2.572 -0.8203  1.2135  1.1457
  281SOL    HW2  843   3.002   0.020   2.499  0.4855  2.1301 -1.3620
  282SOL     OW  844   0.185   0.992   1.094  0.3604  0.3067 -0.0983
  282SOL    HW1  845   0.154   0.918   1.027  0.3591  1.3741  1.4368
  282SOL    HW2  846   0.125   1.079   1.091 -1.6034  4.9640  2.1947
  283SOL     OW  847   1.874   2.065   0.059 -0.3622  0.0549 -0.1140
  283SOL    HW1  848   1.979   2.066   0.064  2.0185 -0.4386 -1.8061
  283SOL    HW2  849   1.838   2.134   3.078 -2.1328  0.6495  0.0885
  284SOL     OW  850   1.457   1.534   0.550 -0.6568 -0.4608 -0.2964
  284SOL    HW1  851   1.451   1.622   0.597 -1.5304 -1.2331 -1.9025
  284SOL    HW2  852   1.554   1.511   0.521  0.0569  0.9458 -1.2653
  285SOL     OW  853   2.618   0.053   2.888 -0.1655  0.0701  0.2374
  285SOL    HW1  854   2.634   0.066   2.985  1.6705  0.5457 -0.4888
  285SOL    HW2  855   2.700   0.008   2.851 -0.2839 -0.1747 -2.1828
  286SOL     OW  856   1.310   2.898   1.538 -0.1335  0.1688  0.0613
  286SOL    HW1  857   1.320   2.887   1.435 -2.2496  1.9688  2.2994
  286SOL    HW2  858   1.238   2.967   1.553 -0.6122  1.2787  0.2121
  287SOL     OW  859   0.835   1.208   1.028  0.4075  0.4187  0.1938
  287SOL    HW1  860   0.818   1.129   0.967  0.8017  0.1493  2.2793
  287SOL    HW2  861   0.753   1.242   1.080 -2.4061 -0.2033 -1.3829
  288SOL     OW  862   1.493   3.052   2.867 -0.1096 -0.0692  0.1855
  288SOL    HW1  863   1.564   0.035   2.847  2.8611  1.1193  0.4039
  288SOL    HW2  864   1.490   3.020   2.963 -0.0764  0.1166  2.4540
  289SOL     OW  865   0.071   1.526   2.714 -0.3356  0.1286  0.0794
  289SOL    HW1  866   0.033   1.570   2.637  2.1992 -2.6453  3.6479
  289SOL    HW2  867   0.102   1.431   2.702  0.0304 -0.8970 -1.6474
  290SOL     OW  868   1.626   2.185   0.757  0.2020 -0.6146 -0.2244
  290SOL    HW1  869   1.553   2.201   0.687  0.4044 -0.1404  1.3712
  290SOL    HW2  870   1.722   2.216   0.722  0.5948 -0.0453 -0.7996
  291SOL     OW  871   2.209   2.044   2.795  0.1901 -0.4990  0.2212
  291SOL    HW1  872   2.123   2.093   2.777  0.5906 -0.8676  0.2841
  291SOL    HW2  873   2.187   1.941   2.802 -2.6934 -2.6364  2.3935
  292SOL     OW  874   1.050   0.765   2.016 -0.1670  0.2204 -0.1155
  292SOL    HW1  875   1.114   0.701   2.061  1.5493 -3.5412  1.3295
  292SOL    HW2  876   1.053   0.754   1.912  0.2653 -1.4207 -0.4889
  293SOL     OW  877   2.058   2.804   0.897  0.0443 -0.1262 -0.1905
  293SOL    HW1  878   2.076   2.836   0.804 -0.4480 -1.2312  2.4923
  293SOL    HW2  879   2.100   2.712   0.914  4.1136  1.2261 -0.6676
  294SOL     OW  880   0.340   0.405   2.359 -0.2391 -0.1671  0.0571
  294SOL    HW1  881   0.342   0.460   2.443  1.4857 -0.6385 -2.0108
  294SOL    HW2  882   0.432   0.382   2.329  0.9691  1.5600 -0.6616
  295SOL     OW  883   1.452   1.873   0.419 -0.2780 -0.1281 -0.8375
  295SOL    HW1  884   1.446   1.831   0.511  2.1776  0.7011 -1.8597
  295SOL    HW2  885   1.397   1.825   0.346 -0.9521 -1.7920  1.8698
  296SOL     OW  886   2.388   1.922   3.050  0.1076 -0.1339  0.1443
  296SOL    HW1  887   2.437   1.912   2.962  0.5192  0.6160  0.6680
  296SOL    HW2  888   2.402   1.844   0.021 -0.5723  2.0243 -1.6319
  297SOL     OW  889   2.000   0.275   0.028 -0.0785 -0.3197  0.0941
  297SOL    HW1  890   2.048   0.240   3.031  0.8165 -0.4207 -1.9191
  297SOL    HW2  891   2.033   0.225   0.114  1.3843 -2.9411 -2.4170
  298SOL     OW  892   1.205   2.398   2.238 -0.0505 -0.0979  0.2047
  298SOL    HW1  893   1.151   2.366   2.320  1.8581 -2.1294 -1.1256
  298SOL    HW2  894   1.306   2.400   2.259  0.0406 -2.1650 -0.3491
  299SOL     OW  895   1.209   2.847   2.221 -0.2869  0.5434  0.0444
  299SOL    HW1  896   1.284   2.910   2.191 -0.1223 -0.5838  1.1635
  299SOL    HW2  897   1.131   2.856   2.158 -3.1788 -1.0372  1.7799
  300SOL     OW  898   2.285   0.260   2.944  0.6306 -0.6792  0.5114
  300SOL    HW1  899   2.332   0.328   3.004  1.1175  3.1124 -1.0069
  300SOL    HW2  900   2.198   0.298   2.897  1.8701  0.2087 -1.7830
  301SOL     OW  901   1.432   1.440   1.291 -0.5300 -0.0733  0.4542
  301SOL    HW1  902   1.395   1.349   1.270 -0.9041  1.7284  1.3884
  301SOL    HW2  903   1.491   1.477   1.215  0.4501  1.5134 -0.6856
  302SOL     OW  904   2.532   2.424   0.368 -0.0336  0.4134  0.6837
  302SOL    HW1  905   2.630   2.450   0.352 -1.0512 -1.1681 -1.7547
  302SOL    HW2  906   2.469   2.481   0.311  0.3213 -0.1023  0.2386
  303SOL     OW  907   2.746   2.586   2.302  0.3409  0.6415  0.2616
  303SOL    HW1  908   2.843   2.557   2.319 -3.5783  1.6440 -1.2345
  303SOL    HW2  909   2.697   2.527   2.235  0.8827  0.5792  0.1193
  304SOL     OW  910   2.934   0.574   1.927  0.4778 -0.4639 -0.5458
  304SOL    HW1  911   2.931   0.554   1.829 -0.9162  2.3159  1.1181
  304SOL    HW2  912   2.845   0.620   1.958  2.0782 -1.1767  0.9688
  305SOL     OW  913   0.579   1.736   1.850 -0.1830 -0.0089  0.5339
  305SOL    HW1  914   0.636   1.664   1.901  0.4204 -1.1122 -0.6107
  305SOL    HW2  915   0.627   1.827   1.848 -1.3948  0.0821 -0.0219
  306SOL     OW  916   2.767   1.015   1.930 -0.0465  0.1746  0.0640
  306SOL    HW1  917   2.867   1.000   1.911  0.3291  1.1192  0.4701
  306SOL    HW2  918   2.754   1.040   2.026  0.2233 -1.6274  0.8786
  307SOL     OW  919   1.773   1.347   1.811 -0.0533 -0.5869  0.3266
  307SOL    HW1  920   1.680   1.388   1.791 -0.2627 -0.5169 -1.2290
  307SOL    HW2  921   1.805   1.282   1.737  0.3914  1.0484 -0.0840
  308SOL     OW  922   2.564   1.606   1.093  0.5046 -0.4333  0.3717
  308SOL    HW1  923   2.511   1.578   1.175  0.8435  0.4394  0.5391
  308SOL    HW2  924   2.529   1.688   1.043 -0.5146  2.8649  2.7510
  309SOL     OW  925   2.343   1.723   1.364  0.1695 -0.0155 -0.7189
  309SOL    HW1  926   2.395   1.788   1.421  1.2733 -1.2747 -1.4067
  309SOL    HW2  927   2.392   1.634   1.365  1.8577  0.1385 -0.3391
  310SOL     OW  928   2.756   1.433   2.719  0.2429  0.4810  0.0083
  310SOL    HW1  929   2.689   1.384   2.660 -1.3341 -0.5079 -1.1754
  310SOL    HW2  930   2.791   1.511   2.669 -1.1764 -2.7547 -1.5117
  311SOL     OW  931   3.075   1.835   3.044 -0.2303 -0.1186  0.3551
  311SOL    HW1  932   3.013   1.914   3.052  1.9723 -4.9635  1.4126
  311SOL    HW2  933   3.023   1.752   3.016  0.1239 -1.3107 -1.5565
  312SOL     OW  934   2.284   1.514   0.949  0.2531  0.1753  0.0011
  312SOL    HW1  935   2.221   1.440   0.921 -1.9001 -0.6902 -0.0956
  312SOL    HW2  936   2.242   1.563   1.030 -2.5394  0.9149 -0.4718
  313SOL     OW  937   2.599   2.651   1.241 -0.6700  0.2725  0.3193
  313SOL    HW1  938   2.551   2.710   1.179  0.4425  0.0749 -0.0706
  313SOL    HW2  939   2.553   2.563   1.258  0.1686  2.4335 -1.8516
  314SOL     OW  940   1.019   1.729   0.391  0.2719  0.1062  0.0819
  314SOL    HW1  941   1.100   1.787   0.370 -0.8527 -1.1872 -0.0112
  314SOL    HW2  942   1.030   1.684   0.483  0.0027 -0.7727 -1.8509
  315SOL     OW  943   0.942   2.621   2.210  0.5397  0.1453  0.0211
  315SOL    HW1  944   0.989   2.533   2.229  1.5564  0.0879  0.0751
  315SOL    HW2  945   0.889   2.653   2.292 -1.1254  1.7621  0.9331
  316SOL     OW  946   3.074   1.058   0.547 -0.0186 -0.2155  0.5279
  316SOL    HW1  947   0.084   1.023   0.532  1.7556 -2.6809 -2.7786
  316SOL    HW2  948   3.016   1.017   0.472 -0.9526  1.2719  1.4661
  317SOL     OW  949   0.956   0.302   0.388  0.0895  0.2967  0.1277
  317SOL    HW1  950   0.870   0.329   0.348  1.8902 -1.0928  0.1220
  317SOL    HW2  951   0.950   0.204   0.420 -0.4240  0.2408 -1.0369
  318SOL     OW  952   2.771   2.540   0.370 -0.2545 -0.4878 -0.5480
  318SOL    HW1  953   2.826   2.500   0.446  0.0376  1.5586  0.7698
  318SOL    HW2  954   2.725   2.627   0.404  0.9811  1.6855 -0.7813
  319SOL     OW  955   0.611   1.318   2.526 -0.6905  0.0290 -0.4464
  319SOL    HW1  956   0.530   1.341   2.578  0.0389  1.3891 -4.5587
  319SOL    HW2  957   0.672   1.398   2.510  2.1658  0.7662  1.2426
  320SOL     OW  958   0.722   2.554   1.614  0.0463  0.1810 -0.0158
  320SOL    HW1  959   0.789   2.611   1.561  0.4988 -0.3249  0.3499
  320SOL    HW2  960   0.626   2.583   1.604 -1.3220 -2.9514  0.2735
  321SOL     OW  961   1.285   2.269   0.234 -0.2038  0.0161  0.4547
  321SOL    HW1  962   1.277   2.200   0.313  0.6731 -1.4326 -1.3012
  321SOL    HW2  963   1.380   2.319   0.232  2.8947  1.1435 -0.7139
  322SOL     OW  964   2.699   1.048   2.201 -0.8682 -0.1958 -0.0506
  322SOL    HW1  965   2.648   1.121   2.152 -0.5416 -0.2132 -0.8431
  322SOL    HW2  966   2.797   1.065   2.214  1.4211  0.7035 -1.0199
  323SOL     OW  967   2.392   0.939   0.524  0.2946  0.2057 -0.3736
  323SOL    HW1  968   2.339   0.882   0.457  0.0199  1.5079  0.5190
  323SOL    HW2  969   2.358   1.040   0.518 -1.0990  0.1737 -0.0156
  324SOL     OW  970   0.399   2.506   2.971 -0.7322 -0.0694  0.5738
  324SOL    HW1  971   0.310   2.536   2.931 -1.6688 -1.4005 -2.3143
  324SOL    HW2  972   0.387   2.494   3.069 -0.4620  0.0085 -1.3499
  325SOL     OW  973   1.601   0.444   2.221  0.0519 -0.4894  0.6905
  325SOL    HW1  974   1.675   0.514   2.210 -1.8816  1.0811 -1.1592
  325SOL    HW2  975   1.640   0.357   2.260 -0.0268 -2.0754 -1.6031
  326SOL     OW  976   2.201   2.766   1.464 -0.3007 -0.1534 -0.4559
  326SOL    HW1  977   2.277   2.701   1.486  1.6710  1.6070 -1.2146
  326SOL    HW2  978   2.214   2.786   1.364 -1.9621  1.1613  0.5712
  327SOL     OW  979   1.887   0.525   3.025 -0.8230  0.0451 -0.2433
  327SOL    HW1  980   1.810   0.514   0.008 -0.8519  0.5944  0.7797
  327SOL    HW2  981   1.960   0.455   3.039  2.6174 -0.2297 -1.9297
  328SOL     OW  982   2.938   1.087   2.290 -0.4420 -0.1717 -0.0703
  328SOL    HW1  983   2.978   1.166   2.340 -1.0301  0.8577 -0.4305
  328SOL    HW2  984   2.914   1.015   2.357 -2.0463 -1.6842 -0.4674
  329SOL     OW  985   1.397   0.136   1.958  0.1811  0.5890  0.6677
  329SOL    HW1  986   1.340   0.065   1.997 -0.8864  1.3116 -3.5478
  329SOL    HW2  987   1.493   0.128   1.985  0.3609  1.4260  1.6688
  330SOL     OW  988   3.015   1.850   1.537  0.3343  0.8139  0.0010
  330SOL    HW1  989   0.006   1.868   1.473  1.1963 -2.6794  1.3483
  330SOL    HW2  990   3.021   1.758   1.583  2.4164 -2.0681  2.0229
  331SOL     OW  991   0.546   1.379   2.114  0.2133  0.2424  0.0053
  331SOL    HW1  992   0.504   1.335   2.029 -0.5263  1.6245  0.2985
  331SOL    HW2  993   0.614   1.324   2.163  0.3123  2.8384 -1.0537
  332SOL     OW  994   0.339   0.110   1.447  0.9632 -0.3402 -0.6732
  332SOL    HW1  995   0.403   0.126   1.371  0.7549  0.8811  1.6358
  332SOL    HW2  996   0.296   0.187   1.491  0.6244 -0.2996 -1.2573
  333SOL     OW  997   2.258   2.798   1.732  0.1517  0.0441  0.1145
  333SOL    HW1  998   2.316   2.883   1.732  4.4049 -0.8343  1.6201
  333SOL    HW2  999   2.231   2.777   1.639 -1.3606  0.6493 -1.9175
  334SOL     OW 1000   0.804   1.713   1.036 -0.0155 -0.4906 -0.1517
  334SOL    HW1 1001   0.721   1.712   1.094  2.0031 -1.0414 -0.9774
  334SOL    HW2 1002   0.817   1.805   0.997 -0.0095 -2.1899 -0.7278
  335SOL     OW 1003   0.541   2.312   2.856 -0.0824  0.2207 -0.4363
  335SOL    HW1 1004   0.500   2.398   2.895  1.3479  0.5689 -0.3161
  335SOL    HW2 1005   0.467   2.252   2.811 -0.0712 -0.7094 -1.8682
  336SOL     OW 1006   0.071   0.161   1.980 -0.3943 -0.4394  0.1674
  336SOL    HW1 1007   0.108   0.121   1.899  0.1675  0.7522 -0.2344
  336SOL    HW2 1008   3.055   0.162   1.969 -1.5518 -0.3199 -0.9136
  337SOL     OW 1009   2.510   2.313   3.020  0.1953 -0.0217 -0.0540
  337SOL    HW1 1010   2.470   2.407   3.007  1.9324  1.2062 -0.2812
  337SOL    HW2 1011   2.463   2.264   0.011  1.1536  1.4026 -1.5047
  338SOL     OW 1012   1.132   2.021   1.199 -0.5099  0.0262  0.1419
  338SOL    HW1 1013   1.115   2.118   1.179 -1.1048 -0.6186 -1.4324
  338SOL    HW2 1014   1.108   1.961   1.122  1.3794  0.2941  3.2142
  339SOL     OW 1015   0.023   0.407   2.101 -0.1326  0.3995 -0.0594
  339SOL    HW1 1016   3.044   0.463   2.042 -0.1030  3.1951 -0.4007
  339SOL    HW2 1017   0.033   0.312   2.064  0.2468 -0.8495 -0.5819
  340SOL     OW 1018   1.516   2.511   0.596 -0.0683  0.2127  0.5342
  340SOL    HW1 1019   1.461   2.584   0.544 -3.1235  2.7632 -0.3472
  340SOL    HW2 1020   1.469   2.421   0.596 -3.2263 -3.1710 -2.8034
  341SOL     OW 1021   1.652   1.287   1.000 -0.1958  0.0037  0.4467
  341SOL    HW1 1022   1.700   1.285   0.911 -0.2354 -1.6897 -1.5677
  341SOL    HW2 1023   1.630   1.383   1.026 -0.9666 -0.6003 -0.5252
  342SOL     OW 1024   0.277   1.362   0.779 -0.4855  0.0923 -0.9019
  342SOL    HW1 1025   0.293   1.421   0.697 -0.0192  1.3255  1.1863
  342SOL    HW2 1026   0.208   1.287   0.756  0.9635  1.2192  0.0520
  343SOL     OW 1027   1.476   0.232   1.103  0.2227  0.5603  0.1575
  343SOL    HW1 1028   1.487   0.295   1.022  3.4019  0.5852 -2.2535
  343SOL    HW2 1029   1.385   0.190   1.117  2.2226  1.6226  0.4094
  344SOL     OW 1030   1.984   2.462   1.304 -0.0971 -0.0383  0.3612
  344SOL    HW1 1031   2.054   2.516   1.258 -1.4094 -2.8285 -1.0299
  344SOL    HW2 1032   1.893   2.486   1.257 -1.7788 -1.4757  0.8727
  345SOL     OW 1033   2.856   2.398   2.841 -0.3655 -0.4125 -0.2687
  345SOL    HW1 1034   2.831   2.474   2.781  0.1273  1.0295 -2.5760
  345SOL    HW2 1035   2.955   2.389   2.852  3.2852 -1.7452  0.4269
  346SOL     OW 1036   0.198   1.531   0.969 -0.4247  0.2339  0.2895
  346SOL    HW1 1037   0.226   1.619   0.925 -0.6633  1.4358 -0.9409
  346SOL    HW2 1038   0.227   1.454   0.900  0.9681 -4.3336  0.4081
  347SOL     OW 1039   1.751   2.584   0.725  0.4026  0.4417  0.2245
  347SOL    HW1 1040   1.666   2.555   0.679  1.8291 -2.3463  0.4620
  347SOL    HW2 1041   1.737   2.626   0.821 -1.3199  1.7022  2.7109
  348SOL     OW 1042   1.218   1.392   2.608  0.2312  0.2649  0.1272
  348SOL    HW1 1043   1.200   1.290   2.584 -3.7453 -0.8505 -1.6769
  348SOL    HW2 1044   1.145   1.449   2.565  1.4492 -0.5214 -1.5498
  349SOL     OW 1045   2.271   1.196   2.152 -0.2230 -0.1252 -0.1314
  349SOL    HW1 1046   2.190   1.225   2.102  4.0186 -0.6093 -2.4539
  349SOL    HW2 1047   2.256   1.125   2.226  1.5396 -0.5802 -0.9214
  350SOL     OW 1048   0.098   2.411   1.206  0.0030 -0.6794  0.3520
  350SOL    HW1 1049   0.055   2.351   1.277 -0.2126 -3.5737 -0.2501
  350SOL    HW2 1050   0.141   2.346   1.142 -1.3294  0.3365 -2.6512
  351SOL     OW 1051   0.452   0.289   2.724  0.2871 -0.3992 -0.0835
  351SOL    HW1 1052   0.460   0.230   2.807  3.3499 -0.5328  2.8913
  351SOL    HW2 1053   0.541   0.332   2.705 -1.0082 -1.0541  0.2228
  352SOL     OW 1054   0.766   2.612   1.312 -0.5705  0.1759  0.2760
  352SOL    HW1 1055   0.836   2.665   1.369  0.5381 -0.4090  0.6607
  352SOL    HW2 1056   0.675   2.641   1.339  2.9357 -1.3452 -0.1298
  353SOL     OW 1057   1.051   0.760   2.490  0.5945  0.2246  0.2361
  353SOL    HW1 1058   1.068   0.857   2.457  0.0413  0.3948  1.9672
  353SOL    HW2 1059   1.037   0.766   2.589  0.0336 -1.2221 -2.4552
  354SOL     OW 1060   1.384   1.139   0.545 -0.2536 -0.2097  0.2435
  354SOL    HW1 1061   1.364   1.039   0.541  0.2033 -0.9925  2.0024
  354SOL    HW2 1062   1.463   1.166   0.481  0.5415 -2.8299  1.5310
  355SOL     OW 1063   2.548   0.353   0.709  0.0681  0.4631  0.1492
  355SOL    HW1 1064   2.495   0.436   0.739 -1.4793  1.5234  0.4827
  355SOL    HW2 1065   2.596   0.314   0.791 -2.0099 -2.1586 -0.9244
  356SOL     OW 1066   2.945   0.887   2.497 -0.3616  0.0165  0.7133
  356SOL    HW1 1067   2.995   0.960   2.545  2.0475  0.7095 -0.8469
  356SOL    HW2 1068   2.995   0.799   2.494  1.0344  0.6625 -1.0804
  357SOL     OW 1069   0.538   2.802   1.871  0.1153 -0.2347 -0.3844
  357SOL    HW1 1070   0.552   2.857   1.789  0.6540 -2.5162  0.5902
  357SOL    HW2 1071   0.486   2.716   1.852  0.2045  0.0139 -4.3368
  358SOL     OW 1072   2.964   1.142   2.648 -0.5600 -0.2665 -0.0861
  358SOL    HW1 1073   2.870   1.178   2.665 -1.3337  3.8429  0.9680
  358SOL    HW2 1074   3.010   1.196   2.573 -0.8408  0.9277 -1.1301
  359SOL     OW 1075   2.377   2.695   2.824  0.6734  0.3869  0.3952
  359SOL    HW1 1076   2.330   2.770   2.769  1.6984  2.1525  0.6765
  359SOL    HW2 1077   2.361   2.610   2.768 -3.0694  2.5030 -2.1210
  360SOL     OW 1078   1.788   1.004   0.903  0.1108  0.0698  0.0220
  360SOL    HW1 1079   1.830   1.053   0.822 -0.7712  0.9708 -1.1433
  360SOL    HW2 1080   1.845   1.021   0.983 -1.7565  2.3782  1.8295
  361SOL     OW 1081   1.801   2.699   0.969  0.3573  0.0564 -0.8091
  361SOL    HW1 1082   1.748   2.786   0.957 -2.0227  0.5687 -1.4577
  361SOL    HW2 1083   1.897   2.707   0.933  0.5803 -2.2748 -0.3919
  362SOL     OW 1084   1.261   1.114   0.809  0.0816 -0.1240 -0.4808
  362SOL    HW1 1085   1.315   1.112   0.724 -1.2390  0.4724  1.3540
  362SOL    HW2 1086   1.204   1.195   0.830 -1.3875  1.0685  1.0114
  363SOL     OW 1087   3.055   2.010   2.594  0.1645 -0.2246 -0.0540
  363SOL    HW1 1088   0.031   2.081   2.634 -0.5574 -0.2482  0.9536
  363SOL    HW2 1089   0.021   1.922   2.568 -1.5055 -1.3472 -1.1051
  364SOL     OW 1090   1.433   0.491   1.323  0.0296 -0.0188  0.2662
  364SOL    HW1 1091   1.384   0.401   1.333  0.1783 -3.0784  0.0140
  364SOL    HW2 1092   1.511   0.488   1.387  1.2413 -0.4625  1.4868
  365SOL     OW 1093   3.002   0.042   1.291 -0.0653  0.0518 -0.3020
  365SOL    HW1 1094   3.068   0.105   1.327  0.5349 -2.7279  0.3096
  365SOL    HW2 1095   2.918   0.084   1.250 -0.8787 -0.1468 -0.5143
  366SOL     OW 1096   2.917   1.335   0.253 -0.1412 -0.4150  0.3883
  366SOL    HW1 1097   2.908   1.425   0.283 -0.8578 -0.5147 -1.0788
  366SOL    HW2 1098   2.873   1.273   0.324 -3.3885  1.0250 -2.0419
  367SOL     OW 1099   2.893   1.914   2.780  0.3675 -0.0950 -0.3586
  367SOL    HW1 1100   2.809   1.972   2.771  0.0218  2.3085 -0.1503
  367SOL    HW2 1101   2.955   1.933   2.704 -0.7686 -3.1370  1.5481
  368SOL     OW 1102   2.853   2.020   1.132 -0.1112 -0.4720  0.4939
  368SOL    HW1 1103   2.836   2.120   1.131  0.5194  3.6762  1.8398
  368SOL    HW2 1104   2.794   1.981   1.204 -0.1641 -1.2453 -0.4831
  369SOL     OW 1105   0.662   0.447   0.413  0.3608 -0.0783 -0.1061
  369SOL    HW1 1106   0.652   0.404   0.320  0.3952  1.3969  2.0276
  369SOL    HW2 1107   0.576   0.479   0.445  3.3076 -0.0123  0.1614
  370SOL     OW 1108   0.725   0.700   1.573  0.0503  0.5005  0.4046
  370SOL    HW1 1109   0.759   0.695   1.478 -1.3104  1.8126  1.3798
  370SOL    HW2 1110   0.719   0.611   1.620 -0.0378  1.7526 -0.1819
  371SOL     OW 1111   2.468   1.835   0.315  0.6851 -0.4326  0.0398
  371SOL    HW1 1112   2.443   1.767   0.238  0.0351 -1.3171 -1.3224
  371SOL    HW2 1113   2.383   1.866   0.364 -0.7997 -0.2299  2.2885
  372SOL     OW 1114   0.139   0.989   2.489 -0.3607  0.3417  0.1609
  372SOL    HW1 1115   0.184   0.963   2.577 -0.8299 -0.2108  3.6432
  372SOL    HW2 1116   0.173   0.939   2.406  0.3790 -0.7832 -0.0151
  373SOL     OW 1117   2.677   1.297   0.666 -0.2310 -0.4941  0.3101
  373SOL    HW1 1118   2.616   1.258   0.737  0.3437 -0.4131  1.4079
  373SOL    HW2 1119   2.693   1.396   0.680  1.2678 -1.9380  3.1093
  374SOL     OW 1120   0.414   2.458   0.158  0.0086 -0.4355 -0.0053
  374SOL    HW1 1121   0.450   2.361   0.139 -1.0928 -1.8368  0.8438
  374SOL    HW2 1122   0.488   2.525   0.185 -1.7200  2.1872  1.1949
  375SOL     OW 1123   0.668   0.286   0.191  0.6312 -0.0338  0.2617
  375SOL    HW1 1124   0.722   0.309   0.108  2.7813  2.7138  0.0416
  375SOL    HW2 1125   0.618   0.200   0.173  1.6938  0.5351 -2.3160
  376SOL     OW 1126   0.186   2.974   2.107  0.3272 -0.2537  0.6868
  376SOL    HW1 1127   0.145   3.061   2.077  0.3570  1.2393  0.4023
  376SOL    HW2 1128   0.283   2.978   2.102 -1.6076  0.6203 -1.5266
  377SOL     OW 1129   0.562   1.891   2.219 -0.3135 -0.5766  0.3385
  377SOL    HW1 1130   0.490   1.872   2.284  3.1938 -1.0002 -1.6625
  377SOL    HW2 1131   0.651   1.848   2.244 -1.4437 -0.2098 -2.7024
  378SOL     OW 1132   1.359   0.891   0.467  0.1008 -0.0186  0.1027
  378SOL    HW1 1133   1.333   0.888   0.369  1.6321  2.0190 -0.7792
  378SOL    HW2 1134   1.390   0.800   0.501  2.1574 -1.8208  4.3593
  379SOL     OW 1135   1.102   1.435   0.170 -0.0579  0.1971 -0.1502
  379SOL    HW1 1136   1.061   1.371   0.233  1.4203  2.5277 -3.3841
  379SOL    HW2 1137   1.205   1.429   0.174  2.4919 -1.6271  0.7354
  380SOL     OW 1138   2.831   2.244   1.984  0.3073  0.1848  0.2346
  380SOL    HW1 1139   2.876   2.182   2.051 -1.7927 -0.8190  1.6985
  380SOL    HW2 1140   2.876   2.336   1.985  0.0785  0.8909  0.3636
  381SOL     OW 1141   0.407   0.829   1.834  0.1834  0.4846 -0.3791
  381SOL    HW1 1142   0.481   0.862   1.774  0.5121 -0.8645 -0.2554
  381SOL    HW2 1143   0.320   0.828   1.779 -0.5927  0.6399  2.3554
  382SOL     OW 1144   2.746   2.194   2.992 -0.5622 -0.2778  0.0674
  382SOL    HW1 1145   2.792   2.254   2.922  0.2282  0.4130  0.0700
  382SOL    HW2 1146   2.657   2.233   3.022  0.6877 -0.2090 -0.7782
  383SOL     OW 1147   2.290   1.810   2.193 -0.4977 -0.4257  0.1176
  383SOL    HW1 1148   2.378   1.791   2.144 -0.8741 -1.0928 -1.7294
  383SOL    HW2 1149   2.235   1.727   2.207 -0.2532  3.1570 -0.4279
  384SOL     OW 1150   0.658   2.221   2.304 -0.7087 -0.5372 -0.6651
  384SOL    HW1 1151   0.681   2.316   2.283 -0.9708 -3.8625 -1.9758
  384SOL    HW2 1152   0.572   2.209   2.356  0.7401  0.6126  0.4916
  385SOL     OW 1153   2.715   2.224   0.691 -0.3105  0.1819 -0.7584
  385SOL    HW1 1154   2.806   2.258   0.719  1.6448  1.8761 -0.4707
  385SOL    HW2 1155   2.656   2.302   0.657 -0.8602  1.8045 -4.9067
  386SOL     OW 1156   1.629   0.792   3.081 -0.7781  0.1892  0.4272
  386SOL    HW1 1157   1.580   0.771   0.084  0.3023 -3.0158  0.9271
  386SOL    HW2 1158   1.726   0.770   3.082 -0.6254  0.8428  3.3333
  387SOL     OW 1159   0.596   0.938   1.667 -0.2976 -0.0371 -0.4167
  387SOL    HW1 1160   0.673   0.868   1.680  1.0155  0.8978 -0.5281
  387SOL    HW2 1161   0.633   1.022   1.630  1.3254 -2.6432  1.4975
  388SOL     OW 1162   2.923   0.999   1.547 -0.1494  0.1208 -0.1169
  388SOL    HW1 1163   2.855   0.927   1.571  0.7538  1.5532 -2.4092
  388SOL    HW2 1164   2.876   1.087   1.562  0.2058 -0.1463 -1.4017
  389SOL     OW 1165   1.886   1.036   2.493  0.4395  0.0170  0.3692
  389SOL    HW1 1166   1.803   1.064   2.549  0.8346  0.2292 -1.4394
  389SOL    HW2 1167   1.935   1.116   2.451  1.9523  1.1847  1.6400
  390SOL     OW 1168   2.196   2.097   0.500 -0.2400 -0.0102  0.3339
  390SOL    HW1 1169   2.232   2.068   0.590 -1.2552  0.0190 -1.4129
  390SOL    HW2 1170   2.250   2.163   0.446 -1.9592  0.8109  1.8036
  391SOL     OW 1171   1.433   2.758   0.838 -0.4362 -1.0576  0.1636
  391SOL    HW1 1172   1.396   2.752   0.740 -2.2203  0.2781 -4.8223
  391SOL    HW2 1173   1.460   2.671   0.885 -0.3361 -1.6481  1.2583
  392SOL     OW 1174   2.579   3.056   1.499 -0.1949  0.1126  0.0453
  392SOL    HW1 1175   2.633   3.012   1.423 -1.0430 -0.7948  3.1578
  392SOL    HW2 1176   2.512   0.036   1.461 -0.8986  0.7645 -2.5653
  393SOL     OW 1177   1.902   2.042   2.792  0.1906  0.0161 -0.1311
  393SOL    HW1 1178   1.891   2.120   2.855  2.4399  1.4594 -0.0616
  393SOL    HW2 1179   1.959   1.970   2.844 -1.8260  0.5505  2.3955
  394SOL     OW 1180   0.593   2.585   2.754 -0.3177  0.1511  0.3211
  394SOL    HW1 1181   0.538   2.532   2.820 -1.7566 -0.9900 -0.3985
  394SOL    HW2 1182   0.692   2.574   2.780  0.4114 -1.4234  0.6747
  395SOL     OW 1183   0.598   1.353   1.147  0.1300 -0.3707  0.5751
  395SOL    HW1 1184   0.557   1.340   1.055 -0.4341  3.4139 -0.2322
  395SOL    HW2 1185   0.538   1.415   1.201  1.6390  1.2691  1.2481
  396SOL     OW 1186   1.965   1.270   2.338 -0.0270  0.1907  0.7558
  396SOL    HW1 1187   1.983   1.233   2.242 -1.9949  2.0574 -0.7553
  396SOL    HW2 1188   2.044   1.323   2.372 -1.3906 -3.2971 -1.8713
  397SOL     OW 1189   2.893   0.734   2.785  0.2190  0.5525  0.6527
  397SOL    HW1 1190   2.831   0.713   2.704 -0.5035  0.2408  3.3652
  397SOL    HW2 1191   2.989   0.695   2.772  3.6282 -1.7723 -1.2823
  398SOL     OW 1192   1.251   0.472   0.326  0.2143 -0.1695  0.2527
  398SOL    HW1 1193   1.316   0.406   0.287 -1.5147  1.5860  0.5344
  398SOL    HW2 1194   1.207   0.418   0.402  0.9389 -1.2656 -1.1451
  399SOL     OW 1195   1.808   2.898   1.719 -0.0575  1.0309 -0.7686
  399SOL    HW1 1196   1.723   2.943   1.685 -0.5337 -0.6004  1.3247
  399SOL    HW2 1197   1.784   2.818   1.780 -0.6393 -0.8723  2.9930
  400SOL     OW 1198   0.093   2.369   2.134  0.3412 -0.0615  0.3175
  400SOL    HW1 1199   0.043   2.380   2.048  0.5773 -0.4478  0.6932
  400SOL    HW2 1200   0.190   2.366   2.124 -1.6390  1.0042  2.3453
  401SOL     OW 1201   0.531   0.063   0.122 -0.2424  0.1595 -0.4789
  401SOL    HW1 1202   0.429   0.066   0.120 -0.6032  1.8037  0.2759
  401SOL    HW2 1203   0.569   3.061   0.151  0.4129  0.4918  0.3458
  402SOL     OW 1204   0.433   2.517   1.525  0.1197 -0.6924 -0.3534
  402SOL    HW1 1205   0.471   2.428   1.506 -0.9056  2.4435 -0.2303
  402SOL    HW2 1206   0.334   2.524   1.508 -2.0916 -0.9733  3.9430
  403SOL     OW 1207   0.359   1.109   1.697 -0.4136 -0.0494 -0.1907
  403SOL    HW1 1208   0.261   1.080   1.695  0.6947 -1.0174  1.1187
  403SOL    HW2 1209   0.421   1.031   1.672  3.8605  1.6665 -1.0028
  404SOL     OW 1210   2.859   2.525   1.969  0.3801  0.2787  0.0689
  404SOL    HW1 1211   2.920   2.597   2.003 -0.8405  0.1705 -0.7597
  404SOL    HW2 1212   2.822   2.540   1.877 -4.0610  2.6575  0.9210
  405SOL     OW 1213   2.544   0.254   2.594  0.0583  0.1264  0.6601
  405SOL    HW1 1214   2.506   0.170   2.640  0.3705 -2.1177  1.1491
  405SOL    HW2 1215   2.492   0.277   2.511 -0.4910 -0.6129  1.5046
  406SOL     OW 1216   1.862   2.596   0.244 -0.1264 -0.2899  0.3423
  406SOL    HW1 1217   1.950   2.550   0.273 -1.7797  2.5009  1.8248
  406SOL    HW2 1218   1.780   2.542   0.279  0.7325 -0.4432  2.3388
  407SOL     OW 1219   1.981   1.470   0.430  0.2267  0.3233 -0.7375
  407SOL    HW1 1220   2.059   1.498   0.489 -0.0913  0.0116 -0.7139
  407SOL    HW2 1221   1.955   1.540   0.359 -0.2875  0.4234 -0.0705
  408SOL     OW 1222   0.599   0.373   2.193 -0.1838  0.4313  0.4221
  408SOL    HW1 1223   0.516   0.324   2.165 -0.7196  2.0334  0.9072
  408SOL    HW2 1224   0.652   0.322   2.258 -3.6064  0.4749 -2.4868
  409SOL     OW 1225   2.894   1.603   0.377 -0.6361 -0.6756 -0.4530
  409SOL    HW1 1226   2.793   1.594   0.380 -0.9151 -2.7390  2.3279
  409SOL    HW2 1227   2.919   1.685   0.321  1.0170  0.3023 -1.7305
  410SOL     OW 1228   2.190   1.601   1.169 -0.0039 -0.5765  0.0875
  410SOL    HW1 1229   2.231   1.635   1.260 -1.3509  1.1152  0.9685
  410SOL    HW2 1230   2.132   1.516   1.188  0.4963 -1.5724 -1.1110
  411SOL     OW 1231   0.023   0.571   0.417  0.6724  0.2721  0.3853
  411SOL    HW1 1232   3.069   0.532   0.333  1.0885  0.5124 -0.5412
  411SOL    HW2 1233   0.031   0.493   0.484 -1.0997  1.1941 -0.4960
  412SOL     OW 1234   1.670   0.515   0.123 -0.0400 -0.5863 -0.3944
  412SOL    HW1 1235   1.606   0.574   0.175 -0.9731  0.1925  1.8558
  412SOL    HW2 1236   1.617   0.440   0.073 -1.5818 -0.9854 -2.1377
  413SOL     OW 1237   1.144   0.234   1.557 -0.2210 -0.4662 -0.1498
  413SOL    HW1 1238   1.244   0.244   1.562  0.8836  3.4889  0.5242
  413SOL    HW2 1239   1.117   0.281   1.466  4.4745 -3.0838 -1.1168
  414SOL     OW 1240   0.299   1.056   0.205  0.0352 -0.0833  0.0142
  414SOL    HW1 1241   0.297   1.083   0.103 -0.0442  1.2351 -1.0449
  414SOL    HW2 1242   0.229   0.980   0.208  0.1386  0.6623 -0.9809
  415SOL     OW 1243   0.296   1.562   0.581 -0.2530 -0.4228 -0.5429
  415SOL    HW1 1244   0.215   1.610   0.620  1.9228  0.8367 -0.5491
  415SOL    HW2 1245   0.285   1.541   0.482  1.3570  0.2308  0.8627
  416SOL     OW 1246   1.814   0.816   0.321 -0.3104  0.1288 -0.3789
  416SOL    HW1 1247   1.759   0.733   0.301  2.0639 -1.3314 -0.8036
  416SOL    HW2 1248   1.894   0.790   0.381  0.0894 -0.2767 -0.9979
  417SOL     OW 1249   0.060   0.111   0.510  0.4325 -0.4527 -0.0737
  417SOL    HW1 1250   0.088   0.009   0.515  0.2152 -2.0113  0.6569
  417SOL    HW2 1251   0.036   0.139   0.413 -0.7799  1.0119 -3.4924
  418SOL     OW 1252   2.393   1.074   0.065 -0.3116 -0.5474 -0.4731
  418SOL    HW1 1253   2.437   0.987   0.028 -1.1374  2.6928 -1.8215
  418SOL    HW2 1254   2.332   1.115   3.078 -1.6572  0.5178 -1.0117
  419SOL     OW 1255   0.536   0.706   0.239 -0.1861  0.4385  0.3370
  419SOL    HW1 1256   0.452   0.677   0.194 -2.5142 -1.6238  2.5768
  419SOL    HW2 1257   0.553   0.643   0.317  0.1120 -1.9336 -0.4095
  420SOL     OW 1258   0.530   1.262   0.891  0.4384  0.7315  0.0355
  420SOL    HW1 1259   0.598   1.313   0.841 -1.3589 -1.8668  1.1173
  420SOL    HW2 1260   0.438   1.291   0.859  1.3515 -0.3218 -0.5895
  421SOL     OW 1261   0.348   2.019   0.149  0.0486  0.0588 -0.6683
  421SOL    HW1 1262   0.376   1.926   0.177  1.6246 -0.2301 -2.0916
  421SOL    HW2 1263   0.279   2.018   0.073 -1.8475 -1.6517 -0.2045
  422SOL     OW 1264   2.521   0.367   1.722 -0.1810  0.5284 -0.3704
  422SOL    HW1 1265   2.451   0.292   1.751 -2.9558  1.4316  1.8280
  422SOL    HW2 1266   2.541   0.354   1.619 -0.9208  1.0255 -2.6602
  423SOL     OW 1267   2.206   1.823   0.423  0.2596  0.6236 -0.2858
  423SOL    HW1 1268   2.161   1.776   0.504 -2.2136 -2.9060 -2.0615
  423SOL    HW2 1269   2.188   1.926   0.431 -0.7589 -0.0590  2.0804
  424SOL     OW 1270   1.915   1.421   2.932 -0.0671 -0.4434  0.0139
  424SOL    HW1 1271   1.949   1.498   2.990 -2.8465  1.1655 -1.4772
  424SOL    HW2 1272   1.821   1.444   2.911 -2.0281  0.4680 -1.6278
  425SOL     OW 1273   0.201   2.879   2.451  0.3734 -0.3274 -0.2874
  425SOL    HW1 1274   0.290   2.927   2.478  3.5400  3.4705 -0.9151
  425SOL    HW2 1275   0.223   2.800   2.392 -0.5127 -1.1803 -0.3387
  426SOL     OW 1276   2.286   2.915   2.698  0.3266  0.3633  0.3483
  426SOL    HW1 1277   2.311   3.012   2.716  0.1077 -0.7346 -2.1120
  426SOL    HW2 1278   2.317   2.879   2.607  0.7303 -1.0994  0.3383
  427SOL     OW 1279   0.631   1.014   2.161  0.2506  0.2787  0.3825
  427SOL    HW1 1280   0.686   0.954   2.100 -1.7601 -0.3504  2.7969
  427SOL    HW2 1281   0.667   1.111   2.171  3.1758  1.5743  0.0465
  428SOL     OW 1282   2.391   1.466   2.249 -0.1864  0.6030  0.0294
  428SOL    HW1 1283   2.360   1.370   2.245 -0.0939 -0.2050 -0.8867
  428SOL    HW2 1284   2.361   1.508   2.161  1.5022  0.2833 -2.6860
  429SOL     OW 1285   2.264   0.232   0.604 -0.1122 -0.6216  0.0817
  429SOL    HW1 1286   2.312   0.261   0.518  2.2235  3.5021  1.9840
  429SOL    HW2 1287   2.305   0.151   0.651 -1.6652  2.0344 -0.4213
  430SOL     OW 1288   1.718   1.441   2.381  0.3581  0.1078  0.8849
  430SOL    HW1 1289   1.805   1.385   2.370 -0.8105 -0.8857 -0.5273
  430SOL    HW2 1290   1.636   1.397   2.339  1.0979  0.8881  0.1149
  431SOL     OW 1291   2.840   2.010   1.658  0.0495 -0.0892  0.1166
  431SOL    HW1 1292   2.928   1.974   1.620  1.1891  3.0519  1.8828
  431SOL    HW2 1293   2.856   2.101   1.700  0.6493 -3.0914  1.5229
  432SOL     OW 1294   0.813   2.584   1.919 -0.2353  0.2779 -0.3552
  432SOL    HW1 1295   0.772   2.604   1.831  3.0283  0.5940  2.6747
  432SOL    HW2 1296   0.807   2.657   1.989  1.3201 -1.1402  0.9873
  433SOL     OW 1297   1.670   2.941   0.902 -0.5421 -0.2107 -0.0749
  433SOL    HW1 1298   1.695   3.039   0.892 -2.6272 -0.5087 -1.1907
  433SOL    HW2 1299   1.602   2.913   0.831 -0.0209  0.4438 -0.3691
  434SOL     OW 1300   0.443   2.249   1.889 -1.0431 -0.0560  0.4440
  434SOL    HW1 1301   0.541   2.275   1.873  0.6905 -1.8377 -0.2495
  434SOL    HW2 1302   0.441   2.149   1.919 -0.6146  1.9753  0.2063
  435SOL     OW 1303   0.495   1.733   0.572 -0.4359  0.1860  0.1826
  435SOL    HW1 1304   0.484   1.816   0.517 -0.6213  2.3655  3.0253
  435SOL    HW2 1305   0.422   1.665   0.561  3.4380  0.5281 -0.2219
  436SOL     OW 1306   0.227   1.516   1.733 -0.5221 -0.0773 -0.0447
  436SOL    HW1 1307   0.165   1.599   1.757 -0.2612  1.5960 -0.6537
  436SOL    HW2 1308   0.296   1.532   1.662  0.8251  0.3188  1.3779
  437SOL     OW 1309   1.206   0.546   0.049  0.5940  0.2439  0.3184
  437SOL    HW1 1310   1.303   0.526   0.085 -0.3906 -1.6877 -2.6888
  437SOL    HW2 1311   1.171   0.637   0.081  2.0848  0.2287  0.8163
  438SOL     OW 1312   0.553   1.866   1.374  0.1121 -0.2668  0.0620
  438SOL    HW1 1313   0.491   1.921   1.310 -1.8195 -0.3028 -0.4167
  438SOL    HW2 1314   0.510   1.874   1.463 -0.5348 -0.4223 -0.0841
  439SOL     OW 1315   1.467   1.760   2.673  0.8245 -0.0698  0.5768
  439SOL    HW1 1316   1.534   1.832   2.645  0.2536 -2.6656 -1.7821
  439SOL    HW2 1317   1.483   1.675   2.617  1.3807  0.9288 -0.6934
  440SOL     OW 1318   1.497   0.561   1.076  0.3942 -0.0172  0.1129
  440SOL    HW1 1319   1.486   0.659   1.050  1.7220 -1.8000 -1.7971
  440SOL    HW2 1320   1.453   0.529   1.161 -0.5303 -1.1187 -0.8116
  441SOL     OW 1321   0.561   2.729   1.410  0.1808  0.7636  0.6106
  441SOL    HW1 1322   0.497   2.663   1.456 -0.4293  1.2911  2.5099
  441SOL    HW2 1323   0.537   2.825   1.426 -0.3590 -2.8917  3.8386
  442SOL     OW 1324   2.349   2.312   0.822  0.1184  0.0514 -0.6493
  442SOL    HW1 1325   2.410   2.352   0.747  0.1481 -2.6172 -0.2868
  442SOL    HW2 1326   2.253   2.340   0.807  0.9106 -3.0830  0.1593
  443SOL     OW 1327   2.817   0.727   2.291  0.2057  1.0132 -0.0544
  443SOL    HW1 1328   2.715   0.724   2.309 -1.2968  2.4443 -4.1049
  443SOL    HW2 1329   2.876   0.750   2.367  0.7292 -1.3941 -0.6578
  444SOL     OW 1330   1.511   0.840   2.344 -0.9437 -0.5656 -0.1759
  444SOL    HW1 1331   1.604   0.838   2.306 -0.0946 -1.3987 -0.6304
  444SOL    HW2 1332   1.446   0.837   2.265  1.0781  0.4040  0.7036
  445SOL     OW 1333   2.793   2.301   1.095  0.1806  0.1431  0.2044
  445SOL    HW1 1334   2.812   2.389   1.140  2.3353 -2.4774 -0.2192
  445SOL    HW2 1335   2.700   2.301   1.044 -4.7532  1.0171  0.5636
  446SOL     OW 1336   0.012   1.285   0.703 -0.2583 -0.1008  0.1346
  446SOL    HW1 1337   3.082   1.200   0.645  0.3515 -2.3388 -1.3933
  446SOL    HW2 1338   3.069   1.372   0.663 -0.1036  0.2394  0.7867
  447SOL     OW 1339   0.668   2.211   0.845 -0.0829  0.4076 -0.6346
  447SOL    HW1 1340   0.662   2.296   0.901 -2.6906  1.5513  0.5639
  447SOL    HW2 1341   0.583   2.151   0.852  0.4531  1.7737  2.6090
  448SOL     OW 1342   1.613   1.466   1.518  0.0365 -0.5506  0.3146
  448SOL    HW1 1343   1.585   1.460   1.613 -2.5397  1.9522 -1.8818
  448SOL    HW2 1344   1.526   1.471   1.465  1.6219  1.2096  0.5600
  449SOL     OW 1345   0.549   1.647   2.896 -0.3346 -0.3146 -0.3175
  449SOL    HW1 1346   0.595   1.556   2.884 -3.9530 -1.2674 -0.8902
  449SOL    HW2 1347   0.587   1.701   2.979  1.4076  4.2173  2.5341
  450SOL     OW 1348   2.564   2.273   1.876 -0.2512  0.1988  0.1286
  450SOL    HW1 1349   2.500   2.218   1.935 -0.7580  0.6207 -1.5025
  450SOL    HW2 1350   2.653   2.229   1.868 -1.3309  0.2730  1.1165
  451SOL     OW 1351   2.288   0.507   1.805  0.4851 -0.2222  0.4655
  451SOL    HW1 1352   2.361   0.472   1.739 -1.2052 -0.4676  0.3032
  451SOL    HW2 1353   2.273   0.607   1.798 -0.2420 -2.8728  0.0903
  452SOL     OW 1354   0.851   2.719   1.067 -0.3074  0.0952  0.3244
  452SOL    HW1 1355   0.847   2.644   1.137  0.2084 -4.1628  0.4471
  452SOL    HW2 1356   0.897   2.683   0.982  0.0576 -0.2610  3.0378
  453SOL     OW 1357   0.899   1.510   0.829  0.0298 -0.0503  0.3751
  453SOL    HW1 1358   0.828   1.452   0.786 -2.4582 -1.0657 -0.5998
  453SOL    HW2 1359   0.864   1.586   0.889  1.3844 -0.7944  0.6260
  454SOL     OW 1360   2.726   1.201   0.949  0.0802 -0.2238 -0.1200
  454SOL    HW1 1361   2.816   1.170   0.921 -1.0849  1.7949  1.6993
  454SOL    HW2 1362   2.733   1.279   1.016 -0.2791  2.8379  1.8256
  455SOL     OW 1363   0.275   0.267   0.418 -0.0416 -0.2424  0.0555
  455SOL    HW1 1364   0.191   0.258   0.475  0.0385  0.0096  0.5277
  455SOL    HW2 1365   0.306   0.361   0.408 -1.2085  2.2295  2.2693
  456SOL     OW 1366   2.083   2.476   0.314  0.3171  0.0589 -0.5932
  456SOL    HW1 1367   2.121   2.543   0.381 -2.2226 -1.3609  1.2127
  456SOL    HW2 1368   2.074   2.387   0.364  2.3116  2.9597 -0.6228
  457SOL     OW 1369   1.240   2.768   0.012 -1.2027  0.2801  0.0189
  457SOL    HW1 1370   1.314   2.833   0.024 -0.7214 -0.0610 -1.9406
  457SOL    HW2 1371   1.272   2.695   3.029  2.1205 -2.2387 -0.4571
  458SOL     OW 1372   2.662   2.942   0.223  0.0888  0.7256 -0.3180
  458SOL    HW1 1373   2.680   2.897   0.134  0.5599 -0.8555  0.5873
  458SOL    HW2 1374   2.717   3.027   0.232  1.9168  0.6940  3.2605
  459SOL     OW 1375   2.461   0.555   2.029  0.2311 -0.2658  0.2042
  459SOL    HW1 1376   2.399   0.579   2.106  1.9890  0.8639 -1.5376
  459SOL    HW2 1377   2.413   0.508   1.957 -2.4172  0.8592  0.1171
  460SOL     OW 1378   2.990   0.460   0.184  0.0129 -0.5899  0.1332
  460SOL    HW1 1379   3.057   0.499   0.116  0.8116 -2.0634  1.7517
  460SOL    HW2 1380   2.895   0.473   0.151 -1.5293  0.4369 -1.3605
  461SOL     OW 1381   0.145   1.990   1.404  0.4871 -0.0333  0.0505
  461SOL    HW1 1382   0.074   1.969   1.327 -0.8596 -0.2031 -3.1735
  461SOL    HW2 1383   0.236   1.974   1.357 -2.8886  1.2021 -1.2453
  462SOL     OW 1384   2.730   2.965   1.005 -0.4270 -0.3913  0.3179
  462SOL    HW1 1385   2.710   3.010   0.913 -0.8279 -1.2320 -1.8747
  462SOL    HW2 1386   2.668   2.999   1.080  1.3275  0.1536 -1.5239
  463SOL     OW 1387   2.890   1.031   0.063 -0.5166  0.1052 -0.0720
  463SOL    HW1 1388   2.961   1.101   0.083  1.7026 -0.7436  1.7886
  463SOL    HW2 1389   2.884   1.014   3.046  1.2915  0.5130 -3.1264
  464SOL     OW 1390   0.568   2.673   0.994 -0.6357 -0.4143  0.0621
  464SOL    HW1 1391   0.516   2.695   1.080 -3.5938 -3.9600  1.2921
  464SOL    HW2 1392   0.664   2.710   0.997 -0.5230 -4.6826  2.9052
  465SOL     OW 1393   1.027   0.577   1.165 -0.2336  0.5065  0.2541
  465SOL    HW1 1394   1.099   0.635   1.126 -2.5810 -0.5572  0.8478
  465SOL    HW2 1395   0.935   0.594   1.127  3.3216  2.0702  1.7810
  466SOL     OW 1396   1.481   2.444   2.322  0.2050  0.5690 -0.1021
  466SOL    HW1 1397   1.481   2.450   2.215  2.1166 -1.9408 -1.4776
  466SOL    HW2 1398   1.535   2.514   2.373 -3.0283 -2.5298  0.9624
  467SOL     OW 1399   0.829   0.316   1.904  0.1084 -0.5470  0.0822
  467SOL    HW1 1400   0.874   0.358   1.982  0.5817 -1.9679 -2.1094
  467SOL    HW2 1401   0.883   0.235   1.874  1.6292 -0.9957  0.7263
  468SOL     OW 1402   0.227   0.881   2.273  0.5906 -0.1313  0.0441
  468SOL    HW1 1403   0.259   0.904   2.178 -1.2685  2.3106  1.3323
  468SOL    HW2 1404   0.224   0.781   2.283 -0.3245  0.8140  0.8274
  469SOL     OW 1405   0.798   2.367   0.629  0.4485 -0.0793  0.5908
  469SOL    HW1 1406   0.872   2.406   0.688  1.1839  0.9754  1.2592
  469SOL    HW2 1407   0.736   2.300   0.683 -0.8315  0.4193 -1.2796
  470SOL     OW 1408   2.601   1.665   2.089  0.1292 -0.4344 -0.0064
  470SOL    HW1 1409   2.520   1.603   2.102  1.3764 -0.6416  1.8314
  470SOL    HW2 1410   2.670   1.620   2.028  0.2959 -0.9143 -1.8821
  471SOL     OW 1411   0.972   3.067   2.892  0.0485 -0.5962  0.4867
  471SOL    HW1 1412   0.979   2.993   2.961 -4.5716  1.0706  0.1474
  471SOL    HW2 1413   1.067   0.002   2.860  0.2614 -0.2104  0.2099
  472SOL     OW 1414   0.338   2.655   1.746 -0.2704 -0.3369  0.0689
  472SOL    HW1 1415   0.248   2.639   1.782  0.5265  0.9776 -0.8665
  472SOL    HW2 1416   0.358   2.602   1.661 -1.5330  0.7598 -0.6158
  473SOL     OW 1417   0.738   0.081   2.790 -0.1698 -0.0250 -0.0687
  473SOL    HW1 1418   0.807   0.030   2.847 -2.4212 -2.7815  0.7776
  473SOL    HW2 1419   0.654   0.091   2.845 -0.3393  1.5313  1.7149
  474SOL     OW 1420   1.751   0.106   0.932 -0.2605  0.0080 -0.3695
  474SOL    HW1 1421   1.796   0.099   1.023  1.8560  1.8121  0.6173
  474SOL    HW2 1422   1.700   0.193   0.923  1.2196 -1.4159 -0.8687
  475SOL     OW 1423   1.744   0.264   1.192 -0.4009 -0.3771 -0.4635
  475SOL    HW1 1424   1.649   0.282   1.169  0.5405 -0.9271  2.0712
  475SOL    HW2 1425   1.804   0.328   1.143  0.9255 -1.5413  1.2580
  476SOL     OW 1426   0.461   1.021   1.038  0.2877  0.0406 -0.4361
  476SOL    HW1 1427   0.361   1.019   1.047  3.1419  1.5259 -2.4452
  476SOL    HW2 1428   0.499   1.100   0.992 -0.6096 -0.2428 -0.8607
  477SOL     OW 1429   1.220   2.418   0.713 -0.1363  0.2079  0.8914
  477SOL    HW1 1430   1.167   2.472   0.645  0.1182 -0.4758 -1.9868
  477SOL    HW2 1431   1.210   2.466   0.802  1.8713  1.3439 -1.2673
  478SOL     OW 1432   3.023   2.513   2.324  0.3423 -0.1015 -0.6297
  478SOL    HW1 1433   0.004   2.572   2.380  0.2068  0.4151 -0.4756
  478SOL    HW2 1434   3.061   2.470   2.238 -2.4008  1.0707 -0.8070
  479SOL     OW 1435   2.592   0.552   1.036  0.4542  0.3177 -0.3269
  479SOL    HW1 1436   2.641   0.624   1.091  1.6864 -0.9254  0.6429
  479SOL    HW2 1437   2.538   0.601   0.966  3.1688  0.4304 -2.2147
  480SOL     OW 1438   0.030   2.662   0.089 -0.1595 -0.1128  0.3193
  480SOL    HW1 1439   3.032   2.603   0.100 -0.5698  3.3799 -1.2631
  480SOL    HW2 1440   0.005   2.751   0.134 -2.1697  0.1424  1.8584
  481SOL     OW 1441   2.234   2.056   1.579  0.0859  0.1463 -0.5924
  481SOL    HW1 1442   2.208   2.030   1.676  1.1878  0.6476  2.4478
  481SOL    HW2 1443   2.166   2.110   1.527  0.5838 -0.4721  2.0317
  482SOL     OW 1444   1.514   2.237   2.690 -0.2354  0.4371  0.2414
  482SOL    HW1 1445   1.595   2.297   2.714  1.8227  0.1596  0.6848
  482SOL    HW2 1446   1.502   2.231   2.586 -2.4713  0.4104 -3.2151
  483SOL     OW 1447   0.828   1.611   1.670  0.5208  0.1063 -0.0382
  483SOL    HW1 1448   0.831   1.676   1.589  0.7342  0.3372 -0.3562
  483SOL    HW2 1449   0.750   1.545   1.662  2.2420 -1.1238  0.2000
  484SOL     OW 1450   0.447   0.497   1.436 -0.1182 -0.5105 -0.1456
  484SOL    HW1 1451   0.481   0.593   1.453 -0.0009 -1.2040  1.8811
  484SOL    HW2 1452   0.475   0.453   1.346 -0.5995 -0.1880 -3.6757
  485SOL     OW 1453   2.270   1.155   2.918  0.1278 -0.1386 -0.2485
  485SOL    HW1 1454   2.178   1.170   2.870 -2.5632  2.0677  0.3599
  485SOL    HW2 1455   2.345   1.180   2.855 -1.8007  0.5915 -0.5650
  486SOL     OW 1456   1.560   2.975   1.614  0.4240 -0.0705 -0.6885
  486SOL    HW1 1457   1.567   3.057   1.676 -0.0233 -0.8488  0.1287
  486SOL    HW2 1458   1.462   2.952   1.592  1.9911 -1.4928 -0.6718
  487SOL     OW 1459   0.452   2.246   1.521  0.1115 -0.1202  0.2634
  487SOL    HW1 1460   0.499   2.159   1.550  0.4618  1.4848  0.6678
  487SOL    HW2 1461   0.448   2.256   1.417 -1.0643  0.1213 -0.1228
  488SOL     OW 1462   2.432   2.199   2.789  0.0001 -0.2875  0.1753
  488SOL    HW1 1463   2.349   2.149   2.824 -2.0347  1.2138 -0.5611
  488SOL    HW2 1464   2.487   2.234   2.867 -1.2446  1.6950 -0.5035
  489SOL     OW 1465   1.940   2.998   0.561  0.3040 -0.1347 -0.0189
  489SOL    HW1 1466   1.898   2.907   0.567  1.2517  0.1204  1.1180
  489SOL    HW2 1467   1.990   3.007   0.469 -1.6264  0.0485 -3.0736
  490SOL     OW 1468   1.028   2.262   2.868 -0.0139  0.0980  0.2264
  490SOL    HW1 1469   1.116   2.247   2.817  1.3014  0.9828 -0.7280
  490SOL    HW2 1470   1.041   2.220   2.965  0.4296 -2.3051  0.9558
  491SOL     OW 1471   0.409   1.538   1.528 -0.3847 -0.2748  0.0521
  491SOL    HW1 1472   0.422   1.635   1.557  0.4998  1.3149 -1.6162
  491SOL    HW2 1473   0.475   1.485   1.584 -0.9360 -0.7761 -1.3100
  492SOL     OW 1474   1.259   1.190   1.886  0.4176  0.6488 -0.1952
  492SOL    HW1 1475   1.178   1.134   1.897 -1.1105  1.3491 -0.8373
  492SOL    HW2 1476   1.237   1.271   1.832 -2.6131 -1.3286  2.6827
  493SOL     OW 1477   2.603   1.886   0.970  0.4402 -0.4031  0.2744
  493SOL    HW1 1478   2.582   1.960   1.043  0.9252  1.4327  0.7921
  493SOL    HW2 1479   2.702   1.882   0.936  3.0384 -1.1661 -0.7536
  494SOL     OW 1480   0.179   1.992   1.027 -0.1198  0.1817 -0.1794
  494SOL    HW1 1481   0.111   2.008   0.949  0.2491  2.8894  0.5378
  494SOL    HW2 1482   0.134   1.969   1.110  3.3830  2.7239 -0.8194
  495SOL     OW 1483   2.300   2.629   0.687 -0.2660  0.3744  0.1097
  495SOL    HW1 1484   2.402   2.623   0.692 -2.0052  1.6816  1.0183
  495SOL    HW2 1485   2.253   2.620   0.773 -0.8624  1.9188 -0.2701
  496SOL     OW 1486   2.365   0.099   1.357 -0.5905 -0.2404 -0.4170
  496SOL    HW1 1487   2.300   0.115   1.279  1.9475  2.0131  1.0148
  496SOL    HW2 1488   2.320   0.076   1.447 -1.9740 -2.0126  0.7035
  497SOL     OW 1489   2.310   0.868   2.629 -0.1961 -0.0713 -0.5038
  497SOL    HW1 1490   2.214   0.844   2.620  0.6098  0.3430  0.7897
  497SOL    HW2 1491   2.320   0.967   2.625  0.2759 -0.4740 -1.1970
  498SOL     OW 1492   0.024   2.254   1.407  0.0587  0.7637 -0.1900
  498SOL    HW1 1493   0.070   2.173   1.449  1.0608  0.3810  0.5173
  498SOL    HW2 1494   3.011   2.246   1.422 -1.1646  0.2859 -2.0729
  499SOL     OW 1495   0.779   2.121   2.065  0.0573  0.6224  0.1662
  499SOL    HW1 1496   0.745   2.148   2.155 -1.9654 -1.7815  0.7773
  499SOL    HW2 1497   0.835   2.197   2.027  1.2508  0.5826  1.3378
  500SOL     OW 1498   1.064   2.056   0.597 -0.0158 -0.3007 -0.3050
  500SOL    HW1 1499   1.022   2.119   0.530  1.4190 -2.1358 -1.6786
  500SOL    HW2 1500   0.998   1.982   0.625  0.3055 -1.4279  2.5159
  501SOL     OW 1501   1.676   2.993   1.387  0.0352  0.5440 -0.4177
  501SOL    HW1 1502   1.627   3.016   1.301  0.0997  3.4386  0.0957
  501SOL    HW2 1503   1.612   2.977   1.467 -2.5872  1.2709  0.3609
  502SOL     OW 1504   2.631   0.633   1.765  0.1098  0.5060  0.7169
  502SOL    HW1 1505   2.648   0.670   1.857  0.4949  1.8537 -1.1238
  502SOL    HW2 1506   2.619   0.532   1.772  0.0411 -0.3436  0.3893
  503SOL     OW 1507   2.651   1.329   2.319 -0.4432 -0.1678 -0.2469
  503SOL    HW1 1508   2.722   1.405   2.305  2.3493 -3.1308 -1.4407
  503SOL    HW2 1509   2.593   1.315   2.235 -0.4365  0.4507 -2.2480
  504SOL     OW 1510   1.730   0.863   1.569  0.5297  0.2320  0.1306
  504SOL    HW1 1511   1.777   0.775   1.545 -0.7972 -0.7800  1.4027
  504SOL    HW2 1512   1.682   0.903   1.486  2.4380 -0.5754  0.4779
  505SOL     OW 1513   0.479   2.976   1.439 -0.5671  0.1833 -0.5700
  505SOL    HW1 1514   0.560   2.991   1.503  1.6752  2.4244 -1.6413
  505SOL    HW2 1515   0.415   3.053   1.443 -0.0903 -0.1373  2.0602
  506SOL     OW 1516   3.021   0.187   0.266  0.1404  0.1249  0.0954
  506SOL    HW1 1517   3.011   0.287   0.259  0.7178 -0.0692 -1.5681
  506SOL    HW2 1518   3.039   0.144   0.176  0.8923 -0.9644 -1.4232
  507SOL     OW 1519   2.717   2.536   3.062 -0.0675  0.2458 -0.0459
  507SOL    HW1 1520   2.740   2.479   2.984 -2.0052 -0.5936  2.1681
  507SOL    HW2 1521   2.794   2.517   0.036  2.3844  1.2363 -3.5482
  508SOL     OW 1522   1.391   0.389   1.842  0.8088  0.3595  0.1140
  508SOL    HW1 1523   1.290   0.395   1.860 -1.4487 -0.7611 -0.6827
  508SOL    HW2 1524   1.414   0.298   1.874 -2.4301  1.2928 -1.5984
  509SOL     OW 1525   1.797   1.769   1.098  0.0555  0.0224  0.5756
  509SOL    HW1 1526   1.793   1.719   1.187  0.6462 -0.4141 -1.0491
  509SOL    HW2 1527   1.704   1.797   1.061  0.3137 -0.8105  0.1408
  510SOL     OW 1528   2.477   0.885   1.403 -0.0675  0.2120  0.8974
  510SOL    HW1 1529   2.455   0.803   1.465 -1.2419  1.6966 -0.1265
  510SOL    HW2 1530   2.475   0.966   1.463 -2.5835 -2.9873  2.2222
  511SOL     OW 1531   1.364   1.898   1.317  0.2298  0.1524 -0.0999
  511SOL    HW1 1532   1.286   1.938   1.259 -2.0561  0.6056 -1.1531
  511SOL    HW2 1533   1.330   1.827   1.383  0.1641 -1.5439  0.3623
  512SOL     OW 1534   2.986   1.559   0.629  0.0631 -0.0298 -0.2016
  512SOL    HW1 1535   2.937   1.543   0.540 -0.3294 -1.2882 -0.2423
  512SOL    HW2 1536   3.061   1.631   0.628  0.6676  3.4966  1.0073
  513SOL     OW 1537   0.117   1.410   0.079  0.4348 -0.2318  0.0573
  513SOL    HW1 1538   0.198   1.438   0.026 -0.2821 -0.9463 -2.2200
  513SOL    HW2 1539   0.056   1.348   0.019 -2.4010 -2.9773 -3.4062
  514SOL     OW 1540   2.420   2.124   2.054 -0.0536  0.5438 -0.5409
  514SOL    HW1 1541   2.500   2.061   2.069  0.3425  1.0303 -0.2822
  514SOL    HW2 1542   2.347   2.091   2.114  1.0750  0.4616 -1.7822
  515SOL     OW 1543   2.145   1.095   0.710 -0.1322 -0.1706  0.1701
  515SOL    HW1 1544   2.056   1.144   0.710 -1.3926 -2.0818 -1.5125
  515SOL    HW2 1545   2.211   1.144   0.650  1.4434  2.0297 -0.6051
  516SOL     OW 1546   2.361   2.956   0.020  0.5689 -0.0268 -0.3248
  516SOL    HW1 1547   2.274   2.934   3.059  0.9091  4.1039  1.0730
  516SOL    HW2 1548   2.445   2.944   3.056 -0.8396  2.4034  2.7017
  517SOL     OW 1549   0.888   1.441   2.736  0.7785 -0.0862  0.7907
  517SOL    HW1 1550   0.960   1.370   2.747 -0.6677  1.7638 -1.1340
  517SOL    HW2 1551   0.852   1.446   2.637  0.8071 -1.4061  1.6534
  518SOL     OW 1552   0.369   0.204   2.117 -0.0106  0.3218 -0.1934
  518SOL    HW1 1553   0.385   0.107   2.089  0.9734  0.2353  0.3517
  518SOL    HW2 1554   0.275   0.217   2.153 -2.1806 -1.6041  1.3182
  519SOL     OW 1555   0.988   1.114   0.213 -0.7324  0.3537 -0.0797
  519SOL    HW1 1556   1.073   1.105   0.160 -0.2719  0.0287  2.9637
  519SOL    HW2 1557   0.998   1.195   0.276 -4.8224  1.1940 -1.2348
  520SOL     OW 1558   2.630   2.455   2.083  0.5382 -0.2302 -0.3861
  520SOL    HW1 1559   2.582   2.376   2.039 -1.3882 -1.1257 -1.6508
  520SOL    HW2 1560   2.711   2.492   2.032 -0.5755 -0.8137  0.5868
  521SOL     OW 1561   0.479   1.987   1.979  0.6558 -0.0805 -0.1443
  521SOL    HW1 1562   0.523   1.963   2.067 -0.3188 -0.7603 -1.3568
  521SOL    HW2 1563   0.449   1.900   1.930 -2.4200 -3.2304 -0.0572
  522SOL     OW 1564   1.377   2.837   1.835 -0.7183  0.5456 -0.1946
  522SOL    HW1 1565   1.303   2.771   1.870  0.2866  0.3377  3.0110
  522SOL    HW2 1566   1.341   2.887   1.755  0.7088 -1.5421  0.9591
  523SOL     OW 1567   1.898   2.191   1.410 -0.0759  0.1124  0.0878
  523SOL    HW1 1568   1.953   2.113   1.376 -0.0174 -0.1848  0.2190
  523SOL    HW2 1569   1.936   2.287   1.388  3.2085  1.8073  1.4589
  524SOL     OW 1570   0.740   2.563   0.441  0.1380  0.5761 -0.5153
  524SOL    HW1 1571   0.679   2.631   0.490 -1.3102  0.3475  4.7400
  524SOL    HW2 1572   0.761   2.486   0.503  1.8013 -0.6156 -0.0527
  525SOL     OW 1573   2.921   0.129   0.669 -0.2580 -0.3249 -0.3775
  525SOL    HW1 1574   2.878   0.205   0.618  0.0324 -1.3406 -0.3906
  525SOL    HW2 1575   3.021   0.113   0.654 -2.0300  1.0536  1.3365
  526SOL     OW 1576   0.950   0.063   0.508  0.4514 -0.0174 -0.7843
  526SOL    HW1 1577   0.881   3.086   0.468 -0.6440 -0.0472 -1.8291
  526SOL    HW2 1578   1.018   0.008   0.560  0.1854 -0.2921  3.6116
  527SOL     OW 1579   1.909   1.646   0.867 -0.1267 -0.0525 -0.0370
  527SOL    HW1 1580   1.981   1.586   0.911  0.7581 -1.9297  0.6134
  527SOL    HW2 1581   1.868   1.692   0.948  0.5357  2.5940  0.1188
  528SOL     OW 1582   2.553   2.600   2.500  0.2587 -0.1615 -0.5207
  528SOL    HW1 1583   2.616   2.590   2.425 -1.5271 -2.2853  0.9488
  528SOL    HW2 1584   2.477   2.659   2.471 -0.3672 -0.1554  0.4200
  529SOL     OW 1585   1.023   1.557   2.470 -0.2096 -0.2430  0.2939
  529SOL    HW1 1586   0.925   1.562   2.446  0.6709 -2.7403 -0.0435
  529SOL    HW2 1587   1.072   1.505   2.395 -1.5672 -2.4456 -0.9914
  530SOL     OW 1588   1.576   1.004   2.894  0.1095  0.1572 -0.0928
  530SOL    HW1 1589   1.617   0.947   2.974  0.5008 -1.7636  2.4266
  530SOL    HW2 1590   1.633   0.999   2.811 -0.3719 -1.3971 -1.1695
  531SOL     OW 1591   0.229   1.002   0.487  0.4390  0.0976  0.1257
  531SOL    HW1 1592   0.295   1.019   0.560 -1.1376 -0.8475 -1.4128
  531SOL    HW2 1593   0.264   1.041   0.399  0.6831 -0.7439 -0.5618
  532SOL     OW 1594   1.761   1.307   0.741  0.1649 -0.5815  0.0102
  532SOL    HW1 1595   1.732   1.233   0.682  0.6422  0.5926 -2.4176
  532SOL    HW2 1596   1.758   1.387   0.678 -0.4606  1.6806 -0.8240
  533SOL     OW 1597   0.714   0.279   2.458 -1.0983 -0.1170  0.5100
  533SOL    HW1 1598   0.752   0.192   2.487  0.6384  2.0554 -3.1700
  533SOL    HW2 1599   0.702   0.345   2.534 -0.3575  0.9086 -0.8323
  534SOL     OW 1600   0.707   2.907   2.988  0.1423 -0.3284  0.3338
  534SOL    HW1 1601   0.804   2.876   2.982  0.3450 -1.8509  1.1977
  534SOL    HW2 1602   0.650   2.887   2.904 -3.0201 -0.6795 -0.4422
  535SOL     OW 1603   0.401   0.359   0.033  0.4088  0.1706  0.6009
  535SOL    HW1 1604   0.367   0.439   0.085 -1.4284 -1.4796 -3.4163
  535SOL    HW2 1605   0.345   0.275   0.060 -3.4792 -0.8683  0.0655
  536SOL     OW 1606   0.506   0.912   2.383  0.1137 -0.2423 -0.2313
  536SOL    HW1 1607   0.419   0.959   2.396 -1.9758 -0.6435  0.8755
  536SOL    HW2 1608   0.556   0.946   2.301  1.3850  0.8741  0.4039
  537SOL     OW 1609   1.226   0.139   1.162 -0.2580 -0.1675  0.2731
  537SOL    HW1 1610   1.184   0.053   1.191 -0.4345  1.7937 -1.2014
  537SOL    HW2 1611   1.182   0.214   1.217 -1.4091  0.3893 -1.5187
  538SOL     OW 1612   0.814   1.826   0.246 -0.0019  0.1283 -0.3636
  538SOL    HW1 1613   0.854   1.920   0.221  1.8456  2.8538 -2.4053
  538SOL    HW2 1614   0.873   1.782   0.316 -1.9726 -0.5438  2.4237
  539SOL     OW 1615   2.582   1.315   1.850  0.2898  0.0272  0.5468
  539SOL    HW1 1616   2.680   1.309   1.833  2.1943  1.4474  1.1475
  539SOL    HW2 1617   2.542   1.375   1.780 -1.2774  0.5346  0.0787
  540SOL     OW 1618   1.899   1.763   1.915  0.9173 -0.0607 -0.1572
  540SOL    HW1 1619   1.895   1.810   1.825 -0.5413 -0.9376 -0.9442
  540SOL    HW2 1620   1.946   1.818   1.980  0.1219 -2.7940 -0.2858
  541SOL     OW 1621   0.698   1.219   1.502  0.1769  0.1941  0.2059
  541SOL    HW1 1622   0.796   1.231   1.526 -0.0240 -1.0565 -0.9050
  541SOL    HW2 1623   0.692   1.164   1.414 -0.3783 -2.6785 -0.4048
  542SOL     OW 1624   1.798   0.619   2.204  0.0525 -0.5754  0.4686
  542SOL    HW1 1625   1.809   0.711   2.249 -1.1262 -0.3439  3.5982
  542SOL    HW2 1626   1.835   0.620   2.112 -1.9598 -0.0215 -1.3965
  543SOL     OW 1627   1.097   0.652   0.463 -0.0081  0.0438  0.4156
  543SOL    HW1 1628   1.042   0.718   0.411 -1.8638  0.8223  0.9221
  543SOL    HW2 1629   1.157   0.598   0.400 -0.6541  0.9881 -0.8776
  544SOL     OW 1630   2.656   1.982   2.140 -0.5094  0.1588 -0.5838
  544SOL    HW1 1631   2.645   1.886   2.162  1.5325  0.4245  1.4601
  544SOL    HW2 1632   2.694   2.031   2.222 -1.4293  1.0666  0.3775
  545SOL     OW 1633   1.739   2.134   1.632 -0.0836  0.8814 -0.4869
  545SOL    HW1 1634   1.803   2.178   1.564  1.2864  0.2082  1.2010
  545SOL    HW2 1635   1.696   2.205   1.685  0.9492 -1.1540 -0.2865
  546SOL     OW 1636   0.087   0.101   2.854 -0.1725  0.0466 -0.2326
  546SOL    HW1 1637   0.153   0.146   2.785 -0.1113  1.0789  1.8830
  546SOL    HW2 1638   0.065   0.003   2.829 -1.3752 -2.0566  1.6039
  547SOL     OW 1639   2.124   1.058   0.174  0.2881  0.5891  0.6957
  547SOL    HW1 1640   2.062   1.108   0.109  0.3300  0.2044  0.0017
  547SOL    HW2 1641   2.221   1.059   0.144 -2.2371 -1.6025  0.3719
  548SOL     OW 1642   2.270   1.887   2.463 -0.6282 -0.1876 -0.4934
  548SOL    HW1 1643   2.293   1.871   2.362 -0.1122 -2.8779 -3.8739
  548SOL    HW2 1644   2.175   1.912   2.474  3.6622  2.2990  0.8921
  549SOL     OW 1645   2.057   0.270   0.789 -0.0114  0.3917 -0.5463
  549SOL    HW1 1646   2.022   0.180   0.816  0.6310  0.6420  0.9004
  549SOL    HW2 1647   2.133   0.263   0.723  1.9625  0.1091  1.1255
  550SOL     OW 1648   2.419   1.879   0.770 -0.2783 -0.4482 -0.2594
  550SOL    HW1 1649   2.475   1.916   0.692  1.0831  1.2348 -1.2475
  550SOL    HW2 1650   2.482   1.871   0.853  0.2649 -2.5684  0.1649
  551SOL     OW 1651   1.060   0.147   1.830 -0.3968  0.1408 -0.5426
  551SOL    HW1 1652   1.036   0.056   1.874  1.3925 -1.2488 -0.2461
  551SOL    HW2 1653   1.060   0.135   1.731 -0.7512  1.0919 -0.2511
  552SOL     OW 1654   0.270   2.470   2.566 -0.0314 -0.3590  0.1378
  552SOL    HW1 1655   0.238   2.412   2.491  2.0871 -1.1510  1.5516
  552SOL    HW2 1656   0.367   2.485   2.554  1.6317  0.3517  1.1147
  553SOL     OW 1657   0.724   3.012   0.397  0.4431  0.3258 -0.0167
  553SOL    HW1 1658   0.676   3.077   0.333 -1.0244 -1.3090 -1.6296
  553SOL    HW2 1659   0.683   3.024   0.491 -0.4581  1.2369  3.9321
  554SOL     OW 1660   2.202   2.371   1.739  0.4113 -0.1891  0.0785
  554SOL    HW1 1661   2.295   2.346   1.703 -0.3897 -1.0634  0.2030
  554SOL    HW2 1662   2.151   2.428   1.671  0.3606  1.7944  0.6699
  555SOL     OW 1663   1.321   1.913   1.934  0.0027 -1.2395 -0.1580
  555SOL    HW1 1664   1.322   1.896   2.035 -1.7062 -2.3235 -0.5396
  555SOL    HW2 1665   1.235   1.878   1.894  0.4151 -1.2840 -1.6462
  556SOL     OW 1666   1.540   1.544   1.051  0.8672 -0.4258 -0.4664
  556SOL    HW1 1667   1.544   1.648   1.066 -1.2194  2.0550  1.9372
  556SOL    HW2 1668   1.440   1.523   1.043  1.6490  2.9949  1.0417
  557SOL     OW 1669   1.999   2.201   1.874 -0.4852  0.3721 -0.0634
  557SOL    HW1 1670   2.042   2.110   1.897  1.4469  0.0925  1.1304
  557SOL    HW2 1671   2.066   2.265   1.834 -2.0562 -1.2294  0.1499
  558SOL     OW 1672   0.425   0.327   1.839 -0.0299 -0.5229  0.7054
  558SOL    HW1 1673   0.388   0.289   1.923 -2.7909 -0.1013  0.2501
  558SOL    HW2 1674   0.479   0.413   1.858 -0.1308 -1.7248 -1.8299
  559SOL     OW 1675   2.262   2.820   1.212 -0.3494 -0.0880  0.2070
  559SOL    HW1 1676   2.328   2.864   1.147  0.3977 -1.3921 -1.0981
  559SOL    HW2 1677   2.167   2.842   1.189 -1.4360  1.2028  1.2170
  560SOL     OW 1678   0.938   2.234   0.415  0.0060  0.3632  0.2038
  560SOL    HW1 1679   0.900   2.295   0.489  0.9705 -1.6377  0.0703
  560SOL    HW2 1680   0.964   2.299   0.339 -0.0211  0.2485 -0.1483
  561SOL     OW 1681   1.041   0.337   0.116 -0.0423 -0.1068 -0.0636
  561SOL    HW1 1682   1.114   0.391   0.071 -0.8979  4.2446 -0.4383
  561SOL    HW2 1683   1.045   0.353   0.213 -1.6506 -0.6325 -0.6910
  562SOL     OW 1684   0.667   0.447   2.662  0.3010  0.1147  0.1134
  562SOL    HW1 1685   0.764   0.439   2.697  0.7891  0.1031  0.1233
  562SOL    HW2 1686   0.651   0.541   2.625  2.6035 -0.9589  1.3677
  563SOL     OW 1687   1.648   1.998   2.658  0.3061 -0.8645 -0.3597
  563SOL    HW1 1688   1.743   1.980   2.695 -0.8724 -3.4433  1.7888
  563SOL    HW2 1689   1.606   2.078   2.701 -1.5640  1.2032 -0.6378
  564SOL     OW 1690   2.722   0.922   0.800 -0.2528 -0.3281  0.4968
  564SOL    HW1 1691   2.621   0.911   0.796 -0.0999  1.6953 -0.0822
  564SOL    HW2 1692   2.754   1.019   0.784 -0.9187 -0.8055  2.1616
  565SOL     OW 1693   1.408   0.284   2.604  0.3084  0.9633 -0.2105
  565SOL    HW1 1694   1.306   0.285   2.620 -0.4554 -0.6969  0.9008
  565SOL    HW2 1695   1.438   0.364   2.548 -0.2736  0.9509  2.2574
  566SOL     OW 1696   1.678   0.198   2.302  0.4030 -0.2826 -0.2440
  566SOL    HW1 1697   1.596   0.161   2.347  1.7829  0.1875 -0.0952
  566SOL    HW2 1698   1.696   0.161   2.206 -0.8650  0.8141 -4.6050
  567SOL     OW 1699   2.523   1.554   0.791 -0.8223 -0.1082  0.1899
  567SOL    HW1 1700   2.464   1.522   0.868 -1.9444 -0.7378  2.1163
  567SOL    HW2 1701   2.545   1.654   0.792  0.3672 -0.2909  0.2220
  568SOL     OW 1702   1.797   1.865   0.255 -0.1428 -0.0950 -0.4310
  568SOL    HW1 1703   1.817   1.940   0.188 -1.7928  0.7969 -3.1630
  568SOL    HW2 1704   1.790   1.900   0.351  0.1361 -0.6284  0.6394
  569SOL     OW 1705   2.407   1.464   2.866 -0.1038 -0.0588 -0.4538
  569SOL    HW1 1706   2.482   1.448   2.929 -2.7047  2.0948 -1.6830
  569SOL    HW2 1707   2.361   1.555   2.876 -0.3797  2.1750  0.6585
  570SOL     OW 1708   2.986   3.006   1.652  0.2499  0.1860 -0.3937
  570SOL    HW1 1709   2.898   3.060   1.641  2.8896  0.5330 -0.7563
  570SOL    HW2 1710   3.055   3.066   1.698 -2.5694  0.2531 -0.6160
  571SOL     OW 1711   0.120   0.249   2.373  0.1225  0.2302 -0.0875
  571SOL    HW1 1712   0.024   0.282   2.358 -2.4758 -0.1154 -1.9865
  571SOL    HW2 1713   0.191   0.325   2.359 -0.8806 -0.1583  2.1249
  572SOL     OW 1714   0.729   1.616   0.595 -0.4621  0.2010  0.0065
  572SOL    HW1 1715   0.638   1.649   0.593  2.6482 -2.4394  0.4167
  572SOL    HW2 1716   0.789   1.695   0.612  0.0721 -3.4896  2.4949
  573SOL     OW 1717   0.832   2.582   2.862 -0.0673 -0.2774  0.3166
  573SOL    HW1 1718   0.886   2.671   2.852 -0.8061 -0.4679  0.0099
  573SOL    HW2 1719   0.830   2.545   2.959  2.7480 -0.4316 -2.3151
  574SOL     OW 1720   0.902   0.192   0.864  0.2284  0.4853 -0.4745
  574SOL    HW1 1721   0.864   0.176   0.954  2.5660  1.7734  1.2139
  574SOL    HW2 1722   0.830   0.200   0.787 -4.5308  0.6103 -3.8172
  575SOL     OW 1723   0.075   1.089   1.665  0.4947 -0.6623 -0.1633
  575SOL    HW1 1724   3.078   1.084   1.609  1.3396 -0.8769  0.6790
  575SOL    HW2 1725   0.086   1.169   1.723 -1.0467 -0.1466 -1.2057
  576SOL     OW 1726   2.030   0.314   1.485  0.7527  0.8062 -0.4929
  576SOL    HW1 1727   1.970   0.232   1.454  0.4143  0.2784 -1.4501
  576SOL    HW2 1728   1.995   0.406   1.439  0.7217  1.0853 -1.5416
  577SOL     OW 1729   0.160   1.162   1.998 -0.0220  0.3701 -0.1750
  577SOL    HW1 1730   0.070   1.119   2.015  0.5761 -0.9792 -0.9353
  577SOL    HW2 1731   0.229   1.085   2.009 -1.3757 -0.8759  2.8917
  578SOL     OW 1732   1.815   2.877   2.246 -0.0655 -0.0647  0.2824
  578SOL    HW1 1733   1.847   2.932   2.330  0.9571  1.9446  2.8798
  578SOL    HW2 1734   1.760   2.792   2.268 -1.4582  1.3761 -2.6582
  579SOL     OW 1735   2.153   1.896   1.814 -0.0117 -0.0954 -0.0874
  579SOL    HW1 1736   2.146   1.890   1.916  0.3809 -0.5204  1.9036
  579SOL    HW2 1737   2.061   1.881   1.771  0.5673 -0.9777 -2.3497
  580SOL     OW 1738   2.038   1.602   2.209 -0.6588  0.2906 -0.0873
  580SOL    HW1 1739   1.954   1.647   2.240 -0.9487 -0.1545 -0.1434
  580SOL    HW2 1740   2.019   1.572   2.110 -0.6713 -0.1412  0.1057
  581SOL     OW 1741   1.318   1.006   2.840  0.1910  0.5857  0.8932
  581SOL    HW1 1742   1.285   0.911   2.831 -0.9033 -2.2226  0.4153
  581SOL    HW2 1743   1.419   1.013   2.857  2.4271  0.7450 -0.2070
  582SOL     OW 1744   0.833   2.112   1.457 -0.2458  0.3253 -0.7436
  582SOL    HW1 1745   0.760   2.085   1.526 -0.6437  0.4331 -1.6919
  582SOL    HW2 1746   0.874   2.032   1.408  0.4508 -0.7865 -3.2839
  583SOL     OW 1747   1.369   1.166   1.265  0.1844  0.0330 -0.7345
  583SOL    HW1 1748   1.299   1.095   1.285  2.0457  0.2091 -1.4709
  583SOL    HW2 1749   1.408   1.153   1.168  0.6230 -2.2417 -0.8817
  584SOL     OW 1750   1.410   2.259   0.616 -0.1359 -0.4396 -0.7566
  584SOL    HW1 1751   1.364   2.208   0.542  0.4073 -2.2511  1.6847
  584SOL    HW2 1752   1.330   2.309   0.664  0.3478 -0.0637  1.8798
  585SOL     OW 1753   2.448   2.593   3.057 -0.0879  0.5527 -0.6949
  585SOL    HW1 1754   2.552   2.575   3.048  1.0227 -0.7648 -0.2007
  585SOL    HW2 1755   2.417   2.663   2.989 -0.4104  1.5970 -1.9233
  586SOL     OW 1756   2.747   1.785   0.653 -0.1389  0.2145 -0.1623
  586SOL    HW1 1757   2.825   1.822   0.710  2.7410 -0.6179  0.9195
  586SOL    HW2 1758   2.684   1.861   0.622  2.2843 -2.3545  0.8195
  587SOL     OW 1759   1.054   1.652   0.018  0.5778  0.3797 -0.0852
  587SOL    HW1 1760   0.982   1.635   3.032 -2.1699  0.4648 -3.0625
  587SOL    HW2 1761   1.067   1.574   0.086  1.2953  0.2333 -0.5037
  588SOL     OW 1762   0.404   0.417   0.746  0.7530 -0.6532  0.0524
  588SOL    HW1 1763   0.342   0.336   0.742  0.0485 -0.0100 -1.2579
  588SOL    HW2 1764   0.408   0.467   0.838  1.5868  0.6849  2.6530
  589SOL     OW 1765   1.180   0.339   0.571  0.2845  0.2896 -0.2634
  589SOL    HW1 1766   1.080   0.320   0.551  0.3294  2.1503 -1.4010
  589SOL    HW2 1767   1.196   0.422   0.620 -1.4424 -4.3598 -1.7538
  590SOL     OW 1768   2.143   2.305   0.096  0.2265  0.2139 -0.2867
  590SOL    HW1 1769   2.113   2.332   0.190 -2.5813 -2.7568  1.3341
  590SOL    HW2 1770   2.133   2.386   0.038 -1.9479 -0.5458  0.8671
  591SOL     OW 1771   0.135   2.720   2.083  0.3571 -0.4272  0.0841
  591SOL    HW1 1772   0.152   2.822   2.083 -1.6806  0.5771 -0.8436
  591SOL    HW2 1773   0.139   2.686   1.983 -0.4063 -1.0870 -4.0281
  592SOL     OW 1774   0.007   1.605   2.219  0.1774 -0.4196 -0.4028
  592SOL    HW1 1775   0.034   1.508   2.212 -0.3793  1.3212  0.9079
  592SOL    HW2 1776   0.053   1.663   2.148  2.1943  0.4775 -0.1251
  593SOL     OW 1777   1.993   1.431   1.216  0.0063  0.0093  0.2320
  593SOL    HW1 1778   1.985   1.468   1.311  2.3023 -1.5137  0.0799
  593SOL    HW2 1779   1.911   1.375   1.196  2.0572  1.5958 -0.9723
  594SOL     OW 1780   0.321   1.179   3.031 -0.1908 -0.0468 -0.2415
  594SOL    HW1 1781   0.360   1.273   3.047  0.9005 -0.5757  0.6207
  594SOL    HW2 1782   0.225   1.188   2.995  0.5236  2.0998 -0.4602
  595SOL     OW 1783   1.058   1.299   0.885 -0.3478 -1.4582  0.3293
  595SOL    HW1 1784   0.986   1.264   0.950 -2.5523  1.1034  0.8878
  595SOL    HW2 1785   1.012   1.386   0.847 -2.4536 -0.5188 -0.8944
  596SOL     OW 1786   2.696   1.332   1.331 -0.0360 -0.2118  0.3057
  596SOL    HW1 1787   2.689   1.230   1.322 -0.1714 -3.8856 -2.6385
  596SOL    HW2 1788   2.746   1.370   1.253 -0.1391  2.4008 -0.5463
  597SOL     OW 1789   1.093   2.182   1.535  0.0860 -0.7314  1.1257
  597SOL    HW1 1790   1.003   2.201   1.487 -1.5607  2.4561 -0.9422
  597SOL    HW2 1791   1.103   2.086   1.564  1.9806  1.3961 -0.2376
  598SOL     OW 1792   2.242   2.589   1.903  0.0303 -0.5763  0.1417
  598SOL    HW1 1793   2.243   2.497   1.859 -1.8724  0.9230  1.7842
  598SOL    HW2 1794   2.248   2.668   1.839  0.8110  3.9125  0.1200
  599SOL     OW 1795   0.734   1.094   0.157 -0.1287  0.1564 -0.8200
  599SOL    HW1 1796   0.834   1.097   0.186  2.6463  3.1429 -0.1062
  599SOL    HW2 1797   0.714   1.006   0.110  1.0378  1.7460  0.6350
  600SOL     OW 1798   1.015   0.703   2.749  0.3240  0.1129  0.1376
  600SOL    HW1 1799   0.985   0.730   2.842  1.5612  1.3643 -0.7252
  600SOL    HW2 1800   1.113   0.707   2.746 -4.0449 -2.7135  1.0437
  601SOL     OW 1801   0.721   0.468   1.717  0.4437 -0.4435 -0.3338
  601SOL    HW1 1802   0.787   0.433   1.787  0.0809  0.2245 -0.4384
  601SOL    HW2 1803   0.649   0.523   1.762 -1.9494  0.9640 -1.2751
  602SOL     OW 1804   0.313   2.439   0.674  0.0553 -0.2736  0.2253
  602SOL    HW1 1805   0.301   2.350   0.720 -0.1519 -0.7961 -0.0392
  602SOL    HW2 1806   0.222   2.470   0.630  0.2524  1.7521 -0.3634
  603SOL     OW 1807   0.903   2.333   1.955 -0.2614 -0.5397  0.5962
  603SOL    HW1 1808   0.866   2.422   1.973  1.1780 -4.0207 -0.2766
  603SOL    HW2 1809   1.006   2.341   1.939 -2.3691 -3.5024  0.0548
  604SOL     OW 1810   0.180   2.010   3.004  0.1043 -0.2533 -0.0707
  604SOL    HW1 1811   0.242   1.990   2.923 -0.5072 -0.4320 -1.2845
  604SOL    HW2 1812   0.114   1.931   3.016 -0.7649  1.0790  1.5163
  605SOL     OW 1813   2.157   1.434   1.860  0.3704  0.6013  0.0283
  605SOL    HW1 1814   2.058   1.451   1.882 -2.0931 -2.8540 -2.7267
  605SOL    HW2 1815   2.171   1.432   1.763 -1.5663  0.3659 -0.5718
  606SOL     OW 1816   0.938   1.045   2.925  0.0473 -0.0172 -0.2093
  606SOL    HW1 1817   0.864   0.991   2.974 -3.5115  1.6916  0.4446
  606SOL    HW2 1818   0.957   1.139   2.966 -0.5495  0.6166  1.4532
  607SOL     OW 1819   1.160   1.000   1.345 -0.0671  0.2803  0.4504
  607SOL    HW1 1820   1.213   0.914   1.360  1.3149 -0.7702 -2.2431
  607SOL    HW2 1821   1.060   0.973   1.333 -0.0934 -1.0700  0.2901
  608SOL     OW 1822   2.898   1.879   1.999 -0.1320 -0.2778 -0.2282
  608SOL    HW1 1823   2.801   1.894   2.021 -0.9753  0.5576 -0.4158
  608SOL    HW2 1824   2.950   1.949   2.043 -2.8186 -1.0529 -4.1134
  609SOL     OW 1825   2.141   0.194   0.240 -0.8811  0.0463  0.4513
  609SOL    HW1 1826   2.231   0.165   0.194  1.3156 -2.2836  1.8519
  609SOL    HW2 1827   2.095   0.118   0.284  2.0909  2.8429  1.5627
  610SOL     OW 1828   3.030   2.632   1.140 -0.0979 -0.8100  0.0561
  610SOL    HW1 1829   3.084   2.707   1.188 -1.9930  1.5355 -1.0028
  610SOL    HW2 1830   3.085   2.547   1.128  2.4313  0.5638  1.2339
  611SOL     OW 1831   1.768   2.183   0.347  0.2472  0.1826  0.0810
  611SOL    HW1 1832   1.714   2.191   0.261 -1.8875  0.9531  1.1638
  611SOL    HW2 1833   1.752   2.099   0.405 -0.8421 -0.6907  2.4334
  612SOL     OW 1834   0.670   2.953   1.666 -0.5142 -0.2735 -0.2387
  612SOL    HW1 1835   0.768   2.931   1.677  1.2246 -0.1525 -0.1820
  612SOL    HW2 1836   0.663   3.046   1.711  0.0317  0.6913  0.6805
  613SOL     OW 1837   3.010   1.937   0.597  0.7379  0.3591 -0.1365
  613SOL    HW1 1838   2.994   2.029   0.561  0.5893 -1.3148 -0.3168
  613SOL    HW2 1839   2.945   1.865   0.564  1.3809  0.4095  1.2928
  614SOL     OW 1840   2.078   0.353   1.761  0.3708  0.2813 -0.1708
  614SOL    HW1 1841   2.167   0.400   1.772 -0.1458 -0.3420 -0.9954
  614SOL    HW2 1842   2.053   0.349   1.660  0.8157 -0.4994  0.6093
  615SOL     OW 1843   1.267   1.503   1.020  0.2192 -0.2993  0.3268
  615SOL    HW1 1844   1.207   1.567   1.072 -0.5544 -0.1171 -5.1771
  615SOL    HW2 1845   1.222   1.418   0.991  3.3686  0.5912 -2.1059
  616SOL     OW 1846   1.702   1.668   0.115  0.4846 -0.0812 -0.4391
  616SOL    HW1 1847   1.719   1.739   0.189  1.0563  2.7265  1.2354
  616SOL    HW2 1848   1.713   1.715   0.024 -0.5660 -0.6747 -2.5684
  617SOL     OW 1849   1.814   0.262   0.236 -0.1781  0.2303 -0.2658
  617SOL    HW1 1850   1.834   0.332   0.171  1.0241  0.9635  2.1865
  617SOL    HW2 1851   1.820   0.161   0.205 -0.1354 -2.0599  3.2844
  618SOL     OW 1852   0.563   0.687   2.512  0.2273  0.5007 -0.3002
  618SOL    HW1 1853   0.524   0.749   2.444 -0.4824 -0.2389 -0.4033
  618SOL    HW2 1854   0.623   0.738   2.573 -2.4024  0.9149 -0.6032
  619SOL     OW 1855   2.751   1.679   1.285  0.0532 -0.0457  0.8072
  619SOL    HW1 1856   2.845   1.671   1.245  0.0309  1.1516  1.2405
  619SOL    HW2 1857   2.676   1.646   1.227 -0.6690 -0.8554  0.6148
  620SOL     OW 1858   1.940   2.987   2.493 -0.1886  0.1545  0.6274
  620SOL    HW1 1859   1.890   3.072   2.511 -0.5181 -1.8541 -1.1370
  620SOL    HW2 1860   2.020   3.000   2.436  0.0707 -2.0890  0.6115
  621SOL     OW 1861   2.691   1.702   2.984  0.4785  0.1729  0.1806
  621SOL    HW1 1862   2.791   1.713   2.967  0.7328  1.1285 -2.3961
  621SOL    HW2 1863   2.671   1.618   3.037  1.1627  1.6685 -4.2081
  622SOL     OW 1864   1.717   0.066   2.035 -0.1104  0.2664  0.0173
  622SOL    HW1 1865   1.725   3.058   2.072  2.2143  0.1108 -0.0081
  622SOL    HW2 1866   1.782   0.075   1.953  0.5391 -1.9955  0.5483
  623SOL     OW 1867   0.688   2.412   1.014  0.8135  0.0163 -0.1486
  623SOL    HW1 1868   0.718   2.355   1.094 -0.9583 -1.7138  0.1269
  623SOL    HW2 1869   0.619   2.479   1.036  1.4280 -1.2293 -0.2686
  624SOL     OW 1870   0.025   0.073   0.024  0.3130 -0.2154  0.0610
  624SOL    HW1 1871   3.062   3.075   0.009  0.0422  2.0531  0.5860
  624SOL    HW2 1872   0.049   0.107   3.016 -0.4985  2.4935  0.6202
  625SOL     OW 1873   0.815   1.885   0.645 -0.2681  0.4247  0.3551
  625SOL    HW1 1874   0.803   1.918   0.742  0.8384 -0.1424  1.8948
  625SOL    HW2 1875   0.771   1.947   0.574 -1.1823  0.4162 -3.4516
  626SOL     OW 1876   2.739   0.332   2.987 -0.0943 -0.4022  0.5939
  626SOL    HW1 1877   2.810   0.289   2.929  1.4069  0.6092 -0.9782
  626SOL    HW2 1878   2.685   0.257   3.033 -0.3467  1.6861  0.2690
  627SOL     OW 1879   1.242   1.903   2.742 -0.0288 -0.0085  0.2684
  627SOL    HW1 1880   1.335   1.865   2.715  0.0862 -1.7842  0.6514
  627SOL    HW2 1881   1.177   1.872   2.670 -0.7336  0.2980  1.8919
  628SOL     OW 1882   0.146   2.614   2.945 -0.4677 -0.0106 -0.5222
  628SOL    HW1 1883   0.093   2.642   2.867 -1.2546  0.0412  1.2242
  628SOL    HW2 1884   0.109   2.646   3.037  3.6582  0.9926  0.6659
  629SOL     OW 1885   0.483   2.936   2.505  0.4334  0.1114 -0.1194
  629SOL    HW1 1886   0.479   2.927   2.607  1.8437 -1.7524  2.1811
  629SOL    HW2 1887   0.507   2.848   2.459  1.2367  0.3006 -0.2966
  630SOL     OW 1888   1.423   0.978   1.941 -0.0491 -0.2799  0.2339
  630SOL    HW1 1889   1.466   1.004   1.855  0.5961 -0.8860  3.0349
  630SOL    HW2 1890   1.352   1.047   1.961 -0.1532 -0.1609 -0.0437
  631SOL     OW 1891   1.915   1.207   0.071  0.3099  0.0844  0.6445
  631SOL    HW1 1892   1.866   1.214   0.157  1.0432 -2.0311  1.1979
  631SOL    HW2 1893   1.882   1.265   3.080 -2.4616  0.9627 -0.1457
  632SOL     OW 1894   2.683   0.379   1.942 -0.8560  0.0927 -0.0849
  632SOL    HW1 1895   2.626   0.441   1.999 -1.1811 -1.2698  0.2438
  632SOL    HW2 1896   2.630   0.349   1.867  2.1598  0.4127 -2.3567
  633SOL     OW 1897   0.804   1.488   0.046 -0.1394  0.2612  0.3544
  633SOL    HW1 1898   0.809   1.583   0.022 -0.1695  1.9550 -1.5189
  633SOL    HW2 1899   0.846   1.423   3.067  1.8609  0.7047  1.3044
  634SOL     OW 1900   2.328   2.763   2.462  0.1314 -0.0405 -0.2693
  634SOL    HW1 1901   2.243   2.711   2.489 -1.0397 -2.1379 -0.3512
  634SOL    HW2 1902   2.308   2.836   2.397 -0.6665  2.5546  0.1239
  635SOL     OW 1903   2.054   0.723   0.455  0.5717  0.0072  0.0943
  635SOL    HW1 1904   2.017   0.730   0.550 -4.6638 -1.0326  1.6736
  635SOL    HW2 1905   2.072   0.629   0.422  1.0515  3.4089  0.2372
  636SOL     OW 1906   0.726   1.354   0.704 -0.4475 -0.7851 -0.3529
  636SOL    HW1 1907   0.748   1.285   0.637 -2.0755  0.7008 -0.6562
  636SOL    HW2 1908   0.705   1.439   0.653 -3.8708 -0.2913 -0.7987
  637SOL     OW 1909   2.930   2.197   0.229 -0.3856  0.1505 -1.0175
  637SOL    HW1 1910   2.846   2.150   0.197  3.3380  0.4108 -0.2810
  637SOL    HW2 1911   2.940   2.171   0.331  2.2095 -0.3965  1.4010
  638SOL     OW 1912   1.170   2.671   2.410 -0.1290 -0.4140 -0.5702
  638SOL    HW1 1913   1.189   2.745   2.340  1.4539 -0.0473  1.3674
  638SOL    HW2 1914   1.169   2.581   2.363  0.1926  0.3706  1.7741
  639SOL     OW 1915   1.417   2.033   0.084 -0.5845  0.3344 -0.1469
  639SOL    HW1 1916   1.342   2.098   0.103  0.5708  1.0246 -2.1576
  639SOL    HW2 1917   1.407   1.937   0.114 -0.6639 -0.9650 -1.7833
  640SOL     OW 1918   1.749   0.097   0.615 -0.2635  0.4308  0.4100
  640SOL    HW1 1919   1.795   0.187   0.611 -0.5401 -2.8511 -1.7711
  640SOL    HW2 1920   1.816   0.023   0.586 -0.6744 -0.1971 -0.9437
  641SOL     OW 1921   2.928   2.941   0.448  0.4571 -0.2081 -0.2572
  641SOL    HW1 1922   2.944   2.890   0.537  0.4400  0.5310  1.8450
  641SOL    HW2 1923   2.878   3.027   0.472 -1.7592  4.4027 -0.1206
  642SOL     OW 1924   0.755   0.237   1.564 -0.2875 -0.8600  0.1986
  642SOL    HW1 1925   0.734   0.336   1.594  1.1628  5.4293  3.0724
  642SOL    HW2 1926   0.750   0.178   1.644  0.5440 -0.5185 -0.5859
  643SOL     OW 1927   0.738   1.253   2.236 -0.2412 -1.1890 -0.1318
  643SOL    HW1 1928   0.721   1.291   2.326 -4.4662 -0.0401 -1.9152
  643SOL    HW2 1929   0.827   1.281   2.189  0.9825 -0.8992 -0.4508
  644SOL     OW 1930   1.049   2.405   0.236 -0.2105  0.0597 -0.4876
  644SOL    HW1 1931   1.068   2.503   0.228  2.2852 -1.4215 -0.0855
  644SOL    HW2 1932   1.140   2.361   0.225 -0.8040 -1.6469 -0.0880
  645SOL     OW 1933   1.614   2.232   0.113 -0.2035  0.7543  0.1011
  645SOL    HW1 1934   1.607   2.275   0.022 -3.5926 -0.2301  1.8458
  645SOL    HW2 1935   1.553   2.147   0.116 -2.7865 -2.7994 -0.9398
  646SOL     OW 1936   0.360   1.459   3.054  0.9478  0.3716 -0.2702
  646SOL    HW1 1937   0.348   1.548   3.003  2.2334 -2.3607  1.0035
  646SOL    HW2 1938   0.449   1.452   0.019 -0.6479 -1.2398 -1.2813
  647SOL     OW 1939   0.716   0.113   1.086  0.5196 -0.3724  0.1776
  647SOL    HW1 1940   0.749   0.021   1.074 -2.0344  4.6829 -0.0437
  647SOL    HW2 1941   0.759   0.156   1.165  0.6138  1.4619 -0.7836
  648SOL     OW 1942   1.672   0.331   1.480 -0.6724 -0.3878  0.0759
  648SOL    HW1 1943   1.717   0.317   1.385  3.7106 -1.9880  0.2955
  648SOL    HW2 1944   1.693   0.427   1.511  0.7325 -0.6532 -0.2903
  649SOL     OW 1945   1.090   1.888   2.957  0.0471  0.4357  0.1749
  649SOL    HW1 1946   1.162   1.889   2.884 -1.0781  0.6124 -2.8025
  649SOL    HW2 1947   1.062   1.794   2.994 -0.4901 -3.0551  0.1336
  650SOL     OW 1948   2.825   1.549   2.273  0.2321 -0.3397 -0.2503
  650SOL    HW1 1949   2.776   1.637   2.291  2.4749  0.0411 -2.3170
  650SOL    HW2 1950   2.923   1.568   2.272 -1.1028 -2.4243  1.4716
  651SOL     OW 1951   1.257   2.580   2.916  0.3044  0.0038  0.0875
  651SOL    HW1 1952   1.238   2.487   2.947 -0.6139  0.6255  0.9286
  651SOL    HW2 1953   1.194   2.597   2.835 -2.0530  0.4048  0.0365
  652SOL     OW 1954   2.824   1.968   0.024 -0.0640  0.3555  0.2315
  652SOL    HW1 1955   2.764   1.916   3.056  0.3751 -1.5573  0.5298
  652SOL    HW2 1956   2.830   2.064   3.073 -0.0079 -1.8543 -1.1835
  653SOL     OW 1957   0.167   0.172   1.054 -0.1031 -0.4049 -0.5550
  653SOL    HW1 1958   0.199   0.075   1.078  2.4088 -3.9501 -3.4266
  653SOL    HW2 1959   0.178   0.230   1.137  2.0143  0.7155  1.3246
  654SOL     OW 1960   2.390   0.299   2.355 -0.3019  0.0122  1.3952
  654SOL    HW1 1961   2.474   0.288   2.286  3.0343 -0.6903 -3.3023
  654SOL    HW2 1962   2.303   0.261   2.319 -1.7647 -1.2242 -0.6518
  655SOL     OW 1963   0.398   2.921   0.874 -0.4432  0.1098 -0.1221
  655SOL    HW1 1964   0.385   2.837   0.827 -1.4796 -1.4532 -1.7606
  655SOL    HW2 1965   0.483   2.970   0.848  1.2550  2.9745 -1.2656
  656SOL     OW 1966   2.883   3.001   2.221 -0.0293 -1.2044  0.4888
  656SOL    HW1 1967   2.824   3.057   2.160  0.1492  1.1157  0.2978
  656SOL    HW2 1968   2.970   3.051   2.245 -0.3050  1.0146 -0.8793
  657SOL     OW 1969   2.738   0.633   2.602  0.1127  0.4663  0.0955
  657SOL    HW1 1970   2.679   0.655   2.519 -0.6104  0.9889 -1.0202
  657SOL    HW2 1971   2.734   0.538   2.638  0.7245  0.3728 -2.5295
  658SOL     OW 1972   2.235   2.055   0.760  0.6289  0.0341 -0.3064
  658SOL    HW1 1973   2.306   1.979   0.777  2.0070  0.2998 -0.5016
  658SOL    HW2 1974   2.271   2.148   0.791 -1.3745  2.2861  0.6810
  659SOL     OW 1975   2.007   2.796   0.139  0.1759  0.0269  0.4271
  659SOL    HW1 1976   1.959   2.716   0.177  2.8683  0.7535 -2.0977
  659SOL    HW2 1977   2.031   2.771   0.043  3.8000 -0.2657  0.0371
  660SOL     OW 1978   1.679   1.139   2.625  0.4692  0.1175 -0.0406
  660SOL    HW1 1979   1.610   1.140   2.553  2.1990 -0.8657  0.9960
  660SOL    HW2 1980   1.677   1.222   2.682 -1.4049 -1.6722 -0.2947
  661SOL     OW 1981   2.398   2.434   1.347 -0.2742 -0.5497  0.4311
  661SOL    HW1 1982   2.456   2.353   1.365 -0.5019  1.1348  0.0511
  661SOL    HW2 1983   2.411   2.502   1.423  0.5410  1.4400 -0.2667
  662SOL     OW 1984   0.606   0.874   0.470 -0.6681 -0.3310 -0.1457
  662SOL    HW1 1985   0.562   0.835   0.389 -2.0486 -0.0642  2.7719
  662SOL    HW2 1986   0.543   0.925   0.530  1.2003  0.7439 -2.7650
  663SOL     OW 1987   2.001   2.267   0.477 -0.7637  0.0499 -0.3769
  663SOL    HW1 1988   2.070   2.192   0.487 -2.2749  1.4383 -2.1495
  663SOL    HW2 1989   1.928   2.242   0.416  1.7041 -2.1795  2.5955
  664SOL     OW 1990   0.816   1.726   1.421  0.2479  0.1306  0.4220
  664SOL    HW1 1991   0.739   1.754   1.362  0.2614 -1.7902  0.8619
  664SOL    HW2 1992   0.897   1.786   1.404 -2.6339  1.7034 -0.5614
  665SOL     OW 1993   1.771   2.209   2.063 -0.8780 -0.2679  0.2166
  665SOL    HW1 1994   1.813   2.178   2.150 -0.4362  0.4038 -0.5027
  665SOL    HW2 1995   1.840   2.197   1.991  0.4342  1.6674  2.1263
  666SOL     OW 1996   0.161   2.473   0.262 -0.1039  0.0562 -0.1890
  666SOL    HW1 1997   0.263   2.462   0.250  1.1605  0.1008 -0.8834
  666SOL    HW2 1998   0.121   2.538   0.195 -1.9187  2.3866  1.1189
  667SOL     OW 1999   2.454   1.499   1.657 -0.0689  0.2354  0.3305
  667SOL    HW1 2000   2.424   1.571   1.723  1.3084  0.3824 -1.4585
  667SOL    HW2 2001   2.518   1.531   1.586  0.7923  1.7009 -0.6038
  668SOL     OW 2002   0.358   0.546   2.607 -0.2876  0.0280 -0.7853
  668SOL    HW1 2003   0.447   0.596   2.575  0.1747  0.0750 -2.6255
  668SOL    HW2 2004   0.379   0.491   2.690  1.4430 -0.4580  0.4475
  669SOL     OW 2005   1.887   2.292   2.938  0.5046  0.0135  0.0443
  669SOL    HW1 2006   1.878   2.344   2.851 -1.8212 -0.6370 -0.3862
  669SOL    HW2 2007   1.977   2.300   2.976 -0.8862  1.0383  0.3593
  670SOL     OW 2008   2.521   1.835   2.811  0.0588  0.2355  0.8622
  670SOL    HW1 2009   2.424   1.801   2.790  0.5994  3.1227  0.7817
  670SOL    HW2 2010   2.569   1.767   2.873 -1.2473 -2.3634  1.1975
  671SOL     OW 2011   0.127   1.423   1.211  0.4292 -0.5378  0.3571
  671SOL    HW1 2012   0.161   1.449   1.114  0.5484  2.7822 -0.4342
  671SOL    HW2 2013   0.060   1.345   1.208 -1.8754  3.7422 -0.1475
  672SOL     OW 2014   2.494   0.986   2.392  0.6820  0.5130  0.2563
  672SOL    HW1 2015   2.551   1.034   2.329 -0.1065  0.8657  4.0985
  672SOL    HW2 2016   2.396   1.000   2.367 -1.0834 -1.7229 -0.4182
  673SOL     OW 2017   2.417   2.628   2.135  0.0741 -0.0901 -0.0533
  673SOL    HW1 2018   2.503   2.568   2.137  0.1072 -1.7568  0.0709
  673SOL    HW2 2019   2.361   2.610   2.054 -0.0041  0.4608  1.9966
  674SOL     OW 2020   1.184   2.364   1.969  0.7940 -0.1692 -0.2970
  674SOL    HW1 2021   1.248   2.286   1.951 -0.6585  1.1241 -2.2218
  674SOL    HW2 2022   1.168   2.367   2.069  1.5575  4.0921  0.1923
  675SOL     OW 2023   0.534   0.780   1.159 -0.0389 -0.6656 -0.2900
  675SOL    HW1 2024   0.507   0.788   1.256  0.1546  1.3711 -2.3400
  675SOL    HW2 2025   0.512   0.867   1.108 -0.3419 -2.0869 -0.3864
  676SOL     OW 2026   1.852   1.043   0.626  0.0565  0.0725  0.2950
  676SOL    HW1 2027   1.764   0.998   0.616  1.2709 -1.4556  0.4052
  676SOL    HW2 2028   1.913   1.029   0.543  1.1308 -0.5535 -0.4520
  677SOL     OW 2029   0.019   1.728   2.492  0.8336  0.2268  0.1517
  677SOL    HW1 2030   0.014   1.710   2.393  1.8083 -1.5605  1.6370
  677SOL    HW2 2031   3.009   1.740   2.533 -1.5240 -0.7619  1.0189
  678SOL     OW 2032   2.705   1.928   1.336 -0.0343 -0.6090 -0.2055
  678SOL    HW1 2033   2.707   1.829   1.313 -0.7975  1.5245  1.9178
  678SOL    HW2 2034   2.719   1.941   1.433 -1.3681 -1.3810 -2.5097
  679SOL     OW 2035   1.875   2.738   0.524  0.1170 -0.3565 -0.3239
  679SOL    HW1 2036   1.966   2.714   0.491 -2.1774  1.0428  1.9832
  679SOL    HW2 2037   1.848   2.669   0.593 -0.6355 -0.3756 -0.9945
  680SOL     OW 2038   0.400   2.413   2.116  0.0779  0.0458 -0.2781
  680SOL    HW1 2039   0.485   2.395   2.170 -0.3697  2.6195 -1.5727
  680SOL    HW2 2040   0.418   2.390   2.019 -1.4801  0.8991 -0.8081
  681SOL     OW 2041   2.863   1.391   1.809  0.0794  0.0939 -0.1701
  681SOL    HW1 2042   2.955   1.349   1.823  2.5590 -1.3165 -5.4596
  681SOL    HW2 2043   2.843   1.468   1.875  0.6201  1.3138 -0.4009
  682SOL     OW 2044   0.803   1.972   0.909 -0.0521  0.3638 -0.0711
  682SOL    HW1 2045   0.773   2.066   0.884  0.2960 -2.6355  0.1685
  682SOL    HW2 2046   0.905   1.962   0.894  0.0521  1.0364 -2.3743
  683SOL     OW 2047   2.151   1.264   1.066  0.4797 -0.4405  0.0961
  683SOL    HW1 2048   2.116   1.304   0.977 -2.1572  1.2063  0.4729
  683SOL    HW2 2049   2.093   1.304   1.137  1.0361 -1.3690  1.8206
  684SOL     OW 2050   2.954   1.606   2.936 -0.1283  0.3478 -0.2957
  684SOL    HW1 2051   2.971   1.572   2.840 -0.4805 -1.0824 -0.0681
  684SOL    HW2 2052   2.947   1.524   2.992  0.4873 -1.1201 -0.7897
  685SOL     OW 2053   1.483   1.140   0.073 -0.0936  0.0923 -0.0471
  685SOL    HW1 2054   1.524   1.059   0.024  2.5743 -4.6293 -0.6980
  685SOL    HW2 2055   1.529   1.225   0.046  1.4463  0.2493 -2.5586
  686SOL     OW 2056   0.192   0.716   1.339  0.0527  0.4808 -0.7690
  686SOL    HW1 2057   0.294   0.730   1.349  2.5713  0.9239 -2.7003
  686SOL    HW2 2058   0.144   0.660   1.406 -1.3857  1.0804  2.0974
  687SOL     OW 2059   1.270   2.177   2.798  0.1722  0.0479 -0.0843
  687SOL    HW1 2060   1.257   2.078   2.789 -0.5171 -1.8645  1.3281
  687SOL    HW2 2061   1.356   2.201   2.747 -1.2688 -2.6085 -0.6316
  688SOL     OW 2062   0.439   1.789   1.627 -0.4073  0.1884  0.2629
  688SOL    HW1 2063   0.368   1.852   1.665 -0.2262 -0.4976  2.1278
  688SOL    HW2 2064   0.500   1.765   1.708  0.1453 -0.8195  0.8601
  689SOL     OW 2065   1.544   1.063   1.731 -0.2057  0.3279 -0.4384
  689SOL    HW1 2066   1.473   1.098   1.666 -0.5291 -1.8474  0.3106
  689SOL    HW2 2067   1.632   1.041   1.685  0.1232 -0.4410 -2.3603
  690SOL     OW 2068   2.315   0.856   1.196  0.4751 -0.1517  0.3385
  690SOL    HW1 2069   2.388   0.877   1.259 -1.8893  0.6582  0.2807
  690SOL    HW2 2070   2.351   0.861   1.096  1.2166  0.6469 -2.3134
  691SOL     OW 2071   0.635   2.076   1.651  0.1389  0.7590 -0.2109
  691SOL    HW1 2072   0.665   2.001   1.713  0.0256 -1.1812  0.3227
  691SOL    HW2 2073   0.640   2.165   1.698  1.5857 -3.2441  0.2834
  692SOL     OW 2074   1.932   0.051   1.176 -0.5284 -0.0373  0.1551
  692SOL    HW1 2075   2.033   0.070   1.187  0.1685  0.4050 -1.7995
  692SOL    HW2 2076   1.870   0.104   1.233 -1.1716 -1.8053 -1.1375
  693SOL     OW 2077   0.343   0.991   2.042 -0.3406  0.3745 -0.1943
  693SOL    HW1 2078   0.421   0.995   2.106 -0.1362 -0.5182 -2.3311
  693SOL    HW2 2079   0.361   0.917   1.971  2.6554  0.6797 -1.3252
  694SOL     OW 2080   1.877   0.100   1.457  0.5202 -0.3315 -0.5242
  694SOL    HW1 2081   1.939   0.027   1.491 -0.7467 -1.1355 -0.4968
  694SOL    HW2 2082   1.787   0.052   1.432  0.2312 -3.7927 -1.8767
  695SOL     OW 2083   1.249   1.386   1.689  0.2531  0.4937 -0.6607
  695SOL    HW1 2084   1.198   1.463   1.641 -0.6878  1.8951  0.0105
  695SOL    HW2 2085   1.264   1.303   1.632  0.9459 -0.3244  2.9937
  696SOL     OW 2086   1.625   2.874   0.163 -0.0661  0.2056  0.2274
  696SOL    HW1 2087   1.638   2.860   0.260 -1.7603 -0.4322 -0.0814
  696SOL    HW2 2088   1.673   2.795   0.121 -1.9305 -0.5362  1.8958
  697SOL     OW 2089   0.835   0.596   0.580 -0.4004  0.2698 -0.3960
  697SOL    HW1 2090   0.761   0.566   0.515  0.5413 -0.0305 -1.7014
  697SOL    HW2 2091   0.927   0.596   0.541 -2.5276 -3.3825  0.8197
  698SOL     OW 2092   1.440   1.532   2.521  0.1134  0.1609 -0.5331
  698SOL    HW1 2093   1.347   1.504   2.560  0.1198 -2.9068  3.6606
  698SOL    HW2 2094   1.464   1.468   2.444  1.4881 -0.8291 -3.0326
  699SOL     OW 2095   1.425   1.117   1.017 -0.2314 -0.5373 -0.0647
  699SOL    HW1 2096   1.508   1.173   0.995 -0.1865  0.4020  1.3640
  699SOL    HW2 2097   1.353   1.109   0.942 -0.9522  1.1190  0.2150
  700SOL     OW 2098   1.318   2.791   0.588 -0.1379  0.0366  0.1633
  700SOL    HW1 2099   1.345   2.740   0.506 -2.7523  1.2902  0.7149
  700SOL    HW2 2100   1.383   2.868   0.600 -2.5377  0.8514  2.1482
  701SOL     OW 2101   2.208   0.137   2.548 -0.0049 -0.1552 -0.1959
  701SOL    HW1 2102   2.272   0.129   2.623  1.2183 -0.6378 -1.7666
  701SOL    HW2 2103   2.123   0.182   2.583 -0.6908  2.4568  0.7313
  702SOL     OW 2104   0.958   0.058   0.072  0.0689 -0.5331 -0.1975
  702SOL    HW1 2105   0.949   0.150   0.108  0.1900 -3.6669 -2.3067
  702SOL    HW2 2106   0.962   0.061   3.057 -0.8812 -0.8226 -0.9550
  703SOL     OW 2107   2.500   2.865   2.227 -0.3381  0.5893  1.2821
  703SOL    HW1 2108   2.460   2.777   2.194  0.6677 -0.6557 -0.5250
  703SOL    HW2 2109   2.535   2.856   2.321 -0.2939  2.2427 -3.7833
  704SOL     OW 2110   0.276   2.297   1.032 -0.1022  0.6319 -0.0221
  704SOL    HW1 2111   0.263   2.259   0.940  0.0058  2.2639  1.1030
  704SOL    HW2 2112   0.284   2.395   1.013 -2.7280  0.2043 -2.3351
  705SOL     OW 2113   2.582   0.279   2.182  0.1056  0.2196 -0.2122
  705SOL    HW1 2114   2.639   0.357   2.155 -0.2402 -1.9519  1.0388
  705SOL    HW2 2115   2.570   0.215   2.106 -3.0054  1.7106 -0.9150
  706SOL     OW 2116   1.843   3.077   0.159 -0.2410 -0.0303  0.1578
  706SOL    HW1 2117   1.921   3.016   0.188  2.2903  2.7522 -0.3342
  706SOL    HW2 2118   1.757   3.027   0.155  0.6843  0.9476  0.0867
  707SOL     OW 2119   1.002   1.810   1.910 -0.0651  0.0698  0.3136
  707SOL    HW1 2120   0.999   1.863   1.999  2.4514  0.8193  0.7261
  707SOL    HW2 2121   1.052   1.721   1.916  2.0162  0.4647 -0.0781
  708SOL     OW 2122   0.071   2.643   1.835 -0.1442  0.5180 -0.0377
  708SOL    HW1 2123   0.053   2.546   1.813  0.3374 -0.4475  0.8790
  708SOL    HW2 2124   0.001   2.700   1.784 -0.8597  0.9692 -0.6512
  709SOL     OW 2125   1.937   0.113   1.823  0.1727 -0.0942 -0.5151
  709SOL    HW1 2126   1.978   0.191   1.779 -0.7632 -1.4438  2.5170
  709SOL    HW2 2127   2.002   0.034   1.823  1.3759 -2.4700 -2.6129
  710SOL     OW 2128   2.087   0.686   2.322  0.2068 -0.0841  0.0579
  710SOL    HW1 2129   2.058   0.764   2.263  0.9981 -2.7019 -0.9392
  710SOL    HW2 2130   2.079   0.717   2.421 -0.3166 -0.1419 -1.3486
  711SOL     OW 2131   0.885   2.091   0.184  0.4098 -0.4283  0.1859
  711SOL    HW1 2132   0.916   2.118   0.279  1.6552 -0.4969 -2.4979
  711SOL    HW2 2133   0.813   2.157   0.149  0.6358 -0.9828 -1.2880
  712SOL     OW 2134   0.686   2.467   2.200  0.5106 -0.3779 -0.1805
  712SOL    HW1 2135   0.662   2.565   2.206  1.1690 -1.1134  0.0151
  712SOL    HW2 2136   0.782   2.455   2.170 -0.4766 -0.9010  1.5794
  713SOL     OW 2137   1.826   1.240   0.351 -0.3184 -0.0531  0.8041
  713SOL    HW1 2138   1.870   1.323   0.387  1.8685  0.0690  0.2519
  713SOL    HW2 2139   1.877   1.155   0.373 -2.3931 -1.2268  1.0046
  714SOL     OW 2140   0.392   1.472   1.276 -0.3229 -0.0131 -0.1746
  714SOL    HW1 2141   0.298   1.457   1.246  0.2962 -0.1473  0.4544
  714SOL    HW2 2142   0.392   1.505   1.370  0.6169 -1.4620 -1.8624
  715SOL     OW 2143   1.853   0.172   2.762  0.6985  0.0427 -0.0845
  715SOL    HW1 2144   1.755   0.201   2.781  2.0443  1.7967  0.7192
  715SOL    HW2 2145   1.879   0.101   2.828  0.5618  1.0972 -1.5269
  716SOL     OW 2146   2.721   3.072   1.956  0.5836 -0.0468  0.2094
  716SOL    HW1 2147   2.646   3.085   2.027  0.5190  0.2723 -0.1842
  716SOL    HW2 2148   2.739   2.971   1.943 -0.6981 -0.8329 -1.6530
  717SOL     OW 2149   0.101   0.825   0.900 -0.1762 -0.1918 -0.3533
  717SOL    HW1 2150   0.138   0.759   0.834  0.1954  1.9993  3.0216
  717SOL    HW2 2151   0.002   0.809   0.926 -0.6474  1.6928 -1.5510
  718SOL     OW 2152   1.197   1.104   2.595  0.0856 -0.2343  0.1684
  718SOL    HW1 2153   1.094   1.085   2.595  0.5806 -0.6241  1.4893
  718SOL    HW2 2154   1.231   1.073   2.686 -0.3113 -0.8846 -0.7726
  719SOL     OW 2155   2.949   1.317   3.058  0.1554 -0.3562  0.1612
  719SOL    HW1 2156   2.942   1.313   0.075 -1.5388  1.4327  4.2826
  719SOL    HW2 2157   2.856   1.301   3.016 -0.3940  1.3397  1.2183
  720SOL     OW 2158   1.056   0.930   0.925  0.2990  0.2640 -0.2202
  720SOL    HW1 2159   1.133   0.966   0.869 -1.8813  0.4937 -0.7403
  720SOL    HW2 2160   0.967   0.942   0.877 -1.1902  1.7642 -0.8128
  721SOL     OW 2161   2.638   0.502   0.348 -0.0907 -0.4910 -0.0639
  721SOL    HW1 2162   2.638   0.527   0.247 -0.5775 -1.1540 -1.0139
  721SOL    HW2 2163   2.707   0.561   0.397 -0.0312 -1.8708 -0.1128
  722SOL     OW 2164   1.977   0.657   2.803  0.2328  0.4130 -0.0740
  722SOL    HW1 2165   1.950   0.624   2.895 -1.5058  0.1982 -1.0311
  722SOL    HW2 2166   1.968   0.585   2.735  1.0363  2.4490  0.3288
  723SOL     OW 2167   2.847   0.632   0.473  0.0594 -0.0002 -0.0538
  723SOL    HW1 2168   2.933   0.656   0.421 -0.8307 -1.4183  1.1648
  723SOL    HW2 2169   2.793   0.716   0.495  2.0543  0.4338  1.0791
  724SOL     OW 2170   1.009   1.282   2.090  0.1768 -0.0722 -0.1695
  724SOL    HW1 2171   1.033   1.184   2.066  0.5978 -0.0545  2.5437
  724SOL    HW2 2172   0.985   1.332   2.005  0.0835 -0.2951 -0.0928
  725SOL     OW 2173   2.069   0.882   2.142  0.0214  0.1991 -0.3061
  725SOL    HW1 2174   2.139   0.882   2.069 -2.0847 -1.2198 -0.9859
  725SOL    HW2 2175   1.990   0.945   2.113 -1.8622 -1.3177  0.7805
  726SOL     OW 2176   1.621   2.817   0.464 -0.0425 -0.2010 -0.3828
  726SOL    HW1 2177   1.716   2.779   0.481 -1.3837 -3.1345  0.4769
  726SOL    HW2 2178   1.594   2.904   0.516  0.8591 -0.2405  0.8695
  727SOL     OW 2179   1.465   1.335   2.324  0.0142 -0.3096 -0.1865
  727SOL    HW1 2180   1.469   1.247   2.378 -0.3143  0.1109  0.4436
  727SOL    HW2 2181   1.470   1.311   2.226 -2.0791 -1.8274  3.0604
  728SOL     OW 2182   1.446   2.620   1.276 -0.3031 -0.1429  0.3413
  728SOL    HW1 2183   1.384   2.548   1.316 -1.3513 -1.6348 -0.5378
  728SOL    HW2 2184   1.534   2.623   1.329 -1.9074 -3.2056  0.2009
  729SOL     OW 2185   1.918   0.938   1.142 -0.4659  0.2697  0.0419
  729SOL    HW1 2186   1.900   0.884   1.226 -0.6627 -0.1650 -1.3821
  729SOL    HW2 2187   1.994   0.895   1.093 -1.9077  0.0683  0.4734
  730SOL     OW 2188   0.263   1.586   2.504 -0.0804 -0.0045  0.3857
  730SOL    HW1 2189   0.194   1.661   2.508 -0.2021  0.4855  1.1070
  730SOL    HW2 2190   0.284   1.561   2.406  2.3712 -3.6868  0.0696
  731SOL     OW 2191   0.266   0.173   0.769  0.0980 -0.0229  0.4174
  731SOL    HW1 2192   0.313   0.087   0.741 -1.7688  0.0542  0.2741
  731SOL    HW2 2193   0.240   0.172   0.871 -0.1186  0.8714 -0.1322
  732SOL     OW 2194   1.213   0.857   0.211  0.7160 -0.7912 -0.2247
  732SOL    HW1 2195   1.224   0.916   0.131  2.0307 -0.3813 -0.1886
  732SOL    HW2 2196   1.116   0.853   0.248 -0.5280  1.3134 -0.3057
  733SOL     OW 2197   0.496   2.006   0.787 -0.0247 -0.7899 -0.3135
  733SOL    HW1 2198   0.537   1.920   0.828 -1.2253 -1.7594 -1.6032
  733SOL    HW2 2199   0.514   2.010   0.686  0.8401  1.1804 -0.7365
  734SOL     OW 2200   0.039   2.356   2.862  0.0321  0.1799 -0.1239
  734SOL    HW1 2201   0.064   2.454   2.875 -0.6004  1.9063  1.7046
  734SOL    HW2 2202   0.043   2.316   2.956 -2.0900 -1.8998  1.8309
  735SOL     OW 2203   1.310   0.745   1.352 -0.0189  0.4815 -0.4314
  735SOL    HW1 2204   1.266   0.741   1.261  0.2941  0.4928  1.9295
  735SOL    HW2 2205   1.355   0.658   1.369 -1.9476  3.2883  1.0156
  736SOL     OW 2206   2.163   2.547   3.030  0.3582 -0.4682 -0.1740
  736SOL    HW1 2207   2.124   2.612   2.965  4.4760 -0.4839  1.5062
  736SOL    HW2 2208   2.266   2.555   3.032 -0.7186 -1.2858 -0.4188
  737SOL     OW 2209   2.695   0.052   0.796 -0.0191 -0.0369  0.1411
  737SOL    HW1 2210   2.784   0.075   0.746 -0.0308  0.3615 -1.2484
  737SOL    HW2 2211   2.675   0.121   0.867  2.6233  0.7938 -0.4385
  738SOL     OW 2212   2.216   0.133   1.119  0.3684  0.6126  0.0249
  738SOL    HW1 2213   2.180   0.223   1.091 -2.4521 -0.0012  1.2733
  738SOL    HW2 2214   2.227   0.066   1.043  2.0713  0.1810 -1.1760
  739SOL     OW 2215   1.683   2.414   0.400  0.0027 -0.6277  0.1166
  739SOL    HW1 2216   1.704   2.315   0.407  1.4332 -1.0515 -1.8197
  739SOL    HW2 2217   1.619   2.444   0.472  4.9536 -0.0663 -0.3190
  740SOL     OW 2218   1.633   0.378   0.894 -0.7649 -0.1737  0.5574
  740SOL    HW1 2219   1.704   0.400   0.822 -0.6125 -0.7826  0.5368
  740SOL    HW2 2220   1.613   0.460   0.952  1.2181 -1.5552  1.4633
  741SOL     OW 2221   2.462   0.936   0.787 -0.1317 -0.1192  0.5834
  741SOL    HW1 2222   2.410   1.004   0.845 -0.6012 -0.5870 -0.3121
  741SOL    HW2 2223   2.419   0.936   0.696 -1.3851 -1.9211 -2.8683
  742SOL     OW 2224   0.961   1.933   2.163 -0.3341 -0.5831  0.2305
  742SOL    HW1 2225   1.025   1.968   2.233 -3.0953  0.5878  3.0511
  742SOL    HW2 2226   0.901   2.011   2.132  0.7072 -0.3057  2.3930
  743SOL     OW 2227   1.977   0.680   1.833 -0.4755  0.3285  0.0871
  743SOL    HW1 2228   2.076   0.710   1.818 -3.5584  0.5270  2.0719
  743SOL    HW2 2229   1.971   0.587   1.875  1.1195 -1.5210 -3.0768
  744SOL     OW 2230   2.045   0.830   1.389  0.3033  0.4509  0.5874
  744SOL    HW1 2231   2.139   0.817   1.345  0.0481  3.2428 -0.5560
  744SOL    HW2 2232   2.055   0.892   1.469 -0.3690 -0.6404  1.4380
  745SOL     OW 2233   1.781   1.284   1.445  0.4737  0.2574  0.5069
  745SOL    HW1 2234   1.706   1.350   1.462 -1.3116  0.9998 -1.3462
  745SOL    HW2 2235   1.770   1.239   1.352  0.6749 -0.2991 -2.5424
  746SOL     OW 2236   2.128   1.794   0.685 -0.3503  0.2136  0.0850
  746SOL    HW1 2237   2.056   1.767   0.754 -3.3086 -0.4148  2.9095
  746SOL    HW2 2238   2.181   1.878   0.712  0.5509 -2.7821  3.7689
  747SOL     OW 2239   2.028   1.370   0.818  0.3455  0.8691  0.0609
  747SOL    HW1 2240   2.084   1.414   0.744 -0.3145  0.0335  0.4223
  747SOL    HW2 2241   1.935   1.360   0.781 -0.4099 -0.2492 -0.0226
  748SOL     OW 2242   0.273   2.180   0.771  0.0514 -0.0283  0.0567
  748SOL    HW1 2243   0.189   2.128   0.787 -0.5696  1.0031 -0.4588
  748SOL    HW2 2244   0.350   2.120   0.790 -2.6080  2.2497  0.6055
  749SOL     OW 2245   2.493   0.017   2.093 -0.7493 -0.5795 -0.0255
  749SOL    HW1 2246   2.497   3.012   2.146  3.4674 -3.1165 -0.0240
  749SOL    HW2 2247   2.395   0.045   2.075 -0.5470 -3.0337  0.6604
  750SOL     OW 2248   2.435   0.665   0.865  0.2516 -0.1129 -0.6231
  750SOL    HW1 2249   2.399   0.622   0.782  1.9019  1.5920  0.3275
  750SOL    HW2 2250   2.461   0.764   0.847  0.1047 -1.5675  0.9329
  751SOL     OW 2251   2.419   3.073   0.426  0.5262  0.2334 -0.8747
  751SOL    HW1 2252   2.406   2.979   0.384  1.6842  0.7887 -1.9615
  751SOL    HW2 2253   2.479   0.042   0.369  0.0485  1.8813  0.5258
  752SOL     OW 2254   0.155   2.781   0.622  1.3777 -0.0864  0.6004
  752SOL    HW1 2255   0.243   2.770   0.675  0.1562  0.0519  0.8254
  752SOL    HW2 2256   0.165   2.844   0.539 -2.0248  2.7907 -0.5968
  753SOL     OW 2257   1.906   0.461   1.954  0.1270 -0.5138  0.2058
  753SOL    HW1 2258   1.804   0.455   1.943 -2.3391 -0.0549  2.1593
  753SOL    HW2 2259   1.946   0.396   1.884 -0.0822 -4.1924 -3.0501
  754SOL     OW 2260   1.533   2.323   1.733  0.3627  0.1146 -0.0617
  754SOL    HW1 2261   1.565   2.411   1.773  0.8872  1.1392  1.0527
  754SOL    HW2 2262   1.521   2.330   1.631 -1.2640  1.0553 -0.8782
  755SOL     OW 2263   2.813   0.367   0.609  0.3877  0.1168 -0.0977
  755SOL    HW1 2264   2.834   0.461   0.580 -0.8785 -0.7963 -0.0463
  755SOL    HW2 2265   2.710   0.357   0.612 -2.7080  1.5914 -1.2854
  756SOL     OW 2266   0.912   1.678   2.888  0.2112 -0.2115 -0.3668
  756SOL    HW1 2267   0.897   1.602   2.829  0.6392  0.3536  0.0726
  756SOL    HW2 2268   0.917   1.761   2.832 -1.0208  1.3727  0.3506
  757SOL     OW 2269   1.176   0.156   0.889  0.2892 -0.4272  0.0970
  757SOL    HW1 2270   1.191   0.146   0.991 -0.1814 -2.4611 -1.7696
  757SOL    HW2 2271   1.077   0.180   0.875 -1.9780 -3.1457  1.4285
  758SOL     OW 2272   0.832   0.170   1.317  0.2719  0.2943  0.4127
  758SOL    HW1 2273   0.793   0.195   1.410  1.0867  1.0777 -1.3859
  758SOL    HW2 2274   0.868   0.073   1.328 -2.2025 -0.5287  1.5014
  759SOL     OW 2275   0.417   0.558   0.967  0.2726 -0.3375  0.0024
  759SOL    HW1 2276   0.482   0.630   0.998  1.7956  0.2047  0.4978
  759SOL    HW2 2277   0.327   0.577   1.007  0.2420  1.7976 -0.6516
  760SOL     OW 2278   2.355   1.185   1.229  0.0471  0.3747 -0.0718
  760SOL    HW1 2279   2.413   1.134   1.164 -1.6196  0.0700  3.3641
  760SOL    HW2 2280   2.281   1.229   1.180  1.4006 -2.1279  4.3154
  761SOL     OW 2281   1.616   0.637   0.426  0.0406  0.2918  0.6197
  761SOL    HW1 2282   1.555   0.666   0.503  0.0109  1.6585 -0.0807
  761SOL    HW2 2283   1.670   0.558   0.463 -3.1127  0.6750 -0.6351
  762SOL     OW 2284   2.072   2.298   0.868  0.5989 -0.1244 -0.1528
  762SOL    HW1 2285   1.983   2.292   0.811 -0.3580 -1.5337  0.2652
  762SOL    HW2 2286   2.049   2.253   0.956  1.4450  0.1683 -1.0474
  763SOL     OW 2287   1.502   1.431   1.762 -0.3856 -0.0074 -0.0800
  763SOL    HW1 2288   1.505   1.495   1.846  0.8663  2.5890  3.6767
  763SOL    HW2 2289   1.411   1.399   1.739  2.8417 -0.9640 -0.6801
  764SOL     OW 2290   2.737   2.053   2.416 -0.2551  0.3753  0.0794
  764SOL    HW1 2291   2.826   2.101   2.417 -0.2567  2.0655  1.1124
  764SOL    HW2 2292   2.712   2.022   2.510  0.3088  1.5644 -1.9509
  765SOL     OW 2293   0.918   2.500   0.877  0.1061 -0.1291 -0.2117
  765SOL    HW1 2294   0.840   2.460   0.927  1.8133  0.2178  0.9330
  765SOL    HW2 2295   1.003   2.496   0.936  0.5290  0.0443  1.3533
  766SOL     OW 2296   0.443   1.807   2.509 -0.0981  0.1526  0.2486
  766SOL    HW1 2297   0.366   1.745   2.525  0.5874  1.0937  0.8311
  766SOL    HW2 2298   0.517   1.786   2.576  0.0227 -0.1628  1.7195
  767SOL     OW 2299   2.042   0.807   2.577 -0.3938 -0.2241  0.2326
  767SOL    HW1 2300   1.963   0.869   2.553  0.4921  0.9239 -0.0281
  767SOL    HW2 2301   2.015   0.767   2.664  0.8217 -1.0294 -0.7124
  768SOL     OW 2302   1.116   2.697   2.690  0.1554  0.0406  0.0773
  768SOL    HW1 2303   1.128   2.695   2.590  1.7568  0.4157 -1.6937
  768SOL    HW2 2304   1.105   2.790   2.727  1.6428 -0.6921  2.0910
  769SOL     OW 2305   2.881   2.503   0.806 -0.5215  0.3857 -0.0741
  769SOL    HW1 2306   2.796   2.505   0.860  3.1248  2.7591 -0.1410
  769SOL    HW2 2307   2.936   2.583   0.834 -1.4117 -0.4666  1.2731
  770SOL     OW 2308   0.592   2.854   0.133 -0.1945 -0.4441 -0.2186
  770SOL    HW1 2309   0.632   2.771   0.176  1.2879 -3.2629  3.5276
  770SOL    HW2 2310   0.633   2.875   0.042  1.6488 -2.3455 -0.4970
  771SOL     OW 2311   0.986   2.327   2.382 -0.2695 -0.5077 -0.6120
  771SOL    HW1 2312   0.954   2.246   2.435  3.2865 -1.6361  1.7614
  771SOL    HW2 2313   0.979   2.413   2.441  1.7929 -1.8578 -0.6459
  772SOL     OW 2314   2.240   0.083   2.052  0.3348  0.1906 -0.0169
  772SOL    HW1 2315   2.208   0.142   2.132 -0.6479  1.5703  2.3390
  772SOL    HW2 2316   2.164   0.038   2.008  3.1501 -2.6041  1.7647
  773SOL     OW 2317   0.955   3.012   1.964 -0.4378  0.0790  0.2112
  773SOL    HW1 2318   0.991   2.916   1.987  1.2749 -2.1206  0.3844
  773SOL    HW2 2319   0.941   3.057   2.055 -0.8483 -0.9257  1.3357
  774SOL     OW 2320   1.464   0.734   2.084 -0.2281 -0.1197  0.8935
  774SOL    HW1 2321   1.454   0.827   2.042  1.4605 -0.2366 -0.3975
  774SOL    HW2 2322   1.555   0.696   2.058 -1.9472 -1.8930 -0.1332
  775SOL     OW 2323   2.065   2.993   0.315  0.5369 -0.0637  0.2422
  775SOL    HW1 2324   2.163   3.015   0.334  0.3717 -1.5317 -0.1361
  775SOL    HW2 2325   2.052   2.909   0.263 -0.5581  0.5974 -0.5411
  776SOL     OW 2326   2.321   1.193   1.838 -0.3552  0.2558  0.0383
  776SOL    HW1 2327   2.415   1.215   1.828 -1.7707  1.0228  0.3865
  776SOL    HW2 2328   2.263   1.271   1.814 -2.2199 -2.6170 -0.8942
  777SOL     OW 2329   0.058   1.250   2.433  0.4439  0.1971 -0.7747
  777SOL    HW1 2330   0.105   1.158   2.433 -1.0439 -2.0667 -2.0579
  777SOL    HW2 2331   0.078   1.288   2.337  1.2306  1.5430  0.4930
  778SOL     OW 2332   2.238   0.997   2.344  0.3853 -0.5219  0.1381
  778SOL    HW1 2333   2.158   0.971   2.286 -2.3897 -1.0453 -1.2599
  778SOL    HW2 2334   2.204   1.038   2.434  1.0688 -1.3489  0.3955
  779SOL     OW 2335   2.925   0.240   2.811 -0.0776  0.8242 -0.5128
  779SOL    HW1 2336   3.008   0.179   2.820  0.2975  0.2019 -3.2411
  779SOL    HW2 2337   2.893   0.237   2.713 -0.7106  0.7991  1.7039
  780SOL     OW 2338   2.184   3.007   2.357 -0.6287  0.4807  0.4736
  780SOL    HW1 2339   2.202   0.008   2.406 -0.6978 -2.1277 -1.2305
  780SOL    HW2 2340   2.179   3.029   2.259  0.0388  1.2593 -0.4336
  781SOL     OW 2341   0.142   0.821   1.754  0.2809  0.1063 -0.4339
  781SOL    HW1 2342   0.116   0.908   1.706 -1.4216 -1.1111  0.0222
  781SOL    HW2 2343   0.101   0.815   1.846 -0.0389 -0.7009 -4.2801
  782SOL     OW 2344   2.146   2.042   0.034  0.2611  0.4371 -0.0146
  782SOL    HW1 2345   2.238   1.992   0.020 -0.1153 -1.7281 -0.6450
  782SOL    HW2 2346   2.162   2.140   0.053 -1.2509 -0.4905 -0.9856
  783SOL     OW 2347   0.471   2.255   1.240 -0.3443 -0.3153  0.0999
  783SOL    HW1 2348   0.403   2.296   1.176  1.8812  0.8456  0.1016
  783SOL    HW2 2349   0.560   2.301   1.228 -0.4998 -2.6927  0.9105
  784SOL     OW 2350   2.559   0.700   2.369  0.5727  0.0729 -0.1886
  784SOL    HW1 2351   2.483   0.635   2.349  3.5905 -1.0357 -0.4123
  784SOL    HW2 2352   2.524   0.791   2.382  0.0944 -2.4982  1.3446
  785SOL     OW 2353   0.100   0.362   1.257 -0.4746 -0.3283  0.6657
  785SOL    HW1 2354   0.011   0.395   1.224  0.1192 -0.5593 -0.4749
  785SOL    HW2 2355   0.097   0.318   1.347  0.7709 -0.2122  0.8622
  786SOL     OW 2356   1.425   2.650   0.377  0.1347  0.0866 -0.2865
  786SOL    HW1 2357   1.429   2.599   0.288 -0.3304  0.8447 -1.9624
  786SOL    HW2 2358   1.514   2.694   0.396 -1.5581  0.4188 -2.1470
  787SOL     OW 2359   1.275   0.087   0.626 -0.3084  0.2740  0.2246
  787SOL    HW1 2360   1.271   0.175   0.573  2.1833  2.9537 -2.8624
  787SOL    HW2 2361   1.240   0.106   0.718  0.9282  3.4381 -1.7881
  788SOL     OW 2362   3.028   1.634   1.158  0.3515  0.6105  0.4722
  788SOL    HW1 2363   3.030   1.613   1.061 -3.2370  0.9180  0.4437
  788SOL    HW2 2364   3.086   1.578   1.222  1.0590  3.7950 -0.1934
  789SOL     OW 2365   2.742   0.728   2.008 -0.2717 -0.0533 -0.1258
  789SOL    HW1 2366   2.720   0.823   1.989 -0.3689 -2.2760 -0.7381
  789SOL    HW2 2367   2.787   0.729   2.102 -0.6376  0.3693 -0.7307
  790SOL     OW 2368   0.819   0.381   3.058 -0.1260 -0.0152 -0.1374
  790SOL    HW1 2369   0.835   0.367   2.958  0.5059 -2.2818 -0.4103
  790SOL    HW2 2370   0.904   0.383   0.023 -3.0299  0.9945 -0.8042
  791SOL     OW 2371   2.731   2.792   0.008 -0.1981 -0.0425 -0.1399
  791SOL    HW1 2372   2.685   2.807   3.005  0.0783 -0.8282  0.8240
  791SOL    HW2 2373   2.739   2.692   0.026  0.3365 -0.9271  0.1774
  792SOL     OW 2374   1.727   0.765   1.867  0.0901 -0.0207  0.9938
  792SOL    HW1 2375   1.687   0.821   1.788  1.0656  1.0859 -0.8965
  792SOL    HW2 2376   1.824   0.741   1.850 -1.1886 -1.4056  0.8083
  793SOL     OW 2377   2.688   0.612   1.391  0.0538 -0.1730  0.0601
  793SOL    HW1 2378   2.597   0.576   1.377  3.5153  0.1737 -0.9490
  793SOL    HW2 2379   2.738   0.642   1.307  0.2396 -0.9929 -0.4940
  794SOL     OW 2380   2.965   0.404   2.360 -0.4853 -0.1598  0.2714
  794SOL    HW1 2381   2.982   0.499   2.394  2.4902  2.7123  1.2665
  794SOL    HW2 2382   2.976   0.404   2.259 -0.3376  0.2810 -0.2258
  795SOL     OW 2383   0.662   1.800   0.006 -0.0833 -0.4934 -0.4672
  795SOL    HW1 2384   0.728   1.851   3.029 -0.5889  2.8810  1.0167
  795SOL    HW2 2385   0.699   1.789   0.100  3.6206  1.7350 -0.6155
  796SOL     OW 2386   2.287   0.733   2.920  0.2727  0.1997  0.8479
  796SOL    HW1 2387   2.224   0.806   2.886  1.0029 -2.2123  0.3571
  796SOL    HW2 2388   2.316   0.688   2.833 -1.1353  2.2423 -0.4904
  797SOL     OW 2389   2.660   2.000   2.665  0.0209  0.6282 -0.1580
  797SOL    HW1 2390   2.617   1.925   2.720  1.4864 -0.1983 -2.0551
  797SOL    HW2 2391   2.618   2.094   2.674 -0.4038  3.2524 -0.6828
  798SOL     OW 2392   2.769   0.267   1.301  0.0032 -0.1828  0.5286
  798SOL    HW1 2393   2.802   0.270   1.398 -1.9642  0.9929 -0.1743
  798SOL    HW2 2394   2.821   0.332   1.244 -2.3089 -1.7967 -0.5709
  799SOL     OW 2395   0.291   0.366   1.607  0.0563 -0.5431  0.2840
  799SOL    HW1 2396   0.350   0.413   1.535  0.4496 -1.5696 -3.0870
  799SOL    HW2 2397   0.343   0.353   1.691 -0.5312 -2.6129  0.7691
  800SOL     OW 2398   0.382   1.736   0.240  0.0613  0.6611 -0.3390
  800SOL    HW1 2399   0.292   1.716   0.204 -1.9229 -0.7435 -1.4874
  800SOL    HW2 2400   0.437   1.651   0.238 -1.5781 -0.8496 -0.9607
  801SOL     OW 2401   1.784   1.928   0.770  0.1346  0.7959 -0.2343
  801SOL    HW1 2402   1.870   1.976   0.794 -1.8388  2.2733 -3.0844
  801SOL    HW2 2403   1.800   1.833   0.791 -1.7195  2.0581 -0.1843
  802SOL     OW 2404   1.226   1.084   0.033 -0.3621  0.2385 -0.3193
  802SOL    HW1 2405   1.206   1.100   3.020 -0.3007 -0.8237  0.5686
  802SOL    HW2 2406   1.327   1.095   0.053  0.8050 -2.8535  0.0332
  803SOL     OW 2407   1.168   1.620   1.931  0.2238  0.6013 -0.0610
  803SOL    HW1 2408   1.222   1.643   1.847 -0.5376  0.5342 -0.5933
  803SOL    HW2 2409   1.134   1.525   1.915 -1.9625 -0.2901 -0.9114
  804SOL     OW 2410   1.585   2.320   0.998 -0.2286  0.1965  0.1271
  804SOL    HW1 2411   1.647   2.247   1.044  1.0196 -2.2262  2.9739
  804SOL    HW2 2412   1.576   2.293   0.898 -0.2509  0.7861 -1.7710
  805SOL     OW 2413   0.159   2.295   2.378  0.1507  0.0150 -0.2444
  805SOL    HW1 2414   0.133   2.337   2.291  0.5937 -0.7334  0.7565
  805SOL    HW2 2415   0.182   2.196   2.377 -1.5709 -1.0446 -0.9960
  806SOL     OW 2416   0.934   2.931   0.242  0.0131 -0.0789  0.2817
  806SOL    HW1 2417   0.945   3.024   0.198 -0.3384  2.4536 -0.4976
  806SOL    HW2 2418   0.846   2.935   0.296 -3.0045  0.5193  1.4972
  807SOL     OW 2419   2.559   1.075   2.839  0.3435  0.1721 -0.1927
  807SOL    HW1 2420   2.539   1.004   2.917 -0.8480 -3.9480  3.0898
  807SOL    HW2 2421   2.598   1.025   2.754  2.2678  1.7307 -2.5543
  808SOL     OW 2422   1.467   1.988   0.857 -0.0114  0.4314  0.1951
  808SOL    HW1 2423   1.551   2.038   0.828 -0.8615 -2.3172  2.2478
  808SOL    HW2 2424   1.383   2.039   0.833  2.4539  1.3731  1.3765
  809SOL     OW 2425   0.387   0.036   0.536 -0.5650 -0.0327 -0.4465
  809SOL    HW1 2426   0.306   3.072   0.497  0.0218 -0.2894 -2.8160
  809SOL    HW2 2427   0.381   0.135   0.511  1.3110 -0.2738  0.8243
  810SOL     OW 2428   1.207   1.711   0.822  0.2143 -0.5250  0.0196
  810SOL    HW1 2429   1.198   1.644   0.900 -0.8994  1.6706  1.5265
  810SOL    HW2 2430   1.149   1.687   0.741  1.0265 -0.8188  1.2039
  811SOL     OW 2431   1.358   2.878   1.264  0.0738  0.3917  0.8041
  811SOL    HW1 2432   1.383   2.783   1.273  1.5486  2.3688 -0.1073
  811SOL    HW2 2433   1.428   2.934   1.214  0.4220  2.2912 -0.1056
  812SOL     OW 2434   1.229   3.046   0.388 -0.0221 -0.0407 -0.5874
  812SOL    HW1 2435   1.157   2.974   0.395  0.0923 -0.3435 -0.8217
  812SOL    HW2 2436   1.249   3.082   0.478 -0.7433 -0.6972 -0.1896
  813SOL     OW 2437   0.988   0.034   2.203  0.6527 -0.4703  0.4873
  813SOL    HW1 2438   1.046   0.113   2.225 -0.2450  0.4173  0.0590
  813SOL    HW2 2439   1.016   3.040   2.258  0.8159 -4.1450 -0.0328
  814SOL     OW 2440   0.853   2.985   1.021 -0.0592 -0.3876 -0.2939
  814SOL    HW1 2441   0.850   2.887   1.046  3.2152  1.0283 -0.6368
  814SOL    HW2 2442   0.914   2.992   0.940 -0.9222 -1.3134 -1.5024
  815SOL     OW 2443   0.108   2.527   0.517 -0.1782  0.2211  0.1601
  815SOL    HW1 2444   0.117   2.513   0.417 -0.9710  1.0518  0.1611
  815SOL    HW2 2445   0.108   2.622   0.543 -1.1166 -1.3428 -0.8010
  816SOL     OW 2446   2.351   1.334   2.640 -0.0317  0.6602  0.0298
  816SOL    HW1 2447   2.356   1.391   2.725  1.7171  0.1382  1.1199
  816SOL    HW2 2448   2.446   1.310   2.606 -1.5892  0.0507  3.0892
  817SOL     OW 2449   1.955   2.567   2.713 -0.3853  0.1913  0.8646
  817SOL    HW1 2450   2.036   2.545   2.656  1.3093  0.9264 -1.2172
  817SOL    HW2 2451   1.922   2.662   2.690 -2.2772 -0.3421 -1.1825
  818SOL     OW 2452   1.239   1.396   0.544  0.4385 -0.3582 -0.2819
  818SOL    HW1 2453   1.265   1.302   0.566  0.7271  0.7007  2.3628
  818SOL    HW2 2454   1.327   1.453   0.531 -0.5154  2.5248  1.2629
  819SOL     OW 2455   1.560   1.984   2.935 -0.1480  0.0595  0.2611
  819SOL    HW1 2456   1.504   2.004   3.019  1.3197  1.2438  0.1618
  819SOL    HW2 2457   1.505   1.958   2.853  0.1118 -0.2861 -0.8062
  820SOL     OW 2458   0.687   0.845   0.070  1.0648  0.4793  0.2607
  820SOL    HW1 2459   0.649   0.790   3.079  0.0265  1.8328  1.1541
  820SOL    HW2 2460   0.643   0.821   0.155 -0.9152 -0.5612  0.0804
  821SOL     OW 2461   0.469   0.145   1.219 -0.0773  0.0108 -0.4770
  821SOL    HW1 2462   0.465   0.246   1.225  0.3204  0.0742  0.5459
  821SOL    HW2 2463   0.545   0.112   1.159 -3.3800  0.0510  0.6294
  822SOL     OW 2464   1.970   2.138   2.263  0.5093 -0.1423  0.5693
  822SOL    HW1 2465   2.068   2.162   2.261  0.3489  0.2333 -0.5577
  822SOL    HW2 2466   1.961   2.088   2.351  0.9426 -0.5056 -0.2445
  823SOL     OW 2467   1.013   0.461   2.076 -0.4110 -0.2697 -0.7058
  823SOL    HW1 2468   1.099   0.519   2.084  0.5010  1.3442 -0.8756
  823SOL    HW2 2469   0.982   0.440   2.171 -0.1623 -2.4760  0.4079
  824SOL     OW 2470   2.200   0.107   1.559  0.3671  0.6088 -0.1180
  824SOL    HW1 2471   2.146   0.187   1.528  0.1166  2.4714 -2.7266
  824SOL    HW2 2472   2.148   0.018   1.562  1.9929 -0.9097  1.7514
  825SOL     OW 2473   0.617   1.223   3.038 -0.8341 -0.2429  0.0635
  825SOL    HW1 2474   0.675   1.204   0.037  2.6899  0.5198  1.4178
  825SOL    HW2 2475   0.528   1.172   3.035 -0.0683 -0.1689 -0.4688
  826SOL     OW 2476   1.929   0.507   2.566 -0.6189  0.6017 -0.3874
  826SOL    HW1 2477   2.031   0.522   2.546  0.0886  0.7305 -0.5593
  826SOL    HW2 2478   1.904   0.418   2.522 -2.0013  2.5081  0.5247
  827SOL     OW 2479   0.828   2.142   2.520 -0.2114  0.1510 -0.0921
  827SOL    HW1 2480   0.766   2.161   2.443 -1.9964 -0.9711  1.5610
  827SOL    HW2 2481   0.807   2.199   2.603  1.0356  0.3672  0.8753
  828SOL     OW 2482   2.530   0.313   1.453  0.3020 -0.3566 -0.0827
  828SOL    HW1 2483   2.618   0.294   1.412 -2.2327  2.7155 -0.4437
  828SOL    HW2 2484   2.460   0.254   1.409  0.0127  1.2920  1.9183
  829SOL     OW 2485   1.291   1.616   1.428  0.1468  0.3735 -0.3311
  829SOL    HW1 2486   1.345   1.549   1.365 -0.4060 -3.4853 -1.6825
  829SOL    HW2 2487   1.195   1.581   1.454  0.6932  1.6148 -1.1091
  830SOL     OW 2488   0.857   0.969   1.751  0.3503  0.0390  0.6102
  830SOL    HW1 2489   0.900   0.890   1.699  3.0419 -2.1973  0.6021
  830SOL    HW2 2490   0.810   0.934   1.835 -0.0546 -0.5290 -1.5596
  831SOL     OW 2491   2.928   1.851   0.255  0.0975  0.0868  0.5102
  831SOL    HW1 2492   2.886   1.886   0.172 -0.5957  0.4494 -2.2502
  831SOL    HW2 2493   3.021   1.883   0.256 -2.3134 -0.5807 -2.3075
  832SOL     OW 2494   1.076   2.679   0.249 -0.1719  0.5203  0.4597
  832SOL    HW1 2495   1.017   2.756   0.280 -0.6615 -1.3648 -0.1541
  832SOL    HW2 2496   1.124   2.705   0.160 -2.0488  1.6574  0.1339
  833SOL     OW 2497   2.850   0.306   1.546  0.2790  0.3414 -0.3872
  833SOL    HW1 2498   2.840   0.238   1.623 -0.1765 -1.6128  1.4695
  833SOL    HW2 2499   2.844   0.401   1.578  1.7926  0.4988  1.1260
  834SOL     OW 2500   2.979   1.099   0.881 -0.6887 -0.2254 -0.1435
  834SOL    HW1 2501   3.003   1.158   0.801  2.6667 -0.1927  0.0499
  834SOL    HW2 2502   3.027   1.007   0.884 -1.1610 -3.0069  1.2641
  835SOL     OW 2503   2.470   2.865   1.015 -0.0234  0.3703  0.4498
  835SOL    HW1 2504   2.405   2.924   0.962  0.3862  1.1614  0.9668
  835SOL    HW2 2505   2.563   2.869   0.980 -0.5113  2.3048  1.3339
  836SOL     OW 2506   1.058   1.824   2.558  0.1787  0.4100  0.0607
  836SOL    HW1 2507   0.986   1.854   2.622  1.0563  3.5311 -1.0191
  836SOL    HW2 2508   1.037   1.727   2.521 -0.2397 -3.6164  0.3481
  837SOL     OW 2509   1.728   1.773   2.929  0.2197 -0.2571  0.0614
  837SOL    HW1 2510   1.662   1.853   2.927 -1.4327 -0.9683  0.5050
  837SOL    HW2 2511   1.822   1.811   2.915 -0.8086 -0.2471 -0.6299
  838SOL     OW 2512   0.165   0.573   2.261 -0.1645 -0.3741 -0.7727
  838SOL    HW1 2513   0.252   0.522   2.284 -0.3986 -1.7140 -1.1971
  838SOL    HW2 2514   0.108   0.512   2.201  2.2826 -0.1500  1.5630
  839SOL     OW 2515   0.733   0.794   2.693  0.4278 -0.4528  0.6685
  839SOL    HW1 2516   0.742   0.890   2.656 -0.0367  0.5490  0.4857
  839SOL    HW2 2517   0.824   0.752   2.699 -1.3245 -1.8409  1.8343
  840SOL     OW 2518   1.463   0.707   0.201 -0.2604  0.4674  0.1043
  840SOL    HW1 2519   1.507   0.678   0.290  1.3263  0.7467 -0.2300
  840SOL    HW2 2520   1.379   0.764   0.216 -0.4380 -0.2064 -0.0422
  841SOL     OW 2521   0.601   2.744   0.576  0.3626 -0.3332 -0.8512
  841SOL    HW1 2522   0.530   2.713   0.641  1.7957  0.3859 -1.2867
  841SOL    HW2 2523   0.622   2.845   0.599 -1.3012  4.2881 -0.8575
  842SOL     OW 2524   0.240   0.736   0.416 -0.0222  0.1883 -0.2579
  842SOL    HW1 2525   0.147   0.694   0.413  0.6507 -0.2669  0.2864
  842SOL    HW2 2526   0.232   0.830   0.452  0.0616  0.5693 -0.9657
  843SOL     OW 2527   0.481   0.778   1.450  0.0733 -0.3868  0.4313
  843SOL    HW1 2528   0.553   0.781   1.520 -1.3375  0.5248 -1.0159
  843SOL    HW2 2529   0.439   0.870   1.442 -0.5117  1.2365  0.1518
  844SOL     OW 2530   2.171   2.522   2.552 -0.1107  0.2484 -0.0586
  844SOL    HW1 2531   2.247   2.492   2.615  0.7363 -2.7014  1.6806
  844SOL    HW2 2532   2.174   2.477   2.464 -1.0096  1.3025  6.4397
  845SOL     OW 2533   2.011   2.989   1.563  0.1268  0.0939 -0.3382
  845SOL    HW1 2534   1.934   2.952   1.614  1.0338  1.0635  1.4004
  845SOL    HW2 2535   2.063   2.908   1.519  0.8386 -1.0811 -1.7247
  846SOL     OW 2536   2.518   1.609   2.447 -0.2380  0.4637 -0.0497
  846SOL    HW1 2537   2.491   1.552   2.367  3.4204 -0.6988 -3.5385
  846SOL    HW2 2538   2.561   1.551   2.519  0.8636 -1.1796 -0.0393
  847SOL     OW 2539   2.098   2.990   1.873  0.2057 -0.3936 -0.2704
  847SOL    HW1 2540   2.087   2.937   1.960  1.6244  0.1232 -2.7264
  847SOL    HW2 2541   2.130   2.924   1.801  1.0072  1.7321 -0.0116
  848SOL     OW 2542   3.077   2.892   0.210 -0.3563  0.2539 -0.4366
  848SOL    HW1 2543   3.045   2.939   0.127 -0.5332  0.3042  0.7965
  848SOL    HW2 2544   3.014   2.917   0.289 -2.3066 -0.3237  1.6624
  849SOL     OW 2545   0.288   3.025   1.120  0.1650  0.3579  0.2423
  849SOL    HW1 2546   0.358   3.058   1.188  0.5964  0.2847 -1.7377
  849SOL    HW2 2547   0.333   2.985   1.041  1.1968  0.4196  2.7830
  850SOL     OW 2548   0.267   1.783   0.886 -0.0510  0.2146  0.0112
  850SOL    HW1 2549   0.236   1.868   0.920 -0.6081 -0.1903 -0.3143
  850SOL    HW2 2550   0.368   1.788   0.878  1.4326  0.9918  0.6329
  851SOL     OW 2551   2.501   0.871   3.015  0.0074 -0.0876  0.2482
  851SOL    HW1 2552   2.420   0.834   2.970  3.3268 -1.7837  1.6241
  851SOL    HW2 2553   2.573   0.802   3.028 -0.7076 -1.3832  1.0865
  852SOL     OW 2554   1.971   2.034   2.511  0.1963  0.1734  0.1374
  852SOL    HW1 2555   1.946   1.936   2.503 -1.1743  1.8244  0.3196
  852SOL    HW2 2556   1.939   2.067   2.602  1.9602 -0.7549 -1.0565
  853SOL     OW 2557   0.566   1.871   0.359 -0.1107 -0.1354 -0.1342
  853SOL    HW1 2558   0.486   1.833   0.312 -0.8802 -0.2519  1.7109
  853SOL    HW2 2559   0.645   1.869   0.301 -0.7603 -0.0340  2.5217
  854SOL     OW 2560   1.671   1.064   2.084 -0.3776 -0.7994  0.1906
  854SOL    HW1 2561   1.594   1.029   2.033  3.8908 -2.4711  1.3306
  854SOL    HW2 2562   1.675   1.168   2.076  0.3967  0.7088  2.1225
  855SOL     OW 2563   0.696   2.256   0.002  0.1952  0.5277  0.1511
  855SOL    HW1 2564   0.635   2.239   0.083 -2.1896  2.3066  1.4077
  855SOL    HW2 2565   0.640   2.264   3.002  0.7427  0.9556 -0.2009
  856SOL     OW 2566   0.469   3.044   2.034  0.8560 -0.0874 -0.1662
  856SOL    HW1 2567   0.475   2.970   1.966 -1.7320  1.4792 -0.7615
  856SOL    HW2 2568   0.553   3.058   2.090 -2.1519  0.1669 -1.3536
  857SOL     OW 2569   0.626   0.125   1.791  0.2147  0.2684  0.1091
  857SOL    HW1 2570   0.663   0.143   1.883 -4.1006  2.2363 -1.3135
  857SOL    HW2 2571   0.559   0.203   1.771 -0.2788  2.2147  1.1760
  858SOL     OW 2572   0.244   2.014   2.131  0.4420 -0.1970  0.3696
  858SOL    HW1 2573   0.279   2.014   2.229 -0.8043 -0.8895  0.8090
  858SOL    HW2 2574   0.328   1.996   2.071 -0.9138 -0.2303  0.3883
  859SOL     OW 2575   2.041   2.227   1.137  0.1729  0.0506 -0.0720
  859SOL    HW1 2576   2.006   2.297   1.198  2.5496 -1.0568 -2.8001
  859SOL    HW2 2577   2.051   2.143   1.194  2.0056  0.4096  1.9783
  860SOL     OW 2578   1.850   0.443   0.750 -0.2084 -0.0203 -0.1399
  860SOL    HW1 2579   1.924   0.374   0.764 -1.8991 -3.5586  0.5859
  860SOL    HW2 2580   1.861   0.523   0.810  1.1845 -1.2902 -0.9080
  861SOL     OW 2581   0.186   0.579   1.099 -0.0019 -0.4364 -0.1755
  861SOL    HW1 2582   0.180   0.646   1.175 -2.0968 -1.0833 -1.7930
  861SOL    HW2 2583   0.182   0.486   1.137  0.8822 -0.0359 -0.3084
  862SOL     OW 2584   2.216   0.786   1.766 -0.1144  0.2371  0.3145
  862SOL    HW1 2585   2.249   0.843   1.844 -1.5932  1.3980  0.4542
  862SOL    HW2 2586   2.181   0.841   1.688  1.2305 -2.7658 -0.8573
  863SOL     OW 2587   0.324   1.232   1.443  0.0015  0.1725 -0.1390
  863SOL    HW1 2588   0.343   1.222   1.540  0.2061  1.4825 -1.8397
  863SOL    HW2 2589   0.326   1.330   1.411  1.2502  1.6001 -1.5786
  864SOL     OW 2590   2.433   3.005   1.707  0.3933 -0.3835 -0.2592
  864SOL    HW1 2591   2.455   3.013   1.610 -1.3647 -0.8436 -1.4785
  864SOL    HW2 2592   2.437   0.004   1.757 -0.6812 -3.0249 -1.9588
  865SOL     OW 2593   1.368   0.326   2.153  0.1237  0.2239  0.1144
  865SOL    HW1 2594   1.386   0.268   2.071  0.1520  2.0118 -1.3938
  865SOL    HW2 2595   1.455   0.379   2.172  0.0625  0.4308 -0.9301
  866SOL     OW 2596   2.172   2.701   0.461 -0.1889 -0.1881 -0.1300
  866SOL    HW1 2597   2.234   2.660   0.535  0.8240  0.0274  0.0390
  866SOL    HW2 2598   2.229   2.778   0.425 -2.5930 -3.4944  1.6095
  867SOL     OW 2599   2.564   2.664   0.732 -0.2966  0.5535  0.0319
  867SOL    HW1 2600   2.611   2.747   0.700 -1.8528 -1.0637  0.6587
  867SOL    HW2 2601   2.594   2.643   0.829 -0.4223  1.5670  1.3595
  868SOL     OW 2602   1.665   1.478   2.913  0.2747 -0.0743 -0.6762
  868SOL    HW1 2603   1.655   1.445   2.814 -1.5835 -0.5275 -0.9059
  868SOL    HW2 2604   1.652   1.577   2.926  0.6408 -0.6342  1.1226
  869SOL     OW 2605   2.565   2.000   0.566 -0.3947  0.1628 -0.1244
  869SOL    HW1 2606   2.599   2.068   0.638 -0.7750  0.1763  0.4828
  869SOL    HW2 2607   2.563   2.043   0.476  1.3719 -2.3225  2.2650
  870SOL     OW 2608   2.694   2.012   0.293 -0.0835  0.0502 -0.2454
  870SOL    HW1 2609   2.773   1.953   0.309  1.4388 -3.5951 -1.6852
  870SOL    HW2 2610   2.609   1.956   0.312  1.3076 -0.1850  0.3016
  871SOL     OW 2611   0.368   0.997   1.320 -0.1453  0.0388 -0.3621
  871SOL    HW1 2612   0.355   1.091   1.356  0.9584  1.7396  0.1624
  871SOL    HW2 2613   0.298   0.987   1.246 -1.1639 -4.2431 -0.5452
  872SOL     OW 2614   0.767   1.579   2.470 -0.5377  0.1347  0.1584
  872SOL    HW1 2615   0.769   1.618   2.376  0.8358 -2.8491 -0.0227
  872SOL    HW2 2616   0.720   1.638   2.543 -0.0953  0.3491 -2.6736
  873SOL     OW 2617   0.298   2.954   1.692 -0.2852  0.2900 -0.4782
  873SOL    HW1 2618   0.296   2.856   1.704 -0.2480  1.1656 -1.9648
  873SOL    HW2 2619   0.393   2.984   1.659  0.9535  2.5644  0.7086
  874SOL     OW 2620   1.262   0.572   2.089 -0.1672 -0.3175  0.1964
  874SOL    HW1 2621   1.344   0.636   2.092  1.2221 -0.3230 -0.8582
  874SOL    HW2 2622   1.299   0.485   2.115 -0.7296 -1.2392  0.8410
  875SOL     OW 2623   2.600   0.092   1.157 -0.7232  0.4228  1.3369
  875SOL    HW1 2624   2.674   0.135   1.214  2.0326 -1.3831  0.8214
  875SOL    HW2 2625   2.520   0.064   1.215  2.0570 -0.7319  0.4800
  876SOL     OW 2626   0.821   1.155   0.558  0.2270 -0.1310 -0.5917
  876SOL    HW1 2627   0.759   1.092   0.504 -1.6015 -1.7776 -3.5315
  876SOL    HW2 2628   0.903   1.180   0.507  1.1212  0.6803 -0.1431
  877SOL     OW 2629   1.279   0.899   1.631  0.2678 -0.5790  0.4050
  877SOL    HW1 2630   1.297   0.820   1.693  2.0000  0.2677  2.9324
  877SOL    HW2 2631   1.188   0.884   1.591  1.5047 -2.3155  1.3002
  878SOL     OW 2632   2.364   2.219   0.338 -0.0335  0.1059  0.7921
  878SOL    HW1 2633   2.382   2.168   0.248 -0.8233 -2.0369  0.3472
  878SOL    HW2 2634   2.440   2.282   0.358 -1.6879 -4.0823  0.7260
  879SOL     OW 2635   2.688   1.829   1.778 -0.1591 -0.0085 -0.5840
  879SOL    HW1 2636   2.740   1.768   1.715  0.4576  0.0503  1.4544
  879SOL    HW2 2637   2.729   1.920   1.775  0.5995 -1.9131 -2.7916
  880SOL     OW 2638   1.188   2.519   0.974  0.2167  0.0267  0.0346
  880SOL    HW1 2639   1.288   2.539   0.965 -1.7630  3.1614  0.1805
  880SOL    HW2 2640   1.176   2.476   1.063  1.0989  0.4721 -0.9105
  881SOL     OW 2641   0.642   2.104   0.529 -0.3023 -0.0869  0.3038
  881SOL    HW1 2642   0.611   2.034   0.459 -2.7252  1.1959  0.2742
  881SOL    HW2 2643   0.692   2.179   0.485 -1.2660 -0.6426  0.7483
  882SOL     OW 2644   2.036   1.035   0.431 -0.4712  0.1734 -0.5275
  882SOL    HW1 2645   2.062   1.056   0.331  0.1746 -1.2256  0.9611
  882SOL    HW2 2646   2.101   0.979   0.487 -0.8043 -3.0671  0.8151
  883SOL     OW 2647   1.475   0.832   1.027  0.0310 -0.3105 -0.1786
  883SOL    HW1 2648   1.450   0.937   1.026 -2.7178  1.2259 -1.9811
  883SOL    HW2 2649   1.559   0.819   0.969  1.2407 -0.3573 -0.5945
  884SOL     OW 2650   2.637   2.791   0.437 -0.0167 -0.1781  0.5438
  884SOL    HW1 2651   2.646   2.839   0.345 -1.5124  0.4073 -1.9170
  884SOL    HW2 2652   2.646   2.855   0.517 -0.5935  3.2133  1.9814
  885SOL     OW 2653   1.143   1.415   2.289 -0.0587  0.3541 -0.5396
  885SOL    HW1 2654   1.094   1.363   2.216 -0.5557  1.1208 -1.6485
  885SOL    HW2 2655   1.244   1.396   2.282 -0.5664 -1.3294  1.3331
  886SOL     OW 2656   1.143   2.003   2.338  0.3709  0.0466  0.1924
  886SOL    HW1 2657   1.143   1.958   2.428 -0.7866  0.8721  0.2387
  886SOL    HW2 2658   1.167   2.099   2.346 -2.3036 -0.8903 -0.1323
  887SOL     OW 2659   1.218   0.758   1.085 -0.0442  0.1417  0.1792
  887SOL    HW1 2660   1.318   0.783   1.075 -0.5314 -0.5109  0.9642
  887SOL    HW2 2661   1.157   0.812   1.020 -0.4675  0.8186  0.4616
  888SOL     OW 2662   2.515   0.869   2.057 -0.1754 -0.5099  0.0065
  888SOL    HW1 2663   2.560   0.779   2.068  1.5145  0.3158  1.8056
  888SOL    HW2 2664   2.563   0.939   2.109 -0.4161  1.8195  0.4676
  889SOL     OW 2665   0.039   2.058   0.804  0.1979 -0.3325 -0.1456
  889SOL    HW1 2666   0.002   2.009   0.729 -1.7079 -0.2208  2.3570
  889SOL    HW2 2667   3.061   2.128   0.837 -0.7243 -1.1420 -0.0756
  890SOL     OW 2668   1.291   2.085   0.429 -0.4177 -0.0973 -0.3886
  890SOL    HW1 2669   1.355   2.007   0.426  1.8072 -0.8123  0.8728
  890SOL    HW2 2670   1.214   2.060   0.488  1.2406  1.0685 -1.8508
  891SOL     OW 2671   2.755   0.743   3.029  0.2179 -0.0350 -0.0341
  891SOL    HW1 2672   2.799   0.823   3.071 -0.4263 -0.4444 -0.9819
  891SOL    HW2 2673   2.797   0.714   2.941  0.1081  2.5766 -1.6104
  892SOL     OW 2674   2.945   2.253   0.879 -0.2092  0.2163  0.0785
  892SOL    HW1 2675   2.932   2.345   0.837  0.3070  0.5531 -1.0376
  892SOL    HW2 2676   2.881   2.252   0.956  1.2346  0.2591  1.2919
  893SOL     OW 2677   1.260   0.406   0.975 -0.1731  0.0749 -0.5589
  893SOL    HW1 2678   1.253   0.313   0.939 -0.3946  0.7801  1.6250
  893SOL    HW2 2679   1.356   0.446   0.972  0.2866  0.7287 -0.5281
  894SOL     OW 2680   2.936   0.436   0.891  0.4164 -0.2746  0.4863
  894SOL    HW1 2681   3.031   0.436   0.861 -3.4952 -1.2356 -1.4486
  894SOL    HW2 2682   2.871   0.395   0.828  0.4979 -1.0332  0.1730
  895SOL     OW 2683   2.119   1.560   2.721  0.2793  0.0380  0.1237
  895SOL    HW1 2684   2.124   1.522   2.623  2.5009 -1.5169 -3.2561
  895SOL    HW2 2685   2.095   1.500   2.799  1.0767  1.7132  1.1266
  896SOL     OW 2686   1.963   0.575   1.372 -0.1386 -0.3099 -0.4484
  896SOL    HW1 2687   1.989   0.672   1.375 -0.6968 -0.5416 -1.4137
  896SOL    HW2 2688   1.933   0.553   1.275 -0.7930 -1.0603 -0.4913
  897SOL     OW 2689   0.057   1.410   1.489 -0.1651 -0.3465 -0.1041
  897SOL    HW1 2690   0.077   1.317   1.531 -0.5726 -0.3792  0.8269
  897SOL    HW2 2691   0.090   1.421   1.393 -0.1991 -2.2468  0.7939
  898SOL     OW 2692   2.091   2.568   2.126 -0.0722  0.5235  0.1901
  898SOL    HW1 2693   2.123   2.579   2.027 -1.9694  0.0309  0.2216
  898SOL    HW2 2694   2.164   2.530   2.182 -2.7786  0.9197 -3.9060
  899SOL     OW 2695   1.069   1.667   1.131  0.3501  0.4656  0.8063
  899SOL    HW1 2696   1.054   1.700   1.229 -4.8051  2.8028  0.6513
  899SOL    HW2 2697   0.979   1.672   1.082  1.5865 -2.2856 -2.1976
  900SOL     OW 2698   1.528   2.201   2.415 -0.2989  0.5361  0.0224
  900SOL    HW1 2699   1.519   2.141   2.335 -1.4437 -1.0877  0.1053
  900SOL    HW2 2700   1.524   2.295   2.380  0.1327 -0.8381 -2.1355
  901SOL     OW 2701   0.809   1.693   2.210  1.2522 -0.3692  0.3715
  901SOL    HW1 2702   0.756   1.664   2.123 -1.8640 -0.7727 -2.1785
  901SOL    HW2 2703   0.869   1.772   2.187  2.6258 -2.8051 -1.3316
  902SOL     OW 2704   2.203   1.468   0.181  0.4225  0.3801 -0.4155
  902SOL    HW1 2705   2.251   1.380   0.192 -3.1150 -1.1625 -0.3260
  902SOL    HW2 2706   2.131   1.475   0.248 -0.9795 -2.0633 -1.7424
  903SOL     OW 2707   2.030   1.610   3.080 -0.0714  0.1354  0.2390
  903SOL    HW1 2708   2.081   1.535   0.031 -1.3453 -0.2427 -0.0353
  903SOL    HW2 2709   1.967   1.645   0.065 -0.8781 -1.2261  2.3152
  904SOL     OW 2710   1.470   1.094   2.444  0.3346 -0.2920 -0.0709
  904SOL    HW1 2711   1.479   0.992   2.433  1.2504  0.2215 -0.1919
  904SOL    HW2 2712   1.385   1.106   2.498  1.2333 -0.0329 -0.1604
  905SOL     OW 2713   2.648   0.291   0.962 -0.7869  0.4035 -0.0785
  905SOL    HW1 2714   2.613   0.226   1.034 -0.6693  1.4756 -0.5673
  905SOL    HW2 2715   2.628   0.387   0.986  0.2619  0.6737 -1.9872
  906SOL     OW 2716   0.113   1.940   0.275  0.3697  0.3063  0.6372
  906SOL    HW1 2717   0.149   2.028   0.305 -1.0528  1.4091 -1.1118
  906SOL    HW2 2718   0.183   1.882   0.231  0.4159  0.1782  0.0160
  907SOL     OW 2719   1.419   0.277   0.213 -0.2212 -0.3285  0.1848
  907SOL    HW1 2720   1.365   0.188   0.193 -0.2215 -2.0675 -0.9546
  907SOL    HW2 2721   1.495   0.254   0.277  0.8828  1.4578 -0.8838
  908SOL     OW 2722   1.583   2.601   1.730  0.4084  0.2452  0.5616
  908SOL    HW1 2723   1.669   2.624   1.782  1.1273 -1.0179 -1.9830
  908SOL    HW2 2724   1.514   2.660   1.774  0.5009  1.4196  2.3862
  909SOL     OW 2725   2.556   0.974   1.790 -0.0452  0.2524  0.1144
  909SOL    HW1 2726   2.484   0.981   1.862  0.0614 -0.3399  1.4922
  909SOL    HW2 2727   2.652   0.983   1.825 -0.1544 -0.9869  0.0661
  910SOL     OW 2728   1.143   0.073   2.542 -0.0895  0.3289  0.7265
  910SOL    HW1 2729   1.169   0.053   2.636 -1.0869 -0.3531 -1.0013
  910SOL    HW2 2730   1.087   3.084   2.504  1.1346 -1.2576  0.1868
  911SOL     OW 2731   2.604   1.262   2.571  0.5750 -0.0420 -0.1687
  911SOL    HW1 2732   2.590   1.161   2.573  0.3556 -0.4098 -0.4658
  911SOL    HW2 2733   2.630   1.292   2.480 -2.1146 -0.4123  3.0312
  912SOL     OW 2734   2.566   2.203   1.434 -0.4334 -0.3880 -0.2772
  912SOL    HW1 2735   2.665   2.227   1.409  0.5290  1.5163  0.7487
  912SOL    HW2 2736   2.560   2.114   1.487 -1.9062 -0.5285 -0.8688
  913SOL     OW 2737   2.828   2.281   1.446 -0.0466  0.4858 -0.0094
  913SOL    HW1 2738   2.828   2.295   1.547 -1.1628 -3.0951 -1.4679
  913SOL    HW2 2739   2.860   2.365   1.401 -1.8227 -2.6273 -0.6712
  914SOL     OW 2740   2.548   2.092   1.176  0.1010 -0.4347  0.4408
  914SOL    HW1 2741   2.586   2.091   1.269 -0.7901  1.8928  2.4061
  914SOL    HW2 2742   2.450   2.066   1.184  0.6093 -1.3301  2.0548
  915SOL     OW 2743   1.241   2.414   1.522  0.5602 -0.0347  0.2106
  915SOL    HW1 2744   1.176   2.336   1.535  0.3585  1.9526 -0.2531
  915SOL    HW2 2745   1.334   2.381   1.510 -0.7456  0.8997  2.0582
  916SOL     OW 2746   2.647   2.561   0.974 -0.2545  0.4045 -0.1280
  916SOL    HW1 2747   2.661   2.606   1.065 -1.3579  0.6287 -2.5144
  916SOL    HW2 2748   2.607   2.470   0.990  1.3708 -1.5956 -0.0249
  917SOL     OW 2749   2.938   0.973   2.893 -0.6827  0.2944 -0.4411
  917SOL    HW1 2750   2.906   0.888   2.846  3.7002 -0.9120  0.3714
  917SOL    HW2 2751   2.966   1.041   2.822 -0.4862  0.6626  0.6409
  918SOL     OW 2752   1.949   1.714   2.539 -0.4997  0.3402 -0.6245
  918SOL    HW1 2753   1.931   1.668   2.629  0.4248  0.6947 -1.0403
  918SOL    HW2 2754   1.977   1.655   2.461  0.5144  1.4166  0.6010
  919SOL     OW 2755   1.591   2.110   1.312 -0.0867 -0.4941  0.0875
  919SOL    HW1 2756   1.564   2.015   1.343 -0.9873  0.3871  2.2479
  919SOL    HW2 2757   1.670   2.106   1.245  1.5138 -2.7353 -0.3835
  920SOL     OW 2758   0.516   0.163   2.953  0.0765 -0.3191 -0.8839
  920SOL    HW1 2759   0.529   0.104   3.033 -4.2658  2.4266  0.3443
  920SOL    HW2 2760   0.478   0.251   2.983  1.0465 -1.1182 -1.8442
  921SOL     OW 2761   2.746   2.943   2.658  0.7913  0.2008 -0.3273
  921SOL    HW1 2762   2.729   2.898   2.567 -1.6001  0.9087  0.8251
  921SOL    HW2 2763   2.812   3.017   2.633  3.2528  0.3994 -3.2574
  922SOL     OW 2764   2.482   1.929   1.563  0.5172  0.3463 -0.5211
  922SOL    HW1 2765   2.524   1.907   1.648  1.7486  3.3733 -2.5888
  922SOL    HW2 2766   2.384   1.960   1.566 -1.4529  1.6539  1.6461
  923SOL     OW 2767   0.831   1.985   2.971 -0.3625 -0.8285 -0.3057
  923SOL    HW1 2768   0.800   2.060   3.033 -1.0101  1.1133  2.2343
  923SOL    HW2 2769   0.931   1.969   2.976 -1.2221  0.3312 -1.7446
  924SOL     OW 2770   1.676   0.593   2.641 -0.0189  0.5964  0.6781
  924SOL    HW1 2771   1.662   0.568   2.737  1.3674  0.7089 -3.4269
  924SOL    HW2 2772   1.765   0.554   2.616 -0.0110 -0.4707 -0.0863
  925SOL     OW 2773   2.919   0.904   0.322  0.2851 -0.2231  0.6742
  925SOL    HW1 2774   2.889   0.938   0.232 -2.5199 -2.4850  0.7223
  925SOL    HW2 2775   2.848   0.902   0.396  0.1731  0.5223  0.1974
  926SOL     OW 2776   0.129   0.411   0.901  0.1953 -0.1127 -0.1629
  926SOL    HW1 2777   0.110   0.318   0.942 -0.3802  3.4035  0.7378
  926SOL    HW2 2778   0.150   0.480   0.972  1.1923 -0.0652 -1.8903
  927SOL     OW 2779   1.055   1.602   0.625 -0.1774  0.5374 -0.5809
  927SOL    HW1 2780   1.130   1.537   0.587  3.5316 -4.5686  0.8410
  927SOL    HW2 2781   0.992   1.559   0.692 -4.1228  2.3690 -1.8171
  928SOL     OW 2782   0.026   0.011   2.351 -0.0323  0.1931  0.2690
  928SOL    HW1 2783   0.091   3.020   2.361  0.7055  2.2516  1.0651
  928SOL    HW2 2784   0.081   0.098   2.366  1.0664  0.3282  0.4650
  929SOL     OW 2785   2.421   0.708   1.615  0.1965 -0.0258  0.0931
  929SOL    HW1 2786   2.342   0.737   1.678 -3.5301  1.8436  1.7716
  929SOL    HW2 2787   2.501   0.682   1.670  1.7421 -1.9074  1.5308
  930SOL     OW 2788   1.770   2.128   1.046  0.3584  0.0607 -0.2679
  930SOL    HW1 2789   1.856   2.148   1.099  0.8075 -0.8487  1.7223
  930SOL    HW2 2790   1.783   2.053   0.977 -0.6684 -1.9781 -3.4967
  931SOL     OW 2791   1.642   0.814   0.808 -0.2572 -0.5528  0.1497
  931SOL    HW1 2792   1.643   0.838   0.711  0.5558  1.5484  0.7095
  931SOL    HW2 2793   1.690   0.891   0.861 -0.2587  1.4912  1.9963
  932SOL     OW 2794   3.046   0.944   1.311  0.6741  0.0962  0.4745
  932SOL    HW1 2795   3.014   0.968   1.406 -1.3397  1.2101  1.4265
  932SOL    HW2 2796   0.045   0.889   1.315  0.9561  0.2141 -0.4413
  933SOL     OW 2797   2.437   1.739   1.826 -0.0291  0.2467  0.0808
  933SOL    HW1 2798   2.529   1.776   1.815 -1.2496 -1.3259 -0.8481
  933SOL    HW2 2799   2.355   1.803   1.810 -0.0446  0.2913  0.3209
  934SOL     OW 2800   1.537   3.027   1.147 -0.4125  0.3948  0.0276
  934SOL    HW1 2801   1.550   0.043   1.129 -1.5411  1.0183 -2.8832
  934SOL    HW2 2802   1.588   2.971   1.079 -3.0946 -1.0643 -0.1257
  935SOL     OW 2803   3.048   1.218   1.178  0.2799  0.2638  0.5735
  935SOL    HW1 2804   3.057   1.124   1.221  1.0109  0.3240 -2.8250
  935SOL    HW2 2805   2.962   1.231   1.127 -1.7483  3.5183 -0.2452
  936SOL     OW 2806   2.819   0.734   1.188 -0.2575 -0.3622 -0.1483
  936SOL    HW1 2807   2.873   0.798   1.244  0.5001  0.3792 -0.4004
  936SOL    HW2 2808   2.849   0.764   1.096  0.4367 -0.8632  0.6580
  937SOL     OW 2809   1.167   2.845   0.879 -0.6966  0.2900 -0.1275
  937SOL    HW1 2810   1.136   2.887   0.789 -0.5775 -1.3507 -1.8582
  937SOL    HW2 2811   1.255   2.794   0.864 -0.7013 -1.1414  2.8012
  938SOL     OW 2812   2.932   2.436   0.544 -0.1140 -0.0715  0.1843
  938SOL    HW1 2813   2.905   2.468   0.643 -0.1744 -0.5924  5.0243
  938SOL    HW2 2814   3.033   2.449   0.525  1.3688  2.2332 -1.2339
  939SOL     OW 2815   0.644   1.729   2.656 -0.9207 -0.0094 -0.0731
  939SOL    HW1 2816   0.729   1.782   2.676 -1.5032 -3.6147  0.8763
  939SOL    HW2 2817   0.599   1.704   2.742 -1.0930 -1.0621 -2.3769
  940SOL     OW 2818   2.752   2.591   2.694 -0.2970  0.1268 -0.4728
  940SOL    HW1 2819   2.705   2.587   2.602  0.6272  4.4402  0.5316
  940SOL    HW2 2820   2.706   2.655   2.757  0.2461 -0.7557 -0.8742
  941SOL     OW 2821   0.985   2.843   3.047 -0.3156 -0.5988  0.6393
  941SOL    HW1 2822   0.948   2.870   0.051 -0.6758  0.2639  0.2126
  941SOL    HW2 2823   1.086   2.817   3.043 -2.9197  1.7775  0.7917
  942SOL     OW 2824   1.700   1.666   1.345  0.1616 -0.4943  0.2240
  942SOL    HW1 2825   1.684   1.583   1.403 -1.4205  1.2783  2.2335
  942SOL    HW2 2826   1.626   1.731   1.360  0.5177  0.2285  0.3724
  943SOL     OW 2827   2.204   1.422   1.601  0.3896  0.1025 -0.3040
  943SOL    HW1 2828   2.217   1.323   1.576 -0.4886  0.8602  0.8799
  943SOL    HW2 2829   2.297   1.465   1.600 -0.5362 -2.6404  0.0539
  944SOL     OW 2830   1.910   1.012   1.951  0.0782 -0.1317  0.2003
  944SOL    HW1 2831   1.892   1.022   1.851 -1.5063 -0.4021 -4.7150
  944SOL    HW2 2832   1.820   1.019   1.998 -2.4837 -2.2889  0.7564
  945SOL     OW 2833   2.737   2.902   1.327 -0.0443 -0.1063  0.0653
  945SOL    HW1 2834   2.699   2.814   1.290 -1.0011 -1.8875  0.2710
  945SOL    HW2 2835   2.840   2.904   1.306  1.6648  0.8602 -1.0434
  946SOL     OW 2836   0.974   1.210   1.670  0.2641  0.3747  0.0606
  946SOL    HW1 2837   1.009   1.224   1.576 -1.2394 -0.5140  0.3574
  946SOL    HW2 2838   0.960   1.111   1.691 -0.6727  0.7686  0.9246
  947SOL     OW 2839   0.411   2.674   0.768  0.0575 -0.0970  0.1157
  947SOL    HW1 2840   0.468   2.661   0.853 -0.0701 -2.4456 -1.5382
  947SOL    HW2 2841   0.388   2.584   0.731 -0.2210  1.0625  2.1944
  948SOL     OW 2842   0.047   1.321   1.810  0.1672 -0.1849  0.4400
  948SOL    HW1 2843   0.092   1.260   1.885 -0.2370 -1.5572  0.1328
  948SOL    HW2 2844   0.112   1.393   1.776  0.3901  0.8860 -0.1997
  949SOL     OW 2845   0.708   0.618   2.103  0.9998 -0.5535 -0.5884
  949SOL    HW1 2846   0.767   0.644   2.183  2.4098 -0.7488  0.1375
  949SOL    HW2 2847   0.645   0.546   2.140  1.5840 -1.4274  0.0153
  950SOL     OW 2848   0.755   0.600   1.105 -0.2981 -0.3150 -0.4713
  950SOL    HW1 2849   0.691   0.672   1.133  1.0269 -3.3547  1.3789
  950SOL    HW2 2850   0.774   0.596   1.004  3.0864 -2.4510 -0.5010
  951SOL     OW 2851   1.469   1.585   1.986  0.5404  0.7745 -0.3092
  951SOL    HW1 2852   1.536   1.647   2.025 -1.2644 -1.6675 -0.0993
  951SOL    HW2 2853   1.376   1.626   2.004 -3.2095  0.1589 -1.7189
  952SOL     OW 2854   0.991   1.296   3.000 -0.1536 -0.0409 -0.1412
  952SOL    HW1 2855   1.024   1.348   3.082  2.4958 -1.3075 -0.9466
  952SOL    HW2 2856   1.067   1.301   2.934 -0.5351 -0.6532 -0.9706
  953SOL     OW 2857   1.036   2.771   2.013  0.7105 -0.1150  0.0504
  953SOL    HW1 2858   0.997   2.698   2.079  0.6609 -2.8452  1.4002
  953SOL    HW2 2859   1.116   2.726   1.965  2.0241 -0.7168 -4.6458
  954SOL     OW 2860   2.411   1.435   0.580 -0.0075 -0.1189 -0.3524
  954SOL    HW1 2861   2.453   1.466   0.669 -0.7835  1.7108 -0.2387
  954SOL    HW2 2862   2.448   1.494   0.505 -0.8245  1.4024  1.4666
  955SOL     OW 2863   0.133   2.214   2.663 -0.2497  0.6236 -0.1061
  955SOL    HW1 2864   0.152   2.268   2.576 -0.5778  2.2559 -0.6327
  955SOL    HW2 2865   0.102   2.275   2.742 -1.3918 -0.0404  1.0607
  956SOL     OW 2866   0.902   1.454   1.310 -0.8707  0.3816  0.0905
  956SOL    HW1 2867   0.852   1.421   1.229 -0.6249 -1.8254 -0.5908
  956SOL    HW2 2868   0.859   1.537   1.350 -1.4104 -1.6409  1.4380
  957SOL     OW 2869   2.121   1.493   2.457 -0.6055  0.8724 -0.4922
  957SOL    HW1 2870   2.096   1.510   2.364  1.0421 -2.8583  0.9556
  957SOL    HW2 2871   2.220   1.505   2.463  0.5749  0.6147 -2.2709
  958SOL     OW 2872   1.437   2.543   1.006 -0.4326  0.1981 -0.1937
  958SOL    HW1 2873   1.493   2.456   1.001 -2.0292 -0.1119 -1.6197
  958SOL    HW2 2874   1.434   2.575   1.102 -0.7853 -1.9009  0.3557
  959SOL     OW 2875   1.503   1.713   2.340  0.0313 -0.5335  0.0559
  959SOL    HW1 2876   1.470   1.660   2.416 -0.1069  1.2756  0.7517
  959SOL    HW2 2877   1.582   1.774   2.362  1.0108 -0.7591 -2.0044
  960SOL     OW 2878   0.049   0.623   2.706  0.4415  0.4168 -0.5668
  960SOL    HW1 2879   0.115   0.701   2.709  0.9011 -1.1369 -0.5675
  960SOL    HW2 2880   0.077   0.551   2.776  0.4161 -0.1883  3.1018
  961SOL     OW 2881   0.515   0.576   1.889 -0.5764  0.4899 -0.5426
  961SOL    HW1 2882   0.590   0.577   1.957  0.6918 -0.2881  1.0566
  961SOL    HW2 2883   0.459   0.657   1.884 -0.6755 -0.3168 -1.2764
  962SOL     OW 2884   1.283   1.785   0.222  0.0805  0.1575 -0.0243
  962SOL    HW1 2885   1.202   1.794   0.165  1.9532 -1.4527 -0.2507
  962SOL    HW2 2886   1.295   1.685   0.242  0.3965  0.4981  0.4384
  963SOL     OW 2887   1.595   2.407   2.982 -0.0261  0.4438  0.1303
  963SOL    HW1 2888   1.666   2.415   2.908 -1.4999  0.2816  0.9051
  963SOL    HW2 2889   1.502   2.410   2.939 -0.9542  0.4001  0.0906
  964SOL     OW 2890   1.071   2.546   0.543 -0.2216  0.0687 -0.1707
  964SOL    HW1 2891   1.123   2.587   0.467  2.0600 -0.6394 -3.0164
  964SOL    HW2 2892   0.972   2.563   0.518 -1.2024  1.8554 -0.6867
  965SOL     OW 2893   0.886   2.740   0.724 -0.1338  0.0967 -0.2410
  965SOL    HW1 2894   0.806   2.727   0.668 -0.8314  0.7805  2.1835
  965SOL    HW2 2895   0.907   2.656   0.774 -0.0799  2.0018 -1.4324
  966SOL     OW 2896   0.084   1.200   2.938  0.3414 -0.2845 -0.2997
  966SOL    HW1 2897   0.115   1.219   2.839 -1.3201  2.2927 -3.9332
  966SOL    HW2 2898   3.072   1.232   2.946 -0.6608 -0.1255 -0.0333
  967SOL     OW 2899   1.217   2.619   1.827  0.0242  0.3607 -0.0028
  967SOL    HW1 2900   1.226   2.537   1.890  2.8576  1.1380  0.2679
  967SOL    HW2 2901   1.183   2.584   1.736 -2.1042  0.3069 -0.6407
  968SOL     OW 2902   1.647   0.882   0.556 -0.3541  0.6119  1.0452
  968SOL    HW1 2903   1.696   0.846   0.472  2.6124  1.6117 -0.9178
  968SOL    HW2 2904   1.560   0.921   0.526 -0.0545  0.3014 -1.1087
  969SOL     OW 2905   0.210   1.726   2.076  0.4680  0.0958 -0.2254
  969SOL    HW1 2906   0.156   1.741   1.992  0.1243 -2.2675 -1.5490
  969SOL    HW2 2907   0.237   1.811   2.127 -2.1533 -1.7509  2.6705
  970SOL     OW 2908   2.766   1.639   1.567 -0.0339  0.2897  0.0777
  970SOL    HW1 2909   2.769   1.670   1.466  1.5231  0.9648 -1.1993
  970SOL    HW2 2910   2.855   1.602   1.601  0.6257 -1.4971  2.6990
  971SOL     OW 2911   1.404   0.318   1.579  0.4554 -0.3977 -0.2220
  971SOL    HW1 2912   1.492   0.313   1.536  0.0855 -1.9989 -1.0250
  971SOL    HW2 2913   1.400   0.371   1.664  1.4751 -0.4761  0.0782
  972SOL     OW 2914   0.727   0.012   2.526 -0.1006  0.0804  0.2330
  972SOL    HW1 2915   0.640   3.056   2.487 -0.8904  1.0296 -2.4880
  972SOL    HW2 2916   0.715   0.044   2.622 -0.3627 -0.4987 -0.0168
  973SOL     OW 2917   2.763   1.225   0.408  0.3018 -0.1527  0.2514
  973SOL    HW1 2918   2.741   1.131   0.371  0.1426 -1.4772 -0.8596
  973SOL    HW2 2919   2.730   1.230   0.502  0.8460 -3.7104 -1.4148
  974SOL     OW 2920   2.012   1.258   2.067 -0.1953  0.1203 -0.0772
  974SOL    HW1 2921   1.972   1.182   2.020  1.1074 -0.3186  1.6571
  974SOL    HW2 2922   1.977   1.346   2.032 -1.7043 -0.2957  1.0046
  975SOL     OW 2923   2.705   2.897   0.676 -0.1476  0.5028  0.0059
  975SOL    HW1 2924   2.801   2.874   0.694 -1.8504  1.8837  0.9473
  975SOL    HW2 2925   2.690   2.996   0.697 -0.4634 -2.1023 -0.1736
  976SOL     OW 2926   0.075   1.762   1.849  0.4941  0.3402 -0.0932
  976SOL    HW1 2927   0.120   1.839   1.794 -1.2703  1.5025 -2.6217
  976SOL    HW2 2928   3.063   1.789   1.866 -2.4335  1.5543  0.6765
  977SOL     OW 2929   0.883   2.453   0.016  0.3847  0.4255 -0.3743
  977SOL    HW1 2930   0.819   2.377   3.068  1.0096 -1.4274 -1.6689
  977SOL    HW2 2931   0.927   2.432   0.100  1.3385 -0.3113 -2.0042
  978SOL     OW 2932   0.841   1.902   2.718 -0.2027  0.4274  0.4644
  978SOL    HW1 2933   0.840   1.939   2.812 -0.6242  1.4416 -0.6040
  978SOL    HW2 2934   0.814   1.970   2.645  1.5382 -1.6351  1.2525
  979SOL     OW 2935   1.367   2.219   1.185  0.6064 -0.4560 -0.0004
  979SOL    HW1 2936   1.431   2.173   1.249 -2.2941 -0.6852 -2.1397
  979SOL    HW2 2937   1.410   2.242   1.099  0.6440  0.7791 -1.4160
  980SOL     OW 2938   0.412   1.435   2.672  0.0039  0.3734  0.1617
  980SOL    HW1 2939   0.346   1.492   2.620  1.4404  1.9057  3.7166
  980SOL    HW2 2940   0.454   1.478   2.755 -2.0617  0.3296  1.1523
  981SOL     OW 2941   2.607   0.431   2.775  0.2535  0.1708  0.3771
  981SOL    HW1 2942   2.580   0.354   2.713  0.6649 -1.8648  3.8023
  981SOL    HW2 2943   2.667   0.395   2.848  2.4479 -0.8250 -0.1822
  982SOL     OW 2944   3.018   2.674   2.753  0.4393 -0.1330 -0.6057
  982SOL    HW1 2945   3.054   2.654   2.661  0.3837 -1.2733  3.5971
  982SOL    HW2 2946   2.923   2.647   2.747  0.0470 -0.1737 -0.4728
  983SOL     OW 2947   2.283   0.956   1.943  0.1141  0.1469  0.1353
  983SOL    HW1 2948   2.298   1.050   1.906 -0.4821 -1.1116 -2.1339
  983SOL    HW2 2949   2.350   0.931   2.015  0.0452 -0.5209 -1.6399
  984SOL     OW 2950   1.164   0.231   2.314 -0.4517  0.1405  0.2871
  984SOL    HW1 2951   1.256   0.258   2.271 -0.7128 -0.5636  0.8455
  984SOL    HW2 2952   1.176   0.167   2.391  0.7312  2.1494 -1.5558
  985SOL     OW 2953   1.588   2.045   2.188 -0.1368  0.0486  0.4473
  985SOL    HW1 2954   1.522   1.989   2.131  0.1075 -1.3702  3.3088
  985SOL    HW2 2955   1.656   2.090   2.129 -1.4556  0.1393 -0.0332
  986SOL     OW 2956   2.061   0.461   2.179  0.0306 -0.3516  0.3077
  986SOL    HW1 2957   2.052   0.552   2.230 -0.8897  3.1284  1.5090
  986SOL    HW2 2958   2.008   0.465   2.093  1.0889 -0.7432 -1.0146
  987SOL     OW 2959   2.331   0.593   2.275  0.2456  0.2639 -1.0492
  987SOL    HW1 2960   2.247   0.636   2.304  0.6006  1.1996 -0.3160
  987SOL    HW2 2961   2.327   0.488   2.281  0.8792 -1.7362  0.8736
  988SOL     OW 2962   2.410   0.611   2.679  0.6235  0.2255 -0.1949
  988SOL    HW1 2963   2.501   0.575   2.705  0.0696 -0.0769  0.3262
  988SOL    HW2 2964   2.413   0.710   2.662  2.0338  0.2571 -1.0332
  989SOL     OW 2965   2.391   2.457   2.698 -0.5418  0.0152 -0.2013
  989SOL    HW1 2966   2.414   2.362   2.720 -1.1122  5.5164 -1.4896
  989SOL    HW2 2967   2.461   2.494   2.627  1.5615 -0.6249  0.0088
  990SOL     OW 2968   0.297   0.539   0.179  0.2076  0.1046 -0.1444
  990SOL    HW1 2969   0.297   0.587   0.269 -0.8985 -1.7651 -0.3470
  990SOL    HW2 2970   0.214   0.561   0.120 -0.6469 -0.6540 -1.0501
  991SOL     OW 2971   0.591   0.513   2.988  0.0063 -0.0339 -0.3774
  991SOL    HW1 2972   0.510   0.459   3.004  1.6579  1.3000  0.0460
  991SOL    HW2 2973   0.674   0.461   3.021  0.2867  0.5827  0.9725
  992SOL     OW 2974   3.049   2.078   2.137  0.0234 -0.0488  0.7042
  992SOL    HW1 2975   3.038   2.156   2.206  0.2568  2.2869 -0.0521
  992SOL    HW2 2976   0.062   2.067   2.120 -0.2465 -0.0940 -2.7120
  993SOL     OW 2977   0.605   3.005   0.624 -0.5558  0.8476 -0.5226
  993SOL    HW1 2978   0.511   3.029   0.589  1.7121  2.5701 -1.0127
  993SOL    HW2 2979   0.625   3.063   0.703 -1.8815  0.1946  0.7244
  994SOL     OW 2980   0.238   2.237   1.736 -0.3698 -0.0569  0.5156
  994SOL    HW1 2981   0.331   2.257   1.783 -0.1510  1.4871  0.7134
  994SOL    HW2 2982   0.240   2.286   1.643  1.8836  0.4291 -0.4615
  995SOL     OW 2983   2.408   1.653   0.143  0.0373  0.1453  0.3603
  995SOL    HW1 2984   2.327   1.594   0.155 -0.4236 -0.9058  1.2588
  995SOL    HW2 2985   2.478   1.604   0.095  0.0005 -1.0236  4.9873
  996SOL     OW 2986   1.644   1.414   2.657  0.7520  0.0123  0.4298
  996SOL    HW1 2987   1.555   1.452   2.623 -0.8042 -1.0081 -3.9917
  996SOL    HW2 2988   1.698   1.378   2.581 -1.6704  1.7564  1.6240
  997SOL     OW 2989   1.924   1.498   1.966 -0.0273 -0.0616  0.0903
  997SOL    HW1 2990   1.919   1.597   1.939 -1.2199 -0.4423  0.4755
  997SOL    HW2 2991   1.853   1.440   1.913 -1.3583  0.2236 -1.0126
  998SOL     OW 2992   2.605   1.644   0.448  0.5893 -0.0941 -0.1741
  998SOL    HW1 2993   2.665   1.675   0.527  1.8905  4.7153  1.5605
  998SOL    HW2 2994   2.559   1.726   0.406  0.1908  2.8928 -2.4546
  999SOL     OW 2995   2.347   2.858   0.282 -0.1102  0.1364  0.0324
  999SOL    HW1 2996   2.372   2.762   0.288 -1.0207  1.8039 -1.3481
  999SOL    HW2 2997   2.358   2.894   0.187  1.2154  1.1951 -1.9574
 1000SOL     OW 2998   0.544   2.713   2.325  0.1339  0.5313  0.5375
 1000SOL    HW1 2999   0.444   2.696   2.299 -1.8207 -0.5574 -0.1352
 1000SOL    HW2 3000   0.591   2.759   2.250  0.0363 -1.9083  0.6823
   3.08636   3.08636   3.08636
