1000 SPC/Fw water molecules t= 115.00000 step= 115000
 3000
    1SOL     OW    1   2.104   2.271   0.585 -0.1508  0.3794  0.6707
    1SOL    HW1    2   2.108   2.326   0.497 -2.1771  0.6918 -3.7673
    1SOL    HW2    3   2.193   2.231   0.604 -0.3317  0.1597  0.4149
    2SOL     OW    4   1.508   1.747   2.171 -0.3552  0.5984  0.2574
    2SOL    HW1    5   1.431   1.813   2.182 -0.1291 -1.0902 -2.2323
    2SOL    HW2    6   1.479   1.655   2.134  2.6593 -1.2081  1.4483
    3SOL     OW    7   1.349   2.468   2.232  0.0577  0.3209 -0.2330
    3SOL    HW1    8   1.377   2.517   2.151 -1.1315 -1.9145  4.6001
    3SOL    HW2    9   1.332   2.368   2.212  0.5607  1.8271 -0.8917
    4SOL     OW   10   1.026   2.176   1.872 -0.6303 -0.1413  0.3906
    4SOL    HW1   11   0.936   2.209   1.844 -0.9185 -0.7459  2.0174
    4SOL    HW2   12   1.082   2.164   1.789  2.6274  2.5497  0.6044
    5SOL     OW   13   0.497   0.910   1.766  0.1961  0.4709 -0.6469
    5SOL    HW1   14   0.592   0.947   1.766  0.3866 -1.6370 -0.7679
    5SOL    HW2   15   0.471   0.840   1.832  0.3487  1.6750 -2.9570
    6SOL     OW   16   2.361   0.808   3.015  0.2276  0.2307  0.8412
    6SOL    HW1   17   2.297   0.773   2.945  1.2697  1.1505  0.7874
    6SOL    HW2   18   2.454   0.765   3.014  0.7769 -2.2275  0.7990
    7SOL     OW   19   0.895   0.468   1.570  0.1909 -0.4313  0.4204
    7SOL    HW1   20   0.970   0.407   1.603 -0.4017  2.9880  1.3413
    7SOL    HW2   21   0.922   0.517   1.487 -1.4699 -0.7982  2.9689
    8SOL     OW   22   1.530   0.189   1.905  0.3067  0.0328  0.0878
    8SOL    HW1   23   1.547   0.191   1.806  1.8104 -1.2857  1.6794
    8SOL    HW2   24   1.594   0.119   1.943  2.1251 -2.3437  0.1473
    9SOL     OW   25   0.442   0.628   0.582 -0.0924  0.4768 -0.2142
    9SOL    HW1   26   0.526   0.635   0.644 -0.7048 -0.3530  1.5073
    9SOL    HW2   27   0.420   0.724   0.549 -2.2122 -0.1769 -0.5932
   10SOL     OW   28   0.578   2.525   2.607 -0.5652 -0.0607 -0.0671
   10SOL    HW1   29   0.623   2.451   2.661 -0.0664  0.3453  0.2313
   10SOL    HW2   30   0.491   2.494   2.567 -0.0028 -0.7776 -3.3624
   11SOL     OW   31   0.687   1.983   3.075 -0.4159 -0.1501  0.3411
   11SOL    HW1   32   0.785   2.011   3.090 -0.5669  0.8325 -1.5162
   11SOL    HW2   33   0.634   1.968   0.064 -2.4786  1.1327 -2.6604
   12SOL     OW   34   0.276   2.944   1.488  0.6693  0.3587 -0.0601
   12SOL    HW1   35   0.226   2.994   1.563 -3.0647 -0.4678  3.4708
   12SOL    HW2   36   0.239   2.849   1.487 -1.9703 -1.4508  2.2586
   13SOL     OW   37   0.932   2.709   0.152 -0.3165  0.7202  0.3719
   13SOL    HW1   38   1.008   2.713   0.084  0.4536  0.3133 -0.2579
   13SOL    HW2   39   0.853   2.753   0.115 -0.0683 -0.9643 -0.2978
   14SOL     OW   40   1.626   1.791   0.730 -0.2177 -0.6080 -0.2867
   14SOL    HW1   41   1.534   1.759   0.760 -2.1387  1.5510  0.0214
   14SOL    HW2   42   1.698   1.742   0.783 -1.7834  1.4032 -0.6994
   15SOL     OW   43   2.865   1.416   2.198 -0.2162 -0.0158 -0.3865
   15SOL    HW1   44   2.945   1.379   2.249  0.8637  3.3937 -0.4852
   15SOL    HW2   45   2.775   1.374   2.214  1.7853 -0.7991 -0.1793
   16SOL     OW   46   1.280   2.977   3.018  0.5097 -0.1258  0.0728
   16SOL    HW1   47   1.220   2.929   3.086 -1.2757 -0.1866 -2.1998
   16SOL    HW2   48   1.242   2.982   2.923  2.0255 -1.0127  1.7188
   17SOL     OW   49   0.458   2.310   2.057 -0.3903 -0.0413 -0.2507
   17SOL    HW1   50   0.507   2.222   2.080 -0.3825  2.9888 -1.6277
   17SOL    HW2   51   0.358   2.293   2.061  1.4304 -1.3488 -0.6363
   18SOL     OW   52   1.701   0.838   0.296 -0.2483  0.3829  0.3662
   18SOL    HW1   53   1.718   0.934   0.265  1.5729  0.4326  0.6635
   18SOL    HW2   54   1.603   0.809   0.285 -0.1084 -0.7224 -0.7873
   19SOL     OW   55   2.205   1.876   2.467  0.0409  0.1317  0.0319
   19SOL    HW1   56   2.160   1.909   2.553  0.0044 -0.2357 -0.7317
   19SOL    HW2   57   2.301   1.847   2.501  3.3364 -1.6129  2.9259
   20SOL     OW   58   2.399   2.140   2.224  0.5733  0.5375 -0.3509
   20SOL    HW1   59   2.304   2.135   2.257  1.7247 -0.3607 -1.3403
   20SOL    HW2   60   2.448   2.212   2.278  0.1342  0.7370  0.9282
   21SOL     OW   61   0.601   2.091   0.356  1.1330 -0.0004  0.3985
   21SOL    HW1   62   0.556   2.140   0.277 -2.2843  0.3525 -0.4663
   21SOL    HW2   63   0.590   1.990   0.347  2.1097  1.5679  0.2089
   22SOL     OW   64   2.380   2.426   1.257  0.4504  0.1829  0.3871
   22SOL    HW1   65   2.464   2.375   1.288  1.6240 -3.1893 -0.7648
   22SOL    HW2   66   2.297   2.371   1.286  0.7534 -0.1530 -1.3378
   23SOL     OW   67   0.255   1.036   1.710  0.0539  0.2294 -0.4273
   23SOL    HW1   68   0.263   1.138   1.714  1.5632 -0.2027 -0.1416
   23SOL    HW2   69   0.349   0.991   1.717 -1.3697  0.6645 -2.4036
   24SOL     OW   70   2.099   2.084   1.682 -0.4925  0.7296 -1.1814
   24SOL    HW1   71   2.030   2.007   1.665 -2.5811 -2.8634 -2.4102
   24SOL    HW2   72   2.056   2.174   1.696 -0.2973 -0.7390  1.5775
   25SOL     OW   73   1.852   0.300   2.513 -0.1150  0.1924 -0.3641
   25SOL    HW1   74   1.867   0.402   2.523  1.1690  1.3384 -0.0104
   25SOL    HW2   75   1.809   0.281   2.423 -0.9147  0.1045  1.2560
   26SOL     OW   76   1.326   0.045   0.771  0.2373  0.6002  0.3918
   26SOL    HW1   77   1.368   0.005   0.682  1.0022  1.5233 -0.7044
   26SOL    HW2   78   1.341   0.147   0.786 -1.0314 -0.9676 -0.7988
   27SOL     OW   79   1.206   1.645   0.070  0.1786  0.3766 -0.0065
   27SOL    HW1   80   1.201   1.684   0.165  0.4417 -1.6697  0.5155
   27SOL    HW2   81   1.115   1.625   0.031  0.5406 -1.7374 -0.0649
   28SOL     OW   82   2.857   1.791   1.278 -0.3495 -0.4405 -0.0211
   28SOL    HW1   83   2.766   1.801   1.327 -0.4621  2.1172 -0.0568
   28SOL    HW2   84   2.930   1.791   1.346 -1.2207 -1.5813 -0.9815
   29SOL     OW   85   2.075   2.798   1.792 -0.0309 -0.0557  0.1854
   29SOL    HW1   86   2.079   2.814   1.892 -0.1875 -0.2224  0.6321
   29SOL    HW2   87   2.173   2.774   1.765  0.5347 -1.1269  0.1736
   30SOL     OW   88   0.963   2.713   1.073 -0.9492  0.4199 -0.1152
   30SOL    HW1   89   1.062   2.747   1.075  0.8818  0.8660  0.5599
   30SOL    HW2   90   0.913   2.723   0.983 -0.3518  1.3432  2.0287
   31SOL     OW   91   2.808   2.083   1.942 -0.1648 -0.2187  0.2094
   31SOL    HW1   92   2.906   2.086   1.962 -1.1391 -0.7806 -2.4012
   31SOL    HW2   93   2.769   2.163   1.994 -1.5070  1.0594 -0.8411
   32SOL     OW   94   1.521   1.337   1.995  0.2791 -0.5141 -0.2721
   32SOL    HW1   95   1.457   1.263   1.962  0.6353 -1.5719  1.0262
   32SOL    HW2   96   1.481   1.403   2.064  4.4593  2.4197 -1.0319
   33SOL     OW   97   0.226   0.097   2.736 -0.1235  0.2403  0.3254
   33SOL    HW1   98   0.323   0.119   2.716  1.2660 -1.4607  0.6617
   33SOL    HW2   99   0.194   0.045   2.658  2.8500 -0.5727 -0.9311
   34SOL     OW  100   1.850   0.256   1.577 -0.1736  0.1061 -0.3707
   34SOL    HW1  101   1.899   0.343   1.604 -0.7027 -0.4494 -2.0773
   34SOL    HW2  102   1.894   0.178   1.620  1.0206 -0.6271  0.2329
   35SOL     OW  103   2.433   0.587   1.556 -0.1407  0.4918  0.2176
   35SOL    HW1  104   2.517   0.530   1.550  2.7719  0.5514  0.4070
   35SOL    HW2  105   2.453   0.683   1.560 -2.9422 -0.7485  1.8887
   36SOL     OW  106   2.421   2.954   2.564  0.4374 -0.0871 -0.4510
   36SOL    HW1  107   2.345   2.927   2.500 -0.9080  0.3992  2.3434
   36SOL    HW2  108   2.514   2.926   2.537 -0.1106 -1.2415  1.6206
   37SOL     OW  109   1.089   2.285   2.862 -0.0359 -0.2160  0.0368
   37SOL    HW1  110   1.029   2.295   2.943  0.1583 -0.2693  0.2559
   37SOL    HW2  111   1.141   2.196   2.863  2.5770 -1.0967  0.7971
   38SOL     OW  112   2.969   1.002   2.794  0.0418  0.1391  0.0928
   38SOL    HW1  113   3.051   1.012   2.856  1.9099 -0.1907  0.8533
   38SOL    HW2  114   2.888   0.968   2.844  0.5671  2.8381 -0.9581
   39SOL     OW  115   2.036   2.161   2.144  0.7912 -0.1313  0.1415
   39SOL    HW1  116   2.018   2.088   2.079  1.1247  0.2916 -1.6793
   39SOL    HW2  117   2.099   2.137   2.222  0.9418  0.3289  0.3242
   40SOL     OW  118   0.593   0.121   2.968  0.3782 -0.2573  0.2551
   40SOL    HW1  119   0.562   0.068   3.051  0.1988 -0.1011  5.7218
   40SOL    HW2  120   0.693   0.116   2.962 -1.1091  0.2971 -1.4489
   41SOL     OW  121   1.541   1.069   1.500  0.2900  0.5433 -0.0673
   41SOL    HW1  122   1.636   1.087   1.534  0.1571  0.2728 -1.4304
   41SOL    HW2  123   1.494   1.003   1.564  1.2151  1.6947  0.3817
   42SOL     OW  124   0.293   0.343   2.027 -0.2585  0.0343  0.1312
   42SOL    HW1  125   0.200   0.386   2.023 -3.0727 -0.0254 -1.2358
   42SOL    HW2  126   0.367   0.412   2.033  1.8588  1.5642 -1.2311
   43SOL     OW  127   1.743   1.271   2.156 -0.3088  0.3551 -0.2431
   43SOL    HW1  128   1.701   1.261   2.247  2.5676 -0.1487  1.5838
   43SOL    HW2  129   1.669   1.285   2.085 -0.5988  0.1862  0.3724
   44SOL     OW  130   2.926   3.090   2.954  0.0304 -0.1550 -0.5523
   44SOL    HW1  131   3.004   0.019   3.017 -0.8815  0.2779 -1.0020
   44SOL    HW2  132   2.874   3.016   3.001  0.0660 -2.0806 -0.2399
   45SOL     OW  133   0.852   2.095   1.243 -0.4980  0.1132 -0.1676
   45SOL    HW1  134   0.884   2.147   1.164 -2.7830  0.1981 -1.3549
   45SOL    HW2  135   0.778   2.034   1.214  0.0693 -0.6143 -0.5824
   46SOL     OW  136   2.497   2.840   1.861  0.3001 -0.0650 -0.2126
   46SOL    HW1  137   2.596   2.856   1.833  1.0515  1.5057 -1.3584
   46SOL    HW2  138   2.445   2.775   1.801  0.8065  0.4289 -0.1298
   47SOL     OW  139   1.248   1.720   1.302 -0.5912  0.0068  0.3984
   47SOL    HW1  140   1.176   1.789   1.295  0.4430 -2.7251 -0.5536
   47SOL    HW2  141   1.228   1.630   1.264  1.4868  3.9592  2.3085
   48SOL     OW  142   0.342   1.937   0.454 -0.4654  0.0084 -0.0292
   48SOL    HW1  143   0.268   1.979   0.506  0.4555 -0.8816  1.2538
   48SOL    HW2  144   0.411   1.903   0.519 -1.7408 -1.3715  1.9663
   49SOL     OW  145   2.985   1.306   1.944 -0.0127  0.0411 -0.9417
   49SOL    HW1  146   3.053   1.378   1.920  1.7614 -2.6120 -0.6916
   49SOL    HW2  147   2.944   1.322   2.039 -0.0181 -2.2213  1.5400
   50SOL     OW  148   2.107   0.989   0.747 -0.3723  0.1149 -0.7102
   50SOL    HW1  149   2.204   0.997   0.749 -4.3254  1.2507 -0.1651
   50SOL    HW2  150   2.074   0.973   0.651  1.7045 -0.0648  0.4083
   51SOL     OW  151   1.028   0.759   0.748 -0.5797  0.2773  0.1760
   51SOL    HW1  152   0.984   0.806   0.666 -1.4041  1.1859 -2.9630
   51SOL    HW2  153   1.015   0.823   0.825  1.9632 -0.2500  0.8500
   52SOL     OW  154   1.324   1.022   0.295 -0.2248 -0.3148 -0.1710
   52SOL    HW1  155   1.344   0.978   0.206  0.1803  1.7076  0.8044
   52SOL    HW2  156   1.376   0.979   0.371 -1.8639 -2.1953 -0.4725
   53SOL     OW  157   0.934   2.250   2.631  0.2779 -0.8481 -0.6641
   53SOL    HW1  158   0.976   2.187   2.565 -0.3155 -0.2151  2.0624
   53SOL    HW2  159   0.985   2.253   2.714 -3.0089 -1.7283 -0.2619
   54SOL     OW  160   1.554   0.743   1.540 -0.2645 -0.3512  0.3781
   54SOL    HW1  161   1.478   0.799   1.582  0.9726  1.4720 -1.1731
   54SOL    HW2  162   1.533   0.719   1.440 -0.6244  0.5184 -0.8357
   55SOL     OW  163   2.333   3.045   0.503  0.0168 -0.3327  0.3667
   55SOL    HW1  164   2.233   3.052   0.511  1.2425  0.2259  0.2977
   55SOL    HW2  165   2.368   2.962   0.454  0.4904  1.3093  0.4988
   56SOL     OW  166   0.804   2.503   1.551  0.1199 -0.0811  0.4582
   56SOL    HW1  167   0.779   2.533   1.645 -1.7332 -0.8509  0.2452
   56SOL    HW2  168   0.752   2.558   1.484  0.0939 -0.3320 -2.8196
   57SOL     OW  169   2.091   0.503   2.994 -0.0300  0.3432 -0.5833
   57SOL    HW1  170   2.035   0.487   2.913 -0.6679 -0.4126  0.1451
   57SOL    HW2  171   2.186   0.515   2.965 -0.0077  0.8572 -1.3401
   58SOL     OW  172   2.813   1.215   1.747 -0.3262  0.2090  0.2868
   58SOL    HW1  173   2.882   1.256   1.807  0.5936  0.8917  1.0209
   58SOL    HW2  174   2.717   1.230   1.777  2.1524 -3.0444 -2.7370
   59SOL     OW  175   0.416   2.858   2.252  0.3910  0.5141 -0.1332
   59SOL    HW1  176   0.502   2.803   2.238  0.5964 -1.6541  1.8596
   59SOL    HW2  177   0.347   2.857   2.175 -0.5935 -0.1962 -1.1491
   60SOL     OW  178   2.782   2.161   0.838 -0.1859  0.3754  0.4865
   60SOL    HW1  179   2.800   2.107   0.752  2.0209  0.7984  0.0521
   60SOL    HW2  180   2.720   2.105   0.898  0.2367 -0.6270  1.3856
   61SOL     OW  181   0.895   2.171   0.271  0.2855  1.3772 -0.2028
   61SOL    HW1  182   0.879   2.266   0.272  1.3496 -4.5235 -0.2746
   61SOL    HW2  183   0.819   2.120   0.323  0.5706  0.8582  0.4751
   62SOL     OW  184   2.115   2.824   2.737  0.3703 -0.1081 -0.6359
   62SOL    HW1  185   2.162   2.868   2.659  2.4645  1.2590  2.1677
   62SOL    HW2  186   2.028   2.779   2.702 -2.4385  0.1152  1.2808
   63SOL     OW  187   1.845   0.222   3.018  0.2196  0.0218 -0.0700
   63SOL    HW1  188   1.780   0.152   2.985 -1.1258  1.4586  0.8411
   63SOL    HW2  189   1.943   0.212   2.982  2.1161  2.2444 -0.0563
   64SOL     OW  190   0.806   1.141   2.504  0.2884 -0.3034  0.1922
   64SOL    HW1  191   0.872   1.172   2.573 -0.3650  0.2671  2.1617
   64SOL    HW2  192   0.721   1.097   2.547  0.0175 -1.4566 -0.8107
   65SOL     OW  193   1.446   2.896   0.603  0.1862 -0.3858  0.0185
   65SOL    HW1  194   1.481   2.816   0.651  0.8777 -0.6471 -2.8861
   65SOL    HW2  195   1.420   2.867   0.507  0.2916  2.6107 -2.0432
   66SOL     OW  196   0.286   1.297   1.760 -0.3011  0.6784  0.0937
   66SOL    HW1  197   0.275   1.313   1.862 -0.3389  0.5428  2.3664
   66SOL    HW2  198   0.368   1.345   1.725  0.7652  0.5632 -0.1405
   67SOL     OW  199   2.206   3.097   2.112 -0.1577  0.5738  0.2838
   67SOL    HW1  200   2.236   3.091   2.015 -5.6965  3.3056 -2.6231
   67SOL    HW2  201   2.287   0.017   2.169 -0.7523 -1.4045 -3.2227
   68SOL     OW  202   0.877   0.831   1.631  0.1811 -0.0251 -0.2874
   68SOL    HW1  203   0.831   0.742   1.618 -0.4052 -0.8697  0.9419
   68SOL    HW2  204   0.833   0.902   1.697  0.4662  2.1776 -0.1247
   69SOL     OW  205   2.075   2.982   0.488 -0.0547 -0.4925 -0.1046
   69SOL    HW1  206   2.060   2.883   0.485 -0.6774  1.1340  0.3044
   69SOL    HW2  207   2.049   3.019   0.394 -2.0958 -0.5472 -3.0046
   70SOL     OW  208   2.687   0.752   2.930  0.4237  0.4095 -0.8044
   70SOL    HW1  209   2.693   0.744   2.828  0.3097 -1.4396 -0.0649
   70SOL    HW2  210   2.703   0.664   2.980 -0.6402 -1.7345 -0.8413
   71SOL     OW  211   2.895   1.954   0.039 -0.0612 -0.0333 -0.0504
   71SOL    HW1  212   2.908   1.882   3.065 -0.6989 -3.0342  0.7011
   71SOL    HW2  213   2.954   2.033   0.017  2.6742 -2.5224 -1.0618
   72SOL     OW  214   3.062   1.889   0.384  0.6286 -0.5796  0.0453
   72SOL    HW1  215   2.965   1.914   0.363  0.1289  0.7771 -1.2054
   72SOL    HW2  216   3.096   1.906   0.480 -2.4096 -2.0357 -1.0888
   73SOL     OW  217   0.903   0.863   0.529  0.5687  0.3448  0.3628
   73SOL    HW1  218   0.870   0.957   0.550  0.0477 -0.5340 -0.2910
   73SOL    HW2  219   0.935   0.861   0.426  1.5740 -1.1617  1.5392
   74SOL     OW  220   3.066   2.085   2.014 -0.0438 -0.0541 -0.0799
   74SOL    HW1  221   0.045   2.114   1.953  0.6597  2.0187 -0.4614
   74SOL    HW2  222   3.076   1.989   2.044 -1.6831  1.0271  1.0725
   75SOL     OW  223   1.883   1.390   1.433  0.5144  0.1503  0.2590
   75SOL    HW1  224   1.798   1.368   1.380  0.8577 -1.5455 -0.6689
   75SOL    HW2  225   1.860   1.383   1.531  1.0646 -1.9722 -0.7213
   76SOL     OW  226   1.992   2.364   0.984 -0.4957 -0.1900  0.1886
   76SOL    HW1  227   1.957   2.323   0.901 -0.6659 -1.1943 -0.0579
   76SOL    HW2  228   2.047   2.446   0.965 -1.2388 -0.1646  0.5356
   77SOL     OW  229   2.600   1.626   1.550  0.0380 -0.2064 -0.2349
   77SOL    HW1  230   2.514   1.629   1.611 -3.0752  1.9197 -1.0436
   77SOL    HW2  231   2.682   1.615   1.606 -0.6682  1.3787 -2.7980
   78SOL     OW  232   1.480   0.609   0.549  0.5749 -0.2120  0.1317
   78SOL    HW1  233   1.415   0.596   0.628 -0.3408 -0.4804 -0.7659
   78SOL    HW2  234   1.522   0.523   0.517 -0.6526  1.4154 -1.5999
   79SOL     OW  235   2.244   1.614   1.419  0.2036 -0.1245  0.1035
   79SOL    HW1  236   2.274   1.636   1.516  2.6120 -1.0783  1.9679
   79SOL    HW2  237   2.306   1.536   1.389  0.6170 -1.0813  3.2266
   80SOL     OW  238   0.659   0.613   1.561  0.4070  0.0178 -0.5267
   80SOL    HW1  239   0.737   0.547   1.574 -0.7445 -1.2416  1.4688
   80SOL    HW2  240   0.628   0.608   1.465  2.6021  1.7249 -0.9980
   81SOL     OW  241   0.641   2.412   0.860  0.7144  0.8552  0.1384
   81SOL    HW1  242   0.717   2.480   0.866 -1.0342  0.2032 -2.2856
   81SOL    HW2  243   0.669   2.311   0.850  0.1009 -0.0069  0.8767
   82SOL     OW  244   1.259   0.062   1.980 -0.0802  0.3910 -0.1892
   82SOL    HW1  245   1.345   0.118   1.964  3.6734  0.6014 -0.2826
   82SOL    HW2  246   1.200   0.119   2.039  1.2292 -1.1838 -1.6037
   83SOL     OW  247   0.913   1.726   0.586  0.1293  0.3400  0.3337
   83SOL    HW1  248   0.913   1.701   0.487 -2.3731 -0.0198 -1.0712
   83SOL    HW2  249   0.826   1.776   0.609 -0.9085 -0.9648  1.0290
   84SOL     OW  250   3.095   1.422   3.001 -0.0997 -0.1364 -0.0362
   84SOL    HW1  251   3.068   1.331   3.044 -1.0650  0.5004 -2.2471
   84SOL    HW2  252   3.076   1.501   3.062 -1.4474 -2.9124 -0.9840
   85SOL     OW  253   0.227   2.462   0.771  0.2366 -0.2395 -0.6379
   85SOL    HW1  254   0.269   2.445   0.678 -0.7891  0.5301 -0.2862
   85SOL    HW2  255   0.259   2.395   0.841 -0.4444  1.1158  0.2946
   86SOL     OW  256   2.217   2.772   1.435  0.1137 -0.2377  0.0871
   86SOL    HW1  257   2.308   2.807   1.411  0.5304 -1.2893 -1.4596
   86SOL    HW2  258   2.182   2.707   1.360  1.3221 -3.3484 -1.2206
   87SOL     OW  259   0.107   1.923   0.635  0.0189  0.1877  0.1385
   87SOL    HW1  260   0.105   2.005   0.694 -1.0942  0.4093 -0.3900
   87SOL    HW2  261   0.055   1.846   0.678  1.3809 -0.3134 -0.9813
   88SOL     OW  262   0.983   0.563   1.305  0.3068  0.4690 -0.5031
   88SOL    HW1  263   0.937   0.567   1.213  1.2640 -1.8272  1.0094
   88SOL    HW2  264   1.061   0.499   1.304 -0.1287  2.8926 -0.1767
   89SOL     OW  265   1.117   2.800   1.847 -0.2237 -0.0564  0.1273
   89SOL    HW1  266   1.209   2.835   1.866 -1.4434  0.2787 -0.9743
   89SOL    HW2  267   1.095   2.807   1.747 -0.8698 -2.3137  0.3838
   90SOL     OW  268   0.254   1.915   1.289  0.3978 -0.4274  0.2877
   90SOL    HW1  269   0.256   1.827   1.239 -0.3081 -1.0225 -1.2478
   90SOL    HW2  270   0.330   1.916   1.362  1.5193  0.2989  2.3945
   91SOL     OW  271   1.308   2.092   1.314  0.0487  0.1879  0.4463
   91SOL    HW1  272   1.261   2.179   1.300  0.8769 -0.5306  2.3118
   91SOL    HW2  273   1.372   2.094   1.391 -0.2041  1.7105  1.9425
   92SOL     OW  274   2.793   3.087   1.452 -0.8778  0.5750 -0.4257
   92SOL    HW1  275   2.762   3.086   1.353 -2.0347  0.2437  0.9715
   92SOL    HW2  276   2.884   0.032   1.462 -1.5419  2.0927 -0.1660
   93SOL     OW  277   3.020   1.195   0.022  0.0382 -0.2932  0.2758
   93SOL    HW1  278   3.071   1.121   3.076 -2.0889  3.9840  0.6819
   93SOL    HW2  279   3.003   1.170   0.120  1.1091 -0.2436 -0.7398
   94SOL     OW  280   2.747   2.573   2.088  0.0403 -0.2609  0.3599
   94SOL    HW1  281   2.808   2.645   2.043  1.4831 -1.2942 -0.2527
   94SOL    HW2  282   2.654   2.606   2.099 -0.8110 -0.4885 -1.7645
   95SOL     OW  283   1.554   0.632   2.087  0.1811  0.5495  0.3351
   95SOL    HW1  284   1.595   0.615   2.176  1.2261  0.4327 -2.5619
   95SOL    HW2  285   1.496   0.715   2.091 -1.0833 -1.0430 -0.6124
   96SOL     OW  286   2.563   0.475   1.809 -0.5104 -0.3905  0.1913
   96SOL    HW1  287   2.575   0.418   1.727 -1.7855 -0.2897 -1.9916
   96SOL    HW2  288   2.648   0.514   1.839 -0.6739  0.4468 -0.0550
   97SOL     OW  289   2.380   0.311   1.410  0.2174  0.2635  0.3349
   97SOL    HW1  290   2.341   0.298   1.502  1.4269  1.6860 -1.9951
   97SOL    HW2  291   2.420   0.406   1.406  0.5417  1.8254 -0.8668
   98SOL     OW  292   2.428   0.020   1.255 -0.4806 -0.5544  0.0517
   98SOL    HW1  293   2.357   0.065   1.313  1.2165 -0.9921 -0.6429
   98SOL    HW2  294   2.446   3.027   1.291  1.6599 -2.0981 -0.8574
   99SOL     OW  295   2.839   0.291   2.289  0.5835 -0.1375  0.5446
   99SOL    HW1  296   2.934   0.265   2.290  1.7402  1.0299  0.7230
   99SOL    HW2  297   2.830   0.374   2.230 -1.8558  0.2637 -2.3010
  100SOL     OW  298   2.350   1.637   1.670 -0.2593 -0.2502  0.6175
  100SOL    HW1  299   2.276   1.596   1.723 -1.7887 -0.5229  0.2986
  100SOL    HW2  300   2.360   1.738   1.696 -1.3551  1.6207  1.5480
  101SOL     OW  301   1.711   3.029   0.751 -0.7063 -0.1566  0.1747
  101SOL    HW1  302   1.683   3.063   0.841 -0.7481 -0.3371 -0.7589
  101SOL    HW2  303   1.642   3.059   0.680 -1.1770  0.2094  1.2121
  102SOL     OW  304   0.413   0.779   1.511  0.3656 -0.0866 -0.6191
  102SOL    HW1  305   0.478   0.714   1.476  1.8066  2.3597  2.4301
  102SOL    HW2  306   0.449   0.821   1.597  0.0262 -1.5835 -0.6541
  103SOL     OW  307   2.757   0.515   3.034  0.9379 -0.3717  0.3100
  103SOL    HW1  308   2.793   0.463   2.954  0.0813 -0.6170 -3.2063
  103SOL    HW2  309   2.685   0.464   3.078  2.1946  0.5734 -2.4705
  104SOL     OW  310   2.747   0.144   2.069 -0.4100  0.4478  0.5834
  104SOL    HW1  311   2.792   0.152   1.980  0.7512 -1.6530 -0.3196
  104SOL    HW2  312   2.801   0.184   2.143 -2.4040 -0.1227 -1.9633
  105SOL     OW  313   1.804   0.839   2.146  0.1147  0.1669  0.0601
  105SOL    HW1  314   1.759   0.746   2.154  2.2318 -0.2141  0.4611
  105SOL    HW2  315   1.905   0.842   2.143 -1.2241 -0.5852  0.2329
  106SOL     OW  316   1.616   0.050   0.969 -0.0700 -0.7847 -0.1102
  106SOL    HW1  317   1.702   0.087   1.015  2.0339  1.2602 -0.5760
  106SOL    HW2  318   1.561   0.009   1.041  0.0987 -1.1755 -0.8740
  107SOL     OW  319   0.716   1.082   0.813 -0.1726 -0.3745 -0.3858
  107SOL    HW1  320   0.624   1.045   0.840  2.0695 -0.0098  1.7584
  107SOL    HW2  321   0.735   1.177   0.852 -0.4999  1.6461 -0.8911
  108SOL     OW  322   3.005   0.559   2.521  0.6949  0.0298  0.4161
  108SOL    HW1  323   3.083   0.500   2.534 -1.4100 -0.9733  0.0365
  108SOL    HW2  324   2.925   0.506   2.549 -1.2006 -1.4927 -0.7403
  109SOL     OW  325   1.973   0.250   0.172  0.2468 -0.1973  0.3923
  109SOL    HW1  326   1.943   0.243   0.072  0.5229  1.8927 -0.9225
  109SOL    HW2  327   1.928   0.331   0.219  0.5948  0.1679 -0.2881
  110SOL     OW  328   3.052   1.917   2.865  0.3697  0.1168 -0.5331
  110SOL    HW1  329   0.017   1.966   2.928 -2.7165 -0.0341  0.6561
  110SOL    HW2  330   3.077   1.817   2.845  0.8410  0.9431 -0.1611
  111SOL     OW  331   2.063   0.214   2.241  0.0921 -0.3025 -0.5504
  111SOL    HW1  332   2.108   0.140   2.195 -1.2165  3.1867 -0.2498
  111SOL    HW2  333   2.119   0.250   2.319  0.7985  2.4335  0.2994
  112SOL     OW  334   2.454   2.979   0.903 -0.1608 -0.3711 -0.4026
  112SOL    HW1  335   2.503   2.985   0.817  0.1007 -2.1785 -1.8179
  112SOL    HW2  336   2.358   2.974   0.885  1.4604 -1.4963 -1.8768
  113SOL     OW  337   2.310   2.700   1.703  0.4508  0.2244  0.0561
  113SOL    HW1  338   2.293   2.704   1.603  0.5192 -0.6451 -1.0258
  113SOL    HW2  339   2.281   2.606   1.733  0.3374 -0.9634 -1.2361
  114SOL     OW  340   2.951   3.081   0.628  0.0835  0.1148 -0.2830
  114SOL    HW1  341   3.045   0.004   0.659  0.4362 -1.0000  1.8947
  114SOL    HW2  342   2.890   3.031   0.699 -4.5885 -0.3177  0.6172
  115SOL     OW  343   2.791   1.726   2.985 -0.2821 -0.0993 -0.2046
  115SOL    HW1  344   2.875   1.671   3.012  3.0783 -0.5509 -0.5924
  115SOL    HW2  345   2.706   1.671   2.999 -0.8053  2.8481  0.6852
  116SOL     OW  346   0.018   1.526   1.898  0.2014 -0.6206 -0.1135
  116SOL    HW1  347   3.046   1.576   1.955 -1.6111  5.5043  2.3678
  116SOL    HW2  348   0.066   1.578   1.828  0.5304 -2.7467 -0.0484
  117SOL     OW  349   2.591   2.939   0.648 -0.0967  0.0806 -0.0715
  117SOL    HW1  350   2.611   2.835   0.662 -0.1386 -0.8145 -1.0899
  117SOL    HW2  351   2.521   2.960   0.577 -0.5134  1.3448  2.5271
  118SOL     OW  352   0.395   2.338   1.641 -0.0172 -0.3777 -0.6880
  118SOL    HW1  353   0.295   2.339   1.629  1.9605  0.2069 -0.1543
  118SOL    HW2  354   0.438   2.271   1.584 -1.5344  0.7512  1.1995
  119SOL     OW  355   1.602   2.164   0.925  0.8147 -0.4422  0.2112
  119SOL    HW1  356   1.632   2.111   0.844 -3.0301 -0.2941  3.2544
  119SOL    HW2  357   1.682   2.212   0.965 -0.1887  0.6305  1.4344
  120SOL     OW  358   0.574   2.083   2.135  0.0359 -0.1606 -0.2790
  120SOL    HW1  359   0.503   2.019   2.171 -1.0693  1.1195  0.2617
  120SOL    HW2  360   0.664   2.078   2.190  3.7920  0.3905  0.9907
  121SOL     OW  361   2.482   1.557   0.805 -0.2192 -0.2370 -0.1023
  121SOL    HW1  362   2.501   1.653   0.771  0.3691  2.9393 -0.8842
  121SOL    HW2  363   2.426   1.568   0.893  0.3253 -2.7983 -0.2272
  122SOL     OW  364   1.989   1.571   2.311  0.2705 -0.4590 -0.0220
  122SOL    HW1  365   1.908   1.593   2.247 -0.8589 -0.9762  1.6709
  122SOL    HW2  366   2.063   1.641   2.303 -0.3672 -0.2708 -1.4320
  123SOL     OW  367   2.808   2.967   0.832 -0.1838  0.1093 -0.0279
  123SOL    HW1  368   2.840   2.891   0.893  0.9209  0.4504 -0.0705
  123SOL    HW2  369   2.714   2.942   0.796 -2.0384 -2.8027 -1.0294
  124SOL     OW  370   1.402   1.150   2.769  0.0667  0.1512 -0.2299
  124SOL    HW1  371   1.372   1.208   2.853  0.2594  0.9599  3.5734
  124SOL    HW2  372   1.505   1.145   2.757  0.5870 -1.4764  0.2201
  125SOL     OW  373   0.246   1.481   2.551 -0.3721  0.0459 -0.2378
  125SOL    HW1  374   0.287   1.529   2.472 -1.2600 -0.4536  2.4112
  125SOL    HW2  375   0.318   1.419   2.592  3.6692 -1.2082  2.0152
  126SOL     OW  376   2.828   2.016   0.303  0.4542  0.0314 -0.6126
  126SOL    HW1  377   2.871   2.107   0.326  0.5024  0.7346  0.0814
  126SOL    HW2  378   2.845   1.991   0.208  3.3590  0.8873 -0.0702
  127SOL     OW  379   0.476   1.816   1.028  0.2086  0.1949  0.0445
  127SOL    HW1  380   0.422   1.730   1.051  0.8617 -1.0759  0.7960
  127SOL    HW2  381   0.421   1.889   0.981 -1.5747 -0.5536 -0.2440
  128SOL     OW  382   1.377   0.874   0.079 -0.0995  0.1746 -0.1339
  128SOL    HW1  383   1.389   0.790   0.141  0.1984 -1.7165  1.2851
  128SOL    HW2  384   1.453   0.878   0.011  0.3031 -1.1467 -2.6252
  129SOL     OW  385   2.377   1.773   1.250  0.4815  0.2453  0.3890
  129SOL    HW1  386   2.330   1.862   1.246  0.8645  0.2258 -0.6924
  129SOL    HW2  387   2.349   1.720   1.326 -0.0223  2.2936 -3.3628
  130SOL     OW  388   1.918   1.338   0.589  0.6425  0.3355  0.0191
  130SOL    HW1  389   2.000   1.293   0.551 -2.5847  0.2944  0.4557
  130SOL    HW2  390   1.920   1.352   0.685 -0.8063 -2.1871 -2.4754
  131SOL     OW  391   2.841   1.136   2.599  0.2096 -0.2811  0.6653
  131SOL    HW1  392   2.876   1.083   2.680  1.7913  0.1779 -1.8951
  131SOL    HW2  393   2.801   1.223   2.634 -1.3018  0.1128  1.3751
  132SOL     OW  394   2.005   1.768   1.625  0.6149 -0.0012  0.3285
  132SOL    HW1  395   1.971   1.730   1.537  0.9395  1.1961  0.0694
  132SOL    HW2  396   2.040   1.702   1.699  0.7455 -1.0511  3.4296
  133SOL     OW  397   0.306   1.257   0.020 -0.2851  0.1513  0.1185
  133SOL    HW1  398   0.247   1.263   3.036  2.7524 -1.0285  1.0722
  133SOL    HW2  399   0.251   1.244   0.104  1.1454 -0.1460 -1.6628
  134SOL     OW  400   2.633   1.411   0.122 -0.1556 -0.0072 -0.5684
  134SOL    HW1  401   2.697   1.356   0.068 -3.6121 -0.3855 -0.6891
  134SOL    HW2  402   2.666   1.493   0.175 -0.5404  1.1212  1.1116
  135SOL     OW  403   2.509   1.141   0.479  0.3456 -0.1032  0.0090
  135SOL    HW1  404   2.430   1.113   0.417 -2.3870  0.5763 -1.0253
  135SOL    HW2  405   2.504   1.238   0.514  3.0889  1.2748  0.2543
  136SOL     OW  406   1.979   1.643   1.384 -0.1225 -0.3633 -0.3142
  136SOL    HW1  407   2.076   1.629   1.415 -0.1694 -0.3724  1.7500
  136SOL    HW2  408   1.938   1.544   1.396 -1.0890 -3.1354 -3.1190
  137SOL     OW  409   2.621   2.043   0.467  0.1092 -0.0222 -0.8587
  137SOL    HW1  410   2.593   1.947   0.477  0.5418  1.5983  0.8202
  137SOL    HW2  411   2.699   2.057   0.400  0.1396  0.3845 -2.4494
  138SOL     OW  412   1.810   0.076   1.881 -0.2545 -0.7459  0.2604
  138SOL    HW1  413   1.753   0.012   1.936 -1.8250 -0.1810  0.4274
  138SOL    HW2  414   1.820   0.170   1.919  1.1014 -1.5987 -0.0918
  139SOL     OW  415   2.630   0.115   0.185 -0.5664  0.1308  0.1027
  139SOL    HW1  416   2.547   0.131   0.233  3.0941  2.3904 -1.1190
  139SOL    HW2  417   2.618   0.035   0.117  0.3889 -2.1814 -2.0034
  140SOL     OW  418   1.318   2.046   2.639  0.3301  0.2499 -0.6432
  140SOL    HW1  419   1.310   1.963   2.576 -3.0744 -0.5523 -0.1500
  140SOL    HW2  420   1.359   2.011   2.727 -0.0863 -1.2619 -2.2573
  141SOL     OW  421   0.933   0.958   2.025  0.0133  0.2491  0.1390
  141SOL    HW1  422   0.913   1.004   2.119  1.6723 -1.6021  1.6609
  141SOL    HW2  423   1.018   0.900   2.027 -0.2349  1.2708  0.5423
  142SOL     OW  424   2.130   2.613   2.916 -0.3576  0.2480 -0.0814
  142SOL    HW1  425   2.142   2.689   2.852 -1.2112  0.8525  0.6839
  142SOL    HW2  426   2.197   2.544   2.909  0.0651  1.1722 -2.0783
  143SOL     OW  427   0.959   2.145   3.088 -0.5975  0.3608  0.3757
  143SOL    HW1  428   1.020   2.073   3.047  0.8276 -2.1158  1.6854
  143SOL    HW2  429   0.939   2.125   0.088  0.5210  1.3264  1.2704
  144SOL     OW  430   1.326   2.519   0.207  0.0627 -0.4769 -0.3986
  144SOL    HW1  431   1.308   2.474   0.119  1.6405 -0.9835  1.6324
  144SOL    HW2  432   1.265   2.477   0.281 -1.3402  1.1561  1.8476
  145SOL     OW  433   2.086   1.962   2.692  0.0194  0.2599 -0.4641
  145SOL    HW1  434   2.169   1.954   2.753  1.8808 -2.1611  0.7454
  145SOL    HW2  435   1.998   1.984   2.738 -0.1768 -0.4403  0.2698
  146SOL     OW  436   2.487   2.721   2.798  0.2989  0.2890 -0.2322
  146SOL    HW1  437   2.546   2.806   2.792  0.7585  2.4631  0.6079
  146SOL    HW2  438   2.539   2.642   2.844 -0.6875 -2.3936  0.5394
  147SOL     OW  439   2.794   1.558   1.097  0.2845 -0.3678 -0.6837
  147SOL    HW1  440   2.827   1.624   1.166 -4.5800 -1.7678 -0.2806
  147SOL    HW2  441   2.704   1.526   1.128 -2.5358  3.9138 -0.2808
  148SOL     OW  442   1.826   3.039   3.020 -0.0480  0.0402 -0.1623
  148SOL    HW1  443   1.726   3.035   2.992 -1.3035 -0.3244 -0.9560
  148SOL    HW2  444   1.829   3.010   0.019 -1.3147 -0.1269 -0.2146
  149SOL     OW  445   0.790   1.434   2.846  0.0102  0.0110 -0.0215
  149SOL    HW1  446   0.765   1.353   2.906 -1.7247 -2.7962 -0.4527
  149SOL    HW2  447   0.718   1.454   2.776 -0.9942  0.8950 -0.4543
  150SOL     OW  448   0.516   2.219   0.599  0.1004  0.6227  0.1605
  150SOL    HW1  449   0.546   2.159   0.676 -2.1895  0.7749  1.6894
  150SOL    HW2  450   0.506   2.166   0.517 -2.5282 -0.0934  2.5202
  151SOL     OW  451   0.601   1.636   0.115 -0.2140 -0.3058 -0.4496
  151SOL    HW1  452   0.527   1.634   0.189 -3.8545  0.6325 -1.0699
  151SOL    HW2  453   0.559   1.645   0.027  1.8964 -3.0499  1.2956
  152SOL     OW  454   2.837   1.429   0.539  0.3549 -0.0079 -0.0343
  152SOL    HW1  455   2.741   1.411   0.567  1.1582 -1.9700 -0.5123
  152SOL    HW2  456   2.863   1.403   0.445  0.7352  1.1693  1.5035
  153SOL     OW  457   2.159   2.329   0.325  0.6981 -0.0362  0.2024
  153SOL    HW1  458   2.076   2.274   0.303  2.4515  0.2978  0.9305
  153SOL    HW2  459   2.164   2.407   0.262 -0.5928 -0.8063  0.5304
  154SOL     OW  460   0.739   2.795   0.647  0.6297 -0.6757 -0.2732
  154SOL    HW1  461   0.731   2.882   0.699  2.5070 -1.3141  1.9403
  154SOL    HW2  462   0.652   2.741   0.651  0.9922 -1.0138 -1.4120
  155SOL     OW  463   0.345   2.017   0.909  0.4948  0.4928 -0.0563
  155SOL    HW1  464   0.407   2.071   0.967 -1.6144 -0.1070  0.1951
  155SOL    HW2  465   0.262   2.066   0.881 -0.6336 -0.9131 -1.1020
  156SOL     OW  466   2.340   2.398   2.948  0.1032  0.1936  0.4878
  156SOL    HW1  467   2.434   2.430   2.925  0.5709  1.0172  2.1354
  156SOL    HW2  468   2.347   2.349   3.038  1.0364 -2.1093 -0.5507
  157SOL     OW  469   0.952   1.711   1.502 -0.5953 -0.0305  0.4970
  157SOL    HW1  470   0.971   1.810   1.518  0.3111  1.7525  1.3795
  157SOL    HW2  471   0.947   1.692   1.403  0.8598  0.9236  1.1833
  158SOL     OW  472   1.538   0.426   0.238 -0.4410  0.0342  1.1422
  158SOL    HW1  473   1.555   0.505   0.175 -1.2883 -1.8231  0.0068
  158SOL    HW2  474   1.561   0.333   0.194 -2.0658 -0.0934  0.4447
  159SOL     OW  475   1.105   0.594   0.043  0.0090 -0.4611 -0.3924
  159SOL    HW1  476   1.195   0.586   3.093  1.6851  0.1393  0.5133
  159SOL    HW2  477   1.114   0.584   0.144  0.6610  4.0540 -0.2392
  160SOL     OW  478   1.049   1.471   0.285  0.7048  0.4409 -0.2970
  160SOL    HW1  479   1.093   1.557   0.310  2.2256 -1.8019 -0.4727
  160SOL    HW2  480   1.031   1.419   0.371 -0.1181  0.4999  1.4481
  161SOL     OW  481   0.136   2.066   2.551  0.1897 -0.0808 -0.3426
  161SOL    HW1  482   0.059   2.126   2.592 -4.1759 -1.5062 -0.0314
  161SOL    HW2  483   0.108   2.029   2.461 -0.5853 -0.0964  2.2937
  162SOL     OW  484   0.391   2.344   0.961  0.6603 -0.4901 -0.2393
  162SOL    HW1  485   0.473   2.393   0.929 -0.9967 -2.3906  1.5497
  162SOL    HW2  486   0.424   2.268   1.020  0.8288 -0.3351  2.2765
  163SOL     OW  487   3.089   0.605   2.922 -0.3012 -0.6517 -0.7153
  163SOL    HW1  488   0.077   0.589   2.882  0.5181  1.0200 -0.6174
  163SOL    HW2  489   3.093   0.677   2.995 -1.3666  0.1677 -2.4916
  164SOL     OW  490   0.493   0.163   2.700 -0.1259 -0.0139 -0.0080
  164SOL    HW1  491   0.543   0.132   2.785 -0.2548 -0.4694  0.3585
  164SOL    HW2  492   0.527   0.111   2.616  3.1703  0.3341  0.0558
  165SOL     OW  493   2.235   0.559   1.741  0.2544  0.0728  0.5243
  165SOL    HW1  494   2.278   0.550   1.831 -0.7937  2.0913 -1.0764
  165SOL    HW2  495   2.307   0.591   1.675  0.6241 -0.1537 -0.8569
  166SOL     OW  496   2.015   2.920   1.556 -0.2299 -0.4040  0.3433
  166SOL    HW1  497   2.021   2.877   1.652 -0.3546  0.1459  0.4628
  166SOL    HW2  498   2.091   2.890   1.500  1.4064  2.0932  3.1912
  167SOL     OW  499   1.148   0.535   2.049 -0.1378  0.6249  0.6189
  167SOL    HW1  500   1.112   0.544   2.143 -0.5866 -1.9140 -3.2706
  167SOL    HW2  501   1.239   0.493   2.043 -1.6133  1.6633 -0.5922
  168SOL     OW  502   2.502   0.235   2.117 -0.4634  0.3168 -0.0315
  168SOL    HW1  503   2.599   0.212   2.092 -1.0968 -1.3138  1.3103
  168SOL    HW2  504   2.457   0.163   2.165  5.3281  1.0783 -1.9137
  169SOL     OW  505   0.173   1.215   0.242  0.1265  0.5411  0.2596
  169SOL    HW1  506   0.179   1.291   0.313  2.6354 -0.0099  2.4888
  169SOL    HW2  507   0.074   1.191   0.232 -0.0643  2.2563 -0.8118
  170SOL     OW  508   0.188   1.620   1.724  0.4020 -0.3831 -0.1116
  170SOL    HW1  509   0.150   1.711   1.703 -1.3745 -2.7633 -0.3181
  170SOL    HW2  510   0.254   1.592   1.648  1.0717 -0.0560 -0.1223
  171SOL     OW  511   0.992   2.311   2.280 -0.1279  0.4543 -0.1488
  171SOL    HW1  512   1.077   2.311   2.333 -0.1480 -2.6133 -0.0784
  171SOL    HW2  513   1.006   2.340   2.188 -1.1755  2.4802  0.3409
  172SOL     OW  514   0.732   2.522   1.829  0.1055  0.7423  0.3847
  172SOL    HW1  515   0.792   2.535   1.915  2.3904  2.2551  2.4281
  172SOL    HW2  516   0.640   2.549   1.854  0.6398  1.6605  0.5881
  173SOL     OW  517   1.379   2.327   0.930 -0.0785 -0.1824  0.7259
  173SOL    HW1  518   1.404   2.393   0.999 -0.2958  2.5209 -1.4184
  173SOL    HW2  519   1.455   2.263   0.911  0.2845  3.6927  0.1305
  174SOL     OW  520   1.573   0.322   0.582 -0.5189 -0.6437  0.1145
  174SOL    HW1  521   1.567   0.343   0.682  2.0817 -0.5080  1.3925
  174SOL    HW2  522   1.602   0.224   0.570  1.1947  0.9640 -0.6363
  175SOL     OW  523   1.427   1.278   0.364 -0.9196 -0.8821 -0.1937
  175SOL    HW1  524   1.410   1.187   0.314  0.6274  0.7001 -1.3998
  175SOL    HW2  525   1.424   1.361   0.300 -0.2460  2.3540  0.1422
  176SOL     OW  526   1.476   0.958   0.538 -0.1448 -0.5309  0.2911
  176SOL    HW1  527   1.555   1.000   0.586 -0.4378 -1.8676  0.1521
  176SOL    HW2  528   1.483   0.854   0.538 -0.4424 -1.4111 -3.0758
  177SOL     OW  529   1.296   0.785   1.259 -0.2337  0.2265  0.0286
  177SOL    HW1  530   1.231   0.817   1.331 -0.3680 -0.4192  2.1403
  177SOL    HW2  531   1.365   0.860   1.241  0.5444 -2.1812 -0.6374
  178SOL     OW  532   2.559   1.590   2.992 -0.9341  0.3195  0.3320
  178SOL    HW1  533   2.529   1.519   3.058 -0.5496 -1.2144  0.5413
  178SOL    HW2  534   2.519   1.569   2.902 -1.3047 -3.2478 -0.0493
  179SOL     OW  535   0.515   2.446   3.075  0.7339 -0.2657  0.0920
  179SOL    HW1  536   0.538   2.545   3.059  0.6554 -1.5316 -0.9766
  179SOL    HW2  537   0.599   2.393   3.065 -1.1769  1.0687  0.9552
  180SOL     OW  538   2.109   1.535   1.757 -0.0795 -0.1039  0.6018
  180SOL    HW1  539   2.107   1.581   1.850 -2.7113  2.2438  0.0112
  180SOL    HW2  540   2.023   1.495   1.735 -1.6906  0.7117 -1.5974
  181SOL     OW  541   1.248   1.239   2.170 -0.4305  0.1731 -0.8219
  181SOL    HW1  542   1.175   1.268   2.107  1.2668  0.7460 -1.6275
  181SOL    HW2  543   1.222   1.163   2.232  1.8068 -1.6783 -0.2113
  182SOL     OW  544   3.018   1.118   2.398 -0.1246  0.1552  0.5899
  182SOL    HW1  545   3.017   1.206   2.349 -0.4651 -1.4495  0.9604
  182SOL    HW2  546   2.954   1.121   2.478 -2.2161  2.1418 -0.8538
  183SOL     OW  547   1.736   0.579   2.279  0.3314 -0.7118  0.0153
  183SOL    HW1  548   1.834   0.556   2.259  2.7075 -2.2604 -1.5151
  183SOL    HW2  549   1.731   0.624   2.370 -2.0414 -2.6958  2.1843
  184SOL     OW  550   0.186   0.514   1.647 -0.1691 -0.5284 -0.2324
  184SOL    HW1  551   0.286   0.516   1.657 -0.7511 -2.0415  0.6601
  184SOL    HW2  552   0.149   0.595   1.588 -0.0289  3.8926  1.7676
  185SOL     OW  553   2.293   1.735   0.529 -0.3812  0.3379  0.5606
  185SOL    HW1  554   2.244   1.809   0.489  1.6493 -1.9308 -1.2312
  185SOL    HW2  555   2.393   1.753   0.514  1.6661  1.9770  0.3880
  186SOL     OW  556   0.532   1.760   2.742 -0.2444 -0.4037  0.4729
  186SOL    HW1  557   0.591   1.840   2.731 -0.7834  0.2169 -1.2715
  186SOL    HW2  558   0.432   1.776   2.733  0.5248 -3.1508 -0.9810
  187SOL     OW  559   2.331   1.979   2.830  0.3317  0.1984 -0.0789
  187SOL    HW1  560   2.334   1.892   2.884 -0.7718  3.2777  1.8756
  187SOL    HW2  561   2.420   2.026   2.829 -1.1508  1.7996 -0.5939
  188SOL     OW  562   0.772   2.318   0.540  0.2030 -0.6948  0.5634
  188SOL    HW1  563   0.675   2.302   0.572 -1.1635 -0.5735  0.7884
  188SOL    HW2  564   0.771   2.381   0.456  0.1710  1.6715  0.0921
  189SOL     OW  565   2.168   0.731   2.825 -0.2173 -0.0754  0.1157
  189SOL    HW1  566   2.089   0.702   2.879  2.2557  3.8461 -3.0144
  189SOL    HW2  567   2.129   0.807   2.768 -1.4937 -1.2631  0.5602
  190SOL     OW  568   1.047   2.027   2.177  0.0840  0.3125 -0.2247
  190SOL    HW1  569   1.041   2.129   2.172  0.6522  1.2337  2.2577
  190SOL    HW2  570   1.022   1.995   2.273 -2.5203  0.3818 -0.3856
  191SOL     OW  571   2.506   0.843   1.518 -0.3565  0.3579 -0.0049
  191SOL    HW1  572   2.604   0.852   1.509 -0.5279 -0.4246  0.6193
  191SOL    HW2  573   2.469   0.857   1.425 -3.4776 -0.5348 -0.0309
  192SOL     OW  574   2.122   0.392   2.033  0.0350 -0.0497 -0.0208
  192SOL    HW1  575   2.221   0.414   2.020 -2.9745 -0.3214 -1.0509
  192SOL    HW2  576   2.121   0.310   2.094  1.0962  1.9434  0.6541
  193SOL     OW  577   0.201   0.243   0.848  0.4436 -0.1462  0.5444
  193SOL    HW1  578   0.212   0.256   0.946  1.0692  0.6618 -2.3697
  193SOL    HW2  579   0.210   0.335   0.798  1.7266  0.1975 -0.2297
  194SOL     OW  580   1.309   2.535   1.594  0.1616 -0.0374 -0.2069
  194SOL    HW1  581   1.322   2.616   1.529  1.6196  0.3098 -2.6556
  194SOL    HW2  582   1.380   2.465   1.589 -0.2013 -1.7424  0.6811
  195SOL     OW  583   2.595   0.666   0.599 -0.3227  0.3103  0.3492
  195SOL    HW1  584   2.603   0.573   0.640  2.8154 -0.1645 -0.1673
  195SOL    HW2  585   2.585   0.737   0.670 -1.0932 -1.0836 -0.4267
  196SOL     OW  586   1.234   1.847   1.716 -0.0024  0.3804 -0.2979
  196SOL    HW1  587   1.135   1.857   1.700  3.3262 -0.2249  1.2779
  196SOL    HW2  588   1.281   1.804   1.632  1.2521 -0.3875 -0.8466
  197SOL     OW  589   0.335   0.388   2.600 -0.2384  0.1244 -0.1678
  197SOL    HW1  590   0.397   0.319   2.643 -0.0267  0.7371  0.2664
  197SOL    HW2  591   0.339   0.474   2.657  2.0033  2.2294  0.3779
  198SOL     OW  592   1.186   1.135   0.557 -0.3233  0.1741  0.0417
  198SOL    HW1  593   1.282   1.115   0.527 -0.4932 -1.7447 -1.8444
  198SOL    HW2  594   1.117   1.080   0.508 -3.4980  1.0480 -0.4092
  199SOL     OW  595   2.363   0.495   1.994 -0.4176  0.8504  0.4030
  199SOL    HW1  596   2.383   0.490   2.094  0.8684  1.1642  0.7851
  199SOL    HW2  597   2.447   0.484   1.939 -0.0886 -0.2297 -1.5908
  200SOL     OW  598   2.492   2.710   2.103 -0.0958 -0.3962 -0.3529
  200SOL    HW1  599   2.552   2.757   2.171  2.6067  1.0536 -1.2648
  200SOL    HW2  600   2.455   2.776   2.034 -2.5521  0.3479 -0.1999
  201SOL     OW  601   2.263   0.281   1.677 -0.3628 -0.7137  0.1993
  201SOL    HW1  602   2.228   0.377   1.702  1.3993  0.7740  1.0370
  201SOL    HW2  603   2.196   0.210   1.677  1.1348  5.0725 -0.3070
  202SOL     OW  604   2.256   2.975   0.066 -0.1446  0.0882  0.5301
  202SOL    HW1  605   2.242   3.057   0.129 -1.8965  0.3938  0.1733
  202SOL    HW2  606   2.187   2.970   3.096 -1.3963 -1.6202 -2.1904
  203SOL     OW  607   0.785   2.094   2.313  0.1446 -0.1742 -0.2931
  203SOL    HW1  608   0.830   2.009   2.350  0.9794 -1.1605  1.6242
  203SOL    HW2  609   0.849   2.176   2.300  0.4642  3.0902 -2.6212
  204SOL     OW  610   0.967   1.227   2.712  0.2598 -0.0180 -0.8652
  204SOL    HW1  611   0.955   1.330   2.722 -1.7715 -0.6868  2.2298
  204SOL    HW2  612   0.941   1.181   2.801  0.1504 -1.5806  3.0951
  205SOL     OW  613   1.029   1.011   1.191 -0.4305 -0.2004  0.2290
  205SOL    HW1  614   1.022   0.957   1.274 -0.8990  3.1527 -1.9489
  205SOL    HW2  615   1.122   1.052   1.189  0.7625 -2.0259  0.8153
  206SOL     OW  616   0.721   0.522   2.820 -0.2395 -0.7847 -0.6120
  206SOL    HW1  617   0.711   0.506   2.720 -0.5272  2.2235 -0.9054
  206SOL    HW2  618   0.645   0.479   2.869 -0.3993 -0.3145  1.5929
  207SOL     OW  619   1.656   2.746   1.949 -0.4782  0.4648  0.1615
  207SOL    HW1  620   1.710   2.783   2.024 -2.1238 -0.7286  0.1937
  207SOL    HW2  621   1.647   2.821   1.875 -0.1291  1.4389 -1.2292
  208SOL     OW  622   0.794   2.499   1.126 -1.0166  0.0899 -0.0326
  208SOL    HW1  623   0.868   2.568   1.104  2.4867  1.5089  0.7909
  208SOL    HW2  624   0.816   2.400   1.105  1.6184 -0.3817  0.6637
  209SOL     OW  625   1.483   1.488   2.627 -0.1565 -0.4404  0.3186
  209SOL    HW1  626   1.526   1.451   2.714 -1.7376 -0.0915  0.6833
  209SOL    HW2  627   1.474   1.419   2.550  0.5148 -2.1675 -0.3315
  210SOL     OW  628   1.977   0.808   0.943 -0.3898 -0.5225 -0.2948
  210SOL    HW1  629   2.018   0.822   1.035  0.5555  0.4920 -0.9949
  210SOL    HW2  630   2.025   0.872   0.877 -0.3231 -0.8745 -0.7183
  211SOL     OW  631   0.978   2.507   0.599 -0.5743  0.0859 -0.2777
  211SOL    HW1  632   0.943   2.591   0.548  0.3306  2.3159 -1.5447
  211SOL    HW2  633   0.909   2.435   0.594  3.3282 -0.9174  1.1065
  212SOL     OW  634   1.991   1.791   0.279 -0.6885 -0.3015  0.2517
  212SOL    HW1  635   1.944   1.849   0.208 -0.2945  0.1044  1.2977
  212SOL    HW2  636   2.006   1.853   0.357  0.2699 -3.5402 -0.0525
  213SOL     OW  637   1.837   0.474   2.845 -0.0618 -0.9002  0.6085
  213SOL    HW1  638   1.841   0.408   2.920  1.1174 -0.4348 -0.6613
  213SOL    HW2  639   1.759   0.459   2.783 -0.8999  2.1324  0.9527
  214SOL     OW  640   1.230   1.665   1.995 -0.2333  0.3906 -0.2383
  214SOL    HW1  641   1.135   1.679   1.967  2.0589 -1.5773 -0.0425
  214SOL    HW2  642   1.285   1.675   1.912  0.0898 -0.4971  1.6576
  215SOL     OW  643   0.613   1.828   0.348 -0.1382  0.3261 -0.5421
  215SOL    HW1  644   0.705   1.801   0.318  0.2972 -1.1670  1.9110
  215SOL    HW2  645   0.546   1.758   0.313  0.0304 -0.8072  0.4205
  216SOL     OW  646   0.152   2.972   2.541 -0.1937  0.0500 -0.0017
  216SOL    HW1  647   0.230   2.911   2.529 -1.7938  0.7750 -0.2131
  216SOL    HW2  648   0.084   2.957   2.464  0.8944  0.5018 -1.4053
  217SOL     OW  649   2.542   0.682   1.036  0.2030 -0.3908 -0.1039
  217SOL    HW1  650   2.528   0.587   0.998  0.4977  1.0579 -3.1523
  217SOL    HW2  651   2.636   0.687   1.079  3.3109 -0.5102  2.8981
  218SOL     OW  652   1.711   1.932   2.197  0.3309 -0.3137 -0.2800
  218SOL    HW1  653   1.641   1.863   2.189  0.0235  0.8688  2.5759
  218SOL    HW2  654   1.733   1.947   2.294 -1.0400 -3.6154  1.8731
  219SOL     OW  655   2.128   1.702   0.007 -0.0021 -0.4155  0.0936
  219SOL    HW1  656   2.043   1.703   3.052 -4.3353  0.4560  0.5886
  219SOL    HW2  657   2.107   1.747   0.096  0.2722  1.1681  1.5765
  220SOL     OW  658   1.716   1.013   0.693  0.4773  0.5394 -0.3760
  220SOL    HW1  659   1.774   0.948   0.646 -1.1609  0.5196  1.0082
  220SOL    HW2  660   1.724   1.098   0.643  0.5720 -2.5498  0.8185
  221SOL     OW  661   0.402   0.624   2.995 -0.2035 -0.8500  0.3744
  221SOL    HW1  662   0.335   0.625   3.071 -0.3549  0.7181  1.3817
  221SOL    HW2  663   0.446   0.530   2.987  1.0900 -1.0766  0.4626
  222SOL     OW  664   1.423   1.509   0.181  0.2434  0.6169  0.2545
  222SOL    HW1  665   1.491   1.578   0.207  0.4377 -0.6158 -1.0883
  222SOL    HW2  666   1.341   1.546   0.137 -2.1410 -2.1483 -2.4001
  223SOL     OW  667   1.211   0.118   0.227  0.2195 -0.0770 -0.2713
  223SOL    HW1  668   1.116   0.160   0.214 -0.4622  1.5836 -0.3251
  223SOL    HW2  669   1.255   0.163   0.305 -1.1799 -0.2010 -0.2138
  224SOL     OW  670   2.053   0.010   1.334  0.5400 -0.2823 -0.0802
  224SOL    HW1  671   2.033   3.074   1.245  3.0740 -1.4806  1.1918
  224SOL    HW2  672   1.990   3.080   1.412 -0.9531 -0.6532  1.5251
  225SOL     OW  673   0.457   2.355   1.292  0.0057  0.2981  0.0440
  225SOL    HW1  674   0.445   2.299   1.377 -0.4504 -0.9222  1.7028
  225SOL    HW2  675   0.540   2.412   1.310 -1.6915 -1.2269 -1.1373
  226SOL     OW  676   1.047   1.336   0.050 -0.5114 -0.7542  0.3452
  226SOL    HW1  677   1.043   1.413   3.077 -0.7667  0.4939 -0.2411
  226SOL    HW2  678   1.048   1.373   0.147  0.9165 -1.0381 -0.8734
  227SOL     OW  679   1.076   1.469   0.811 -0.5015 -0.4446 -0.3550
  227SOL    HW1  680   1.082   1.574   0.808 -0.0932 -0.5789 -2.8993
  227SOL    HW2  681   1.136   1.439   0.884 -3.2248 -0.3607 -0.7360
  228SOL     OW  682   0.235   1.674   0.481  0.3182 -0.4784  0.0912
  228SOL    HW1  683   0.259   1.651   0.578 -1.5100 -0.0551 -1.6529
  228SOL    HW2  684   0.230   1.774   0.459 -0.1547  2.0110 -3.6864
  229SOL     OW  685   1.582   0.208   2.936 -0.4058 -0.0600 -0.6158
  229SOL    HW1  686   1.627   0.207   2.847  0.6977 -1.6038  0.7412
  229SOL    HW2  687   1.491   0.255   2.935  0.0100  3.1300  0.3374
  230SOL     OW  688   1.495   0.896   2.745 -0.5404 -0.0998 -0.0310
  230SOL    HW1  689   1.571   0.905   2.675  0.7286  0.4739  0.8399
  230SOL    HW2  690   1.445   0.982   2.759 -0.6440 -0.8249  1.9392
  231SOL     OW  691   1.051   1.721   2.605 -0.4479 -0.4224  0.2402
  231SOL    HW1  692   1.122   1.678   2.665  3.8976 -1.6810  0.1624
  231SOL    HW2  693   0.978   1.648   2.582 -0.0767 -2.3741 -0.3389
  232SOL     OW  694   2.348   2.239   0.082 -0.2993 -0.1752  0.4127
  232SOL    HW1  695   2.301   2.268   0.163 -0.6352  1.0980  1.4271
  232SOL    HW2  696   2.370   2.139   0.085  3.0602  0.4329  2.6830
  233SOL     OW  697   2.483   2.554   0.224 -0.2072  0.1803 -0.1649
  233SOL    HW1  698   2.565   2.616   0.212  0.2719  0.1399 -1.7810
  233SOL    HW2  699   2.427   2.552   0.137 -0.9180  0.6767 -1.1427
  234SOL     OW  700   0.764   0.812   2.809  0.3944  0.0050 -0.9491
  234SOL    HW1  701   0.747   0.713   2.793  0.7637 -0.3755  2.0597
  234SOL    HW2  702   0.842   0.836   2.873 -1.2312  0.3157  1.7588
  235SOL     OW  703   2.794   0.396   2.689 -0.4112  0.2505 -0.2444
  235SOL    HW1  704   2.785   0.292   2.692  0.6039 -1.7750 -0.8277
  235SOL    HW2  705   2.700   0.440   2.683 -0.0624 -2.9267  0.2570
  236SOL     OW  706   2.002   2.567   1.502  0.2295  0.0691  0.2089
  236SOL    HW1  707   1.977   2.468   1.484  0.5381  0.3533 -1.0711
  236SOL    HW2  708   1.961   2.596   1.590 -1.8910 -1.8530  1.1385
  237SOL     OW  709   0.968   1.685   1.947  0.2983  0.5379 -0.3464
  237SOL    HW1  710   0.927   1.776   1.963 -0.0865  1.1758 -1.9351
  237SOL    HW2  711   0.920   1.617   2.010  1.1057  0.9006  1.6884
  238SOL     OW  712   1.568   0.504   2.719 -0.0662 -0.5197 -0.3882
  238SOL    HW1  713   1.498   0.574   2.735 -0.8676 -0.9267  0.0352
  238SOL    HW2  714   1.528   0.430   2.659  2.1636 -1.4720  0.8655
  239SOL     OW  715   0.173   2.138   1.800  0.3748  0.3029 -0.9147
  239SOL    HW1  716   0.136   2.181   1.723 -1.5407 -0.2505  2.2932
  239SOL    HW2  717   0.219   2.203   1.866  0.3687 -2.1616 -1.9802
  240SOL     OW  718   2.403   2.418   0.457  0.8804 -0.6061 -0.0946
  240SOL    HW1  719   2.360   2.327   0.450  0.5393 -1.8268  2.0561
  240SOL    HW2  720   2.423   2.457   0.366  1.4635 -0.9388 -2.8408
  241SOL     OW  721   2.571   0.853   0.815  0.1513  0.3668 -0.0150
  241SOL    HW1  722   2.547   0.803   0.898 -0.3647 -1.3033  0.3105
  241SOL    HW2  723   2.509   0.927   0.791  0.8574  0.0182 -1.5268
  242SOL     OW  724   2.244   2.657   2.199  0.3327  0.6009 -0.1371
  242SOL    HW1  725   2.204   2.578   2.145  1.3372 -2.1211 -1.2788
  242SOL    HW2  726   2.344   2.640   2.207 -1.5991 -0.0161  1.1428
  243SOL     OW  727   0.751   2.236   1.485 -0.1596 -0.3003 -0.6183
  243SOL    HW1  728   0.776   2.327   1.521  1.2056 -2.5493 -0.7793
  243SOL    HW2  729   0.802   2.213   1.400  0.3135 -2.0380 -0.7505
  244SOL     OW  730   1.690   0.214   2.701  0.1400 -0.4138 -0.2592
  244SOL    HW1  731   1.725   0.260   2.621  0.7032 -0.0562  0.3729
  244SOL    HW2  732   1.640   0.127   2.679 -0.3501  1.9057 -1.0993
  245SOL     OW  733   1.246   0.174   1.293 -0.7758 -0.3123  0.2185
  245SOL    HW1  734   1.219   0.242   1.224  2.0829 -1.1588  0.3035
  245SOL    HW2  735   1.230   0.078   1.264 -0.6435  1.3392 -0.0385
  246SOL     OW  736   1.858   2.675   0.221 -0.6769  0.4577 -0.1692
  246SOL    HW1  737   1.876   2.601   0.152  2.3407  0.6103  0.2697
  246SOL    HW2  738   1.797   2.641   0.294  0.6556  4.4393  0.7117
  247SOL     OW  739   1.357   0.582   2.362 -0.5924  0.7476 -0.5080
  247SOL    HW1  740   1.260   0.550   2.349  1.5007  2.7066  0.6735
  247SOL    HW2  741   1.408   0.513   2.416 -1.3375 -1.2152  0.7595
  248SOL     OW  742   0.678   1.878   1.658  0.4367  0.3911  1.1026
  248SOL    HW1  743   0.770   1.909   1.636 -3.4737 -2.4258 -0.7812
  248SOL    HW2  744   0.641   1.935   1.733  1.1009 -1.3808  2.8009
  249SOL     OW  745   2.279   0.355   0.467  0.2886  0.0743  0.0110
  249SOL    HW1  746   2.219   0.434   0.441  0.4549  0.3178 -2.0260
  249SOL    HW2  747   2.243   0.309   0.554 -2.2969  1.6538 -0.1896
  250SOL     OW  748   0.040   0.554   0.252  0.7470 -0.5387  0.3515
  250SOL    HW1  749   0.041   0.517   0.343  1.1008  0.3956 -1.1449
  250SOL    HW2  750   3.098   0.651   0.253 -2.6766  2.3426 -1.7308
  251SOL     OW  751   1.337   0.552   2.987  0.3927  0.5734 -0.0760
  251SOL    HW1  752   1.436   0.550   3.002 -2.1048  1.7214 -2.0982
  251SOL    HW2  753   1.325   0.601   2.897 -0.1460 -1.6199  1.2644
  252SOL     OW  754   1.576   1.778   1.769  0.0624 -0.4852 -0.3615
  252SOL    HW1  755   1.551   1.796   1.672  2.5139 -1.0161 -3.5250
  252SOL    HW2  756   1.583   1.675   1.783 -0.0071 -1.7686  0.2446
  253SOL     OW  757   2.603   2.291   1.365 -0.1040 -0.0482 -0.2792
  253SOL    HW1  758   2.592   2.242   1.456  1.2092  0.4523  2.4326
  253SOL    HW2  759   2.693   2.337   1.363 -0.5569  0.5943  0.0827
  254SOL     OW  760   2.893   1.122   1.097 -0.1953  0.2559 -0.2402
  254SOL    HW1  761   2.935   1.199   1.148  0.5280  0.0925 -5.0269
  254SOL    HW2  762   2.895   1.134   0.998 -2.5654 -0.6835 -2.1919
  255SOL     OW  763   1.136   0.383   1.146 -0.4193 -0.2695  0.2284
  255SOL    HW1  764   1.058   0.322   1.127 -0.7149 -0.3782  0.6035
  255SOL    HW2  765   1.117   0.479   1.121  0.6176  1.2480 -1.9680
  256SOL     OW  766   1.746   2.389   1.144 -0.5247  0.5773 -0.2761
  256SOL    HW1  767   1.726   2.303   1.186 -0.5736  1.7172 -1.1717
  256SOL    HW2  768   1.836   2.377   1.097 -0.0123 -0.4319  0.6928
  257SOL     OW  769   0.615   3.087   2.512  0.1814 -0.2055 -0.5526
  257SOL    HW1  770   0.585   3.000   2.551 -2.1440  2.3714 -0.5135
  257SOL    HW2  771   0.548   0.015   2.438 -0.8533  0.0146 -4.6643
  258SOL     OW  772   0.880   2.084   0.590  0.2259 -0.3957 -0.1583
  258SOL    HW1  773   0.857   2.178   0.553  1.2759  2.4090  2.1940
  258SOL    HW2  774   0.799   2.022   0.603 -4.4521 -4.8902 -0.2635
  259SOL     OW  775   1.211   2.993   2.754 -0.1963  0.3436  0.1189
  259SOL    HW1  776   1.122   2.972   2.712  1.1389  2.0930  0.5915
  259SOL    HW2  777   1.277   2.954   2.688 -2.0315  0.6726 -1.0981
  260SOL     OW  778   2.222   0.603   1.381 -0.1630  0.0936 -0.0924
  260SOL    HW1  779   2.134   0.605   1.430  0.9784 -1.5195  1.1493
  260SOL    HW2  780   2.308   0.586   1.437  2.5569 -1.1978  1.5551
  261SOL     OW  781   0.647   0.559   2.525  0.1407  0.1810  0.1274
  261SOL    HW1  782   0.546   0.557   2.509 -0.6740 -0.8849 -0.3160
  261SOL    HW2  783   0.692   0.630   2.468 -0.4243 -1.4015 -3.0836
  262SOL     OW  784   0.188   2.305   2.028 -0.4492 -0.1538 -0.2574
  262SOL    HW1  785   0.205   2.315   2.130 -0.8110 -0.1899  0.2732
  262SOL    HW2  786   0.131   2.380   1.989 -2.7940 -1.0617 -1.5406
  263SOL     OW  787   0.049   1.621   2.406 -0.3448 -0.5212  0.1429
  263SOL    HW1  788   0.067   1.592   2.503  1.6845 -2.0169  1.9381
  263SOL    HW2  789   0.086   1.715   2.386 -1.2644  0.1154 -1.3804
  264SOL     OW  790   1.182   1.156   0.841 -0.0416 -0.2172  0.1846
  264SOL    HW1  791   1.113   1.081   0.854 -1.5207  0.4393 -2.3050
  264SOL    HW2  792   1.209   1.156   0.745  1.1440  0.1170  0.1737
  265SOL     OW  793   1.486   2.682   0.749  0.1273  0.2914  0.2659
  265SOL    HW1  794   1.388   2.668   0.737  1.0172  0.4216 -0.2393
  265SOL    HW2  795   1.511   2.750   0.821  2.1840  2.4450 -2.2415
  266SOL     OW  796   1.816   1.110   1.569 -0.5217  0.1046  0.1662
  266SOL    HW1  797   1.859   1.027   1.528 -1.0648 -0.1863 -0.4832
  266SOL    HW2  798   1.888   1.155   1.630  0.0255  0.9128  0.9909
  267SOL     OW  799   2.399   1.104   2.978  0.0001 -0.5730  0.0816
  267SOL    HW1  800   2.410   1.160   2.894  0.7306  0.6695 -0.7523
  267SOL    HW2  801   2.352   1.015   2.959 -0.5486  1.5707 -2.3670
  268SOL     OW  802   1.368   0.289   0.412 -0.3075  0.0469 -0.3005
  268SOL    HW1  803   1.444   0.273   0.480 -2.5767 -0.1365  2.0297
  268SOL    HW2  804   1.405   0.344   0.333 -1.8368  0.9999  1.2085
  269SOL     OW  805   3.096   0.821   2.634  0.0163  0.1707  0.6435
  269SOL    HW1  806   3.042   0.742   2.609  2.3189 -0.2482 -2.7360
  269SOL    HW2  807   3.051   0.895   2.693  0.4822  1.1295  0.9743
  270SOL     OW  808   0.162   1.281   2.844  0.6412  0.1001 -0.5718
  270SOL    HW1  809   0.089   1.338   2.882  3.0130  0.7166  0.7435
  270SOL    HW2  810   0.128   1.220   2.773  0.9567 -2.1837  0.1486
  271SOL     OW  811   2.742   0.857   0.166 -0.3538 -0.6642  0.3137
  271SOL    HW1  812   2.795   0.902   0.091 -1.5286 -0.3883 -1.5142
  271SOL    HW2  813   2.780   0.763   0.181 -1.2266 -1.6575  1.5370
  272SOL     OW  814   2.622   2.286   2.357 -0.1464 -0.2767 -0.0909
  272SOL    HW1  815   2.630   2.267   2.456 -1.3233 -0.3620 -1.6563
  272SOL    HW2  816   2.581   2.375   2.349 -1.2894 -5.4303  2.0992
  273SOL     OW  817   0.050   0.068   0.040  0.2515 -0.0876  0.1889
  273SOL    HW1  818   0.015   0.164   0.045  2.3503  1.9431  2.5371
  273SOL    HW2  819   0.090   0.035   0.127  0.6060 -1.3876  0.5847
  274SOL     OW  820   0.722   2.161   0.802  0.0193  0.0311  0.3370
  274SOL    HW1  821   0.736   2.063   0.841  0.0289 -1.4511 -0.0038
  274SOL    HW2  822   0.796   2.182   0.736  0.8715  1.4615 -0.0687
  275SOL     OW  823   2.040   0.668   0.669 -0.6355 -0.1958  0.4792
  275SOL    HW1  824   2.128   0.691   0.626 -0.8222 -2.0599 -0.8477
  275SOL    HW2  825   2.048   0.692   0.764 -0.7695 -2.6938 -0.0507
  276SOL     OW  826   2.533   1.437   1.132 -0.4453  0.7191 -0.6131
  276SOL    HW1  827   2.463   1.489   1.078 -0.7703 -0.0152 -0.4824
  276SOL    HW2  828   2.503   1.437   1.232  2.0087  0.4265  0.4756
  277SOL     OW  829   2.232   0.038   1.046 -0.0829  0.1786 -0.2259
  277SOL    HW1  830   2.323   0.037   1.088 -0.7918  0.7337  2.1334
  277SOL    HW2  831   2.175   0.116   1.069  0.0933  2.5313 -1.1131
  278SOL     OW  832   1.487   2.599   2.402  0.3151  0.2259  0.0279
  278SOL    HW1  833   1.431   2.533   2.351  0.4439 -0.5304 -0.4912
  278SOL    HW2  834   1.456   2.608   2.496 -1.4369 -2.3759 -1.6472
  279SOL     OW  835   1.368   2.045   1.044 -0.2026  0.0882 -0.2940
  279SOL    HW1  836   1.350   2.085   1.139  0.8220  1.1065  3.0498
  279SOL    HW2  837   1.441   2.098   0.993  0.3827 -1.1012 -2.0116
  280SOL     OW  838   0.491   1.112   1.150  0.2683  0.1775  0.1248
  280SOL    HW1  839   0.431   1.049   1.208 -0.4774 -2.0048  1.4842
  280SOL    HW2  840   0.584   1.081   1.147 -4.0065  2.4051 -0.8768
  281SOL     OW  841   2.467   1.317   2.761  0.3417 -0.1266  0.0911
  281SOL    HW1  842   2.438   1.410   2.771 -3.9914  1.2957  0.4380
  281SOL    HW2  843   2.567   1.311   2.760  1.2478  2.6814  1.7415
  282SOL     OW  844   0.424   1.624   0.304  0.4453 -0.3156  0.3982
  282SOL    HW1  845   0.358   1.636   0.381  0.0011 -0.6939 -1.0984
  282SOL    HW2  846   0.446   1.527   0.285  1.2936  1.4685 -1.6596
  283SOL     OW  847   1.937   2.531   3.080 -0.2074 -0.0703  0.6252
  283SOL    HW1  848   2.001   2.581   3.016 -0.8129  0.7101  1.9177
  283SOL    HW2  849   1.863   2.495   3.021  1.9089  1.4075  1.1487
  284SOL     OW  850   1.044   0.135   0.868  0.3912 -0.3535  0.5465
  284SOL    HW1  851   1.119   0.069   0.878 -1.1583  0.5517  2.2114
  284SOL    HW2  852   1.026   0.162   0.773 -2.8030  1.3782  1.1249
  285SOL     OW  853   2.160   1.171   2.774  0.4705  0.3185 -0.2908
  285SOL    HW1  854   2.192   1.260   2.727 -0.2698  2.1814 -2.4420
  285SOL    HW2  855   2.097   1.197   2.851 -2.7234  2.0516  0.3389
  286SOL     OW  856   1.837   2.612   0.843 -0.5074  0.2849  0.0130
  286SOL    HW1  857   1.856   2.517   0.868 -0.6610  3.5332 -0.0720
  286SOL    HW2  858   1.840   2.676   0.924 -0.4396  3.4707 -2.7510
  287SOL     OW  859   1.299   0.383   0.895  0.4637 -0.0493  0.2053
  287SOL    HW1  860   1.243   0.368   0.977 -0.9196  1.3673  3.0204
  287SOL    HW2  861   1.300   0.477   0.860  0.0842  1.2714  0.7548
  288SOL     OW  862   0.838   2.558   2.913 -0.2624  0.5108  0.1415
  288SOL    HW1  863   0.917   2.606   2.870  1.6276  1.4248 -3.3093
  288SOL    HW2  864   0.769   2.626   2.947  1.6884  1.3083  3.6278
  289SOL     OW  865   0.126   1.564   0.872  0.1674 -0.0115 -0.0530
  289SOL    HW1  866   0.107   1.502   0.953  1.6387  0.1311 -0.6013
  289SOL    HW2  867   0.083   1.654   0.905 -0.3999 -0.2354  0.1551
  290SOL     OW  868   1.104   1.937   0.964 -0.0326  0.2169 -0.0016
  290SOL    HW1  869   1.155   2.016   0.931 -1.4714  0.3131  0.4526
  290SOL    HW2  870   1.131   1.925   1.059 -1.6697  1.0221 -0.1476
  291SOL     OW  871   1.541   2.875   0.160  0.3863  0.2841 -0.1483
  291SOL    HW1  872   1.485   2.828   0.237  0.8816 -0.3180  0.3311
  291SOL    HW2  873   1.503   2.965   0.128 -0.7497  0.0918  2.0422
  292SOL     OW  874   0.538   0.514   2.220 -0.1392 -0.1801 -0.1424
  292SOL    HW1  875   0.454   0.473   2.264  1.7664 -1.4260  0.7119
  292SOL    HW2  876   0.551   0.611   2.248 -1.2480  1.2714 -0.9789
  293SOL     OW  877   2.634   1.982   0.981 -0.2376  0.5527  0.1391
  293SOL    HW1  878   2.567   1.903   0.955 -4.9827 -2.8545 -0.3364
  293SOL    HW2  879   2.586   2.055   1.032  0.2433  0.0740  2.0525
  294SOL     OW  880   0.715   0.302   2.211 -0.0790 -0.4370 -0.3352
  294SOL    HW1  881   0.652   0.383   2.215 -1.3198 -3.6772 -3.0325
  294SOL    HW2  882   0.660   0.218   2.190  1.8268 -2.8900  2.3008
  295SOL     OW  883   1.403   1.789   1.080 -0.4363 -1.1978  0.1773
  295SOL    HW1  884   1.358   1.756   1.164 -1.9460  1.6947 -0.5959
  295SOL    HW2  885   1.377   1.887   1.075 -2.2677 -2.0540  0.4394
  296SOL     OW  886   2.445   1.973   0.113  0.0120 -0.1243  0.2226
  296SOL    HW1  887   2.419   1.902   0.041 -1.0033 -0.8089 -1.5944
  296SOL    HW2  888   2.532   2.021   0.092 -1.8315  0.8505  1.9958
  297SOL     OW  889   2.386   0.143   0.298  0.6667 -0.0434 -0.1125
  297SOL    HW1  890   2.342   0.071   0.352 -0.2063  0.8256 -2.7982
  297SOL    HW2  891   2.388   0.228   0.350 -0.9950 -1.8909  1.5044
  298SOL     OW  892   0.854   0.095   2.879  0.3748 -0.3791 -0.5905
  298SOL    HW1  893   0.853   0.107   2.777 -0.8654  3.3845 -0.8930
  298SOL    HW2  894   0.899   0.180   2.916  0.0999 -0.0892  1.3698
  299SOL     OW  895   0.498   2.486   2.275  0.2205 -0.0944 -0.3772
  299SOL    HW1  896   0.500   2.420   2.200  2.2636  0.3149  1.3132
  299SOL    HW2  897   0.418   2.481   2.333 -1.5670  0.4805  1.5033
  300SOL     OW  898   2.898   3.095   2.477 -0.4665  0.1990 -0.3041
  300SOL    HW1  899   2.971   0.068   2.451  0.8588 -0.0328  1.3456
  300SOL    HW2  900   2.939   3.045   2.558 -1.3628  0.7621 -1.3571
  301SOL     OW  901   1.263   0.554   1.667  0.5921 -0.4043 -0.1519
  301SOL    HW1  902   1.364   0.546   1.684  0.2478 -0.4396  0.2795
  301SOL    HW2  903   1.227   0.476   1.618  2.9064  4.8901  1.0202
  302SOL     OW  904   2.963   2.439   2.874  0.3555 -0.0050 -0.1109
  302SOL    HW1  905   3.046   2.498   2.877  1.9866 -0.2183 -0.4478
  302SOL    HW2  906   2.918   2.427   2.778 -1.6554  1.1482 -0.8978
  303SOL     OW  907   2.195   2.273   1.414 -0.1652 -0.3162 -0.0813
  303SOL    HW1  908   2.094   2.289   1.435 -0.5615  0.8755 -1.3127
  303SOL    HW2  909   2.258   2.315   1.485  0.8247  2.2483 -1.5755
  304SOL     OW  910   2.766   0.908   1.453 -0.2201 -0.2138  0.6401
  304SOL    HW1  911   2.827   0.904   1.368  4.4594  0.2993 -1.9666
  304SOL    HW2  912   2.828   0.914   1.536  3.5398 -1.9796  1.8075
  305SOL     OW  913   0.658   1.693   0.842  0.2188  0.1548  0.6948
  305SOL    HW1  914   0.699   1.781   0.824 -1.1126  1.5092  1.3477
  305SOL    HW2  915   0.624   1.689   0.937  0.3957 -1.3083  0.7614
  306SOL     OW  916   0.400   1.582   2.346  0.1068  0.5445  0.0721
  306SOL    HW1  917   0.344   1.592   2.261 -1.2854  1.5256 -4.4566
  306SOL    HW2  918   0.445   1.668   2.359 -0.8525  0.0135  0.8374
  307SOL     OW  919   1.108   0.297   1.565  0.5002 -0.4375 -0.3542
  307SOL    HW1  920   1.111   0.223   1.635  0.6366 -0.7198  0.4977
  307SOL    HW2  921   1.075   0.266   1.475 -1.9521  0.5208  0.5079
  308SOL     OW  922   0.081   0.952   1.211 -0.1365  0.3281  0.5375
  308SOL    HW1  923   3.084   0.925   1.241 -1.6799  0.6083 -0.9604
  308SOL    HW2  924   0.065   0.969   1.112 -0.8651 -1.2523  0.2125
  309SOL     OW  925   2.612   1.158   1.101 -0.3456  0.0562 -0.0650
  309SOL    HW1  926   2.604   1.261   1.100  1.7563  1.0779  1.3061
  309SOL    HW2  927   2.708   1.122   1.115  0.1274  1.3180  0.2967
  310SOL     OW  928   0.139   1.876   2.342  0.5663  0.1003  0.0184
  310SOL    HW1  929   0.101   1.885   2.250 -1.2137  1.1981  3.6363
  310SOL    HW2  930   0.240   1.869   2.343 -1.3129  3.5779 -1.6520
  311SOL     OW  931   2.685   2.747   2.307  0.4051  0.5529 -0.0161
  311SOL    HW1  932   2.773   2.739   2.258 -1.3859 -2.9236  2.7557
  311SOL    HW2  933   2.689   2.791   2.403 -1.6486  0.6879  3.3404
  312SOL     OW  934   1.946   2.169   3.002 -0.1452 -0.1943 -0.0524
  312SOL    HW1  935   1.872   2.244   2.983 -3.8288  1.2853 -3.1751
  312SOL    HW2  936   2.037   2.195   2.959  0.7966 -1.5320 -0.0842
  313SOL     OW  937   0.049   2.930   0.836  0.2217 -0.3632 -0.1239
  313SOL    HW1  938   0.070   2.835   0.801 -1.5725 -0.6879 -0.2479
  313SOL    HW2  939   0.071   3.000   0.766 -1.1779  1.9442 -1.0235
  314SOL     OW  940   1.770   1.072   3.066 -0.0178 -0.2898 -0.4377
  314SOL    HW1  941   1.774   1.088   0.067  0.3766  2.2540  1.4114
  314SOL    HW2  942   1.841   1.126   3.021 -0.0326 -1.8712  0.5076
  315SOL     OW  943   1.584   3.093   2.620  0.5100 -0.4115  0.9412
  315SOL    HW1  944   1.586   0.042   2.532 -1.2217  0.1441  4.1713
  315SOL    HW2  945   1.497   3.039   2.626 -1.6113 -1.1420 -0.2868
  316SOL     OW  946   0.025   1.092   0.651  0.2484 -0.0040  0.0064
  316SOL    HW1  947   0.064   1.126   0.567 -0.3731  0.2588  0.8884
  316SOL    HW2  948   0.085   1.136   0.727  3.3803  4.9220  2.1596
  317SOL     OW  949   0.607   2.701   2.986 -0.3017 -0.2648  0.1244
  317SOL    HW1  950   0.524   2.743   2.938 -2.0940 -1.3027 -1.1846
  317SOL    HW2  951   0.625   2.750   3.075  1.6539  0.3585  2.5894
  318SOL     OW  952   2.788   2.449   1.036  0.4119 -0.2196 -0.3179
  318SOL    HW1  953   2.842   2.383   0.991 -1.7910  3.7256  0.7535
  318SOL    HW2  954   2.693   2.448   1.001  1.4455 -0.6064 -2.0823
  319SOL     OW  955   1.152   2.006   2.975  0.4050  0.1475 -0.2726
  319SOL    HW1  956   1.089   1.975   2.903  2.4424  0.1576  1.3843
  319SOL    HW2  957   1.215   1.928   2.999 -0.5949  0.0576 -2.0732
  320SOL     OW  958   0.633   1.926   1.214 -0.0741  0.9202 -0.4264
  320SOL    HW1  959   0.580   1.887   1.136 -1.6302 -1.5753 -1.3039
  320SOL    HW2  960   0.590   1.901   1.307 -1.7014  0.6171  2.1345
  321SOL     OW  961   1.151   2.761   2.359 -0.0867  0.2103  0.2724
  321SOL    HW1  962   1.060   2.792   2.332 -0.7215 -0.2571  0.2997
  321SOL    HW2  963   1.137   2.683   2.424  2.4191  1.2894  0.6643
  322SOL     OW  964   2.401   1.889   1.766  0.1865  0.4715 -0.2925
  322SOL    HW1  965   2.371   1.929   1.857 -0.7916  0.7183  2.8125
  322SOL    HW2  966   2.357   1.945   1.687  1.6651  0.6081 -3.0522
  323SOL     OW  967   2.958   0.645   0.850  0.8244  0.6273 -0.3129
  323SOL    HW1  968   2.911   0.705   0.778 -0.4535 -0.8858  0.0319
  323SOL    HW2  969   3.053   0.665   0.866 -2.5329 -3.1620 -1.0443
  324SOL     OW  970   2.689   2.879   2.522  0.3437  0.6715  0.4634
  324SOL    HW1  971   2.681   2.877   2.624 -4.5661 -0.0802  0.7867
  324SOL    HW2  972   2.754   2.950   2.487 -1.6182 -1.6336  0.1394
  325SOL     OW  973   1.045   0.387   2.712 -0.7201  0.0532 -0.1895
  325SOL    HW1  974   1.139   0.354   2.706 -3.3816 -0.4423  0.7531
  325SOL    HW2  975   0.991   0.356   2.631  0.0941 -1.6972 -0.3001
  326SOL     OW  976   1.881   2.611   1.733  0.1511  0.1651 -0.6421
  326SOL    HW1  977   1.782   2.635   1.717 -0.8171  1.8266  0.6289
  326SOL    HW2  978   1.931   2.697   1.749  3.2729 -0.7566  0.1535
  327SOL     OW  979   2.102   0.182   2.952  0.3931 -0.2878  0.2483
  327SOL    HW1  980   2.150   0.218   3.037  1.0547 -0.7780 -0.7432
  327SOL    HW2  981   2.132   0.086   2.938 -0.1259 -3.8298 -0.0057
  328SOL     OW  982   0.227   1.385   2.012 -0.3664  0.2930  0.0460
  328SOL    HW1  983   0.218   1.354   2.111  0.6414 -2.4649  2.8190
  328SOL    HW2  984   0.142   1.429   1.977  1.3203 -1.4733  0.6945
  329SOL     OW  985   1.935   0.497   1.709  0.1921 -0.5509 -0.3013
  329SOL    HW1  986   1.858   0.551   1.755 -3.5394  1.4407 -0.1452
  329SOL    HW2  987   2.025   0.523   1.750 -2.0169 -0.9590 -1.4588
  330SOL     OW  988   0.145   1.185   0.862  0.3756 -0.8069 -0.1680
  330SOL    HW1  989   0.093   1.096   0.881 -1.9181  0.1295  2.8685
  330SOL    HW2  990   0.109   1.254   0.931  0.1394  2.4180  1.3122
  331SOL     OW  991   0.009   1.821   2.063 -0.2102  0.6043  0.4801
  331SOL    HW1  992   3.032   1.753   2.071 -4.1607  0.0035  2.2972
  331SOL    HW2  993   0.104   1.777   2.072  0.5218 -0.7004 -2.4993
  332SOL     OW  994   3.074   2.592   1.658  0.0927 -0.6741 -0.2254
  332SOL    HW1  995   3.034   2.651   1.585 -0.2592  0.1797  0.4786
  332SOL    HW2  996   3.066   2.490   1.637 -0.2401 -1.7770 -1.8112
  333SOL     OW  997   2.513   0.163   0.954 -0.6122  0.5021 -0.8738
  333SOL    HW1  998   2.484   0.074   0.914  1.0710 -1.4352 -0.3540
  333SOL    HW2  999   2.617   0.158   0.961  1.3708 -3.0338 -0.8224
  334SOL     OW 1000   0.357   1.629   0.747  0.1585  0.1152 -0.4147
  334SOL    HW1 1001   0.437   1.570   0.779  0.3147  0.4896 -0.7482
  334SOL    HW2 1002   0.269   1.603   0.787 -0.2859 -0.0116 -0.9364
  335SOL     OW 1003   0.235   2.565   2.841  0.2748 -0.1672  0.0595
  335SOL    HW1 1004   0.177   2.537   2.759  0.5901  0.9288  0.3292
  335SOL    HW2 1005   0.265   2.477   2.887  2.0612 -1.3079 -0.6727
  336SOL     OW 1006   3.029   2.788   2.362  0.1739  0.1083 -0.3232
  336SOL    HW1 1007   2.980   2.861   2.306  0.7123 -1.4791 -2.6261
  336SOL    HW2 1008   0.007   2.751   2.311 -2.0138  2.2030  1.0961
  337SOL     OW 1009   1.802   2.514   2.042  0.1446 -0.0960  0.2484
  337SOL    HW1 1010   1.779   2.605   2.000  0.7284  0.5560 -0.7691
  337SOL    HW2 1011   1.749   2.442   1.994  1.6785 -0.6342  0.0888
  338SOL     OW 1012   0.715   2.860   0.075 -0.1485  0.0878 -0.5597
  338SOL    HW1 1013   0.659   2.893   0.154 -0.2319 -1.4230 -0.5455
  338SOL    HW2 1014   0.775   2.932   0.028  2.2000  0.8187 -1.9833
  339SOL     OW 1015   0.601   1.160   2.129  0.1029 -0.0889  0.3340
  339SOL    HW1 1016   0.572   1.211   2.214  1.1617 -1.0705 -0.8846
  339SOL    HW2 1017   0.627   1.231   2.058 -0.8558  3.7280 -0.1981
  340SOL     OW 1018   1.788   2.808   0.643  0.0686 -0.1253  0.0191
  340SOL    HW1 1019   1.793   2.728   0.704  1.3524  2.2630 -4.1238
  340SOL    HW2 1020   1.760   2.895   0.694 -1.9551  1.5142  0.5422
  341SOL     OW 1021   2.142   1.155   0.985  0.3134  0.1084 -0.3231
  341SOL    HW1 1022   2.102   1.108   0.904 -2.2927 -0.9641 -2.7368
  341SOL    HW2 1023   2.067   1.180   1.049 -2.6343 -0.4860 -0.9541
  342SOL     OW 1024   2.536   2.976   0.057 -0.2292 -0.8956  0.3882
  342SOL    HW1 1025   2.434   2.976   0.057 -1.7004  0.2834 -0.9172
  342SOL    HW2 1026   2.581   2.882   0.080  1.9664 -3.2712  0.8944
  343SOL     OW 1027   1.139   2.182   1.612  0.3971 -0.2028  0.6632
  343SOL    HW1 1028   1.104   2.273   1.592  1.2351 -0.8081 -0.2178
  343SOL    HW2 1029   1.233   2.177   1.647 -1.1625 -0.9165  1.6777
  344SOL     OW 1030   2.505   2.882   1.387 -0.2727 -1.0779 -0.0905
  344SOL    HW1 1031   2.461   2.934   1.465  1.6597  2.3221  0.4675
  344SOL    HW2 1032   2.600   2.857   1.415  0.9216 -0.5908  0.7449
  345SOL     OW 1033   2.592   2.111   2.833  0.9535  0.2847 -0.2352
  345SOL    HW1 1034   2.617   2.016   2.818 -1.9896  1.4873  0.7451
  345SOL    HW2 1035   2.600   2.143   2.933 -0.4455  0.1227  2.0510
  346SOL     OW 1036   2.388   2.144   0.611  0.1499 -0.4101  0.7063
  346SOL    HW1 1037   2.480   2.124   0.577  1.4137  1.0661 -0.5391
  346SOL    HW2 1038   2.389   2.155   0.713 -2.4474  1.3529  0.3915
  347SOL     OW 1039   1.570   2.107   1.504 -0.0797 -0.1911  0.2785
  347SOL    HW1 1040   1.497   2.119   1.573  1.3042 -0.9037  0.5192
  347SOL    HW2 1041   1.566   2.009   1.482 -2.1808  1.4240 -0.2380
  348SOL     OW 1042   0.489   1.836   2.263 -0.1441  0.4668  0.0961
  348SOL    HW1 1043   0.584   1.807   2.234  1.6734 -0.5716 -0.9168
  348SOL    HW2 1044   0.488   1.905   2.335  3.0743  0.3394 -0.3686
  349SOL     OW 1045   2.151   1.608   0.722  0.5149  0.3120 -0.2285
  349SOL    HW1 1046   2.155   1.506   0.713 -0.3478 -4.3728 -1.6739
  349SOL    HW2 1047   2.214   1.637   0.651  1.4428 -2.0313  0.1664
  350SOL     OW 1048   2.916   2.342   0.611 -0.2232 -0.1771  0.2870
  350SOL    HW1 1049   2.909   2.443   0.609  0.9214 -2.8413 -3.4000
  350SOL    HW2 1050   2.845   2.299   0.672 -3.5467 -0.2111  1.8804
  351SOL     OW 1051   0.614   2.872   1.779 -0.4317 -0.0688 -0.0320
  351SOL    HW1 1052   0.578   2.783   1.747 -1.9304 -0.2531  2.4013
  351SOL    HW2 1053   0.675   2.916   1.713 -1.6838  0.9700  2.6692
  352SOL     OW 1054   0.760   1.471   1.084 -0.0681  0.4500 -0.2324
  352SOL    HW1 1055   0.659   1.491   1.103  2.3896  0.3780 -0.3299
  352SOL    HW2 1056   0.774   1.415   0.999 -0.7600  3.4056  0.1379
  353SOL     OW 1057   1.226   1.190   2.569  0.3746  0.6976 -0.6619
  353SOL    HW1 1058   1.132   1.199   2.603  2.0899  1.5086 -1.3723
  353SOL    HW2 1059   1.294   1.158   2.638 -2.2225  0.6483  1.6643
  354SOL     OW 1060   1.365   0.093   1.552  0.2625 -0.4789 -0.1677
  354SOL    HW1 1061   1.286   0.125   1.491 -0.9137 -0.6184  0.6767
  354SOL    HW2 1062   1.427   0.172   1.565 -0.4350  0.4061  0.5095
  355SOL     OW 1063   2.212   1.356   0.741 -0.5860  0.2600  0.4927
  355SOL    HW1 1064   2.279   1.297   0.791 -1.0746 -1.4915 -0.9737
  355SOL    HW2 1065   2.221   1.334   0.643  1.5982 -0.3101 -1.0532
  356SOL     OW 1066   2.564   1.708   1.912 -0.5707 -0.2061  0.5496
  356SOL    HW1 1067   2.532   1.778   1.842 -2.5259  0.0929 -1.3291
  356SOL    HW2 1068   2.611   1.751   1.992  1.8184 -0.4682 -0.4580
  357SOL     OW 1069   0.553   2.908   1.403 -0.1595  0.9756  0.5944
  357SOL    HW1 1070   0.456   2.921   1.428  1.4845 -1.2374 -2.2813
  357SOL    HW2 1071   0.563   2.853   1.320  1.0999 -2.0363  2.7712
  358SOL     OW 1072   2.570   1.301   1.843  0.2215 -1.0652  0.1909
  358SOL    HW1 1073   2.565   1.382   1.908 -0.5744 -1.9622  2.3379
  358SOL    HW2 1074   2.499   1.317   1.765 -2.3354  1.2533 -1.1383
  359SOL     OW 1075   2.166   2.914   2.476  0.1883 -0.5615 -0.2136
  359SOL    HW1 1076   2.146   2.821   2.446  3.1589  2.7476  0.8376
  359SOL    HW2 1077   2.086   2.977   2.449 -0.6489  2.3963  0.0472
  360SOL     OW 1078   0.754   0.431   0.828 -0.0710  0.5914 -0.0139
  360SOL    HW1 1079   0.753   0.372   0.746  1.9282 -1.0809  0.0809
  360SOL    HW2 1080   0.701   0.383   0.902 -1.6811 -0.0970  0.2449
  361SOL     OW 1081   1.852   0.116   1.106  0.0339  0.1388  0.3211
  361SOL    HW1 1082   1.909   0.181   1.054 -0.6241 -0.4429 -1.3656
  361SOL    HW2 1083   1.817   0.160   1.194 -0.8672  1.7298 -0.1578
  362SOL     OW 1084   1.556   0.997   0.918 -0.6155  0.1584 -0.5358
  362SOL    HW1 1085   1.625   0.970   0.844  1.9269 -1.7783 -1.6862
  362SOL    HW2 1086   1.571   1.097   0.939  2.3408 -0.2774 -2.3541
  363SOL     OW 1087   2.274   1.438   2.301  0.0959  0.1297 -0.4032
  363SOL    HW1 1088   2.374   1.435   2.322 -1.0644  0.1397  1.3850
  363SOL    HW2 1089   2.260   1.428   2.203  2.5415 -1.2137  0.2798
  364SOL     OW 1090   0.268   3.092   1.261 -0.0149  0.4169 -0.3968
  364SOL    HW1 1091   0.273   3.043   1.349 -0.8930  0.5994  0.8233
  364SOL    HW2 1092   0.206   3.043   1.200  1.3581  0.9527  0.6132
  365SOL     OW 1093   0.158   3.021   2.935  0.5282  0.2636 -0.1010
  365SOL    HW1 1094   0.201   3.077   2.859  1.6692  1.3304 -1.5838
  365SOL    HW2 1095   0.098   3.073   2.997  0.5825 -0.2020 -2.7377
  366SOL     OW 1096   2.176   2.204   2.867 -0.0121  0.4528 -0.1911
  366SOL    HW1 1097   2.237   2.122   2.846 -2.3354  0.2018 -0.1875
  366SOL    HW2 1098   2.228   2.284   2.909  1.6486 -0.4550  0.4391
  367SOL     OW 1099   2.595   2.469   2.882  0.3510  0.2820  0.3904
  367SOL    HW1 1100   2.644   2.434   2.806 -0.6055  0.0486 -0.0928
  367SOL    HW2 1101   2.660   2.486   2.963  1.9710 -0.9827  1.7414
  368SOL     OW 1102   0.083   1.385   1.068  0.0592  0.0728 -0.0865
  368SOL    HW1 1103   0.002   1.365   1.125  1.4615  1.3978  0.5607
  368SOL    HW2 1104   0.171   1.358   1.109 -1.8945 -0.2602 -0.3153
  369SOL     OW 1105   0.572   2.776   2.679 -0.4720  0.0387  0.3122
  369SOL    HW1 1106   0.556   2.677   2.658 -1.6128  0.5747  1.9637
  369SOL    HW2 1107   0.641   2.793   2.753  1.0594  1.2654  0.2574
  370SOL     OW 1108   3.049   0.879   0.497 -0.9775 -0.3809  0.6154
  370SOL    HW1 1109   3.081   0.936   0.576 -0.3251  1.1192  1.0513
  370SOL    HW2 1110   2.971   0.824   0.525 -0.1513  0.5702 -0.7941
  371SOL     OW 1111   1.901   2.241   0.760  0.3521 -0.7023  0.6227
  371SOL    HW1 1112   1.983   2.240   0.698  1.4786 -1.6792 -0.9230
  371SOL    HW2 1113   1.850   2.150   0.750 -2.6189  0.2280  0.8433
  372SOL     OW 1114   0.068   1.000   3.018 -0.5490  0.2577 -0.6294
  372SOL    HW1 1115   0.032   0.918   3.065 -0.9980 -1.4752  1.2258
  372SOL    HW2 1116   0.173   0.996   3.008  1.6602 -2.4340 -0.7207
  373SOL     OW 1117   3.002   1.971   1.138  0.1729  0.5685 -0.0257
  373SOL    HW1 1118   3.068   2.001   1.209 -2.4640 -3.2299 -1.0795
  373SOL    HW2 1119   2.918   1.929   1.183 -0.7788  0.9540  0.5343
  374SOL     OW 1120   0.370   2.728   0.161  0.3802 -0.1774 -0.0143
  374SOL    HW1 1121   0.352   2.773   0.071  3.1484  2.0009  3.4805
  374SOL    HW2 1122   0.435   2.790   0.217 -0.8388  0.8247 -0.6424
  375SOL     OW 1123   0.287   0.239   0.073  0.0478  0.2032  0.4199
  375SOL    HW1 1124   0.229   0.242   3.088  0.9698  1.8058  0.2375
  375SOL    HW2 1125   0.229   0.248   0.153 -1.0642  0.0105 -1.1176
  376SOL     OW 1126   0.133   2.300   1.558  0.0467  0.4047 -0.2785
  376SOL    HW1 1127   0.035   2.298   1.580  3.3900 -1.5908 -0.7066
  376SOL    HW2 1128   0.147   2.286   1.456  0.4821 -1.7142 -1.7545
  377SOL     OW 1129   1.792   2.448   2.637  0.5994  0.0454 -0.5538
  377SOL    HW1 1130   1.871   2.436   2.572 -2.2941 -1.3315  3.2475
  377SOL    HW2 1131   1.703   2.417   2.597 -0.7956  0.4674 -0.7141
  378SOL     OW 1132   0.715   0.042   0.223  0.3333  0.1889  0.1983
  378SOL    HW1 1133   0.708   0.145   0.218 -2.2925  0.9990 -1.0496
  378SOL    HW2 1134   0.727   0.007   0.319  2.9569 -1.2113 -0.5374
  379SOL     OW 1135   0.470   1.335   0.573  0.3164  0.7345 -0.4886
  379SOL    HW1 1136   0.466   1.348   0.468 -1.0449  3.6705 -2.4923
  379SOL    HW2 1137   0.558   1.371   0.609 -1.9932 -0.8829 -2.3676
  380SOL     OW 1138   0.069   1.890   1.709  0.5066  0.9165  0.3868
  380SOL    HW1 1139   3.071   1.880   1.746 -2.9362 -1.2430 -0.9286
  380SOL    HW2 1140   0.117   1.967   1.754 -2.3396  0.6102 -0.6154
  381SOL     OW 1141   0.612   1.425   1.980 -0.4677  0.0325 -0.0397
  381SOL    HW1 1142   0.634   1.368   1.898 -1.0639 -0.5607  0.8710
  381SOL    HW2 1143   0.535   1.480   1.965  2.5122 -3.9098  1.5622
  382SOL     OW 1144   2.292   1.976   0.378  0.4062 -0.4241  0.2339
  382SOL    HW1 1145   2.338   2.040   0.440  1.8727 -1.0890 -0.1079
  382SOL    HW2 1146   2.345   1.974   0.290  1.2621  0.6022  0.9478
  383SOL     OW 1147   2.662   1.834   2.743 -0.1160 -0.1333  0.4880
  383SOL    HW1 1148   2.702   1.786   2.821  1.4013  0.9259 -1.2436
  383SOL    HW2 1149   2.735   1.857   2.675 -2.8649  0.4687  0.3545
  384SOL     OW 1150   0.500   2.020   2.436 -0.2161  0.0190  0.1183
  384SOL    HW1 1151   0.423   2.082   2.460  1.1275  1.4208 -2.4766
  384SOL    HW2 1152   0.590   2.072   2.427  0.5699  1.8428 -1.8340
  385SOL     OW 1153   2.803   1.741   0.905  0.0286 -0.0939 -0.1226
  385SOL    HW1 1154   2.796   1.672   0.979 -0.1804  1.1154  0.4602
  385SOL    HW2 1155   2.771   1.831   0.945  1.0329  2.8705  1.9194
  386SOL     OW 1156   1.989   1.325   1.170 -0.2779  0.2110  0.3233
  386SOL    HW1 1157   1.920   1.361   1.231  2.4713 -1.1999 -0.0207
  386SOL    HW2 1158   2.020   1.394   1.105 -1.4686 -2.7061  0.9068
  387SOL     OW 1159   2.975   0.998   2.000 -0.0980 -0.6582 -0.4004
  387SOL    HW1 1160   2.899   0.938   1.970  3.3232 -0.9750 -0.9286
  387SOL    HW2 1161   2.954   1.094   1.962 -0.3321  0.1341  0.0992
  388SOL     OW 1162   2.615   1.294   2.243  0.1302 -0.2991 -0.1932
  388SOL    HW1 1163   2.579   1.305   2.333 -1.0306 -1.4021 -1.3452
  388SOL    HW2 1164   2.607   1.372   2.185  3.9202 -1.6246  1.1372
  389SOL     OW 1165   2.022   1.330   2.184  0.1000  0.3642 -0.0140
  389SOL    HW1 1166   2.038   1.409   2.242  0.7874  0.2004  1.9600
  389SOL    HW2 1167   1.927   1.303   2.174  1.1443  0.5015  3.8454
  390SOL     OW 1168   2.015   2.730   0.474  0.0520  0.3630 -0.4699
  390SOL    HW1 1169   1.941   2.744   0.541 -2.5279  0.7369  0.0308
  390SOL    HW2 1170   1.988   2.688   0.385  2.7250  2.4620  1.6569
  391SOL     OW 1171   2.350   2.132   0.888  0.3608  0.3258  0.1342
  391SOL    HW1 1172   2.258   2.168   0.906  1.5418 -1.0321  2.1338
  391SOL    HW2 1173   2.415   2.160   0.961  1.0680  2.2426  1.4535
  392SOL     OW 1174   2.938   2.666   1.397 -0.0496  0.0485  0.6208
  392SOL    HW1 1175   2.889   2.581   1.375  0.8245  1.7356 -0.0458
  392SOL    HW2 1176   2.989   2.702   1.317 -0.7412  0.0563  1.9499
  393SOL     OW 1177   1.849   1.956   2.843 -0.1572 -0.4740  0.1236
  393SOL    HW1 1178   1.870   2.032   2.906  0.8798  1.6394 -0.7224
  393SOL    HW2 1179   1.763   1.958   2.793 -0.9746 -2.0830 -0.3931
  394SOL     OW 1180   0.248   0.578   2.774  0.8960 -0.0270  0.2745
  394SOL    HW1 1181   0.327   0.598   2.836  4.5346 -0.8026 -0.0589
  394SOL    HW2 1182   0.250   0.638   2.693  1.8149 -0.7974  1.6375
  395SOL     OW 1183   0.686   0.663   0.695 -0.4647  0.1382  0.0197
  395SOL    HW1 1184   0.732   0.580   0.726 -0.1831  2.6579 -1.2362
  395SOL    HW2 1185   0.757   0.731   0.670 -2.0015  0.9589  0.2504
  396SOL     OW 1186   1.072   1.112   0.270  0.0114  0.3417 -0.2255
  396SOL    HW1 1187   1.072   1.189   0.204 -0.0234 -1.0806 -1.5815
  396SOL    HW2 1188   1.168   1.081   0.283 -0.3848 -0.3944  1.3793
  397SOL     OW 1189   0.319   1.016   2.127  0.3974 -0.2166 -0.3125
  397SOL    HW1 1190   0.414   1.041   2.105 -0.5630  1.7434 -1.7947
  397SOL    HW2 1191   0.270   0.960   2.052  2.9923 -0.1531 -2.1389
  398SOL     OW 1192   0.888   3.034   0.433  0.2627 -0.2030  0.3190
  398SOL    HW1 1193   0.914   0.010   0.499 -2.4653  1.4321 -1.0479
  398SOL    HW2 1194   0.967   3.006   0.382 -2.5077  0.5901  2.5367
  399SOL     OW 1195   2.019   0.068   1.675  0.1736  0.2924  0.0073
  399SOL    HW1 1196   1.963   0.065   1.759  0.1202  0.5332 -1.1212
  399SOL    HW2 1197   2.042   3.078   1.630 -0.5868  1.2026 -0.2424
  400SOL     OW 1198   0.696   1.606   1.623 -0.1912  0.4885  0.0719
  400SOL    HW1 1199   0.796   1.600   1.597 -2.3353 -0.5344 -0.0366
  400SOL    HW2 1200   0.670   1.700   1.643 -1.5633 -2.4672  0.7404
  401SOL     OW 1201   0.617   1.043   2.674  0.6426  0.0590  0.5777
  401SOL    HW1 1202   0.670   0.967   2.713  2.9673 -0.1015  1.0831
  401SOL    HW2 1203   0.515   1.024   2.678 -1.9786  0.0535  0.2003
  402SOL     OW 1204   2.971   2.183   1.390  0.1442 -0.5753  0.0529
  402SOL    HW1 1205   2.941   2.100   1.437 -2.5006 -0.3582 -0.9157
  402SOL    HW2 1206   3.065   2.175   1.355  1.0405  1.4356  0.4417
  403SOL     OW 1207   0.122   0.910   1.928  0.1913 -0.9101  0.2141
  403SOL    HW1 1208   0.025   0.946   1.947 -0.6294  1.6516 -0.9500
  403SOL    HW2 1209   0.155   0.939   1.835  0.9210  0.2250 -1.8161
  404SOL     OW 1210   0.002   2.812   1.797  0.4147  0.5599 -0.4666
  404SOL    HW1 1211   0.104   2.815   1.813  0.6383  1.6049  0.2317
  404SOL    HW2 1212   3.078   2.727   1.743  0.6621  0.7072 -1.1120
  405SOL     OW 1213   0.596   0.244   1.811  0.2209 -0.2463  0.5126
  405SOL    HW1 1214   0.564   0.194   1.895  0.4522 -1.6532  0.5225
  405SOL    HW2 1215   0.650   0.183   1.755 -1.8601  0.5075  1.8393
  406SOL     OW 1216   1.626   2.247   2.311  0.7864 -0.0841 -0.0710
  406SOL    HW1 1217   1.648   2.349   2.308 -0.9004  3.8698  4.3103
  406SOL    HW2 1218   1.714   2.194   2.336  3.4486 -1.3017 -1.9713
  407SOL     OW 1219   1.384   1.339   2.394  0.3611  0.0566  0.1353
  407SOL    HW1 1220   1.363   1.283   2.315  0.6918  0.3327  1.3439
  407SOL    HW2 1221   1.317   1.322   2.466 -0.3087  2.4333 -1.1747
  408SOL     OW 1222   0.886   0.355   2.453 -0.4119  0.1235 -0.3599
  408SOL    HW1 1223   0.856   0.328   2.360  1.2539 -1.9304  0.0825
  408SOL    HW2 1224   0.809   0.399   2.507  1.9377 -2.1436 -2.6100
  409SOL     OW 1225   0.239   1.736   0.006  0.1100  0.0783  0.2579
  409SOL    HW1 1226   0.329   1.709   3.068 -3.9969  2.7813  0.0560
  409SOL    HW2 1227   0.249   1.799   0.086 -0.7339 -0.9572 -0.7867
  410SOL     OW 1228   2.731   1.694   0.234  0.6546 -0.2591  0.2448
  410SOL    HW1 1229   2.829   1.680   0.264  3.4445  0.4766  0.5593
  410SOL    HW2 1230   2.725   1.763   0.161  0.2510 -0.9604  1.3708
  411SOL     OW 1231   2.826   0.389   0.877  0.3332 -0.3955  0.3432
  411SOL    HW1 1232   2.878   0.473   0.881  1.9575  1.3142  0.7778
  411SOL    HW2 1233   2.758   0.390   0.801 -0.9570  0.1308 -1.5233
  412SOL     OW 1234   1.501   0.963   1.242 -0.5367  0.3565  0.3795
  412SOL    HW1 1235   1.588   0.942   1.192 -1.0816  0.0691 -0.1055
  412SOL    HW2 1236   1.538   1.003   1.331  2.2290  2.4958  1.8623
  413SOL     OW 1237   0.618   2.612   1.314 -0.2222  0.3347 -0.0546
  413SOL    HW1 1238   0.684   2.584   1.238 -0.2504  0.8806 -0.0321
  413SOL    HW2 1239   0.536   2.658   1.277  0.4448 -0.8252  1.8708
  414SOL     OW 1240   2.740   1.364   2.760 -0.0662 -0.2404  0.1443
  414SOL    HW1 1241   2.771   1.462   2.755  1.1651  3.5751 -1.0599
  414SOL    HW2 1242   2.746   1.336   2.855  1.4167 -0.5641 -2.5551
  415SOL     OW 1243   0.359   2.069   3.016  0.0390 -0.0155  0.2775
  415SOL    HW1 1244   0.428   2.002   2.991  2.4328  2.3261  2.9765
  415SOL    HW2 1245   0.272   2.026   3.038  1.1151  0.1721 -3.2782
  416SOL     OW 1246   1.675   0.026   0.332 -0.0127 -0.4507 -0.4735
  416SOL    HW1 1247   1.722   3.047   0.288 -1.9070  1.7469  0.0073
  416SOL    HW2 1248   1.673   0.110   0.280  0.4756 -1.8881 -0.1211
  417SOL     OW 1249   0.462   0.691   0.884 -0.0140  0.1020  0.7629
  417SOL    HW1 1250   0.447   0.795   0.881  4.0845  2.4186 -3.1088
  417SOL    HW2 1251   0.541   0.668   0.817 -0.5583 -1.3895 -1.8577
  418SOL     OW 1252   2.354   1.092   1.956 -0.1539  0.4130 -0.0225
  418SOL    HW1 1253   2.352   1.009   1.895  2.0649 -1.1410  1.7814
  418SOL    HW2 1254   2.446   1.121   1.977 -3.7634 -0.2956  1.2693
  419SOL     OW 1255   0.107   0.050   0.679 -0.4867 -0.7392  0.4583
  419SOL    HW1 1256   0.176   0.039   0.604  0.0707 -1.2935 -0.3981
  419SOL    HW2 1257   0.138   0.129   0.736 -1.6479  3.8661  1.7002
  420SOL     OW 1258   0.333   1.347   1.173 -0.1788  0.4443 -0.8423
  420SOL    HW1 1259   0.273   1.305   1.245 -3.6845  3.3101  1.4299
  420SOL    HW2 1260   0.411   1.286   1.140 -0.1737 -2.5961 -1.6898
  421SOL     OW 1261   1.143   2.534   0.816  0.0368 -0.5401 -0.7509
  421SOL    HW1 1262   1.101   2.544   0.724  0.0554  0.8686  0.4242
  421SOL    HW2 1263   1.181   2.441   0.822 -3.8996 -0.6353 -0.6989
  422SOL     OW 1264   0.138   0.713   1.478  0.2969 -0.1667 -0.1768
  422SOL    HW1 1265   0.109   0.701   1.381 -0.0996  0.8474  1.6872
  422SOL    HW2 1266   0.241   0.743   1.486  1.6515 -1.0238  4.2898
  423SOL     OW 1267   1.296   1.123   1.168 -0.0139  0.6029  0.3389
  423SOL    HW1 1268   1.371   1.055   1.191  0.9236 -0.8329 -0.0971
  423SOL    HW2 1269   1.277   1.124   1.069 -1.3578  1.2129  1.3884
  424SOL     OW 1270   1.957   1.270   2.976  0.4515  0.0996  0.2135
  424SOL    HW1 1271   2.039   1.301   3.030 -0.7493 -1.3536 -0.8752
  424SOL    HW2 1272   1.925   1.338   2.905 -0.1684  0.0797 -2.8268
  425SOL     OW 1273   0.041   0.472   2.052  0.2134  0.5130  0.2510
  425SOL    HW1 1274   0.111   0.542   2.074 -0.0337 -2.9646  0.5697
  425SOL    HW2 1275   3.056   0.496   2.103  2.6352  0.0334 -1.7246
  426SOL     OW 1276   3.098   2.687   2.970 -0.1105 -0.1621 -0.9546
  426SOL    HW1 1277   0.083   2.695   2.921  0.2540  0.4587  1.8531
  426SOL    HW2 1278   0.010   2.701   3.070  1.2579  0.8415 -1.0223
  427SOL     OW 1279   1.049   0.777   2.454 -0.1233 -0.0597  0.6499
  427SOL    HW1 1280   1.101   0.865   2.436  0.2436  2.0455  0.2108
  427SOL    HW2 1281   1.073   0.750   2.550  2.6935 -0.3848 -1.7069
  428SOL     OW 1282   2.404   1.290   1.617 -0.2116 -0.2979 -0.2778
  428SOL    HW1 1283   2.452   1.220   1.566 -1.2873 -1.2867 -0.6041
  428SOL    HW2 1284   2.305   1.286   1.599  2.9053  0.7345 -0.6259
  429SOL     OW 1285   2.465   2.537   0.691 -0.1936 -0.1347 -0.2644
  429SOL    HW1 1286   2.439   2.467   0.618  2.0948 -0.8436 -4.1176
  429SOL    HW2 1287   2.398   2.612   0.691  2.7733  0.5150  0.0321
  430SOL     OW 1288   1.311   1.834   2.472 -0.1906 -0.6314 -0.4067
  430SOL    HW1 1289   1.240   1.757   2.483 -0.7190 -0.0426  0.9885
  430SOL    HW2 1290   1.303   1.885   2.384 -1.7647  0.0148  1.8237
  431SOL     OW 1291   3.007   1.551   1.511 -0.0260 -0.1661  0.0792
  431SOL    HW1 1292   3.039   1.461   1.542 -0.1022 -0.3881  0.2672
  431SOL    HW2 1293   2.939   1.588   1.579 -2.4861  1.2941  0.9382
  432SOL     OW 1294   1.382   2.892   2.576  0.2804 -0.2210  0.8500
  432SOL    HW1 1295   1.400   2.887   2.475 -1.8477  0.1185 -3.1462
  432SOL    HW2 1296   1.401   2.801   2.617 -1.8310  0.6439 -0.8434
  433SOL     OW 1297   1.756   0.311   2.271  0.7289 -0.2758  0.0349
  433SOL    HW1 1298   1.825   0.297   2.194  1.3707 -0.7558  0.3159
  433SOL    HW2 1299   1.708   0.401   2.263 -0.9488  0.2827  1.5500
  434SOL     OW 1300   0.203   2.833   2.081 -0.7099 -0.2310 -0.6159
  434SOL    HW1 1301   0.188   2.746   2.137  1.5416  0.1418  0.7008
  434SOL    HW2 1302   0.249   2.810   1.993  0.4483  1.3406 -1.8221
  435SOL     OW 1303   0.028   2.426   0.177  0.0383 -0.7612 -0.4360
  435SOL    HW1 1304   0.074   2.432   0.268  0.5185 -0.3518 -1.6773
  435SOL    HW2 1305   0.028   2.520   0.138  1.7155 -0.2282  0.1820
  436SOL     OW 1306   0.699   0.768   2.092 -0.1025  0.3173 -0.0912
  436SOL    HW1 1307   0.623   0.743   2.026  1.1283  2.3186  0.1796
  436SOL    HW2 1308   0.764   0.840   2.059  1.7558  2.9853  1.4694
  437SOL     OW 1309   0.367   2.805   2.512 -0.3347 -0.4995  0.6449
  437SOL    HW1 1310   0.399   2.834   2.419  2.7202 -1.7365 -1.7783
  437SOL    HW2 1311   0.440   2.783   2.578 -1.5312 -0.7843  2.0056
  438SOL     OW 1312   0.469   1.455   1.596 -0.4902  0.3214  0.3142
  438SOL    HW1 1313   0.482   1.359   1.564 -0.9072 -0.0617 -2.2151
  438SOL    HW2 1314   0.563   1.503   1.612 -1.1381 -0.6937  2.1243
  439SOL     OW 1315   2.119   0.939   2.651 -0.1804  0.4599  0.2433
  439SOL    HW1 1316   2.199   0.888   2.620 -0.3472 -2.7110  1.1080
  439SOL    HW2 1317   2.139   1.036   2.670  0.4051  0.6606 -0.7241
  440SOL     OW 1318   0.273   0.581   0.127  0.2960 -0.2475 -0.1270
  440SOL    HW1 1319   0.348   0.522   0.164 -0.5132  1.6556 -0.7179
  440SOL    HW2 1320   0.182   0.572   0.179 -2.9924 -0.8011  2.4032
  441SOL     OW 1321   1.200   2.350   1.331 -0.3603  0.2336  0.4668
  441SOL    HW1 1322   1.240   2.431   1.282  1.8060  1.5116  1.6692
  441SOL    HW2 1323   1.143   2.379   1.406  1.5544  1.3632 -1.0733
  442SOL     OW 1324   2.729   1.420   0.819  0.5363  0.3075  0.0869
  442SOL    HW1 1325   2.765   1.456   0.909 -0.8675  3.1322  1.6745
  442SOL    HW2 1326   2.634   1.447   0.799  0.1363  0.5133 -2.0628
  443SOL     OW 1327   2.563   1.931   2.299  0.2270 -0.4387  0.2142
  443SOL    HW1 1328   2.526   2.008   2.241  1.2232 -0.7616  0.2112
  443SOL    HW2 1329   2.531   1.837   2.277  1.7763 -0.7536 -1.0775
  444SOL     OW 1330   1.600   1.361   0.028 -0.6947  0.0679 -0.8486
  444SOL    HW1 1331   1.642   1.279   0.067 -1.3202 -1.2024 -0.3872
  444SOL    HW2 1332   1.524   1.407   0.085 -1.7668  3.1891  0.6116
  445SOL     OW 1333   2.640   2.993   2.094  0.0714  0.2782 -0.2912
  445SOL    HW1 1334   2.654   2.942   2.010 -0.0444  1.8036  1.6393
  445SOL    HW2 1335   2.672   3.092   2.079  1.1059  1.4029  0.1133
  446SOL     OW 1336   0.344   0.966   1.314 -0.5111  0.4656 -0.4843
  446SOL    HW1 1337   0.371   0.902   1.388  1.6433  0.2899 -1.9443
  446SOL    HW2 1338   0.246   0.959   1.291  2.7857 -1.6232 -1.0785
  447SOL     OW 1339   1.113   1.746   0.762 -0.4276  0.2399  0.2796
  447SOL    HW1 1340   1.107   1.823   0.826 -0.0889 -2.1753 -0.1064
  447SOL    HW2 1341   1.047   1.753   0.685 -1.1274  0.3041  1.0069
  448SOL     OW 1342   1.376   0.909   1.655 -0.2774  0.4846  0.7507
  448SOL    HW1 1343   1.383   0.997   1.712 -0.2044  2.1531 -0.5945
  448SOL    HW2 1344   1.292   0.851   1.674 -2.9576  0.0925  1.5843
  449SOL     OW 1345   3.035   2.219   2.286 -0.1119  0.0549  0.6122
  449SOL    HW1 1346   3.011   2.318   2.263 -0.1481  1.0271 -1.1130
  449SOL    HW2 1347   3.026   2.159   2.201 -0.2226 -1.3595 -2.2549
  450SOL     OW 1348   2.883   1.925   1.749  0.0490 -0.1315  0.0297
  450SOL    HW1 1349   2.872   1.979   1.662 -0.6634 -2.3107 -0.9976
  450SOL    HW2 1350   2.830   1.979   1.815 -0.7183  0.7336  1.6594
  451SOL     OW 1351   2.391   0.794   1.249  0.2789  0.2355 -0.2217
  451SOL    HW1 1352   2.328   0.727   1.291  0.4014  2.8732 -0.3768
  451SOL    HW2 1353   2.422   0.760   1.159  0.2636 -0.1073  2.1302
  452SOL     OW 1354   0.806   1.350   0.840  0.2139  0.1045  0.1866
  452SOL    HW1 1355   0.907   1.367   0.830  0.0715 -0.9813 -2.3573
  452SOL    HW2 1356   0.754   1.393   0.759 -1.7689  1.3985 -1.1726
  453SOL     OW 1357   0.817   1.921   0.876  0.2000 -0.3602 -0.0442
  453SOL    HW1 1358   0.849   1.924   0.781  0.0123  1.2246  0.0486
  453SOL    HW2 1359   0.903   1.937   0.931 -1.5406 -1.3026 -0.1441
  454SOL     OW 1360   0.456   1.643   2.979 -0.3429 -0.0962  0.3298
  454SOL    HW1 1361   0.483   1.696   2.896 -1.2443  0.2765 -1.5073
  454SOL    HW2 1362   0.493   1.551   2.977 -2.8749  0.0102 -0.6131
  455SOL     OW 1363   1.847   0.829   0.560  0.0118 -0.3781  0.2641
  455SOL    HW1 1364   1.908   0.750   0.592  4.7905 -0.8994  1.6654
  455SOL    HW2 1365   1.788   0.805   0.480 -1.2785  2.1968 -1.3178
  456SOL     OW 1366   2.168   2.565   0.910 -0.1750 -0.0078 -0.2220
  456SOL    HW1 1367   2.197   2.596   0.815  1.1667  3.9960  0.8574
  456SOL    HW2 1368   2.246   2.579   0.973 -2.6989  1.7266  0.3964
  457SOL     OW 1369   1.652   2.785   2.794  0.3569 -0.0768 -0.4660
  457SOL    HW1 1370   1.647   2.884   2.811 -0.6479 -0.8186 -0.7015
  457SOL    HW2 1371   1.733   2.763   2.733 -2.0219 -0.5803  0.5766
  458SOL     OW 1372   2.154   0.574   0.373  0.3208 -0.1470  0.0237
  458SOL    HW1 1373   2.196   0.648   0.424 -3.2935 -3.3725 -0.1151
  458SOL    HW2 1374   2.073   0.595   0.316  0.1746 -0.0672 -1.0391
  459SOL     OW 1375   3.077   0.909   2.236  0.4296  0.6799 -0.9061
  459SOL    HW1 1376   3.053   0.980   2.305  0.8898  1.2481 -2.5816
  459SOL    HW2 1377   3.036   0.945   2.146 -1.0297  2.3187 -0.6260
  460SOL     OW 1378   0.563   0.832   3.011 -0.0244  0.3174 -0.3400
  460SOL    HW1 1379   0.618   0.812   2.928 -0.5966 -3.3992  0.9398
  460SOL    HW2 1380   0.498   0.751   3.022 -0.2315 -5.6194 -0.3518
  461SOL     OW 1381   2.676   2.702   0.710 -0.9323  0.6964  0.3380
  461SOL    HW1 1382   2.734   2.688   0.793  0.3418  2.4684 -0.6227
  461SOL    HW2 1383   2.598   2.635   0.717 -0.4341 -2.4420  0.1784
  462SOL     OW 1384   0.241   0.145   1.529 -0.2448 -0.1165  0.1393
  462SOL    HW1 1385   0.184   0.224   1.495 -0.5000 -0.0288 -0.3965
  462SOL    HW2 1386   0.328   0.143   1.481  1.3329 -1.2798 -0.8617
  463SOL     OW 1387   2.074   2.451   2.092 -0.0692  0.0609 -0.6544
  463SOL    HW1 1388   2.052   2.350   2.093 -1.4154  1.6787  0.6697
  463SOL    HW2 1389   1.983   2.497   2.095 -1.3217 -2.4739  1.2594
  464SOL     OW 1390   0.765   0.166   1.545 -0.0144  0.1202  0.7578
  464SOL    HW1 1391   0.848   0.157   1.481  2.7440 -0.4302 -2.2209
  464SOL    HW2 1392   0.766   0.264   1.580 -2.1592  2.0876  0.0956
  465SOL     OW 1393   0.744   2.985   1.569 -0.3168 -0.4844  0.0345
  465SOL    HW1 1394   0.672   2.975   1.498 -2.2515  0.6668  0.0523
  465SOL    HW2 1395   0.762   3.087   1.573 -1.9379 -1.0890  0.5035
  466SOL     OW 1396   1.271   2.020   1.919  0.1827  0.4877  0.1541
  466SOL    HW1 1397   1.182   2.066   1.932 -0.4215 -0.0481  0.5262
  466SOL    HW2 1398   1.258   1.941   1.855 -0.4142 -3.0849 -0.5977
  467SOL     OW 1399   0.221   1.697   1.121 -0.2476  0.0177 -0.3146
  467SOL    HW1 1400   0.181   1.619   1.177 -0.6877 -1.3943  0.9596
  467SOL    HW2 1401   0.155   1.740   1.061 -0.1247 -1.9556  2.4968
  468SOL     OW 1402   2.466   1.824   2.544 -0.4394  0.1254 -0.6985
  468SOL    HW1 1403   2.530   1.829   2.625 -3.1692  1.2516  1.3952
  468SOL    HW2 1404   2.498   1.873   2.462  0.7473 -1.1376  0.8077
  469SOL     OW 1405   1.134   2.080   0.690  0.2461 -0.7141 -0.2600
  469SOL    HW1 1406   1.212   2.022   0.661 -2.0876 -1.2248 -2.1272
  469SOL    HW2 1407   1.047   2.058   0.644  0.4358  2.6756 -1.4636
  470SOL     OW 1408   2.341   1.596   1.027  0.1780  0.3948 -0.6148
  470SOL    HW1 1409   2.368   1.676   1.094  0.9801  2.7596 -0.3766
  470SOL    HW2 1410   2.239   1.569   1.047 -1.0711 -1.5895  1.3686
  471SOL     OW 1411   0.307   2.331   2.935  0.3248 -0.0446  0.1152
  471SOL    HW1 1412   0.297   2.230   2.947 -0.8646 -0.1195 -2.5553
  471SOL    HW2 1413   0.370   2.366   3.009  1.3073 -1.9033  1.2724
  472SOL     OW 1414   2.731   1.850   2.074 -0.4198  0.0322  0.4141
  472SOL    HW1 1415   2.748   1.930   2.017 -0.3853 -0.7227 -0.1651
  472SOL    HW2 1416   2.704   1.884   2.163 -1.4164  1.8571 -0.2668
  473SOL     OW 1417   0.846   2.618   0.854 -0.3202  0.2101  0.3630
  473SOL    HW1 1418   0.919   2.547   0.861 -2.7805  1.5479 -0.2046
  473SOL    HW2 1419   0.844   2.672   0.768 -0.2468  0.3638  1.4319
  474SOL     OW 1420   3.021   0.208   1.184  0.2460  0.3372  0.1437
  474SOL    HW1 1421   2.931   0.241   1.143 -2.0918 -2.3128 -1.2857
  474SOL    HW2 1422   3.018   0.158   1.270  1.0380 -1.2684 -1.9903
  475SOL     OW 1423   1.705   2.944   1.754  0.2489  0.4783  0.0730
  475SOL    HW1 1424   1.755   3.032   1.764 -1.7437  0.2607  1.7465
  475SOL    HW2 1425   1.629   2.943   1.686  0.5122  2.1717  0.7881
  476SOL     OW 1426   0.290   0.570   1.051 -0.5890 -0.2696  0.5136
  476SOL    HW1 1427   0.371   0.606   0.994 -0.7513 -0.9641  0.2273
  476SOL    HW2 1428   0.319   0.503   1.118 -1.0676 -3.2629  0.0947
  477SOL     OW 1429   0.888   2.250   0.998  0.4501  0.2950  0.0838
  477SOL    HW1 1430   0.816   2.204   0.942  1.2860  0.0732 -1.8784
  477SOL    HW2 1431   0.977   2.257   0.949  1.4247  0.4753 -1.7424
  478SOL     OW 1432   0.350   2.227   2.543 -0.2441  0.0105  0.2556
  478SOL    HW1 1433   0.409   2.217   2.622 -2.0686  0.1004 -0.3250
  478SOL    HW2 1434   0.270   2.170   2.551 -0.0623  0.4393  0.0035
  479SOL     OW 1435   0.478   0.697   1.960  0.3142 -0.1058 -0.1153
  479SOL    HW1 1436   0.385   0.693   2.007 -3.2640 -1.6428  0.6378
  479SOL    HW2 1437   0.482   0.625   1.887 -1.9727 -1.4505 -1.3628
  480SOL     OW 1438   3.076   2.261   3.074  0.4718  0.1771  0.0988
  480SOL    HW1 1439   3.013   2.308   3.009 -2.9072  1.3005  1.8238
  480SOL    HW2 1440   0.000   2.323   0.055 -0.2315  1.6642  2.0778
  481SOL     OW 1441   1.566   2.054   1.985 -0.6050 -0.2966  0.1968
  481SOL    HW1 1442   1.613   2.003   2.059 -2.6511  2.8632 -1.1652
  481SOL    HW2 1443   1.534   1.985   1.914  0.9664 -0.2791 -0.2898
  482SOL     OW 1444   1.481   2.257   2.536  0.2014 -0.2271  0.0184
  482SOL    HW1 1445   1.415   2.180   2.560 -0.7478 -4.0285 -0.4566
  482SOL    HW2 1446   1.530   2.246   2.448  0.4024 -1.7518 -1.8706
  483SOL     OW 1447   0.710   2.365   2.765  0.6011 -0.2343  0.0183
  483SOL    HW1 1448   0.753   2.446   2.813  1.1954  0.0466  0.9539
  483SOL    HW2 1449   0.786   2.315   2.719 -0.1133  0.7152  0.9538
  484SOL     OW 1450   0.202   0.259   1.169 -0.0020  0.0035  0.1066
  484SOL    HW1 1451   0.106   0.275   1.201  1.9989  0.2856 -0.0283
  484SOL    HW2 1452   0.231   0.165   1.181 -1.5415  1.8758 -0.5669
  485SOL     OW 1453   1.930   0.421   0.608 -0.0864  0.3959  0.3339
  485SOL    HW1 1454   1.874   0.404   0.690  0.2255 -0.5655  1.9089
  485SOL    HW2 1455   1.966   0.517   0.613  0.6496  1.3320 -0.3237
  486SOL     OW 1456   1.799   2.854   2.170 -0.5876 -0.1816  0.3333
  486SOL    HW1 1457   1.902   2.844   2.157 -0.2271  0.2558  2.9018
  486SOL    HW2 1458   1.789   2.882   2.266 -1.0942  1.5726 -2.6468
  487SOL     OW 1459   1.717   2.052   0.691 -0.1846 -0.2062  0.2741
  487SOL    HW1 1460   1.686   1.956   0.692 -0.0065  2.8837  0.1912
  487SOL    HW2 1461   1.677   2.109   0.622  1.9850 -3.0892  2.6236
  488SOL     OW 1462   2.323   1.091   0.286  0.5012  0.3862  0.0320
  488SOL    HW1 1463   2.307   0.997   0.248 -2.2990 -2.2193 -0.2208
  488SOL    HW2 1464   2.331   1.156   0.211  0.2591 -0.5579  3.0914
  489SOL     OW 1465   2.496   0.173   0.594 -0.2266 -0.2711 -0.1500
  489SOL    HW1 1466   2.454   0.260   0.570  1.4952  3.1242  0.5242
  489SOL    HW2 1467   2.429   0.095   0.582  1.7771 -1.1650  1.1056
  490SOL     OW 1468   1.515   2.695   3.034  0.3443 -0.1505  0.1180
  490SOL    HW1 1469   1.504   2.752   0.018 -0.8277  1.3338 -0.4351
  490SOL    HW2 1470   1.569   2.755   2.971 -3.4750 -0.9715  2.9177
  491SOL     OW 1471   0.915   0.569   1.031 -0.2244  0.0980 -0.3448
  491SOL    HW1 1472   1.003   0.614   1.013  1.2269 -0.7959 -0.6744
  491SOL    HW2 1473   0.886   0.512   0.951  2.5831  0.0220 -0.6616
  492SOL     OW 1474   1.608   0.198   0.120 -0.3915  0.3075 -0.3678
  492SOL    HW1 1475   1.546   0.116   0.123 -1.9216 -0.6663  0.9104
  492SOL    HW2 1476   1.647   0.216   0.025  0.6564 -0.5813  0.9696
  493SOL     OW 1477   1.775   2.397   2.909  0.2806 -0.2653 -0.4799
  493SOL    HW1 1478   1.687   2.348   2.920  0.8395 -1.2850  0.4525
  493SOL    HW2 1479   1.779   2.431   2.815 -0.9679  0.9878  1.6297
  494SOL     OW 1480   0.315   1.128   0.659 -0.3378  0.1500 -0.1330
  494SOL    HW1 1481   0.358   1.208   0.620  1.0444 -1.7250  2.0937
  494SOL    HW2 1482   0.253   1.155   0.742 -1.3869 -0.1173  1.0474
  495SOL     OW 1483   3.036   0.096   1.469 -0.0240  0.4122 -0.0376
  495SOL    HW1 1484   3.072   0.191   1.482 -1.0781  0.0910 -1.1621
  495SOL    HW2 1485   3.047   0.044   1.556  2.0159 -2.2387 -1.0351
  496SOL     OW 1486   2.564   0.071   1.571 -0.0955 -0.6774 -0.1781
  496SOL    HW1 1487   2.644   0.032   1.526  1.1982 -0.7966 -0.9748
  496SOL    HW2 1488   2.584   0.107   1.668 -0.4776  1.9009  1.5288
  497SOL     OW 1489   1.571   1.746   2.553 -0.2057  0.1856 -0.1234
  497SOL    HW1 1490   1.542   1.655   2.580  2.3121 -1.8083 -2.6029
  497SOL    HW2 1491   1.498   1.783   2.500  3.5814 -0.9254  1.0034
  498SOL     OW 1492   0.446   1.878   0.701 -0.0971  0.4175  0.6293
  498SOL    HW1 1493   0.415   1.782   0.725  1.3611  1.7809  0.1621
  498SOL    HW2 1494   0.393   1.940   0.761 -3.5925 -0.9177 -0.9535
  499SOL     OW 1495   0.091   1.539   1.319  0.2194  0.0646 -0.4291
  499SOL    HW1 1496   0.085   1.442   1.289  1.2841  2.0593  1.3425
  499SOL    HW2 1497   0.023   1.558   1.395 -1.1782  2.7444 -0.2659
  500SOL     OW 1498   1.176   2.443   0.412  0.4129  0.7417 -0.7099
  500SOL    HW1 1499   1.210   2.348   0.438 -1.5191 -0.5539 -1.0543
  500SOL    HW2 1500   1.103   2.475   0.470 -0.9055 -1.2367 -1.8559
  501SOL     OW 1501   2.378   2.626   1.069 -0.1436  0.1384 -0.4524
  501SOL    HW1 1502   2.448   2.698   1.095 -0.5685  2.0892 -0.5922
  501SOL    HW2 1503   2.382   2.545   1.134 -3.6377  2.0252  0.7058
  502SOL     OW 1504   0.035   0.942   1.576  0.0317 -0.6516 -0.1821
  502SOL    HW1 1505   0.116   0.977   1.628 -0.6824  1.3244 -0.4389
  502SOL    HW2 1506   0.049   0.846   1.537 -1.5533  0.6014  1.0903
  503SOL     OW 1507   2.463   0.214   1.864  0.7915 -0.3980 -0.4127
  503SOL    HW1 1508   2.470   0.240   1.961 -0.8879 -3.6448 -0.0650
  503SOL    HW2 1509   2.407   0.279   1.812 -0.9125 -3.0111  2.9086
  504SOL     OW 1510   1.733   0.596   1.885 -0.3827  0.6102 -0.7286
  504SOL    HW1 1511   1.666   0.612   1.964 -0.7933 -1.7282 -0.6488
  504SOL    HW2 1512   1.753   0.689   1.845  2.0529 -0.1343 -0.8416
  505SOL     OW 1513   1.302   0.187   2.744  0.5624  0.0672 -0.1423
  505SOL    HW1 1514   1.244   0.106   2.764  0.9706 -1.5792  0.2041
  505SOL    HW2 1515   1.333   0.223   2.836  2.1289  3.7511 -1.1081
  506SOL     OW 1516   0.490   0.529   1.745 -0.4350 -0.0366  0.1618
  506SOL    HW1 1517   0.569   0.571   1.686  1.3571  1.1696  0.7469
  506SOL    HW2 1518   0.500   0.427   1.765  2.5808 -0.2665  1.1807
  507SOL     OW 1519   1.565   3.018   2.936  0.3953 -0.7479  0.3858
  507SOL    HW1 1520   1.567   0.021   2.936 -2.2143 -1.2492  1.5251
  507SOL    HW2 1521   1.469   2.987   2.948 -0.2728  2.6737  0.7373
  508SOL     OW 1522   2.365   0.338   2.792 -0.3456 -0.0401  0.1390
  508SOL    HW1 1523   2.371   0.373   2.887 -1.2377 -0.7046 -0.3937
  508SOL    HW2 1524   2.370   0.233   2.788  1.1440 -0.9085  2.7546
  509SOL     OW 1525   0.950   1.418   1.818  0.3486  0.5919 -0.0850
  509SOL    HW1 1526   0.960   1.497   1.881  1.3528  0.6225 -0.4881
  509SOL    HW2 1527   1.001   1.434   1.732  3.3388  1.2264 -0.5100
  510SOL     OW 1528   0.002   0.968   0.955  0.3572  0.6694 -0.0444
  510SOL    HW1 1529   0.051   0.876   0.946  2.1212 -1.6409 -0.7177
  510SOL    HW2 1530   3.005   0.961   0.917 -2.3263 -1.9418  1.5535
  511SOL     OW 1531   1.659   1.694   1.134  0.2625  0.7266 -0.0871
  511SOL    HW1 1532   1.573   1.752   1.110 -1.5619 -0.9541 -0.6737
  511SOL    HW2 1533   1.646   1.597   1.108  0.4394  2.1637  0.8027
  512SOL     OW 1534   0.754   1.351   0.052  1.1103 -0.4450 -0.0771
  512SOL    HW1 1535   0.651   1.362   0.033 -0.9034  1.8008 -2.3601
  512SOL    HW2 1536   0.805   1.436   0.026  2.0142  2.4087 -0.7261
  513SOL     OW 1537   0.169   2.476   0.392  0.3847 -0.1425  0.1688
  513SOL    HW1 1538   0.141   2.571   0.409 -1.1720 -0.2690 -0.6192
  513SOL    HW2 1539   0.257   2.458   0.443 -0.1885 -0.1065 -0.9174
  514SOL     OW 1540   0.089   1.674   2.862  0.4340 -0.3660  0.7182
  514SOL    HW1 1541   0.135   1.679   2.952 -0.5121 -0.0283  0.3988
  514SOL    HW2 1542   0.072   1.576   2.847  0.7203 -1.4709  1.2298
  515SOL     OW 1543   2.531   0.520   0.356 -0.1524 -0.3701 -0.0450
  515SOL    HW1 1544   2.511   0.621   0.329  1.7959  3.8042 -2.5078
  515SOL    HW2 1545   2.452   0.486   0.412 -0.4901 -2.1870 -2.6166
  516SOL     OW 1546   2.558   2.836   1.111 -0.3024 -0.1636  0.3344
  516SOL    HW1 1547   2.541   2.886   1.197  0.2268  0.7448 -1.8567
  516SOL    HW2 1548   2.512   2.884   1.032  0.4332  0.1620  0.3610
  517SOL     OW 1549   1.295   1.750   2.944 -0.5078 -0.0318 -0.2725
  517SOL    HW1 1550   1.387   1.791   2.975 -0.3220 -0.4368  1.9344
  517SOL    HW2 1551   1.254   1.690   3.021 -2.6423 -1.8647  1.2551
  518SOL     OW 1552   1.149   0.783   1.719 -0.0121  0.0428 -0.0109
  518SOL    HW1 1553   1.058   0.800   1.677  0.1840  0.9296  1.2791
  518SOL    HW2 1554   1.179   0.683   1.714 -0.6265  0.2410 -0.3710
  519SOL     OW 1555   2.797   1.708   0.633 -0.2650 -0.4708 -0.1236
  519SOL    HW1 1556   2.788   1.709   0.740  2.1296  1.5783 -2.5103
  519SOL    HW2 1557   2.804   1.613   0.600 -1.6815 -0.0143 -0.3397
  520SOL     OW 1558   2.090   2.447   1.822 -0.1222  0.0816  0.1170
  520SOL    HW1 1559   2.064   2.430   1.917  0.3620  0.0960 -0.0603
  520SOL    HW2 1560   2.015   2.501   1.780  0.6458 -1.5802  2.1639
  521SOL     OW 1561   0.975   2.969   2.603 -0.3095 -0.2643 -0.0552
  521SOL    HW1 1562   0.925   3.052   2.578 -1.0252  1.2042  1.8052
  521SOL    HW2 1563   0.964   2.893   2.536  1.9697  0.6203  1.2294
  522SOL     OW 1564   2.542   0.481   2.622 -0.2004  0.9961 -0.4527
  522SOL    HW1 1565   2.540   0.432   2.532  1.7612 -0.3887  0.6062
  522SOL    HW2 1566   2.480   0.425   2.686 -1.6967 -0.7701  2.4777
  523SOL     OW 1567   1.551   2.391   1.630  0.7389  0.3674  0.1230
  523SOL    HW1 1568   1.575   2.478   1.673 -2.1451 -1.2245 -0.3880
  523SOL    HW2 1569   1.630   2.348   1.576  0.8096 -0.7344  0.2204
  524SOL     OW 1570   1.537   2.202   2.870 -0.6333  0.3308  0.5658
  524SOL    HW1 1571   1.484   2.271   2.813  1.2688  1.7469  0.6624
  524SOL    HW2 1572   1.598   2.147   2.812  0.2498 -0.7951  0.5403
  525SOL     OW 1573   0.066   0.853   0.262  0.4468  0.0659 -0.2632
  525SOL    HW1 1574   0.003   0.864   0.343  2.0571  1.1432  0.9362
  525SOL    HW2 1575   0.159   0.883   0.277 -0.1950 -0.9193 -0.6705
  526SOL     OW 1576   0.802   3.020   0.811  0.1303  0.2834  0.1118
  526SOL    HW1 1577   0.874   3.087   0.829 -3.4224  0.5791  1.1769
  526SOL    HW2 1578   0.714   3.063   0.782  1.3372 -0.1208  1.3288
  527SOL     OW 1579   2.582   1.777   0.495 -0.1297  0.0568  0.1281
  527SOL    HW1 1580   2.668   1.752   0.548 -1.6176 -0.5400 -2.1368
  527SOL    HW2 1581   2.596   1.732   0.401  1.5045 -2.5277 -3.1838
  528SOL     OW 1582   0.834   1.063   2.242 -0.6384 -0.4340 -0.0102
  528SOL    HW1 1583   0.827   1.081   2.343  3.3059 -2.8150  1.4506
  528SOL    HW2 1584   0.743   1.070   2.195 -0.1740  0.2381 -2.1165
  529SOL     OW 1585   1.240   1.576   2.748 -0.0634  0.2941  0.3137
  529SOL    HW1 1586   1.297   1.630   2.818  0.4337 -0.1952 -1.4175
  529SOL    HW2 1587   1.301   1.542   2.674 -0.7998 -0.1658  0.9438
  530SOL     OW 1588   1.664   1.260   2.431 -0.5351  0.8887 -0.3153
  530SOL    HW1 1589   1.568   1.287   2.407 -0.0629  1.2755  0.4000
  530SOL    HW2 1590   1.673   1.189   2.504  1.4369  0.5533  1.2554
  531SOL     OW 1591   0.520   2.183   2.753 -0.6623 -0.4963 -0.5788
  531SOL    HW1 1592   0.441   2.203   2.812  0.1218 -0.5617  0.5306
  531SOL    HW2 1593   0.599   2.248   2.771 -0.0437 -2.5534 -0.4334
  532SOL     OW 1594   2.304   0.764   0.524  0.1574 -0.1588  0.1200
  532SOL    HW1 1595   2.265   0.856   0.532  1.9880 -0.9088  1.8760
  532SOL    HW2 1596   2.404   0.770   0.496  0.8148 -0.3251 -0.0452
  533SOL     OW 1597   3.073   0.392   1.770 -0.1762 -0.0696 -0.0661
  533SOL    HW1 1598   0.059   0.446   1.751  0.7615  0.9159  0.5654
  533SOL    HW2 1599   3.061   0.404   1.868 -0.2505  0.3016 -4.7084
  534SOL     OW 1600   1.415   0.020   0.102  0.6667  0.2634  0.4145
  534SOL    HW1 1601   1.344   0.071   0.159  0.3338  0.9669 -1.6207
  534SOL    HW2 1602   1.375   3.090   0.011  1.0594 -2.5351  1.4207
  535SOL     OW 1603   0.401   0.003   0.055  0.1368  0.1899 -0.4251
  535SOL    HW1 1604   0.342   3.042   3.095  1.1085  0.9421  0.6395
  535SOL    HW2 1605   0.368   0.098   0.062 -1.9916 -1.0884 -0.5103
  536SOL     OW 1606   0.357   1.626   1.402  0.1765 -0.8222  0.0493
  536SOL    HW1 1607   0.265   1.619   1.353  0.5635  1.4050  0.8062
  536SOL    HW2 1608   0.370   1.541   1.463  0.7478  2.9364  3.1067
  537SOL     OW 1609   0.448   2.526   1.849  0.3488  0.2564  0.0796
  537SOL    HW1 1610   0.435   2.475   1.763  0.9784  0.8913  0.3447
  537SOL    HW2 1611   0.448   2.456   1.926  3.7629  0.1529  3.4631
  538SOL     OW 1612   3.063   1.634   0.059  0.7797 -0.4741  0.0857
  538SOL    HW1 1613   0.051   1.685   0.048  0.2522  0.2267 -0.6317
  538SOL    HW2 1614   3.035   1.630   0.157  1.0607  1.5205 -0.5878
  539SOL     OW 1615   2.660   0.725   2.675  0.6091  0.3394 -0.2596
  539SOL    HW1 1616   2.614   0.638   2.653  0.1660  0.6735  0.9680
  539SOL    HW2 1617   2.650   0.795   2.600  1.6052  1.6158 -0.8421
  540SOL     OW 1618   1.720   0.697   2.608 -0.0452 -0.3068  0.5240
  540SOL    HW1 1619   1.678   0.636   2.682 -1.2332 -1.8053  1.2351
  540SOL    HW2 1620   1.803   0.658   2.573 -4.7324  3.9487 -1.2384
  541SOL     OW 1621   0.821   0.068   1.901  0.7481 -0.1223  0.0965
  541SOL    HW1 1622   0.769   3.091   1.946  2.5766 -1.2705 -0.4094
  541SOL    HW2 1623   0.845   0.145   1.961  2.1179 -1.9979  1.7345
  542SOL     OW 1624   1.889   2.727   2.637 -0.1506 -0.3054 -0.2569
  542SOL    HW1 1625   1.859   2.774   2.552 -1.7341  0.1214 -1.3165
  542SOL    HW2 1626   1.861   2.628   2.635 -0.0398 -0.4321  2.8313
  543SOL     OW 1627   0.562   0.003   0.756  0.0098  0.3482 -0.0717
  543SOL    HW1 1628   0.486   3.064   0.811 -1.0444 -1.0108  1.0914
  543SOL    HW2 1629   0.528   0.086   0.711  1.6571  1.9864  1.3125
  544SOL     OW 1630   2.480   1.491   2.049 -0.3926  0.2315  0.4916
  544SOL    HW1 1631   2.497   1.565   1.976  1.2212 -2.1950 -0.7685
  544SOL    HW2 1632   2.395   1.439   2.035  2.1354  0.0792  0.9533
  545SOL     OW 1633   1.834   1.831   1.281 -0.0890  0.3384 -0.2027
  545SOL    HW1 1634   1.774   1.768   1.229 -0.9382 -0.0908 -0.8855
  545SOL    HW2 1635   1.908   1.776   1.331  0.3396 -1.5556  0.7316
  546SOL     OW 1636   0.211   0.160   2.213 -0.8725  0.2567  0.6030
  546SOL    HW1 1637   0.265   0.220   2.144 -0.1110 -2.6176 -0.2157
  546SOL    HW2 1638   0.157   0.088   2.158 -0.4930 -2.6820 -1.2244
  547SOL     OW 1639   1.173   0.667   1.048  0.7176 -0.0002 -0.0937
  547SOL    HW1 1640   1.222   0.715   1.123 -0.0322 -3.6085  2.6402
  547SOL    HW2 1641   1.235   0.651   0.970  1.0424 -0.4223 -0.8593
  548SOL     OW 1642   1.336   2.355   2.775  0.1412 -0.5801  0.1378
  548SOL    HW1 1643   1.236   2.375   2.798 -2.8142  1.4987 -0.4791
  548SOL    HW2 1644   1.351   2.349   2.674 -0.3211  4.4151 -0.6252
  549SOL     OW 1645   2.220   0.235   0.096 -0.4829  0.4123 -0.2485
  549SOL    HW1 1646   2.135   0.261   0.144 -0.2125 -1.1916 -1.4799
  549SOL    HW2 1647   2.279   0.184   0.161  0.5189 -1.8657  1.3916
  550SOL     OW 1648   2.811   1.984   0.646 -0.6926  0.2007  0.0041
  550SOL    HW1 1649   2.834   1.885   0.636  0.8583 -1.5213  3.8008
  550SOL    HW2 1650   2.750   2.014   0.573  1.3345  1.4892 -0.6133
  551SOL     OW 1651   0.927   2.871   2.103 -0.0478 -0.1140  0.0856
  551SOL    HW1 1652   0.976   2.859   2.017 -0.0315  0.5551  0.7411
  551SOL    HW2 1653   0.922   2.972   2.123  1.1277  2.2636  2.4824
  552SOL     OW 1654   3.040   2.198   2.690 -0.3814 -0.2038  0.3442
  552SOL    HW1 1655   2.961   2.155   2.649 -0.0689  0.2453  2.6840
  552SOL    HW2 1656   3.025   2.199   2.793 -3.7296 -0.4621  0.8322
  553SOL     OW 1657   0.261   2.734   1.008  0.4014  0.3305 -0.6299
  553SOL    HW1 1658   0.173   2.767   1.036  2.0439  1.6894  0.3625
  553SOL    HW2 1659   0.256   2.650   0.959  1.5320  1.0078  1.6025
  554SOL     OW 1660   2.321   2.021   1.545 -0.0540 -0.1116  0.1831
  554SOL    HW1 1661   2.242   2.052   1.601 -2.9416  1.3244 -2.3337
  554SOL    HW2 1662   2.289   2.018   1.451  1.0943 -0.7822  1.3934
  555SOL     OW 1663   1.633   2.322   1.940 -0.5193  0.5998 -0.5090
  555SOL    HW1 1664   1.603   2.229   1.976  2.0476 -1.8135 -3.1585
  555SOL    HW2 1665   1.556   2.388   1.941 -2.7535  1.2039  0.0404
  556SOL     OW 1666   1.605   1.480   0.869  0.5505  0.2579 -0.4518
  556SOL    HW1 1667   1.697   1.518   0.849 -2.0535 -2.0311 -2.0370
  556SOL    HW2 1668   1.532   1.551   0.863 -3.7173  1.3045  1.0525
  557SOL     OW 1669   1.443   2.939   1.654  0.5762  0.6226 -0.3059
  557SOL    HW1 1670   1.408   2.904   1.747 -0.3614 -0.7302  1.4927
  557SOL    HW2 1671   1.391   3.019   1.628  0.6428  0.1616  1.2704
  558SOL     OW 1672   0.164   0.132   1.797 -0.0474 -0.0384 -0.3260
  558SOL    HW1 1673   0.159   0.217   1.856 -0.0243  0.2698  1.1546
  558SOL    HW2 1674   0.211   0.152   1.714 -1.4906 -2.5445  4.3736
  559SOL     OW 1675   2.195   2.939   0.823 -0.3527 -0.3129 -0.2683
  559SOL    HW1 1676   2.162   2.902   0.909  0.6891  0.4799 -0.1819
  559SOL    HW2 1677   2.137   3.019   0.796  0.4588  0.9905 -0.2120
  560SOL     OW 1678   1.592   2.402   0.743  0.0296  0.0491 -0.6896
  560SOL    HW1 1679   1.556   2.487   0.787  2.7151 -0.8135 -2.4774
  560SOL    HW2 1680   1.572   2.318   0.799  0.5703 -0.8194  1.9773
  561SOL     OW 1681   0.966   0.157   0.587  0.2132 -0.1354  0.2349
  561SOL    HW1 1682   1.055   0.208   0.587  0.9770 -1.1070  1.7397
  561SOL    HW2 1683   0.887   0.220   0.584 -0.0520 -0.8796  0.7985
  562SOL     OW 1684   0.537   1.278   2.364  0.1737 -0.3962 -0.2393
  562SOL    HW1 1685   0.555   1.377   2.347  0.5066 -0.8804  0.3936
  562SOL    HW2 1686   0.584   1.248   2.449  2.0033  1.4098 -1.1620
  563SOL     OW 1687   1.373   2.198   2.165  0.1630  0.2477  1.1069
  563SOL    HW1 1688   1.382   2.125   2.090  3.4241 -1.0487 -2.8544
  563SOL    HW2 1689   1.467   2.224   2.204  0.3932  2.4462  1.1963
  564SOL     OW 1690   2.846   0.920   0.846 -0.0835  0.5041  0.5092
  564SOL    HW1 1691   2.852   1.022   0.828  3.2102  1.7401  0.3851
  564SOL    HW2 1692   2.753   0.877   0.835  1.6448  2.7037 -2.4627
  565SOL     OW 1693   0.542   0.990   0.128 -0.1697 -0.0029  0.6691
  565SOL    HW1 1694   0.564   0.960   0.032  0.7213  2.5237 -2.1830
  565SOL    HW2 1695   0.619   1.051   0.156  3.0500  1.5700 -0.7948
  566SOL     OW 1696   2.508   0.010   2.920  0.3621 -0.1348 -0.0454
  566SOL    HW1 1697   2.511   3.058   3.008 -1.1259  1.6796  1.0350
  566SOL    HW2 1698   2.415   0.004   2.873  0.2304 -0.2792 -0.1766
  567SOL     OW 1699   1.471   0.739   0.937  0.2556  0.4202 -0.4658
  567SOL    HW1 1700   1.560   0.690   0.948 -1.0777 -1.5267  0.6340
  567SOL    HW2 1701   1.483   0.838   0.938 -1.3213  2.8099  0.5505
  568SOL     OW 1702   1.572   1.955   2.755 -0.0713 -0.2232  0.0862
  568SOL    HW1 1703   1.570   1.904   2.844  0.0513 -1.8481 -1.0143
  568SOL    HW2 1704   1.582   1.892   2.676  0.3948 -0.4898  0.4668
  569SOL     OW 1705   2.155   1.363   0.061 -0.6978  0.4122 -0.1036
  569SOL    HW1 1706   2.159   1.460   0.085  0.0940  0.8534  0.4658
  569SOL    HW2 1707   2.250   1.328   0.062 -0.0123  1.7345  0.2507
  570SOL     OW 1708   0.066   2.538   1.921 -0.3098  0.2151 -0.4147
  570SOL    HW1 1709   0.142   2.610   1.935  0.8914  2.4522  1.0744
  570SOL    HW2 1710   0.017   2.555   1.835 -0.7078  0.3201 -0.2465
  571SOL     OW 1711   2.831   1.670   1.716  0.0829 -0.0484  0.1323
  571SOL    HW1 1712   2.862   1.765   1.705  0.3404 -0.8752  0.5737
  571SOL    HW2 1713   2.829   1.638   1.811 -2.4604  2.1494 -2.3640
  572SOL     OW 1714   1.656   1.954   0.392  0.2922  0.0118  0.3176
  572SOL    HW1 1715   1.606   1.900   0.461 -0.7108 -0.3924 -2.1960
  572SOL    HW2 1716   1.717   2.031   0.432  1.8227  2.1558 -1.2505
  573SOL     OW 1717   1.814   2.178   0.395 -0.5456  0.0072  0.5228
  573SOL    HW1 1718   1.852   2.203   0.303  0.5649  1.4641 -2.8202
  573SOL    HW2 1719   1.782   2.259   0.442 -1.0943 -1.3336 -0.7985
  574SOL     OW 1720   0.975   0.128   1.374  0.1986 -0.0726  0.3787
  574SOL    HW1 1721   1.064   0.082   1.388 -1.4859 -0.0052 -2.3979
  574SOL    HW2 1722   0.964   0.157   1.275  0.1323  0.7955  2.9946
  575SOL     OW 1723   0.765   1.006   1.818  0.1097 -0.0684 -0.2773
  575SOL    HW1 1724   0.738   1.110   1.816 -0.8963  3.2300  0.4273
  575SOL    HW2 1725   0.826   0.985   1.899  0.6540  0.4968 -1.6330
  576SOL     OW 1726   2.657   0.411   1.554  0.3741 -0.3866 -0.5422
  576SOL    HW1 1727   2.747   0.458   1.579  1.1981 -1.1224  0.4923
  576SOL    HW2 1728   2.675   0.332   1.492  0.1779 -1.2653  0.1463
  577SOL     OW 1729   1.200   1.026   2.353  0.0065  0.1400 -0.1928
  577SOL    HW1 1730   1.211   1.086   2.436 -0.5400  1.2718  0.7847
  577SOL    HW2 1731   1.282   0.965   2.351  1.6462 -0.7247  0.5006
  578SOL     OW 1732   2.176   1.390   2.590  0.0751 -0.3193  0.0499
  578SOL    HW1 1733   2.082   1.360   2.568  1.9605 -1.1036  0.7308
  578SOL    HW2 1734   2.226   1.411   2.500  2.5499  0.0098 -1.3202
  579SOL     OW 1735   1.376   2.170   1.711  0.1522  0.3653  0.0101
  579SOL    HW1 1736   1.368   2.117   1.798 -0.6913  0.7920 -0.7848
  579SOL    HW2 1737   1.448   2.236   1.702 -0.6041 -3.2620 -0.5899
  580SOL     OW 1738   1.285   2.206   0.423  0.2744 -0.2769 -0.0188
  580SOL    HW1 1739   1.267   2.128   0.485  0.4975  3.5211 -0.6313
  580SOL    HW2 1740   1.292   2.170   0.329 -3.9006 -1.1893 -0.9323
  581SOL     OW 1741   1.397   0.856   2.096 -0.1875 -0.0364 -0.0534
  581SOL    HW1 1742   1.295   0.849   2.082  0.1510  2.3142  1.4130
  581SOL    HW2 1743   1.424   0.877   2.195 -0.2766 -0.9621  0.5314
  582SOL     OW 1744   0.694   1.259   1.765 -0.5976  0.4084 -0.5054
  582SOL    HW1 1745   0.785   1.308   1.776 -1.6859 -0.3829 -0.2994
  582SOL    HW2 1746   0.681   1.222   1.665 -0.1523  1.3230 -5.5900
  583SOL     OW 1747   1.014   1.240   2.025 -0.5895 -1.0445  0.4960
  583SOL    HW1 1748   0.980   1.147   2.024  3.2507  1.7126  0.2211
  583SOL    HW2 1749   0.985   1.297   1.950 -1.0785 -1.3276  2.1290
  584SOL     OW 1750   2.542   2.461   0.932 -0.3267 -0.0066 -0.3666
  584SOL    HW1 1751   2.526   2.456   0.832  1.0122  0.7802  1.8958
  584SOL    HW2 1752   2.463   2.509   0.981 -3.1190  0.7743  0.0461
  585SOL     OW 1753   2.044   0.186   2.665  0.2618  0.0645  0.0301
  585SOL    HW1 1754   1.961   0.220   2.618  1.7245 -1.7176  3.6934
  585SOL    HW2 1755   2.062   0.232   2.757  0.5375 -1.8073 -1.8477
  586SOL     OW 1756   0.083   2.285   0.597 -0.3393  0.1959  0.1449
  586SOL    HW1 1757   3.080   2.302   0.612 -2.4123 -0.8484  1.0907
  586SOL    HW2 1758   0.110   2.322   0.505 -0.3762 -0.8074 -0.2113
  587SOL     OW 1759   1.553   1.820   2.993  0.2310  0.0554 -0.5884
  587SOL    HW1 1760   1.559   1.878   3.079 -1.0595  0.6835  0.1851
  587SOL    HW2 1761   1.607   1.735   2.997  0.8389 -2.3100  1.6437
  588SOL     OW 1762   0.418   0.387   1.242 -0.1999  0.0415  0.3898
  588SOL    HW1 1763   0.463   0.311   1.294  0.7302  3.2023 -0.6046
  588SOL    HW2 1764   0.321   0.363   1.233  1.9976  1.2856 -2.7169
  589SOL     OW 1765   1.277   0.628   0.777 -0.0903 -0.1293 -0.3368
  589SOL    HW1 1766   1.330   0.689   0.837 -0.5477  2.2523  1.1987
  589SOL    HW2 1767   1.192   0.677   0.753  0.8047  0.5303  0.7690
  590SOL     OW 1768   1.291   1.241   3.007 -0.2396  0.6823 -0.2864
  590SOL    HW1 1769   1.352   1.297   3.065 -2.8386 -1.3749 -1.9650
  590SOL    HW2 1770   1.198   1.268   3.019  2.4620 -1.0309 -1.6880
  591SOL     OW 1771   2.536   2.548   2.383  0.3693  0.0402  0.2037
  591SOL    HW1 1772   2.464   2.574   2.450 -0.5019  0.6167 -1.4613
  591SOL    HW2 1773   2.593   2.625   2.364 -1.7462  0.2436 -3.6021
  592SOL     OW 1774   1.917   2.285   1.460  0.3456  0.0987 -0.2603
  592SOL    HW1 1775   1.887   2.233   1.380  2.9520  0.0626  0.6400
  592SOL    HW2 1776   1.861   2.259   1.540  2.0664 -0.3431  0.0449
  593SOL     OW 1777   0.630   0.294   1.077 -0.6976  0.0436 -0.2294
  593SOL    HW1 1778   0.608   0.191   1.072  1.6198 -2.1021 -0.8295
  593SOL    HW2 1779   0.555   0.340   1.127  0.4768 -2.4103 -0.2752
  594SOL     OW 1780   2.639   0.911   2.460 -0.4032  0.1582  0.5888
  594SOL    HW1 1781   2.697   0.993   2.474  0.1411 -0.5318  0.1067
  594SOL    HW2 1782   2.675   0.853   2.385  1.3218  2.5861  1.7016
  595SOL     OW 1783   0.323   3.027   0.914  0.1998  0.4115 -0.0145
  595SOL    HW1 1784   0.283   2.932   0.913 -2.8383 -4.1362 -0.6420
  595SOL    HW2 1785   0.254   0.002   0.928 -1.2055  1.6791 -1.7677
  596SOL     OW 1786   0.151   1.256   1.355  0.1907  0.0299  0.5478
  596SOL    HW1 1787   0.126   1.274   1.455  1.4522  0.1230 -0.6499
  596SOL    HW2 1788   0.100   1.178   1.315 -1.2124 -1.2472  1.6660
  597SOL     OW 1789   1.840   1.549   0.402  0.2784  0.6876 -0.1683
  597SOL    HW1 1790   1.867   1.470   0.462 -0.2963 -0.6641 -0.4539
  597SOL    HW2 1791   1.919   1.603   0.369 -0.9605 -2.2512  0.2585
  598SOL     OW 1792   0.343   3.009   1.759 -0.0662  0.2293  0.7879
  598SOL    HW1 1793   0.444   3.025   1.749  1.5955 -1.5329  1.1726
  598SOL    HW2 1794   0.287   3.092   1.780 -0.4538  3.2538 -1.9891
  599SOL     OW 1795   2.435   1.579   2.733  0.1992  0.1425 -0.2913
  599SOL    HW1 1796   2.336   1.606   2.716 -0.5865 -2.0874  0.6020
  599SOL    HW2 1797   2.497   1.635   2.674 -1.8260  1.3089 -1.0597
  600SOL     OW 1798   0.715   1.169   0.275 -0.1333  0.1975  0.5699
  600SOL    HW1 1799   0.739   1.256   0.227 -0.7200  1.2281  2.1129
  600SOL    HW2 1800   0.770   1.153   0.361 -0.0157 -1.6154 -0.1555
  601SOL     OW 1801   0.463   0.976   0.872 -0.0625  0.1250  0.2217
  601SOL    HW1 1802   0.433   1.040   0.802 -0.7170 -1.0842  1.1260
  601SOL    HW2 1803   0.450   1.014   0.967  0.8247  0.5416  1.5972
  602SOL     OW 1804   1.680   2.650   0.445 -0.1709  0.1896  0.4778
  602SOL    HW1 1805   1.713   2.554   0.469  1.4822 -1.4517 -0.2304
  602SOL    HW2 1806   1.715   2.715   0.514  0.3364  0.7262  1.3906
  603SOL     OW 1807   0.636   2.710   2.177 -0.1429  0.4059 -0.1964
  603SOL    HW1 1808   0.726   2.676   2.137  0.4336 -3.9144  0.4362
  603SOL    HW2 1809   0.587   2.637   2.231 -0.9293  0.3903  2.3343
  604SOL     OW 1810   0.327   0.408   2.341  0.3972  0.3390 -0.3888
  604SOL    HW1 1811   0.267   0.336   2.301 -1.1417  1.2278  1.0711
  604SOL    HW2 1812   0.326   0.397   2.445  0.1314  1.0746 -0.1960
  605SOL     OW 1813   2.825   1.269   1.459  0.1786  0.2044  0.0964
  605SOL    HW1 1814   2.734   1.227   1.433 -0.0306  1.0092 -1.1003
  605SOL    HW2 1815   2.826   1.266   1.561  1.6985 -1.7238 -0.3796
  606SOL     OW 1816   0.886   1.517   2.535 -0.3338  0.0337 -0.3023
  606SOL    HW1 1817   0.786   1.508   2.565  0.2346  0.4322  1.0618
  606SOL    HW2 1818   0.908   1.465   2.450  3.3688 -0.1882 -0.9465
  607SOL     OW 1819   0.308   3.078   0.479  0.0155 -0.7407 -0.1131
  607SOL    HW1 1820   0.408   3.081   0.478 -0.4262 -0.3818 -1.7235
  607SOL    HW2 1821   0.268   3.079   0.388  2.5899  2.4412  0.2923
  608SOL     OW 1822   2.128   1.735   1.971 -0.2245  0.1686  0.8279
  608SOL    HW1 1823   2.052   1.800   1.963  0.5779 -1.2828 -1.7430
  608SOL    HW2 1824   2.156   1.722   2.066 -2.6496 -1.7570 -2.1118
  609SOL     OW 1825   2.811   0.392   1.144 -0.1831  0.2339 -0.0439
  609SOL    HW1 1826   2.810   0.388   1.039  1.6179  0.6132 -0.9399
  609SOL    HW2 1827   2.722   0.356   1.182 -1.3839 -0.1659  0.0581
  610SOL     OW 1828   0.504   2.682   0.733 -0.0355 -0.2859 -0.6196
  610SOL    HW1 1829   0.526   2.732   0.822  1.2306 -1.6652 -0.0425
  610SOL    HW2 1830   0.447   2.602   0.753  1.4025 -0.3901  1.1925
  611SOL     OW 1831   1.581   0.874   2.996  0.2637 -0.1816 -0.3529
  611SOL    HW1 1832   1.653   0.941   3.001  0.4907 -2.6847 -0.8408
  611SOL    HW2 1833   1.541   0.859   2.905  0.3899  1.5987 -0.4919
  612SOL     OW 1834   0.804   2.246   1.757  0.2917 -0.4886 -0.6110
  612SOL    HW1 1835   0.762   2.343   1.768 -2.1339  4.0963 -0.0881
  612SOL    HW2 1836   0.804   2.226   1.660  3.4414  1.0996 -2.1738
  613SOL     OW 1837   0.386   2.447   0.538 -0.2339 -0.4086  0.1419
  613SOL    HW1 1838   0.430   2.365   0.576  0.9653  1.0856 -0.1453
  613SOL    HW2 1839   0.449   2.475   0.461 -0.2113  1.2510  0.0265
  614SOL     OW 1840   2.317   3.090   1.510  0.2180 -0.4705 -0.4912
  614SOL    HW1 1841   2.400   0.035   1.542 -2.2811 -2.1747  2.0086
  614SOL    HW2 1842   2.241   3.098   1.578 -0.9923  4.1355  0.7721
  615SOL     OW 1843   1.752   1.102   0.249 -0.5921  0.0003 -0.8566
  615SOL    HW1 1844   1.720   1.128   0.341  0.9553 -0.6922 -2.4803
  615SOL    HW2 1845   1.857   1.100   0.246  1.9463 -3.9771  0.2398
  616SOL     OW 1846   1.898   0.649   0.290 -0.4671 -0.1735 -0.3128
  616SOL    HW1 1847   1.826   0.721   0.294 -3.6902  1.0941  2.6308
  616SOL    HW2 1848   1.849   0.559   0.297 -0.1477 -0.7136  1.6416
  617SOL     OW 1849   1.024   0.746   2.948 -0.0236 -0.1804 -0.4575
  617SOL    HW1 1850   1.081   0.829   2.971 -2.0966 -2.7560  0.6921
  617SOL    HW2 1851   1.023   0.681   3.027 -0.4765  0.6209  1.9927
  618SOL     OW 1852   0.634   2.972   2.013  0.0607 -0.2158 -0.0356
  618SOL    HW1 1853   0.648   2.904   2.083  0.5596  2.1268 -2.0579
  618SOL    HW2 1854   0.608   2.932   1.920 -2.6364 -0.2163 -0.4212
  619SOL     OW 1855   2.961   1.346   1.217  0.4895 -0.1991  0.2717
  619SOL    HW1 1856   2.928   1.325   1.312 -1.8579 -2.4728 -0.8921
  619SOL    HW2 1857   2.902   1.425   1.179 -1.8378 -3.1860  1.1052
  620SOL     OW 1858   2.671   1.015   2.973 -0.0917 -0.0430 -0.1367
  620SOL    HW1 1859   2.570   1.032   2.973 -1.0900 -0.1155 -0.1961
  620SOL    HW2 1860   2.681   0.918   2.956 -0.8413  2.1991  2.2198
  621SOL     OW 1861   2.291   2.376   1.647  0.2931 -0.0586 -0.2025
  621SOL    HW1 1862   2.220   2.386   1.720 -0.5319 -0.7700 -2.6127
  621SOL    HW2 1863   2.376   2.336   1.686 -4.1244  0.9637 -3.7487
  622SOL     OW 1864   1.083   0.520   2.336  0.0645  0.1735 -0.0511
  622SOL    HW1 1865   1.027   0.449   2.373 -1.8369  0.7626  1.1309
  622SOL    HW2 1866   1.067   0.611   2.378  0.4984 -1.8606 -0.2677
  623SOL     OW 1867   1.085   0.661   2.699  0.0185 -0.1727  0.1548
  623SOL    HW1 1868   1.051   0.564   2.696 -3.1010 -1.1217 -0.6984
  623SOL    HW2 1869   1.036   0.712   2.779 -1.0169  0.7904  1.6185
  624SOL     OW 1870   2.474   0.768   0.243 -0.4337 -0.1161 -0.0464
  624SOL    HW1 1871   2.387   0.809   0.213 -0.3414 -0.7561  0.7707
  624SOL    HW2 1872   2.559   0.822   0.228 -1.9902  0.9666 -0.2745
  625SOL     OW 1873   1.038   1.366   0.544 -0.5210 -0.3941 -0.1293
  625SOL    HW1 1874   1.104   1.295   0.557 -1.6125  3.5885 -1.6506
  625SOL    HW2 1875   1.041   1.433   0.625 -2.6981 -0.4051  1.2804
  626SOL     OW 1876   1.665   1.138   2.720  0.5025  0.1528 -0.0301
  626SOL    HW1 1877   1.742   1.068   2.715  2.1695  1.2847  3.4646
  626SOL    HW2 1878   1.698   1.220   2.764  1.6469 -1.5182  1.4053
  627SOL     OW 1879   0.843   2.837   2.801 -0.5421 -0.4879 -0.0086
  627SOL    HW1 1880   0.865   2.902   2.728  1.1439  0.8805 -0.4777
  627SOL    HW2 1881   0.824   2.886   2.884  1.4753 -0.5780 -2.7975
  628SOL     OW 1882   2.211   0.290   2.438  0.7696 -0.0397 -0.0031
  628SOL    HW1 1883   2.210   0.200   2.488  0.4655 -1.8836 -0.0766
  628SOL    HW2 1884   2.209   0.360   2.501  2.5631 -1.8482 -2.1063
  629SOL     OW 1885   0.994   0.340   2.983  0.3522  0.3363 -0.2764
  629SOL    HW1 1886   0.990   0.350   2.886  0.0970 -3.8555  1.9104
  629SOL    HW2 1887   0.950   0.419   3.031 -1.1951 -0.8787  1.3449
  630SOL     OW 1888   1.242   0.036   2.492 -0.6402  0.3931  0.7956
  630SOL    HW1 1889   1.261   0.048   2.588 -3.7236  1.3049 -1.6316
  630SOL    HW2 1890   1.241   3.038   2.459 -2.2666 -1.0907 -2.0776
  631SOL     OW 1891   2.387   1.047   0.718 -0.0506 -0.4059 -0.1013
  631SOL    HW1 1892   2.395   1.115   0.793 -0.5404  2.1428  2.1968
  631SOL    HW2 1893   2.437   1.085   0.638  3.9025 -0.2902 -0.1062
  632SOL     OW 1894   1.944   0.878   1.505  0.5790 -0.1751  0.0194
  632SOL    HW1 1895   2.033   0.903   1.535 -3.2782 -0.1953 -0.3549
  632SOL    HW2 1896   1.935   0.784   1.469  0.4788  0.3864 -1.4077
  633SOL     OW 1897   0.753   1.488   0.355  0.1251 -0.0700 -0.3033
  633SOL    HW1 1898   0.699   1.523   0.276 -1.4148  1.9499 -0.8625
  633SOL    HW2 1899   0.853   1.480   0.332  2.7024  0.9875 -0.5705
  634SOL     OW 1900   2.182   0.234   1.259  0.5279 -0.3214  0.2797
  634SOL    HW1 1901   2.140   0.146   1.281 -3.4081  1.4119 -0.4131
  634SOL    HW2 1902   2.255   0.258   1.330  0.5770 -1.5224  1.5644
  635SOL     OW 1903   1.749   0.589   1.223 -0.2927 -0.5699  0.1905
  635SOL    HW1 1904   1.653   0.604   1.263 -2.9606  1.9024  2.7580
  635SOL    HW2 1905   1.744   0.618   1.122 -1.3445 -2.4710  0.7135
  636SOL     OW 1906   0.841   1.132   0.547  0.3167 -0.1021 -0.5092
  636SOL    HW1 1907   0.784   1.136   0.633  0.2175  1.8535 -0.5026
  636SOL    HW2 1908   0.897   1.213   0.536  0.1449  1.2432 -1.0487
  637SOL     OW 1909   2.576   2.280   2.628 -0.1694 -0.1956  0.0960
  637SOL    HW1 1910   2.591   2.215   2.698 -0.0654  0.0587 -4.1514
  637SOL    HW2 1911   2.473   2.296   2.617  0.3246 -1.7912  0.5205
  638SOL     OW 1912   1.434   2.640   2.683  0.0649  0.0229  0.6803
  638SOL    HW1 1913   1.507   2.690   2.744  2.8007  0.6866  2.9037
  638SOL    HW2 1914   1.403   2.552   2.728 -1.6407 -1.7887  1.1170
  639SOL     OW 1915   1.074   1.944   1.232  0.6687  0.0815  0.3053
  639SOL    HW1 1916   0.997   2.010   1.214  1.8763 -0.4983  3.0193
  639SOL    HW2 1917   1.156   1.994   1.248 -2.2105 -1.6334  0.6581
  640SOL     OW 1918   2.421   2.811   0.371 -0.1309  0.1713  0.4966
  640SOL    HW1 1919   2.518   2.795   0.406 -0.5728 -1.0581  0.3001
  640SOL    HW2 1920   2.387   2.717   0.351  3.7667 -0.2819 -0.1025
  641SOL     OW 1921   0.146   3.008   0.274 -0.0640 -0.8924  0.1230
  641SOL    HW1 1922   0.169   2.916   0.303  0.8325 -0.4569  0.0797
  641SOL    HW2 1923   0.047   3.031   0.292 -1.2259  1.6437  1.9361
  642SOL     OW 1924   2.919   0.888   1.227  0.3496 -0.3498  0.2040
  642SOL    HW1 1925   2.869   0.811   1.170 -2.4009  0.6582  0.1094
  642SOL    HW2 1926   2.885   0.980   1.189  0.7121  1.4805  1.7299
  643SOL     OW 1927   0.838   1.937   2.010  0.2442 -0.5315  0.9260
  643SOL    HW1 1928   0.792   1.981   1.929  0.7130 -0.3425 -1.8929
  643SOL    HW2 1929   0.927   1.982   2.042  2.9444  1.0331 -0.2986
  644SOL     OW 1930   1.794   2.432   0.558 -0.0931 -0.9576 -0.1428
  644SOL    HW1 1931   1.884   2.412   0.608  0.5316  0.5951  2.1681
  644SOL    HW2 1932   1.715   2.426   0.626  0.8424  2.3700 -0.5080
  645SOL     OW 1933   2.097   2.131   1.037  0.2895 -0.1919  0.7529
  645SOL    HW1 1934   2.031   2.067   0.991  2.4049  0.8168 -0.2936
  645SOL    HW2 1935   2.062   2.229   1.036  1.1797  4.2893 -0.3977
  646SOL     OW 1936   1.130   2.734   3.054  0.1973  0.1492  0.1499
  646SOL    HW1 1937   1.206   2.678   3.089 -1.4546  2.6825  0.2783
  646SOL    HW2 1938   1.132   2.725   2.955  0.7646 -0.0848 -0.5732
  647SOL     OW 1939   0.285   2.744   1.841 -0.0597 -0.1243 -0.0882
  647SOL    HW1 1940   0.318   2.823   1.788  1.3170 -1.7041 -0.0298
  647SOL    HW2 1941   0.357   2.673   1.833  3.4288  0.2808 -1.2774
  648SOL     OW 1942   1.775   0.648   0.965  0.1201 -0.3522  0.0665
  648SOL    HW1 1943   1.790   0.559   0.916 -2.7253 -0.4374  0.1867
  648SOL    HW2 1944   1.857   0.708   0.957  0.1105  1.3787 -0.0481
  649SOL     OW 1945   1.504   2.206   0.045 -0.6594  0.6319 -0.2279
  649SOL    HW1 1946   1.544   2.291   0.087  1.7845  1.5612  0.2542
  649SOL    HW2 1947   1.514   2.211   3.039 -0.5572  2.7989 -3.8785
  650SOL     OW 1948   2.256   1.342   2.006 -1.0219  0.1233  0.3442
  650SOL    HW1 1949   2.278   1.244   1.986 -1.5706 -0.5021  3.1547
  650SOL    HW2 1950   2.163   1.352   2.047 -0.3997 -2.9388 -3.0957
  651SOL     OW 1951   1.589   2.451   0.118  0.0279 -0.0427 -0.4332
  651SOL    HW1 1952   1.510   2.488   0.175 -1.5403  0.8939  2.5238
  651SOL    HW2 1953   1.624   2.523   0.055  1.0219 -0.4458  0.0917
  652SOL     OW 1954   0.470   2.224   0.152  0.1273 -0.3169  0.0617
  652SOL    HW1 1955   0.462   2.161   0.070  0.7007 -2.9397  0.4025
  652SOL    HW2 1956   0.491   2.322   0.127  2.4161  1.8107  1.6699
  653SOL     OW 1957   2.500   2.168   1.144  0.2720 -0.1317  0.3127
  653SOL    HW1 1958   2.563   2.201   1.216  3.6317 -1.3526 -1.6761
  653SOL    HW2 1959   2.404   2.156   1.171  0.1493  0.8985 -0.3150
  654SOL     OW 1960   2.775   2.835   1.521  0.4308  0.2575 -0.1221
  654SOL    HW1 1961   2.772   2.928   1.479  0.1878  1.1084  0.9141
  654SOL    HW2 1962   2.855   2.786   1.479  0.2585 -1.1626 -0.8423
  655SOL     OW 1963   0.143   2.190   1.302  0.0067  0.0209 -0.4514
  655SOL    HW1 1964   0.211   2.118   1.291  1.7049  1.6375  1.1852
  655SOL    HW2 1965   0.133   2.255   1.225  1.5417 -1.4214  0.8066
  656SOL     OW 1966   3.019   2.677   2.624 -0.5416 -0.4717  0.3216
  656SOL    HW1 1967   3.030   2.690   2.525  0.5419  0.8053  2.6489
  656SOL    HW2 1968   2.990   2.762   2.669  0.2484 -2.0060 -1.0232
  657SOL     OW 1969   3.047   0.791   0.036 -0.9503  0.1108  0.0577
  657SOL    HW1 1970   2.966   0.736   0.059 -1.1725  1.0142  1.9681
  657SOL    HW2 1971   3.098   0.822   0.120  1.8531 -0.9391  1.2944
  658SOL     OW 1972   1.888   1.949   0.950 -0.0415 -0.1694 -0.3138
  658SOL    HW1 1973   1.929   1.908   0.867  0.3945  1.5789  1.7903
  658SOL    HW2 1974   1.825   1.891   1.002 -0.1093 -1.1818 -1.7277
  659SOL     OW 1975   1.494   0.609   1.298  0.0453  0.1538  0.4308
  659SOL    HW1 1976   1.409   0.670   1.276 -3.5501 -1.0032 -1.4007
  659SOL    HW2 1977   1.465   0.516   1.284 -1.9887  0.4531  2.3516
  660SOL     OW 1978   1.711   1.607   0.017  0.5556  0.3738  0.1144
  660SOL    HW1 1979   1.701   1.639   0.109  1.1163 -0.7831 -2.0848
  660SOL    HW2 1980   1.685   1.512   0.009  1.8959 -0.0846  1.0136
  661SOL     OW 1981   0.197   1.933   0.223  0.0658  0.0009 -0.2116
  661SOL    HW1 1982   0.267   1.952   0.294 -0.7989 -3.0393 -0.6000
  661SOL    HW2 1983   0.112   1.903   0.275 -0.4410  0.5217  0.7257
  662SOL     OW 1984   0.201   0.679   2.058  0.6896 -0.0265  0.2337
  662SOL    HW1 1985   0.226   0.713   2.150  1.1496  2.2605  0.5054
  662SOL    HW2 1986   0.158   0.758   2.011  0.5566 -0.7112 -2.7793
  663SOL     OW 1987   1.969   1.352   0.847  0.4296  0.1036  0.1329
  663SOL    HW1 1988   1.934   1.260   0.877  1.3057 -0.4343  3.0043
  663SOL    HW2 1989   2.068   1.354   0.844  0.1143  0.2283 -0.5679
  664SOL     OW 1990   0.699   0.747   1.080 -0.1172 -0.2864 -0.5233
  664SOL    HW1 1991   0.774   0.681   1.090  1.2140  1.2668  0.1327
  664SOL    HW2 1992   0.645   0.724   1.001  2.6921  1.5526  3.0438
  665SOL     OW 1993   1.087   2.988   0.143  0.0003 -0.0067 -0.4914
  665SOL    HW1 1994   1.102   2.927   0.228  1.3588 -2.4853 -1.2167
  665SOL    HW2 1995   1.136   3.074   0.160 -2.9565 -1.7238  1.1023
  666SOL     OW 1996   0.069   0.316   2.588 -0.1841 -0.2947  0.6091
  666SOL    HW1 1997   0.169   0.312   2.612 -1.3780  0.6917  1.5493
  666SOL    HW2 1998   0.019   0.340   2.674  0.6247  0.3505  3.7374
  667SOL     OW 1999   2.375   1.928   2.035 -0.3912  0.6008 -0.4120
  667SOL    HW1 2000   2.368   2.014   2.089  0.2187  0.9367 -1.5233
  667SOL    HW2 2001   2.338   1.848   2.089  1.6268  0.2817  1.8846
  668SOL     OW 2002   0.603   1.459   2.622  0.3652 -0.3441  0.4090
  668SOL    HW1 2003   0.577   1.550   2.654  1.3427  0.7898 -0.2690
  668SOL    HW2 2004   0.540   1.392   2.665  1.3301 -0.2117  0.2998
  669SOL     OW 2005   2.101   2.633   2.432 -0.1710 -0.1932 -0.3598
  669SOL    HW1 2006   2.160   2.654   2.350 -0.9917  1.6396 -1.9523
  669SOL    HW2 2007   2.053   2.544   2.421 -0.3439 -1.1446 -0.3175
  670SOL     OW 2008   2.377   1.068   2.442 -0.2231 -0.0572 -0.3798
  670SOL    HW1 2009   2.319   1.008   2.500 -0.3830 -1.4018 -0.0180
  670SOL    HW2 2010   2.473   1.027   2.432  1.8192 -3.5640  1.9977
  671SOL     OW 2011   2.411   1.255   0.107 -0.0257  0.0280  0.6106
  671SOL    HW1 2012   2.434   1.217   0.013  0.9471 -0.1970 -0.2629
  671SOL    HW2 2013   2.483   1.322   0.128  0.5995 -3.4248 -0.7670
  672SOL     OW 2014   2.473   1.325   2.471  0.2262 -0.3220 -0.1045
  672SOL    HW1 2015   2.453   1.338   2.573 -1.5767 -3.0791  3.3043
  672SOL    HW2 2016   2.423   1.237   2.443  2.0075 -3.7518 -1.5422
  673SOL     OW 2017   2.576   1.117   1.411 -0.3817  0.0736 -0.2984
  673SOL    HW1 2018   2.536   1.113   1.314  0.7270 -0.4730 -2.6250
  673SOL    HW2 2019   2.613   1.026   1.431 -0.2084  1.9871  0.3899
  674SOL     OW 2020   1.824   1.934   1.734  0.6155 -0.3161  0.1914
  674SOL    HW1 2021   1.886   1.866   1.691 -0.5287 -2.6973 -1.9156
  674SOL    HW2 2022   1.726   1.904   1.734 -1.1536  1.0265  0.8994
  675SOL     OW 2023   0.127   0.711   0.893  0.1308 -0.4915  0.6447
  675SOL    HW1 2024   0.147   0.725   0.795  1.3069 -1.2721  0.5825
  675SOL    HW2 2025   0.193   0.647   0.938  0.6126  0.4579  0.4373
  676SOL     OW 2026   1.893   1.036   1.206  0.2973 -0.3808 -0.9610
  676SOL    HW1 2027   1.912   1.139   1.222  1.6452  2.3713 -1.1918
  676SOL    HW2 2028   1.913   0.986   1.292 -0.2626 -1.4369 -1.5812
  677SOL     OW 2029   1.759   1.596   2.162 -0.4074  0.1248 -0.5503
  677SOL    HW1 2030   1.762   1.497   2.155  0.3137 -1.4375  0.6839
  677SOL    HW2 2031   1.666   1.640   2.159  0.2230  0.9685  0.1252
  678SOL     OW 2032   3.070   1.786   0.935  0.3661 -0.5984 -0.0859
  678SOL    HW1 2033   3.068   1.854   1.012 -0.1911  1.7977  0.2052
  678SOL    HW2 2034   2.974   1.770   0.907 -2.0938  0.4058  0.5633
  679SOL     OW 2035   2.940   2.713   0.333  0.3344  0.0563 -0.0153
  679SOL    HW1 2036   2.943   2.817   0.334  1.6357  0.7699  0.4796
  679SOL    HW2 2037   2.960   2.672   0.427 -0.6176 -2.7382  1.5243
  680SOL     OW 2038   0.220   2.512   1.307 -0.3633 -0.1837 -0.5133
  680SOL    HW1 2039   0.169   2.467   1.231  0.9863 -0.2591  1.4471
  680SOL    HW2 2040   0.308   2.468   1.325 -0.4278 -0.2672 -1.6817
  681SOL     OW 2041   0.757   1.011   1.164  0.0250 -0.1689  0.5006
  681SOL    HW1 2042   0.853   1.024   1.181 -1.9133 -0.0899 -0.8650
  681SOL    HW2 2043   0.736   0.917   1.133  2.5160 -1.8045  0.3723
  682SOL     OW 2044   1.577   2.814   0.976 -0.3386 -0.5299 -0.1474
  682SOL    HW1 2045   1.523   2.893   1.018 -0.2240  2.2022  0.3572
  682SOL    HW2 2046   1.677   2.821   0.993  2.8363 -1.2705  0.2317
  683SOL     OW 2047   2.166   1.157   1.303 -0.5760 -0.1571  0.1821
  683SOL    HW1 2048   2.122   1.240   1.260 -1.6882 -1.2750  2.4956
  683SOL    HW2 2049   2.257   1.124   1.259 -1.9965 -1.1601 -1.6932
  684SOL     OW 2050   0.634   2.058   1.847  0.3159  0.3831  0.3858
  684SOL    HW1 2051   0.678   2.149   1.832  1.2243  1.9362 -4.4956
  684SOL    HW2 2052   0.590   2.056   1.936  0.9163  0.1153 -1.3519
  685SOL     OW 2053   2.357   1.792   3.030 -0.5918 -0.0892  0.3761
  685SOL    HW1 2054   2.424   1.721   2.996  0.8844  0.2387 -1.5391
  685SOL    HW2 2055   2.265   1.747   3.053  0.3261 -1.1888  1.4142
  686SOL     OW 2056   0.011   0.493   0.518 -0.3245 -0.3952 -0.5787
  686SOL    HW1 2057   3.074   0.396   0.499 -0.5135 -2.4933  0.5028
  686SOL    HW2 2058   3.051   0.529   0.590 -1.0494 -1.0123 -0.3324
  687SOL     OW 2059   1.159   2.849   0.364 -0.2200 -0.0778  0.3585
  687SOL    HW1 2060   1.101   2.793   0.418  1.1772  0.6709  1.3578
  687SOL    HW2 2061   1.250   2.808   0.352  0.0239  1.4393 -0.9854
  688SOL     OW 2062   1.915   1.924   2.002  0.1522 -0.3695 -0.4798
  688SOL    HW1 2063   1.876   1.948   1.907 -1.8243  0.5206 -1.6261
  688SOL    HW2 2064   1.841   1.918   2.074 -2.7008 -1.5131  1.5382
  689SOL     OW 2065   2.642   1.113   2.027 -0.3831  0.7936 -0.1588
  689SOL    HW1 2066   2.629   1.135   2.125  1.1354  1.4796 -0.0292
  689SOL    HW2 2067   2.647   1.196   1.970  0.3133 -0.8430 -1.6476
  690SOL     OW 2068   1.851   1.117   0.929  0.2413  0.3959 -0.6593
  690SOL    HW1 2069   1.842   1.062   1.017  1.5613  1.3799 -1.3056
  690SOL    HW2 2070   1.817   1.065   0.844 -0.5843  1.5398 -1.6089
  691SOL     OW 2071   0.928   1.221   1.457  0.6659 -0.3222 -0.0279
  691SOL    HW1 2072   0.967   1.140   1.414 -1.6778 -2.1495 -3.2644
  691SOL    HW2 2073   0.830   1.210   1.466  3.1249  0.4192 -0.5891
  692SOL     OW 2074   1.583   0.135   2.398 -0.5223  0.4783  0.0180
  692SOL    HW1 2075   1.523   0.082   2.339  2.3877  1.5368 -0.8872
  692SOL    HW2 2076   1.641   0.198   2.339  3.5676  0.5015  0.1144
  693SOL     OW 2077   0.328   1.022   2.985 -0.2007  0.1559 -0.0137
  693SOL    HW1 2078   0.356   1.110   3.024  0.6056  1.5846  0.5676
  693SOL    HW2 2079   0.395   0.953   3.019  1.5519  0.2922  1.8059
  694SOL     OW 2080   2.258   2.702   0.655  0.1194 -0.5942 -0.0376
  694SOL    HW1 2081   2.238   2.786   0.709  1.2152 -0.8756  1.3979
  694SOL    HW2 2082   2.198   2.701   0.577  1.1748  1.8066  2.8228
  695SOL     OW 2083   1.653   1.373   2.856  0.3474 -0.1193  0.0662
  695SOL    HW1 2084   1.637   1.362   2.959  0.1409  1.9223  0.0348
  695SOL    HW2 2085   1.749   1.415   2.849  1.9449  1.1309  1.6646
  696SOL     OW 2086   1.588   0.266   1.644  0.2873 -0.1833  1.1027
  696SOL    HW1 2087   1.553   0.361   1.645  2.6211 -0.5284  0.4940
  696SOL    HW2 2088   1.690   0.268   1.631  4.3360  2.8114  1.7175
  697SOL     OW 2089   1.402   0.398   2.064  0.4968  0.0354 -0.0513
  697SOL    HW1 2090   1.459   0.477   2.094 -1.6396 -0.4881  0.7657
  697SOL    HW2 2091   1.458   0.338   2.000  0.1572 -0.5567 -0.3824
  698SOL     OW 2092   1.919   1.404   2.525 -0.1995  0.3285 -0.1795
  698SOL    HW1 2093   1.933   1.467   2.450  1.5953 -0.2139 -0.3171
  698SOL    HW2 2094   1.834   1.354   2.508  1.5305  0.5779  1.0046
  699SOL     OW 2095   1.640   1.251   0.995  0.1596  0.0555  0.1158
  699SOL    HW1 2096   1.629   1.335   0.941  0.7233 -0.3643  2.3350
  699SOL    HW2 2097   1.726   1.211   0.971 -1.5638  1.2438  1.9289
  700SOL     OW 2098   1.800   2.922   0.183  0.2175  0.4792 -0.0260
  700SOL    HW1 2099   1.856   2.835   0.190 -0.8778  0.7040  1.7489
  700SOL    HW2 2100   1.702   2.898   0.168 -0.3870 -0.8153 -2.9307
  701SOL     OW 2101   0.531   0.172   1.389 -0.0054  0.1006  0.3140
  701SOL    HW1 2102   0.513   0.091   1.331  0.1809  1.2035 -0.9820
  701SOL    HW2 2103   0.628   0.164   1.423 -0.7744 -0.5967 -1.7048
  702SOL     OW 2104   1.564   2.967   1.400 -0.6822 -0.4601 -0.3047
  702SOL    HW1 2105   1.639   2.902   1.419 -1.0144  1.6089 -0.7518
  702SOL    HW2 2106   1.544   3.022   1.487  0.5226  1.5220 -1.4686
  703SOL     OW 2107   2.433   3.095   2.247  0.1515  0.0461  0.3245
  703SOL    HW1 2108   2.448   3.063   2.340 -0.2496 -2.7195 -0.1637
  703SOL    HW2 2109   2.499   3.058   2.181 -0.9538 -0.4731 -1.2365
  704SOL     OW 2110   1.407   1.677   0.820  0.0187  0.4170  0.0171
  704SOL    HW1 2111   1.315   1.715   0.784 -2.2029  2.0025 -0.9651
  704SOL    HW2 2112   1.422   1.707   0.914 -1.0172  1.4128  1.0880
  705SOL     OW 2113   2.897   1.647   2.059 -0.0117  0.0828  0.0841
  705SOL    HW1 2114   2.822   1.720   2.067  2.2328  0.8661 -2.7857
  705SOL    HW2 2115   2.879   1.570   2.120  1.0298  0.0167 -0.7841
  706SOL     OW 2116   1.544   0.034   0.575 -0.6511 -0.2687  0.2934
  706SOL    HW1 2117   1.497   3.047   0.580  3.6877  1.2644 -0.6795
  706SOL    HW2 2118   1.586   0.047   0.481  2.4222 -1.2020 -2.8456
  707SOL     OW 2119   1.081   2.507   2.527 -0.8170  0.3480  0.0621
  707SOL    HW1 2120   0.983   2.511   2.501  2.2191 -1.2431  1.0560
  707SOL    HW2 2121   1.105   2.417   2.565 -1.5376 -1.7035  2.8819
  708SOL     OW 2122   0.485   2.138   1.466  0.0905 -0.0154  0.2879
  708SOL    HW1 2123   0.471   2.038   1.469 -0.0230  1.7966  2.5370
  708SOL    HW2 2124   0.587   2.159   1.463  1.8516  0.1910  0.8073
  709SOL     OW 2125   2.415   0.728   2.276  0.3521  0.5140 -0.0802
  709SOL    HW1 2126   2.510   0.753   2.256 -1.0136 -0.8313  0.8506
  709SOL    HW2 2127   2.352   0.784   2.215 -0.8325  1.8528 -1.0167
  710SOL     OW 2128   2.912   0.529   1.590  0.6006 -0.3021 -0.0695
  710SOL    HW1 2129   2.921   0.514   1.490 -1.1995  0.9432  0.0407
  710SOL    HW2 2130   2.982   0.475   1.643  2.8098  0.3459 -0.6707
  711SOL     OW 2131   2.911   2.281   0.331  0.4706  0.1286 -0.8657
  711SOL    HW1 2132   2.899   2.318   0.425 -1.2591 -0.1139  1.1305
  711SOL    HW2 2133   2.998   2.309   0.296 -0.8383 -2.4188  1.7678
  712SOL     OW 2134   0.272   2.556   2.478 -0.1758  0.0403  0.5193
  712SOL    HW1 2135   0.294   2.654   2.497  1.0079  1.3895  2.8997
  712SOL    HW2 2136   0.209   2.520   2.547 -0.8995 -1.8762  2.9191
  713SOL     OW 2137   2.044   0.713   0.063  0.4308  0.2885 -0.4378
  713SOL    HW1 2138   1.979   0.690   0.138 -2.1733 -2.6484 -0.0288
  713SOL    HW2 2139   2.070   0.634   0.006 -0.3183  1.2044  1.1730
  714SOL     OW 2140   1.348   1.948   0.532 -0.0186  0.1151  0.1445
  714SOL    HW1 2141   1.365   1.851   0.509 -1.9385 -0.2396 -0.4370
  714SOL    HW2 2142   1.440   1.991   0.555  1.1835 -0.0223 -0.6278
  715SOL     OW 2143   0.173   0.284   0.314 -0.2498  0.1860 -0.1767
  715SOL    HW1 2144   0.088   0.270   0.373 -2.5929  0.8174 -1.1738
  715SOL    HW2 2145   0.255   0.317   0.362 -1.4374 -1.0850 -1.1065
  716SOL     OW 2146   0.552   0.119   2.113 -0.1021  0.2035  0.5135
  716SOL    HW1 2147   0.478   0.103   2.182  1.1316  1.7454 -2.3047
  716SOL    HW2 2148   0.583   0.033   2.072  0.6307  0.2734  0.4727
  717SOL     OW 2149   0.459   0.356   2.930 -0.3275  0.0676  0.5666
  717SOL    HW1 2150   0.519   0.277   2.942  1.4200 -0.4808 -2.1697
  717SOL    HW2 2151   0.361   0.328   2.922 -0.8420  0.9055 -0.9566
  718SOL     OW 2152   1.035   0.541   0.568  0.0963 -0.3394  0.2346
  718SOL    HW1 2153   1.040   0.619   0.634 -0.6143 -1.0195 -1.4041
  718SOL    HW2 2154   1.031   0.448   0.599  0.8550  1.7193 -1.4833
  719SOL     OW 2155   2.278   2.319   2.614 -0.4239  0.4928 -0.0594
  719SOL    HW1 2156   2.282   2.417   2.586 -0.9619  1.1984  0.7302
  719SOL    HW2 2157   2.221   2.308   2.696 -0.0659 -3.5479  2.6885
  720SOL     OW 2158   1.726   0.988   1.917 -0.0346  0.3647  0.2927
  720SOL    HW1 2159   1.753   0.941   1.830  3.8638 -0.6355 -1.0088
  720SOL    HW2 2160   1.754   0.932   2.003  0.4233 -0.4413  0.6792
  721SOL     OW 2161   2.797   0.131   0.939 -0.5009 -0.1801  0.5882
  721SOL    HW1 2162   2.853   0.214   0.910 -1.1704  0.0037 -1.8498
  721SOL    HW2 2163   2.798   0.063   0.862  1.5289 -1.0292  0.4539
  722SOL     OW 2164   1.179   2.204   2.456  0.4481  0.0602  0.5512
  722SOL    HW1 2165   1.256   2.221   2.391  1.5928  2.6963 -0.5247
  722SOL    HW2 2166   1.211   2.142   2.534  0.9242 -0.3578 -1.8882
  723SOL     OW 2167   1.196   0.299   0.627  0.4451 -0.1979  0.1740
  723SOL    HW1 2168   1.253   0.321   0.708 -0.1580 -1.1909 -0.5143
  723SOL    HW2 2169   1.247   0.318   0.542 -1.2276 -0.8173  0.9326
  724SOL     OW 2170   0.933   1.904   2.424  0.2857 -0.4832  0.4232
  724SOL    HW1 2171   0.986   1.883   2.508  3.2175  0.5188  1.7735
  724SOL    HW2 2172   0.889   1.825   2.388  0.8039  0.5322  0.0330
  725SOL     OW 2173   0.085   0.663   1.211 -0.0998  0.0096  0.3651
  725SOL    HW1 2174   0.090   0.767   1.206 -0.0050  0.3514  0.9034
  725SOL    HW2 2175   0.152   0.625   1.137  4.6330  1.1868 -2.0052
  726SOL     OW 2176   1.978   0.009   0.711 -0.6224 -0.2084 -0.2200
  726SOL    HW1 2177   2.023   3.058   0.631  1.5268  3.1193 -1.8791
  726SOL    HW2 2178   1.879   3.096   0.717  0.1592  2.0862  1.7408
  727SOL     OW 2179   2.177   1.094   2.252  0.0930  0.0317 -0.1842
  727SOL    HW1 2180   2.138   1.186   2.238 -0.5223 -1.9370  0.3025
  727SOL    HW2 2181   2.264   1.096   2.306  0.6486  0.0530 -0.6412
  728SOL     OW 2182   1.620   2.668   1.652  0.3753 -0.4839 -0.1332
  728SOL    HW1 2183   1.546   2.707   1.708  1.8499  0.3860 -1.6770
  728SOL    HW2 2184   1.654   2.731   1.583 -0.3749 -2.4973  2.4114
  729SOL     OW 2185   1.852   0.302   2.009  0.1005  0.1521  0.0568
  729SOL    HW1 2186   1.944   0.337   2.011 -1.8926  0.3542 -0.4991
  729SOL    HW2 2187   1.786   0.364   1.962  1.1968 -2.5977  0.0982
  730SOL     OW 2188   0.698   1.444   1.390  0.7613 -0.1379  0.0210
  730SOL    HW1 2189   0.696   1.524   1.450 -2.2244  0.9839 -1.1896
  730SOL    HW2 2190   0.738   1.467   1.300 -0.6160 -1.4610 -0.7273
  731SOL     OW 2191   0.522   2.920   0.285 -0.5287 -0.3031  0.2257
  731SOL    HW1 2192   0.557   2.960   0.375  0.1141  1.2925 -0.2236
  731SOL    HW2 2193   0.489   2.996   0.230  0.7985 -2.7424 -0.3269
  732SOL     OW 2194   0.698   0.715   0.277 -0.1145  0.2747 -0.7490
  732SOL    HW1 2195   0.624   0.742   0.212  0.1965  2.7822  3.1255
  732SOL    HW2 2196   0.677   0.744   0.373  0.5302  0.0261  0.0184
  733SOL     OW 2197   1.583   1.479   1.755 -0.1240 -0.3067  0.2673
  733SOL    HW1 2198   1.577   1.439   1.852 -2.8753 -0.6614  1.3711
  733SOL    HW2 2199   1.502   1.459   1.701 -0.2168 -1.7635  2.3751
  734SOL     OW 2200   3.009   2.453   2.148 -0.2231  0.0018  0.2336
  734SOL    HW1 2201   3.054   2.498   2.071 -0.4965  0.9315  0.0371
  734SOL    HW2 2202   2.915   2.494   2.157 -1.8575  3.0087 -2.1391
  735SOL     OW 2203   1.188   2.957   0.958 -0.4971  0.3401  0.5957
  735SOL    HW1 2204   1.213   2.860   0.984 -1.6164 -1.6147  0.4799
  735SOL    HW2 2205   1.238   2.989   0.877  0.8248  1.9565  0.5336
  736SOL     OW 2206   1.174   0.967   3.005  0.4873 -0.2104  0.2756
  736SOL    HW1 2207   1.227   0.911   3.070 -0.1715 -1.1540 -0.3031
  736SOL    HW2 2208   1.230   1.045   2.975  0.1801 -1.6358  1.3903
  737SOL     OW 2209   0.173   0.760   0.622  0.1098  0.1739 -0.1050
  737SOL    HW1 2210   0.260   0.811   0.602  0.8811  0.6140 -0.4699
  737SOL    HW2 2211   0.100   0.795   0.562 -2.5732  1.0789 -0.1640
  738SOL     OW 2212   0.559   2.671   1.597  0.1847  0.4662 -0.2927
  738SOL    HW1 2213   0.597   2.696   1.509  0.2882 -0.8778  3.2492
  738SOL    HW2 2214   0.458   2.672   1.592 -1.8240  0.3724 -0.3037
  739SOL     OW 2215   1.417   2.735   0.369  0.1097  0.4641 -0.1033
  739SOL    HW1 2216   1.507   2.700   0.402 -0.5756 -1.4340  2.4672
  739SOL    HW2 2217   1.360   2.659   0.320 -2.3909 -2.2154 -2.1554
  740SOL     OW 2218   1.773   2.821   1.450  0.2473  0.0633  0.4518
  740SOL    HW1 2219   1.857   2.863   1.494 -0.2464  2.2965  0.0072
  740SOL    HW2 2220   1.806   2.753   1.380  2.0098  0.2459 -0.3509
  741SOL     OW 2221   2.115   0.235   0.681 -0.1731  0.4866 -0.0985
  741SOL    HW1 2222   2.038   0.302   0.660 -1.4462 -0.4515 -0.5990
  741SOL    HW2 2223   2.074   0.147   0.702  0.1476  1.0567 -0.6019
  742SOL     OW 2224   0.800   2.549   2.427 -0.2059  0.4079 -0.9563
  742SOL    HW1 2225   0.727   2.527   2.491  0.0150  0.3408 -0.4205
  742SOL    HW2 2226   0.802   2.482   2.351 -0.5575  0.6287 -0.5159
  743SOL     OW 2227   2.278   0.763   2.023  0.2168 -0.4770  0.4401
  743SOL    HW1 2228   2.307   0.808   1.932  1.0293  0.5242 -1.3319
  743SOL    HW2 2229   2.296   0.662   2.020 -3.3711  0.8888 -0.0409
  744SOL     OW 2230   2.044   0.265   0.957  0.5426  0.0721  0.1671
  744SOL    HW1 2231   2.072   0.336   1.028 -1.1247  0.9556  2.2549
  744SOL    HW2 2232   2.092   0.278   0.867  1.0851 -2.2974  0.1856
  745SOL     OW 2233   2.087   1.030   1.925  0.4774 -0.1803  0.1015
  745SOL    HW1 2234   2.179   1.073   1.933  1.7266  0.3351 -1.1998
  745SOL    HW2 2235   2.054   1.001   2.018  2.0951  4.5464  1.8420
  746SOL     OW 2236   1.457   1.701   0.512 -0.3417 -0.7296 -0.1102
  746SOL    HW1 2237   1.526   1.726   0.579 -2.0207 -0.8022 -0.5495
  746SOL    HW2 2238   1.437   1.604   0.516  2.6378  1.0631  0.5372
  747SOL     OW 2239   2.079   1.572   1.082 -0.2846 -0.1251 -0.0374
  747SOL    HW1 2240   2.021   1.600   1.002 -1.6717  1.0736 -2.4515
  747SOL    HW2 2241   2.070   1.636   1.163  0.7263  1.1512  0.6022
  748SOL     OW 2242   0.193   2.757   0.375 -0.8053 -0.1238 -0.1305
  748SOL    HW1 2243   0.219   2.777   0.470  0.9427  0.1004 -1.6098
  748SOL    HW2 2244   0.263   2.698   0.330  0.5221  0.7641 -1.2465
  749SOL     OW 2245   0.201   0.826   2.319 -0.7338 -0.7714 -0.5136
  749SOL    HW1 2246   0.275   0.887   2.290  0.3245 -2.2338 -0.3585
  749SOL    HW2 2247   0.108   0.856   2.293  3.4996 -2.0090 -0.2017
  750SOL     OW 2248   1.352   2.909   1.905  0.5978 -0.2421 -0.0388
  750SOL    HW1 2249   1.286   2.986   1.919 -1.8379  1.6917  0.2206
  750SOL    HW2 2250   1.422   2.911   1.978 -2.5451  1.5692  0.3107
  751SOL     OW 2251   2.800   0.440   0.390 -0.4595 -0.4590  0.2460
  751SOL    HW1 2252   2.705   0.480   0.389 -1.2292  1.6696 -0.4612
  751SOL    HW2 2253   2.807   0.356   0.450 -1.3957 -0.7476 -0.5540
  752SOL     OW 2254   0.126   2.139   0.814 -0.0853 -0.3545 -0.1317
  752SOL    HW1 2255   0.037   2.151   0.866  2.1337 -1.1983  0.0808
  752SOL    HW2 2256   0.124   2.199   0.729  2.3601  0.1498 -2.4648
  753SOL     OW 2257   0.925   0.187   1.110 -0.0591 -0.7256  0.8335
  753SOL    HW1 2258   0.957   0.155   1.018  0.8927 -1.0907 -1.4435
  753SOL    HW2 2259   0.827   0.213   1.109  2.6873 -0.4800  0.4003
  754SOL     OW 2260   0.411   0.011   2.327  0.4057 -0.1310  0.2023
  754SOL    HW1 2261   0.324   0.062   2.324  2.2436 -1.5125  0.7360
  754SOL    HW2 2262   0.404   3.021   2.283 -1.0498  1.4644 -2.4551
  755SOL     OW 2263   2.244   0.865   0.150  0.4244 -0.5776  0.1858
  755SOL    HW1 2264   2.162   0.803   0.142 -2.7555 -1.2146 -0.5790
  755SOL    HW2 2265   2.303   0.846   0.071 -2.0107 -0.9316  2.2094
  756SOL     OW 2266   2.163   2.127   2.369  0.9679  0.6748  0.1496
  756SOL    HW1 2267   2.175   2.024   2.382  0.5934 -2.2365  0.2573
  756SOL    HW2 2268   2.195   2.180   2.441 -2.0817 -2.4594 -3.0930
  757SOL     OW 2269   1.561   0.290   0.856  0.2766  0.8329 -0.4042
  757SOL    HW1 2270   1.465   0.300   0.890 -0.7037 -0.8642 -0.7748
  757SOL    HW2 2271   1.593   0.193   0.874  0.4127 -0.1998  1.3732
  758SOL     OW 2272   1.464   3.009   1.170  0.0300 -0.3446  0.3005
  758SOL    HW1 2273   1.371   2.986   1.190 -0.0479 -0.2998  0.7380
  758SOL    HW2 2274   1.528   3.001   1.253  1.5911  0.9482 -0.0419
  759SOL     OW 2275   2.822   0.665   1.101  0.7333 -0.1236 -0.0845
  759SOL    HW1 2276   2.821   0.574   1.144  0.4063 -1.5795 -1.9642
  759SOL    HW2 2277   2.869   0.671   1.015 -1.0311  2.5158  1.6620
  760SOL     OW 2278   2.369   1.051   1.176 -0.5509  0.3489 -0.1407
  760SOL    HW1 2279   2.457   1.086   1.128  2.3382  1.0058 -1.5174
  760SOL    HW2 2280   2.384   0.954   1.201  0.8855 -2.0727 -0.6567
  761SOL     OW 2281   0.419   0.374   0.433  0.1524  0.5396  0.1599
  761SOL    HW1 2282   0.458   0.393   0.335  1.2150  0.8658 -0.2350
  761SOL    HW2 2283   0.428   0.456   0.490  1.4648 -2.1850 -2.4023
  762SOL     OW 2284   1.735   2.127   1.274 -0.0787  0.3837  0.5288
  762SOL    HW1 2285   1.778   2.033   1.265  1.7551 -0.1081 -0.3947
  762SOL    HW2 2286   1.668   2.137   1.353 -2.4187 -0.9521  2.7955
  763SOL     OW 2287   1.383   1.499   2.154  0.5067  0.1902  0.5113
  763SOL    HW1 2288   1.299   1.538   2.110 -0.5374 -0.0665 -0.0320
  763SOL    HW2 2289   1.363   1.468   2.249 -3.8025 -2.4351  1.8811
  764SOL     OW 2290   2.914   1.873   2.638  0.3087 -0.5794 -0.3950
  764SOL    HW1 2291   2.922   1.925   2.554 -2.0705 -2.7589  1.8132
  764SOL    HW2 2292   2.959   1.912   2.722  0.3008  0.2049  1.5627
  765SOL     OW 2293   1.536   2.516   1.060  0.4166  0.7281 -0.5478
  765SOL    HW1 2294   1.621   2.480   1.104 -0.7099  1.9559  0.7315
  765SOL    HW2 2295   1.560   2.595   1.004 -0.8174 -2.1057  2.8338
  766SOL     OW 2296   0.062   2.464   2.660  0.2263  0.1054  0.3686
  766SOL    HW1 2297   0.004   2.546   2.639 -2.5499  2.2699  2.3473
  766SOL    HW2 2298   0.009   2.377   2.673 -1.4978  2.8838  4.8810
  767SOL     OW 2299   1.420   0.848   2.362 -0.7583 -0.1065 -0.6913
  767SOL    HW1 2300   1.522   0.866   2.364  2.0815  0.6259  1.0949
  767SOL    HW2 2301   1.408   0.748   2.375  1.5870  1.3177 -2.4470
  768SOL     OW 2302   1.290   2.059   0.118 -0.5020 -0.0191  0.1580
  768SOL    HW1 2303   1.385   2.102   0.114 -1.1173 -1.1360 -2.3662
  768SOL    HW2 2304   1.258   2.044   0.025  0.8154 -0.9397 -0.5573
  769SOL     OW 2305   0.474   2.142   1.119  0.0226 -0.2116 -0.5919
  769SOL    HW1 2306   0.548   2.088   1.160  2.8491 -0.2487  1.2790
  769SOL    HW2 2307   0.454   2.222   1.175  0.6053  3.5151  0.5229
  770SOL     OW 2308   1.604   0.614   3.094 -0.1566  0.1290 -0.2363
  770SOL    HW1 2309   1.684   0.566   3.059 -1.3895 -1.5535 -2.2496
  770SOL    HW2 2310   1.595   0.712   3.060 -1.3851 -2.2730  0.9890
  771SOL     OW 2311   0.094   0.007   2.042 -0.4665 -1.0530 -0.5125
  771SOL    HW1 2312   0.121   0.026   1.948  1.1010 -1.8813  0.5870
  771SOL    HW2 2313   0.105   3.004   2.064 -0.0190 -2.7119  0.7110
  772SOL     OW 2314   2.068   2.830   2.100  0.4094  0.4454 -0.8352
  772SOL    HW1 2315   2.130   2.765   2.144 -1.2363  0.9932  2.1991
  772SOL    HW2 2316   2.106   2.920   2.090 -0.2765 -3.0636 -3.4104
  773SOL     OW 2317   0.973   1.982   1.522 -0.5851  0.8821 -0.0672
  773SOL    HW1 2318   0.917   2.019   1.444 -3.0969  0.7242 -1.9374
  773SOL    HW2 2319   1.052   2.043   1.533 -0.3506 -1.2641 -0.0005
  774SOL     OW 2320   0.977   0.046   2.164  0.2570  0.2569 -0.6078
  774SOL    HW1 2321   1.050   0.054   2.237  2.5561  2.0756  2.6205
  774SOL    HW2 2322   0.956   0.138   2.127  1.0120  0.4396 -0.9400
  775SOL     OW 2323   2.089   2.998   2.942 -0.0840  0.2786  0.4200
  775SOL    HW1 2324   2.083   2.944   2.855  2.6101  0.5955  0.2398
  775SOL    HW2 2325   1.998   3.013   2.981  0.6954  0.8695 -0.9640
  776SOL     OW 2326   2.663   0.814   2.182  0.2262  0.1483 -0.1085
  776SOL    HW1 2327   2.752   0.771   2.199 -0.1657  0.2499 -0.6517
  776SOL    HW2 2328   2.661   0.852   2.087  0.7253  0.2248 -0.3918
  777SOL     OW 2329   2.353   2.496   1.968  0.3000 -0.5489 -0.5362
  777SOL    HW1 2330   2.253   2.488   1.965 -1.0253 -1.7628  1.7016
  777SOL    HW2 2331   2.385   2.568   2.036 -0.6199  3.2915  1.3422
  778SOL     OW 2332   1.822   0.942   2.628 -0.1494  0.3668  0.3709
  778SOL    HW1 2333   1.921   0.951   2.656 -0.2914 -0.6745 -0.0253
  778SOL    HW2 2334   1.781   0.846   2.631  0.8502 -1.7912  1.1837
  779SOL     OW 2335   3.051   0.222   0.456  0.3292 -0.1343 -0.2066
  779SOL    HW1 2336   3.043   0.164   0.539 -1.6750  1.1929 -0.8715
  779SOL    HW2 2337   2.997   0.188   0.385  0.9805  1.7313  0.0472
  780SOL     OW 2338   2.584   0.386   0.131  0.5488 -0.1322 -0.2537
  780SOL    HW1 2339   2.618   0.297   0.167  0.6161  1.3013  0.4101
  780SOL    HW2 2340   2.555   0.445   0.213 -1.2754  0.9045  1.6936
  781SOL     OW 2341   0.214   2.685   1.522  0.1349 -0.5226  0.3299
  781SOL    HW1 2342   0.218   2.638   1.432  0.0146  2.3830  0.9930
  781SOL    HW2 2343   0.150   2.638   1.582  1.7785  0.1715 -2.2899
  782SOL     OW 2344   2.182   2.533   0.144 -0.4006 -0.1474  0.3564
  782SOL    HW1 2345   2.248   2.604   0.114 -0.3762 -0.4035  0.7192
  782SOL    HW2 2346   2.092   2.530   0.085 -1.8734 -0.7243  1.1296
  783SOL     OW 2347   0.653   1.197   1.481  0.1839  0.3224  0.1309
  783SOL    HW1 2348   0.657   1.297   1.450  1.3707 -1.1169  0.4087
  783SOL    HW2 2349   0.641   1.143   1.394  0.7775  0.1113  0.4786
  784SOL     OW 2350   1.355   0.668   2.742  0.3704  0.2507 -0.2676
  784SOL    HW1 2351   1.257   0.662   2.712  0.4364  1.1177  4.1587
  784SOL    HW2 2352   1.403   0.749   2.707 -2.3235  0.1441  1.5755
  785SOL     OW 2353   2.451   0.423   0.973 -0.3184 -0.7206  0.0050
  785SOL    HW1 2354   2.465   0.320   0.974 -1.6711 -1.3890 -1.3739
  785SOL    HW2 2355   2.367   0.451   1.026  0.9080  2.8775  2.9455
  786SOL     OW 2356   1.068   2.399   2.038  0.0683 -0.5635  0.1326
  786SOL    HW1 2357   1.130   2.452   1.978 -1.2556 -2.1061 -0.3552
  786SOL    HW2 2358   1.036   2.317   1.983  0.5079  0.9396  2.6723
  787SOL     OW 2359   1.746   0.288   1.312 -0.0501 -0.1979  0.2081
  787SOL    HW1 2360   1.748   0.380   1.275  0.7965  0.1647 -0.9410
  787SOL    HW2 2361   1.770   0.275   1.410  0.8009 -0.9725 -0.9696
  788SOL     OW 2362   0.403   0.895   0.530 -0.1317 -0.0893 -0.1858
  788SOL    HW1 2363   0.394   0.984   0.574  0.8904 -4.1249 -0.0311
  788SOL    HW2 2364   0.393   0.907   0.430  0.2508  3.2379 -1.2528
  789SOL     OW 2365   0.472   1.857   1.457  0.1233 -0.3932 -0.0185
  789SOL    HW1 2366   0.414   1.772   1.443 -1.1467  0.2076 -3.0176
  789SOL    HW2 2367   0.519   1.861   1.549  3.6292 -2.4971 -2.6952
  790SOL     OW 2368   0.738   0.769   2.380  0.0477 -0.0584 -0.1036
  790SOL    HW1 2369   0.839   0.785   2.382  1.8860 -0.7609 -2.6562
  790SOL    HW2 2370   0.709   0.768   2.285  0.7356  1.0665  2.2597
  791SOL     OW 2371   1.819   0.376   0.861 -0.0277 -0.4390  0.2353
  791SOL    HW1 2372   1.722   0.345   0.872 -0.1335  3.1039 -1.1254
  791SOL    HW2 2373   1.895   0.318   0.909  0.2074 -0.5240  2.6652
  792SOL     OW 2374   0.890   2.596   2.037  0.3738  0.0290 -0.1398
  792SOL    HW1 2375   0.929   2.693   2.044  2.3384  1.1254 -1.1214
  792SOL    HW2 2376   0.962   2.523   2.041  0.5792  1.2607  0.9094
  793SOL     OW 2377   0.609   3.062   0.491 -0.3387 -0.0125 -0.5774
  793SOL    HW1 2378   0.708   3.042   0.495 -2.5007 -0.1767  0.0261
  793SOL    HW2 2379   0.575   3.062   0.586 -1.0550  0.3270 -0.2508
  794SOL     OW 2380   0.387   1.581   1.915  0.0999  0.2190 -0.1217
  794SOL    HW1 2381   0.351   1.484   1.932  1.1063 -2.1679  1.0794
  794SOL    HW2 2382   0.338   1.628   1.838  0.7331 -1.2953  0.7089
  795SOL     OW 2383   0.220   2.306   2.303  0.4457 -0.4695  0.0833
  795SOL    HW1 2384   0.285   2.314   2.384 -0.3607 -1.9119 -0.9549
  795SOL    HW2 2385   0.127   2.270   2.323  1.2939 -3.1307 -0.4163
  796SOL     OW 2386   2.335   0.473   2.261  0.2390 -0.5335  0.0353
  796SOL    HW1 2387   2.321   0.410   2.336  0.2089  0.3980 -1.9842
  796SOL    HW2 2388   2.372   0.563   2.291 -0.4837  1.1599  2.4285
  797SOL     OW 2389   2.824   2.449   2.639  0.1039  0.1584  0.2921
  797SOL    HW1 2390   2.847   2.540   2.593  3.4656  3.0702 -2.4769
  797SOL    HW2 2391   2.752   2.405   2.580 -2.9428 -1.2689  0.9411
  798SOL     OW 2392   2.886   2.979   2.222  0.1094 -0.1815  0.0781
  798SOL    HW1 2393   2.876   3.050   2.294 -0.1070  2.4187 -0.0398
  798SOL    HW2 2394   2.797   2.959   2.182  6.2432 -1.0857  0.5088
  799SOL     OW 2395   0.126   2.609   2.217  0.0528  0.0905 -0.3504
  799SOL    HW1 2396   0.175   2.554   2.288  0.9520 -1.3217  0.3484
  799SOL    HW2 2397   0.042   2.560   2.193  1.4769  1.4255  1.5399
  800SOL     OW 2398   0.082   2.022   3.089 -0.9373  0.5399 -0.1394
  800SOL    HW1 2399   0.052   2.122   3.078  1.6811  2.1078  2.5407
  800SOL    HW2 2400   0.123   1.995   0.083  0.6983 -0.5427  1.3333
  801SOL     OW 2401   1.665   1.360   1.262 -0.3829  0.0751  0.5415
  801SOL    HW1 2402   1.663   1.308   1.179  0.3873  2.5160  2.0975
  801SOL    HW2 2403   1.579   1.385   1.302 -1.7305 -0.4660 -0.5222
  802SOL     OW 2404   3.083   1.423   0.651 -0.1264  0.2047  0.0180
  802SOL    HW1 2405   2.993   1.450   0.614 -0.0580  0.7781 -3.0609
  802SOL    HW2 2406   0.001   1.452   0.745 -1.2871 -0.5871  1.5853
  803SOL     OW 2407   1.241   1.840   2.209  0.0359  0.3640  0.0723
  803SOL    HW1 2408   1.229   1.772   2.133 -0.1816 -1.8688  0.9133
  803SOL    HW2 2409   1.161   1.908   2.198 -0.7478  1.0112  0.6306
  804SOL     OW 2410   1.834   1.609   0.825 -0.2275  0.0302 -0.0350
  804SOL    HW1 2411   1.880   1.690   0.781  1.7752  1.2994  0.5947
  804SOL    HW2 2412   1.896   1.534   0.809  0.2088  2.5026 -1.1522
  805SOL     OW 2413   2.790   1.275   3.026  0.4984  0.3055 -0.5300
  805SOL    HW1 2414   2.770   1.176   3.028 -1.0613  0.7483 -1.2074
  805SOL    HW2 2415   2.883   1.284   3.063 -3.8831 -1.6033 -1.5381
  806SOL     OW 2416   0.528   2.535   0.337  0.5713 -0.0859  0.2377
  806SOL    HW1 2417   0.624   2.533   0.322 -3.3694  1.1919  1.2536
  806SOL    HW2 2418   0.474   2.600   0.277  0.1029 -1.1265  2.3062
  807SOL     OW 2419   2.183   1.661   2.693  0.1264  0.0843 -0.1207
  807SOL    HW1 2420   2.150   1.738   2.631  1.7126 -0.7434 -0.0227
  807SOL    HW2 2421   2.156   1.565   2.661 -0.2518 -0.0711 -1.8886
  808SOL     OW 2422   1.152   1.478   1.197  0.2274  0.0137  0.5380
  808SOL    HW1 2423   1.181   1.389   1.236 -0.6365  0.7104 -1.9940
  808SOL    HW2 2424   1.056   1.506   1.211  1.1321  0.7208  1.7109
  809SOL     OW 2425   2.857   0.666   0.545 -0.4077  0.1438 -0.0447
  809SOL    HW1 2426   2.763   0.691   0.555 -0.2164 -0.0900  0.3968
  809SOL    HW2 2427   2.878   0.584   0.488  1.5903 -0.7024 -0.5901
  810SOL     OW 2428   0.686   1.479   0.644 -0.7968 -0.6211 -0.1444
  810SOL    HW1 2429   0.708   1.545   0.713  1.8912 -2.2948 -3.1938
  810SOL    HW2 2430   0.717   1.502   0.553  1.2952  2.8901  1.4533
  811SOL     OW 2431   1.839   2.606   1.280 -0.1863 -0.5526  0.0482
  811SOL    HW1 2432   1.802   2.519   1.246  0.5602  0.6433  0.8500
  811SOL    HW2 2433   1.933   2.592   1.318  0.3309  1.1064 -1.0146
  812SOL     OW 2434   1.345   2.777   1.440  0.3172  0.1695  0.0312
  812SOL    HW1 2435   1.418   2.849   1.449 -0.1224  0.8020  0.3943
  812SOL    HW2 2436   1.268   2.813   1.388  3.0036  2.1900  3.6965
  813SOL     OW 2437   0.948   2.831   1.601  0.1898 -0.2153  0.2774
  813SOL    HW1 2438   0.905   2.784   1.679 -1.6705  1.3425 -0.6817
  813SOL    HW2 2439   0.881   2.906   1.567 -3.4613  1.8144 -2.8191
  814SOL     OW 2440   0.884   2.805   2.402  0.0600  0.2703 -0.3792
  814SOL    HW1 2441   0.856   2.831   2.307  1.6767  0.5120  0.3754
  814SOL    HW2 2442   0.854   2.714   2.433  0.1683  1.8529 -0.9345
  815SOL     OW 2443   0.854   0.119   2.608  0.2723  0.7089  0.0686
  815SOL    HW1 2444   0.771   0.073   2.569 -2.5112 -4.1699 -1.1028
  815SOL    HW2 2445   0.880   0.193   2.542  0.7375  1.3253 -0.4990
  816SOL     OW 2446   2.380   0.423   3.039 -0.8784  0.3453  0.5117
  816SOL    HW1 2447   2.466   0.426   3.098  0.4490  1.1792  4.0776
  816SOL    HW2 2448   2.311   0.367   3.089  2.6899 -0.8390 -0.2082
  817SOL     OW 2449   2.320   3.064   1.880 -0.0221 -0.1085 -0.3622
  817SOL    HW1 2450   2.369   0.053   1.871  1.5476  2.8003 -1.4397
  817SOL    HW2 2451   2.371   2.983   1.843 -0.1042 -1.4172  3.1686
  818SOL     OW 2452   1.153   0.585   0.322  0.6857  0.0074 -0.1761
  818SOL    HW1 2453   1.091   0.661   0.296  0.3992 -0.0161  1.1653
  818SOL    HW2 2454   1.154   0.569   0.423  1.4953 -0.0968 -0.5278
  819SOL     OW 2455   1.824   1.855   2.484 -0.0367  0.1008 -0.5110
  819SOL    HW1 2456   1.741   1.801   2.514  1.3279  1.3720 -0.0605
  819SOL    HW2 2457   1.910   1.823   2.531  0.6446 -0.8888  1.5120
  820SOL     OW 2458   3.073   1.405   2.633 -0.3033 -0.1388 -0.9811
  820SOL    HW1 2459   0.072   1.416   2.607 -0.8974 -0.0578  0.8860
  820SOL    HW2 2460   3.041   1.312   2.610 -2.0705 -2.5560 -1.5054
  821SOL     OW 2461   0.098   2.684   0.742 -0.4150  0.0140  0.3193
  821SOL    HW1 2462   0.174   2.742   0.708  0.5730 -0.8205  0.5888
  821SOL    HW2 2463   0.125   2.586   0.750  1.5592 -1.3767  0.5004
  822SOL     OW 2464   2.347   2.614   2.580 -0.2770 -0.5938 -0.2565
  822SOL    HW1 2465   2.253   2.648   2.562 -0.4749 -1.1909  3.0718
  822SOL    HW2 2466   2.392   2.661   2.661 -0.5154 -2.0941  1.4539
  823SOL     OW 2467   1.448   3.081   2.220 -0.3361 -0.3476 -0.9968
  823SOL    HW1 2468   1.444   2.992   2.269 -1.6141  1.0129  0.7734
  823SOL    HW2 2469   1.353   0.022   2.219  1.5082  0.6171  0.6992
  824SOL     OW 2470   2.711   2.287   2.092  0.6065 -0.6654 -0.3363
  824SOL    HW1 2471   2.730   2.387   2.086 -2.7735 -3.2796  0.0387
  824SOL    HW2 2472   2.700   2.265   2.191  0.7227 -0.2226  0.3962
  825SOL     OW 2473   2.891   2.075   2.447 -0.2665 -0.1820  0.0923
  825SOL    HW1 2474   2.799   2.096   2.405 -3.9827 -0.2325  1.3502
  825SOL    HW2 2475   2.959   2.136   2.402  0.0320  1.9118 -1.3649
  826SOL     OW 2476   2.194   0.499   2.655 -0.4192  0.4532 -0.9000
  826SOL    HW1 2477   2.261   0.442   2.700 -0.1967  2.4030 -2.8720
  826SOL    HW2 2478   2.194   0.590   2.703  0.9704  0.1976  0.0126
  827SOL     OW 2479   2.781   2.017   1.512  0.4151 -0.1868  0.1360
  827SOL    HW1 2480   2.708   2.089   1.523 -1.1140 -1.7196 -1.4176
  827SOL    HW2 2481   2.734   1.943   1.453  1.0349  0.4384  0.8481
  828SOL     OW 2482   2.858   0.169   1.825  0.2820 -0.0213 -0.1375
  828SOL    HW1 2483   2.903   0.104   1.759  1.4776 -0.2418 -1.5760
  828SOL    HW2 2484   2.899   0.258   1.801  0.1606  0.8022 -2.9796
  829SOL     OW 2485   0.965   1.963   2.778 -0.5439  0.2938 -0.1999
  829SOL    HW1 2486   0.981   1.885   2.716 -1.3142 -1.3007  0.7317
  829SOL    HW2 2487   0.863   1.982   2.782 -0.9927 -0.0666 -0.7774
  830SOL     OW 2488   0.986   0.986   0.907  0.0892 -0.0200  0.2619
  830SOL    HW1 2489   0.999   1.009   1.004 -0.1853  1.0497  0.4635
  830SOL    HW2 2490   0.903   1.031   0.871  2.5237 -0.1073 -0.5040
  831SOL     OW 2491   2.865   1.593   2.646  0.4827 -0.0187 -0.0704
  831SOL    HW1 2492   2.892   1.690   2.657  0.5228 -1.1759 -0.8562
  831SOL    HW2 2493   2.944   1.530   2.637 -1.3210  0.7757  1.9891
  832SOL     OW 2494   1.725   2.531   2.332 -0.3946  0.2361  0.2848
  832SOL    HW1 2495   1.749   2.550   2.236 -3.1414  1.0642 -1.1923
  832SOL    HW2 2496   1.644   2.584   2.364 -3.6704  0.1604  0.4096
  833SOL     OW 2497   0.942   0.297   2.055 -0.4583  0.6937  0.2111
  833SOL    HW1 2498   1.013   0.370   2.036  2.0831 -1.0260 -0.7068
  833SOL    HW2 2499   0.860   0.332   2.106 -2.6076 -1.9738  0.8641
  834SOL     OW 2500   0.075   0.348   1.457  0.3684  0.0338  0.7629
  834SOL    HW1 2501   0.007   0.394   1.400 -3.5132  0.0049  3.5410
  834SOL    HW2 2502   0.099   0.406   1.538 -0.6551  0.9769 -2.1877
  835SOL     OW 2503   2.844   0.614   0.175  0.2972 -0.0866  0.0570
  835SOL    HW1 2504   2.848   0.543   0.247  1.7525  3.6366  3.5364
  835SOL    HW2 2505   2.808   0.574   0.084 -0.3481 -2.8655  2.0279
  836SOL     OW 2506   1.628   1.979   0.111 -0.0322 -0.2300  0.1819
  836SOL    HW1 2507   1.592   2.073   0.096 -0.2091  2.0594  0.2639
  836SOL    HW2 2508   1.654   1.973   0.210  1.4328  0.7956  1.2030
  837SOL     OW 2509   1.987   1.818   0.749  0.3577 -0.1972 -0.6355
  837SOL    HW1 2510   2.055   1.735   0.752 -0.2457 -3.0221  1.9544
  837SOL    HW2 2511   2.005   1.885   0.674 -0.8728  0.7488 -1.3544
  838SOL     OW 2512   1.676   0.928   2.381  0.1753 -0.1346  0.2108
  838SOL    HW1 2513   1.712   0.919   2.285 -0.9516 -2.4428 -2.1750
  838SOL    HW2 2514   1.746   0.944   2.451 -0.9312 -0.1873 -5.9236
  839SOL     OW 2515   0.836   1.524   2.112 -0.0156 -0.2271 -0.3134
  839SOL    HW1 2516   0.765   1.481   2.051  1.0663  0.1098  0.1585
  839SOL    HW2 2517   0.865   1.467   2.191  0.2889  1.8470  0.8930
  840SOL     OW 2518   1.214   1.694   0.348  0.0969 -0.1058 -0.3306
  840SOL    HW1 2519   1.165   1.774   0.384  0.0837 -0.8108  0.1447
  840SOL    HW2 2520   1.291   1.675   0.405  0.4833 -1.4033 -1.5672
  841SOL     OW 2521   1.520   2.214   0.549 -0.7236  0.0452  0.1074
  841SOL    HW1 2522   1.552   2.297   0.594  1.4809 -0.5056  0.4169
  841SOL    HW2 2523   1.435   2.237   0.506 -0.8110  1.3765  0.1100
  842SOL     OW 2524   0.494   0.404   0.168 -0.2093 -0.5614 -0.1713
  842SOL    HW1 2525   0.593   0.368   0.182 -2.8319 -2.1684 -0.8314
  842SOL    HW2 2526   0.440   0.354   0.095 -0.7244  3.2604  0.2708
  843SOL     OW 2527   0.729   0.321   0.574  0.1760 -0.5422  0.5825
  843SOL    HW1 2528   0.629   0.312   0.586  1.6309  0.6521 -5.3588
  843SOL    HW2 2529   0.748   0.383   0.496 -2.4539  0.2111  0.3904
  844SOL     OW 2530   2.752   0.146   2.805  0.0798  1.1474  0.0590
  844SOL    HW1 2531   2.662   0.095   2.815 -1.5709  1.2592  2.4239
  844SOL    HW2 2532   2.820   0.102   2.870  0.4791 -2.3328 -1.3533
  845SOL     OW 2533   2.963   2.340   1.623 -0.4451  0.6810 -0.4574
  845SOL    HW1 2534   2.896   2.327   1.701  0.8200  1.3754  0.8921
  845SOL    HW2 2535   2.945   2.280   1.546  1.7843  0.1229  1.5707
  846SOL     OW 2536   2.507   1.651   2.286 -0.1896  0.4354  0.0560
  846SOL    HW1 2537   2.594   1.661   2.344  2.0026 -3.5620  2.3779
  846SOL    HW2 2538   2.524   1.587   2.207  1.1331 -0.2957 -1.2876
  847SOL     OW 2539   1.158   0.794   1.983  0.1316 -0.3458 -0.3857
  847SOL    HW1 2540   1.160   0.698   2.015 -0.4967  0.9642 -0.7224
  847SOL    HW2 2541   1.169   0.801   1.880  0.5683 -1.3519 -1.2932
  848SOL     OW 2542   2.670   2.917   2.794  0.5323 -0.2290  0.0127
  848SOL    HW1 2543   2.735   2.876   2.861 -0.3372  1.2646 -0.8628
  848SOL    HW2 2544   2.632   3.007   2.828 -1.3385  2.4121  1.3883
  849SOL     OW 2545   0.341   2.806   2.955 -0.1902 -0.1748  0.2996
  849SOL    HW1 2546   0.266   2.872   2.945  1.5759  0.3080 -0.1938
  849SOL    HW2 2547   0.312   2.713   2.930  0.6572  3.7875  2.1667
  850SOL     OW 2548   1.234   2.685   1.027 -0.5946  0.1091  0.3656
  850SOL    HW1 2549   1.298   2.634   1.090 -0.4755 -1.2210  0.4642
  850SOL    HW2 2550   1.210   2.628   0.944  0.5782 -2.9457 -3.9348
  851SOL     OW 2551   2.575   0.333   2.384  0.1244  0.0203  0.0036
  851SOL    HW1 2552   2.549   0.317   2.287  2.7538  3.0302 -0.0070
  851SOL    HW2 2553   2.675   0.323   2.393 -1.5619  0.9598 -0.7508
  852SOL     OW 2554   1.429   0.314   2.534 -0.2028  0.0325  0.5730
  852SOL    HW1 2555   1.484   0.239   2.487 -1.9545 -0.1717 -0.9726
  852SOL    HW2 2556   1.374   0.270   2.607 -0.9298 -0.4657 -1.3296
  853SOL     OW 2557   0.027   2.683   0.147  0.1718 -0.0547 -0.0288
  853SOL    HW1 2558   3.046   2.685   0.212 -0.4077 -0.6078 -2.0262
  853SOL    HW2 2559   0.107   2.727   0.187 -0.9556 -1.4788 -0.8863
  854SOL     OW 2560   2.339   0.813   2.567 -0.1807 -0.0171 -0.1790
  854SOL    HW1 2561   2.373   0.775   2.482 -2.9042  0.9082 -1.0848
  854SOL    HW2 2562   2.409   0.813   2.642  0.1293  1.3794  0.2107
  855SOL     OW 2563   0.795   2.472   0.284 -0.2046  0.2793 -0.1486
  855SOL    HW1 2564   0.772   2.441   0.190 -2.5690 -0.1635 -1.5866
  855SOL    HW2 2565   0.872   2.539   0.283 -1.2907  2.4909 -0.2989
  856SOL     OW 2566   3.016   2.948   2.701  0.4094 -0.5372 -0.0134
  856SOL    HW1 2567   0.017   2.949   2.688 -1.0202 -2.8995 -0.7416
  856SOL    HW2 2568   2.979   2.975   2.790 -1.8143 -1.1641 -0.3971
  857SOL     OW 2569   1.041   2.797   1.326  0.2448  0.5948 -0.3125
  857SOL    HW1 2570   1.009   2.789   1.422 -1.9210 -0.4155  0.9723
  857SOL    HW2 2571   0.972   2.778   1.256  2.5936  0.7765 -0.6094
  858SOL     OW 2572   2.563   2.177   1.598 -0.4989 -0.3381  0.1796
  858SOL    HW1 2573   2.566   2.208   1.695  0.1887 -0.3834  1.2887
  858SOL    HW2 2574   2.473   2.132   1.582 -1.6295  0.3241  1.1294
  859SOL     OW 2575   1.781   2.208   1.689  0.2097  0.2741 -0.2573
  859SOL    HW1 2576   1.784   2.110   1.694  1.6609  0.2330  0.8963
  859SOL    HW2 2577   1.733   2.247   1.769 -1.2350  0.2817 -3.4490
  860SOL     OW 2578   2.027   3.075   0.234 -0.0676 -0.3149 -0.4649
  860SOL    HW1 2579   2.006   0.077   0.211  1.5199  0.5277 -1.3522
  860SOL    HW2 2580   1.945   3.016   0.211  0.5938 -0.4212  1.7128
  861SOL     OW 2581   2.759   0.222   0.563  0.6276  0.1952 -0.2980
  861SOL    HW1 2582   2.813   0.134   0.575  0.2356  2.2383 -0.5721
  861SOL    HW2 2583   2.657   0.199   0.567 -1.7803 -3.0716  0.5885
  862SOL     OW 2584   1.078   2.677   2.762  0.3402  0.3167 -0.0573
  862SOL    HW1 2585   1.007   2.743   2.759  0.1446 -2.3244  0.8556
  862SOL    HW2 2586   1.080   2.622   2.677 -1.6686 -0.4692  0.3015
  863SOL     OW 2587   0.562   0.617   1.327 -0.0004  0.1286 -0.0755
  863SOL    HW1 2588   0.576   0.675   1.245  1.3068  0.7997  2.0428
  863SOL    HW2 2589   0.513   0.532   1.296 -2.8287 -0.4003 -0.6731
  864SOL     OW 2590   3.037   3.070   1.706  0.2186 -0.4787  0.7453
  864SOL    HW1 2591   0.019   0.029   1.739  1.6080 -2.4608 -1.2352
  864SOL    HW2 2592   3.040   2.982   1.755 -0.2270  0.2085 -1.6989
  865SOL     OW 2593   0.523   1.372   3.013 -0.4578 -0.2849  0.0185
  865SOL    HW1 2594   0.560   1.306   2.943  0.2374 -1.7408 -1.3472
  865SOL    HW2 2595   0.445   1.329   3.061  1.2955  0.1438 -2.0591
  866SOL     OW 2596   3.027   0.339   0.099 -0.0135  0.1758  0.4953
  866SOL    HW1 2597   2.992   0.366   0.008 -2.3011 -0.8766 -0.4822
  866SOL    HW2 2598   3.070   0.422   0.151  0.1257  0.2407  0.0396
  867SOL     OW 2599   2.852   2.800   2.957  0.0343  0.2974  0.3272
  867SOL    HW1 2600   2.947   2.769   2.931  1.6115  0.0220  0.8958
  867SOL    HW2 2601   2.812   2.746   3.031  0.0853  2.1984 -0.9609
  868SOL     OW 2602   1.409   0.695   0.286  0.3661 -0.1878  0.4999
  868SOL    HW1 2603   1.320   0.644   0.287 -1.1839 -1.6367 -0.5258
  868SOL    HW2 2604   1.464   0.671   0.368 -2.1248  2.3941  0.2567
  869SOL     OW 2605   2.518   1.396   0.563  0.6296 -0.4694 -0.1500
  869SOL    HW1 2606   2.488   1.450   0.481 -2.0810  1.7499 -0.5123
  869SOL    HW2 2607   2.482   1.444   0.644  3.0868 -1.9845  1.2776
  870SOL     OW 2608   2.440   1.500   0.322  0.0820 -0.5261  0.1646
  870SOL    HW1 2609   2.494   1.456   0.247  2.3234 -2.0577  0.7471
  870SOL    HW2 2610   2.357   1.546   0.293 -0.6442  0.3428  4.1849
  871SOL     OW 2611   1.465   1.451   0.584  0.5076 -0.0244 -0.3648
  871SOL    HW1 2612   1.442   1.373   0.521 -0.3613 -3.2274  2.3882
  871SOL    HW2 2613   1.460   1.425   0.682  1.0711  1.6543  1.2275
  872SOL     OW 2614   1.391   1.712   1.533 -0.3017  0.2316 -0.1301
  872SOL    HW1 2615   1.364   1.618   1.558  0.0675  1.2390  0.2876
  872SOL    HW2 2616   1.347   1.738   1.448 -2.3629 -0.5019  0.2903
  873SOL     OW 2617   0.729   1.757   2.203 -0.0762  0.7199  0.0229
  873SOL    HW1 2618   0.760   1.820   2.128 -1.4569 -0.0940  1.4915
  873SOL    HW2 2619   0.743   1.660   2.189 -0.9271  0.2047  1.6418
  874SOL     OW 2620   0.929   1.641   1.233  0.1731  0.2276 -0.0175
  874SOL    HW1 2621   0.952   1.722   1.176 -0.8367 -4.2321  0.7107
  874SOL    HW2 2622   0.864   1.578   1.187  0.4242  0.7861  0.6125
  875SOL     OW 2623   2.214   0.463   1.134  0.1850  0.0276  0.2254
  875SOL    HW1 2624   2.206   0.370   1.181 -0.3824  1.9272  0.4972
  875SOL    HW2 2625   2.209   0.533   1.206 -0.5082  0.2536 -0.0325
  876SOL     OW 2626   0.748   0.320   0.212 -0.5584 -0.3464 -0.0029
  876SOL    HW1 2627   0.765   0.379   0.292  0.0665 -0.7016 -0.7706
  876SOL    HW2 2628   0.831   0.272   0.181 -0.9473  2.8119  0.6841
  877SOL     OW 2629   2.969   0.507   1.332 -0.2538 -0.0646  0.4648
  877SOL    HW1 2630   2.931   0.441   1.265  2.6699 -1.0286 -3.1122
  877SOL    HW2 2631   3.038   0.561   1.276  1.8967  0.4852 -2.4827
  878SOL     OW 2632   1.938   2.276   0.177 -0.1025  0.5840 -0.3580
  878SOL    HW1 2633   1.893   2.345   0.117  0.0734 -0.3270 -1.8988
  878SOL    HW2 2634   2.004   2.221   0.124 -0.6400 -0.8944 -2.6024
  879SOL     OW 2635   2.615   1.839   1.382 -0.1657 -0.1502 -0.2620
  879SOL    HW1 2636   2.529   1.866   1.331  1.4809 -1.7613  1.5069
  879SOL    HW2 2637   2.592   1.775   1.456 -2.0434  0.3080 -1.7592
  880SOL     OW 2638   1.177   3.024   1.217 -0.5467 -0.0968  0.3848
  880SOL    HW1 2639   1.121   2.955   1.259  0.9573  3.3397 -1.1367
  880SOL    HW2 2640   1.163   3.016   1.115  0.2716  0.1078 -5.8282
  881SOL     OW 2641   1.063   1.938   0.246 -0.4060 -0.3840  0.0306
  881SOL    HW1 2642   1.014   2.019   0.282 -0.0498  1.8195  2.1361
  881SOL    HW2 2643   1.148   1.961   0.195  1.0817  1.0905  0.4084
  882SOL     OW 2644   2.072   0.870   2.153 -0.2088 -0.4308 -0.1360
  882SOL    HW1 2645   2.101   0.953   2.206 -1.3044  2.0529 -0.4069
  882SOL    HW2 2646   2.151   0.836   2.094 -0.7544  1.4981 -0.1870
  883SOL     OW 2647   1.210   0.258   2.187  1.0955 -0.5250 -0.1569
  883SOL    HW1 2648   1.289   0.301   2.144 -0.8398  0.3338  1.5423
  883SOL    HW2 2649   1.134   0.332   2.183 -0.6005  3.9038  0.4759
  884SOL     OW 2650   2.891   0.153   0.253 -0.1180  0.6076  0.4546
  884SOL    HW1 2651   2.788   0.140   0.239 -2.7583 -0.6952 -2.3609
  884SOL    HW2 2652   2.915   0.219   0.176 -2.0439 -1.2213 -0.0462
  885SOL     OW 2653   0.862   1.626   0.050  0.3188  0.0915 -0.0555
  885SOL    HW1 2654   0.890   1.625   3.049 -2.8572  1.4636  1.4991
  885SOL    HW2 2655   0.759   1.628   0.070 -1.2880 -0.8108 -0.3791
  886SOL     OW 2656   1.892   1.479   2.789  0.1392 -0.0066  0.1183
  886SOL    HW1 2657   1.908   1.453   2.689 -1.5598 -2.1729 -2.1425
  886SOL    HW2 2658   1.930   1.568   2.826  0.4847  3.5542  2.1424
  887SOL     OW 2659   1.549   0.518   1.695  0.3950  0.4270 -0.1060
  887SOL    HW1 2660   1.558   0.599   1.634 -0.6572 -1.3547 -0.8245
  887SOL    HW2 2661   1.617   0.519   1.770 -1.5632 -1.1401 -3.2351
  888SOL     OW 2662   2.805   0.610   1.877 -0.1604 -0.6873  0.0550
  888SOL    HW1 2663   2.783   0.707   1.883 -1.4870 -1.3813 -1.7807
  888SOL    HW2 2664   2.858   0.587   1.793 -1.8429 -0.4706  3.6254
  889SOL     OW 2665   2.962   2.651   0.583  0.0515  0.0786 -0.3095
  889SOL    HW1 2666   2.872   2.680   0.625 -1.6045  3.7722  1.6958
  889SOL    HW2 2667   3.036   2.677   0.644 -0.0230  1.4848 -2.5484
  890SOL     OW 2668   2.811   2.560   3.085  0.4696  0.0091 -0.4304
  890SOL    HW1 2669   2.791   2.477   0.047 -2.2141 -1.4303  0.6687
  890SOL    HW2 2670   2.865   2.535   3.006 -2.8527  0.9181  1.4703
  891SOL     OW 2671   1.017   1.544   2.924  0.8016 -0.0160  0.2655
  891SOL    HW1 2672   0.937   1.495   2.881  3.8648 -1.0928 -0.3039
  891SOL    HW2 2673   1.085   1.552   2.857  0.3748 -0.3441 -0.6237
  892SOL     OW 2674   0.039   3.035   1.097 -0.2621 -0.2811  0.2687
  892SOL    HW1 2675   0.032   3.010   0.997  2.1576 -1.1310 -0.8478
  892SOL    HW2 2676   0.011   0.034   1.117  1.1035  0.6156 -1.0548
  893SOL     OW 2677   0.649   2.807   0.921 -0.5059 -0.7063  0.0074
  893SOL    HW1 2678   0.716   2.733   0.908 -0.3288  0.2069 -0.9154
  893SOL    HW2 2679   0.708   2.890   0.898  1.0588 -0.3395 -2.0097
  894SOL     OW 2680   2.895   1.204   0.824  0.3759  0.2730  0.0265
  894SOL    HW1 2681   2.834   1.284   0.798 -1.6039  0.0796  0.1179
  894SOL    HW2 2682   2.975   1.194   0.760  0.3851 -0.8807 -1.9474
  895SOL     OW 2683   2.745   2.902   1.774 -0.1515  0.0543  0.1439
  895SOL    HW1 2684   2.822   2.967   1.796 -0.8450  0.2166 -0.9407
  895SOL    HW2 2685   2.764   2.858   1.681 -0.5952  3.6397 -2.3901
  896SOL     OW 2686   1.078   0.066   1.769 -0.0508 -0.6089 -0.1663
  896SOL    HW1 2687   0.981   0.038   1.789  1.2450  0.1118  0.1638
  896SOL    HW2 2688   1.139   0.066   1.853 -0.7080  1.8661  1.2877
  897SOL     OW 2689   1.044   1.446   1.573  0.3009  0.4567 -0.1366
  897SOL    HW1 2690   0.993   1.376   1.519  0.6982 -1.2054  0.3879
  897SOL    HW2 2691   1.032   1.542   1.537 -1.7945 -0.7837  1.0975
  898SOL     OW 2692   1.212   2.526   1.847 -0.3012 -0.2234  0.3778
  898SOL    HW1 2693   1.164   2.611   1.868 -0.5679 -1.6396 -0.6262
  898SOL    HW2 2694   1.241   2.516   1.747  0.7544 -0.2366 -2.9602
  899SOL     OW 2695   0.826   0.501   0.392  0.6177 -0.2346 -0.0743
  899SOL    HW1 2696   0.778   0.583   0.347  0.7338 -0.6602 -1.2892
  899SOL    HW2 2697   0.911   0.530   0.442 -2.3593 -0.0833  0.9497
  900SOL     OW 2698   1.445   2.543   2.000 -0.1206 -0.2496 -0.2719
  900SOL    HW1 2699   1.367   2.546   1.937  1.5150  0.3204  2.3246
  900SOL    HW2 2700   1.512   2.616   1.976 -0.4085  0.8597  1.0173
  901SOL     OW 2701   0.810   2.390   0.021 -0.3386 -0.4978  0.5102
  901SOL    HW1 2702   0.878   2.320   0.011 -2.2098 -2.7905 -1.9390
  901SOL    HW2 2703   0.814   2.465   3.046 -1.2694  2.4168 -2.0944
  902SOL     OW 2704   2.010   1.109   0.215 -0.8310  1.0607 -0.3019
  902SOL    HW1 2705   2.062   1.027   0.183  0.7210  0.2860  1.5930
  902SOL    HW2 2706   2.053   1.194   0.173  0.5144  2.4127  1.3753
  903SOL     OW 2707   2.072   0.991   0.466  0.4032  0.1109  0.6020
  903SOL    HW1 2708   1.982   0.950   0.477  0.8649 -3.3842 -1.3284
  903SOL    HW2 2709   2.073   1.040   0.378 -1.1489  1.3535 -1.4766
  904SOL     OW 2710   0.936   1.138   2.965 -0.0470  0.1245 -0.1180
  904SOL    HW1 2711   0.943   1.198   3.050 -0.9749 -0.6919  4.1949
  904SOL    HW2 2712   0.997   1.059   2.974 -1.0489  1.1416 -1.7052
  905SOL     OW 2713   2.001   2.996   1.074 -0.0157 -0.3995  0.8197
  905SOL    HW1 2714   2.088   3.032   1.046  0.0539 -2.0674  1.5874
  905SOL    HW2 2715   1.933   3.073   1.064 -0.2589 -0.1979  2.6625
  906SOL     OW 2716   0.114   2.359   1.105 -0.2727 -0.6563 -0.1724
  906SOL    HW1 2717   0.037   2.319   1.054 -1.7442  2.1109 -1.0468
  906SOL    HW2 2718   0.192   2.367   1.042  1.9964 -0.7312 -0.5748
  907SOL     OW 2719   0.984   0.825   0.264 -0.3805 -0.1647  0.5709
  907SOL    HW1 2720   1.012   0.912   0.220  1.2901  0.3440 -2.3016
  907SOL    HW2 2721   0.895   0.797   0.224  4.3395 -1.7786  0.3467
  908SOL     OW 2722   1.848   2.783   1.058  0.0330  0.1657 -0.0754
  908SOL    HW1 2723   1.809   2.723   1.134 -2.1623  1.0585 -0.7751
  908SOL    HW2 2724   1.914   2.856   1.087 -0.9766 -0.2218 -0.3821
  909SOL     OW 2725   2.138   1.231   1.545 -0.7353  0.4637  0.4679
  909SOL    HW1 2726   2.064   1.294   1.546  2.6042 -2.5075  0.3334
  909SOL    HW2 2727   2.156   1.191   1.450 -0.9909  0.3590  0.1322
  910SOL     OW 2728   1.388   2.823   2.288  0.1078 -0.1071  0.0493
  910SOL    HW1 2729   1.448   2.743   2.311  0.8156  1.1900 -0.1611
  910SOL    HW2 2730   1.289   2.807   2.306 -0.6401  1.0110 -3.0788
  911SOL     OW 2731   2.936   0.687   2.287  0.0085  0.5487 -0.3160
  911SOL    HW1 2732   3.004   0.758   2.264  1.5929 -3.3989  1.0113
  911SOL    HW2 2733   2.947   0.657   2.385  0.5747 -0.1385 -2.4177
  912SOL     OW 2734   0.035   1.304   1.594  0.2572 -0.2232 -0.1246
  912SOL    HW1 2735   0.000   1.207   1.621  1.3878 -1.8246 -0.0882
  912SOL    HW2 2736   0.092   1.345   1.668  3.2573  1.1413  2.0890
  913SOL     OW 2737   2.850   2.427   1.311 -0.8091  0.9995 -0.2108
  913SOL    HW1 2738   2.913   2.346   1.308  2.2893 -0.0980 -0.0456
  913SOL    HW2 2739   2.812   2.438   1.216 -1.3345 -2.6810 -0.9694
  914SOL     OW 2740   1.763   0.819   1.708  0.1544  0.0392 -0.2700
  914SOL    HW1 2741   1.676   0.796   1.660 -0.5359 -3.4382  0.6868
  914SOL    HW2 2742   1.836   0.819   1.639 -1.5024 -1.1504  2.3359
  915SOL     OW 2743   1.935   0.618   1.446  0.1438 -0.0192 -0.2842
  915SOL    HW1 2744   1.918   0.557   1.525  0.4377 -1.5619 -1.8335
  915SOL    HW2 2745   1.862   0.598   1.378 -0.0446  1.6537  0.0460
  916SOL     OW 2746   2.771   2.727   0.993  0.5923  0.2597 -0.0819
  916SOL    HW1 2747   2.697   2.775   1.049 -1.6957  0.9485 -2.3202
  916SOL    HW2 2748   2.771   2.624   1.015 -2.8880 -1.8146  0.5765
  917SOL     OW 2749   1.891   1.962   0.090 -0.5452  0.2122  0.1755
  917SOL    HW1 2750   1.786   1.960   0.088 -0.2793  1.7921 -0.3680
  917SOL    HW2 2751   1.931   2.032   0.024  2.8761 -1.0897 -0.8125
  918SOL     OW 2752   1.801   2.936   2.452 -0.1569  0.4156  0.5125
  918SOL    HW1 2753   1.880   3.003   2.445  1.0932  2.9639 -0.1135
  918SOL    HW2 2754   1.733   2.958   2.523  1.6097  1.1703  2.6945
  919SOL     OW 2755   1.354   2.569   1.247  0.6790  0.1702  0.4012
  919SOL    HW1 2756   1.442   2.573   1.198 -0.9323 -1.9182  2.9498
  919SOL    HW2 2757   1.366   2.635   1.326 -1.3106  1.6848 -0.6700
  920SOL     OW 2758   3.085   0.195   2.361 -0.0071 -0.5722 -0.2069
  920SOL    HW1 2759   3.095   0.252   2.447  1.7353  1.7569  1.4824
  920SOL    HW2 2760   0.075   0.198   2.311  1.7202  0.1518  0.4158
  921SOL     OW 2761   2.889   0.949   1.707 -0.4364  0.3216 -0.2181
  921SOL    HW1 2762   2.868   1.047   1.702 -2.7818 -0.5633 -1.6338
  921SOL    HW2 2763   2.972   0.931   1.646  0.1119  0.5836 -0.2792
  922SOL     OW 2764   2.049   1.962   0.511 -0.2152 -0.3670 -0.1868
  922SOL    HW1 2765   2.142   1.991   0.479  0.2177  0.6155  0.6728
  922SOL    HW2 2766   1.984   2.040   0.496  0.8500  2.1891 -0.2456
  923SOL     OW 2767   0.871   1.765   0.292  0.0198 -0.0916 -0.5093
  923SOL    HW1 2768   0.865   1.706   0.204 -0.4461 -1.1697 -0.8054
  923SOL    HW2 2769   0.947   1.836   0.282  0.3601 -0.5046 -0.3531
  924SOL     OW 2770   0.969   0.192   0.111  0.1445  0.0375  0.1960
  924SOL    HW1 2771   0.903   0.117   0.088 -0.9090 -2.3422 -0.2940
  924SOL    HW2 2772   0.990   0.260   0.036 -2.3790 -0.1918 -3.1653
  925SOL     OW 2773   2.574   0.410   0.724 -0.2662 -0.2616 -0.0188
  925SOL    HW1 2774   2.562   0.314   0.698  1.1188  2.4519  0.9852
  925SOL    HW2 2775   2.529   0.434   0.814  2.4229  0.9619 -0.4984
  926SOL     OW 2776   0.551   0.039   1.073  0.1268  0.2270 -0.4211
  926SOL    HW1 2777   0.603   3.051   1.049 -3.2355 -2.3018 -0.9157
  926SOL    HW2 2778   0.456   0.011   1.076  2.6506  1.2881  2.1189
  927SOL     OW 2779   0.026   1.369   2.280  0.0267 -0.2499  0.6711
  927SOL    HW1 2780   0.058   1.448   2.332  0.7855 -0.9511 -0.9523
  927SOL    HW2 2781   0.100   1.299   2.258 -0.2142 -1.4657 -3.8353
  928SOL     OW 2782   3.039   0.372   2.805 -0.6683 -0.2268  0.4412
  928SOL    HW1 2783   3.040   0.460   2.852  0.8963 -0.9265 -0.0321
  928SOL    HW2 2784   2.946   0.361   2.759 -2.7929 -3.0402  0.8387
  929SOL     OW 2785   2.630   0.275   1.292  0.1176 -0.2904  0.5471
  929SOL    HW1 2786   2.535   0.257   1.323  1.7749  1.1916 -0.8653
  929SOL    HW2 2787   2.671   0.184   1.264 -1.2258 -2.7776 -3.0212
  930SOL     OW 2788   1.887   1.193   1.823  0.5065  0.0189 -0.5321
  930SOL    HW1 2789   1.809   1.153   1.872  1.2102 -0.4920 -2.3468
  930SOL    HW2 2790   1.973   1.147   1.859  1.4139  0.4479  0.8153
  931SOL     OW 2791   2.186   1.270   0.481 -0.0732 -0.1335  0.4843
  931SOL    HW1 2792   2.203   1.178   0.442 -0.9627 -0.7443  0.2119
  931SOL    HW2 2793   2.217   1.347   0.419  0.2480  2.4252  0.1637
  932SOL     OW 2794   2.382   1.228   0.917 -0.1726 -0.5993 -0.0132
  932SOL    HW1 2795   2.453   1.251   0.984 -2.6067 -2.3608  0.5631
  932SOL    HW2 2796   2.289   1.208   0.958 -4.0037 -1.4875 -1.2780
  933SOL     OW 2797   2.420   1.830   0.840  0.0269  0.5077  0.4855
  933SOL    HW1 2798   2.348   1.758   0.856  1.1285  0.7158  1.2601
  933SOL    HW2 2799   2.371   1.917   0.831 -0.6712 -0.8760 -0.3317
  934SOL     OW 2800   1.945   0.557   2.519 -0.3958 -0.0935 -0.3665
  934SOL    HW1 2801   1.971   0.599   2.431 -1.7759 -1.4072 -1.8783
  934SOL    HW2 2802   2.032   0.525   2.562 -1.1729 -0.4545 -0.7716
  935SOL     OW 2803   0.127   1.426   0.413 -0.2508  0.0467  0.0995
  935SOL    HW1 2804   0.066   1.415   0.496 -1.4769 -2.9468  0.7990
  935SOL    HW2 2805   0.188   1.509   0.419  1.6164  0.0149  0.3318
  936SOL     OW 2806   0.237   0.441   0.663 -0.0023 -0.1634 -0.3039
  936SOL    HW1 2807   0.153   0.474   0.617 -1.4855  0.0045  2.7520
  936SOL    HW2 2808   0.303   0.519   0.665 -0.2311  0.3321  0.6588
  937SOL     OW 2809   2.702   0.038   1.190 -0.0786  0.4447  0.0583
  937SOL    HW1 2810   2.600   0.040   1.180 -0.8258 -2.6825  2.6871
  937SOL    HW2 2811   2.751   0.062   1.108 -0.4613 -0.7900  0.7633
  938SOL     OW 2812   2.700   2.362   0.174 -0.2711 -0.2176 -0.2320
  938SOL    HW1 2813   2.772   2.336   0.240  1.2458  2.6341 -1.6310
  938SOL    HW2 2814   2.619   2.404   0.217 -0.6367 -0.5089 -2.4291
  939SOL     OW 2815   0.688   1.886   0.604 -0.2078 -0.1860  0.2262
  939SOL    HW1 2816   0.669   1.879   0.501 -1.2871  2.6503 -1.4098
  939SOL    HW2 2817   0.597   1.860   0.652 -2.1418 -1.1494  0.3056
  940SOL     OW 2818   0.184   0.275   2.925 -0.1731 -0.0267 -0.1940
  940SOL    HW1 2819   0.100   0.327   2.892 -1.2721  0.6798 -1.6693
  940SOL    HW2 2820   0.195   0.201   2.855  1.2476  0.6970 -0.0326
  941SOL     OW 2821   1.330   0.290   2.993  0.0645 -0.1111  0.0352
  941SOL    HW1 2822   1.340   0.394   2.998  0.7844  0.6619  0.8296
  941SOL    HW2 2823   1.257   0.264   3.058  0.2142 -0.1473  0.6888
  942SOL     OW 2824   1.021   0.851   1.409 -0.1765  0.2959 -0.0123
  942SOL    HW1 2825   1.017   0.748   1.400  0.7566 -2.7028  1.2302
  942SOL    HW2 2826   0.965   0.886   1.488  1.5691  2.3168  0.5853
  943SOL     OW 2827   1.434   1.085   1.887 -0.8698 -0.4676  0.3888
  943SOL    HW1 2828   1.532   1.075   1.921 -0.2051 -0.1757 -1.6597
  943SOL    HW2 2829   1.372   1.029   1.947  0.5633 -0.5712  0.4172
  944SOL     OW 2830   2.181   0.988   1.662 -0.5980  0.4803 -0.1273
  944SOL    HW1 2831   2.120   0.994   1.743  0.9483  2.1225  0.6791
  944SOL    HW2 2832   2.161   1.068   1.608  2.3413 -2.4203  1.8885
  945SOL     OW 2833   2.955   3.007   0.367 -1.0033 -0.9126 -0.4502
  945SOL    HW1 2834   2.930   3.026   0.461 -0.5248 -2.2180  0.2482
  945SOL    HW2 2835   2.921   3.083   0.304 -0.4544  0.4247 -2.0876
  946SOL     OW 2836   2.741   0.879   1.923  0.1781  0.0506  0.2479
  946SOL    HW1 2837   2.778   0.905   1.832  0.4502  0.5870  2.4736
  946SOL    HW2 2838   2.674   0.958   1.935 -1.0119  1.0180 -0.7197
  947SOL     OW 2839   0.904   2.714   0.423 -0.3401  0.0671  0.6209
  947SOL    HW1 2840   0.851   2.781   0.473  1.8564  0.1497 -0.0647
  947SOL    HW2 2841   0.910   2.748   0.327 -1.0340 -3.4855  0.3327
  948SOL     OW 2842   2.441   1.446   1.392  0.3607  0.4748  0.1040
  948SOL    HW1 2843   2.504   1.516   1.428  0.3031  1.6017 -1.2397
  948SOL    HW2 2844   2.426   1.376   1.464  1.0460 -2.2417  1.4904
  949SOL     OW 2845   0.396   1.294   2.701  0.4486 -0.0745 -0.7269
  949SOL    HW1 2846   0.314   1.290   2.759  0.2464 -0.0730  0.1237
  949SOL    HW2 2847   0.396   1.205   2.651  1.5435  2.9430  2.3604
  950SOL     OW 2848   0.468   2.774   1.156 -0.3990 -0.1793 -0.4883
  950SOL    HW1 2849   0.374   2.764   1.119  0.5792  1.3359 -0.3871
  950SOL    HW2 2850   0.535   2.746   1.082 -1.5629  1.2990 -3.7691
  951SOL     OW 2851   0.914   1.341   2.310 -0.5225 -0.2471  0.2914
  951SOL    HW1 2852   0.955   1.298   2.225  3.4744 -1.3970 -2.0364
  951SOL    HW2 2853   0.896   1.269   2.380  3.1716 -1.3349  2.3780
  952SOL     OW 2854   0.454   1.330   0.293  1.0428 -0.5711 -0.0314
  952SOL    HW1 2855   0.535   1.279   0.268 -1.7637 -1.4424  3.1353
  952SOL    HW2 2856   0.371   1.281   0.255 -1.7475 -0.3112 -0.5021
  953SOL     OW 2857   2.321   0.033   2.741  0.0750 -0.2266 -0.1579
  953SOL    HW1 2858   2.220   0.030   2.741  2.6912  1.3092 -2.3007
  953SOL    HW2 2859   2.364   3.070   2.668  0.4584  1.4762 -3.7689
  954SOL     OW 2860   1.688   1.202   0.512 -0.5097 -0.3632 -0.5846
  954SOL    HW1 2861   1.597   1.242   0.483 -0.4034  2.9719  2.5794
  954SOL    HW2 2862   1.752   1.274   0.536 -0.3074  0.5645 -2.5203
  955SOL     OW 2863   0.683   1.977   2.787 -0.3760  0.6744 -0.1996
  955SOL    HW1 2864   0.679   1.967   2.890 -1.3468  0.1757 -0.0719
  955SOL    HW2 2865   0.629   2.060   2.758  1.2300 -0.0927 -0.4189
  956SOL     OW 2866   2.001   0.579   2.238 -0.1651  0.4210 -0.2569
  956SOL    HW1 2867   2.058   0.494   2.225  3.1756  2.9204  2.0709
  956SOL    HW2 2868   2.054   0.654   2.194 -0.2328  0.5562 -2.0018
  957SOL     OW 2869   1.884   2.130   2.410 -0.2019 -0.6363  0.4569
  957SOL    HW1 2870   1.865   2.037   2.429 -0.9341  1.6289 -2.1430
  957SOL    HW2 2871   1.987   2.142   2.406  0.2418  0.8408 -0.1593
  958SOL     OW 2872   1.404   1.271   1.369  0.2335  0.1918  0.0719
  958SOL    HW1 2873   1.441   1.199   1.434  0.0388 -0.3188 -2.2468
  958SOL    HW2 2874   1.363   1.230   1.285  3.0356 -0.4064 -0.4968
  959SOL     OW 2875   1.950   2.402   2.410  0.0870  0.6865  0.4192
  959SOL    HW1 2876   1.884   2.463   2.366 -2.1395 -0.9080  0.6013
  959SOL    HW2 2877   1.932   2.305   2.383  2.7577 -0.9317 -0.5692
  960SOL     OW 2878   0.259   0.767   2.589  0.8258 -0.2516 -0.1297
  960SOL    HW1 2879   0.253   0.779   2.486  0.4553 -1.8722 -0.2195
  960SOL    HW2 2880   0.167   0.785   2.631 -1.2585  1.9598  1.1104
  961SOL     OW 2881   0.346   0.999   2.708  0.3450  0.1555 -0.2641
  961SOL    HW1 2882   0.349   0.906   2.668 -0.3131  4.1568 -0.9514
  961SOL    HW2 2883   0.330   1.008   2.810 -1.7366  0.3919  0.6925
  962SOL     OW 2884   0.672   1.163   2.898 -0.2640 -0.0175 -0.3883
  962SOL    HW1 2885   0.764   1.148   2.927  0.1653  0.6633 -1.0009
  962SOL    HW2 2886   0.647   1.128   2.806 -1.2459  1.3487  3.2689
  963SOL     OW 2887   2.660   2.111   0.013 -0.1988  0.0291  0.7708
  963SOL    HW1 2888   2.677   2.196   0.064  1.4465 -0.0636 -0.5498
  963SOL    HW2 2889   2.729   2.043   0.028 -3.8976  1.4513  1.5577
  964SOL     OW 2890   1.053   2.419   1.550 -0.4371 -0.1572 -0.1285
  964SOL    HW1 2891   1.128   2.491   1.556  1.2741  2.3536  0.9726
  964SOL    HW2 2892   0.958   2.461   1.546 -1.1067  1.3928 -0.2844
  965SOL     OW 2893   1.647   1.692   0.268 -0.3492 -0.1679  0.2972
  965SOL    HW1 2894   1.712   1.638   0.329 -0.9543 -1.9097 -1.5670
  965SOL    HW2 2895   1.658   1.791   0.291 -1.2856  2.0501  3.1201
  966SOL     OW 2896   3.026   1.620   0.323  0.1979  0.2401  0.3207
  966SOL    HW1 2897   3.091   1.553   0.356 -1.7389  1.6285 -1.5390
  966SOL    HW2 2898   3.042   1.706   0.365 -1.2614  0.1262 -1.1276
  967SOL     OW 2899   1.645   3.038   2.039  0.8727  0.2586  0.3451
  967SOL    HW1 2900   1.569   3.058   2.099 -0.5232  3.3339  0.0091
  967SOL    HW2 2901   1.707   2.970   2.079 -1.6127  0.2889 -1.8523
  968SOL     OW 2902   1.814   0.406   0.344 -0.5864  0.2054 -0.5910
  968SOL    HW1 2903   1.711   0.403   0.332 -0.5564  0.8966 -2.7931
  968SOL    HW2 2904   1.839   0.371   0.437  0.7696 -2.0165  0.2543
  969SOL     OW 2905   0.265   1.250   2.256  0.4395  0.1879 -0.4178
  969SOL    HW1 2906   0.352   1.259   2.309  1.4945 -0.8753 -1.0964
  969SOL    HW2 2907   0.276   1.164   2.204  2.6946  2.4114  0.6901
  970SOL     OW 2908   2.243   2.048   1.258 -0.1329 -0.3218  0.2190
  970SOL    HW1 2909   2.182   2.052   1.174  2.2817 -0.0535 -0.0923
  970SOL    HW2 2910   2.238   2.128   1.322  0.3743  1.0337  0.5177
  971SOL     OW 2911   3.021   2.780   1.170  0.0969  0.0330 -0.4609
  971SOL    HW1 2912   2.963   2.766   1.091  1.7410  0.3381 -2.2438
  971SOL    HW2 2913   3.066   2.874   1.170  0.3564  0.0469  1.7637
  972SOL     OW 2914   0.117   1.126   2.610 -0.2284  0.3000 -0.2516
  972SOL    HW1 2915   0.206   1.085   2.639 -1.2574 -1.6395 -0.2218
  972SOL    HW2 2916   0.075   1.082   2.532 -0.2252 -1.2304 -0.5000
  973SOL     OW 2917   0.442   0.225   0.658 -0.2589  0.3985 -0.5541
  973SOL    HW1 2918   0.419   0.269   0.743  1.1647 -0.0245 -2.8117
  973SOL    HW2 2919   0.397   0.273   0.577  0.6945 -0.5801  0.2027
  974SOL     OW 2920   2.393   0.850   1.774 -0.1030 -0.4580 -0.2996
  974SOL    HW1 2921   2.314   0.891   1.726 -1.1487  0.2927  1.9327
  974SOL    HW2 2922   2.463   0.830   1.702 -2.1574  0.3527  3.2712
  975SOL     OW 2923   2.700   2.712   0.191 -0.1144 -0.1810  0.3459
  975SOL    HW1 2924   2.765   2.714   0.267 -1.0356  0.1234  0.7901
  975SOL    HW2 2925   2.741   2.660   0.114 -2.1278  1.5324 -0.0254
  976SOL     OW 2926   0.515   1.559   1.172 -0.2754  0.0926 -0.0400
  976SOL    HW1 2927   0.430   1.526   1.138  0.8614  2.5688  3.3590
  976SOL    HW2 2928   0.497   1.608   1.261 -1.1260  0.4269  2.6369
  977SOL     OW 2929   1.130   2.249   0.891  0.1154 -0.2888  0.6060
  977SOL    HW1 2930   1.147   2.196   0.806  0.1505 -2.5842 -0.9735
  977SOL    HW2 2931   1.216   2.284   0.931 -0.5996 -0.0495  1.4225
  978SOL     OW 2932   0.348   0.850   0.255  0.0427 -0.4014  0.2063
  978SOL    HW1 2933   0.399   0.917   0.197 -0.9490 -0.0469  1.9454
  978SOL    HW2 2934   0.331   0.764   0.206  0.5185  0.6294  1.1798
  979SOL     OW 2935   2.193   1.600   0.321  0.2737  0.4021  0.0835
  979SOL    HW1 2936   2.221   1.619   0.416 -0.6456 -0.9643  2.2359
  979SOL    HW2 2937   2.129   1.679   0.288 -0.9903  2.8932  0.1904
  980SOL     OW 2938   0.263   1.744   2.098  0.0528 -0.1847  0.4864
  980SOL    HW1 2939   0.315   1.682   2.040  1.4495 -1.2418  0.7133
  980SOL    HW2 2940   0.330   1.787   2.158  0.0406 -1.7679 -0.2493
  981SOL     OW 2941   2.732   1.076   0.352 -0.5743  0.1368 -0.1271
  981SOL    HW1 2942   2.647   1.106   0.403  1.4167 -0.4186 -2.4424
  981SOL    HW2 2943   2.706   0.993   0.299  1.6831 -0.4820 -1.1401
  982SOL     OW 2944   2.930   2.763   2.014  0.0497  0.4407 -0.1509
  982SOL    HW1 2945   2.905   2.850   2.067 -2.4504  2.3071  0.2730
  982SOL    HW2 2946   3.013   2.779   1.952  2.1542  0.1996  0.1992
  983SOL     OW 2947   1.456   0.344   1.261 -0.2485  0.2521  0.8488
  983SOL    HW1 2948   1.416   0.253   1.287 -2.2364 -1.2937  2.5989
  983SOL    HW2 2949   1.553   0.334   1.234 -0.3998 -1.8962 -0.2431
  984SOL     OW 2950   1.327   2.477   3.026  0.0318  0.5739 -0.7995
  984SOL    HW1 2951   1.340   2.406   2.953 -0.8507 -1.6356 -2.8315
  984SOL    HW2 2952   1.398   2.550   3.015 -2.6272 -1.4737  0.4555
  985SOL     OW 2953   1.625   1.858   1.456  0.1600  0.3173 -0.0606
  985SOL    HW1 2954   1.555   1.790   1.448 -0.5126  2.2848 -2.2436
  985SOL    HW2 2955   1.705   1.842   1.390  1.5911 -0.2863 -2.0267
  986SOL     OW 2956   1.981   0.026   2.461 -0.2173 -0.2203  0.1514
  986SOL    HW1 2957   1.968   0.104   2.395 -2.1137  0.1084 -0.4660
  986SOL    HW2 2958   2.025   0.064   2.542  0.2920 -0.3462 -1.3961
  987SOL     OW 2959   2.747   1.659   2.378 -0.1610  0.3475 -0.1666
  987SOL    HW1 2960   2.762   1.628   2.472 -0.6534  0.3162  0.1322
  987SOL    HW2 2961   2.837   1.665   2.332  0.2118  0.0744 -0.2531
  988SOL     OW 2962   2.835   0.499   2.117 -0.4055  0.5207  0.5288
  988SOL    HW1 2963   2.821   0.539   2.023  0.1734 -0.9211 -0.4680
  988SOL    HW2 2964   2.867   0.566   2.186  1.7777 -0.8034 -0.9660
  989SOL     OW 2965   1.840   1.435   1.713 -0.5924  0.1517 -0.0820
  989SOL    HW1 2966   1.743   1.464   1.715  1.8706  1.6459  0.6594
  989SOL    HW2 2967   1.841   1.334   1.751 -0.1416 -2.2050  2.2992
  990SOL     OW 2968   2.985   1.113   0.283  0.0728 -0.7286  0.0563
  990SOL    HW1 2969   2.885   1.104   0.314 -1.5138  0.1060  1.2986
  990SOL    HW2 2970   3.038   1.036   0.323  0.9241  0.1817 -0.8164
  991SOL     OW 2971   0.279   1.847   2.721 -0.0886 -0.5469  0.3067
  991SOL    HW1 2972   0.216   1.802   2.784  0.2032  1.4774 -0.3368
  991SOL    HW2 2973   0.226   1.916   2.669 -1.1747 -0.0637 -0.3287
  992SOL     OW 2974   2.494   2.270   1.844  0.0418 -0.1533  0.1811
  992SOL    HW1 2975   2.437   2.346   1.877 -0.5611 -1.3923  0.6140
  992SOL    HW2 2976   2.556   2.241   1.916 -0.0540 -0.5983  0.3208
  993SOL     OW 2977   0.303   2.820   0.605  0.0015  0.5145 -0.1520
  993SOL    HW1 2978   0.317   2.915   0.579 -0.9400  0.0616  0.5046
  993SOL    HW2 2979   0.396   2.781   0.633  0.3456 -1.2036  0.2237
  994SOL     OW 2980   0.019   1.903   1.420  0.2414  0.1149  0.3441
  994SOL    HW1 2981   0.055   1.900   1.519  0.4066 -3.4397  1.1759
  994SOL    HW2 2982   0.107   1.894   1.365 -1.2941  1.2953  1.1687
  995SOL     OW 2983   2.268   1.755   2.219  0.5074  0.3975 -0.1065
  995SOL    HW1 2984   2.224   1.802   2.303 -0.8422  1.3136  1.1919
  995SOL    HW2 2985   2.357   1.711   2.249 -0.3901 -0.1720 -0.3348
  996SOL     OW 2986   1.906   1.709   2.950 -0.4820 -0.4008  0.3773
  996SOL    HW1 2987   1.842   1.670   3.021  0.6565  1.7292  1.8794
  996SOL    HW2 2988   1.864   1.798   2.908  1.9945  1.4233  0.3762
  997SOL     OW 2989   1.309   1.454   1.586 -0.3032 -0.1806  0.5089
  997SOL    HW1 2990   1.207   1.440   1.591  0.6168  0.7559  1.1204
  997SOL    HW2 2991   1.358   1.398   1.519 -0.2557 -1.0952  0.1605
  998SOL     OW 2992   2.998   2.179   0.981 -0.5080  0.6712  0.3339
  998SOL    HW1 2993   2.909   2.180   0.929 -2.1650  0.9357 -1.1658
  998SOL    HW2 2994   3.010   2.091   1.033  1.2009  2.7410  0.9570
  999SOL     OW 2995   2.330   2.720   0.017 -0.3347  0.2964  0.2213
  999SOL    HW1 2996   2.290   2.806   0.053 -1.3198  0.9546  0.9263
  999SOL    HW2 2997   2.343   2.737   3.015  0.1895 -0.1152  2.1281
 1000SOL     OW 2998   0.911   2.984   3.019 -0.0478  0.2997  0.3436
 1000SOL    HW1 2999   0.992   2.965   3.079 -2.4774  1.7427 -1.8626
 1000SOL    HW2 3000   0.924   3.065   2.952 -0.6425 -0.2199 -1.0356
   3.09845   3.09845   3.09845
